/*--------------------------------*- C++ -*----------------------------------*\
  =========                 |
  \\      /  F ield         | OpenFOAM: The Open Source CFD Toolbox
   \\    /   O peration     | Website:  https://openfoam.org
    \\  /    A nd           | Version:  9
     \\/     M anipulation  |
\*---------------------------------------------------------------------------*/
FoamFile
{
    format      ascii;
    class       volScalarField;
    location    "0.0001";
    object      alpha.c4;
}
// * * * * * * * * * * * * * * * * * * * * * * * * * * * * * * * * * * * * * //

dimensions      [0 0 0 0 0 0 0];

internalField   nonuniform List<scalar> 
1968
(
2.0328e-67
1.76781e-70
7.07665e-69
6.26873e-72
4.48268e-71
3.98309e-74
1.56233e-76
1.65526e-79
9.03505e-60
3.40928e-62
4.65331e-57
4.64951e-57
6.38037e-60
1.25333e-58
6.85323e-60
4.75239e-57
6.36236e-60
8.4054e-56
8.41491e-56
1.25801e-58
7.18179e-63
4.42414e-66
3.10249e-65
1.77334e-61
2.99814e-67
5.3063e-69
2.87078e-75
1.22588e-65
1.52496e-68
2.6685e-76
2.04958e-72
5.25471e-69
2.02823e-72
1.76267e-61
2.36576e-64
2.34663e-64
2.97104e-67
3.62223e-70
3.57993e-70
2.96826e-67
2.94509e-67
3.57994e-70
3.54686e-70
1.41836e-72
2.20894e-71
5.97115e-70
5.30617e-69
2.20886e-71
5.95956e-70
1.41943e-72
3.10013e-80
4.27081e-78
8.13156e-81
2.84131e-75
3.05498e-80
4.24381e-78
8.07269e-81
2.54381e-70
1.1005e-73
2.38825e-69
2.19936e-71
3.31479e-75
8.71005e-74
8.71379e-74
3.31384e-75
1.06904e-74
3.42314e-72
4.53019e-75
2.04955e-72
3.42128e-72
4.53003e-75
1.06905e-74
2.97131e-77
9.70627e-78
9.70587e-78
2.96925e-77
1.75415e-72
5.26898e-69
2.17498e-71
4.92668e-70
2.19597e-71
7.43252e-70
1.17685e-72
4.05078e-75
8.5279e-74
8.67323e-74
2.77006e-75
1.21292e-74
2.03097e-72
3.16101e-72
4.46787e-75
3.74047e-72
4.49047e-75
9.55182e-75
3.43045e-77
9.53651e-78
9.63414e-78
2.60688e-77
9.38974e-63
8.27931e-63
8.31431e-63
2.7946e-65
2.78926e-65
1.46393e-68
2.11725e-71
1.9847e-71
3.6317e-68
3.62064e-68
3.4795e-69
3.44335e-69
5.8027e-75
4.57157e-76
2.70535e-74
1.92525e-73
2.57246e-81
1.90902e-77
2.6279e-80
1.51734e-77
9.85144e-81
3.0999e-80
1.51729e-77
9.80907e-81
4.75158e-78
4.77412e-78
3.07012e-80
1.50007e-77
9.78894e-81
1.50221e-77
9.58619e-81
4.63761e-78
4.76172e-78
1.17819e-71
3.14269e-71
1.22022e-72
8.31935e-71
1.90504e-73
3.13717e-72
2.60095e-70
2.35569e-71
2.9682e-71
2.91908e-73
3.30616e-76
1.19183e-75
9.99688e-74
1.99595e-73
2.64149e-73
6.08355e-74
8.76115e-79
4.09478e-78
4.8621e-76
1.47e-76
1.4112e-73
2.662e-74
1.31526e-78
8.8322e-82
5.87391e-81
3.82692e-79
2.0276e-78
1.77898e-81
5.04262e-79
6.09262e-83
8.02571e-84
7.52222e-86
1.15575e-85
1.96376e-83
6.09207e-83
1.15564e-85
1.95664e-83
7.53497e-86
4.18531e-73
4.12999e-73
9.70135e-72
3.20439e-74
4.12643e-73
4.0815e-73
9.66283e-72
3.05595e-74
3.0848e-85
2.84253e-87
8.74427e-85
2.5016e-85
1.42626e-64
1.24916e-67
4.93285e-66
4.40073e-69
3.12637e-68
2.80041e-71
1.10444e-73
3.103e-76
6.70089e-79
1.92709e-73
4.1965e-76
7.67111e-65
2.69567e-66
1.71881e-68
6.81186e-71
1.02587e-70
8.70274e-74
2.2503e-73
1.8682e-76
2.66531e-79
5.47936e-82
2.94922e-82
4.53153e-85
1.63159e-76
3.45283e-79
1.70774e-79
2.8277e-82
4.00855e-62
1.41509e-63
9.05427e-66
3.60468e-68
1.73313e-59
6.22063e-61
4.00543e-63
1.60175e-65
5.96093e-57
2.22063e-58
1.44596e-60
2.78246e-64
1.53648e-54
6.16701e-56
4.09343e-58
1.65201e-60
1.65984e-63
5.80849e-63
6.36294e-66
8.60383e-77
1.52517e-79
6.82061e-67
1.4553e-69
3.86001e-74
1.83537e-71
3.63592e-69
7.02953e-77
2.74302e-74
7.17834e-72
4.58061e-68
1.66648e-65
4.74301e-63
3.92381e-71
1.47987e-68
4.1393e-66
1.01066e-70
3.69065e-68
1.05073e-65
8.47677e-74
3.13409e-71
8.91927e-69
5.55515e-70
1.09529e-72
8.92796e-76
3.90011e-77
8.30617e-75
2.08713e-75
2.66494e-75
1.90837e-80
1.39535e-80
7.16287e-81
2.11778e-81
1.90849e-80
1.40929e-80
2.27721e-81
7.11434e-81
4.25169e-73
4.23939e-73
1.52865e-74
9.69153e-77
1.38833e-74
8.56319e-77
5.82837e-82
7.72008e-82
4.81044e-82
2.48437e-82
7.81353e-83
5.78234e-82
2.17696e-82
2.18823e-82
2.67567e-75
1.13044e-75
5.7275e-76
7.78044e-78
4.91173e-78
3.93825e-78
1.12284e-78
2.0798e-75
1.22293e-75
6.42801e-76
1.23043e-78
5.04129e-78
7.7647e-78
3.9176e-78
7.43491e-77
4.35874e-77
1.38677e-79
2.98682e-79
1.76397e-79
2.28904e-77
4.31631e-80
8.5548e-77
2.4381e-79
2.42687e-79
6.69246e-77
1.23152e-79
1.23548e-79
6.68661e-77
1.35081e-76
9.42826e-79
1.05527e-83
4.83872e-84
3.62769e-84
1.88293e-84
7.89921e-79
3.65683e-81
2.12618e-81
6.24556e-79
1.70847e-81
7.2232e-79
1.10721e-81
5.7893e-71
2.88424e-68
1.08725e-65
1.91001e-76
7.70629e-73
1.23931e-66
2.14557e-72
1.09014e-69
8.8281e-65
3.34383e-62
8.22176e-78
3.5742e-74
5.29391e-68
1.84979e-74
9.55205e-72
2.42417e-67
5.76834e-82
8.43473e-80
1.77273e-70
2.9825e-73
8.7998e-76
5.77248e-71
1.76474e-70
2.96865e-73
1.29172e-75
7.8379e-68
9.48454e-74
9.66016e-73
2.87282e-68
7.79718e-68
1.03373e-73
1.011e-72
2.06654e-78
3.47006e-78
3.5574e-75
2.06966e-76
3.60883e-75
4.00647e-68
7.60385e-73
3.98367e-68
6.66625e-72
1.12554e-74
5.09044e-77
1.91995e-72
5.84229e-72
9.69525e-75
4.07949e-77
3.09231e-69
4.05841e-75
6.74504e-74
9.71358e-70
2.67777e-69
3.33931e-75
3.29795e-74
1.38081e-79
3.44283e-80
1.06328e-79
2.12338e-76
6.51251e-78
1.1328e-76
1.69929e-69
2.51188e-74
1.46296e-69
5.97835e-74
1.04326e-76
4.07001e-79
2.87276e-71
4.00966e-77
6.84844e-76
1.03848e-81
2.33868e-78
5.30548e-68
2.63248e-62
1.64155e-66
1.56454e-66
1.1602e-68
8.48082e-69
1.11182e-78
1.11171e-78
1.14945e-78
1.14269e-78
6.61662e-76
1.90771e-76
6.61697e-76
4.73375e-80
3.83072e-80
1.62958e-80
2.60963e-80
6.07157e-78
2.25591e-77
2.30099e-77
2.91809e-82
2.06696e-82
1.07924e-82
2.0005e-79
4.84764e-80
1.77688e-79
3.44025e-78
2.07027e-78
3.43996e-78
1.10034e-78
1.09136e-78
3.76044e-79
3.75628e-79
1.06224e-77
8.22855e-79
3.43895e-78
1.82166e-75
3.52059e-75
1.82122e-75
6.39433e-76
1.5371e-76
6.56249e-76
4.88953e-75
3.85384e-76
1.80345e-75
3.07516e-80
3.67908e-79
1.20261e-79
3.41353e-80
1.17486e-80
1.16109e-80
3.29523e-79
2.56505e-80
1.06313e-79
6.68865e-77
1.75635e-76
6.5477e-77
2.02829e-77
4.89446e-78
2.0669e-77
1.53955e-76
1.21072e-77
5.65744e-77
1.05794e-81
5.19601e-82
9.46456e-82
5.88586e-79
1.26017e-78
5.32371e-79
2.01943e-63
2.01285e-63
1.08153e-65
2.12783e-70
5.59944e-66
2.1064e-70
5.57622e-66
5.11859e-73
1.47491e-70
7.70622e-73
1.4749e-70
5.11865e-73
4.50046e-67
8.13089e-65
3.91078e-67
9.43315e-72
2.3892e-67
7.20141e-72
2.14624e-67
1.89403e-74
6.57257e-72
2.85745e-74
2.37335e-74
5.73004e-72
4.41494e-67
7.01247e-67
5.09997e-73
7.67551e-73
1.46089e-70
1.4693e-70
5.05214e-73
1.70051e-74
2.53677e-74
5.11826e-72
5.1494e-72
1.68396e-74
7.66212e-61
4.49565e-60
2.73796e-64
1.87568e-64
1.73137e-71
7.74502e-69
1.58438e-66
3.98442e-67
1.24433e-66
3.99202e-67
1.75998e-68
4.76276e-68
1.55304e-68
2.6584e-68
2.93507e-68
2.98244e-73
5.87531e-76
5.87492e-76
2.99774e-73
5.99566e-76
5.97406e-76
3.00115e-73
9.14601e-73
3.42195e-73
1.80881e-75
8.63023e-76
3.26862e-73
1.80859e-75
9.14676e-73
2.96471e-73
5.80214e-76
5.83052e-76
9.28109e-74
1.96305e-76
1.91136e-76
9.83544e-74
9.10567e-73
4.01504e-75
3.88728e-73
4.18257e-76
1.23395e-72
1.80357e-75
2.03936e-73
1.57535e-70
4.5096e-71
3.3056e-73
9.36985e-74
4.3981e-71
3.30574e-73
1.57554e-70
4.29198e-70
2.41012e-70
9.01979e-73
9.43892e-73
2.28701e-70
9.01791e-73
4.29265e-70
1.5686e-70
3.22446e-73
4.94794e-71
7.39964e-74
1.55968e-70
3.27773e-73
3.3954e-71
4.26627e-70
1.63757e-72
2.67218e-70
1.844e-73
5.65077e-70
8.94689e-73
8.56036e-71
4.00644e-68
9.03195e-71
3.2873e-68
7.3795e-69
3.28727e-68
7.37944e-69
9.03208e-71
3.99066e-68
8.99792e-71
3.26862e-68
7.33971e-69
3.27427e-68
7.35104e-69
8.94664e-71
1.0817e-74
2.37011e-77
2.08043e-77
1.00784e-74
8.00614e-78
3.71228e-75
1.69061e-77
3.35935e-74
1.50199e-74
1.53341e-77
1.43242e-76
7.30647e-75
4.53225e-74
6.4893e-77
9.68043e-75
1.86691e-77
1.85722e-77
3.03256e-75
6.28081e-78
6.09117e-78
3.21175e-75
2.95379e-74
1.27711e-76
1.2609e-74
1.33958e-77
4.00444e-74
5.72271e-77
6.69008e-75
5.80204e-72
1.9111e-72
2.84333e-75
1.16666e-74
1.25879e-72
5.77652e-72
1.1815e-74
1.64525e-71
2.24572e-71
3.3981e-74
6.12738e-74
1.65677e-71
2.18103e-71
3.35204e-74
5.18522e-72
1.04617e-74
1.63738e-72
2.42013e-75
5.16231e-72
1.05892e-74
1.13891e-72
1.42388e-71
5.34331e-74
8.97493e-72
5.97736e-75
1.8932e-71
2.89942e-74
2.85161e-72
3.50782e-72
1.39522e-69
3.12282e-70
1.63089e-69
4.02418e-72
1.33871e-69
2.99477e-70
3.15234e-72
1.46584e-69
1.20056e-69
2.69075e-70
1.20287e-69
2.69531e-70
3.13346e-72
2.59769e-79
8.94722e-77
1.65081e-79
2.98371e-77
9.04146e-80
3.47468e-77
5.81908e-80
2.89177e-76
1.44159e-76
5.74901e-79
2.38083e-79
2.99637e-76
9.94567e-77
5.34452e-79
4.87801e-74
1.792e-74
1.02934e-76
2.56298e-77
5.06967e-74
1.29492e-74
9.52399e-77
1.46339e-73
2.13013e-73
3.03945e-76
4.95513e-76
1.50893e-73
1.92612e-73
2.85215e-76
6.28681e-68
3.28602e-68
2.12782e-70
6.28682e-68
3.28606e-68
3.04798e-68
3.03425e-68
2.11843e-70
6.24483e-68
3.26738e-68
6.25548e-68
3.27299e-68
3.02267e-68
3.02351e-68
2.62189e-69
1.39357e-69
8.22986e-72
2.51527e-69
1.33715e-69
2.91555e-69
2.97569e-69
7.24585e-72
2.18078e-69
1.19997e-69
2.18517e-69
1.20232e-69
1.08261e-69
1.073e-69
3.26359e-62
1.05239e-62
4.38577e-65
1.40104e-65
1.03085e-62
4.03993e-65
1.29999e-65
1.89573e-65
1.85846e-64
8.28249e-65
2.18346e-64
9.32076e-65
3.74031e-67
2.12784e-65
4.62256e-65
4.61847e-65
5.28995e-68
1.27272e-67
1.26814e-67
7.11931e-65
7.11079e-65
4.05407e-65
4.03899e-65
2.62944e-62
2.49676e-65
2.48904e-65
2.04941e-62
2.04749e-62
1.95392e-69
1.59922e-66
1.7932e-69
4.28481e-69
4.76057e-69
2.55108e-66
2.46284e-66
9.71205e-64
1.40841e-66
9.39888e-64
8.62512e-67
9.42561e-67
7.49862e-64
7.29921e-64
1.61255e-71
1.09829e-71
1.0163e-68
1.54606e-68
3.09251e-71
4.10357e-71
1.84585e-68
4.67805e-66
5.30651e-69
1.35732e-68
5.96727e-66
7.05924e-66
7.9143e-69
5.37103e-66
7.65449e-61
2.40678e-61
9.99611e-64
3.18925e-64
1.00291e-63
3.18703e-64
2.39795e-61
6.8441e-63
6.82155e-63
4.49101e-60
7.72973e-61
7.72276e-61
5.25383e-60
5.24867e-60
1.7294e-61
3.36987e-62
3.28874e-62
2.50469e-64
1.68283e-61
2.06054e-61
2.00626e-61
1.51329e-66
2.2023e-64
2.31013e-66
1.08299e-63
1.25122e-63
1.26637e-63
1.46703e-63
2.20667e-58
9.99514e-60
5.98515e-62
1.30409e-57
5.11446e-59
3.45552e-61
1.52548e-62
6.34747e-60
5.41853e-64
2.34172e-61
3.59077e-66
1.57024e-63
1.44204e-68
1.65865e-76
9.4471e-77
5.39811e-79
8.19022e-84
1.48395e-81
2.4973e-82
3.15848e-84
3.47787e-84
1.32435e-84
8.29835e-77
1.78616e-79
2.55033e-79
1.484e-81
4.01715e-84
5.4384e-84
2.75235e-84
1.1279e-81
1.91504e-84
1.12757e-81
2.40657e-79
1.79352e-81
1.40756e-81
4.37507e-79
1.14869e-81
7.77265e-82
1.39213e-79
1.65038e-72
6.83556e-74
7.68782e-70
4.12152e-76
3.02163e-70
2.01202e-74
4.44333e-74
2.5684e-71
5.54281e-72
2.01813e-79
1.04111e-76
2.81586e-74
1.38341e-82
4.89153e-72
8.1555e-72
1.9336e-74
2.62754e-74
3.47896e-73
2.85734e-73
1.10362e-75
8.76176e-76
1.13318e-74
3.89145e-74
5.51071e-77
1.04834e-78
5.74331e-72
1.50492e-71
1.40219e-76
4.59642e-76
7.50828e-82
4.54629e-81
4.14822e-79
1.57024e-78
1.29227e-71
3.39375e-74
1.83294e-76
5.7082e-72
3.28424e-74
1.74257e-76
1.61074e-76
6.06947e-79
1.12316e-86
4.07007e-80
1.36631e-79
1.64835e-82
2.51148e-76
6.75705e-85
4.28682e-83
2.10149e-77
3.84548e-77
1.96388e-80
4.43531e-80
3.67318e-80
1.7424e-79
1.75103e-79
3.67267e-80
1.29218e-81
1.21591e-80
1.64282e-81
4.09509e-81
3.79961e-82
1.18114e-81
3.85595e-82
1.24165e-81
1.41927e-72
2.27122e-80
2.48486e-75
7.14409e-75
9.16217e-78
7.06448e-78
1.13681e-80
1.56765e-75
2.57156e-77
2.58172e-77
1.56768e-75
1.56238e-75
4.00152e-77
4.02648e-77
1.5428e-75
3.69443e-80
2.59308e-79
2.61216e-79
3.66273e-80
5.51206e-77
1.87087e-78
7.47667e-77
5.77141e-79
4.93575e-77
1.25695e-78
1.26152e-78
4.87222e-77
1.09808e-81
7.70329e-81
7.7353e-81
1.0909e-81
1.82591e-82
7.60131e-82
1.8576e-82
1.73699e-81
1.80317e-81
6.32966e-82
1.06184e-79
4.19335e-79
1.0929e-79
6.70052e-79
8.63537e-79
2.8326e-79
3.85956e-79
1.41594e-79
1.01968e-78
1.30177e-79
2.74607e-79
1.50442e-79
1.15642e-79
3.90337e-79
3.67452e-82
1.58446e-81
1.19596e-81
4.57889e-82
2.51047e-84
4.71078e-84
2.78137e-87
6.85426e-85
1.26063e-84
6.13357e-84
5.60372e-85
5.05996e-82
3.43456e-82
6.2299e-85
7.02454e-83
3.48483e-82
5.47487e-82
2.21939e-83
9.46644e-82
1.37378e-81
1.24506e-84
2.19675e-82
6.53116e-82
1.96529e-81
4.86962e-83
2.20502e-69
4.25694e-69
1.02297e-73
1.39883e-69
5.48354e-74
9.4794e-77
5.94601e-74
1.7999e-76
2.57167e-76
3.05203e-74
4.44068e-74
4.35066e-77
4.34629e-77
6.58049e-74
6.58756e-74
8.92042e-77
1.16505e-76
2.08606e-71
2.57128e-71
2.08739e-71
2.14222e-74
4.04267e-74
2.14242e-74
3.20618e-74
2.01455e-79
3.57447e-82
4.99162e-82
4.03873e-82
2.02218e-79
3.60546e-82
2.02148e-79
2.72412e-79
1.04491e-76
1.93593e-79
1.04073e-76
1.95452e-79
1.04452e-76
2.70032e-79
5.50587e-80
5.81856e-83
1.97703e-82
3.27018e-80
9.80469e-83
3.27346e-80
5.50995e-80
5.56571e-77
9.66475e-77
1.68014e-74
1.68022e-74
7.76902e-77
1.15362e-81
4.13991e-79
1.93004e-81
6.06654e-79
7.38439e-82
4.13957e-79
2.74673e-81
5.07425e-79
1.96561e-76
5.96476e-79
2.50994e-76
3.66726e-79
1.96487e-76
7.79753e-79
1.76674e-79
1.20455e-77
3.38849e-80
2.61023e-77
2.48905e-79
2.44414e-77
1.20591e-77
6.66119e-70
5.7761e-69
4.4812e-69
4.48645e-69
5.52849e-72
3.53022e-74
6.90055e-77
2.81498e-74
7.25389e-75
9.4579e-77
6.96772e-75
3.52615e-74
1.46686e-69
4.76409e-70
1.45884e-69
4.72803e-70
5.409e-73
1.64036e-72
5.35776e-73
6.2679e-71
2.10587e-71
5.35758e-71
2.53373e-71
2.39564e-74
5.75003e-74
4.79389e-74
5.61342e-72
4.31625e-69
5.5885e-70
6.37157e-72
4.33497e-69
1.20732e-71
2.0709e-74
1.21055e-71
2.4708e-73
2.47092e-71
1.09945e-74
4.8881e-72
2.4709e-71
1.10164e-74
2.47084e-73
2.46278e-73
8.16269e-72
2.45902e-71
1.79619e-74
2.46549e-71
1.80225e-74
2.4413e-73
1.8316e-77
6.24537e-77
8.84405e-75
1.93425e-74
6.26254e-77
8.84394e-75
1.83158e-77
1.83282e-77
2.63183e-74
9.09391e-77
8.78032e-75
9.13722e-77
8.79432e-75
1.82308e-77
9.16903e-75
1.04403e-72
8.04714e-76
1.07579e-73
1.13386e-74
9.73562e-73
2.40224e-76
8.20866e-75
2.85846e-73
8.60437e-73
5.98064e-76
8.62922e-73
5.99078e-76
8.13451e-75
6.8522e-79
4.08441e-78
3.63152e-76
5.69538e-76
7.88998e-79
1.59527e-78
3.49244e-76
5.78928e-79
8.76977e-76
2.87225e-78
2.92958e-76
2.8798e-78
2.93375e-76
5.76548e-79
5.50505e-77
2.62956e-79
1.02479e-79
5.53692e-77
2.64927e-79
1.03611e-79
5.54118e-77
1.89473e-76
7.17163e-79
2.46311e-76
6.81907e-79
2.46e-76
3.53814e-79
1.89325e-76
2.94914e-74
5.69699e-77
2.93039e-74
1.41027e-76
2.92757e-74
5.80655e-77
2.94585e-74
7.69284e-74
2.61624e-76
1.00871e-73
3.06417e-76
1.01053e-73
1.50862e-76
7.68168e-74
1.78343e-74
9.5106e-72
3.44772e-72
8.99511e-72
3.90572e-74
7.46528e-72
1.22156e-72
1.08082e-76
4.18893e-74
7.04972e-77
3.35151e-74
1.91164e-76
3.61135e-74
6.74332e-77
1.61356e-72
1.16992e-74
5.44878e-72
4.10592e-72
4.11022e-72
1.61263e-72
1.73474e-74
2.95631e-74
8.92333e-77
2.9638e-74
6.90159e-77
3.29265e-74
5.98329e-77
1.09054e-76
2.03927e-79
4.85361e-79
1.05214e-76
1.72285e-76
2.05819e-79
5.42091e-79
1.04898e-76
1.01593e-76
1.97689e-79
1.61615e-76
6.63489e-79
5.17795e-79
1.01825e-76
2.22675e-79
2.64415e-71
9.51186e-72
6.16467e-74
2.27339e-71
7.49005e-72
3.01518e-71
3.19836e-71
3.26231e-74
1.18006e-71
4.1204e-72
1.18193e-71
4.12081e-72
1.59063e-71
1.58837e-71
2.40333e-68
5.54818e-73
3.88695e-80
7.68021e-78
6.5972e-70
9.78147e-76
6.35127e-77
1.05885e-74
1.41672e-72
2.24168e-75
3.06944e-78
2.34821e-67
2.197e-74
3.9579e-72
6.64532e-70
5.13143e-69
6.60706e-70
7.49408e-70
7.25329e-70
7.9464e-73
7.14804e-71
7.79301e-73
6.7654e-71
1.26043e-73
9.08583e-76
1.11549e-73
6.35735e-77
5.36294e-77
5.36647e-77
4.99675e-80
6.9779e-80
4.9993e-80
6.88931e-80
1.01298e-74
1.01378e-74
1.43998e-74
1.42704e-75
1.12852e-77
1.03542e-77
4.6984e-76
1.11416e-67
3.81048e-69
2.55296e-71
6.51619e-74
1.42426e-70
4.92757e-72
3.55217e-74
1.20619e-76
4.73222e-65
1.65483e-66
1.06149e-68
3.30908e-71
1.46746e-70
4.74453e-69
3.58494e-76
3.37482e-79
4.34051e-87
1.19949e-77
1.22389e-80
5.07881e-89
8.04374e-80
1.07383e-82
1.31623e-90
2.26083e-79
7.44511e-82
1.71889e-87
1.67321e-78
2.60671e-84
2.85497e-83
3.36628e-79
1.66684e-78
8.10297e-85
2.84539e-83
6.6281e-86
1.35824e-87
6.54836e-86
5.95865e-80
3.01798e-86
1.12065e-84
1.10837e-80
5.3582e-80
8.13643e-86
3.15431e-82
2.74147e-87
1.30924e-88
1.92608e-87
5.29595e-82
5.91078e-88
3.44876e-84
7.18301e-83
3.58286e-82
1.86199e-87
1.95508e-84
3.35626e-89
5.01155e-90
3.4439e-89
6.27069e-87
3.47676e-88
1.34524e-87
4.39643e-87
4.34041e-87
4.39624e-87
5.20593e-89
1.44352e-88
1.46122e-88
1.33943e-90
1.12274e-90
1.15292e-90
7.19184e-87
6.62796e-86
7.17239e-87
4.31164e-87
1.39193e-87
4.36396e-87
6.60736e-86
7.21634e-87
6.50655e-87
2.89219e-88
2.13129e-87
2.36701e-88
1.31983e-88
1.32519e-88
1.33532e-88
1.94423e-87
2.09247e-88
1.99394e-88
3.43255e-90
1.59494e-89
5.56938e-90
7.6414e-91
5.06278e-90
7.72986e-91
1.04714e-89
1.2714e-89
1.22637e-90
6.71282e-73
3.06079e-76
1.51291e-73
4.44684e-84
2.5254e-81
1.55387e-71
1.08758e-77
5.54767e-75
1.80571e-85
3.11864e-83
1.10557e-73
3.24472e-71
9.30547e-80
4.62088e-77
2.13278e-87
3.06186e-85
1.17391e-76
2.73077e-79
1.0241e-84
5.02567e-82
8.42248e-76
2.56875e-81
1.59109e-80
3.05174e-76
8.39695e-76
2.56121e-81
5.07908e-81
1.39528e-78
1.50883e-73
4.45249e-79
3.8588e-83
4.40114e-84
1.2429e-83
8.09798e-82
3.0849e-77
9.90789e-83
1.93997e-82
9.92915e-78
2.73212e-77
4.55706e-80
1.57765e-82
1.69678e-80
4.9862e-75
1.41533e-80
4.78106e-85
1.33567e-85
3.74153e-85
2.50923e-83
2.64513e-79
4.73127e-82
1.88265e-84
5.95877e-80
1.84227e-79
2.62833e-82
3.37963e-84
1.60401e-82
2.85764e-77
4.7708e-82
4.78496e-87
3.3568e-87
1.58067e-86
1.48617e-84
3.3578e-84
2.06045e-85
2.99293e-85
2.33978e-83
1.56032e-84
4.44677e-84
1.55868e-84
2.57639e-81
2.5253e-81
2.54668e-81
6.15888e-86
1.46672e-85
5.16102e-86
2.40341e-83
8.58794e-83
8.65115e-83
7.37936e-88
1.11907e-87
1.12842e-87
2.40388e-85
6.32683e-85
6.44761e-85
1.24847e-83
3.86913e-83
1.24845e-83
4.43399e-84
1.5112e-84
1.48085e-84
3.82982e-83
3.06344e-84
1.23736e-83
2.50769e-81
6.30672e-82
2.55365e-81
1.11513e-85
1.2838e-84
4.19984e-85
1.34605e-85
4.5818e-86
4.49307e-86
1.15514e-84
9.35048e-86
3.74564e-85
7.77917e-83
2.05361e-83
7.91834e-83
1.10396e-87
9.2543e-87
3.19147e-87
7.19856e-88
2.91446e-87
2.51015e-88
6.08723e-87
7.06877e-87
2.24959e-87
3.99137e-85
1.46958e-84
4.07274e-85
7.439e-82
1.14387e-84
1.14486e-84
5.01814e-82
4.25405e-85
5.01588e-82
4.264e-85
3.75248e-90
1.7263e-87
2.66772e-90
1.71837e-87
2.69519e-90
1.72663e-87
3.72692e-90
6.28267e-87
1.60795e-89
2.27412e-89
8.40316e-90
4.61881e-87
7.17329e-90
4.61815e-87
2.72957e-79
2.42714e-82
2.42482e-82
3.8699e-79
5.94125e-82
2.98903e-79
3.23269e-82
1.22275e-76
1.13676e-79
2.77912e-77
2.61099e-80
1.02574e-84
1.65666e-87
2.31201e-87
1.87924e-87
1.0283e-84
1.67185e-87
1.02798e-84
9.33946e-85
5.04548e-82
8.50165e-85
5.02247e-82
8.58626e-85
5.04823e-82
8.72933e-85
5.02933e-87
2.50942e-84
8.84731e-87
3.35531e-84
4.07392e-87
2.51395e-84
9.22993e-87
5.0129e-74
1.51605e-81
1.51172e-81
2.62777e-84
2.60667e-84
1.51171e-81
2.62769e-84
1.51607e-81
2.85491e-83
1.00876e-80
1.00878e-80
2.40003e-81
4.22651e-84
4.21527e-84
2.40623e-81
1.50993e-81
2.59298e-84
4.66498e-82
8.21599e-85
1.50604e-81
2.61252e-84
4.67553e-82
1.00493e-80
2.82958e-83
1.00371e-80
2.14537e-81
4.26031e-84
3.79693e-84
2.43757e-81
5.36806e-83
1.71883e-83
3.05939e-86
8.96735e-86
1.72177e-83
5.35325e-83
9.03689e-86
3.65492e-82
3.48634e-82
9.52363e-85
8.44015e-83
1.62014e-85
8.6808e-83
1.43982e-85
4.87574e-83
8.17661e-86
4.85608e-83
8.19847e-86
4.86336e-83
8.23664e-86
4.86924e-83
3.1492e-82
8.66944e-85
8.61772e-85
7.02664e-83
1.27561e-85
1.20669e-85
7.4881e-83
4.54735e-85
2.04737e-85
5.97982e-88
7.26167e-88
2.05178e-85
4.51082e-85
7.3937e-88
2.92369e-84
1.25669e-86
7.50501e-87
2.22887e-84
1.76124e-87
8.20405e-85
3.59397e-87
3.03561e-85
4.90604e-88
3.0297e-85
1.87049e-87
3.02788e-85
4.94192e-88
3.03807e-85
1.9539e-84
8.88093e-87
4.95022e-87
4.55081e-85
4.49418e-87
7.61054e-88
4.97967e-85
2.56872e-81
1.43137e-78
1.43138e-78
4.74838e-79
8.78432e-82
8.77557e-82
4.75268e-79
3.95274e-78
5.34887e-78
7.1488e-81
1.59355e-80
5.34881e-78
7.14869e-81
3.95277e-78
1.42709e-78
2.54988e-81
1.42536e-78
4.47248e-79
8.61264e-82
8.30499e-82
4.73015e-79
3.93199e-78
1.58135e-80
1.68541e-78
1.71107e-81
5.32495e-78
7.09751e-81
9.20567e-79
7.43095e-76
7.42078e-76
1.41366e-78
1.39524e-78
7.42066e-76
1.40218e-78
7.46139e-76
7.42369e-76
1.38753e-78
2.35565e-76
3.35915e-79
7.39144e-76
1.40373e-78
1.71309e-76
5.17683e-80
4.97864e-80
8.71901e-83
1.6615e-80
3.31803e-83
1.69847e-80
2.99394e-83
1.41252e-79
6.32527e-80
6.12973e-83
5.47804e-82
3.22407e-80
1.90313e-79
2.484e-82
4.55082e-80
7.99529e-83
7.95788e-83
1.43004e-80
2.68692e-83
2.59383e-83
1.51034e-80
1.25445e-79
4.91575e-82
5.3764e-80
5.37986e-83
1.69721e-79
2.21162e-82
2.96621e-80
2.66276e-77
8.83098e-78
1.24523e-80
4.88125e-80
6.0999e-78
2.66189e-77
4.90042e-80
2.40929e-77
4.41204e-80
7.65063e-78
1.1117e-80
2.39895e-77
4.46262e-80
5.70803e-78
4.10094e-82
1.0595e-84
6.91645e-85
4.11054e-82
3.5983e-85
1.56842e-82
6.95473e-85
1.16489e-81
5.83868e-82
5.85101e-85
4.16123e-84
2.91814e-82
1.53952e-81
1.9677e-84
2.62647e-82
1.26093e-84
4.43867e-85
8.31977e-83
9.71057e-85
1.47795e-85
8.77463e-83
8.12903e-82
2.75932e-84
3.34583e-82
2.34655e-84
1.04733e-81
1.37988e-84
1.97606e-82
2.1406e-79
7.9216e-80
1.18288e-82
3.74822e-82
5.40109e-80
2.12877e-79
3.79599e-82
1.32842e-79
2.3452e-82
4.25005e-80
4.59119e-82
1.32191e-79
2.37658e-82
3.04019e-80
1.3524e-67
1.35126e-67
1.46339e-70
2.66827e-70
1.88245e-67
1.88042e-67
2.6594e-70
5.34231e-72
4.62731e-69
4.92055e-72
6.42109e-69
8.90433e-72
6.63029e-69
9.82363e-72
3.65385e-73
3.65108e-73
3.57588e-76
1.01799e-75
1.01472e-75
6.74994e-73
6.75742e-73
1.24401e-74
1.27261e-74
1.29322e-77
3.67816e-77
2.34696e-74
3.3389e-77
2.26965e-74
8.62472e-77
1.10048e-79
9.58706e-77
3.15263e-79
1.75213e-76
2.86587e-79
1.49729e-76
4.4802e-70
4.47547e-70
6.69123e-73
3.10486e-73
3.09664e-73
3.01068e-70
3.01308e-70
2.43991e-74
1.5049e-71
2.21642e-74
1.10994e-74
1.03717e-71
1.02493e-74
1.01238e-71
2.01984e-76
9.43094e-74
1.62985e-76
9.03286e-77
7.34055e-74
6.3676e-77
6.5177e-74
4.26508e-74
4.6461e-71
8.18075e-74
2.84956e-71
2.92325e-74
3.94364e-71
6.84612e-74
3.97541e-85
1.15259e-87
2.01719e-82
5.8452e-85
1.15111e-87
8.05501e-88
8.05041e-88
5.84981e-85
4.27576e-85
4.27307e-85
2.48017e-85
4.13318e-88
2.82003e-82
8.34776e-80
2.81671e-82
1.85363e-82
1.85444e-82
1.39754e-82
9.44781e-80
9.65539e-83
1.58313e-79
4.65527e-77
1.58502e-79
1.08372e-79
1.08439e-79
9.65011e-83
9.64332e-83
2.2536e-82
2.51697e-82
1.24597e-81
2.40185e-86
1.24233e-81
7.56243e-87
5.58512e-89
1.76274e-89
4.53333e-83
2.81585e-88
4.02673e-83
7.27366e-88
6.55411e-91
1.62381e-90
1.4451e-89
5.58816e-89
1.43977e-89
5.54382e-89
4.63161e-90
1.43533e-89
1.72369e-91
1.80165e-90
4.73997e-91
1.6396e-90
4.21979e-91
4.25906e-91
5.36265e-84
7.97181e-84
8.94278e-87
2.40221e-86
7.97175e-84
8.92899e-87
5.36429e-84
5.34273e-84
2.38739e-86
2.51355e-84
2.85713e-87
7.93754e-84
8.89405e-87
1.70587e-84
1.8984e-85
9.29003e-86
1.06218e-88
8.07951e-88
6.29246e-86
2.79701e-85
3.05678e-88
1.6914e-85
7.32153e-88
2.50434e-85
2.72128e-88
2.50916e-85
2.73448e-88
1.68891e-85
4.18924e-93
6.51029e-94
2.77602e-88
1.62234e-90
4.33692e-91
2.77721e-88
1.63711e-73
5.64532e-75
3.93534e-77
1.04922e-78
3.47157e-80
3.2891e-82
3.98009e-85
6.29568e-90
3.39108e-85
9.06487e-90
1.89382e-92
3.66082e-92
3.93662e-90
3.84089e-90
9.6797e-91
1.27913e-91
3.11415e-92
1.80562e-93
9.94443e-94
9.127e-91
3.81034e-90
1.15642e-91
1.15839e-91
4.19775e-93
1.35328e-92
3.69318e-93
9.89197e-93
1.30177e-92
3.16431e-93
9.00109e-85
1.07504e-87
1.57229e-92
3.99512e-90
2.41558e-92
2.23958e-82
3.29649e-85
2.39121e-87
5.76428e-88
1.44029e-84
1.4346e-84
5.56831e-88
2.37715e-87
3.27929e-85
1.14563e-86
8.20435e-89
5.06037e-86
1.93202e-89
4.61916e-86
7.45682e-89
7.46467e-89
4.61787e-86
4.30493e-88
9.85486e-91
4.88805e-88
6.67271e-91
1.60048e-87
1.16601e-87
1.97333e-90
6.36505e-90
7.30063e-88
2.3267e-87
2.47788e-90
1.3671e-87
4.75979e-90
1.85514e-87
5.43019e-90
1.85565e-87
2.121e-90
1.36678e-87
7.57589e-76
7.56782e-76
1.04592e-78
3.99464e-76
3.99175e-76
2.55648e-77
2.63993e-77
3.81283e-80
1.38669e-77
1.35686e-77
1.70907e-79
3.31497e-82
1.98719e-79
8.08109e-83
9.10347e-80
1.0104e-79
)
;

boundaryField
{
    ground
    {
        type            zeroGradient;
    }
    outlet
    {
        type            zeroGradient;
    }
    wall
    {
        type            zeroGradient;
    }
    wall2
    {
        type            zeroGradient;
    }
    wall3
    {
        type            zeroGradient;
    }
    internalPatch
    {
        type            internal;
    }
    procBoundary7to0
    {
        type            processor;
        value           nonuniform List<scalar> 
103
(
1.37718e-60
8.60513e-64
5.12897e-67
1.37433e-68
1.29658e-68
1.29658e-68
5.20447e-74
5.20447e-74
5.20447e-74
7.55544e-75
9.63682e-78
6.96551e-83
8.007e-84
8.007e-84
2.08557e-86
7.63142e-87
1.72478e-88
2.11428e-88
2.11403e-88
1.14521e-85
6.03553e-83
6.03553e-83
5.98579e-83
4.86806e-84
3.96653e-83
1.4655e-78
3.15499e-76
3.15499e-76
1.76309e-76
4.82922e-76
3.107e-74
2.36035e-73
1.15067e-68
4.20461e-71
1.25753e-72
1.65684e-71
1.68725e-71
1.69346e-71
1.69169e-71
4.2717e-69
1.47464e-66
2.34896e-64
2.34896e-64
1.7666e-61
1.25615e-58
8.42201e-56
8.41248e-56
4.75638e-57
4.75638e-57
3.58841e-58
1.13348e-57
1.13016e-57
1.51601e-60
1.9224e-63
2.63729e-65
4.48742e-68
4.1474e-68
4.1474e-68
2.45047e-71
2.44681e-73
1.02601e-73
1.02601e-73
2.44681e-73
2.45047e-71
5.5147e-71
5.5147e-71
2.00146e-66
9.41003e-69
2.49487e-70
4.21114e-69
4.24979e-69
4.27159e-69
1.47462e-66
1.46473e-66
2.33312e-64
2.33312e-64
1.75586e-61
1.25146e-58
6.84437e-60
6.84437e-60
4.99015e-61
1.51773e-60
1.9193e-63
2.43617e-65
2.00146e-66
1.17555e-65
1.17555e-65
7.81397e-68
7.19986e-68
1.46275e-66
1.17555e-65
9.35305e-63
9.35305e-63
6.46205e-64
7.91028e-77
4.71334e-79
1.18623e-83
1.95589e-84
1.94856e-83
1.91012e-83
1.91012e-83
7.34896e-86
1.72456e-88
)
;
    }
    procBoundary7to1
    {
        type            processor;
        value           nonuniform List<scalar> 
35
(
1.44333e-70
1.02632e-73
5.28886e-71
5.28886e-71
7.09422e-68
9.05179e-65
4.05138e-59
9.99931e-57
1.29693e-54
1.29693e-54
1.29693e-54
2.13136e-53
2.13136e-53
2.33055e-55
2.33055e-55
2.68105e-52
1.24883e-53
8.55832e-56
3.46952e-58
9.92478e-61
2.18659e-63
1.84221e-66
1.84221e-66
2.56478e-72
1.93472e-67
9.05179e-65
7.09422e-68
8.3721e-64
2.92675e-61
7.21653e-59
1.06774e-56
1.06774e-56
7.21653e-59
2.92675e-61
8.3721e-64
)
;
    }
    procBoundary7to2
    {
        type            processor;
        value           nonuniform List<scalar> 
45
(
7.6128e-76
4.719e-73
2.50658e-70
1.11651e-67
4.05228e-65
1.15105e-62
5.18614e-60
1.80699e-57
4.48758e-55
6.77704e-53
1.67612e-51
6.56055e-54
1.92632e-56
4.49871e-59
8.68747e-62
8.68747e-62
1.49544e-61
2.14854e-64
7.33841e-66
4.62744e-68
1.76475e-73
1.76475e-73
1.23625e-70
3.49531e-73
2.15034e-70
1.13494e-67
5.03164e-65
1.82222e-62
6.34001e-60
1.57977e-57
2.43501e-55
6.84086e-58
1.56466e-60
3.00038e-63
3.00038e-63
5.07897e-63
3.20225e-65
1.23625e-70
1.90429e-65
1.90429e-65
7.56007e-68
3.97028e-65
1.75369e-62
4.38518e-60
9.96361e-63
)
;
    }
    procBoundary7to4
    {
        type            processor;
        value           nonuniform List<scalar> 
18
(
4.35558e-79
4.35558e-79
1.95421e-79
5.01324e-77
5.68902e-74
8.98496e-72
2.55693e-70
2.21046e-73
7.90408e-75
1.99028e-82
3.71556e-82
4.72752e-85
4.72752e-85
6.42854e-88
5.9349e-91
7.55009e-85
9.31889e-82
3.71556e-82
)
;
    }
    procBoundary7to5
    {
        type            processor;
        value           nonuniform List<scalar> 
102
(
5.94402e-88
8.98865e-85
8.98865e-85
4.73771e-85
3.71329e-85
1.77171e-82
4.38712e-80
6.58385e-78
1.8766e-76
8.10257e-79
3.73724e-79
3.73724e-79
3.34905e-82
3.34905e-82
4.15404e-85
6.93724e-88
1.1187e-90
1.18531e-90
1.13151e-90
1.174e-90
4.51747e-92
3.94454e-92
1.13526e-91
1.13262e-91
1.77152e-93
3.12523e-94
6.31879e-94
4.13915e-93
1.49061e-90
4.14958e-90
4.14958e-90
6.17265e-93
3.03731e-93
1.50835e-90
1.50835e-90
1.77583e-90
1.77402e-90
1.59275e-87
1.59275e-87
8.98865e-85
4.74313e-85
4.74313e-85
6.83773e-86
3.20189e-85
1.10391e-82
1.10391e-82
2.05451e-82
2.75549e-80
2.84014e-80
8.09439e-79
3.72821e-79
3.72821e-79
3.33875e-82
3.33875e-82
3.34905e-82
4.47102e-85
7.40474e-88
7.02317e-88
7.35413e-88
2.67191e-89
2.53555e-89
7.36582e-89
7.35557e-89
9.74051e-91
2.08578e-91
4.24812e-91
1.61127e-90
3.8471e-88
3.8471e-88
4.14958e-90
1.02548e-90
1.02548e-90
1.50835e-90
3.8471e-88
6.83773e-86
6.83773e-86
1.06592e-85
1.10391e-82
1.24721e-80
1.24721e-80
1.34063e-80
1.34063e-80
1.20198e-83
1.20198e-83
3.33875e-82
4.45311e-85
4.20975e-85
1.50341e-86
1.56613e-86
4.59172e-86
4.58998e-86
4.87162e-88
1.33675e-88
2.75049e-88
2.75578e-88
6.83773e-86
1.06592e-85
1.06592e-85
1.09626e-83
1.09626e-83
1.09626e-83
1.20198e-83
)
;
    }
    procBoundary7to6
    {
        type            processor;
        value           nonuniform List<scalar> 
223
(
1.62581e-85
1.62581e-85
1.62581e-85
1.98481e-85
1.03378e-82
9.16358e-86
5.01658e-86
8.19669e-86
4.43444e-85
4.43444e-85
1.57559e-85
1.62581e-85
2.94867e-88
2.94867e-88
3.46197e-88
4.57482e-85
2.52199e-82
1.16775e-79
4.40082e-77
3.98647e-80
3.52159e-83
2.1537e-83
4.44492e-83
2.51618e-85
2.49952e-85
8.19108e-86
3.29592e-85
3.29592e-85
1.57301e-85
6.26601e-88
7.92539e-88
3.46626e-88
2.94867e-88
5.12057e-91
5.12057e-91
5.37312e-91
7.11792e-88
9.36551e-85
5.98268e-82
3.2696e-79
1.49399e-76
5.53358e-74
1.58484e-71
1.24138e-74
1.023e-77
8.24269e-81
3.83179e-81
1.08207e-80
7.08671e-83
7.31922e-83
4.43986e-83
1.75222e-83
1.56782e-85
3.63905e-83
3.63905e-83
3.63905e-83
2.42464e-85
2.01853e-86
2.61523e-88
1.67087e-88
3.46419e-88
1.26885e-90
1.56289e-90
6.25254e-91
5.12057e-91
6.2484e-91
2.7151e-91
6.3387e-93
4.80234e-95
3.64628e-95
3.96823e-93
4.03021e-93
1.06858e-92
3.32356e-92
2.5631e-90
2.59965e-90
6.33259e-90
1.89504e-89
1.37489e-87
1.39594e-87
3.10178e-87
8.91573e-87
6.05485e-85
6.13806e-85
6.13806e-85
1.15946e-87
6.09465e-90
2.48471e-89
1.32211e-87
1.14123e-87
1.14123e-87
2.32042e-88
9.93436e-86
9.93436e-86
6.94745e-85
3.35374e-82
4.81681e-83
4.72779e-83