/*--------------------------------*- C++ -*----------------------------------*\
  =========                 |
  \\      /  F ield         | OpenFOAM: The Open Source CFD Toolbox
   \\    /   O peration     | Website:  https://openfoam.org
    \\  /    A nd           | Version:  9
     \\/     M anipulation  |
\*---------------------------------------------------------------------------*/
FoamFile
{
    format      ascii;
    class       volScalarField;
    location    "0.003";
    object      overpressureMax;
}
// * * * * * * * * * * * * * * * * * * * * * * * * * * * * * * * * * * * * * //

dimensions      [1 -1 -2 0 0 0 0];

internalField   nonuniform List<scalar> 
25342
(
294510
413788
427539
312980
417366
304591
403850
283547
432787
437029
431766
383008
387931
383802
378800
422714
422643
428097
374212
379189
374300
369499
421441
418216
425775
369494
377260
373128
365429
408998
411400
416651
368746
356702
364205
361168
308896
347203
342988
342258
307857
338192
303940
338558
333882
300264
333864
295897
329490
299937
301489
328456
336312
332390
290902
297733
324575
328337
287230
290051
316561
324229
293887
320604
219289
222132
259253
251575
267446
216392
214800
258009
217087
217258
272826
274958
294993
225180
228580
265890
269706
268198
293400
263675
289252
287590
262055
290930
262800
287692
256722
282004
285138
259722
255456
284022
280063
253349
278518
274773
249803
358935
316761
447213
395067
303945
383175
422365
297910
449122
444181
442051
399803
397917
393189
395112
444100
440678
391685
435588
439002
386778
390223
389860
432508
439026
436704
429932
380594
387774
429838
433509
426274
373450
381082
377236
384689
324444
319050
353988
322678
357110
352117
317301
320118
354381
350970
346032
311496
349423
314756
338989
306105
341450
313040
348395
346346
311054
305076
332232
340023
301163
335853
343478
308384
280991
276573
282890
257277
252361
255596
251419
247783
275967
271948
267207
270990
246186
242647
270250
278466
275341
248487
250634
253371
250151
271944
246537
247653
264389
268407
244492
244368
261201
261228
264799
241238
239778
237991
242101
222431
244157
241206
235171
217156
237948
219539
247768
227237
246352
222733
241648
240117
221403
215910
237841
234214
232063
214460
228772
211570
232499
216621
232684
218047
235808
234529
217303
231369
217332
232100
230690
214748
232818
216231
205633
226915
209041
212458
230529
225425
208608
229229
216931
230390
228268
212973
225616
210981
226420
220025
206615
215684
227924
222837
208845
194070
13.6331
0.121565
196091
127362
200370
95463
86320.9
199335
49101.2
603653
507699
526212
514479
832471
712767
826998
822082
711692
828092
828329
830762
830841
710027
709411
709202
711294
831564
832206
832489
709221
706916
825172
831972
830926
700080
707167
706197
698422
815067
826953
830410
704786
688984
700515
694873
527626
608537
607628
524348
605374
604677
523197
521292
523987
606052
603668
518119
521310
601250
595853
515986
597034
521091
602362
601469
519715
588522
511441
592975
599645
513489
517265
596552
6.19562e+06
9.36766e+07
7.98692e+06
5.72189e+06
7.78283e+06
3.44709e+06
6.13743e+06
4.21194e+06
5.24182e+06
1.04039e+07
7.07776e+06
6.19136e+06
7.0273e+06
5.871e+06
7.04321e+06
7.58952e+06
2.14967e+07
2.53403e+07
9.29335e+06
1.49679e+07
1.09331e+07
1.09523e+07
6.34636e+06
5.73017e+06
1.21728e+07
4.60067e+06
7.83765e+06
6.17685e+06
4.83494e+06
4.01983e+06
5.10002e+06
7.13996e+06
3.86386e+06
5.75143e+06
4.05668e+06
5.7258e+06
2.82495e+07
7.27661e+07
7.74385e+07
3.78309e+07
3.31562e+07
5.90813e+07
3.13617e+07
2.17485e+07
4.29702e+07
2.09958e+07
1.39274e+07
1.40016e+07
3.95034e+07
2.09006e+07
2.1217e+07
4.82427e+07
2.22989e+07
1.4331e+07
2.19e+07
4.16287e+07
1.3729e+07
1.70966e+07
1.71177e+07
1.0657e+07
1.03918e+07
1.73744e+07
1.03651e+07
1.71391e+07
5.21012e+06
5.17301e+06
7.84287e+06
8.24241e+06
5.92344e+06
7.92638e+06
4.82252e+06
4.67792e+06
3.9272e+06
3.74932e+06
3.70391e+06
3.99671e+06
4.44668e+06
4.2331e+06
3.80624e+06
4.52566e+06
6.19283e+06
6.62813e+06
4.30924e+06
4.01599e+06
6.86223e+06
4.64382e+06
8.13281e+06
4.18085e+06
7.32864e+06
4.20814e+06
7.71044e+06
4.50319e+06
9.03212e+07
6.02937e+06
5.21911e+06
4.36776e+06
3.44291e+06
3.87414e+06
4.17166e+06
3.62043e+06
7.28998e+06
2.37623e+07
2.2381e+07
9.55187e+06
1.45913e+07
1.00706e+07
1.05816e+07
5.81279e+06
5.77879e+06
1.13197e+07
4.46348e+06
8.08583e+06
6.03831e+06
4.89786e+06
5.33622e+06
1.03376e+07
4.60448e+06
3.89781e+06
6.91873e+06
5.85468e+06
4.22189e+06
4.01759e+06
5.06716e+06
6.94262e+06
3.79856e+06
5.34156e+06
5.62858e+06
4.07931e+06
2.50744e+07
6.50144e+07
6.99168e+07
3.68538e+07
5.17758e+07
2.8129e+07
3.10648e+07
1.82984e+07
4.17084e+07
1.99424e+07
1.33161e+07
3.57585e+07
1.90784e+07
1.226e+07
2.07338e+07
4.2089e+07
2.15169e+07
1.39173e+07
3.79307e+07
1.37692e+07
2.09396e+07
1.59378e+07
1.71855e+07
1.00521e+07
1.09964e+07
1.58701e+07
1.01278e+07
1.71555e+07
4.49756e+06
5.18579e+06
4.70967e+06
4.37014e+06
5.97984e+06
4.45952e+06
4.79417e+06
4.72645e+06
3.87313e+06
3.82231e+06
3.66762e+06
4.34221e+06
4.04718e+06
4.30064e+06
3.44039e+06
3.80223e+06
4.55235e+06
3.65323e+06
4.35472e+06
3.99806e+06
3.90486e+06
3.85675e+06
4.63981e+06
4.16085e+06
4.02535e+06
4.13714e+06
4.16994e+06
4.42704e+06
1.10181e+06
968934
966392
942999
1.64149e+06
1.59945e+06
1.4697e+06
1.32989e+06
1.30669e+06
1.38931e+06
1.41413e+06
1.1692e+06
1.18411e+06
1.21026e+06
1.22754e+06
1.38471e+06
1.53508e+06
1.46508e+06
1.26011e+06
1.21568e+06
1.25666e+06
1.29323e+06
1.58591e+06
1.32673e+06
1.49651e+06
1.51634e+06
1.26975e+06
1.28384e+06
1.33503e+06
1.06161e+06
937518
1.0525e+06
946493
1.07193e+06
1.08133e+06
952778
1.61826e+06
1.59968e+06
1.55308e+06
1.30489e+06
1.35051e+06
1.34554e+06
1.32594e+06
965039
953383
1.07957e+06
1.09863e+06
972641
962166
1.11669e+06
1.12479e+06
957984
1.0983e+06
1.10602e+06
969066
962895
1.12959e+06
1.11803e+06
975627
971263
1.13471e+06
970708
1.13499e+06
1.12811e+06
3.75111e+06
3.00317e+06
2.30306e+06
1.50154e+06
2.02817e+06
3.01402e+06
2.73969e+06
1.9283e+06
2.6988e+06
3.33273e+06
2.29957e+06
3.16815e+06
2.48792e+06
3.42502e+06
2.55019e+06
2.98926e+06
2.95166e+06
3.66935e+06
3.80404e+06
2.77931e+06
3.71506e+06
3.12175e+06
3.1883e+06
2.67533e+06
3.0573e+06
2.77507e+06
3.14978e+06
3.34266e+06
2.66725e+06
2.11743e+06
1.81538e+06
1.54471e+06
1.64991e+06
1.90384e+06
2.04288e+06
1.69022e+06
1.7948e+06
2.28274e+06
1.65044e+06
1.9057e+06
2.10366e+06
1.78411e+06
2.45734e+06
2.89456e+06
3.49746e+06
3.41286e+06
2.98182e+06
3.69614e+06
3.61229e+06
3.12158e+06
1.90949e+06
2.31564e+06
2.28379e+06
2.26306e+06
1.80645e+06
2.20815e+06
1.8349e+06
1.97046e+06
2.49968e+06
2.40198e+06
2.39175e+06
1.99332e+06
1.90499e+06
2.52534e+06
203432
197792
200200
190082
188488
187469
186593
197220
192625
195243
181864
184695
184534
182257
200688
204823
204995
194027
190201
189208
193580
197781
203942
204469
187626
190205
185308
192374
29.7407
3708.01
2251.94
10.5857
1853.72
5.10639
5297.28
174920
115740
171317
118784
171255
167654
106577
161390
108216
166823
162882
81523.9
156624
95193.6
102208
166021
168715
164779
75731.3
161387
92109.5
159185
145608
65788.7
63076.1
151620
154831
79865.9
204995
4110.93
0.162671
209732
5414.8
0.227992
185774
1039.29
0.0947158
211721
5620
0.188991
169682
1.9478
0.0495166
136372
212015
143763
107118
203043
96564.5
200875
143368
133880
208687
106966
203377
94742
204965
130824
101867
193538
89348.8
197462
56682.1
190133
178737
182751
188127
11272.7
35770.2
87600.5
43161.4
215651
212604
276561
273455
268562
263453
227819
223631
295169
269883
293724
264063
289561
288327
263028
266397
288337
291420
283520
286282
261239
258716
437881
355090
359106
444519
302450
428897
306957
383993
442952
445515
440425
393277
395969
391320
388435
449328
447905
443030
398459
400017
393788
395340
425723
432113
435070
377289
380215
386181
383167
390282
433238
439454
431732
437848
382685
388691
357548
323095
324624
317893
319326
354224
352689
320635
352111
317585
312690
315634
350221
347295
306212
342314
341296
312402
313566
348831
347433
304683
339326
336707
307697
310370
345076
342202
277164
283497
282612
257876
252465
257229
251692
275334
278588
280944
255877
248912
250561
253848
228812
246796
247956
223130
242081
241270
222452
226077
242105
244811
239726
219210
237486
221155
232238
214191
231119
218114
236216
235640
217404
229831
210835
228212
234494
214710
232747
216300
528872
516388
525303
510682
841621
833680
823679
828390
715617
713739
830726
831585
835055
712755
710780
838170
716445
717110
841722
839361
714398
713673
833094
829439
835399
709389
701104
708056
701309
836212
827955
836742
709378
695477
699069
707256
528881
610370
609304
607007
524948
524999
605962
609209
527489
610626
521574
607457
524052
605970
597802
515453
603443
521574
521111
602945
597591
516738
513150
603037
592866
519551
595602
601117
206620
210494
205641
196926
195824
192333
192933
158010
175209
177380
2532.01
613.004
6105.2
11267.1
211217
206865
206233
197200
196587
192223
192920
207573
205080
203363
193643
195440
191160
189627
206261
202377
204241
192430
194381
191438
190130
201240
198823
202128
191327
188706
187723
185540
202094
201859
200133
189192
190090
188203
190358
203201
204073
203153
191249
191608
191055
192653
199305
198268
196293
187818
184059
186188
186182
201802
204684
202659
191209
193931
190846
193450
196218
196089
199122
183163
185956
183192
180747
194285
192221
195388
181915
184367
182391
179781
187988
190824
193161
180318
175355
177668
178162
190833
190154
193088
180379
178262
177629
175590
183491
185924
188397
172429
175821
172657
168389
185436
184470
187290
170291
174582
171949
166687
180849
181145
183407
168134
154263
162652
161592
6017.72
38.8281
48.2451
17.0382
21761.3
13.894
17317.8
518.605
35.684
4443.87
16.7884
21409.5
12.6386
2255.98
178946
140218
180814
176125
125677
174146
130057
142607
182661
181994
177392
134046
132764
178158
182509
141598
181586
177407
133646
178156
131739
138512
177831
180043
176117
122958
174105
128246
2606.13
15.9519
33.1528
11.8313
14621
6548.31
5.87343
176374
123232
173032
119475
171473
168087
111382
178910
180063
181683
163958
158957
154330
147051
172737
121766
170131
105343
168361
120235
173927
171079
112329
101857
163095
166067
168774
117131
174037
121430
171117
104947
174358
171242
119414
173154
109979
100938
169017
171430
170660
115646
105746
159433
165849
162189
80183.5
154901
97158.6
171527
176169
178254
141639
151821
136933
122467
113584
164069
168949
163914
88806
101293
158624
165034
173285
175860
115157
139147
128590
100679
157512
73478.1
69204.9
141615
149116
86343.7
151353
2.13098
3.94031
3619.93
1344.84
11.4248
4552.06
4.46432
157986
74094.9
151668
71086.9
149975
142357
57848.7
364300
321637
453780
400532
409425
465493
370234
350232
457961
404895
454176
461861
457984
414743
409456
467750
463007
461072
422305
416291
419599
413720
404672
451868
458699
456838
410283
407997
402693
449986
396161
445467
448858
453613
404458
399573
365127
336716
331713
342661
376126
370266
336745
384017
343776
347495
377512
381271
374769
341102
330099
328191
362234
336646
370633
368138
334319
325254
359209
355609
360347
326672
364463
330832
154737
74.6425
0.239263
109.02
0.341127
68073.8
25.583
0.12527
166178
158987
80.7297
0.298115
204278
37352.4
0.152117
172752
2.13777
0.0554037
159287
226969
218277
215250
144553
216050
151737
132169
202657
210652
205246
139474
112451
198483
221926
166198
223541
217084
151426
142620
211372
129130
154037
212477
201312
136857
208253
106995
188624
120221
196508
45390.6
187424
98974.9
193764
264294
300911
300788
268146
232881
227836
306964
258419
314194
266058
230853
234247
271421
302881
263899
313962
268388
255978
224512
213592
301033
285255
248121
238456
224551
264306
297853
231182
255948
231249
266107
239945
302705
312823
307593
281030
286279
281771
277138
307370
299257
305314
279681
275534
281630
273970
297579
295450
292430
275435
270036
272231
267238
275445
273899
299052
307187
305085
279721
281560
271463
293173
296603
298070
302023
276603
272795
320090
317367
311754
292745
290209
285459
287693
307615
307643
313138
277813
282225
287114
282256
311545
317408
319914
292729
290590
285614
287645
260183
289201
284979
293583
288898
268447
263897
296312
268108
292784
297898
301901
273079
276830
301831
273029
276752
271336
296184
292677
268065
290171
282669
287437
259976
264858
262354
257662
260157
288843
284567
293441
268834
288783
264326
251853
280604
276296
279650
284240
259362
254909
290870
261039
285764
282781
287680
263134
258320
251809
280176
275833
279432
284092
259745
255223
262811
238507
241956
259117
235515
254906
239055
268287
244598
246472
262202
243119
264132
241445
234247
252012
253466
257289
239179
259103
237640
230721
246567
249678
254472
231810
250863
235184
253446
232964
252041
257605
239287
259143
238064
259894
239981
243081
236797
255937
259931
240015
266677
245300
246650
262653
243258
264209
242051
253243
229177
233918
231233
250304
245579
226888
227947
249816
246716
232733
251534
254998
235903
220921
242938
239053
228059
246788
242504
224074
243201
220071
224558
240924
218263
222523
236403
217236
235081
231198
238177
216061
220033
233953
249867
254913
235863
232774
251508
246864
228468
220883
243090
239187
229067
247602
243327
225099
221878
226512
244875
242152
219711
237516
224071
234672
217113
213391
216963
221017
235181
238962
176064
182388
180246
53053.6
46965.2
3548.44
15520
460912
452220
359952
371273
364519
403162
469169
350605
411489
456649
406790
464868
460134
416898
411176
468231
463914
462862
423314
421423
415131
417028
452567
454035
404840
459127
457803
408750
410645
402179
447658
397710
400515
450113
455259
405555
336817
366316
332156
343035
377343
371358
337218
347928
384703
382294
375749
344123
378053
341643
325783
356790
322428
361527
327345
365382
331338
362766
328578
330316
368868
336925
370970
334793
222919
224319
225457
206331
209534
207453
208347
220973
220532
223348
204745
204371
202544
206669
219538
221939
224423
205551
205653
203621
207640
226162
227189
224497
209736
207619
206838
208968
214693
212712
217037
201606
199881
196618
198348
204248
206624
208430
192880
190575
189155
194513
208339
206290
210613
194671
192941
190909
196729
211565
214228
218043
202284
197289
199230
200214
217136
219845
221068
203736
201313
200509
204712
215976
220230
221177
201232
204786
203984
200308
214089
218644
216153
202672
196660
198879
200681
216384
214982
218869
203161
201138
198131
200175
208123
211787
208523
194724
197614
194360
191673
204837
209088
212830
193889
198130
194970
190854
200702
201857
204392
190847
185374
188516
187394
197796
201483
205276
191426
184350
187629
187832
195268
198855
200250
186831
185593
182223
183307
192042
195200
197141
182312
184067
180886
179347
189611
192969
191874
179028
176831
175937
179978
186034
190539
188995
177849
172823
176451
174645
183194
185479
186364
173103
171852
167456
165677
87.5583
89093.7
78248.4
7037.55
7840.5
50.9464
63.2841
191384
164889
193951
162810
161530
192280
193024
190695
190897
162578
155129
158899
188986
192485
107.524
75790
88694.6
7334.34
678.716
46.8496
5794.96
190116
162655
189832
155795
188263
159261
191698
187899
150946
182905
148217
184828
186011
154519
194116
162753
192401
191742
164913
161371
193507
181411
184398
183123
167518
170056
163109
159473
187470
151093
185820
182615
148830
144998
184397
35.7392
71069.9
41632
5330.11
3411.12
20.8878
43.2988
189135
158072
150547
186754
186032
156826
189944
157900
186646
189962
189209
149746
185745
156373
30.1114
67.2676
67906.2
17.6816
38.931
4838.93
2977.52
187988
149689
146855
182143
184284
153691
186068
188652
149967
186567
183355
147606
143303
185618
144276
179342
183404
180011
129124
175698
137270
178769
141423
176154
127524
137346
174241
180572
146072
180324
183454
180192
132679
177050
139734
179372
177092
139524
123766
174580
134834
181743
176273
120977
123682
168273
173018
131575
171628
175879
116369
166227
119111
171346
170868
128079
140283
176921
144202
179333
180055
158600
156002
7.57942
8765.13
31456.7
4.82778
4857.9
1791.18
14.9982
171029
115039
169012
162908
105648
100105
165107
174761
126422
134616
177378
178437
152169
146707
108024
162690
166259
159824
82760.6
155641
92497.6
155199
148056
88161.5
62181
82181.6
144695
157836
151412
54515.5
133555
64522.9
146188
74246.1
139956
59025.8
131876
143125
132340
30500.7
118339
43650.8
169156
147939
162901
113852
61384.7
95018.2
82424.3
53221.7
124645
139260
130038
26473.1
41052.6
112682
313.702
3.25742
1445.99
2.1927
529.856
4.83337
5073.13
134674
41712.6
130405
28412.9
115383
109809
24656.1
28496.6
91900.9
115550
35395.8
124142
102107
20160.1
117212
79214.2
17950
19497.6
100878
29638
97691.3
219.607
2.75769
1041.13
0.933949
50.8632
552.918
2.01116
21436.7
79129.6
104494
14979.2
90537.3
64196.9
7741.01
87321.7
82856.5
81156.4
13545.2
13063.2
11360.1
11768.9
83712.8
72333.3
77644.7
10706.9
12087.9
10523.9
9334.47
82409.1
86325.1
80059.4
13376.9
11616
12697.3
11026.1
65238.2
7580.17
63747.1
74824.5
73219
9471.08
9804.11
81997.9
69717.8
75794.2
10002.9
11521
10008.5
8695.03
62442.8
7727.98
64690.8
74323.7
72021
9670.3
9180.32
65341.1
62359.9
56828.3
9088
7930.76
7402.84
6468.21
5823.13
6869.39
59395.9
14704.3
89686
83163.8
12489
6256.35
60566.5
55668.7
64755.5
69865.4
8784.25
7799.5
52754.2
6661.89
58431.2
61987.4
67879
8337.07
7247.11
62020.1
58550.9
52896.7
8329.7
7245.09
6662.73
5801.02
51499
5924.76
53679.5
41924.8
40023
4132.59
4360.99
54280
5823.41
52913.8
42507.8
41366.7
4296.2
4434.18
7634.35
36064.5
63587
44981.3
4673.53
74406
10030.8
52334.3
37180
47128.4
4369.87
5798.48
5072.74
3820.65
4357.58
49207.3
41662.3
57973.1
49765.2
6635
5419.22
3880.72
45706.1
37973.4
54523.6
45830.8
6044.56
4846.08
4821.47
49959.3
45449.1
35211.6
38902.1
3999.9
3561.84
55051.1
9823.53
73688.9
47946.5
3121.1
32545.5
5056.05
42522.2
5105.39
47690.3
3253.19
32563.3
36822.5
3748.97
48032.4
33128.9
42880.4
3795.09
5127.87
4468.87
3301.82
2960.46
36478.7
29986.9
2697.63
27561.7
22113.6
2133.27
3353.15
39730.7
33364.4
30562.7
25265.3
3028.35
2453.03
2541.38
33812.6
26033.8
31878.2
40751.4
4252.46
3192.09
30200.8
22620.7
2172.64
28127.1
36785.9
3732.15
2744.88
5517.27
27087.2
51107.3
38078.7
1685.77
3783.53
18598.9
31514.7
21065.3
30634.5
3025.62
2082.45
2015.88
3121.59
31035.5
20219.7
29498.4
2898.87
2046.31
3066.53
1931.25
27828.8
22149.5
19259.8
3146.91
2738.7
1851.53
2140.44
25726.3
19546.7
28685.7
2813.97
1652.64
1869.49
2497.6
23374.6
15682.1
1490.67
18230.2
26883.6
2618.05
1738.14
1922.16
26675.7
20004.6
14507.7
19685.4
1888.4
1382.42
23344.4
17061.2
1629.62
12122
16778.2
1607.66
1156.08
21950.4
11744.2
17759.3
1390.72
2110.59
1697.17
1113.83
1196.42
12569.1
18664.3
23432.3
15946.4
2270.44
1525.05
19314.5
12851.3
1217.92
10021.9
15200.3
1453.1
947.771
26190
6937.53
1049.46
1444.44
16086.8
2430.49
11750.1
9986.91
8981.5
13659.2
1298.5
613.763
848.425
945.593
893.527
9432.89
14112.7
10147.2
6754.37
961.79
634.501
14368.1
7554.9
12414.3
1181.26
828.919
712.317
1370.15
8153.34
7450.37
11399.5
1086.31
493.293
774.556
701.641
450.056
756.201
8011.97
6203.76
10215.3
968.822
581.193
807883
757201
573648
486461
592919
573312
830359
800687
822060
704748
826941
815089
700501
694817
688962
783233
816925
800702
678653
691126
678644
667807
791308
781580
798176
669927
682202
675552
663692
648099
657348
768143
769435
783050
666754
656066
511379
599610
517225
513472
596542
588494
507664
583706
505093
498342
578607
494881
501371
569255
497914
503027
581293
508576
590136
581279
503014
558397
491057
564161
565865
492525
572368
497128
438829
431661
396520
308854
317613
404402
314864
364404
453560
400510
449966
448780
445430
399491
396112
435445
443993
440620
390005
394929
391579
386599
446029
392398
441756
437535
441742
392377
388332
427452
432763
436991
387858
378668
383753
382852
360323
330772
326638
325137
359110
355535
321539
313341
351727
347468
356022
322174
351684
317549
349288
319951
354202
350814
311667
345930
316620
342909
338137
304251
347082
308108
342175
312872
329.532
560.266
5995.57
2546.83
4282.35
393.43
227.836
6955.57
2993.1
4619.29
419.408
652.988
426.158
269.476
4369.04
2762.11
2356.22
470.661
402.308
247.971
210.326
2770.84
248.901
3575.02
1898.83
325.297
168.218
127.345
1677.94
1827.94
2895.9
259.857
90.7
161.485
147.918
2023.42
179.63
1391.7
708.852
122.459
90.526
60.9861
105.642
1249.92
1208.42
1052.47
94.938
92.0605
1087.74
5.06845
0.310786
4.34669
0.38305
8.30728
0.375461
6.71558
92.7811
925.854
1064.82
925.961
70.282
80.7692
805.021
4.06189
0.335816
4.84925
0.344264
6.15957
0.373196
8.16619
98.2586
996.875
1121.79
977.889
76.3814
869.605
85.701
1233.4
102.125
93.6074
1072.78
1171.84
1019.05
88.8777
628.939
1368.45
1158.08
54.1853
120.886
101.878
45.3998
848.301
64.9913
740.123
60.9088
691.859
603.519
53.0211
3.318
0.1739
2.20861
0.31887
5.37022
0.224538
2.69258
1.88108
0.170765
2.44181
0.220317
3.00133
0.281428
4.78946
57.2442
653.584
581.239
816.626
63.7003
726.336
71.5751
61.3956
725.77
702.915
878.452
79.0703
76.7118
907.369
59.2731
62.4263
715.075
77.9998
894.429
849.418
74.0742
26.2207
345.832
299.324
40.7779
472.224
409.664
35.478
535.104
616.188
53.9188
771.637
58.5928
67.4404
670.594
35.323
494.18
401.712
54.0258
618.067
503.52
44.1029
771.526
58.4473
670.565
53.6539
616.56
535.543
46.6091
699.608
420.292
925.769
81.1115
26.5312
60.7358
35.7365
903.359
272.357
454.408
47.6302
78.5065
38.5994
23.1296
3.19086
0.194142
2.70728
1.7255
0.149917
1.5711
0.142469
2.5666
0.223738
3.10071
1.46434
0.135827
1.68231
0.146203
43.569
500.455
444.761
365.807
28.6266
324.618
32.1158
46.7792
555.516
538.186
393.479
35.4996
34.4269
406.004
45.1106
47.6078
546.914
378.015
35.0095
399.302
33.1467
47.4671
404.016
540.621
471.067
31.1332
41.369
351.147
31.1214
444.87
354.049
48.5802
558.194
445.265
38.8443
407.733
470.261
40.9963
26.2216
295.47
341.941
30.1502
1.26822
0.15157
1.86643
1.12787
0.115214
0.0944165
0.780763
23.8056
338.006
267.842
21.8526
243.773
192.056
17.4827
2.0745
0.130755
1.41288
1.20795
0.844733
0.120219
0.0987367
27.0632
377.337
305.523
24.4624
274.49
221.179
19.9428
27.6957
311.441
229.916
392.011
26.0429
34.5274
290.977
21.9942
247.249
194.88
23.8476
269.026
339.696
29.7053
498.757
144.221
334.373
18.5297
43.0389
28.9256
12.4544
273.276
24.8882
186.204
16.5655
180.365
24.1731
281.943
261.693
24.5245
182.969
15.8992
276.993
172.698
23.2089
286.901
22.2836
248.426
166.481
17.6978
15.4278
192.969
1.30614
0.0928121
0.746962
0.145016
1.68987
0.104883
0.917761
253.79
20.1891
15.5457
147.669
167.185
224.735
22.6286
18.3747
202.882
132.951
235.909
14.4957
155.263
21.1219
21.1592
235.519
172.779
169.481
11.7712
15.5947
123.516
145.714
18.2982
202.31
144.093
10.0853
103.051
13.4775
17.1901
123.925
189.325
151.81
9.67843
98.8458
14.0194
10.4705
160.831
106.567
18.6517
204.745
136.493
12.9668
15.3301
166.249
108.151
129.981
8.52769
83.7638
12.2927
88.4696
122.268
209.244
18.1122
5.02436
11.0599
7.91672
0.849126
0.0740392
0.542913
0.359184
0.0602365
0.567783
0.0756746
115.531
8.28774
7.57961
53.4281
74.6101
10.9066
83.4654
8.02045
119.957
78.7645
8.46939
84.9645
55.2468
6.02942
104.949
11.5597
72.9234
6.69649
10.1163
62.3959
122.154
96.572
7.1294
6.59293
42.7848
68.2576
61.396
9.42044
6.9971
38.7077
66.062
85.4043
5.75006
8.53785
50.3852
6.06451
35.6862
56.4987
36.2234
3.44329
22.7388
4.48617
5.46504
27.7796
47.9654
33.1876
3.24008
4.29595
19.1533
0.235054
0.0688294
0.395263
0.288781
0.0606848
0.0756787
0.466696
40.0034
4.30426
34.0055
3.31809
20.9002
17.7456
3.00677
20.4778
3.72268
26.948
14.0926
2.49339
10.8285
2.71467
21.0932
7.83092
2.49913
2.56698
13.1717
3.16037
12.2188
0.117531
0.0567741
0.27
0.080919
0.0495166
0.195546
0.051533
13.9648
2.45243
9.6492
2.27207
7.67829
5.50195
2.0486
4.77628
2.49469
8.79473
7.521
2.15179
4.30061
2.40864
8.09524
7.42809
7.25917
3.03249
3.00492
2.99621
3.04223
7.82273
7.30833
7.02435
2.96922
2.94395
2.93599
2.91257
7.30813
6.10642
6.60892
3.11504
3.13479
3.08776
3.16806
6.83058
5.6084
6.17574
2.86978
2.92357
2.88347
2.83553
5.20411
2.98655
2.19836
2.13777
4.32431
3.29625
2.24993
3.65588
2.0948
4.98707
3.26884
1.97796
2.71564
1.97796
4.99163
5.72376
5.62268
3.07454
3.04304
3.02303
3.09423
4.58151
4.83958
5.15186
2.81052
2.6954
2.73304
2.76977
4.32749
4.50534
4.86037
2.65701
2.5379
2.59162
2.59918
4.98036
5.62032
5.4519
2.97786
3.02771
2.99295
2.94794
4.96582
4.78624
4.482
2.87527
2.84552
2.81155
2.78443
4.44536
4.24903
3.98904
2.5881
2.51454
2.54242
2.47208
3.0399e-08
6.83183e-07
1.34948e-05
0.000262584
0.00570165
0.253215
2.53854
2.95404e-09
6.75645e-08
1.33579e-06
2.50821e-05
0.000473682
0.00902019
0.0731161
1.01863e-10
5.10772e-09
1.03042e-07
1.8789e-06
3.24025e-05
0.000553015
0.00905423
0
2.32831e-10
6.53381e-09
1.18976e-07
1.95873e-06
2.98056e-05
0.000423802
0
0
2.47383e-10
6.22822e-09
1.01791e-07
1.46874e-06
1.87945e-05
2.35086
0.0573746
0.00504538
0.000201232
6167.9
238190
1018.72
0.737085
0.0339531
0.00139229
282568
178272
28169.4
0.0793123
0.00578977
4338.99
279687
366486
420991
711.443
273302
291690
412071
521595
6.43334
138244
337694
376861
469810
0.204458
0.0717341
0.00541103
0.00118559
0.0382127
243.693
5394.77
307355
314399
0.000153345
0.00336804
6.01882e-05
0.00157823
1.19801e-05
0.000267541
2.14187e-06
5.00226e-05
3.24755e-07
7.30729e-06
0.000147845
0.00326756
0.0447162
513.499
245425
204230
4.1211e-08
9.29285e-07
1.85964e-05
0.000367501
0.00735442
0.306855
1334.71
192498
3.94357e-09
9.20409e-08
1.83273e-06
3.49572e-05
0.000672203
0.0126476
0.591368
2184.04
2.03727e-10
7.14499e-09
1.41255e-07
2.58652e-06
4.49673e-05
0.000768278
0.012079
0.0676867
0
3.20142e-10
9.00764e-09
1.6336e-07
2.68423e-06
4.07318e-05
0.000571773
0.00624849
0
0
3.63798e-10
8.54197e-09
1.39116e-07
1.98647e-06
2.50812e-05
0.000261873
268291
239310
284239
181658
215798
1.30268
57894.4
0.0454625
0.152128
0.00178876
0.0080043
311397
343230
278360
375486
373843
364579
272802
310401
504344
659638
600836
598388
490181
523265
657179
559759
468267
405629
557331
469273
392546
469575
415137
495302
488922
490681
386245
394691
496871
366454
361381
367352
344441
361527
330577
330012
366629
341829
343900
359250
360689
329936
328370
676365
655178
671723
616404
620349
608549
604658
674036
660321
677181
618458
621088
609195
606473
252551
205935
252286
248580
277815
228341
211157
224433
297142
248362
212257
252879
283800
254605
253799
206643
253582
285383
253598
254466
206567
326147
312799
327536
308602
291170
307820
292136
312412
325005
327093
308114
290158
306559
291735
634387
597453
630273
589384
560399
585915
563379
631788
601150
634889
589865
561354
563734
587322
481106
401405
432627
457005
484134
368523
383740
566649
524515
569889
560869
514027
557407
517037
568480
525157
570559
561474
515550
517582
559085
311541
381288
374034
381082
364769
274743
287905
366446
375494
366390
327925
333342
327908
333183
374751
364413
365541
327249
331785
332542
326207
492742
497331
494897
456784
457682
459569
454772
494327
498070
495644
457381
459075
456170
460164
557032
512857
514695
528660
531157
494218
492328
559794
512627
514598
529116
531317
494180
492381
488428
569820
503170
381865
391455
412205
400763
307194
513008
541210
419668
625021
398480
323804
522399
522328
519845
593989
523386
543554
563271
587598
542666
559958
582260
559783
545443
582836
526201
305258
404255
87815.2
341806
553314
1653.62
513941
1596.4
195703
314451
399269
419799
469850
32695.7
36176.9
64821.2
177220
135227
158454
0.0121466
0.000662794
3.12072e-05
0.00318437
0.000168231
7.64077e-06
328529
272895
397960
263182
191269
194916
260287
266862
213336
202585
273196
346100
362933
483352
514222
354930
435275
448862
371623
461304
474042
64904
379526
0.888957
0.022551
288939
255802
165561
193786
176434
124339
119259
210931
133232
138137
207166
41850.8
273756
344.336
5101.44
192406
39.8195
12075.4
4321.54
99556.1
214372
269052
95529.2
193450
129075
70447.2
131628
126129
81539.3
202763
249870
182876
185865
230270
253495
188837
187468
256796
132935
19940
14.1851
0.71684
8.48244
2453.67
0.678193
1.66835
0.352881
22151.2
0.0472255
0.00564119
0.00027411
182645
158.267
0.023626
0.0296557
0.00185221
0.00212921
7.56398e-05
440979
201371
544232
620907
78537.1
368223
4.84328e-05
0.00131047
5.57047e-06
9.32123e-06
8.14241e-06
7.53121e-05
0.000351201
5.39701e-05
0.000242594
0.016945
0.707897
0.00404521
0.0461617
0.00191249
0.00535535
7.27958
0.0621225
36.2011
0.532984
203467
1.68422
8.63365e-08
2.06128e-06
1.38447e-07
2.04313e-06
7.71252e-10
1.74623e-10
1.60071e-10
0
4.88595e-07
4.84288e-08
1.40324e-07
1.4873e-05
5.61704e-09
8.41537e-08
1.05212e-06
7.09464e-06
3.35275e-06
2.89196e-06
1.41647e-06
3.04135e-09
2.61934e-10
1.55705e-09
1.45519e-10
2.2992e-09
2.76486e-10
1.92085e-09
5.82077e-10
5.67525e-10
1.45519e-11
0
7.85803e-10
4.22006e-10
0
1.11022e-06
4.45027e-07
5.26314e-07
5.5681e-06
3.6115e-05
9.71434e-05
8.96666e-06
2.09984e-07
2.71481e-07
1.16866e-07
4.76721e-08
6.05651e-08
2.63535e-08
9.63482e-08
2.10519e-05
1.35563e-05
2.10488e-05
1.96451e-09
6.1118e-10
0
2.83762e-09
1.77533e-09
1.01863e-09
8.58563e-10
2.76486e-10
1.01863e-10
8.73115e-11
8.73115e-11
1.60071e-09
4.07454e-10
1.65892e-09
1.22236e-09
3.49246e-10
1.16415e-10
0
4.94765e-10
1.01863e-10
3.49246e-10
0
2.32831e-10
8.73115e-11
0
0
0
0
0
0
0
5.82077e-11
1.29512e-09
7.42148e-10
1.89175e-10
1.09139e-09
2.18279e-10
0
0
1.16415e-10
4.36557e-11
0
5.82077e-11
0
0
8.97853e-09
1.21043e-07
1.19267e-07
6.5731e-08
2.65863e-08
1.09576e-08
1.98925e-08
1.98925e-08
0.175544
0.00597068
2.29184
2.26376
38.4404
0.0565328
32.507
0.0163733
0.0121692
0.13373
0.000105266
0.000387875
0.075779
0.000591296
0.000127943
0.000900954
0.00214367
0.00453667
1.56142e-08
6.89164e-07
1.13389e-07
1.34518e-07
6.53759e-07
6.94708e-08
1.36642e-08
6042.22
35.6592
53463
99745.8
294411
7940.95
317223
502.627
619.899
9077.56
3569.35
0.232052
0.00356806
4.70824
2.67983
7.503
17.8731
8.93765
13.5031
1.76522
2.14408
5.66083
0.382775
3.6719
0.880675
4.36791
3.38139
0.847304
0.408674
0.315784
3.58518
2.00163
0.622372
2.76252
0.712445
0.24806
0.120242
1.28011
0.475802
1.12234
0.173346
0.735937
0.405317
0.323209
18.8696
0.172236
5.50153
0.0249963
0.0943373
0.00275568
0.00602095
0.13991
0.0110218
0.00770221
0.0693176
0.0496879
0.0225414
0.0295503
0.0167933