/*--------------------------------*- C++ -*----------------------------------*\
  =========                 |
  \\      /  F ield         | OpenFOAM: The Open Source CFD Toolbox
   \\    /   O peration     | Website:  https://openfoam.org
    \\  /    A nd           | Version:  9
     \\/     M anipulation  |
\*---------------------------------------------------------------------------*/
FoamFile
{
    format      ascii;
    class       volScalarField;
    location    "0.0006";
    object      overpressure;
}
// * * * * * * * * * * * * * * * * * * * * * * * * * * * * * * * * * * * * * //

dimensions      [1 -1 -2 0 0 0 0];

internalField   nonuniform List<scalar> 
6429
(
4.36557e-11
0
0
7.97445e-09
1.21276e-07
1.39698e-09
0
0
8.19273e-09
5.82077e-11
0
0
0
0
3.20142e-10
7.12447e-07
0
0
0
0
0
0
0
0
0
0
0
0
0
0
0
0
0
2.51748e-09
8.00355e-10
0
0
0
0
6.98492e-10
0
2.32831e-10
0
0
4.36557e-11
0
8.58563e-10
0
1.45519e-11
0
2.47383e-10
0
1.45519e-11
0
0
1.45519e-11
0
2.18279e-10
0
0
0
0
0
0
0
0
0
0
0
0
0
0
0
0
0
0
0
0
0
0
0
1.45519e-11
5.48607e-09
2.91038e-11
3.63798e-10
2.35741e-09
1.45519e-11
5.82077e-11
0
0
0
0
0
0
0
1.45519e-11
2.18279e-10
1.33878e-09
0
1.32422e-09
0
1.45519e-11
0
0
0
0
0
0
0
0
1.5134e-09
0
1.74623e-10
1.45519e-11
1.10595e-09
0
0
0
0
0
0
0
0
0
7.27596e-11
1.16415e-10
0
4.94765e-10
0
0
0
0
0
0
0
0
0
0
0
0
0
0
0
0
0
0
0
0
0
0
0
0
0
0
0
0
0
0
0
0
0
0
0
0
0
0
0
0
0
0
0
0
0
0
0
0
0
0
0
0
0
0
0
0
0
0
0
0
0
0
0
0
0
0
0
0
0
0
0
0
0
0
0
0
0
0
0
0
0
0
0
0
0
0
0
0
0
0
0
0
0
0
0
0
0
0
0
0
0
0
0
0
0
0
0
0
0
0
0
0
0
0
0
0
0
0
0
0
0
0
0
0
0
0
0
0
0
0
0
0
0
0
0
0
0
0
0
0
0
0
0
0
0
0
0
0
0
0
0
0
0
0
0
0
0
0
0
0
0
0
0
0
0
0
0
0
0
0
0
0
0
0
0
0
0
0
0
0
0
0
0
0
0
0
0
0
0
0
0
0
0
0
0
0
0
0
0
0
0
0
0
0
0
0
0
0
0
0
0
0
0
0
0
0
0
1.60071e-10
0
0
0
0
0
0
0
0
0
0
0
0
0
0
0
0
0
0
0
0
0
0
0
0
0
0
0
0
0
0
0
0
0
0
0
1.74623e-10
0
0
4.18659e-08
1.79862e-08
4.28117e-08
1.98348e-06
1.98797e-06
1.69201e-06
1.91356e-06
0
0
0
1.30967e-10
8.73115e-11
0
0
0
0
0
0
0
0
0
0
0
0
0
0
0
0
0
0
0
0
0
0
0
0
0
0
0
0
0
0
0
0
0
1.45519e-10
2.76486e-10
4.36557e-11
1.01863e-10
2.47383e-10
0
0
0
0
4.84811e-05
1.4159e-08
7.47823e-08
1.17143e-08
2.04163e-08
2.30066e-08
3.24333e-07
5.78017e-07
6.54472e-07
3.47107e-07
21.0953
0.00134075
0.000551628
9.97342e-06
5.16296e-06
0.120953
0.0211333
0.011412
0.00703838
0.00344283
0.000456926
0.000261611
1.19712e-05
0.000615307
1.68438e-05
0.000400695
1.91994e-05
0.000504946
9.8946e-06
1.51887e-05
0.00125983
4.56295e-05
0.000852636
3.81374e-05
0.000706656
2.40226e-05
0
0
0
0
0
0
0
0
0
0
0
0
0
0
0
0
0
0
0
0
0
0
0
0
0
0
0
0
0
0
0
0
0
0
0
0
0
0
0
0
0
0
0
0
0
0
0
0
0
0
0
0
0
0
0
0
0
0
0
0
0
0
0
0
0
0
0
0
0
0
0
0
0
0
0
0
0
0
0
0
0
0
0
0
0
0
0
0
0
0
0
0
0
0
0
0
0
0
0
0
0
0
0
0
0
0
0
0
0
0
0
0
0
0
0
0
0
0
0
0
0
0
0
0
0
0
0
0
0
0
0
0
0
0
0
0
0
0
0
0
0
0
0
0
0
0
0
0
0
0
0
0
0
0
0
0
0
0
0
0
0
0
0
0
0
0
0
0
0
0
0
0
0
0
0
0
0
0
0
0
0
0
0
0
0
0
0
0
0
0
0
0
0
0
0
0
0
0
0
0
0
0
0
0
0
0
0
0
0
0
0
0
1.43302e+06
479.39
16397.9
1292.81
0.181215
0.00720627
362.554
12.1602
9.17514
8247.09
325573
12616.4
379.865
280272
10454.7
291.962
169.045
8.40458
4.4146
0.136237
216.113
6.43184
3.42749
0.287256
0.0049115
0.216004
164040
1.41823e+06
1.04726e+06
771599
1.00061e+06
726896
193421
66893
4484.87
87.9806
3599.24
1057.84
55251.4
70.085
1.5994e-07
1.06229e-08
2.2701e-09
7.27596e-11
0
0
0.000253996
8.02915e-06
1.09177e-06
0.000200338
0.00715522
0.00405291
0.000138844
0.00249277
0.00114893
0.000116044
0.682042
0.000402933
1.1326e-05
0.171932
0.0162628
0.0185663
0.000176597
0.0042644
0.00364034
0.959973
0.000343109
7.70774e-06
7.86848e-05
128176
1.05027e+06
0.00443954
0.00321341
7.04429e-07
973.031
1.9001e-05
0.000139404
4.89788e-07
1.61235e-08
0.0187331
0.00359138
0.000211791
2.5054e-07
2.63637e-07
1.35915e-07
9.68879
1.07694
0.190605
59.3381
0.623731
0.00491522
0.0145019
0.154946
0.000182926
0.000363245
0.00534276
0.156579
0.0120892
0.000205571
0.000441863
8.30613e-06
9.75125e-06
0.000277618
0.000337981
5.32197e-06
1.04955e-05
6.7307e-07
1.13169e-05
2.27446e-07
1.71888e-05
3.81158e-07
7.786e-06
2.38942e-08
6.79574e-09
1.21363e-08
2.33132e+06
31702
3957.43
3452.41
183558
31.2971
398.069
1.71974
0.269031
0.0174933
0.0123779
0.00167835
2.08199e+06
7.89777e+06
-60871.8
2.66587e+06
116865
1.91834e+06
641381
3.47091e+06
3.61577e+06
171938
22408.6
1.1958e+06
1.44306e+06
8.00947e+06
3.09398e+06
2.62096e+06
-4197.47
993182
1.25273e+06
-52232.5
30012.4
1.17536e+06
1.2825e+06
2.27179e+06
2.29749e+06
1.75469e+06
359017
1.32976e+06
1.35161e+06
1.32915e+06
1.46774e+06
374986
93446.3
1.22764e+06
16705.9
2300.31
439036
2494.49
16.6919
0.0263365
65.3321
0.000891238
8.56512e+06
6.12792e+06
6.58615e+06
2.77625e+06
2.51058e+06
2.60985e+06
1.872e+06
1.16326e+06
1.07156e+06
1.35202e+06
2.42242e+06
3.66291e+06
2.38227e+06
1.27876e+06
2.53359e+06
2.48404e+06
1.48567e+06
2.62634e+06
3.70096e+06
2.60661e+06
1.67739e+06
2.60392e+06
2.55251e+06
767780
1.69139e+06
380889
1.28594e+06
688187
1.80242e+06
454418
940559
1.94362e+06
851014
1.3652e+06
1.18317e+06
1.88492e+06
620176
8.57495e+06
6.04523e+06
6.54753e+06
4.44411e+06
3.20892e+06
4.67975e+06
4.04281e+06
3.05162e+06
4.54127e+06
349161
266428
1.08026e+06
965361
329638
285916
1.04337e+06
485621
686529
1.16763e+06
1.18539e+06
473148
673017
1.11642e+06
464264
1.04543e+06
617426
1.21615e+06
396844
1.10753e+06
679909
596494
1.21505e+06
922869
1.25327e+06
762875
1.1634e+06
790497
2.64589e+06
2.14474e+06
2.49011e+06
2.4408e+06
2.30996e+06
2.50402e+06
2.00915e+06
2.1283e+06
2.35844e+06
1.29591e+06
900643
1.3445e+06
1.40252e+06
946963
1.2604e+06
1.38071e+06
1.36006e+06
1.16029e+06
1.35948e+06
1.23588e+06
1.03697e+06
1.42986e+06
1.33446e+06
1.48342e+06
1.12013e+06
1.16265e+06
321640
1.48757e+06
1.06792e+06
1.11376e+06
1.46391e+06
711071
774905
214020
1.39539e+06
942869
990854
1.62803e+06
530889
845633
324378
12625.3
267687
62087.7
6648.6
162637
4662.51
83646.4
6878.99
56.6637
187812
1780.98
156.645
93.9202
1.23758
0.725474
0.0722611
36.0479
3.42266
1.8904
188.786
1.64483
4.74256
0.0381745
0.00250946
0.111043
882494
3.04784e+06
7.06242e+06
784136
0.969631
122078
1.47375e+06
144.639
1.68827e+06
2104.93
0.0041592
571324
1.50649e+06
0.0441795
754027
163.485
0.000268559
230184
2224.88
15.6892
0.00105293
2.4102e+06
3.47768e+06
2.79532e+06
183335
1.17683e+06
1.51111e+06
659481
1.47589e+06
2.28392e+06
3063.32
1.71879e+06
775037
105700
5.05666
59.2282
0.148707
2.39826e+06
1.93919e+06
44990.6
45.616
2399.32
0.125653
0.00392675
717620
1.32535e+06
571346
183645
714823
1.28862e+06
371475
173807
86977.8
4.76731
1.41666e+06
159222
35797.7
1.83039
0.148953
127.978
0.0543745
38834.4
1.22655e+06
14256.1
0.126604
792.924
0.0454074
0.00143628
1.40293e+06
1.26982e+06
135885
1.50926e+06
626818
23270
28.1106
1964.34
7679.2
0.352662
98573
0.116615
1.48952
0.000393536
0.0101915
0.0222492
0.000147791
3029.32
539.841
0.630747
0.00839223
0.0338496
2.33486e-05
6.12061e-06
39464.9
609.614
0.788844
0.930365
0.0226971
0.0066104
0.000250084
0.0271431
0.0432037
0.000126927
0.0102846
0.00247769
8.927e-05
5.32829e-06
0.0188405
0.000226397
1.45335e-05
4.8206e-06
4.23088e-06
1.56477e-07
5.77474e+06
5.17982e+06
3.97068e+06
64417.3
209840
9621.66
0.172536
992293
1.60899e+06
961258
93.4463
2232.22
101.09
0.00466915
0.000225555
292500
219102
40854.7
7.10021
15.9368
0.676786
2.35791e-05
4.29283e-05
1.54723e-05
2.50659
0.394198
0.0633865
7.02539e-05
4.85394e-05
1.89788e-05
2.13585e+06
2.71002e+06
3.32529e+06
2.57697e+06
1.88878e+06
2.54203e+06
2.83685e+06
2.43688e+06
3.14775e+06
3.11548e+06
2.12833e+06
2.60601e+06
2.43032e+06
3.02281e+06
1.79104e+06
1.99295e+06
1.10628e+06
1.48652e+06
1.46019e+06
2.00268e+06
1.40898e+06
2.10361e+06
1.30502e+06
1.48084e+06
1.2449e+06
2.1032e+06
1.81443e+06
1.62684e+06
1.74269e+06
3.04256e+06
1.12669e+06
1.43674e+06
2.4407e+06
400704
2.58772e+06
556155
176321
127874
447.377
26033.3
18499.8
1.39228e+06
656500
449090
884435
4611.34
1.61323e+06
31096.6
173266
51596.9
25.5977
203.124
160.49
1291.28
959.519
6824.28
3617.15
9.66155
519.108
0.616403
5.62957
29.1189
4.16898e+06
1.13291e+06
2.51958e+06
3.20117e+06
1.1262e+06
2.10946e+06
225322
401631
1.00921e+06
1898.2
7.60337
292.855
13755.4
102.511
545.083
0.501649
3.78596
17.8385
0.0127461
1.12879e+06
935569
1.30348e+06
1.24659e+06
1.22192e+06
882826
1.23503e+06
1.31551e+06
1.27927e+06
1.08917e+06
566524
1.41122e+06
1.23135e+06
1.05143e+06
1.1584e+06
1.25237e+06
1.08295e+06
1.19229e+06
943844
1.21496e+06
1.26151e+06
1.30852e+06
522420
1.14279e+06
919674
1.20596e+06
1.01912e+06
1.34657e+06
143779
752683
3864.63
90619.4
139606
742524
4105.81
5895.12
177.34
142.193
5.25326
5554.23
192.226
154.092
125909
75681.1
560328
1544.25
706361
3396.45
65647.4
4987.94
4.24201
71.7503
56.4627
159.326
126.518
2332.49
0.173568
5.28183
0.166114
5.82024
0.00586302
0.135073
0.13089
2.04087
0.00195092
4.71286
0.00433299
0.0575509
356232
40274.5
354741
1.49298e+06
654269
877107
31994.4
175224
305516
3.62299
0.141091
3.98529
1792.05
35.6951
81.4517
0.110513
1.35445
3.1802
0.00357086
8.16254e-05
0.000157923
1.35826e+06
1.30014e+06
1.07156e+06
1.02781e+06
1.40093e+06
1.45715e+06
625438
1.00991e+06
911051
617860
14477.6
1.32661e+06
399389
182149
858106
388440
458780
3856.21
1.21545e+06
107298
148532
341089
783.801
1236.93
393.869
37956
11223.2
17304.5
1418.01
264358
320.214
749.94
14328.7
36367
31.0424
46.7021
14.4721
11.3471
0.0333951
483.25
1.37045
1.07579
74.7197
40.8534
64.2057
0.0638039
1901
1.687
2.64575
2.49897
0.00219596
0.00594476
0.00269868
0.0772747
0.0591424
0.0952828
0.00322531
0.394557
0.000491328
0.0011717
0.0387744
0.000249692
0.00264011
0.00020149
0.00278296
8.51967e-05
0.00418307
0.000132845
0.00251565
41348.5
298.087
4252.41
14566.1
86.0074
2314.57
16.7046
8.86136
235.662
0.259015
0.000825375
0.0243072
0.88368
0.00155022
0.0375527
7.39129e-05
9.12432e-05
0.00139023
9.597e-06
2.5567e-06
5.50499e-06
84.0269
22294.9
101.52
14.2061
3980.27
470.456
2.38478
9.51949
31.8571
10.8105
0.0196132
430.333
0.729186
0.258035
1.71953
0.307849
0.188413
0.0013013
9.58451
0.0521807
0.0372021
0.198095
0.000662711
0.00305872
0.000351994
0.0176555
0.00585167
0.00638753
0.00414942
1.73233
0.00217327
0.00134354
0.076869
0.0431802
0.000300004
0.00333453
0.00279835
0.000244528
0.00010705
0.00524662
0.00320507
0.000171406
0.0014524
0.000121427
0.00148193
5.25335e-05
0.00214292
8.93611e-05
0.001269
0.00042163
1.00563e-05
0.000178381
8.34018e-06
0.000300292
2.18259e-05
0.000224561
0.259968
0.000524098
0.00664669
0.00909953
5.0893e-05
0.00148038
2.78495e-05
1.86692e-05
0.000170081
1.15207e-05
2.85146e-06
7.09583e-06
6.39631e-06
2.02976e-06
4.34629e-06
2.8513e-07
3.05721e-07
9.2815e-07
-59480.8
-633.73
-8563.72
-64298.4
-63131.3
21163.3
11227.9
-7642.57
4469.1
-51072.1
24977.7
-55934.1
214468
52256.2
142476
40982.6
-35371.4
314606
556794
328867
134332
-10853.8
-50180.8
-47603.6
230000
215141
85387.5
71383.4
-18654.4
-32927.4
161874
37903.8
-57556.2
68719.7
210682
719319
1.80591e+06
382608
1.86142e+06
416302
773276
2.13378e+06
-32960.1
134266
25959.1
509264
319183
153401
326377
2.08811e+06
1.96396e+06
494399
1.1058e+06
2.3126e+06
896170
2.2132e+06
81998.2
439486
879186
384106
499692
435495
825121
112698
367724
362580
469516
473656
742986
793450
362642
732906
488640
616144
904776
1.28923e+06
961333
1.46364e+06
3893.45
1.45603e+06
1.12114e+06
149.258
644786
298.694
204181
698726
773787
1.11113e+06
979799
618273
544811
330182
434116
718689
555053
799507
581665
928070
2.20657e+06
2.30128e+06
1.19332e+06
1.3819e+06
2.41798e+06
1.68629e+06
2.53955e+06
879628
1.32984e+06
1.72048e+06
1.68827e+06
1.6737e+06
2.16e+06
1.33962e+06
664208
1.13053e+06
1.04639e+06
1.44499e+06
1.02421e+06
1.14589e+06
1.33476e+06
1.30937e+06
849394
1.35394e+06
1.49903e+06
900036
1.27743e+06
1.49139e+06
877934
940466
1.27302e+06
1.45141e+06
787563
1.15246e+06
1.11176e+06
1.17333e+06
1.07614e+06
1.05066e+06
834989
1.39811e+06
1.33201e+06
1.19529e+06
1.35941e+06
1.42817e+06
1.16386e+06
1.37211e+06
1.37777e+06
1.37719e+06
1.26809e+06
1.53277e+06
2.63662e+06
2.03975e+06
3.04506e+06
1.94603e+06
2.46623e+06
2.74694e+06
1.13374e+06
1.44469e+06
1.40109e+06
1.37076e+06
1.4057e+06
998077
1.46854e+06
840951
1.42197e+06
1.37586e+06
1.35075e+06
855205
1.35702e+06
1.31791e+06
1.50733e+06
1.05994e+06
1.45051e+06
1.57553e+06
1.4046e+06
1.41746e+06
1.24798e+06
1.29516e+06
1.5037e+06
1.23301e+06
1.46559e+06
1.45919e+06
1.47532e+06
899354
1.77899e+06
2.21718e+06
1.66364e+06
1.6032e+06
2.30737e+06
2.23837e+06
1.01887e+06
808782
1.34451e+06
1.31505e+06
1.26404e+06
1.33504e+06
1.29717e+06
678237
1.29796e+06
1.39967e+06
1.35847e+06
1.08556e+06
627016
1.30894e+06
1.0349e+06
2.57392e+06
3.29817e+06
3.24839e+06
2.48676e+06
2.7655e+06
2.70942e+06
3.14571e+06
0.000308531
0.0226813
0.000138724
6.60613e-06
0.0388316
0.000265653
0.0190252
0.000108012
1.13061e-05
4.08472e-06
0.0106838
3.99736e-05
1.41513e-06
0.0147401
0.000126928
0.00220874
0.000333856
0.00206375
0.000518053
0.00604876
6.07962e-06
2.00029e-05
2.32612e-05
0.00792993
0.00481906
0.000491845
0.000214658
0.00840419
0.00434853
0.000415845
0.00558576
0.000118196
0.00224622
0.000184721
0.00234787
0.000285778
0.00318016
2.77489e-05
8.04644e-06
2.30441e-05
4.73873e-06
1.08462e-05
1.5329e-05
0.00107253
0.00105188
6.12981e-05
3.48336e-05
0.00104791
0.000995198
6.02458e-05
3.38083e-06
1.1388e-06
2.98441e-06
1.88158
3.29653
4.8705e-05
2.52596e+06
141.095
221246
9.5647
39056.7
2.21987
31932.7
0.010474
83.1756
4.77146
0.00174176
0.0109645
0.00068661
0.377119
187948
0.0308942
1.89647
0.200632
2.42206
0.143766
1.28844e+06
45712.9
676996
105712
1.37868e+06
883806
614713
991020
1.39505e+06
775433
213759
947984
713295
93505.1
944704
314856
164072
58972.1
708981
471125
20490.1
14649.7
620558
137273
1.32731e+06
1.01198e+06
401691
913757
63155.7
1.1687e+06
1.0889e+06
1.37186e+06
366152
696290
592268
1.19295e+06
1.37962e+06
1.19463e+06
52303.8
1.56666e+06
601316
396483
89209.9
4192.18
92664
141969
758614
145971
747476
1.10911e+06
13254.3
392721
2599.83
777571
125681
63552.6
61211.9
217539
7792.55
772984
1.06445e+06
1.83238e+06
216275
6275.58
178016
177137
888564
172780
871532
6653.06
108106
1.21584e+06
460007
149561
859849
389293
23404.3
1.13229e+06
402960
1.44916e+06
2.58923e+06
1.74604e+06
3.04541e+06
2.44226e+06
454421
4729.15
108447
661878
1.61866e+06
176364
891912
77059.6
36328.5
1563.29
127416
710277
563493
66340.8
2.69579e+06
1.88504e+06
614582
1.88389e+06
3.17317e+06
2.61695e+06
2.6954e+06
788.301
40380.1
273293
7670.73
46021.6
208691
5095.02
87616.4
158597
716982
2681.32
840823
5668.62
87294.6
1.86978e+06
990970
1.78247e+06
318083
63772.5
1.16175e+06
469949
871515
45331.3
374593
4471.02
61016.7
929.306
12818.9
330974
40402.7
328742
854.503
11535.8
896.823
11782.4
169676
14186.5
4077.69
285090
696.801
9110.27
302.037
2.91038e-11
5.82077e-11
0
0
0
0
2.91038e-11
0
0
0
0
0
0
0
1.88593e-05
2.09911e-07
5.44242e-09
2.34286e-09
2.91038e-11
0
0
0
0
2.74798e-07
8.52165e-05
3.66937e-06
1.12472e-07
5.00877e-08
1.30967e-09
4.94765e-10
0
0
0
7.57621e-06
8.04721e-09
1.96451e-09
3.79805e-09
3.12866e-09
4.88944e-09
3.48125e-07
1.86381e-07
1.58994e-07
1.02795e-07
0
3.0559e-10
0
0
0
2.32831e-10
1.16415e-10
3.34694e-10
1.45519e-10
4.91855e-09
1.75787e-08
1.99361e-09
3.84171e-09
6.4756e-09
4.58094e-08
1.71174e-07
1.1563e-07
1.20068e-07
5.96629e-10
3.52156e-09
8.73115e-11
5.96629e-10
3.7835e-10
1.04774e-09
6.69388e-10
1.33587e-08
2.33267e-08
3.21161e-08
1.15979e-08
1.45519e-11
1.01863e-10
2.91038e-11
8.73115e-10
3.95812e-09
2.16824e-09
2.41562e-09
0.0408933
0.000924511
0.000119377
2.97136e-06
1.97794e-05
1.00188e-06
1.87385e-07
6.11763e-08
3.06027e-08
1.14378e-08
0.0141195
0.00156723
0.000235879
0.00106181
0.000200455
3.40742e-05
6.13874e-06
6.18266e-05
3.54982e-05
2.79806e-06
1.9214e-05
3.83235e-06
8.83825e-07
2.84679e-07
2.76632e-08
2.45095e-06
1.15295e-07
2.14555e-06
7.50297e-08
8.40111e-07
7.77363e-08
7.18865e-09
2.39204e-07
2.91038e-09
1.07757e-07
9.92441e-09
2.00511e-07
3.97267e-09
1.28335e-06
0.000107579
4.5046e-06
8.44551e-05
3.52137e-06
3.76443e-05
3.17019e-06
3.22136e-07
2.18307e-05
7.17409e-07
1.18152e-05
8.9244e-07
7.45981e-06
3.77884e-07
0
0
0
0
0
0
0
0
0
0
0
0
0
0
0
0
0
0
0
0
0
0
0
0
0
0
0
0
0
0
0
0
0
0
0
0
0
0
0
0
0
0
0
0
0
0
0
0
0
0
0
0
0
0
0
0
0
0
0
0
0
0
0
0
0
0
0
0
0
0
0
0
0
0
0
0
0
0
0
0
0
0
0
0
0
0
0
0
0
0
0
0
0
0
0
0
0
0
0
0
0
0
0
0
0
0
0
0
0
0
0
0
0
0
0
0
8.29459e-10
0
0
0
0
0
0
0
0
0
0
0
0
0
0
0
0
0
0
0
0
0
0
0
0
0
0
0
0
0
0
0
0
0
0
0
0
0
0
0
0
0
0
0
0
0
0
0
0
0
0
0
0
0
0
0
0
0
0
0
0
0
0
0
0
0
0
0
0
0
0
0
0
0
0
0
0
0
0
0
0
0
0
0
0
0
0
0
0
0
0
0
0
0
0
0
0
0
0
0
0
0
0
0
0
0
0
0
0
0
0
0
0
0
0
0
0
0
0
0
0
0
0
0
0
0
0
0
0
0
0
0
0
0
0
0
0
0
0
0
0
0
0
0
0
0
0
0
0
0
0
0
0
0
0
0
0
0
0
0
0
0
0
0
0
0
0
0
0
0
0
0
0
0
0
1.1496e-09
1.09139e-09
8.44011e-10
0
0
0
0
0
0
0
0
0
0
0
0
0
0
0
0
0
0
0
0
0
0
0
0
0
0
0
0
0
0
0
0
0
0
0
0
0
0
0
0
0
0
0
0
0
0
0
0
0
0
0
0
0
0
0
0
0
0
0
0
0
0
0
0
0
0
0
0
0
0
0
0
0
0
0
0
0
0
0
0
0
0
0
0
0
0
0
0
0
0
0
0
0
0
0
0
0
0
0
0
0
0
0
0
0
0
0
0
0
0
0
0
0
0
0
0
0
0
0
0
0
0
0
0
0
0
0
0
0
0
0
0
0
0
0
0
0
0
0
0
0
0
0
0
0
0
0
0
0
0
0
0
0
0
0
0
0
0
0
0
0
0
0
0
0
0
0
0
0
0
0
0
0
0
0
0
0
0
0
0
0
0
0
0
0
0
0
0
0
0
0
0
0
0
0
0
0
0
0
0
0
0
0
0
0
0
0
0
0
0
0
0
0
0
0
0
0
0
0
0
0
0
0
0
0
0
0
0
0
0
0
0
0
0
0
0
0
0
0
0
0
0
0
0
0
0
0
0
0
0
0
0
0
0
0
0
0
0
0
0
0
0
0
0
0
0
0
0
0
0
0
0
0
0
0
0
0
0
0
0
0
0
0
0
0
0
0
0
0
0
0
0
0
0
0
0
0
0
0
0
0
0
0
0
0
0
0
0
0
0
0
0
0
0
0
0
0
0
0
0
0
0
0
0
0
0
0
0
0
0
0
0
0
0
0
0
0
0
0
0
0
0
0
0
0
0
0
0
0
0
0
0
0
0
0
0
0
0
0
0
0
0
0
0
0
0
0
0
0
0
0
0
0
0
0
0
0
0
0
0
0
0
0
0
0
0
0
0
0
0
0
0
0
0
0
0
0
0
0
0
0
0
0
0
0
0
0
0
0
0
0
0
0
0
0
0
0
0
0
0
0
0
0
0
0
0
0
0
0
0
0
0
0
0
0
0
0
0
0
0
0
0
0
0
0
0
0
0
0
0
0
0
0
0
0
0
0
0
0
0
0
0
0
0
0
0
0
0
0
0
0
0
0
0
0
0
0
0
0
0
0
0
0
0
0
0
0
0
0
0
0
0
0
0
0
0
0
0
0
0
0
0
0
0
0
0
0
0
0
0
0
0
0
0
0
0
0
0
0
0
0
0
0
0
0
0
0
0
0
0
0
0
0
0
0
0
0
0
0
0
0
0
0
0
0
0
0
0
0
0
0
0
0
0
0
0
0
0
0
0
0
0
0
0
0
0
0
0
0
0
0
0
0
0
0
0
0
0
0
0
0
0
0
0
0
0
0
0
0
0
0
0
0
0
0
0
0
0
0
0
0
0
0
0
0
0
0
0
0
0
0
0
0
0
0
0
0
0
0
0
0
0
0
0
0
0
0
0
0
0
0
0
0
0
0
0
0
0
0
0
0
0
0
0
0
0
0
0
0
0
0
0
0
0
0
0
0
0
0
0
0
0
0
0
0
0
0
0
0
0
0
0
0
0
0
0
0
0
0
0
0
0
0
0
0
0
0
0
0
0
0
0
0
0
0
0
0
0
0
0
0
0
0
0
0
0
0
0
0
0
0
0
0
0
0
0
0
0
0
0
0
0
0
0
0
0
0
0
0
0
0
0
0
0
0
0
0
0
0
0
0
0
0
0
0
0
0
0
0
0
0
0
0
0
0
0
0
0
0
0
0
0
0
0
0
0
0
0
0
0
0
0
0
0
0
0
0
0
0
0
0
0
0
0
0
0
0
0
0
0
0
0
0
0
0
0
0
0
0
0
0
0
0
0
0
0
0
0
0
0
0
0
0
0
0
0
0
0
0
0
0
0
0
0
0
0
0
0
0
0
0
0
0
0
0
0
0
0
0
0
0
0
0
0
0
0
0
0
0
0
0
0
0
0
0
0
0
0
0
0
0
0
0
0
0
0
0
0
0
0
0
0
0
0
0
0
0
0
0
0
0
0
0
0
0
0
0
0
0
0
0
0
0
0
0
0
0
0
0
0
0
0
0
0
0
0
0
0
0
0
0
0
0
0
0
0
0
0
0
0
0
0
0
0
0
0
0
0
0
0
0
0
0
0
0
0
0
0
0
0
0
0
0
0
0
0
0
0
0
0
0
0
0
0
0
0
0
0
0
0
0
0
0
0
0
0
0
0
0
0
0
0
0
0
0
0
0
0
0
0
0
0
0
0
0
0
0
0
0
0
0
0
0
0
0
0
0
0
0
0
0
0
0
0
0
0
0
0
0
0
0
0
0
0
0
0
0
0
0
0
0
0
0
0
0
0
0
0
0
0
0
0
0
0
0
0
0
0
0
0
0
0
0
0
0
0
0
0
0
0
0
0
0
0
0
0
0
0
0
0
0
0
0
0
0
0
0
0
0
0
0
0
0
0
0
0
0
0
0
0
0
0
0
0
0
0
0
0
0
0
0
0
0
0
0
0
0
0
0
0
0
0
0
0
0
0
0
0
0
0
0
0
0
0
0
0
0
0
0
0
0
0
0
0
0
0
0
0
0
0
0
0
0
0
0
0
0
0
0
0
0
0
0
0
0
0
0
0
0
0
0
0
0
0
0
0
0
0
0
0
0
0
0
0
0
0
0
0
0
0
0
0
0
0
0
0
0
0
0
0
0
0
0
0
0
0
0
0
0
0
0
0
0
0
0
0
0
0
0
0
0
0
0
0
0
0
0
0
0
0
0
0
0
0
0
0
0
0
0
0
0
0
0
0
0
0
0
0
0
0
0
0
0
0
0
0
0
0
0
0
0
0
0
0
0
0
0
0
0
0
0
0
0
0
0
0
0
0
0
0
0
0
0
0
0
0
0
0
0
0
0
0
0
0
0
0
0
0
0
0
0
0
0
0
0
0
0
0
0
0
0
0
0
0
0
0
0
0
0
0
0
0
0
0
0
0
0
0
0
0
0
0
0
0
0
0
0
0
0
0
0
0
0
0
0
0
0
0
0
0
0
0
0
0
0
0
0
0
0
0
0
0
0
0
0
0
0
0
0
0
0
0
0
0
0
0
0
0
0
0
0
0
0
0
0
0
0
0
0
0
0
0
0
0
0
0
0
0
0
0
0
0
0
0
0
0
0
0
0
0
0
0
0
0
0
0
0
0
0
0
0
0
0
0
0
0
0
0
0
0
0
0
0
0
0
0
0
0
0
0
0
0
0
0
0
0
0
0
0
0
0
0
0
0
0
0
0
0
0
0
0
0
0
0
0
0
0
0
0
0
0
0
0
0
0
0
0
0
0
0
0
0
0
0
0
0
0
0
0
0
0
0
0
0
0
0
0
0
0
0
0
0
0
0
0
0
0
0
0
0
0
0
0
0
0
0
0
0
0
0
0
0
0
0
0
0
0
0
0
0
0
0
0
0
0
0
0
0
0
0
0
0
0
0
0
0
0
0
0
0
0
0
0
0
0
0
0
0
0
0
0
0
0
0
0
0
0
0
0
0
0
0
0
0
0
0
0
0
0
0
0
0
0
0
0
0
0
0
0
0
0
0
0
0
0
0
0
0
0
0
0
0
0
0
0
0
0
0
0
0
0
0
0
0
0
0
0
0
0
0
0
0
0
0
0
0
0
0
0
0
0
0
0
0
0
0
0
0
0
0
0
0
0
0
0
0
0
0
0
0
0
0
0
0
0
0
0
0
0
0
0
0
0
0
0
0
0
0
0
0
0
0
0
0
0
0
0
0
0
0
0
0
0
0
0
0
0
0
0
0
0
0
0
0
0
0
0
0
0
0
0
0
0
0
0
0
0
0
0
0
0
0
0
0
0
0
0
0
0
0
0
0
0
0
0
0
0
0
0
0
0
0
0
0
0
0
0
0
0
0
0
0
0
0
0
0
0
0
0
0
0
0
0
0
0
0
0
0
0
0
0
0
0
0
0
0
0
0
0
0
0
0
0
0
0
0
0
0
0
0
0
0
0
0
0
0
0
0
0
0
0
0
0
0
0
0
0
0
0
0
0
0
0
2.27054e-07
1.91358e-08
1.01863e-10
0
0
0
0
0
0
2.46509e-07
2.07219e-08
1.16415e-10
0
0
0
0
0
0
5.66345e-06
7.56118e-08
5.25324e-09
0
0
0
0
0
0
0
1.72004e-07
2.67755e-09
1.89029e-08
1.74623e-10
0
0
0
0
0
0
0
0
4.51109e-10
0
0
0
2.06637e-09
0
0
0
0
0
0
0
0
0
0
0
0
0
0
0
0
0
0
0
0
0
0
0
0
0
0
0
0
0
0
0
0
0
0
0
0
0
0
0
0
0
0
0
0
0
0
0
0
0
0
0
4.36557e-11
0
1.16415e-10
0
0
0
0
0
0
0
0
0
0
0
0
0
0
0
3.34694e-10
0
8.44011e-10
2.18279e-10
0
0
0
0
0
0
0
0
0
0
0
0
0
0
0
0
0
0
0
0
0
0
0
4.36557e-11
0
0
0
0
0
0
0
0
0
0
0
0
0
0
0
0
0
0
0
0
0
0
0
0
1.22236e-09
2.91038e-11
0
1.71713e-09
7.567e-10
0
0
0
0
0
0
0
0
0
0
0
0
0
0
0
0
0
0
0
0
0
0
0
0
0
0
0
0
0
0
0
0
0
0
0
0
0
0
0
0
0
0
0
0
0
0
0
0
0
0
0
0
0
0
0
0
0
0
0
0
0
0
0
0
0
0
0
0
0
0
0
0
0
0
0
0
0
0
0
0
0
0
0
0
0
0
0
0
0
0
0
0
0
0
0
0
0
0
0
0
0
0
0
0
0
0
0
0
0
0
0
0
0
0
0
0
0
0
0
0
0
0
0
0
0
0
0
0
0
4.36557e-11
0
0
0
0
0
0
0
0
0
0
0
0
0
0
0
0
0
0
0
0
0
0
0
0
0
0
0
0
0
0
0
0
0
0
0
0
0
0
0
0
0
0
0
0
0
0
0
0
0
0
0
0
0
0
0
0
0
0
0
0
0
0
0
0
0
0
0
0
0
0
0
0
0
0
7.27596e-11
0
8.73115e-11
0
7.27596e-11
0
0
0
0
0
0
0
0
0
0
0
0
0
0
0
0
1.08266e-08
5.67525e-10
2.61934e-10
1.52068e-08
1.07539e-08
5.09317e-10
2.61934e-10
0
0
0
0
0
0
0
0
0
0
0
0
0
0
1.79818e-07
3.46336e-09
3.92727e-07
6.24277e-08
7.72707e-09
1.20781e-09
2.09548e-09
1.16415e-10
1.45519e-11
3.11411e-09
1.52795e-09
2.91038e-11
0
0
0
0
0
0
0
0
6.76664e-09
5.82077e-10
1.45519e-10
1.45956e-08
6.15546e-09
4.65661e-10
1.01863e-10
4.36557e-11
0
0
1.89175e-10
5.82077e-11
0
0
0
0
0
0
0
0
0
0
0
0
0
0
0
0
0
0
0
0
0
0
0
1.19762e-08
6.8394e-10
3.20142e-10
1.69239e-08
1.16852e-08
5.38421e-10
2.61934e-10
0
0
0
0
0
0
0
4.94765e-10
1.16415e-10
5.82077e-10
4.07454e-10
4.07454e-10
1.79716e-08
1.55123e-08
1.75933e-08
1.58761e-08
1.87283e-08
1.74623e-10
0
0
0
1.88082
1.33484e-05
0.00197857
1.3946e-06
4.23461e-09
0
0.00052575
1.0414e-05
0.000817388
1.37434e-06
3.85822e-06
4.35102e-09
0
0.00011713
7.85288e-05
4.19401e-07
4.36979e-07
4.80213e-10
0
7.91831e-06
7.74613e-07
2.21189e-09
3.45026e-08
3.92902e-10
4.51109e-10
0
0
0
0
0
0
0
0
0
0
0
0
0
0
0
0
0
0
0
0
0
0
0
0
0
0
0
0
0
0
2.24114e-07
8.73115e-11
3.0271e-06
1.35464e-07
8.73115e-11
3.20142e-10
0
3.18687e-09
2.18279e-10
0
0
0
0
1.71363e-07
5.82077e-11
1.47233e-06
7.61502e-08
1.45519e-11
3.63798e-10
0
2.37196e-09
2.18279e-10
0
0
0
0
2.04745e-08
0
3.41242e-08
3.4197e-09
0
0
0
0
0
0
0
4.36557e-11
1.16415e-10
0
0
0
0
0
0
0
0
0
0
6.25732e-10
1.27766e-08
3.14321e-09
3.34694e-10
7.27596e-11
2.82307e-09
4.22006e-10
1.14087e-08
1.57219e-07
2.32831e-09
4.71482e-09
9.81381e-08
1.0521e-08
4.36557e-11
2.47383e-09
3.34694e-10
2.19734e-09
4.80213e-10
9.5024e-09
2.18279e-10
1.60071e-10
0
0
3.34694e-10
0
4.36557e-11
0
0
0
0
1.74623e-10
0
1.16415e-10
0
2.47383e-10
0
2.91038e-11
0
0
0
0
0
0
0
5.82077e-11
1.16415e-10
0
0
0
0
0
0
0
0
0
0
1.36701e-07
2.06637e-09
5.50644e-08
4.27826e-09
1.20199e-08
3.30328e-09
4.51109e-10
1.01863e-10
1.16561e-08
2.91038e-09
5.82077e-10
7.77509e-08
1.17871e-09
2.51748e-09
4.90254e-08
6.35919e-09
5.82077e-11
1.36788e-09
1.74623e-10
1.65892e-09
3.0559e-10
5.10772e-09
2.76486e-10
1.60071e-10
0
0
8.73115e-11
3.63798e-10
0
0
0
0
0
1.89175e-10
0
1.16415e-10
0
2.32831e-10
0
4.36557e-11
0
0
0
0
0
0
0
1.45519e-11
4.36557e-11
0
0
0
0
0
0
0
0
0
0
4.94765e-09
1.89175e-10
5.26779e-09
1.16415e-10
1.13505e-09
4.94765e-10
1.45519e-11
0
1.28057e-09
3.20142e-10
1.45519e-11
1.81899e-09
1.45519e-11
2.91038e-11
1.22236e-09
2.47383e-10
0
4.36557e-11
0
1.74623e-10
0
2.18279e-10
0
0
0
0
0
0
0
0
0
0
0
0
0
0
0
1.30967e-10
0
1.30967e-10
0
3.88608e-05
0.000132258
2.10528e-06
0.000756793
1.85444e-05
5.4583e-05
1.23179e-06
4.5354e-07
6.84959e-08
1.08557e-08
1.01446e-06
1.94996e-07
4.99567e-08
6.53381e-09
2.1088e-05
4.81898e-05
1.42217e-06
0.000333742
1.44455e-05
2.93519e-05
9.1015e-07
4.05154e-07
7.20174e-08
1.15397e-08
1.10753e-06
1.99201e-07
5.17903e-08
7.10133e-09
8.18896e-06
3.88036e-06
2.78756e-07
1.0396e-05
6.10722e-06
4.7186e-07
1.33659e-07
1.2893e-08
4.56013e-07
3.80387e-08
1.23837e-08
6.66754e-07
3.63085e-07
2.66591e-08
1.02591e-08
1.05763e-06
1.07102e-08
2.47383e-10
8.73115e-11
0
0
0
0
0
2.22062e-08
0
0
0
0
0
0
0
0
0
0
0
0
0
0
0
0
0
0
0
0
0
0
0
0
0
0
0
0
7.27596e-11
0
3.34694e-10
1.45519e-11
0
3.49246e-10
0
0
2.47383e-10
0
2.47383e-10
7.56751e-06
2.47383e-10
2.32831e-10
1.45519e-11
0
8.62929e-09
5.07862e-09
1.74623e-10
6.4465e-09
2.11003e-09
4.36557e-11
9.74978e-10
1.45519e-11
0
9.7978e-08
7.27596e-11
1.16997e-08
1.45519e-11
0
0
0
2.91038e-11
3.34694e-10
1.01863e-10
2.61934e-10
0
0
4.83851e-08
9.8953e-10
1.95723e-08
2.17755e-07
2.58689e-07
2.02272e-09
1.22236e-08
4.21147e-07
5.31145e-09
7.74889e-08
7.17409e-09
1.10129e-07
1.98459e-07
2.47383e-10
1.44253e-07
7.47968e-09
1.7877e-07
4.22006e-09
4.83415e-08
1.07641e-07
1.30967e-10
2.24973e-08
5.52973e-10
1.47556e-08
7.27596e-11
8.58563e-10
2.48838e-09
0
5.82077e-09
3.09956e-09
2.03727e-10
1.45519e-11
6.27188e-09
1.45519e-09
1.60071e-10
1.61526e-09
0
4.65661e-10
8.73115e-11
6.98492e-10
5.82077e-11
1.32422e-09
7.27596e-11
0
1.01863e-10
0
0
0
0
0
0
413169
906.286
0.0168266
8.1629e-07
2361.36
0.0793203
0.00454154
9.40316e-07
101.951
0.000907603
0.000174823
1.32382e-06
1.3086e-06
0.000478616
2.43064e-05
1.88666e-07
0.0041914
0.00015965
1.37619e-05
8.91596e-08
4.65661e-09
6.03657e-07
3.14321e-09
0.000212316
2.2627e-05
1.2196e-07
8.17751e-05
3.53466e-08
3.97267e-09
1.1496e-09
2.83114e-05
2.02417e-08
1.34904e-06
4.65661e-10
5.38421e-10
0
3.37488e-07
1.06712e-06
5.01488e-07
1.39e-07
3.09941e-07
0.00068469
0.000688696
1.64004e-05
2.82248e-05
0.000645315
1.9865e-05
0.000627591
5.2235e-05
7.39242e-06
1.19596e-06
1.72571e-07
6.52409e-06
1.4273e-06
4.92208e-05
0.000286377
1.62846e-05
0.000306146
3.09254e-06
0.000379386
8.8245e-06
9.50089e-05
1.59624e-05
9.40927e-08
2.56916e-06
3.97806e-07
2.7287e-06
6.36035e-07
1.11746e-05
2.66009e-08
4.59841e-09
3.68891e-08
6.8947e-07
1.08863e-07
2.74114e-07
3.25963e-09
1.4581e-08
2.32685e-08
0.000325362
0.000472849
3.77542e-06
0.000101021
1.01609e-05
1.81978e-05
3.8244e-06
4.98607e-07
1.10944e-07
1.41623e-05
3.28202e-06
7.15037e-07
8.12019e-06
4.91709e-08
1.15167e-06
1.62036e-07
1.70377e-06
3.28437e-07
5.04183e-06
1.80589e-08
3.8126e-09
2.66882e-08
1.74623e-09
5.96629e-09
1.31113e-08
1.51311e-06
6.85541e-07
5.05679e-08
1.05647e-08
1.54255e-06
3.60596e-07
4.73956e-08
1.2794e-07
9.74978e-10
1.5134e-08
1.76078e-09
2.51021e-08
6.09725e-09
4.88653e-08
1.74623e-09
3.0559e-10
1.49885e-09
1.45519e-11
2.91038e-11
2.32831e-10
0.000676658
1.0441e-07
2.10601e-06
2.61934e-10
8.88103e-08
0.00294923
1.04832e-05
3.72485e-07
2.66747e-06
6.2624e-05
1.0326e-07
3.37604e-09
7.78527e-09
1.06549e-07
3.34694e-10
0
8.21339e-07
1.29803e-08
7.60774e-08
1.19762e-08
2.91038e-11
1.45519e-10
0
2.82307e-09
7.02421e-08
2.06637e-09
2.34212e-05
0.000612947
0.000190364
1.21187e-05
0.00029591
1.90023e-06
5.5554e-06
6.26881e-05
4.86907e-07
6.32281e-08
1.7375e-07
1.35273e-05
6.7107e-05
3.59723e-07
2.07181e-06
1.05292e-05
5.97425e-05
3.68746e-07
3.11719e-06
2.54426e-07
3.26408e-06
2.50293e-08
5.32901e-06
9.19827e-08
9.09771e-07
1.10012e-08
7.27596e-10
2.89583e-09
3.92029e-08
1.73677e-07
1.35333e-09
5.18048e-09
3.64525e-08
1.37254e-07
1.10595e-09
7.11589e-09
4.94765e-10
6.56291e-09
1.30967e-10
1.07248e-08
2.47383e-10
2.05182e-09
0
0
0
0.0316046
2.11317
0.0139631
73.8572
0.0170524
0.19634
0.0029395
19.0152
0.0336379
0.0790137
0.00252348
15.3538
0.0268157
0.00213726
0.0169433
1.64358
0.00369575
0.000227052
0.0559643
0.000357832
1.78168e-05
3.86933e-05
0.000636171
1.48458e-05
9.40636e-07
1.97377e-05
5.69556e-06
2.89918e-07
0.00210706
1.13455e-06
3.72384e-08
0.000105866
1.57597e-07
4.86034e-09
0.000296819
3.66147e-06
3.52526e-05
6.24471e-06
8.02099e-05
1.5746e-05
0.000177209
1.4792e-07
2.22804e-07
6.8995e-07
9.04618e-06
5.60209e-06
5.07207e-07
1.27373e-07
1.22834e-05
4.8861e-06
3.35451e-07
2.08238e-08
3.33239e-09
1.1365e-08
3.13988e-06
2.89583e-09
1.30967e-10
3.73984e-09
8.58563e-10
1.9007e-06
4.12838e-08
1.88427e-06
4.09636e-08
4.6441e-07
6.8685e-09
4.48636e-08
1.38971e-08
1.27518e-07
2.74304e-08
2.58515e-07
2.76486e-10
5.96629e-10
1.07684e-09
1.30967e-10
4.03088e-09
1.16415e-10
3.75439e-09
1.30967e-10
3.85626e-09
1.30967e-10
4.04712e-05
3.55412e-06
1.25729e-08
1.49885e-09
1.49201e-07
1.77231e-06
4.97821e-08
2.47383e-10
1.10158e-08
5.82077e-10
1.3315e-08
3.92902e-10
4.61296e-09
6.25732e-10
1.49975e+06
9821.58
223220
1.68649
127.79
2.51074
0.0651477
54241.3
4360.28
35947
2.3268
0.0480385
22.4527
0.0285292
1213.52
6.10936
0.561815
0.0220925
0.0126869
0.00302311
3.37387
439185
67066.2
170965
4645.44
14626.3
4953.8
1508.44
143564
50755.1
132805
3915.52
3581.64
1212.31
1289.44
800467
1.84532e+06
1.13546e+06
387444
116988
41844.3
179261
96418.5
15840.6
42969.2
976.06
2394.68
839.922
356.376
3.92902e-09
0
4.26371e-09
0
7.85803e-10
0
0
0
3.8126e-09
1.45519e-11
0
0
0
0
0
0
0
0
2.00904e-07
0
0
0
0
0
0
0
0
0
7.34205e-06
0.0123166
3764
1263.42
50.5357
6508.38
157144
61015.5
2260.74
83896.4
4668.27
6884.02
2504.03
1787.69
156.922
56.934
757.767
7771.32
323.268
36718.8
266308
1427.85
14448.9
28.3999
11347.5
792.387
17473.9
343133
1248.52
38346.6
295.894
15634
859.901
2090.65
650.612
34326.1
40.5877
19712.7
1959.58
403826
555.289
19653.4
75478.9
53.5812
3262.51
776362
3985.6
2694.32
122313
84768.4
105.264
312.583
316544
1195.1
736.105
15550.4
8597.93
24.939
105338
982820
408717
8415.47
1628.63
10123.3
49209.8
2365.06
13535.5
13005.9
52.1652
52.8372
307.91
316.746
2621.63
62349.7
15886
54.8877
170.824
1096.43
349.792
25.7582
10257.3
224.716
420.255
3838.9
79.0392
8.76098
807.043
60.5023
5.98372
4225.9
296.333
41000.4
3014.48
734.285
1737.66
9579.19
15.6169
38.2168
220.133
91.696
18650.4
449.852
3074.89
176706
1.39425e+06
558318
26121.9
20.4074
4.75913
95.0974
5242
251.644
48.9887
1117.91
11.8869
46.8298
1.8568
85.2164
2295.19
14348.1
532.463
842.725
3527.86
21736.1
729520
63948.3
9580.06
206415
102.556