/*--------------------------------*- C++ -*----------------------------------*\
  =========                 |
  \\      /  F ield         | OpenFOAM: The Open Source CFD Toolbox
   \\    /   O peration     | Website:  https://openfoam.org
    \\  /    A nd           | Version:  9
     \\/     M anipulation  |
\*---------------------------------------------------------------------------*/
FoamFile
{
    format      ascii;
    class       volScalarField;
    location    "0.00255";
    object      overpressure;
}
// * * * * * * * * * * * * * * * * * * * * * * * * * * * * * * * * * * * * * //

dimensions      [1 -1 -2 0 0 0 0];

internalField   nonuniform List<scalar> 
21219
(
208188
0.0434706
0.0170742
0.00208817
8.29938e-05
0.24893
0.0118734
0.000573637
3.18119
46956.1
1256.43
79105.9
64239.3
1.14383
42.7888
22967.6
244.374
6.1829
2.68479
11624.6
183.753
231.095
68701.9
128340
81873.7
121654
144926
124029
9943.24
56950.4
16790.7
23973.7
83211.7
47016.3
62447.6
66166.7
1015.09
70.6472
81.6325
409.919
124.974
643.173
720.077
6419.65
3444.16
25309.3
30688.1
4776.71
5497.88
26694.8
83667.3
33080.1
45201.4
103668
100227
80706.2
125123
36.0725
5431.05
4339.97
1223.54
76919.8
64838
100421
11081
209983
196776
185141
182751
192508
104019
72006.7
97061.3
121012
80804.6
91641.7
111745
126521
257527
144656
200832
123538
251460
244506
160253
27261.5
0.686665
0.00521483
0.025934
5.58503
109.957
0.332097
0.294138
0.00387705
0.00133067
0.0307831
0.013525
0.00108947
0.0165256
0.000938439
8.86262e-05
0.000819697
0.000354804
4.17076e-05
0.00186533
9.88309e-05
6.49947e-06
1.93205e-05
8.13146e-06
1.22083e-06
0.00012844
7.34661e-06
4.12896e-07
4.12096e-07
1.66227e-07
3.03262e-08
7.67798e-06
4.50789e-07
2.40689e-08
8.44011e-09
3.0559e-09
6.1118e-10
3.77768e-07
2.25409e-08
1.13505e-09
1.01863e-10
0
0
151883
1.68472
0.335361
0.00196841
0.00875071
2.87157
39.2929
0.110057
0.11091
0.00181014
0.000349694
0.0102666
0.00423126
0.000634238
0.0059129
0.000369318
2.79826e-05
0.000247677
0.000100614
1.75191e-05
0.00065015
3.73198e-05
2.32873e-06
5.32706e-06
2.12798e-06
4.09505e-07
4.75122e-05
2.75197e-06
1.49637e-07
1.06433e-07
4.13711e-08
9.21136e-09
2.83026e-06
1.66488e-07
8.81846e-09
2.13913e-09
6.8394e-10
1.45519e-10
1.37516e-07
8.25094e-09
3.7835e-10
0
0
0
30281.9
0.132074
0.000778903
0.000483182
0.415227
1.02408
0.00272559
0.0105483
0.000548235
3.7953e-05
0.000890769
0.000340787
7.18465e-05
0.00205663
0.000106985
5.5947e-06
1.59277e-05
7.25257e-06
1.89392e-06
0.000161201
9.09842e-06
4.71045e-07
2.99944e-07
1.46596e-07
4.67553e-08
1.02879e-05
6.06859e-07
3.15777e-08
6.25732e-09
2.79397e-09
1.04774e-09
5.70828e-07
3.41824e-08
1.76078e-09
1.01863e-10
0
0
2.6499e-08
1.52795e-09
0
0
0
0
76.4428
0.00461794
0.288277
0.00167947
0.00314287
0.0219159
0.000213342
0.0818215
0.00688497
0.00017215
1.48279e-05
8.12515e-06
4.75105e-06
0.00419472
0.000283388
9.94548e-06
5.87097e-07
1.97731e-07
1.06185e-07
0.000182516
1.12464e-05
4.74625e-07
2.33995e-08
4.68572e-09
2.35741e-09
7.08003e-06
4.36325e-07
2.02563e-08
9.02219e-10
4.36557e-11
0
2.64292e-07
1.63709e-08
7.42148e-10
0
0
0
8.96398e-09
4.94765e-10
0
0
0
0
178832
6669.47
13.6625
0.00312121
0.000165424
9233.06
148.189
0.217214
0.00034349
6.08158e-05
4.50375e-06
0.548287
0.0184639
0.000518418
1.2509e-05
3.87547e-07
1.27198e-07
0.00471856
0.000637267
2.44732e-05
9.23174e-07
3.15049e-08
3.84171e-09
0.000241908
2.3236e-05
1.02808e-06
4.09491e-08
1.36788e-09
5.82077e-11
1.00984e-05
8.19287e-07
3.88827e-08
1.49885e-09
0
0
3.64234e-07
2.7343e-08
1.29512e-09
0
0
0
1.14233e-08
7.42148e-10
0
0
0
0
240509
50.3594
0.172129
0.00126725
4.33224e-05
3.91135e-06
0.343336
3.9686
0.00437486
0.000112435
3.53718e-06
1.99201e-07
0.0294487
0.00285953
0.000180245
6.57911e-06
2.26428e-07
1.00117e-08
0.00147354
0.000143292
8.11621e-06
3.34476e-07
1.18307e-08
3.7835e-10
6.40223e-05
5.98792e-06
3.34316e-07
1.45228e-08
4.80213e-10
0
2.5537e-06
2.26384e-07
1.26602e-08
5.23869e-10
0
0
9.48057e-08
7.85803e-09
3.7835e-10
0
0
0
3.0559e-09
1.89175e-10
0
0
0
0
0.215489
0.050331
0.00303313
0.000109344
5.01265e-06
2.48227e-07
0.0287871
0.00358742
0.000229943
9.94348e-06
4.62038e-07
1.85973e-08
0.00223785
0.000215219
1.31718e-05
6.3832e-07
2.89729e-08
1.13505e-09
0.000113758
1.08052e-05
6.51082e-07
3.21597e-08
1.38243e-09
0
5.08403e-06
4.72952e-07
2.86382e-08
1.39698e-09
0
0
2.12356e-07
1.89466e-08
1.1205e-09
0
0
0
8.23638e-09
6.40284e-10
0
0
0
0
2.32831e-10
0
0
0
0
0
0.00677605
0.00153535
0.000121796
6.51543e-06
3.39089e-07
1.63127e-08
0.00160046
0.000164718
1.08574e-05
5.69169e-07
2.82598e-08
1.23691e-09
0.000109965
1.06979e-05
6.88204e-07
3.71365e-08
1.74623e-09
0
5.93846e-06
5.70275e-07
3.68163e-08
1.96451e-09
0
0
2.88754e-07
2.67464e-08
1.67347e-09
0
0
0
1.27766e-08
1.10595e-09
0
0
0
0
4.65661e-10
0
0
0
0
0
0
0
0
0
0
0
0.00058466
6.31396e-05
4.96916e-06
3.12546e-07
1.77388e-08
8.44011e-10
6.3805e-05
6.59395e-06
4.59491e-07
2.70666e-08
1.38243e-09
0
4.55214e-06
4.54325e-07
3.11993e-08
1.74623e-09
0
0
2.6873e-07
2.58151e-08
1.74623e-09
1.45519e-11
0
0
1.38534e-08
1.23691e-09
0
0
0
0
5.67525e-10
0
0
0
0
0
0
0
0
0
0
0
0
0
0
0
0
0
1.90151e-05
2.23212e-06
1.85421e-07
1.27766e-08
7.13044e-10
0
2.18723e-06
2.3334e-07
1.74477e-08
1.06229e-09
0
0
1.6905e-07
1.70694e-08
1.20781e-09
0
0
0
1.06083e-08
9.74978e-10
0
0
0
0
4.94765e-10
0
0
0
0
0
0
0
0
0
0
0
0
0
0
0
0
0
0
0
0
0
0
0
0.452779
0.0105991
0.295705
0.0102775
0.00216127
0.000568213
0.00197194
0.000342642
0.00490782
3.80302
0.00287443
2.31088
66979.8
31.7564
1213.94
66380.3
20.1266
767.959
199956
1234.43
60.59
158407
183253
714.04
24.2797
0.0661965
0.579062
0.0573181
0.527356
0.0490182
0.446518
0.0436674
0.00174622
0.00483492
0.000973734
0.00380845
0.00123477
0.00357686
0.000785144
0.515106
0.00255201
0.0439665
0.0194071
0.430907
0.00176201
0.0333828
124.933
0.485292
0.943402
4.09566
75.0109
0.440024
0.703185
0.203528
0.00545444
0.00199652
0.00104755
0.000180267
0.000380238
3.43938e-05
0.00161221
1.62036
0.000248322
0.302749
64851.7
14.5653
555.053
56053.6
3.11553
119.206
43409.9
483.34
12.6255
110529
2280.82
77.4604
1.01033
0.0275832
0.253413
0.0227321
0.0107587
0.123099
0.00996295
0.000548716
0.00176274
0.000333353
0.000814281
0.000181751
0.000807203
0.000150821
0.228641
0.000735353
0.0154106
0.00231267
0.0649344
0.000226837
0.00464181
51.4702
0.258579
0.419789
1.75111
9.23411
0.0835825
0.221787
0.000847369
0.076485
0.000206369
1.1385e-05
0.0201575
0.000305502
7.63559e-05
0.135559
4.73392e-05
0.00401675
59871.3
1.47728
55.8744
18465.8
0.0534109
2.35318
589.642
31.7814
0.665717
2459.74
4.36389
1.02491
0.411221
0.00808654
0.0448468
0.00430676
0.1026
0.079612
0.0160015
9.70872e-05
0.000411196
6.81276e-05
0.0124628
0.00111738
0.00244299
0.000271416
0.0135543
4.37137e-05
0.000850266
0.00013186
0.00150144
2.70886e-05
9.82862e-05
3.36162
0.0184811
0.0959272
0.0524796
0.318936
0.00246516
0.0124499
0.942702
1240.05
0.24925
0.00373875
389.422
5.76809
0.000562676
0.000813004
1.05233
0.00564399
1808.9
0.0120541
0.499926
5.61461
0.000783925
0.00300067
0.734368
0.346602
0.0520486
0.955627
0.0639713
0.0339079
0.00343958
1.59152
0.833654
0.195536
458.284
5.26293
3.87038
0.0284902
0.0312588
0.00392291
44.2339
0.749462
0.312083
0.0401995
0.000187262
0.000314156
2.41794e-05
0.0434851
0.00188853
0.00255908
0.000128608
0.0199237
0.0001312
0.000681919
0.000146715
0.00061556
9.64489e-06
2.36294e-05
95616.3
1579.77
25.3633
165501
13563.4
346.307
1.93704
348.078
5.41432
0.0394092
265.322
5.27613
0.931466
0.169196
0.0275208
0.00582737
0.000236269
0.299709
0.0225851
0.0162848
0.000931579
449232
2633.95
23.4034
307138
0.0964795
433888
506691
0.0398601
0.00140055
179664
323.479
0.526779
0.010689
0.00138317
6.76594e-05
171091
808.222
0.0140324
0.00112661
6.9609e-05
3.19941e-06
5.51089
0.0288228
0.000876814
6.09849e-05
3.58668e-06
1.804e-07
0.00187705
0.000390576
3.79977e-05
2.77442e-06
1.73604e-07
9.1386e-09
7.79764e-05
1.34962e-05
1.41376e-06
1.10842e-07
7.26141e-09
3.0559e-10
39162.1
43823.2
298331
141077
321145
314107
235117
335561
58520.3
79200.4
432010
203782
373873
467878
263707
370384
165002
452295
115942
408671
320331
173373
436626
20874.8
304721
55261.8
519530
24346.2
113136
96.1957
2469.63
1100.95
7.22234
6629.35
1.16977
12.7834
0.192877
110148
138093
184179
207918
243804
395043
222246
100587
546061
68433.3
4575.44
392449
186078
2770.92
59.27
6526.32
224.598
0.409093
10891.3
0.519635
1.47606
0.17116
232248
158058
23157.8
67581.5
155756
141599
122759
49366
84884.3
42816.6
105093
1494.17
9494.03
2590.35
119.035
875.302
217.814
570.323
1.80747
44.452
6.87969
0.105274
2.41218
0.331469
0.77715
0.0505921
0.262363
0.14424
0.429222
0.244459
0.13366
0.0546184
0.0102437
0.00280563
0.0306371
0.0100877
0.00266728
0.0290357
0.0109836
0.0427787
0.353441
0.155993
0.0900088
0.203668
0.117759
0.0320633
0.00839242
0.0111314
0.00227304
0.0190429
0.00265576
0.0231205
0.00644314
0.000167772
0.000614013
0.000765044
0.00210118
0.000591215
0.00072079
0.000177553
9.27862e-05
0.000550289
0.000271058
0.000542473
0.000506671
0.000252671
9.92364e-05
0.000154845
0.00205289
0.000506895
0.000539891
0.000572666
0.000653406
0.000125966
7.89069e-05
0.000406554
0.000296295
0.000156161
0.000405495
0.000207374
6.03681e-05
0.0669649
0.00641245
0.039659
0.00461769
0.00589914
0.0364588
0.072766
0.733593
7.74899
0.385566
3.51789
7.20416
0.356917
0.793733
0.0558793
0.00358622
0.00356971
0.0223886
0.00482055
0.0300401
0.0420812
0.621825
2.98573
4.92083
0.228873
6.20935
0.297536
0.480283
66484.7
114684
113880
33381.7
57419.9
55310.1
34610.7
603.631
72.7116
219.465
29.6065
67.9252
205.828
644.226
113439
66199.1
112402
31441.8
46177.7
51614.2
28700.7
532.224
25.4263
48.061
145.749
59.3396
180.096
438.185
0.0136953
0.105149
0.0706715
0.0225421
0.0453351
0.00286349
0.00130921
0.0131903
0.00309789
0.0044183
0.000746275
0.00972063
0.00167716
0.00234397
0.000376384
0.00351661
0.000513863
0.00549038
0.00099362
4.64539e-05
0.000293344
0.000362859
0.000667157
8.22886e-05
0.000170143
0.00021351
2.14884e-05
0.000180272
0.000109659
0.000129389
3.81564e-05
0.000103267
6.08881e-05
2.98903e-05
0.000405302
8.42254e-05
9.5456e-05
0.000106126
0.000140637
1.97277e-05
1.1674e-05
5.32593e-05
2.1904e-05
2.11423e-05
4.86028e-05
3.90973e-05
6.58543e-06
0.0170839
0.00227914
0.0144035
0.00107905
0.0282953
0.00133518
0.00859185
0.212515
3.57566
0.151897
1.03721
0.336092
2.37406
0.0956819
0.00917078
0.000450315
0.000305643
0.00202764
0.0006662
0.00439943
0.0043662
0.121081
0.59347
0.782474
0.0250269
1.43673
0.0501779
0.0613962
109086
61566.6
102267
20512.9
39042.3
25051.8
30613.7
240.975
36.0813
109.113
9.63501
335.922
25.0089
75.0262
91796
77827.2
47984.7
15392.1
13975.4
21792.6
10622.8
161.297
5.71737
9.40504
27.8368
16.1134
47.7053
100.091
0.00275519
0.000217418
0.00241124
0.00182419
0.000754033
0.000822764
0.00410653
0.0320103
0.0102366
0.131401
0.247183
0.00957305
0.0270072
0.425437
5.21648e-05
5.32216e-05
6.08238e-05
0.000362041
1.35571e-05
0.000202209
0.000151671
1.03162e-05
7.87157e-06
1.67893e-05
1.68565e-05
3.95603e-06
5.30167e-06
2.81026e-05
0.000608721
0.00253235
0.0354552
0.0059015
0.00248349
0.000822641
0.00876351
0.000123849
5.37813e-05
0.000359874
0.00110995
2.47355e-05
0.000172814
0.00185668
0.000622035
0.000114688
0.000787835
3.92697e-05
0.00178657
3.85692e-05
0.000273303
0.0100303
0.37123
0.0101395
0.0493386
0.0269802
0.149524
0.00372826
0.000179023
1.84664e-05
6.0762e-05
3.52422e-05
1.4997e-05
7.49186e-05
5.55986e-05
0.00309422
0.0159093
0.0136066
0.000286207
0.0497499
0.00104992
0.000786794
38325.4
37975.5
26327.7
3355.09
7672.78
6405.04
3727.71
26.8825
4.85218
14.2276
0.58976
55.7153
2.12801
6.33097
6398.76
15389.7
7121.89
1595.43
488.064
1497.07
625.029
10.5837
0.199267
0.227297
0.642387
0.76872
2.17508
3.40717
72.1779
1.8546
2.90796
11.2095
5.73686
25.0607
34.6176
845.649
128.258
4037.26
3401.22
323.985
368.942
9204.9
1.96098
0.530238
0.0724711
3.28717
0.133259
7.44385
0.835486
0.460352
0.00591638
0.0144698
0.0354103
0.029833
0.0955671
0.181657
28.8758
38.5309
1361.4
108.8
103.388
10.1677
402.239
7.11422
0.464053
23.8957
26.2928
1.56356
2.27891
103.328
0.00306695
0.00101458
0.000147452
0.00617256
0.000177921
0.0176361
0.00107378
0.000517981
0.00300965
7.56371e-05
0.000156086
0.000192098
0.000583335
0.000164371
0.0585372
0.0852199
5.03911
0.195553
0.30933
0.0153877
1.03274
0.0104473
0.000426703
0.0364047
0.0346995
0.0017371
0.00247634
0.202415
393.481
676.028
2477.77
46.36
126.408
193.921
25.0559
0.168031
0.053867
0.149253
0.00192564
0.861482
0.00954701
0.0262255
57.8479
15.4085
130.389
7.62311
0.328761
3.36998
0.801976
0.0225579
0.000285333
0.00551467
0.000362146
0.00146721
0.00319195
0.00277343
30860.8
81108.5
34614.4
12620.3
3552.18
13523.3
2759.31
75.8207
742.737
200.825
24.9981
12.7338
54.6763
4.87297
174461
55191.4
83185.4
249738
134103
296832
498021
193175
426520
216552
448413
303194
8499.97
342381
134144
177165
52826.3
38698.5
45865.9
40281.2
113991
115804
-8231.39
64317.2
66377.6
-9249.49
120589
50067.5
128953
-4982.65
80717
71312.7
1253.05
139960
68530.3
151931
21506.3
94115.9
10189.2
110958
162022
167594
88926.2
34344.2
152891
130689
48811.7
149039
93224.6
88596
88017.2
178822
66689
210184
101594
394726
455055
303948
401234
245999
138066
68240.3
73144.4
50408.3
110674
229897
235584
128754
5780.94
8865.94
26740.7
81475.4
169669
122805
73407.6
940.505
284.598
2037.38
28752.8
1569.52
14483.5
5001.39
145127
46808.5
74988
80436.9
27259.7
11167.5
104996
226063
158689
373863
117500
310544
275500
211790
109322
141106
187195
52339.8
87848.7
141073
155828
153717
128569
231220
159168
126801
251832
231941
539447
196530
344754
219461
433317
130022
17734.7
73677.6
27839.6
135245
166299
133795
220392
1114.36
9065.54
2933.17
53916.6
37296.5
80436.6
15404
32.3199
767.033
140.54
542.15
12163.4
2742.76
3451.1
226885
520886
341660
548208
190390
587996
293026
189692
409821
428478
24232.9
607643
143136
80639.5
176744
112335
134628
116634
131274
140873
155195
0.075598
6.09222
132474
0.0524621
0.143996
0.034004
1.87801
0.431706
19.9472
14725.3
2930.52
67797
103094
104286
85914.6
73601.5
0.145245
0.064932
0.00850724
0.0821166
0.020506
0.0165696
0.0366825
0.0301315
0.00464131
0.00948415
0.0137296
0.00998878
0.0376866
0.00322364
0.0270721
0.0192114
0.0987882
0.200376
3.0252
0.721685
0.256717
0.0922032
1.21391
176.062
35.2643
8.20206
205.905
15.2904
361.711
90.0889
1794.48
1902.85
22098.2
7826.48
3155.75
907.359
16076.5
85223.7
27112.7
13715.7
63571.4
-6747.37
785.634
50370
143469
118733
61853.4
130525
84932.7
130381
155058
0.000136578
0.0018481
0.0325039
0.00153789
0.000194724
9.39412e-05
1.22871e-05
1999.49
6.13078
189.75
2302.43
13.5206
658.644
0.962045
2.32056
0.803117
0.14688
29.1291
0.939839
0.382411
0.064714
0.00978638
0.0113042
0.000571903
0.130093
0.0100076
0.00674275
0.000667379
2.50701e-05
2.52064e-05
2.27553e-06
0.000741664
4.83481e-05
4.90555e-05
7.50691e-06
53023.8
668.3
39432.9
323.408
226027
19533.2
0.777271
65400.9
0.564156
1625.55
62.4553
0.801228
1.15685
0.190699
24.7285
0.0157142
0.23072
0.224879
0.019781
0.0171713
0.00153864
0.0215553
0.00152368
0.000132414
0.00178179
0.000121622
0.000131215
2.00344e-05
6370.42
10770.8
806.425
1131
10029.5
755.145
6783.47
5607.72
972.723
6945.51
531.601
8664.85
658.151
4608.78
2552.64
5197.23
397.011
366.857
3542.88
3632.44
274.381
1721.94
220.524
1356.9
102.238
2335.27
174.653
1074.72
304.288
698.033
54.2736
22.9209
604.364
306.861
25.2728
130.662
7.66845
33.8103
3.31241
112.45
9.79489
45.6302
2.70215
8.20454
0.787994
0.105747
12.5885
1.49878
0.166566
0.388646
0.012093
0.0197389
0.00195518
0.19053
0.0201926
0.0383837
5014.35
15975.4
438.047
1888.67
4615.15
20073.9
453.682
1134.05
305.291
110.235
18.8949
1243.44
233.977
96.7674
8.91848
70.1017
1.10801
3.42571
15.8701
45.662
0.681453
1.71324
0.711773
0.219273
0.0267476
3.49804
0.305781
0.11743
0.380596
0.192545
1.6929
0.0119882
0.0234612
0.086017
0.00390635
0.00644266
0.117722
0.000740399
0.00355861
0.0151189
0.0443459
0.000767524
0.000753154
0.00146088
0.000215098
7.21552e-05
0.00417523
0.000338817
0.000109347
0.00182199
0.0290837
0.175622
22.5844
0.164858
0.169149
0.0102304
210990
128266
1982.57
267215
266927
276072
287704
275658
1.02347
14584.9
338319
68457.3
12914
282.699
240.999
0.120823
4.36465
1520.67
35.1081
4.91939
0.354021
0.25125
0.0183292
0.00117764
2.22118
0.0762175
0.0331334
0.00536061
742.295
88451
1323.25
280.174
10964.7
3791.64
68.3652
6.34522
3.31825
32.5282
52.4301
96.7488
596.298
5.78191
100117
14541.5
71860.9
5103.23
42321.4
7001.39
58222.4
54466.5
123054
32988.6
91137.7
55309.5
130217
97867.6
4.21077
0.564111
0.159262
60.9578
1.91671
0.397421
0.113871
1.05281
0.221693
0.0655379
5.39424
0.393128
0.112679
0.0224775
0.110313
0.0332253
0.00608183
0.110972
0.0185611
0.0058061
0.00118284
0.00272536
0.000686562
0.000125889
0.00133843
0.000190863
4.84133e-05
1.35366e-05
1.01122e-05
2.38813e-06
7.03498e-07
4.7886e-06
8.72344e-07
6.33852e-07
1.62778e-07
0.0404273
0.00207922
0.010932
0.000701357
0.00304313
0.000157877
0.00111476
5.83278e-05
0.00103794
4.77891e-05
0.401731
0.152536
0.0331676
0.017734
0.021801
0.662184
0.00460259
0.000265294
1.32163e-05
0.0123906
0.000587554
2.90743e-05
1.33914e-06
0.00883221
0.000605522
3.5195e-05
1.84549e-06
8.69768e-08
0.000323396
2.67036e-05
1.70697e-06
9.35688e-08
4.39468e-09
1.2048e-05
1.04561e-06
7.01693e-08
3.95812e-09
1.01863e-10
308535
246052
406379
384257
245488
388656
475004
221816
136272
294522
280884
324828
179467
276588
469384
5006.56
262925
185499
181952
234502
442095
331371
145.853
391922
772736
43.6096
375979
383589
259736
269308
488462
333335
422.42
0.187714
371611
805181
455497
0.140926
352296
527602
41612.5
764.14
63.608
0.0102583
379806
655465
142856
11.2378
0.00242412
185357
5542.02
1.32054
0.028212
0.00130078
310093
83076.8
0.0124858
0.00562464
0.000293936
0.817932
0.0199838
0.00210823
9.08492e-05
1489.4
8.4002
0.00706165
0.000415368
2.07798e-05
0.108974
0.00400118
0.000354351
2.32355e-05
1.24663e-06
206120
227598
344258
227784
233093
251549
376769
251774
260470
203927
225440
170048
246219
194404
222849
241441
307505
239483
315302
209780
342436
279699
242391
344718
336541
322556
370332
311554
438127
633945
372834
432981
648616
856758
480594
549093
349403
316386
453816
311626
480031
317545
308236
305020
367457
247517
440187
697558
351299
487346
678125
739307
524626
701566
747565
541410
668933
551078
3583.65
687171
412845
303580
237767
427734
485075
505888
672302
678863
147622
201847
359009
233711
227951
241175
399655
267512
276558
354365
545784
342158
356205
281606
284830
303033
390600
411067
429136
401386
390905
438510
592530
615160
668121
509573
245046
465786
349865
430290
323632
499507
406848
565944
647466
206036
1204.91
502289
252540
156.758
529981
72584.2
118.57
0.719738
10907.2
0.460761
232375
199679
206945
211747
212318
217562
228283
218190
266797
233932
240448
234174
239731
247804
259976
273916
240517
257178
268709
246049
254994
286764
209220
215254
234435
262975
248560
7273.9
182742
193788
78367
181324
71347.1
12061.8
242007
259980
259919
282432
308360
282123
258745
284317
25179.1
210011
87664.7
229327
18124.8
229859
99151
311691
357592
328648
325792
336507
297990
368288
296793
366245
328136
316046
278068
309190
353113
275416
318458
351887
357757
401297
438604
395233
398535
359940
395968
441271
373902
401064
404903
409674
404058
431681
480801
439284
484475
518673
439083
465768
540327
304921
384092
337721
282900
364292
327750
419996
410022
372961
78049.8
313889
159916
349087
58547
353637
196576
445644
523416
473211
304507
306290
266942
351795
264101
354552
304156
293626
272259
301760
284920
331067
349551
397977
486136
366124
414162
339479
401452
463617
351730
394748
400044
398722
408657
448703
518493
493681
439489
563283
445617
581770
500310
557232
458684
581981
614101
484999
521848
674541
629777
669569
749026
678517
701999
594177
735079
716604
554379
602862
641186
636541
665150
681710
724886
706329
704287
621653
738212
704948
585074
259044
339932
291016
290906
266477
377794
354985
320320
444268
540490
482964
434975
580239
490998
637783
641142
560048
684498
638034
702790
80476.6
117121
32897.7
160380
15993.5
128113
104041
289609
4842.16
167867
65745.4
176475
174694
67803
3477.1
33166.2
252848
280881
133404
253129
113772
43564.7
347834
247039
351416
265061
367482
253392
386080
744414
280125
341648
433860
756213
295265
355897
754764
329755
457738
678675
606704
385268
510470
426863
325887
423972
473231
382164
471655
380295
447413
693589
348376
387959
750977
807235
438986
464516
480690
738246
3392.36
521371
42585.4
335451
422674
782530
202401
262745
628763
508383
179035
852697
592062
257616
4826.9
312547
883.244
243.161
416136
4427.08
242.901
0.323418
8977.49
1.26107
272573
287676
288600
304209
292778
311461
326420
313664
345519
370164
317548
339426
381061
352504
421241
300280
410460
417180
419194
332010
584760
0.101847
21.7032
0.178642
0.145383
0.0126778
0.173934
0.0121035
232010
191301
46.8851
0.0194224
0.00156588
180829
56297.3
145629
131202
126402
182117
145268
77617.3
166841
69345.7
155363
153162
233906
132536
256193
115962
257617
225891
226870
236838
225330
215175
239943
189419
2025.75
207614
0.343366
0.0170428
0.00163569
9.61934e-05
5.13617e-06
11.9747
0.00478565
0.000659234
6.38156e-05
4.44574e-06
2.57511e-07
0.0107946
0.00169911
0.000193331
1.67744e-05
1.13642e-06
6.28497e-08
0.000205082
2.61858e-05
2.49638e-06
1.83878e-07
1.09576e-08
0.000394011
7.07644e-05
7.82342e-06
6.76504e-07
4.70172e-08
2.60479e-09
86288.5
105149
76248.5
95992.5
120911
215104
127680
147477
219847
144537
104184
120205
143819
131077
128790
88418.8
171371
171377
241981
153587
232912
310791
201113
128340
171820
201785
212394
191342
173621
239830
271225
223444
192502
270930
151257
132724
157094
85037.8
94078.1
180816
165619
195203
138191
155842
264182
252891
293979
220649
246110
240339
90914.7
105724
84779.9
111314
111672
90623
85246.2
74715.6
79655.5
74387.3
80016.5
94001.5
114562
121314
99361.8
114936
93551.3
99778.9
158092
128108
152509
133656
134031
158092
152764
183684
179177
184529
178645
162456
137582
144651
170648
137675
162870
170226
188720
198503
189850
197437
84168.1
110553
90091.6
79190.3
73970.6
113823
98758.8
92950.6
178264
183538
136812
170183
162218
198260
189290
94805.4
85606.5
85994.9
94515.9
116270
128917
106153
139728
106459
139772
116064
106459
121180
106379
120628
128889
154050
170747
144854
153614
129059
144202
194467
153455
180875
165841
180357
165656
194914
225410
210109
209255
226106
212150
181688
200562
234727
181193
212888
233564
245739
271041
247062
269624
105618
139405
115649
121200
106096
154039
145103
128880
210264
226404
181807
236275
213405
273880
247381
154478
137898
136644
156262
181428
190394
162771
213983
161711
212284
182979
174678
201242
177141
198143
204233
240221
268262
234229
237744
206460
231080
285663
222402
259221
248744
258244
247207
287599
163517
216006
183555
195772
174520
242143
229892
205278
259765
229196
226397
259390
123744
70564.6
90420.3
62634.4
135881
77649.8
97663.7
220322
133823
218162
159396
235784
149505
222786
142457
70723.8
132784
100107
189732
92314
173221
249206
156960
264133
223837
369338
242690
289968
214428
120877
216703
177155
334608
160371
248809
274554
471273
243253
344870
407082
346159
319950
483530
161453
227682
46606.4
8.10589
4.12006
0.0483012
0.0195926
0.00364991
0.00184265
139833
29398.2
44736.8
65401.7
92648.3
36531.5
-8626.88
-4994.83
21032.5
-28762.6
-24623.8
13864.9
54772.6
-782.773
4957.66
29360.4
-13505.9
-19566.4
39118.4
236143
245349
218855
80882.5
136948
46027.5
72025.8
-7029.45
61359.5
92283.4
3115.73
101965
67227.4
49145.5
66473.2
116089
187593
49280.1
61678.2
61354.5
66991.6
99851.7
99828
115848
171854
167444
190634
164533
239012
203058
194642
158592
194705
65881.7
54366.3
71493
74582.9
132494
206159
250609
159414
265604
71890.9
49299.4
66248
54423.1
54393.7
71734.6
66498.3
56900.7
61939.4
57043.7
56658.3
67379
75024.6
75342.2
85805.5
99411.3
86008.7
85476.9
114520
132946
130900
151508
169309
148897
149210
155079
164475
138421
181946
139048
185132
151333
168965
195341
223306
166258
203810
161127
183122
193374
217941
220090
134085
171880
143427
179607
159846
147899
34335.1
33822.7
41272.3
45250.9
33828.7
45063.7
51999.8
50183.8
69790.6
80515
49802.2
80530.3
96105
96038.8
147977
146154
96329.7
142514
23815.1
33669.9
19894.1
38562.3
38374.6
24059.6
19604.3
26074.2
40919.3
45378.2
30264
40887.4
26241.4
30198.4
20020.8
38633.6
24187.4
40780.5
30216.1
26207.1
41826.4
50484.2
34988.1
57461.8
35144.8
57752.4
41623.6
50758.7
67246.3
80209.9
62891.2
67520.1
50519.8
62696.3
34800
57095.8
41390
66926.9
62989.8
50285.5
91667.2
94779.3
77916.7
112263
76789.9
110281
93603.6
106927
128797
144553
123660
126674
108844
122632
78444.3
112056
93842.8
127066
121236
107826
91437.7
23073.1
-15432.2
63705.1
-22809
49409.2
33569.1
105181
232570
156516
81729.4
106207
200394
147613
265107
244184
203997
140780
187094
228645
358259
119604
93297.8
106536
129987
144746
115836
129334
137158
140376
122334
182878
162813
146377
166778
59116.9
59893
61868.6
78626.5
80650.9
82252.7
76173.7
198376
246861
264762
238983
220465
150726
163757
38839.5
38410.2
33770.6
23670.2
19554
23756.6
19435.4
93328
102439
114089
86677.2
98982.6
107875
120273
122338
144103
127280
130301
113358
135044
153152
178342
161090
185526
205023
190370
229418
217612
65966.4
71656.3
68831.2
82147.7
91823.9
86124.8
88411.3
74634.6
52105
56301.5
53832.3
57456.4
76277.3
72920.9
40923.4
46500.5
45755.8
25890
30840.8
25944.5
30330.9
162158
163932
187231
149557
171822
174449
199413
74643.6
88423.2
84704.3
104874
97742
94299.2
108917
117691
195011
189463
295375
289823
248255
430471
95545.6
115172
109533
115943
136688
120916
130676
99388.2
102072
118685
125759
103605
121287
97112.5
59083
60529.7
64972.3
66706.6
83845.2
79509.6
85869.9
233811
249697
215248
282795
255821
249840
285707
68647.8
73362.6
72410
50714.4
55366.5
54669.1
49700.4
184767
164734
167922
201748
207584
190025
185016
156222
197110
170969
165481
139977
154825
182984
206933
273951
244983
254232
375375
238831
171700
125707
153135
145126
169679
155355
148107
177944
51080.2
59853.7
58585.1
43426.3
42426.4
36165.6
35494
215058
209108
189271
174654
235098
207128
199099
94464.5
111508
115728
96547.6
114686
118113
93300.3
102925
129553
113362
131841
107391
124823
109480
68499.8
82134.4
80902.6
64368
52677
63254.2
51544.9
215640
248588
215166
229110
198203
229887
266646
75232.1
58025.1
57327.4
63587.3
62558.7
82176.9
80865.3
72450.9
81846.3
79615.2
89817.5
99420.5
101809
91783.3
124490
160974
136624
154114
130449
143557
169064
171333
153518
175438
155687
158406
179560
175365
124712
163503
235396
384544
277322
418866
380837
90021.4
105672
103028
123929
110216
112539
126586
110041
94955.8
111340
92272.1
77797.2
91213.2
76803.4
177545
169614
150851
160005
216983
189377
181502
229229
262234
225747
249415
248079
254171
285413
136456
155290
104748
131863
210685
188283
229952
192340
181659
175364
221599
215939
199166
207537
167984
167741
140840
148506
171948
144123
163697
126057
119070
104194
99867.4
128573
121512
106493
126643
119372
138133
155152
115437
131113
150307
117727
138888
134689
139561
158197
162839
142862
167929
204908
194797
195510
236545
204765
226517
262778
192247
219255
249093
207023
236699
284026
288766
304349
325623
298689
323036
277153
338233
88068.7
92875.7
91650
108930
106963
113940
112587
138556
169766
161169
182050
143985
163723
154550
158389
187217
180969
169899
164726
187085
193912
68196.8
77889.9
76423.3
95997.7
88245.6
86959.4
97546.5
144866
126372
128382
125614
122985
108064
106429
289097
289030
343849
265617
313546
311486
358715
352009
364049
291029
270294
284421
268758
246328
279491
248868
266252
284696
317894
304920
316040
171898
152437
183725
155409
176221
147784
180390
245490
233565
198390
181966
204586
173924
207543
224200
252325
230539
213796
232324
239339
207398
94755.2
124057
117223
102318
122430
115804
100795
157309
138428
162667
164978
136977
140906
160199
222641
192310
213408
231385
220097
246314
244379
87074.8
101363
100138
107429
122319
108665
121236
110461
144176
120842
123368
135045
112611
146772
178621
185770
154788
209109
181116
187407
217149
304950
293597
252346
272440
360175
322136
314728
272802
262161
226686
306154
273938
263425
320785
214959
192418
197488
201868
219964
225877
196592
238801
269929
241649
230256
250981
273482
289198
197073
187391
216686
178921
197428
205521
229326
130964
114817
132291
154707
137843
136968
155660
141892
174753
166320
168683
152111
144408
177249
156824
147088
132338
134809
176515
159537
149932
198217
171111
166505
168041
145506
141346
160933
243562
259182
238112
224564
259160
250510
233909
214314
219988
212638
193406
190293
196200
187409
284059
316388
269847
228139
276518
238408
264746
111053
257563
160695
264328
325198
199743
299632
159533
154931
129266
136557
160884
135140
153453
204240
192531
162456
181102
188702
209210
176129
117409
108781
129767
142292
107453
118933
140790
224060
192470
164143
185167
190664
197173
167913
258707
126593
253448
151325
132500
248326
270284
229226
211974
204343
210832
247758
236637
219776
286991
208465
245144
260383
224360
264201
305500
286996
214380
291951
189137
281636
150732
255865
143575
156776
183213
229217
159949
193208
206070
192223
171513
130853
223740
158982
385093
248701
138541
167115
128357
165547
184107
168610
169504
266330
301671
335187
150140
210228
313064
238090
170044
148975
151147
199637
203337
175175
177017
252925
208027
216827
244163
286273
296066
253704
364418
358979
324770
340374
387903
346817
362734
163222
140016
172770
145779
164552
138549
171102
226953
225154
234840
197696
208924
201111
206809
415831
347196
405269
379839
361119
379941
349667
337162
322602
382497
298225
329973
333301
340049
186464
412601
209124
158427
276512
286084
387258
129687
155278
145484
170848
130798
154223
144704
210460
216484
209045
182007
188678
190748
184472
183325
169701
197713
200401
159215
185497
172360
265774
251649
223429
198704
213947
231781
191804
290957
245608
303023
258870
211861
219311
254720
254675
274795
247553
262340
262304
273889
297546
274505
260922
267174
292934
295750
296027
291568
149823
148335
343014
284218
402275
320739
443291
366491
318795