/*--------------------------------*- C++ -*----------------------------------*\
  =========                 |
  \\      /  F ield         | OpenFOAM: The Open Source CFD Toolbox
   \\    /   O peration     | Website:  https://openfoam.org
    \\  /    A nd           | Version:  9
     \\/     M anipulation  |
\*---------------------------------------------------------------------------*/
FoamFile
{
    format      ascii;
    class       volScalarField;
    location    "0.0004";
    object      alpha.c4;
}
// * * * * * * * * * * * * * * * * * * * * * * * * * * * * * * * * * * * * * //

dimensions      [0 0 0 0 0 0 0];

internalField   nonuniform List<scalar> 
2645
(
4.84187e-11
8.42871e-05
5.28605e-13
3.9977e-10
1.50463e-05
7.92832e-10
1.00944e-09
7.88558e-13
1.92402e-07
1.54412e-05
0.000575338
0.000480774
1.21269e-05
1.12981e-05
1.41944e-07
0.000274146
1.1833e-06
5.55534e-06
9.65682e-07
4.85838e-06
5.74067e-08
1.07355e-08
1.20437e-11
1.78563e-11
1.18172e-09
1.4486e-07
1.92166e-09
1.02143e-07
1.34771e-09
1.3803e-09
1.39598e-11
1.968e-11
1.98644e-09
1.56658e-07
1.18652e-07
1.43281e-09
2.79599e-10
4.21504e-12
9.1447e-13
6.91617e-09
3.90008e-08
4.99358e-10
8.76159e-11
7.70895e-11
1.25789e-12
5.23344e-12
9.90866e-09
5.00734e-08
5.523e-10
1.01442e-10
6.42839e-08
1.33657e-06
0.00127518
0.0196051
0.057514
3.69223e-05
0.00506613
1.69046e-06
0.0428185
0.0476245
0.0359411
0.00623184
0.0118411
0.00797817
0.00909903
0.0144277
0.0341518
0.0257519
0.00386811
0.00258278
0.00168762
0.0056991
0.0201369
0.00434357
0.0172381
0.00227266
0.000417718
0.00284661
0.000328696
0.0062192
0.00286782
0.0120382
0.0013552
4.61026e-05
0.000170438
0.00051731
0.00123739
1.4939e-05
0.000700643
0.000484884
2.0471e-05
8.57496e-06
0.000850382
0.000232977
5.44079e-07
0.000126231
7.16813e-06
3.01343e-06
6.34082e-05
0.000425842
0.000149225
5.99646e-08
7.72954e-06
0.000103496
3.94989e-08
1.0404e-06
5.38868e-06
3.63157e-07
2.39268e-09
1.40692e-08
4.48139e-05
3.88899e-07
2.11861e-06
9.83163e-06
9.19621e-13
7.17592e-13
7.65226e-13
8.9554e-13
6.30724e-13
2.04268e-11
1.4318e-11
5.55277e-13
5.48895e-13
5.25642e-13
5.18877e-13
5.2628e-13
3.69712e-12
1.07614e-12
2.03413e-14
2.52276e-15
1.50624e-13
1.49446e-08
1.96229e-15
3.12716e-13
2.81686e-13
5.63158e-07
2.81463e-14
7.05288e-12
1.0878e-05
1.13606e-07
8.62401e-08
5.48852e-09
3.90384e-09
9.44899e-10
4.35524e-11
5.18212e-15
3.9033e-13
1.94544e-12
2.95692e-14
8.26305e-15
1.11238e-15
8.3436e-16
2.58359e-10
2.02383e-12
3.06695e-12
1.60168e-13
1.52942e-10
1.03539e-10
1.35132e-12
8.26967e-06
4.04375e-10
9.23937e-07
0.0217391
0.00775883
1.57781e-06
1.28838e-11
1.8633e-07
6.21309e-11
0.0166511
0.00489726
0.00352295
0.00247085
0.0034699
0.000278529
0.000468276
3.64234e-06
2.93289e-13
1.01297e-12
2.79107e-12
2.65213e-13
3.68705e-13
6.95863e-15
0.00172211
0.000156623
9.58116e-05
0.000867554
0.0012655
5.78134e-05
2.37869e-06
1.66082e-10
6.56587e-12
5.19138e-06
5.66036e-07
2.42472e-10
1.20873e-07
0.000404278
0.00794545
0.00558208
0.00205845
0.00135573
0.000732995
0.000439255
5.04094e-05
0.000101636
3.20425e-05
0.00209448
0.000318188
5.23713e-06
9.99267e-05
7.18536e-06
2.49265e-07
1.89349e-05
0.000351113
0.000584888
7.93215e-06
1.96616e-07
7.89744e-08
1.79565e-05
0.00014211
3.60039e-06
0.000251312
4.59035e-06
7.18325e-08
2.9789e-08
1.03758e-05
0.000160863
0.00029216
1.21673e-05
8.76036e-08
3.46457e-08
1.92733e-06
4.64515e-06
0.000130082
1.74715e-06
3.17347e-08
2.00448e-06
1.8047e-08
3.31476e-08
3.24425e-10
5.80172e-09
2.27501e-09
4.86214e-08
1.76137e-05
7.72643e-06
4.03568e-07
1.00845e-06
2.70969e-08
3.14173e-06
7.51549e-05
9.05384e-07
2.48717e-10
8.06686e-09
2.69262e-08
6.24578e-09
2.6161e-05
1.0273e-06
5.32802e-07
1.06833e-10
3.24156e-09
1.65959e-08
2.8046e-05
1.04013e-06
1.69144e-08
3.49522e-09
1.10287e-10
2.05537e-07
6.44341e-09
5.37489e-09
1.95063e-10
8.74943e-12
3.33388e-08
9.5213e-07
4.39163e-08
1.46381e-09
4.28909e-08
4.67348e-12
4.12522e-10
4.33196e-12
4.03624e-10
4.61896e-12
2.79918e-13
6.0817e-08
1.55046e-09
1.00177e-09
5.99611e-12
4.04166e-10
6.17317e-10
1.49139e-07
6.4243e-11
3.70053e-12
1.68862e-12
5.39586e-10
2.09404e-10
1.13773e-08
2.89533e-08
5.83317e-16
3.09175e-14
2.62361e-16
2.62984e-16
6.10191e-16
2.37891e-16
2.73583e-16
3.76278e-12
2.54219e-11
5.77941e-10
1.50704e-13
8.79276e-14
7.16645e-12
4.15797e-13
5.15531e-13
2.48123e-13
1.56679e-13
9.29491e-10
4.53226e-11
8.68727e-12
6.21439e-13
8.99888e-13
4.18654e-11
3.9002e-13
2.71672e-12
1.98651e-12
6.37053e-09
2.00571e-10
2.67802e-12
2.02371e-12
7.61586e-11
1.19001e-08
2.34379e-10
1.38335e-10
3.7415e-12
9.18786e-13
1.03447e-10
2.16774e-12
1.50661e-08
1.55494e-10
2.57635e-10
3.81607e-12
2.49074e-13
2.07133e-11
1.08396e-13
3.76503e-13
9.08265e-13
3.8344e-11
1.16748e-09
3.59865e-13
2.10395e-12
6.89435e-13
3.56703e-13
3.9416e-13
3.76789e-13
3.49633e-13
1.91302e-12
6.37262e-12
8.13991e-12
1.9321e-12
1.97693e-12
1.8691e-12
1.89081e-12
3.24615e-13
2.9069e-13
3.01566e-13
3.01204e-13
3.20312e-13
2.57413e-12
3.24067e-13
2.90758e-13
2.86714e-13
2.62461e-13
2.65709e-13
2.71262e-13
2.56251e-12
2.97253e-13
0.497122
0.427203
0.583129
0.509725
0.43359
0.346991
0.514894
0.448225
0.518345
0.478491
0.545046
0.488767
0.537358
0.52587
0.469784
0.542611
0.567939
0.560993
0.575939
0.560688
0.556285
0.549609
0.518353
0.495758
0.539415
0.502403
0.488164
0.532608
0.525402
0.522966
0.553688
0.503563
0.499692
0.540694
0.536692
0.487626
0.572806
0.579693
0.577416
0.58242
0.576702
0.579025
0.573548
0.567625
0.574639
0.567027
0.559736
0.558074
0.574266
0.568528
0.565336
0.570019
0.560108
0.555511
0.569565
0.55386
0.566297
0.570849
0.580371
0.571792
0.569293
0.575033
0.577459
0.562454
0.498513
0.468018
0.414551
0.481126
0.516717
0.463917
0.449868
0.498889
0.483158
0.435142
0.477249
0.469886
0.51287
0.464703
0.493433
0.454481
0.472069
0.418818
0.464135
0.501325
0.445475
0.47458
0.398983
0.387217
0.406055
0.446392
0.43946
0.426565
0.58484
0.462174
0.516331
0.549643
0.489216
0.519748
0.454763
0.492431
0.43985
0.390632
0.443569
0.386661
0.0903448
0.019735
0.0846485
0.0259779
0.558103
0.562795
0.57978
0.577383
0.552839
0.572104
0.557752
0.535165
0.552303
0.512308
0.508763
0.539028
0.505599
0.541698
0.547146
0.574506
0.536026
0.543084
0.561932
0.529948
0.553505
0.539331
0.56957
0.505007
0.517495
0.543371
0.555047
0.503739
0.579226
0.579341
0.585335
0.584137
0.578648
0.584594
0.579981
0.572
0.571989
0.56211
0.563725
0.571333
0.56292
0.572764
0.577441
0.583535
0.579111
0.574491
0.582779
0.573774
0.57821
0.577148
0.581986
0.571858
0.577813
0.576521
0.582449
0.572533
0.570219
0.554157
0.560605
0.564502
0.569746
0.561409
0.565322
0.575953
0.563947
0.577559
0.576481
0.58086
0.571961
0.57019
0.570592
0.556151
0.562386
0.567733
0.561357
0.566811
0.571145
0.539013
0.539366
0.551468
0.553024
0.552166
0.537841
0.540476
0.560212
0.567558
0.57408
0.569816
0.56892
0.566638
0.561726
0.548376
0.555136
0.564422
0.569665
0.564911
0.547352
0.555585
0.529244
0.524975
0.508448
0.481254
0.543272
0.512492
0.496008
0.361301
0.447648
0.462552
0.377268
0.449344
0.355483
0.380065
0.525529
0.50347
0.515792
0.483276
0.4973
0.509869
0.531539
0.516638
0.489293
0.483191
0.456091
0.519302
0.487713
0.482934
0.508074
0.46768
0.450982
0.463349
0.48071
0.493018
0.476505
0.358631
0.456527
0.432261
0.364308
0.444271
0.376062
0.348027
0.331258
0.424369
0.398531
0.267178
0.428352
0.320082
0.285825
0.219272
0.242812
0.0658839
0.0945876
0.20955
0.247936
0.0724379
0.330165
0.39584
0.413531
0.279011
0.42432
0.287017
0.320862
0.21894
0.233008
0.0934277
0.0675224
0.245301
0.209029
0.0732315
0.177965
0.105258
0.0408328
0.0258421
0.162006
0.124464
0.0483626
0.18008
0.122407
0.0278066
0.0466655
0.12849
0.17193
0.0501618
0.28504
0.263686
0.0660728
0.00173053
8.52883e-07
0.00116902
0.399203
0.30845
0.47495
0.353735
0.286435
0.115493
0.411448
0.28934
0.420005
0.46184
0.438128
0.46739
0.45444
0.431164
0.426887
0.398946
0.449795
0.3955
0.358893
0.437504
0.412216
0.33517
0.480882
0.270539
0.0105554
0.153558
0.262882
0.210666
0.00804256
0.35645
0.457788
0.33989
0.419841
0.307853
0.410981
0.295511
0.000503499
0.00131311
0.423581
0.368859
0.287583
0.0653341
0.0201438
0.00528427
0.435061
0.443206
0.47773
0.473342
0.436347
0.471054
0.440993
0.362326
0.0982323
0.173226
0.440229
0.295497
0.395708
0.234564
0.0818031
0.234932
0.342842
0.386625
0.16224
0.302168
0.0273891
0.0864412
0.34524
0.0861701
0.0070499
2.05796e-05
0.010793
0.0018728
0.429875
0.470323
0.424613
0.452317
0.464295
0.420038
0.435106
0.419829
0.455638
0.372113
0.423796
0.418639
0.45525
0.380312
0.0305426
0.198429
0.101561
0.000397964
1.8468e-05
0.00447477
0.000247931
0.412821
0.395981
0.341674
0.385412
0.325809
0.303387
0.287544
0.415883
0.439206
0.420165
0.370332
0.449902
0.406979
0.37833
0.287596
0.191778
0.206462
0.015791
0.00854961
0.000367449
0.000330852
0.345521
0.35877
0.346168
0.404673
0.396902
0.396264
0.402899
0.409797
0.419185
0.435356
0.405798
0.415347
0.388181
0.391839
0.398792
0.367599
0.440284
0.390821
0.433121
0.407411
0.354785
0.330603
0.350571
0.340984
0.39198
0.388299
0.382993
0.397768
0.379313
0.379745
0.372301
0.339069
0.327497
0.318432
0.330437
0.0131623
0.185694
0.215528
0.00121075
0.0140249
2.67788e-06
0.000242936
0.339697
0.400091
0.391775
0.341239
0.323554
0.380149
0.389717
0.339411
0.353775
0.191159
0.284194
0.217014
0.129917
0.106332
1.87285e-05
0.0484952
0.00142307
0.152901
0.000389991
0.326378
0.00834723
0.302681
0.371738
0.215399
0.20071
0.300534
0.37489
0.313459
0.395218
0.338594
0.256501
0.367441
0.299178
0.258994
0.213438
0.423738
0.353863
0.372512
0.393104
0.404584
0.373222
0.324755
0.204425
0.280527
0.355962
0.36752
0.362804
0.413106
0.30833
0.305422
0.208108
0.216393
0.371953
0.30531
0.363524
0.313128
0.354556
0.275407
0.343201
0.150228
0.239734
0.223984
0.137885
0.35856
0.291991
0.350389
0.203641
0.28972
0.279423
0.193147
0.353128
0.279178
0.214283
0.286315
0.221244
0.135675
0.130893
0.0284017
0.196352
0.121676
0.00512106
7.97507e-05
0.000173484
5.24594e-06
0.281354
0.249685
0.214702
0.352537
0.322179
0.367596
0.299339
0.362787
0.246986
0.141237
0.177325
0.280506
0.261739
0.344183
5.97344e-05
0.0833214
0.0363303
0.00406883
0.0426687
0.268084
0.311707
0.204689
0.0529129
0.182894
0.0399542
0.155646
0.137564
0.0326586
0.368365
0.396559
0.392942
0.364262
0.335214
0.324432
0.369624
0.282088
0.322667
0.312533
0.374249
0.368981
0.348773
0.35526
0.351355
0.367762
0.360516
0.302633
0.292003
0.275153
0.316001
0.292998
0.236507
0.321689
0.163864
0.129781
0.0819269
0.0576108
0.26778
0.135688
0.247053
0.234301
0.145969
0.121622
0.255148
0.26751
0.29173
0.269121
0.154184
0.188773
0.157435
0.182342
0.260067
0.26588
0.235435
0.180371
0.147579
0.120059
0.154044
0.246646
0.278873
0.26115
0.145917
0.150348
0.129138
0.170074
0.337704
0.334252
0.378896
0.340871
0.198983
0.274807
0.285092
0.288073
0.250968
0.322673
0.194224
0.0799406
0.149567
0.113545
0.103254
0.0366652
0.148363
0.108223
0.0118413
0.0718069
0.0221299
0.273845
0.143186
0.184732
0.285099
0.347905
0.3211
0.246845
0.257926
0.291005
0.191724
0.150069
0.21731
0.113235
0.0819951
0.183354
0.0468151
0.0887231
0.202513
0.133508
0.298651
0.228876
0.0785594
0.135809
0.230633
0.0426858
0.0808165
0.0320101
0.0155869
0.311646
0.271163
0.336086
0.258959
0.131425
0.169698
0.222862
0.0259486
2.3001e-06
0.0260442
9.10869e-06
1.09247e-05
1.30626e-09
1.26368e-09
0.0394194
0.0175128
0.0924601
0.0807514
0.00434568
0.0344613
0.0143342
0.150847
0.248676
0.229349
0.315056
0.27422
0.25557
0.325988
0.210708
0.0645947
0.195346
0.119308
0.0973547
0.170894
0.233062
0.0795727
0.0950301
0.188032
0.176092
0.0246173
0.0710147
0.0875861
0.072161
0.163918
0.0124284
0.0165683
0.186796
0.0554578
0.0430117
0.0529428
0.0101493
0.0679675
0.0274152
0.0017932
0.0198778
0.00282217
0.201359
0.10298
0.0932439
0.0908088
0.0266521
0.0887705
0.029596
0.324381
0.248297
0.274183
0.254519
0.225975
0.150497
0.174766
2.58887e-08
3.47531e-07
0.00959386
2.37971e-09
4.55613e-08
1.25853e-11
7.57143e-12
0.0175699
0.0901789
0.018221
0.184872
0.191096
0.0595631
0.0573856
0.0689024
0.0113786
0.072317
0.0302393
0.00321339
0.0291015
0.00331316
0.0369902
0.00487055
0.0549864
0.135872
0.00825972
0.0303211
0.0192845
0.203955
0.0976788
0.104329
0.0885017
0.0274255
0.0788078
0.0301032
0.178292
0.145784
0.111314
0.072621
0.0508984
0.100518
0.0349417
0.176018
0.238049
0.220007
0.120059
0.101432
0.0655028
0.0800883
0.52506
0.46933
0.424498
0.383918
0.470235
0.422979
0.369138
0.316996
0.477363
0.512878
0.494962
0.518381
0.506528
0.488021
0.484121
0.460882
0.500447
0.460088
0.443349
0.489217
0.470796
0.434179
0.460635
0.494227
0.444484
0.463404
0.488037
0.438953
0.467079
0.444498
0.460479
0.416578
0.418535
0.4537
0.410783
0.451031
0.445705
0.449036
0.443991
0.400767
0.471616
0.426852
0.419954
0.430399
0.403974
0.41191
0.360125
0.43886
0.396307
0.403308
0.388648
0.430357
0.417356
0.404265
0.413033
0.398989
0.436155
0.367155
0.417746
0.369007
0.344102
0.401554
0.384501
0.389662
0.0391707
0.00263941
0.0264545
0.000996223
0.0131889
0.00809769
0.000499137
0.0541609
0.077003
0.153593
0.0212261
0.0781212
0.05679
0.0137489
3.80713e-07
0.0123597
3.48223e-07
4.95796e-06
8.91148e-08
1.06722e-10
1.00255e-11
0.151751
0.0343383
0.0465417
0.0184358
0.0548456
0.0705321
0.113317
0.0611335
0.0148229
0.00486183
0.0028156
0.038523
0.0253915
0.00952696
0.0382108
0.17346
0.0884877
0.274287
0.110239
0.186575
0.200126
0.0507552
0.0734783
0.0142814
0.0102094
0.0532819
0.0094478
0.068486
0.0456804
0.0477276
0.0117313
0.00603472
0.00805853
0.0372645
0.0597445
0.0676522
0.00886428
0.048137
0.0345372
0.0091563
0.00552479
0.0503596
0.0720596
0.0141902
0.16398
0.125938
0.0480047
0.032008
0.0085607
0.232663
0.04449
0.0953643
0.0861409
0.156435
0.0456411
0.017887
0.179055
0.0822691
0.107632
0.197694
0.166686
0.0960561
0.0365299
0.0595754
0.00882776
0.0192461
0.000827368
0.00218506
0.00971433
0.00433886
0.0287398
0.0992281
0.0523012
0.0301452
0.0023638
0.00632796
0.0132874
0.0569679
0.00471776
0.0380114
0.00246479
0.0237356
0.0148706
0.00128571
0.164887
0.0520232
0.0794409
0.020596
0.0600683
0.0365915
0.0115904
0.0529522
0.134409
0.114321
0.0321564
0.01468
0.0110481
0.0406546
0.00628061
0.00115689
0.0139056
0.00386025
4.76761e-05
0.000174542
0.00159923
0.0671149
0.187524
0.163887
0.0674728
0.0248746
0.019091
0.0843341
0.0327309
0.13651
0.113409
0.053674
0.0157158
0.0115517
0.0683383
0.0213586
0.00248981
0.00345378
0.00418556
0.00519125
0.00035801
0.000236822
0.00373449
0.0275151
0.00389313
0.00515037
0.00557517
0.000424405
0.000396988
0.00102156
4.20477e-05
0.00160214
0.00797779
0.000275184
0.00549572
0.000503516
5.80072e-05
5.74836e-05
0.00190373
0.00907454
0.000633282
0.00884493
0.000636214
0.0228947
0.00477805
0.00321881
0.000406617
0.0227604
0.00315275
0.00526437
0.021892
0.0046299
0.0022826
0.000410727
0.00290918
0.01851
0.00532497
0.0173354
0.0108322
0.00383934
0.000630113
0.00216686
0.0263762
0.00677072
0.0330935
0.00360078
0.0258574
0.0139011
0.00222893
0.00151262
0.018285
0.00077919
0.0154822
0.00152675
0.00287439
0.00156199
0.000124232
4.82142e-05
0.0240292
0.0322932
0.0766224
0.0152343
0.000799978
0.00339907
0.00480029
3.02149e-06
8.38964e-06
0.000544307
0.000124446
0.00333831
0.00185387
5.09045e-05
0.00358139
0.00259713
0.0194368
0.012642
9.78807e-05
0.00142182
0.00197715
0.00634198
0.00173793
0.0187025
0.00647323
6.02196e-05
0.000394513
0.0018254
0.00829266
0.0699076
0.0253089
0.0165534
0.000973819
0.00486347
0.00431861
0.0110219
0.0427893
0.108246
0.036095
0.00205384
0.00904634
0.0108388
0.0161063
0.023322
0.0666822
0.027848
0.000942131
0.00487301
0.00793222
0.0205478
0.00282153
0.00371252
0.00141846
0.001792
0.000254638
8.58732e-05
3.79328e-05
0.000460922
0.00708015
0.00408325
1.25026e-05
0.000694789
0.000198311
0.00443944
6.86256e-05
0.000265964
0.000147456
0.000559393
1.09754e-05
1.84995e-06
0.00306498
0.00133106
0.0126233
0.00633306
4.67315e-05
0.000493761
0.00134941
0.0170031
0.000295509
0.00502509
0.00379979
0.00353424
0.00261171
0.0224828
7.6673e-05
1.43329e-07
7.26634e-07
0.000765645
3.25235e-06
1.42262e-05
0.000253072
0.00551756
0.000173713
9.61803e-05
1.97928e-05
0.00045532
0.000689418
0.00190282
0.00520136
0.00182062
0.00060865
4.13535e-05
0.000378474
0.00123564
0.007163
8.77517e-05
1.71749e-06
0.000155539
5.39567e-06
2.34181e-08
3.01029e-06
4.33301e-08
0.00489355
4.576e-05
0.000390005
5.6664e-05
0.000484741
1.18232e-05
6.48324e-07
0.000388744
1.21121e-05
0.000500948
1.06036e-05
9.43115e-08
6.80798e-06
1.37172e-07
0.00163628
5.32593e-09
0.0170937
2.56288e-11
3.12243e-05
2.38303e-08
2.44543e-12
1.76448e-13
0.0721684
0.00170074
0.0158007
0.00267849
3.89427e-07
3.87748e-09
3.39734e-07
7.89333e-09
0.155156
2.74845e-08
0.000199224
0.190226
0.00557545
0.00106781
9.5169e-06
0.0106228
0.00187599
0.000279992
1.27179e-07
3.69794e-09
2.38698e-10
5.44312e-11
0.0103313
0.0184618
0.0121292
0.00141938
0.00162666
0.000857763
0.000648505
0.0183459
0.0112072
0.0125877
0.00132248
0.00164699
0.000934546
0.000791989
3.75194e-07
5.21563e-07
2.82703e-11
0.000378397
0.000759443
3.86071e-10
9.20974e-10
0.179291
0.0658501
0.0598246
0.0878779
0.0813656
0.0201591
0.0182443
1.64219e-12
6.49489e-12
6.74518e-08
4.21484e-07
0.000187003
3.41459e-10
7.39597e-09
0.00495536
0.0025441
0.00650159
0.000326215
4.23601e-05
0.000208368
7.8291e-05
0.00290272
0.00638927
0.00704485
0.000381166
8.71602e-05
9.79136e-05
0.000332012
0.00778829
0.00508255
0.00379303
0.00072078
0.00045058
0.000229401
0.000146028
1.95495e-06
0.00171782
3.8054e-12
7.67264e-07
0.000448061
5.79086e-10
4.07675e-05
0.11784
0.0301884
0.0469558
0.0437444
0.065852
0.0137295
0.00794932
2.11266e-06
5.11462e-12
1.0518e-12
4.74443e-07
0.000520898
4.46928e-10
1.81115e-12
3.36466e-05
4.89207e-07
4.15635e-05
1.68738e-05
1.1918e-07
1.14229e-05
1.79755e-07
2.17572e-06
1.9796e-13
1.74609e-05
7.28057e-12
1.36535e-12
4.76607e-12
7.09485e-13
3.07658e-05
4.97565e-07
4.26742e-05
1.91525e-05
1.53139e-07
1.50737e-05
2.0361e-07
0.0265543
0.00495127
0.0242645
0.000488402
0.00436152
0.0038907
0.000417268
0.0119222
0.000874924
0.0104307
0.000100674
0.00254117
0.00221001
8.07102e-05
0.00449874
0.00086673
0.0021606
4.98662e-05
0.000191991
6.07885e-05
1.5449e-05
0.0144111
0.0220881
0.0312897
0.00468287
0.00316534
0.00768247
0.000763241
0.00156473
0.000206478
0.00117134
3.65672e-06
3.90285e-05
2.51898e-05
2.42765e-06
0.000660181
4.64471e-05
9.56898e-05
5.29596e-06
1.11642e-05
9.88152e-07
4.40498e-07
0.000802623
0.000124545
0.000127355
1.37203e-05
1.48796e-05
1.3789e-06
1.31462e-06
0.0111291
0.00343909
0.0186471
0.00271825
7.83035e-05
0.000245279
0.00130493
0.00397352
0.000526277
0.00743647
0.00147646
1.2146e-05
4.24512e-05
0.00066176
2.58886e-08
1.29419e-05
2.91726e-06
6.36345e-08
6.91373e-06
1.64089e-06
1.38045e-08
0.000228825
0.000104056
0.000641622
1.0428e-05
2.40706e-07
2.58358e-06
1.00215e-06
4.69274e-06
4.32952e-07
2.61648e-08
7.60722e-09
2.71052e-06
8.49919e-07
4.5163e-08
5.73583e-06
9.28421e-07
9.6697e-09
4.30256e-08
1.09222e-06
4.71706e-06
5.46477e-08
8.49897e-05
1.92112e-05
2.22434e-06
7.51798e-06
8.81744e-07
1.71693e-07
6.33766e-08
0.000217019
8.20156e-05
7.92836e-06
2.95012e-05
2.40234e-06
7.643e-07
2.24676e-07
9.84961e-10
1.68419e-15
6.12681e-14
4.88081e-13
2.33659e-08
2.37719e-14
1.07114e-12
8.35639e-08
3.82105e-06
0.000273346
0.000230502
6.36312e-08
7.59837e-06
3.00055e-06
0.00911142
8.35286e-05
0.000975216
0.000166326
0.00168381
8.16067e-05
2.38629e-06
0.00450168
1.07853e-05
0.000358145
5.35673e-05
0.00110668
4.28169e-05
6.11418e-07
0.00143758
3.9235e-06
0.000304379
1.74062e-06
0.000164881
1.77568e-05
1.19138e-07
0.000311939
4.02241e-06
1.24574e-07
4.22871e-05
1.8508e-06
0.0015004
0.000176522
9.20873e-05
6.48754e-06
2.44347e-07
0.000387522
3.2309e-05
0.00206998
0.000329989
0.000885025
9.4982e-05
2.39225e-06
0.00168961
0.00015605
0.00127324
0.00774767
2.36485e-06
5.19237e-08
5.71021e-08
0.000195054
0.00019895
7.05158e-06
6.5641e-06
1.30598e-07
1.60909e-07
1.36014e-05
0.000484636
0.000550996
1.29835e-05
1.13398e-05
1.38962e-08
1.47409e-06
4.72875e-06
0.000232256
9.34437e-05
3.24028e-06
1.03902e-06
5.8549e-06
1.99145e-06
2.55075e-05
4.61539e-08
2.28698e-07
1.55994e-08
3.05997e-09
2.36698e-05
1.04495e-06
8.12936e-09
2.06573e-07
7.80438e-07
1.43107e-07
5.76272e-09
1.18086e-07
9.93523e-09
3.22e-09
1.47523e-05
3.98327e-05
1.31339e-06
4.34039e-07
1.32583e-06
6.03018e-09
2.6579e-08
0.000128999
4.39343e-05
3.58528e-06
8.73951e-07
1.01065e-06
1.12104e-08
5.76133e-08
0.000289088
9.10299e-05
5.70104e-06
1.27482e-06
5.73787e-09
0.000131981
8.10959e-07
3.30826e-07
3.60022e-06
1.41297e-06
4.0825e-05
4.68666e-07
1.90864e-08
2.27789e-06
5.66743e-07
8.91204e-10
1.22978e-07
4.39879e-09
1.73656e-07
7.59939e-06
3.42675e-06
2.86143e-09
1.32364e-09
6.2228e-08
2.75974e-08
5.28667e-07
1.0685e-05
1.06805e-05
3.76723e-09
3.9768e-09
8.76922e-08
8.46442e-08
5.31992e-06
5.30814e-06
4.76301e-05
3.441e-08
3.79581e-07
3.42856e-08
2.76375e-09
1.47292e-10
3.05739e-09
3.72786e-07
2.97592e-08
2.23398e-07
1.8706e-08
1.72934e-09
2.31588e-08
1.30795e-06
4.69552e-07
5.09157e-10
1.7134e-10
1.04471e-08
3.65583e-09
8.52571e-08
3.06939e-07
6.72851e-06
5.22815e-10
2.06363e-09
4.88144e-08
1.35139e-08
8.25876e-06
8.44078e-08
3.52954e-07
1.40824e-08
6.0382e-08
2.39094e-09
5.28243e-10
4.38283e-09
6.41633e-10
9.45046e-11
6.40776e-07
3.50112e-06
8.80888e-08
1.34355e-08
2.48217e-07
2.91597e-10
3.07635e-08
3.07891e-06
2.03749e-05
1.91452e-07
2.62093e-08
4.64693e-08
8.25179e-10
1.00028e-07
8.05642e-09
2.94677e-11
3.60169e-09
6.49154e-11
1.18697e-07
1.08861e-09
1.33929e-07
1.10919e-08
8.42494e-11
1.01455e-08
9.03467e-11
0.00246467
5.58181e-05
0.0149199
0.00104737
8.73883e-07
3.82306e-11
2.75848e-07
1.82479e-09
0.0110731
0.00839579
0.0058961
0.00114888
0.000732877
0.000462335
0.000271751
0.00110636
0.00590527
0.0029335
7.97522e-05
0.000291697
9.80256e-05
2.3872e-05
0.000581377
0.00357571
0.00227778
2.09177e-05
0.000124578
6.44854e-05
9.39398e-06
2.47651e-05
1.41079e-07
7.35697e-08
1.34567e-05
7.28434e-06
3.71729e-06
3.5837e-08
0.000323498
0.000214059
0.0010126
2.05016e-05
5.33095e-07
2.62763e-06
4.52284e-06
0.441157
2.70785e-08
0.511565
0.497142
0.567601
0.508675
0.587007
0.445714
0.522966
0.54816
0.502259
0.545591
0.521502
0.535304
0.559092
0.51187
0.546551
0.489839
0.539688
0.508806
0.533017
0.553819
0.501241
0.567545
0.563529
0.560054
0.586699
0.553318
0.579478
0.573939
0.552691
0.513285
0.564142
0.500639
0.54919
0.568301
0.505604
0.565203
0.58914
0.57225
0.579494
0.560657
0.581663
0.575996
0.553923
0.524972
0.571412
0.512246
0.55131
0.573674
0.515093
0.57272
0.566594
0.564042
0.576024
0.562441
0.575452
0.573754
0.585765
0.589227
0.583912
0.586323
0.583256
0.58852
0.586454
0.578922
0.582347
0.585976
0.584101
0.58342
0.581605
0.579696
0.576803
0.576093
0.574113
0.58391
0.568714
0.581742
0.579784
0.57474
0.573005
0.568172
0.579922
0.566459
0.579455
0.575734
0.551246
0.547421
0.563122
0.567416
0.545536
0.566955
0.55248
0.552731
0.567421
0.552783
0.568969
0.551158
0.568438
0.553968
0.580446
0.567189
0.574444
0.573533
0.579907
0.574456
0.575629
0.586762
0.590086
0.588431
0.58654
0.585862
0.589326
0.587504
0.581222
0.57903
0.571563
0.575525
0.574813
0.578421
0.581904
0.583628
0.584184
0.576336
0.5816
0.578892
0.581161
0.586367
0.579245
0.566279
0.56943
0.571146
0.573273
0.574649
0.576799
0.584603
0.579005
0.586285
0.582342
0.583757
0.579803
0.587142
0.582446
0.575366
0.582198
0.576958
0.581591
0.576257
0.583146
0.555257
0.556357
0.568446
0.572893
0.571069
0.551076
0.558835
0.555821
0.571262
0.559264
0.573608
0.554837
0.571763
0.559376
0.531441
0.45177
0.479705
0.491222
0.52764
0.495371
0.485059
0.526689
0.48315
0.47153
0.449164
0.514783
0.492289
0.481451
9.02716e-07
0.00470631
0.0229756
0.00399576
0.0211185
2.15365e-06
6.91967e-07
0.0245027
0.0162084
0.0190919
0.00201899
0.00259656
0.00177527
0.00134963
0.0181257
0.0249921
0.0196984
0.0023949
0.00272614
0.00189764
0.00167537
0.00496804
0.00902434
0.0108863
0.000781615
0.000170455
0.000569679
0.000246285
0.0103646
0.00524436
0.0113699
0.000854487
0.000233798
0.000746063
0.000274999
7.50388e-05
1.18604e-06
9.29737e-05
5.3697e-05
4.896e-07
4.39099e-05
6.30084e-07
1.08551e-06
5.68792e-05
8.5143e-05
4.80784e-05
3.59092e-07
3.16516e-05
5.65781e-07
1.72539e-05
1.38338e-07
3.08021e-06
3.57839e-08
1.40451e-05
1.78362e-07
3.88406e-06
2.00929e-08
1.00646e-07
9.87817e-06
1.52294e-05
3.19189e-08
1.58969e-07
3.3981e-06
7.8588e-09
3.96279e-08
4.12383e-06
1.09495e-06
1.92515e-09
9.92141e-09
2.2564e-07
2.03116e-07
1.40112e-08
1.48433e-06
6.94566e-07
7.41217e-10
8.56196e-08
6.28154e-09
0.0348581
0.370624
0.106621
0.386914
0.460999
0.387197
0.465935
0.0320817
0.101868
0.299507
0.457931
0.379807
0.0231402
0.00186194
0.0827599
0.0142999
0.379215
0.384335
0.452789
0.467176
0.374243
0.459054
0.389032
0.379175
0.468238
0.45686
0.383988
0.460344
0.372746
0.388786
0.330269
0.447795
0.442223
0.371006
0.430653
0.357793
0.346829
0.349866
0.395564
0.435241
0.280605
0.440833
0.34031
0.292804
0.248724
0.111282
0.255004
0.0867015
0.237706
0.264528
0.0958419
0.285585
0.342955
0.42321
0.255283
0.401981
0.32031
0.214042
0.249772
0.0921993
0.259592
0.112158
0.243869
0.265334
0.0971205
0.349722
0.284551
0.432552
0.394103
0.343109
0.439343
0.292628
0.285672
0.360481
0.41711
0.247132
0.403431
0.216518
0.3073
0.173947
0.233061
0.0686315
0.0579077
0.213582
0.19666
0.0460005
0.205285
0.0369096
0.131682
0.0577516
0.19236
0.0651172
0.144019
0.206432
0.0621684
0.137251
0.037792
0.198872
0.0663927
0.145108
0.234824
0.312051
0.367119
0.230513
0.092464
0.155768
0.156225
0.125449
0.106841
0.0133382
0.0440012
0.165352
0.0275811
0.0741484
0.120989
0.0867005
0.00944665
0.0332749
0.0654651
0.145254
0.0242846
0.0785938
0.0186362
0.00589028
0.00465267
0.0382276
0.013291
0.0421038
1.94171e-07
4.19617e-09
3.18598e-10
1.98005e-10
2.21178e-08
1.63187e-09
3.81575e-08
2.33447e-09
4.08579e-08
4.70681e-09
3.19512e-11
6.13031e-10
6.27235e-06
9.18326e-08
9.79071e-10
3.94253e-09
4.43501e-11
5.83975e-07
5.69368e-09
1.16311e-05
1.21194e-07
9.76133e-10
2.34605e-08
1.16137e-07
3.80878e-11
7.33089e-12
8.59181e-10
1.68811e-10
1.23038e-11
8.19222e-08
1.58135e-09
1.25328e-10
1.81185e-08
7.08262e-09
5.78862e-10
3.29992e-08
0.000126219
3.60974e-06
3.23484e-10
3.14598e-08
1.69048e-06
1.76005e-08
2.59517e-05
1.7725e-07
4.50025e-09
1.60348e-08
1.00446e-10
7.50163e-07
4.42239e-09
3.074e-11
8.52016e-08
3.81905e-08
5.74996e-06
3.58452e-07
2.22887e-09
4.48663e-09
6.26502e-08
1.1424e-10
1.67379e-08
4.22839e-11
5.47892e-09
1.46234e-09
1.1106e-11
7.06825e-10
3.12878e-07
1.09749e-08
4.61074e-12
6.28379e-11
1.83602e-09
1.38729e-10
6.19535e-11
1.92495e-08
1.62354e-10
1.27339e-11
1.39664e-09
5.01368e-10
5.56155e-12
3.04845e-07
1.04903e-08
1.80865e-09
6.83481e-10
1.36805e-10
6.09549e-11
4.50456e-12
1.51291e-11
1.09061e-11
8.54202e-10
7.94187e-10
4.67495e-10
9.65196e-08
5.8414e-08
1.55911e-09
1.48743e-11
1.77048e-11
8.48762e-10
9.97939e-10
1.20824e-07
1.04429e-07
5.52703e-12
4.89561e-10
6.71965e-10
3.07102e-08
2.36607e-10
2.29007e-08
1.67989e-10
4.00158e-10
2.08724e-10
6.83671e-11
4.98844e-12
1.24674e-10
2.63727e-08
8.29292e-09
5.4431e-10
3.42713e-12
7.44374e-12
8.3328e-11
3.89913e-10
4.98733e-08
1.0481e-08
1.23339e-12
1.96347e-10
4.01328e-11
2.14262e-09
9.85173e-09
6.674e-11
1.48386e-11
3.91674e-12
1.8206e-09
1.54867e-11
1.18225e-10
1.42409e-12
2.15866e-12
2.38737e-11
5.48879e-13
2.0619e-10
1.54596e-11
2.45421e-09
2.0456e-10
1.61034e-11
1.78439e-12
1.28439e-11
8.51704e-12
1.31966e-12
6.16794e-11
1.59323e-09
1.04574e-09
4.17729e-11
1.31405e-12
2.14479e-11
2.56464e-12
9.2646e-13
3.59597e-12
1.52696e-09
2.04154e-10
3.09379e-11
2.32077e-12
2.58006e-12
6.59313e-10
6.5696e-12
6.10678e-10
7.20533e-12
2.32709e-10
2.69514e-12
1.03987e-12
2.03617e-12
1.15818e-08
7.46123e-11
1.35483e-10
1.70319e-12
1.2179e-12
1.39336e-12
4.76231e-11
1.60368e-12
8.44654e-12
9.76393e-10
1.49335e-11
5.32618e-12
5.28963e-12
4.65902e-10
6.97959e-12
2.09598e-10
8.66425e-12
1.49014e-11
1.90733e-12
2.00201e-12
4.01646e-12
3.22029e-10
8.3362e-11
2.47026e-12
2.25029e-12
2.80607e-12
2.2087e-12
8.8131e-11
3.97156e-10
1.7378e-11
5.51805e-12
2.67709e-11
2.03226e-12
1.53991e-12
1.37636e-12
2.64369e-11
6.91831e-12
1.54361e-12
4.14975e-12
4.23638e-13
6.43198e-13
2.31067e-10
1.36484e-11
1.83053e-12
5.33232e-13
4.33818e-12
3.17045e-12
3.3498e-12
3.80593e-12
7.22817e-11
2.69158e-11
3.40208e-12
1.24291e-12
1.02942e-12
1.05272e-12
1.03551e-12
7.0058e-12
1.47984e-12
1.07524e-12
1.0508e-12
1.02965e-12
1.02356e-12
6.95624e-12
1.46923e-12
1.23439e-12
1.04557e-12
)
;

boundaryField
{
    ground
    {
        type            zeroGradient;
    }
    outlet
    {
        type            zeroGradient;
    }
    wall
    {
        type            zeroGradient;
    }
    wall2
    {
        type            zeroGradient;
    }
    wall3
    {
        type            zeroGradient;
    }
    internalPatch
    {
        type            internal;
    }
    procBoundary7to4
    {
        type            processor;
        value           nonuniform List<scalar> 
485
(
3.25737e-14
9.06297e-15
9.67995e-14
9.67995e-14
3.79469e-12
3.79469e-12
2.42169e-11
7.204e-11
1.83835e-10
2.8871e-10
3.16152e-10
2.30636e-10
1.23385e-09
4.70623e-09
9.06258e-09
1.23946e-08
1.14937e-08
7.25127e-09
2.75609e-09
4.00265e-09
5.0513e-09
5.06183e-09
3.31759e-09
1.13727e-09
2.17801e-10
1.51779e-11
5.41257e-12
1.08012e-13
1.08012e-13
4.81379e-15
7.19365e-17
7.19365e-17
9.47475e-17
9.47475e-17
2.34181e-14
2.34181e-14
1.43347e-12
6.49684e-12
4.23601e-10
1.14045e-08
1.13861e-07
3.11959e-07
1.57837e-07
4.89424e-08
8.17977e-09
6.96107e-10
3.25344e-11
2.81851e-13
2.81851e-13
7.35695e-13
5.655e-12
1.14468e-09
1.65019e-07
1.65019e-07
1.62062e-09
1.05504e-11
1.38789e-12
7.18338e-13
4.87702e-12
4.32416e-10
2.17739e-08
7.1839e-07
1.25876e-05
9.46256e-05
0.000339374
0.000723241
0.00113834
0.00150961
0.00173263
0.00145195
0.000777518
0.000221871
4.01147e-05
1.40644e-05
9.80896e-07
1.99967e-08
2.61586e-10
3.95109e-12
1.23756e-13
1.23756e-13
8.09246e-14
8.09246e-14
1.61211e-12
2.97582e-11
2.97582e-11
1.15321e-12
2.14784e-12
7.09697e-12
1.35135e-13
1.35135e-13
6.06312e-14
6.06312e-14
6.35966e-13
9.67995e-14
9.67995e-14
3.79469e-12
3.79469e-12
8.91476e-11
3.42065e-10
9.44412e-10
1.50322e-09