/*--------------------------------*- C++ -*----------------------------------*\
  =========                 |
  \\      /  F ield         | OpenFOAM: The Open Source CFD Toolbox
   \\    /   O peration     | Website:  https://openfoam.org
    \\  /    A nd           | Version:  9
     \\/     M anipulation  |
\*---------------------------------------------------------------------------*/
FoamFile
{
    format      ascii;
    class       volScalarField;
    location    "0.0004";
    object      rho.c4;
}
// * * * * * * * * * * * * * * * * * * * * * * * * * * * * * * * * * * * * * //

dimensions      [1 -3 0 0 0 0 0];

internalField   nonuniform List<scalar> 
2645
(
108.641
141.579
0.739527
214.61
126.751
190.512
197.171
0.825984
153.616
126.911
96.0693
103.157
136.691
135.59
165.539
118.293
177.791
153.268
175.914
151.619
183.931
210.022
24.394
34.1989
177.984
153.129
179.099
164.115
192.725
182.338
29.9748
39.2462
180.465
154.656
167.574
195.611
207.079
7.99788
0.856532
207.901
182.041
209.223
199.006
179.048
1.87324
10.8114
212.518
186.331
213.386
230.112
179.324
156.325
98.092
36.2572
18.4388
111.188
56.8965
131.896
22.0425
21.1648
24.938
53.2649
40.4638
47.5237
46.2892
41.9218
26.3259
30.6957
64.5592
76.3444
84.2613
57.1008
32.1343
61.9576
35.6503
73.0144
98.0806
67.1512
104.602
59.6021
74.7342
43.6498
86.0241
141.296
118.791
107.868
77.8471
116.463
84.9736
92.0231
120.021
124.472
85.8137
104.987
160.732
119.924
134.321
138.393
125.412
99.2398
103.316
154.139
127.576
110.084
164.495
140.349
135.782
155.784
206.725
181.961
123.74
175.238
151.224
145.588
0.839693
0.819435
0.82373
0.836408
0.81457
39.5394
29.8391
0.740446
0.740104
0.739472
0.739433
0.739492
7.59033
1.45589
0.000299918
3.00005e-07
0.105402
246.978
3.4082e-07
0.37365
0.0556173
210.614
0.0007724
16.0768
173.767
210.264
208.061
245.433
243.272
241.139
114.694
7.93526e-06
0.295937
3.23109
0.000397755
2.709e-05
3.94718e-06
3.94704e-06
271.636
3.30456
6.27708
0.0798063
271.943
265.088
1.58723
195.558
278.241
217.709
40.4513
65.4788
194.334
38.0587
215.092
169.574
46.0717
79.6684
87.1111
97.061
89.886
152.775
145.004
215.944
0.255207
3.76035
6.6784
0.251519
0.385689
7.84346e-06
114.494
175.584
174.703
129.025
123.803
178.966
214.411
250.534
15.3235
194.203
216.496
235.298
187.125
133.281
55.7397
63.7257
93.5262
103.485
106.801
114.541
152.248
146.013
172.74
89.0348
132.799
172.547
138.337
175.894
209.1
190.745
151.528
142.671
195.879
229.535
232.988
191.317
154.196
190.588
148.214
195.276
229.046
232.118
191.099
151.748
144.371
189.285
227.225
231.062
192.339
187.469
175.731
215.223
250.919
213.805
249.073
249.137
275.827
223.089
226.171
191.389
149.473
154.748
190.956
186.055
249.057
215.405
179.315
217.772
272.651
252.164
248.99
245.095
178.095
212.196
216.794
265.943
250.022
247.759
177.204
212.009
247.861
250.379
266.374
214.409
244.979
210.228
229.98
20.2737
206.827
175.805
211.858
240.711
250.251
11.5245
280.42
10.4434
277.84
11.405
0.446952
232.77
264.421
263.229
18.2506
265.176
264.733
229.551
161.02
8.63807
3.32548
258.242
256.199
229.109
225.156
1.59742e-08
0.000475913
1.5829e-08
1.5829e-08
1.59909e-08
1.5829e-08
1.58304e-08
7.37029
65.3216
235.857
0.0406067
0.0393117
16.2917
0.0975547
0.203179
0.136994
0.13419
243.483
120.256
20.7011
0.227711
1.17997
113.714
1.02
4.7984
3.10695
251.757
272.361
6.2479
4.81243
207.414
250.648
275.141
274.878
9.48414
3.43142
266.03
5.00992
246.782
272.503
271.803
9.63375
0.097574
54.7839
0.0868804
0.123348
0.71005
100.578
247.114
0.295004
4.06588
0.499784
0.294918
0.296168
0.295681
0.294863
3.22903
12.4867
15.1018
3.23262
3.23765
3.22612
3.22697
0.256076
0.2552
0.255584
0.255569
0.255802
6.59803
0.256051
0.252025
0.251876
0.251483
0.251494
0.251757
6.51835
0.252374
3.81258
3.30573
4.28148
3.62011
1.86755
2.9979
1.8957
2.05922
2.91782
3.71671
3.55126
3.22173
2.97447
3.37679
3.16364
3.36589
4.13885
4.11348
3.33455
3.41588
3.46605
3.89944
3.29722
3.53373
3.824
3.23458
3.13588
3.36778
3.70471
2.6269
2.75961
1.78963
1.88783
2.64717
2.73981
1.80888
4.1755
4.2627
4.23955
4.01707
4.04018
4.05805
4.2742
4.00848
4.18289
3.91904
4.04076
3.56924
4.01809
4.18941
4.02825
4.14601
3.87347
4.04203
4.0008
3.60257
4.16951
3.71193
3.67851
3.33685
3.34999
3.69335
3.70046
3.09163
2.09053
2.26579
2.08214
1.52706
2.16329
1.64296
2.17268
2.49524
2.3992
2.16572
1.91545
2.16992
2.6566
1.88491
2.81693
3.56657
3.04866
2.69295
2.56623
3.23319
3.02168
1.898
2.24498
2.37087
2.26139
1.80972
1.87347
2.09717
4.29239
1.73013
3.6356
3.74735
3.25102
1.92406
2.04991
1.61189
1.75207
2.71904
1.60827
2.32391
8.42943
29.1746
9.02793
24.6995
3.40987
4.13816
4.24239
3.38731
3.15746
3.27475
3.99667
3.33089
4.05682
3.55901
3.26445
3.37057
3.21117
3.75362
3.28888
4.20846
3.57592
3.14975
3.33695
3.11503
3.83343
2.70435
2.98471
1.91264
1.84703
2.77277
2.6947
1.8779
4.06785
4.27511
4.2933
4.04633
4.05908
4.0578
4.26817
3.9759
4.17848
4.0288
4.13148
3.99756
4.00039
4.15592
4.04467
4.23248
4.05973
4.2651
4.025
4.15998
4.19816
3.73635
3.70751
3.53331
3.37356
3.72865
3.70483
3.4755
3.70237
3.19709
3.65617
3.45599
3.70985
3.64497
3.40773
3.70607
2.99483
3.70005
3.31492
3.69743
3.68266
3.2627
3.96328
3.55097
4.07886
4.1502
3.78033
3.99791
4.09323
3.62978
3.93861
3.95346
4.05739
3.93068
3.59906
3.93568
3.49576
4.12456
4.01872
4.18071
3.94427
3.89502
4.00943
2.46174
2.5854
3.04813
2.96225
3.02245
2.44492
2.53733
2.59524
2.42998
1.74154
1.66215
2.5639
2.44983
1.79121
2.52972
1.95667
1.67642
2.21803
1.88026
2.67385
2.14173
3.21592
3.42545
3.4124
2.93562
3.09669
3.05475
3.61655
2.67264
2.4947
1.93322
1.95245
2.70351
2.48871
1.89174
2.5665
2.21265
1.84729
1.68622
2.39048
2.4128
1.80347
2.46208
1.62121
1.77875
2.15742
1.81013
2.10782
2.50044
3.14968
2.26187
2.52052
4.95223
2.15122
3.42976
4.37683
4.60023
3.77425
11.6797
8.05059
4.94642
3.62272
10.7045
3.01636
2.37539
1.98719
4.25383
2.05207
4.1186
3.0788
4.54233
3.93221
8.17832
11.4619
3.6534
4.84976
10.5609
6.33901
11.5139
17.8579
24.8569
7.10536
9.84431
15.6527
6.12043
9.82035
23.329
16.0703
9.27789
6.53276
14.985
5.44727
6.09488
22.6462
97.7238
148.531
121.377
2.97754
4.75892
3.36811
3.5942
4.44329
12.5624
2.51181
5.41189
2.47272
3.26165
2.95834
2.94356
2.73783
2.51497
2.86443
2.61035
2.158
2.76553
3.51394
2.12809
2.43076
4.08963
3.38977
5.39235
48.7777
9.17219
6.12656
7.11828
61.6515
3.4812
2.97782
3.6388
2.43346
4.74585
2.03576
5.08874
142.818
81.2277
1.63566
2.42343
3.79565
11.3529
29.2224
44.8678
2.51629
2.98441
3.29697
3.01151
2.57175
2.93467
2.87879
2.5061
17.7968
11.7021
2.71673
4.98066
2.07484
7.86192
17.0683
6.40205
2.94506
2.59629
9.21919
3.62123
26.234
16.5289
3.1682
16.7511
47.7031
123.025
39.8291
83.677
2.41808
3.16088
2.59952
2.62222
2.80746
2.30116
2.75452
2.27723
2.20418
3.27386
2.2523
2.39569
2.14212
2.99555
28.8582
8.44444
14.5841
94.8974
149.496
54.2106
103.485
1.79582
1.78309
2.36955
1.96333
2.7582
3.01452
3.51943
2.16238
1.88077
2.10726
2.80894
2.03337
2.08917
2.81112
5.21987
9.62425
8.5151
38.3822
52.9855
107.582
113.394
3.66257
3.50274
3.71876
2.9486
2.7888
2.74289
2.89242
2.42646
2.30746
2.33424
2.17909
1.91822
2.14797
2.32431
2.46929
3.2106
2.69546
2.62967
2.19686
2.62876
3.24132
3.90378
3.50908
3.70655
2.68969
2.79374
2.67761
2.83702
2.60014
2.41625
2.46221
3.21701
3.37029
3.58772
3.34186
45.736
9.57437
8.45405
97.1744
40.8365
174.85
110.005
3.90538
2.97013
2.81791
3.97364
4.5342
3.02514
3.06014
3.80862
3.37742
8.12558
5.37293
6.96907
11.9598
14.1092
176.001
24.7645
92.5649
10.7256
106.229
3.50318
45.7101
4.96148
3.16282
7.96026
8.57353
5.03397
2.99699
4.60188
2.00722
2.91295
4.85178
2.25904
3.4444
4.47352
6.41484
1.69645
3.01988
2.33913
2.08896
1.68746
2.35129
3.77441
7.23409
5.10194
3.16304
2.95276
2.8093
2.11127
4.19632
4.76267
8.40441
7.90014
2.90551
4.62289
2.95001
4.43628
2.3232
4.28522
2.60183
8.12364
4.65448
5.40682
9.28161
2.48566
4.00616
2.6515
6.59625
4.20441
4.62702
7.34201
3.14157
5.23776
6.78845
5.04892
6.5014
11.1891
11.6679
35.413
9.69981
14.9197
64.8413
151.335
125.257
174.832
5.70719
6.9808
8.38619
3.42265
4.29286
3.19113
4.9083
3.34354
6.68916
11.6473
9.68302
5.59586
6.45762
3.86717
178.644
20.0036
31.293
75.199
25.8639
5.86557
4.20884
4.7612
14.1537
5.82263
16.4179
6.67572
8.01205
19.9689
2.47314
2.10109
1.91813
2.54885
3.45242
3.8914
2.52597
5.74112
4.0029
4.41017
2.79586
2.73467
3.10613
2.98412
2.81103
2.61434
2.56296
4.08898
4.57582
5.35074
3.66976
4.99735
6.97459
4.17293
9.32973
11.3193
16.6468
20.1361
4.99805
10.8859
5.76353
6.38551
10.4334
12.2227
5.50404
6.08225
5.15358
6.10926
11.3712
9.16703
11.2034
9.45462
6.56822
6.49075
7.8569
9.86562
12.0761
14.3456
11.8314
7.02036
5.49016
6.35109
12.1287
11.7711
13.651
10.2795
3.21912
3.26579
2.07528
3.27522
8.79506
5.50995
5.45558
4.27945
5.25404
3.13998
6.87789
16.0595
9.68947
11.6174
11.5608
19.4581
7.77134
10.5825
38.7397
15.6409
26.8085
5.97747
12.6231
9.79777
5.2846
3.2439
4.11715
6.80191
5.94864
4.47883
7.81442
10.1945
7.61139
13.3335
17.1753
8.77175
23.1082
15.9014
8.37282
12.061
4.82046
6.95441
16.0209
11.2653
6.48533
22.3689
15.6865
28.0605
39.2897
3.91692
4.81319
3.02244
5.53619
11.8569
8.90529
7.37784
32.572
157.169
32.0282
138.809
147.335
198.027
213.409
19.1526
26.4312
10.7677
12.6962
51.2493
22.0331
31.2291
13.3858
7.27351
8.44749
4.38041
6.13987
7.16366
3.84271
7.6921
19.8353
8.75396
12.7141
14.8249
10.2589
6.56302
15.1169
12.6509
7.7783
8.67187
28.8521
16.8561
14.0231
18.5373
10.44
44.9912
39.3247
9.22942
21.3252
25.0223
20.0474
40.6974
16.7133
29.2843
72.8087
35.045
64.6016
8.72565
14.7688
15.6436
16.3952
31.4769
16.4684
30.0736
3.65975
6.77152
5.98127
7.01316
7.96303
12.8755
11.1524
188.638
151.402
49.4239
208.066
168.427
26.9913
19.0996
38.5175
16.0099
37.3417
9.25692
8.83957
20.0552
20.7656
16.266
38.1549
15.5283
27.1772
63.7811
28.1276
61.615
26.2136
61.9001
21.6217
12.0723
52.3568
29.6939
35.688
8.77741
15.875
14.8422
17.0545
32.3154
18.8169
30.1988
10.3506
12.4127
15.0233
19.7238
23.7084
16.0577
29.1937
11.1827
7.29984
8.43465
14.3643
16.5024
21.9144
19.1873
3.46088
3.04935
2.52013
2.06968
1.46643
1.7054
2.19775
3.59495
2.74078
3.32826
3.21689
2.97478
2.94236
2.78972
3.11114
1.95057
2.26971
1.52601
1.41392
2.26652
1.99425
1.50122
2.63304
3.20587
2.75129
2.72364
2.88265
2.36152
2.98608
2.38385
2.92338
2.43294
2.13385
2.46949
2.10382
2.81314
1.79111
1.90741
1.58121
1.81045
2.18633
1.55414
1.60801
1.62142
1.79174
1.60775
2.38414
1.63481
1.84493
1.72876
2.23249
2.19533
2.25936
2.29977
1.86529
2.05334
2.62163
2.26333
1.58253
2.26458
2.74965
1.65258
1.95287
1.90356
23.5425
61.2758
28.0517
79.6391
41.294
48.504
86.7464
21.4052
17.6805
11.4331
35.2594
17.9454
21.5421
42.9732
214.673
49.8866
187.407
159.611
210.115
238.99
24.8495
10.4865
27.9076
23.0044
35.3506
20.5394
17.0198
13.8727
16.5532
38.765
55.3559
63.1201
23.7414
27.9816
40.3818
29.6307
11.2972
18.1455
6.07088
15.6695
9.74767
9.68774
22.8287
17.8325
40.7652
46.7247
21.9956
48.8452
18.738
24.7907
24.288
45.6912
59.8294
53.1314
28.2225
20.8473
19.1864
49.3577
23.6191
28.3732
49.0827
58.6166
23.1307
19.1845
43.853
10.5623
13.4502
23.5767
30.2905
56.6756
6.56891
24.4763
15.0539
17.7461
10.9891
24.9916
40.1069
9.42007
17.5542
15.5059
9.52449
10.7655
17.341
29.2793
20.1849
53.5374
37.3634
108.199
83.5923
49.4884
68.1556
30.9255
15.4555
22.641
31.2979
91.3203
63.1159
46.6917
18.9039
57.7765
24.9084
70.865
32.1253
41.2517
85.1483
11.4636
24.3514
18.5978
38.3093
22.5793
30.08
51.2466
25.7003
14.1651
16.1171
32.5377
47.6239
53.893
28.6653
53.4966
78.0016
38.9195
65.1526
123.235
105.139
84.2612
22.7079
10.7839
12.3965
22.295
37.8107
43.2852
19.5422
29.9563
12.973
14.9857
24.36
43.9794
50.6806
21.175
35.3693
77.8429
71.8933
68.7576
64.5032
109.859
112.301
72.8887
31.1555
70.1523
66.7055
63.6243
111.094
116.018
88.748
119.551
82.5063
50.9945
98.021
58.9171
91.9745
125.644
120.471
80.5877
48.0135
94.0807
49.4344
90.5794
34.5871
65.4247
70.8126
106.775
34.1765
71.6532
63.7836
36.1197
68.5061
80.0426
108.547
74.2848
39.7852
64.3406
41.3734
50.0764
70.8045
109.856
82.6167
33.6664
61.0969
30.19
71.6388
34.521
46.4604
84.5288
91.1125
41.0789
95.6252
40.8456
85.3265
75.8017
87.866
116.259
125.908
36.697
31.4281
19.3852
43.9683
126.303
81.9264
71.6039
135.42
127.161
95.0055
103.667
67.2836
76.1861
111.079
70.8879
74.1232
36.8958
44.7638
120.184
85.9644
83.5544
57.3818
77.5843
36.3953
58.3547
138.772
107.409
89.2534
61.7455
21.5595
36.3816
44.9038
124.234
75.4463
77.1488
55.2872
27.5807
16.5871
30.9641
110.538
62.0131
55.0696
42.5941
35.3445
20.4667
34.2912
122.911
72.9617
60.9502
37.789
82.4665
77.0445
102.806
98.7895
127.312
147.482
135.235
102.114
55.7147
69.9567
152.576
110.461
117.626
70.4928
146.12
120.722
144.056
115.821
153.196
179.799
80.0667
92.3028
47.8975
63.8443
145.575
112.801
102.002
44.595
151.472
78.2603
82.9525
88.7709
93.7642
38.7483
126.239
184.553
160.24
96.2452
153.111
132.315
116.933
66.0596
142.073
140.809
147.946
113.713
112.924
94.8833
68.9535
99.9164
114.311
155.942
120.211
108.345
61.7664
116.905
147.143
113.943
143.233
174.527
144.148
174.813
74.5327
175.759
135.532
175.005
133.768
177.558
213.2
109.148
138.523
107.346
140.573
167.648
141.116
168.14
95.335
192.443
21.3248
54.3921
120.257
216.585
4.90242
0.0446633
18.8771
59.5305
22.3955
54.3084
88.6666
149.348
92.1312
154.558
9.38033
189.039
113.273
6.84978
54.4544
72.1514
127.488
27.6207
61.5928
77.2482
100.835
162.376
161.726
103.5
28.8497
20.34
26.6853
42.2629
41.129
50.5156
52.6083
20.4674
28.1685
26.2082
43.8919
41.3931
50.4183
52.9128
152.637
162.394
63.1894
82.0535
76.3705
171.519
180.485
7.68194
14.9863
16.8341
12.8283
14.223
29.2462
32.3182
2.44538
11.8061
157.283
156.794
87.23
186.496
151.359
41.1865
53.6714
37.2819
64.5228
88.7235
67.9962
84.0359
51.7856
38.256
36.0419
64.0455
86.4233
83.4088
66.8185
33.9239
37.7771
45.0239
50.8644
60.3418
63.3624
73.5278
213.692
113.665
9.58025
215.639
131.811
242.057
140.815
12.6009
28.5296
20.8191
23.4744
17.309
39.6785
54.1814
156.481
10.8743
1.95795
179.683
83.793
186.181
2.84798
64.264
88.8262
63.5419
75.4015
103.634
76.7046
103.387
151.257
0.0388455
114.069
15.7904
2.37024
9.47543
0.671029
66.6813
89.2976
63.9689
75.9369
107.693
78.7887
104.507
25.855
59.3521
28.3707
96.3964
58.0312
63.5249
104.233
35.7188
79.8868
40.1306
100.683
65.0784
71.6843
110.212
44.8205
74.675
57.3254
94.4007
74.6825
88.5077
108.042
43.1121
36.0005
31.269
71.4047
80.8421
61.3583
125.755
54.528
86.3795
62.7295
106.235
82.3857
93.2715
118.231
75.4282
106.004
100.195
112.313
107.398
132.969
136.892
73.6033
102.789
99.2858
110.747
107.347
134.211
138.572
47.8521
71.8046
34.7399
76.3321
143.022
119.609
99.2693
66.5262
93.5171
49.5991
85.0898
147.754
125.697
106.524
118.133
74.5175
89.2649
116.642
87.0725
102.343
133.774
93.9567
100.74
76.0302
108.744
156.694
128.803
134.781
92.4477
118.092
124.718
148.209
94.9978
114.847
123.674
92.9102
119.156
150.784
128.605
115.721
96.0358
125.219
93.3342
110.895
116.168
117.505
122.173
140.464
147.202
97.0848
110.585
118.672
124.882
132.471
146.98
161.97
249.379
4.07127e-08
0.00193276
0.929217
216.068
0.000219949
1.93471
156.227
128.709
98.2684
106.855
170.099
138.23
140.368
57.9077
175.569
122.759
175.983
113.527
175.308
216.238
73.4196
175.431
133.739
174.08
120.641
174.873
212.505
93.8796
176.691
132.421
177.945
136.793
175.285
214.94
132.838
177.185
215.639
142.463
179.955
95.1947
138.45
141.663
177.646
209.939
135.623
173.779
92.8615
135.189
127.486
174.364
214.451
113.918
175.515
123.274
64.3533
150.542
188.088
180.407
120.186
115.015
146.742
153.175
180.24
172.866
141.57
113.468
108.807
143.962
150.02
178.709
149.9
139.999
112.703
122.811
143.068
153.005
127.829
137.437
110.973
159.768
141.654
169.24
189.514
103.449
130.705
161.034
133.258
143.294
146.806
176.091
160.691
176.117
185.679
130.167
121.176
146.721
156.442
168.204
220.486
200.318
130.532
149.457
164.775
184.931
180.478
214.944
193.439
125.403
145.886
162.002
182.572
214.867
122.075
179.908
182.167
155.218
157.677
144.901
127.43
137.083
104.534
119.815
175.035
141.993
153.226
154.422
125.9
129.775
185.723
185.112
159.369
161.451
155.953
131.837
126.937
199.126
191.81
162.71
168.479
147.749
146.402
117.793
184.746
154.976
186.296
217.583
174.134
140.893
110.772
136.584
124.394
151.249
155.734
165.94
133.908
141.543
184.242
187.131
164.061
171.356
190.446
172.663
140.635
222.4
208.311
177.769
194.245
129.828
184.871
160.88
188.26
164.48
194.999
216.344
215.153
213.691
219.964
181.948
156.144
185.078
212.766
178.8
236.063
207.344
177.529
150.712
181.916
210.329
143.433
171.994
140.268
166.899
55.8572
168.547
123.289
146.09
177.161
142.146
170.41
168.107
175.491
175.678
46.2899
100.742
22.7235
63.9655
95.2454
66.0407
88.4391
148.631
25.9138
30.9835
34.6534
43.6181
47.268
54.2705
58.0351
58.4847
35.1633
45.7157
70.8502
58.9274
71.1959
84.6082
69.3588
44.4012
48.9997
91.9695
70.4667
74.9892
97.1894
64.9986
92.0808
103.172
68.6731
77.4208
81.2867
106.907
76.8419
85.0205
62.4453
90.1634
131.011
114.435
105.05
1.62645
120.441
1.63737
3.46962
3.95508
3.75106
4.32975
1.73974
1.88289
2.45646
1.59438
2.40377
1.73169
2.38222
2.51511
1.66167
2.82224
2.9571
3.15094
3.65576
2.70427
3.38659
3.07931
3.21973
3.16384
3.67897
4.16237
3.08378
3.15783
4.00582
2.93157
3.72409
4.09732
3.22429
2.98087
4.0249
3.17042
2.88137
4.25812
4.25779
3.35922
2.98772
3.24684
4.17721
2.52552
1.82686
2.92526
1.74686
2.59311
2.8125
1.70468
3.82116
3.69084
3.86252
4.01426
3.36991
3.8328
4.0026
4.06312
4.29163
4.32972
4.07926
4.08993
4.05144
4.30506
4.01126
4.11182
3.89009
4.1247
3.9232
3.90082
4.12269
3.5112
3.13824
3.09303
3.52843
2.84708
3.54447
3.50278
3.83642
3.77259
3.86958
4.04783
3.38459
3.88758
4.03154
3.38691
3.58327
3.90832
4.06207
3.26945
3.87157
3.60834
3.38719
3.83242
3.53004
4.07897
3.22088
3.87526
3.6282
3.61968
3.12278
3.24188
3.53676
3.60785
3.5797
3.24723
4.05233
4.31176
3.9991
4.23973
3.99871
4.05004
4.30518
3.97208
4.21812
4.12763
4.2004
4.00474
4.01785
4.21182
3.67652
3.70887
3.49064
3.29302
3.32896
3.71962
3.68428
3.6214
3.14522
3.61516
3.34758
3.58537
3.25595
3.68133
3.66055
3.35125
3.61967
3.26837
3.6272
3.30157
3.67206
3.97573
4.04385
4.13901
4.20538
3.95621
4.00276
4.21479
2.40715
2.51765
2.96352
2.83998
2.8698
2.32255
2.45043
2.37925
2.84109
2.39868
2.81597
2.20621
2.84227
2.42613
2.1199
1.66162
2.30071
1.45762
2.16194
1.41464
2.25608
2.08255
1.36194
2.11456
1.62892
2.02393
1.39184
2.19749
79.223
40.857
17.3839
39.4535
18.0951
87.2563
80.2904
16.168
21.019
19.0198
37.1589
34.4596
38.6407
41.0479
20.5159
16.1017
19.0264
36.3871
34.5239
39.1075
41.3595
36.8846
29.2526
26.8885
50.0347
63.4772
52.3344
61.1856
29.3758
37.5285
27.093
51.1451
67.5177
54.4914
62.9826
56.9776
77.4433
55.1031
60.6504
86.6656
63.2744
83.8636
77.109
57.7134
54.8198
59.7427
85.0372
62.0064
82.8966
74.841
104.716
93.0179
114.376
78.9496
100.087
87.534
113.675
99.7989
74.9805
73.0551
111.716
98.0817
85.1085
121.981
107.194
82.0526
96.3852
138.792
123.536
111.105
120.022
124.162
96.3472
100.892
151.861
125.257
128.321
17.8343
2.38698
7.02351
2.02582
1.49199
2.12028
1.6307
17.6676
7.24793
3.74509
1.78801
2.82975
21.8942
67.5315
9.12214
33.1996
2.0343
1.89733
1.56639
1.49078
2.0885
1.55948
1.85612
2.05936
1.52535
1.69546
2.03896
1.59014
2.22351
1.88048
3.10737
1.86101
2.00299
2.3192
2.09091
2.53482
2.78356
2.29221
1.99256
1.68689
3.46344
1.59293
2.48872
3.18342
3.54353
6.46805
3.34608
8.59744
3.89717
3.02444
7.73117
3.76674
2.84523
1.86014
4.11425
2.14254
2.93189
5.35711
3.54427
8.39235
3.20347
6.48928
3.77622
3.02295
7.75602
2.28217
3.42062
1.58818
1.97325
2.39879
1.57214
3.20243
4.23445
3.19086
2.30006
5.46723
2.43079
6.56695
3.64727
6.26625
4.03036
10.764
12.8217
4.70517
5.3122
15.0329
4.52072
16.0582
7.23086
12.0975
4.99994
10.8824
6.57694
4.55986
11.9999
7.32033
16.2385
4.97378
10.9527
6.68064
5.569
3.90163
2.68663
5.40379
12.7887
8.86512
7.81313
8.3977
8.91241
30.149
15.1889
6.1705
21.1316
12.2743
9.36887
13.205
38.2579
19.9964
15.8089
7.85672
23.2866
13.0333
31.8032
44.8757
51.5839
22.3189
32.3494
19.0672
117.932
161.572
159.815
167.802
144.378
145.877
134.091
249.553
216.29
248.121
84.7966
244.376
178.615
214.373
243.151
243.803
116.685
211.271
245.929
175.88
212.333
215.711
187.264
164.924
81.2657
14.4863
194.996
209.445
22.3007
141.891
191.082
189.564
164.449
169.343
172.572
249.38
175.363
215.961
278.921
251.113
215.033
249.211
175.247
215.565
251.202
251.582
272.628
215.462
251.102
81.3699
212.217
214.078
176.529
213.938
248.645
247.493
154.109
194.702
168.688
86.0194
183.558
196.817
20.7705
248.554
182.558
218.335
9.68323
151.754
219.56
242.487
107.698
145.567
167.702
24.5044
169.587
173.786
11.1032
180.661
216.117
217.39
247.826
241.847
145.812
9.42914
37.0772
27.3446
195.11
200.215
198.275
170.973
170.561
204.812
40.2977
45.7537
216.576
208.486
176.175
183.813
13.0435
199.565
183.539
158.334
184.402
173.085
196.883
193.216
196.125
142.093
14.1135
204.027
171.624
181.965
224.709
10.8199
20.0629
202.093
227.165
196.502
217.898
3.24282
212.95
94.0268
216.743
191.832
143.341
33.5617
6.59595
170.593
28.0752
193.129
2.96234
3.7312
47.6824
1.1129
213.069
31.5873
191.034
214.532
36.8318
2.83577
22.5217
15.4285
2.29773
111.543
162.975
177.885
81.9178
2.09751
47.6632
4.14253
2.03706
6.58712
210.94
232.614
66.94
5.86735
5.91784
194.582
13.6929
200.224
14.5258
275.381
6.27322
3.80554
4.82951
250.558
203.073
275.01
3.59074
3.47034
3.48785
127.536
3.56199
20.3284
244.891
31.6497
12.9704
12.9765
186.462
15.0334
185.886
18.2843
33.7573
4.93296
4.94517
8.13927
205.139
180.93
5.25014
5.57155
5.95401
5.56337
185.307
190.536
37.4803
11.5527
72.6406
4.97184
4.4997
4.47674
71.6953
16.7024
4.49939
8.66064
0.927142
0.95362
239.489
34.9792
2.87978
0.932541
7.63714
6.21968
6.24727
6.43414
129.587
50.6154
6.25099
2.0602
1.95715
1.95837
1.95722
15.286
2.71914
1.95889
1.9345
1.93294
1.93287
15.0975
2.67945
2.02735
1.93364
)
;

boundaryField
{
    ground
    {
        type            zeroGradient;
    }
    outlet
    {
        type            zeroGradient;
    }
    wall
    {
        type            zeroGradient;
    }
    wall2
    {
        type            zeroGradient;
    }
    wall3
    {
        type            zeroGradient;
    }
    internalPatch
    {
        type            internal;
    }
    procBoundary7to4
    {
        type            processor;
        value           nonuniform List<scalar> 
485
(
0.000383121
4.30779e-05
0.00343736
0.00343736
4.88285
4.88285
37.1538
100.477
136.87
136.612
139.256
143.644
130.282
112.438
104.304
102.724
102.398
105.867
113.887
116.015
117.668
117.988
120.687
127.791
143.293
22.3127
8.08353
0.00454868
0.00454868
5.93371e-06
1.17899e-11
1.17899e-11
3.6769e-11
3.6769e-11
0.000195854
0.000195854
2.09583
11.602
177.073
159.436
146.211
141.79
152.173
167.995
191.789
219.181
78.751
0.263764
0.263764
1.37965
14.8862
262.772
228.681
228.681
263.656
28.5541
3.05235
1.1758
12.7131
260.409
228.13
190.674
156.059
128.109
108.327
94.925
85.5973
78.5998
75.425
77.2907
87.2699
112.651
138.116
148.512
173.984
204.398
229.644
7.50347
0.0092247
0.0092247
0.00222392
0.00222392
2.28094
68.9687
68.9687
1.86007
3.27654
13.0353
0.00724693
0.00724693
0.00250672
0.00250672
0.326472
0.00343736
0.00343736
4.88285
4.88285
126.175
126.281
124.503
123.415
125.35
109.738
109.077
111.034
116.926
131.079
129.634
132.604
134.179
135.598
138.508
145.019
158.231
16.1676
7.61111
0.00454868
0.00454868
0.0024819
3.87325e-06
1.17899e-11
1.17899e-11
3.6769e-11
3.6769e-11
2.49167e-05
0.000195854
0.000195854
2.0914
8.75997
189.439
169.758
155.716
171.521
194.992
218.999
29.7118
0.263764
0.263764
1.37868
6.35985
263.292
232.302
232.302
263.668
12.9929
3.04607
1.17186
5.55115
257.755
230.902
194.086
159.605
131.979
112.611
100.283
92.587
87.3456
85.1549
86.5373
96.3252
122.256
146.873
175.876
204.373
56.1729
0.0092247
0.0092247
0.00222392
0.00222392
10.4081
209.265
209.265
188.56
180.151
38.1562
0.00724693
0.00724693
0.00250672
0.00250672
0.326472
0.326472
0.326472
21.867
74.7391
138.188
147.279
149.488
154.028
156.311
156.525
58.885
1.38143
1.38143
0.0024819
0.0024819
0.0024819
9.76452e-05
2.83985e-06
7.62505e-14
7.62505e-14
7.80778e-16
7.80778e-16
3.06331e-09
2.49167e-05
2.49167e-05
2.49167e-05
0.572858
0.572858
181.068
185.964
207.728
64.5231
2.69786
0.00029609
0.00029609
0.0159598
0.0159598
120.1
251.65
251.65
172.539
0.0515518
0.0515518
0.0149617
0.0149617
51.8203
245.694
213.477
178.951
150.456
130.539
118.471
112.393
109.341
108.751
109.732
119.604
147.305
175.487
196.93
2.1638
0.726882
0.42916
0.42916
48.6947
188.56
180.151
179.309
179.309
97.1669
0.131712
0.131712
0.0134924
0.0134924
3.05904
3.05904
62.9483
33.5446
115.126
147.057
121.002
52.7421
15.9832
1.38143
1.38143
0.00184397
9.76452e-05
9.76452e-05
9.76452e-05
2.84051e-06
2.83981e-06
7.62505e-14
7.62505e-14
7.80778e-16
7.80778e-16
2.9965e-09
2.98253e-08
0.000105661
0.000105661
0.572858
0.572858
33.5378
2.13529
0.630867
0.00029609
0.00029609
0.0159598
0.0159598
3.25942
272.435
272.435
4.91139
0.0515518
0.0515518
0.0149617
0.0149617
2.94531
98.0741
241.484
209.15
179.822
158.637
146.101
140.179
137.284
137.229
137.582
165.461
190.32
6.22368
0.729374
0.42916
0.42916
144.435
195.777
201.468
179.582
179.582
195.444
0.131712
0.131712
0.0134924
0.0134924
3.05904
3.05904
5.57483
5.57483
1.10667
1.10667
0.00184397
0.00184397
0.00184397
0.000108474
0.000108474
0.000223758
4.00957e-06
3.98246e-06
8.04095e-13
8.04095e-13
8.04095e-13
7.55068e-08
3.38284e-06
0.252727
6.56752
6.56752
0.253066
6.96789e-06
6.96789e-06
7.37136e-06
7.37136e-06
0.109056
0.109056
66.1205
237.856
212.802
190.798
177.232
170.034
165.888
165.34
191.761
15.9188
4.3268
3.51584
3.51584
3.51584
11.8914
210.838
185.433
185.433
211.398
0.332283
0.332283
0.00392772
0.00392772
5.57483
5.57483
1.10667
1.10667
0.00186746
0.000108474
0.000108474
0.000223758
0.000223758
0.000223758
0.950322
0.0461771
0.0461771
7.21002e-06
8.04095e-13
7.54624e-06
0.252528
0.253171
0.253171
0.252537
6.96789e-06
6.96789e-06
7.37136e-06
7.37136e-06
0.109056
0.109056
1.56204
18.0205
205.671
219.547
208.374
200.558
194.546
21.3585
4.33322
3.51584
2.53943
2.53675
10.7748
217.437
193.031
193.031
219.514
0.332283
0.332283
0.00392772
0.00392772
0.00186746
0.00186746
0.00186746
0.0330823
0.0330823
34.3704
3.05338
243.551
36.4593
0.0461771
0.0461771
0.0461771
7.21002e-06
7.21002e-06
7.54624e-06
7.54624e-06
7.54624e-06
7.55074e-08
3.8324e-06
4.15458e-06
0.00240206
0.00240206
1.54176
7.76456
21.9885
25.8173
5.50178
5.49644
0.749072
1.08233
1.08233
225.62
204.294
204.294
137.345
0.0330823
0.0330823
222.769
222.769
243.551
36.4593
0.0461771
0.0461771
0.0461771
7.21002e-06
7.21002e-06
7.54624e-06
3.98246e-06
4.2396e-06
0.00154643
0.00240206
0.00240206
0.745598
1.08233
1.08233
100.15
9.2218
0.972933
0.00154643
0.00154643
0.00154643
0.000105661
0.000105661
)
;
    }
    procBoundary7to6
    {
        type            processor;
        value           nonuniform List<scalar> 
348
(
0.00155924
1.03396e-05
0.000345164
0.732879
0.62389
21.4601
148.885
129.675
107.708
90.6965
81.9643
79.0806
79.0597
79.2456
79.2456
75.212
75.2678
76.9382
85.2759
93.893
113.708
130.797
103.011
76.6568
48.55
21.9677
8.92029
3.99975
2.19064
1.65428
1.95106
2.80307
3.26225
2.96167
3.44092
3.59903
3.59903
3.98222
4.02459
4.15038
4.19388
4.27501
4.34352
4.3229
4.328
4.328
4.34763
4.28531
4.27425
4.21635
4.19864
4.05762
3.88133
3.55836
3.28892
2.98469
2.57382
2.59676
3.16099
4.76945
8.61062
17.0009
37.1449
72.9118
105.808
112.043
127.79
148.649
170.222
34.1466
6.42237
6.40887
6.42709
37.5657
3.25104
3.24036
3.2452
16.9504
171.97
150.092
107.614
151.314
126.713
102.388
81.633
67.164
59.3144
56.3404
56.033
56.5195
56.5195
53.2774
53.1269
54.8802
62.8074
69.9542
87.3088
62.0796
35.2345
14.7779
6.03309
2.73861
1.64834
1.3235
1.89795
2.58962
2.96374
3.02454
3.59903
3.59903
3.84645
3.80473
3.91041
3.93062
4.03634
4.09124
4.08018
4.09969
4.09969
4.10788
4.0611
4.04468
3.99659
4.07072
3.85736
3.36363
3.12482
2.97424
2.80564
2.50401
2.15141
2.40144
3.27618
5.49178
10.2625
20.6254
44.4949
81.039
100.383
123.668
146.909
169.858
27.4943
170.001
146.326
170.914
14.0984
171.275
148.126
122.876
97.6429
124.534
99.3478
76.6252
58.1289
45.7997
38.738
35.8061
35.2219
35.8242
35.8242
33.0208
32.8083
34.6431
41.6538
47.2465
24.6353
10.1404
4.43154
2.25958
1.59298
1.49675
2.29292
2.31753
2.40521
2.7658
3.39571
3.43754
3.52469
3.54701
3.66799
3.7166
3.71818
3.75707
3.75707
3.75011
3.71232
3.69387
3.60399
3.539
2.82291
2.4787
2.33151
2.19225
1.95932
1.62058
1.76128
2.41711
4.04194
7.42337
14.4554
30.8198
64.7459
95.6268
122.257
146.362
121.556
93.1934
121.27
146.916
121.682
95.8145
68.905
42.4613
72.8778
50.8586
34.4726
24.5124
19.2931
17.097
16.5272
16.9795
16.9795
15.0862
14.9949
16.2913
20.9502
8.4679
3.70051
2.01519
1.5109
1.5362
1.62681
1.74625
2.13793
2.75707
3.26521
3.084
3.17582
3.27715
3.3015
3.31463
3.40106
3.40106
3.38522
3.36626
3.44497
3.18059
2.86917
2.22277
1.79813
1.66157
1.51815
1.3841
1.34127
1.53195
2.10946
3.47413
6.34428
12.2659
25.6832
55.7023
93.3939
53.6676
25.4667
56.8724
94.2599
62.9757
34.4261
18.1562
9.97937
24.5405
14.8635
9.97615
7.72563
6.80189
6.51981
6.70027
6.70027
5.94618
5.98947
6.54018
3.02286
1.82384
1.44629
1.44248
1.43239
1.61098
2.11269
2.52815
2.34056
2.75143
2.808
2.815
2.84058
2.94062
2.94062
2.91522
2.88948
2.41415
2.59895
2.16481
1.69619
1.54056
1.50523
1.46153
1.46245
1.50261
1.66353
2.18323
3.59531
6.56207
12.469
28.6135
14.4464
7.68819
4.31691
2.75423
6.03987
4.20524
3.40974
3.10836
3.02921
3.11604
3.11604
2.80079
2.82676
1.77277
1.75687
1.91832
1.54056
1.73783
1.70677
2.11806
2.48798
2.53275
2.69249
2.69249
2.2338
1.70603
1.70603
2.2338
2.1505
1.91832
1.86828
1.85738
1.92269
2.13477
)
;
    }
}


// ************************************************************************* //
