/*--------------------------------*- C++ -*----------------------------------*\
  =========                 |
  \\      /  F ield         | OpenFOAM: The Open Source CFD Toolbox
   \\    /   O peration     | Website:  https://openfoam.org
    \\  /    A nd           | Version:  9
     \\/     M anipulation  |
\*---------------------------------------------------------------------------*/
FoamFile
{
    format      ascii;
    class       surfaceScalarField;
    location    "0.00345";
    object      phi;
}
// * * * * * * * * * * * * * * * * * * * * * * * * * * * * * * * * * * * * * //

dimensions      [0 3 -1 0 0 0 0];

internalField   nonuniform List<scalar> 
88329
(
-0.434288
-1.10644
-0.27848
1.09589
0.317774
-0.121383
0.87131
1.28991
-0.865562
0.256389
0.926828
1.27566
-0.895058
-0.0660422
-0.264422
-1.09343
-0.0179358
1.13599
0.324937
0.241301
0.860352
0.337419
1.41842
-0.129527
0.198332
-1.35463
-0.120562
-0.0442872
1.36988
0.266643
0.847092
-0.108912
1.39594
0.177965
-0.42735
-1.37803
1.35633
0.928751
1.27144
-0.87943
0.450383
-0.240403
1.16855
0.970986
0.424432
1.1905
-0.0583321
0.959292
0.136738
-0.726863
0.0647924
1.16348
0.778142
-0.725712
1.13278
0.780213
0.331325
-0.146518
-0.658856
1.26799
0.34853
-0.672155
0.0647438
1.28158
0.292352
1.35147
-0.0963168
0.827105
1.44399
0.526637
1.36461
0.482134
0.588893
-0.192665
1.4997
0.40602
-0.165484
1.39117
0.371916
-0.615424
0.0497362
1.38327
0.0291455
1.47361
0.91127
1.27772
-0.894399
-0.11043
1.23586
0.86606
1.20716
0.932882
-0.260902
-0.702868
1.18854
0.744214
-0.720516
1.18002
0.768299
0.275478
-0.678827
1.2777
-0.669229
1.27196
-0.119175
1.34347
0.872497
1.40442
1.34288
-0.6338
0.273601
1.36342
-0.263721
0.631428
1.41558
1.44299
1.34607
-1.22463
-0.0296287
1.2515
0.252353
-0.494678
-0.0617269
0.545808
0.269489
-0.0730998
-0.429485
0.283443
1.10702
-0.50375
0.146103
0.551071
-0.276441
0.201595
1.12921
0.328009
1.23143
-0.446243
0.142648
-0.218756
0.195654
1.23967
-0.353303
-0.0912731
0.303329
1.4793
-0.11545
0.331986
-0.0647866
1.48859
0.288063
-0.37658
1.34878
0.133732
-1.45782
0.146491
0.171295
1.45622
0.119046
0.186426
1.34906
-1.11405
-0.286106
0.329043
1.11739
-0.363735
-0.496944
0.536671
-0.50561
0.54868
1.22456
0.373249
-0.456027
-0.438368
-1.20464
-0.233102
1.18629
-0.234463
1.21821
-0.455532
-0.396248
1.32506
0.373804
-0.437214
-1.29313
1.27111
-1.42029
0.16878
1.40899
-0.366743
0.406449
1.31437
-0.15179
0.24329
-1.74481
0.0512333
1.90722
0.0721235
-1.68919
1.90102
0.0373408
-0.331949
0.218873
0.0448662
0.0349248
-1.28544
0.00440806
1.53734
0.280103
-0.118849
0.212972
-1.47368
-0.0164515
1.68169
0.291833
0.136715
-0.473432
1.1784
-0.0874195
-1.7034
-0.241036
-0.428414
0.325146
2.01402
-1.80978
-0.410004
-0.415455
2.12138
-0.032214
-0.460142
1.4106
-1.58709
0.0736656
-0.396552
0.00578784
1.88709
-1.62894
-0.0835479
-0.425776
0.161691
1.93792
0.233248
-0.928345
-0.18688
-0.455154
1.06314
-0.854328
-0.437722
0.2764
1.01964
1.08232
-0.337506
-0.0261228
-0.802336
0.393082
0.300321
0.0642934
-1.64441
0.0613374
0.0181574
1.80893
0.0407348
-1.55453
-0.0935612
0.077895
1.71433
0.161977
-0.0065515
0.192903
-1.15376
-0.122113
-0.0045532
1.43823
0.299545
-0.261315
-0.0548855
1.36807
0.330208
0.326587
-1.10982
-0.023413
1.39985
0.314992
-0.00646919
-0.284318
-0.869377
0.264378
-1.03894
-0.235678
0.197826
1.35156
0.302885
-0.320732
-0.774376
0.196837
0.374261
1.07404
-0.272339
-0.866252
0.218144
-0.171479
0.222785
1.36605
-0.231529
0.00161494
-0.943562
0.246794
-1.21468
0.00330383
1.48427
0.287792
0.00254403
-0.166697
-1.03507
0.242886
-1.18008
0.107103
-0.0369581
0.247831
1.43055
0.223616
-0.164442
-1.03213
0.232805
1.11962
-0.941602
0.228288
0.239303
1.39269
-1.37462
-0.00410355
1.60393
0.282779
-0.0945016
-0.000379673
0.242715
-0.0115173
-0.0188778
0.252107
-1.24898
0.0340795
0.249842
1.47661
-0.101374
0.232842
1.33621
-0.0335424
0.226118
0.110157
0.244013
1.53895
-0.653605
0.667826
-0.0673466
-0.569368
0.558589
0.267221
0.374896
-0.973798
-0.0138303
0.238063
0.88611
-0.312628
0.808983
-0.963772
0.407019
0.810671
-0.930594
-0.808664
-0.118486
0.861606
0.29908
-0.830309
0.377676
-0.396371
-0.379215
0.0464104
-1.61068
-0.507339
0.942008
0.125863
-0.0802688
0.822241
1.18993
-0.424672
-1.00808
0.354005
1.01104
-0.483376
0.732715
0.526588
0.507814
-0.701912
0.908429
-0.522856
0.226092
0.897615
-0.939502
-0.261065
-0.753384
-0.179592
0.653931
0.314594
-0.122681
0.737679
0.294324
0.745795
-0.799555
0.0251913
0.790517
-0.0835403
0.717286
0.574897
-0.996211
-0.236926
0.381738
1.05789
-0.227961
0.395872
-0.128285
0.997839
0.314721
0.970343
1.10002
-0.0663054
0.999393
-0.113891
0.81158
0.0541967
1.04002
0.0514011
0.907075
-1.24249
-0.682694
0.815173
0.385762
0.542967
-0.0441164
-0.267791
-0.384454
-0.0626808
-0.264656
1.04106
-0.815703
1.27982
-0.550344
-0.133329
-0.721758
0.912974
-0.765667
0.850624
0.925816
1.1378
-0.0293002
1.0705
1.159
-0.239789
0.757925
1.09812
0.79846
1.07543
-0.218912
0.998102
0.955808
-0.0367334
-0.441397
0.478341
0.260789
-0.706489
-0.429616
0.16577
0.456835
-0.562368
0.111415
0.531455
-0.755064
-0.0164539
-0.411875
0.241285
-0.0511155
-0.592202
0.252367
0.778297
-0.595413
0.14056
-0.408307
0.191853
-0.859165
-0.0116465
0.235084
-0.576311
-0.0471603
0.249806
-0.0553227
0.260012
0.991655
0.580789
0.145215
0.37258
0.202193
0.879147
0.146389
0.200786
0.522382
-0.32759
-0.561249
-0.796819
-0.364324
0.805079
0.374254
-0.267267
0.407636
-0.756628
-0.408241
0.784664
0.418316
-0.550947
0.489585
0.808915
-0.587958
-0.398324
0.864065
-1.00664
0.366985
1.02614
-0.348865
0.569648
0.579694
-0.908274
-0.413623
-0.339297
0.89937
0.939378
0.303141
1.04585
-0.257783
-0.406896
0.972748
0.315411
1.00495
0.350579
0.416815
-0.208876
1.30854
0.273935
-0.176732
1.27088
0.239545
0.445358
-0.147653
1.31977
-0.117357
1.28398
-1.57921
-0.034774
1.76709
0.307422
0.068789
-0.0245705
0.264908
-0.0426347
0.282528
-0.0479566
1.52535
0.20164
1.42878
0.217322
0.197716
0.234822
1.61059
0.218528
-0.466455
1.11615
-0.211571
1.08985
1.14682
-0.158623
-0.480057
0.0608657
-0.00215392
1.33966
0.0881891
-0.0236818
1.37751
0.466838
1.34317
1.30688
1.21292
-0.103945
-0.487125
0.0553687
1.38113
0.0405597
1.42049
-0.474474
1.25478
-0.0321654
1.2955
-0.0423651
0.487347
0.110886
1.4798
0.118552
1.43788
-0.471888
1.33062
-0.0313791
1.46554
1.37917
0.1913
0.482733
1.54518
-0.470487
-0.191003
1.56659
1.61692
1.49877
-1.69335
0.0561551
1.85791
0.0579826
-0.0262418
-0.0214235
0.106471
0.215006
-0.0142336
0.0592591
0.227072
1.69323
0.0142082
0.0671184
0.2382
-0.0627591
0.150085
0.228999
1.91593
1.65791
0.0922534
0.225463
0.0210751
0.224923
1.87607
-0.180638
-0.0379721
0.249255
0.182813
-1.598
0.0671934
1.76037
0.0204065
-0.0303947
0.201778
-1.60199
-0.100678
0.210675
0.176708
1.80286
-0.168324
0.176808
0.243958
1.62738
0.203886
0.217407
1.83833
-1.80159
0.0456857
0.339171
1.95809
0.0839055
0.148497
-0.010541
0.237841
-0.013777
0.242539
0.249196
1.73342
0.150024
0.243721
0.240685
0.229557
1.95864
1.78258
0.237625
0.241493
0.335477
0.226294
2.00582
0.11395
-0.42541
-0.0422098
-1.57942
-0.377833
0.154599
1.8695
-0.396814
0.187475
-1.59908
-0.0926228
1.84847
0.171579
-0.1435
0.218919
1.61179
-0.0696114
-0.0123274
1.87401
-0.0274552
-0.462856
0.0956721
-1.60464
-0.413928
1.91044
-0.448147
1.65917
-0.00380637
0.0792515
-0.0698414
0.153747
1.93582
1.63232
1.90345
-0.0343298
-0.43532
0.20888
2.11303
1.92727
-0.343255
0.26993
-0.439745
2.06349
0.0961193
-1.86316
0.039961
2.01071
0.0918727
-0.0225656
0.259601
1.8393
0.233343
0.219142
2.05779
-0.163651
-0.47081
0.236855
-1.66051
-0.43009
1.97182
-0.470594
1.69283
0.155439
0.239604
1.97325
1.73778
0.236515
0.329281
2.01794
-0.453179
-0.317655
1.85001
-0.32358
-0.42397
2.12807
-1.75306
-0.421656
2.06407
-0.465135
1.79055
2.06987
-0.510667
0.162941
2.25523
-0.112115
-0.0137611
0.0180648
-0.157265
-0.0153997
0.0117414
-1.13454e-05
4.09907e-05
-0.000238586
-0.000307855
-0.000236279
-0.000185971
-1.13839e-05
-1.08381e-05
-1.15554e-05
-1.16765e-05
-1.24178e-05
-1.21629e-05
-1.16495e-05
-0.25978
-0.506222
0.40439
2.49514
-2.73672
0.554473
0.452963
-0.366293
-0.519
2.7365
-0.317343
0.164615
2.15227
0.412409
-0.109028
-2.6921
-0.61812
0.533428
-0.510422
2.6485
-0.612493
-2.84073
0.426496
-0.333464
2.75107
-0.269224
-0.307905
0.414322
2.35422
0.404503
2.64419
-2.82952
-0.583457
-0.609216
-0.479326
0.734567
1.21287
-1.12123
-1.24507
1.19591
-0.871586
1.1319
0.696434
0.992284
-1.13353
1.03599
-0.55084
-0.862386
-1.07108
0.694636
0.991705
-0.917217
0.864339
0.713432
-1.10068
0.808027
0.17075
1.57278
-1.99202
-1.83067
1.93459
-0.769493
-0.422708
-1.56394
0.507961
0.0744595
1.37251
0.541868
2.30549
1.06214
-0.616644
-0.102878
-0.752124
2.125
0.767554
-0.199907
-1.37584
-1.19067
0.392144
1.27099
0.253047
-2.09495
-1.0963
1.89423
-2.23288
-0.35168
2.04391
0.117108
0.63267
-2.32781
-0.495174
0.412102
-0.768527
-2.25133
-0.478053
-1.74995
0.712603
-0.180907
-1.09187
-1.52151
0.510447
1.37057
-1.44807
-1.49612
1.44765
-0.111423
-1.3565
0.384786
1.33114
-1.96788
1.85892
1.39927
0.235095
-2.00207
-1.70462
0.248067
-2.06097
-1.33903
-1.38845
0.459136
-1.42256
0.511631
-1.47176
2.28954
0.972712
0.411417
0.848048
-0.581278
0.68542
-0.312129
1.84328
0.297721
1.2402
-0.541958
-0.0828997
0.980295
-0.391607
-1.66101
-0.85649
0.730623
-0.453217
1.023
1.96778
0.604229
-1.43412
1.13185
0.389373
-1.6022
0.475846
-1.24891
-1.42845
0.604872
1.3737
1.07995
0.719937
-1.39721
0.600024
-1.43556
0.805578
-0.599864
-0.894728
0.860675
0.636812
0.98376
-1.00264
-1.09421
0.614015
1.06653
-1.01086
-1.15447
1.02229
-0.653405
-1.03492
-0.855196
0.786044
0.636014
-0.935096
-1.19405
0.377418
0.612929
-1.17837
-1.02938
-1.10637
-0.779227
0.664832
1.09575
-0.977883
0.92674
-1.086
1.12519
-0.618212
-0.915272
0.807621
1.04968
-1.04102
1.09476
0.65619
-1.23726
-0.986047
1.14028
-0.753891
-0.837348
0.916918
-1.11928
-0.785139
0.78661
-1.03966
-1.27568
0.341239
1.07426
-0.947835
-1.17008
0.847784
0.331277
0.830725
1.34158
-0.194985
-0.856794
-1.00629
0.622429
0.668344
-0.724824
0.085087
0.72499
-1.14132
-1.12417
0.720389
1.16717
0.941482
-1.24048
-0.854737
0.66858
0.886028
0.949201
0.740948
-1.22606
1.15299
-0.805313
0.944767
-1.13437
0.816539
-1.27193
0.172441
-0.85662
-9.74723
8.84245
-0.0140719
-0.328032
-2.21996
-0.00637418
2.12953
0.0458233
0.360139
-7.14638
-0.312075
6.88902
-0.21154
0.344036
-6.96921
0.106128
-0.243014
6.44942
7.15034
0.215154
-0.196764
0.791549
7.33823
-0.352966
-0.160588
0.35193
0.860977
0.252979
10.3289
-1.44385
-0.766282
9.24643
-1.30701
0.917582
8.96775
1.14864
-0.182678
0.211995
-0.540204
-9.06605
-1.00231
-9.58276
0.0565041
0.0330057
0.0501015
0.0207006
2.23266
2.22385
2.21646
2.21909
0.131521
-9.12068
-0.678801
8.66282
0.243171
-1.07699
-10.0993
0.0168655
-0.738451
8.57388
0.355241
-9.87415
-0.48837
-9.26264
8.66764
1.20834
0.340407
-0.563834
-8.77576
0.0620876
-0.295217
-2.34373
2.25652
-0.175732
0.222457
0.0578739
-2.032
-0.066237
1.95884
-2.298
2.30155
-0.168974
-0.353045
0.179212
-0.74585
0.267105
0.291502
0.273075
0.292231
-0.000161579
-0.0389996
-0.0202995
-0.00253792
2.05753
2.10496
2.03823
2.09609
-9.53437
2.31134
2.35508
2.33152
2.34632
0.0956159
0.141028
0.119914
0.116169
-0.479961
-8.53096
2.13225
2.08177
2.1211
2.08951
0.287746
0.273708
0.272164
0.282641
0.385995
0.363916
-7.01706
-0.395803
-0.308352
6.31547
7.77245
0.216605
0.0683031
-0.20136
-7.82496
0.143933
-7.66847
0.174576
0.142719
0.149875
-0.218839
1.81997
1.78227
1.83469
1.78018
-0.120381
-0.0844091
-7.33321
0.0194132
0.437429
0.0161261
7.40672
-7.7862
0.195501
-0.095975
-7.14716
0.454652
9.69547
-1.42999
-0.496729
1.21554
-8.79502
0.564862
-0.472205
-0.36318
-0.710548
-1.17957
2.32033
2.26482
2.28846
0.820972
-0.665252
8.52566
-0.540312
0.786336
-0.501962
-0.587073
-0.447399
-0.432145
0.661543
0.0392857
2.20793
0.357377
-0.034539
-0.255496
-2.2439
-0.337852
-2.27315
-0.0390894
2.19619
-2.16402
0.0223784
-0.278151
-0.0385228
2.08334
-0.345784
-0.0682572
-2.27023
0.0736629
-0.246712
-2.20645
0.0486039
0.00886165
-0.291181
2.13959
-0.0631657
-2.31636
-0.0288226
2.25182
0.31969
-0.307164
-2.32452
2.22794
-2.28432
0.00740536
2.20746
-0.316607
0.0555102
2.17119
0.0245851
2.12106
-0.183391
-2.10155
0.0335781
-0.051306
2.0319
0.229151
-2.04228
1.98202
0.175119
-0.00308818
-0.0018101
0.026474
2.07015
0.100316
-2.27157
0.376445
-0.358951
-0.12629
0.132461
-0.363242
2.33601
2.23801
-0.141052
0.157687
0.116075
0.375741
-7.0706
-0.29049
6.74348
8.00936
-0.169959
0.0383263
-8.00412
0.0970775
-8.15391
7.81997
-0.0534411
0.117949
-7.18214
0.359549
7.74708
-8.17602
-7.12416
0.395744
-7.77314
0.425621
0.215239
-0.332911
-0.23346
-0.243918
0.211109
0.794206
-0.146788
7.12275
-0.268692
0.834502
-0.545921
7.73138
0.57014
-0.397241
0.433364
-0.198096
0.788668
10.0568
-1.4776
1.23433
-9.10172
-0.227551
-0.456144
0.297127
-1.22195
0.244871
9.35398
-0.502762
-0.568917
-0.399816
-7.96854
-0.213688
0.207341
-0.238662
0.176773
0.721995
-0.151433
7.08883
0.790488
0.235711
8.15718
0.745963
-0.315786
-0.0240268
-2.17829
2.08653
-0.684708
0.446562
-7.35772
-0.533151
6.56609
1.08631
-1.49528
1.08861
-7.51685
-1.94294
6.76243
0.323601
-0.694207
-8.19922
-0.635352
7.32504
7.77004
0.242312
-0.143341
0.856332
0.173643
7.65427
-0.0721597
0.0154914
-0.114982
0.993895
8.87416
-1.18951
0.829613
-0.648701
8.37057
-0.452756
0.538247
8.46155
-0.357675
0.862425
-0.338332
0.183812
-8.56125
-0.162191
0.209553
-0.0789866
-2.03222
1.9456
-0.0436126
0.0301984
-0.245538
-2.13717
1.99401
-2.23322
2.24996
-0.331186
0.189137
-0.651904
-0.387786
-0.00664522
0.0799284
0.0725798
0.0180058
0.215769
0.212628
0.21943
0.195251
1.90874
1.93649
1.93004
1.94805
-0.382142
-8.46835
2.11039
2.07911
2.10841
2.0875
0.243125
0.250256
0.247015
0.245259
0.477143
-8.67492
2.15932
2.16409
2.15272
2.16986
-0.128996
-0.178188
-0.16389
-0.141611
0.691269
-7.67599
-1.11851
6.85131
8.20573
-0.0723998
-0.0955266
-0.0554408
-8.39483
-0.397853
-7.88704
0.171801
0.133276
0.132425
1.84143
1.80758
1.84328
1.81472
-0.106545
-0.121187
-7.75382
0.277976
-0.710081
7.33141
-8.01814
-0.389861
-8.13245
-0.179278
8.43575
0.70182
0.00228251
-0.44382
-8.63226
-0.769202
-8.55871
0.0633158
-0.0223053
-0.0146956
1.97082
1.94224
1.95835
1.92563
0.715771
-8.08499
-0.874265
-0.940109
7.17785
-0.350329
-0.620974
-8.43209
0.0935329
-0.792652
7.46141
-8.64942
-0.526306
-8.43618
-0.231897
8.63904
-1.06884
0.998782
-0.66331
0.911908
-8.44413
-0.334056
0.553253
-1.06811
0.858783
2.20738
2.21373
2.18587
8.42093
0.80363
-0.484757
-0.368545
0.825903
-0.458655
0.764863
2.1235
-0.045523
0.305801
-0.217451
0.0365811
-2.15441
-0.0552241
-2.13109
-0.262695
2.03882
-0.306421
-2.15555
-0.0265577
2.0263
-0.330768
0.0739815
-2.22444
-0.245926
-0.05832
1.99627
-0.228292
-2.16953
0.0649496
-2.19774
2.0833
-0.0248181
-0.15489
-0.0695461
-2.08487
2.00124
0.203486
-2.03973
1.93527
0.158299
-0.00494817
1.97517
2.12515
0.0303102
0.258714
-0.27906
-2.14993
2.01306
0.0641382
-2.11351
1.97282
-0.225914
-0.0498005
1.98306
-0.118333
-2.16521
0.319062
-0.341095
0.140118
2.19453
0.167073
-0.315631
2.21311
1.49301
-7.00098
-1.58577
-2.60985
6.44483
8.16561
-0.348782
-0.403594
-8.51491
1.13825
-7.76259
-1.33683
7.03062
0.73236
0.84617
-7.33675
-1.12831
-1.68542
7.23436
-8.20897
-0.691195
-7.98865
-0.921894
-0.368688
-8.30155
0.147961
0.170893
-0.234767
0.0593085
0.678119
-0.105846
8.15644
0.130428
0.532955
7.92204
0.557427
0.411409
-0.0664106
0.343966
-0.945035
8.32572
0.846653
8.52979
-0.947339
0.784782
-8.54555
0.408623
-0.360619
-0.721223
-0.697303
0.547135
-0.465882
-0.425547
0.232749
-0.364094
8.22414
0.271075
-8.46396
0.0606104
-0.131262
0.310859
0.259761
-0.513122
-0.718893
0.00832831
8.0834
0.183249
-0.118606
-0.131903
0.0707555
0.307192
0.975811
-3.90591
-1.37228
4.03112
2.78969
0.613365
-0.525613
0.82116
-0.722661
-0.229151
2.68434
-0.594369
0.606065
0.300803
0.618133
-2.83789
-0.71596
0.367471
2.82914
0.653764
4.37147
0.0503343
0.113086
-1.0998
0.414483
4.52007
-0.172129
-0.448203
0.161612
1.10396
-5.08885
-0.355051
0.627474
-1.90969
5.48342
0.252485
-5.26101
-1.19864
-0.49601
1.29071
5.64571
-5.24034
-1.19185
1.24373
5.70048
-0.277117
-0.824412
-4.83156
0.871699
-0.863506
-0.392547
-4.84837
0.938713
-0.461493
-4.48128
-0.905006
4.7968
-4.49927
-0.647613
-0.871218
4.76602
-0.489661
-4.13794
-0.633344
-0.614212
-4.16526
-0.633104
-5.24608
-0.952963
1.12819
5.63067
0.857398
-0.249923
-4.69643
0.525988
-1.62721
-0.710579
-4.84031
0.864694
1.02878
-4.62969
-1.62997
4.93754
-4.5776
-0.616466
4.83098
-0.918398
-4.236
-0.443148
-4.26452
0.00974324
-1.46556
-0.123753
4.50921
0.0918969
3.83627
-0.562859
-0.0148038
-0.367965
-0.493647
0.528748
-0.527262
-0.418897
0.578618
-0.516012
-0.338159
-3.85289
-0.57887
-0.351272
-0.584794
-0.0434061
0.557095
-3.66801
-0.715907
3.75209
0.329289
-2.93127
0.299154
2.92068
-3.69677
3.83786
0.217774
-0.617126
-2.85459
0.394952
-0.558605
-3.46329
-0.206078
-0.665866
-3.47606
-0.650169
-2.80872
0.384235
4.49593
-0.141939
0.200488
0.710331
-0.146829
0.370712
-1.30342
-0.44205
0.562613
-3.88609
-0.801937
-0.217352
0.742789
3.8868
0.267377
-1.06937
0.0389005
0.120677
-1.24297
0.839431
-2.99311
0.748703
-1.04362
2.97808
0.0974629
-2.84378
0.491931
2.82286
-3.74623
3.81876
-0.0425045
-0.861398
-3.55351
0.740399
-0.319431
-2.94742
0.728347
-0.914597
-2.82063
0.486662
-3.67843
-1.20411
3.20721
-0.599118
0.0221846
-0.611992
0.478105
-0.567663
-0.0204347
-3.22112
-0.637473
2.66379
-0.215715
-0.59
0.585323
-0.621055
0.452866
-0.611174
0.10754
-3.27962
-0.789601
0.676953
-0.403927
0.752557
-0.816481
2.68389
-0.30877
0.651002
0.717013
3.36803
-0.938922
0.537244
-1.0751
-1.48938
1.70724
-6.4674
-2.86362
6.13145
-0.481807
-0.868697
-7.60702
7.12248
1.23495
-0.945477
1.24411
-5.7553
-2.33076
5.99083
1.1569
-0.000108676
-5.94761
6.37137
0.445075
0.200703
4.8479
-1.0126
0.183918
0.0698408
6.03915
-0.179164
-0.710898
-0.430571
0.438749
7.09618
-0.215941
0.265139
0.228038
-0.00767207
5.23612
-0.222124
7.0423
0.589538
0.275759
-0.373622
-7.03162
-0.858635
-1.10526
-7.52577
-0.782305
7.09146
-0.251588
-7.13226
-1.03496
7.02528
-0.480471
-0.322936
-7.91632
-0.568512
-1.20631
6.92844
-0.523641
-7.87044
-7.10416
-0.694863
1.55591
-6.07573
-2.6734
6.02372
6.75305
0.919213
-0.964827
-0.988445
-6.69445
-1.37093
-7.24017
6.783
0.988506
-1.14069
-6.58308
-2.09559
-1.31786
6.57287
-7.48895
-1.00727
-6.00512
-2.0596
0.673982
7.88385
-0.355165
-0.705172
7.14595
0.476914
7.89682
0.00197199
0.346006
-0.262085
-0.321341
-0.54529
0.276391
-0.402495
-0.114307
6.58718
0.115938
-0.940109
-0.19736
-6.23073
-0.0236282
-6.63981
6.7186
1.26098
-5.93395
-0.266051
6.25079
0.844368
-0.0972516
-5.50368
-0.275727
6.61579
-6.27484
-0.181949
-5.49802
1.1156
-5.42656
-2.10517
5.80633
6.31546
-0.949597
-0.808905
-5.99819
1.23756
-5.78688
6.08693
0.761319
0.794247
-5.11848
-1.7022
6.34557
-5.41151
-5.54932
-1.84155
-0.174662
6.77755
0.0439144
0.209238
6.86035
-0.443998
7.63803
0.332964
-0.53654
-0.543064
0.48614
-0.677367
-1.22879
-0.676089
-1.3785
-0.134322
5.25774
0.218079
6.13682
-0.140087
6.18945
0.185018
-0.532497
-0.190543
0.431469
-0.19584
-0.234893
0.12836
5.10565
0.270715
5.37419
-0.904953
5.86363
-0.604077
-0.50659
0.577634
0.551461
-1.32142
-1.33073
0.169792
2.10504
-0.225831
-0.116655
-0.311952
2.25851
0.409365
2.20689
0.274039
-0.21927
0.311436
0.378432
2.48235
-0.286716
-0.291569
0.375873
0.376526
2.62593
-0.280304
0.308672
0.473369
2.55711
-0.286957
0.476521
0.376506
2.65897
0.161828
2.20186
-0.10718
-0.511698
2.38207
2.31766
0.264252
-0.571254
0.322936
2.61816
-0.2975
0.312517
2.59003
-0.288927
0.581946
0.381265
2.68726
0.389813
2.70645
0.417023
2.29477
-0.21583
-0.304796
2.42647
0.399049
2.36564
-0.215211
-0.487766
0.375632
2.78902
-0.274892
0.375232
2.72011
-0.275918
0.489277
0.479752
2.74789
0.481619
2.80926
0.410027
2.4221
-0.499514
2.57082
2.49552
0.589357
0.491371
2.76825
-0.494337
-0.592148
2.82576
2.77776
2.82212
-0.0189091
-0.0293962
0.0394687
0.0190333
-0.314845
0.025274
-0.273723
-0.406467
0.325705
-2.52879
0.434889
1.65006
-0.373561
-0.368058
-2.40324
0.398157
0.394171
1.30432
-0.00692808
0.0143104
-0.014971
-0.130827
0.0069678
-0.23962
-0.444436
-2.41041
0.434511
0.284117
1.19729
0.00615632
-0.00659891
-0.00547458
-0.0596757
-0.537466
-0.515958
1.92734
0.478493
0.437703
-0.343953
-0.440426
-2.75873
0.44645
0.579536
-0.35935
2.73569
0.43998
0.530697
-0.342851
-2.72717
0.545663
0.536916
-0.516575
2.7139
0.481127
0.533202
-0.442193
2.75046
0.53677
0.526733
0.532271
0.567733
2.71528
-0.627132
0.493016
-0.460222
-2.71202
0.53847
-0.513884
2.68473
0.486373
-0.449067
0.63254
2.74873
0.523672
-2.74559
-0.615899
0.553401
2.65064
0.522149
0.558692
2.68748
-2.78964
0.436346
-0.346329
2.74446
-0.593171
0.428504
-0.328334
0.435974
-0.337683
0.582852
2.80281
0.535021
-2.84506
-0.600198
0.51884
2.73199
0.529982
0.525533
2.72555
0.634311
0.573714
2.80292
-0.566691
-0.632312
-2.79348
-0.613017
2.65275
-2.84183
-0.590412
2.69558
2.69776
-0.321966
0.400301
0.377418
1.84722
-0.377746
-1.56723
-0.404152
-0.246521
0.302782
-2.53233
0.447479
1.71367
-1.42299e-05
-8.50504e-06
-8.44502e-05
1.05004e-05
1.57872e-05
-1.61223
-0.209108
0.266336
0.322328
1.85735
-0.314247
-0.424461
-0.118306
0.184173
-2.5987
0.470112
1.89272
-1.44658e-05
4.7963e-06
-0.000101576
-1.11389e-06
1.59619e-05
-0.6442
0.698378
-0.629502
2.18245
0.688174
-1.81795
-2.11564
0.560247
-0.495491
-0.591059
0.889873
0.486285
-3.24609e-05
-4.31456e-05
3.41105e-05
3.02307e-05
-0.000196396
-0.000153788
-0.000146483
-0.000117482
0.085994
0.223229
-0.0167808
1.93194
-0.199389
1.92165
-0.431885
-2.61814
-0.0819259
0.470219
0.150624
-1.45361e-05
1.00167e-05
-9.22262e-05
-4.93716e-06
1.59791e-05
0.62402
-1.23827
2.42883
-0.529439
1.37414
-2.10662
-0.0240581
0.00261842
0.00236437
-0.00232827
-0.00534096
0.00178177
-7.89527e-06
-1.84369e-05
6.97112e-06
8.57323e-06
-2.96767e-05
-2.68579e-05
-2.77293e-05
-2.66506e-05
0.330407
-2.71514
-0.244703
0.615014
-0.538743
2.73957
-1.67392
0.149514
0.247874
1.89907
-0.233226
0.0143591
0.0723795
-2.7278
0.59681
-0.534761
2.76319
-0.0248227
2.72522
-0.691468
-2.7574
0.10957
-0.123098
-1.83011
-0.307067
0.198757
0.410253
2.09515
0.351631
2.65977
-0.7367
-0.272258
-2.69801
-1.80317
-0.358537
-0.269188
0.335293
0.434574
2.05629
-2.7329
0.101832
0.589164
-0.532615
2.76595
-0.277711
-2.74187
0.563508
-0.521646
2.75272
-0.0580271
0.139067
0.188597
2.01436
-0.146825
2.74188
-0.674083
-2.7759
0.0617709
-0.294383
0.408517
-0.0426962
2.12339
-0.627468
-0.240622
-2.82995
2.76108
-0.417453
-0.128694
2.31338
-2.70566
0.415556
0.616803
-0.537178
2.72138
0.662228
-0.58198
-2.66072
0.608593
-0.526264
2.63608
-0.518607
-0.49014
1.97882
0.543077
0.576746
-1.64227
2.62665
-0.74722
-2.67283
0.428461
-0.429154
-0.396947
0.482942
0.452204
2.02682
-1.76475
0.647288
2.49587
-0.757927
-0.575674
-2.61289
-0.542013
0.593943
-0.554904
2.12666
-1.82195
-0.70882
-0.841743
2.37711
0.938125
-1.90033
0.787999
-0.807184
-0.544222
2.28246
0.628971
0.904283
-1.78041
-0.643659
-0.522732
2.09966
0.594783
0.720087
-1.6809
0.875005
-2.45769
-0.706369
-0.833877
0.754228
2.38656
-0.503802
-0.882422
-2.57031
0.577768
0.942057
-2.63207
0.6028
0.739627
-0.52153
2.5947
2.43041
-0.753302
-2.58614
0.716088
0.815338
-1.58086
0.234685
-0.362864
1.86113
-0.314159
-1.59783
0.390044
-0.354061
1.85514
-0.88501
-0.339366
-0.334191
0.951347
0.362059
-1.06378
-0.377405
-0.222696
1.09643
0.390404
-0.397203
-1.06022
-0.108617
0.458805
1.31545
0.29916
-0.509821
-1.0436
-0.109026
1.25747
0.205965
0.545576
-0.222818
-1.48044
0.124095
0.276805
1.64072
-0.092516
-0.324719
-1.41277
0.207121
1.58637
-0.208214
0.367743
1.0687
0.451037
-0.0517398
-0.74981
0.342061
-0.0889115
1.34018
0.32534
-0.0770615
0.505922
-0.73738
0.370722
-1.01907
0.374804
0.168926
1.34486
0.425631
-0.739368
0.170114
1.0113
0.468461
-0.756918
0.140146
0.447889
0.144197
1.34191
-1.04988
-0.113461
1.28919
0.256034
-0.54706
-0.174414
-0.851881
0.385663
0.581847
-0.117447
-0.776598
0.383661
-0.503298
1.04349
-0.921914
0.0371269
0.536602
1.01696
-0.815737
0.0959078
0.510741
0.111661
1.33691
0.070456
1.32671
0.561725
1.06831
0.327805
1.94185
-0.963813
-0.270887
-0.83193
-0.484828
0.738645
0.398175
-0.282563
0.4292
-0.632692
0.547667
0.629099
-0.110752
0.293009
0.760446
-0.157655
1.19354
-0.800092
-0.257861
-1.2242
-0.0966745
0.221327
-0.312341
0.86594
2.18434
0.394651
0.360726
-0.828187
-0.321539
0.814955
0.300851
-1.92842
-0.153281
1.13239
0.303531
1.76073
1.1384
-0.283857
-1.05539
1.50076
0.209737
1.08332
1.82881
0.325401
-0.983897
-0.011
-0.776079
1.07142
0.82964
-0.0876542
-0.652724
-0.229113
0.672672
-0.132074
-0.0111923
-0.636287
1.04269
-0.699118
1.32755
-0.14053
0.0743849
0.820039
0.69684
-0.955672
1.13159
0.919455
1.55256
-0.935924
-0.485309
-0.465542
0.690761
0.513134
-0.304629
0.401048
-0.285418
-0.486218
0.828882
-0.282296
0.729839
0.81581
2.1982
-0.16278
0.347141
2.08777
-0.222922
2.03726
0.366458
0.224475
0.592058
1.8511
-0.153159
0.568906
0.250141
1.71519
-0.197835
0.156945
1.38716
1.61766
-0.158675
-1.61135
0.0413788
0.882209
0.76598
-0.395171
-0.312909
0.85682
2.10087
1.89772
0.475715
1.46261
1.08557
0.658307
-0.178664
0.347189
-0.497456
-0.0987549
0.512014
0.324272
-0.0637534
0.287826
-0.464084
-0.727433
0.464703
0.093059
-0.691028
0.132446
0.488396
0.0375496
0.379183
-0.0533466
0.5216
-0.148329
0.372857
0.838163
-0.408234
0.545275
0.302267
-0.223263
0.444911
0.525203
-0.451461
-0.928379
-0.0517745
0.432433
-0.80854
0.0350112
0.255643
-0.181208
-0.312905
0.160933
-0.919494
-0.270897
0.313157
0.232105
-0.1537
-0.0268965
0.0705644
-0.421023
-0.810896
0.399424
0.809252
-0.75284
0.770739
0.386783
0.234154
-1.06407
-0.195455
0.965789
-0.0168597
0.116208
0.228142
-0.0119744
-0.36272
-1.05887
0.994276
0.327303
-0.918911
0.899452
0.106233
0.0527745
-0.37192
0.936185
0.388858
0.982571
0.977529
0.419547
0.386865
0.342574
1.30785
0.303694
1.26852
0.360047
0.411168
1.31481
0.363173
1.27439
-0.287205
1.01074
-0.446166
1.0648
0.470926
0.98528
0.322118
0.469343
1.32428
-0.414182
-0.269038
1.32779
0.46152
1.29273
1.34106
0.522925
-1.5151
0.094295
-0.041992
-0.311571
-0.0243846
0.367077
0.115563
-0.0392753
0.15644
-1.58172
0.247573
0.207242
1.77232
0.317677
0.151199
1.56452
0.388169
0.139822
0.31155
0.215674
1.7461
-1.44716
0.162567
-0.150379
-0.414222
0.0384992
-0.00153413
0.450943
0.0032965
0.0626644
0.450568
1.54527
0.136016
-1.51974
-0.368085
0.258248
1.69481
0.417348
0.138265
0.500389
0.232997
1.7209
0.265049
-0.367094
-1.58891
-0.356151
1.85826
-0.343215
0.344128
-1.59382
0.248668
0.29639
1.59318
0.375284
0.322026
1.81706
0.417862
-0.318575
-1.60565
-0.357633
1.84721
0.459632
-0.294486
0.485175
0.448484
1.59124
-1.58302
-0.389861
1.78464
0.450198
0.512281
0.59767
-0.719694
-1.01215
0.707681
1.06323
-1.46564
-0.128396
1.09042
1.10794
-1.68029
0.0358023
-1.54294
1.56287
-0.15945
1.67354
1.41273
0.40603
-1.86701
1.85839
-0.377975
0.718395
1.24692
-2.25893
-0.692463
2.20103
0.866753
0.632292
-2.27075
-0.715932
2.19658
2.22047
0.503748
1.19385
-0.482688
2.28467
-0.611723
1.12906
0.388465
-1.8706
-0.580908
1.07669
1.73669
-0.675847
-1.7739
0.778726
1.58477
-2.31145
2.17792
-0.651913
0.836906
-2.33922
0.979565
-0.673289
-2.28367
0.520294
-0.623245
-1.94933
1.24906
-1.90856
1.00424
1.06771
-2.23053
2.18726
0.596155
-1.91915
1.61097
-0.510448
1.90378
-1.92481
1.35087
1.84297
0.642955
1.21654
-2.26625
-0.621663
1.10887
-2.23448
-0.582534
-1.94158
1.45648
-1.91772
1.63966
-0.443124
-0.628989
0.992544
2.22791
1.10777
-0.568306
1.05911
-0.625373
0.601038
-1.93916
-0.610265
1.40402
1.94179
-0.610181
1.42906
1.23458
-0.594177
1.55257
0.563806
1.1867
-0.547233
2.18203
1.11068
1.10693
-1.9116
-0.531724
1.56161
0.432838
1.84833
1.71294
-0.310089
1.67928
1.69611
-0.365455
-1.0281
-1.19084
0.250598
0.83643
1.24482
-0.117037
-1.49306
-0.230117
1.39585
-1.28717
1.1891
1.23344
0.138501
-0.396249
-1.60388
0.374215
-0.889621
-1.00912
0.669496
-0.0133446
-1.22126
0.871227
-1.45023
0.373215
-1.71544
-0.362185
1.75142
-1.37846
-1.38655
1.16367
1.46018
-1.62972
1.60361
0.240964
-1.71409
-1.47019
1.60979
-0.280685
1.50375
-0.461988
-1.66422
-1.3792
1.26641
-1.69213
-0.38935
1.55967
-0.457894
1.30112
-1.65382
-0.363347
1.46531
1.45117
0.331814
-1.65083
-0.484867
0.107526
-1.18586
0.77436
-0.22373
1.12118
-0.51577
0.364913
-1.78451
1.72091
-0.356215
1.39566
-1.78554
1.71443
1.65237
-1.66232
-0.483223
0.490616
1.6343
-0.301577
1.49209
-0.375661
-0.0360267
2.03527
0.112628
0.203239
1.9714
-0.169968
2.0746
0.0453796
0.286784
0.0420088
0.371161
0.0321157
2.32884
-0.356958
0.349163
0.119184
2.35896
-0.335592
-0.0193631
0.102545
0.397013
2.4784
0.0588212
0.412089
2.44163
-0.714455
-1.287
0.802001
2.39908
1.4121
-2.24239
-0.665415
0.754745
-1.03049
2.42282
1.15604
-1.99594
-0.575344
-1.01142
2.41014
1.13214
-1.93244
-0.415867
1.48055
-1.01653
-2.26485
0.459415
0.969405
0.695589
-1.98095
-0.492781
-0.825719
0.690224
0.467657
1.91898
-2.39208
-0.676206
0.896258
0.714013
-0.47619
2.11465
-0.988682
-2.46153
0.539462
1.01688
0.282958
1.87449
-0.274425
0.182419
2.00269
1.9774
0.245692
0.329952
0.102738
0.395901
2.30925
-0.378158
0.425427
0.172534
2.30257
-0.401537
-0.131496
0.199915
0.459509
2.40103
0.432336
2.41515
0.36153
1.8474
-0.348605
0.304762
1.95734
1.94155
0.360172
0.391323
-0.241762
0.48213
0.308158
2.32251
-0.440348
0.454927
2.3071
-0.422696
0.268719
0.48943
2.39663
0.335565
0.520452
2.4014
0.177456
2.05898
-0.129202
-0.130692
2.16039
0.278243
2.11681
0.282498
-0.200235
0.319283
2.43664
-0.301613
0.33212
2.39491
-0.317028
0.189491
0.386976
2.52975
0.380219
2.59136
0.412821
1.93283
-1.67158
-0.435799
1.9331
0.465132
0.469188
-1.65424
1.85961
0.432791
-0.400418
-1.55754
0.376047
0.507024
2.34796
-0.454509
0.527925
0.449639
2.38814
-0.465171
0.399841
0.553057
2.43241
0.467617
0.583177
2.47183
0.420041
2.07426
0.203147
2.17542
-0.122797
2.16083
0.279899
0.524733
-0.155432
0.2284
2.54354
0.171347
-0.505964
-0.0893484
2.6457
0.249457
2.62769
-0.077811
2.56099
-0.0397551
2.19761
-0.411487
2.23049
0.0439597
2.1597
0.0407181
-0.00515829
0.489464
0.0916092
2.62016
-0.494643
-0.00277499
2.67123
2.58694
0.0867158
2.7033
0.455096
2.03964
0.353105
2.14883
2.13602
0.421639
0.547485
0.297888
2.53095
-0.324326