/*--------------------------------*- C++ -*----------------------------------*\
  =========                 |
  \\      /  F ield         | OpenFOAM: The Open Source CFD Toolbox
   \\    /   O peration     | Website:  https://openfoam.org
    \\  /    A nd           | Version:  9
     \\/     M anipulation  |
\*---------------------------------------------------------------------------*/
FoamFile
{
    format      ascii;
    class       volScalarField;
    location    "0.0022";
    object      impulseMax;
}
// * * * * * * * * * * * * * * * * * * * * * * * * * * * * * * * * * * * * * //

dimensions      [1 -1 -1 0 0 0 0];

internalField   nonuniform List<scalar> 
18182
(
113.673
131.295
124.358
68.6936
76.5285
110.511
73.0404
83.5685
96.6582
5.53436
0.202703
0.00213277
130.236
92.5728
135.427
112.089
78.6833
42.5077
78.657
47.703
34.5871
24.2336
27.2103
11.6333
37.2795
91.6072
113.038
106.913
164.564
118.565
129.057
91.7336
154.031
96.1473
105.854
66.1448
126.246
77.7274
140.792
80.4791
57.3765
56.291
110.958
64.9439
67.3779
47.4009
95.2839
49.7881
52.6004
32.421
67.8192
39.33
80.4161
43.6792
34.4039
26.7065
57.9211
28.1977
38.4575
22.1106
50.3929
32.9709
23.5129
21.9339
45.6668
19.5145
45.394
36.3947
107.003
32.3697
66.7298
89.5196
54.9085
58.5969
45.3899
73.0817
71.8598
64.1692
422.165
103.857
368.383
98.7728
268.134
86.9726
162.61
40.5181
60.6727
11.5544
190.14
219.047
401.022
182.347
176.47
164.772
100.44
159.991
178.836
170.658
323.008
160.23
139.98
147.207
91.3172
128.178
150.643
100.19
197.902
104.385
37.884
67.0341
54.8804
19.3837
192.055
121.964
84.3671
9.5603
75.2744
34.2225
1.08223
2.39141
9.23288
0.166896
131.409
155.803
79.0619
103.654
155.678
78.8723
131.681
119.923
149.478
79.1057
97.0498
124.179
145.338
78.9229
70.6812
121.496
68.0906
79.7615
90.3352
105.854
56.9197
5.87427
41.6521
15.1814
27.959
13.7869
25.4867
7.68298
87.19
32.5217
72.5922
35.7589
12.3836
14.3457
0.0861691
31.8712
5.11724
298.359
469.631
206.882
189.75
467.147
206.726
298.321
293.601
185.778
441.658
201.361
455.137
203.565
288.007
129.37
102.04
152.186
78.6642
153.672
78.3276
127.279
270.356
427.119
198.228
174.257
280.595
409.621
193.354
257.876
167.947
365.758
177.478
389.317
186.565
243.049
113.814
94.5417
132.265
74.7706
139.724
77.888
104.555
202.062
337.899
164.937
138.346
224.787
305.286
148.355
174.589
122.9
227.288
102.486
267.941
127.238
143.94
48.2723
68.7436
62.3784
26.9647
85.1729
42.1484
27.9653
218.226
238.872
218.789
161.559
268.366
199.329
178.987
349.176
345.322
433.469
279.018
179.113
139.079
148.587
120.907
170.344
147.428
146.899
276.233
164.947
220.597
208.259
87.7882
186.493
77.3462
65.6542
113.801
149.473
55.8689
65.9479
49.231
86.9966
22.9443
117.212
38.1436
46.1922
2.10341
17.5351
5.69809
1.19317
13.653
3.32838
0.624457
83.9878
41.8094
20.9205
105.06
29.7231
60.8928
47.8349
0.209901
0.00120456
0.0850537
12.756
0.0191232
0.0784932
0.00029745
28.2809
23.2042
54.0409
10.1994
10.2388
30.8353
2.85407
6.24424e-06
34.193
0.00286762
286.088
274.785
266.07
216.929
196.283
132.702
187.39
137.16
115.1
90.5053
101.109
108.696
182.498
128.078
131.735
117.638
164.246
201.827
213.04
288.219
201.159
213.954
168.142
156.431
282.277
188.026
205.19
196.353
210.158
146.56
119.397
177.85
198.222
253.889
134.387
162.925
188.503
102.453
236.553
124.591
160.262
144.012
175.424
85.8476
58.4226
106.289
143.602
174.792
70.798
90.4626
125.977
49.5273
153.113
69.514
92.8958
78.5513
108.547
43.4116
36.5697
62.5624
80.3508
101.697
39.1168
57.4658
71.5426
37.0604
93.1231
59.3914
67.3772
55.0234
66.6041
43.0464
238.79
215.93
235.665
165.559
263.061
197.583
206.738
217.41
149.375
169.037
167.784
181.733
185.052
197.984
108.799
105.266
81.696
102.6
89.7122
122.884
86.2056
151.263
151.317
119.381
176.544
141.582
160.488
136.596
119.16
0.659602
0.605828
37.926
120.84
100.427
92.2211
40.7921
0.0055919
28.1728
0.00111582
3.18994
6.01178e-05
0.0233112
3.21166e-06
4.78354
8.97731e-05
4.43642e-08
5.57957e-07
72.8248
80.8305
65.8663
76.3951
8.08337
0.20416
6.10761
0.134428
60.4204
60.5164
31.0572
19.4829
4.82198
0.0447201
18.5828
12.4756
0.810601
0.566726
0.273625
0.0332087
0.00965949
0.00236736
8.08406
0.0057372
0.187677
0.00132004
48.0236
0.579747
4.39845
33.3073
43.5253
0.374984
2.74521
28.2778
0.12318
0.722945
8.18004
3.31164
0.239873
0.0811886
0.133634
0.0229251
0.000461947
0.0701885
0.00482178
0.00134927
0.000124959
0.000495633
9.48367e-05
3.9718e-05
0.000709985
0.000139452
7.28964e-06
9.04302e-06
0.00988377
0.00289167
0.000303629
0.00295355
0.000162932
112.926
79.9222
88.2204
71.7708
79.6224
86.7276
113.829
110.197
69.4477
78.2673
78.1453
78.9285
83.2567
106.57
1.03652
1.55131
6.32504
7.69246
1.42468
5.86106
1.14437
0.840181
7.0599
0.967534
3.7956
1.228
4.98291
0.59761
94.859
76.4507
71.1265
52.9677
101.53
73.2122
61.955
85.365
43.0952
58.9125
35.8425
67.8272
50.128
71.636
0.191135
0.675248
2.5209
3.35625
0.366711
0.404728
1.42343
33.7559
45.7714
20.9385
8.40786
53.6234
30.1671
8.75321
16.6263
2.75117
6.95572
0.614474
16.1479
2.42526
6.10453
0.637089
2.64864
0.184956
0.0974606
1.9347
0.984102
0.0600734
0.205229
0.0328056
0.112718
0.00502051
0.354038
0.0184583
0.057676
0.796117
12.4053
0.920434
4.23081
1.72296
7.69221
0.392709
0.0632684
0.076971
0.0107877
0.00237038
0.146385
0.031686
0.0046109
55.1278
18.6508
39.6087
53.4849
17.5564
25.725
27.1646
37.7923
8.82193
21.9474
29.4218
5.29328
8.1705
13.4639
3.71348
0.281703
0.891646
0.901001
0.0752382
0.0736365
0.314238
0.016157
0.00191867
0.00803037
0.00512237
0.000662349
0.000441429
0.00131074
1.50142
0.454851
1.35406
0.140663
0.117978
0.0291393
0.30647
3.02749e-05
2.69598e-06
1.72776e-06
1.56304e-05
5.14989e-06
7.45636e-07
3.92526e-07
0.00182895
6.69907e-05
7.57371e-05
5.48387e-06
37.1083
44.7131
12.3899
49.974
15.4193
22.7979
18.5629
14.9839
10.5153
0.923726
19.9445
2.50888
3.75331
1.20545
0.239421
0.0534466
0.00586129
0.208896
0.0198132
0.0169136
0.0043752
0.00252543
0.000418496
5.87547e-05
0.00157011
0.000195221
0.000129268
4.35988e-05
0.0378952
0.00109026
0.00082693
0.0125703
0.00979447
0.00257698
0.000236987
0.0334109
0.000312627
0.000166517
0.00350106
0.0190971
0.000209817
0.000111021
0.00433713
7.94816e-05
4.2531e-05
0.000224279
0.000138921
1.89771e-05
1.29678e-05
4.45606e-05
4.18072e-06
2.46201e-06
1.83978e-05
1.03482e-05
9.26105e-07
5.87174e-07
2.31423e-06
1.28278e-07
1.22107e-07
3.14592e-07
4.71151e-07
1.53017e-08
3.0573e-08
7.83807e-06
1.75551e-06
8.98166e-08
3.34348e-09
2.43611e-05
0.0348823
0.0130006
1.88039
0.000186149
0.10783
3.25289
0.00524585
0.000914904
0.0185269
0.000259475
0.358553
36.7071
115.966
76.2494
16.3466
1.62301
0.0027858
0.00010638
2.11099e-06
3.82026e-05
0.00122304
7.74553e-05
0.524164
1.46547
0.00060044
13.0466
0.285363
0.832945
0.00028661
0.0554459
0.190568
0.000181505
0.430385
0.00437214
0.0178624
9.15833e-05
0.000236667
0.000143658
1.87685e-05
0.000754768
5.19571e-05
3.36307e-05
3.71149e-06
1.184e-05
8.02476e-06
9.29402e-07
2.70362e-05
3.42362e-06
2.12568e-06
3.72475e-07
2.76137e-06
0.000531551
0.000176565
2.94739e-05
1.33483e-05
2.31482e-05
1.73467e-06
7.38745e-06
3.34201e-06
1.66488e-06
1.66453e-07
9.25156e-10
2.97222e-07
7.07587e-09
5.10585e-08
1.2942e-09
2.51155e-09
6.35663e-11
9.52222e-11
2.46667e-12
1.99664e-11
4.04907e-13
1.33733e-08
3.17701e-10
7.36848e-12
1.44913e-13
9.55975e-05
3.64914e-05
3.41478e-06
1.14265e-06
1.33876e-06
4.84878e-08
1.6015e-09
4.85103e-11
1.33502e-12
1.98876e-14
362.273
281.278
306.905
301.961
332.017
278.525
291.214
303.03
269.448
6.01291e-08
5.31335e-08
1.73343e-09
1.3988e-08
4.59572e-10
1.74249e-09
4.41096e-11
1.26617e-10
3.15595e-12
3.76397e-11
8.35644e-13
1.34508e-06
3.38875e-07
6.77271e-08
4.68688e-09
1.54406e-09
220.587
0.000304745
8.52675e-05
0.0176889
3.48787
0.000371182
0.491162
0.00202462
0.000133569
1.77036e-05
1.21686e-06
224.718
222.713
168.122
134.746
80.763
24.6439
0.184685
0.00878535
0.000459952
0.000110665
94.1272
44.6333
69.7411
56.9843
71.7545
56.9536
68.925
42.678
37.1716
652.718
549.156
877.889
710.03
459.288
648.096
1052.42
942.597
1025.28
829.162
1102.66
891.838
975.078
1573.01
1535.06
1642.66
1463.85
991.9
771.51
764.566
852.371
830.607
915.841
926.276
1498.64
1306.15
1389.23
1414.76
766.873
696.705
782.824
580.557
852.136
622.956
704.005
1188.2
1207.88
1312.99
1090.22
898.258
790.798
581.679
321.68
132.311
503.936
829.286
471.065
451.7
637.19
368.202
336.432
388.477
228.129
183.029
889.02
776.566
1032.32
898.18
778.076
1026.6
892.679
757.061
689.471
921.489
745.564
799.442
650.343
873.851
537.884
506.491
695.238
521.562
599.122
454.527
624.471
257.599
283.702
368.036
261.56
321.204
233.579
290.198
73.88
15.0948
727.968
640.519
576.042
504.699
641.093
574.63
730.22
1405.3
1623.95
1604.88
1420.19
1151.48
893.554
887.564
1162.31
862.037
865.439
721.484
960.252
751.004
994.839
832.666
706.988
488.871
595.939
544.481
619.53
560.966
683.333
1351.46
1471.3
1541.89
1291.56
1108.54
825.414
858.768
1060.97
621.031
570.347
524.473
427.844
656.221
538.602
497.612
1171.94
1401.78
1232.46
1333.8
966.508
792.625
1015.15
757.117
707.374
692.967
554.909
758.98
604.03
818.146
654.865
580.113
399.162
460.517
433.245
500.773
466.379
537.212
1107.1
1182.16
1261.95
1034.81
913.535
671.737
717.387
853.832
442.422
420.55
397.739
302.249
492.151
377.741
358.009
854.522
1089.19
950.931
980.507
705.761
618.481
784.654
557.528
468.826
456.074
340.646
455.685
398.337
544.182
394.005
386.306
265.519
284.805
264.793
331.758
312.828
326.207
748.632
726.518
859.088
634.893
618.971
417.668
489.98
526.16
416.256
590.903
520.597
465.394
208.423
215.693
169.361
182.945
196.324
229.476
169.37
326.84
263.856
358.079
245.203
37.3037
130.573
52.0116
49.4271
123.073
35.9936
70.9403
779.084
723.596
653.582
563.628
500.69
788.392
705.312
605.922
511.177
428.782
317.455
273.884
227.789
690.802
569.98
462.652
658.834
431.477
413.632
333.932
304.558
214.53
597.989
501.141
515.086
587.206
596.957
531.737
529.275
579.867
507.464
514.272
548.388
479.872
467.23
442.11
335.067
589.501
459.62
590.799
465.229
467.004
594.468
580.487
576.968
450.679
443.909
550.574
459.899
574.238
554.991
494.201
423.511
528.263
391.952
529.288
397.703
497.741
453.975
363.622
336.223
421.838
366.358
459.941
416.621
349.224
308.542
384.752
274.729
382.34
282.133
347.303
318.687
244.312
236.239
271.003
258.342
309.02
289.747
0.0002612
1.64181e-06
3.22043e-06
2.26967e-07
9.40296e-07
0.00020634
0.000144241
4.3371e-05
4.02886e-05
1.87247e-06
2.54601e-06
7.48497e-07
1.49207e-07
5.46628e-08
3.57626e-09
1.48465e-06
5.01861e-08
7.2821e-08
473.94
1059.45
164.35
44.0305
0.305349
0.000223523
6.60705e-05
4.30782e-06
5.86486e-07
438.512
945.422
164.245
27.0674
0.122909
7.40692e-05
1.22001e-06
1.36359e-06
9.94028e-08
306.277
700.923
137.435
1.43335
0.00443332
4.85615e-06
3.23478e-09
7.08841e-08
3.63444e-09
110.337
369.389
25.9999
0.00138422
3.87768e-06
4.4176e-08
3.10386e-09
1.12032e-09
7.06386e-11
0.295817
132.466
0.0219108
5.75952
9.51543e-07
6.7584e-05
1.65482e-09
4.72721e-08
0.000157913
8.94171
2.56093e-06
0.00125482
9.24242e-09
2.10346e-07
901.847
866.039
867.846
760.416
941.115
301.184
463.379
883.547
294.334
1000.1
983.673
920.989
123.614
164.068
119.711
2.16673
1.86573
0.0509586
38.8884
1.46601
1.39038
0.02199
0.00379652
0.00691266
0.000577259
0.180727
0.00167143
0.00294324
0.000345008
790.354
677.786
852.517
286.538
401.551
700.455
274.939
775.005
109.147
157.386
87.4865
1.09578
0.465401
0.012169
11.6606
0.190765
0.022656
0.000804728
0.000904099
0.00153412
0.000141039
0.0145292
4.69126e-05
0.000237718
3.94905e-05
560.25
454.992
373.723
632.571
349.337
206.592
405.24
273.483
452.636
429.256
49.9054
87.817
9.41964
0.0661409
0.00111406
0.000320628
0.0446696
0.000485765
8.94339e-05
5.3062e-05
1.25855e-05
5.33151e-05
5.46601e-06
2.82363e-05
2.17487e-07
4.90843e-06
4.24629e-07
326.615
334.691
260.295
238.553
330.598
161.621
54.9348
184.94
10.7384
353.486
201.123
192.483
0.320376
1.28905
0.000492474
6.77064e-05
2.3255e-05
5.29677e-06
3.98596e-06
1.64607e-06
8.51705e-07
1.61504e-07
7.02658e-08
1.98195e-07
3.15284e-08
3.00888e-06
2.81049e-05
2.85125e-08
9.78833e-08
3.6029
0.000122809
0.000674662
0.00028163
0.00893213
2.29785e-05
6.08618e-05
14.4026
0.00134011
0.0100451
0.0183912
0.16605
6.55085e-05
0.00103966
179.328
2.03811
153.832
0.4131
63.4704
0.000206533
0.0863228
1.30856e-06
9.19782e-05
2.94938e-07
268.302
266.378
232.827
127.801
131.322
172.781
229.254
121.577
125.974
258.199
220.66
219.03
56.2882
111.873
119.033
197.032
57.0442
86.1231
166.89
82.586
126.52
1.73758
44.5334
9.38451
42.0878
0.223771
5.64968
15.9466
1.05952
1.32859
0.000224527
0.0845749
0.00111976
0.019447
5.8648e-05
0.00023225
1247.27
1099.92
1207.73
1045.91
1089.07
1193.28
1261.71
164.103
209.168
207.946
96.7861
141.273
140.248
97.158
0.0186565
0.0353317
0.192345
0.279531
0.0320283
0.174465
0.0207538
1086.83
969.681
1099.95
899.885
1134.09
919.594
1059.9
205.386
161.973
203.501
100.454
138.837
99.6544
138.131
0.00295632
0.0118177
0.0634174
0.0728346
0.00594401
0.00635093
0.0338882
798.787
718.735
868.494
622.594
887.092
641.213
780.876
117.635
182.156
165.665
86.8456
130.058
95.765
122.78
2.38708e-05
0.000285296
0.00154154
0.00104608
0.000105931
6.39065e-05
0.000341743
350.715
382.423
447.145
296.572
460.902
305.566
338.842
4.26758
60.5743
20.1996
5.96248
58.3881
20.8548
30.8017
2.1242e-08
2.16797e-07
1.12753e-06
5.59574e-07
8.19617e-08
4.53173e-08
1.62083e-07
0.00283172
64.1712
0.257922
114.706
25.9558
33.9993
0.115072
134.907
33.2905
71.1848
43.9534
69.0024
0.233658
12.4329
0.259401
8.44658
0.417043
1.99375
0.744392
3.58929
0.130688
3.82095e-08
3.57933e-08
1.09282e-06
3.31753e-05
4.63994e-08
4.10144e-06
1.47306e-07
0.000255665
1.89753e-07
8.10948e-07
8.50726e-06
2.64808e-05
3.8957e-07
1.14181e-06
875.823
791.288
1059.58
930.144
783.34
1048.29
884.591
298.781
452.603
449.596
719.13
287.384
284.104
729.046
1334.85
1676.75
1649.56
1354.83
858.706
908.258
746.002
1003.03
767.453
1026.64
836.899
442.344
290.371
433.547
699.303
271.355
277.702
676.102
1293.43
1540.94
1596.11
1245.61
1219.81
1072.07
1148.85
997.525
1065.22
1140.4
1231.59
1922.96
1902.38
1868.13
1957.73
1872.62
1783.23
1759.45
1902.21
1212.44
1016.88
1014.85
1132.98
1054.67
1164.25
1174.78
1183.78
961.089
988.087
1067.53
1029.03
1105.24
1145.35
1847.55
1730.73
1800.89
1765.82
1798.9
1610.36
1689.36
1716.35
122.358
146.755
146.242
92.0703
93.6476
92.9525
91.974
206.432
164.656
205.812
96.9889
138.968
139.204
98.2392
145.073
115.576
143.529
93.2513
90.5458
92.1146
95.1912
9.0334
12.0076
1.5738
2.01399
11.5672
1.44384
9.6021
7.97288
1.78342
9.83816
0.908865
10.9066
1.20942
6.47953
0.00206875
0.00385119
0.00238586
0.00336456
0.0034497
0.00209542
0.00233314
0.0147558
0.236208
0.0188209
0.101495
0.0261217
0.14174
0.0101021
0.0015883
0.00257646
0.00182735
0.000987985
0.00270433
0.00157116
0.00103411
780.144
717.75
977.102
812.783
811.141
682.839
943.156
423.455
281.733
411.201
630.376
265.867
653.548
260.681
1159.03
1495.1
1202.44
1445.9
742.602
762.307
590.848
840.842
641.403
897.998
696.683
395.446
375.073
265.217
604.695
247.067
254.73
574.234
1111.59
1321.38
1389.65
1055.7
1629.61
1672.7
1696.48
1613.95
1028.46
842.505
791.185
943.034
859.26
1006.97
962.833
1558.01
1470.96
1548.87
1475.53
140.444
100.015
135.307
95.8317
87.0918
96.3423
81.1756
199.313
149.702
192.577
100.458
133.954
136.574
99.4772
70.7722
127.438
115.351
93.0966
58.8964
72.0361
87.2141
3.02607
8.29459
0.603742
0.728886
4.73661
6.39583
0.348198
1.62134
0.414715
2.36878
0.0654637
4.32267
0.168522
0.687359
0.00026103
0.00105363
0.000516947
0.000406192
0.000568859
0.000514821
0.000220567
0.0012232
0.0362596
0.00101545
0.00541219
0.00284255
0.0152676
0.000403341
0.000101445
0.000150999
6.81917e-05
2.49918e-05
0.00020838
7.96777e-05
3.17737e-05
575.663
533.385
773.28
559.759
641.288
471.358
693.996
316.29
251.42
231.54
489.969
236.501
536.805
221.255
896.435
1232.9
985.106
1119.95
499.467
483.069
338.403
500.43
405.618
602.924
412.483
220.378
202.879
162.721
431.675
168.911
199.568
359.286
790.07
828.419
984.952
664.362
1246.84
1372.03
1373.52
1245.91
696.78
538.927
468.276
565.2
556.329
679.582
580.636
669.11
506.348
457.493
513.112
541.934
613.983
558.773
1097.4
924.035
1096.07
926.052
1043.79
808.351
956.897
881.002
27.5069
97.1016
71.3222
58.903
41.8846
76.4753
23.5094
139.658
102.433
51.6496
69.9567
87.1407
109.325
45.5525
1.5043
40.9426
14.9553
35.8165
1.68789
8.68286
14.638
0.0543219
0.950012
0.01963
0.0167578
0.221141
0.259094
0.00460287
0.0101449
0.00319781
0.00781429
0.000120219
0.0503949
0.000823475
0.00152798
1.91144e-06
1.81088e-05
6.21765e-06
3.12689e-06
7.87436e-06
3.94368e-06
1.86065e-06
3.80217e-06
0.000189533
1.61559e-06
8.52027e-06
1.11234e-05
5.89145e-05
6.91369e-07
3.02115e-07
7.6888e-07
1.12957e-07
1.29246e-07
6.86184e-07
3.87813e-07
6.90572e-08
242.302
274.388
395.635
266.757
323.288
220.995
299.899
106.154
65.9876
113.427
194.503
128.821
276.904
85.3063
381.107
656.444
523.349
485.548
177.986
220.175
152.708
164.708
182.483
222.466
130.81
31.9578
62.3962
31.044
124.233
23.1539
48.9556
71.8907
254.935
208.98
332.855
154.338
342.407
375.406
411.404
284.461
445.922
300.672
319.223
556.569
735.106
739.49
547.979
539.083
652.566
707.138
504.778
260.61
241.59
203.228
184.21
245.919
250.278
193.357
258.19
230.685
200.17
190.693
241.993
245.704
195.364
393.292
243.234
379.842
260.7
390.973
269.592
376.842
269.647
0.021738
0.176537
2.58612
0.513665
0.241222
3.20901
0.0368632
7.14658
0.0985535
0.627097
1.24164
3.24329
11.9987
0.244413
0.00704873
0.0452147
0.0030819
0.092056
0.00107363
0.00626086
0.0166317
2.69344e-05
0.00109909
1.57812e-05
9.80675e-06
0.000189756
0.000160325
2.23676e-06
4.15864e-06
1.60927e-06
4.61419e-06
2.53244e-07
2.50364e-05
3.67105e-07
7.5305e-07
1.03739e-08
2.30894e-08
3.31668e-08
7.63071e-08
1.17804e-08
3.32445e-08
2.59357e-08
6.66292e-08
2.215e-07
6.8296e-06
4.46116e-07
3.18103e-07
5.16311e-08
1.06207e-06
1.47363e-07
1.37108e-06
1.51978e-05
4.60038e-06
7.13498e-07
2.95254e-07
2.41915e-06
0.0293447
1.72877
0.228379
1.05729
0.104993
0.454671
0.0669497
0.00177431
0.0126744
0.000319383
0.000228446
0.00589072
0.00400374
0.000103629
0.506025
11.6513
1.91974
8.67172
1.28768
6.06581
0.838885
0.0166909
0.0243782
0.00280748
0.000464298
0.0477328
0.0079249
0.00101932
0.0347162
0.149305
0.00578633
0.00405274
0.0915533
0.0607564
0.00222176
0.0316923
0.000629847
4.67427e-06
0.00880738
1.00374e-05
8.92087e-07
0.000155021
3.84948e-08
3.81522e-08
9.51803e-07
1.02418e-08
6.91853e-10
15.998
0.000369279
6.79147e-08
0.00191914
3.59581e-07
0.00719724
0.0152661
0.00453107
0.00151135
0.000552976
0.883471
0.0010792
0.0121374
0.301368
6.50348e-05
0.00657009
3.00086e-06
0.00637753
6.19208e-06
0.000154138
0.00207038
5.77999e-07
1.51228e-05
4.00825e-05
7.21583e-05
2.6176e-07
1.47452e-06
0.0136065
0.237257
0.00169208
0.141626
0.243329
0.0193066
0.0283292
0.220065
0.0171331
0.158131
0.0210981
0.0824362
0.0046362
0.00424133
0.0437913
0.0439083
0.00209048
0.0002012
0.00199609
6.52634e-05
3.95386e-05
0.000800905
0.00052249
1.82733e-05
1.43314e-06
1.27583e-05
3.86486e-07
3.84669e-07
4.74507e-06
4.21564e-06
1.53088e-07
1.12136
15.4708
2.37267
10.3881
2.35587
10.1836
1.10412
0.000371615
1.67409e-06
1.32626e-06
3.98482e-05
2.87865e-05
1.626e-06
1.27293e-06
0.11147
0.0223838
0.131455
0.00851215
0.180616
0.0131288
0.0755432
0.00857018
0.00169544
0.00686624
0.000247466
0.0192885
0.000784028
0.00278464
0.0827019
1.94599
0.0801953
0.249316
0.201664
0.662129
0.0291727
0.00219227
0.0252295
0.0763105
0.0829888
0.00847015
0.0067934
0.0203973
5.21758e-05
1.02968e-05
4.02827e-05
1.36607e-06
0.000136846
4.32601e-06
1.45071e-05
0.000555882
0.0219671
0.00052893
0.0015226
0.00180426
0.00531956
0.000154793
1.52724e-05
0.000170406
0.000487345
0.000690254
5.06345e-05
5.50627e-05
0.000157335
9.13224e-07
2.08473e-06
4.5165e-05
6.80131e-06
3.32944e-06
4.67235e-07
7.9059e-06
5.0649e-06
0.000209353
3.84467e-05
1.49619e-05
1.81799e-05
4.53031e-05
7.08095e-06
0.0870499
0.1943
0.0145255
0.00567616
0.20065
0.0824969
0.00617564
85.4607
16.9124
10.7755
62.0989
5.63734
24.8551
37.2189
101.603
39.9407
16.0459
114.011
22.1424
56.0265
46.8984
34.4246
129.688
50.3377
46.1788
124.346
28.9763
64.9835
42.3341
83.3881
81.6041
27.9646
59.3466
58.1533
29.2397
0.000144674
0.0104564
0.00749584
0.00554273
0.000136007
0.00233761
8.48264e-05
5.59093e-06
3.16461e-06
3.81807e-05
0.000559982
2.25781e-05
0.000267096
1.41742e-05
19.4676
64.4135
54.2796
12.0631
46.7625
17.1736
39.4813
0.000982588
2.1039e-05
0.00138856
0.00122373
3.79579e-05
0.00015324
1.19555e-05
1.57194e-05
3.28229e-07
4.30771e-06
8.26034e-05
5.06777e-06
2.47943e-05
1.43313e-06
0.290212
14.3432
4.41489
0.24029
10.6287
0.995292
3.54989
6.85027e-05
6.39162e-07
1.2071e-05
4.32867e-05
2.01461e-06
5.08157e-06
2.32409e-07
5.1277e-08
4.12369e-08
6.57351e-07
3.81321e-06
1.96919e-07
3.11419e-07
1.61092e-08
8.77549e-05
0.000661253
0.0111227
0.000138071
0.0152942
0.000939277
0.00228599
8.41234e-09
4.16813e-08
8.98482e-07
2.37727e-07
1.14818e-08
8.6166e-09
6.85525e-10
9.70119e-11
2.43892e-10
3.82559e-09
1.56443e-08
8.53763e-10
1.17004e-09
6.23039e-11
0.16641
0.00170068
0.0127274
0.00768413
0.704963
0.0479341
0.109576
0.000148624
3.49367e-06
2.66095e-05
7.93243e-06
6.11536e-05
3.80044e-06
1.86815e-06
3.4551e-05
0.0177401
0.00030199
0.648776
0.00868922
0.0027197
9.20642e-05
0.141989
0.000761114
0.0548131
1.40177
0.0184005
0.00605789
0.000149545
2.26139e-07
3.67403e-05
2.36184e-06
0.000618085
7.86114e-06
8.87998e-06
5.55613e-07
4.52731e-05
5.19326e-05
3.27213e-06
0.00147727
1.81519e-05
2.23302e-05
1.4952e-06
77.9509
33.7157
72.3069
25.4743
52.2175
55.8932
21.7937
5.12703
42.0115
28.133
7.07939
20.5148
30.5624
3.15117
0.00567626
0.733908
0.0943258
0.0444812
0.108179
0.696513
0.00669672
3.39531e-05
0.000203319
1.39703e-05
2.21466e-05
6.2007e-05
0.000370771
3.77819e-06
1.20384e-05
6.4782e-05
0.000927235
0.000509045
0.000192388
0.00307087
3.34877e-05
1.45788
49.2603
43.0541
45.239
0.0975619
39.2388
0.0525067
0.015064
28.3102
10.5505
20.2366
0.00996738
3.61855
0.000808807
3.76713e-05
0.944585
0.0224363
0.112311
7.1747e-05
0.00122728
2.07913e-05
2.77796e-05
1.0028e-05
0.000416937
3.33047e-05
2.08628e-06
3.72064e-06
2.41607e-07
5.98512e-06
0.000471095
5.75825e-05
8.28497e-05
6.6205e-06
1.18587e-05
7.40884e-07
1.49104e-08
1.21851e-07
2.68985e-06
4.42791e-07
2.62446e-08
4.53494e-08
5.62345e-09
1.94332
12.2507
8.28539
33.5768
1.44089
11.2523
2.59573
5.86208e-07
4.72098e-06
1.13951e-05
6.85988e-07
2.16023e-06
1.93183e-07
1.85495e-07
1.62917e-05
1.67335e-06
1.30472e-05
8.59101e-07
5.99531e-06
4.96358e-07
8.90735e-07
1.55588e-05
3.34595e-05
0.000586124
0.000322266
1.77645e-05
0.000136471
8.8748e-06
4.27007e-05
2.36691e-05
0.000312663
0.0027291
0.000189557
0.00172488
0.000113115
0.000122372
2.83237e-06
3.19766e-05
0.000653784
5.0638e-05
0.00023496
1.7245e-05
4.95021e-07
4.27568e-07
5.95465e-06
6.03574e-05
2.95141e-06
7.37932e-06
3.60918e-07
3.96153e-10
3.13627e-09
4.34622e-08
7.63394e-07
3.28098e-08
6.72244e-08
2.932e-09
2.27071e-05
4.82579e-05
0.000821376
0.000899383
5.41437e-05
0.000411386
2.55803e-05
7.59133e-05
8.20735e-05
6.18149e-06
0.000678635
2.75569e-05
0.000176228
4.23748e-05
0.000312899
2.03823e-05
1.6427e-05
2.00889e-06
953.879
799.143
520.459
374.546
231.659
24.5712
1198.53
301.986
877.897
1063.27
303.816
814.695
842.026
917.261
164.381
783.011
747.759
136.457
623.136
597.776
545.942
96.3084
556.864
469.913
68.6937
368.82
447.664
412.255
395.95
55.0238
319.212
47.345
217.82
379.574
283.697
0.046753
240.696
243.56
240.014
238.847
150.338
122.106
219.507
185.776
83.5558
59.9568
130.601
71.2689
46.2438
34.7757
32.6738
10.3809
1228.45
994.361
985.527
1105.52
958.464
947.881
1129.61
303.161
155.601
158.504
279.567
443.439
442.137
278.678
1135.37
942.733
890.416
1058.04
874.739
914.379
1005.27
163.162
166.722
301.794
279.57
431.468
438.123
278.972
996.699
769.515
835.617
887.492
831.574
951.976
774.512
153.758
293.955
279.716
256.231
418.039
271.889
396.728
830.675
638.098
699.476
809.803
638.653
706.829
729.789
116.008
259.313
234.348
232.878
334.9
368.83
205.283
625.284
679.271
588.352
594.837
579.402
655.535
529.953
80.0669
206.421
176.865
151.402
296.768
177.126
256.853
507.032
534.284
577.835
544.136
446.615
486.758
497.923
60.8707
148.473
123.872
131.026
184.133
218.369
115.832
433.082
447.695
491.079
413.792
408.975
454.636
372.877
50.4506
104.931
90.9605
94.4831
156.952
104.077
136.977
46.5569
79.779
70.7315
86.7698
110.064
121.781
82.5425
242.4
146.847
149.232
152.483
154.588
242.858
139.247
237.74
226.793
102.119
209.747
187.814
69.3936
162.973
137.048
52.914
112.817
92.6719
40.013
76.3119
62.5656
30.4579
50.4159
39.8101
179.4
188.2
132.118
799.873
895.997
735.958
867.377
885.369
728.856
811.218
776.604
842.951
825.771
694.656
857.993
713.391
751.402
675.22
790.027
668.408
741.09
719.162
741.788
632.098
617.802
686.67
613.432
528.296
681.229
585.151
551.584
433.545
547.708
468.551
490.637
488.218
489.284
410.808
389.615
427.458
395.045
308.294
438.686
356.985
352.694
290.311
356.991
267.381
279.616
319.97
322.702
234.653
263.196
247.813
257.135
183.575
291.022
208.589
0.00459758
0.202061
1.92567e-09
4.03979e-10
2.31335e-10
1.57234e-09
7.57494e-11
5.34782e-09
2.09577e-10
1.83724e-09
2.36848e-08
7.02202e-10
5.66614e-09
1.94699e-10
1.64081e-08
6.69824e-10
3.40184e-09
1.58784e-08
1.42095e-07
3.37369e-08
4.66471e-07
2.34584e-08
2.47058e-09
9.4387e-08
2.92771e-06
1.73713e-07
1.33222e-08
1.16441e-06
6.76496e-08
6.51553e-09
2.8621e-09
4.89744e-08
1.50799e-09
4.3475e-08
3.45684e-09
5.71703e-08
3.59417e-09
3.43888e-07
4.77216e-06
2.63968e-07
2.32594e-08
3.74893e-06
2.40639e-07
4.86727e-08
2.18136e-11
2.46513e-11
9.8596e-11
5.60103e-09
6.37311e-08
3.70965e-10
2.33889e-09
6.70987e-09
2.53829e-08
1.18602e-09
2.50009e-09
1.80385e-07
2.07936e-08
4.12806e-09
5.85764e-10
3.7965e-08
3.72942e-09
8.12771e-10
1.06749e-10
1.6538e-09
1.35265e-10
3.67476e-11
3.81272e-12
3.62542e-11
2.98157e-12
9.426e-13
8.37948e-14
7.91624e-13
4.67359e-13
1.61284e-14
3.51671e-15
1.40089e-07
3.60529e-09
2.57322e-08
6.50144e-10
1.03412e-09
2.60237e-11
2.37709e-11
6.79089e-13
2.23881e-12
3.77137e-14
1.1974e-10
2.46012e-12
3.85626e-14
1.72456e-09
4.78277e-11
1.23206e-12
1.63709e-14
8.66203e-12
4.60733e-11
1.86022e-13
8.67052e-13
0
8.00355e-15
1.94635e-10
7.29943e-10
5.22074e-12
2.06121e-11
1.19083e-13
5.26537e-13
0
2.54659e-15
8.12483e-11
0.015406
112.808
0.243008
321.381
305.363
221.198
71.9457
184.732
90.658
150.772
13.0878
96.5982
76.88
69.4287
93.2044
109.166
140.439
122.998
100.136
360.13
360.914
406.833
375.288
299.874
338.465
330.904
205.518
238.789
195.178
120.885
22.3305
0.00083302
0.147228
50.603
1.98638
18.3325
0.0212791
233.774
265.861
240.991
190.486
171.87
246.054
221.927
201.681
76.0803
68.776
56.3975
109.467
106.573
109.408
89.9936
151.399
215.891
156.337
149.873
187.315
178.084
125.157
44.6359
3.68044
4.42083
45.5964
34.5668
25.6451
19.773
0.00390514
198.435
127.308
444.002
602.082
604.466
549.09
499.828
394.332
358.029
392.707
322.119
601.916
487.403
489.256
502.894
587.095
504.902
482.051
447.852
507.006
445.069
418.389
472.812
409.099
433.373
400.715
374.467
421.471
376.23
380.199
403.114
356.116
356.753
340.951
379.833
352.645
313.355
328.162
688.138
651.914
651.078
678.145
687.81
640.255
630.593
616.539
576.256
535.901
539.003
580.324
621.692
581.877
684.917
646.901
621.815
678.578
656.236
614.549
634.492
792.746
734.851
726.563
728.117
739.932
789.407
801.682
531.145
492.555
530.521
499.315
496.135
460.324
469.491
0.221609
0.0125038
0.0185622
5.74402
1.43453
1.48995
0.150287
5.79318
1.38047
0.870562
2.02115e-06
5.95852e-07
6.44043e-08
3.8578e-09
165.192
211.157
212.018
164.691
164.567
207.7
211.109
160.897
138.101
200.87
152.467
189.386
118.255
150.189
172.173
96.7352
65.1442
125.762
78.3451
101.631
54.1756
61.1168
80.022
43.0093
23.3993
44.8593
32.3303
31.6722
16.404
13.6443
21.2852
11.9529
1.07426e-10
8.5529e-08
2.10951e-09
1.86278e-08
4.83861e-10
2.04103e-09
5.45859e-11
1.02961e-10
2.53143e-12
3.04584e-12
6.91216e-14
2.84049e-11
6.40891e-13
3.75924e-15
2.35935e-12
5.06892e-14
0
10.2127
19.5519
6.29893
2.03001e-06
2.6646e-07
1.05979e-06
8.59982e-08
3.01707e-07
1.04625e-08
2.61548e-08
8.31486e-10
9.81718e-09
3.11955e-10
3.07238e-09
9.52515e-11
3.69436e-10
1.08978e-11
2.49358e-11
6.51562e-13
696.473
771.181
737.615
724.508
776.02
699.69
743.743
604.85
691.701
616.626
638.666
664.248
705.494
654.334
472.628
446.846
426.942
458.638
428.212
399.005
420.859
530.312
525.819
567.165
557.364
593.584
600.657
555.425
713.853
724.389
793.889
695.751
701.777
658.736
648.057
863.273
878.134
956.36
868.923
877.643
941.652
938.735
910.652
855.749
797.962
841.917
801.389
899.372
853.749
472.203
454.104
488.942
492.397
524.201
514.712
476.323
763.685
679.734
731.159
677.862
650.985
622.128
644.164
773.673
784.758
870.354
835.62
843.989
926.243
926.759
747.669
690.518
735.013
760.199
705.832
808.778
750.105
555.184
648.772
698.936
656.839
623.8
586.791
594.174
640.328
623.597
674.349
648.118
595.554
684.767
622.64
556.948
510.379
468.931
607.027
556.083
541.985
496.958
835.364
812.869
731.384
799.683
778.353
852.563
890.119
903.627
966.654
941.805
933.476
955.375
967.707
962.749
372.418
346.141
368.226
420.956
397.994
373.043
397.908
698.805
764.296
743.243
693.444
764.789
814.682
717.873
599.37
636.164
581.791
645.116
706.454
663.25
606.392
558.302
539.894
579.909
548.145
504.625
569.293
523.193
469.86
431.021
393.557
457.592
507.329
453.562
409.413
828.379
888.745
899.11
924.719
859.901
888.57
927.608
389.143
443.33
421.831
427.732
461.154
441.3
406.176
192.715
168.978
62.6205
1.17225
142.406
128.153
190.331
116.305
65.525
106.633
48.3711
8.82171
22.7284
3.63476
159.159
120.186
182.865
140.723
118.343
182.16
160.543
155.106
136.139
104.707
172.772
113.447
179.006
147.002
116.062
92.0531
162.673
100.928
134.005
77.0608
148.113
95.5338
83.3997
48.8779
107.575
62.2229
129.184
76.6922
47.9579
36.3445
85.7751
32.387
61.5384
24.2189
65.1969
34.3784
18.6275
6.56084
29.8433
13.7226
46.1169
22.2218
7.76625
2.89236
17.8062
1.45878
13.3906
1.26812
9.90318
0.249694
0.0411456
4.21957
0.582502
0.337744
2.27192
0.563467
4.98522
2.45945
81.6575