/*--------------------------------*- C++ -*----------------------------------*\
  =========                 |
  \\      /  F ield         | OpenFOAM: The Open Source CFD Toolbox
   \\    /   O peration     | Website:  https://openfoam.org
    \\  /    A nd           | Version:  9
     \\/     M anipulation  |
\*---------------------------------------------------------------------------*/
FoamFile
{
    format      ascii;
    class       surfaceScalarField;
    location    "0.0022";
    object      phi;
}
// * * * * * * * * * * * * * * * * * * * * * * * * * * * * * * * * * * * * * //

dimensions      [0 3 -1 0 0 0 0];

internalField   nonuniform List<scalar> 
53251
(
0.400176
-1.02234
-0.49799
1.50877
0.953887
-1.28877
2.41426
1.0296
-1.02052
-2.17805
0.878082
-0.552859
1.43473
0.430312
-1.22825
-1.03114
-0.974529
0.811584
0.939355
-0.637553
0.830376
-0.698385
-1.0135
-0.416413
1.08226
2.29809
0.426844
-1.03941
-1.01054
0.321425
1.8689
0.950097
1.57222
-0.945752
2.67765
0.9597
0.372131
0.404478
-0.192805
-2.13532
-1.28838
0.184525
0.523614
0.0253773
0.0102305
0.0163997
-0.213398
-0.135014
-0.0121228
0.000198008
-0.000904948
8.24908e-05
-0.00331557
-6.91007e-05
0.000185741
1.182
-6.04156
1.33243
-1.09392
4.78961
-0.825825
-1.38851
1.36863
-1.41538
1.22333
-4.26728
3.446
1.2742
5.30651
-1.15776
-0.312782
-6.71445
1.36636
4.59685
-1.541
-0.48795
-5.38658
1.66837
0.720476
-3.78652
1.2627
3.1441
-1.14791
-0.17082
0.669043
-0.845769
0.0820853
-2.6006
2.26042
0.811013
3.90049
-1.69325
-0.267005
-4.72876
1.53358
2.79742
-1.1846
0.277875
-3.57254
0.848412
0.0274294
-2.34506
0.560097
2.02806
-0.0114
-0.292262
-0.150659
-0.760496
-2.0433
1.49428
0.787639
2.1309
-0.660554
-0.861932
-3.06081
0.718051
1.12679
1.04126
-0.943947
-0.574389
-2.30917
0.349573
0.932989
-2.05094
-1.91319
-0.119371
1.35172
1.98347
-0.544253
-1.30311
-2.97119
1.10899
1.25026
3.46464
-2.03389
4.85834
-1.54731
2.30186
-5.6025
-5.24576
1.58833
-1.39637
4.35719
1.31373
1.55579
-6.75026
-1.17778
-0.614967
1.30584
-5.5079
1.42047
4.32739
-5.81213
-1.5856
1.59888
3.71997
1.87045
-6.44368
-1.07661
4.26625
-1.59632
2.38975
-5.27546
1.48465
-4.86165
3.83311
-1.49489
-1.40159
-3.48605
1.1694
2.62806
-2.07283
1.88407
2.17672
-5.46628
-1.87865
3.05452
-5.99396
-1.51737
2.304
-4.8782
-2.02372
2.39427
-0.920105
1.62487
-3.39598
-2.78053
0.991098
2.36732
1.73941
2.17538
-4.90819
-1.84345
0.375125
-3.35644
1.0721
2.85686
-4.22996
0.847326
2.18731
2.00696
-4.33959
-1.45654
2.12625
-0.247521
1.29449
-2.60976
0.18504
-2.95738
2.55185
-0.445556
-0.710644
-1.95017
0.590621
1.83837
-1.64205
-0.155556
1.23957
-3.1191
-0.312359
2.01259
-3.74901
-0.911888
1.05941
-2.16998
-0.894907
1.70645
0.33757
0.70789
-1.8211
-1.8177
0.490242
1.66773
-0.29209
0.99294
-2.61574
0.0959513
-0.0200945
-2.17392
0.437122
1.84459
0.101636
-1.97584
0.344803
1.49413
0.780664
-2.29595
0.286533
1.66635
0.459673
0.18517
-1.71336
-0.145476
-2.10007
1.66863
0.280508
0.0498382
-1.65464
-0.412339
1.26854
-0.400955
-0.892431
-0.000810647
-2.06078
0.927959
1.33493
-2.13347
0.462053
-0.136821
-1.65864
-3.53516
-2.58677
-0.534578
3.85389
0.6427
3.0991
-3.08696
2.29045
-3.08631
-0.331393
2.72247
0.447096
-0.840366
-1.69926
-3.88933
0.743479
1.99393
3.86477
-0.0474067
1.40563
2.92771
-1.34353
-1.42143
-0.128272
1.17763
-1.9265
0.172097
-1.91611
2.03551
-3.01915
-1.72336
1.1505
0.367429
2.9405
-1.27309
1.1171
0.383895
-1.81612
0.658036
2.94165
0.386057
-9.86574
-0.290465
0.653892
10.5403
0.587249
-4.31858
4.94237
3.00966
0.159685
-0.00983834
-8.2912
-1.27934
1.28521
8.68089
1.53478
-0.428897
-4.18129
3.85667
3.09471
0.645249
-0.362481
-5.9215
-2.77774
1.57022
6.15233
3.28595
-1.34294
-4.03702
3.26012
4.16442
1.70275
-3.32807
-4.29148
0.336967
0.140198
4.5894
2.90563
-1.86198
-4.07956
2.1784
3.49112
1.50109
-3.00938
-0.885178
2.97304
-1.96
2.0903
1.18162
0.364969
-2.87908
1.32807
-2.36547
-0.160253
0.778477
-3.15056
9.50206
0.22028
-10.6232
-2.21934
9.65356
0.223375
3.56419
0.184049
-9.42493
-0.866923
1.02156
10.0688
1.07226
4.26884
0.71091
-0.597846
-3.14577
8.69843
3.86121
5.55692
-0.232256
-3.08535
0.350308
-6.67836
3.78386
-3.88122
0.174839
3.80961
-3.73574
-0.310005
4.25232
3.14902
3.82125
-0.200615
0.328751
3.84555
-3.69242
-3.04546
7.93276
0.86968
6.39382
-1.32681
-0.65684
-7.98142
2.66899
0.87499
-0.162911
-6.97506
-1.8526
1.48616
7.17221
2.25713
4.03308
1.63807
-1.31988
-2.50186
5.86388
5.38659
-0.943969
-1.41487
2.15236
-5.97491
1.74596
3.65745
-3.51284
-0.480589
0.717586
3.61479
-3.32946
-1.05769
3.36613
3.7554
3.99789
-3.13877
-0.972787
1.27236
3.65227
-3.21982
-2.42731
5.43348
2.02956
4.92653
-0.712917
-1.96577
2.09549
-5.55603
1.99445
-0.0136364
-4.85303
-3.44933
0.86951
5.20692
4.3072
2.54385
-2.59918
-2.81163
4.45337
2.25271
-1.90383
-1.81581
-3.99701
1.31427
3.0656
-3.18342
-1.93509
3.50648
-3.67942
1.951
3.86406
-2.03058
2.63476
4.09061
-1.56575
1.87765
-2.85238
0.940633
1.89632
-3.55758
-0.859682
3.35529
-0.264859
-3.84138
4.0685
-2.08209
-1.68707
1.44361
-2.82386
2.07504
1.79267
-3.1977
3.94991
2.19642
0.988336
-1.2797
-0.832087
-2.43786
0.489915
0.779749
-0.885663
-1.45821
1.01631
1.21608
-2.7185
2.64583
3.00617
-1.60485
-2.88714
2.22912
1.4256
0.0974319
-0.471074
-0.218828
-0.62853
0.0669245
0.103211
-0.420531
0.21744
-1.18661
0.149707
0.214944
-0.939015
0.87292
0.849041
0.648088
-0.0444029
0.0166834
-0.123823
0.00989171
0.0174484
-3.20807
-1.72185
-0.166718
0.176801
2.73009
1.25709
0.156529
3.13752
-4.38404
3.79119
0.169057
1.66639
1.84967
4.84116
3.09971
-4.37159
0.201536
-4.42771
0.188775
3.77486
0.175581
1.96502
2.62105
1.204
-0.622192
-3.38429
-1.7438
0.885468
3.29789
1.40883
3.34432
0.598059
-0.378638
-4.287
3.22152
1.75076
0.5892
-0.345327
2.49493
3.57409
3.19582
-4.10795
0.845293
-0.380816
3.08787
1.36899
-4.17591
0.805193
3.01585
0.839223
2.84399
-1.83934
-4.40385
-1.7154
1.85654
4.21532
1.98873
4.25272
1.77475
-1.36012
-3.95235
2.89987
1.8092
1.71538
-1.44553
3.8706
3.12876
4.41101
-4.15203
1.9917
-1.58092
4.19915
1.85764
-4.11447
2.07431
3.00648
1.73946
3.88839
-0.702214
-2.34881
-0.578872
0.356686
0.50187
0.593261
3.2583
1.41954
-1.82705
-3.80115
2.24936
0.889011
0.781023
-1.19143
1.47403
1.74251
2.69963
-3.77318
1.21692
-1.18808
1.25728
1.03773
-3.37821
1.07116
1.75383
0.4659
0.659025
3.68131
-2.34126
-3.64436
1.20519
-0.629809
2.30668
-3.24646
-1.25919
1.73134
1.63619
3.19508
0.642215
-3.98564
3.95776
-2.72943
-0.189771
2.74918
3.21181
2.04405
-2.28541
0.838574
-3.82188
-0.348371
-1.87857
1.4177
0.562955
-0.232178
0.901725
0.786666
-1.11457
-1.83568
1.50101
-2.64634
1.24214
0.00951276
-0.0769504
-0.0173432
-0.0460546
0.00543131
0.00772186
-3.65974
-1.38055
-1.35285
3.02725
1.19875
1.42881
-2.2381
0.343519
0.480374
-1.09109
0.478602
-10.6723
3.43996
-0.243978
0.481194
-1.84258
10.4375
0.252923
10.7978
-10.2086
-0.310712
0.205585
-3.40946
8.18544
-3.22495
9.34725
0.425259
0.538154
-10.0188
0.388791
8.01871
-1.80298
-10.5435
3.35635
0.705117
-1.73346
10.31
-3.15964
9.19079
4.32529
-0.765982
10.2147
0.907708
-9.636
-0.550103
-3.28341
4.34782
0.644335
7.31765
-9.97562
-0.304998
4.39334
7.82795
0.84461
-1.52033
9.90933
-3.25168
-1.74176
0.275394
2.79142
1.29518
4.67894
3.13249
-0.28794
3.29676
3.51118
-0.262408
1.69609
2.23146
3.71589
2.06196
2.92347
1.29738
-0.988815
-8.76634
3.12542
1.20919
-1.10771
8.38415
9.59276
1.02729
-9.13747
-0.06773
-3.27693
0.801934
6.62122
-2.91957
7.14831
1.07351
-1.28606
9.25632
1.23103
-8.47341
1.00688
5.93208
-7.9436
2.95411
1.50422
-0.960329
7.54168
-2.69676
6.42766
4.06323
-1.51796
7.25358
1.90142
-7.14919
-1.26142
-2.81223
3.95682
1.58568
4.9251
-7.77416
0.084013
4.06598
5.3444
1.87192
-0.868342
6.87451
-3.5564
-1.75903
1.17113
3.67244
1.5097
3.42961
3.45083
-1.04253
3.89517
2.91282
-1.11448
1.81176
3.66938
2.93773
3.25463
4.08898
1.68385
-2.29379
-6.35227
2.69684
2.66764
-0.755414
6.11871
6.74386
2.38863
-6.64815
0.250619
-2.71334
1.96502
4.6977
-2.40917
5.02588
2.40857
-0.822563
6.41932
2.90671
-6.23332
2.31741
4.59991
-5.95164
2.80229
2.75779
-0.820433
5.73952
-2.46481
4.71999
4.33978
-3.1631
5.51154
3.11934
-5.32531
-2.41838
-2.99323
4.1472
2.33723
4.16507
-5.80603
0.322442
4.27916
4.42174
2.58321
-1.00822
5.23702
-4.35323
-1.56463
1.65673
3.60408
1.89801
2.9021
4.38222
-2.0776
3.98357
2.68763
-1.5837
1.24466
2.5388
2.91151
3.43752
2.5214
1.4975
-3.59351
0.25798
2.93335
0.136851
2.99505
-2.12561
-0.897608
3.74349
-0.249037
-3.09859
-4.17179
-3.53895
3.26
-0.342011
-3.57885
-2.81219
-0.224136
2.5865
-1.53488
3.33245
-0.409234
-2.73835
-3.87718
2.88054
-1.67703
-2.39618
0.201589
2.71835
3.67281
-3.36604
3.13343
2.94508
-2.05909
-3.71004
3.07283
4.803
-3.34288
-3.61215
-2.6449
2.69659
4.1855
-0.506177
2.4096
2.71465
0.756462
-1.56042
-2.16802
0.519384
-2.33713
2.63318
-2.33484
1.45706
-3.1215
-1.18863
2.08629
-2.4357
-1.92833
1.48474
2.53233
2.27037
-2.69089
-1.69006
0.794081
3.07672
1.49821
-1.13613
2.58984
2.67027
2.90056
-1.56564
-2.64765
-2.23142
3.09053
2.74344
3.61956
3.05035
-1.18781
-2.15188
-4.30306
2.9527
1.77383
-1.4928
3.91589
4.94899
2.73646
-3.18383
1.93144
3.65962
-3.25025
3.30979
1.8269
-1.18758
4.57527
2.28833
-0.808656
1.5806
3.03968
-3.73336
2.70895
1.58548
-1.9217
3.38286
-3.04181
2.73974
3.45968
-2.11219
3.23468
2.03733
-2.16717
-1.34471
-2.44437
2.20669
1.07191
1.85917
-1.39843
2.8989
2.49193
1.40913
-2.24822
2.85119
-1.3462
-0.291403
0.141525
0.203067
0.244563
1.3308
1.79025
-0.759893
0.503841
0.37115
0.625538
-0.21694
0.11225
0.124198
0.0904342
1.22389
0.306952
0.0672188
0.0395441
0.0683864
-1.67797
2.41414
2.3621
-2.78635
-3.57817
2.11657
3.76902
-0.67303
-1.03446
-3.30315
1.2628
2.3134
1.27367
2.72483
-0.895049
-2.88747
-3.6794
3.09773
-0.518738
1.68438
1.27789
-0.633361
2.34999
1.76932
-3.3993
1.98922
0.0120186
-0.214352
-0.171954
0.0263686
-0.00168626
0.0184646
6.54608e-05
-0.00121161
0.000105149
-0.00150428
0.000142282
-2.01663e-05
-0.0670212
0.00573681
-0.102168
0.00964047
-0.00203701
0.00831409
-0.170609
0.476872
-3.12687
0.947545
1.42998
0.00243041
-0.000308008
-0.016301
0.00136756
-0.0239385
0.00160174
-0.0750382
0.0093114
-0.0782153
-0.003133
0.0071117
0.00475265
2.8519e-05
2.0925e-05
1.07907e-06
-0.000147833
5.59524e-06
-0.000159794
-2.54724
2.22265
-2.40367
2.09072
-2.91072
1.66453
1.18123
2.30968
1.79247
-2.83956
0.604181
1.05322
0.984109
-2.65186
0.917776
1.04414
0.673557
-3.18424
1.41733
0.265256
0.242568
0.172173
1.92676e-06
1.8201e-06
-9.15615e-06
2.05672e-08
1.92475e-07
-5.15264e-06
-6.85847e-06
-5.78623e-06
-6.8857e-06
-2.76576
-3.3797
0.560668
2.51227
2.50357
-0.358263
0.000268396
-0.00119271
-7.91384e-07
-0.00442803
3.41414e-05
0.000254098
2.27236
7.41658
0.225265
-7.89219
-1.21303
1.04897
-0.720608
2.58131
7.53183
-7.75286
-1.62652
2.69249
7.33012
1.49729
-7.48639
-1.83969
2.99246
-2.53886
2.28704
6.12704
-6.2304
-2.30722
2.33698
5.68996
3.36064
-5.85331
-2.40798
3.20501
-3.57228
-0.536704
4.1572
-4.4424
-0.892849
3.69504
-2.56773
-3.50417
2.99865
-3.66526
1.93471
1.5177
-1.76926
-3.22605
-1.55978
-1.66465
3.33121
2.53155
0.0233907
0.943411
-1.36697
-2.38727
1.90933
2.04146
-1.45125
-2.43215
1.582
0.934964
2.6185
-0.736974
-2.68924
1.31413
-1.10088
3.37997
-0.231815
3.36463
-2.0935
0.405155
-3.12319
2.16103
-3.14346
-1.19738
1.49507
3.1528
2.89961
-3.41767
0.16134
0.151015
-2.30095
3.81352
2.51294
-3.34148
-0.482056
-1.84653
3.761
0.759793
-5.62351
-1.27936
-0.286655
0.618959
5.89654
0.239974
5.51111
-5.53558
0.241256
1.15187
-0.0993951
6.80352
2.28156
7.48308
0.445593
-7.90341
-1.19251
0.518411
-5.68907
0.51017
-0.196065
6.88086
5.86964
-5.78142
-1.44672
0.977026
5.94238
2.41411
7.57225
-7.90438
-1.37472
-0.82326
5.94908
1.20696
-6.10155
-0.794379
1.6488
1.14619
-0.771223
6.91841
-5.87325
-0.436047
6.96593
1.434
5.92612
-2.0059
-5.88887
-1.99565
2.53563
5.98355
1.7525
-6.15912
1.87261
1.58564
-1.1186
2.64433
6.96319
2.02952
-7.10593
-1.9801
2.37954
-6.00561
2.04611
-1.41243
-5.69501
-2.00687
2.89842
2.43065
6.54123
-6.66378
-2.10776
-2.92229
5.46348
3.34213
-5.53493
-2.44178
2.06758
2.7645
-2.07322
-5.78753
-1.71337
3.11459
-3.16169
-4.81318
-1.87332
2.95873
5.1896
3.58738
-5.28121
2.23037
2.98601
-2.26969
1.89586
5.25301
3.57966
-5.47035
-2.22366
3.60737
-4.90591
3.05396
-2.07939
-4.30445
-0.789978
2.51773
0.670369
4.76973
-5.03035
-1.65475
-3.33373
3.66917
2.86222
-3.79052
-2.85888
-0.192074
2.34129
-0.750532
-4.41195
-1.55394
2.03838
-1.6421
-2.50592
1.0411
1.22978
3.03729
2.35771
-3.16442
-0.837929
1.74053
0.0400445
-2.19626
2.60234
1.87668
-2.98198
0.945125
1.85216
-2.64598
1.28463
0.560897
-2.03967
1.17514
0.564068
-2.29594
2.15686
-2.42804
1.54911
-1.28827
1.72086
-1.79572
0.820687
-0.785648
-1.43934
0.399889
1.29803
-2.17782
0.20739
-3.10513
2.26576
3.06496
2.55728
-3.10543
-2.21829
-2.97238
2.78868
-3.03378
-3.17161
-2.26158
3.44415
-3.22542
-4.10238
-3.21572
-2.7224
2.21517
-2.73647
-3.51475
-2.87652
2.2919
-3.2671
2.55121
-2.45338
1.67825
3.27487
2.06896
-1.60573
-3.19227
-3.28166
-2.08927
-1.91215
-1.1975
1.60603
-3.16738
-2.02169
-3.31629
1.83225
-1.24115
-3.28874
-1.76043
1.86916
-1.10045
-3.14854
-0.249548
-1.08855
2.72206
-2.14533
1.11226
0.803332
-1.28907
-2.29238
-1.92839
0.503245
2.26228
-2.87089
1.51729
-1.2202
1.2901
3.15614
-1.72792
-0.972458
-2.55453
1.04998
1.02243
-1.00555
1.45753
-2.8407
-3.33608
1.80367
-0.878533
3.34043
-3.23488
-0.97132
3.44197
1.67055
1.77958
-0.842147
-2.96078
-0.797291
-2.89307
1.49469
3.36194
-0.578849
-3.0391
1.80526
-0.613193
3.5539
1.91021
-3.30084
-0.350428
-3.18993
0.601291
3.56948
3.44186
0.0565776
-0.464629
-0.478767
-0.0128139
0.0306636
0.041855
0.0548463
-0.379118
-0.505008
-0.0212126
-2.93108
2.59457
-3.33938
0.150943
2.72638
0.00513617
-3.2805
0.128845
-2.9286
3.67621
0.078101
3.36216
-3.76022
0.364504
3.8329
3.05229
0.0061959
-3.78038
-0.362274
2.7361
3.84123
0.661426
-3.12883
0.993399
-0.278634
3.05723
0.141734
0.000385966
4.4179e-05
-0.00652502
-0.000123634
0.000607223
-3.31384
0.769786
-0.532338
-0.176802
2.73577
0.61451
0.000150421
5.98093e-05
-7.65391e-05
5.61061e-05
-0.00130917
7.47208e-06
-1.87421
-0.463419
0.103509
0.301848
0.199044
0.109446
6.09478e-06
3.52803e-06
-4.9652e-06
3.60125e-06
-2.89135e-05
1.86407e-07
-0.0291882
-0.00425659
0.0003021
0.00263851
0.00135745
0.00062365
-2.61607e-06
2.49913e-07
1.36066e-06
4.1216e-07
3.73385e-07
-5.49656e-06
-4.56364e-06
-5.47189e-06
-4.92488e-06
-0.736171
0.513406
0.432406
0.350133
-2.80854e-05
-0.000341852
-2.0652e-05
4.03253e-05
8.92774e-06
9.75141e-06
-2.10973e-06
-8.22669e-07
-4.50298e-07
-2.55663e-07
-6.24858e-08
-5.7713e-08
-9.3183e-09
-1.11271e-08
7.13214e-08
2.61905e-08
2.6187e-08
6.70857e-10
1.3099e-09
-4.53032e-09
8.62887e-10
-2.21696e-06
-8.36165e-07
-2.83035e-07
-2.03648e-07
-1.62377e-06
-1.14669e-05
-6.29027e-06
-1.23649e-06
7.09571e-07
2.9616e-07
-6.79308e-08
-4.1728e-07
-6.1751e-08
-4.25468e-08
3.23932e-07
-2.25779
0.307912
0.169968
0.403109
4.08797
-0.203484
-3.97058
-1.31675
2.31808
0.624424
3.27199
-0.448096
-2.71819
0.346919
4.10385
-3.99275
0.622628
-1.36789
2.42434
0.663651
1.26986
0.065075
-0.0526236
0.00140278
0.0161494
-0.142448
0.0199309
0.234585
-0.86908
-0.190173
0.457174
1.11207
-0.0341377
-0.00437046
0.0108037
0.00514371
-0.101621
0.0134873
-3.0743
0.387123
0.816924
3.99469
-0.842054
-4.06146
1.06702
-1.57725
2.37263
1.07012
2.73016
-1.06925
-3.61948
0.477254
2.1189
-1.2331
-3.6836
-1.51446
1.05164
1.65262
0.354351
0.943926
0.249321
-0.0109202
-0.00396635
0.00366232
0.00237969
-0.039695
0.00467785
-3.42426
0.413125
0.88802
-3.09735
1.30464
-1.41057
-1.70241
0.804765
1.33501
0.0518664
0.084265
-0.1694
-0.613986
0.0404015
0.0572107
-0.4704
0.0656346
-0.182566
-0.326864
0.0359376
-0.24934
0.0136962
0.0169171
0.00321561
-0.0325311
0.00380672
-0.00867703
-0.0182918
0.00228615
0.00114041
0.000597643
-0.00197793
-0.0129326
0.000561426
0.000215823
-0.0022383
0.000267601
-0.000587669
-0.00125087
0.000126107
-0.700318
0.806733
0.650311
0.000476161
-0.00964826
-0.000801771
0.000264925
0.000746581
-0.211855
0.024069
-0.113949
0.0168046
-0.00598857
0.0143634
-3.15279e-05
-0.00218356
-0.000692878
0.000185889
9.82002e-05
7.62527e-05
0.397264
-0.187835
3.87346
-1.35782
1.98641
0.0046603
-0.456054
-0.023958
0.0619935
0.464129
-2.4434
0.036916
0.436768
-0.411149
-0.41135
-0.199686
2.92876
0.603549
3.7701
-1.38764
1.9403
-0.0136891
0.0154179
-0.320462
-0.0136902
0.0410425
0.305524
-1.95164
-0.106866
0.286735
0.127851
-0.333091
-0.756158
0.844072
3.01206
-1.38473
1.69019
-0.0116454
0.0067225
-0.130523
-0.00283898
0.013996
0.079317
-0.712825
-0.0922072
0.0862007
0.0463352
-0.146901
-0.623406
0.129219
0.766605
0.281335
-0.609849
0.332405
-0.690189
0.229311
0.376741
-0.245081
-0.035229
0.0146709
0.0274696
-0.000680958
0.0200386
0.00783586
-0.124293
-0.0177724
0.0106732
0.00538648
-0.0231568
-0.181839
-0.0451489
0.0177518
-0.0586072
0.00843881
0.0131509
-0.0329804
0.00157261
-0.00496339
0.00143421
0.00283824
0.000373934
6.80488e-05
3.67517e-05
-8.69047e-05
-0.000606095
2.21649e-05
-0.000116812
-0.015146
0.000530897
0.00795059
0.00198431
0.000432858
-0.00675476
-0.00147407
0.000628226
-0.00210394
0.000275428
-0.00236396
5.1396e-05
-0.000327864
9.74517e-05
0.000203184
1.87441e-05
1.07001e-05
8.54862e-06
-7.40234e-06
-4.61379e-05
5.84995e-06
-9.98336e-06
4.12177e-05
-0.000403408
-7.76421e-05
5.8898e-05
-0.000141699
2.05848e-05
-0.000216089
3.73245e-06
-2.12271e-05
7.54987e-06
2.63892e-05
3.04801e-06
6.37372e-06
1.18884e-05
7.15877e-06
-1.90798e-05
-2.95428e-05
-3.43197e-05
-8.52381e-05
-4.68255e-06
-6.55673e-06
-5.75447e-06
-8.57251e-06
-1.94355e-06
-3.65017e-07
-4.53108e-06
-1.93716e-06
-0.000150527
1.54791e-05
9.05924e-05
1.39307e-05
5.31075e-06
8.10277e-06
-4.79748e-05
-1.19177e-05
3.10328e-05
-1.84365e-05
2.21021e-06
1.54042e-06
-1.09547e-05
-3.07598e-05
-2.15228e-05
-8.76971e-06
3.2362e-06
9.90281e-07
-2.59623e-06
-2.06767e-06
-2.44687e-06
-2.11551e-06
1.16679e-06
3.48904e-06
2.13423e-06
-1.64568e-05
-1.34044e-05
-1.43106e-05
-1.22997e-05
-0.00231844
0.0011248
-0.00527329
0.000614392
0.00087147
-0.00462726
0.000271107
0.000193364
1.58114e-05
2.42036e-05
-0.000140938
4.13655e-05
-3.73985e-05
-5.52258e-05
-0.000828543
-0.00407555
0.000276922
-0.00125132
0.000189853
0.000375695
1.30373e-05
7.32658e-06
-5.47479e-06
-1.85761e-05
-5.01153e-05
5.67224e-06
-0.613026
3.03364
-0.179671
0.292583
0.594132
0.180063
0.536717
0.185057
-2.88506
3.75519
0.513381
-2.38571
0.348917
0.299371
3.20696
0.291043
0.333623
3.82576
0.564368
0.499267
-0.648172
3.15471
0.432608
0.639221
-2.50496
0.349135
3.2321
-0.411292
0.708953
0.566322
-0.508176
-3.36618
0.70415
3.79027
0.642591
3.82163
0.594452
0.594137
0.705293
-0.226314
-0.389714
-0.00700478
0.0201852
0.0803966
0.110447
0.0124408
0.241374
0.132414
0.0367994
0.41716
-0.904649
0.678999
0.615406
1.26481
0.130219
-0.975666
0.0309717
0.123474
0.0901425
-0.876638
0.636787
0.087306
0.120866
-0.19431
-0.333887
0.0263431
0.0664454
0.0890068
0.544945
1.21185
-0.938984
-0.0413009
0.151816
0.0435214
0.0847834
-0.127948
0.259402
0.140171
-0.695908
0.392142
0.1067
-0.808277
0.538195
0.0252392
0.0488323
0.0617694
-0.808117
-0.954988
3.85008
1.06281
0.949145
0.829861
0.78657
-3.60326
0.916221
3.86668
0.727682
-3.32996
0.439422
0.99285
3.27117
0.809184
1.02484
1.12022
3.87528
0.817325
-0.977895
3.91779
1.37524
1.03454
-3.4981
0.485339
3.14076
-1.27047
0.934877
1.42041
-1.23278
-4.09167
1.25426
3.34312
1.01699
3.76559
0.93703
1.56883
1.18204
-0.0190463
-0.06592
-0.107727
0.0174369
0.0114091
0.0188309
0.106778
0.0378778
0.0611535
0.179587
0.123728
-0.540741
0.240146
0.251688
0.701747
-0.653658
0.225546
0.0314785
0.0361899
0.0389015
0.026943
-0.357201
0.0856204
0.136307
-1.58633
-0.887858
3.1023
1.40282
1.27602
0.933701
1.43625
-3.92641
1.05164
2.24518
0.769505
-2.74376
0.312393
0.494311
0.744622
1.44048
1.24568
0.545286
0.810802
0.469638
-0.685792
1.68055
0.885299
0.882528
-1.62974
0.137793
0.259001
-0.83253
0.379997
0.399599
-0.1576
-0.536817
0.0415315
0.0694752
0.06373
0.246901
0.210758
0.363462
0.515265
-0.123265
-0.0661765
0.0684585
0.0418209
0.0719728
0.174689
0.16044
-0.192423
0.0120214
0.0212695
0.0197474
-0.0997315
0.00509983
0.00596224
0.0105371
0.208994
0.0627408
0.00380909
0.00696397
0.00640372
-0.0244768
0.0233147
0.0136256
0.0231407
-0.0380705
0.00182143
0.00367501
-0.0221355
0.00799996
0.00776846
-0.0011935
-0.00680075
0.000618516
0.000286761
0.000510828
0.00220815
0.0019592
0.00333088
0.00599522
-0.154079
-0.777322
0.0715982
0.0971408
-0.0348405
0.0574308
1.36929
0.970196
-0.377299
-0.141015
0.0704431
0.105168
0.0967957
-0.509249
0.415565
0.411896
0.317793
0.195113
-0.0799289
-0.251474
0.613858
0.0478275
0.0384042
0.0261448
-0.00941872
0.00547405
0.00851235
-0.00214409
0.00415513
-0.0115738
0.00433748
0.0073559
-0.0185604
0.000530059
-0.000312015
0.00143014
-0.00416158
-0.000375896
0.000212837
0.000327871
0.000141246
-0.0056662
0.00293732
0.0019746
-0.000124306
0.000649724
0.000282517
0.173659
3.74157
0.51199
0.0971034
-0.463088
2.03468
-0.256457
3.08711
0.273794
3.78061
0.344469
0.551106
-0.452387
0.200328
1.96756
-0.133254
0.277597
0.444801
2.73522
0.426212
2.79954
0.805452
3.47037
-0.682786
0.691173
0.349493
-0.16317
-0.344012
0.903712
-0.133797
2.34371
0.655181
3.10159
0.876094
0.741798
-0.0578308
0.282904
0.493575
-0.512695
0.437235
0.286443
0.789251
-0.489191
0.40548
1.54942
0.246165
0.363382
-0.629361
0.198704
0.0178954
0.00660103
-0.0595083
0.0194798
0.0372302
0.0969476
0.0575068
0.0286098
0.104805
0.0601195
0.0624739
0.00223843
0.00473913
0.00463559
0.0089832
-0.0205904
0.00455537
0.00458642
0.00943082
-0.0820446
0.0167469
0.0387306
0.0010243
0.00195887
-0.00355765
0.00163122
0.000114033
1.28048e-06
-0.000340849
0.000108861
0.00013357
0.000920731
0.000463846
0.000206828
0.000631871
0.000318316
0.000521475
-2.17909e-07
3.1374e-05
3.53654e-05
7.84053e-05
-8.56876e-05
2.25931e-05
3.30003e-05
5.80164e-05
-0.000279287
0.000111388
0.000162359
0.149333
0.0891528
0.140662
0.0481011
0.0315082
0.0513116
0.143496
0.131473
0.0826531
0.00826951
0.016366
0.0128984
0.0118086
0.0142924
0.00692252
-0.034714
0.00352506
0.00169509
0.00266736
0.018335
0.0283872
9.11888e-06
4.01575e-06
4.66829e-06
-1.45514e-05
-1.92302e-05
-1.97326e-05
-4.76762e-05
-5.84138e-06
-7.18826e-06
-6.31931e-06
-4.52589e-06
-6.0329e-06
-4.29053e-06
-4.01734e-06
4.11672e-07
5.99526e-07
-9.84607e-08
-8.47307e-06
-1.06068e-05
-9.08861e-06
-1.20331e-05
2.283e-07
6.45541e-07
2.9069e-06
5.56078e-06
-5.59177e-06
-2.96981e-05
-1.15552e-05
-1.59219e-05
-3.30745e-06
-3.48559e-06
-2.9416e-06
-3.33181e-06
1.82248e-06
1.60114e-06
-2.28888e-05
1.27041e-07
-1.70608e-07
4.26323e-07
-0.0015256
0.000238557
0.000121753
-2.72246e-05
0.00013403
4.45118e-06
-1.3458e-06
-3.61043e-05
-1.38057e-05
2.30585e-05
3.45499e-06
-1.78379e-07
4.69394e-06
-1.91911e-05
1.98465e-06
1.83349e-05
7.21123e-07
2.8605e-07
2.13239e-06
1.84095e-06
-9.72642e-06
-7.54263e-06
-9.85756e-06
-7.25106e-06
-6.3086e-06
-6.3664e-06
-5.14877e-06
-0.23398
3.03768
-0.521655
3.6308
0.622523
-0.288896
-0.299289
1.41813
3.73114
0.572658
-0.402942
1.76661
0.405595
0.45465
2.51916
0.454234
2.12485
0.0324831
1.65393
0.492436
-0.859521
1.02271
0.422233
-0.156243
0.0145651
0.069259
0.10089
2.26927
0.691981
0.00606018
0.183482
0.244794
0.132725
0.365891
0.0559137
0.136998
0.00163411
0.0273791
0.0070875
-0.0139831
0.00657626
0.00520666
-0.00123274
-2.82633e-05
0.00032481
0.000686497
0.0260099
0.017809
-0.000182562
0.00119404
0.00110605
0.00133387
0.00219432
0.000399905
0.000559851
5.43113e-05
0.000303077
5.85011e-05
-9.71944e-05
5.69282e-05
3.47178e-05
1.89558e-05
-1.57092e-05
-1.23458e-06
3.09117e-06
5.37014e-06
0.000194331
0.000125216
-3.79332e-06
1.28698e-05
1.11516e-05
1.26652e-05
5.24561e-06
5.10311e-06
0.00374431
0.00249398
-0.00153597
5.98914e-05
9.56184e-05
0.000133182
-0.0012446
6.76766e-05
4.90183e-05
0.000107165
0.000715824
0.00108403
0.000983001
0.000537584
0.000328392
0.000226717
0.000144675
1.94605e-05
1.54323e-05
4.2423e-05
-0.0491727
0.00334788
0.00030523
0.00422635
-0.00553191
8.24879e-06
1.58297e-06
-0.00011109
1.72653e-06
2.43872e-05
9.28518e-06
8.22564e-07
-5.85517e-05
-1.01543e-05
1.32061e-05
0.000234382
-0.000125988
-0.00418598
0.000139351
-5.41421e-05
0.000373431
-0.0296424
0.00190374
-0.000944741
0.00246004
0.000937286
-0.00344954
2.49804e-06
-4.60391e-06
1.95023e-05
7.0595e-06
-7.50925e-05
-7.19317e-07
6.39649e-06
-2.28769e-06
1.08708e-05
3.79746e-06
-3.93292e-05
-8.13525e-06
-0.00740179
0.000411557
-0.000561247
0.000582739
0.000254982
-0.000957161
1.93888e-06
8.83044e-06
3.45764e-05
9.06502e-06
-7.79211e-05
-9.06792e-05
-0.000192403
-6.59186e-06
-8.50422e-06
-6.64259e-06
-1.02079e-05
5.99824e-06
1.98057e-05
7.17492e-06
-6.3541e-05
-3.24219e-05
-5.9276e-05
-0.000133039
-3.43913e-06
-4.5036e-06
-3.9656e-06
-6.23072e-06
2.66417e-05
1.36699e-05
-2.27424e-05
1.34253e-05
-0.000214276
2.67818e-06
1.24576e-05
6.36935e-06
-8.83974e-06
-7.10617e-05
5.68633e-06
-1.01594e-05
8.81533e-07
2.30124e-06
8.12633e-06
1.51274e-06
-1.38182e-05
-2.90568e-05
-1.32161e-05
1.50653e-06
6.50113e-06
2.18933e-06
-8.64403e-06
-2.02559e-05
-1.11423e-05
1.57924e-05
6.84775e-06
-2.61115e-05
-0.000184574
-5.04947e-05
-4.74092e-06
-8.5985e-06
-1.6743e-05
-6.4169e-06
7.53065e-06
-3.32822e-06
-1.49265e-06
-3.11385e-06
-2.443e-06
1.10075e-07
7.20973e-07
2.1419e-06
7.70982e-07
-5.45927e-06
-5.43865e-06
-6.03529e-06
5.91236e-07
1.18762e-06
6.31815e-07
7.6626e-07
5.97347e-06
1.48142e-06
-2.69764e-05
-1.52194e-05
-1.41901e-05
-2.51365e-05
-2.90622e-06
-3.34899e-06
-3.33095e-06
-2.86432e-06
3.74817e-06
1.33433e-06
-1.0981e-05
-1.05966e-05
-1.46587e-05
1.93609e-06
-3.37089e-08
1.27667e-07
5.51844e-07
1.45591e-07
7.95468e-08
3.81681e-07
2.39794e-07
7.98394e-07
2.78043e-07
2.64679e-07
-1.1974e-08
2.56556e-08
8.15498e-08
1.91918e-08
1.8851e-08
6.15569e-08
5.09961e-08
-1.58641e-09
1.45947e-07
5.50547e-08
1.83001e-07
7.32573e-08
-5.63002e-09
1.35087e-08
2.69414e-09
1.92148e-08
4.07075e-08
2.21961e-06
5.87049e-07
3.78043e-07
-1.15297e-05
4.66148e-07
4.72509e-07
2.15113e-06
5.12167e-07
-3.91012e-07
-4.66974e-07
-9.16899e-07
-7.1069e-07
-4.48012e-07
3.91199e-08
1.26342e-07
5.49446e-08
2.68521e-10
2.39321e-09
4.84756e-09
3.77872e-09
1.2697e-09
6.21492e-06
-1.1593e-05
6.96772e-06
-1.99387e-06
2.50933e-06
-1.8833e-05
-2.29311e-05
-7.65854e-06
-6.70754e-06
-1.87533e-05
-1.10903e-05
-2.08414e-05
-0.0434371
0.00290478
-0.00319132
-0.0283837
0.0044699
0.00177663
0.00162955
0.000767612
-0.00210184
-0.0197823
-0.00238858
0.00077244
0.115243
-0.211269
-1.60179
-0.282803
0.136171
0.207557
1.96046e-05
1.1637e-05
-6.81792e-06
-7.40443e-05
-4.62762e-05
4.90415e-06
0.00554462
-0.151676
-0.0336572
-0.0094176
0.00664773
0.0141675
-2.02706
0.200062
-1.01799
-0.355784
0.334998
0.20894
0.000664129
-0.0010487
-0.00716579
-0.00317499
0.000444287
0.000378284
0.000109569
3.56489e-05
-0.00019307
-0.00116378
-6.31743e-05
4.43916e-05
0.000913676
0.00145057
0.00243654
-0.0126227
-0.00114379
6.97627e-06
1.61343e-05
-0.000225092
4.24348e-05
-8.24526e-05
-1.00422e-05
0.0297791
0.0169657
-0.0259049
-0.250496
-0.3292
-3.06079
2.50614
0.228805
-3.18207
-0.124589
2.81803
-3.30256
0.417718
-2.64734
-0.262317
3.69873
3.18126
-1.94512
-3.80639
-0.81974
2.20655
3.82362
0.256274
-3.17178
-0.10042
-2.20093
1.75308
1.64661
0.112805
-1.21136
-0.275672
-0.87959
0.173497
0.161188
-0.00370112
-0.00230181
-0.00109805
0.000368533
0.00031688
0.00017852
-4.2946e-05
2.51786e-05
3.12371e-05
1.6346e-05
-8.27623e-05
-3.70261e-05
-0.000256077
-5.24074e-05
-0.000107546
-1.88509e-05
-3.2386e-05
-1.78591e-05
-1.50684e-05
-9.06813e-06
-3.14182e-06
-7.75528e-07
-6.20085e-07
-2.59296e-07
2.56886e-06
-7.05428e-06
-1.31356e-05
-3.10391e-05
-1.22023e-05
6.50965e-07
1.13405e-06
1.15899e-05
-4.15629e-05
7.35095e-06
8.29137e-06
-8.40476e-05
-1.51916e-05
-4.72025e-05
-1.10931e-05
-1.77694e-05
-7.9626e-06
-2.40271e-06
-2.47898e-06
-4.82244e-06
-2.41542e-06
6.58211e-05
-0.000198872
0.000150216
-0.000218557
5.22605e-05
1.10096e-05
1.30666e-05
-3.44475e-05
-5.97696e-05
-5.3471e-05
-0.000179915
-8.95356e-06
-1.3371e-05
-3.43718e-05
-7.77973e-06
-1.54765e-05
-1.18203e-05
-3.4541e-05
-0.366132
0.00575081
-0.432605
0.0571783
0.0603749
-1.20051
0.0148261
0.161439
0.149036
-6.12864e-06
-0.000562159
-0.000322559
1.59894e-05
5.39352e-05
6.37085e-05
-3.00934
-2.08966
0.373473
1.39999
1.36526
-0.219751
-0.0170884
0.0339768
0.0164313
-0.261741
0.0319752
-0.75198
-0.0424651
0.096349
0.0426285
0.0816505
7.49247e-06
-1.49451e-05
-0.000179517
-0.000106511
2.58532e-05
2.97002e-05
-0.0514982
-0.00920771
0.00373056
-0.0636459
0.0064587
0.00690393
-0.240953
-0.0265267
0.0240727
0.0120433
0.0178223
1.72944e-05
1.58291e-05
5.36836e-06
-7.54263e-05
-4.71448e-05
-0.420749
0.0292353
-0.281951
0.0525316
0.0460756
-0.00445965
-0.001185
0.00054624
0.000278671
-0.00555429
0.00052515
-0.0305418
-0.00426343
0.00246151
0.00117096
0.00164252
9.0541e-06
9.88007e-06
-4.99644e-06
5.74724e-06
-2.42619e-05
-1.72831e-05
-0.000187719
-5.78456e-05
1.50417e-05
-0.000221334
3.01565e-05
3.01335e-05
-2.21996e-05
-0.000116444
1.04811e-05
1.76363e-05
1.64681e-05
2.9104e-06
5.53188e-06
-7.50659e-06
-1.02483e-05
-1.13624e-05
-3.05326e-05
-7.99774e-06
-7.53023e-06
-8.69282e-06
-1.63288e-05
6.34027e-06
-4.09506e-06
-3.82826e-06
-4.33578e-06
-5.51401e-06
-0.000935468
8.60355e-05
-0.000229602
0.000110649
1.44247e-05
6.81004e-06
-1.79342e-05
-7.91214e-06
-2.11206e-05
-4.38372e-06
-7.51326e-06
-2.38801e-05
-6.35107e-05
-2.14269e-05
-1.48928e-05
1.36144e-05
-2.30416e-05
-2.80475e-05
-7.20914e-05
7.26373e-06
4.54621e-06
-6.0852e-05
-2.38879e-05
-2.00419e-05
-1.55703e-05
-1.50032e-05
-6.99487e-06
-9.60319e-06
-6.15958e-06
-1.05436e-05
-4.79584e-06
-6.76419e-06
1.05364e-05
4.89633e-07
1.51818e-06
1.95955e-06
3.3901e-06
1.81154e-06
3.62783e-06
-3.35946e-05
1.55401e-06
1.4132e-06
3.11792e-06
1.32003e-07
4.94896e-07
6.18208e-07
5.98865e-06
8.45954e-06
-1.73097e-05
-1.66571e-05
-2.66117e-05
-1.48029e-05
-1.0517e-05
-8.60361e-06
-9.01915e-06
1.21503e-06
1.13092e-06
-1.20718e-05
4.36363e-07
9.90431e-07
3.18559e-07
3.4461e-07
-4.82417e-06
5.06553e-07
1.35562e-06
-8.44834e-05
7.05584e-05
-0.000282952
4.20676e-05
7.36753e-06
6.03624e-06
-2.02153e-05
3.85396e-05
-9.66868e-06
6.78807e-06
-1.60602e-05
-6.14709e-05
-2.63293e-05