# vtk DataFile Version 2.0
sampleSurface
ASCII
DATASET POLYDATA
POINTS 6803 float
-2.71051e-18 0 0 0.1 0 0 -1.35525e-18 0.1 0 -1.35525e-18 -0.1
0 -0.1 0 0 -0.1 0.1 0 -0.1 -0.1 0
0.1 0.1 0 0.1 -0.1 0 0 0.2 0 -0.2
0 0 0.2 0 0 0 -0.2 0 -0.1 0.2
0 0.1 0.2 0 -0.2 0.1 0 -0.2 -0.1 0
-0.1 -0.2 0 0.2 0.1 0 0.1 -0.2 0 0.2
-0.1 0 -0.2 0.2 0 0.2 0.2 0 -0.2 -0.2
0 0.2 -0.2 0 9.03502e-19 0.3 0 -0.3 0 0
0.3 0 0 1.58113e-18 -0.3 0 -0.1 0.3 0 -0.3
0.1 0 0.3 -0.1 0 0.3 0.1 0 0.1 0.3
0 -0.1 -0.3 0 0.1 -0.3 0 -0.3 -0.1 0
-0.3 0.2 0 -0.2 0.3 0 0.2 0.3 0 0.3
0.2 0 -0.3 -0.2 0 0.3 -0.2 0 -0.2 -0.3
0 0.2 -0.3 0 1.807e-18 0.4 0 -0.4 0 0
0.4 0 0 3.16226e-18 -0.4 0 0.1 0.4 0 -0.1
0.4 0 -0.4 0.1 0 -0.4 -0.1 0 0.4 0.1
0 0.4 -0.1 0 0.1 -0.4 0 -0.1 -0.4 0
0.3 0.3 0 0.3 -0.3 0 -0.3 0.3 0 -0.3
-0.3 0 -0.4 0.2 0 -0.2 0.4 0 0.2 0.4
0 0.4 0.2 0 -0.4 -0.2 0 0.4 -0.2 0
-0.2 -0.4 0 0.2 -0.4 0 9.03502e-19 0.5 0 -0.3
0.4 0 -0.5 0 0 0.5 0 0 -0.4 -0.3
0 1.58113e-18 -0.5 0 -0.4 0.3 0 0.4 0.3 0
0.3 0.4 0 -0.3 -0.4 0 0.4 -0.3 0 0.3
-0.4 0 0.1 0.5 0 -0.5 0.1 0 -0.1 0.5
0 -0.5 -0.1 0 0.5 0.1 0 0.5 -0.1 0
-0.1 -0.5 0 0.1 -0.5 0 -0.5 0.2 0 -0.2
0.5 0 0.2 0.5 0 0.5 0.2 0 -0.5 -0.2
0 0.5 -0.2 0 -0.2 -0.5 0 0.2 -0.5 0
-0.4 0.4 0 0.4 0.4 0 -0.4 -0.4 0 0.4
-0.4 0 0.3 0.5 0 0.5 0.3 0 0.3 -0.5
0 0.5 -0.3 0 -0.3 0.5 0 -0.5 -0.3 0
-0.5 0.3 0 -0.3 -0.5 0 0 0.6 0 0.6
0 0 -0.6 0 0 0 -0.6 0 -0.1 0.6
0 0.1 0.6 0 0.6 -0.1 0 0.6 0.1 0
-0.6 -0.1 0 -0.6 0.1 0 -0.1 -0.6 0 0.1
-0.6 0 -0.6 0.2 0 -0.2 0.6 0 0.2 0.6
0 0.6 0.2 0 0.6 -0.2 0 -0.6 -0.2 0
-0.2 -0.6 0 0.2 -0.6 0 -0.4 0.5 0 -0.5
0.4 0 0.5 0.4 0 0.4 0.5 0 -0.4 -0.5
0 -0.5 -0.4 0 0.5 -0.4 0 0.4 -0.5 0
-0.6 0.3 0 -0.3 0.6 0 0.3 0.6 0 0.6
0.3 0 -0.6 -0.3 0 -0.3 -0.6 0 0.6 -0.3
0 0.3 -0.6 0 0 0.7 0 0.7 0 0
-0.7 0 0 3.38813e-18 -0.7 0 0.5 -0.5 0 -0.1
-0.7 0 0.1 -0.7 0 0.7 -0.1 0 0.7 0.1
0 0.1 0.7 0 0.5 0.5 0 -0.7 0.1 0
-0.7 -0.1 0 -0.1 0.7 0 -0.5 0.5 0 -0.5
-0.5 0 -0.6 0.4 0 -0.4 0.6 0 0.4 0.6
0 0.6 0.4 0 -0.4 -0.6 0 -0.6 -0.4 0
0.6 -0.4 0 0.4 -0.6 0 -0.7 0.2 0 -0.2
0.7 0 0.2 0.7 0 0.7 0.2 0 0.7 -0.2
0 -0.7 -0.2 0 -0.2 -0.7 0 0.2 -0.7 0
0.3 0.7 0 -0.3 0.7 0 -0.7 -0.3 0 -0.3
-0.7 0 -0.7 0.3 0 0.7 0.3 0 0.3 -0.7
0 0.7 -0.3 0 -0.6 0.5 0 -0.5 0.6 0
0.5 0.6 0 0.6 0.5 0 -0.6 -0.5 0 -0.5
-0.6 0 0.6 -0.5 0 0.5 -0.6 0 -0.8 0
0 6.77626e-18 -0.8 0 0 0.8 0 0.8 0 0
-0.7 0.4 0 -0.4 0.7 0 0.4 0.7 0 0.7
0.4 0 -0.8 0.1 0 -0.8 -0.1 0 0.1 -0.8
0 -0.1 -0.8 0 -0.7 -0.4 0 -0.4 -0.7 0
0.7 -0.4 0 0.4 -0.7 0 -0.1 0.8 0 0.1
0.8 0 0.8 -0.1 0 0.8 0.1 0 -0.8 0.2
0 -0.2 0.8 0 0.2 0.8 0 0.8 0.2 0
0.8 -0.2 0 -0.8 -0.2 0 0.2 -0.8 0 -0.2
-0.8 0 -0.6 0.6 0 0.6 0.6 0 -0.6 -0.6
0 0.6 -0.6 0 0.3 0.8 0 -0.8 0.3 0
0.8 0.3 0 0.8 -0.3 0 -0.3 0.8 0 -0.8
-0.3 0 -0.3 -0.8 0 0.3 -0.8 0 0.7 0.5
0 0.5 -0.7 0 -0.5 -0.7 0 0.7 -0.5 0
-0.7 0.5 0 -0.5 0.7 0 0.5 0.7 0 -0.7
-0.5 0 0.4 0.8 0 -0.8 0.4 0 -0.4 0.8
0 0.8 0.4 0 -0.8 -0.4 0 -0.4 -0.8 0
0.8 -0.4 0 0.4 -0.8 0 -0.9 0 0 3.38813e-18
-0.9 0 0 0.9 0 0.9 0 0 0.9 0.05
0 0.9 -0.05 0 -0.1 -0.9 0 -0.1 0.9 0
0.1 0.9 0 -0.9 0.1 0 0.1 -0.9 0 0.9
0.1 0 0.9 -0.1 0 -0.9 -0.1 0 -0.7 0.6
0 -0.6 0.7 0 0.6 0.7 0 0.7 0.6 0
-0.7 -0.6 0 -0.6 -0.7 0 0.7 -0.6 0 0.6
-0.7 0 -0.9 0.2 0 -0.2 0.9 0 0.2 0.9
0 0.9 0.2 0 0.9 -0.2 0 -0.9 -0.2 0
-0.2 -0.9 0 0.2 -0.9 0 -0.8 0.5 0 0.5
0.8 0 -0.5 0.8 0 0.8 0.5 0 -0.8 -0.5
0 -0.5 -0.8 0 0.8 -0.5 0 0.5 -0.8 0
-0.9 0.3 0 -0.3 0.9 0 -0.9 -0.3 0 0.9
0.3 0 -0.3 -0.9 0 0.9 -0.3 0 0.3 -0.9
0 0.3 0.9 0 0.95 0 0 0.95 0.05 0
0.95 -0.05 0 0.95 0.1 0 0.95 -0.1 0 0.4
0.9 0 -0.9 0.4 0 -0.4 0.9 0 0.9 0.4
0 -0.9 -0.4 0 -0.4 -0.9 0 0.9 -0.4 0
0.4 -0.9 0 -0.7 -0.7 0 0.7 -0.7 0 0.7
0.7 0 -0.7 0.7 0 1 0 0 -0.8 0.6
0 -0.6 0.8 0 0 1 0 0.6 0.8 0
0.8 0.6 0 -1 0 0 0 -1 0 -0.8
-0.6 0 -0.6 -0.8 0 0.8 -0.6 0 0.6 -0.8
0 1 -0.05 0 1 0.05 0 1 -0.1 0
1 0.1 0 -0.1 1 0 0.1 1 0 -1
-0.1 0 -1 0.1 0 -0.1 -1 0 0.1 -1
0 1 0.2 0 1 -0.2 0 -1 0.2 0
-0.2 1 0 0.2 1 0 -1 -0.2 0 -0.2
-1 0 0.2 -1 0 -0.5 -0.9 0 0.5 -0.9
0 0.5 0.9 0 -0.9 0.5 0 0.9 -0.5 0
0.9 0.5 0 -0.5 0.9 0 -0.9 -0.5 0 1
0.3 0 -1 0.3 0 -0.3 1 0 0.3 1
0 -1 -0.3 0 -0.3 -1 0 1 -0.3 0
0.3 -1 0 1.05 0 0 1.05 -0.05 0 1.05
0.05 0 1.05 -0.1 0 1.05 0.1 0 -0.8 -0.7
0 -0.8 0.7 0 -0.7 0.8 0 0.8 0.7 0
0.7 0.8 0 -0.7 -0.8 0 0.8 -0.7 0 0.7
-0.8 0 1 0.4 0 0.4 1 0 -1 0.4
0 -0.4 1 0 -1 -0.4 0 -0.4 -1 0
1 -0.4 0 0.4 -1 0 -0.6 0.9 0 -0.9
0.6 0 0.6 0.9 0 0.9 0.6 0 -0.9 -0.6
0 -0.6 -0.9 0 0.9 -0.6 0 0.6 -0.9 0
1.1 0 0 0 1.1 0 -1.1 0 0 4.06576e-18
-1.1 0 1.1 -0.05 0 1.1 0.05 0 0.1 1.1
0 0.1 -1.1 0 -0.1 1.1 0 -1.1 0.1 0
-1.1 -0.1 0 -0.1 -1.1 0 1.1 -0.1 0 1.1
0.1 0 1 0.5 0 0.5 1 0 -1 0.5
0 -0.5 1 0 -1 -0.5 0 -0.5 -1 0
1 -0.5 0 0.5 -1 0 1.1 0.2 0 1.1
-0.2 0 -0.2 1.1 0 0.2 1.1 0 -1.1 0.2
0 -1.1 -0.2 0 -0.2 -1.1 0 0.2 -1.1 0
-0.8 -0.8 0 -0.8 0.8 0 0.8 0.8 0 0.8
-0.8 0 -0.7 -0.9 0 0.7 0.9 0 -0.9 -0.7
0 0.9 -0.7 0 0.3 1.1 0 0.9 0.7 0
-1.1 0.3 0 -1.1 -0.3 0 0.7 -0.9 0 1.1
0.3 0 -0.7 0.9 0 -0.9 0.7 0 -0.3 1.1
0 -0.3 -1.1 0 1.1 -0.3 0 0.3 -1.1 0
1 0.6 0 0.6 1 0 -0.6 1 0 -1
0.6 0 -0.6 -1 0 -1 -0.6 0 1 -0.6
0 0.6 -1 0 -1.1 0.4 0 1.1 0.4 0
0.4 1.1 0 -0.4 1.1 0 -0.4 -1.1 0 -1.1
-0.4 0 1.1 -0.4 0 0.4 -1.1 0 1.2 0
0 0 1.2 0 -1.2 0 0 8.13152e-18 -1.2 0
1.2 -0.1 0 1.2 0.1 0 -0.1 1.2 0 0.1
1.2 0 -1.2 0.1 0 -1.2 -0.1 0 -0.8 -0.9
0 -0.9 -0.8 0 0.1 -1.2 0 -0.1 -1.2 0
-0.8 0.9 0 -0.9 0.8 0 0.9 0.8 0 0.8
0.9 0 0.9 -0.8 0 0.8 -0.9 0 1.1 0.5
0 -1.1 -0.5 0 -1.1 0.5 0 -0.5 1.1 0
0.5 1.1 0 1.1 -0.5 0 0.5 -1.1 0 -0.5
-1.1 0 1.2 0.2 0 1.2 -0.2 0 -0.2 1.2
0 0.2 1.2 0 -1.2 0.2 0 -1.2 -0.2 0
0.2 -1.2 0 -0.2 -1.2 0 1 0.7 0 -0.7
1 0 -1 0.7 0 0.7 1 0 -0.7 -1
0 -1 -0.7 0 1 -0.7 0 0.7 -1 0
-1.2 0.3 0 -1.2 -0.3 0 1.2 0.3 0 -0.3
1.2 0 0.3 1.2 0 1.2 -0.3 0 -0.3 -1.2
0 0.3 -1.2 0 1.1 0.6 0 0.6 1.1 0
-0.6 1.1 0 -1.1 0.6 0 -0.6 -1.1 0 -1.1
-0.6 0 1.1 -0.6 0 0.6 -1.1 0 -1.2 0.4
0 -1.2 -0.4 0 1.2 0.4 0 0.4 1.2 0
-0.4 1.2 0 1.2 -0.4 0 -0.4 -1.2 0 0.4
-1.2 0 -0.9 -0.9 0 -0.9 0.9 0 0.9 -0.9
0 0.9 0.9 0 1 0.8 0 -0.8 1 0
-1 0.8 0 0.8 1 0 -0.8 -1 0 -1
-0.8 0 1 -0.8 0 0.8 -1 0 -1.2 0.5
0 -1.3 0 0 4.06576e-18 -1.3 0 1.2 0.5 0
0.5 1.2 0 -0.5 1.2 0 -1.2 -0.5 0 1.2
-0.5 0 1.3 0 0 0 1.3 0 -0.5 -1.2
0 0.5 -1.2 0 1.1 0.7 0 -0.7 1.1 0
0.1 1.3 0 0.1 -1.3 0 -1.1 -0.7 0 1.1
-0.7 0 0.7 -1.1 0 1.3 0.1 0 1.3 -0.1
0 -0.1 1.3 0 0.7 1.1 0 -1.1 0.7 0
-1.3 -0.1 0 -1.3 0.1 0 -0.7 -1.1 0 -0.1
-1.3 0 0.2 1.3 0 -1.3 0.2 0 -1.3 -0.2
0 -0.2 -1.3 0 0.2 -1.3 0 1.3 0.2 0
1.3 -0.2 0 -0.2 1.3 0 1.3 0.3 0 -1.3
-0.3 0 1.3 -0.3 0 -1.3 0.3 0 -0.3 -1.3
0 0.3 -1.3 0 -0.3 1.3 0 0.3 1.3 0
1.2 0.6 0 0.6 1.2 0 -0.6 1.2 0 -1.2
0.6 0 -0.6 -1.2 0 -1.2 -0.6 0 1.2 -0.6
0 0.6 -1.2 0 1 0.9 0 -0.9 1 0
-1 0.9 0 0.9 1 0 -0.9 -1 0 -1
-0.9 0 1 -0.9 0 0.9 -1 0 -1.3 -0.4
0 1.3 0.4 0 0.4 1.3 0 -1.3 0.4 0
1.3 -0.4 0 -0.4 1.3 0 -0.8 -1.1 0 -0.4
-1.3 0 0.4 -1.3 0 1.1 0.8 0 -0.8 1.1
0 0.8 1.1 0 -1.1 0.8 0 -1.1 -0.8 0
1.1 -0.8 0 0.8 -1.1 0 1.2 0.7 0 -0.7
1.2 0 0.7 1.2 0 -1.2 0.7 0 -0.7 -1.2
0 -1.2 -0.7 0 1.2 -0.7 0 0.7 -1.2 0
0.5 -1.3 0 1.3 0.5 0 -1.3 0.5 0 1.3
-0.5 0 -1.3 -0.5 0 0.5 1.3 0 -0.5 1.3
0 -0.5 -1.3 0 1.4 0 0 0 1.4 0
-1.4 0 0 0 -1.4 0 1.4 -0.1 0 1.4
0.1 0 0.1 1.4 0 -0.1 1.4 0 -1.4 0.1
0 -1.4 -0.1 0 -0.1 -1.4 0 0.1 -1.4 0
1.4 0.2 0 1.4 -0.2 0 0.2 1.4 0 -0.2
1.4 0 -1.4 0.2 0 -1.4 -0.2 0 -0.2 -1.4
0 0.2 -1.4 0 1 1 0 -1 1 0
-1 -1 0 1 -1 0 -1.1 -0.9 0 0.9
-1.1 0 1.1 0.9 0 0.9 1.1 0 -0.9 -1.1
0 -0.9 1.1 0 -1.1 0.9 0 1.1 -0.9 0
1.3 0.6 0 0.6 1.3 0 -1.3 0.6 0 -0.6
-1.3 0 -1.3 -0.6 0 1.3 -0.6 0 0.6 -1.3
0 1.4 0.3 0 0.3 1.4 0 -0.3 1.4 0
-1.4 0.3 0 -0.3 -1.4 0 -1.4 -0.3 0 1.4
-0.3 0 0.3 -1.4 0 -0.6 1.3 0 -0.8 -1.2
0 1.2 0.8 0 -0.8 1.2 0 0.8 1.2 0
-1.2 0.8 0 -1.2 -0.8 0 1.2 -0.8 0 0.8
-1.2 0 1.4 0.4 0 0.4 1.4 0 -0.4 1.4
0 -1.4 0.4 0 -0.4 -1.4 0 -1.4 -0.4 0
1.4 -0.4 0 0.4 -1.4 0 -1.3 0.7 0 -0.7
-1.3 0 1.3 -0.7 0 0.7 -1.3 0 0.7 1.3
0 1.3 0.7 0 -0.7 1.3 0 -1.3 -0.7 0
1 1.1 0 1.1 1 0 1.4 0.5 0 0.5
1.4 0 -1 1.1 0 -0.5 1.4 0 -1.1 1
0 -1.4 0.5 0 -1 -1.1 0 -0.5 -1.4 0
-1.1 -1 0 -1.4 -0.5 0 1.1 -1 0 1
-1.1 0 1.4 -0.5 0 0.5 -1.4 0 1.2 0.9
0 1.5 0 0 -0.9 1.2 0 0 1.5 0
0.9 1.2 0 -1.2 0.9 0 -1.5 0 0 -0.9
-1.2 0 -1.2 -0.9 0 2.25875e-18 -1.5 0 1.2 -0.9
0 0.9 -1.2 0 1.5 -0.1 0 1.5 0.1 0
0.1 1.5 0 -0.1 1.5 0 -1.5 0.1 0 -1.5
-0.1 0 -0.1 -1.5 0 0.1 -1.5 0 1.5 0.2
0 1.5 -0.2 0 0.2 1.5 0 -0.2 1.5 0
-1.5 0.2 0 -1.5 -0.2 0 -0.2 -1.5 0 0.2
-1.5 0 1.4 0.6 0 0.6 1.4 0 -0.6 1.4
0 -1.4 0.6 0 -0.6 -1.4 0 -1.4 -0.6 0
1.4 -0.6 0 0.6 -1.4 0 -0.8 -1.3 0 1.3
0.8 0 0.8 1.3 0 -1.3 0.8 0 -1.3 -0.8
0 1.3 -0.8 0 0.8 -1.3 0 -0.8 1.3 0
0.3 -1.5 0 1.5 0.3 0 0.3 1.5 0 -0.3
1.5 0 -1.5 0.3 0 -0.3 -1.5 0 -1.5 -0.3
0 1.5 -0.3 0 -0.4 -1.5 0 0.4 -1.5 0
1.5 0.4 0 0.4 1.5 0 -0.4 1.5 0 -1.5
0.4 0 -1.5 -0.4 0 1.5 -0.4 0 -1.1 -1.1
0 1.1 1.1 0 -1.1 1.1 0 1.1 -1.1 0
1 1.2 0 1.2 1 0 -1 1.2 0 -1.2
1 0 -1 -1.2 0 -1.2 -1 0 1.2 -1
0 1 -1.2 0 1.4 0.7 0 -0.7 1.4 0
0.7 1.4 0 -1.4 0.7 0 -0.7 -1.4 0 -1.4
-0.7 0 1.4 -0.7 0 0.7 -1.4 0 0.9 -1.3
0 0.9 1.3 0 0.5 -1.5 0 1.3 0.9 0
-1.3 0.9 0 -1.3 -0.9 0 1.3 -0.9 0 1.5
0.5 0 -0.9 1.3 0 -0.5 1.5 0 -1.5 0.5
0 -0.9 -1.3 0 -1.5 -0.5 0 0.5 1.5 0
-0.5 -1.5 0 1.5 -0.5 0 -1.6 0 0 4.51751e-18
-1.6 0 1.6 0 0 0 1.6 0 1.6 -0.1
0 1.6 0.1 0 0.1 1.6 0 -1.6 0.1 0
-1.6 -0.1 0 0.1 -1.6 0 -0.1 -1.6 0 1.4
0.8 0 -0.8 1.4 0 0.8 1.4 0 -1.4 0.8
0 -0.8 -1.4 0 -1.4 -0.8 0 1.4 -0.8 0
0.8 -1.4 0 1.6 0.2 0 1.6 -0.2 0 0.2
1.6 0 -1.6 0.2 0 -1.6 -0.2 0 0.2 -1.6
0 -0.2 -1.6 0 1.5 0.6 0 0.6 1.5 0
-0.6 1.5 0 -1.5 0.6 0 -0.6 -1.5 0 -1.5
-0.6 0 1.5 -0.6 0 0.6 -1.5 0 -1.1 -1.2
0 -0.3 -1.6 0 0.3 -1.6 0 1.1 1.2 0
1.2 1.1 0 1.6 0.3 0 0.3 1.6 0 -1.1
1.2 0 -1.2 1.1 0 -1.6 0.3 0 -1.2 -1.1
0 -1.6 -0.3 0 1.2 -1.1 0 1.1 -1.2 0
1.6 -0.3 0 1.3 1 0 -1.3 1 0 -1
-1.3 0 -1.3 -1 0 1 -1.3 0 1.3 -1
0 1 1.3 0 -1 1.3 0 -0.4 -1.6 0
0.4 -1.6 0 -1.6 0.4 0 1.6 0.4 0 0.4
1.6 0 -1.6 -0.4 0 1.6 -0.4 0 0.7 1.5
0 -1.5 0.7 0 -0.7 1.5 0 0.7 -1.5 0
1.5 0.7 0 -1.5 -0.7 0 -0.7 -1.5 0 1.5
-0.7 0 1.4 0.9 0 -0.9 1.4 0 0.9 1.4
0 -1.4 0.9 0 -0.9 -1.4 0 -1.4 -0.9 0
1.4 -0.9 0 0.9 -1.4 0 -0.5 -1.6 0 0.5
-1.6 0 1.6 0.5 0 0.5 1.6 0 -1.6 0.5
0 -1.6 -0.5 0 1.6 -0.5 0 1.2 1.2 0
-1.2 1.2 0 -1.2 -1.2 0 1.2 -1.2 0 0
1.7 0 -1.7 0 0 2.25875e-18 -1.7 0 1.5 0.8
0 -0.8 1.5 0 0.8 1.5 0 -1.5 0.8 0
-0.8 -1.5 0 -1.5 -0.8 0 1.5 -0.8 0 0.8
-1.5 0 1.7 0 0 -1.7 -0.1 0 -1.3 1.1
0 -1.3 -1.1 0 1.7 0.1 0 1.7 -0.1 0
-1.7 0.1 0 0.1 -1.7 0 1.3 1.1 0 0.1
[...]
CELL_DATA 6510
FIELD attributes 1
p 1 6510 float
53929.8 29259.4 40141.1 18917.1 32482.3 42347.8 47180.7 50885.7 47472 51491.2 101827
102186 101376 101298 101298 101298 101298 101299 101298 101298 101298
101298 101298 101298 101309 101298 101298 101298 101298 101298 101298
105432 101305 101298 101298 101298 101298 101298 129818 176939 101355
101298 101298 101298 101298 101298 226365 195040 101309 101298 101298
101298 101298 101298 101727 101299 102270 101302 101302 101298 101299
101299 101298 101299 101307 103262 101300 101311 102140 110912 179008
127293 101324 101672 159905 195914 249155 193928 202821 110303 119824
187937 172941 101346 101340 101709 101299 101303 101304 101298 101298
101298 101300 101298 101298 101356 101377 101310 103886 101787 101646
132187 126306 112436 121258 154807 150398 93270.8 63451.8 84598.1 174147
159905 160342 101817 101622 206872 102437 101299 196836 192687 175431
152453 126379 229112 180161 116185 316233 239625 132177 128071 133294
121486 171499 104871 126385 135670 130998 140767 138186 103080 50089
77446 159408 183955 214274 127280 177200 220922 88070.5 149507 128119
118114 114443 105949 107885 105754 115015 145746 121454 106238 96562.6
96397.7 96271.1 122797 124094 115635 130623 128545 126210 80431.4 109426
117586 119903 150719 162790 79249.6 78147.7 78226.1 86974.6 87090.5 87207.5
78312.6 69957.8 70863.8 69877.6 70063.9 62526.1 62439.1 62361.4 84768.2 94207.3
97601.8 132230 166758 181035 63157.8 62743.9 70330 89641.6 91575.1 82236.9
107422 103978 114175 78588.2 87537.1 88312.9 142949 153319 159545 111484
101296 99296.2 143110 147838 137168 124780 135889 139148 97875.1 96991.7
106844 179698 220991 233347 170052 164273 175920 130654 133131 122086
171092 159102 154581 150684 147308 158991 116685 126064 128339 188236
201254 205186 155077 144166 140986 193062 197194 183876 137565 133940
140556 170756 182230 188202 44195.4 44181.6 44210.7 44139.3 39373.8 39525.7
39600.9 44308.7 111805 71803.2 53431.9 49821.2 49518.7 49558.3 55568.6 55639.8
55692.5 49568.8 50099.6 71795.7 78796.7 55988.5 82728.9 102259 64666 74385.2
82226.8 64465.8 68643.4 59602.8 44562.4 39283.5 39216.2 92198.3 121807 139932
51637.4 58932.8 61298.8 92393.7 84185.3 93959.3 87571.6 78029 73424.6 39215.2
39264.8 44128.3 56610.9 57436.2 50610.2 69805.1 66967.7 75629 103680 113435
121195 49644.7 55848.2 56146.5 101839 107040 97287.1 73328.1 65031.1 63848.2
130585 123121 132942 126914 116892 111699 167360 175269 165532 218776
215180 230402 226086 210981 206540 145129 149122 158502 194049 239246
287555 200852 193517 205415 195183 184884 175296 37214.9 46547.7 31939.4
39539.9 41194 36185.9 25531.3 50223.5 45808.6 43144.7 46547 15988.7 28496.3
45024.4 26590 40373.5 51963.4 52456.6 53385.4 56058.4 57654.6 54536 45113
54118.9 55659 57221.1 11169.5 38081.8 13374.2 12910.2 12159.5 11734.7 11476.9
12129.3 12018.3 12765.2 25261 13570.9 18410.9 12737.2 12536.3 15262.5 31209.1
35447.1 35363.1 35207.3 31017 36123.5 28790.8 19556.8 19729.8 31631.9 32487.1
18279 17810 18276.7 19728.9 28162.6 27938.7 28199.5 31579.7 21106.8 22165.4
22583.4 23368.2 34576.3 18220.9 17990.7 17993.7 17860.4 22147.7 22129.9 19700.3
28140.4 25022.5 25045.3 25073.5 31519.4 36748.9 23306.2 20810.2 17121.9 17720.2
18063.2 19631.1 22113.3 22093.3 46363.4 34798.6 34733.5 30844.2 24913 24987.5
28077.4 40199.5 39521.1 45155.2 31385.1 35039 34900.8 30729.5 30723.1 34741.7
34993.9 27735.1 27505.5 24585.9 24777.4 33827.1 30957.8 48240.6 61137.7 32321.1
38351.7 41175.6 35637.2 36686.5 31454.3 50501.8 45991 55063 50967.5 43186.9
41427.2 13711.9 14119.6 19020.3 19508.3 30484.6 17606.9 13629.5 17609.1 17203.1
17546.7 19537.2 27226.1 13700.2 14744.8 14623.6 19421.1 27244.6 28350 14708.6
14802.1 13635.4 15768.9 15958.9 17410.9 15714.2 14912.3 14631.1 19198.7 21438.3
21339.5 17545.1 16089.3 16089.3 17685.1 15754.4 21401.4 15951.6 15843.1 17527.5
21632.6 21529.5 19322.1 24336.4 24211.5 27712.2 19566.8 21847.8 21736.2 17445.4
16034.4 16477.8 27390.6 24190.9 24219.2 22048.8 21965.5 19568.4 24286.4 24403.8
27320.6 164602 153005 157219 218776 234099 245843 140690 140621 124483
206360 220778 206915 163481 173493 191276 260252 430969 481588 265003
252083 273547 102997 124925 131305 140547 157079 145829 257163 237529
221785 202152 320900 384617 205314 187113 202515 135806 128500 110922
221242 336323 317558 150132 147390 174454 300869 340456 355167 189126
171474 156833 290292 317423 281507 153496 168544 145021 179871 151306
158760 221915 247551 265747 208634 244700 237051 233232 236478 210305
415353 398699 484265 264125 140205 359552 165894 186457 215279 255148
250213 214661 213551 200069 185334 296543 236317 311358 105411 245652
108580 105772 246396 255976 321974 105602 144500 140327 210487 103149
108007 468691 371656 335959 329480 268208 265740 269887 276584 317984
211628 216740 258714 277046 223984 233314 226941 196729 205390 107470
101311 102010 303728 282500 351358 253072 308319 269430 244921 218243
230224 321009 283455 296432 167510 185177 218372 139527 111260 120825
130663 137309 191845 107876 144060 146283 101514 101302 101301 101443
101301 104869 259147 312909 279566 336208 359480 341305 143385 137027
106705 137728 140506 106773 167686 116080 140736 101298 101298 249789
334334 237064 297381 305995 247408 266078 267878 255280 262171 243047
325379 459435 362801 286154 284918 305403 302910 281855 275253 332121
369337 374535 361623 365092 329922 394759 411158 394943 428158 420850
422301 102231 104802 117240 202874 138630 131367 104902 127404 115926
101299 101299 101327 101877 106253 105467 259277 312761 212217 118050
107371 158872 101303 101299 101302 102147 105105 128410 101301 101298
101299 107149 103135 101513 101299 101299 101340 104141 102795 101504
104566 105887 101795 119015 102868 101606 101419 101407 102171 101448
101337 101502 101997 101382 101408 102000 101385 101361 101298 101298
101299 101343 101834 102908 101382 101863 101459 101483 101325 101456
101354 101775 101406 101323 101349 101742 20265.4 18831.7 29611 46756.9
19153.1 22556.1 25278.2 21309.3 21564.5 18814.5 33962 28468.4 37755.9 32391.4
25779.3 24721.7 14081.1 13720.8 16975.9 17475.1 13885.2 14594.5 14736.2 14544.4
14540.9 13766.1 16863.1 15523.3 15597 15766.8 15546 16981.5 12374.5 11139.4
13028.2 13611.7 11664.3 12459 12868.7 11687.5 12055.5 11465.9 13145.7 12607.2
12364.6 13221.4 12865.4 13333.5 11986.6 12182.9 11828.4 11281.9 11477.4 11764.2
175736 156353 185688 199593 169444 177270 183096 165753 171466 162889
150502 121525 147315 168967 141370 148114 156437 130131 139209 131664
154641 146755 138661 162569 155072 162119 190004 180457 175500 191015
185695 194814 208993 257713 319321 196588 235464 242898 204833 215784
219224 208493 211811 200377 251852 306590 313375 237997 224354 221361
230091 227341 240024 269233 269903 253876 255088 270728 273651 339490
333032 281658 309303 286657 286328 123767 81616.9 112478 144674 108912
118700 131841 92578.1 105170 94223.3 123704 114868 102905 138653 127215
134627 63400.1 36665 69916.4 113782 50484 65812.1 81823.9 46082.4 54095.2
41864.1 81783.4 67957.7 57603 99787.4 81886.7 96829.5 292295 288550 315137
338350 331755 290858 372287 359745 343868 267952 296181 290462 307619
334909 370312 101324 101432 101309 101322 101303 101308 101307 101307
101358 101347 101304 101302 101324 101305 101306 101298 101298 101298
101302 101310 101312 101310 101308 101301 101298 101298 101298 101298
101298 101298 101301 101303 101322 101316 101302 101300 101300 101300
101302 101306 101307 101302 101298 101298 101299 101323 101311 101309
101309 101309 101311 101301 101301 101302 97279 83270.4 69157.1 118657
116008 92603.9 98550 101097 94705.4 97348.8 89571.9 96367.4 97682.1 96020.9
92348.7 91861.9 141705 126604 90188.5 94508.8 123526 119645 133180 124637
104361 115226 102671 98513.7 98512.9 96086.3 98675.5 100896 99415.4 133028
151909 153376 108917 140224 144302 194267 175467 163725 101302 101298
181040 101300 101298 112993 127525 84100 98138.7 75680.8 82950.2 91218.5
73966.9 69119.5 94124.2 83557.4 96142.5 89639 94311.3 95125.5 92423.8 103194
99991.6 111292 119933 104864 105356 100732 190725 164111 72951.7 74375.1
87029.3 129292 158475 74875.9 117599 158284 103234 59459.1 74163.9 82425.7
109893 132317 102787 75299.9 85897.2 78957.4 144277 127951 136557 137783
139423 77858.6 140864 92077.5 87228 78874.8 65696.1 55463 73561.7 72371.1
74635.6 126911 134505 129689 39210.7 63161.3 65518.8 74730 76560.1 73402.2
74319.3 73843.5 80467.9 76521.1 80737.8 91204.6 99826.9 112477 71011.2 73249
67495.6 68817.4 75863.6 71734.5 72497.6 136920 139276 138237 127717 125663
101438 132715 131166 125291 118230 92488.8 94353.5 85879.8 186918 135435
157431 112596 101573 115172 143072 114611 94928.6 102033 120652 145681
78208.4 74536.8 73652.9 76282 80499.7 77679.9 72165.8 68108.1 72395.5 76448.3
78564.9 76006.5 80735.7 73696.3 72274.4 72434.3 101321 101298 101299 101298
101299 101298 118376 111628 101477 107957 109491 88485.9 86300 93589.5
175586 89549.4 89238 101317 101298 266094 104608 101299 101298 98609.1
103345 97541.9 77162.6 80370.6 82079.7 90620.7 83594.5 80364.4 76927.1 78627.4
75744.6 107805 106842 98635.6 98180.1 106238 186434 130692 176934 139209
195693 95666.6 98266.8 97526.2 114435 114225 114027 103889 103828 125916
125265 158197 131073 171603 158483 135745 135223 124600 158971 143615
144575 196382 103348 104411 115043 68008.8 68713.7 72214.4 117547 106989
106673 87102.9 85075.9 73829.7 127151 137992 136684 75092.4 89469.1 96085.6
105042 102126 113931 111158 98681.8 97847.5 143361 140330 129609 93777.5
92489.3 86854.6 95927.8 100145 103138 88777.4 90802.5 101402 98390 95422.4
93002.2 94924 95586.2 91648.3 90498.5 103667 117440 113762 109465 112224
110637 108770 101826 146368 148766 160565 113074 104498 118006 105300
106568 87495.6 130099 147264 144798 190279 181607 184540 236732 246375
188592 113932 137818 116800 112885 121990 123898 118096 105528 110509
164981 152365 156923 127534 132535 121946 142731 125839 122708 88466.8
104735 105049 201357 158586 148166 129505 139721 147754 72878.6 75750.9
72529.2 73397.6 77959.7 77421.2 77108 80246.8 80284.7 80435.8 77708.5 88041.4
100210 86654.2 81028.4 80775.1 80657.6 80550.1 81756.5 89068 92450.7 98774.7
94504.4 91764.3 97183.4 95380.7 90125.7 88898.7 87507.6 85706.7 83711.6 95638.8
92029.3 95666.5 86635.1 89106.6 92076.9 80324.6 83734.6 81846.8 84600.9 83786
84997.7 80194.1 78861.3 74336.7 81853.4 82733.6 82914.7 80642 80752.8 81203.7
82924.8 71959.3 78055.4 71092 75715.2 65587 67836.5 74460.6 60345.6 67712.4
63826.3 57507.5 54546.8 52589.6 48679.8 49985 106928 89356 64574.6 93226.3
105537 92039.5 80607.1 71078.4 80859.1 73080.1 102724 100922 110918 81979.6
90734 96479.9 80808.7 57651 44511.4 51620 59090.1 53818.2 48803.2 69879.5
60828.9 69190.4 46525 50560.4 48033.4 52318.2 55680.1 62465.1 178641 92728.4
86815.3 78629 79403.5 81382.5 81747 80338.2 78686.2 85566.9 85891.1 88811.2
91038.2 95677.7 84872.5 87406.2 84336.9 55514.8 55844.3 61241.9 59819.7 70076
67677 67888.2 65760.2 56935.9 62594.6 63718.8 63716.1 63429.9 68134.5 64054.4
61569.9 62719.2 62361.7 59347.7 59999 60437 68785.8 63531.9 64218.6 58229.9
60313 70225.8 55844 71321.4 75278.9 70227.2 53414.4 53383 49559 51945.9
65893.9 73390 63776.3 90258.9 80941 61792.1 48531.4 48221.4 55705.7 71080.6
80756.6 92125.8 94688.7 83706.7 82872.8 43401.8 46268.8 45885 44416.1 92189.5
97671.3 102704 107245 100127 101196 106078 102590 42093.4 72375.9 83898.6
57617.1 47511.8 59456.3 67882.3 44643.6 48219.3 42621.2 77061.8 73621.1 88438.2
83335.1 63185.1 52283.7 157927 152228 133542 111350 109344 118886 160763
165605 184645 198535 222722 247347 179938 218159 227196 121804 122640
141505 106145 107257 98331.7 157358 166736 155631 120048 106481 104673
216767 214311 182586 160337 152390 171380 131268 144163 156329 109358
99038 99216.7 194235 171566 177883 238658 159705 156818 134741 119049
120832 206405 222421 219121 157774 172798 175571 119893 112623 125438
195271 178718 169011 214888 195011 133220 104344 110660 120338 115259
103816 116725 109889 121648 136033 170240 154254 165242 211053 137757
219925 202540 217387 212625 173487 164083 149858 157998 144014 130841
149044 110274 202357 192155 187648 202861 129773 119907 132947 154482
156500 141361 161875 164389 131138 240777 234458 237150 145743 161055
168077 139216 170603 164554 145527 137278 130609 136879 128432 132325
190238 174897 185430 132122 215741 182804 147212 162645 178580 184914
212327 201129 142564 170157 169483 145992 144960 152295 176203 158289
173973 176010 184788 175842 197238 181827 149567 227965 224944 217306
82306.7 83750.5 82174.5 82514.1 86307.9 86110.8 86039.9 88009.1 86900.9 82965.7
88855.8 62230.4 59172.9 69918.5 78522.8 87371.9 78870 83452.4 73055.6 57831.5
62041.4 65284.2 57947.1 77950.9 72828.1 67601.1 94740 74249.1 92025 104864
104198 99607.5 105398 97570.7 101527 101317 108544 176505 181491 184068
101502 101620 170504 201562 181101 206323 188617 195534 202677 205701
234546 214710 142462 160107 153861 171259 165620 148815 101323 101334
116131 158008 133536 146285 211240 217937 201731 113199 130277 139118
218560 221140 210396 189703 191633 189970 209991 205626 217094 136720
139498 136640 163923 177089 160236 101324 101302 102442 101306 101313
105075 144325 129607 109613 140065 176100 175015 257969 253525 235790
101302 101399 161086 228922 238230 206740 178611 126010 122057 115720
109065 142131 184120 214235 189351 65249.3 70449 58780.9 59574.7 62504
62239.7 60441 69276.7 66290.2 65893.8 59478 61185.2 60908.4 64781.5 64774.8
70259.3 118338 124079 180736 149017 169726 124394 102498 103148 113255
101307 101302 101350 103928 113293 139072 124886 110853 105962 103897
113240 104638 116233 103596 103451 176629 237068 211932 122500 104543
102363 102923 102240 108361 136222 105301 110817 102793 101540 101910
101299 101299 101331 104022 104482 101662 102533 103890 101875 101626
102573 113979 104558 101709 101435 101594 101373 101770 101299 101298
101302 101425 102333 103192 101605 104076 103239 101298 101298 101306
102318 101699 101336 101326 101379 101772 101299 101299 101302 101441
101732 101353 101582 101613 101339 101333 101556 101468 101298 101298
101299 101313 101412 101504 131093 113997 102748 98832.6 108123 112153
107502 99299.8 91488.2 108779 118629 117815 117062 91798.5 92177.5 99809
104936 117760 93355 107076 114969 109855 101883 97308.5 104791 100235
127019 118373 123014 108656 113398 122393 110592 101601 104889 96437.2
98767.9 107549 101016 93083.4 94542 122310 120208 110207 84902.1 90458.3
96776.5 93900.7 88160.2 86350.7 91514.8 89559.8 334007 258864 317711 347651
328532 312340 295612 273435 295327 275273 256535 246716 203124 101622
101298 101298 103906 101322 108777 170629 132316 184348 101300 101299
101302 101944 106132 120759 139185 108196 102505 101473 102296 101431
101337 101308 101379 101310 101418 101329 101298 101298 101300 101383
101334 101308 101401 101319 101313 101314 101343 101305 101335 101304
101304 101302 101303 101328 101304 101303 101312 101298 101298 101299
101304 101310 101334 101312 101302 101301 101302 101300 101301 101298
101298 101298 101300 101300 101301 33229.4 56917.5 49121.2 11701.6 14117.6
20966.1 14267.3 37380.7 32233.4 23190 28155.2 39001.6 55932.4 59987.8 47459.7
44786.7 101370 310129 268327 230493 101298 101298 101298 274747 226863
226490 229238 241375 240873 232617 239314 229807 101298 101298 101298
101298 101298 101467 101769 101505 101466 101311 101312 101300 101299
101298 101298 101298 101298 101300 101298 101298 101298 101299 101299
101298 101298 101298 101298 101298 101298 101298 101298 101709 101300
101298 101298 101298 101298 101298 101298 101298 101298 101298 101298
101298 101298 101298 101298 101298 101298 101298 101298 101298 101298
101298 101298 101298 101298 101298 101298 101298 101298 101298 101298
101298 101298 101298 101298 101298 101298 101298 101298 101298 101298
101298 101298 101298 101298 101298 101298 101298 101298 101298 101298
101298 101298 101298 101298 101298 101298 101298 101298 101298 101298
101298 101298 101298 101298 101298 101298 101298 101298 101298 101298
101298 101298 101298 101298 101298 101298 101298 101298 101298 101298
101298 101298 101298 101298 101298 101298 101298 101298 101298 101298
101298 101298 101298 101298 101298 101298 101298 101298 101298 101298
101298 101298 101298 101298 101298 101298 302580 419973 458809 469849
421525 295497 380233 346967 375256 371155 421707 333492 338808 506789
296579 301745 316252 307583 303928 101298 101298 101298 101298 101298
101359 303022 101298 101434 509499 101305 348075 101298 101298 101298
101310 101313 234257 421995 101298 101304 101299 101407 329679 184109
503095 103731 548166 101298 142071 101302 101298 101298 103255 102519
101365 291596 122398 134510 553411 559784 490853 101298 101298 101298
101298 101298 101299 101305 139757 121329 349719 610132 473552 101298
101298 101298 101298 101298 101298 101298 101298 101298 101298 101298
101298 101298 472747 483551 577202 522898 496733 552813 535506 275098
210426 193318 211918 273052 202650 196954 213281 213121 194670 176942
233735 213246 232830 233495 178245 179069 195194 270690 213886 217564
198275 158203 165401 286564 271434 279889 258646 255336 255094 278834
166004 154437 144188 138136 139188 127295 128180 129099 140172 146618
114486 123582 149773 150971 162564 151988 164833 163846 155905 157302
127203 139313 147778 144691 135775 131575 140940 136919 133507 130358
120254 204821 168076 175969 163467 153880 156636 117195 127398 124715
146930 150571 160606 151806 140876 143788 135455 138073 149191 186673
184080 173482 171056 182024 179340 142016 130837 133007 176816 174671
163026 160630 172583 170468 273102 219355 224732 208012 195491 198103
191522 193900 206588 168393 166537 153837 200976 187225 189094 183756
185541 199618 239604 237924 222370 218971 213156 179740 193443 183921
193835 190222 202175 198578 188705 184707 169936 143853 161137 149506
157428 152054 168472 162561 154901 179464 170741 176346 160722 165770
174594 219267 208671 210549 201302 204322 216168 220657 236207 235133
195951 180449 181986 233871 232703 216074 214862 231686 231045 284818
291855 221578 255120 249178 235911 255608 254300 268917 412548 302016
301084 274613 254612 255267 230818 231076 212858 252416 253307 273819
272956 251190 251822 249987 250383 272046 274368 261812 291440 315194
331055 303825 225066 237311 247251 273792 251716 250560 302788 340620
344113 344399 344360 301669 300096 342089 335742 307958 315189 313362
277519 256202 274571 329763 337724 306880 260022 410394 323997 269449
245716 241457 329810 329786 297800 387128 364951 367128 500848 411790
403815 400846 409773 518343 437352 374214 384196 311526 344855 344465
346991 345892 311275 345990 351176 338661 365632 364832 391421 443673
522492 544250 595429 589554 622713 101368 195183 196118 101305 108619
235213 347183 348869 310840 101320 137539 187210 295346 344809 345691
311668 349914 349954 612931 580811 527112 352802 344991 281531 103695
103460 128059 130851 103587 350878 330893 365856 260176 250191 105867
106114 282413 363345 278184 389640 286029 201869 372790 398989 409413
202613 199034 208194 300188 280573 278347 279414 205795 205710 263709
246327 197110 197793 234456 227910 224081 222424 209591 158874 275876
205354 210848 223227 226831 332952 309130 345172 262929 280351 304038
102405 257451 277606 275953 252727 254212 240517 264936 218637 263826
256410 276983 249479 282693 278876 292898 236437 236171 265048 284245
275519 240208 237198 311484 233661 225246 273285 267812 208598 180939
222024 422187 373827 244489 277456 227022 548036 494258 267669 101299
101397 101740 143965 115650 190954 104946 135956 142896 144244 139662
105459 469266 569169 570083 199098 113099 112323 112449 113161 199484
104480 133056 127879 156677 106644 104605 110837 108837 174405 101298
101301 102524 103088 102360 114327 112914 124586 103605 136061 104875
102039 106581 112516 239180 118338 102386 103500 101418 102642 105761
101298 101299 101332 101298 101303 101303 102205 102268 101373 101298
101300 101302 101346 101922 102085 101374 102274 102216 101702 101336