# vtk DataFile Version 2.0
sampleSurface
ASCII
DATASET POLYDATA
POINTS 3191 float
-2.71051e-18 0 0 0.1 0 0 -0.1 0 0 -3.83988e-18 0
0.125 0.1 0 0.125 -0.1 0 0.125 -0.2 0 0
0.2 0 0 -0.2 0 0.125 0.2 0 0.125 -4.96926e-18
0 0.25 0.1 0 0.25 -0.1 0 0.25 -0.3 0
0 0.3 0 0 -0.2 0 0.25 0.2 0 0.25
-0.3 0 0.125 0.3 0 0.125 -3.83988e-18 0 0.375 0.1
0 0.375 -0.1 0 0.375 -0.3 0 0.25 0.3 0
0.25 -0.4 0 0 0.4 0 0 -0.4 0 0.125
0.4 0 0.125 -0.2 0 0.375 0.2 0 0.375 -0.4
0 0.25 0.4 0 0.25 0.3 0 0.375 -0.3 0
0.375 -2.71051e-18 0 0.5 -0.5 0 0 0.5 0 0
0.1 0 0.5 -0.1 0 0.5 -0.5 0 0.125 0.5
0 0.125 -0.2 0 0.5 0.2 0 0.5 -0.4 0
0.375 0.4 0 0.375 -0.5 0 0.25 0.5 0 0.25
-0.3 0 0.5 0.3 0 0.5 0.6 0 0 -0.6
0 0 0.6 0 0.125 -0.6 0 0.125 -4.29163e-18 0
0.625 -0.5 0 0.375 0.5 0 0.375 0.1 0 0.625
-0.1 0 0.625 -0.4 0 0.5 0.4 0 0.5 0.6
0 0.25 -0.6 0 0.25 -0.2 0 0.625 0.2 0
0.625 -0.3 0 0.625 0.3 0 0.625 0.7 0 0
-0.7 0 0 -0.5 0 0.5 0.5 0 0.5 0.6
0 0.375 -0.6 0 0.375 -0.7 0 0.125 0.7 0
0.125 -0.4 -3.79471e-18 0.625 0.4 0 0.625 0.6 0 0.4375
0.7 0 0.25 -0.7 0 0.25 -5.87276e-18 0 0.75 0.65
0 0.375 -0.1 0 0.75 0.1 0 0.75 0.7 0
0.3125 -0.2 0 0.75 0.2 0 0.75 0.6 0 0.5
-0.6 0 0.5 0.65 0 0.4375 0.75 0 0.25 -0.7
0 0.375 0.7 0 0.375 -0.8 0 0 0.8 0
0 -0.5 0 0.625 0.5 0 0.625 -0.3 -3.79471e-18 0.75
0.3 0 0.75 -0.8 0 0.125 0.8 0 0.125 0.75
0 0.3125 0.65 0 0.5 0.8 0 0.1875 0.6 0
0.5625 0.7 0 0.4375 -0.8 0 0.25 0.8 0 0.25
0.75 0 0.375 -0.4 1.54074e-33 0.75 0.4 0 0.75 0.8
0 0.3125 0.85 0 0.125 0.65 0 0.5625 0.7 0
0.5 -0.7 0 0.5 -0.6 0 0.625 0.6 0 0.625
0.75 0 0.4375 0.85 0 0.1875 -4.74338e-18 0 0.875 -0.1
0 0.875 0.1 0 0.875 -0.8 0 0.375 0.8 0
0.375 0.85 0 0.25 -0.2 0 0.875 0.2 0 0.875
0.7 0 0.5625 -0.9 0 0 0.9 0 0 -0.5
-3.79471e-18 0.75 0.75 0 0.5 0.5 0 0.75 0.65 0
0.625 0.9 0 0.0625 0.85 0 0.3125 0.9 0 0.125
-0.9 0 0.125 0.8 0 0.4375 0.9 0 0.1875 0.3
0 0.875 -0.3 0 0.875 0.85 0 0.375 -0.9 0
0.25 0.9 0 0.25 0.75 0 0.5625 0.7 0 0.625
-0.7 0 0.625 -0.8 0 0.5 0.8 0 0.5 0.95
0 0 0.95 0 0.0625 0.9 0 0.3125 0.85 0
0.4375 0.95 0 0.125 -0.6 0 0.75 0.6 0 0.75
-0.4 0 0.875 0.4 0 0.875 0.95 0 0.1875 0.9
0 0.375 -0.9 0 0.375 0.75 0 0.625 0.8 0
0.5625 0.7 0 0.6875 0.95 0 0.25 0.85 0 0.5
-3.61401e-18 0 1 1 0 0 -1 0 0 0.95
0 0.3125 0.9 0 0.4375 1 0 0.0625 0.1 0
1 -0.1 0 1 -0.5 0 0.875 1 0 0.125
0.5 0 0.875 -1 0 0.125 -0.8 0 0.625 0.8
0 0.625 1 0 0.1875 0.75 0 0.6875 0.85 0
0.5625 -0.2 0 1 0.2 0 1 0.95 0 0.375
0.7 0 0.75 -0.7 1.65709e-18 0.75 -0.9 0 0.5 0.9
0 0.5 1 0 0.25 -1 0 0.25 -0.3 0
1 0.3 0 1 0.95 0 0.4375 1 0 0.3125
1.05 0 0 1.05 0 0.0625 0.8 0 0.6875 0.85
0 0.625 1.05 0 0.125 0.75 0 0.75 0.6 0
0.875 -0.6 0 0.875 0.9 0 0.5625 1.05 0 0.1875
1 0 0.375 -1 0 0.375 0.95 0 0.5 -0.4
0 1 0.4 0 1 1.05 0 0.25 1 0
0.4375 0.85 0 0.6875 1.05 0 0.3125 -0.9 9.62965e-35 0.625
0.9 0 0.625 0.8 0 0.75 -0.8 3.85186e-34 0.75 1.1
0 0 -1.1 0 0 1.1 0 0.0625 0.95 0
0.5625 -1.1 0 0.125 1.1 0 0.125 1.05 0 0.375
1.1 0 0.1875 1 0 0.5 -0.5 0 1 0.5
0 1 -1 0 0.5 -0.7 0 0.875 0.7 0
0.875 6.77626e-19 -4.51751e-19 1.125 -1.1 -3.78534e-18 0.25 1.1 0 0.25
-0.1 0 1.125 0.1 0 1.125 0.9 0 0.6875 0.85
0 0.75 0.95 0 0.625 1.05 0 0.4375 0.8 0
0.8125 -0.2 0 1.125 0.2 0 1.125 1.1 0 0.3125
1 0 0.5625 1.15 0 0.125 -1.1 0 0.375 1.1
0 0.375 1.05 0 0.5 0.3 0 1.125 -0.3 0
1.125 1.15 0 0.1875 0.6 0 1 -0.6 0 1
0.9 0 0.75 -0.9 0 0.75 0.95 0 0.6875 0.85
0 0.8125 1.15 0 0.25 1 0 0.625 -1 0
0.625 1.1 0 0.4375 -0.8 1.65709e-18 0.875 0.8 0 0.875
1.05 0 0.5625 1.15 0 0.3125 -0.4 3.73447e-18 1.125 0.4
2.25875e-19 1.125 1.2 0 0 -1.2 0 0 -1.2 -3.78534e-18
0.125 1.2 0 0.125 1.1 0 0.5 -1.1 -3.61401e-18 0.5
1.15 0 0.375 0.95 0 0.75 0.9 0 0.8125 1
0 0.6875 1.2 0 0.1875 0.85 0 0.875 0.7 0
1 -0.7 0 1 1.05 0 0.625 -1.2 0 0.25
1.2 0 0.25 1.15 0 0.4375 -0.5 0 1.125 0.5
0 1.125 1.1 0 0.5625 1.2 0 0.3125 1 0
0.75 -1 0 0.75 4.96926e-18 0 1.25 0.95 0 0.8125
1.15 0 0.5 0.1 -4.51751e-19 1.25 -0.1 -4.51751e-19 1.25 1.05
0 0.6875 0.9 0 0.875 -0.9 0 0.875 -1.2 0
0.375 1.2 0 0.375 -1.1 0 0.625 1.1 0 0.625
-0.2 0 1.25 0.2 0 1.25 1.25 0 0.25 -0.6
0 1.125 0.6 0 1.125 1.2 0 0.4375 1.15 0
0.5625 -0.8 0 1 0.8 0 1 -0.3 0 1.25
0.3 0 1.25 1.25 0 0.3125 1 0 0.8125 1.05
0 0.75 0.95 0 0.875 1.1 0 0.6875 0.9 0
0.9375 -1.2 1.54074e-33 0.5 -1.3 0 0 1.2 0 0.5
1.3 0 0 1.25 0 0.375 -1.3 0 0.125 1.3
0 0.125 1.15 0 0.625 -0.4 0 1.25 0.4 0
1.25 -1.3 -3.78534e-18 0.25 1.3 0 0.25 1.25 0 0.4375
-0.7 0 1.125 0.7 0 1.125 1.2 0 0.5625 1.05
0 0.8125 1 0 0.875 -1 0 0.875 -1.1 -1.03903e-18
0.75 1.1 0 0.75 0.95 0 0.9375 1.3 0 0.3125
1.15 0 0.6875 -0.9 0 1 0.9 0 1 1.25
0 0.5 -0.5 0 1.25 0.5 0 1.25 -1.3 0
0.375 -1.2 0 0.625 1.2 0 0.625 1.3 0 0.375
1.05 0 0.875 1.1 0 0.8125 1.25 0 0.5625 1
0 0.9375 1.3 0 0.4375 1.15 0 0.75 2.71051e-18 -4.51751e-19
1.375 0.1 0 1.375 -0.1 0 1.375 0.95 0 1
-0.8 5.48124e-18 1.125 0.8 0 1.125 1.2 0 0.6875 -0.6
0 1.25 0.6 0 1.25 -0.2 0 1.375 0.2 0
1.375 -1.3 -3.61401e-18 0.5 1.3 0 0.5 1.25 0 0.625
1.4 0 0 -1.4 0 0 1.35 0 0.375 -1.4
0 0.125 -1.1 0 0.875 1.4 0 0.125 1.1 0
0.875 0.3 0 1.375 -0.3 0 1.375 1.05 0 0.9375
1.15 0 0.8125 1 0 1 -1 0 1 -1.2
0 0.75 1.2 0 0.75 1.3 0 0.5625 1.35 0
0.4375 -1.4 0 0.25 1.4 0 0.25 1.25 0 0.6875
-0.4 3.73447e-18 1.375 0.4 2.25875e-19 1.375 -0.7 5.48124e-18 1.25 0.7
0 1.25 1.35 0 0.5 -0.9 0 1.125 0.9 0
1.125 -1.3 0 0.625 1.3 0 0.625 1.15 0 0.875
1.1 0 0.9375 1.2 0 0.8125 -1.4 0 0.375 1.4
0 0.375 1.05 0 1 1.25 0 0.75 1.35 0
0.5625 -0.5 0 1.375 0.5 0 1.375 1.4 0 0.4375
1.3 0 0.6875 -0.8 0 1.25 0.8 0 1.25 -1.2
0 0.875 1.2 0 0.875 1.4 0 0.5 1.1 0
1 -1.4 0 0.5 -1.1 -3.61401e-18 1 1.35 0 0.625
1.5 0 0 -1.5 0 0 4.51751e-19 0 1.5 -0.6
0 1.375 0.6 0 1.375 -1.3 -1.03903e-18 0.75 1.3 0
0.75 0.1 0 1.5 -0.1 0 1.5 -1.5 0 0.125
1.5 0 0.125 1 0 1.125 -1 0 1.125 1.4
0 0.5625 -0.2 0 1.5 0.2 0 1.5 -1.5 0
0.25 1.5 0 0.25 -0.3 0 1.5 0.3 0 1.5
-1.4 0 0.625 1.4 0 0.625 -0.9 0 1.25 0.9
0 1.25 0.7 0 1.375 -0.7 0 1.375 1.5 0
0.375 -1.5 0 0.375 0.4 0 1.5 -0.4 0 1.5
-1.2 1.54074e-33 1 1.2 0 1 1.3 0 0.875 -1.3
0 0.875 -1.1 0 1.125 1.1 0 1.125 1.5 0
0.5 -1.5 0 0.5 -0.5 0 1.5 0.5 0 1.5
-1.4 0 0.75 1.4 0 0.75 -0.8 5.48124e-18 1.375 0.8
0 1.375 -1.6 0 0 1.6 0 0 1 0
1.25 -1 0 1.25 1.6 0 0.125 -1.6 0 0.125
-0.6 0 1.5 0.6 0 1.5 1.6 0 0.25 -1.6
0 0.25 -1.5 0 0.625 1.5 0 0.625 9.03502e-19 0
1.625 0.1 0 1.625 -0.1 0 1.625 -0.2 0 1.625
0.2 0 1.625 -1.3 -3.61401e-18 1 1.3 0 1 -0.9
0 1.375 0.9 0 1.375 1.6 0 0.375 -1.6 0
0.375 -1.2 0 1.125 1.2 0 1.125 -1.4 0 0.875
1.4 0 0.875 -0.3 0 1.625 0.3 0 1.625 0.7
0 1.5 -0.7 0 1.5 -1.1 -9.78794e-19 1.25 1.1 0
1.25 -0.4 0 1.625 0.4 3.87422e-18 1.625 1.6 0 0.5
-1.6 0 0.5 -1.5 -3.67424e-18 0.75 1.5 0 0.75 -0.8
0 1.5 -1.7 0 0 0.8 0 1.5 1.7 0
0 -0.5 0 1.625 0.5 0 1.625 1 0 1.375
-1 0 1.375 -1.7 0 0.125 1.7 0 0.125 -1.6
-3.67424e-18 0.625 1.6 0 0.625 -1.7 0 0.25 1.7 0
0.25 -1.3 0 1.125 1.3 0 1.125 1.4 0 1
-1.4 0 1 -0.6 0 1.625 0.6 0 1.625 -1.2
0 1.25 1.2 0 1.25 1.5 0 0.875 -1.5 0
0.875 1.7 0 0.375 -1.7 0 0.375 -0.9 0 1.5
0.9 0 1.5 1.35525e-18 0 1.75 0.1 0 1.75 -0.1
0 1.75 1.1 0 1.375 -1.1 0 1.375 -0.2 0
1.75 0.2 0 1.75 -1.6 0 0.75 1.6 0 0.75
0.7 0 1.625 -0.7 9.62965e-35 1.625 1.7 0 0.5 -1.7
0 0.5 -0.3 -3.97541e-18 1.75 0.3 3.87422e-18 1.75 -0.4 0
1.75 0.4 3.08149e-33 1.75 -1.4 0 1.125 1.4 0 1.125
1.8 0 0 -1.8 0 0 1.5 0 1 1
0 1.5 -1.5 0 1 -1 0 1.5 -1.3 -9.78794e-19
1.25 1.3 0 1.25 -1.8 0 0.125 1.8 0 0.125
-1.7 0 0.625 0.8 0 1.625 -0.8 1.56607e-18 1.625 1.7
0 0.625 -1.8 0 0.25 1.8 0 0.25 -0.5 -3.97541e-18
1.75 0.5 3.87422e-18 1.75 -1.6 0 0.875 1.6 0 0.875
-1.2 0 1.375 1.2 0 1.375 -1.8 0 0.375 1.8
0 0.375 -0.6 0 1.75 0.6 0 1.75 0.9 0
1.625 -0.9 9.62965e-35 1.625 -1.7 -3.67424e-18 0.75 1.7 0 0.75
1.1 0 1.5 -1.1 -3.61401e-18 1.5 1.8 0 0.5 -1.8
0 0.5 -1.5 0 1.125 1.5 0 1.125 9.03502e-19 0
1.875 -1.4 0 1.25 1.4 0 1.25 -0.1 0 1.875
0.1 0 1.875 0.7 0 1.75 -0.7 1.56607e-18 1.75 -0.2
0 1.875 0.2 0 1.875 1.6 0 1 -1.6 0
1 1.3 0 1.375 -1.3 0 1.375 0.3 0 1.875
-0.3 0 1.875 1.9 0 0 -1.9 0 0 1.9
0 0.125 -1.9 0 0.125 -1.8 0 0.625 1.8 0
0.625 1 0 1.625 -1 0 1.625 -1.7 0 0.875
1.7 0 0.875 1.9 -1.71331e-19 0.25 -1.9 0 0.25 -0.4
0 1.875 0.4 0 1.875 -1.2 1.54074e-33 1.5 1.2 0
1.5 0.8 0 1.75 -0.8 0 1.75 1.9 0 0.375
-1.9 0 0.375 0.5 0 1.875 -0.5 0 1.875 -1.8
0 0.75 1.8 0 0.75 -1.5 3.67424e-18 1.25 1.5 -3.61401e-18
1.25 1.6 -3.61401e-18 1.125 -1.6 3.67424e-18 1.125 -1.1 0 1.625
-1.4 0 1.375 1.1 0 1.625 1.4 0 1.375 1.9
0 0.5 -1.9 0 0.5 0.9 0 1.75 -0.9 1.56607e-18
1.75 -0.6 0 1.875 0.6 0 1.875 1.7 0 1
-1.7 0 1 -1.3 -3.61401e-18 1.5 1.3 0 1.5 2
0 0 -2 0 0 4.51751e-19 0 2 1.9 0
0.625 -1.9 0 0.625 0.7 0 1.875 -1.8 0 0.875
1.8 0 0.875 -0.7 0 1.875 0.1 0 2 -0.1
0 2 2 0 0.125 -2 0 0.125 -0.2 0
2 0.2 0 2 1 0 1.75 -1 0 1.75
2 0 0.25 -2 0 0.25 -1.2 -3.85186e-34 1.625 1.2
0 1.625 -0.3 0 2 0.3 0 2 1.6 1.54074e-33
1.25 -1.6 0 1.25 -1.1 0 1.70864 -1.5 0 1.375
2 -1.71331e-19 0.375 1.5 0 1.375 -2 0 0.375 0.8
0 1.875 1.7 0 1.125 -0.8 1.56607e-18 1.875 -1.7 0
1.125 -0.4 0 2 0.4 0 2 1.9 2.99829e-19 0.75
-1.9 1.9877e-18 0.75 1.4 0 1.5 -1.4 0 1.5 1.8
0 1 -1.8 0 1 -0.5 0 2 0.5 0
2 2 0 0.5 -2 0 0.5 -1.1 9.62965e-35 1.75
1.1 0 1.75 0.9 0 1.875 -0.9 0 1.875 -1.3
-1.92593e-34 1.625 1.3 0 1.625 -1.2 -1.92593e-34 1.70864 -0.6 0
2 0.6 0 2 1.9 0 0.875 -1.9 0 0.875
2 2.99829e-19 0.625 -2 1.9877e-18 0.625 2.1 0 0 -2.1
0 0 2.1 0 0.125 -2.1 0 0.125 1.6 -3.61401e-18
1.375 -1.6 3.67424e-18 1.375 1.7 0 1.25 -1.7 3.67424e-18 1.25
2.1 -1.71331e-19 0.25 -2.1 0 0.25 -0.7 0 2 0.7
0 2 1.5 0 1.5 -1.5 0 1.5 -1.2 1.92593e-34
1.75 1.2 0 1.75 1.8 0 1.125 -1.8 0 1.125
1 0 1.875 -8.80914e-18 3.61401e-18 2.125 -1 0 1.875 -0.1
0 2.125 0.1 0 2.125 2.1 0 0.375 -2.1 0
0.375 0.2 0 2.125 -0.2 0 2.125 2 0 0.75
-2 0 0.75 1.4 0 1.625 -1.4 0 1.625 0.3
0 2.125 -0.3 0 2.125 -1.3 0 1.70864 1.9 0
1 -1.9 0 1 -0.8 0 2 0.8 0 2
2.1 0 0.5 -2.1 0 0.5 0.4 0 2.125 -0.4
-1.20467e-19 2.125 1.1 0 1.875 -1.1 0 1.875 -1.3 0
1.75 1.3 0 1.75 0.5 0 2.125 2 0 0.875
-2 1.9877e-18 0.875 -0.5 0 2.125 1.7 0 1.375 -1.7
0 1.375 -2.1 0 0.625 2.1 0 0.625 1.8 0
1.25 -1.8 0 1.25 -0.9 0 2 0.9 0 2
1.6 0 1.5 -1.6 0 1.5 2.2 0 0 -2.2
0 0 2.2 0 0.125 -2.2 0 0.125 -1.9 0
1.125 1.9 0 1.125 -0.6 0 2.125 0.6 0 2.125
1.5 0 1.625 -1.5 0 1.625 2.2 0 0.25 -2.2
[...]
POINT_DATA 3191
FIELD attributes 1
p 1 3191 float
95675.3 81457.9 108287 93213 81916.7 104002 120623 66687.8 115425 70192 88658.3
82913.5 95453.2 128477 54969 104588 76541.5 123367 60014.2 85046.1 82904.4
88488.5 112631 69571.9 126195 47379.5 122273 52630.6 94993 79627.6 114468
63828.8 75117.8 102475 83855.6 117014 41171.9 82686 86186.7 114787 45462.5
91382.4 80486 106843 71389.4 110868 56527.7 97877.4 77171.2 31581.7 108879
33709.6 107985 86545.4 107022 66159.6 85303.8 89219.1 102466 74021.1 41510
106754 94461.6 83755.3 100188 81469.5 20059.8 106145 103974 70104.4 53358.7
105607 105899 20548.6 103331 78681.8 58555.3 22487.1 105911 93037.3 43215.5
96377.4 91654.8 22464.8 101831 90795.9 62928.1 104053 49380.3 15098.4 106035
27282.3 108368 13345.6 103516 75124 106612 89604.2 108359 13077.8 15551.3
56309.4 12642.2 65353.4 34438.8 108789 12605.7 16744 107765 87879.4 12441.5
11660.6 61720.6 45120.3 105486 103028 70909.9 21011.5 11610.3 102932 106802
101382 109361 12734.2 11575.1 112089 101081 55524.7 113581 11405.1 105799
31675.1 85179.7 66984.7 11356.1 11567.8 11347.6 113713 14324.3 11316.7 100762
115582 11710.1 114281 11342.5 47143.7 65809.3 104593 109431 21026.6 11208.2
11230.6 11394.3 12289.3 11283.2 103822 83538.7 114595 100575 11355.2 11512.8
114975 63523.1 36945.6 77018.4 11423.2 15255.5 115061 11404.3 120240 11501.8
11790.9 11428.1 113497 118858 110389 11491.5 99573.7 120498 109039 58767.6
11578.7 77756.1 26972.8 123399 113702 11602.1 86481.4 104697 115482 12990.6
11655.8 121136 125687 114328 11757 11730.4 11720.3 11731.4 78330.6 49961.9
11774.9 87445.3 99203.7 106820 19467.2 11854.2 11805.5 121892 12244.4 123063
115467 11928.3 11896.2 75441.1 11993.2 115745 37793.9 93194.4 109050 12002.7
127269 11976.5 14896.7 127620 12056.9 12053.3 12137.7 12121.9 116927 116266
122829 106820 103101 127979 128324 12210.5 131379 126780 64507.1 95409.2
25649.7 12114.4 106034 135109 127640 12268.3 13020.8 12334.4 129223 12324.1
12239.7 129190 136562 12405 117219 111846 88833.4 116128 47202.8 108095
12482.6 17461.5 123907 12379.3 110695 111657 12611.4 12541.8 133007 131211
12496.8 134256 134683 12565.6 12472.8 130680 12597.4 72616.5 104465 30058.1
12615.7 114001 119318 111039 13981.2 135489 12741.5 12662.4 125551 133160
12699.1 12812.6 50447.2 125038 141847 93046.4 12764.5 140997 145047 18897.8
113143 117648 136623 12863.4 132732 13263 148285 142425 13023 119125
134501 12944.9 12956.3 114437 122014 149137 144596 13080.6 71831.4 30098.4
107626 14893.7 119706 138652 141264 13075.8 12988 13132.4 141761 13057
13336.9 144867 147300 142675 13263.5 13240 117357 134087 13289.5 46117.9
90320.3 126796 134851 19499.7 116089 13323.3 14202.4 121019 123045 13413.8
136305 150101 144056 141690 13679.4 13453.9 63413.3 28097.1 13680.6 100948
13603.4 16558.1 157378 156360 160870 119135 120198 132306 14391.7 128589
150077 164216 157739 146637 13836.5 14175.2 13532.6 148501 13873.8 149039
137087 13615.9 41982.8 159914 164564 76236.1 20919 105665 129944 144850
16330.9 14189.5 14038.1 150016 13879.9 14951.8 159269 162819 125647 144703
14356 126325 128092 150561 14940.9 28656.9 58611.9 19530.8 151590 14353
84721.1 16476.8 14853.8 149354 165881 14530.7 15811.7 127767 137486 147672
27498.2 15195.2 69310.1 154653 140188 15637.3 14196.7 156099 174347 140200
163559 154729 18180.4 172538 178919 156645 14315.2 113854 134795 15743.1
183208 173302 157626 14750.8 183070 175055 159411 17465.7 133419 129482
152789 135853 15702.7 159334 177617 176255 150833 45527.8 25425.7 158190
144614 87056.6 17865 162842 164414 179109 164661 22594.9 137059 140450
164125 15051.2 115210 141361 15256.2 164656 153385 173263 16033.1 165608
168495 22451.2 191751 188580 198517 204345 188722 161471 36915.4 142198
129716 17916.5 167437 154876 61521.3 168839 30744.6 203389 189696 160275
147539 150553 93947.4 194443 190267 22140.2 171420 174930 30046.7 147712
172642 147955 16228.5 180015 187916 116031 149516 173142 16603.1 178008
29517 174062 18070.7 165184 53232.3 42790.1 172203 166814 178980 160109
76320.5 40111.5 179816 21715.5 176057 152234 137724 210080 204619 219895
99772.8 157923 226792 203193 185528 38963.1 167275 159892 28524.2 180539
223931 201886 211699 198985 175445 58794.7 17953.1 181671 52204.2 124759
183049 158853 169614 72242.2 182143 18665.8 187916 158478 159304 37575.9
183090 21461.8 194072 193272 190897 49131.8 166483 89256.2 185311 27398.8
179346 184585 149722 163217 196166 46874.3 109496 166323 35870.5 190209
185187 66805.4 231955 178593 77647 242921 223667 176275 172339 247804
218740 60196.6 193388 89348.2 174602 213309 240976 20522 191260 21946.6
191707 198060 44709.5 135639 169047 201408 55944.5 26621.1 192745 223948
206807 173553 100158 169147 171688 34223.2 195209 199573 203758 206420
52793.5 185708 84055.1 73134.5 192842 175275 181194 118837 95475.2 42604.6
200325 158411 175213 189813 191979 65830.5 201696 179546 101409 24592.1
201352 248947 50136.1 208191 183983 210327 60868.5 184033 240845 256622
26991.3 201773 256252 234220 141486 180040 33193.6 202960 180593 108709
243940 226783 88518.5 188475 181378 184073 40895.7 101366 205641 172938
77599.5 183862 196080 223039 218401 57221.3 215758 108583 182595 70187.8
206285 203764 209791 48001.3 210714 184396 124683 157095 186719 183541
109467 184682 193345 199818 64943.9 216735 54372.5 218040 31098.8 212107
33986 212498 104875 181287 91633.3 185463 40266.7 213790 189813 186404
115363 180648 186705 115909 81455.6 194156 139808 243228 189600 245203
238758 46689.6 216497 233981 239455 61104.2 223735 116704 182337 228517
223506 184872 74192.1 206903 190012 169030 52422.4 221217 221634 203639
127380 190705 185529 116242 212561 68828.9 220367 189753 107125 174394
227414 58269.6 94702.1 179126 191062 150964 119483 174174 40623.8 223620
42839.3 223938 189606 85312.9 184027 200081 124588 176728 47336.9 225111
188828 122167 64955.5 230105 51850.9 227550 78054.4 205202 190655 137220
182642 184486 122240 180552 207702 208482 202771 56629.9 231659 206844
191907 109457 168915 121998 167943 203637 177148 182517 168214 98074.9
174803 72682.5 221732 130264 170279 184042 122713 187930 129922 199130
165500 62312.4 236073 88998.6 186614 53063.8 234933 53608.8 235217 130024
174393 192496 160749 181549 154212 54891.9 236281 68891.5 234557 81836.5
203492 160361 183198 57270.6 238461 183357 127383 127235 178574 124204
167678 112143 169829 179068 144319 134014 168802 61311.7 241739 161259
173327 176387 101381 76528.3 221523 136953 172170 146887 139682 151084
187948 92530.6 243218 66683.1 152415 130906 179018 127931 161756 165872
175755 138589 151572 124478 246042 67437.9 133899 176517 66196.3 246313
149843 123517 63956.4 247311 85549.9 203647 72991.1 236292 126496 174940
161464 160904 136862 175057 177752 114896 148560 126610 63943.5 249046
142341 177404 173336 135730 131192 177972 104576 184124 130727 148160
66938.8 250250 80437.4 220455 161026 157107 141087 181137 95926.4 194109
134548 148938 71578.2 246626 134901 173805 128829 187651 99511.7 136631
82114.4 182480 256879 187435 139395 101142 97577.1 79826.6 256895 161556
153906 137895 151452 89174.6 206933 101870 96781.2 117665 190540 146559
189384 75109 256998 77418.3 234593 98406 101779 72644.1 256577 107632
196332 147681 192443 101581 102340 141209 154972 178493 136341 73959
253271 107470 103010 164172 150922 84514.5 220314 99139.8 204571 143497
192588 112903 107586 154385 203844 141760 77393 244151 145161 158174
131172 203900 205859 150058 120362 206489 118373 114967 169467 148577
153377 208488 92811.9 214353 95437.1 261414 187312 140139 93078.6 260971
82420.1 231597 87704.2 259322 150287 160285 110469 211656 159512 124035
123484 150792 206889 89217.1 87445.8 91311.8 83506.4 255609 85817.6 93986.3
84299.5 97396.5 82773 248639 224183 88939.1 177447 147816 102333 218666
223478 83125.7 143977 101483 130175 132059 225746 153053 145943 199320
156849 161018 133495 223001 166568 227832 158269 82965.5 106105 84582.4
239377 225130 122874 157765 224340 96714.2 137061 226442 140303 111211
84811.1 255185 106751 254858 104905 187706 149236 113256 229838 88403.7
233112 164911 160930 100345 253004 89118.5 116858 153124 213808 249137
95763.8 144842 147598 249269 155672 146184 246646 105822 250542 236107
162452 94064.5 234570 123138 95462 244356 135786 245545 93390.8 94627.8
92087.4 97359.4 174469 161012 89654.5 100399 164083 245075 152852 199853
125386 247264 87336.5 103820 241480 93432.8 153588 153589 130167 103268
85230.9 107674 160856 231190 101241 243451 112055 83523.8 116392 251697
250260 116488 95807.1 243986 250758 115195 112080 185596 162078 138076
111886 251017 158162 278487 117076 82525.1 278565 166078 148552 275748
163408 158510 214411 158531 250787 108108 270863 169714 138244 274001
109959 258122 122825 82552.9 252883 100364 251891 105206 121341 146941
168390 253576 275295 128319 198776 164571 129382 83911.4 174435 162708
256417 103833 103929 101104 106891 267586 106796 165700 233291 98351.4
110046 120245 279971 130512 156814 160884 316187 113485 95668.4 169424
314201 136846 86788.4 151264 313993 104766 266410 261484 303800 174858
125103 262568 124202 117364 93101.8 121960 264917 141207 187128 311822
166628 121835 90716.7 175453 283626 168847 215487 268701 119494 115071
289107 145321 91237.2 167870 139350 282751 108146 127029 88705.5 132013
313021 275668 117101 173481 259345 346201 133044 87292.7 97367.7 154917
115139 287365 172915 351658 202768 170866 164119 355574 304876 179753
339788 113720 180539 147621 319186 125085 174832 238294 354649 154544
139983 86630.3 182179 318323 115063 304492 132841 291705 114885 104943
165833 111893 118071 144912 353143 132218 293089 109039 121503 181365
130829 296881 291631 148010 86791.9 106274 125294 331345 121449 223563
175906 155197 195782 129583 303568 103610 129597 325315 117428 136691
354092 371673 128142 314009 101103 134535 181984 267789 113441 178495
87801 157354 176981 374600 184678 363386 168030 379685 188764 344388
140227 98880.8 126526 328176 158542 380282 358587 131135 346779 122158
215514 162339 189207 319221 168282 89919.2 181953 251008 146860 97069.7
193863 122337 149561 378967 126220 344258 140089 328387 329334 139656
154704 95757.9 189911 294805 332358 138926 129279 364791 333718 373245
93381.3 181276 376909 142539 138558 338043 361791 189988 127991 181847
357911 127420 372074 124232 130901 241481 169353 195410 121290 134747
346196 164061 95019.6 131150 213713 172732 377347 118529 139080 138094
345864 189017 277280 197145 325536 115909 144061 163458 377709 197357
98080 372829 138582 132066 175344 365176 94859.1 137450 353497 113468
149884 198328 304415 155366 373042 139563 238989 156734 111305 176483
267254 137660 357749 189203 95388.7 218081 103749 147288 347382 196977
288750 195960 323552 164892 347241 109483 146977 138619 362456 202317
187538 309410 332964 149748 361835 347237 146641 347336 178356 205416
293234 336381 139443 354984 146819 347653 174860 108091 206685 96735.9
147448 263397 207223 169529 279460 331694 147274 347183 183911 279439
110076 242627 142490 147524 341322 138992 146462 107174 187231 135876
151026 143252 340563 147847 342413 133070 156334 162522 316737 205558
270826 228308 98883.8 130510 162579 202664 242770 232136 209713 202774
106746 154843 275076 149072 328804 194064 248781 128166 170075 214237
220361 264457 116616 307084 149477 154647 330323 191581 158464 266559
289511 185057 247271 328881 154459 126083 179321 213098 216801 324562
154287 250887 101739 322592 221692 106893 151497 301308 316322 154792
176935 235333 190931 124316 214706 212700 156145 301347 122916 273744
161736 158088 250455 264502 205294 122983 242255 107612 155570 257538
171225 268248 212682 105194 217880 151857 158000 276493 210160 156496
216730 199361 223852 146051 201541 157783 222029 122108 162681 158497
227219 167634 142776 173608 154927 160569 241050 260790 108909 192982
153545 151869 180944 182621 168860 128716 161832 262418 203132 224444
144692 149219 190032 162273 255273 109041 273188 239737 121720 167996
220499 162260 252095 162177 242426 146884 185858 143408 201109 164121
198744 162895 225815 272110 110760 150431 207251 116478 214072 144823
256277 121915 150736 170349 227220 111039 165103 202370 109785 234638
218697 111835 128322 181624 129707 221183 133848 228365 143073 168913
156378 258495 112980 238535 109020 210144 111428 168242 173986 124106
173571 156690 268585 122628 109687 234495 270816 113083 242914 141762
109448 202285 172377 144817 116554 181018 175565 123695 214942 111816
256302 140934 116784 216896 194020 170267 156211 196406 106614 272350
123835 188026 201130 170471 138185 160318 153766 183070 209417 103491
170507 146555 106156 177383 121392 250432 115777 142971 179061 218770
247023 102274 238285 102358 105547 171404 266351 135435 140647 250719
102223 114749 178335 175801 228683 228986 102371 184264 107377 193795
104152 173086 174412 244423 122898 102311 239774 220126 102251 263453
125518 183306 108244 270348 140988 120332 159145 170822 250476 178833
112364 221639 102596 118689 206618 213143 102011 117156 141664 168997
259727 101907 195075 102592 127610 184664 236124 105939 101880 190852
103246 265849 141875 181793 103038 101519 208766 101743 167662 265906
261282 101416 251794 101404 263489 101400 178722 107701 179138 107262
123601 240806 117792 101398 121698 152808 253622 101413 191480 103002
179356 106078 105587 166855 267736 248484 143270 180481 104555 144130
103492 190283 200248 101774 130045 101381 231963 208102 101530 101446
235895 226451 230396 241880 225394 248208 184238 103166 220927 254408
199194 263633 101840 166650 217005 259752 225962 101365 183395 101499
214017 145127 102194 189893 124788 116112 213637 263614 126580 103740
211676 101399 132726 142178 250275 167116 277221 101313 276160 101313
210870 265417 208460 101447 268296 101308 101664 197560 101334 223472
261137 101311 145420 101562 256122 101307 264177 208764 168952 147353
101314 228479 223680 168213 187743 101822 188326 101787 101429 206825
188798 101689 246600 101308 128002 103620 101648 207322 258386 135633
112585 225335 101319 101334 219310 182773 101320 190247 101561 129295
101607 101319 101448 194656 101445 185704 169903 149921 245417 129552
206525 101305 241624 217426 101338 145704 101328 287167 293648 101300
264834 263751 265485 101367 201437 101301 265447 262272 265529 101299
287430 101306 231919 222385 206412 260411 264653 138831 103165 131376
101611 101300 226811 241478 101302 146049 172113 258379 262281 101309
229523 275482 101300 101326 211255 101302 108474 152806 101335 131920
256472 257470 101302 179818 190313 207030 101316 265538 254861 248711
197507 101338 101308 198170 101336 224032 246571 101300 117486 174774
198914 101328 145444 101302 101302 242593 253670 233934 142402 101569
200755 101318 155222 208392 135014 101337 101299 261517 156045 102571
293705 209060 264197 307582 101299 238839 101301 205657 101311 252903
211913 101300 220641 306883 101299 101304 134791 177933 105094 101306
210464 213533 125655 101299 256634 101300 174816 252544 184190 101302
297829 263823 254552 101299 146432 101334 159766 101501 101301 225999
263306 101301 145219 258512 267019 139117 101303 269977 252050 154601
252610 289064 108799 213176 272272 243049 102041 181677 273994 230462
101300 243310 208201 101299 271666 101301 208859 101301 101301 255034
138266 101299 291635 101299 269454 275281 213516 209831 128424 253102
101301 209683 313801 101298 285528 215767 212060 101300 276251 192485
164158 103053 101327 216481 101299 151064 101305 168558 320958 101298
262747 101299 217317 101300 186162 101428 111366 254059 276997 169005
101300 143919 145764 317346 101298 282650 254509 226315 287855 277544
145309 220355 101675 280456 101299 104115 255454 142622 101300 310632
241787 169419 101303 277954 124731 101300 156500 237420 191536 101319
277064 195439 293171 305909 162694 263508 219823 101299 226559 292817
101298 236790 214217 220450 110978 101299 278239 149626 102017 304837
257213 101298 101371 224784 245229 199636 221649 101299 320299 252029
183173 147912 224262 101299 257444 165442 285171 104500 278323 175776
101301 258832 197935 261745 229834 321739 101299 147309 101303 207398
148179 218045 195116 259279 101466 101299 162987 297754 300170 130263
265076 101311 229737 239967 102263 278286 314507 299099 214819 267568
101298 116636 181626 156484 250913 159637 101298 101298 258214 261552
281123 101298 101339 269314 108056 205484 101301 278144 152376 101298
183590 294678 101298 278123 101560 235127 101301 301536 282099 298330
300425 270440 232429 103895 170921 233071 155313 101298 276432 234593
237658 101308 263871 301047 101298 101364 277710 300355 102222 101298
270912 159675 171355 147542 164895 182293 135443 243620 285147 214099
101300 288866 192264 124244 173174 195008 240867 101300 193203 161372
201080 115023 222260 254906 277138 291008 101593 270590 276980 302687
159444 208595 108546 101314 101301 265924 247640 180771 101298 274779
214742 104774 164381 101384 269605 269885 263346 272081 101298 219510
102860 223617 246896 101298 286784 275851 296598 101303 175351 246747
101298 204800 222898 247434 101940 101300 267461 266192 101321 267979
249269 101298 173399 252724 168173 185724 304852 101298 224952 101539
252134 193091 169197 259110 101298 203784 260782 274200 257841 101305
265533 253035 175805 101298 233834 101298 225600 101381 223019 271470
268409 101299 112405 117302 108478 290777 122853 105686 218129 128826
103849 188409 290930 101298 237550 134782 102693 224742 101324 238759
101298 262136 101301 271871 242949 140274 102004 261269 208141 305721
145071 101630 258754 244385 101298 181621 179236 222475 101306 268670
262399 189115 244374 263191 181939 148991 101442 265356 257666 101299
201946 190164 268730 269207 299294 101298 230514 232420 234676 151864
101356 218817 101301 243633 276294 218411 204765 153588 101319 289517
251935 263363 268151 101298 271144 234666 225281 213713 101300 254555
101298 264609 305671 224595 154060 237542 101307 101379 194426 195781
102414 102953 102010 198416 103629 101729 240153 101298 202206 247665
101331 246673 104440 101544 208404 244610 101299 308672 207169 153256
101302 105376 101429 214122 266557 278959 279907 224338 101310 266324
106396 101363 282620 259131 232214 287092 287402 107427 101328 151231
231257 101300 253599 225459 262920 242973 199223 295852 235492 108370
101311 250823 308572 148032 101300 253942 109117 101304 259438 214797
263292 219853 215788 251750 252678 230407 230687 101298 267131 189962
316388 101692 101884 101549 222876 109582 101301 268759 224419 101298
245036 101299 143796 233009 236389 267975 303751 109700 101300 259069
101403 299912 179547 101455 101364 300925 256149 250146 101522 101338
241556 257388 304181 138723 278744 101602 101320 109464 272557 233033
309961 268487 211164 101694 101312 264816 318205 101793 101307 101381
244736 279678 101423 101351 240536 253329 101298 242217 108908 101892
101302 101298 133005 246058 168207 324687 263148 268676 250650 101298
280998 249542 101982 101301 227674 270478 301333 317413 247242 108079
195843 101298 265997 102053 101300 240083 126926 257772 271278 290888
156225 102097 101300 288095 107085 280015 315034 326664 101298 327283
329436 266194 261803 263312 270028 101298 101299 102107 252261 264790
209645 178933 332856 120990 101298 273549 314242 267891 230979 106041
101308 101313 101305 334714 101298 143995 101319 101302 273022 276684
102084 101326 101301 250262 243271 327498 101301 101335 320407 279374
265449 337536 101298 292311 101344 115590 101298 102030 105036 305270
101353 161085 188007 258305 132076 248375 314694 101361 207839 277532
101951 274639 273900 320843 275733 352495 270991 104135 101367 110981
343429 279317 343119 262662 281504 218744 341925 339469 262657 101298
101371 101298 101855 338540 287208 143230 246483 121444 164514 329646
103369 101372 359544 267060 300411 179750 107453 312102 220240 359770
320103 101755 101301 101302 101301 101370 101302 101300 101303 101300
290628 257796 319030 262078 101304 287342 101299 187533 249028 186070
102742 126983 101298 264053 113053 101657 101298 233709 101305 101365