/*--------------------------------*- C++ -*----------------------------------*\
  =========                 |
  \\      /  F ield         | OpenFOAM: The Open Source CFD Toolbox
   \\    /   O peration     | Website:  https://openfoam.org
    \\  /    A nd           | Version:  9
     \\/     M anipulation  |
\*---------------------------------------------------------------------------*/
FoamFile
{
    format      ascii;
    class       volScalarField;
    location    "0.0026";
    object      T;
}
// * * * * * * * * * * * * * * * * * * * * * * * * * * * * * * * * * * * * * //

dimensions      [0 0 0 1 0 0 0];

internalField   nonuniform List<scalar> 
20775
(
410.462
380.661
287.971
311.952
287.926
287.926
287.926
287.926
452.436
508.023
411.794
386.428
287.926
287.926
287.926
287.926
519.458
423.827
499.904
429.639
498.814
456.472
517.437
433.212
444.313
518.823
399.371
488.503
419.593
498.545
493.733
417.225
492.906
349.71
337.735
483.163
482.468
483.194
405.497
489.77
329.803
477.463
302.226
474.162
519.176
513.776
513.766
500.198
500.06
496.787
496.645
518.273
512.215
513.036
498.778
499.395
496.29
495.758
516.739
512.732
510.078
499.537
497.772
495.514
493.165
513.052
501.015
505.949
491.294
494.989
489.776
485.451
499.535
505.641
506.404
492.257
486.975
487.167
491.868
506.824
500.096
506.998
492.485
485.934
487.017
491.94
505.508
495.839
502.733
483.614
490.243
487.248
480.167
512.52
493.751
613.156
512.343
611.855
484.765
485.668
553.476
553.432
509.98
590.39
608.258
484.53
484.652
550.232
546.706
610.785
594.333
595.194
579.287
580.179
562.12
561.424
612.898
595.67
595.867
580.59
580.86
562.48
561.8
612.02
593.617
578.435
588.569
573.29
558.908
553.004
601.053
568.877
580.156
553.771
564.87
544.28
533.66
574.711
554.075
575.411
542.474
522.37
522.949
541.882
513.007
543.994
544.766
528.414
500.423
527.769
501.042
575.252
554.287
575.817
542.637
522.001
523.041
541.696
544.562
513.281
545.194
528.636
500.518
527.758
501.263
572.51
544.058
566.676
518.761
538.442
532.413
513.159
541.877
505.464
536.434
498.254
524.751
519.272
494.597
525.042
557.805
535.331
524.177
498.267
505.952
514.787
499.706
519.107
528.531
511.947
486.671
503.784
490.497
512.314
490.683
485.418
497.212
497.826
511.714
491.359
512.445
491.369
485.896
497.052
497.96
511.467
491.764
489.844
494.523
508.487
503.476
482.675
490.606
487.364
492.309
494.341
498.802
483.282
471.605
476.068
478.687
482.179
491.026
482.605
486.31
478.261
480.644
497.301
482.996
455.002
484.469
478.254
444.076
476.515
446.76
416.953
288.705
288.031
370.035
289.012
288.079
379.26
485.025
457.093
485.129
479.002
449.02
479.211
448.332
493.542
487.912
488.423
480.74
480.741
473.441
473.612
488.233
494.008
488.72
478.767
480.261
472.661
470.802
401.879
288.146
288.395
332.833
287.951
288.007
363.531
448.809
476.804
480.424
440.344
473.621
469.701
435.746
484.053
492.32
486.637
476.118
472.56
467.834
464.032
472.036
428.792
464.485
439.988
464.026
472.374
439.231
439.117
467.228
472.356
465.028
424.187
459.777
430.39
471.06
434.699
460.494
426.92
462.818
469.018
437.54
486.589
480.812
477.28
463.911
468.445
459.645
454.713
693.269
623.924
669.683
638.596
634.934
677.032
585.876
586.674
696.221
638.746
703.663
681.622
584.061
557.91
695.256
675.47
672.17
686.467
661.703
688.767
663.684
668.248
666.4
674.687
668.045
692.823
690.975
666.065
670.278
671.863
689.473
671.087
695.791
699.805
675.42
673.693
675.07
698.28
678.915
701.722
702.775
679.021
674.199
669.216
694.674
694.693
696.573
664.984
653.143
654.371
663.414
637.737
656.461
654.984
649.595
625.428
650.648
625.011
651.344
636.244
652.975
647.99
622.774
646.504
623.902
695.923
699.403
698.328
666.557
655.778
655.469
667.537
658.026
637.118
659.167
624.57
651.141
649.94
621.165
700.372
692.178
700.597
654.598
667.88
666.432
650.722
653.304
632.455
658.202
645.691
603.949
637.476
614.329
692.047
685.834
698.409
661.834
632.138
643.276
653.181
636.603
619.025
605.941
586.634
620.018
635.355
606.874
637.819
607.63
587.132
620.813
620.845
638.347
607.662
605.82
618.93
637.627
634.365
578.288
613.988
601.03
567.789
571.089
630.892
618.73
578.92
578.449
630.185
633.723
569.345
597.736
596.493
573.965
573.369
599.245
599.756
566.374
594.603
593.875
574.502
572.093
597.927
599.589
631.15
635.769
616.205
630.476
615.328
618.662
635.93
615.081
629.16
613.613
618.416
639.118
621.209
636.085
578.693
585.112
586.105
609.138
603.271
603.37
609.838
582.659
593.519
588.045
603.232
615.685
611.266
606.102
623.082
653.058
642.675
623.617
654.845
631.287
643.647
657.946
645.35
663.758
639.088
649.849
628.683
624.626
685.293
731.957
736.015
684.736
675.58
691.153
651.711
739.411
691.089
712.67
696.503
672.197
739.298
726.018
705.861
753.012
650.688
658.978
650.726
659.85
676.769
691.389
689.649
650.057
678.635
663.209
660.45
677.05
692.861
695.686
659.615
674.362
685.902
688.318
700.633
703.494
718.053
670.24
687.823
671.906
708.099
724.133
726.808
705.806
692.427
687.482
694.186
716.956
711.307
713.717
714.852
693.476
738.424
727.731
708.5
719.963
736.231
752.378
689.269
696.004
694.841
718.33
716.803
720.314
715.313
673.951
696.147
677.945
710.449
733.808
729.759
714.113
702.048
707.443
715.701
720.322
725.855
736.865
726.992
687.552
721.224
703.913
740.838
721.966
735.302
751.804
749.276
721.236
733.616
750.28
737.811
760.444
734.28
741.451
738.893
723.73
751.056
770.863
763.556
763.583
736.181
749.635
728.45
737.585
751.746
730.457
733.879
738.082
738.815
733.085
755.966
753.7
740.563
731.949
734.766
759.198
745.231
753.155
738.118
763.588
737.335
761.611
735.819
734.271
764.945
766.658
765.941
738.678
627.618
581.52
569.319
593.857
605.502
617.2
592.798
551.928
484.877
485.847
538.625
541.573
534.198
518.777
573.064
529.884
486.627
533.626
483.82
651.323
541.835
629.691
521.028
496.801
485.835
495.169
502.847
491.98
492.651
502.916
485.3
494.745
497.048
489.02
500.779
491.042
504.233
485.216
493.589
492.922
503.049
496.73
493.538
506.735
515.183
539.423
512.972
521.093
546.112
521.27
545.759
501.104
486.292
499.504
497.574
493.577
509.231
514.872
535.293
504.263
506.404
591.591
533.413
538.755
596.054
518.794
541.031
510.751
547.301
604.276
556.105
601.264
512.274
536.559
510.41
521.281
549.122
525.465
545.322
513.725
502.986
521.914
525.309
527.794
504.986
512.235
501.42
525.655
539.845
515.591
504.737
520.669
546.129
516.276
514.217
526.362
538.241
531.525
508.052
521.954
540.766
561.392
552.725
531.054
562.914
542.762
553.459
517.417
532.347
509.694
527.93
564.128
554.317
536.758
651.141
595.35
564.86
571.858
652.449
601.009
633.687
579.374
633.233
612.213
652.07
606.736
585.764
635.16
533.305
560.191
553.494
565.976
546.454
539.264
554.834
593.618
521.23
518.343
561.579
487.665
668.263
605.87
650.999
554.155
487.33
602.544
548.407
603.778
545.823
653.294
550.92
502.264
492.08
504.796
505.293
521.767
530.385
516.154
498.221
492.943
506.54
504.318
514.886
527.503
515.241
527.727
570.263
536.092
604.342
562.349
568.358
605.103
520.076
564.091
532.456
560.789
535.791
551.35
579.061
562.022
581.663
546.858
577.843
618.6
592.357
609.632
503.961
539.105
519.922
544.803
549.143
566.603
530.167
528.792
501.931
512.704
542.889
548.555
561.234
530.214
630.359
618.249
591.188
597.822
653.048
626.273
630.132
528.697
575.63
547.122
559.19
568.881
589.263
542.384
570.441
582.414
549.265
571.416
621.016
594.499
599.779
524.536
550.255
532.258
548.011
561.246
568.178
538.402
566.406
573.382
586.919
568.939
607.411
586.381
592.887
608.239
643.791
650.519
658.885
637.218
622.548
634.63
574.488
578.015
624.183
586.202
605.649
593.577
558.537
568.411
577
580.956
616.606
591.32
592.607
555.704
591.575
637.61
634.099
631.172
610.317
615.272
615.478
691.659
627.037
577.157
639.466
635.598
606.579
675.631
732.869
592.235
602.738
584.877
616.405
602.356
608.497
624.15
609.303
648.173
632.151
642.215
622.311
642.893
661.548
623.445
654.294
637.588
649.102
630.972
647.348
666.045
594.24
626.885
613.574
627.064
616.024
633.619
646.036
671.764
672.834
654.52
666.936
706.868
686.124
686.737
656.726
650.053
670.841
654.58
687.797
668.053
674.744
650.796
660.959
639.456
657.406
694.021
669.618
679.121
678.772
720.705
710.504
715.052
691.375
698.827
700.771
430.79
457.077
465.815
461.679
414.272
452.843
425.965
483.472
477.321
477.269
464.773
454.351
453.752
465.145
475.476
483.424
476.891
463.624
449.357
452.193
461.308
456.904
413.379
442.341
407.681
447.937
451.638
420.243
469.929
480.393
473.056
445.356
457.918
453.737
440.369
348.183
287.993
358.777
295.888
287.929
287.928
293.2
416.233
455.468
454.907
444.072
401.09
444.787
399.807
450.903
414.044
453.49
442.369
392.585
439.416
397.022
470.631
462.275
466.324
448.812
426.898
434.331
442.941
287.977
287.961
341.083
287.928
291.901
288
287.927
447.218
399.069
442.666
386.521
435.321
430.264
378.655
417.882
407.77
406.708
361.355
359.808
344.573
346.16
431.104
390.894
437.35
424.195
355.705
416.764
368.531
414.977
400.908
404.472
352.194
356.77
341.442
336.751
430.538
379.131
347.781
413.932
412.742
431.438
377.502
428.471
368.577
343.777
405.694
410.059
425.027
374.031
407.433
396.007
389.721
346.122
338.562
330.57
323.093
394.967
372.201
381.932
319.528
329.544
314.996
307.033
361.057
399.631
420.3
414.279
320.494
391.694
351.355
387.247
374.766
391.32
324.402
305.443
308.639
320.009
377.797
395.175
393.923
327.458
312.128
310.941
329.014
406.628
326.091
310.935
368.242
381.49
396.738
339.556
381.714
355.149
374.554
301.78
314.638
308.727
298.16
354.096
344.858
365.452
302.821
292.508
295
297.755
357.059
334.201
332.479
299.467
298.801
292.465
292.745
353.544
323.771
328.957
295.897
297.544
291.927
291.22
332.305
317.381
310.373
294.121
292.441
290.455
289.724
322.184
297.649
303.427
289.868
291.005
289.109
288.649
287.931
287.926
287.926
287.926
287.933
287.932
287.937
301.265
288.954
300.566
295.261
288.541
295.677
288.507
297.611
288.847
299.293
294.496
288.363
293.488
288.445
310.489
295.392
309.258
289.625
288.521
288.483
289.737
531.97
312.87
289.849
287.926
287.926
502.26
375.908
287.926
287.926
562.324
479.728
488.629
480.051
514.191
484.996
464.646
486.312
395.869
426.445
336.851
388.761
477.688
484.729
577.092
555.755
541.095
541.834
527.976
522.257
510.989
547.077
514.443
527.897
503.571
515.31
500.453
491.163
534.442
503.549
521.908
490.77
505.142
496.093
483.94
367.545
467.106
475.664
295.881
466.701
428.56
288.721
509.19
484.681
499.633
483.549
495.741
488.631
481.101
496.413
495.761
490.76
486.707
481.372
480.473
475.16
498.383
493.616
509.734
487.923
475.511
478.629
481.124
481.877
484.722
491.201
483.183
476.304
479.805
478.909
491.018
482.144
486.263
469.743
475.646
469.674
463.73
485.562
479.866
475.765
481.469
472.987
477.991
477.6
489.904
480.984
485.737
466.84
473.809
468.712
461.57
598.638
633.848
597.165
703.13
545.127
661.558
608.665
505.894
696.872
673.571
695.423
684.564
663.498
659.697
646.556
649.919
671.799
686.068
653.541
670.284
630.917
613.622
630.944
611.796
643.933
590.769
625.547
610.983
575.916
681.292
645.202
667.077
618.117
640.829
625.829
602.308
616.47
665.554
739.782
659.875
606.434
539.939
679.266
599.64
705.179
696.484
622.244
542.474
621.088
616.777
655.914
691.528
684.988
680.269
708.727
642.921
673.427
743.526
693.118
733.616
580.445
622.399
601.605
631.424
610.365
630.083
647.137
550.956
564.292
575.888
570.507
583.34
607.188
594.237
562.612
567.056
588.244
572.025
591.153
615.07
597.535
592.537
637.748
613.733
639.634
615.766
634.744
654.883
645.74
640.884
623.947
649.566
678.906
667.469
663.779
656.388
664.563
639.103
655.872
689.672
677.934
670.212
662.976
657.405
659.041
676.483
677.476
672.278
690.027
627.877
590.2
602.09
630.921
643.58
653.241
618.668
614.698
643.376
627.273
636.183
649.776
661.83
622.506
635.763
594.445
613.258
636.707
648.033
623.55
655.069
600.945
639.49
628.075
638.391
651.425
625.847
658.113
649.382
652.86
632.91
650.621
676.265
663.177
667.227
671.565
693.284
698.117
700.184
689.725
685.084
683.072
635.802
670.082
653.113
652.407
680.263
666.635
669.216
687.77
722.782
701.689
723.48
702.332
714.287
734.98
669.872
696.924
687.834
689.002
682.202
698.708
704.002
685.647
701.395
690.553
693.352
684.484
700.636
707.577
656.581
670.399
672.679
696.821
679.22
675.432
646.045
656.278
670.886
672.31
682.284
649.361
671.93
670.426
664.622
682.915
684.768
678.785
674.611
672.963
678.098
720.166
733.071
712.45
721.721
743.46
725.133
741.503
735.343
723.026
714.149
723.11
746.311
727.673
743.136
693.513
695.412
691.007
705.685
703.786
707.937
706.46
726.442
741.569
742.465
719.4
725.972
725.042
744.891
715.737
754.69
736.328
729.325
713.298
759.894
751.893
659.233
741.944
752.71
742.775
761.872
752.193
763.098
767.88
750.305
765.706
766.032
756.013
756.432
767.344
762.222
759.047
734.401
762.659
735.52
764.42
762.459
727.899
753.294
759.472
758.409
771.213
769.63
769.319
765.185
754.119
760.722
727.186
755.459
700.864
744.364
716.014
741.749
757.597
752.928
763.617
739.267
754.123
753.568
727.784
757.351
764.069
756.69
697.247
744.909
715.417
744.956
681.932
678.977
710.371
728.929
729.834
699.843
564.532
581.156
615.546
594.834
544.518
577.803
560.31
632.302
650.485
627.369
609.184
568.318
585.544
591.557
568.193
580.064
603.87
588.722
531.846
565.144
553.844
572.639
524.688
518.63
534.409
549.793
556.154
539.203
478.894
471.831
469.702
476.306
476.915
477.44
474.951
472.809
481.816
476.994
463.164
447.987
455.465
456.688
288.061
287.946
327.84
292.876
287.928
319.703
287.94
461.507
418.486
455.234
416.86
454.032
447.651
407.806
479.533
473.612
458.82
469.73
452.955
448.925
441.779
440.24
408.677
448.309
440.264
380.835
431.359
396.079
404.812
435.844
445.694
438.819
375.293
428.035
393.767
471.675
459.269
465.213
436.415
445.734
432.655
420.625
457.273
450.693
462.109
417.326
435.701
426.539
404.505
430.566
361.14
357.899
405.377
418.281
420.236
379.604
447.342
441.473
455.952
414.385
364.124
387.266
397.567
287.929
288.336
287.955
287.946
287.926
287.93
287.926
423.579
350.97
414.126
340.218
407.247
394.627
323.214
362.624
359.956
345.059
309.771
301.291
300.066
295.005
331.707
384.628
401.556
378.03
297.07
356.255
307.802
312.697
351.499
383.934
367.211
292.014
332.108
301.517
346.289
311.786
328.199
291.716
295.314
291.768
289.835
340.573
307.572
325.395
290.693
293.966
291.389
289.449
346.145
290.826
289.84
299.259
313.223
323.07
294.463
299.533
298.29
310.818
289.743
288.281
288.691
288.785
287.927
287.926
288.165
287.926
287.926
287.926
287.926
287.926
287.927
287.926
287.927
287.926
287.926
288.569
288.324
288.458
287.927
287.927
288.783
287.927
288.587
288.81
287.927
288.615
287.927
288.845
287.926
287.926
288.461
288.254
288.061
287.926
288.156
287.926
287.927
288.476
287.927
288.499
287.926
288.174
288.233
288.339
287.927
287.926
287.934
287.926
287.936
287.926
287.926
288.178
288.027
287.954
287.926
287.986
287.926
287.942
287.961
287.928
287.926
287.926
287.932
288.549
295.735
293.879
288.272
292.373
291.279
288.183
303.478
294.436
306.811
289.406
288.315
288.41
289.123
288.258
289.481
288.042
290.824
292.21
290.298
288.105
293.565
289.046
302.756
296.075
290.966
288.525
288.141
299.809
290.708
296.351
288.215
288.825
288.554
288.125
291.868
288.07
288.247
289.975
289.858
292.094
288.23
287.935
287.927
287.926
287.926
287.927
287.926
287.926
288.874
287.996
289.743
288.003
288.974
288.465
287.965
291.444
288.151
289.34
288.054
289.634
290.882
288.196
288.171
288.979
291.35
289.715
293.491
288.334
288.052
288.102
289.021
290.258
289.644
287.985
288.721
288.055
292.066
288.574
289.404
288.059
288.222
288.028
287.97
288.269
288.686
287.982
289.107
287.965
288.466
288.014
287.966
288.061
288.213
288.498
289.859
288.911
287.995
288.5
288.666
288.587
287.976
287.975
287.97
287.982
288.691
288.74
288.653
287.991
287.981
287.984
287.988
288.686
288.623
288.728
287.986
287.976
287.983
287.979
288.858
288.764
288.809
287.992
287.996
287.992
287.989
288.635
288.718
288.741
287.987
287.978
287.98
287.986
288.873
288.798
288.824
287.995
287.997
287.993
287.992
287.926
287.928
287.93
287.926
287.926
287.926
287.926
287.989
288.824
288.772
288.267
287.952
288.288
287.951
288.415
288.385
288.49
287.969
287.957
287.964
287.961
288.579
288.432
288.546
287.974
287.967
287.965
287.976
288.506
288.363
288.387
287.968
287.97
287.961
287.959
288.516
288.382
288.395
287.97
287.971
287.962
287.961
288.539
287.981
288.671
288.225
287.943
288.17
287.947
288.403
288.351
288.304
287.967
287.963
287.955
287.959
287.926
287.926
287.926
287.926
287.927
287.926
287.926
288.398
287.951
288.264
287.939
288.111
288.056
287.935
287.967
288.205
288.489
288.209
287.936
288.062
287.946
288.257
288.178
288.276
287.953
287.944
287.951
287.945
288.331
288.184
288.246
287.951
287.957
287.951
287.946
288.182
288.271
288.282
287.953
287.945
287.952
287.946
288.282
288.151
288.187
287.95
287.953
287.946
287.943
288.23
288.319
288.215
287.958
287.956
287.95
287.948
288.127
288.383
287.959
288.18
287.934
288.035
287.944
288.247
288.129
288.211
287.948
287.944
287.951
287.942
288.118
288.096
288.166
287.944
287.937
287.941
287.939
287.937
288.056
288.063
288.137
288.126
287.942
287.941
288.123
288.109
288.067
287.946
287.941
287.94
287.937
287.93
287.936
288.066
287.942
288.152
288.011
287.932
287.935
287.98
288.056
288.124
288.388
287.958
287.94
287.935
288.025
288.042
288.08
288.106
287.94
287.938
288.071
287.997
288.029
287.934
287.937
287.934
287.932
287.931
287.932
288.005
288.051
288.021
287.936
287.934
288.049
287.936
287.969
287.929
287.966
288.056
287.935
288.033
287.932
287.929
287.954
287.96
288.012
287.934
287.932
288.004
288.008
287.972
287.97
287.93
287.93
288.055
287.93
287.95
287.93
287.98
287.986
287.935
287.932
287.985
287.996
287.958
287.965
287.929
287.929
287.969
287.93
287.929
287.972
287.995
287.931
287.93
287.931
287.946
287.99
287.97
287.927
287.94
287.929
287.926
287.926
287.926
287.926
287.926
287.926
287.926
287.928
287.932
288.005
287.929
287.968
287.941
287.927
287.929
287.93
287.973
287.951
287.945
287.928
287.928
508.768
521.624
509.219
447.205
501.392
463.628
509.026
447.659
471.153
517.16
458.867
510.12
435.268
507.536
446.191
469.678
519.174
520.658
490.707
407.481
474.395
453.755
429.935
504.175
517.14
500.518
516.286
516.179
515.302
500.659
499.817
516.076
516.262
515.177
501.218
500.521
499.681
500.353
520.827
518.014
519.09
502.295
502.92
501.265
501.641
521.604
518.513
519.255
502.292
502.93
501.352
500.241
496.173
498.806
513.588
508.208
512.571
498.157
495.637
508.038
513.485
512.422
498.024
496.013
498.635
495.519
518.322
516.498
513.056
501.009
499.004
498.319
495.566
514.912
510.349
515.512
496.513
499.368
499.485
496.309
513.654
509.623
515.164
498.811
492.839
497.127
495.137
514.338
502.437
508.225
491.959
496.051
491.852
487.088
510.758
500.017
506.604
489.568
494.523
491.048
485.389
490.316
470.927
494.467
471.714
494.498
490.459
464.423
471.764
494.421
494.438
490.431
463.924
490.349
464.501
467.07
494.1
492.97
462.498
489.894
488.556
459.964
496.242
495.364
501.613
486.628
475.267
480.534
481.381
487.848
463.381
490.877
486.177
451.858
482.826
456.348
479.089
455.827
485.176
485.418
448.104
456.664
479.463
485.419
448.236
479.274
456.201
485.28
456.766
479.495
478.51
454.772
484.686
483.152
443.565
452.207
476.734
484.076
479.625
448.056
446.717
478.701
473.877
440.968
480.503
444.036
469.802
439.851
476.828
448.552
473.776
441.706
434.579
468.329
468.336
427.133
434.508
462.101
438.85
465.107
472.368
467.259
423.769
432.98
459.847
615.408
608.077
598.103
585.896
613.894
567.231
539.38
611.352
536.069
582.302
539.788
550.676
616.216
537.968
536.767
626.072
587.536
542.817
624.096
633.495
541.15
551.564
508.857
532.724
628.572
589.238
581.033
590.433
576.349
574.291
581.156
583.04
579.973
591.944
589.486
577.211
574.955
581.812
584.049
594.681
597.431
604.47
581.76
588.053
588.644
594.664
599.989
601.761
616.738
611
594.404
600.308
604.806
617.948
531.548
499.617
482.401
496.72
550.146
582.513
592.033
607.327
608.77
600.665
587.658
589.152
591.074
608.595
602.748
600.04
588.363
593.858
590.618
591.745
608.206
620.822
614.548
597.65
595.035
600.189
601.092
615.138
605.54
623.371
631.196
611.169
609.054
612.703
623.723
623.651
619.583
603.982
603.802
606.624
602.934
639.049
637.061
636.954
614.96
615.357
613.002
607.911
560.592
538.437
559.924
563.913
540.764
564.62
539.719
538.413
561.888
560.216
564.138
541.041
565.81
539.645
628.696
628.92
633.284
603.315
608.874
609.034
599.751
565.734
546.271
570.833
543.91
569.617
574.279
546.687
579.452
548.947
575.584
578.019
548.906
580.512
548.294
628.721
624.735
633.971
604.945
580.217
591.976
595.819
566.183
536.166
539.998
566.493
534.934
538.818
565.374
566.649
534.722
566.983
540.083
568.31
538.676
565.4
582.695
550.945
584.978
548.324
582.191
582.016
545.59
630.387
637.851
629.527
608.37
597.24
595.988
582.284
569.838
542.566
571.796
575.31
538.897
544.354
571.889
577.368
544.372
538.623
571.828
578.263
544.929
572.504
579.858
547.683
584.636
578.243
531.658
540.049
570.062
602.896
601.98
617.854
565.681
582.461
566.4
549.74
601.463
615.43
597.408
560.606
579.443
564.771
546.249
541.978
568.894
577.791
574.534
526.405
537.184
562.882
567.539
541.943
520.457
518.173
529.864
553.657
556.909
570.188
521.086
557.963
519.87
556.577
543.382
509.606
568.335
566.473
585.373
549.102
517.936
531.751
533.527
528.967
509.98
543.718
529.432
491.668
515.92
499.805
507.666
524.518
540.761
527.976
490.252
513.091
498.823
591.184
643.466
657.081
642.803
693.905
608.205
660.537
660.172
579.677
557.504
572.779
580.412
606.264
593.302
614.771
661.819
640.879
636.941
615.819
607.873
635.404
639.314
632.445
606.275
633.054
637.547
616.063
637.424
655.783
593.176
621.987
609.971
622.971
610.393
627.191
635.192
678.926
679.579
673.584
681.097
659.733
658.386
671.073
592.961
645.699
806.632
750.009
708.837
714.938
617.626
669.043
577.638
541.883
625.63
612.664
622.743
632.773
584.56
581.668
552.011
601.836
557.104
562.957
555.028
570.924
570.065
748.861
727.901
727.809
739.299
759.51
706.376
725.407
723.862
683.207
743.569
576.187
641.368
653.774
588.195
544.782
563.588
557.188
562.54
557.778
573.767
580.033
806.717
777.153
775.364
815.927
785.112
746.734
765.433
793.682
700.684
767.944
667.288
621.658
604.573
678.516
613.52
601.615
580.133
610.371
589.861
590.111
611.706
692.022
630.293
620.409
586.326
625.214
636.523
597.337
577.865
568.679
579.48
591.628
589.347
581.47
589.261
602.753
586.973
578.226
594.114
622.83
601.131
615.445
568.003
589.05
573.076
594.113
581.958
587.84
601.752
602.159
596.141
579.142
593.857
614.409
599.86
608.406
738.5
726.58
639.988
648.482
622.109
610.397
657.037
607.444
616.569
616.307
603.886
598.639
603.309
623.238
618.482
609.138
600.155
606.169
628.348
616.352
623.688
617.075
626.673
635.535
611.335
631.832
621.745
627.476
647.548
628.261
636.82
649.229
654.108
645.79
647.235
628.182
634.588
641.479
643.654
646.957
644.323
654.452
664.108
665.617
651.882
657.708
648.203
651.239
662.541
659.253
701.482
675.14
667.296
635.103
686.498
666.093
703.802
682.567
661.654
662.809
683.311
696.502
675.743
682.298
680.93
681.362
695.396
702.218
702.532
682.018
676.019
697.17
703.326
703.35
681.389
682.302
682.255
675.703
661.333
655.157
653.629
653.324
667.54
666.934
646.266
696.917
702.904
697.176
676.367
651.532
665.358
665.885
666.218
633.386
645.852
660.35
619.371
649.193
634.436
657.842
644.479
630.133
659.991
616.686
647.622
633.461
617.978
584.111
602.632
601.012
619.088
633.962
649.223
714.832
736.059
659.216
672.991
759.239
748.591
730.164
728.6
676.291
684.127
678.43
695.27
703.945
704.928
723.052
600.602
624.421
634.117
855.732
574.007
601.819
666.606
618.456
545.915
680.891
728.432
816.111
655.006
818.927
612.576
800.631
694.422
802.948
711.624
562.619
623.546
601
653.349
549.867
581.224
872.056
838.276
847.528
842.809
847.954
836.308
826.758
685.169
635.5
564.895
731.199
653.434
691.835
640.414
637.004
695.59
690.707
640.401
693.53
576.955
643.913
531.842
573.424
564.691
562.969
547.421
574.407
587.377
730.077
626.325
621.439
666.056
669.127
601.446
614.411
585.336
597.107
611.356
572.386
556.951
582.278
594.823
860.806
741.472
819.237
722.478
809.06
772.306
679.04
824.965
803.522
822.571
829.66
829.827
811.142
796.692
769.069
713.584
642.116
724.949
803.477
759.841
637.215
590.392
581.794
586.021
610.244
605.224
602.272
624.905
612.096
629.97
624.497
601.843
631.827
619.08
613.375
585.596
581.942
566.134
589.467
623.009
604.546
607.307
596.968
607.594
589.084
597.055
632.56
609.872
617.641
628.813
624.003
646.998
626.774
618.533
624.627
636.947
742.946
690.288
778.977
741.31
642.947
648.086
708.554
601.665
565.615
543.432
670.001
560.955
592.431
565.715
753.007
724.32
651.48
706.262
678.088
730.998
657.086
685.768
677.603
747.599
727.373
705.09
720.295
725.363
716.565
764.442
767.017
775.402
756.487
725.379
728.612
736.044
693.655
706.496
742.979
720.293
696.941
702.235
711.145
677.473
668.111
668.145
700.32
695.021
695.673
701.075
740.262
762.039
775.231
724.784
699.37
701.038
732.601
704.303
670.68
670.673
685.292
693.045
694.688
705.784
675.619
662.168
623.579
691.18
681.09
669.607
696.647
663.368
599.508
598.146
689.745
643.582
652.967
695.789
596.102
654.058
607.814
573.857
573.778
622.523
610.137
653.936
678.807
632.108
726.265
576.288
619.11
678.974
673.196
681.072
573.436
581.574
571.383
590.341
627.986
597.163
601.365
574.252
567.439
567.474
584.214
577.588
581.971
581.412
606.476
586.848
572.901
636.601
586.098
602.88
605.912
593.461
693.776
648.889
672.158
673.67
636.978
701.076
583.06
603.965
588.929
598.03
604.163
591.358
612.781
649.512
687.541
614.697
664.711
675.069
689.305
638.048
591.97
605.185
589.555
603.804
620.352
618.82
608.173
691.224
743.03
714.259
689.275
717.848
703.182
713.072
597.996
591.329
605.767
629.584
604.965
591.374
617.871
612.194
666.067
654.518
674.146
632.371
639.316
641.816
645.987
604.937
628.746
638.225
629.719
623.15
640.049
669.3
684.211
657.999
665.755
658.723
687.676
654.968
617.831
635.377
641.351
661.589
629.421
632.006
636.987
660.152
681.091
649.716
669.6
680.005
649.462
650.02
674.987
697.256
672.414
667.55
685.307
688.097
657.986
607.792
612.814
612.643
631.109
600.874
621.626
621.48
613.003
283.413
664.509
454.865
631.356
695.339
581.613
652.437
605.876
565.142
545.608
666.111
617.963
623.653
682.812
516.812
569.748
513.482
607.874
602.608
573.603
564.319
409.982
631.382
504.35
610.563
664.76
553.856
680.11
695.877
692.487
691.98
691.857
669.33
674.577
696.134
275.019
365.775
385.323
493.189
294.073
340.01
447.931
686.937
660.95
684.36
631.823
641.718
636.616
606.099
671.951
692.367
691.025
667.58
678.259
632.553
692.793
592.189
606.09
670.66
600.743
345.864
474.499
524.941
798.081
771.272
849.977
716.297
751.052
665.267
690.698
771.599
825.261
777.574
805.38
792.519
824.537
758.308
783.002
791.251
786.523
713.261
697.372
771.184
807.653
815.29
752.565
796.107
798.876
826.976
713.561
753.901
785.05
740.006
833.232
868.107
851.512
827.532
810.177
817.905
834.633
729.302
715.897
732.127
752.455
763.07
767.608
751.027
630.942
666.164
718.574
750.597
657.42
694.559
721.268
819.128
863.859
850.892
808.916
763.236
758.683
821.659
733.397
709.258
730.641
722.277
750.594
743.936
721.785
817.512
814.309
815.195
766.599
780.92
781.799
817.845
809.251
778.844
789.798
793.701
791.182
810.746
775
771.759
748.076
666.576
710.626
709.983
782.503
739.827
754.634
772.776
764.277
763.99
769.349
781.66
746.698
699.25
739.35
729.532
749.261
732.826
758.727
720.803
786.843
808.793
784.159
793.316
825.312
820.378
805.547
800.648
759.734
769.357
785.146
769.133
808.529
776.674
748.078
786.754
773.064
737.616
708.017
734.999
704.548
686.577
753.524
774.888
733.223
751.35
718.483
740.651
762.536
712.553
705.248
729.292
702.924
708.175
727.642
721.754
766.651
811.372
798.216
763.098
805.614
788.787
776.013
717.216
731.823
713.854
739.521
737.407
743.931
752.694
720.834
697.326
705.938
732.063
740.158
750.671
725.369
726.706
724.731
705.286
693.057
700.693
723.666
718.439
764.429
753.156
741.247
745.794
760.929
759.578
742.931
756.35
769.131
793.72
765.974
775.498
773.328
749.483
771.645
772.128
757.367
811.66
783.577
795.796
745.699
802.077
826.591
833.542
791.653
819.143
799.357
821.517
571.478
508.071
546.556
483.07
477.365
361.326
530.91
435.492
515.286
322.67
272.748
550.251
536.85
571.938
501.011
432.571
665.811
669.896
311.355
416.667
328.03
580.541
406.341
392.789
445.956
635.827
477.557
517.5
637
636.946
493.158
481.31
269.141
272.116
280.699
274.034
288.687
309.21
282.809
669.831
529.635
524.569
602.463
615.982
491.965
509.117
502.995
443.84
437.195
588.207
637.356
582.191
509.546
594.059
523.636
443.968
634.575
592.983
513.557
600.013
563.888
589.916
497.053
434.613
458.082
455.899
457.166
425.21
428.505
389.648
426.591
442.027
446.809
435.607
525.286
606.404
581.732
469.78
461.271
466.406
470.886
439.877
430.657
435.241
444.732
442.433
454.977
435.474
437.758
291.243
339.474
379.75
448.668
450.964
328.146
376.973
282.663
309.367
374.236
430.624
440.637
321.612
513.603
553.504
555.634
481.525
533.995
514.827
494.488
461.15
485.755
452.264
465.405
522.397
481.659
503.967
459.031
463.68
500.838
459.636
475.507
446.232
479.823
447.162
487.258
458.658
455.069
464.876
444.195
467.126
448.767
455.56
465.022
458.003
467.776
487.085
477.434
456.409
459.906
475.42
462.571
478.309
500.105
482.951
442.573
516.702
512.345
507.199
484.28
487.808
435.391
444.26
507.397
484.221
513.554
488.683
516.542
546.986
485.475
533.115
551.322
546.404
505.761
526.423
510.894
482.779
545.91
505.07
549.977
508.653
532.256
571.564
541.982
544.717
514.864
541.852
591.841
566.951
571.741
526.502
481.953
499.112
525.765
534.62
507.499
555.922
512.04
476.325
485.964
511.635
530.538
539.952
502.567
553.487
551.327
521.928
544.846
598.221
572.621
575.182
481.232
519.421
491.118
513.992
533.974
544.256
504.585
486.275
532.304
503.96
527.683
537.299
558.225
509.15
559.985
570.149
530.933
559.514
615.312
587.164
593.868
576.213
565.694
537.016
561.391
618.023
589.25
595.87
744.297
809.005
737.652
753.63
633.839
633.772
745.561
613.044
651.078
654.551
632.255
627.722