/*--------------------------------*- C++ -*----------------------------------*\
  =========                 |
  \\      /  F ield         | OpenFOAM: The Open Source CFD Toolbox
   \\    /   O peration     | Website:  https://openfoam.org
    \\  /    A nd           | Version:  9
     \\/     M anipulation  |
\*---------------------------------------------------------------------------*/
FoamFile
{
    format      ascii;
    class       volVectorField;
    location    "0.0026";
    object      U;
}
// * * * * * * * * * * * * * * * * * * * * * * * * * * * * * * * * * * * * * //

dimensions      [0 1 -1 0 0 0 0];

internalField   nonuniform List<vector> 
20775
(
(30.3248 -117.816 264.747)
(50.6501 -93.461 198.73)
(0.0140648 -0.0409035 0.126455)
(13.38 -24.1792 51.5281)
(5.63283e-06 -0.000114234 0.000425926)
(0.000106423 -0.000212772 0.000502044)
(7.04211e-07 -5.44513e-06 1.60631e-05)
(1.82324e-06 -3.37186e-06 9.33908e-06)
(33.9635 -95.6701 324.757)
(65.4622 -89.0637 243.427)
(28.1745 -79.1546 282.687)
(50.653 -68.0009 226.735)
(9.57992e-05 -0.000234465 0.00130922)
(0.000165934 -0.00012639 0.000659997)
(1.52122e-06 -1.51072e-05 5.8112e-05)
(6.82434e-06 -9.84728e-06 3.58375e-05)
(29.6423 -84.2168 225.404)
(32.2814 -117.148 288.663)
(32.5631 -118.917 253.366)
(4.53935 -119.197 296.239)
(5.0509 -115.741 246.157)
(14.9129 -95.5811 328.01)
(4.73673 -82.017 217.572)
(69.8805 -93.9683 303.729)
(52.6068 -95.3544 316.969)
(37.9983 -84.9028 228.96)
(59.3649 -102.257 241.861)
(74.4231 -129.006 274.758)
(40.764 -115.169 282.016)
(42.112 -120.414 256.783)
(34.1362 -133.896 266.336)
(4.04709 -121.705 276.301)
(5.1732 -130.061 258.103)
(1.6069 -75.5887 127.446)
(13.4852 -61.0656 101.915)
(5.34123 -165.805 288.27)
(38.1386 -169.675 293.63)
(78.4995 -145.673 287.273)
(37.8004 -114.338 254.929)
(55.1742 -138.616 275.617)
(14.6056 -51.2541 85.117)
(61.0472 -173.359 295.909)
(8.2063 -17.5108 29.913)
(72.6269 -175.318 295.397)
(21.4125 -83.6229 222.4)
(30.3725 -94.4989 233.9)
(21.9254 -93.7972 231.043)
(32.7365 -92.4049 279.062)
(23.5553 -91.5468 275.335)
(24.3116 -103.909 286.825)
(33.8853 -104.973 290.314)
(12.9686 -82.832 219.878)
(4.83669 -92.0101 226.295)
(13.2841 -92.9652 228.63)
(5.25931 -89.8314 270.013)
(14.4233 -90.6585 272.341)
(14.8383 -102.905 283.956)
(5.34704 -101.939 281.621)
(46.754 -85.9384 233.148)
(39.0262 -95.4024 237.277)
(48.1404 -96.6997 241.293)
(42.1949 -93.5861 283.691)
(52.1794 -95.2584 289.158)
(43.798 -106.433 294.475)
(54.2464 -108.36 299.085)
(55.8827 -87.3106 237.961)
(67.7371 -100.634 251.46)
(57.6682 -98.4441 246.108)
(73.8461 -99.856 301.38)
(62.7079 -97.3852 295.254)
(65.1399 -110.599 303.816)
(76.446 -113.024 308.382)
(14.1481 -116.924 248.432)
(4.94574 -103.151 235.65)
(13.6878 -104.243 237.981)
(15.3189 -116.738 295.881)
(5.46581 -130.552 304.336)
(15.8103 -131.551 306.246)
(5.4259 -115.715 293.665)
(31.3323 -105.98 243.144)
(23.3669 -117.864 250.657)
(22.5715 -105.118 240.336)
(25.214 -117.784 298.335)
(36.622 -133.574 309.884)
(26.1307 -132.503 308.048)
(35.2651 -118.961 301.117)
(40.3825 -107.176 246.508)
(52.2177 -122.502 261.41)
(49.9303 -108.782 250.371)
(47.3623 -134.886 311.528)
(45.6301 -120.449 304.217)
(56.3976 -122.274 307.589)
(58.3588 -136.472 312.438)
(30.5913 -120.39 218.115)
(69.1708 -128.566 233.277)
(22.4161 -90.3193 121.274)
(4.66379 -117.31 212.018)
(9.28682 -88.8046 118.575)
(5.14304 -164.465 249.21)
(35.9725 -169.367 257.076)
(3.87027 -125.669 145.424)
(27.2035 -128.777 149.365)
(39.5588 -121.611 220.664)
(52.2647 -96.4937 132.585)
(36.8915 -92.417 125.176)
(46.9394 -172.059 261.162)
(65.8491 -158.718 254.898)
(35.4514 -130.043 150.912)
(58.2963 -122.47 150.547)
(3.29494 -86.9643 116.774)
(3.49446 -98.8092 126.49)
(9.94329 -100.609 128.206)
(3.67325 -97.863 147.986)
(10.4806 -99.4736 149.916)
(11.113 -111.293 158.15)
(3.85489 -109.7 156.329)
(15.9177 -89.7042 119.736)
(23.9492 -101.999 130.57)
(17.0165 -101.36 129.205)
(25.1995 -100.889 152.518)
(17.9229 -100.222 151.075)
(18.9043 -111.996 159.196)
(26.5502 -112.722 160.521)
(29.4396 -91.1858 122.945)
(31.3594 -102.985 132.191)
(32.9189 -101.822 154.156)
(39.114 -104.327 134.45)
(40.9889 -103.096 156.303)
(34.6111 -113.743 162.105)
(42.9629 -115.117 164.215)
(44.4812 -94.1733 128.435)
(55.1393 -108.92 141.599)
(46.9858 -106.342 137.651)
(57.6445 -107.006 162.769)
(49.1967 -104.842 159.215)
(51.4655 -117.072 167.029)
(60.292 -119.477 170.429)
(3.67777 -111.725 135.987)
(11.3299 -127.299 147.1)
(10.6073 -113.413 137.711)
(11.7335 -124.036 166.263)
(4.2323 -136.396 172.743)
(12.449 -137.909 174.498)
(4.02416 -122.517 164.455)
(13.1667 -118.621 214.205)
(4.13858 -107.436 178.591)
(11.7721 -108.911 180.611)
(12.3624 -121.047 188.303)
(4.82105 -130.767 221.98)
(4.29968 -119.584 186.338)
(13.7816 -132.165 224.129)
(25.5385 -114.809 139.93)
(19.3309 -127.998 148.041)
(18.1372 -114.111 138.628)
(19.9185 -124.769 167.277)
(29.5399 -139.662 177.022)
(21.0555 -138.716 175.587)
(27.9705 -125.584 168.615)
(27.8319 -110.354 183.538)
(21.9655 -119.478 215.978)
(19.9053 -109.649 181.952)
(20.8101 -121.842 189.587)
(31.9803 -134.24 228.315)
(29.0892 -122.682 191.146)
(22.914 -133.123 225.979)
(33.3665 -115.916 141.546)
(43.945 -131.743 153.115)
(41.4773 -117.444 143.782)
(38.4019 -140.991 178.625)
(36.4142 -126.723 170.191)
(45.1175 -128.279 172.297)
(47.5435 -142.797 180.842)
(36.1221 -111.368 185.31)
(48.9842 -123.316 223.843)
(44.7469 -112.709 187.522)
(41.4505 -135.81 231.192)
(37.7442 -123.841 192.947)
(46.7447 -125.418 195.254)
(51.4217 -137.94 234.876)
(61.7049 -137.119 159.443)
(49.7084 -119.694 146.853)
(52.6099 -134.182 156.003)
(54.0197 -130.467 175.071)
(66.8706 -148.399 187.411)
(56.97 -145.296 183.745)
(63.3464 -133.162 178.451)
(58.7782 -125.609 228.018)
(62.8221 -116.821 193.907)
(53.5941 -114.544 190.385)
(56.0199 -127.561 198.355)
(73.022 -144.412 245.725)
(65.7574 -130.244 202.32)
(61.8745 -140.744 239.445)
(13.0338 -134.49 196.546)
(4.97865 -146.267 234.076)
(15.3509 -165.999 251.452)
(4.69808 -148.042 204.476)
(13.7866 -149.575 206.41)
(4.49082 -133.007 194.613)
(14.481 -147.7 236.184)
(21.8249 -135.383 197.897)
(33.7168 -150.197 240.569)
(25.5471 -167.401 253.863)
(32.2013 -151.852 210.034)
(23.0146 -150.595 207.989)
(30.5084 -136.388 199.632)
(24.0699 -148.796 238.082)
(43.822 -152.161 243.872)
(41.834 -153.545 212.525)
(39.6054 -137.763 201.67)
(49.076 -139.642 204.405)
(58.4633 -175.575 266.043)
(51.8977 -155.909 215.898)
(54.5116 -154.935 248.648)
(62.9279 -125.362 267.548)
(70.6589 -113.762 261.654)
(59.9605 -110.94 255.215)
(67.483 -124.342 310.555)
(80.6229 -139.543 310.355)
(69.5017 -138.097 312.172)
(78.8175 -126.494 312.024)
(77.9553 -163.505 262.225)
(69.2837 -145.417 212.798)
(73.6032 -163.116 225.921)
(62.4378 -159.11 220.381)
(82.9644 -183.915 276.164)
(70.5022 -179.598 271.263)
(58.9123 -142.2 208.065)
(35.447 -99.9381 330.606)
(24.3924 -95.6986 326.944)
(25.4385 -99.3533 330.266)
(25.8501 -111.257 329.764)
(33.8381 -104.685 316.07)
(36.0845 -111.721 329.091)
(24.269 -104.953 318.716)
(12.5017 -80.667 291.664)
(0.186488 -0.506294 2.11817)
(0.0277695 -0.096315 0.289385)
(20.6864 -74.7246 184.971)
(0.030217 -0.695786 2.93378)
(0.00353138 -0.137654 0.418896)
(2.84416 -81.8709 207.321)
(15.5762 -98.7548 329.465)
(5.39986 -95.3526 327.972)
(5.64735 -98.1935 328.363)
(15.7511 -110.744 329.647)
(5.183 -104.763 320.166)
(5.597 -110.171 328.829)
(14.743 -104.979 320.106)
(14.7417 -131.365 260.471)
(5.2874 -147.051 273.699)
(15.4585 -148.425 276.017)
(5.43912 -145.669 311.431)
(16.2142 -146.608 312.685)
(16.4557 -160.548 311.426)
(5.34678 -159.823 310.745)
(36.1547 -151.436 281.428)
(24.3942 -132.498 263.012)
(25.7087 -149.743 278.414)
(37.7849 -148.147 313.231)
(26.9223 -147.361 313.211)
(27.4312 -160.926 310.854)
(38.5079 -161.226 309.425)
(41.7472 -75.4449 262.519)
(0.117699 -0.149644 0.603386)
(0.179635 -0.311404 1.28173)
(24.5695 -41.9475 96.6393)
(0.0151988 -0.0243373 0.0678827)
(0.0259304 -0.0764717 0.222606)
(24.6864 -69.4032 169.052)
(43.3807 -95.5574 321.409)
(55.8932 -101.507 329.32)
(45.5924 -100.647 330.353)
(43.1477 -104.218 312.123)
(46.3882 -112.274 327.546)
(56.7363 -112.937 325.153)
(52.0995 -103.465 306.724)
(58.3811 -156.221 288.747)
(44.3469 -135.901 270.506)
(47.0392 -153.598 284.971)
(48.7811 -149.028 312.51)
(59.8195 -149.988 310.807)
(49.5549 -161.401 307.022)
(60.4514 -161.255 303.741)
(15.8576 -122.683 326.35)
(13.9502 -119.158 295.665)
(5.341 -133.552 319.749)
(4.90982 -113.099 310.097)
(15.8566 -134.037 320.047)
(5.50076 -122.131 325.835)
(14.4543 -113.229 309.858)
(61.5258 -94.9204 311.277)
(76.6888 -103.338 323.735)
(66.285 -102.449 327.15)
(67.0785 -113.603 321.764)
(68.0827 -100.254 290.197)
(77.2927 -113.997 317.214)
(60.5026 -102.23 299.553)
(26.1625 -123.082 325.837)
(33.3542 -112.246 304.623)
(36.8304 -134.1 317.021)
(23.2038 -118.455 293.103)
(26.3152 -134.176 319.064)
(36.5681 -123.39 324.394)
(23.9275 -112.938 308.005)
(66.5865 -141.986 281.41)
(70.088 -159.218 292.624)
(81.9955 -162.188 295.056)
(81.5186 -151.106 303.969)
(70.779 -150.818 307.989)
(70.9466 -160.656 299.447)
(80.8794 -159.51 294.088)
(1.60504 -49.9059 120.348)
(46.1676 -84.1319 103.791)
(-0.499073 -7.09514 43.4816)
(19.4058 -78.1094 90.915)
(2.92302 -74.3674 85.8764)
(4.92958 -12.5335 52.9817)
(3.60218 -113.038 121.025)
(24.7137 -116.276 125.107)
(16.1125 -55.801 123.168)
(25.6389 -78.8158 92.8594)
(18.0064 -24.0302 71.8448)
(7.46119 -13.6991 56.6281)
(32.2714 -117.58 126.736)
(56.6382 -125.49 136.24)
(21.5689 -58.597 121.845)
(38.9652 -74.4651 123.16)
(1.09815 -8.811 45.8876)
(0.145253 -16.4361 72.0298)
(1.53702 -38.8555 42.9057)
(2.58051 -18.4022 74.3845)
(4.35544 -40.79 45.1315)
(5.37466 -51.2693 65.8119)
(2.00913 -49.2221 63.6593)
(2.53698 -11.1552 49.3109)
(11.4308 -43.2743 51.2849)
(8.55251 -22.4951 79.2549)
(5.24117 -20.7618 77.0005)
(7.60224 -42.6013 47.9882)
(9.46416 -52.8539 68.1218)
(13.8332 -53.6828 70.7021)
(10.7411 -15.5239 60.3444)
(15.6278 -43.7899 54.5938)
(12.193 -24.8293 80.8911)
(16.2552 -27.8418 82.9212)
(20.442 -44.7355 58.0964)
(18.7101 -54.8082 73.1177)
(24.0586 -56.4359 76.0239)
(14.1048 -18.8854 65.3918)
(30.338 -50.3761 69.259)
(24.9476 -38.4841 91.3189)
(20.3028 -32.4274 86.4134)
(25.3 -46.8748 62.965)
(29.3826 -59.3808 80.3239)
(35.0274 -63.5843 85.8265)
(0.852896 -30.8537 98.4131)
(5.85547 -52.0383 122.526)
(4.14403 -32.9058 100.75)
(6.45872 -64.2277 85.596)
(2.84615 -77.859 101.377)
(7.61736 -79.8859 103.508)
(2.44363 -62.1779 83.4344)
(13.7192 -77.476 89.0557)
(15.9067 -63.1005 65.1438)
(11.0413 -62.4272 62.6455)
(12.569 -73.4631 77.5509)
(21.1255 -89.4121 102.16)
(17.8948 -74.1803 79.6679)
(14.9783 -88.7627 100.525)
(2.42852 -58.9033 58.7332)
(8.01905 -76.3088 87.6405)
(6.41952 -60.9181 60.6241)
(7.27986 -72.2793 75.8243)
(3.17525 -85.9281 97.5756)
(2.77502 -70.2501 73.9073)
(8.73802 -87.8575 99.3137)
(10.8372 -53.9312 123.675)
(12.3535 -37.0415 103.309)
(8.00099 -35.0483 102.627)
(11.3567 -65.5666 87.4277)
(18.9248 -82.2302 105.932)
(13.2731 -81.0527 104.9)
(16.3506 -66.6365 89.1918)
(21.2546 -63.7386 67.6906)
(32.378 -79.9192 95.2767)
(27.1593 -64.6915 70.6185)
(27.7855 -90.3112 103.994)
(23.7501 -75.0799 81.8616)
(30.047 -76.3732 84.6817)
(34.8451 -91.6009 106.491)
(16.9222 -39.8665 103.186)
(27.2591 -62.3668 120.934)
(21.8437 -43.5535 103.476)
(25.0607 -84.0828 106.868)
(21.8286 -68.235 90.8091)
(27.7749 -70.4664 92.9604)
(31.6297 -86.6419 108.375)
(39.1913 -69.2884 80.5858)
(39.2064 -81.625 98.9624)
(33.1221 -66.4802 74.9314)
(36.3436 -78.6756 88.875)
(49.3688 -96.5909 114.854)
(42.8847 -81.9965 94.186)
(41.9743 -93.7 110.191)
(32.0439 -55.4881 108.437)
(32.8345 -67.7973 121.482)
(26.659 -48.8212 105.358)
(33.7083 -74.0108 96.484)
(45.3783 -95.5219 114.459)
(38.2569 -90.5607 111.035)
(40.0737 -78.7952 100.878)
(8.20459 -85.2952 91.09)
(3.33599 -98.0734 103.796)
(3.39763 -98.8323 109.316)
(10.2626 -114.813 122.765)
(9.1065 -99.9891 105.732)
(3.08632 -83.3489 89.1033)
(9.47915 -100.655 111.101)
(14.1272 -86.244 92.5331)
(22.8867 -102.12 113.629)
(17.56 -115.503 123.771)
(22.0547 -101.635 108.249)
(15.6446 -100.799 106.938)
(19.9772 -87.0197 94.2284)
(16.246 -101.414 112.171)
(29.9858 -103.204 115.408)
(28.9036 -103.027 109.758)
(26.3066 -88.1843 96.0933)
(33.0316 -89.8522 98.6258)
(40.1429 -119.409 129.074)
(36.135 -104.986 111.98)
(37.4285 -104.787 117.852)
(-56.6146 98.7459 93.8764)
(-11.7758 80.1166 71.6683)
(-37.0407 106.689 167.367)
(-5.99605 37.7122 175.763)
(-12.5797 2.53266 93.3657)
(0.0132631 -18.7063 84.0837)
(3.16027 -38.0719 183.744)
(8.17092 -17.637 177.677)
(-33.3924 82.6299 79.1066)
(-11.0268 82.3335 132.817)
(-30.7246 86.386 134.83)
(-5.9716 27.1794 78.6314)
(-21.1472 32.6369 83.496)
(-19.8367 37.2651 135.884)
(-5.89154 31.5362 135.335)
(-48.0222 87.0347 88.7976)
(-51.8769 105.181 136.199)
(-44.2862 93.1714 137.414)
(-35.073 57.2322 93.9024)
(-30.8863 41.9692 90.9661)
(-28.1009 47.4331 138.202)
(-30.6932 62.2984 136.444)
(-11.6222 89.9883 190.134)
(-6.398 45.9645 196.874)
(-11.0851 86.1663 173.032)
(-21.9147 91.9098 184.043)
(-27.0727 89.9392 169.876)
(-16.836 43.3022 172.72)
(-11.4911 50.0618 191.453)
(-47.1201 108.813 160.171)
(-30.6316 97.4419 176.832)
(-39.4854 97.1131 166.103)
(-24.1378 53.7996 170.877)
(-17.8874 69.3114 178.775)
(-27.1259 68.1946 166.029)
(-15.8648 58.1837 186.237)
(-8.53131 -10.9234 88.1548)
(3.97028 -55.3193 91.2577)
(4.32423 -46.0429 93.558)
(4.00457 -50.0279 141.563)
(0.107521 -14.0851 137.797)
(-7.41562 -6.29613 138.367)
(5.71038 -41.2484 141.311)
(-14.0165 20.5084 95.1212)
(4.32606 -11.2377 97.402)
(4.2677 -30.5304 96.5515)
(-9.61329 7.21543 138.971)
(8.67922 -8.63035 137.538)
(6.93074 -26.4818 140.466)
(-9.81758 24.3546 136.576)
(-0.392962 -4.48126 179.568)
(2.12325 -23.0487 212.503)
(-1.80165 8.34707 205.057)
(-4.87907 3.13369 177.276)
(7.36229 -17.2708 208.547)
(6.28492 -30.3344 181.298)
(-0.813554 13.8075 200.685)
(10.6041 -8.00649 202.784)
(-0.987209 23.3315 195.214)
(13.6776 2.99382 195.641)
(10.6475 -2.6227 172.175)
(-0.38038 35.0331 188.376)
(-6.94273 30.9407 169.76)
(-6.66202 15.7175 174.702)
(0.650216 -9.67881 224.645)
(3.25263 8.64991 98.5279)
(0.0621904 -21.7236 169.325)
(-4.0066 39.4124 87.2414)
(-9.2578 90.6041 180.901)
(-2.2592 30.6946 91.5924)
(-23.5735 101.414 170)
(15.2345 -28.4574 166.928)
(11.1144 -1.92293 213.967)
(-43.5035 93.6267 138.634)
(-1.92198 27.2402 91.8437)
(-11.2766 73.9267 175.269)
(20.2514 -31.8016 162.001)
(33.6288 -51.3592 151.629)
(16.7941 10.5712 197.514)
(17.3727 11.349 173.189)
(-11.2694 91.5419 193.289)
(-6.74729 53.6794 203.511)
(-16.2512 92.3262 187.458)
(-7.2756 55.4456 198.363)
(-10.5988 90.1257 176.262)
(-4.64746 58.4277 192.277)
(-6.08367 58.301 195.71)
(-19.9282 95.3125 179.516)
(-12.5006 90.3119 160.204)
(-8.17903 66.4536 183.45)
(-8.17576 59.6663 191.555)
(-10.7403 89.4459 168.562)
(-3.47595 59.1154 186.164)
(-1.90749 60.7923 178.56)
(-29.7283 108.171 161.317)
(-37.9953 109.721 152.598)
(-17.0386 91.9717 152.346)
(-16.2355 77.4538 166.147)
(-23.0081 89.6093 145.012)
(-2.868 62.5969 170.887)
(-5.50688 61.4198 163.517)
(-2.73585 20.3864 214.679)
(6.86234 -6.85568 220.295)
(0.72512 22.8505 209.98)
(1.08961 27.8222 206.642)
(-0.574035 -1.98769 221.284)
(5.76091 -1.75623 219.033)
(-3.18467 27.6026 209.431)
(-6.70916 76.1511 148.601)
(-3.04421 37.504 89.152)
(-6.28794 74.4624 147.144)
(-2.07008 50.7393 171.159)
(-2.7531 25.0753 123.004)
(-0.307656 23.028 124.533)
(-4.72624 52.1218 172.452)
(-43.6341 104.446 144.105)
(-26.3781 70.0984 138.123)
(-19.5096 67.7746 151.349)
(-20.1002 75.5383 157.423)
(-26.6032 81.8062 139.758)
(-7.26661 55.7529 157.831)
(-7.02559 45.9542 154.943)
(-3.03626 34.1047 90.6648)
(-6.88186 67.3318 138.769)
(-6.38513 71.0501 143.434)
(-0.322408 48.2096 167.573)
(4.12731 16.3117 123.653)
(1.72334 45.4519 162.286)
(1.54581 19.6961 124.884)
(2.6823 27.71 203.259)
(14.8636 4.31555 206.346)
(4.65601 34.1608 195.336)
(3.93771 28.8959 201.49)
(14.8593 1.96838 208.038)
(10.6084 -0.534602 214.394)
(6.87035 31.1638 194.848)
(-9.11109 64.0064 133.646)
(-0.846616 22.8573 92.3716)
(-11.0221 58.8001 128.68)
(6.40464 12.0916 120.997)
(2.35784 42.1075 155.887)
(2.56817 37.2341 149.583)
(8.71233 6.83552 118.723)
(4.45317 41.3348 187.318)
(17.0202 15.7948 188.782)
(1.91216 45.8672 178.299)
(17.4758 3.38834 200.008)
(8.53478 32.6876 187.006)
(8.49766 32.4075 179.479)
(20.4313 3.4938 192.484)
(-11.2373 40.5541 125.181)
(0.566053 16.7372 94.5414)
(-11.8576 50.8595 125.615)
(2.76922 29.6787 145.143)
(14.2399 -8.77528 119.784)
(3.92997 19.8017 143.429)
(10.9496 -0.172362 118.292)
(0.780232 40.2199 163.34)
(17.6602 16.4863 180.052)
(0.909145 46.3693 169.634)
(9.06322 28.3162 173.394)
(23.1947 -7.41099 181.295)
(21.488 -0.261305 186.03)
(9.29504 20.0136 169.495)
(1.56498 23.5896 189.27)
(-0.777108 -3.86393 203.418)
(-1.3331 3.83717 149.904)
(4.73867 -23.7925 170.778)
(4.89642 -5.11854 203.235)
(2.2419 1.79972 151.421)
(-2.73809 24.8241 190.081)
(5.0978 21.7503 186.107)
(9.87437 -26.2303 170.247)
(10.0341 -4.00761 148.669)
(15.1201 -7.18606 195.37)
(10.1581 -6.44625 200.574)
(8.91361 20.2596 180.77)
(5.86986 -1.13233 151.239)
(13.8012 -8.01839 144.397)
(19.3496 -9.22853 188.206)
(11.5143 17.3763 173.631)
(13.8612 13.0466 166.82)
(24.8759 -36.5119 157.057)
(22.9836 -13.2225 181.204)
(17.381 -13.2325 140.339)
(15.1115 5.94948 161.95)
(24.4526 -29.0128 137.422)
(28.9983 -43.2113 153.668)
(28.6475 -28.4811 172.328)
(25.538 -19.8672 175.903)
(17.2106 -3.33446 159.234)
(20.5498 -20.3688 138.063)
(39.784 -92.6073 102.444)
(52.8554 -110.434 125.726)
(48.1744 -122.134 132.326)
(51.2742 -111.946 119.428)
(43.4799 -108.051 115.311)
(46.9096 -96.3417 107.15)
(44.9594 -107.241 121.401)
(-60.668 105.848 -121.904)
(-37.7455 -13.3291 -136.837)
(-4.21113 28.8452 -208.751)
(-66.5413 90.3399 44.0997)
(-13.6133 79.1105 3.29992)
(-72.5287 -51.4558 -98.1326)
(-13.2336 -69.9679 -145.099)
(-6.68421 -12.2396 53.7447)
(-5.50197 -23.5799 -30.3111)
(-9.49967 -28.5833 -206.855)
(15.9957 33.5685 -194.237)
(7.31517 6.46766 -276.227)
(-90.2525 69.689 -60.1979)
(-72.6714 -53.4028 -129.015)
(-16.33 136.053 -128.758)
(-11.6403 -71.7248 -184.162)
(-17.4875 63.1625 -142.46)
(-12.7086 17.8172 -191.789)
(-41.2474 51.0189 -123.318)
(-42.9929 7.90356 -102.376)
(-9.41432 -10.9861 -188.267)
(-24.5518 -17.1806 -173.307)
(-16.0896 12.6506 -116.878)
(8.14692 -3.9451 -262.004)
(15.286 12.5201 -340.228)
(23.2463 6.03845 -324.666)
(0.699986 -31.8475 -248.822)
(4.59306 -16.2563 -300.417)
(-6.38579 -36.9778 -236.418)
(-0.0624079 -17.9252 -286.633)
(-24.6215 -2.30249 -164.114)
(-73.3656 29.6362 -72.7807)
(-59.0063 34.5728 -95.6601)
(-62.0889 2.28475 -81.6349)
(-58.608 -29.0508 -130.066)
(-41.8652 -28.2894 -151.371)
(-74.6253 6.21205 -63.4495)
(-16.916 75.2486 -66.955)
(-38.0656 79.5314 16.1463)
(-45.2972 71.3614 -50.1889)
(-34.0342 24.2837 -33.7671)
(-7.26188 25.4259 17.5545)
(-10.7405 22.0557 -45.9541)
(-25.0268 30.1934 26.5697)
(-6.81393 -1.59845 -264.211)
(3.92362 -19.5941 -237.041)
(17.5294 0.247565 -298.807)
(-37.4187 -43.9441 -187.937)
(-18.2273 -45.5311 -213.724)
(-14.1058 -19.7537 -260.776)
(-38.5782 -14.3926 -226.732)
(22.9297 44.3368 -176.705)
(18.5875 11.0522 -339.765)
(29.6016 11.2586 -321.933)
(-1.0336 127.294 -173.052)
(4.96993 32.0632 -283.86)
(-1.64959 38.0618 -267.609)
(-12.8978 140.047 -157.64)
(-20.3734 34.556 -249.859)
(0.573445 70.7388 -152.32)
(19.8144 18.9093 -291.423)
(-25.0139 49.3162 -237.614)
(-95.0724 156.505 -103.685)
(-63.6938 59.2199 -197.001)
(-45.8381 155.037 -131.986)
(-79.3612 70.9195 -10.9321)
(-55.0731 80.6723 32.7267)
(-64.441 67.0451 -27.9191)
(-52.0609 28.1789 -17.1579)
(-46.2583 52.747 46.5191)
(-64.5659 39.3393 -4.41166)
(-38.4836 37.8508 38.7974)
(-35.2242 -29.7242 -83.8864)
(-11.8217 -43.2632 -168.441)
(-36.438 -66.7267 -132.929)
(-6.8727 -66.9016 -76.4872)
(-26.4727 -60.6973 -67.2946)
(-32.9478 -44.58 -155.498)
(-11.3856 -31.7752 -95.8079)
(-6.04352 -56.5982 -219.404)
(-30.1851 -66.201 -169.714)
(-13.6678 -39.0867 -196.604)
(-4.24211 -31.6466 -248.718)
(-20.0705 -56.666 -205.921)
(-18.074 -28.4706 -235.401)
(-33.5782 -32.5769 -182.364)
(-54.2284 -26.1656 -67.6872)
(-71.5392 -40.8502 -118.368)
(-57.0122 -63.6341 -115.223)
(-57.1073 -35.6848 -43.4849)
(-44.03 -51.0153 -54.6532)
(-53.5187 -48.121 -136.371)
(-67.8758 -15.6458 -53.8505)
(-0.748099 -59.5154 -15.2609)
(2.66141 -57.0093 39.5937)
(-1.72974 -20.824 28.1639)
(-22.9265 -16.9625 -20.54)
(-1.02706 -47.5171 44.1686)
(-11.2118 -50.567 -8.52231)
(-13.1534 -12.9532 35.4127)
(-60.5267 -49.62 -161.172)
(-53.7408 -62.9569 -150.873)
(-39.6583 -58.3259 -184.68)
(-38.9458 -25.8424 -211.909)
(-77.5682 -24.3612 -136.462)
(-57.3492 -29.7126 -161.612)
(-63.501 -17.9192 -182.526)
(-24.5473 93.9293 -92.0352)
(-19.4374 20.7468 -129.91)
(-8.74427 37.7297 -204.849)
(-27.4942 45.4349 -187.828)
(-45.6336 93.4683 -85.2088)
(-41.4812 24.8563 -116.767)
(-38.6804 139.243 -116.236)
(-53.3413 49.181 -161.648)
(-99.5599 123.969 -77.0586)
(-85.2685 18.69 -81.9131)
(-68.3274 86.2683 -72.3242)
(-65.0621 23.9155 -99.8417)
(-81.8209 46.6337 -132.178)
(-68.3428 137.097 -96.2626)
(-36.8156 -6.48823 -7.72562)
(-25.5448 18.4109 49.9579)
(-27.1662 -17.5542 5.63128)
(-3.80183 -31.8504 50.1722)
(-20.6474 -36.4592 0.128054)
(-46.461 9.58904 1.17192)
(-21.2498 0.0671988 44.7291)
(-183.656 92.9003 -53.628)
(-129.149 30.9684 -86.9783)
(-123.174 9.5932 -123.397)
(-130.179 132.792 -94.5444)
(-40.9877 -25.5777 -184.351)
(-106.58 -20.4307 -27.8359)
(-111.306 -6.85329 -53.6634)
(-108.177 49.2955 -49.8208)
(-89.8963 -40.7995 -108.206)
(-64.6915 -8.48576 -122.324)
(-97.7398 119.774 53.9105)
(-75.5219 104.495 49.1984)
(-95.1787 18.7682 -35.9387)
(-83.8774 -33.9626 -81.3643)
(-14.5105 43.2871 48.2874)
(-54.1547 28.7482 5.29601)
(-47.2715 -0.776216 -226.83)
(-73.6847 -15.408 -162.971)
(-87.4634 5.53268 -190.677)
(-62.5604 -30.9611 -163.557)
(-69.7769 -3.18713 -190.57)
(-104.598 6.46962 -160.162)
(-93.1466 -16.2379 -144.081)
(-92.659 36.8917 -59.3326)
(-92.3919 2.52339 -110.541)
(-110.913 45.6051 -46.0076)
(-79.2791 -17.1418 -115.002)
(-89.2418 19.6073 -52.6346)
(-102.396 34.5223 -40.841)
(-100.872 -2.19162 -100.926)
(-78.0929 48.1112 -202.374)
(-175.357 135.149 -78.1063)
(-127.487 59.1104 -161.106)
(-140.32 141.565 -80.1417)
(-102.746 61.3243 -154.404)
(-134.163 54.6153 -120.18)
(-166.261 117.241 -64.8913)
(-92.1704 82.1435 -0.521269)
(-87.8245 115.476 51.7513)
(-108.029 91.8387 6.80032)
(-52.0287 71.0986 49.3779)
(-74.1368 55.7778 1.84342)
(-84.8364 70.3132 7.7241)
(-61.2818 85.6934 50.6032)
(-155.774 50.1644 -96.8815)
(-191.383 118.666 -65.7626)
(-153.428 58.8732 -125.435)
(-147.687 42.4111 -92.8637)
(-158.798 55.7907 -44.4396)
(-143.685 27.6248 -72.475)
(-172.096 86.5807 -52.6643)
(-117.357 14.3079 -100.922)
(-131.247 70.1107 -30.8186)
(-125.32 56.9653 -38.375)
(-113.742 50.1209 -33.5815)
(-123.813 32.5441 -71.5657)
(-114.068 65.0333 -27.1778)
(-117.915 14.8423 -88.1648)
(-133.641 20.5589 -134.031)
(-105.635 -4.05568 -144.845)
(-119.533 13.2808 -160.835)
(-127.572 11.488 -132.052)
(-127.919 9.44959 -100.049)
(-135.274 13.7054 -108.003)
(-117.138 -3.19049 -122.832)
(-127.51 103.022 -62.4458)
(-101.679 10.0153 -67.4786)
(-107.208 41.1859 -105.038)
(-126.304 29.9628 -84.3233)
(-118.069 25.8619 -41.3484)
(-112.091 -1.58461 -55.943)
(-143.623 75.0972 -52.0593)
(-81.0482 -34.3778 -137.523)
(-95.5412 -20.1996 -112.664)
(-88.4321 -7.66669 -152.339)
(-112.162 -2.77109 -126.499)
(-104.846 -28.7013 -88.8432)
(-109.339 -18.2995 -91.9414)
(-104.247 -21.4108 -117.216)
(-117.782 104.431 15.8049)
(-97.1359 120.355 54.1162)
(-114.759 100.117 12.9715)
(-89.5075 81.918 11.8007)
(-68.1162 95.8649 50.935)
(-89.5976 87.7589 13.8993)
(-67.005 93.7976 51.5858)
(-85.6663 -26.1168 -100.857)
(-64.3839 -14.4539 -33.9883)
(-79.8906 1.41385 -43.7677)
(-88.9461 20.9847 -33.7613)
(-94.1705 -14.2912 -66.1766)
(-68.4455 8.72743 -26.3459)
(-101.076 -7.69061 -85.7534)
(-31.2857 4.56396 8.8848)
(-29.6218 38.411 51.2539)
(-7.19045 9.35683 52.9928)
(-59.7857 47.441 9.1045)
(-10.7675 28.4412 51.4092)
(-32.9346 25.5794 10.8003)
(-36.0192 55.647 51.0022)
(-132.247 15.9635 -66.3011)
(-131.6 17.1179 -36.1922)
(-107.033 -25.9034 -34.3164)
(-116.241 1.67943 -33.6136)
(-113.278 -14.2376 -44.576)
(-125.665 1.95715 -52.1559)
(-144.455 44.4178 -42.338)
(-125.251 -0.190683 -102.749)
(-123.32 3.59249 -75.7982)
(-112.187 -20.3912 -54.8452)
(-111.904 -17.2367 -69.9015)
(-114.923 -18.2834 -72.8753)
(-126.042 -0.848054 -81.277)
(-118.827 -8.40254 -95.6856)
(-93.9065 40.7291 -26.9975)
(-113.031 28.3485 -53.8806)
(-98.2184 4.42981 -50.8398)
(-63.0745 41.0665 -15.5259)
(-68.2423 28.7958 -20.383)
(-90.6088 55.483 -21.3511)
(-112.362 11.5533 -70.4803)
(-61.6227 61.4319 12.0757)
(-39.8915 70.31 49.1901)
(-32.1152 45.3859 15.1302)
(-12.1239 40.5197 50.3526)
(-33.2925 39.8573 13.4907)
(-60.2002 68.0248 13.6413)
(-38.306 67.1628 50.5894)
(-61.6622 110.984 134.035)
(-87.628 123.274 84.7511)
(-62.9156 113.075 94.5422)
(-44.4418 116.844 158.921)
(-27.5197 66.207 85.7245)
(4.35634 9.12865 94.2633)
(14.7854 14.3343 186.891)
(11.182 25.7478 158.936)
(-73.6893 123.696 93.3185)
(-57.5422 118.961 132.307)
(-38.6221 75.0149 93.6225)
(-67.802 128.654 127.086)
(-46.6288 89.1527 91.0871)
(-33.4284 78.9678 132.224)
(-40.5515 91.5028 125.923)
(-83.8342 127.606 89.8046)
(-81.2469 125.138 110.256)
(-77.1696 131.313 118.955)
(-56.338 96.1446 81.912)
(-54.8917 96.1157 87.4373)
(-47.5278 97.6574 117.716)
(-51.2231 95.4855 108.925)
(-53.5189 121.423 153.666)
(-54.1115 122.096 150.348)
(-63.3546 129.183 146.485)
(-22.1601 80.8355 170.893)
(-30.5649 83.1649 159.5)
(-36.946 93.6142 151.391)
(-28.5041 87.9022 161.678)
(-16.9508 39.828 94.1333)
(0.581246 26.4938 89.0276)
(-21.7419 56.4996 89.6873)
(8.97043 9.67505 131.277)
(-11.7527 42.0129 131.785)
(-15.5267 56.8402 124.171)
(6.5771 25.5512 123.174)
(-74.1947 122.23 128.567)
(-60.8809 120.063 141.036)
(-71.5034 129.66 137.274)
(-42.56 97.7837 141.93)
(-33.3922 83.9657 144.277)
(-44.7077 94.0176 132.397)
(-33.2573 89.4656 152.231)
(-28.3286 68.8151 80.5349)
(-1.73644 38.1903 84.7977)
(-4.95518 40.6002 79.2972)
(-21.5536 65.532 116.526)
(0.684475 37.6644 107.631)
(2.1227 35.5956 115.71)
(-22.7476 66.6376 108.199)
(11.198 12.5747 163.91)
(-2.2688 46.8403 180.557)
(-9.1013 46.186 162.72)
(-12.5436 58.5117 153.421)
(13.2366 23.9281 177.408)
(9.29159 25.7185 154.231)
(-5.93478 55.2243 171.068)
(-16.6944 65.4775 144.05)
(-8.75805 55.5767 153.013)
(5.14278 33.8749 135.285)
(12.2312 28.664 167.694)
(5.85833 33.7824 144.696)
(-17.6269 64.368 134.416)
(-8.59294 59.2222 161.659)
(42.3625 -111.137 299.547)
(47.1978 -133.897 313.884)
(46.9671 -123.682 321.962)
(57.3123 -123.906 318.582)
(48.4084 -112.35 272.714)
(57.3066 -133.48 309.716)
(50.8084 -109.524 292.687)
(16.2154 -167.075 290.172)
(16.773 -184.965 296.857)
(5.29703 -183.857 295.831)
(16.4208 -171.68 304.004)
(4.82472 -178.523 292.307)
(16.0544 -178.791 292.37)
(5.15803 -171.182 303.698)
(39.5692 -186.456 296.318)
(27.075 -168.236 291.805)
(28.1032 -185.698 296.892)
(27.5449 -171.545 302.777)
(37.8731 -176.873 287.639)
(27.0516 -178.156 290.642)
(38.6459 -171.071 300.502)
(67.4334 -123.902 314.205)
(64.9145 -103.749 271.151)
(75.9911 -131.233 297.754)
(54.7889 -108.244 259.765)
(66.9774 -132.715 304.367)
(77.1701 -123.532 308.725)
(58.459 -107.189 283.59)
(62.5019 -187.395 292.571)
(49.49 -171.376 295.196)
(51.0804 -187.101 294.89)
(48.135 -174.815 283.325)
(49.4725 -170.271 297.199)
(59.8851 -169.05 292.906)
(57.6392 -171.756 277.492)
(15.5875 -59.9855 132.159)
(0.00150495 -0.0606791 0.185177)
(2.06674 -69.8493 156.749)
(0.181933 -9.62786 18.091)
(0.000110175 -0.00490611 0.0097779)
(0.000834079 -0.00301935 0.00679099)
(1.46054 -6.40679 12.2639)
(13.1399 -121.391 275.136)
(5.10692 -143.322 310.932)
(15.6962 -143.694 311.053)
(15.258 -150.655 298.664)
(3.38063 -117.925 244.252)
(4.75807 -150.496 298.76)
(11.7719 -117.087 242.016)
(36.6275 -143.045 306.944)
(21.9239 -120.084 271.291)
(26.1717 -143.534 309.603)
(25.5647 -150.018 296.748)
(26.8127 -110.909 226.629)
(35.7256 -148.735 293.374)
(19.6204 -114.732 236.134)
(84.0974 -176.64 293.226)
(84.0975 -185.796 284.478)
(73.5951 -186.981 289.139)
(69.6191 -167.153 287.404)
(73.2246 -161.477 259.371)
(66.1231 -167.442 269.808)
(78.397 -164.059 280.418)
(0.0297937 -0.0552575 0.136981)
(0.00935306 -0.029994 0.0977567)
(17.7918 -53.0985 115.691)
(0.000514002 -0.00234935 0.00538377)
(1.41459 -4.82839 9.34463)
(0.0436065 -0.0906263 0.189784)
(0.000456378 -0.00106351 0.00259362)
(46.7456 -142.197 303.032)
(44.0194 -109.393 241.301)
(56.3867 -140.829 297.958)
(32.755 -105.43 213.009)
(45.3233 -146.715 288.351)
(54.1716 -143.892 281.602)
(36.9615 -97.7975 194.167)
(4.43702 -80.8306 292.833)
(4.02889 -85.3004 273.477)
(11.853 -84.9283 271.692)
(2.45793 -47.8273 172.554)
(7.23159 -46.9873 168.94)
(5.79763 -41.9037 130.971)
(1.86616 -42.932 134.596)
(73.2764 -135.441 282.82)
(48.5216 -102.623 223.073)
(65.3304 -138.679 291.438)
(62.0178 -140.048 272.61)
(37.7588 -73.9281 140.537)
(68.4554 -134.712 260.154)
(38.9117 -87.5579 170.13)
(20.4075 -80.1254 288.343)
(26.6618 -82.2633 259.725)
(19.4038 -83.9232 267.149)
(15.2401 -42.6719 150.149)
(11.5378 -45.276 161.444)
(9.2311 -39.7836 123.448)
(11.9436 -36.5573 112.19)
(14.4444 -152.559 281.103)
(2.55148 -103.991 194.447)
(6.49122 -73.3972 123.544)
(3.61511 -147.98 253.945)
(13.0964 -147.248 252.334)
(4.26914 -152.749 281.671)
(9.61114 -102.491 191.025)
(24.3153 -151.236 278.255)
(21.2775 -93.0606 170.45)
(10.5996 -68.506 114.893)
(30.3343 -140.795 239.26)
(22.0547 -144.826 247.429)
(33.8409 -148.968 273.4)
(15.9413 -98.8596 182.992)
(35.369 -77.6441 274.219)
(33.1638 -79.8159 248.978)
(38.6097 -76.4186 234.529)
(17.9118 -39.1167 135.161)
(19.2016 -34.4831 116.642)
(13.508 -32.2101 97.4336)
(13.6601 -26.8276 79.781)
(46.996 -72.3346 246.954)
(44.4012 -65.3011 190.574)
(42.5638 -71.7759 215.564)
(16.5425 -22.1111 71.434)
(18.7479 -28.7094 94.9603)
(12.4944 -20.8656 61.194)
(10.2301 -14.8933 43.7743)
(24.9481 -84.7371 153.167)
(37.3636 -134.886 227.332)
(42.5535 -145.632 266.165)
(50.1431 -140.956 255.871)