/*--------------------------------*- C++ -*----------------------------------*\
  =========                 |
  \\      /  F ield         | OpenFOAM: The Open Source CFD Toolbox
   \\    /   O peration     | Website:  https://openfoam.org
    \\  /    A nd           | Version:  9
     \\/     M anipulation  |
\*---------------------------------------------------------------------------*/
FoamFile
{
    format      ascii;
    class       volScalarField;
    location    "0.00045";
    object      impulse;
}
// * * * * * * * * * * * * * * * * * * * * * * * * * * * * * * * * * * * * * //

dimensions      [1 -1 -1 0 0 0 0];

internalField   nonuniform List<scalar> 
5655
(
127.777
2.85026e-05
2.45602e-05
0.134517
1.72468e-05
0.0133312
0.0363058
16.4636
0.00448621
0.0195853
0.0411304
4.15094e-05
227.274
3.32168e-09
3.09975e-09
1.32188e-07
3.49386e-07
1.67224e-05
2.02528e-08
3.22176e-08
0.00176156
5.08075e-08
0.0001132
55.3188
61.72
0.00191738
8.05396e-07
59.2268
0.00231717
32.2819
275.968
21.8129
178.43
342.982
14.7813
170.455
87.7885
0.00051199
0.000116279
0.0905569
0.0288467
13.5395
116.826
31.7222
0.00013111
1.04444e-05
0.0329417
0.00278588
359.356
355.649
345.119
322.766
325.26
308.268
266.906
0.0208501
1.20614e-05
9.66156e-06
0.0464893
0.0362964
3.85501e-06
4.537e-06
0.000912189
0.0154855
0.0165511
4.55176e-06
2.09719e-06
4.37376e-06
2.03563e-06
1.49371e-06
0.000504117
4.78338e-07
0.0396535
1.0165e-06
0.0032103
2.74186e-06
0.0117053
1.03252e-06
5.22238e-07
0.000610789
0.00317533
2.63263e-06
1.4312e-06
9.37615
5.38414e-05
2.26441
6.90897e-07
1.0721e-05
0.0459794
3.28586e-06
0.911522
2.9766e-05
1.87806e-06
7.56367e-05
3.23903
189.445
1.95987
3.96256e-05
0.68189
23.9022
0.000118735
0.00164357
5.54925e-07
1.80031e-06
303.811
167.906
260.63
147.816
239.974
182.839
89.7955
331.545
197.974
275.024
198.062
276.496
199.282
116.44
283.983
128.027
242.208
111.11
224.034
169.276
64.4242
123.482
114.13
79.96
28.4131
30.9278
14.9262
13.1775
82.2868
111.895
78.6287
30.2734
27.6028
12.9095
14.2294
0.00156001
8.13386e-06
8.11678e-07
1.85792e-07
0.352494
0.000510525
0.00657786
1.98569e-07
1.11577e-06
0.00176913
0.00680443
8.01344e-07
0.000337833
2.002e-07
23.7652
8.18753e-06
2.57848
2.55169e-07
1.37236e-06
0.000278795
5.96313e-07
1.29298e-07
2.3571e-08
3.80382e-06
0.000172196
4.5422e-07
7.93702e-05
9.15732e-08
4.0834e-07
0.000685061
6.69346e-05
14.1814
1.58404
3.3156e-05
8.24416e-06
7.31537e-05
1.40319
0.149207
1.51597e-07
7.2377e-06
9.23877e-06
1.00931e-06
94.086
63.7628
37.584
7.37398
18.8996
8.11884
2.48721
115.004
217.161
152.571
68.9035
42.9053
23.9471
43.4974
0.00114155
3.84978e-07
7.80312e-07
0.0023735
0.00153008
4.5771e-07
8.80564e-07
0.00149965
7.0495e-07
3.33164e-07
0.00175049
0.000122597
9.58681e-07
2.47794e-07
57.3322
71.5297
39.6656
20.9039
11.3989
7.26948
0.838044
7.3266
45.7593
141.918
86.7532
0.978571
22.7652
16.4877
95.3775
107.344
190.99
110.34
4.85176
34.8427
42.5828
99.3459
69.9743
177.122
100.813
2.67798
37.8535
22.5755
12.4718
47.3733
42.2075
3.87682
0.342158
0.407846
3.29583
44.0888
41.9952
12.6281
3.30208
0.390391
0.343987
3.7119
108.271
106.62
93.5319
41.9762
33.2376
31.5642
4.60535
64.8138
32.3455
6.57214
7.01784
1.38046
0.763299
0.111428
8.57652
1.51589
0.425542
0.507171
0.158338
0.0228091
0.00740339
6.984e-08
6.41364e-06
3.83034e-06
0.00113779
0.000585936
2.26583e-07
2.92569e-07
3.27575e-06
1.90713e-08
6.53587e-07
0.000666909
4.93932e-05
3.13025e-07
9.94593e-08
27.8596
113.536
69.8146
8.06829
3.77163
1.10796
18.6264
1.43248
0.0290888
1.56162
0.424568
0.00737243
0.00756443
0.378128
14.8906
2.4926
8.21331
1.7797
0.0391428
0.177109
0.412156
1.63926
0.0264146
1.35434
0.36274
0.00833799
0.00687503
0.427198
10.9653
2.86194
0.979166
0.793576
0.257899
0.0507388
0.0128103
0.0306681
0.0237757
0.0195183
0.000855441
0.00071639
0.000434961
0.00053653
0.0306881
0.000436242
0.000716478
0.0239027
0.0363947
0.000857157
0.000539201
0.0408511
0.036349
0.0375646
0.000997382
0.000992933
0.000912415
0.000877116
5.94592
0.0418909
2.69697
0.825661
0.0273032
0.0115799
2.21222
0.0251172
0.0350149
0.0397442
0.000930406
0.00045956
0.000809636
0.000563572
0.044129
0.0465792
0.0465348
0.0011194
0.00111858
0.0010537
0.00112222
0.000875407
0.000910726
0.037505
0.0407965
0.0411056
0.000996344
0.000991406
0.000826276
0.0342634
0.0376993
0.0409005
0.037707
0.000988012
0.000913629
0.000343793
0.00061521
0.0263645
0.0184546
0.0303049
0.000714866
0.000416223
0.0281384
0.0189587
0.0308395
0.000727438
0.000367675
0.000656928
0.000427452
0.0349485
0.0250532
0.0207898
0.000928427
0.000808121
0.000458178
0.00056217
8.32362e-08
2.36856e-06
0.0641693
5.07871e-09
4.08773e-08
5.38895e-08
5.75805e-07
2.43176e-08
3.41569e-09
6.35815e-08
1.79421e-06
0.0266021
3.76556e-06
3.23413e-08
0.024781
0.00642465
0.0133044
0.000280926
0.000553104
0.000280337
0.000127192
0.158108
0.012313
0.661984
0.182135
0.000702786
0.00325502
0.0416568
0.0216969
0.00632431
0.012785
0.000249884
0.000490097
0.00027333
0.000127349
23.1966
0.101248
2.70236
0.0374797
1.00178
0.0448625
0.00167451
35.3144
0.148711
5.69636
0.0756052
3.17532
0.144634
0.00319803
32.6369
0.0888852
4.79151
0.0518022
2.96247
0.123953
0.0021574
3.3096
0.0138214
0.423591
0.00191416
0.0468446
0.00559663
0.00020197
0.0135635
2.67271e-08
1.63712e-05
7.2348e-08
5.39333e-09
2.64542e-08
3.50999e-07
34.1253
0.058936
0.133058
0.0928988
3.3123
4.96166
2.16955
0.239126
0.0221085
1.25092
0.00500723
0.251344
0.0218467
0.00044647
2.88503
0.00409619
0.268752
0.00235481
0.148396
0.0127362
0.000204175
22.1484
0.0395005
2.4175
0.0348127
2.13285
0.0933907
0.0015348
8.40336
0.0366419
0.727925
0.00864996
0.139884
0.00918761
0.000494998
2.60376
0.0113978
0.102924
0.00471629
0.0360625
0.00147429
0.000167946
1.2383
0.0569366
0.0702917
0.0221703
0.0256722
0.00117456
0.00106543
1.25615
0.0641983
0.0562147
0.025179
0.0218626
0.00102576
0.00120208
0.0698224
0.00620184
0.00011621
0.00116433
0.00670752
0.00118794
0.0629043
0.0615369
0.00705668
0.000109264
0.00132835
0.00604859
0.00110866
0.0718518
0.00244355
0.0109452
0.00867384
0.000177405
6.52705e-05
4.95391e-05
0.000228102
0.0106677
0.00251962
0.00860899
0.00017813
6.49515e-05
5.15021e-05
0.000223649
0.00639658
0.000131524
0.00785058
0.00223156
0.000163913
4.59673e-05
3.65472e-05
0.00805521
0.00186687
0.00227918
0.000139854
0.000168076
4.6915e-05
3.83734e-05
0.240225
0.0108744
0.124192
0.00364895
0.0404585
0.00197139
0.000175927
4.80404
1.06976
0.239203
0.273281
0.071451
0.00302025
0.0113636
0.660186
0.00611636
0.0282653
0.00234122
0.0108403
0.000491867
0.000102162
0.00221082
0.00115262
0.000518423
8.80297e-05
4.15688e-05
2.30854e-05
1.07819e-05
0.0869396
0.000499585
0.0224309
4.04159e-05
0.00160785
0.000406248
1.05834e-05
3.91194e-07
3.26086e-08
7.70595e-09
2.27256e-09
8.91781e-09
3.99462e-08
3.35501e-09
0.144672
0.046182
0.00019079
0.00491383
0.0140983
0.00195998
0.435385
0.0298902
0.000617612
5.03723e-05
0.000109534
0.00294359
0.000515283
0.00659365
0.0021976
0.00132034
0.00510089
9.86269e-05
1.0355e-05
2.57776e-05
4.06122e-05
0.00241879
0.00146957
0.00531839
0.000104771
1.26084e-05
2.90847e-05
4.56695e-05
0.110683
0.000265531
0.0183526
0.000154416
0.0104671
0.00150286
2.2455e-05
108.77
31.0403
110.114
186.68
0.224372
1.98713e-05
0.0106212
0.0013554
155.878
172.383
73.8156
136.231
59.9582
47.2601
35.118
147.41
70.571
107.474
21.9646
41.9012
20.8447
8.01627
56.43
39.7493
87.9334
4.89185
21.1884
13.2229
2.23238
9.23486
0.118992
5.77494
0.0629644
3.38941
1.76461
0.0297255
60.8952
6.25643
20.9812
5.72067
0.0968647
1.26763
0.602838
0.679512
0.0439688
2.58398
0.621819
0.00209264
0.141211
0.00977359
0.0839056
0.0113572
0.66891
0.303501
0.00050918
0.033043
0.00492105
0.0937567
0.00131416
0.000246197
0.00012481
0.0169189
0.0083894
0.00139478
0.0553314
0.000427743
0.0162502
2.91316e-05
0.0008899
0.000260722
8.99743e-06
0.00233529
0.000104798
3.557e-05
6.15783e-06
0.000360558
0.000113206
2.20475e-06
0.0162193
7.02122e-05
0.00418739
1.68705e-05
0.000872938
0.000217099
4.57962e-06
0.00116692
0.0025979
0.00196558
4.22337e-05
3.2975e-05
5.64568e-05
2.55755e-05
0.00132867
0.00229653
0.00198707
4.34295e-05
3.19715e-05
5.26679e-05
2.65568e-05
0.00236264
0.0013712
0.00205079
4.56528e-05
3.72464e-05
3.19937e-05
5.50774e-05
0.00271661
0.00133388
0.00204973
4.74522e-05
4.20642e-05
6.24803e-05
3.27201e-05
0.0027535
0.0014715
0.00109967
5.14262e-05
6.64527e-05
2.84498e-05
2.05228e-06
0.00104905
0.0011073
0.0602194
0.00233407
3.44169e-06
4.91195e-05
4.52853e-05
0.00111917
0.00291087
0.00190826
3.26216e-05
2.50203e-05
4.07971e-05
1.96476e-05
0.00126883
0.00254314
0.0689927
0.00120331
3.93455e-06
4.98793e-05
2.8263e-05
0.000601856
0.000235553
0.014977
0.000709189
1.51709e-06
1.30499e-05
2.90172e-05
0.0010489
0.00144879
0.0616998
0.00263206
4.05401e-06
6.70784e-05
5.06402e-05
0.00362585
0.00275737
0.160985
0.00352101
6.82651e-06
9.05096e-05
7.34271e-05
0.000876867
0.00133131
0.0295367
0.000405921
2.45011e-06
1.4912e-05
2.11963e-05
0.000749818
3.24409e-05
0.000158995
4.1902e-06
1.37714e-05
3.98462e-06
1.86164e-06
0.00231884
6.16931e-05
0.00199486
3.90343e-05
2.70936e-06
2.36124e-06
4.64893e-05
0.00312319
0.00144705
0.00201358
3.48823e-05
3.3873e-05
2.54309e-05
4.42542e-05
0.000182371
0.00057401
0.000863749
1.84147e-05
4.14295e-06
1.27017e-05
5.45537e-06
0.000367978
0.0012762
0.000775081
3.67904e-05
2.01699e-05
1.31964e-05
2.15957e-06
0.000625174
0.000556879
0.00021284
2.65631e-05
1.166e-05
9.95506e-06
1.47528e-06
0.000322876
5.44493e-05
0.00041617
1.06082e-05
3.98158e-06
4.27111e-06
8.89585e-06
3.36665e-09
7.33683e-09
1.0333e-08
4.5441e-09
5.24429e-09
1.342e-07
1.23089e-07
8.36634e-09
2.99924e-09
5.28423e-09
4.94628e-09
1.17178e-07
3.62662e-09
3.87189e-08
0.000512154
0.000177976
0.000829039
1.97778e-05
6.29522e-06
7.54107e-06
1.37455e-05
9.90973e-05
7.5619e-05
0.00433816
0.000376348
1.63687e-06
8.27989e-06
9.89721e-06
0.00186678
2.64816e-05
2.70591e-06
0.000125669
1.15979e-06
2.79259e-06
7.83421e-06
7.03042e-05
0.000296667
0.00291264
4.6448e-05
1.27232e-06
5.87921e-06
2.36043e-06
6.63599e-05
7.61115e-06
1.41086e-06
2.18188e-05
4.468e-07
2.86266e-06
7.24781e-07
4.30907e-05
5.49513e-05
0.00042243
1.07074e-05
4.01882e-06
9.15389e-06
4.28431e-06
7.84513e-05
0.000314664
0.00349676
6.11415e-05
1.34923e-06
6.96801e-06
2.66132e-06
5.71206e-05
1.01677e-05
0.000635122
3.2047e-05
4.61252e-07
3.17593e-06
1.0143e-06
0.000176507
0.031218
0.00716487
9.79791e-05
9.54556e-06
3.86673e-06
0.000348908
7.14123e-05
0.00206623
0.00237737
4.46286e-05
4.15584e-06
4.14646e-06
4.28886e-05
0.00291694
1.20579e-05
0.000904863
4.00231e-05
1.7653e-06
8.76494e-07
0.000127552
0.000407654
8.03608e-06
0.000428466
2.0747e-05
1.27289e-06
1.22898e-06
2.06278e-05
0.000462398
7.76823e-06
0.000391145
1.94163e-05
1.36718e-06
1.27272e-06
2.32232e-05
0.000548447
0.000144973
0.000138531
1.53574e-05
1.39882e-05
6.40603e-06
6.70687e-06
0.000521612
0.000164281
0.000132154
1.71956e-05
1.41265e-05
6.63352e-06
7.38531e-06
2.53338e-05
3.78906e-06
2.53093e-05
3.91745e-06
2.38996e-05
2.54402e-05
3.86432e-06
2.88209e-05
1.04313e-05
0.000651536
7.87428e-05
1.41217e-06
4.24042e-06
2.51758e-06
0.000193177
2.30125e-05
9.46242e-06
2.32506e-06
5.07719e-06
3.15151e-06
2.02297e-06
2.94148e-05
0.00020288
0.000967934
1.8689e-05
1.65171e-06
2.08507e-06
5.04825e-06
3.74088e-05
3.40639e-06
0.000183281
8.69084e-06
4.33841e-07
5.6428e-07
2.08369e-06
0.000633759
0.00033599
0.000172069
1.77888e-05
1.27505e-05
5.79021e-06
7.471e-06
0.000228321
1.32153e-05
5.79647e-05
2.47581e-06
5.64619e-06
2.69297e-06
1.81783e-06
2.61483e-06
2.56218e-06
1.01627e-05
1.90502e-05
2.71852e-06
1.67497e-05
2.77012e-06
1.15381e-05
2.47348e-06
2.41784e-06
2.59385e-06
1.49535e-05
1.76025e-05
2.65321e-06
4.4711e-06
1.97018e-05
2.04167e-05
2.2053e-05
4.58784e-06
2.20312e-05
4.53722e-06
2.20854e-05
4.59708e-06
2.20714e-05
2.04758e-05
4.47956e-06
1.97434e-05
4.53628e-06
1.49629e-05
8.2094e-06
2.26174e-06
2.12167e-06
1.36008e-05
9.31454e-06
2.2913e-06
4.48086e-06
2.02764e-05
1.85889e-05
4.49617e-06
2.17329e-05
2.0332e-05
4.40677e-06
2.20266e-06
7.74658e-06
1.27538e-05
1.46525e-05
2.04745e-06
9.045e-06
2.21551e-06
2.68843e-06
1.89905e-05
1.66969e-05
1.00903e-05
2.58494e-06
1.20108e-05
2.51676e-06
1.75585e-05
2.57105e-06
1.49328e-05
9.61425e-06
2.44953e-06
1.1474e-05
2.38929e-06
1.93888e-07
2.3103e-09
8.84215e-09
9.09008e-08
1.78146e-08
0.000416368
0.00017517
5.16011e-07
7.4295e-07
2.45273e-08
2.77315e-09
1.39242e-09
9.50777e-08
1.0468e-06
4.97675e-08
7.29849e-09
5.44731e-05
4.21348e-06
1.05731e-05
0.000323117
4.14209e-05
8.85547e-06
3.92763e-06
6.6682e-05
8.20394e-06
2.09515e-05
2.94371e-06
4.76231e-06
2.23534e-06
1.95142e-06
300.897
306.982
77.7054
292.01
212.039
307.569
116.126
162.677
281.616
304.376
293.809
277.893
287.44
293.262
284.536
325.814
321.094
331.2
312.001
301.64
302.478
298.765
300.048
301.289
311.84
287.093
255.542
256.387
281.697
182.244
210.168
179.329
264.463
269.341
257.206
254.719
311.813
324.875
326.834
288.412
222.503
249.059
272.28
255.386
197.258
163.686
127.579
271.486
252.548
228.066
135.514
132.267
75.1282
226.026
174.507
171.814
226.71
82.5897
36.9487
62.2301
214.995
122.953
157.236
183.894
1025.44
316.163
1223
287.772
323.841
1348.91
475.771
1346.79
1132.47
492.997
313.062
484.784
334.282
380.432
508.53
286.435
443.025
315.697
391.106
359.023
466.308
546.016
511.938
392.32
373.056
511.861
404.248
561.635
380.98
389.315
529.266
404.175
394.203
367.303
481.122
549.327
392.958
518.284
375.881
489.701
399.557
563.956
376.888
404.221
383.679
527.944
541.881
1290
490.496
493.289
1336.95
552.55
1277.29
556.793
503.067
1339.37
1285.85
504.519
565.027
1275.55
352.749
372.115
434.708
379.793
385.52
454.575
354.885
386.04
381.755
386.642
356.83
377.1
456.186
355.734
1030.13
304.04
298.351
442.608
221.16
456.092
225.439
275.317
304.188
275.423
222.985
182.091
227.419
185.193
302.879
306.58
284.077
275.344
301.172
332.17
316.521
312.272
284.022
289.472
341.283
314.409
336.073
324.733
292.721
298.076
301.256
332.807
314.655
326.162
326.162
297.833
294.395
321.22
282.071
308.057
328.194
320.084
466.099
1138.53
458.847
1137.68
456.491
464.601
1214.85
462.251
1134.94
469.54
472.412
1218.17
478.311
1210.41
322.964
314.026
323.166
312.063
333.611
337.333
334.952
316.163
326.158
324.459
339.37
337.845
337.766
336.12
305.893
271.498
274.051
304.953
267.848
268.502
308.284
299.744
270.932
265.651
302.789
264.026
267.032
301.949
284.972
283.205
271.653
280.071
268.583
271.126
278.792
279.036
286.008
287.546
281.859
271.92
273.716
281.108
455.977
1034.52
455.262
447.326
868.444
444.126
888.897
302.503
316.286
301.29
295.777
305.124
307.249
294.427
459.037
1024.45
465.623
449.771
871.646
886.046
453.649
304.38
318.886
317.483
297.23
307.589
308.332
297.002
300.135
259.289
243.925
231.979
263.237
295.702
256.902
300.889
262.964
232.21
249.894
263.705
301.504
257.093
272.112
261.576
223.432
233.359
265.44
268.73
233.654
273.361
265.276
234.918
226.754
267.297
271.141
234.794
411.203
674.089
474.357
310.881
692.428
408.558
320.39
280.077
266.337
213.596
195.008
274.269
275.202
225.202
281.286
269.16
196.07
217.014
275.38
277.914
226.415
409.437
664.931
301.111
472.159
398.97
692.353
318.837
515.403
302.693
324.898
313.534
1170.06
353.61
1326.42
1123.43
397.738
295.781
319.925
344.434
363.978
381.123
298.053
394.412
331.201
440.212
387.549
443.429
360.046
358.704
374.865
338.952
432.666
391.719
436.731
350.139
353.679
335.557
367.075
524.458
1347.38
540.292
509.632
1289.57
508.096
1270.93
420.95
378.524
386.248
364.1
363.109
373.598
364.088
353.489
317.811
325.584
369.329
350.276
353.239
325.549
326.042
333.285
339.952
348.064
360.661
339.269
325.303
468.739
85.55
188.538
289.365
199.522
998.509
354.793
288.892
340.575
321.85
312.489
333.833
338.107
310.636
290.682
312.383
304.87
325.882
311.233
310.561
326.676
1238.65
524.807
518.212
1292.44
517.82
516.879
1232.79
504.356
1089.74
1217.66
484.772
500.752
491.424
1194.23
362.675
351.922
357.74
373.412
370.757
357.302
363.719
343.53
334.987
323.346
344.183
346.703
342.456
352.679
314.075
306.773
319.683
316.745
329.5
327.149
313.115
363.266
304.189
358.684
314.289
347.698
348.735
311.188
278.296
318.205
334.202
275.114
318.928
328.384
283.852
935.58
1070.06
527.743
518.104
1028.2
514.05
1147.44
339.673
337.922
349.205
359.006
347.805
346.283
357.248
948.664
478.453
490.119
833.329
457.644
452.526
770.708
348.575
300.694
348.619
324.101
258.434
291.567
283.437
232.451
210.606
181.416
263.539
300.889
287.908
255.159
768.58
872.149
490.822
428.285
575.165
376.735
684.316
247.254
415.385
287.141
630.535
396.851
369.334
564.298
75.8109
148.509
134.451
254.154
175.372
195.442
227.766
121.171
277.645
190.562
321.468
372.215
252.101
477.82
206.731
0.00494213
238.269
342.146
321.511
327.181
323.028
17.7133
118.004
333.772
330.441
324.237
323.18
330.923
327.792
324.425
335.157
352.728
343.615
345.268
338.59
326.802
323.378
0.00242697
88.0401
122.472
0.00745324
3.69936e-05
0.993402
0.000266433
242.746
306.756
191.134
306.208
286.2
282.511
183.868
294.526
303.163
322.243
298.423
245.42
237.079
299.964
227.151
300.708
306.828
272.907
141.508
167.6
253.185
325.447
263.474
285.191
188.071
218.813
291.744
272.067
231.23
47.458
147.324
42.0895
138.08
223.445
110.27
128.691
30.4083
8.81817
73.886
68.3206
27.481
7.44704
90.2162
31.346
118.881
206.133
70.1242
93.9463
177.568
108.838
39.8319
56.4726
13.2555
21.2141
4.90025
2.24289
26.5359
3.61726
0.0600585
2.82265
0.0449599
23.1147
0.770678
0.01886
0.00309772
0.0232912
1.3202
0.180956
1.08245
0.144345
0.510087
1.5175
0.0228528
8.61034
16.4775
0.426297
0.159238
0.000513491
0.0013604
0.0113829
0.304659
0.670294
0.0840947
0.0332181
0.118793
0.0142092
0.0210668
0.0817985
0.0879431
0.00327134
33.9511
1.27679e-08
93.9114
102.508
285.324
0.00036886
37.6787
258.697
14.7687
325.566
291.807
321.563
272.001
263.471
218.871
187.964
2.34535e-06
4.3281e-06
0.000175135
1213.54
993.22
482.378
354.204
299.084
320.898
308.175
167.232
265.624
332.54
577.023
391.625
285.486
278.204
282.713
177.998
300.269
300.561
345.959
306.414
161.694
258.964
320.107
1316.4
368.226
1223.86
901.599
299.499
292.981
357.475
340.216
375.68
324.514
296.48
351.444
338.61
292.392
264.641
221.674
170.738
22.6318
7.40941
0.0229249
0.0103061
0.0117132
0.00193137
321.029
89.9349
0.00755145
0.00137232
54.9591
0.0161138
379.786
187.085
7.62215
82.2672
0.00448238
0.78595
22.26
0.000625542
166.436
315.854
161.202
1.0445
24.294
0.00102592
4.46534
85.831
0.000645222
224.649
171.728
164.357
86.2738
126.029
25.196
0.505316
25.155
2.80513e-05
1.17871
1.57313e-05
0.0831118
1.04415e-06
5.83359
1.95397
2.17156e-05
0.00106867
1.3507e-06
0.000384025
3.09468e-07
5.11265e-07
1.27942e-06
4.44988e-08
3.47436e-07
1.6829e-08
2.35183e-08
7.36682e-10
770.365
1213.67
560.742
311.425
319.629
329.991
327.94
0.115756
128.146
474.721
887.713
425.897
316.161
278.876
302.211
275.207
303.128
268.461
296.131
322.786
343.432
294.329
323.451
335.882
242.247
200.648
83.1108
1193.78
309.808
328.455
1209.55
884.884
324.595
304.582
3986.8
460.801
400.571
392.188
336.359
354.352
353.152
284.644
352.673
331.069
327.141
273.649
337.932
318.765
235.235
307.841
258.668
318.642
330.706
264.313
263.75
531.156
889.948
534.417
438.922
722.166
553.551
436.899
662.505
1462.87
1331.55
763.74
1088.85
762.265
797.434
529.435
807.558
453.91
424.646
665.715
566.929
415.489
367.474
393.702
374.55
477.671
547.894
485.072
517.682
1483.32
3094.5
2818.55
1891.33
1778.86
2365.4
1656.48
1151.3
2041.35
1329.83
959.522
878.62
1869.9
1263.71
1154.26
2028.39
1261.48
980.525
1253.91
1794.14
881.301
1046.49
1198.25
726.97
776.613
1063.16
1021.22
683.219
411.149
351.848
353.342
331.952
406.111
334.849
312.121
422.884
375.842
366.508
344.254
420.691
337.273
323.538
381.18
467.056
416.992
466.609
428.29
543.839
400.725
322.453
374.709
364.874
343.016
355.846
419.797
417.515
296.475
269.661
334.158
340.464
276.343
341.723
292.503
379.025
352.282
370.893
432.827
385.041
453.134
380.129
302.385
331.878
301.163
283.784
323.111
306.194
275.368
340.922
289.474
312.719
311.907
314.457
335.612
284.011
293.122
333.185
301.467
298.29
315.181
286.698
326.728
294.072
308.165
287.501
327.851
282.104
320.62
297.582
320.858
338.339
164.137
250.073
339.37
227.826
310.154
492.8
1339.93
513.578
1284.84
484.497
480.292
1263.28
355.142
365.597
364.279
408.171
379.16
351.706
353.373
365.416
351.205
378.672
354.8
363.323
407.023
375.427
305.218
315.779
131.786
57.1276
201.236
507.946
255.779
306.935
275.715
293.676
319.141
279.53
314.857
289.844
326.869
340.675
319.993
294.38
328.334
327.357
300.11
309.958
344.202
332.072
302.948
318.467
324.851
310.409
288.787
314.329
318.247
306.344
292.922
319.02
275.338
321.534
340.16
295.514
311.671
337.538
288.658
333.694
346.234
320.311
348.055
307.811
342.557
290.685
346.313
319.296
284.302
304.126
315.266
287.916
299.922
303.507
289.219
57.9286
203.432
72.8345
157.097
231.324
231.701
458.21
1222.79
1136.62
463.812
465.126
455.754
1138.47
305.114
298.654
326.345
312.099
291.203
327.346
312.551
314.705
287.5
299.264
298.643
303.775
284.129
318.524
334.596
322.928
311.697
336.86
333.992
332.895
313.69
1131.3
471.84
461.65
468.98
1217.33
477.734
1133.97
326.158
336.18
324.343
339.603
316.201
315.76
338.045
334.364
334.65
320.049
311.411
340.025
339.915
309.196
1.13534
0.0565479
0.476257
197.025
166.235
171.47
202.162
271.742
245.968
238.803
249.65
251.732
267.481
252.386
301.5
263.807
266.609
297.798
270.627
299.197
265.483
278.605
270.823
279.808
282.862
275.071
271.55
284.692
268.415
267.75
307.981
274.17
303.521
305.495
271.345
281.767
271.832
281.019
279.226
287.555
285.855
275.379
484.037
1281.31
483.851
1153.65
490.922
484.258
1223.45
329.426
317.198
334.901
335.373
333.725
322.219
343.56
357.178
343.263
357.825
350.262
338.162
343.44
351.506
1079.74
1187.05
476.814
465.692
1214.31
469.74
1120.44
335.331
322.052
333.411
329.311
316.923
339.962
334.357
484.417
1089.4
504.158
1217.03
491.021
1122.82
500.677
336.892
347.428
348.371
341.596
327.995
320.591
345.267
345.618
341.923
330.853
348.595
347.626
328.171
337.012
470.527
1119.68
466.04
477.256
1078.84
474.937
1186.06
313.806
292.443
298.352
311.053
296.206
299.528
315.321
289.416
326.568
323.999
338.035
292.703
292.905
334.268
346.797
343.433
334.943
323.398
344.357
342.639
331.132
282.807
265.14
297.558
282.728
247.379
264.628
258.581
338.227
293.188
334.448
324.465
286.024
326.93
290.087
299.753
311.208
315.446
314.101
292.813
298.806
308.405
322.45
323.839
322.907
330.053
327.115
330.861
324.994
281.706
285.182
273.601
271.62
283.131
288.924
275.598
283.967
275.131
318.809
317.958
289.387
278.231
334.228
275.822
282.036
296.398
271.77
283.28
273.892
285.389
446.518
867.849
443.542
455.409
1033.44
454.53
1025.13
270.271
310.275
315.949
306.872
267.024
304.794
268.406
305.106
316.112
316.123
307.109
295.556
301.112
302.223
449.169
870.745
453.161
1028.89
458.433
465.071
1023.46
293.216
277.919
287.374
293.836
292.339
281.831
304.373
307.41
317.256
308.061
297.043
296.885
304.262
304.122
302.791
262.139
304.212
291.069
262.841
288.123
263.722
268.796
275.629
316.265
267.266
307.259
310.652
270.647
338.566
326.2
333.534
325.504
331.506
346.808
333.939
342.592
351.573
350.626
337.634
352.68
351.626
342.62
201.882
202.586
201.008
114.606
111.371
100.071
104.237
1009.2
1134.96
486.719
901.868
478.047
1047.76
493.138
299.862
263.798
310.099
256.993
309.283
312.715
244.152
331.566
325.595
346.796
334.001
333.708
326.312
345.99
29.6627
11.3102
4.7501
98.0564
165.586
3.56505
0.142518
0.0564851
45.048
4.50192
138.766
0.00123062
9.61109e-05
25.6336
344.929
316.948
338.414
333.927
322.961
338.173
331.012
310.016
244.105
312.635
256.917
309.159
299.7
265.507
333.952
338.458
345.044
322.941
331.081
335.948
317.008
460.69
933.304
464.018
822.132
440.133
426.334
745.868
306.676
323.475
312.639
302.558
296.706
294.237
290.658
1047.47
478.138
493.177
486.869
1008.48
482.506
1134.21
452.45
832.743
457.39
478.146
948.344
997.905
490.072
463.776
745.475
933.717
821.824
439.693
460.334
993.508
312.534
294.129
296.668
290.51
302.508
320.908
306.576
325.679
298.679
307.427
302.379
301.518
311.945
320.993
329.996
248.63
287.788
287.976
330.165
296.619
342.728
248.925
288.056
257.286
288.232
300.209
300.392
315.259
286.715
274.482
265.112
231.001
237.54
291.352
279.946
238.072
280.313
291.583
287.061
300.79
265.575
274.873
263.585
298.811
325.886
318.913
254.955
229.804
279.18
280.843
182.215
190.839
305.857
285.98
236.414
304.949
230.538
279.613
319.291
283.184
326.197
299.35
264.139
187.192
201.377
196.98
90.9463
104.248
90.9507
76.1058
320.768
298.039
302.959
321.7
297.978
245.155
234.993
255.258
220.024
289.271
269.207
165.384
240.599
178.701
257.291
203.687
264.274
167.928
242.323
248.011
168.34
349.208
295.404
334.603
311.432
250.86
310.117
344.112
298.482
253.428
231.893
298.57
306.491
336.45
329.992
59.0508
54.476
165.397
195.111
191.402
80.8138
85.5671
361.869
757.17
443.743
757.195
921.045
443.861
485.198
457.467
640.37
843.006
718.392
425.605
506.902
325.411
314.173
255.563
280.728
321.054
287.594
180.591
214.473
314.244
287.616
280.774
264.801
255.778
214.619
180.87
312.996
275.382
259.899
230.865
295.93
285.785
205.887
223.549
269.391
303.389
295.022
135.726
246.866
200.701
315.34
217.814
305.966
279.446
174.094
306
217.839
251.011
334.671
311.512
344.111
349.24
332.595
295.522
315.976
286.02
206.347
296.151
313.136
275.682
260.232
294.959
246.768
269.385
135.63
164.09
223.517
303.353
326.321
718.661
426.011
842.875
457.705
392.219
641.136
249.94
190.96
265.971
242.992
119.235
153.52
219.16
7.99828e-07
1.42794e-06
4.5157e-07
0.0127969
0.0281174
0.000519807
0.00228252
172.2
87.1817
175.254
181.171
91.5214
244.913
252.638
171.616
252.316
174.992
244.482
180.96
86.6739
91.1159
217.933
390.03
268.704
610.762
379.219
341.922
529.299
130.438
32.1781
45.0573
152.086
182.661
70.6696
55.7285
70.661
152.096
182.7
166.24
130.444
55.7213
32.1749
7.04427e-07
4.46835e-06
1.4528e-06
0.0103565
0.000713763
0.00223354
0.00103908
88.1406
187.452
164.49
82.7703
172.797
244.279
272.82
272.273
177.077
163.68
172.45
243.811
82.1897
87.553
25.1742
1.29539
27.0131
19.1869
0.815133
0.69255
21.1037
8.11154e-07
0.000193841
0.742993
26.5845
0.00344651
8.12438e-07
0.000201385
0.184409
0.035283
1.23458e-06
0.00439773
35.3959
0.000680916
1.28188e-06
108.952
117.907
231.082
47.4446
147.225
41.3298
136.447
120.124
54.3588
112.581
156.544
145.452
225.885
205.713
116.047
117.312
59.8467
148.604
151.879
207.535
211.438
301.89
179.21
235.353
165.054
224.178
142.592
86.2244
171.958
142.908
225.891
131.625
82.0209
56.7483
248.292
181.505
259.447
178.79
100.383
181.605
259.06
317.953
248.016
225.621
171.785
142.753
56.5135
81.694
131.197
291.057
212.537
243.807
165.295
132.166
150.23
75.1852
271.586
208.726
96.8664
152.826
227.771
114.432
52.9325
30.1395
67.2363
7.21751
26.7425
8.75756
73.6614
120.794
114.483
53.0227
152.991
271.655
96.9923
208.896
164.43
0.832792
15.2667
21.2916
15.2725
0.255701
0.476715
10.0604
291.225
244.089
150.669
75.4995
224.934
212.927
132.531
206.117
70.0089
177.436
31.3373
118.882
90.0975
17.6611
204.998
71.968
171.844
38.0099
122.595
91.475
20.5297
229.661
204.566
124.585
380.065
244.232
559.826
353.049
202.226
65.4644
90.996
15.5564
84.4203
29.5974
115.193
7.73145e-07
2.54906e-07
5.34346e-05
0.00596153
6.36339e-06
0.385428
0.235205
243.908
559.364
352.539
353.284
228.777
204.043
124.053
103.409
28.8837
50.0325
139.661
108.31
201.157
171.332
91.0747
115.351
202.316
65.5929
170.941
84.6478
15.6346
35.5303
17.849
65.9863
118.527
200.116
163.879
85.4032
99.7179
17.7687
62.0238
6.02006
99.7293
37.0421
17.7716
0.0933535
5.52392
4.6542
11.4434
0.370124
0.306919
13.0216
36.6217
54.262
1.8693
4.49825
11.7472
19.979
105.552
79.6477
225.943
151.179
300.965
198.772
281.778
423.819
19.9776
54.2848
105.56
36.6669
83.14
11.7545
1.87435
1.20562e-06
9.48866e-08
2.8684e-08
6.88203e-07
1.17143e-07
0.00400635
0.000123089
13.2604
0.812617
12.9397
76.9738
19.1627
72.6073
18.5521
91.4219
21.4313
85.7245
21.2802
22.117
1.32903
1.312
14.9239
16.0572
1.18732
76.7511
80.0185
21.1272
23.0094
90.1501
94.9855
26.6695
24.1541
1.71985
26.549
2.0238
0.0248881
1.47886
3.06752
8.44914
0.0993012
0.200906
4.95147
0.200642
3.0653
8.44365
0.0992398
4.94948
1.47842
0.0248797
5.37857
2.03163
41.1771
7.43285
3.03743
0.16782
0.109961
10.6078
69.133
124.471
53.6024
0.71267
19.137
6.34196
82.7615
41.1546
135.273
54.379
0.802428
20.6516
5.96294
32.0027
94.2263
171.993
79.2835
22.6648
2.652
25.5072
60.4321
21.5843
10.1878
10.1492
21.4976
0.357142
1.32401
94.0262
89.8141
31.9402
22.5475
78.9674
2.63223
25.3538
161.909
59.3135
16.3619
28.8476
86.3576
1.53223
16.3323
35.9307
72.6498
4.57823
47.8814
0.514868
15.9497
11.2491
41.6564
5.72807
7.55038
2.21148
3.11547
0.171545
0.118896
0.74279
0.989564
26.4943
3.61396
2.72459
0.0599138
0.0432041
0.0180032
1.2977
0.138722
1.03157
0.17924
0.00306832
0.0023303
17.7906
0.454285
4.57013
25.6125
0.0659108
4.54422
0.869246
40.3521
213.436
129.884
82.0914
13.2279
40.2023
3.86025
11.8737
0.731599
0.188497
70.0355
45.7083
18.079
7.94447
72.86
0.520726
16.0678
36.0568
126.282
48.098
4.61996
31.7742
7.49612
0.445526
58.7593
14.6084
114.051
46.9139
4.56046
0.0661894
0.870604
17.8355
54.9975
4.57711
0.456194
2.72765
22.6358
26.496
0.989722
3.61704
0.0599658
0.0432674
23.1362
2.83075
0.771777
0.996585
3.63547
0.0603791
0.0450756
3.23131
4.02279
40.4653
23.1055
0.0238974
1.03562
1.23025
2.12453
50.7002
23.792
176.671
107.831
71.2464
34.6001
1.36029
15.4721
7.43709
0.414978
0.131552
0.0204675
0.00609716
15.4485
0.130875
0.384449
0.0060513
0.411729
1.35469
0.0203752
0.47617
0.00147445
0.0989173
0.0335799
1.99644
0.476304
0.00755378
0.970162
0.0768566
0.0190631
2.89034
38.2491
20.3879
0.831075
0.000656165
0.000726986
0.0308345
0.0189821
0.0165562
0.00036771
0.00042784
0.000615569
0.0263941
0.0303085
0.0184676
0.0155155
0.000415309
0.000343775
0.00414062
0.0274918
0.0759844
0.255461
0.605818
0.000426385
0.00122879
0.000427878
0.0103038
0.0760726
0.605706
0.255711
0.00414529
0.0275753
0.0216933
0.000273431
0.000489755
0.00632614
0.0117064
0.000249813
0.000127332
0.508409
0.556293
0.0230634
0.000449303
0.00965287
0.000426393