/*--------------------------------*- C++ -*----------------------------------*\
  =========                 |
  \\      /  F ield         | OpenFOAM: The Open Source CFD Toolbox
   \\    /   O peration     | Website:  https://openfoam.org
    \\  /    A nd           | Version:  9
     \\/     M anipulation  |
\*---------------------------------------------------------------------------*/
FoamFile
{
    format      ascii;
    class       volScalarField;
    location    "0.00045";
    object      p;
}
// * * * * * * * * * * * * * * * * * * * * * * * * * * * * * * * * * * * * * //

dimensions      [1 -1 -2 0 0 0 0];

internalField   nonuniform List<scalar> 
5655
(
2.13973e+06
101300
101300
110580
101299
101867
102716
764704
101504
102097
102882
101300
1.88756e+06
101298
101298
101298
101298
101299
101298
101298
101428
101298
101305
2.33245e+06
1.54273e+06
101428
101298
1.74582e+06
101480
1.36616e+06
1.77438e+06
1.06146e+06
1.98916e+06
607958
789627
3.5888e+06
1.88963e+06
101341
101305
108069
102840
685589
1.69864e+06
1.13462e+06
101306
101299
103054
101467
193875
456594
544106
1.1039e+06
1.04413e+06
1.23434e+06
1.80989e+06
102157
101299
101298
103094
102697
101298
101298
101334
101930
101974
101298
101298
101298
101298
101298
101325
101298
102853
101298
101450
101298
101792
101298
101298
101330
101448
101298
101298
612963
101302
264924
101298
101299
104485
101298
168661
101300
101298
101304
328388
2.28356e+06
243220
101301
149918
1.00283e+06
101306
101397
101298
101298
1.20235e+06
2.23776e+06
1.79159e+06
2.22506e+06
1.89999e+06
2.27144e+06
2.09481e+06
998291
2.29385e+06
1.79534e+06
2.28262e+06
1.76179e+06
2.2876e+06
2.30578e+06
1.39822e+06
2.11725e+06
1.89065e+06
2.0406e+06
1.95614e+06
2.26922e+06
1.78279e+06
2.03349e+06
1.76267e+06
1.64242e+06
966512
1.09286e+06
724965
627743
1.60538e+06
1.71956e+06
1.59868e+06
982117
948868
619431
650087
101403
101299
101298
101298
125927
101332
101687
101298
101298
101383
101598
101298
101316
101298
994080
101299
269937
101298
101298
101316
101298
101298
101298
101298
101308
101298
101303
101298
101298
101361
101302
1.00355e+06
209365
101301
101298
101303
189904
111772
101298
101298
101299
101298
1.71025e+06
1.52143e+06
1.2542e+06
456791
785962
476831
250116
2.53656e+06
3.83805e+06
2.68965e+06
2.39115e+06
1.56737e+06
1.14108e+06
1.88269e+06
101362
101298
101298
101471
101378
101298
101298
101377
101298
101298
101390
101305
101298
101298
1.71454e+06
1.89075e+06
1.40266e+06
1.04689e+06
694938
516534
163111
515233
1.50512e+06
2.21441e+06
2.06874e+06
172826
1.10382e+06
885004
2.14075e+06
2.23753e+06
2.27077e+06
2.26553e+06
426335
1.43388e+06
1.60567e+06
2.18664e+06
1.85278e+06
2.2864e+06
2.19692e+06
290854
1.50121e+06
1.08519e+06
657389
1.49871e+06
1.28784e+06
326575
122109
127952
283557
1.28445e+06
1.26918e+06
663514
284120
124975
122474
300739
2.2578e+06
2.23699e+06
2.13361e+06
1.5944e+06
1.39916e+06
1.35135e+06
412426
1.57771e+06
1.2004e+06
420127
487832
187997
149181
108708
522924
195230
126251
134250
111008
102727
101780
101298
101298
101298
101383
101330
101298
101298
101298
101298
101298
101334
101301
101298
101298
1.3683e+06
3.17594e+06
2.15788e+06
581687
387704
186144
1.12418e+06
177008
102953
188713
126090
101708
101745
121915
762329
264626
520508
209695
104019
112653
127935
187312
102736
173792
121292
101758
101686
124436
632050
278754
163082
155275
117910
104683
102167
102501
102257
102094
101332
101327
101316
101320
102502
101316
101327
102263
102720
101332
101321
102872
102698
102739
101337
101337
101334
101333
486263
104134
273861
158569
103409
102098
263506
102316
102688
102857
101336
101318
101331
101322
103017
103095
103096
101342
101342
101340
101342
101332
101334
102737
102870
102882
101337
101337
101331
102618
102746
102875
102747
101337
101334
101313
101323
102330
102041
102476
101327
101315
102400
102062
102496
101327
101314
101325
101316
102685
102313
102155
101335
101331
101318
101322
101298
101298
106255
101298
101298
101298
101298
101298
101298
101298
101298
103281
101298
101298
102306
101590
101866
101311
101321
101310
101304
110638
101993
138316
111824
101343
101492
103940
102169
101581
101836
101309
101319
101310
101304
1.11458e+06
109179
295198
104153
175041
104749
101429
1.4413e+06
112898
474774
107156
324570
112584
101551
1.37993e+06
108164
422231
105283
310857
110970
101467
305573
102307
131100
101431
104448
101690
101313
102299
101298
101299
101298
101298
101298
101298
1.41437e+06
105838
111677
108474
333136
431915
257594
118175
102954
193530
101660
119172
102939
101332
286853
101589
120219
101466
111717
102235
101313
1.08639e+06
104336
276657
103951
256301
108575
101417
549523
104052
153289
101909
110567
101948
101335
265943
102125
108410
101628
103712
101400
101310
180329
105084
106337
102719
103067
101381
101368
182054
105541
105074
102906
102717
101366
101377
105745
101680
101306
101368
101736
101373
105066
105023
101730
101305
101377
101675
101365
105570
101417
101771
101681
101306
101301
101300
101308
101758
101419
101675
101306
101301
101300
101308
101580
101304
101638
101404
101305
101300
101300
101647
101388
101406
101304
101306
101300
101300
118280
102098
110083
101559
104111
101439
101311
441458
194405
120930
124490
107072
101546
102296
145627
101739
103260
101465
102026
101332
101305
101406
101355
101325
101302
101300
101299
101298
107176
101333
102856
101301
101407
101326
101299
101298
101298
101298
101298
101298
101298
101298
111838
105190
101313
101687
102380
101442
135602
103169
101341
101301
101305
101491
101331
101727
101408
101365
101534
101303
101298
101299
101300
101416
101371
101541
101303
101299
101299
101300
107746
101315
102465
101308
101953
101400
101299
1.73407e+06
1.17211e+06
1.76808e+06
1.38119e+06
111037
101299
101874
101375
1.65071e+06
1.53636e+06
1.3038e+06
1.72921e+06
1.23421e+06
1.13777e+06
1.01671e+06
1.69888e+06
1.63238e+06
1.7572e+06
830255
1.09837e+06
804947
476760
1.43391e+06
1.25526e+06
1.67873e+06
340536
789824
615710
228499
418801
106865
327636
104376
251677
188952
102822
1.53372e+06
452502
924684
385724
107751
180853
138905
137860
103559
224809
134691
101423
109470
101829
106009
101886
135589
117483
101329
103265
101568
106796
101387
101314
101306
102370
101820
101382
104942
101327
102397
101300
101356
101316
101299
101445
101304
101300
101298
101321
101305
101298
102324
101303
101573
101299
101356
101313
101298
101361
101432
101402
101300
101300
101301
101299
101368
101417
101408
101300
101299
101301
101299
101420
101374
101411
101300
101300
101300
101301
101438
101370
101407
101300
101300
101301
101300
101515
101412
101383
101302
101303
101300
101298
101379
101383
105979
101482
101298
101302
101301
101371
101509
101421
101300
101300
101301
101299
101396
101499
106660
101391
101298
101302
101300
101344
101315
102402
101352
101298
101299
101300
101379
101410
106067
101506
101298
101303
101302
101586
101515
113862
101578
101298
101305
101304
101365
101400
103507
101328
101298
101299
101300
101338
101300
101307
101298
101299
101298
101298
101453
101302
101434
101301
101298
101298
101301
101524
101392
101427
101300
101300
101300
101301
101309
101330
101346
101299
101298
101299
101298
101325
101396
101357
101301
101299
101299
101298
101346
101340
101314
101300
101299
101299
101298
101315
101301
101319
101298
101298
101298
101298
101298
101298
101298
101298
101298
101298
101298
101298
101298
101298
101298
101298
101298
101298
101327
101308
101344
101299
101298
101298
101299
101305
101303
101611
101326
101298
101299
101299
101424
101300
101298
101307
101298
101298
101299
101303
101320
101506
101301
101298
101298
101298
101303
101298
101298
101300
101298
101298
101298
101300
101301
101320
101298
101298
101298
101298
101304
101322
101551
101302
101298
101298
101298
101302
101299
101342
101300
101298
101298
101298
101313
104142
101901
101306
101299
101298
101329
101303
101437
101470
101301
101298
101298
101301
101546
101299
101371
101301
101298
101298
101309
101324
101299
101327
101299
101298
101298
101299
101328
101298
101324
101299
101298
101298
101299
101330
101306
101306
101299
101299
101298
101298
101327
101307
101306
101299
101299
101298
101298
101299
101298
101299
101298
101299
101299
101298
101300
101299
101342
101304
101298
101298
101298
101309
101299
101298
101298
101298
101298
101298
101300
101313
101367
101299
101298
101298
101298
101301
101298
101311
101299
101298
101298
101298
101341
101324
101310
101299
101299
101298
101298
101311
101299
101302
101298
101298
101298
101298
101298
101298
101298
101299
101298
101299
101298
101298
101298
101298
101298
101299
101299
101298
101298
101299
101299
101299
101298
101299
101298
101299
101298
101299
101299
101298
101299
101298
101299
101298
101298
101298
101299
101298
101298
101298
101299
101299
101298
101299
101299
101298
101298
101298
101299
101299
101298
101298
101298
101298
101299
101299
101298
101298
101299
101298
101299
101298
101299
101298
101298
101298
101298
101298
101298
101298
101298
101298
101319
101308
101298
101298
101298
101298
101298
101298
101298
101298
101298
101301
101298
101298
101315
101300
101298
101298
101302
101298
101299
101298
101298
101298
101298
1.20939e+06
634907
1.6956e+06
117069
1.30615e+06
586822
1.88774e+06
1.91211e+06
87195.6
127218
90373.5
189965
214741
382537
333909
184482
169289
332995
103401
306013
537943
912899
567205
232248
263679
753450
1.23496e+06
1.31306e+06
674330
1.58826e+06
1.39941e+06
1.65436e+06
585082
669103
1.01275e+06
918856
829535
374500
665356
971736
1.88183e+06
1.51618e+06
1.37027e+06
1.3515e+06
1.61742e+06
1.81351e+06
1.97027e+06
908848
1.24996e+06
1.63434e+06
1.81645e+06
1.83947e+06
1.68971e+06
1.43317e+06
1.80687e+06
1.84526e+06
1.35806e+06
1.83176e+06
1.35049e+06
1.62498e+06
1.62807e+06
2.10736e+06
1.97136e+06
1.95997e+06
2.92745e+06
131785
2.11811e+06
67174.5
79446.7
1.86836e+06
95609.8
1.76653e+06
2.2648e+06
94161.5
80488.3
92603.5
47899.8
68060.6
91479.2
63877.1
81097
58083.4
92257
87936.2
99510.4
97037.4
98985.9
90309.7
91990.9
92715
90211.8
95536.1
85261.6
87111.6
97039
89129.6
83121.9
84095.9
87157
95384.1
87977.5
90581.8
79300.6
87010.6
82936.9
94846.5
83145.2
87404.3
79330.5
90376.1
276623
1.92904e+06
280309
274863
1.82552e+06
273587
1.87042e+06
266963
271109
1.79016e+06
1.81868e+06
270671
270397
1.82672e+06
55257.7
71281.8
80753.6
74986.3
71316.1
84036.4
58992.8
69016.6
75127.3
71612.1
56325.3
71934.1
84026.5
59305.2
2.70625e+06
114517
125489
4.52176e+06
1.20435e+06
4.40805e+06
1.1948e+06
78826.3
85619.1
78686.7
1.11167e+06
1.8108e+06
1.08907e+06
1.80728e+06
83362.7
81346.9
69267.4
67916.6
76867.7
81501.3
80128
80818.7
65045.6
67990.6
79783.5
73972.6
75712.1
78864.3
66384.1
61907.6
63578.8
71800.1
71648.7
76324.6
67706.4
63838.8
62111.5
67495.3
65247.8
72579.5
71912.4
76901.8
306138
2.43935e+06
388312
2.33017e+06
364769
295374
2.03681e+06
361050
2.29219e+06
379720
291357
1.99331e+06
297135
1.98294e+06
64012.6
58358.2
62104.4
57536.2
57020.2
61134.7
49608.2
58463.6
64701.2
62302
61342.4
48731.4
57915.4
49833.6
122588
81634.6
80211.1
234440
151713
134544
274017
115298
81530.3
84813.6
234602
156134
136098
275895
78250.7
80951.3
80928.3
138991
145874
129008
159181
77722.3
79998.9
77799.5
137645
140990
127335
154812
579656
2.7803e+06
533001
922150
3.66721e+06
1.02161e+06
3.49276e+06
81052.2
116082
85814.5
180472
419945
352239
213998
527243
2.75608e+06
564744
915867
3.46379e+06
3.40858e+06
1.00372e+06
80936.5
131802
116139
179298
416419
351357
210114
648922
471278
1.60016e+06
1.07018e+06
385789
767626
1.46384e+06
648064
464347
1.06513e+06
1.5811e+06
383663
762934
1.45549e+06
405402
424975
1.21868e+06
979015
349678
489970
1.09111e+06
400562
410227
971116
1.19681e+06
344921
474995
1.08281e+06
1.64897e+06
4.1882e+06
4.42037e+06
2.50653e+06
4.16143e+06
1.77691e+06
2.42017e+06
581942
1.13472e+06
1.45452e+06
1.74101e+06
1.01171e+06
690760
1.34614e+06
577389
1.12518e+06
1.73849e+06
1.4408e+06
1.00819e+06
677034
1.34016e+06
1.65734e+06
4.39014e+06
2.54371e+06
4.47e+06
1.80566e+06
4.24123e+06
2.43288e+06
1.07005e+06
659706
214474
217143
2.42444e+06
81639.7
1.80389e+06
2.41326e+06
86525.3
70473.9
57154.4
544930
46949.3
81200.3
68154.6
71875.9
71550.1
90655
83555.3
88176
74258.8
80266.8
82708.4
72891.5
86425
78264.3
82792.1
67233.4
77842.7
70357
74665
269717
1.7653e+06
265802
293812
1.86191e+06
276620
1.96465e+06
77401.4
56570.4
64882.4
57283.2
50969.5
66992.7
43934.5
66464.8
58876
59274.2
76901.2
75314.4
66281.7
58859.2
57254.5
56073.3
54034.4
72359
69212.3
54185.6
57225.5
1.80816e+06
2.05441e+06
3.96759e+06
126752
2.04788e+06
2.90204e+06
4.33057e+06
65069.9
72207
86655.3
66590.4
106307
71580.8
58637.1
63730.7
68561.6
62647.3
55377.3
64863.1
57656.2
61698.9
2.14325e+06
434580
335244
1.92563e+06
287058
336662
2.14783e+06
363242
2.61085e+06
2.0792e+06
427762
518136
318244
2.23386e+06
71870.9
53991.1
45052
59568
43026.4
45243.5
47323.3
107091
74430
60333.1
49525.1
49527
52862.7
55161.5
191768
90742
95383.7
81523.4
84285.7
58735
59500.9
378590
96854.9
144390
86367.5
87526.6
168936
61281
91557
149244
231257
211900
385225
640164
385689
3.19614e+06
2.78089e+06
637513
454887
2.88355e+06
704684
2.46975e+06
300737
117754
225001
181081
98131.6
57905.5
79366.4
3.1214e+06
661646
867660
3.59594e+06
1.19786e+06
1.54336e+06
3.80015e+06
969033
266272
463402
1.12081e+06
1.38708e+06
1.76288e+06
779253
1.78653e+06
1.42241e+06
1.71404e+06
669726
1.01952e+06
1.4153e+06
1.04086e+06
3.77131e+06
3.40072e+06
1.2361e+06
2.03933e+06
4.43879e+06
2.6427e+06
4.05765e+06
2.82234e+06
4.3771e+06
2.64802e+06
4.23399e+06
2.01817e+06
2.34361e+06
4.31012e+06
1.74283e+06
2.25275e+06
1.93005e+06
1.8634e+06
1.95985e+06
2.33238e+06
1.50119e+06
2.81434e+06
4.24063e+06
2.96866e+06
2.71407e+06
4.62061e+06
3.13188e+06
4.45353e+06
1.77187e+06
101569
1.42249e+06
343039
779192
164011
352103
865640
1.95207e+06
69428.4
124819
147957
355105
67219.5
112665
409638
213800
104611
77833.5
283478
166191
551469
832447
101432
1.67921e+06
1.74244e+06
101782
101300
157451
101313
1.34394e+06
592595
1.83441e+06
526634
1.09763e+06
1.19688e+06
1.88205e+06
966940
903010
300012
854617
1.65818e+06
1.7433e+06
1.01114e+06
1.57223e+06
1.03946e+06
754823
1.39338e+06
2.02675e+06
1.95784e+06
1.65979e+06
494150
1.53664e+06
1.20371e+06
2.08306e+06
1.892e+06
1.23782e+06
1.55988e+06
1.75045e+06
1.42066e+06
2.08324e+06
1.34774e+06
2.08527e+06
1.82333e+06
1.93285e+06
1.73413e+06
939788
471420
1.56932e+06
1.53321e+06
898040
429107
1.96427e+06
1.17232e+06
2.06093e+06
1.9483e+06
1.73089e+06
1.86959e+06
2.10032e+06
1.73435e+06
1.25622e+06
1.43425e+06
616545
790331
340830
229022
990696
301583
104935
264896
104059
921930
145481
102247
101465
102454
166065
110736
155082
109002
134424
195294
102729
524034
764931
126288
111058
101329
101376
101887
117542
135655
106018
103275
111880
102277
102644
107046
107218
101512
1.19234e+06
101298
1.86986e+06
1.9455e+06
1.20561e+06
101326
1.3733e+06
1.82484e+06
823158
495236
1.23944e+06
781859
1.56302e+06
1.54048e+06
1.89422e+06
2.08624e+06
101298
101298
101308
2.24818e+06
3.17185e+06
762447
5.13844e+06
62867.5
186109
101116
1.82953e+06
699364
652844
5.39926e+06
2.25084e+06
108308
1.96756e+06
296168
2.39762e+06
667236
290366
79995.5
840063
1.9663e+06
1.82679e+06
75882.6
1.97335e+06
91728.3
2.429e+06
3.80227e+06
63042.8
251966
74276.5
48105.5
63256.4
52978.9
222321
46048.6
234465
972573
1.58045e+06
1.82306e+06
2.10209e+06
909418
477057
102435
101832
101970
101420
499021
2.0855e+06
101708
101390
1.46242e+06
102485
5.31959e+06
2.44176e+06
663898
3.13827e+06
101705
155803
1.07117e+06
101342
1.83261e+06
695249
1.96842e+06
167456
1.00364e+06
101365
376107
1.86116e+06
101343
1.9591e+06
2.25373e+06
2.00249e+06
2.06661e+06
2.16589e+06
1.18088e+06
138121
1.17213e+06
101300
188045
101299
107824
101298
434639
227908
101300
101362
101298
101324
101298
101298
101298
101298
101298
101298
101298
101298
3.80056e+06
2.0371e+06
94760.7
57622.8
76856.1
69289.7
124158
106607
1.72939e+06
544095
3.49972e+06
1.63455e+06
80074.6
76818.4
234412
137932
69898.6
145886
135090
64111.1
53902.9
214516
343448
351831
1.34265e+06
1.7861e+06
1.64122e+06
2.22943e+06
58704.6
641361
1.98314e+06
3.41129e+06
78838.2
234177
110592
84133.8
71388.1
87958.9
66202.8
59043.4
41818.3
333281
54964.8
331340
76310.8
127306
48763.6
131790
300788
77279.5
470428
93006.4
93304.6
854088
924952
88673.3
101928
88657.4
88532.4
94932.8
94764.3
83472.8
94054.5
108220
103910
102336
100289
99971.3
96807.7
86970.9
96009.7
80684.5
78537.5
92508
90351.8
75368.5
84075.1
83125.3
79311.2
87176.4
95381
92599.2
90594.4
110209
110296
108707
106988
107035
108937
108712
105534
109225
107862
104227
96228.1
108455
106938
103220
105310
104135
98894.2
103946
105728
92259.3
105465
102053
100132
99040.4
103196
104715
94322.7
96574.9
88026.6
86624.9
83260.2
91631.2
79117.8
76581.8
82584.4
77524.8
81719.8
78613.3
87397
66179.8
71020.1
65898.3
82627.3
78068.8
82644.8
76231.9
87761.6
71406.6
71026.1
77535.6
81722.2
78598.7
74284
82604.4
87399.4
76376.5
77157.5
66802.7
65309.4
76094.3
63093.7
76988.6
75011.5
55304.9
71313.6
80788.2
71359.2
84065.3
68107.4
83266.5
81455.4
76804.3
69211.3
79352.4
81290.9
67840.6
79781.6
67948.1
80451.7
80762.4
73960.3
75708.7
65002.9
66371.9
71783.3
63565.8
61918.2
71613.2
63861.5
67680.6
62084.1
72530.4
67122.4
71889.3
65186.9
67475
63806.6
83307.7
76649.9
1.95438e+06
1.25089e+06
133713
1.94346e+06
1.16869e+06
280665
1.91191e+06
278601
2.00842e+06
286331
301872
2.16113e+06
49231.2
53959.4
65656.4
76640.6
70192
54654.3
41747.4
53969.2
54695.4
70204.2
49262.8
65679.7
76668
63284.4
154039
4.47372e+06
3.62035e+06
1.69963e+06
1.44366e+06
5.15275e+06
1.92971e+06
90316.5
69256.4
70845.6
76077.1
76563.4
112525
63371.1
70598.1
81101.3
78070.5
65352.5
88898.2
70518.3
62989.9
58162.6
67868.4
72587.1
60374.4
56788.8
52921.1
58115.9
63456.9
112927
76194.2
90349.5
70787.1
75797.3
69255.6
86670.1
72316.3
70577.4
66594.3
71602.9
65072
106528
60583.3
81027
57183
77259.4
63759.8
75731.7
60590.5
61335.6
65755.8
66145.6
54813
71436.8
59148.6
69631.6
92461
1.48981e+06
1.34498e+06
1.73175e+06
1.90936e+06
1.55758e+06
1.33296e+06
388791
2.12239e+06
2.33256e+06
295289
306384
364814
2.44555e+06
62617
68089.2
55288.1
64839.5
63714.8
61681.1
68391.1
54930.4
71650.7
59232.7
62919.7
66115
65760.5
61327.7
49647.9
62155.2
57570.2
61144.6
47948.5
57034.4
58365.6
2.26504e+06
291418
360988
379507
1.99132e+06
297059
2.29045e+06
64729.4
49866
62340.9
61348.8
58474.6
58118.1
57929.6
57462.4
56299.9
96079.9
80207
60268.1
58303.7
79895
145181
104059
120610
1.13273e+06
1.54185e+06
1.52672e+06
821164
136028
120190
318287
368340
122565
131588
396852
275987
156081
135966
125422
81458.5
115205
84741.7
159318
128962
138985
80946.9
78636.9
80878.8
78220.4
134418
151535
273667
80151
114428
122471
81563.7
137650
140962
154806
77705.4
77788.3
80007.5
78813.3
348866
2.14009e+06
296120
2.78582e+06
463328
348404
2.42543e+06
73464
59462.3
51362.2
107838
47833.1
71093.3
53710.3
40601.7
43131.9
56694.3
72979.6
53642.9
43053.1
45990.1
2.93397e+06
2.49077e+06
373406
438854
2.25521e+06
325889
2.63598e+06
108463
71468.9
48019.4
73701.4
59602.6
48198.9
51404.8
427558
2.60785e+06
363009
2.07537e+06
318038
2.41076e+06
518125
149496
60940.7
52870.8
56252.4
108132
83259.7
55966.3
55974.6
56234.7
93316
52868.5
60865
108147
149390
325278
2.6258e+06
437581
372292
2.92098e+06
541799
2.48193e+06
59612.4
99240
62762.8
241582
223644
90036.6
89624.1
67666
184571
94409
434570
253676
98567
162287
49491.1
106527
74302.8
60285.5
49376.2
52859.2
71265.7
149308
630215
185307
149200
364784
130204
469994
431879
98343.2
161837
94073.6
107633
183360
67424.8
89864
240207
89430.7
59402.2
98705
62573.8
100510
409282
147502
354172
66920.3
112318
68513.8
163244
126976
409907
364409
202064
226018
92643.8
91132.6
386011
211842
385271
149282
126956
91553.1
231857
91039.8
126332
134271
201525
225213
362400
407591
922888
3.67893e+06
1.02363e+06
580706
2.78493e+06
533372
2.93628e+06
407875
669313
243245
392068
221283
154369
97023.1
421112
132111
116194
352778
180638
85925.1
81079.7
915796
3.46446e+06
1.0032e+06
2.70732e+06
527182
564390
2.75506e+06
381264
189797
214400
90287.4
116878
87150.1
126756
416414
116211
351663
179416
210137
80961.4
85649.9
258040
928368
286106
172890
525841
162368
575338
96927
137134
241785
220710
390891
665709
405517
235874
123909
57407.8
328310
581146
192887
103753
278713
85025.2
56822
595623
183492
84921.6
278465
861330
967292
1.01834e+06
1.26255e+06
1.27368e+06
1.31327e+06
1.30753e+06
3.32583e+06
2.82103e+06
482119
3.81426e+06
1.20836e+06
3.23552e+06
697953
204736
925306
289211
1.09082e+06
367071
550109
1.33587e+06
579056
326680
192468
103494
57166.7
123013
79696.1
1.13724e+06
691259
394476
1.91339e+06
2.26108e+06
319111
111467
104057
1.10751e+06
324719
1.69112e+06
101368
101304
1.04849e+06
105215
851643
291255
166996
556941
76779.9
214978
289127
1.33553e+06
550190
1.08997e+06
366882
204510
698562
166426
290009
104889
555762
214693
351132
849530
684760
3.51819e+06
911745
3.92836e+06
1.23568e+06
1.62743e+06
4.27007e+06
104441
341496
175504
596573
315558
560896
934685
3.23011e+06
1.20373e+06
696525
480618
3.31225e+06
758846
2.81268e+06
1.5445e+06
3.5961e+06
1.19776e+06
661497
3.11997e+06
2.90084e+06
868174
916184
4.28975e+06
3.53517e+06
3.94462e+06
1.23986e+06
687209
3.18534e+06
176738
563900
317007
938530
598896
187009
104844
183962
909859
585625
535830
305354
103216
168393
1.07843e+06
1.4855e+06
719359
716900
1.0753e+06
244332
412239
1.30842e+06
618044
1.35455e+06
616026
213873
665540
230508
262599
812643
741855
1.33924e+06
1.3933e+06
702995
645741
1.38762e+06
641114
698698
260431
288064
737171
807945
842069
1.2229e+06
504603
1.10943e+06
1.93774e+06
1.4915e+06
745508
1.19794e+06
1.87843e+06
1.83149e+06
526044
1.09606e+06
1.42329e+06
593464
1.48424e+06
739620
1.10195e+06
293434
500667
1.21538e+06
836177
1.31493e+06
958724
1.13189e+06
1.31721e+06
1.30042e+06
1.31673e+06
1.28869e+06
352866
1.01286e+06
901914
299639
855515
1.65804e+06
1.74639e+06
685769
1.83209e+06
1.03985e+06
1.47677e+06
1.7372e+06
1.07513e+06
2.09396e+06
615227
1.43275e+06
698384
1.63351e+06
971682
1.05734e+06
1.68622e+06
206718
1.3121e+06
584230
1.11291e+06
1.87657e+06
1.16986e+06
490128
1.20871e+06
1.52679e+06
1.86951e+06
1.20704e+06
838462
541354
306985
1.22149e+06
1.18787e+06
1.56971e+06
1.21209e+06
1.26924e+06
1.31178e+06
1.32323e+06
3.06306e+06
4.54936e+06
2.02957e+06
4.54118e+06
3.75798e+06
2.02541e+06
1.15667e+06
1.35416e+06
4.7277e+06
3.98625e+06
4.62902e+06
2.10111e+06
5.16862e+06
2.96592e+06
799367
1.55986e+06
1.21876e+06
500756
1.24857e+06
2.08988e+06
1.90162e+06
796324
1.24596e+06
1.21547e+06
1.57669e+06
1.55511e+06
1.89837e+06
2.08651e+06
399849
1.01912e+06
1.40552e+06
1.56273e+06
886904
1.26201e+06
1.90195e+06
1.5796e+06
1.40119e+06
762740
1.06056e+06
2.01246e+06
1.67706e+06
1.78568e+06
492856
1.64865e+06
897312
1.38473e+06
1.97674e+06
897026
1.64854e+06
1.87406e+06
582064
1.11015e+06
489369
206064
651691
1.30918e+06
691809
1.25755e+06
1.8975e+06
882641
397124
1.01423e+06
1.40027e+06
1.06138e+06
1.67921e+06
1.40259e+06
2.01318e+06
1.95507e+06
1.57941e+06
763052
2.95646e+06
4.60927e+06
2.09116e+06
3.96705e+06
1.347e+06
2.24031e+06
4.70613e+06
1.36502e+06
1.635e+06
932021
1.27837e+06
1.93312e+06
1.81399e+06
1.64924e+06
101298
101298
101298
101836
102400
101325
101406
1.85954e+06
1.78114e+06
1.84153e+06
1.86771e+06
1.82584e+06
1.30723e+06
1.35605e+06
1.86221e+06
1.35997e+06
1.84331e+06
1.31214e+06
1.86917e+06
1.77844e+06
1.82383e+06
2.90363e+06
4.54201e+06
2.72246e+06
4.553e+06
2.08585e+06
2.48045e+06
4.72547e+06
1.7161e+06
969008
1.10728e+06
1.64466e+06
1.38522e+06
1.27473e+06
1.18873e+06
1.27523e+06
1.64569e+06
1.3866e+06
1.5424e+06
1.71641e+06
1.18883e+06
969019
101298
101298
101298
101735
101327
101404
101350
2.12947e+06
2.44059e+06
1.97652e+06
1.82172e+06
1.9986e+06
1.47729e+06
1.94707e+06
1.95298e+06
2.4003e+06
1.97991e+06
2.00008e+06
1.48286e+06
1.81776e+06
2.12457e+06
682872
150967
704797
604669
133339
128768
633013
101298
101309
143895
991624
101523
101298
101310
113272
103491
101298
101589
1.22233e+06
101341
101298
1.92238e+06
1.94925e+06
1.74865e+06
1.42006e+06
2.08138e+06
1.33411e+06
2.07756e+06
2.15695e+06
1.48689e+06
1.85292e+06
2.31863e+06
1.94433e+06
1.97882e+06
1.56425e+06
1.77952e+06
1.8046e+06
1.52748e+06
1.81767e+06
1.84884e+06
1.4326e+06
1.48998e+06
1.24029e+06
2.28566e+06
1.9393e+06
2.25374e+06
1.92851e+06
2.22828e+06
2.07074e+06
1.97747e+06
2.16574e+06
1.87672e+06
2.12633e+06
1.82923e+06
1.68661e+06
1.5302e+06
2.27766e+06
1.85482e+06
2.2605e+06
2.18423e+06
2.2769e+06
1.82524e+06
1.06149e+06
1.53349e+06
1.87949e+06
1.97851e+06
2.16607e+06
1.68366e+06
1.8273e+06
2.12646e+06
1.27424e+06
1.94491e+06
1.85909e+06
2.2627e+06
2.18966e+06
2.21388e+06
1.95162e+06
1.46478e+06
2.00783e+06
1.95026e+06
2.24728e+06
1.94439e+06
2.05584e+06
1.62446e+06
933743
1.51876e+06
420537
881880
469047
1.56493e+06
1.73157e+06
2.05578e+06
1.62538e+06
2.24661e+06
1.46355e+06
1.95032e+06
2.00565e+06
2.00186e+06
133919
540522
633831
540512
112154
120622
434591
1.26977e+06
1.85509e+06
2.21238e+06
1.95388e+06
1.95528e+06
1.94011e+06
2.18869e+06
1.94967e+06
1.73049e+06
2.10226e+06
1.17259e+06
2.06208e+06
1.96465e+06
864477
1.8814e+06
1.77047e+06
2.06356e+06
1.32829e+06
2.07534e+06
1.97544e+06
966470
3.35125e+06
4.45749e+06
3.01235e+06
5.31782e+06
3.44142e+06
5.32879e+06
3.02405e+06
1.95278e+06
1.68101e+06
1.84715e+06
798897
1.91716e+06
1.1364e+06
2.0438e+06
101298
101298
101302
101651
101298
123896
117645
3.44232e+06
5.34059e+06
3.03082e+06
5.1411e+06
3.35281e+06
4.45584e+06
3.00844e+06
1.82098e+06
1.1679e+06
1.45637e+06
1.93692e+06
2.01624e+06
1.65617e+06
1.95615e+06
1.8469e+06
2.04323e+06
1.95058e+06
1.68153e+06
2.09991e+06
1.91772e+06
800955
1.27926e+06
884764
1.70018e+06
2.05598e+06
1.88676e+06
2.05627e+06
1.92345e+06
1.71718e+06
732017
1.54503e+06
400027
1.71719e+06
1.0306e+06
732064
105679
317216
291474
467295
116580
114148
500464
1.20313e+06
1.40566e+06
208960
324628
572170
761356
1.71418e+06
2.41797e+06
4.22165e+06
2.89803e+06
4.77233e+06
3.17774e+06
2.92001e+06
4.88489e+06
761367
1.40567e+06
1.71442e+06
1.20354e+06
1.64124e+06
572302
209193
101298
101298
101298
101298
101298
101482
101305
752867
153317
684947
1.98967e+06
969213
1.71638e+06
867865
2.16892e+06
951466
1.84997e+06
947396
1.06694e+06
186576
193017
737572
781736
177511
1.69195e+06
1.73533e+06
920463
979871
1.80441e+06
1.85003e+06
1.07146e+06
1.00018e+06
209551
1.06863e+06
229597
102570
175209
239069
396027
105979
110030
300866
110022
239022
396011
105977
300825
175189
102569
398553
223376
1.31169e+06
484356
275630
111867
108374
665896
1.87294e+06
2.1447e+06
1.66788e+06
153913
992471
474765
2.03282e+06
1.42215e+06
2.20168e+06
1.678e+06
159790
1.03784e+06
450248
1.36495e+06
2.13827e+06
2.25234e+06
1.98278e+06
1.09838e+06
292042
1.1922e+06
1.73902e+06
980432
645490
643924
978101
126710
190050
2.13735e+06
2.08482e+06
1.36356e+06
1.09496e+06
1.98031e+06
290775
1.18819e+06
2.26716e+06
1.71828e+06
883555
1.2828e+06
2.06712e+06
213736
882602
1.32286e+06
1.92198e+06
381645
1.57566e+06
138648
878825
689019
1.31993e+06
414787
489202
233519
279728
112099
108943
143895
157206
988994
301392
259843
104926
103953
102202
164859
108708
152484
110640
101464
101426
835509
129546
338390
1.04809e+06
105738
371177
156311
1.83051e+06
4.54054e+06
3.07394e+06
3.13516e+06
1.00053e+06
1.8267e+06
396406
666652
150257
114568
1.71362e+06
1.5085e+06
877308
547313
1.92365e+06
139066
882738
1.32479e+06
2.16542e+06
1.5783e+06
383660
1.24441e+06
527698
133822
1.72877e+06
830956
2.08553e+06
1.55635e+06
371918
105755
156390
836544
1.46264e+06
338636
129656
259956
909384
988988
157215
301513
104929
103956
922457
265337
145547
157619
302423
104954
104067
297462
342795
1.37917e+06
1.04003e+06
102955
171152
185250
270858
2.35057e+06
1.29268e+06
4.16778e+06
2.81113e+06
2.89256e+06
1.65996e+06
185790
735853
477961
128246
109412
102581
101695
735457
109375
123850
101692
128051
185499
102576
126787
101386
107109
103020
199185
126793
101708
167685
106485
102614
279230
1.33905e+06
962772
157465
101325
101327
102496
102063
101974
101314
101316
101323
102331
102476
102042
101931
101315
101313
101527
102931
105578
114941
132315
101324
101368
101324
101831
105582
132309
114951
101527
102935
102169
101310
101318
101581
101792
101309
101304
132953
136529
102799
101327
101902
101325
101945
549292
101582
102657
102650
177949
114339
115591
102927
101349
103018
182876
177769
103467
103372
103537
101373
103872
198350
215291
104141
104626
302239
101392
106526
103607
232506
105070
187506
103022
101363
102664
873095
183467
105167
206555
326942
219588
219069
104028
106999
101424
107021
302865
1.18331e+06
106563
103629
105082
233763
101392
130556
101678
102833
101679
130474
107219
101319
103081
101374
106512
101841
101306
101521
117529
101308
101316
102058
101533
101735
101308
101303
126996
102347
126395
101316
101779
101740
101319
101304
101298
101298
101306
101298
101298
101298
102875
101706
101309
178532
122975
101839
103374
101697
105546
101309
101304
101359
102038
101299
101503
101316
102165
102172
150032
466112
110771
101647
101388
101598
101304
101300
101306
101300
101383
101638
101580
101300
101305
101304
101300
101572
101702
118954
101649
101304
101532
101307
101337
101359
104701
101490
101300
101424
101302
101708
114096
119237
101655
101304
101548
101307
103701
101360
104800
101495
101300
101302
101434
101847
101523
101306
228639
106563
103094
101374
103764
368126
172329
101331
104726
102201
101413
122765
102195
101527
101315
101392
101676
101302
108272
101606
110989
101459
101302
101304
101412
102190
101299
101357
101299
101341
101313
101309
101397
123319
106039
912332
362356
132902
107764
101299
101309
101359
102039
105553
101363
101698
101406
101356
101504
101302
101298
101299
101300
101971
101313
102191
101357
101299
101299
101341
101609
108589
111063
101460
101302
101417
101304
101997
101313
102198
101357
101299
101342
101299
3.43567e+06
464672
1.51946e+06
456613
1.73574e+06
101543
102106
102016
101300
1.67689e+06
640449
1.67224e+06
101441
101596
101302
101300
1.73405e+06
1.01439e+06
166371
740932
161072
128749
130780
1.01968e+06
750282
3.99355e+06
1.68889e+06
480938
420480
1.2684e+06
105677