/*--------------------------------*- C++ -*----------------------------------*\
  =========                 |
  \\      /  F ield         | OpenFOAM: The Open Source CFD Toolbox
   \\    /   O peration     | Website:  https://openfoam.org
    \\  /    A nd           | Version:  9
     \\/     M anipulation  |
\*---------------------------------------------------------------------------*/
FoamFile
{
    format      ascii;
    class       volScalarField;
    location    "0.00045";
    object      T;
}
// * * * * * * * * * * * * * * * * * * * * * * * * * * * * * * * * * * * * * //

dimensions      [0 0 0 1 0 0 0];

internalField   nonuniform List<scalar> 
5655
(
1835.18
287.928
287.928
305.862
287.927
288.729
290.081
1121.85
288.194
289.085
290.332
287.928
1604.66
287.926
287.926
287.926
287.926
287.927
287.926
287.926
288.111
287.926
287.933
2266.86
1633.18
288.106
287.926
1717.52
288.194
1515.15
1476.07
1336.58
1650.94
786.767
1132.92
2608.77
1767.96
287.983
287.933
301.621
290.348
1036.43
1630.51
1413.51
287.934
287.926
290.724
288.151
432.889
685.03
748.473
1113.58
1092.97
1187.45
1501.15
289.187
287.926
287.926
290.698
290.029
287.926
287.926
287.965
288.818
288.888
287.926
287.926
287.926
287.926
287.926
287.957
287.926
290.315
287.926
288.121
287.926
288.611
287.926
287.926
287.963
288.118
287.926
287.926
988.418
287.93
580.269
287.926
287.926
293.656
287.926
419.794
287.928
287.926
287.932
669.86
1780.34
546.838
287.929
384.798
1314.11
287.936
288.056
287.926
287.926
1189.09
1817.95
1518.7
1823.44
1570.78
1796.78
1847.72
1062.44
1768.56
1479.5
1770.45
1477.64
1771.48
1878.06
1276.43
1792.15
1553.5
1784.79
1596.86
1802.47
1740.17
1776.87
1650.67
1635.82
1284.55
1379.81
1098.62
999.387
1621.08
1648.39
1633.06
1299.73
1289.58
1006.26
1023.56
288.068
287.926
287.926
287.926
337.054
287.969
288.499
287.926
287.926
288.031
288.326
287.926
287.946
287.926
1319.94
287.926
593.113
287.926
287.926
287.946
287.926
287.926
287.926
287.926
287.936
287.926
287.93
287.926
287.926
288.016
287.93
1483.9
488.182
287.929
287.926
287.931
451.899
308.116
287.926
287.926
287.926
287.926
1667.52
1620.67
1492.31
844.604
1173.37
863.508
562.103
2139.42
2584.57
2121.13
2268.36
1753.35
1501.4
2049.02
288.003
287.926
287.926
288.176
288.022
287.926
287.926
288.021
287.926
287.926
288.037
287.933
287.926
287.926
1714.82
1798.83
1575.82
1330.16
1073.03
899.25
409.24
893.882
1603.26
1815.21
1835.44
426.769
1356.97
1216.61
1863.08
1868.41
1786.05
1879.38
789.145
1550.6
1628.42
1862.95
1768.25
1792.28
1870.01
618.542
1576.73
1352.64
1005.73
1601.41
1467.03
667.601
327.562
339.94
601.083
1474.73
1480.95
1030.61
607.601
333.273
328.891
626.319
1871.42
1866.37
1852.2
1622.03
1528.94
1504.92
773.445
1637.27
1448
795.422
870.4
456.599
383.328
302.212
902.552
466.817
337.114
353.152
306.572
290.317
288.664
287.926
287.926
287.926
288.042
287.962
287.926
287.926
287.926
287.926
287.926
287.967
287.929
287.926
287.926
1637.04
2567.41
2038.19
1025.39
820.693
461.103
1586.94
432.34
290.593
455.197
336.282
288.493
288.562
327.253
1144.62
584.351
903.938
493.116
292.749
309.715
341.105
450.428
290.199
428.293
326.518
288.571
288.467
332.246
1024.06
604.657
410.128
394.543
320.572
293.978
289.312
289.727
289.341
289.08
287.964
287.957
287.945
287.95
289.73
287.946
287.957
289.35
290.088
287.964
287.95
290.308
290.032
290.09
287.969
287.969
287.965
287.963
956.275
293.058
616.56
406.159
291.849
289.214
615.382
289.436
290.051
290.322
287.967
287.947
287.962
287.951
290.585
290.689
290.702
287.975
287.975
287.972
287.975
287.963
287.965
290.087
290.305
290.332
287.969
287.969
287.961
289.903
290.106
290.313
290.107
287.968
287.965
287.941
287.953
289.444
288.989
289.676
287.957
287.944
289.559
289.02
289.707
287.957
287.942
287.955
287.945
290.046
289.431
289.182
287.967
287.962
287.947
287.951
287.926
287.926
297.059
287.926
287.926
287.926
287.926
287.926
287.926
287.926
287.926
291.427
287.926
287.926
289.424
288.317
288.728
287.939
287.951
287.939
287.932
305.694
288.956
361.239
307.922
287.98
288.186
292.547
289.194
288.303
288.679
287.937
287.948
287.938
287.932
1375.42
302.869
624.349
293.001
431.477
294.178
288.109
1554.33
310.242
841.857
298.818
664.838
309.622
288.301
1513.33
300.925
782.627
295.248
644.457
306.433
288.174
642.832
289.605
347.469
288.114
293.675
288.53
287.944
289.56
287.926
287.927
287.926
287.926
287.926
287.926
1533.89
296.328
307.832
301.54
674.349
793.58
569.144
321.066
290.773
463.43
288.475
323.057
290.735
287.969
618.054
288.348
325.345
288.159
308.09
289.449
287.944
1355.17
293.384
597.872
292.619
567.395
301.68
288.092
935.756
292.915
391.32
288.906
306.004
288.976
287.974
584.188
289.281
301.491
288.426
292.236
288.067
287.94
434.608
294.439
297.014
290.177
290.86
288.032
288.012
440.347
295.315
294.525
290.512
290.212
288.011
288.024
295.91
288.459
287.934
288.01
288.56
288.019
294.483
294.494
288.537
287.933
288.023
288.461
288.008
295.453
288.076
288.583
288.452
287.934
287.929
287.928
287.936
288.562
288.079
288.44
287.934
287.929
287.928
287.936
288.3
287.932
288.382
288.058
287.933
287.928
287.927
288.395
288.037
288.061
287.932
287.933
287.928
287.927
321.455
289.211
304.807
288.301
292.941
288.12
287.941
857.764
484.723
328.599
338.033
299.243
288.302
289.705
374.858
288.591
291.231
288.156
289.047
287.967
287.934
288.062
287.995
287.957
287.93
287.928
287.927
287.926
298.834
287.97
290.551
287.929
288.072
287.96
287.926
287.926
287.926
287.926
287.926
287.926
287.926
287.926
309.188
295.665
287.943
288.548
289.767
288.127
362.431
291.067
287.979
287.929
287.934
288.189
287.964
288.559
288.064
288.008
288.238
287.93
287.926
287.927
287.928
288.075
288.016
288.247
287.931
287.926
287.927
287.928
300.137
287.946
289.884
287.937
288.963
288.065
287.927
1590.94
1427.97
1640.09
1340.45
305.934
287.927
288.798
288.024
1483.95
1427.45
1431.25
1554.05
1420.39
1372.6
1312.85
1536.99
1659.15
1634.68
1195.02
1367.79
1173.02
864.794
1536.91
1458.3
1620.12
687.279
1147.15
1001.22
523.435
786.426
297.942
668.786
293.234
557.674
454.311
290.419
1611.41
830.757
1254.88
751.025
300.282
443.657
362.999
360.405
291.754
516.041
354.125
288.095
303.655
288.723
296.535
288.805
355.374
319.514
287.963
291.308
288.305
298.214
288.046
287.944
287.935
289.713
288.731
288.035
294.497
287.963
289.734
287.928
288.001
287.947
287.926
288.127
287.933
287.928
287.926
287.953
287.934
287.926
289.559
287.931
288.315
287.927
287.999
287.943
287.926
288
288.093
288.054
287.928
287.927
287.928
287.927
288.009
288.073
288.063
287.928
287.927
287.928
287.927
288.076
288.018
288.066
287.928
287.927
287.927
287.928
288.101
288.012
288.06
287.928
287.928
287.929
287.927
288.244
288.083
288.04
287.93
287.932
287.928
287.926
288.036
288.044
296.579
288.195
287.926
287.93
287.93
288.02
288.237
288.089
287.928
287.927
287.929
287.927
288.063
288.221
297.906
288.054
287.926
287.93
287.928
287.984
287.946
289.741
287.996
287.926
287.927
287.928
288.034
288.08
296.696
288.229
287.926
287.932
287.93
288.362
288.251
312.175
288.349
287.926
287.934
287.932
288.017
288.07
291.858
287.964
287.926
287.927
287.927
287.973
287.928
287.935
287.926
287.926
287.926
287.926
288.131
287.93
288.106
287.928
287.926
287.926
287.929
288.258
288.049
288.098
287.928
287.928
287.927
287.929
287.937
287.963
287.982
287.927
287.926
287.926
287.926
287.96
288.064
288.005
287.929
287.927
287.927
287.926
287.987
287.979
287.944
287.928
287.926
287.926
287.926
287.945
287.929
287.95
287.926
287.926
287.926
287.926
287.926
287.926
287.926
287.926
287.926
287.926
287.926
287.926
287.926
287.926
287.926
287.926
287.926
287.926
287.958
287.937
287.98
287.927
287.926
287.926
287.926
287.934
287.932
288.392
287.961
287.926
287.926
287.926
288.101
287.928
287.926
287.936
287.926
287.926
287.926
287.932
287.953
288.23
287.929
287.926
287.926
287.926
287.931
287.926
287.926
287.927
287.926
287.926
287.926
287.928
287.929
287.95
287.926
287.926
287.926
287.926
287.932
287.955
288.297
287.931
287.926
287.926
287.926
287.93
287.926
287.981
287.928
287.926
287.926
287.926
287.944
293.453
288.919
287.935
287.926
287.926
287.968
287.931
288.108
288.161
287.929
287.926
287.926
287.928
288.314
287.927
288.024
287.929
287.926
287.926
287.94
287.956
287.926
287.96
287.927
287.926
287.926
287.927
287.96
287.926
287.955
287.927
287.926
287.926
287.927
287.962
287.934
287.934
287.926
287.926
287.926
287.926
287.958
287.935
287.934
287.926
287.926
287.926
287.926
287.927
287.926
287.927
287.926
287.927
287.927
287.926
287.928
287.926
287.982
287.932
287.926
287.926
287.926
287.937
287.927
287.926
287.926
287.926
287.926
287.926
287.928
287.943
288.014
287.927
287.926
287.926
287.926
287.928
287.926
287.94
287.926
287.926
287.926
287.926
287.978
287.958
287.939
287.927
287.926
287.926
287.926
287.94
287.926
287.929
287.926
287.926
287.926
287.926
287.926
287.926
287.926
287.926
287.926
287.926
287.926
287.926
287.926
287.926
287.926
287.926
287.926
287.926
287.926
287.926
287.926
287.927
287.926
287.926
287.926
287.927
287.926
287.927
287.926
287.926
287.926
287.926
287.926
287.926
287.926
287.926
287.926
287.926
287.926
287.926
287.926
287.926
287.926
287.926
287.926
287.926
287.926
287.926
287.926
287.926
287.926
287.926
287.926
287.926
287.926
287.926
287.926
287.926
287.926
287.926
287.926
287.926
287.926
287.926
287.926
287.926
287.926
287.926
287.926
287.926
287.926
287.926
287.95
287.936
287.926
287.926
287.926
287.926
287.926
287.926
287.926
287.926
287.926
287.929
287.926
287.926
287.945
287.928
287.926
287.926
287.93
287.926
287.927
287.926
287.926
287.926
287.926
1194.02
836.891
1668.05
302.234
1354.17
755.414
1732.18
1652.22
249.3
318.258
257.541
391.341
420.698
600.107
558.767
396.62
379.298
550.852
287.283
519.421
727.548
989.973
794.164
458.226
491.15
921.634
1284.87
1314.72
876.27
1530.54
1392.83
1556.56
788.988
844.628
1112.16
1066.15
964.049
597.923
826.908
1056.97
1601.14
1415.71
1292.23
1272.63
1496.62
1630.82
1732.16
1006.13
1244.98
1459.86
1676.79
1694.2
1680.7
1412.9
1646.71
1664.21
1384.46
1750.69
1536.04
1670.89
1507.23
1811.68
1724.61
1673.89
1278.77
323.042
961.939
194.675
194.007
818.394
196.067
886.695
1107.99
208.78
218.134
197.942
190.731
186.461
206.378
199.94
198.514
204.899
197.79
189.07
196.532
203.096
201.926
196.907
192.714
205.673
202.931
206.523
199.751
206.386
206.802
200.81
195.296
190.426
195.44
205.088
198.204
201.936
189.13
203.056
198.315
208.221
199.357
201.456
197.02
204.782
385.69
870.055
405.47
409.504
832.516
394.545
873.544
419.605
422.943
859.535
938.148
440.894
408.057
898.962
183.682
186.626
192.031
191.285
190.344
197.406
186.96
191.931
193.887
192.515
189.335
193.129
199.896
189.171
1290.91
268.692
269.061
2237.61
1229.95
2296.26
1255.97
229.233
254.194
219.093
1200.73
1581.96
1212.91
1587.34
212.607
211.982
193.934
190.393
184.605
198.382
190.914
228.014
201.181
198.108
203.648
195.51
207.865
195.074
197.915
200.783
198.388
193.418
194.508
194.949
193.314
195.676
193.609
185.718
191.274
185.506
190.483
191.579
449.687
1094.94
526.581
1084.58
518.572
447.639
956.583
532.862
1166.93
567.596
461.122
1031.29
487.108
980.624
222.654
199.071
218.19
199.072
184.944
188.285
191.742
201.346
227.86
220.272
190.695
196.179
191.187
193.859
287.93
232.958
224.154
398.049
334.024
307.268
442.92
261.34
219.762
221.509
387.415
319.969
302.009
414.277
224.072
227.905
220.807
313.624
313.385
296.27
336.001
222.326
234.646
226.708
315.941
321.455
299.448
341.356
651.104
1268.44
638.217
848.678
1544.11
871.98
1536.06
240.746
301.989
249.002
377.252
616.264
562.859
413.071
653.71
1351.73
696.695
867.845
1616.24
1557.81
928.087
242.842
327.676
304.01
378.779
619.487
564.47
416.522
722.019
641.493
1347.05
1169.68
582.2
779.321
1300.23
737.172
663.781
1178.94
1384.61
590.289
819.966
1314.26
610.83
617.452
1259.74
1133.8
558.978
673.978
1198.43
612.422
626.059
1137.65
1266.16
562.082
678.498
1200.18
1234.45
1939.58
2260.83
1761.05
1894.83
1306.41
1707.25
766.929
1136.32
1392.92
1555.84
1074.68
838.565
1347.45
767.501
1138.34
1557.46
1396.62
1075.55
839.838
1348.36
1212.27
1876.14
1709.18
2242.16
1244.8
1874.19
1688.35
1027.72
852.569
450.798
453.987
1323.51
256.494
976.133
1258.17
212.96
228.312
211.567
752.223
211.504
202.434
223.241
197.354
243.438
210.263
203.625
204.083
213.879
199.376
209.814
199.743
203.906
200.662
201.348
196.32
197.852
197.497
196.238
459.73
921.668
434.855
508.898
993.845
467.362
1074.8
197.723
192.233
192.089
193.015
190.643
193.014
195.089
223.079
215.589
201.843
215.412
202.666
222.476
200.866
199.173
213.485
198.63
200.09
198.658
197.825
198.21
1382.95
1841.36
2727.77
317.054
1688.39
1449.49
2498.92
209.047
228.237
246.549
196.786
284.665
214.214
201.377
206.455
227.624
208.191
199.362
195.22
199.032
194.582
1185.61
666.055
572.251
1063.76
502.843
573.38
1187.67
589.379
1372.88
1106.96
624.902
707.661
527.901
1211.05
262.96
221.338
197.263
194.562
193.318
196.665
211.298
307.027
249.468
215.476
201.328
203.277
193.528
221.54
422.308
269.955
280.854
259.372
268.194
215.858
213.305
578.646
281.41
348.975
269.251
263.264
372.086
217.677
256.347
330.333
424.507
415.592
547.994
749.843
601.612
1659.81
1473.72
800.417
676.993
1504.9
830.192
1337.26
544.635
324.338
459.067
423.229
303.128
226.111
272.279
1574.95
773.594
900.336
1714.22
1040.73
1222.58
1847.01
991.145
494.861
633.258
1081.23
1345.27
1467.72
936.686
1513.4
1395.62
1570.96
841.444
997.277
1261.02
1124.22
1924.26
1726.14
1095.72
1481.79
2261
1800.85
2019.26
2024.32
2374.35
1867.01
2021.3
1442
1639.15
2154.81
1683.74
1850.64
1715.87
1556.53
1695.95
1829.9
1436.47
2257.11
2640.49
2194.96
1889.3
2601.84
2164.69
2358.7
1488.69
288.307
1291.24
563.166
890.772
369.225
565.132
1200.4
1684.23
235.126
323.098
346.22
570.126
227.96
303.152
615.21
431.912
305.125
254.796
510.483
381.313
725.146
919.396
288.102
1620.17
1566.63
288.668
287.928
397.203
287.943
1257.71
754.108
1522.96
707.4
1088.13
1134.71
1545.5
1011.52
970.543
518.656
949.638
1416.77
1452.42
1026.66
1366.72
1046.82
866.262
1236.32
1686.72
1599.58
1391.9
683.651
1350.95
1148.84
1670.86
1536.28
1150.24
1335.63
1453.16
1523.89
1705.63
1492.27
1716.68
1483.35
1689.43
1554.31
1246.02
840.908
1574.36
1567.91
1222.59
796.274
1752.75
1398.28
1737.48
1556.7
1677.73
1693.78
1676.22
1590.88
1459.01
1537.09
1002.08
1147.52
687.651
524.29
1276.79
631.439
294.441
579.675
292.794
1236.31
374.891
289.406
288.149
289.754
412.083
305.714
392.58
302.376
353.49
466.902
290.32
903.728
1122
337.184
306.672
287.963
288.025
288.807
319.633
355.505
296.553
291.326
310.202
289.451
290.029
298.556
298.913
288.231
1446.14
287.926
1693.61
1749.6
1148.11
287.961
1549.84
1512.48
1168.81
683.573
1149.87
890.94
1335.51
1350.56
1535.64
1670.4
287.926
287.926
287.936
990.404
1319.17
705.272
2358.97
198.178
391.516
272.679
1563.97
833.605
797.951
2031.21
1347.01
261.488
1351.6
470.902
1679.05
830.79
492.71
266.132
960.22
1674.1
1483.6
193.33
855.064
186.772
1017.78
1457.32
179.649
437.717
184.22
195.586
183.917
182.892
421.192
201.479
461.823
1006.18
1328.77
1473.58
1659.6
1226.58
850.728
289.721
288.716
288.962
288.091
678.182
1795.67
288.526
288.05
1561.02
289.929
2327.14
1663.95
1162.64
2368.13
288.603
391.911
1264.52
287.979
1563.73
840.471
1673.7
410.441
1224.73
288.008
731.307
1691.66
287.981
1558.76
1759.57
1630.38
1798.83
1769.07
1381.49
360.573
1381.58
287.928
453.443
287.927
300.093
287.926
806.353
522.911
287.927
288.008
287.926
287.957
287.926
287.926
287.926
287.926
287.926
287.926
287.926
287.926
1846.21
956.552
197.767
199.013
191.571
193.05
317.731
297.373
1551.15
607.327
1535.77
1089.86
190.88
209.49
387.212
295.452
216.306
313.541
310.674
222.731
212.823
413.655
551.626
560.147
1254.95
1476.07
1592.05
1211.82
201.383
749.817
980.969
1557.16
195.057
397.738
217.855
198.315
186.011
198.211
181.883
186.977
185.111
558.544
221.384
550.387
194.966
299.503
196.205
327.775
480.628
220.533
644.909
259.314
263.519
961.639
987.482
194.777
205.771
194.768
190.408
201.692
197.773
189.249
202.153
211.764
215.005
210.204
208.941
205.623
208.546
197.098
208.919
192.963
193.861
202.805
203.204
189.335
190.417
195.306
189.127
195.453
205.096
197.95
201.948
215.24
216.542
217.551
214.729
215.154
216.063
213.992
212.372
214.566
212.877
209.585
206.648
214.403
211.948
213.185
216.559
214.334
213.367
214.709
215.163
208.005
212.101
210.34
207.709
209.912
211.587
210.273
205.644
189.904
188.774
182.652
182.353
188.242
187.813
179.191
189.119
185.053
184.415
183.6
190.2
181.864
180.233
184.47
191.3
187.818
191.306
188.214
196.264
186.015
180.238
185.05
184.412
183.575
184.2
189.122
190.204
215.984
211.649
190.062
192.868
210.451
190.111
216.429
191.297
183.685
186.624
192.045
190.371
197.425
186.476
212.507
198.313
184.538
193.892
193.897
211.884
190.319
203.633
198.078
218.072
227.953
195.482
207.854
201.131
197.934
193.424
198.402
200.803
194.493
199.938
193.315
193.596
185.466
194.666
190.472
191.235
185.692
195.669
239.727
247.499
1584.91
1187.18
328.976
1548.4
1127.32
396.566
826.571
386.374
887.893
412.281
434.917
935.454
182.64
181.525
183.211
187.595
184.316
180.884
185.058
181.522
180.918
184.311
182.64
183.198
187.592
183.91
297.41
2355.83
2471.66
1607.93
1357.09
2106.09
1395.46
222.774
193.599
181.181
200.793
209.281
251.045
182.848
193.208
186.558
178.939
195.434
224.191
193.171
179.618
180.711
181.62
180.126
195.653
200.251
182.858
180.683
182.897
251.307
200.867
222.807
181.123
193.257
193.587
246.563
228.329
228.344
196.763
214.237
209.018
284.818
189.67
233.748
191.574
220.518
188.653
212.492
189.669
183.912
194.241
182.215
186.572
209.019
183.833
216.079
248.219
1527.03
1334.15
1696.02
1641.5
1424.15
1276.24
526.566
961.962
1084.31
447.531
449.702
518.423
1094.76
208.188
223.193
199.33
195.208
206.446
194.586
227.519
186.647
209.211
183.885
198.224
182.186
194.255
183.897
191.758
218.231
199.101
188.284
190.747
184.935
199.084
1107.9
461.238
532.792
567.621
1031.83
487.26
1167.15
227.897
193.886
220.326
190.707
201.375
204.941
191.21
200.439
199.891
265.089
230.587
194.069
191.894
229.157
371.33
292.633
324.555
1194.66
1414.75
1418.4
991.953
298.501
272.601
496.726
552.635
275.671
292.665
577.524
414.303
320.016
301.945
268.99
219.711
261.19
221.466
336.321
296.338
313.793
227.961
219.098
220.812
224.097
307.165
333.866
442.561
224.107
268.548
287.802
232.888
316.098
321.5
341.496
222.349
226.75
234.687
229.241
481.928
918.62
425.992
1129.36
558.541
481.886
1017.88
242.389
207.45
184.845
301.157
190.782
234.391
212.664
182.009
184.624
180.287
256.762
211.488
184.58
201.431
1201.42
1052.76
502.562
552.86
990.388
465.079
1132.32
301.612
234.687
190.907
242.568
207.563
195.636
184.865
625.027
1373.35
589.584
1107.61
528.058
1258.61
707.822
349.151
222.532
197.462
205.082
287.18
239.695
192.772
192.789
205.087
263.522
197.468
222.475
287.182
349.051
464.968
1132.62
552.78
502.453
1202.15
607.318
1053.01
203.157
257.87
197.916
456.219
422.284
247.766
259.968
197.751
327.405
230.004
529.16
439.033
251.103
309.47
203.255
306.625
249.383
215.462
201.251
193.54
243.256
318.562
779.379
370.367
318.513
542.884
287.841
644.839
527.923
250.922
309.208
229.795
260.856
326.722
197.572
247.618
455.217
259.808
202.989
257.342
197.766
272.124
608.307
343.839
566.887
225.788
300.8
229.731
363.818
290.114
596.348
548.292
380.416
414.017
248.43
237.602
601.51
415.457
547.777
330.32
317.11
256.302
424.723
237.462
289.511
309.968
379.821
413.273
546.757
594.964
848.463
1543.76
871.904
651.085
1268.13
638.079
1278.49
568.808
680.468
375.725
497.501
391.495
297.609
239.193
616.952
323.317
302.145
563.497
377.646
249.152
240.83
867.349
1615.47
927.482
1290.52
653.478
696.487
1351.47
599.732
391.329
420.684
257.524
302.112
249.283
317.98
620.124
304.179
565.162
379.155
416.854
242.939
254.289
460.147
1001.38
487.087
353.998
704.649
340.697
741.287
239.079
294.762
374.949
390.956
496.977
679.055
567.198
462.531
322.142
216.381
557.351
772.209
428.534
301.285
497.197
271.977
215.588
762.703
413.076
271.893
497.074
1018.31
1100.65
1128.96
1335.65
1344.94
1385.18
1379.05
1302.62
1145.92
569.199
1456.33
892.867
1264.35
675.797
394.496
987.377
487.38
1091.59
562.032
709.085
1231.01
771.49
556.43
428.231
301.009
216.18
321.44
265.879
1371.56
1053.04
756.835
1729.09
1766.41
658.454
307.443
292.629
1348.29
665.398
1516.49
288.015
287.932
1334.38
298.987
916.87
508.68
375.227
717.862
247.583
425.617
487.4
1231.16
709.226
1091.79
562.093
394.432
833.671
374.938
508.215
298.746
717.696
425.462
559.872
916.622
690.464
1398.45
780.887
1586.45
941.479
1089.78
1682.6
280.505
550.863
375.566
753.49
515.773
730.004
995.129
1264.8
892.734
675.838
569.21
1303.7
705.278
1146.43
1222.1
1713.46
1040.19
773.492
1574.73
1449.38
900.269
780.882
1681.37
1397.33
1585.75
941.463
690.506
1318.61
376.396
731.184
516.658
995.796
754.203
392.036
280.851
396.467
990.082
755.804
727.262
519.524
287.236
378.815
911.999
1264.79
816.319
815.058
910.954
432.813
518.475
1232.2
782.332
1271.77
781.187
415.829
829.929
449.536
453.018
926.791
870.611
1278.08
1320.48
851.526
799.746
1319.16
797.204
849.552
451.315
491.225
868.117
924.841
903.328
1009.1
570.515
932.788
1396.93
1306.61
833.277
1126.03
1535.68
1519.23
704.708
1084.22
1283.96
748.084
1304.68
830.271
930.302
468.895
568.792
1006.71
900.426
1294.95
1084.64
1194.79
1397.84
1368.89
1398.05
1407.65
559.505
1018.3
966.535
515.884
946.956
1413.08
1443.98
803.664
1458.18
931.655
1186.03
1518.5
1078.12
1612.46
774.647
1381.73
837.765
1500.69
1048.06
1104.85
1538.3
434.289
1195.29
757.334
1109.88
1500.27
1127.52
698.955
1183.51
1374.26
1545.4
1183.19
959.648
749.834
544.561
1400.15
1386.61
1433.43
1254.36
1278.76
1415.77
1416.05
1624.08
1702.94
1217.04
1703.39
1434.45
1216.81
873.79
955.29
1854.62
1531.66
1752.04
1254.38
2104.44
1679.42
892.023
1347.73
1143.61
678.54
1141.06
1656.18
1525.26
891.559
1141.17
1143.44
1328.87
1347.63
1525.63
1656.8
606.593
1070.64
1302.6
1424.75
987.151
1215.54
1599.55
1355.76
1225.63
859.216
1042.36
1666.91
1382.21
1476.05
665.295
1414.19
949.71
1244.34
1616.24
949.616
1414.13
1500.2
756.766
1109.36
698.691
433.946
797.671
1195.02
839.58
1214.86
1599.66
985.829
605.335
1069.41
1302.1
1042.47
1382.08
1225.48
1666.54
1584.63
1355.81
859.341
1679.49
1753.18
1253.86
1533.06
955.122
1346.69
1856.05
1270.09
1489.75
1004.67
1245.14
1706.87
1614.98
1456.68
287.926
287.926
287.926
288.68
289.559
287.957
288.061
1602.98
1606.62
1550.53
1588.12
1653.62
1240.21
1281.06
1602.78
1282.06
1550.64
1241.67
1588.23
1605.15
1652.55
1912.51
2274.26
1785.24
1916.43
1342.74
1524.91
2025
1534.68
1272.33
1348.45
1470.79
1333.15
1410.54
1385.61
1410.23
1470.5
1332.83
1414.59
1534.5
1385.47
1272.25
287.926
287.926
287.926
288.524
287.957
288.058
287.988
1711.15
1664.11
1581.82
1600.01
1568.54
1272.25
1359.44
1360.5
1678.46
1581.53
1568.54
1273.72
1598
1708.75
1044.94
381.685
1058.88
982.652
349.154
340.464
1006.31
287.926
287.938
371.861
1277.58
288.249
287.926
287.939
310.983
291.681
287.926
288.35
1466.49
287.977
287.926
1679.37
1681.25
1449.13
1523.17
1702.51
1482.26
1706.55
1725.92
1505.22
1619.31
1706.51
1606.55
1481.12
1387.41
1611.58
1648.04
1571.5
1589.42
1628.94
1362.69
1405.18
1185
1787.09
1564.46
1804.59
1591.8
1803.91
1827.69
1659.87
1759.43
1559.37
1768.01
1688.22
1655.22
1385.26
1749.69
1483.03
1749.47
1816.29
1749.77
1483.51
1084.43
1385.76
1559.44
1659.85
1759.27
1653.6
1687.11
1767.17
1192.75
1586.96
1516.13
1765.94
1777.25
1779.82
1766.4
1281
1585.17
1728.69
1770.82
1548.41
1752.65
1641.58
1241.99
1557.27
786.151
1209.67
838.758
1571.43
1557.11
1752.8
1642.45
1771.16
1280.91
1729.27
1585.31
1630.43
350.331
921.163
1007.29
921.263
308.022
324.579
803.791
1192.24
1516.03
1780.57
1767.98
1558.93
1587.14
1778.25
1556.4
1677.17
1676
1398.37
1737.13
1752.16
1199.43
1569.15
1725.07
1700.24
1505.33
1749.04
1764.8
1283.9
1967.68
2505.83
2077.55
2327.75
1948.39
2049
1635.15
1543.32
1641.85
1674.15
1143.16
1720.51
1370.76
1718.91
287.926
287.926
287.93
288.441
287.926
332.365
320.117
1947.98
2047.97
1635.15
2356.97
1966.38
2504.77
2075.89
1688.42
1409.71
1561.83
1694.65
1767.13
1504.45
1661.63
1674.74
1719.72
1543.78
1642.82
1660.19
1721.73
1144.93
1471.64
1218.15
1683.56
1732.33
1561.03
1685.95
1733.96
1603.78
1105.75
1602.01
769.029
1603.75
1313.1
1105.81
295.649
650.879
616.311
842.59
316.626
311.939
877.779
1416.53
1514.59
490.51
665.256
955.054
1120.94
1573.19
1993.94
2449.5
2034.57
2406.04
2001.01
1773.45
2211.04
1120.97
1514.86
1573.14
1417.12
1592.13
955.231
490.909
287.926
287.926
287.926
287.926
287.926
288.164
287.933
1070.34
384.713
1000.58
1689.51
1209.14
1580.5
1126.46
1714.13
1176.22
1601.4
1173.49
1261.87
441.472
456.945
1052.36
1099.81
429.272
1593.08
1639.76
1175.43
1230.28
1606.94
1653.83
1284.07
1222.37
479.929
1282.18
513.338
289.965
429.581
537.207
756.515
296.224
303.936
630.078
303.922
537.134
756.44
296.22
630.005
429.546
289.964
767.101
518.453
1512.42
864.295
601.344
308.178
301.233
1046.42
1779.86
1814.67
1680.71
391.897
1291.44
853.752
1814.32
1550.83
1796.91
1676.09
402.648
1312.76
822.95
1484.05
1812.1
1759.82
1779.14
1339.39
615.302
1394.2
1672.9
1247.73
1003.01
1001.69
1246.15
337.269
452.781
1811.49
1795.38
1483.27
1337.31
1777.7
613.55
1391.71
1767.82
1685.84
1201.84
1437.62
1799.27
497.536
1201.1
1482.06
1752.86
738.48
1611.29
361.555
1190.39
1051.01
1516.8
787.162
868.675
535.692
606.809
308.612
302.373
371.863
396.823
1275.74
631.381
572.137
294.429
292.596
289.329
410.045
301.798
387.667
305.544
288.147
288.095
1180.14
344.195
687.048
1334
296.209
728.89
397.217
1766.37
2495.32
2076.88
2367.16
1457.09
1764.74
789.789
1023.6
382.071
313.387
1661.66
1583.36
1181.49
915.187
1754.09
362.369
1193.41
1483.66
1769.94
1613.32
740.987
1461.15
906.176
352.23
1699.04
1163.19
1783.03
1611.76
729.858
296.243
397.37
1181.13
1561.31
687.401
344.417
572.287
1226.64
1275.92
396.854
631.599
294.435
292.601
1236.84
580.398
375.031
397.522
632.629
294.477
292.81
628.163
690.949
1520.54
1320.04
290.735
423.32
449.02
609.077
2161.47
1526.5
2509.02
2064.52
2316.63
1700.02
450.042
1095.48
851.82
341.095
303.345
290.05
288.524
1095.06
303.273
332.275
288.52
340.709
449.538
290.041
338.213
288.042
298.879
290.759
471.826
338.225
288.526
416.641
297.461
290.114
601.19
1491.69
1260.16
397.488
287.955
287.957
289.707
289.021
288.888
287.942
287.945
287.953
289.446
289.675
288.989
288.819
287.944
287.941
288.242
290.681
295.691
314.343
348.871
287.956
288.015
287.956
288.715
295.698
348.862
314.364
288.242
290.69
289.195
287.938
287.948
288.303
288.611
287.937
287.932
347.894
355.33
290.32
287.96
288.807
287.957
288.886
926.372
288.35
290.217
290.214
435.862
313.346
315.855
290.57
287.987
290.652
439.8
426.933
291.423
291.354
291.565
288.02
292.207
462.158
491.338
292.629
293.562
628.414
288.057
297.566
291.988
526.665
294.789
452.487
290.869
288.012
290.194
1194.51
444.805
294.922
485.235
662.251
506.042
505.207
292.699
298.457
288.102
298.5
629.267
1383.07
297.638
292.03
294.813
528.648
288.058
346.208
288.508
290.573
288.51
346.044
299.174
287.952
291.027
288.027
297.672
288.782
287.935
288.253
319.88
287.936
287.945
289.015
288.233
288.525
287.936
287.931
337.487
289.526
335.194
287.947
288.612
288.568
287.95
287.932
287.926
287.926
287.935
287.926
287.926
287.926
290.489
288.53
287.938
432.978
329.962
288.744
291.373
288.526
295.731
287.938
287.932
288.006
289.111
287.927
288.224
287.948
289.328
289.349
383.301
835.16
306.073
288.395
288.037
288.327
287.932
287.928
287.933
287.927
288.031
288.382
288.3
287.928
287.933
287.932
287.927
288.324
288.529
322.301
288.439
287.932
288.258
287.936
287.973
288.001
293.971
288.19
287.928
288.094
287.929
288.537
312.642
322.817
288.449
287.933
288.284
287.936
292.078
288.003
294.151
288.196
287.928
287.93
288.109
288.791
288.255
287.935
524.131
297.773
291.051
288.028
292.467
791.36
433.621
287.968
294.734
289.445
288.098
329.437
289.319
288.25
287.945
288.049
288.47
287.93
301.009
288.377
306.345
288.149
287.93
287.932
288.08
289.33
287.927
288
287.926
287.979
287.943
287.938
288.066
335.261
297.067
1390.67
744.041
356.132
300.611
287.927
287.938
288.006
289.113
295.745
288.008
288.529
288.062
287.995
288.195
287.93
287.926
287.927
287.928
288.962
287.943
289.331
288
287.926
287.927
287.979
288.382
301.634
306.473
288.15
287.93
288.088
287.932
289.006
287.943
289.341
288.001
287.926
287.981
287.927
2443.64
815.046
1813.05
813.984
1647.23
288.259
289.319
289.168
287.928
1591.49
1026.84
1640.24
288.113
288.329
287.929
287.928
1554.28
1129.75
408.38
929.538
399.042
340.433
344.449
1128.92
936.028
2558.64
1681.51
856.466
786.117
1282.03
295.647
313.627
1278.49
288.095
288.102
955.411
920.063
938.785
1308.77
1308.25
1322.34
1297.92
311.655
1684.44
1482.56
1741.69
1010.57
1731.82
559.23
957.063
918.808
935.979
1305.59
1305.54
1296.68
1315.59
1101.1
1017.85
993.338
1338.86
1394.05
1353.12
1382
1100.71
1018.37
991.986
1335.77
1384.97
1379.13
1344.91
1740.95
293.734
1703.71
309.011
2494.62
315.914
294.461
1658.57
1603.47
290.25
574.193
1586.03
295.488
288.473
564.851
1026.11
518.327
970.041
948.688
1416.17
1451.7
515.658
1018.28
966.356
1005.75
946.283
1412.88
1444.13
1255.05
1440.28
1420.41
1426
1419.27
1404.24
1399.15
1254.3
1433.12
1418.3
1415.5
1416.08
1400.29
1386.53
1069.11
1084.2
406.728
396.569
1075.04
398.151
1074.16
1069.75
407.585
391.064
1069.61
399.098
1076.11
1063.7
741.356
974.547
230.619
229.719
1535.9
323.085
1545.44
196.886
357.005
191.894
199.907
194.048
200.429
229.16
259.332
265.128
235.102
196
205.184
202.485
230.969
261.282
270.006
290.426
297.603
376.993
1553.69
1440.16
1188.72
1017.58
354.108
704.716
340.749
460.202
1001.25
487.146
961.586
317.627
300.761
225.783
343.864
608.24
566.857
363.8
303.083
235.119
227.938
346.206
615.103
569.977
369.264
741.279
704.632
342.017
461.808
1005.03
962.804
491.014
993.22
1100.88
1129.37
1338.76
1352.83
1381.93
1393.83
1080.31
1298.41
1195.55
1419.61
1382.38
1414.7
1435.33
704.718
1283.9
1126.12
1519.33
1084.23
748.05
1254.91
707.36
1522.92
1134.53
1291.29
1087.92
1257.66
754.173
1420.42
1404.44
1254.93
1281.75
1419.37
1425.91
1399.23
371.288
982.602
1044.87