/*--------------------------------*- C++ -*----------------------------------*\
  =========                 |
  \\      /  F ield         | OpenFOAM: The Open Source CFD Toolbox
   \\    /   O peration     | Website:  https://openfoam.org
    \\  /    A nd           | Version:  9
     \\/     M anipulation  |
\*---------------------------------------------------------------------------*/
FoamFile
{
    format      ascii;
    class       volScalarField;
    location    "0.0002";
    object      impulse;
}
// * * * * * * * * * * * * * * * * * * * * * * * * * * * * * * * * * * * * * //

dimensions      [1 -1 -1 0 0 0 0];

internalField   nonuniform List<scalar> 
2204
(
502.542
354.991
5046.63
512.995
193.507
51.5451
306.55
176.814
452.113
463.293
845.623
326.873
494.7
691.362
333.775
527.536
1502.73
1229.16
1341.4
739.989
682.585
933.232
428.062
495.389
736.839
359.549
366.567
456.647
644.059
357.699
616.546
292.669
260.453
448.949
407.038
262.941
1481.84
3290.27
3075.46
3735.86
1882.93
1997.08
2203.45
1006.17
2141.19
894.551
1216.95
734.905
1368.8
1638.85
1002.4
1850.32
871.372
1103.14
1336.53
715.313
1562.12
906.727
2025.51
941.54
835.342
1337.38
1414.29
683.96
332.126
252.756
165.352
274.532
362.793
246.787
248.349
306.712
259.61
158.751
222.38
262.139
311.416
220.495
419.025
417.674
477.173
277.445
371.216
576.081
322.795
300.883
163.656
111.484
113.23
248.001
190.518
222.77
7998.01
819.54
228.371
0.0135793
104.517
6.94786
180.903
196.469
509.333
1436.52
503.014
305.892
184.446
362.354
250.959
297.254
335.624
62.6294
940.321
327.409
301.223
96.1293
5.08325
128.646
250.912
130.142
205.879
0.0345418
6.23464
22.8638
192.7
73.6715
0.00879386
5.33402e-06
2.15234
0.0020806
246.747
239.222
1.00554
191.912
234.665
7.12486
3.41517
90.0574
241.057
114.931
3.11717
0.00524389
1.95366
0.00492217
929.902
1435.41
7375.89
1593.65
509.325
1857.63
1229.61
394.291
529.095
592.434
893.302
427.694
529.995
592.189
563.307
972.789
522.536
360.035
484.69
401.832
789.589
871.134
3959.53
929.673
896.807
1526.53
694.964
1280.82
511.386
883.734
246.278
357.206
431.423
816.25
311.457
368.816
1345.63
606.362
596.55
514.59
422.922
574.327
136.331
206.087
212.819
126.19
200.37
136.945
139.354
3192.33
3788.09
11414.9
6054.53
3024.23
8745.44
5111.82
1954.07
2325.08
1022.08
1512.41
1508.87
1117.93
2402.91
3117.77
8564.76
4759.32
3264.35
8872.37
2980.17
4641.04
2129.42
3410.09
1088.39
2032.99
1574.6
4037.34
1119.11
1127.74
556.249
691.162
711.067
1087.31
777.12
791.499
2108.83
1145.51
3532.94
1885.9
3851.24
1701.29
1176.65
1920.67
1030.3
1362.38
2081.6
1054.58
1636.38
2192.62
573.772
724.747
775.792
990.099
791.94
547.413
697.958
1446.82
2790.79
3677.31
2518.09
1970.35
2098.91
1803.84
413.684
496.588
620.428
860.29
658.252
389.943
523.883
637.904
1364.84
857.859
869.646
622.893
895.042
902.867
522.237
543.656
380.572
346.856
689.049
486.843
339.999
116.011
168.852
213.208
115.257
206.963
91.6028
134.518
5.65546
0.112547
9.2764e-06
211.526
17.9124
0.584109
7.52787e-05
575.266
515.992
664.654
441.978
430.362
549.096
743.462
384.784
261.816
219.364
220.766
314.684
308.039
269.769
291.397
278.684
412.736
247.429
374.382
320.544
233.155
146.213
221.363
229.605
143.157
218.197
147.685
140.294
151.459
158.72
249.44
240.426
141.135
242.151
160.16
145.13
223.567
209.771
135.264
228.571
128.599
149.518
155.848
160.546
240.465
238.069
156.282
229.393
159.797
415.901
360.889
242.478
311.987
338.018
425.029
295.663
305.276
382.033
238.414
290.945
324.252
380.277
238.489
64.169
198.096
175.084
117.348
169.74
105.149
84.8547
155.987
247.421
128.351
235.746
152.575
237.241
143.007
9.01348
0.25249
0.00155586
240.942
1.02318
22.8962
0.000193703
302.496
321.202
431.709
266.446
333.088
251.819
420.13
124.621
233.939
232.238
136.868
227.324
144.401
109.441
321.563
443.933
271.44
326.389
350.574
259.995
428.41
68.9616
10.5398
57.1365
8.94891
68.7431
64.9395
10.4909
113.084
143.643
201.514
41.0156
219.089
96.5944
50.7361
71.872
141.354
118.147
15.7098
175.941
50.7906
26.4983
201.834
155.797
107.436
149.012
103.88
47.3738
50.3839
75.2267
64.1841
6.23364
12.1183
61.1434
77.6688
11.2825
238.236
87.664
193.324
182.014
259.405
180.231
171.325
51.764
9.59471
56.1725
2.62873
40.2597
69.6252
4.4198
66.1931
3.49739
47.1968
7.76558
63.6043
47.5104
8.59866
29.2255
40.4017
0.639199
4.9179
19.425
51.2229
1.29697
30.9649
62.8314
179.389
23.1401
131.375
67.9721
6.56191
120.532
75.4981
205.996
143.024
98.4306
39.9753
24.0368
249.565
154.705
175.778
80.0922
262.268
181.548
168.744
51.6327
1.74059
57.2835
9.60866
36.8918
72.0136
4.03659
112.811
32.1745
221.414
144.522
91.32
227.066
47.7933
22.816
48.6702
134.129
9.23999
111.686
3.29999
39.7067
66.2843
3.7049
28.8481
2.68533
50.5579
43.8279
7.79496
77.6606
129.038
188.072
19.9832
192.398
29.4759
61.4136
30.3628
37.3469
4.58178
0.504853
52.0455
19.7848
1.27029
6.77875
35.8743
0.753289
0.342488
22.658
14.3591
0.10276
241.175
186.645
181.613
78.3776
128.878
79.1186
132.926
165.741
237.36
177.428
69.2948
97.0525
52.9168
120.261
23.5392
0.0590492
2.67153
0.428304
17.0657
0.755485
4.24721
15.2584
78.187
72.5478
8.8685
0.463703
10.1508
0.361391
8.94658
0.390989
0.0700027
0.012371
4.61771
0.967109
0.159522
0.542764
20.8185
19.9097
3.14321
0.0455557
3.53137
0.0396102
19.3291
100.505
92.7982
18.8411
1.00651
21.2339
0.750446
22.0036
0.21677
1.32274
0.0438231
12.5917
0.616386
3.52279
3.4417
19.9201
67.4488
6.66497
0.0388673
0.472995
0.64426
1.23443
0.748334
0.00107437
0.114261
7.37343
0.0140266
0.0913488
9.64444
0.462363
0.0123849
0.0648144
1.08307
5.16047
0.161265
44.0582
11.4645
63.4454
6.1739
0.0721708
2.40561
0.217219
8.10234
0.357854
16.3436
2.07168
0.00656121
0.649625
0.0235606
70.7044
15.5067
86.2216
15.2088
0.200406
9.07918
0.493857
0.691354
0.160443
0.000493773
0.0314336
0.0403534
2.4315
0.00812537
10.7554
1.14401
28.9815
0.197532
10.8117
0.192553
31.052
7.99966
14.0771
0.0454971
0.705312
3.98343
0.122909
24.3877
0.146599
5.85245e-05
0.00576468
0.00217983
0.176802
0.00448205
0.00178865
0.570164
0.000143713
0.00802268
0.0141008
0.689994
0.00650073
0.0105269
0.0921609
0.000428482
8.25734e-05
6.33106e-05
0.00529007
0.00108904
0.0069564
0.0864559
0.000759213
0.000271658
3.19382e-05
0.025208
0.00255912
0.000999828
3.10699e-05
0.00416602
8.90461e-05
0.372931
0.00248656
0.150054
0.00668842
17.8882
7.26656
3.49468e-05
1.10047e-07
4.82753e-08
1.21178e-08
265.502
23.554
388.167
101.425
11.3864
0.0102246
113.025
9.11626
229.551
387.228
301.587
299.403
306.137
240.95
295.561
119.701
213.529
83.8737
44.9284
203.75
149.309
24.4809
390.706
0.274272
3.01508e-07
0.178613
5.92596
0.0933301
3.97814e-07
115.507
392.139
70.6381
130.708
18.4398
163.075
8.82532
1.7316e-07
1.64331e-07
213.543
73.4766
15.6328
0.323269
0.000790855
4.4279e-05
253.431
308.007
382.404
297.162
245.882
317.496
298.43
50.5292
3.46867e-05
0.00338138
373.109
4.98653
115.764
0.0780394
0.000745578
0.136609
38.1035
237.476
0.611183
21.5303
0.000137407
0.00986753
44.8141
0.00310623
0.000313465
1.44122e-06
0.000265759
1.15958e-06
263.828
383.779
301.291
354.626
337.581
265.946
298.723
183.143
218.449
61.4494
158.041
164.266
248.126
79.0655
0.000114545
0.679506
0.0196674
4.97022e-07
7.12482e-08
0.000109865
4.93792e-07
196.552
150.957
96.8653
125.108
68.1215
42.1795
24.2488
194.744
284.6
172.393
68.2126
271.516
184.511
85.0163
24.0283
0.13735
0.550959
0.000108194
1.09769e-05
1.30667e-06
4.70467e-07
71.0481
124.664
72.2808
233.297
174.673
175.905
223.204
267.862
310.38
335.546
224.255
264.773
136.819
183.772
181.393
149.095
377.253
193.133
293.844
259.36
89.2031
41.8623
101.394
63.5618
173.619
194.982
150.809
216.539
215.569
186.192
163.797
117.195
72.5423
48.9607
84.2201
2.06704e-06
0.177465
0.650142
4.67156e-07
4.74904e-05
9.04363e-08
6.77109e-07
55.3386
216.855
157.384
64.4058
29.6081
122.581
185.67
35.8864
52.6696
1.82801
10.6225
4.08483
0.192672
0.0864935
1.03294e-08
1.6992e-05
1.94994e-07
0.00260348
1.55561e-07
20.4001
3.79582e-05
15.5953
81.2413
0.72245
0.439503
12.2596
92.0359
17.8181
142.64
27.6599
6.867
75.7113
31.0211
7.30881
0.743948
250.98
34.4133
52.8005
131.62
166.923
59.5935
7.01224
0.566124
6.72142
43.8477
68.9525
84.1571
163.004
20.7663
16.8422
0.245485
0.680972
92.1951
10.8218
71.2024
18.5891
72.165
7.86627
50.4786
0.334902
7.72401
3.05449
0.107724
99.5318
11.9113
76.705
0.84547
19.3014
10.0989
0.282654
58.0516
6.78935
2.36573
11.8877
4.67463
0.211388
0.0894855
0
0
0
0
0
0
5.66072e-07
0.0570859
0.000703663
1.53091e-06
5.82357e-08
2.38561e-07
6.67685e-09
7.23672
2.79093
0.441829
65.4919
44.3531
120.053
17.0039
63.3521
1.87237
0.0344858
0.17397
6.52468
2.67309
36.9696
1.31432e-08
5.15449e-05
8.85609e-07
2.3649e-07
2.03897e-05
0.220596
4.23298
15.3951
0.0820042
6.37518
0.0258048
2.27103
0.642424
0.00641894
83.718
203.754
154.11
48.8969
13.9889
5.16467
80.3998
1.5048
30.5011
14.8676
135.773
95.0233
34.3082
60.2273
68.0624
152.087
104.53
18.0404
6.65625
1.92898
37.915
10.6386
2.67135
23.4205
0.71481
0.175147
0.0316188
0.00718376
22.606
0.131999
8.47979
3.23781
0.157456
0.0354543
10.2519
8.94068
27.3402
9.29705
0.152063
0.903518
0.157425
0.738751
5.18913
6.10313
1.21151
0.414359
0.0695777
0.0122332
0.0777394
2.36766
17.56
6.60507
0.0956163
0.0999322
0.0249479
0.40568
11.0146
9.65725
70.4836
10.7447
0.0042467
0.268361
0.291338
3.51692
1.52557
21.4964
0.468684
0.000811513
0.0326429
0.0137692
0.0814739
0.0100405
1.04181
0.0872135
6.00447e-05
0.00637734
0.000839917
1.6107
0.00133116
0.0283896
2.36556
33.8948
6.16919
0.127735
1.43466
3.45989
0.434694
0.0320882
0.0902464
0.0129482
0.000787145
0.2025
0.000146181
0.00306424
0.243172
0.0102999
11.1295
0.902812
0.00551455
0.0861014
2.17899
0.00182613
0.0235338
0.000897115
5.80742e-05
6.71318
2.55079
36.5089
1.87593
0.00144456
0.0316636
0.0887114
4.21903e-05
3.05187e-08
0.000171149
3.97247e-08
2.37958e-08
1.64438e-09
1.33793e-09
0.00378374
0.00127856
0.112631
0.0319587
1.09945e-05
0.0010806
0.000329524
0.000792334
0.179224
0.0431713
3.75984
0.327717
0.0775218
10.7053
0.390911
0.000169375
0.0823369
0.0152981
0.00357837
0.018033
1.63695
0.00580924
0.0108307
0.536674
0.167743
3.75007e-05
0.00168
0.00326006
0.00551479
0.238978
7.27879e-05
0.00013683
0.472598
0.00587161
0.00290143
0.023389
0.000732314
0.0560936
0.00241677
1.40912e-05
0.00108888
3.11185e-05
0.43397
0.0105564
0.00684517
0.00646988
9.85391e-05
0.00506442
0.000149208
12.225
0.227122
0.355759
0.0821396
0.0510106
0.000862765
0.00382601
1.50526e-09
1.43802e-08
6.43068e-06
1.63221e-09
1.68771e-08
2.15969e-10
4.60207e-10
3.76725e-05
0.00899356
0.000116657
0.199561
0.500053
0.00568412
0.00210327
0.0249169
0.000697479
0.0599038
0.00237862
9.53663e-06
0.000913676
2.75851e-05
0.000398426
4.84054e-06
0.00205957
0.0917274
2.5256e-05
0.00105101
0.00021973
0.427907
0.00280425
0.00873547
0.00467271
3.20644e-05
0.00137776
0.000111695
0.103296
0.030018
0.00445252
0.00104145
0.00030311
0.00633743
4.73514e-05
0.013947
1.05715
0.283707
0.00997317
0.00264441
0.000133465
0.000530506
853.2
467.539
329.947
142.94
316.026
213.057
94.8965
7.24446
463.1
708.417
592.631
611.609
564.639
456.221
549.829
366.42
429.237
317.882
259.871
428.432
349.252
258.999
430.422
571.981
408.527
420.554
494.952
365.676
485.801
373.968
434.219
328.604
279.701
359.531
281.179
430.721
345.074
342.943
286.389
134.759
399.052
275.1
215.066
291.564
203.128
186.983
73.1764
281.532
191.18
171.135
194.084
347.525
317.977
286.827
269.302
235.586
394.196
61.5296
254.659
53.4845
35.9018
168.747
136.448
118.9
0.0085622
2.5032e-05
0.00203123
4.77237e-06
0.000381223
8.36781e-05
1.22878e-06
0.000478134
0.00262845
0.0323667
3.68838e-05
0.00204415
0.000361333
6.65502e-06
3.98964e-10
2.70906e-07
3.73044e-09
3.10299e-09
3.83008e-10
3.08172e-10
2.53143e-10
0.0176204
7.66627e-06
1.49176e-05
3.71348e-06
0.000167477
0.000334591
0.000800995
0.00418398
7.30004e-06
2.63646e-06
1.31065e-06
0.000283375
0.000129859
4.00741e-05
1.15725e-06
0.00193656
3.54236e-05
0.205953
5.58786e-05
0.00315544
0.00321645
0.00175634
0.00956499
9.77518e-05
2.10408e-05
0.00175058
2.17682e-05
0.00824324
0.00105655
0.00101824
4.99199e-05
3.06076e-06
1.19459e-05
0.000259782
0.00442181
0.00435362
8.42889e-06
0.000757155
0.000132015
8.41339e-06
1.67419e-06
0.000783436
0.000347676
4.08737e-06
0.0259608
0.00133061
0.000257525
1.31712e-05
4.01538e-07
0.136182
2.50665e-05
0.00114293
4.86607e-05
0.00255893
2.47061e-05
1.00729e-06
0.00329023
3.72861e-05
5.68998e-05
0.00330593
0.00209877
3.62188e-05
1.19996e-06
0.00210205
2.03352e-06
3.72146e-05
2.24961e-07
6.33188e-07
2.28036e-05
1.4558e-06
4.11621e-05
0.00262392
0.00011754
2.90813e-05
2.00524e-07
6.95478e-07
1.52416e-06
0.00392808
2.96779e-06
0.000279192
1.53566e-06
0.000122861
7.3813e-06
4.50816e-07
0.0147915
1.40099e-05
0.000298386
4.03494e-06
0.000140604
7.41274e-06
6.88767e-07
8.20827e-06
0.00168147
0.000407847
4.14744e-06
6.41241e-07
3.61383e-07
1.61419e-05
1.94869e-05
3.14193e-06
0.000263005
9.64025e-06
2.87851e-07
3.82225e-07
8.83116e-07
1.18634e-05
0.0044477
0.00101449
1.22206e-05
1.23155e-06
6.82281e-07
5.48403e-05
4.87614e-06
0.00213557
0.000481287
9.05289e-06
7.25359e-07
3.918e-07
4.02206e-05
0.000100941
1.64586e-06
2.76086e-06
1.83131e-06
2.86263e-06
3.08653e-07
2.87909e-07
8.84153e-07
0.000137888
2.22371e-06
8.61642e-07
2.21506e-06
3.70924e-07
3.4319e-07
2.26728e-06
1.46143e-06
3.05046e-06
7.22923e-05
1.83188e-06
3.55523e-05
2.26618e-06
7.60659e-07
8.0232e-07
2.0793e-06
6.47179e-05
9.81464e-07
2.2326e-05
1.46463e-06
7.76302e-05
2.5145e-06
1.972e-06
1.30967e-06
6.03906e-05
2.15782e-06
3.12327e-06
5.21734e-05
8.07272e-07
6.1226e-07
5.16087e-07
1.03198e-06
1.39961e-05
1.76806e-06
1.06719e-05
3.38268e-06
1.04391e-06
4.33527e-07
5.28044e-07
6.43137e-05
8.95128e-07
9.74954e-05
8.54802e-07
2.58138e-05
1.83388e-06
6.69509e-07
6.22163e-07
5.49178e-06
3.89602e-07
3.51144e-05
7.51782e-07
8.29605e-07
4.05335e-07
3.21942e-07
3.12276e-07
8.22299e-07
1.05202e-06
3.56291e-05
7.53101e-07
3.89124e-07
3.91504e-07
3.94855e-07
4.48284e-07
4.7028e-07
7.01206e-07
5.67986e-07
1.09209e-05
2.55368e-06
4.71505e-07
1.06966e-06
8.85555e-07
2.20471e-05
4.24902e-06
6.56468e-07
6.9823e-07
7.21637e-07
3.73259e-07
2.3784e-07
9.35518e-06
3.71585e-07
1.54432e-07
1.58339e-07
1.60603e-07
2.32417e-07
1.75824e-05
5.88381e-07
3.99435e-07
2.2484e-07
2.29809e-07
2.32298e-07
4.28128e-07
1.17006e-06
4.05619e-05
8.9478e-07
4.20303e-07
4.29288e-07
4.283e-07
4.20238e-07
6.17393e-07
1.98193e-05
5.93752e-07
2.33109e-07
2.38387e-07
2.40932e-07
3.9938e-06
1.30893e-07
1.31299e-07
8.22587e-08
8.44229e-08
8.36742e-08
7.9419e-08
0
0
0
0
0
0
0
0
0
0
0
0
0
0
0
0
0
0
0
0
0
0
0
0
0
0
0
0
0
0
0
0
0
0
0
0
0
0
0
0
0
0
0
0
0
0
0
0
0
0
0
0
0
0
0
0
0
0
0
0
0
0
0
0
0
0
0
0
0
0
0
0
0
0
0
0
0
0
0
0
0
0
0
0
0
0
0
0
0
0
0
0
0
0
0
0
0
0
0
0
0
0
0
0
0
0
0
0
0
0
0
0
0
0
0
0
0
0
0
0
0
0
0
0
0
0
0
0
0
0
0
0
0
0
0
0
0
0
0
0
0
0
0
0
0
0
0
0
0
0
0
0
0
0
0
0
0
0
0
0
0
0
0
0
0
0
0
0
0
0
0
0
0
0
0
0
0
0
0
0
0
0
0
0
0
0
0
0
0
0
0
0
0
0
0
0
0
0
0
0
0
0
0
0
0
0
0
0
0
0
0
0
0
0
0
0
0
0
0
0
0
0
0
0
0
0
0
0
0
0
0
0
0
0
0
0
0
0
0
0
0
0
0
0
0
0
0
0
0
0
0
0
0
0
0
0
0
0
0
0
0
0
0
0
0
0
0
0
0
0
0
0
0
0
0
0
0
0
0
0
0
0
0
0
0
0
0
0
0
0
0
0
0
0
0
0
0
0
0
0
0
0
0
0
0
0
0
0
0
0
0
0
0
0
0
0
0
0
0
0
0
0
0
0
0
0
0
0
0
0
0
0
0
0
0
0
0
0
0
0
0
0
0
0
0
0
0
0
0
0
0
0
0
0
0
0
0
0
0
0
0
0
0
0
0
0
0
0
0
0
0
0
0
0
0
0
0
0
0
0
0
0
0
0
0
0
0
0
0
0
0
0
0
0
0
0
0
0
0
0
0
0
0
0
0
0
0
0
0
0
0
0
0
0
0
0
0
0
0
0
0
0
0
0
0
0
0
0
0
0
0
0
0
0
0
0
0
0
0
0
0
0
0
0
0
0
0
0
0
0
0
0
0
0
0
0
0
0
0
0
0
0
0
0
0
0
0
0
0
0
0
0
0
0
0
0
0
0
0
0
0
0
0
0
0
0
0
0
0
0
0
0
0
0
0
0
0
0
0
0
0
0
0
0
0
0
0
0
0
0
0
0
0
0
0
0
0
0
0
0
0
0
0
0
0
0
0
0
0
0
0
0
0
0
0
0
0
0
0
0
0
0
0
0
0
0
0
0
0
0
0
0
0
0
0
0
0
0
0
0
0
0
0
0
0
0
0
0
0
0
0
0
0
0
0
0
0
0
0
0
0
0
0
0
0
0
0
0
0
0
0
0
0
0
0
0
0
0
0
0
0
0
0
0
0
0
0
0
0
0
0
0
0
0
0
0
0
0
0
0
0
0
0
0
0
0
0
0
0
0
0
0
0
0
0
0
0
0
0
0
0
0
0
0
0
0
0
0
0
0
0
0
0
0
0
0
0
0
0
0
0
0
0
0
0
0
0
0
0
0
0
0
0
0
0
1.68352e-07
1.82347e-07
2.01266e-06
2.65191e-07
1.64217e-07
1.65184e-07
1.65444e-07
2.51614e-07
1.02728e-07
1.0418e-07
1.02766e-07
1.04258e-07
1.02835e-07
1.02845e-07
2.4848e-07
2.40778e-07
6.24784e-07
2.58317e-07
2.38278e-07
2.38624e-07
2.38449e-07
)
;

boundaryField
{
    ground
    {
        type            calculated;
        value           nonuniform List<scalar> 
327
(
502.542
5046.63
512.995
354.991
845.623
691.362
463.293
1229.16
933.232
1502.73
495.389
644.059
736.839
3075.46
2203.45
3290.27
1103.14
1562.12
1850.32
2141.19
1638.85
1216.95
417.674
576.081
477.173
819.54
228.371
7998.01
335.624
327.409
940.321
1436.52
503.014
509.333
592.434
592.189
893.302
7375.89
1229.61
1435.41
1345.63
574.327
606.362
929.673
1280.82
3959.53
972.789
789.589
522.536
11414.9
5111.82
3788.09
3264.35
4641.04
8564.76
1362.38
2192.62
2081.6
2325.08
2402.91
1512.41
869.646
902.867
1364.84
2790.79
1803.84
2518.09
990.099
697.958
724.747
515.992
743.462
664.654
0.25249
1.02318
240.942
431.709
420.13
321.202
326.389
428.41
443.933
241.175
132.926
128.878
97.0525
120.261
237.36
28.9815
31.052
1.14401
0.705312
24.3877
14.0771
0.030018
27.3402
1.05715
265.502
388.167
101.425
2.79093
301.587
295.561
387.228
237.476
390.706
373.109
392.139
70.6381
124.664
12.225
382.404
298.43
308.007
0.611183
0.000745578
68.0624
83.718
0.00338138
30.5011
301.291
298.723
383.779
7.26656
1.09769e-05
0.000108194
310.38
183.772
267.862
233.297
223.204
115.507
377.253
259.36
149.095
117.195
84.2201
215.569
101.394
216.539
194.982
17.8882
4.74904e-05
4.67156e-07
64.4058
185.67
216.855
0
0
0
3.49468e-05
5.82357e-08
1.53091e-06
44.3531
120.053
23.554
2.03897e-05
1.7316e-07
5.15449e-05
152.087
37.915
6.65625
13.9889
80.3998
203.754
135.773
60.2273
4.98653
24.0283
0.738751
0.903518
0.157456
10.2519
22.606
0.0999322
0.40568
17.56
0.414359
0.0777394
6.10313
0.227122
0.00382601
0.355759
0.0823369
1.63695
0.0152981
0.179224
10.7053
0.327717
0.650142
0.00633743
0.00030311
0.0570859
0.000530506
0.00997317
853.2
329.947
194.084
467.539
592.631
549.829
708.417
328.604
430.721
434.219
571.981
485.801
408.527
317.977
394.196
286.827
4.99199e-05
0.00442181
0.00101824
0.00956499
0.00824324
9.77518e-05
8.41339e-06
0.000783436
0.00435362
6.41241e-07
1.61419e-05
0.00168147
7.25359e-07
4.02206e-05
0.00213557
0.0044477
5.48403e-05
1.23155e-06
3.38268e-06
6.43137e-05
1.04391e-06
9.74954e-05
5.49178e-06
6.69509e-07
0
0
0
0
0
0
0
0
0
0
0
0
0
0
0
0
0
0
0
0
0
0
0
0
0
0
0
0
0
0
0
0
0
0
0
0
0
0
0
0
0
0
0
0
0
0
0
0
0
0
0
0
0
0
0
0
0
0
0
0
0
0
0
0
0
0
0
0
0
0
0
0
0
0
0
0
0
0
0
0
0
0
0
0
0
0
0
0
0
0
0
0
)
;
    }
    outlet
    {
        type            calculated;
        value           nonuniform List<scalar> 
215
(
502.542
354.991
51.5451
193.507
463.293
333.775
326.873
252.756
248.349
165.352
277.445
322.795
417.674
111.484
222.77
163.656
128.646
104.517
130.142
0.0345418
0.0135793
3.4417
5.33402e-06
0.00879386
41.0156
50.7361
143.643
144.522
47.7933
32.1745
62.8314
6.56191
23.1401
0.0590492
4.24721
2.67153
1.32274
3.52279
0.0438231
0.0388673
0.64426
22.8638
0.748334
0.0913488
0.00107437
8.25734e-05
0.0069564
0.000428482
0.030018
1.10047e-07
265.502
2.79093
0.000146181
11.3864
0.178613
2.03352e-06
7.12482e-08
4.97022e-07
149.095
89.2031
193.133
4.67156e-07
9.04363e-08
2.06704e-06
84.1571
20.7663
0.566124
0
0
0.441829
17.0039
44.3531
0.0102246
0.902812
0.0102999
0.00551455
5.80742e-05
0.00182613
0.00030311
4.73514e-05
0.00445252
1.63221e-09
2.15969e-10
1.50526e-09
2.24961e-07
1.4558e-06
0.000114545
0.00011754
1.52416e-06
2.00524e-07
1.94869e-05
8.83116e-07
2.87851e-07
4.33527e-07
8.95128e-07
3.38268e-06
0
0
0
0
0
0
0
0
0
0
0
0
0
0
0
0
0
0
0
0
0
0
0
0
0
0
0
0
0
0
0
0
0
0
0
0
0
0
0
0
0
0
0
0
0
0
0
0
0
0
0
0
0
0
0
0
0
0
0
0
0
0
0
0
0
0
0
0
0
0
0
0
0
0
0
0
0
0
0
0
0
0
0
0
0
0
0
0
0
0
0
0
0
0
0
0
0
0
0
0
0
0
0
0
0
0
0
0
0
0
0
0
0
0
0
0
1.02766e-07
1.02845e-07
1.02728e-07
)
;
    }
    wall
    {
        type            calculated;
        value           nonuniform List<scalar> 0();
    }
    wall2
    {
        type            calculated;
        value           nonuniform List<scalar> 0();
    }
    wall3
    {
        type            calculated;
        value           uniform 0;
    }
    internalPatch
    {
        type            internal;
    }
    procBoundary2to0
    {
        type            processor;
        value           nonuniform List<scalar> 
97
(
9.34701e-10
5.51364e-11
5.51364e-11
4.33111e-11
4.33111e-11
4.33111e-11
2.23616e-10
2.23616e-10
1.60799e-11
1.60799e-11
7.12434e-11
7.12434e-11
1.3088e-08
1.3088e-08
1.3088e-08
7.17987e-10
2.13352e-09
1.18392e-07
2.97905e-07
2.97905e-07
1.17528e-07
1.78264e-09
1.03634e-09
1.61057e-08
1.61057e-08
1.72262e-07
2.63995e-07
7.20642e-07
7.48382e-07
2.35169e-07
1.41301e-07
1.33721e-08
1.33721e-08
1.33721e-08
1.33721e-08
1.24651e-07
1.4864e-08
1.4864e-08
5.51364e-11
5.51364e-11
4.33111e-11
2.23616e-10
2.23616e-10
1.60799e-11
1.60799e-11
7.12434e-11
7.12434e-11
6.88439e-10
1.3088e-08
1.3088e-08
1.3088e-08
1.3088e-08
1.3088e-08
1.16617e-07
1.58902e-07
1.58902e-07
1.16406e-07
6.77312e-10
2.52604e-09
1.61057e-08
1.61057e-08
1.52658e-07
1.74997e-07
5.47294e-07
5.46278e-07
1.42071e-07
1.4864e-08
1.4864e-08
4.04285e-08
2.22902e-10
2.22902e-10
2.22902e-10
1.64286e-11
1.64286e-11
1.64286e-11
1.64286e-11
2.52604e-09
2.52604e-09
2.52604e-09
1.56499e-08
1.56499e-08
4.04285e-08
4.04285e-08
4.04285e-08
1.56499e-08
2.22902e-10
1.56499e-08
0
0
0
0
0
0
0
0
0
0
)
;
    }
    procBoundary2to1
    {
        type            processor;
        value           nonuniform List<scalar> 
499
(
1.42139e-09
4.07432e-10
8.61226e-10
1.95628e-08
1.95628e-08
1.95628e-08
1.95628e-08
8.19143e-10
3.89777e-10
2.70575e-09
2.70575e-09
2.32201e-08
2.32201e-08
4.16321e-08
4.16321e-08
9.82315e-09
9.82315e-09
9.20676e-10
2.52515e-08
2.52515e-08
6.55985e-07
1.37352e-06
1.36456e-05
0.000113576
0.000457183
0.000781591
0.00053277
0.000152569
0.00181641
0.185873
11.9116
86.1708
231.848
224.718
215.528
204.302
204.302
254.168
318.234
522.601
931.249
1307.99
1814.45
2882.31
4851.24
8555.87
22922.9
25249
36076.2
12270.4
8140.14
3927
2595.29
1569.07
1569.07
1797.58
2001.36
1971.81
1695.46
1479.45
1264.19
698.359
561.185
441.267
326.921
191.393
58.788
4.1458
0.0433309
0.00248192
0.00741043
0.0120202
0.0113001
0.00649816
0.00156892
0.00014829
7.04445e-06
6.17277e-08
6.17277e-08
6.17277e-08
6.27958e-09
6.27958e-09
1.37794e-08
1.37794e-08
4.05541e-07
1.95628e-08
1.95628e-08
1.95628e-08
1.95628e-08
4.0236e-07
1.08583e-08
1.08583e-08
3.77823e-09
3.77823e-09
1.00603e-07
2.70575e-09
2.70575e-09
2.32201e-08
2.32201e-08
4.16321e-08
4.16321e-08
9.82315e-09
9.82315e-09
3.09656e-07
2.52515e-08
2.52515e-08
1.18735e-06
1.10199e-05
0.000176376
0.00149423
0.0057281
0.00997269
0.00748158
0.00244024
0.031392
3.08883
50.2865
175.59
326.727
317.18
304.619
286.302
286.302
391.584
524.404
584.933
789.037
1134.61
1687.2
3360.93
7905.59
15328.3
32786.6
18823.3
13655
5193.55
3426.38
1895.63
1154.85
1154.85
1206.71
1354.51
1204.12
1068.18
912.958
885.82
695.144
503.119
436.461
359.295
257.149
127.228
27.2572
0.847921
0.00767981
0.000461938
0.00133287
0.00211931
0.00226512
0.00143939
0.000359499
3.46018e-05
1.75976e-06
6.17277e-08
6.27958e-09
6.27958e-09
1.37794e-08
1.37794e-08
8.50623e-07
3.68054e-05
1.06888e-06
1.06888e-06
3.68054e-05
7.70583e-07
1.08583e-08
1.08583e-08
3.77823e-09
3.77823e-09
1.00603e-07
1.00603e-07
1.00603e-07
4.64273e-07
6.32321e-07
9.24586e-07
7.67154e-07
3.16782e-07
5.32929e-07
3.59989e-07
6.85425e-06
0.000104596
0.00133072
0.0101199
0.0399943
0.0723573
0.0595251
0.0208361
0.290837
15.3597
99.83
225.813
352.309
354.447
334.922
308.801
308.801
578.023
608.684
764.752
1279.39
2023.91
3886.75
9051.46
14463.3
10942.3
5554.93
3899.16
1871.6
1035.49
1035.49
844.978
846.012
616.326
561.026
521.546
458.11
375.361
326.865
250.003
141.542
41.2789
2.6105
0.0265709
0.000258211
1.66272e-05
4.74791e-05
7.77412e-05
9.77375e-05
6.47356e-05
1.71068e-05
1.30649e-06
1.54489e-07
9.87491e-08
2.54109e-07
4.19267e-07
1.83003e-05
0.0014031
0.0014031
1.37887e-05
2.68544e-07
1.63813e-07
7.98032e-08
8.58439e-08
9.54308e-07
7.8553e-06
5.5221e-05
2.70577e-06
6.79924e-06
7.73503e-06
3.72563e-06
7.36251e-05
2.75831e-05
0.000426996
0.00473071
0.0329046
0.115606
0.206996
0.200568
0.0777339
1.11004
29.9721
129.381
238.243
372.802
397.653
394.537
355.415
355.415
470.128
813.339
1385.61
894.439
2001.66
2980.87
4092.77
3992.15
2985.82
2069.23
1247.74
997.876
582.285
582.285
357.069
318.884
339.885
338.951
280.498
209.778
115.403
34.5422
2.55509
0.0361495
0.000411321
5.55243e-06
7.96999e-07
1.5093e-06
2.25473e-06
2.91708e-06
2.10402e-06
9.19109e-07
1.2723e-07
2.90843e-07
3.73839e-06
0.000379439
0.0279773
0.0279773
0.000275651
2.14301e-06
1.812e-07
8.27938e-08
1.71023e-07
8.31876e-06
0.000105284
0.000740296
0.00204325
0.000152934
0.000170724
0.00224543
0.00100357
0.0092606
0.0499962
0.150705
0.254536
0.289041
0.123995
1.75486
36.6075
137.219
236.566
369.394
428.199
309.116
298.064
271.47
259.179
259.179
397.635
674.527
566.066
1081.23
1213.54
1472.85
1378.97
1486.17
646.637
386.245
404.78
357.069
357.069
318.884
339.885
338.951
212.699
154.031
77.2294
19.7763
1.28524
0.148039
0.148039
0.00244378
3.52466e-05
1.39453e-06
2.35976e-06
3.68988e-06
4.67832e-06
2.73343e-06
9.65956e-07
4.83511e-05
0.00356237
0.230014
0.230014
0.00242341
2.56017e-05
5.45183e-07
6.84003e-07
3.43859e-06
7.0528e-05
0.000912668
0.00613776
0.0167769
0.0184015
0.086808
0.204345
0.242179
0.255945
0.10502
1.49889
34.0226
132.809
232.443
359.49
409.593
307.887
315.918
297.694
274.935
275.618
275.618
404.964
655.604
698.393
386.245
404.78
383.939
393.341
365.106
232.604
120.258
86.1915
38.8355
7.77646
0.407892
0.0118207
0.00160793
0.00488524
0.392384
0.392384
0.00686028
0.000104407
0.000177626
0.000245415
0.00017527
0.0116858
0.68019
0.68019
0.0080361
9.66962e-05
1.38605e-06
9.91719e-07
1.26479e-05
0.00030587
0.0039436
0.0268475
0.076282
0.153501
0.172064
0.145375
0.0526166
0.737124
24.6928
10.576
1.66239
0.095846
0.00380648
0.000118098
1.78932e-05
5.9624e-05
0.000109876
0.00821708
0.621733
0.621733
0.0110783
0.015239
0.838865
0.838865
0.0110904
0.00014791
2.82587e-06
1.64646e-06
2.59016e-05
0.000584334
0.00762573
0.0511528
0.0515931
0.0359677
0.0115507
0.159857
0.0158209
0.000936456
3.8515e-05
1.67648e-06
8.92199e-07
1.39853e-06
2.37352e-06
1.46488e-06
2.13672e-05
0.000499743
0.00698386
0.00435129
0.00124067
7.36323e-05
2.99723e-06
6.04587e-07
8.22385e-07
1.02486e-05
0.000281801
299.285
299.449
302.062
649.92
)
;
    }
    procBoundary2to3
    {
        type            processor;
        value           uniform 0;
    }
}


// ************************************************************************* //
