/*--------------------------------*- C++ -*----------------------------------*\
  =========                 |
  \\      /  F ield         | OpenFOAM: The Open Source CFD Toolbox
   \\    /   O peration     | Website:  https://openfoam.org
    \\  /    A nd           | Version:  9
     \\/     M anipulation  |
\*---------------------------------------------------------------------------*/
FoamFile
{
    format      ascii;
    class       volVectorField;
    location    "0.0002";
    object      rhoU;
}
// * * * * * * * * * * * * * * * * * * * * * * * * * * * * * * * * * * * * * //

dimensions      [1 -2 -1 0 0 0 0];

internalField   nonuniform List<vector> 
2204
(
(4592.21 -13101.9 941.025)
(9557.55 -9252.65 1035.37)
(9290.83 -7353.69 1292.97)
(13513.1 -3859.07 985.94)
(1983.89 -5140.32 3826.52)
(2320.81 -1771.58 2079.79)
(2813.39 -2267.12 5810.45)
(5869.49 -1848.48 4234.9)
(5249.6 -6795.18 2033.09)
(6582.81 -11654.3 821.802)
(6028.66 -12527.2 1216)
(2817.84 -8344.26 2032.4)
(3506.23 -7275.22 2407.48)
(8036.92 -10299.4 887.79)
(4497.06 -8194.98 2012.96)
(6013.78 -5330.38 2605.14)
(7391.71 -14941.5 895.305)
(14822.9 -5194.42 797.197)
(5107.44 -4123.84 5186.93)
(4726.9 -6798.46 3621.11)
(7856.58 -4085.21 3709.94)
(10505.3 -9395 1396.02)
(7814.66 -4873.08 2202.4)
(13158.3 -6390.17 889.96)
(12781.8 -4792.81 1284.89)
(10491.6 -2847.22 2587.43)
(10065.6 -4735.08 2453.28)
(8560.72 -3146.14 2709.41)
(11159.2 -7201.42 943.156)
(4867.23 -4255.47 4040.1)
(3591.56 -2957.24 4727.67)
(2598.09 -3690.03 5488.84)
(4519.85 -2205.24 5761.67)
(2992.63 -4261.52 4049.36)
(5279.05 -2623.1 4384.18)
(4309.21 -3721.19 5339.41)
(9409.56 -8016.14 2806.08)
(8709.34 -10339.8 1019.13)
(11764.6 -6659.93 1013.54)
(7844.3 -6425.49 3585.52)
(9971.62 -5846.65 3022.25)
(7263.41 -8726.38 3004.55)
(11114.8 -9385.08 914.51)
(8917.21 -9250.81 2962.34)
(8705.65 -12897.3 935.109)
(5619.55 -11619.2 2853.74)
(9766.27 -13085 239.663)
(7093.38 -9587.81 2906.61)
(6813.84 -10331.1 2570.9)
(10863.4 -11287.7 1044.72)
(10488 -7719.29 2976.95)
(13481.9 -6463.08 973.977)
(12302 -4372.68 2836.05)
(13541.9 -7850.09 312.838)
(11397.7 -5525.27 2661.34)
(10406.2 -6152.35 2881.86)
(12478.1 -8940.41 1083.77)
(7637.17 -6646.24 3303.4)
(6487.9 -5232.1 4813.42)
(4159.7 -5564.57 5027.37)
(6680.73 -3417.81 5177.51)
(8281.56 -4608.55 4149.17)
(5639.8 -6922.64 4098.93)
(5103.13 -4459.47 4092.2)
(4775.47 -6286.88 3879.01)
(2359.28 -6911.06 3305.26)
(3312.21 -4769.67 3853.06)
(2440.96 -5191.62 4956.7)
(2766.43 -5930.97 3798.05)
(4231.92 -5479.6 5007.74)
(3990.97 -6938.93 3361.76)
(7236.03 -4457.75 4137.68)
(9010.22 -2494.92 4200.13)
(5435.47 -3122.91 4128.96)
(6030.4 -2160.21 5204.25)
(8273.3 -4134.45 4015.09)
(7401.23 -2588.71 4375.76)
(5812.18 -3703.01 4969.58)
(7589.77 -6974.58 2135.86)
(8643.6 -10883 870.371)
(12619.7 -8957.17 989.495)
(7535.47 -7263.69 2561.68)
(9739.4 -7097.97 2645.86)
(10232.2 -9411.4 765.982)
(6535.46 -8303.9 2281.24)
(7004.89 -6616.7 4163.22)
(5193.38 -4629.79 3315.88)
(3473.44 -3504.87 3317.05)
(4213.69 -3438.78 3528.64)
(7312.37 -5776.38 4103.94)
(5114.62 -4868.2 4554.08)
(5272.58 -6215.38 3532.65)
(9689.06 -4211.49 1183.62)
(-6788.42 10329.4 915.738)
(-2701.35 7564.57 754.254)
(-0.598373 -0.922585 2.83269)
(1643.22 -3136.4 3293.51)
(-189.754 -24.8816 455.167)
(1901.4 -401.984 4771.47)
(-2525.55 3942.05 4488.69)
(13941.4 -1162.58 1072.49)
(7021.76 10367.2 1630.6)
(11785.9 6059.92 971.616)
(2952.37 -671.625 5957.07)
(6465.49 -633.668 4519.11)
(2538.1 3758.93 5288.45)
(7674.07 4054.55 5561.39)
(-2954.42 4766.21 4485.61)
(-3500.98 9541.4 741.439)
(-1384.4 3269.03 2310.13)
(2434.03 11706 1257.26)
(1092.33 9570.04 745.722)
(954.829 4936.94 4803.34)
(404.995 4249.59 2859.66)
(-156.07 -96.9439 364.056)
(-2359.47 -3823.9 4006.48)
(-2502.62 -1512.69 4820.65)
(733.008 -3456.33 3464.44)
(732 -1414.11 4642.84)
(0.825322 -2.02438 6.14142)
(96.8657 -87.3342 406.654)
(1076.54 -894.526 1221.78)
(1843.87 -1434.63 4580)
(3082.45 -1142.14 2858.79)
(0.356075 -0.512991 1.72231)
(0.000355646 -0.000235937 0.00116513)
(73.7959 -41.3458 181.393)
(0.151388 -0.0527928 0.403728)
(-2393.84 -457.138 4651.58)
(-2326.21 2609.27 4435.06)
(-39.7381 44.4236 102.95)
(794.065 -442.01 4932.61)
(742.906 2541.08 4404.58)
(93.9872 -35.4569 460.996)
(26.3038 120.524 262.375)
(3578.98 -549.455 3257.57)
(1907.95 2784.45 4681.8)
(4417.07 2476.82 4149.07)
(95.2811 -29.3971 244.894)
(0.369754 -0.121755 0.96896)
(55.5492 75.0301 168.663)
(0.340858 0.188932 1.03106)
(9106.09 1940.81 4383.99)
(14948.9 -3168.12 903.644)
(8947.55 5341.89 1203.29)
(5510.78 -2530.69 5688.94)
(8026.56 -2191.38 4307.16)
(4909.24 3116.62 5958.81)
(13779.9 4295.56 516.926)
(-2113.44 7979.6 1926.83)
(-3903.89 6089.92 1789.37)
(-5705.73 11547.9 790.922)
(-4339.94 11774.1 1134.87)
(-3760.9 8013.6 1880.87)
(-2360.2 6480.56 2122.88)
(-3358.69 12085.1 852.737)
(9731.49 1484.12 3279.06)
(15462.2 -2734.33 1056.17)
(13653.4 1621.38 1163.79)
(11071.3 -834.066 2805.94)
(9687.53 -999.856 3204.8)
(11337.3 1277.66 2996.79)
(13067.6 2064.41 1461.21)
(7679.6 4382.49 3603.01)
(8918.05 7953.59 1167.73)
(8496.61 7890.24 1258)
(4484.58 6441.6 3257.31)
(5947.28 5302.72 4556.85)
(6054.78 5546.88 2692.6)
(11264.8 6377.36 1690.08)
(5965.47 1262.27 4945.9)
(4307.72 -1946.25 5841.54)
(4845.77 -626.402 6097.85)
(3071.56 980.283 6017.2)
(6038.99 -800.491 4882.42)
(4194.21 1344.69 5420.02)
(5070.71 1023.55 6366.22)
(-461.25 7872 1993.15)
(-2412.05 14575.3 967.584)
(1856.51 11907.6 960.636)
(1500.35 7287.29 2481.16)
(-516.807 6642.29 2375.52)
(1251.68 8549.74 2183.92)
(-749.136 11865 877.159)
(-127.31 323.574 3376.18)
(-295.137 -501.039 4771.89)
(794.789 546.166 4701.13)
(521.271 -258.95 3278.38)
(-211.304 464.387 4665.46)
(-161.151 -305.669 3274.19)
(536.19 365.208 3187.06)
(10900.4 -1020.73 3428.5)
(12063.5 -3919.9 1204.8)
(9998.35 -859.728 1248.85)
(8338.15 -3752.05 3492.42)
(10573.3 -3613.41 3429.51)
(8642.55 -846.899 3639.65)
(12362.6 -1015.64 1171.66)
(12240.9 -758.742 3112.57)
(13682.6 -3579.47 1011.75)
(13203.5 -2880.76 2790.2)
(15165.7 -526.549 933.694)
(11884.5 -3233.54 2933.34)
(13598.7 -582.86 2932.38)
(13815.6 -759.098 1084.01)
(10494.9 1492.69 3474.18)
(9420.23 2413 1328.41)
(8001.12 4662.79 3546.61)
(11218.9 4668.78 1072.06)
(8311.27 1975.08 3814.97)
(10210.8 4070.45 3286.7)
(11731.7 1780.64 1126.29)
(9140.73 -701.351 4711.72)
(6761.18 -3106.91 4906.61)
(7204.5 -2358.21 5528.24)
(5747.07 -528.764 5895.98)
(8655.5 -2910.88 4567.73)
(7129.17 -785.786 5127.3)
(7539.47 -589.697 5756.61)
(10573.8 -824.11 4640.59)
(8715.34 -43.7692 4540.44)
(11018.7 -2804.59 3468.44)
(8120.59 -2221.44 5332.86)
(9989.44 -2658.55 4401.22)
(11596.9 -156.435 3804.02)
(8691.35 -783.35 5446.73)
(9258.66 1154.62 4812.23)
(6073.29 2915.71 5002.61)
(6628.92 3744.91 5041.08)
(5698.54 1374.92 5965.94)
(7201.05 1674.77 5401.83)
(8791.3 3883.22 4122.28)
(7275.22 693.5 5744.38)
(12129.9 1823.19 3171.32)
(11387.5 3554.52 3074.54)
(14735.6 1402.99 813.816)
(12707.7 4379.89 1214.46)
(12917.4 1019.23 3163.29)
(11540.9 3964.34 3193.03)
(13358.6 2169.98 1207.95)
(13277.5 -231.113 2311.62)
(15143.6 -2763.28 496.968)
(13842.8 -2556.35 2608.37)
(15759.1 -874.408 1010.84)
(14242.5 -883.681 2563.06)
(12789.1 -2426.5 2392.92)
(15456.8 -158.938 591.346)
(7812.83 7153.75 3249.41)
(7710.21 10131.6 1037.29)
(7795.68 6961.69 3179.86)
(11088.3 6753 999.002)
(9798.11 5753.74 3350.11)
(6466.48 8844.54 3281.7)
(10005.6 9137.94 326.538)
(4072.97 7.25967 5002.71)
(3068.15 -1526.52 5623.57)
(5818.43 -2065.53 5271.79)
(4550.78 -477.232 6041.52)
(6068.88 -209.106 5607.07)
(3789.51 -1524.07 4760.61)
(3303.06 -469.09 5629.84)
(94.0918 10564.3 1998.77)
(-298.514 14529.9 905.669)
(-1910.9 11435.9 2292.41)
(-2459.98 14273.6 363.648)
(-1748 10546.2 2136.87)
(-309.869 11456.8 2229.38)
(347.434 14178.6 434.117)
(5130.54 2899.18 4291.42)
(2817.62 4125.35 3690.36)
(2763.85 2434.42 5614.69)
(4471.1 4078.18 5608.17)
(3323.84 2967.89 4429.83)
(4661.73 4323.6 3849.28)
(4647.85 2548.99 5939.12)
(2416.64 335.491 3607.46)
(3168.63 -420.198 4584.21)
(1998.38 632.699 4876.06)
(1303.65 -272.915 3303.86)
(3432.52 665.833 4965.85)
(2222.88 -350.474 3269.9)
(1326.66 394.714 3353.66)
(-198.475 438.753 388.685)
(-4.91531 7.02564 18.7442)
(-0.000264761 0.00101697 0.00200616)
(736.73 3724.67 4357.15)
(79.143 1126.59 936.883)
(4.1705 31.0197 65.0617)
(0.000208527 0.0085553 0.0156565)
(8717.92 3542.01 2842.39)
(12647.1 4041.01 1070.95)
(9624.41 6505.08 1022.15)
(10393 5156.37 2710.63)
(10771.1 3278.52 2819.25)
(7792.7 5123.1 2445.92)
(11475.1 4793.38 1247.76)
(8108.1 1219.48 4917.62)
(9690.51 -746.45 4552.02)
(6470.46 -637.122 5600.23)
(7305 742.321 5125.9)
(7926.7 -722.082 4706.27)
(10272.1 1128.28 4919.13)
(7000.24 979.773 6178.78)
(-382.876 6752.88 3350.18)
(-324.927 4577.2 4516.18)
(1077.04 5420.38 3387.65)
(852.604 5759.53 4276.1)
(-342.074 4917.73 3140.14)
(1018.44 7245.21 3542.3)
(-356.065 5496.4 4125.06)
(-146.546 964.999 3304.95)
(-226.9 2339.53 4190.85)
(768.613 1518.93 4553.31)
(573.654 1923.62 3524.62)
(-213.512 1359.34 4398.02)
(540.914 1011.73 3245.61)
(-186.408 1868.95 3500.67)
(-1015.64 -1994.35 3755.02)
(-1838.65 -1118.3 3767.92)
(-2731.45 -2862.74 5049.4)
(-1338.96 -1474.74 4744.06)
(-2184.45 -2332.4 4172.38)
(-1402.27 -2630.86 4755.11)
(-872.787 -971.611 3352.3)
(-192.13 -1835.76 3513.32)
(-303.205 -1462 4685.96)
(720.054 -2447.18 4401.62)
(524.431 -917.362 3222.6)
(-325.459 -2511.33 4554.63)
(622.796 -1821.44 3420.61)
(-178.51 -942.414 3261.33)
(-796.679 340.798 3264.51)
(-1670.26 -327.706 3509.2)
(-2218.11 496.338 4384.07)
(-1305.31 -455.856 4696.98)
(-1627.91 389.578 3467.51)
(-1182.49 479.004 4488.03)
(-830.116 -298.223 3254.31)
(7502.82 3008.58 4520.85)
(9912.76 4978.19 4662.54)
(7454.21 2285.49 5238.83)
(6964.79 4485.94 5984.82)
(10060.9 3027.57 4732.93)
(7396.78 4835.44 4342.55)
(6842.2 2664.71 6000.47)
(-1747.53 6843.3 3279.36)
(-3131.27 5075.14 3036.14)
(-2826.16 5642.53 4270.95)
(-1562.2 4627.05 4499.41)
(-3222.35 6915.67 3223.6)
(-1699.59 4956.21 3087.54)
(-1496.26 5513.17 4119.51)
(1909.48 -1587.84 2742.98)
(1854.51 -2567.7 4431.66)
(3143.66 -1506.57 4478.73)
(1372.57 -993.861 3328.66)
(3319.33 -2823.87 4505.87)
(1537.76 -1936.93 3421.74)
(2174.78 -1063.79 3163.13)
(-815.731 1005.89 3319.28)
(-2218.08 1433.75 4331.72)
(-1991.11 2247.73 3833.51)
(-1166.3 2436.83 4264.92)
(-1765.48 1168.22 3643.83)
(-1148.22 1388.73 4327.96)
(-940.277 2008.24 3622.26)
(-293.699 736.35 516.412)
(-9.24603 42.8012 2.54116)
(-0.0514782 0.413305 0.124801)
(781.279 7036.28 642.469)
(7.45149 125.774 9.74645)
(94.5347 1548.69 1042.91)
(0.000341421 0.0460993 0.0215193)
(-431.347 8784.24 2042.07)
(-425.733 10029.6 832.863)
(1497.03 12197.3 900.263)
(855.748 7645.3 1823.06)
(1053.25 9114.89 2151.7)
(-369.05 7684.24 1813.27)
(-600.512 12367.6 896.527)
(2519.98 1238.67 3800.01)
(1926.13 1654.7 4745.32)
(3566.45 3180.65 5171.4)
(1502.49 2140.43 3782.48)
(3416.04 1815.23 4970.51)
(1355.55 1117.86 3477.79)
(2515.08 2205.99 3863.68)
(-1894.75 8833.54 2019.44)
(-4742.44 12159.8 860.715)
(-2896.29 7783.39 1906.29)
(-1951.79 9784.47 738.346)
(-3477.28 8878.75 2061.81)
(-1567.31 7664.31 1795.97)
(-2690.77 12449.2 861.323)
(-59.3003 253.017 2682.83)
(16.2466 -34.0952 626.674)
(446.801 -184.777 2346.32)
(82.1056 26.7846 534.145)
(-38.9921 -211.016 2593.67)
(426.193 228.336 2422.44)
(-2.39293 45.8541 633.509)
(-149.897 -2723.38 3477.51)
(-242.728 -3663.26 3627.72)
(785.628 -3767.6 4271.93)
(441.259 -1379.6 1837.4)
(-334.2 -3924.89 4494.17)
(711.894 -2525.55 3231.98)
(-75.7138 -1626.5 2117.73)
(2473.58 130.206 2930.26)
(4103.08 -492.944 4157.2)
(4230.97 255.086 3833.78)
(838.323 -198.148 915.735)
(4625.04 534.454 4740.29)
(1989.95 -372.018 2332.23)
(1278.99 -4.04546 1367.68)
(-278.713 3571.5 4194.3)
(630.737 4098.23 3909.83)
(523.539 2633.63 3435.43)
(-317.975 4016.61 3831.08)
(-230.246 2605.11 3376.72)
(-175.406 1923.22 2084.79)
(265.545 1981.66 2167.74)
(-607.604 294.826 2635.25)
(-1143.94 -201.878 2457.37)
(-177.921 45.2494 424.124)
(-109.236 -39.1246 669.571)
(-1113.85 291.488 2404.82)
(-611.89 -220.766 2630.33)
(-106.735 63.9431 643.675)
(-380.224 6956.84 3164.18)
(-317.088 4092.38 2765.02)
(695.165 6180.67 2846.97)
(671.167 5283.57 3651.63)
(894.032 7233.88 3259.51)
(-347.978 6103.53 2843.01)
(-353.037 5175.4 3606.1)
(-48.1761 -1081.63 2128.1)
(-0.710103 -121.688 560.758)
(471.015 -618.618 2236.11)
(51.3163 -96.7893 214.084)
(418.011 -920.818 1811.23)
(-62.4244 -695.91 2506.87)
(-1.82 -147.861 317.9)
(-90.7733 746.268 2527.67)
(-10.3067 128.077 274.838)
(288.23 1029.12 2000.35)
(63.4267 112.232 478.078)
(392.372 709.886 2374.68)
(-103.024 1072.36 2050.03)
(-14.073 133.625 531.364)
(892.591 47.7526 1454.09)
(803.82 -189.895 1869.96)
(30.5751 -10.2404 67.0279)
(128.193 9.82239 338.973)
(684.973 -160.487 1086.29)
(876.508 153.804 2120.29)
(57.1402 0.485871 116.746)
(1112.67 -1224.05 1593.41)
(1874.98 -2160.33 2536.98)
(1994.07 -3858.99 4297.03)
(615.858 -883.647 1235.93)
(3073.98 -3645.2 4083.64)
(1314.06 -2120.19 2732.1)
(310.259 -304.84 458.821)
(-2203.84 3950.1 3784.67)
(-1589.8 2371.44 3008.83)
(-1251.3 3664.84 4279.48)
(-1231.07 4044.32 3856.95)
(-966.947 2607.86 3348.38)
(-539.535 1720.58 1851.35)
(-678.549 1199.26 1307.05)
(-1618.29 6990.48 3138.86)
(-2504.19 5301.49 3767.74)
(-2598.38 6356.26 3109.65)
(-914.595 3839.3 2616.46)
(-2995.17 7071.4 3248.94)
(-1351.05 6154.68 2862.86)
(-1323.27 5219.17 3613.85)
(-542.823 -1136.23 2184.91)
(-66.1989 -72.1278 158.319)
(-1118.42 -708.927 2353.87)
(-102.797 -146.319 567.617)
(-866.409 -954.553 1806.04)
(-633.984 -756.541 2566.39)
(-56.7137 -142.921 304.796)
(-1055.41 -2891.92 3678.39)
(-865.412 -1222.32 1662.54)
(-2963.48 -4610.65 5201.02)
(-1215.54 -3804.46 3821.73)
(-1875.19 -2785.92 3547.14)
(-1465.02 -4141.39 4750.35)
(-588.323 -1609.19 2112.37)
(1064.81 -718.167 1261.89)
(2259.52 -1349.49 2169.91)
(3897.84 -1509.23 4017.04)
(522.855 -207.51 587.886)
(3618.32 -2477.73 3808.57)
(214.486 -134.368 254.986)
(1636.03 -671.505 1921.56)
(-598.819 794.59 2466.94)
(-123.431 89.4876 290.073)
(-707.209 815.142 1468)
(-46.3489 105.26 223.178)
(-1012.42 717.355 2141.4)
(-483.625 1048.55 1938.06)
(-94.4177 146.39 490.979)
(2612.42 942.291 3130.61)
(4487.41 1387.2 4081.6)
(5002.67 3295.96 5240.43)
(1044.51 574.057 1155.08)
(4759.9 1778.48 4914.96)
(1405.25 364.448 1512.74)
(2271.52 1488.78 2804.32)
(907.461 386.988 1514.23)
(664.72 891.321 1752.67)
(115.879 67.6882 325.588)
(23.6738 21.2302 58.9304)
(851.297 617.803 2139.38)
(652.106 554.272 1117.05)
(56.335 19.9366 117.953)
(296.346 -242.743 467.779)
(760.829 -483.101 1684.76)
(29.0144 -30.7204 77.775)
(17.2365 -8.33887 41.2994)
(557.968 -620.46 1200.16)
(539.851 -252.521 845.111)
(5.50826 -4.43827 16.0882)
(-307.237 7385.46 708.114)
(680.266 6459.53 1740.35)
(-326.373 6612.49 1786.82)
(-230.523 4404.99 1473.43)
(596.618 5746.02 629.339)
(382.9 4278.25 1403.34)
(-273.56 6103.46 694.921)
(-2503.1 6706.61 1991.53)
(-1404.34 7288.77 672.426)
(-1303.6 6551.59 1798.33)
(-776.295 3979.02 1350.23)
(-1811.81 5053.7 561.526)
(-1169.15 3280.85 1168.21)
(-1116.23 5697.15 629.858)
(-22.6855 -844.024 1199.76)
(-0.0501941 -3.49022 9.9039)
(53.8871 -131.216 220.207)
(9.84264 -23.065 50.5099)
(235.778 -658.243 948.546)
(-0.493633 -39.9656 78.5883)
(-5.39223 -193.466 314.897)
(-95.1897 1008.41 833.512)
(362.165 3216.68 2784.4)
(-271.905 3106.12 2677.79)
(-54.4361 560.803 569.741)
(2.24994 47.7479 52.0042)
(53.2245 615.722 628.746)
(-3.4316 39.5913 42.7535)
(418.923 -2.46346 569.716)
(29.0527 -8.73315 46.4294)
(4.35936 -1.51843 11.1408)
(0.859315 -0.0322285 2.21331)
(246.022 -69.3485 339.578)
(65.6911 -2.32114 94.2032)
(9.36269 -0.24697 22.3364)
(-2.77176 30.0142 62.2685)
(124.644 770.806 1110.73)
(-68.6941 763.668 1085.01)
(-18.8321 195.05 255.36)
(0.269182 3.3014 7.94822)
(22.5767 212.657 277.774)
(-0.278159 2.9813 7.08553)
(-117.103 1377.68 927.928)
(430.647 4840.49 2402.61)
(-308.949 4733.14 2379.87)
(-100.936 1468.13 757.671)
(4.39622 120.414 79.0961)
(97.3553 1577.54 805.644)
(-7.09307 94.7917 63.529)
(-280.094 -843.956 1183.17)
(-9.50832 -13.0978 31.5607)
(-57.134 -77.4803 130.394)
(-0.922681 -2.77638 7.92723)
(-391.592 -570.703 791.946)
(-11.3199 -34.5183 69.2391)
(-63.8363 -173.603 278.797)
(231.903 -167.246 266.331)
(1061.77 -866.509 1090.63)
(2509.61 -2322.06 2759.62)
(370.979 -338.313 459.75)
(3.29925 -2.27609 7.29814)
(37.5131 -27.5093 55.7573)
(44.8205 -37.2332 72.1469)
(66.6931 -71.0113 120.635)
(31.6952 -42.9133 80.5897)
(0.0532573 -0.0594381 0.232195)
(4.75208 -6.32281 17.643)
(239.419 -341.39 497.439)
(0.754716 -0.761731 2.73805)
(5.34085 -5.75133 15.2761)
(449.399 130.429 616.123)
(33.373 18.9812 55.8265)
(0.87311 0.153272 2.36853)
(3.85463 2.79103 11.3769)
(73.1684 15.7593 105.736)
(268.037 182.316 376.44)
(9.50459 2.41893 23.5287)
(-1068.12 2211.71 1957.9)
(-195.081 790.79 667.727)
(-780.238 2836.14 2451.46)
(-121.649 415.298 428.693)
(-3.05065 8.96865 12.178)
(-95.4558 188.085 206.709)
(-5.1589 25.1435 28.8737)
(-271.774 392.086 557.862)
(-7.97732 20.7199 45.7394)
(-240.872 666.815 939.914)
(-45.8819 137.778 183.642)
(-0.265047 0.535369 1.41131)
(-28.2266 50.2546 75.2122)
(-0.573795 1.85496 4.53092)
(-1527.45 3984.91 2116.62)
(-239.609 1146.6 781.547)
(-940.066 4478.27 2275.89)
(-231.827 1225.31 633.624)
(-8.21269 31.493 22.3835)
(-292.811 806.274 427.12)
(-10.2511 66.5675 45.4819)
(46.4764 -30.8258 74.9459)
(12.6554 -4.6807 22.8359)
(0.0368728 -0.0169994 0.103162)
(2.03137 -0.840184 5.47701)
(3.34163 -1.74869 7.16761)
(139.432 -60.6185 200.349)
(0.543366 -0.322864 1.56842)
(-42.7064 912.249 344.485)
(-3.97875 138.973 11.4072)
(164.974 1915.14 199.747)
(1.09304 34.2892 8.72619)
(58.3186 886.798 327.152)
(-0.946522 34.295 9.18555)
(-84.2608 2080.03 228.55)
(-132.383 703.203 266.575)
(-377.773 1086.64 112.613)
(-1.71408 10.287 2.12951)
(-14.1587 94.4496 6.97762)
(-134.515 400.073 149.471)
(-2.6338 23.7338 5.83822)
(-322.88 1695.03 180.141)
(-1.2428 14.2372 21.6973)
(-0.000504425 0.00699396 0.0122841)
(0.020904 0.695702 1.08754)
(0.00883153 0.19921 0.438326)
(0.979355 16.3973 25.1274)
(-0.0423913 0.571255 0.862539)
(-0.0142488 0.171378 0.367132)
(-4.47847 82.1042 39.3209)
(-0.00124867 0.0347725 0.0172629)
(0.0267514 1.87084 0.587286)
(0.0433717 2.91091 1.63611)
(3.46389 94.822 43.7624)
(-0.0493176 1.55973 0.535704)
(-0.101574 2.21665 1.32021)
(6.74309 -5.44712 15.2186)
(0.0329819 -0.0222083 0.098067)
(0.00509504 -0.0042565 0.0186953)
(0.00471522 -0.00276091 0.0141049)
(0.436171 -0.276296 1.08282)
(0.0702944 -0.0524899 0.231895)
(0.492253 -0.412156 1.44994)
(-2.17834 8.81451 14.1294)
(-0.0270958 0.0959285 0.172068)
(-0.00945089 0.026708 0.0628163)
(-0.000614349 0.00381851 0.00690527)
(-1.07169 2.66131 4.99097)
(-0.0569001 0.330726 0.520688)
(-0.0220922 0.0987172 0.215354)
(-0.000903531 0.00804101 0.00396085)
(-0.0763095 1.0265 0.340273)
(-0.00142235 0.0219959 0.0109297)
(-7.82304 57.9638 26.7924)
(-0.090015 0.592499 0.349802)
(-6.05315 27.9236 11.6966)
(-0.129143 1.45732 0.86659)
(1340.1 -350.638 144.132)
(625.023 261.267 55.2059)
(0.00990271 0.00530095 0.000211956)
(1.78921e-05 -4.59654e-06 1.48426e-05)
(5.76746e-06 -1.78226e-07 4.59309e-06)
(1.80616e-06 7.18376e-07 1.05468e-06)
(8071.03 -6475.07 1013.76)
(1686.6 -1006.1 201.15)
(14065.2 -3138.65 1007.7)
(5499.78 -1302.61 616.737)
(767.397 -501.334 655.718)
(1.84053 -0.812715 1.8178)
(4788.71 -1539.14 3357.08)
(809.101 -240.232 434.692)
(8342.31 -3455.9 2251.82)
(13098.8 -5271.36 1003.19)
(10818.9 -2266.36 842.481)
(10918.1 -2480.26 2514.15)
(10076.1 -4206.12 2453.94)
(8694.87 -1906.25 2068.68)
(9985.21 -3874.9 872.689)
(5648.51 -2709.53 3012.58)
(7801.95 -2039.34 3553.81)
(3900.89 -2092.57 2920.66)
(2559.77 -813.657 1840.24)
(7234.79 -3471.56 3585.25)
(6305.7 -1682.95 3022.33)
(1557.3 -807.195 1191.91)
(14569.2 -896.124 1092.79)
(30.808 36.1664 29.1736)
(1.46079e-05 5.39815e-05 2.07588e-05)
(17.3495 -10.7583 26.1761)
(428.113 -97.3353 394.4)
(8.07743 12.4268 14.994)
(2.71029e-05 1.71708e-05 2.07188e-05)
(5800.36 562.996 627.399)
(12291.7 5291.08 957.426)
(4200.59 1743.18 417.507)
(5289.25 -619.294 3583.18)
(1436.57 70.2597 726.82)
(6450.05 3199.56 4498.5)
(777.464 331.466 394.711)
(3.10807e-05 4.17354e-05 1.39269e-06)
(5.54982e-06 1.025e-05 2.24504e-05)
(1926.31 4065.2 4687.54)
(3243.22 2512.65 3231.24)
(276.561 1018.79 870.964)
(9.90158 17.5844 41.7875)
(0.0511451 0.0347766 0.189083)
(0.000946235 0.00494081 0.0100108)
(9029.36 851.628 2163.32)
(11501.3 -604.011 953.069)
(13973.7 1384.92 1058.95)
(11496.7 -714.711 2638.84)
(9161.22 -556.69 2123.37)
(11623 1115.05 2791.17)
(10668.9 1027.69 839.589)
(2742.72 2957.18 1179.14)
(0.00973522 0.00620434 0.00241545)
(0.824044 0.522657 0.0261908)
(11470.5 7230.14 989.822)
(459.596 303.53 40.7377)
(5360.83 3679.61 4027.29)
(16.2749 7.04735 5.28525)
(0.0589549 0.21182 0.00519686)
(12.4559 22.5546 15.9235)
(1929.82 2533.4 963.893)
(1884.97 7085.14 665.73)
(15.3785 83.7492 5.61779)
(353.068 1500.81 1020.66)
(0.00243791 0.0345804 0.0153395)
(1.61493 0.00220193 1.59561)
(2357.65 1135.01 2104.32)
(0.624784 0.136698 0.54718)
(0.0241549 -0.00739417 0.0626794)
(5.27295e-05 -5.04822e-06 7.51322e-05)
(0.0214848 0.00929189 0.0613685)
(0.000107111 2.13732e-05 0.000135939)
(8980.97 2215.25 2157.09)
(13125.4 3430.47 994.788)
(9640.29 3970.85 793.352)
(10916.5 4722.15 2681.39)
(11365.4 2914.75 2728.76)
(9033.84 3767.26 2301.36)
(10003.6 2505.17 782.804)
(7026.09 602.991 3177.64)
(8475.69 -651.107 3733.84)
(3331.41 -495.3 2299.97)
(5897.78 438.46 3942.16)
(6662.77 -580.447 3034.03)
(9139.54 888.136 4053.2)
(4011.82 163.79 2697.73)
(0.0204224 -0.00827215 0.0262155)
(63.0074 -30.8341 71.5489)
(2.62404 -0.894839 3.72658)
(2.39051e-05 -1.28341e-05 6.38672e-05)
(8.81146e-06 -3.38477e-06 1.43995e-05)
(0.00891395 -0.00245526 0.0227621)
(2.77263e-05 -7.15055e-06 4.11622e-05)
(3656.43 4589.42 5221.35)
(1728.79 4340.91 4163.27)
(1388.42 2668.13 3485.95)
(2871.33 4340.33 4268.28)
(1864.43 2253.42 3020.52)
(725.81 1801.07 1989.3)
(797.731 1201.83 1365.07)
(7362.78 1863.01 3329.88)
(9391.46 4300.02 4324.35)
(6214.78 1701.29 4156.07)
(3789.58 1690.09 2647.08)
(9270.04 2501.98 4084.78)
(7680.5 3456.2 3680.26)
(4294.79 1048.99 2885.58)
(1692.71 152.232 172.829)
(25.9563 6.46998 8.69316)
(77.3531 2.29072 34.8514)
(0.0271948 -0.000460872 0.000683711)
(0.00293199 0.000333143 4.99419e-05)
(8.13178e-05 -2.93641e-06 2.8812e-05)
(2.94339e-05 2.654e-06 8.88702e-06)
(4209.25 342.777 1352.26)
(6305.15 -368.559 707.307)
(4367.95 -314.026 1450.79)
(8197.86 -427.752 783.243)
(7267.96 -481.657 1943.04)
(7090.16 641.983 1905.19)
(7643.7 736.281 701.39)
(9164.91 5525 882.058)
(9488.55 7852.33 1000.75)
(10609.6 6793.59 2867)
(8709.01 5369.95 2594.21)
(8901.54 7440.59 2895.48)
(6585.88 5048.31 2270.47)
(7567.72 5756.12 856.626)
(7348.71 -4755.65 2532.15)
(6224.17 -4216.29 848.962)
(11675.1 -7530.29 1104.67)
(6666.54 -5209.39 2428.62)
(9269.11 -6278.83 2761.46)
(8940.78 -5586.61 1033.27)
(4506.62 -2930.26 1836.45)
(2825.61 1169.29 930.396)
(5384.48 1373.19 558.859)
(3872.97 928.849 1228.57)
(7224.22 1774.28 1970.89)
(7813.7 3267.42 768.558)
(7147.25 3042.31 2100.51)
(7591.11 1860.02 696.792)
(3383.39 7574.62 780.903)
(1760.5 6664.37 1860.04)
(3131.76 6898.44 2105.62)
(1485.2 5539.18 601.275)
(1022.14 4055.87 1338.14)
(1334.7 3087.91 1065.77)
(1999.5 4587.05 488.292)
(0.000520645 -0.000149697 0.000317076)
(30.7251 -6.30551 14.6951)
(88.0323 -38.8875 7.00715)
(3.72955e-05 -7.41331e-06 7.97041e-07)
(0.0124076 -0.00101453 0.00029652)
(2.27577e-05 -5.15525e-06 8.63122e-06)
(5.39952e-05 -5.21272e-06 2.08573e-05)
(3555 -911.45 1235.87)
(7953.74 -1662.45 771.806)
(6937.82 -1620.1 1965.03)
(3943.34 -1656.86 452.783)
(2174.71 -968.259 830.445)
(6230.19 -2704.21 2050)
(7778.47 -3160.73 863.526)
(1887.47 -369.804 1669.12)
(2550.75 35.6509 2206.21)
(132.768 -37.2316 156.074)
(704.298 -5.72142 617.832)
(266.602 -8.29934 292.024)
(19.0439 -0.45308 25.8461)
(8.70937 -2.06368 13.5555)
(1.0882e-06 7.51137e-07 1.4506e-06)
(0.00439992 0.0014709 0.00337447)
(1.83298e-05 6.11865e-06 2.4037e-05)
(0.342155 0.440933 0.560732)
(4.42512e-06 5.64625e-06 1.10469e-05)
(1254.82 895.243 1162.91)
(0.00316611 0.00148455 0.00968458)
(1270.85 -140.147 661.658)
(4594.65 -492.014 2314.82)
(87.7209 1.5484 60.6938)
(56.7747 -7.61281 43.5477)
(934.832 -156.242 665.046)
(4948.81 327.311 2422.85)
(1273.89 29.9368 874.095)
(4434.04 4119.68 4915.28)
(1470.07 1424.97 1522.3)
(413.677 334.656 481.184)
(2735.56 3148.98 3271.62)
(1327.5 1229.61 1701.01)
(377.757 428.685 511.646)
(54.0069 52.4223 83.1677)
(8997.25 6087.16 4584.41)
(2242.24 1446.32 1634.62)
(2922.19 2500.78 2330.2)
(6566.52 4123.86 3449.39)
(6946.81 5876.64 3985.2)
(3609.64 2813.56 2048.16)
(591.788 469.918 441.402)
(62.2576 -36.3837 59.88)
(523.293 -366.345 424.115)
(2266.23 -1673.58 1865.05)
(3706.12 -2498.23 2263.4)
(3857.77 -2757.64 2527.78)
(6092.13 -4401.99 3569)
(1482.24 -902.194 939.457)
(1339.97 281.035 668.192)
(37.8288 11.6698 23.9458)
(85.5549 12.486 56.1191)
(5064.43 1221.72 2468.39)
(872.972 386.314 594.018)
(4333.61 1836.53 2195.58)
(1347.38 269.675 909.095)
(1051.43 3152.72 2772.15)
(305.011 580.747 510.976)
(1402.82 2516.83 2288.49)
(8.16363 35.0874 41.4676)
(166.188 493.08 517.027)
(131.465 221.677 250.685)
(5.12375 12.2688 17.2551)
(1302.08 4940.89 2483.28)
(443.884 937.904 648.683)
(1955.96 4324.86 2276.01)
(18.3109 104.519 68.5055)
(330.441 1475.56 752.637)
(386.564 870.08 454.019)
(13.9356 42.6263 27.7129)
(2789.07 692.587 2419.03)
(509.188 240.949 445.475)
(172.684 89.4376 197.997)
(791.224 157.789 686.711)
(305.296 62.9009 332.106)
(21.3455 3.03075 28.5895)
(9.88377 3.89898 14.629)
(7.16768e-41 0 0)
(5.60844e-29 0 -4.37321e-15)
(0 0 0)
(4.84556e-39 0 7.56561e-21)
(6.40201e-27 0 6.84874e-19)
(0 0 6.15481e-17)
(0.000122067 6.61612e-05 2.72398e-05)
(12.3681 4.60554 0.483526)
(0.204688 0.0589784 0.0446604)
(0.000313271 4.5014e-05 4.2677e-06)
(1.33276e-05 5.16687e-06 3.72623e-07)
(4.23562e-05 7.48956e-06 9.86543e-06)
(1.13752e-06 5.75397e-07 2.21027e-07)
(648.801 -392.327 277.597)
(283.163 -146.677 30.697)
(64.6212 -30.7316 22.8673)
(3882.59 -2422.74 1530.29)
(2726.34 -1556.38 353.067)
(5949.76 -3612.18 748.236)
(1306.62 -746.786 580.018)
(3794.25 -1067.6 2007.86)
(185.736 -88.1482 149.081)
(5.99653 -1.69373 5.35664)
(25.2421 -5.9988 21.2406)
(542.062 -176.922 400.762)
(292.664 -130.324 163.888)
(2503.49 -1185.51 1410.72)
(1.35308e-06 1.93958e-06 4.56666e-07)
(0.01322 0.0103765 0.000334095)
(0.000157376 0.000132566 4.22635e-05)
(7.54938e-06 1.86477e-05 6.12037e-06)
(0.00239889 0.00614315 0.000122213)
(25.7935 35.1934 15.3512)
(328.106 390.666 155.836)
(323.444 623.281 906.805)
(3.91744 4.54171 14.1802)
(257.979 306.203 454.405)
(0.763356 1.86035 4.92233)
(61.5094 145.295 197.692)
(30.4813 45.4805 74.0869)
(0.272541 0.441994 1.37094)
(3942.34 4239.52 504.974)
(7217.73 6993.55 910.738)
(6432.1 6253.07 2450.88)
(2935.96 2610.96 1137.49)
(968.915 948.246 106.495)
(430.062 421.765 183.052)
(4212.1 3720.4 481.939)
(173.011 106.454 57.2427)
(2136.55 1223.84 202.263)
(1181.16 683.743 420.198)
(6709.8 3922.25 707.397)
(5402.4 3170.29 1763.89)
(2359.68 1725.33 863.432)
(3604.66 2604 374.831)
(2938.62 3879.72 429.361)
(4242.98 6862.26 771.389)
(3411.04 5525.66 1890.29)
(830.92 1381.39 515.462)
(406.153 581.026 56.6508)
(140.042 214.287 76.1868)
(1496.04 2508.78 256.548)
(662.115 -380.963 643.068)
(210.152 -75.3148 207.969)
(1307.85 -468.997 1195.21)
(57.619 -21.0247 74.123)
(15.8997 -7.83363 25.1204)
(3.23666 -0.979467 5.67085)
(0.76236 -0.29455 1.45769)
(392.793 1576.97 157.43)
(3.29735 24.8409 5.66387)
(166.813 718.786 261.119)
(135.121 331.477 116.505)
(7.06456 29.036 1.45543)
(1.59823 8.10895 1.48883)
(358.235 827.458 79.1724)
(758.718 49.2388 274.792)
(1917.48 -100.968 206.767)
(804.207 -51.1827 302.522)
(27.3608 0.888346 6.55422)
(113.275 -4.26878 8.85416)
(28.6497 -1.03326 7.36502)
(95.7286 6.341 6.92391)
(497.544 -139.388 190.809)
(544.242 -232.711 58.6365)
(149.516 -56.1563 53.7634)
(61.5556 -12.4667 4.22588)
(14.5314 -2.38036 3.39993)
(3.02792 -0.5334 0.598769)
(16.081 -3.47861 0.81542)
(254.474 97.7591 83.6001)
(1296.84 321.855 122.828)
(582.898 134.473 204.515)
(18.6663 2.40761 3.95992)
(19.6949 4.35975 0.842835)
(5.80473 1.06735 0.991164)
(59.8628 10.5089 3.54961)
(806.021 868.786 528.296)
(714.445 702.522 582.756)
(3733.72 3649.47 2332.27)
(861.144 773.296 513.779)
(0.799892 0.785632 0.631154)
(35.9764 29.713 28.4739)
(39.5519 38.8073 19.8558)
(243.461 271.323 278.229)
(91.416 142.872 137.973)
(983.371 1282.16 1218.25)
(27.7913 40.5935 57.6064)
(0.0662026 0.116374 0.203755)
(2.63478 3.28072 6.73451)
(0.813583 1.73491 2.92669)
(6.13179 4.48383 14.5783)
(0.56345 0.512002 2.15191)
(61.4995 58.0119 108.208)
(5.22389 6.37668 15.5769)
(0.0038242 0.0036621 0.0156298)
(0.469938 0.451529 1.48456)
(0.04091 0.0524768 0.201937)
(191.09 97.5167 90.7448)
(0.352115 0.121095 0.182065)
(6.10668 1.79633 3.48548)
(247.215 142.589 172.316)
(2427.83 1465.05 1288.02)
(571.685 415.388 310.544)
(21.5454 11.4493 14.6933)
(135.77 83.6103 129.887)
(272.152 235.046 273.805)
(37.9417 24.2786 53.6254)
(3.2748 2.51209 6.6201)
(12.1974 7.65347 14.4878)
(1.62956 0.730318 2.75276)
(0.114286 0.0627392 0.197245)
(27.184 -13.7043 25.8079)
(0.0348929 -0.0117892 0.0261626)
(0.643932 -0.202887 0.532379)
(39.4976 -17.5036 21.1817)
(2.40334 -0.87192 1.10104)
(928.482 -603.778 556.876)
(113.505 -62.371 69.3803)
(0.721041 -0.371868 1.1866)
(9.59685 -5.33709 14.2051)
(165.237 -120.836 181.229)
(0.176712 -0.102914 0.415569)
(2.21756 -1.32679 4.5414)
(0.0989141 -0.0462147 0.20473)
(0.00726018 -0.00349649 0.0143682)
(460.529 610.941 341.487)
(156.889 261.975 186.189)
(1581.65 2509.65 1376.12)
(116.534 217.842 108.337)
(0.134983 0.377284 0.204585)
(2.06266 6.67025 4.01129)
(8.24368 18.0456 6.33017)
(0.0103487 0.00163235 0.00721624)
(3.5764e-06 2.99623e-07 2.98191e-06)
(0.0348752 2.19922e-05 0.027957)
(5.1447e-06 -1.11401e-07 4.05743e-06)
(3.12869e-06 2.66908e-07 1.94526e-06)
(1.27902e-07 -4.70893e-09 8.98113e-08)
(8.95005e-08 7.44903e-09 5.88635e-08)
(0.0881726 0.44541 0.771986)
(0.0313511 0.113143 0.274946)