/*--------------------------------*- C++ -*----------------------------------*\
  =========                 |
  \\      /  F ield         | OpenFOAM: The Open Source CFD Toolbox
   \\    /   O peration     | Website:  https://openfoam.org
    \\  /    A nd           | Version:  9
     \\/     M anipulation  |
\*---------------------------------------------------------------------------*/
FoamFile
{
    format      ascii;
    class       volScalarField;
    location    "0.0007";
    object      overpressure;
}
// * * * * * * * * * * * * * * * * * * * * * * * * * * * * * * * * * * * * * //

dimensions      [1 -1 -2 0 0 0 0];

internalField   nonuniform List<scalar> 
6841
(
0.90612
137.042
679.606
0.00939526
3.01846
139.846
194113
426.919
5811.54
1082.39
48912.6
142848
28626.1
3741.28
626.657
31813.1
4474.35
82551.2
12806.7
1864.06
283.24
94.4647
6281.49
570.178
12.596
293.245
3499.67
75.1871
6.3483
24.5377
3.14858
0.562683
1.89739
84.7511
13.9987
0.315921
30.3336
112.37
1426.07
30.311
0.643435
2.36497
8.95609
0.326527
14.8431
41.1542
6.14701
0.0505071
0.138667
1.95474
0.0218953
0.276967
0.0773166
1.5924
0.0140558
0.0446464
0.142311
0.612036
0.0132135
0.0105238
0.0223021
0.0213535
0.0549362
0.18161
105191
133607
1.23954e+06
256940
1.08646e+06
608813
1.24017e+06
603443
1.06362e+06
95863.4
231455
208464
463432
420475
540621
604643
1.18736e+06
431925
1.09373e+06
1.24462e+06
929266
148600
1.02876e+06
139615
368632
254426
574365
467763
568753
656630
924711
535467
831649
417673
367581
674712
755444
896171
1.11435e+06
809724
902970
1.26666e+06
1.00262e+06
1.14116e+06
541592
817329
878425
490010
400777
681946
755526
519790
620360
715748
690360
789304
914523
989723
1.07381e+06
884857
813618
890562
1.07879e+06
1.09017e+06
949198
720609
1.17894e+06
1.00738e+06
609236
785300
884100
1.08467e+06
1.14595e+06
1.11114e+06
1.0201e+06
1.01117e+06
1.24657e+06
1.1234e+06
1.1228e+06
880950
1.23072e+06
967031
1.21671e+06
1.17056e+06
1.2101e+06
1.1609e+06
949891
1.08563e+06
873525
979829
1.01861e+06
1.0617e+06
1.02344e+06
1.00834e+06
1.04177e+06
1.06062e+06
984016
1.1555e+06
1.1708e+06
870023
1.20346e+06
801748
1.18921e+06
1.265e+06
1.07878e+06
1.23385e+06
1.03571e+06
1.11638e+06
717856
397455
927221
1.11039e+06
1.14551e+06
677630
695147
360805
1.47643e+06
1.87329e+06
1.36779e+06
1.73825e+06
953724
1.66724e+06
176182
330733
541203
599734
838776
986656
755387
1.34244e+06
1.34518e+06
815851
1.4689e+06
1.05679e+06
1.14534e+06
1.47361e+06
1.26727e+06
752341
1.08633e+06
549907
764159
1.12601e+06
912250
1.07128e+06
1.69945e+06
1.29228e+06
1.38912e+06
1.52679e+06
1.76616e+06
1.1892e+06
1.08228e+06
1.52183e+06
1.34567e+06
1.34958e+06
955315
1.24116e+06
1.48998e+06
1.66522e+06
1.73852e+06
1.40741e+06
1.46931e+06
1.88544e+06
1.79217e+06
1.66743e+06
1.9129e+06
1.47793e+06
1.50969e+06
1.50962e+06
1.55136e+06
1.8449e+06
1.32282e+06
1.66121e+06
1.98111e+06
1.97412e+06
1.54964e+06
1.9214e+06
1.87195e+06
1.69096e+06
765716
614374
1.15445e+06
1.07806e+06
61821.6
448736
606661
4227.5
662284
75540.1
924509
18738.9
243546
377541
-87038.2
384709
-87008.7
-53950.3
15139.7
-77473.2
-84086.6
50120.7
160497
-87679.7
-88136.4
-88094
-88294.9
-88626.6
-86658.2
-86553.9
905794
144427
-80989.6
262162
-49581.8
936839
458228
-89687.5
-88280.9
-87874.7
-89341.9
-88929.9
-85906.2
-83096.1
-84344.3
-62256.4
-60596.4
-87975.7
-88115.2
-81738.5
-81473.2
-82731.2
-82725.9
-54455.8
-75152.3
-5327.95
-74899.1
-8305.07
-82874.2
-15219.5
-52008.8
-86621.7
-87766.4
-79399
-69683
-89255
-81574.4
-87004.1
-71752.4
-69122
-44345.5
4644.69
-72203.4
-80521.9
-39214
-70271.9
99978.3
-48595.2
19349.7
62535.9
317425
275638
-46533.7
118892
-44420.9
102873
78600.7
389123
305023
-31072.9
233574
22579.9
137556
56676.9
255532
81554.3
-79725.1
-36533.1
-26269.7
104210
158699
-33841.1
253232
16042.7
103802
196916
465920
-33241.9
250630
27289.9
356522
100494
197551
450006
490947
373753
114389
668998
451795
326985
558884
296999
647643
504067
382768
141561
330202
546273
613683
591075
345067
434315
992233
689269
662654
637324
1.22064e+06
906921
529942
1.10199e+06
790607
759339
-84560.5
103197
235317
-39366.9
-77680.1
1.08108e+06
1.23913e+06
273141
-69903.1
-64253.7
-84627
-85627.7
-68474.1
-56924.4
-82279.6
870304
144019
986445
917752
117800
176699
1.0438e+06
-44675.3
43711.3
-39153.1
-84294.2
-62905.5
-33944.4
-73992.6
69473
-31823.2
-76189.2
-6578.45
38554.3
-64051
177964
1.12942e+06
409911
1.25012e+06
302135
1.26652e+06
514827
1.176e+06
212084
1.18527e+06
359975
989137
148502
242724
1.11895e+06
619398
124848
429768
87533.1
193112
-16511.2
365656
579300
1.28302e+06
830735
412766
1.27558e+06
663599
1.21752e+06
0.162034
89.0016
5872.11
142013
76.0588
0.0545879
140997
180.08
788773
692781
1.21166e+06
1.15457e+06
546286
638518
71597.2
5775.85
808518
177974
1.03122e+06
343880
415640
23791.3
183.796
5845.04
168151
2471.21
84425.7
2541.62
77.2085
1754.32
3878.78
78376.3
838.608
38259.4
1749.32
40.4457
3.19349
3541.99
138.426
299.85
13538.9
577.205
13.4037
5.19942
6173.58
164.046
739.24
26895.8
787.308
23.4561
219216
830125
1.21007e+06
559269
493642
20480.7
753348
686510
484701
697506
827408
770022
883280
1.04163e+06
1.09307e+06
646290
1.20056e+06
1.05939e+06
999228
866389
958259
1.15251e+06
972918
1.2412e+06
1.0449e+06
1.12893e+06
1.2038e+06
1.21236e+06
1.05556e+06
1.0799e+06
765789
1.09156e+06
575621
1.1076e+06
1.07515e+06
477735
177114
867034
1.06074e+06
659418
1.0929e+06
1.00261e+06
337577
1.11308e+06
1.23155e+06
1.22394e+06
1.25965e+06
1.13582e+06
1.19504e+06
917790
26141.5
477288
918905
826182
13399.9
144358
351776
1455.02
70467.2
439540
669614
5306.32
67866
199713
5.1059
3.68166
150.314
65.2776
0.087685
1.6249
2.17215
0.195725
4.68933
0.164844
20.4287
0.0693206
0.536405
0.681526
23.1213
34828.2
52.5713
567718
0.257312
3277.24
63089
0.897944
501.755
9.61704
223.751
5231.22
0.0626626
0.252634
99.1453
142.524
9327.39
9741.9
807656
806176
2533.42
0.237497
0.0208619
7172.84
0.377277
20794.2
5.47923
0.238206
1495.83
666137
1504.23
0.136997
100.624
719469
0.0379156
47.2532
557015
424793
411111
67954.4
62873.1
24806.4
27267.1
12608.8
463270
305607
521982
370976
50370.8
19217.3
776583
1.23491e+06
1.2434e+06
874106
907063
226798
200115
764677
1.24273e+06
1.231e+06
865467
906788
225041
191551
1.20353e+06
1.13315e+06
766664
595574
499887
127075
56868.9
0.0180696
0.0187185
0.002664
13.0558
338058
0.0209338
7.32203
6900.04
379744
217310
267549
9937.47
118455
2862.51
72630.4
239711
224356
7251.18
1651.47
1411.47
8113.08
11.854
40.8875
0.908833
0.0045176
0.0209407
14.5062
0.0629524
130482
519.199
23749.6
43879.8
186029
5409.93
966.458
0.00915295
10.1924
999.115
0.0554692
0.00145126
3.30302
0.0082232
984407
122013
94243
352603
284485
16670.9
3536.97
47.2647
1915.23
1741.09
638.149
18.3537
710.519
16.262
36950.6
772.298
138565
3535.8
36908
771.401
153.664
903.043
7.36717
309.823
35.8926
1351.01
484.723
12.053
2724.06
6145.7
114815
3218.45
131057
7342.54
171.245
11906.9
230184
268315
11375.5
293.373
8957.73
377.417
309.243
9467.47
237235
11983.6
269230
11499
381.037
3162.18
129285
108287
7236.66
133.134
5760.63
168.626
68391.9
216.115
9842.18
3131.23
23605.2
502.984
64.6484
153714
1972.54
68487.4
161.125
5123.91
1994.66
60.8782
68152.3
655.851
29982.1
76.5197
3352.06
1362.65
31.4335
58386.1
17776.8
14387.8
1709.21
1486.01
488.673
47.5299
1.06488e+06
556954
964102
571981
480150
31.8789
760969
736275
2613.53
1.1023e+06
167.208
585.259
13.7815
322530
266504
27.0036
944918
1.1233e+06
1.13318e+06
1.12041e+06
1.11384e+06
1.04699e+06
1.06964e+06
1.00712e+06
1.17124e+06
1.15504e+06
1.03933e+06
1.09532e+06
984104
856965
1.1157e+06
1.13592e+06
904409
984446
635462
656274
324562
898065
228720
1.19883e+06
855574
1.18654e+06
716813
194517
772641
125520
147596
25161.4
31719.5
478483
435344
1.06457e+06
752465
1.15193e+06
605525
51751
125148
421767
642214
33246.1
79240.7
5884.62
14333.4
335093
196200
937773
226405
660779
47930.1
297403
75715.1
7113.99
884603
100978
576789
13723.8
204088
48899.7
2629.39
9669.81
1609.56
69352.4
2020.05
83986.9
12979.7
309.037
3350.06
125007
160.198
206.168
8081.47
101828
6352.56
21028.6
3520.06
131074
8037.29
1157.84
199.238
28.1532
539.368
1293.1
86.5507
1428.9
3513.44
58936.4
22537.2
31.0005
24794.2
1258.86
337.625
13562
210176
6384.93
1.40028
12.6952
520.768
3.73286
161.601
239.702
62.1948
3.84128
26.5799
1127.23
40.8582
275.196
11435.6
1769.58
174.864
4.6989
0.755233
37.96
32.2886
198.593
4.0789
997.946
653.377
5840.48
123.742
2.00293
20.5922
13.6296
524.691
3797.46
19029.5
550.803
3.18118
109.642
16.387
210.07
2176.93
9587.2
402.529
1.97608
84.6519
9.25224
5852.1
124.009
655.005
99.3355
20.6161
13.6649
2.00652
1.53913
63.8749
8.26095
144.466
341.5
6149.94
1142.6
1.62938
73.3387
11.5133
126.398
0.49935
21.8212
2.87835
0.00666908
0.00613633
0.000301338
0.000408102
0.0120679
9.8162e-05
0.000422193
4213.61
6.1828
6.45477
118.984
109.449
3.42608
0.203949
0.0790379
1.62184
0.376853
16.6069
76.9676
16.5878
3.20743
8.61075
6.05933
247.453
301.337
0.30548
7.39758
10.6314
297.533
0.301383
8.12441
5.68027
232.726
7.30061
10.5142
0.0352478
0.102799
0.716203
32.9022
4.61419
10.8461
1.32916
495.56
1.20545
46.2159
0.420607
14.7417
1.39994
0.046132
331.704
0.787217
34.7182
0.289655
12.0996
1.20576
0.0369265
2.15653
1718.65
86.7332
4.68249
92.3262
2.25454
0.13779
4.43516
3.16898
130.235
50.9594
0.0668229
1.69803
1.25987
0.296103
1.92114
83.0534
0.119189
4.78934
0.682457
0.0246681
369.326
2.04504
52.0633
0.399756
9.33984
1.32925
0.0767749
120.401
0.774961
10.1918
0.215558
2.40409
0.215107
0.0291385
0.751471
0.0279679
0.322031
3.42566
0.202806
8.16939
149.91
54.4647
0.401209
7.05063
0.0903866
1.11286
0.161087
0.0288731
0.0209311
2.5286
0.417164
0.0179389
0.281249
0.0507462
0.0129399
0.013155
0.062532
0.0179241
2.52286
0.0510716
0.416683
0.280239
14.1467
0.0487246
0.12444
0.105604
2.8633
0.472195
0.369879
0.307574
0.309189
0.387057
0.0466007
0.0463256
0.0438957
0.035303
0.163905
0.0721435
2.60531
0.0977604
0.0133996
0.0187267
0.0158199
0.183732
0.0924892
3.16792
0.108767
0.0139174
0.019508
0.0168844
0.0628511
0.0169882
0.0346672
0.0642257
0.0155952
0.0185436
0.0169372
0.24586
0.19544
3.8788
0.143546
0.0552757
0.0593219
0.0598642
735749
726167
746946
9359.78
7956.54
749799
733555
385.254
318.961
242.309
576791
105.698
754411
117.699
661720
370.018
736032
188921
204885
735976
743644
217702
201696
745661
758990
754794
228378
206047
228255
209804
755848
742988
749932
229426
229282
233384
224385
206003
204266
730201
735285
740003
217206
213678
758725
745050
746497
227975
228006
205641
209248
754346
707004
735482
188018
215715
187799
155848
654660
716737
713932
165823
121815
115515
171635
656322
626736
694623
146073
71685
97439.9
115157
11252.1
391.128
11241.2
374.892
11494.3
10902.8
385.638
308.024
291.889
8978.4
10976
363.125
10838
371.057
8847.88
291.496
259.278
308.2
9190.83
10187.4
344.472
319.882
9402.83
9331.22
10303.3
346.179
10080.3
352.905
362.487
10946
10819.9
8952.21
306.729
9322.88
290.97
291.276
84.433
210.19
46.7456
709142
725909
538737
605066
195159
196069
723731
706070
706344
171795
174760
724302
168533
188475
677016
698779
160400
137766
669020
600717
667296
134578
92544.9
138172
89109.3
622644
579581
653900
121733
59538.5
77410.5
99346.5
557587
968116
954078
859340
71844.4
8264.51
-42191
-54981.1
-56212.6
-49209.9
-46990
78355.5
84951.6
111409
122034
-51270.4
-27028.8
-40501.7
141565
103351
148333
199080
433.053
285058
-33457.2
-29381.4
175842
191839
306605
472949
852923
461432
881713
516053
531847
890700
28234.8
3589.23
-18926.2
229069
428553
353527
294614
905113
876701
503511
566772
934343
909373
622469
702808
920322
597640
615225
958587
927945
719692
651231
958999
965468
801918
942391
753736
705997
284.766
8526.79
8660.58
6928.9
233.616
223.841
7165.67
7657.5
172.701
5701.39
318.922
9714.34
7645.26
241.903
6625.47
261.268
7966.9
148.941
6180.29
195.202
4893.4
6313.72
107.126
4029.87
210.551
3720.5
6716.27
194.989
2894.19
79.1816
4796.02
155.53
147.076
5016.79
2741.52
3685.87
54.8853
2014.5
5188.6
82.9514
2955.16
155.315
90.6456
65.2126
4129.21
1683.47
123.697
2294.63
3123.4
372970
504.158
4722.86
613401
13.6864
10838.1
57.8232
478019
675305
134921
634482
562861
105188
92301.3
68059.7
40554.7
23912.6
394523
569154
490672
71245.1
43671
515041
312741
458830
19773.8
49402.9
34853.6
13467.4
35810.8
1.11363e+06
1.20604e+06
177705
1.07994e+06
377763
1.20688e+06
33033.6
1.04967e+06
1.78484e+06
1.4245e+06
1.02377e+06
464001
6802.99
1.09484e+06
656561
1.24576e+06
99944.6
1.07275e+06
1.07101e+06
631692
824299
624060
1.4578e+06
1.32381e+06
352479
2.15124e+06
1.53819e+06
1.43438e+06
768429
32318.5
8373.19
6254.64
354716
298322
275139
326347
192368
196531
1.15502e+06
659914
825391
357250
1.11262e+06
351680
319056
27539
8061.41
5194.22
298349
273842
71044.7
137591
39267.6
335866
507056
385312
466063
503298
168263
63047.7
135661
37247.5
333732
464504
123576
718999
888457
656224
747959
2621.75
1.21538e+06
461847
413472
87835.7
224807
200306
541181
612872
841176
172535
599060
323929
524828
763305
999896
706117
1.08305e+06
1.55146e+06
1.46204e+06
831340
1.19026e+06
1.59055e+06
575841
247986
129224
365909
247433
572232
663442
155.677
79419.4
31.739
118594
3.73852
19181.6
35.8916
810007
1.18599e+06
760024
691657
1.08517e+06
734978
1.06961e+06
1.08344e+06
813880
732744
1.18482e+06
760409
689891
1.06752e+06
2.02218e+06
1.72399e+06
16093.4
2.22029e+06
1.59281e+06
1.18479e+06
1.00197e+06
1.32133e+06
2770.59
733.712
784832
850568
509973
798422
352294
565832
314511
533208
628456
835026
861797
316115
566468
534450
661426
630491
837308
863301
420431
551047
368488
688385
976667
781903
865088
545598
975825
755328
1.15167e+06
940362
1.16626e+06
1.34792e+06
718352
1.05195e+06
835625
1.07737e+06
751754
1.04336e+06
809786
1.07884e+06
748984
832199
715800
1.07604e+06
1.04098e+06
806995
497499
559263
404579
695423
904329
844654
769723
429891
624382
523411
699841
797847
917061
998702
1.11526e+06
907848
811751
909449
1.26664e+06
1.02275e+06
1.13811e+06
1.73649e+06
1.48704e+06
1.08901e+06
1.53524e+06
1.22e+06
1.44384e+06
1.8165e+06
1.49728e+06
1.13391e+06
983921
1.30787e+06
1.70951e+06
1.43392e+06
1.6405e+06
894953
199.694
0.122056
297730
944409
337.648
1.00243e+06
1.08659e+06
814675
884422
895757
1.07715e+06
1.08793e+06
953463
1.75895e+06
1.7914e+06
1.97284e+06
1.53884e+06
2.02285e+06
1.86599e+06
1.80596e+06
965316
1.1202e+06
946062
1.12403e+06
1.04504e+06
1.06797e+06
1.13394e+06
1.1401e+06
824223
796601
1.12137e+06
1.23735e+06
1.13792e+06
1.24505e+06
1.15482e+06
1.13834e+06
795424
1.11884e+06
1.23505e+06
1.1354e+06
1.24475e+06
969060
1.11958e+06
948863
1.12562e+06
1.04293e+06
1.13625e+06
1.06545e+06
620897
970311
806142
1.03375e+06
899818
1.10151e+06
1.19169e+06
1.1793e+06
1.34664e+06
1.45171e+06
1.42468e+06
1.59184e+06
1.89133e+06
1.6688e+06
752611
1.1606e+06
1.03762e+06
1.20274e+06
1.06883e+06
1.19642e+06
1.34474e+06
695063
627142
577089
146323
115262
97574.3
71760.4
1.02436e+06
1.21716e+06
1.25847e+06
968433
1.15306e+06
1.12056e+06
1.10496e+06
1.19152e+06
1.23708e+06
983779
1.21095e+06
1.17172e+06
1.21423e+06
1.14389e+06
1.27861e+06
1.67322e+06
1.45695e+06
1.79555e+06
1.59998e+06
1.83036e+06
1.91163e+06
735316
1.04104e+06
988442
1.05974e+06
1.01759e+06
1.12745e+06
1.12457e+06
409803
643.703
5840.17
643337
714512
6744.24
24749.6
52.6172
698078
155701
709596
656597
166951
119307
110522
717514
655165
662470
166209
172175
122159
115719
989388
1.00388e+06
903136
1.0863e+06
1.06972e+06
1.04721e+06
1.03257e+06
1.64553e+06
2.08549e+06
1.94008e+06
2.06222e+06
1.78448e+06
1.9579e+06
1.86663e+06
1.53321e+06
1.52139e+06
1.3668e+06
1.59131e+06
1.92509e+06
1.76442e+06
1.89172e+06
1.00808e+06
1.03861e+06
1.06543e+06
982058
1.15544e+06
1.17106e+06
854999
45908.8
593596
504562
403786
24540.2
504687
45934.2
550155
423441
564261
66943.9
24889.3
61309.3
27162.9
410775
62870.7
557163
424844
568207
68047.5
27246.6
2.0789e+06
1.8063e+06
1.71862e+06
2.10692e+06
2.26439e+06
2.2958e+06
2.06901e+06
1.15742e+06
1.40313e+06
1.24611e+06
1.06885e+06
752955
626078
1.21369e+06
1.16913e+06
1.16319e+06
1.15116e+06
1.26036e+06
1.17018e+06
1.10244e+06
914615
2.14708e+06
1.7097e+06
1.84091e+06
2.09892e+06
1.30867e+06
2.04133e+06
1.66755e+06
1.19811e+06
713497
226808
852647
758140
1.18554e+06
895645
1.19766e+06
226897
857238
714734
1.18656e+06
756054
894651
903814
1.10254e+06
1.11591e+06
1.13535e+06
324071
984036
634008
1.26555e+06
1.22975e+06
1.10433e+06
1.23165e+06
714292
1.15526e+06
992799
370708
50357.6
522071
305541
463361
34835.3
12604.8
2.03101e+06
2.14931e+06
1.95607e+06
2.13916e+06
2.25971e+06
2.12633e+06
2.14575e+06
1.5997e+06
1.849e+06
1.93873e+06
2.01696e+06
715321
1.57942e+06
1.47741e+06
1.25477e+06
690329
1.12342e+06
921911
340300
1.04381e+06
282423
1.08129e+06
1.17506e+06
1.16987e+06
995192
436102
552763
924453
624220
1.02808e+06
1.05988e+06
851529
148513
232859
758435
616087
256505
1.42959e+06
1.8792e+06
1.38888e+06
1.39358e+06
1.23117e+06
255924
88511.7
53641.7
213402
655644
476502
718075
413605
720690
88682.1
475883
54012.3
213205
656967
413430
1.3424e+06
1.34644e+06
578234
953505
1.4751e+06
987945
1.48339e+06
624534
1.00275e+06
1.52258e+06
1.36351e+06
581588
958472
1.5014e+06
1.17389e+06
980283
1.65268e+06
1.4022e+06
1.21632e+06
1.62807e+06
927197
1.66899e+06
1.43196e+06
987004
1.17836e+06
1.40054e+06
1.63085e+06
928564
1.34839e+06
1.67246e+06
1.70829e+06
1.88681e+06
1.36578e+06
1.69986e+06
1.6805e+06
1.7266e+06
1.73612e+06
1.93633e+06
1.35642e+06
1.90677e+06
1.70608e+06
1.70034e+06
276420
3509.77
135969
231247
380740
21506.2
7779.64
602258
749493
1.15051e+06
1.06287e+06
51148.6
419323
569480
2867.08
267648
9944.23
217417
379860
20807.6
6906.64
1.27469e+06
570645
1.11059e+06
320964
902728
446658
50399.6
181.062
102.81
3548.29
6482.27
203.523
115.155
3934.57
211.494
118.082
195.632
107.337
6332.88
3727.81
4043.07
142.403
79.7643
2807.03
97.3044
53.6502
3347.84
1936.01
83.0797
5199.9
2959.55
54.9568
105.821
3689.88
2016.85
2.24644e+06
2.29459e+06
1.17653e+06
2.17207e+06
2.09694e+06
1.84607e+06
2.27122e+06
1.19497e+06
563089
1.07784e+06
232180
763223
412207
47230.6
938306
75733.3
660858
48068.4
557705
226682
7125.35
883126
13629.3
48737.1
100723
576045
203013
321227
1.86961e+06
406489
318458
200746
1.38686e+06
1.02227e+06
1.06487e+06
474847
104153
1985.24
45884.5
73492.1
570815
33461.7
29.3963
31.5027
15.5775
1100.06
617.716
2061.93
1180.02
62.6311
2278.41
15.2807
31.7181
1212.6
618.586
1213.28
409334
28210.8
1455.12
12435.5
54238.1
24452.8
297251
46.6643
1707.74
16.4916
51.9419
18.3254
1888.72
708.282
47.2483
18.3309
16.2264
636.742
1740.9
1917.82
709.74
36.0822
1342.17
12.662
23.9597
8.11374
920.515
336.125
12.0362
483.943
1350.79
7.36941
23.1385
903.458
309.817
132992
121347
657038
70732.1
181.588
3778.96
3481.03
6383.8
13562.6
210141
24830.4
31.0337
586.063
1260.82
-80716.1
-81859.1
-82990.7
-82607.3
-84284.2
-85728.7
-82697.1
-84863.7
-81712
-80694.8
-80915.2
-81271.7
-81101.5
-81426.6
-81564.7
-82239
-82228.5
-81249.1
-82467.4
-81549
-81814.1
-82983
-82548.3
-81693.6
-82867.5
-83148.8
-81939.6
-82266.4
-83438.1
-83154.2
-82588.6
-82043.8
-83030.6
-82143.3
-82241.6
-83596.1
-79926.3
-80579.6
-80670.7
-81008.8
-80415.4
-80608
-80653.3
-80768.7
-80596.7
-80513.3
-81230.8
-80266.5
-80820.6
-82212.8
-80875
-80779.1
-80950.7
-81589.8
-80568.1
-82515.6
-80919.3
-80766.1
-81525.6
-81758.2
-81898.5
-81178.1
-82538
-81196.8
-83840.2
-82999.9
-83260.5
-84455.3
-82346.2
-83852.4
-83688.7
-83162.6
-83328.5
-84912.9
-83543.5
-82590.5
-84179.7
-83971.6
-84555.5
-83879.8
-83381.3
-83839
-83007.3
-84275.7
-84159
-85262
-83882.6
-85161.1
-85351.2
-84741.6
-84588.7
-84574.1
-82440.2
-86263.8
-84855.1
792900
962584
776220
-82778
-80652.8
716398
-87979.2
-85084.4
-88379.5
-84929.5
-86089.1
-85259.3
-82631.9
-81508.7
-70305.1
-81215.1
-69613.6
-82321.4
-70054.4
-70193.4
-83521.1
-83151.6
-84136.6
-84880.1
-83330.5
-84251.2
-83958.9
75751.3
730288
731625
69801
747315
72407.8
72074.9
-83862.8
-84721.6
-84576.5
-85337.8
-85162.8
-85734.8
-84569.9
-82113.6
-69890.4
-69932.5
-83184.5
-70068.6
-82540.5
-69964.9
-69995.9
-82722.4
-70070.9
-82362.3
-82771.4
-69735
-70451.1
-85721.6
-84301.8
-84878.3
-85435.8
-85846.2
-86467.3
-84886.5
-85448.1
-85295
-85463.7
-84263.6
-84911.5
-85813.6
-84916.4
-87152.7
-85857.6
-85373.4
-85844.2
-88212.9
-86902
-86359.9
85785.7
81970.9
828110
750982
93295.1
774191
77127.4
80906
809358
81463.3
750478
88804.9
770649
75754.4
-85766.2
-86936.2
-85753.5
-85711.7
-86106.8
-86197.8
-85349.3
-65256.8
-69763
-84803.8
-84127.8
-69796.2
-82781.4
-70213
-88550.2
-85944.7
-87228.8
-86569.7
-87702
-85393.9
-87061.2
-82093.6
-82199
-84184.4
-83888
-84214.1
-85421.7
-85560
-85068.6
-82256.3
-82164.6
-82562.3
-83157.9
-82951.1
-82672.7
-83519.2
-82110.3
-82580.8
-82274.1
-83174
-83000.4
-82679.3
-83552.4
859582
-89034.3
-84925.4
-84261.1
-83350.7
-83902
-83041.6
-83945.1
-84656.4
-84142.4
-84869.5
-83354.1
-84256.7
-83050.4
-83948.2
-84632.4
-84811.8
-84538.5
-85141.1
-83807.5
-84379.6
-84051.5
-83465.3
-84328.2
-84428.1
-83727.4
-84184.7
-84788.7
-84036.8
-83457.7
-70031.8
1.27927e+06
-54809.9
-82901.7
95863.1
201912
-51050.4
-86685.6
-31726.4
-68213.6
-85568.5
-88199.4
-68055.6
-27293.1
-86259.2
-85740.3
-86576.7
-85485.4
-84960.2
-84700.9
-85270.2
-86634.1
-85709.9
-84963.5
-85417.9
-86286.2
-84705.7
-85305.2
-85971.1
-85539.3
-86241
-88256.7
-88059.8
-88358.6
-87920.8
-83317.1
-82837
-70051.1
-67768.8
-85078
-66846.4
-85059
-83430.3
-70196.9
-70162.5
-67853.3
-85238
-85126.7
-66949
-86272.4
-86069.8
-86778
-88289.4
-88220
-87972.9
-88439.5
689860
707744
-69357.5
-69481.9
772899
-81919.4
-81739.4
783468
-69431.5
-80662
-80376.6
-69487.8
-80961
-69620.4
-80859.3
-69408.5
-80465.7
-80694.5
-69551.3
-81058.9
-80899.9
-69712.9
67055.5
702729
68179.4
69411
717140
708460
70366.7
68867.2
692103
67414.2
69768.7
723631
71048.9
711204
-69392.1
-81706.4
-69563.9
-81651
-81437.8
-69249.2
-69664.1
-69238.5
-81549.6
-81565.8
-69253.2
-69363
-81378.1
-69088.6
73408.6
736586
81635.6
764465
79949.4
729735
74429.7
73875.9
744376
768320
82612.6
75262.5
80458.7
732947
836877
97469.2
93468.9
122903
978739
130807
947361
-87382.8
-86925.7
-88511.6
-88438.7
-88403.8
-88451.1
-88622.2
842864
831269
92794.2
128267
952721
121891
938791
-89057.9
-87440.9
-88406.7
-86942.2
-88528.8
-88430.1
-88542.3
135415
89531.6
883845
871783
106801
102816
811109
-88369.7
-86333.8
-89643.3
-89397.9
-88232.9
-87184.1
-87600
-54596.2
-79892.9
17891.4
-61109.4
-50965
-81106.4
766.004
18520.6
-55200.5
-80128.6
-54702.1
-61271.1
-81198.9
683.946
-85559.6
-84790.3
-68726
-72192.3
-84996.7
-85414.8
-72371.2
-84990.7
-84919.6
-68167.8
-85571.8
-72215
-85466.5
-72261.4
1.09728e+06
353144
1.23514e+06
188660
1.2299e+06
328901
1.0843e+06
-84889.8
-79950.9
-62409.6
-44360.6
-84113.2
-81781.7
-67392.2
-79225.8
-83859.4
-60829.1
-84827.1
-43262.7
-81569.4
-67028.9
190396
1.13449e+06
359809
1.24597e+06
206208
331417
1.09723e+06
623367
900743
512498
-89744.5
943761
1.06349e+06
-64530.3
-68784.3
1.3272e+06
-32170.9
1.45756e+06
420854
-83277.4
-75295.9
-87548.9
8699.98
-54677.6
321380
403181
-69802.7
-85348.3
-84353.5
-84457.6
-64504.4
-58337.6
-82021.9
-88462.1
-88037.3
-86871.1
-87865.5
-88065.2
-86244.8
-86501.5
928270
-26114.6
55942.4
458482
1.07765e+06
289574
949336
966622
120644
105572
1.03367e+06
147245
179057
1.11713e+06
-89402.5
-88208.6
-88877.7
-87244.3
-87955.6
-85885.8
-83200
1.74326e+06
1.45286e+06
1.73927e+06
1.30876e+06
1741.65
1.48756e+06
676200
1.2003e+06
523833
1.44431e+06
-64834
-20152.3
558997
551672
-83465.1
-87788.4
-87502.9
-59041.9
-80914.3
-81213.5
-59418.9
-50273.7
-77541.9
-84097.7
-39855
-40723.8
21589.9
-73962
-82552.4
-55918.6
-82805.5
-7657.05
-74718.6
-75178.7
-10827.5
-75989.2
63050.1
-40912.3
-12986.8
35283.6
162235
-64094.6
149066
1.18701e+06
207366
240639
1.32705e+06
352472
1.22522e+06
-81796.1
-86310.7
-87535.8
-78862.6
-5684.42
-47507.4
-68311.4
-73259.2
-42381.5
-80945.6
-70670.2
94759.9
15369.5
-49553.5
1.19527e+06
416912
239686
303971
1.37922e+06
517576
1.27426e+06
-32.8065
18640
209758
69258
285225
331580
418918
66619.2
117444
185221
595035
239182
338965
-18781.6
63291.1
115245
-44286.7
-45734.6
283438
56297.1
102219
-50095.1
71888.3
85154.4
162790
186384
461223
335205
-65029.3
28796.8
39030
24682.6
34507.3
228170
255568
-29553.2
174410
237002
316068
87814.1
138551
25908.1
-55486.8
127463
51208.3
142254
62965
259143
336825
412138
1.40853e+06
1.42432e+06
847379
574005
668925
1.35086e+06
165276
304875
165054
525726
395913
525618
639356
320845
1.40014e+06
1.40254e+06
497531
520269
724055
1.44052e+06
118897
386786
201474
657081
489199
568975
725743
632318
966921
697212
974995
734580
793273
980739
752674
332805
446944
752503
913140
1.01894e+06
623015
357878
855819
504838
786516
932509
1.08219e+06
634490
460000
252612
223904
459947
790486
703347
523607
275370
487947
245564
465236
798014
528769
708006
1.00948e+06
324641
588315
939771
1.20039e+06
4893.59
1.05293e+06
295289
635486
521657
335937
336765
169108
1.43945e+06
1.16571e+06
-54139
1.22347e+06
-39658.6
834980
-69358.5
255860
-84063
-77462.9
-68359
-80912.5
-85112.6
-89529.3
-70455.4
-82307.8
-83697
-84465
-70118.1
-66979.9
-84633.2
-86470.7
-85800.6
-87116.6
-87121.6
-87712
-88136.9
-87852.7
328356
847656
411455
-48718
341432
-20866
-89021.7
911901
90501.5
103833
927990
108527
135036
1.03282e+06
-87412.7
-86353.7
-87804.4
-89670.8
-88287.7
-87940.7
-87466.1
1.5279e+06
1.34887e+06
67372.6
1.63908e+06
1.34938e+06
1.89329e+06
1.83216e+06
529383
25736.6
-44201.1
978500
844932
1.04051e+06
1.03806e+06
-78875.3
-67627.4
-84797.9
-54094.1
-52616.2
-78867.2
-3949.32
-73911.6
-84094.4
-64475.9
-50144.1
-40481.8
22111
-77516.4
-84258.2
-87948.9
-88234.4
-84262.2
-66358.8
-84064.3
-66599.8
-81227.3
-87510.3
-87796.6
-83485
-59013.1
-59469.3
-83287.6
-87434.5
-90254.7
-88584.7
-80347.2
-81772.4
-78025.4
-44338.3
192778
1.02287e+06
131528
192809
1.3011e+06
310555
1.16536e+06
240737
1.06184e+06
148903
207430
1.32545e+06
352832
1.1859e+06
-82799.4
-87599.4
-88080.5
-82804.4
-23826.7
-77467.4
-58093.1
-78889.4
-86325.4
-87546.1
-81820.1
-5776.25
-47593.2
-75321.3
-69266.1
-87163.2
-78392.4
783270
723314
-81282.7
-69797.7
811052
929463
-70133.5
-84490.3
-84072
-84633.9
-85958.8
-85598.6
-87839
-87457.9
-80548.7
-69426.9
-69752.9
-81023.3
-69704.8
-69727.9
-81817.3
-83116.5
-83410.1
-82562.6
-84731.5
-83225.1
-83897.9
-84008.7
-65848.2
344180
-88287.2
-87526.5
14584.8
-81775.2
-90035
70590.1
76634.6
738127
739047
72877
73286.1
757679
-85332.9
-84723.4
-83862.2
-85321.6
-85233.5
-84568.3
-85821.4
-69210.6
-82180.2
-82170.9
-69278.4
-81819.2
-69757.5
-82177.1
-69515.5
-82897.6
-82151.7
-81800.7
-69361.3
-69462.4
-82041.4
-84957.4
-85193
-85634.3
-85190.8
-83970.3
-84717.2
-84486.6
-86391.5
-84777.4
-85672.8
-84904.8
-84117.9
-85266.4
-84581.2
828389
81619.9
89204.3
81663.7
756407
76325.3
783745
857603
95106.6
87114.1
82965.2
762458
78142.4
790401
-87249.3
-88366.5
-86247.7
-86936.3
-85364.8
-85795
-86487.4
-85898.1
-86542.2
-86427.5
-88747
-87026.3
-88997.8
-89548.3
-86201.5
-85687.6
-86190.8
-85686.5
-85801.4
-85316.6
-86200.8
-67014
-84633.3
-84450.1
-70461.3
-83689.6
-69365.3
-82299.6
-88124.5
-87710.6
-87115
-86467.2
-87115.5
-85798.8
-85109.2
-74998.7
-87564.1
-87169.9
-72096.9
-86779.4
-85526.3
-63310.3
108740
1.03376e+06
135134
912433
103906
90635.6
835995
-87929.7
-89663.6
-88284.8
-89526.6
-87803.2
-86353.3
-87411.4
-90061
-90527.9
-88560.7
-88551.9
-89907.6
-89569.4
-86065.7
-89738.8
-87888.8
-86919.6
-89365.7
-87887.5
-89741.8
-87739.9
-36557.5
-81962.8
-85884
-81975.2
36778.8
-70346.5
-36646.3
-52394.9
-74627.1
-84169.2
-80297.4
83494.2
-59638.5
-23577.7
-88584
-89021.3
-90252.5
-87444.5
-44398.5
-80357.1
-78051.2
2032.8
461758
72085
85672.6
187118
-49978.5
163052
-65062.5
228214
28843
39163.4
34451.1
-64830.6
24659.3
-45771.3
63549.5
56277.1
115643
102231
283583
321970
-18414.4
118204
240156
186137
340088
596123
422118
-55539.3
259131
127447
142165
62864.7
-20193
51173.5
-24022
-68238.8
47369.7
197927
-11044.1
98146.7
344330
59897.5
-82429.9
-48784.2
67544.4
-48781
59939.2
235204
-78482.2
98453
-41212
116428
-29004.7
76117.6
275935
321076
724180
1.39971e+06
1.4012e+06
520691
497673
1.3079e+06
412587
1.40667e+06
574649
1.42219e+06
669599
847813
1.4556e+06
-29653.1
174219
87680.8
236624
138363
315935
402885
168945
-24107.8
97967.5
-68301.5
197588
-11249.5
47082.6
786969
358910
505726
856471
934132
677555
1.0829e+06
465412
275842
245639
488301
799102
559835
708462
485396
629856
425730
260732
485446
88154.4
260791
332845
460246
255251
460280
727625
675901
512547
607788
324384
496794
908279
760396
660609
807548
919475
1.44022e+06
712026
919481
1.48643e+06
1.10551e+06
1.45331e+06
1.44267e+06
1.02007e+06
766196
950937
1.52877e+06
1.17917e+06
1.46408e+06
356607
495768
275952
469616
745986
688076
521817
458569
607940
496918
760492
660718
807805
908644
581459
443138
263138
429972
275359
74097.9
244603
472084
705864
579751
513948
391935
131500
286261
1.16748e+06
1.15419e+06
942418
546980
756493
976628
769984
866242
783299
689158
421131
368647
551567
632749
935649
858121
969275
774751
977232
858054
969360
745736
687999
469554
356410
551445
275841
495726
1.17923e+06
1.46296e+06
950940
1.44097e+06
766508
1.0201e+06
1.48611e+06
904153
623798
695516
769398
497051
404391
559290
984895
973206
849324
897555
908189
1.01023e+06
970386
1.70869e+06
1.43412e+06
1.3079e+06
1.49529e+06
984327
1.13388e+06
1.53665e+06
1.03326e+06
1.31332e+06
1.80946e+06
1.31403e+06
1.34678e+06
1.37575e+06
912381
699797
1.28009e+06
1.16216e+06
1.15231e+06
1.04859e+06
786581
1.03837e+06
739547
938970
739727
1.189e+06
1.04697e+06
881646
1.04728e+06
862787
949815
931981
835985
1.04868e+06
1.07781e+06
720231
904857
791511
670357
1.1751e+06
991070
1.09912e+06
1.20977e+06
584527
1.17359e+06
806247
609297
893188
646569
436298
1.45361e+06
1.66983e+06
1.34927e+06
1.59386e+06
1.42716e+06
1.1803e+06
1.00414e+06
1.19575e+06
1.34432e+06
1.16203e+06
1.20411e+06
1.06953e+06
753455
852122
1.00936e+06
720395
862853
949659
836120
1.04849e+06
932144
1.12312e+06
1.65029e+06
1.56666e+06
1.59912e+06
1.32641e+06
1.36871e+06
1.49674e+06
676590
1.03662e+06
1.19423e+06
1.03763e+06
988844
986054
730626
1.91239e+06