/*--------------------------------*- C++ -*----------------------------------*\
  =========                 |
  \\      /  F ield         | OpenFOAM: The Open Source CFD Toolbox
   \\    /   O peration     | Website:  https://openfoam.org
    \\  /    A nd           | Version:  9
     \\/     M anipulation  |
\*---------------------------------------------------------------------------*/
FoamFile
{
    format      ascii;
    class       volVectorField;
    location    "0.0007";
    object      rhoU;
}
// * * * * * * * * * * * * * * * * * * * * * * * * * * * * * * * * * * * * * //

dimensions      [1 -2 -1 0 0 0 0];

internalField   nonuniform List<vector> 
6841
(
(-0.000562802 0.00024873 0.00259832)
(-0.102614 0.0296508 0.394297)
(-0.597012 0.420955 1.9182)
(-1.11313e-05 5.02835e-06 2.55171e-05)
(-0.00267671 0.000643963 0.00855176)
(-0.141969 0.0354065 0.393533)
(-234.75 64.9415 413.477)
(-0.515589 0.27736 1.1524)
(-5.75108 1.61464 15.9219)
(-1.06366 0.2903 3.0626)
(-62.542 16.5022 108.912)
(-173.208 70.502 303.007)
(-36.0154 13.928 66.1128)
(-3.61788 1.50714 10.3458)
(-0.60559 0.238975 1.76966)
(-37.0867 25.5309 72.3878)
(-5.24423 3.30446 11.7491)
(-100.112 54.489 178.071)
(-15.8113 7.98425 31.7396)
(-1.72416 0.968578 5.21858)
(-0.266882 0.135948 0.798144)
(-0.086793 0.0538965 0.264593)
(-8.10087 2.01434 16.3764)
(-0.75405 0.166019 1.54059)
(-0.0142614 0.00307379 0.0348022)
(-0.382887 0.118578 0.790037)
(-4.41693 1.59294 9.27403)
(-0.0764184 0.0270312 0.210406)
(-0.00725099 0.00219382 0.0174257)
(-0.0191051 0.00535538 0.0702384)
(-0.00195621 0.000491757 0.00907919)
(-0.000415992 9.19188e-05 0.00160762)
(-0.00116624 0.000613131 0.00545861)
(-0.0617846 0.0264803 0.243239)
(-0.010934 0.00443166 0.0399224)
(-0.000234466 0.000110417 0.000900669)
(-0.0396076 0.0176813 0.0805901)
(-0.145079 0.055151 0.301452)
(-1.77193 0.799597 3.8359)
(-0.0311689 0.0133973 0.0842598)
(-0.000774686 0.00034527 0.00173594)
(-0.00276243 0.000985959 0.00644318)
(-0.00923024 0.00485653 0.0246957)
(-0.000208408 0.000191227 0.000928597)
(-0.0103116 0.00743971 0.0422538)
(-0.0288392 0.0167352 0.117984)
(-0.00484876 0.00244428 0.0174546)
(-4.05806e-05 2.67942e-05 0.000142972)
(-0.000105191 4.02e-05 0.000394698)
(-0.00157654 0.000974029 0.00551132)
(-2.638e-05 1.7187e-05 5.92513e-05)
(-0.000288008 5.20422e-05 0.000772026)
(-6.48794e-05 2.06472e-05 0.00021957)
(-0.00144113 0.000511951 0.00448675)
(-1.71235e-05 5.89644e-06 3.79893e-05)
(-3.91312e-05 1.70958e-05 0.000125625)
(-0.000152562 5.60906e-05 0.000393213)
(-0.000565747 0.000237639 0.00171628)
(-1.30028e-05 6.75311e-06 3.68826e-05)
(-1.2461e-05 4.44607e-06 2.87322e-05)
(-2.63492e-05 1.23164e-05 6.04035e-05)
(-2.00961e-05 7.57605e-06 5.99639e-05)
(-5.99335e-05 1.89446e-05 0.000151548)
(-0.000173123 7.81187e-05 0.000507145)
(-1033.8 65.2503 85.0188)
(-279.085 59.1979 182.049)
(-2879.47 544.866 293.013)
(-1090.18 74.1184 335.95)
(-2560.3 509.415 687.641)
(-1336.16 427.175 225.461)
(-2611.75 1171.65 314.875)
(-1336.53 519.899 455.391)
(-2354.91 1079.91 437.274)
(-1001.41 67.7987 171.117)
(-1099.74 95.5175 123.764)
(-1060.76 98.7151 197.446)
(-1443.58 143.587 174.967)
(-1381.73 137.68 234.995)
(-1488.38 269.887 253.656)
(-1570.11 279.049 212.028)
(-2284.74 499.14 1799.08)
(-1251.97 173.289 483.333)
(-2497.95 503.644 941.538)
(-2275.95 1186.53 1759.44)
(-1818.07 849.331 976.441)
(-295.64 143.668 199.004)
(-2151.91 1038.74 1093.8)
(-1017.71 54.9348 258.533)
(-1171.44 182.845 369.396)
(-1081.71 118.294 279.392)
(-1561.48 233.608 463.47)
(-1438.49 168.591 337.488)
(-1541.03 304.476 365.339)
(-1640.78 380.758 496.271)
(-1916.49 745.059 285.373)
(-1257.92 412.126 243.744)
(-1805.95 716.832 290.147)
(-1202.91 237.034 177.571)
(-1141.96 230.404 216.463)
(-1613.83 449.999 272.275)
(-1706.19 462.606 249.82)
(-2211.81 336.298 260.39)
(-2670.37 514.507 304.587)
(-2097.91 340.277 287.289)
(-2193.57 548.145 292.198)
(-2864.41 789.257 293.788)
(-2333.64 557.721 279.977)
(-2647.85 738.003 302.401)
(-1278.42 440.251 342.38)
(-1813.85 750.319 406.186)
(-1906.64 838.306 570.931)
(-1260.44 325.719 416.961)
(-1180.56 258.893 309.053)
(-1648.82 493.349 387.944)
(-1743.97 578.396 531.915)
(-1319.16 279.23 532.361)
(-1456.35 255.548 738.374)
(-1732.45 302.457 669.394)
(-1511.95 395.036 790.595)
(-1817.77 474.539 712.878)
(-2034.17 396.603 1019.81)
(-2137.2 604.329 1086.43)
(-2592.68 506.104 460.25)
(-2179.03 410.803 597.954)
(-2101.79 370.997 417.43)
(-2185.73 569.102 427.031)
(-2492.76 711.708 669.129)
(-2562.44 720.275 452.037)
(-2249.97 612.587 620.38)
(-1478.82 643.157 636.886)
(-2354.74 1144.69 1247.69)
(-2117.37 973.353 844.554)
(-1374.71 432.141 580.288)
(-1608.21 582.31 859.179)
(-1937.46 692.424 766.931)
(-2262.94 856.991 1170.43)
(-2573.68 1181.28 266.335)
(-2418.49 1097.22 304.526)
(-2312.03 1069.39 236.09)
(-2315.75 800.075 300.808)
(-2778.58 1019.36 289.137)
(-2474.77 836.896 298.239)
(-2541.42 943.375 280.466)
(-1817.55 371.253 1180.66)
(-2319.18 731.05 1823.6)
(-1932.7 569.683 1270.7)
(-2401.78 521.763 1796.13)
(-2420.41 505.843 1546.6)
(-2438.64 738.761 1570.75)
(-2292.36 713.209 1702.75)
(-2191.32 1011.94 357.33)
(-2364.3 1102.69 666.831)
(-2020.08 932.719 524.916)
(-2285.85 808.06 435.053)
(-2332.47 875.361 619.44)
(-2441.79 910.546 418.911)
(-2325.19 849.045 646.983)
(-2354.58 458.045 886.206)
(-2360.28 679.841 890.726)
(-2396.64 674.46 917.955)
(-2209.08 446.533 1076.53)
(-2532.67 516.804 1278.63)
(-2502.19 737.601 1274.77)
(-1954.14 565.212 949.109)
(-2249.87 1126.08 1510.83)
(-1609.77 807.751 1169.62)
(-2306.4 1158.41 1480.85)
(-2335.11 975.586 1830.28)
(-2088.93 819.199 1384.76)
(-2422.93 974.726 1569.2)
(-2064.64 834.65 1517.07)
(-2353.68 1123.7 932.212)
(-1632.19 764.216 614.613)
(-862.258 415.044 426.218)
(-2108.98 791.706 790.633)
(-2420.54 913.39 949.154)
(-2391.26 935.132 1224.59)
(-1511.83 580.352 740.156)
(-2347.9 363.938 486.496)
(-1717.36 175.786 313.144)
(-3331.32 598.153 509.861)
(-4436.37 775.348 225.576)
(-3114.7 1259.77 89.7067)
(-3771.52 1543.54 213.161)
(-2047.33 689.558 461.715)
(-3389.84 1373.87 702.187)
(-1274.48 81.3965 96.0182)
(-1347.52 133.138 167.365)
(-1851.08 288.824 395.661)
(-1755.06 181.772 240.021)
(-2356.25 300.846 472.042)
(-2433.18 457.247 495.209)
(-1878.44 327.561 287.26)
(-3564.27 636.296 -242.082)
(-3429.52 835.398 -113.576)
(-2435.11 521.683 510.158)
(-3789.42 663.523 14.4911)
(-2926.37 461.374 555.819)
(-2941.23 659.891 547.643)
(-3661.74 896.39 79.3375)
(-2559.09 971.312 504.111)
(-1588.4 503.255 294.21)
(-2160.11 825.419 371.704)
(-1473.73 296.43 244.853)
(-1994.97 462.73 446.057)
(-2485.4 681.08 498.708)
(-1989.08 528.191 326.415)
(-2538.72 374.408 353.805)
(-3879.62 648.098 716.515)
(-3058.02 458.009 555.8)
(-3124.27 702.995 566.653)
(-3334.39 883.964 560.365)
(-3904.05 959.495 772.11)
(-2663.89 612.051 395.1)
(-2512.97 961.087 495.648)
(-3376.1 1379.79 157.986)
(-2940.98 1163.85 507.252)
(-3273.14 1038.97 13.0045)
(-2500.51 723.345 513.019)
(-2946.34 896.909 524.436)
(-3517.52 1135.52 130.948)
(-4127.72 728.488 155.933)
(-4122.23 701.239 668.769)
(-3518.18 584.6 575.97)
(-3508.38 839.226 571.784)
(-4347.86 1084.2 232.713)
(-4111.79 1004.09 696.66)
(-4000.41 1000.3 177.402)
(-3914.56 1653.45 1002.32)
(-3000.04 1293 549.027)
(-3191.43 1431.76 680.28)
(-3220.82 1005.26 606.103)
(-3305.16 1174.3 620.654)
(-3919.93 1298.83 864.613)
(-2807.17 914.113 454.013)
(-3530.66 1419.83 616.472)
(-4222.66 1715.85 275.54)
(-4158.63 1677.92 821.496)
(-3498.25 1115.55 579.831)
(-4267.6 1392.87 247.826)
(-4119.67 1325.61 745.153)
(-3873.66 1268.79 194.705)
(-1616.43 339.091 1142.15)
(-1350.35 278.839 795.55)
(-2420.14 509.201 1498.81)
(-2261.03 679.436 1393.07)
(-133.607 37.8368 84.0601)
(-967.896 291.697 568.769)
(-1266.33 388.253 887.252)
(-10.6674 3.28368 5.48767)
(-1390.27 680.918 846.197)
(-162.378 71.9011 87.1372)
(-1951 764.79 1192.4)
(-43.6226 13.8193 25.3902)
(-511.47 203.326 297.332)
(-769.108 314.552 534.822)
(-302.827 89.2215 21.9444)
(-880.943 184.523 859.858)
(-311.639 81.9957 141.213)
(-607.79 92.8924 34.6771)
(-775.412 70.7103 271.917)
(-335.811 201.516 168.654)
(-308.397 197.804 20.9024)
(-748.911 231.93 160.45)
(-785.602 209.456 313.772)
(-292.316 86.3139 63.8194)
(-306.472 88.2911 63.3642)
(-305.921 89.2044 20.8925)
(-274.626 117.776 20.5147)
(-269.68 115.406 60.8233)
(-327.725 124.528 63.4595)
(-328.578 125.958 20.6758)
(-1710.39 379.254 1421.42)
(-902.005 60.2737 368.372)
(-351.716 78.8131 202.436)
(-624.751 296.333 652.729)
(-420.46 227.001 286.266)
(-1532.16 821.746 1380.08)
(-949.285 388.342 602.863)
(-243.606 77.4852 129.971)
(-278.235 82.1828 103.881)
(-306.554 87.0263 104.589)
(-245.574 110.782 130.457)
(-260.159 112.154 99.4814)
(-331.166 122.338 105.383)
(-345.374 119.453 151.58)
(-305.734 195.98 63.8695)
(-459.873 230.709 90.2604)
(-468.685 233.843 31.9723)
(-272.185 153.871 19.8495)
(-270.906 152.487 60.8996)
(-367.312 165.668 67.7646)
(-370.085 167.251 22.5015)
(-401.188 84.2726 65.8176)
(-402.78 85.4231 21.9347)
(-599.631 92.1138 92.6537)
(-455.086 132.064 75.0998)
(-767.301 132.503 51.998)
(-459.045 133.072 25.6261)
(-751.828 132.515 128.231)
(-311.232 196.895 109.269)
(-563.785 232.386 267.684)
(-488.139 231.235 161.029)
(-278.249 148.585 139.315)
(-271.886 152.231 101.503)
(-378.046 165.912 117.145)
(-420.233 167.074 186.084)
(-249.183 77.8398 165.327)
(-307.458 79.5639 250.728)
(-272.941 109.94 178.682)
(-357.241 127.186 293.548)
(-414.583 122.763 239.557)
(-503.023 94.9068 355.925)
(-609.376 134.61 427.615)
(-454.599 86.5698 178.267)
(-412.121 84.9997 112.634)
(-653.36 90.2542 166.142)
(-475.712 133.65 132.623)
(-873.363 87.9245 305.698)
(-556.787 127.664 219.355)
(-796.04 116.326 216.938)
(-770.606 232.047 77.9783)
(-989.85 244.294 157.736)
(-946.738 242.474 196.97)
(-578.554 185.4 103.536)
(-923.378 144.761 95.0925)
(-588.941 186.888 38.3986)
(-891.615 147.438 173.777)
(-757.36 213.115 249.492)
(-1023.38 329.223 371.374)
(-969.743 267.497 278.018)
(-617.879 180.099 183.64)
(-939.67 172.789 321.99)
(-710.532 159.119 289.271)
(-897.022 137.443 258.21)
(-554.545 248.487 472.829)
(-730.621 271.356 504.267)
(-651.124 221.375 381.252)
(-320.078 153.944 209.778)
(-460.449 189.365 382.792)
(-541.914 173.399 318.093)
(-686.111 169.52 469.741)
(-647.436 131.963 712.942)
(-465.497 104.411 451.273)
(-670.341 200.539 787.493)
(-547.424 149.467 525.402)
(-704.441 102.21 554.091)
(-748.385 152.241 596.77)
(-927.407 282.552 916.203)
(-590.342 82.8816 294.033)
(-963.424 139.064 395.354)
(-711.019 109.676 351.789)
(-1071.11 149.717 541.788)
(-789.151 82.6948 451.706)
(-840.168 134.249 474.551)
(-1136.34 247.109 602.367)
(-790.601 447.867 908.622)
(-726.164 308.793 861.03)
(-591.781 192.776 593.741)
(-1059.32 588.858 1058.79)
(-845.591 401.122 724.545)
(-798.496 258.15 662.255)
(-981.824 413.744 977.134)
(-854.61 281.966 417.46)
(-1246.89 563.683 723.383)
(-1102.01 421.768 513.579)
(-1045.37 263.532 453.921)
(-790.271 150.563 377.879)
(-904.09 244.495 531.04)
(-1176.88 378.366 663.658)
(-1206.33 262.158 1057.42)
(-1299.81 247.283 865.696)
(-961.263 158.601 667.441)
(-1015.13 253.14 727.141)
(-1821.91 576.875 1516.51)
(-1266.78 403.082 1132.92)
(-1347.89 380.65 926.64)
(-1125.92 556.393 860.35)
(-2125.41 1117.41 1752.62)
(-1626.91 803.291 1139.55)
(-1049.89 378.074 791.79)
(-1964.48 819.399 1631.73)
(-1358.12 579.589 1224.54)
(-1436.3 556.493 1002.72)
(-333.905 98.3443 -19.9007)
(-940.005 264.071 -141.94)
(-1387.25 296.198 47.7377)
(-696.618 149.482 -17.1675)
(-374.225 237.185 -15.6198)
(-2343.56 1471 -888.342)
(-2816.9 1299.52 -316.265)
(-1252.88 402.469 230.895)
(-432.295 134.457 -48.9268)
(-510.74 136.136 -47.3367)
(-361.071 103.93 -22.9755)
(-309.467 133.014 -20.7282)
(-429.458 186.454 -49.9647)
(-546.065 197.753 -36.6593)
(-389.371 144.64 -20.185)
(-2486.93 689.573 -1215.37)
(-1108.35 272.077 -86.8858)
(-2791.89 686.897 -1086.83)
(-2444.74 953.107 -1157.32)
(-939.39 371.368 -120.364)
(-1137.11 390.857 -38.3229)
(-2736.48 946.394 -986.682)
(-526.006 332.435 -22.0109)
(-851.119 415.149 42.9522)
(-593.24 286.742 -2.95017)
(-322.201 179.927 -21.5445)
(-455.387 247.309 -43.1563)
(-637.987 281.285 -15.7402)
(-450.666 199.08 -15.0661)
(-1170.4 180.401 92.2482)
(-773.528 115.297 6.35332)
(-488.556 101.862 -14.8712)
(-826.57 232.64 9.52517)
(-972.015 159.467 34.5018)
(-568.104 162.939 -10.2808)
(-1367.51 245.393 180.249)
(-3121.74 682.57 -876.865)
(-1790.78 313.78 284.372)
(-3370.11 650.917 -569.685)
(-1463.28 423.77 140.727)
(-3257.93 856.734 -417.837)
(-1905.88 428.173 389.93)
(-3034.19 915.793 -737.568)
(-1028.64 640.333 18.495)
(-2613.95 1402.98 -622.271)
(-1331.92 681.595 207.15)
(-2384.96 1215.49 -1053.18)
(-960.374 490.238 -77.9733)
(-1217.05 531.975 60.3853)
(-2681.86 1193.48 -837.393)
(-1656.03 506.285 398.022)
(-936.322 270.521 68.0939)
(-1212.35 309.137 211.683)
(-1072.76 333.012 88.0484)
(-1118.95 174.481 108.238)
(-746.378 228.637 7.61562)
(-1506.59 315.962 311.059)
(-1730.29 706.425 413.489)
(-2953.38 1226.26 -52.2458)
(-2144.18 811.604 482.194)
(-1574.02 542.763 275.173)
(-3122.22 1043.75 -231.59)
(-2050.64 595.438 459.551)
(-2934.85 1118.96 -543.474)
(-0.000340382 2.97446e-05 0.000355717)
(-0.154024 0.0259723 0.22021)
(-14.0169 2.24819 9.49867)
(-263.236 59.385 239.144)
(-0.123005 0.0470557 0.189395)
(-0.000119356 3.70862e-05 0.000114262)
(-248.55 132.425 232.813)
(-0.411161 0.115008 0.342)
(-1582.4 338.92 1300.27)
(-1293.96 285.909 1230.59)
(-2253.22 505.045 1972.03)
(-2152.48 690.999 1867.72)
(-1010.44 329.01 954.081)
(-1269.1 398.282 1035.24)
(-135.284 42.2317 123.059)
(-11.8155 4.56853 11.0123)
(-1540.02 798.972 1302.59)
(-336.097 172.047 267.773)
(-1944.77 812.09 1670.52)
(-625.129 271.759 581.945)
(-810.257 340.298 654.553)
(-46.7102 17.1193 42.8489)
(-0.434575 0.058552 0.344352)
(-12.5737 2.18624 11.1942)
(-332.515 73.2324 258.071)
(-6.04234 1.25001 3.94241)
(-169.884 51.3407 129.92)
(-5.56151 1.27123 4.8895)
(-0.183938 0.0325346 0.142178)
(-2.83358 0.57529 4.3872)
(-7.34394 1.3801 8.59659)
(-135.119 31.0083 146.653)
(-1.35741 0.374994 2.10418)
(-66.9392 21.1999 74.3983)
(-3.34442 0.839587 3.91458)
(-0.070921 0.016065 0.0989375)
(-0.00578686 0.00176147 0.00760522)
(-6.29985 2.72247 7.86823)
(-0.271256 0.0880723 0.309614)
(-0.485399 0.161266 0.752351)
(-24.1861 9.20096 28.3038)
(-1.12023 0.332091 1.29566)
(-0.0238737 0.00644853 0.0323849)
(-0.0126081 0.00284677 0.00917761)
(-14.0992 4.89562 9.91735)
(-0.417924 0.102933 0.249506)
(-1.84846 0.443717 1.15645)
(-57.0661 19.9143 42.3658)
(-1.76172 0.469884 1.51023)
(-0.0563507 0.0119447 0.0422842)
(-331.626 81.4694 429.097)
(-1061.73 302.676 1803.56)
(-2149.64 496.46 2034.02)
(-915.267 343.201 1204.91)
(-665.277 444.132 1015.23)
(-29.8752 17.0092 45.1738)
(-1049.39 668.472 1363.08)
(-1216.6 664.02 1196.1)
(-863.825 232.258 1142.25)
(-1186.63 300.436 1363.61)
(-1186.36 353.44 1801.47)
(-1244.58 452.199 1450.37)
(-1234.26 517.182 1858.16)
(-1597.32 426.707 2085.36)
(-1657.14 625.348 2114.64)
(-970.475 485.213 1265.08)
(-1769.32 1076.6 2110.75)
(-1422.97 939.586 2012)
(-1485.64 879.808 1703.72)
(-1333.28 636.801 1551.71)
(-1307.51 706.115 1924.58)
(-1724.18 845.246 2128.18)
(-1662.21 403.075 1744.5)
(-2174.54 722.202 2033.5)
(-1748.24 601.855 1822.77)
(-1956.37 451.775 2004.83)
(-1963.53 482.826 2204.96)
(-1957.7 690.246 2167.05)
(-1839.65 610.429 1867.45)
(-1443.62 427.242 2279.59)
(-990.072 404.399 1644.8)
(-1450.63 608.287 2242.19)
(-832.125 211.676 1201.19)
(-1615.06 426.556 2189.91)
(-1566.7 591.891 2094.86)
(-695.623 258.034 980.7)
(-249.738 157.706 341.955)
(-1297.19 791.693 1662.56)
(-1399.78 938.143 2041.49)
(-869.843 464.632 1391.95)
(-1443.62 784.433 2170.12)
(-1474.39 725.622 1934.99)
(-490.816 242.885 673.001)
(-1793.25 1025.32 1924.68)
(-1984.56 1114.09 1969.48)
(-2108.48 1147.23 1914.43)
(-2179.85 952.507 2007.23)
(-1863.46 836.393 1904.73)
(-1914.42 886.167 2087.82)
(-1617.94 703.676 1619.83)
(-40.9179 9.45455 57.1057)
(-814.007 187.852 898.626)
(-1474.04 354.155 1791.43)
(-1334.08 463.809 1595.47)
(-20.8651 6.8114 30.8449)
(-214.876 78.4357 281.729)
(-592.285 202.452 646.574)
(-2.17809 1.05407 3.65319)
(-114.688 63.3534 130.304)
(-707.18 412.005 810.639)
(-1088.78 501.049 1274.86)
(-8.06191 3.32617 12.9186)
(-99.6858 47.5783 136.72)
(-328.95 149.87 358.693)
(-0.0113334 0.00125175 0.0106134)
(-0.0070655 0.000776427 0.0086431)
(-0.309471 0.0465175 0.332405)
(-0.135838 0.027087 0.142412)
(-0.000188798 2.74994e-05 0.000189754)
(-0.00315913 0.000721714 0.00375786)
(-0.00485819 0.000928437 0.0044305)
(-0.000446953 0.000142048 0.00037862)
(-0.0100387 0.00258646 0.0098957)
(-0.000324604 0.00012161 0.000371299)
(-0.0431161 0.0101766 0.0438538)
(-0.000151958 2.49947e-05 0.000146375)
(-0.00106583 0.000206006 0.00122374)
(-0.0015397 0.000265734 0.00137589)
(-0.00704065 -0.0113935 0.06713)
(-15.0502 -27.8911 85.9751)
(-0.000843528 -0.0268007 0.153162)
(-28.1897 -479.486 1308)
(-0.000104583 -0.000195885 0.000731232)
(-1.42325 -3.15751 9.06306)
(-13.2034 -81.211 138.149)
(-1.90725e-05 -0.000697162 0.00255614)
(-0.632967 -1.33135 0.340864)
(-0.0201907 -0.0156819 0.0149768)
(-0.474739 -0.325806 0.364451)
(-12.4573 -2.21031 8.5135)
(-4.28391e-05 -3.06536e-05 0.000177293)
(-0.000527554 3.8915e-05 0.000561008)
(-0.0812439 -0.106216 0.268119)
(-0.244886 0.0211504 0.354994)
(-21.8482 -2.22238 15.2679)
(-22.855 2.01307 15.8836)
(-1507.43 44.0451 1449.42)
(-1501.77 -60.8727 1444.91)
(-4.06397 -0.524312 6.32064)
(-0.000494053 -4.76791e-05 0.000528788)
(-1.62032e-05 -1.41479e-05 5.86898e-05)
(-7.12659 -7.13104 18.2688)
(-0.000283666 -0.000186581 0.0010687)
(-11.5798 -16.8653 52.9881)
(-0.00295029 -0.00254234 0.0158231)
(-0.000148372 -0.000161137 0.000673933)
(-0.819139 -1.38427 4.20373)
(-1234.12 -306.591 1178.32)
(-2.41256 -0.553147 3.77362)
(-0.000286257 -3.0025e-05 0.000301451)
(-0.255571 -0.0661842 0.153444)
(-1359.06 -758.4 1149.85)
(-8.29255e-05 -2.465e-05 7.9573e-05)
(-0.0769661 -0.0290795 0.117469)
(-104.552 -476.847 1282.67)
(-22.5477 -438.589 959.05)
(-80.4998 -428.168 924.715)
(-2.55114 -54.2193 162.529)
(-10.5317 -50.3988 150.722)
(-4.16647 -22.8942 62.648)
(-1.06522 -25.1477 68.5204)
(-5.48131 -11.6486 33.2101)
(-224.546 -414.129 1056.13)
(-155.503 -331.181 670.435)
(-178.015 -453.529 1196.04)
(-131.711 -391.72 826.496)
(-15.8571 -40.35 121.838)
(-5.98826 -17.6908 49.2591)
(-1453.03 171.995 1390.59)
(-2300.13 292.4 2026.46)
(-2304.36 82.5229 2037.68)
(-1755.14 205.359 1452.31)
(-1815.6 54.4113 1509.2)
(-425.252 11.092 386.201)
(-373.631 44.204 338.919)
(-1425.07 -199.261 1366.7)
(-2309.44 -110.141 2043.07)
(-2299.32 -334.153 2030.18)
(-1732.83 -233.828 1437.85)
(-1813.28 -70.4763 1508.28)
(-420.62 -14.9919 382.573)
(-355.034 -49.9326 323.531)
(-2240.49 -553.073 1966.89)
(-2116.07 -738.94 1841.6)
(-1527.32 -364.547 1260.64)
(-1169.02 -404.955 959.374)
(-913.324 -328.17 864.909)
(-233.748 -59.0729 213.892)
(-107.021 -36.0737 98.4446)
(-3.34533e-05 -2.27806e-05 3.86458e-05)
(-4.66065e-05 -2.37722e-05 2.40354e-05)
(-5.81784e-06 -3.34282e-06 4.88975e-06)
(-0.0333089 -0.00990489 0.0192385)
(-615.837 -405.845 512.986)
(-4.55692e-05 -1.86836e-05 4.18709e-05)
(-0.0122675 -0.00510166 0.0178777)
(-3.89219 -6.40316 18.7037)
(-245.347 -355.579 856.112)
(-147.797 -243.784 464.429)
(-222.594 -263.18 584.244)
(-6.94381 -8.19817 26.5161)
(-101.324 -134.446 250.07)
(-1.95257 -2.57558 7.90711)
(-3.8675 -94.047 158.493)
(-13.0175 -289.36 516.312)
(-45.5654 -271.833 479.731)
(-1.20926 -7.28962 19.7012)
(-0.0585656 -1.64684 4.66456)
(-0.234062 -1.40545 3.9933)
(-0.311103 -8.1754 21.9299)
(-0.0131986 -0.0322817 0.00668097)
(-0.0476957 -0.108526 0.0346002)
(-0.000972226 -0.00245818 0.000693877)
(-5.6818e-06 -1.21498e-05 3.06472e-06)
(-3.10997e-05 -5.41707e-05 1.07717e-05)
(-0.0256466 -0.0348026 0.00634701)
(-0.000108498 -0.000146976 6.15389e-05)
(-69.3546 -158.836 274.858)
(-0.213934 -0.503088 1.46402)
(-12.483 -29.9125 55.6037)
(-16.6337 -55.7792 98.0372)
(-68.9607 -226.385 393.455)
(-1.68652 -5.36441 14.8237)
(-0.293951 -0.950523 2.72998)
(-8.50165e-06 -8.27164e-06 2.48429e-05)
(-0.00946824 -0.0109059 0.0271389)
(-1.03034 -0.911379 2.69836)
(-7.45397e-05 -5.292e-05 0.0001421)
(-1.48392e-06 -1.15841e-06 3.97701e-06)
(-0.00444942 -0.00213059 0.00864605)
(-9.1609e-06 -7.41439e-06 2.20045e-05)
(-1857.59 -837.908 1598.28)
(-228.671 -121.522 182.367)
(-165.646 -91.0897 156.47)
(-674.673 -308.827 547.121)
(-507.786 -240.119 474.496)
(-32.8847 -12.682 30.6441)
(-7.28822 -2.82366 6.86403)
(-0.00533981 -0.0241432 0.137879)
(-0.0454697 -1.22527 5.55401)
(-0.229531 -1.1154 5.0599)
(-0.0826492 -0.455105 1.85039)
(-0.000314013 -0.0114064 0.053085)
(-0.0170833 -0.506586 2.05684)
(-0.00186253 -0.0100986 0.0470978)
(-40.4395 -36.5702 82.3179)
(-0.630919 -0.589534 2.16549)
(-140.077 -140.175 292.289)
(-2.87526 -2.87736 9.71684)
(-36.5051 -40.4054 82.2296)
(-0.58853 -0.630336 2.16312)
(-0.116076 -0.116163 0.432667)
(-0.304375 -0.56035 2.61959)
(-0.00227927 -0.00459387 0.0212281)
(-0.103784 -0.217854 0.893391)
(-0.00725685 -0.0178497 0.104581)
(-0.34175 -0.854311 3.92418)
(-0.118518 -0.342787 1.40293)
(-0.00242767 -0.00760905 0.0348359)
(-4.38955 0.456312 6.77869)
(-11.6187 1.13845 13.491)
(-196.65 23.5281 211.853)
(-5.16573 0.0931188 7.97188)
(-224.607 5.63264 241.512)
(-13.8256 0.246486 16.0179)
(-0.29238 0.00380424 0.426737)
(-27.5963 -0.599696 19.4323)
(-456.293 -61.8956 358.16)
(-536.168 -18.088 421.696)
(-24.0008 -0.577894 21.5908)
(-0.687643 -0.0582878 0.558951)
(-19.0145 -2.1001 17.1522)
(-0.881864 -0.0137893 0.719306)
(-0.727127 0.0520581 0.58612)
(-20.1601 1.8794 18.0381)
(-473.464 55.423 370.387)
(-27.7839 0.481174 19.5296)
(-539.579 14.3916 423.968)
(-24.2754 0.430439 21.7777)
(-0.890672 0.0102572 0.724355)
(-5.07102 -0.146134 7.84519)
(-221.001 -8.18863 238.172)
(-184.361 -26.7902 199.706)
(-13.6102 -0.357863 15.8229)
(-0.227662 -0.0243688 0.332165)
(-10.8352 -1.28979 12.6995)
(-0.287579 -0.00597929 0.4208)
(-47.4798 -83.1235 147.665)
(-0.108898 -0.204375 0.607256)
(-6.43818 -12.0794 24.7931)
(-2.38063 -3.6533 8.26874)
(-19.5178 -27.6366 54.7528)
(-0.32092 -0.447571 1.41308)
(-0.0382963 -0.0603867 0.180252)
(-301.199 -73.8115 234.945)
(-4.81469 -1.06955 3.17102)
(-137.79 -44.8947 105.959)
(-0.378939 -0.057091 0.303997)
(-10.9699 -2.12645 9.88134)
(-4.34631 -1.06949 3.87044)
(-0.144232 -0.0276194 0.112905)
(-116.809 -30.1319 128.215)
(-1.05439 -0.314836 1.64878)
(-52.2563 -17.8523 59.1561)
(-0.131508 -0.0251128 0.189543)
(-6.29954 -1.33025 7.48005)
(-2.58918 -0.701425 3.06865)
(-0.0547932 -0.0134275 0.0769182)
(-106.881 -72.8693 87.8956)
(-36.6704 -18.7432 28.2523)
(-27.1594 -14.7031 26.6325)
(-3.83338 -1.90339 2.78851)
(-2.92411 -1.61231 2.94556)
(-1.04606 -0.421849 0.958739)
(-0.10355 -0.0462989 0.0914235)
(-735.303 -2451.84 938.943)
(-814.194 -1178.39 461.852)
(-290.781 -2347.94 868.819)
(-398.8 -1178.75 830.828)
(-342.171 -1108.08 402.068)
(-0.013908 -0.0880799 0.0352599)
(-56.17 -1686.14 995.687)
(-205.261 -1747.72 622.36)
(-0.571401 -7.30715 2.58333)
(-1200.96 -2342 928.874)
(-0.167375 -0.46209 0.105897)
(-0.630803 -1.55961 0.552363)
(-0.012793 -0.0377708 0.0111812)
(-287.641 -644.735 450.236)
(-243.363 -591.963 219.596)
(-0.0164585 -0.0759348 0.0220814)
(-104.438 -2295.47 844.736)
(-111.895 -2536.86 1259.61)
(-330.127 -2562.92 1279.45)
(-105.067 -2610.94 974.595)
(-327.464 -2603.07 973.939)
(-294.924 -2359.77 1154.29)
(-89.5401 -2402.7 1175.91)
(-495.644 -2402.17 899.921)
(-799.987 -2527.28 1293.27)
(-559.674 -2563.23 1294.88)
(-733.543 -2365.2 891.483)
(-545.089 -2525.57 949.028)
(-482.745 -2207.5 1078.97)
(-601.634 -1911.17 933.779)
(-997.098 -2466.83 970.139)
(-1004.4 -2382.98 1226.54)
(-831.983 -2051.82 768.52)
(-1071.94 -2065.44 1053.87)
(-584.643 -1396.97 689.932)
(-745.545 -1469.99 557.129)
(-356.071 -686.475 340.265)
(-68.1695 -1896 1349.47)
(-14.5924 -477.487 320.697)
(-105.064 -2530.29 1572.41)
(-234.811 -1806.84 1285.79)
(-333.376 -2512.58 1561.76)
(-196.896 -1582.14 935.73)
(-52.2695 -403.659 269.681)
(-59.1284 -1839.02 652.952)
(-32.7537 -290.905 99.3097)
(-9.02245 -341.673 117.673)
(-6.1176 -63.3136 22.5654)
(-1.66011 -78.4765 28.8737)
(-33.1785 -1094.63 516.105)
(-117.732 -986.96 466.449)
(-729.632 -2231.66 1383.44)
(-366.412 -1577.11 1120.26)
(-554.34 -2421.13 1505.3)
(-299.394 -1320.11 781.44)
(-34.0794 -111.769 70.3308)
(-60.9216 -259.812 169.987)
(-297.032 -896.194 529.866)
(-319.457 -1507.66 540.031)
(-21.4552 -82.2356 24.6309)
(-38.1515 -187.312 61.7261)
(-3.44318 -16.2401 4.72463)
(-6.36706 -37.6735 12.3463)
(-165.125 -743.775 352.123)
(-136.371 -425.54 198.997)
(-1212.42 -1997.39 777.698)
(-307.63 -452.211 227.301)
(-850.047 -1386.24 707.274)
(-63.4416 -106.367 36.2093)
(-380.118 -636.835 246.917)
(-88.2459 -162.531 72.504)
(-8.65026 -18.0401 5.8338)
(-791.032 -1855.06 1142.32)
(-101.08 -201.01 134.127)
(-632.18 -1191.81 729.386)
(-10.6778 -32.3811 18.5955)
(-181.425 -421.479 244.488)
(-47.8213 -106.694 55.7329)
(-2.12005 -6.72004 3.42064)
(-7.44909 -26.0426 6.58277)
(-1.09568 -4.53616 1.17621)
(-59.9013 -155.922 66.7942)
(-1.59539 -5.71301 1.23996)
(-87.3809 -189.007 66.2015)
(-11.8466 -33.0438 11.2623)
(-0.211214 -0.880109 0.201813)
(-0.135836 -9.30338 3.33556)
(-7.5296 -274.797 148.094)
(-0.0301545 -0.445251 0.183659)
(-0.00617021 -0.571889 0.237252)
(-0.36889 -20.6179 10.8278)
(-26.927 -225.021 119.388)
(-1.4824 -16.3813 8.44269)
(-30.0741 -46.9801 18.3518)
(-4.75156 -9.04278 2.1891)
(-192.149 -265.312 101.332)
(-12.6143 -18.9649 5.19937)
(-1.73275 -2.89231 0.826865)
(-0.280391 -0.520017 0.100769)
(-0.0381624 -0.0737816 0.0164576)
(-0.268791 -1.52139 0.494534)
(-0.68774 -3.45165 1.63348)
(-0.0295168 -0.239874 0.0976825)
(-0.561286 -4.01845 1.3744)
(-1.46748 -9.19727 4.56469)
(-28.2301 -133.398 68.1406)
(-14.3225 -54.4073 25.4085)
(-0.0299308 -0.0816239 0.035741)
(-31.4196 -54.5358 27.5065)
(-1.40216 -3.12952 1.61326)
(-0.29086 -0.888545 0.414507)
(-14.342 -30.8304 18.2927)
(-252.303 -415.954 248.232)
(-6.53016 -16.215 6.75167)
(-0.000800419 -0.000991377 0.00398702)
(-0.00377318 -0.00569315 0.0369399)
(-0.221237 -0.321724 1.50727)
(-0.00114443 -0.00266672 0.0107198)
(-0.0692937 -0.113374 0.463912)
(-0.126682 -0.149142 0.68998)
(-0.0324793 -0.0425513 0.177493)
(-0.00340677 -0.0107318 0.00208993)
(-0.0248215 -0.0744411 0.0122053)
(-1.25352 -3.08609 0.655994)
(-0.031377 -0.115442 0.0241877)
(-0.229252 -0.780312 0.143961)
(-12.397 -29.4642 7.95838)
(-1.68564 -4.86655 1.32724)
(-0.0226066 -0.133411 0.503543)
(-9.19598e-05 -0.00286438 0.0135886)
(-0.000113221 -0.000584234 0.00215057)
(-0.000906173 -0.0295714 0.108758)
(-0.00432495 -0.0252821 0.0925617)
(-0.00489103 -0.152195 0.571268)
(-0.000557609 -0.00248969 0.0117993)
(-0.909651 -1.02972 2.6952)
(-0.503025 -0.739224 1.7712)
(-5.24465 -6.39768 15.0631)
(-0.0841782 -0.104451 0.346452)
(-0.0014308 -0.00191736 0.00549338)
(-0.0149859 -0.0172919 0.0572743)
(-0.00834362 -0.0128694 0.0378113)
(-1.30865 -0.332257 0.82545)
(-8.79486 -3.08943 6.16374)
(-40.8005 -14.8537 30.3408)
(-1.22803 -0.347832 1.06298)
(-0.00767966 -0.0018503 0.00562206)
(-0.250248 -0.0720841 0.208961)
(-0.0391594 -0.00889218 0.0297027)
(-0.336904 -0.12016 0.527012)
(-3.88418 -1.67272 4.90258)
(-17.0299 -6.89864 20.5008)
(-0.776122 -0.245947 0.906691)
(-0.00359679 -0.00110366 0.00468841)
(-0.166424 -0.0541241 0.189787)
(-0.0164048 -0.00476415 0.0223285)
(-6.4088 -5.25787 15.0921)
(-0.104634 -0.0843974 0.347209)
(-0.741035 -0.504467 1.77561)
(-0.106373 -0.0814536 0.268642)
(-0.0172994 -0.0150156 0.0573414)
(-0.0128973 -0.00836835 0.0379113)
(-0.00191756 -0.00143499 0.00550384)
(-0.000867743 -0.00423312 0.00162224)
(-0.04084 -0.173336 0.07347)
(-0.00426587 -0.0227719 0.0088508)
(-0.0834192 -0.406891 0.122843)
(-0.210317 -0.9205 0.411939)
(-4.58375 -16.1699 6.45991)
(-0.872882 -3.14028 1.1129)
(-0.000602283 -0.00100328 0.00468154)
(-0.0249235 -0.0530592 0.210495)
(-0.00397487 -0.00910546 0.0327636)
(-0.0310346 -0.0946441 0.363219)
(-8.38164e-05 -0.000381288 0.0014211)
(-0.00548213 -0.0171412 0.0623792)
(-0.000463337 -0.00176505 0.00830323)
(-1.42591e-05 -9.16154e-06 1.27349e-05)
(-1.44619e-05 -8.79117e-06 9.39777e-06)
(-6.92348e-07 -3.84135e-07 5.30563e-07)
(-9.68653e-07 -6.8793e-07 5.29444e-07)
(-2.64829e-05 -2.15127e-05 1.77594e-05)
(-2.16987e-07 -1.69718e-07 1.58493e-07)
(-8.42919e-07 -7.35116e-07 7.9666e-07)
(-8.60608 -5.56082 6.89229)
(-0.0124486 -0.00838079 0.0117724)
(-0.0147534 -0.00888666 0.0098421)
(-0.274215 -0.144823 0.189348)
(-0.220079 -0.130365 0.216461)
(-0.00748331 -0.00385177 0.00635246)
(-0.000444606 -0.000261177 0.000363419)
(-5.64651e-05 -5.63821e-05 0.000221054)
(-0.000748299 -0.000749106 0.0046743)
(-0.000186142 -0.00028342 0.00106754)
(-0.0106396 -0.0100956 0.0472)
(-0.047714 -0.0477498 0.219631)
(-0.010079 -0.0106303 0.0471472)
(-0.00203341 -0.00203416 0.0090725)
(-0.0190163 0.0013342 0.0180806)
(-0.0114924 0.000936826 0.0143722)
(-0.506646 0.0397639 0.55129)
(-0.613235 0.00752958 0.672079)
(-0.000632855 5.67419e-06 0.000681437)
(-0.013933 0.000137742 0.0175977)
(-0.0233487 0.000214343 0.0224078)
(-0.604934 -0.0109199 0.664991)
(-0.000623467 -1.00552e-05 0.000672967)
(-0.0178757 -0.00150333 0.0171236)
(-0.0107269 -0.00106462 0.0135)
(-0.474359 -0.0450918 0.520387)
(-0.0137302 -0.00021178 0.0173829)
(-0.0230713 -0.000308073 0.0222015)
(-2.04965e-05 -2.86059e-05 9.95926e-05)
(-3.20116e-05 -7.8595e-05 0.00029237)
(-0.000212345 -0.000463883 0.00204867)
(-0.0141605 -0.023391 0.0940585)
(-0.00192083 -0.00371754 0.0130655)
(-0.00567408 -0.0077854 0.03078)
(-0.000698593 -0.00110552 0.00373296)
(-1.19793 -0.434638 0.79155)
(-0.00306006 -0.00108717 0.0017158)
(-0.113129 -0.04548 0.0710814)
(-0.00101887 -0.000300516 0.000720593)
(-0.0341226 -0.0111881 0.0272996)
(-0.00324883 -0.00126438 0.00250371)
(-0.000112375 -4.05219e-05 7.64417e-05)
(-0.605665 -0.272646 0.759593)
(-0.00136183 -0.000659675 0.0018658)
(-0.0643141 -0.0323706 0.0782471)
(-0.000543645 -0.000197007 0.000667072)
(-0.0242804 -0.00892092 0.0264964)
(-0.00245677 -0.00106205 0.00255588)
(-7.30084e-05 -3.08071e-05 8.14068e-05)
(-0.00239273 -0.00560516 0.00237149)
(-2.26582 -4.31005 1.69463)