/*--------------------------------*- C++ -*----------------------------------*\
  =========                 |
  \\      /  F ield         | OpenFOAM: The Open Source CFD Toolbox
   \\    /   O peration     | Website:  https://openfoam.org
    \\  /    A nd           | Version:  9
     \\/     M anipulation  |
\*---------------------------------------------------------------------------*/
FoamFile
{
    format      ascii;
    class       surfaceScalarField;
    location    "0.00115";
    object      phi;
}
// * * * * * * * * * * * * * * * * * * * * * * * * * * * * * * * * * * * * * //

dimensions      [0 3 -1 0 0 0 0];

internalField   nonuniform List<scalar> 
27805
(
-0.640006
0.896686
3.71238
0.589765
-5.7575
-0.000268082
-0.00515686
6.49261e-05
0.000141957
3.95074
0.55706
-0.3889
-5.75344
0.686906
-0.776549
3.36789
0.993114
-0.464237
-5.70494
-0.373207
0.0225607
0.00611185
-0.0165268
-0.00299178
0.0125874
-0.565558
0.0393114
0.0121312
-0.0066149
-0.396174
0.000545089
0.0245599
-0.0166474
0.000259112
-3.22098
-0.0239781
-0.321598
0.071177
0.392709
0.059786
0.431641
4.02376
0.0462864
-5.59175
2.36729e-05
-0.0421099
0.000308134
5.25683e-05
-0.503999
0.033865
0.0114348
0.0164186
-0.0004286
-0.0105143
0.000126028
-1.13818
1.34307
0.589566
2.85421
-5.61944
-0.802322
3.10018
1.00381
0.905607
-5.65633
-0.215854
-0.00802438
0.010676
-0.00938218
0.00673366
0.0790152
-1.00402
-0.137956
-0.0978686
0.0816928
-0.00472097
0.00349053
-0.00336534
0.00270253
-1.46424
1.40987
0.47865
1.30901
-5.0916
-1.94167e-05
-0.000176211
1.82604e-06
4.06081e-06
0.0668105
-0.507559
0.111773
-1.30478
0.135831
0.0146483
-0.281161
-0.0385669
-0.0192871
0.0132613
-0.0263268
-0.00353071
-0.00128745
0.000999138
0.00068212
-0.00119181
0.00054501
-0.000597664
0.000403806
-3.54078e-05
-3.69736e-06
-1.25031e-06
1.01795e-06
0.601722
3.34018
-5.71839
0.207776
0.307298
-0.224428
3.43932
0.904886
-0.668053
-5.72658
0.289538
-0.225891
0.262233
0.44248
3.0806
0.806712
1.12705
-5.66289
0.190712
0.3504
0.417917
0.231741
0.314663
0.362039
0.207164
-0.127756
3.71374
-0.431311
-5.74676
-0.1442
0.272179
0.504356
0.51127
4.04045
-0.196316
-5.6972
3.86815
-0.229858
0.739408
-5.73691
0.191679
-0.0616381
0.597931
-0.0699745
0.266555
0.541852
0.456115
4.04777
-5.62647
0.0778594
3.90473
0.664337
0.0464302
-5.67157
3.91491
0.691303
-5.70084
0.0168634
0.158277
0.599526
0.0217263
0.169622
0.605363
-0.0232224
0.250856
0.556877
0.239424
0.555453
0.0180071
-0.0998915
-0.941505
0.270929
-5.65393
3.23318
-0.917964
0.0444375
-5.62966
-0.315005
0.0110466
0.0909207
3.63259
0.0466721
-5.6838
3.62271
0.255013
-5.71015
-0.0255165
0.0742397
0.484541
0.486283
0.0149992
0.313832
-0.147569
0.214527
0.425339
2.94004
-0.47953
0.688532
-5.6157
-0.136058
0.185549
0.335722
-3.1322
-0.324075
-0.972553
-5.65388
3.53051
-5.72294
0.465839
0.287158
0.257562
0.366388
2.63665
0.887471
-5.5437
0.20739
0.283778
0.991764
2.70689
1.10464
-5.56999
2.02095
1.05581
-5.43309
0.23872
0.261343
0.294961
0.189789
0.550636
2.00284
-5.43653
1.30849
2.55342
0.783731
-5.54337
1.71413
0.724549
1.39577
-5.33009
-0.331711
0.106051
0.23928
0.213715
0.155668
0.319408
0.279933
0.18036
0.272645
0.113608
0.186981
0.171516
-1.15701
-0.850326
1.10915
-4.8133
-1.51386
-0.169074
0.140932
-0.945369
-5.22857
1.2524
1.96373
-5.42529
1.3864
1.28557
-5.14818
0.210989
0.209617
0.130668
0.123395
0.359628
0.706947
1.07638
-4.32362
1.2876
1.09164
0.613508
-4.91124
0.568463
0.435265
0.908577
-3.95589
0.0557481
0.127184
0.113519
0.0971845
0.0573762
0.0882363
0.0240868
0.0547955
0.0502782
0.0244867
0.0400774
0.0383528
-0.843817
-0.432927
0.403289
-2.6237
-0.562327
-0.0476401
0.0378733
-0.677062
-3.93264
1.10218
0.827018
-4.55465
0.418404
0.670073
-3.33421
0.065924
0.0613252
0.0250875
0.0257355
-0.372932
0.0796334
0.0600097
-1.02494
0.0920638
0.208434
0.32968
-2.9084
0.26273
0.222602
-2.49708
-0.0173682
0.00213927
0.0048117
0.00390869
0.00863444
0.018397
0.0121121
0.00799694
0.0132411
0.00190375
0.00333198
0.00258769
0.000415436
-0.000202977
0.000417185
0.0338965
-0.00768329
0.0147492
0.0120575
-0.000249696
0.000497961
0.000401079
-0.0420394
0.00038315
-5.95192e-05
0.0113659
-0.002446
0.0372664
-0.00311387
0.0149841
-8.80496e-05
0.000506108
-0.0425819
0.000335465
0.00107565
0.00924117
0.00143322
0.010036
-0.00107508
0.0385376
0.0142962
-0.0384549
2.25847e-05
0.000458857
2.84529e-05
0.0135866
0.000901395
0.000482605
0.0001981
-0.000551299
-9.21902e-05
0.0194178
-0.0151277
0.00791185
-0.000499429
0.000256099
0.0269831
-0.00744913
0.0104094
-0.000244997
0.000341715
0.030514
-0.00335418
-0.000103145
0.0242236
-0.0168655
-1.41852e-05
-0.000566845
-0.000562395
1.10192e-05
-0.000717256
0.0321917
-0.0323998
1.34525e-05
1.71948e-05
0.000475047
0.000390018
0.00055188
0.0284454
0.014268
0.0131342
0.000471872
0.000436959
-0.0263112
0.000311051
0.000539776
0.0093466
0.0165047
0.0215841
0.010319
0.0135899
0.000336641
0.000439368
0.0152295
-0.0126569
0.000260859
-0.000414469
-0.000306666
0.00022124
0.0219658
0.0113662
0.00036952
0.0160967
0.0101453
0.00032771
-0.0180423
0.000213321
-0.0131358
0.00384499
0.00827005
0.00656022
0.0143756
0.0103651
0.00696409
-0.000340671
-0.00815206
0.000132344
0.000208191
0.000226457
0.00398947
0.00637422
-0.118495
-0.0416519
-0.428492
0.0228947
-0.0983321
-0.0054943
0.00416261
-0.1712
-1.19522
-0.229611
0.0491313
-0.707968
0.050426
0.177266
-1.74713
0.00717236
0.00805943
0.00198004
0.00143544
0.00657235
-0.00602943
0.000160533
-0.000202103
-0.00011353
8.41922e-05
0.0102974
0.00737962
-0.000248698
-0.00566293
0.000138597
0.00441286
0.00190673
0.00422909
-0.00392438
0.000106207
6.29534e-05
0.0031905
0.00195997
-0.00212154
2.70476e-05
4.82418e-05
0.00080485
0.00170744
0.00156967
0.000797709
0.00123349
2.48048e-05
3.51138e-05
0.00155159
-0.00159766
4.02772e-05
-5.27901e-05
-1.94836e-05
1.29263e-05
-0.00264627
7.13484e-05
0.00210959
0.00100655
0.000765659
2.39628e-05
-0.388941
0.0239626
0.0025571
-0.0162991
-0.000218196
-0.0165879
-0.000409589
3.19873
0.190139
-0.920166
-5.61655
-0.24115
-3.15546
0.277383
-0.173282
0.378504
0.496459
-3.6761
0.179733
-0.173292
0.302765
-0.158334
0.458396
3.95114
-5.64887
0.00967703
0.0332827
-0.00959884
-0.0411689
0.00029798
0.000117873
0.526351
-0.494416
-5.70628
-3.44723
-0.179384
0.446181
-0.525652
0.739916
-5.69114
0.494983
3.86536
-5.6906
3.67563
-0.331064
0.719873
-5.70658
0.173575
-0.106524
0.543516
-0.115261
0.246574
0.496348
0.444766
3.99371
-5.61084
0.175664
3.86942
0.675625
-5.67171
3.80573
0.690807
-5.69268
0.159169
0.0587375
0.587843
0.0630478
0.240191
0.545231
0.161771
0.57153
0.242684
0.526824
-0.312215
0.0554467
-0.929693
3.12555
0.355015
-5.624
0.18728
3.5907
-5.67289
3.49948
0.349105
-5.68338
0.0623977
0.477499
0.307629
0.114015
0.459616
0.102665
0.372805
0.948462
-0.544039
-5.64666
-2.7394
-0.152148
0.300666
-0.548066
-5.55442
-0.943917
2.98205
-5.608
3.3719
-5.68107
0.298605
0.42737
0.343946
0.0288365
-0.00965153
0.0121321
0.000325895
-0.000319739
-0.000325038
0.00040394
-0.0374523
0.000320541
-0.00019628
0.00962049
-0.00596837
0.0332714
-0.00634275
0.0131761
-0.000213039
0.000442111
0.00905829
0.00344977
-0.0376144
0.000121505
0.000450281
-0.0398047
0.000298878
0.00356808
0.0134198
0.0090818
0.0360492
0.0133522
0.000448421
8.39808e-05
-0.000548735
-0.0225811
-0.000524028
0.000154549
-0.015658
0.00469967
-0.0316542
0.000109677
0.00324975
0.030058
0.00589165
0.00019795
-0.020131
-0.000480415
0.00666647
-0.0144864
-0.0125084
0.0230196
-0.00858872
-0.000286674
0.0272224
-0.000693923
7.11288e-06
-0.000532016
6.75656e-05
0.000117059
0.000266007
0.000489594
0.000371481
0.000244824
-1.28318e-05
-0.000121602
1.58886e-06
2.7897e-06
6.42528e-06
6.03517e-05
7.77831e-05
-0.00010548
-4.09205e-05
2.06938e-05
0.000151163
-0.000170325
-5.32049e-06
0.000294828
0.000218073
-7.49181e-06
-7.14473e-05
1.69908e-06
4.37964e-05
2.03207
0.837028
2.2582
-0.765379
0.13251
0.766025
0.151967
1.76492
-2.65925
2.68966
3.75673
3.03352
-3.41776
3.30693
-3.39698
4.33617
-4.9045
1.66976
-2.98672
4.03886
-5.35988
-2.67179
-3.1583
0.929203
4.20652
1.73879
-4.58246
1.06761
-2.71433
-5.23565
1.04982
0.898714
-2.94286
-1.03946
-1.69237
3.59089
2.02936
3.96548
0.954482
2.69639
1.09598
1.10229
1.07014
1.06663
2.01832
2.47255
1.6386
1.94613
0.904908
3.37702
4.0193
1.9669
3.81975
3.80489
1.76515
3.55585
-3.52874
-1.1836
3.36024
2.29631
4.38998
1.1706
0.196029
0.799632
0.56562
-0.388907
-0.634625
0.661766
0.135282
1.10169
-0.944512
-0.397346
0.0921245
0.0872518
2.41601
-0.299435
-0.344579
-0.3474
-0.320357
1.00248
1.00724
1.01599
0.994805
4.36544
-0.901446
-0.914064
-0.91525
-0.90451
0.928272
0.917387
0.915225
0.928711
2.1133
4.28839
-0.899347
-0.844113
-0.845194
-0.895213
-0.283315
-0.248992
-0.260913
-0.292976
0.979637
-3.25767
3.27363
1.03059
4.32685
-3.44939
2.97389
3.27058
-3.35752
4.35063
-3.52554
3.2919
-0.603405
-0.554418
-0.603701
1.04783
-3.23575
-2.76052
4.32375
0.976511
4.29775
-3.70916
4.35065
1.00586
-3.21317
4.25474
4.23854
-5.24795
1.0919
-3.23164
-1.11177
5.30378
2.81607
2.16416
-3.27331
-3.0446
1.02883
-1.12398
-1.08782
-1.12275
0.898176
-2.67721
-5.36574
2.10187
0.914044
-3.42395
2.11358
-3.18487
2.11479
0.947046
0.499974
-0.788375
-0.107835
-1.06586
0.261691
0.871009
0.142909
0.82028
-1.14196
0.739086
-0.747956
0.288492
0.149073
0.113408
-0.493763
0.851756
0.0949406
0.245823
0.81725
0.102033
-1.14337
0.320931
-1.05423
0.895171
-1.12158
-0.798777
-0.136506
0.157602
0.815601
0.778917
1.17475
0.193413
1.11993
0.592997
-0.792678
0.454233
0.692514
-0.701167
0.14173
-0.479178
0.771339
-0.360907
-0.561232
0.122721
0.117869
0.454337
0.989233
-0.146526
0.0838528
-0.395337
0.097352
0.156287
-0.996562
-0.922167
-0.44604
0.101639
0.117201
-3.03496
2.98185
4.04234
-2.99013
-1.74478
3.03533
4.00096
1.83389
2.57319
-2.79161
1.68725
3.7808
3.87748
3.67396
3.99316
4.04128
5.29292
2.69615
3.1654
-3.18329
-3.19751
-2.56941
0.896599
4.25707
-3.13308
-5.25404
-3.17955
4.16344
-2.6529
-5.37853
0.927571
-3.16336
0.934565
-3.10957
4.18361
-4.90606
1.10936
-1.07768
4.99819
-1.73192
2.03674
1.86507
0.97825
1.6849
-4.72658
1.99369
2.06299
1.87914
5.02379
-1.68924
3.02628
-2.89497
1.65858
3.96978
-3.05018
-5.03653
4.07071
1.66412
-4.82181
4.05523
0.140798
0.108675
0.705984
0.945422
-3.24378
3.28083
4.36522
-2.0557
3.26827
-3.2878
3.29998
4.38172
-3.24479
1.0873
3.29332
4.35007
-5.46665
0.915606
-3.23816
4.30533
-3.28404
-5.52472
-3.2284
4.35645
4.35146
0.890932
-5.41769
1.0784
-1.09772
-3.24018
-5.51712
2.20149
4.35422
-3.34314
-0.911094
-1.10695
2.19538
2.10589
4.4507
0.545077
-0.411491
0.107587
0.690821
0.538115
-0.409625
0.138442
0.689896
1.12008
-0.993314
0.125489
0.0921352
2.20506
2.19719
-0.261618
-0.250528
-0.252444
-0.266061
-0.292414
-0.283166
-0.276716
-0.296855
2.14111
4.36945
-0.830578
-0.848982
-0.836256
-0.842343
-0.270354
-0.285877
-0.256789
-0.28519
2.1617
4.42969
-0.845714
-0.847563
-0.850602
-0.845005
-0.248273
-0.260895
-0.264281
-0.244805
-3.29834
3.30731
4.39258
-3.31464
-0.936026
3.28674
2.05651
4.4139
0.930181
3.25963
-0.538075
-0.566233
-0.559631
-3.26463
0.948111
4.37876
4.35681
2.09399
4.38814
2.04779
4.39919
4.37585
-3.31053
-1.08521
3.27536
2.18147
4.41047
1.09332
3.28559
-0.53995
-0.553802
-0.558407
-3.28469
3.31855
2.19182
4.38035
-3.24498
1.08394
4.39426
4.33714
2.18981
4.38995
2.18561
4.41635
4.37254
-5.52118
1.0917
2.03511
-0.919821
-1.09737
5.54777
2.18909
2.06617
1.07605
0.881752
-1.10885
-1.10774
-1.10749
-5.48612
0.906108
2.16178
2.16346
2.07639
2.18147
2.0354
-0.634588
-0.10036
-0.144422
0.260895
0.240244
0.769267
0.112914
0.676905
0.280366
0.151378
0.673137
0.260569
0.138648
0.0901204
0.839778
0.286842
0.266236
0.263385
0.807049
0.241408
0.811314
-0.694743
-0.101392
0.409109
0.109524
0.703288
-0.4101
0.687562
-0.408108
0.10758
-0.707014
0.399817
-0.137288
0.139968
0.71133
-0.408026
0.685113
0.116446
-0.400611
-0.109057
0.939469
-0.143836
0.127215
0.0952415
-0.961636
0.103997
0.127563
-0.966797
-3.29427
3.31044
4.39293
4.3831
-3.31152
3.26575
3.27634
4.40731
-3.27783
3.31863
4.38224
-3.28867
-3.25865
4.41407
4.39173
4.37935
4.41714
4.37916
4.39062
4.36623
-0.921587
5.51035
3.27793
2.04506
-3.25926
0.909322
4.3461
-3.26094
-5.49022
2.01741
4.33743
-5.48649
0.920471
2.03248
2.05161
4.36364
-3.22587
-5.49718
4.33336
-5.4909
1.08809
-1.08414
5.50964
3.2634
2.17657
-3.23767
1.09088
4.33528
2.18891
2.20122
4.37161
-3.2419
-5.51606
4.3608
5.50308
3.25587
3.26842
-3.31345
-3.26667
4.42239
4.39151
-3.28368
-5.47988
4.37424
4.37638
4.36193
0.44837
-3.32086
-1.85904
3.30911
-0.000748583
-3.91608
-0.650162
1.54353
1.16515
3.31505
-0.794457
1.07498
-3.39237
-1.82033
3.49473
-1.45622
-3.74987
1.30477
3.3557
3.27014
-3.30525
9.37855
-4.23112
5.09185
-3.19059
8.90746
8.8994
1.08014
-5.27421
-0.0217464
1.13071
3.32292
9.48873
-0.0265857
3.32008
9.51117
2.22752
1.12581
9.4276
4.36548
-0.0267956
9.43385
2.21448
4.35046
1.07629
3.05527
8.23081
-0.035798
3.02666
2.05426
8.21399
-1.04386
1.97744
3.69644
7.81566
3.77205
7.90393
-0.0292679
-3.27018
9.23537
3.30492
9.47778
9.37823
4.31501
-2.95253
2.74218
7.5018
2.95165
8.04506
2.74291
3.51607
7.50019
3.25197
6.61812
0.888047
-4.16005
5.02689
-0.0093164
-8.83646
-4.08259
1.60994
4.87813
-5.24361
2.09545
1.11176
9.28435
-0.0252705
9.25686
2.17565
-0.978506
1.78593
6.75418
6.9767
-0.0197215
8.17828
-3.0674
-2.14618
-3.61442
3.97444
-8.65684
-3.90263
4.52692
-5.18461
9.13089
2.46342
6.10748
5.01351
-0.999816
2.63238
1.83473
-3.92083
1.58058
3.24577
-0.00115804
2.69961
-0.0325739
3.79969
-0.927437
1.69589
3.0175
0.55795
-3.80709
1.74844
3.25734
0.0114689
0.994145
1.71521
3.29624
3.10456
-0.0130261
-3.86459
1.4553
3.35737
-2.47532
2.20408
2.47391
3.74929
2.20523
2.79892
-1.30615
-3.59035
1.53051
3.39558
1.64855
3.35557
2.38017
-3.3562
-1.85912
3.38667
0.698686
-3.07148
0.0102204
-2.94514
1.15176
3.54064
-0.825461
1.4547
0.488659
-3.53007
3.24703
0.0152062
0.880109
3.31069
0.00666765
-3.28575
-1.73211
3.62654
-1.34054
-2.11109
-2.61881
3.52546
1.81664
-1.17798
-3.45279
3.47566
3.39354
-5.5204
5.89975
-0.892225
0.905429
-6.01438
-0.822368
-1.39432
-0.235316
-5.79376
0.675882
0.45089
-5.96323
-0.279768
-1.33566
0.533873
3.9734
-1.21003
1.15997
0.402181
-3.59941
1.09462
5.14986
-0.0071531
0.41095
-1.74808
4.1165
-0.00724583
-0.763736
1.09718
-1.77776
4.32839
-3.74219
1.08729
0.757305
5.26541
-0.469136
1.2442
0.868478
1.26973
0.0106861
0.450615
3.76141
1.51943
0.0116292
3.85229
0.835079
1.51435
0.388941
1.38108
5.3419
-0.0106235
0.736902
1.38917
5.42622
-1.08537
1.06814
-3.86792
1.08493
5.40221
1.20953
-1.16123
4.11389
1.45835
3.9737
1.49778
1.06903
1.40372
5.52098
1.40127
5.61076
-1.76722
4.208
0.419967
3.93856
0.006803
4.02628
0.786963
-1.6834
0.38282
5.62215
-0.0203126
0.380837
5.49802
-0.0138876
1.70631
0.72846
5.55992
0.73209
5.68368
-1.76274
4.51059
-1.11788
4.28095
4.14522
1.06583
1.73582
5.637
-1.7437
-1.07403
5.8216
5.71749
5.74834
-5.74129
0.661873
-0.0499025
0.313868
0.865302
-0.038599
0.870853
0.594189
-5.81849
0.251562
0.969747
-0.0511024
0.317206
1.17215
-0.0393415
5.85505
0.600958
1.18424
0.482254
0.991855
-0.718566
0.758383
-5.84405
0.719082
0.892323
5.90021
0.905345
1.21722
-0.757902
-5.93636
1.06942
1.03385
1.24232
-0.332673
-1.53623
0.637117
-5.92275
-1.31511
-0.0526498
-1.51499
-0.0436528
-5.87107
0.268968
-0.0528688
0.32283
-0.0419853
5.9065
0.615148
0.512136
-0.964505
-1.60592
-5.99512
-1.36819
-1.57471
5.95128
0.932048
-0.793145
-5.99049
-1.18341
1.47296
-5.85158
2.55836
-2.33464
-5.98218
3.17345
5.98231
1.05593
-2.73497
-5.48937
-1.88101
3.33893
5.85033
-2.9052
-1.77958
-0.716629
-3.37531
0.713927
-5.80778
-3.59109
3.88545
5.45753
1.06056
-3.69482
-5.574
4.22504
1.15239
5.10828
3.09353
1.08042
-2.74134
-4.0647
-3.56462
4.14446
-1.9014
5.54247
-4.64354
3.22342
1.11096
-2.79849
-5.4425
1.12865
5.90723
1.10165
3.46106
-4.21117
3.11394
5.22801
1.43549
-2.76574
-4.18665
5.49181
1.46111
3.4857
-4.3022
3.25264
1.48525
5.97232
-2.82682
1.51895
3.72409
5.86073
3.14481
-1.79034
-2.80088
-4.34107
-1.82679
5.55984
-4.42762
3.12885
5.42664
-2.78602
-4.2918
5.53493
3.51404
-4.37524
3.29143
5.93684
-2.86171
1.93323
3.77481
5.81119
3.83414
5.76319
3.91877
1.12807
-4.38155
5.60042
1.16843
-4.66249
4.57906
1.17399
5.64196
4.72492
-3.9647
5.56522
1.57436
-4.75061
4.66393
5.59122
1.50446
-4.46005
4.25105
1.56115
5.77757
1.60236
5.56216
4.68409
5.79567
1.06776
2.64131
0.874755
-2.36248
0.836064
2.80236
-5.93739
2.61084
-2.35203
3.191
1.43455
-2.75624
5.71356
1.45442
3.58988
1.11924
2.72967
-2.01049
5.36485
-5.00416
4.85471
-4.03385
5.4872
-4.88391
4.75241
5.58717
-4.54251
4.28382
1.99594
5.70335
-2.03251
-4.30725
5.21605
4.54714
5.42387
4.63753
5.57326
-5.70438
2.46058
-2.30022
-1.8308
3.22789
-2.83019
3.21162
-2.78821
5.57295
1.84491
3.5733
-1.36154
-5.34729
2.36507
2.59918
3.52295
-4.86695
-2.68534
0.571993
1.9791
1.00828
3.96657
0.742774
5.32421
3.84532
1.43974
-2.51329
-4.63446
0.706985
1.67472
0.977991
1.35089
3.86137
5.10779
3.7695
1.79672
-1.13228
-4.75797
-2.22834
-4.17188
1.23762
-1.64139
-3.63001
3.35216
3.67169
0.125793
-5.71386
0.644876
-5.9295
0.173094
-1.30765
-5.90324
-0.593598
0.7788
0.922573
-1.42626
-0.725804
-6.0271
1.04298
-1.28494
3.9055
1.08655
-3.31195
1.56834
3.56487
-0.514884
1.2079
0.942153
-3.16918
-1.69403
-1.09594
4.46181
-3.59794
1.41792
-1.73415
0.399452
4.11878
-3.30958
-0.398449
1.05639
0.767061
5.15245
-3.482
1.07981
5.0965
1.2581
-3.0911
0.484252
3.71778
1.50485
-3.18999
3.79262
0.887154
1.48019
-3.24537
-0.377558
0.730827
1.36775
5.38004
1.36786
5.32367
3.7773
1.15541
-3.3062
-1.08629
1.03008
5.46598
1.39738
1.04744
5.31066
-1.21114
4.05988
1.38428
-3.37248
1.49981
3.91493
1.44848
-3.31413
1.05363
1.37818
5.47914
1.36991
5.5753
1.38358
0.436624
3.92708
-3.22552
-1.73679
4.19906
0.758999
-3.39348
4.00231
0.806597
-3.29216
-0.355297
1.69513
0.700021
5.54837
-1.67291
0.342656
5.62522
5.49733
0.689258
5.6767
-1.13467
4.23128
-3.45482
1.44179
-1.72777
4.30048
-3.49134
4.11183
-3.37838
1.71915
1.03375
5.61604
-1.02926
-1.72001
5.80377
1.38147
5.73413
5.68567
1.37394
-7.66836
3.76555
-2.70103
2.09984
3.06592
-1.62712
-1.10027
-3.27526
1.33291
-3.31886
-1.84273
0.453861
-3.8177
-0.684126
1.49239
1.30285
-3.04397
-5.08841
8.20771
-8.63382
3.7849
-1.04394
-5.24844
8.84741
2.06886
-8.97653
-3.28271
3.27044
9.40555
-9.16323
4.32128
-1.08372
3.32067
9.49647
2.19325
-9.21206
3.31765
9.46242
-9.17344
1.07843
9.40587
4.36056
-9.14361
9.4261
2.17942
4.35403
-9.17083
1.04512
3.05474
8.14034
3.0285
2.09407
8.15062
1.02232
3.7793
7.82567
2.01242
3.71123
7.78742
3.30533
9.48073
-9.20243
-3.25071
9.27978
4.23585
-9.10456
4.24373
9.39171
4.31998
-9.15817
-3.04164
2.7392
3.69381
2.95371
8.0712
2.84267
3.52421
7.56785
3.22362
6.84026
3.36817
8.89093
-5.27089
-8.9796
-4.16354
0.891388
5.01658
1.06816
9.26772
-9.08242
9.25869
2.14505
-9.09313
0.971196
6.92649
4.08801
1.82652
6.76601
1.62842
4.90107
-1.02477
2.63165
1.98844
-3.77643
1.5678
2.71498
-3.72791
0.627051
1.73335
0.970432
3.11009
3.73466
1.828
3.01188
1.10406
1.6841
-5.18658
8.68094
-8.92316
-3.17605
8.95041
-8.98399
4.09849
9.16106
-9.05505
3.88208
2.52611
6.25045
-2.17284
-3.52795
3.98543
2.42949
4.55862
5.10944
3.02247
-1.6338
1.21249
1.79757
-3.8454
1.38638
2.42963
3.7362
2.39541
2.75493
-1.41727
-3.60885
1.43103
1.6263
1.58827
2.27964
2.62059
-3.06716
0.739797
-3.50098
0.530964
0.889113
3.52735
2.91249
1.56975
-1.82408
-3.36776
0.815146
0.93678
1.2134
3.52461
2.52986
1.96493
-1.23374
-3.45467
1.45921
-1.75347
-3.39646
-1.43779
-1.94901
1.39299
1.99711
-5.75169
0.670263
0.330906
-0.237211
0.863828
0.519522
0.853011
5.8487
-0.237081
0.520175
1.18251
0.142159
-5.81699
0.952218
0.364682
0.984978
1.15924
-0.815362
0.919813
1.14044
-5.83737
0.72787
0.897383
-0.640987
-5.94376
1.09385
0.968253
5.89929
0.823259
1.22428
1.04534
1.25392
1.1595
-1.50674
0.242081
-1.34177
-5.97061
0.429652
5.91358
-0.235874
1.54011
0.524932
0.158973
-5.87652
0.401059
0.543464
-0.689511
-5.99024
1.01014
-1.38936
-6.00488
5.95308
1.58427
0.841824
-0.872975
-1.61864
1.23009
1.19189
-2.40245
1.03859
4.80307
-3.85132
-5.95253
-2.30876
6.05796
1.04014
-5.58728
5.95526
1.50272
0.948012
-1.82192
1.00103
4.26691
2.09787
-3.46214
-1.69297
-1.20152
1.5179
2.03031
-6.05748
-2.11891
-5.08084
2.50242
-1.8073
6.00154
-1.14301
1.46779
1.34818
-6.02574
4.64194
1.74985
-1.67083
-3.77167
4.07475
1.02592
-3.36498
1.02738
1.72005
1.78374
4.21798
1.34297
-3.44987
4.4383
1.32865
2.08704
-3.5849
1.71968
1.3764
5.67793
1.0384
2.05595
5.72102
1.39686
2.06832
5.79634
1.74551
-1.73597
5.86917
-4.84092
-1.76932
5.94537
-1.68177
2.10869
-3.99063
1.75022
4.39807
-3.54772
4.62914
2.08397
-3.76865
1.72325
5.77533
2.08859
5.86855
0.99941
4.53128
-3.61912
-2.41733
4.95509
1.39722
-4.0029
4.68668
1.34722
-3.80246
-2.41198
1.08916
1.0613
5.85677
2.43612
1.42689
5.90303
1.45782
5.9834
2.46335
-1.72882
-4.19632
-5.29391
-1.84388
5.97368
-1.7713
-4.29555
-2.43791
5.12295
-4.18925
4.86096
-3.99134
2.46626
5.95819
5.99733
1.28575
0.827946
-6.02112
0.865238
1.65524
0.984141
1.89575
1.31611
-5.99186
-6.0409
1.18089
1.67249
1.52929
1.29596
1.34135
1.92342
1.37428
-6.03924
1.50035
-6.04922
-6.05163
1.70787
1.61029
-1.66601
-1.71584
2.00502
1.56757
1.96194
-6.06233
2.02206
0.885795
1.01634
0.888546
2.0263
-6.06211
-6.04353
1.20434
2.3345
1.37978
1.40976
1.08783
-7.50852
-2.94841
3.28439
8.58835
-2.07153
3.30624
-7.66831
3.32287
8.7621
1.31053
-3.37468
-5.35747
-7.39709
8.50987
1.78986
2.99221
-7.15403
8.18951
1.94694
-5.00697
-7.13478
8.04328
5.11185
1.70303
-4.97295
1.04999
5.26897
-2.9058
-5.35096
0.97336
5.36009
3.23428
-2.79544
4.90636
2.78785
1.71876
-3.27788
-5.84941
-7.65147
4.37891
8.94272
1.02743
-7.64737
3.37014
8.74198
1.15857
-5.61044
-7.55006
8.79714
5.38364
0.971525
-5.46558
5.42602
-3.15394
-5.58142
4.27417
-3.24452
-5.49053
3.30372
6.62787
4.36298
5.45711
0.939274
3.27969
3.19411
-2.76628
0.969194
6.43455
2.72532
-3.152
-5.25201
-3.21645
6.29564
4.17931
5.34004
-2.60521
0.910023
4.28373
5.29235
3.19812
-3.24736
0.945856
6.41342
4.23684
-3.23791
6.32547
-3.13239
4.19948
0.938549
3.26307
6.5581
5.48355
3.29908
2.04511
3.28127
2.03015
6.58675
-0.921926
-5.4631
2.01723
6.57446
4.36033
5.43945
0.915617
4.37039
6.54675
4.33203
2.05098
4.38723
-1.69194
-2.98703
-5.09006
6.14328
4.01892
2.87071
1.70313
6.05048
4.99978
1.67114
3.87301
5.07013
2.97417
6.11129
3.94217
6.13324
4.00786
5.47477
3.26016
3.29
3.30406
6.58077
3.33534
4.38099
3.2298
-5.45303
6.56926
4.39717
5.50027
-3.26735
4.4474
4.39195
6.6546
4.37513
4.35246
4.38624
3.1743
-2.87368
1.0287
3.15671
-7.36259
-3.39014
8.38537
7.32164
2.96935
-3.15639
-3.3736
4.18595
-2.94986
-7.50554
1.07611
4.36211
8.52545
-3.41036
4.17225
8.31178
1.08773
4.25368
-3.31344
2.93826
5.20537
-5.22331
-3.34714
6.24671
-5.29501
-2.98625
1.12997
6.4046
5.19633
-5.23382
-3.32614
5.31696
-2.62728
0.897036
1.05854
6.36564
-3.40125
6.24646
-3.15675
-7.67729
3.37056
8.76729
0.968682
3.19732
3.22717
1.9922
7.67257
-1.00042
1.97071
4.31905
1.0249
-7.65125
4.56525
8.72617
2.10769
4.56479
8.74605
4.29516
-0.971595
5.44104
-5.46132
1.93972
6.55414
-5.41359
1.0479
6.4772
5.41597
-5.48685
1.94445
5.43415
0.897622
6.52503
1.99686
6.47868
2.0387
-7.72603
3.47981
4.47984
8.84627
-3.20297
3.17876
4.33012
3.23612
7.66885
3.19032
4.3059
-3.3477
-7.77744
4.76225
4.50872
8.86083
4.52025
8.74975
4.30516
4.33504
3.02281
-7.18576
8.19818
7.17205
-1.7327
-3.01092
4.03224
1.81832
-7.17226
4.01852
8.16603
2.94051
1.72687
4.02278
8.15326
3.99975
5.04647
-1.71338
-5.10401
6.14186
1.75293
-5.01339
6.15653
5.10386
-5.04699
5.07048
1.67489
6.12318
6.14627
3.15257
5.47154
-5.47652
6.58117
-5.4412
-3.19899
6.50222
4.34708
5.44773
-5.50238
5.55603
-3.25608
4.3795
6.61951
4.2749
6.49303
-5.15062
-7.22799
-3.71011
8.23949
7.27774
2.9881
5.21985
-3.40975
-3.03069
-7.46674
1.05684
8.42963
-5.40123
-2.97026
1.01749
-3.47752
8.2457
1.12987
-3.43355
-5.65658
-7.57709
2.08051
8.72238
7.63666
-1.05389
5.46835
2.03478
0.989885
-7.62176
8.63246
-5.47865
0.962562
2.1093
8.68224
2.11243
-4.99746
-7.09766
8.02893
7.14137
5.0435
-1.77345
1.86211
-7.16563
8.12263
1.83678
-5.04317
8.09942
-5.66344
-7.5492
8.65397
7.66025
3.24298
5.43206
-3.38997
-7.71159
4.50765
8.70665
-5.55979
-3.38962
4.59814
8.68916
4.41165
5.47772
-3.33116
3.37208
4.44414
1.10134
5.45717
3.34649
-6.59297
7.6248
-3.18012
3.15752
4.23538
-7.59518
1.10503
3.40433
-3.35508
-8.10732
-5.68792
4.40933
-3.22219
-5.43696
-5.39459
6.47637
4.31807
-5.44216
-1.05701
-5.42304
2.13316
6.49759
-1.1167
-7.71718
-5.79265
2.27696
-3.29874
-5.46694
-1.07953
2.17221
4.36964
6.58056
5.48658
3.36944
2.21794
1.0839
3.27879
6.56635
1.09792
5.43729
4.45658
2.17759
6.60155
2.21563
4.47994
4.3518
6.55107
-3.26568
3.28907
4.34273
-3.29755
-5.47382
3.25705
6.58908
4.36841
5.48124
3.37001
-3.33448
5.47701
4.49449
4.45377
6.59588
4.48358
6.59386
4.35225
4.32679
-1.07992
-5.5991
2.16591
-5.41995
-5.40732
6.48071
-5.57362
-5.46486
-1.06802
2.14576
6.56539
1.10241
5.4304
2.22146
6.5365
-3.18017
-1.05516
7.61384
2.1147
4.24057
1.06318
3.17505
-7.6342
3.42113
2.23055
-7.58254
1.10229
4.57133
2.12656
4.22939
2.23359
4.59104
-3.36307
3.44054
4.53278
-3.17039
7.62391
3.16893
4.23837
-7.62896
3.42802
-3.38151
-7.63167
4.67079
4.60196
4.61087
4.24169
4.23988
-5.44914
-5.41902
6.49575
-3.25368
-5.63469
4.38284
-5.61012
-5.4753
3.21329
6.57137
-3.33288
5.49452
4.43526
6.56027
4.27647
-7.66602
-5.7863
-1.0606
-5.33631
2.14651
-5.31864
-1.04958
7.61148
2.11233
-7.5789
1.10831
2.262
-7.81335
-5.77382
-3.24419
-5.37125
4.33822
-5.34691
7.62869
3.18743
-3.45329
-7.66882
4.55463
4.3011
-6.80231
-8.15646
7.71454
3.30072
8.58321
5.72997
-7.62181
3.5185
9.07695
-6.4354
7.48695
-5.46817
3.30413
6.54108
-5.47747
3.23056
5.40307
6.58047
-6.44632
-3.22891
-5.49447
3.82673
2.79991
5.64229
-5.50207
-7.78865
9.129
-8.12287
-5.65522
5.51217
8.52655
5.52605
5.40924
-5.57725
-5.57306
3.26759
5.45235
6.69113
3.37044
5.59758
5.49604
4.47256
5.43912
4.39785
6.68855
5.37745
4.28561
6.56732
3.23071
6.50981
4.33643
6.48501
6.40235
-5.54538
5.5737
6.79767
-5.33791
5.37213
6.46425
5.54778
5.46904
5.40661
6.62515
5.334
6.48728
5.39376
6.40111
6.46565
6.37998
6.69969
-7.74893
3.44031
8.9714
-5.32445
3.25627
6.43392
3.17151
-7.65861
5.65632
4.62019
8.99863
5.35789
4.30154
8.10116
4.36102
6.48011
4.47097
6.77477
8.7344
5.65372
-7.83666
3.62915
8.89823
3.0864
6.67262
8.49767
3.4212
-7.80468
5.62435
4.61579
8.81506
5.51814
4.659
7.43266
4.31274
6.56184
4.22011
6.90054
8.63614
-5.68848
-7.97983
6.37193
8.46798
-7.71679
5.56131
8.75205
-5.87961
5.63957
5.61066
7.43356
5.31763
6.73393
6.90756
8.94638
6.98314
-5.42494
5.48624
-7.90757
5.60113
8.84605
5.40374
8.13268
5.51382
6.57686
-5.51631
-8.04553
5.91843
8.09174
6.53312
8.54217
6.98698
7.61436
3.26979
-7.97974
3.01789
8.03924
8.03188
3.42812
9.16805
7.81792
8.09287
4.46399
-7.69222
-7.34024
3.49622
7.50019
7.35869
4.5143
8.86609
4.28233
8.41686
-4.97547
-7.33044
7.03043
8.02382
8.00654
5.78347
-7.21617
-6.8631
5.89356
5.77504
-4.79555
-7.37281
6.47065
8.27277
7.99
4.16334
-4.06899
-8.81139
2.00411
4.75329
3.43168
-7.59995
1.34297
3.63894
-3.69459
-1.53603
-2.31549
2.69736
-2.26676
-3.19525
0.831421
2.59224
-1.49642
-3.22317
1.58281
-1.92143
-3.39707
0.927733
2.0743
-3.41874
-2.41127
1.80115
3.48503
-4.73506
4.06552
7.02376
-9.22803
2.39079
6.53396
5.2274
3.19411
3.03322
5.97554
5.11524
8.99211
4.08796
8.33197
3.75193
5.63345
3.71795
2.85071
5.19478
2.19886
3.5988
4.09111
4.78567
8.4709
-3.99178
4.82796
7.1115
4.949
-2.93461
2.07328
3.5518
3.16759
4.24691
1.77973
2.47901
3.58286
1.40072
3.4022
4.90921
-6.17726
1.68892
4.94517
0.543322
3.21318
2.2939
2.61779
-5.44887
3.95771
1.35846
3.58296
6.40545
2.90659
2.38426
1.11991
3.4158
0.371024
3.18454
2.06956
-3.55252
1.04714
-2.93381
1.11853
2.29261
1.6498
-3.46524
1.79147
1.28026
2.32689
1.62541
3.31346
1.07824
2.00654
1.14314
1.9759
3.82724
4.63088
-0.487224
3.13244
1.5755
3.28259
2.03432
-0.411612
-1.34986
3.14847
1.71612
1.72901
0.748179
3.34995
3.05707
1.70803
3.14931
-3.38027
1.67053
-1.4583
1.40886
1.75655
3.23284
1.15442
1.72295
-1.39669
-3.39939
1.91367
1.90824
1.56612
-3.12138
0.823237
2.18821
0.694642
0.60014
2.28809
3.20902
1.97954
0.839925
-2.23872
-3.33923
1.14573
2.61628
1.08076
0.743784
2.24889
-0.95126
-1.8107
2.28877
3.37767
1.88638
1.02916
-2.25351
-3.56224
2.66961
-1.4331
-3.58402
2.21153
2.02838
-6.02833
1.51411
-6.00506
-5.9221
2.41072
-1.75992
-1.79734
2.36957
0
0
0
0
0
0
0
0
0
0
0
0
0
0
0
0
0
0
0
0
0
0
0
0
0
0
0
0
0
0
0
0
0
0
0
0
0
0
0
0
0
0
0
0
0
0
0
0
0
0
0
0
0
0
0
0
0
0
0
0
0
0
0
0
0
0
0
0
0
0
0
0
0
0
0
0
0
0
0
0
0
0
0
0
0
0
0
0
0
0
0
0
0
0
0
0
0
0
0
0
0
0
0
0
0
2.24789e-11
2.69438e-11
-4.08741e-10
-5.69491e-11
1.89289e-11
0
0
0
0
0
0
9.10161e-13
3.93019e-14
7.75824e-13
-1.16738e-11
-2.45004e-12
7.31859e-13
-8.61533e-13
-3.18279e-12
-1.20215e-12
-1.70848e-10
4.67359e-12
7.91101e-12
-7.00577e-11
6.78924e-12
5.00933e-13
-1.11768e-11
-1.65734e-12
6.15952e-13
3.66374e-14
-4.39959e-12
1.63869e-13
2.90878e-13
-4.10694e-12
9.50351e-14
2.03393e-13
-3.21165e-12
1.20042e-11
-1.98193e-10
-3.8038e-11
-1.14713e-11
8.9817e-13
-8.55085e-11
1.99663e-12
-1.94141e-10
-3.99387e-11
-8.59184e-11
2.02993e-12
-8.41549e-09
1.93245e-09
1.81625e-09
1.48873e-09
-4.25832e-10
-2.56634e-08
1.21946e-07
7.76237e-08
5.12823e-08
-1.75988e-07
-3.55368e-07
3.36692e-09
-4.33215e-08
3.09006e-09
-2.7965e-08
-1.60078e-09
-8.29393e-09
7.1082e-10
1.80477e-09
1.46749e-09
-2.56295e-08
-4.32516e-08
1.19778e-09
3.03245e-09
-2.77744e-08
5.15835e-08
3.84754e-08
-3.4703e-08
-5.08452e-07
1.15257e-07
2.72504e-08
5.11994e-08
-5.31681e-07
3.0137e-08
3.82445e-08
-5.05694e-07
-2.8283e-09
-1.26506e-10
-9.95071e-11
1.72822e-10
-1.96359e-09
5.12061e-10
-2.23273e-09
-2.62043e-09
-3.79444e-08
2.9019e-09
3.00902e-09
-1.20251e-10
2.80347e-10
-1.24318e-09
-2.91291e-10
4.48732e-11
4.98721e-11
-1.12694e-09
5.26561e-11
-1.15492e-09
-4.40107e-09
1.73645e-09
4.62915e-09
2.38477e-09
3.18594e-09
1.75252e-09
3.17695e-09
-3.68239e-12
-3.45057e-13
5.17364e-14
2.41585e-13
1.71863e-13
2.70894e-14
3.65841e-12
3.6513e-12
3.43725e-12
-1.39147e-10
-2.691e-11
2.66276e-12
7.84084e-12
-1.44107e-13
-5.79536e-13
-1.56986e-13
-9.41025e-13
8.65974e-15
-5.92415e-13
2.73115e-13
3.30846e-14
-3.61045e-13
3.55271e-14
2.51354e-13
1.78968e-13
-7.08766e-13