/*--------------------------------*- C++ -*----------------------------------*\
  =========                 |
  \\      /  F ield         | OpenFOAM: The Open Source CFD Toolbox
   \\    /   O peration     | Website:  https://openfoam.org
    \\  /    A nd           | Version:  9
     \\/     M anipulation  |
\*---------------------------------------------------------------------------*/
FoamFile
{
    format      ascii;
    class       volScalarField;
    location    "0.0004";
    object      p;
}
// * * * * * * * * * * * * * * * * * * * * * * * * * * * * * * * * * * * * * //

dimensions      [1 -1 -2 0 0 0 0];

internalField   nonuniform List<scalar> 
2674
(
77784.6
222709
205517
64520
235136
212089
72809.6
70426.8
141806
124533
75423
83546.6
123340
143271
81467
168499
143406
228205
233461
145131
169247
238408
162539
225650
159488
220783
165999
163448
233341
123709
70454.2
111366
67540.6
117723
114691
75338.4
172821
237815
233282
173159
174751
183098
240161
166652
221734
230620
162669
165049
139956
236588
145113
73298.4
144449
83664.5
145445
147340
71251.1
140915
69565.2
116702
77787.5
125525
116155
78597
207868
213419
219344
224676
206568
209541
224844
222965
238402
237682
218970
220772
221196
239648
206259
219288
221340
176967
207832
194473
221776
98563.4
76306.3
103062
73808
99771.2
100627
76361.5
114115
143465
140310
116677
141401
105456
117011
115510
141302
145105
117864
106935
142260
117981
190828
176383
167699
190810
170084
191614
192134
184296
183025
156744
164361
162827
183010
185051
209778
222907
218027
229739
209750
213837
228146
217380
232269
215634
236858
215706
218775
234812
184603
165514
156892
185027
163685
184111
187194
190360
167905
177100
190931
169691
190328
192514
218541
218167
238403
237499
219134
219139
236813
186221
161087
159202
184128
186126
144072
183974
210682
220312
204400
226662
183951
212411
226072
209375
217111
198634
223310
181004
208267
224933
223459
211451
231630
230206
215065
213217
232328
198184
170271
171802
196236
196167
195774
171742
226005
241949
221745
243023
224315
224279
243867
220207
233451
217635
235795
217931
217950
235567
198376
195842
171749
174377
196856
197028
172257
200325
171971
198258
174278
199887
198011
173127
197147
172196
195379
175379
195431
194016
173317
223984
222019
242730
241351
223295
222006
241631
188023
166570
171690
187756
187386
188460
169588
207135
221467
210862
224923
208630
208812
224306
213176
230818
215982
231268
212392
223198
228502
185776
164631
190249
142756
188678
156110
187752
181845
160993
178430
140985
182713
159240
177346
215251
215819
234869
236749
215229
216079
233989
121894
141487
143794
127476
122738
141831
125692
98492.4
76803.3
103551
76941.5
100788
100649
78145.4
120923
129787
142420
145476
122990
142105
126287
120484
142821
128798
143952
123374
123609
142229
119307
143046
146247
107521
144545
115924
117140
98080.4
100849
75282.1
71057.2
99229.7
99545.3
75099.1
102566
140068
139424
115577
102148
138245
114354
101298
101298
101298
101298
101298
101298
103020
101299
101759
524176
101299
123714
101299
336283
101299
101298
101364
101298
101298
101298
306302
1.57856e+06
234160
153262
1.17345e+06
104040
108967
107234
106484
217578
103344
103565
101417
101342
101298
101298
101298
101298
101303
101298
101298
107304
101517
117971
102023
461840
101570
101308
101299
101364
105537
131313
101782
101809
101308
121722
108520
101456
101389
101305
101300
101559
101298
101298
101298
101298
101298
101298
101298
101321
101307
101934
101332
101299
101298
101394
101298
101298
101298
101298
101298
101298
101298
101300
101298
101298
101405
101337
101300
101299
101300
101298
101298
101386
101331
101300
101299
101372
101301
101298
101301
101298
101298
101298
101939
101312
101319
101306
101298
101298
101298
101298
101298
101303
101614
101312
101298
101298
101298
101298
101298
106082
101298
101305
101298
101298
101298
103140
101631
101381
101429
101327
101304
101300
101298
101298
101298
101298
101298
101298
101298
101299
101387
101774
101304
101332
101298
101298
101298
101298
101299
101316
101305
101298
101298
101298
101299
101298
101298
101298
101306
101298
101298
101298
101298
101299
101298
101306
101298
101298
101298
101298
101298
101299
101298
101298
101298
101299
101308
101299
101298
101298
101298
101299
101298
101298
101298
101298
101298
101301
101298
101298
101298
101298
101300
101298
101298
101298
101298
101298
101298
101298
101298
101298
101298
101298
101298
101298
101298
101298
101298
101298
101298
101298
101298
101298
101298
101298
101298
101298
101298
101298
101298
101298
101298
101298
101298
101298
101298
101298
101298
101298
101298
101298
101298
101298
101298
101298
101298
101298
101298
101298
101298
101298
101298
101298
101298
101298
101298
101298
101298
101298
101298
101302
111190
101301
101298
101304
118924
101298
101298
421970
109822
484232
112803
114784
101590
101507
101703
117544
555772
535737
115727
118144
101669
101298
101298
101303
101489
101569
101305
101303
101302
101298
101298
101453
101515
101304
101302
101303
101298
101298
101307
101614
101575
101306
101305
101298
101305
101649
101307
101639
101306
101298
101298
101298
101298
109827
101298
117750
101298
113478
101899
102169
101457
101534
101314
101309
102558
101322
101620
116352
102409
101593
101319
102036
915291
101620
973804
830166
906676
101897
101706
829319
838139
848508
488639
413418
469999
429837
924435
856646
869764
494629
473450
470618
489082
928118
864969
878213
468143
381608
425437
410110
950564
952139
903580
471188
370930
439618
406764
132581
126763
102004
102239
125724
132428
102229
132416
102171
120853
101962
130066
123126
102230
126802
101847
113076
101737
120485
116696
102039
127358
101767
115154
101902
121357
117503
102066
592759
67957.6
69298.9
798626
66531.2
68716.9
533109
674644
84359.3
64035.1
67626.8
92506.3
61793.1
86329.9
92743.5
90066.6
66276.7
67160.8
106373
63823.5
95707.3
102438
88131
96913.6
66207.1
66246.7
96150.3
64280.4
89626.4
92852.8
66291.3
120981
66579.7
102336
64125.6
106699
184544
495570
205437
530515
185268
202931
502099
193673
224325
605640
516928
229069
192481
525586
205874
664659
273423
570502
219541
264936
550945
219252
671047
353888
705227
264385
288234
582122
101298
101299
101300
101332
101347
101299
101299
101298
101301
101301
101371
101299
101361
101299
101298
101298
101298
101298
101304
101304
101298
101298
101298
101298
101301
101303
101298
101298
2.00957e+06
86408.2
771440
71538.3
990013
176334
1.47304e+06
1.3948e+06
1.9719e+06
752214
1.91682e+06
91065.5
101299
101326
101318
101711
101303
101361
101426
69956.8
175768
194283
143978
125890
348672
99538.9
212641
189486
61042.2
131864
136129
96719.8
116402
60210.8
122676
220645
128893
157462
157129
935273
139972
155308
181231
174211
144773
150470
164138
152412
159960
219139
182492
150332
161492
186889
149740
201220
152998
174775
144663
158403
183006
187954
203158
209556
204167
176338
199441
208451
190585
213344
207705
209103
180711
202311
212239
104907
116800
69074.6
64379.8
106152
62607
115473
71136.7
76704.7
971061
215847
335863
1.39659e+06
1.26109e+06
797825
154533
71671.7
874090
231786
1.05611e+06
1.40155e+06
97332.3
67117.7
113200
63277.4
102707
62468.5
110080
126248
790337
130982
1.89854e+06
195583
1.93568e+06
263067
100907
65172.4
105459
60942.3
93538
60930.4
111456
136826
160184
139935
109966
133678
113406
166236
216490
911216
126755
2.33639e+06
789125
1.95444e+06
210190
121147
145922
163291
165816
137170
133201
154393
114627
146000
150395
157577
127469
135939
129584
120024
152011
119628
106221
101929
127548
142757
134624
158699
139880
107508
112119
129020
164167
113709
69845.3
80046.4
79672.8
114575
166664
161455
86057.5
67225.8
81256.2
96599.8
86890.4
80362.7
66542.8
72677.5
59872.3
97068.2
103426
65134.4
87643.5
85366.1
659593
1.1733e+06
850980
493563
1.83188e+06
1.1128e+06
169869
67073.1
94512.4
69884.3
66162.7
80124.9
86121.9
75767
118792
77604.6
81023.8
90815.7
146435
171520
224933
76680
67282.5
81080.3
118590
83306.2
83654.5
72967.8
82061.7
73317.2
78963.1
101442
78716.5
75158.4
67738.9
70872.6
159596
93549.9
83069.2
126287
192477
255857
129960
2.56634e+06
299395
2.08405e+06
370375
2.03105e+06
1.56769e+06
94147.5
135077
106562
137628
95834.5
114724
112430
96554.1
143870
102583
118178
105784
109628
132336
98480.1
151327
114922
99481.9
118969
94685.4
136728
130674
116380
116628
167377
163179
171211
163254
131493
116593
116041
168641
169575
178054
164748
131173
118328
124925
172556
183714
221040
197900
534372
1.96437e+06
745672
102417
1.04238e+06
101933
802450
107983
222925
109410
318321
673469
304500
697700
65978
162487
167477
172729
93497.4
88358.4
98429.8
114384
196171
112221
227716
507916
235417
500276
1.56527e+06
1.94105e+06
581859
101350
459998
102232
1.0241e+06
307551
768409
319195
523867
1.02286e+06
503507
1.03948e+06
137995
244134
123694
217758
402485
452426
703370
991989
101465
969323
509238
332693
101304
101300
431234
88501.5
233733
117242
223533
367576
679421
111710
309828
137622
728364
329062
439667
909801
937337
191337
101299
921757
248502
101485
101299
77649.7
103213
102445
332147
129536
144946
71824.9
72585.4
88245.8
84088
264932
68445.5
106664
128976
118405
276096
138090
557379
257842
338164
712992
101671
804344
1.0075e+06
172945
493168
101298
101303
89902.1
120996
114100
197214
114516
123982
112514
840713
497828
375571
605380
1.22271e+06
753610
1.10891e+06
149798
256259
119786
374265
959053
791260
498233
925484
334385
441427
1.07046e+06
545595
692112
1.18691e+06
122609
214557
113265
236692
631307
272681
537189
137851
246144
141294
316889
474421
259025
594102
132256
119464
136704
180621
206299
289113
218869
356748
306747
704118
975951
381061
903268
288779
362973
712744
316240
1.01596e+06
916082
403559
292670
353449
1.11574e+06
437806
576692
1.16631e+06
1.36348e+06
461429
979243
579444
2.29085e+06
101603
600221
101300
110024
102219
552486
410041
506998
184477
205872
254837
227737
780686
407338
1.21032e+06
733987
1.09028e+06
1.5579e+06
149043
582419
225367
816157
362189
564247
1.14047e+06
545580
1.25549e+06
1.27015e+06
1.17253e+06
1.17147e+06
1.78269e+06
1.77911e+06
1.2033e+06
1.02027e+06
683903
986274
1.50661e+06
1.43518e+06
1.34671e+06
884535
151784
101298
225552
102239
101299
101298
439494
505934
218388
706953
1.70106e+06
1.27477e+06
1.12035e+06
386326
443112
194779
528696
1.5189e+06
1.03584e+06
922420
294152
914144
457566
1.36488e+06
864809
1.15268e+06
1.63151e+06
715927
1.35155e+06
1.35613e+06
981240
1.03464e+06
1.32121e+06
1.38563e+06
164674
433253
207877
515909
753830
1.0345e+06
360472
883679
1.32811e+06
1.33211e+06
1.37799e+06
862081
1.3475e+06
1.3336e+06
594682
1.40198e+06
1.18826e+06
1.85921e+06
627046
1.33601e+06
1.15399e+06
610602
1.47441e+06
1.344e+06
1.35587e+06
1.23077e+06
1.81133e+06
1.86629e+06
743860
1.3195e+06
1.48603e+06
1.24494e+06
1.4317e+06
1.81585e+06
1.89637e+06
853836
1.13345e+06
1.55212e+06
2.15187e+06
1.72807e+06
682554
1.34334e+06
380878
1.24953e+06
513817
763824
1.38581e+06
1.63804e+06
558088
971216
1.3986e+06
1.53421e+06
1.34004e+06
1.4169e+06
1.12312e+06
1.3643e+06
1.36282e+06
1.38789e+06
918123
1.08025e+06
1.34981e+06
1.52178e+06
1.41393e+06
614685
1.45901e+06
1.8688e+06
1.29267e+06
1.35315e+06
699599
1.18553e+06
1.51196e+06
1.27557e+06
701204
897293
2.04716e+06
1.70487e+06
1.47277e+06
994320
998512
986681
411746
401739
290018
300843
945182
815882
828272
298064
311315
196651
193676
996091
882833
952803
303784
365612
258587
209022
996768
1.00299e+06
949726
404651
346955
294518
249414
1.08935e+06
2.18187e+06
1.84989e+06
2.20669e+06
1.79574e+06
2.11398e+06
2.14999e+06
953685
777630
819831
274087
304123
188988
168916
1.33478e+06
1.67792e+06
1.5666e+06
1.95173e+06
1.8891e+06
1.95092e+06
1.9753e+06
1.42703e+06
1.42886e+06
1.97177e+06
1.27579e+06
1.8315e+06
1.52473e+06
1.76088e+06
1.25554e+06
2.39129e+06
2.23943e+06
2.27047e+06
2.03944e+06
1.82162e+06
1.73852e+06
1.30512e+06
1.23788e+06
760132
1.54559e+06
2.11124e+06
1.94152e+06
1.95078e+06
1.38718e+06
1.6913e+06
1.35949e+06
1.65465e+06
829661
1.77331e+06
1.2197e+06
1.67159e+06
1.50602e+06
889165
1.22247e+06
2.30537e+06
1.98058e+06
1.83084e+06
839024
952458
425603
940883
2.27907e+06
1.54031e+06
1.64242e+06
1.64903e+06
1.26466e+06
1.43751e+06
1.6617e+06
637895
1.66165e+06
1.13472e+06
1.24778e+06
1.95229e+06
1.6944e+06
2.66451e+06
2.13035e+06
1.95901e+06
962170
1.8082e+06
1.98223e+06
1.79849e+06
1.80036e+06
996592
1.81102e+06
998579
108745
101315
191121
101298
101298
101298
101299
200418
101309
138857
101298
101299
101298
101298
1.68852e+06
1.00843e+06
1.68501e+06
1.47722e+06
433901
1.50476e+06
410554
1.71251e+06
915645
1.73617e+06
410574
1.48773e+06
1.38848e+06
328981
966264
656148
864821
166005
257196
180283
127232
1.98789e+06
1.88349e+06
1.82055e+06
1.77814e+06
887262
977013
1.72106e+06
1.6974e+06
933518
1.69562e+06
1.42357e+06
285697
1.3234e+06
361078
1.85414e+06
1.84709e+06
1.95703e+06
943296
1.79353e+06
1.70837e+06
784154
840065
483410
817789
172632
115758
180043
114221
684621
750008
218492
501430
151746
138668
114747
1.71914e+06
2.6996e+06
2.40974e+06
2.62832e+06
2.40716e+06
2.34989e+06
2.28673e+06
654334
422225
759679
154475
106809
110764
131181
242512
553532
551799
122082
104556
122373
104378
835065
411712
756594
114331
174426
149840
109782
1.82306e+06
1.88869e+06
2.104e+06
2.40105e+06
2.27058e+06
1.76829e+06
1.19769e+06
2.02625e+06
1.74643e+06
2.21342e+06
711511
1.61498e+06
1.38372e+06
442278
117102
101298
101300
101298
101298
101298
101298
1.7748e+06
367276
1.11194e+06
434695
1.60453e+06
1.50863e+06
842572
466626
223309
526029
119246
103016
114135
103832
1.66135e+06
354397
1.495e+06
196984
1.15191e+06
838980
130572
2.35378e+06
1.74195e+06
2.22673e+06
1.60215e+06
307628
544844
1.34284e+06
116241
101682
115274
107107
101452
107630
101438
106597
101478
108306
103381
101330
102777
101345
1.70879e+06
716846
1.81788e+06
1.23605e+06
137280
212866
935326
101352
108318
103587
101498
108869
103645
101352
115109
101539
110670
101436
107159
105201
101385
101590
108049
112243
105702
101353
103852
101400
393235
284749
605320
121418
102370
104873
108101
483741
138048
281059
103548
113603
104858
101882
368723
120043
240961
102175
108308
103898
101614
725767
165542
128696
102382
750336
163914
126514
672807
140631
102231
114669
156738
569520
121717
155484
124966
713363
584513
101844
133319
115765
1.30777e+06
1.78382e+06
2.22104e+06
904464
110906
192011
346825
528360
168277
1.10552e+06
433023
102042
161898
107340
159077
108579
102892
105849
102269
101374
101425
190279
109574
108766
103116
102915
101432
101446
166586
104773
107025
101952
102460
101399
101356
186712
78937.6
59707.7
125642
166361
190255
122412
63067.2
128475
142156
151255
169914
195041
139306
153714
174840
142258
213279
170190
152730
152559
140845
174730
175823
212488
201705
203286
175318
200098
202136
503526
1.01219e+06
969901
73755.6
360148
872982
1.07607e+06
91018.5
62072.3
107099
61212.7
105366
92131.5
60880.6
88886
101775
63133.5
60637.3
84350.1
104753
60720.6
123092
126808
147939
100289
120407
102046
152497
121834
149910
101406
127333
117511
101828
153153
72337.3
90639.5
137678
90610.7
136013
233941
231142
73937.3
131530
83580.9
76169.8
73822
84349.9
76808.2
106739
175097
73718.2
94722.7
146474
260086
321433
72129.5
86632.7
90573.9
141566
71253.9
85662.3
79369.6
374185
153596
157629
501883
968631
489210
989793
871463
410337
407801
686659
1.14974e+06
683162
1.1572e+06
210757
417216
173183
558854
1.18115e+06
672160
1.0609e+06
542657
918611
448777
744049
1.2628e+06
851702
1.19895e+06
1.09504e+06
1.06391e+06
1.48774e+06
1.30232e+06
1.08502e+06
1.49576e+06
1.30631e+06
1.15763e+06
1.58744e+06
1.30709e+06
1.03485e+06
1.26434e+06
1.53581e+06
1.31572e+06
101395
102629
105570
102915
101307
101331
101785
104190
101318
102291
101313
102045
101556
101303
389808
104890
102938
101493
113465
106962
218998
102829
101335
101594
101303
103006
101564
101331
102399
101310
101403
101302
101489
101903
101322
101689
101304
101331
101299
101568
101348
101306
101308
101764
101364
101756
101299
101360
101308
101330
101560
102832
102261
101301
101462
101318
121273
107765
414900
240050
101388
107797
103285
106506
108464
140078
101914
101312
101411
101379
124084
101798
103008
101409
101668
101325
101305
106137
102781
101565
101723
101373
101322
101304
101680
101300
101315
101299
101359
101305
101416
129480
101417
101313
101340
102442
104736
101664
133345
407579
1.06233e+06
1.71384e+06
124196
881119
300176
1.96639e+06
126126
117751
118675
192821
169465
192770
169090
127822
129235
121742
204500
192571
229665
177634
310951
136614
138859
323822
724558
318567
743438
167393
343062
147336
352613
914450
412865
805432
459835
854806
345360
1.12751e+06
464550
1.11206e+06
336993
495024
421223
1.31719e+06
919319
574873
1.17768e+06
363631
802287
1.97255e+06
1.55517e+06
1.41623e+06
798474
1.5534e+06
1.43477e+06
2.03543e+06
1.60939e+06
1.99924e+06
860345
1.58523e+06
974815
1.49309e+06
2.0119e+06
1.23887e+06
135188
103294
1.65215e+06
152756
2.05075e+06
104576
2.93123e+06
139501
1.94e+06
145659
1.22478e+06
1.04059e+06
525234
1.29651e+06
1.8762e+06
324236
2.60353e+06
1.63625e+06
1.54647e+06
1.42135e+06
424638
106072
821865
1.54129e+06
558631
110940
140400
150919
167195
220506
280777
392983
284229
724991
134026
2.7763e+06
1.02911e+06
2.29782e+06
101329
704812
1.31534e+06
328619
101316
2.29154e+06
308573
107680
101299
210594
730191
302932
1.09786e+06
529958
744083
1.38257e+06
187739
472516
246812
647863
863716
1.15879e+06
453262
1.08563e+06
119144
101707
2.28108e+06
120018
298360
101310
533586
1.53658e+06
725855
1.00709e+06
1.6396e+06
1.84092e+06
754596
849202
1.48709e+06
1.50851e+06
1.43169e+06
1.45953e+06
1.7655e+06
1.76901e+06
922413
1.64865e+06
1.56686e+06
1.60613e+06
1.51929e+06
1.76421e+06
1.75044e+06
1.67733e+06
1.85038e+06
1.86459e+06
1.86496e+06
1.99371e+06
1.82632e+06
2.02083e+06
1.79073e+06
1.86852e+06
2.01603e+06
1.71982e+06
1.90458e+06
1.84276e+06
2.02354e+06
1.50143e+06
1.77283e+06
1.74936e+06
1.92939e+06
1.9769e+06
1.72826e+06
1.65652e+06
1.08071e+06
893488
507074
1.10482e+06
2.31844e+06
1.66772e+06
1.79819e+06
1.00766e+06
1.57467e+06
1.64267e+06
1.87839e+06
1.93578e+06
2.65127e+06
2.49655e+06
2.08182e+06
1.73937e+06
1.17167e+06
1.47611e+06
2.11918e+06
2.12241e+06
1.98828e+06
1.47429e+06
2.09597e+06
1.85696e+06
2.6342e+06
2.08049e+06
2.24314e+06
1.18523e+06
1.61415e+06
2.04833e+06
1.6139e+06
1.38485e+06
490184
1.34551e+06
500002
1.67694e+06
2.06773e+06
2.15263e+06
2.30861e+06
2.28705e+06
1.46408e+06
1.76714e+06
427554
1.57009e+06
460239
1.88862e+06
1.90089e+06
1.28824e+06
1.32897e+06
537419
1.51091e+06
1.49512e+06
933667
171487
972186
163253
2.08569e+06
387979
1.49276e+06
2.06276e+06
1.56188e+06
1.32945e+06
451752
2.41067e+06
101330
101562
101298
102065
101298
101298
1.89366e+06
2.01059e+06
2.45935e+06
2.47723e+06
2.41028e+06
2.40926e+06
2.31614e+06
329603
1.48812e+06
382452
1.936e+06
1.91902e+06
1.22977e+06
1.15465e+06
1.4275e+06
492811
1.47358e+06
872992
135243
784436
149589
1.52497e+06
2.6856e+06
2.65543e+06
2.33884e+06
2.36706e+06
2.82233e+06
2.36275e+06
1.88943e+06
1.78369e+06
1.98803e+06
2.25362e+06
2.23017e+06
1.43347e+06
940145
732156
164310
954999
122356
675762
126597
1.02605e+06
2.50494e+06
2.80272e+06
2.65048e+06
2.89862e+06
2.39775e+06
2.00663e+06
2.98298e+06
261547
1.96378e+06
1.11814e+06
1.97824e+06
1.03829e+06
830692
177493
1.34984e+06
216509
1.19059e+06
120915
655583
469647
109672
846543
573449
115140
680201
154004
122199
973356
2.54652e+06
2.5714e+06
2.67148e+06
2.84219e+06
2.16528e+06
1.7582e+06
2.95112e+06
2.08525e+06
301364
1.37399e+06
1.15453e+06
2.0304e+06
824547
193164
2.46372e+06
1.98043e+06
2.29994e+06
1.06418e+06
773794
498473
1.40336e+06
1.20771e+06
1.94293e+06
1.81555e+06
427813
853763
359959
121671
278055
101487
112071
296652
101496
105023
112589
101381
101415
107855
244557
103203
210005
104006
101473
105350
298466
101449
109596
275560
104779
2.30272e+06
2.34338e+06
2.81098e+06
2.47066e+06
193999
1.07581e+06
1.20994e+06
1.96241e+06
2.1039e+06
2.74629e+06
2.36291e+06
156689
858223
1.0814e+06
740002
1.39741e+06
1.8448e+06
509492
104476
211987
121725
665040
436268
108996
281688
108467
104288
436319
750316
1.25118e+06
1.8146e+06
462677
104269
175285
123387
101408
104303
101456
222409
107817
269118
110437
828686
496122
112544
2.04481e+06
918558
559754
2.43376e+06
134095
444477
868800
260553
101707
132671
103659
836814
101843
120839
102714
166832
102065
101318
152391
102264
102788
1.10661e+06
103136
165745
199456
101345
104137
102389
169400
130877
102445
101744
101320
102380
101358
171932
105068
129156
102693
101557
101401
108985
103029
101989
151342
221629
101311
120650
102191
628482
150718
112380
101897
163614
101358
106278
101344
104997
101537
101301
101770
101317
101735
101306
101298
101306
101298
101303
101298
101314
101301
101435
101343
101299
101302
101337
101535
101359
101298
101308
101299
101701
101307
101539
101302
101298
101298
101305
101298
101308
101419
102212
101382
101312
101299
101302
101341
109763
101317
102697
101589
101416
102212
101394
101338
101299
101303
108314
101613
101314
101520
101649
101304
101298
101298
101302
101321
101301
101384
101299
101298
101298
101298
101397
101299
101326
101298
101300
101298
101298
101327
101298
101315
101299
101298
101300
101298
101332
101299
101328
101300
101298
101301
101298
101310
101298
101320
101300
101298
101299
101298
101298
101299
101298
101308
101298
101300
101298
101299
101298
101298
101325
102787
101318
101299
101301
101305
101528
101308
101298
101298
101298
101298
101302
101298
101300
101435
101306
101298
101300
101298
101304
101298
101298
101298
101298
101302
101298
101299
101298
101298
101298
101298
101298
101298
101299
101298
101303
101298
101298
101298
101298
101298
101298
101298
101298
101298
101298
101298
101298
101298
101298
101298
101298
101298
101298
101298
101298
101298
101298
101298
101298
101298
101298
101298
101298
101298
101298
101298
101298
101298
101298
101298
101298
101298
101298
101298
101298
101298
101298
101298
101298
101298
101298
101298
101298
101298
101298
101298
)
;

boundaryField
{
    ground
    {
        type            zeroGradient;
    }
    outlet
    {
        type            zeroGradient;
    }
    wall
    {
        type            zeroGradient;
    }
    wall2
    {
        type            zeroGradient;
    }
    wall3
    {
        type            zeroGradient;
    }
    internalPatch
    {
        type            internal;
    }
    procBoundary6to4
    {
        type            processor;
        value           nonuniform List<scalar> 
248
(
101298
101298
101298
101298
101298
101298
101298
101298
101298
101298
101298
101298
101298
101298
101298
101298
101298
101298
101298
101298
101298
101299
101303
101309
101316
101318
101316
101324
101326
101319
101309
101307
101304
101300
101299
101298
101298
101298
101298
101298
101298
101298
101298
101298
101298
101298
101298
101298
101298
101298
101298
101298
101298
101298
101298
101298
101298
101298
101298
101298
101298
101298
101298
101298
101302
101324
101409
101598
101878
102213
102412
102211
101678
101353
101301
101298
101298
101298
101298
101298
101298
101298
101298
101298
101298
101298
101298
101298
101298
101298
101298
101298
101298
101298
101298
101298
101298
101298
101299
101303
101311
101320
101325
101325
101318
101308
101301
101302
101301
101300
101299
101298
101298
101298
101298
101298
101298
101298
101298
101298
101298
101298
101298
101298
101298
101298
101298
101298
101298
101298
101298
101298
101298
101298
101298
101298
101298
101299
101302
101310
101319
101313
101305
101300
101298
101299
101299
101299
101298
101298
101298
101298
101298
101298
101298
101298
101298
101298
101298
101298
101298
101298
101298
101298
101298
101298
101298
101298
101298
101298
101299
101301
101306
101302
101299
101298
101298
101298
101298
101298
101298
101298
101298
101298
101298
101298
101298
101298
101298
101298
101298
101298
101299
101298
101298
101298
101298
101298
101298
101298
101298
101298
101298
101298
101298
101299
101308
101343
101424
101538
101667
101750
101360
101302
101298
101298
101298
101298
101298
101298
101298
101298
101298
101298
101298
101298
101298
101298
101298
101298
101299
101304
101315
101331
101347
101301
101298
101298
101298
101298
101298
101298
101298
101298
101298
101298
101299
101300
)
;
    }
    procBoundary6to5
    {
        type            processor;
        value           nonuniform List<scalar> 
198
(
101298
101298
101298
101299
101379
106106
304860
1.27527e+06
2.03842e+06
2.32746e+06
2.42721e+06
2.28559e+06
1.97182e+06
1.74914e+06
1.58731e+06
1.50273e+06
1.52091e+06
1.64428e+06
1.88321e+06
2.23357e+06
2.6169e+06
2.67664e+06
2.03506e+06
757052
131499
101834
101307
101298
101298
101298
101298
101298
101298
101298
101298
101298
101298
101298
101298
101298
101298
101298
101298
101298
101298
101298
101298
101298
101298
101298
101298
101298
101303
101602
117679
545860
1.57982e+06
2.15943e+06
2.28657e+06
2.06523e+06
1.90852e+06
1.78482e+06
1.71167e+06
1.73041e+06
1.83811e+06
2.03998e+06
2.32837e+06
2.58069e+06
2.43885e+06
1.6317e+06
451360
111808
101481
101301
101298
101298
101298
101298
101298
101298
101298
101298
101298
101298
101298
101298
101298
101298
101298
101298
101298
101298
101298
101298
101298
101298
101298
101298
101314
102160
145579
791705
1.74056e+06
2.11769e+06
2.10885e+06
2.06929e+06
2.02733e+06
2.04136e+06
2.11015e+06
2.23118e+06
2.36412e+06
2.32036e+06
1.81376e+06
771694
145960
102213
101314
101298
101298
101298
101298
101298
101298
101298
101298
101298
101298
101298
101298
101298
101298
101298
101298
101298
101299
101298
101298
101298
101299
101334
101327
102819
178227
969390
1.88685e+06
1.96232e+06
2.00261e+06
2.03631e+06
2.03549e+06
1.98882e+06
1.82663e+06
1.37972e+06
610832
147021
102637
101327
101299
101298
101299
101298
101298
101298
101298
101301
101330
101298
101301
101309
101321
101331
101334
101299
103264
103189
196306
1.0542e+06
1.10322e+06
1.12493e+06
1.06478e+06
896439
596145
254933
116489
102061
101323
101298
101309
101512
103624
114777
101496
101963
102637
103137
201949
203101
179530
143388
)
;
    }
    procBoundary6to7
    {
        type            processor;
        value           nonuniform List<scalar> 
348
(
101298
101298
101298
101298
101298
101298
101299
101307
101343
101450
101603
101705
101688
101614
101791
102028
102116
101953
101953
101719
101473
101349
103576
196491
848272
1.25719e+06
817952
318663
125798
81814.7
105312
155635
190080
163847
199367
213648
220448
220448
222450
227452
229626
235423
237792
234042
233489
228299
229442
225548
226820
226602
223399
198108
198108
178602
161179
140858
117125
122868
174104
373873
963106
1.76652e+06
1.98954e+06
875243
140093
118045
104163
101482
101305
101298
101298
101298
101298
101298
101298
101298
101298
101298
101299
101322
101298
101304
101359
101717
103280
107121
111809
114807
114014
111632
117391
125543
128991
124253
124253
116276
108172
304685
984587
1.0197e+06
505735
166258
79274.3
60890.1
94459.6
134749
158788
165378
179958
201594
201594
209498
212630
210867
217331
219399
217199
215764
210920
212959
211205
214413
214272
208475
198108
198108
158796
147940
135759
115411
97277.3
117414
200357
498191
1.19951e+06
1.92873e+06
1.80439e+06
615905
262302
111954
101662
101308
101298
101307
101644
101305
101298
101301
101376
102616
117851
101616
104382
120496
184240
275475
341787
372038
359072
329671
389780
448028
478038
465738
465738
405320
964127
754197
319363
118520
72889.4
71893.7
115998
119726
119726
165378
165378
165378
186270
187419
192409
194483
192688
190672
188048
189377
190598
191946
169878
169878
169878
123778
116006
106339
90415
72269
83249
139868
333093
838691
1.59955e+06
2.06809e+06
1.3264e+06
495183
120188
101735
119377
490633
112030
101490
105721
176175
567301
1.07834e+06
244395
538863
794368
899752
901757
870755
845357
834953
839833
845515
879225
937591
937591
633221
243128
100794
68647.2
75410
75410
79996.9
126822
126822
163243
165378
165304
169935
169565
167975
168091
167358
168783
167869
168562
169878
130345
130345
81284
77292.5
71207.1
64131.2
62481.8
78402.6
132747
311340
747326
1.44014e+06
1.98296e+06
1.63483e+06
584435
1.61215e+06
1.90055e+06
1.37249e+06
315583
1.00302e+06
1.53097e+06
1.51308e+06
1.12929e+06
1.30741e+06
1.17924e+06
924013
735315
639206
608497
627359
572611
533308
554805
633221
243128
100794
68647.2
67172.2
67469.1
83605
83605
119390
126822
126822
143308
141740
139970
141243
142490
144237
130345
130345
119667
82969.3
82969.3
73878.4
72979.4
71966.7
73221.2
78447.6
95735.6
162784
377339
846257
1.45004e+06
1.78907e+06
1.51045e+06
1.00483e+06
522954
252569
733948
456840
313155
257671
244186
255629
225338
202776
209183
93605.5
92536.6
99186.2
70235.4
82563.3
83605
83605
117671
116211
117603
120392
82969.3
82969.3
82563.3
82563.3
82563.3
108066
105418
107236
118305
152651
)
;
    }
}


// ************************************************************************* //
