/*--------------------------------*- C++ -*----------------------------------*\
  =========                 |
  \\      /  F ield         | OpenFOAM: The Open Source CFD Toolbox
   \\    /   O peration     | Website:  https://openfoam.org
    \\  /    A nd           | Version:  9
     \\/     M anipulation  |
\*---------------------------------------------------------------------------*/
FoamFile
{
    format      ascii;
    class       volVectorField;
    location    "0.0004";
    object      rhoU;
}
// * * * * * * * * * * * * * * * * * * * * * * * * * * * * * * * * * * * * * //

dimensions      [1 -2 -1 0 0 0 0];

internalField   nonuniform List<vector> 
2674
(
(-473.791 -95.5187 769.097)
(-1404.88 -414.196 149.111)
(-1113.59 1208.15 264.946)
(-374.468 415.06 597.62)
(648.21 -424.117 170.958)
(576.35 1481.67 88.845)
(220.8 -177.482 828.839)
(131.369 478.231 686.969)
(-397.51 296.74 928.356)
(-743.591 -150.174 909.244)
(-447.901 112.056 715.925)
(-293.052 -105.786 850.669)
(-728.134 175.621 868.551)
(-399.816 -293.894 976.09)
(-280.023 119.194 806.666)
(-443.831 350.273 857.94)
(-962.414 -324.463 781.259)
(-1406.11 418.544 148.929)
(-646.52 -445.776 160.965)
(-950.066 329.459 757.77)
(-430.773 -348.73 895.441)
(-646.488 471.758 157.465)
(-451.2 546.451 827.109)
(-1444.44 644.983 132.213)
(-902.714 989.908 674.778)
(-521.038 1503.25 126.799)
(-970.417 640.354 717.216)
(-538.149 1037.52 705.543)
(-641.304 762.802 149.156)
(-418.442 496.553 873.437)
(-416.219 284.684 661.49)
(-643.499 716.756 778.064)
(-223.742 436.234 628.53)
(-694.064 476.366 832.635)
(-383.147 741.852 806.972)
(-254.471 304.465 712.329)
(-245.184 328.229 893.137)
(-350.1 -435.222 170.897)
(593.861 482.511 154.704)
(470.409 -342.746 923.892)
(-220.783 -340.499 922.217)
(428.939 339.092 875.669)
(-357.543 476.968 175.998)
(-247.535 516.779 847.497)
(-296.924 1448.31 142.731)
(643.447 752.383 159.162)
(302.077 1085.7 708.833)
(453.713 512.11 888.438)
(-255.262 984.994 730.263)
(-325.215 747.768 155.435)
(-223.992 298.617 927.505)
(-128.457 -164.546 796.887)
(411.993 -318.539 970.279)
(172.435 130.926 870.47)
(-212.743 -304.214 961.023)
(389.941 319.482 908.721)
(-124.591 165.335 743.076)
(-202.792 471.912 920.434)
(-51.9019 443.795 645.367)
(222.713 791.12 847.847)
(151.866 329.873 773.367)
(244.755 529.31 920.886)
(-84.661 741.085 804.728)
(-57.1064 314.375 762.552)
(-1084.27 -133.371 462.265)
(-1321.31 -388.098 460.699)
(-1432.53 -127.42 140.516)
(-1171.84 -433.832 154.447)
(-1317.52 -118.391 447.569)
(-1094.67 -417.998 466.848)
(-1196.74 -142.834 158.437)
(307.844 -114.03 465.271)
(324.806 -418.438 150.601)
(666.973 -118.137 155.566)
(604.403 -420.364 505.98)
(615.029 -129.157 467.509)
(296.76 -415.272 455.631)
(336.914 -91.0798 153.877)
(259.932 1201.49 435.184)
(226.827 1538.24 121.67)
(558.567 1227.78 151.45)
(484.021 1254.15 438.703)
(517.801 1135.49 438.254)
(183.293 1395.99 454.727)
(299.18 1303.32 160.524)
(133.729 -55.5977 976.89)
(83.9822 -168.986 867.334)
(301.419 -226.666 965.008)
(219.701 -8.26356 849.275)
(136.098 -210.379 960.91)
(287.797 -49.4512 969.234)
(87.9191 -28.9983 877.254)
(-479.681 49.6753 928.082)
(-589.108 308.683 852.351)
(-398.945 113.156 946.023)
(-283.816 261.146 950.859)
(-578.138 96.1357 896.599)
(-442.005 252.683 840.933)
(-302.456 78.5499 957.168)
(-485.808 -23.2858 954.021)
(-397.525 -97.3084 955.8)
(-604.59 -299.774 894.49)
(-287.432 -259.315 1004.12)
(-460.878 -249.477 890.341)
(-575.856 -81.5286 918.442)
(-305.902 -56.912 971.88)
(-794.578 125.702 677.621)
(-652.905 313.782 823.741)
(-457.464 120.865 887.294)
(-522.549 393.625 697.196)
(-672.659 102.076 838.933)
(-769.802 375.265 647.541)
(-544.397 137.774 736.863)
(-1002.97 -127.309 705.517)
(-1253.95 -396.105 614.611)
(-1047.61 -37.6842 833.051)
(-810.352 -317.98 860.293)
(-846.339 -97.5094 840.351)
(-1228.44 -95.4775 640.303)
(-999.084 -357.568 705.663)
(-1105.7 146.541 459.913)
(-1445.62 125.676 141.208)
(-1327.42 388.514 460.293)
(-1171.55 451.486 157.956)
(-1342.07 116.14 447.269)
(-1100.13 431.436 471.605)
(-1207.92 163.023 156.063)
(-862.415 -129.982 462.05)
(-932.668 -423.495 151.867)
(-596.414 -419.919 479.73)
(-657.573 -135.85 161.814)
(-873.468 -395.195 453.735)
(-591.081 -125.473 482.05)
(-949.261 -133.311 153.974)
(-1013.65 138.104 697.716)
(-801.057 328.072 840.485)
(-1052.63 58.8824 813.461)
(-1243.28 405.828 602.081)
(-857.967 114.902 829.456)
(-1249.03 97.2696 627.209)
(-993.497 365.107 697.694)
(-786.031 -112.296 685.046)
(-444.31 -105.189 885.284)
(-652.932 -317.206 854.739)
(-524.726 -384.484 720.16)
(-661.949 -97.1761 851.906)
(-778.039 -368.452 668.955)
(-535.957 -123.666 727.429)
(-882.388 135.518 461.153)
(-601.984 443.174 470.111)
(-932.892 434.844 145.333)
(-659.272 169.466 166.828)
(-876.225 400.082 439.517)
(-611.873 160.679 495.258)
(-952.181 146.432 153.961)
(-768.498 864.261 602.135)
(-665.757 468.292 838.055)
(-376.276 749.904 831.011)
(-510.736 619.858 686.645)
(-755.989 587.642 679.704)
(-594.788 672.425 752.871)
(-478.201 848.159 672.767)
(-1000.76 912.886 461.063)
(-1375.24 958.294 76.6358)
(-1339.26 589.968 468.501)
(-1198.52 732.838 166.193)
(-1180.05 832.099 466.689)
(-1124.02 692.892 459.426)
(-1080.63 963.404 148.865)
(-803.625 1082.83 456.794)
(-838.006 1433.98 78.7741)
(-470.662 1388.82 459.821)
(-609.556 1273.04 163.432)
(-722.941 1229.19 458.4)
(-569.718 1194.56 450.809)
(-853.027 1165.95 151.002)
(-801.394 890.794 479.612)
(-581.559 697.992 447.836)
(-937.452 695.592 155.33)
(-585.65 1034.93 156.22)
(-867.761 639.472 473.137)
(-539.827 960.465 475.201)
(-852.827 951.489 161.873)
(-9.81129 122.785 716.137)
(-244.341 110.594 847.087)
(-32.3619 329.93 852.85)
(-281.745 392.202 749.793)
(-287.614 136.335 694.258)
(-18.8274 385.52 698.847)
(-8.83844 102.39 872.44)
(-2.79568 -136.788 452.114)
(-14.7792 -459.195 146.452)
(-322.64 -435.099 504.768)
(-346.399 -129.994 150.491)
(-19.3661 -437.129 445.82)
(-312.166 -139.172 454.134)
(-3.23834 -135.573 148.454)
(273.72 177.132 501.256)
(629.348 186.065 158.959)
(559.647 444.666 461.868)
(277.232 519.948 155.404)
(572.454 163.136 477.334)
(257.355 458.392 463.655)
(308.859 220.719 168.728)
(267.891 -97.4425 716.855)
(536.111 -373.128 755.316)
(228.819 -332.784 867.758)
(478.071 -120.482 885.739)
(546.141 -97.7601 709.759)
(264.256 -373.2 699.186)
(230.895 -89.5867 888.436)
(-5.50923 -142.98 697.617)
(-234.68 -110.185 851.34)
(-276.202 -391.506 755.589)
(-1.75113 -357.468 857.362)
(-8.75026 -413.336 687.712)
(-281.818 -125.923 691.216)
(0.129899 -122.916 864.713)
(265.533 168.688 761.475)
(186.464 372.309 878.786)
(521.386 427.26 688.925)
(467.106 102.27 906.974)
(544.515 164.911 724.644)
(244.981 429.928 703.364)
(224.103 142.349 934.128)
(-30.5309 157.863 475.507)
(-333.131 445.625 515.561)
(-352.639 180.091 153.088)
(-45.8323 479.054 156.963)
(-333.33 159.849 461.319)
(-43.7649 443.651 469.176)
(-19.7451 178.982 158.405)
(-11.5521 851.936 657.238)
(-13.8459 523.908 842.765)
(-229.409 711.743 811.166)
(-262.936 615.604 686.013)
(-262.214 847.856 647.363)
(2.36954 616.336 688.158)
(-18.9415 721.21 814.357)
(-22.0286 1160.43 442.535)
(2.52023 1464.89 139.201)
(-276.836 1369.25 443.593)
(-315.4 1231.7 153.33)
(-304.237 1162.94 459.491)
(-8.53143 1377.15 437.417)
(-17.2681 1242.62 147.971)
(243.909 969.12 468.337)
(567.068 1006.58 154.107)
(600.608 692.383 483.934)
(327 802.082 159.779)
(288.795 712.268 472.298)
(534.129 936.004 463.151)
(266.439 1069.32 153.76)
(210.981 902.708 662.501)
(207.199 574.527 858.629)
(527.212 665.88 718.158)
(418.525 710.735 770.231)
(270.715 670.522 721.148)
(137.507 774.316 828.788)
(532.64 936.526 611.782)
(-36.6617 1065.36 670.097)
(-225.034 862.135 811.867)
(-296.176 1283.26 580.929)
(39.9349 1007.43 725.266)
(-250.037 1059.72 681.843)
(-39.3525 888.983 791.865)
(36.7803 1280.99 588.413)
(-25.2874 957.081 452.706)
(-304.521 699.355 464.391)
(-316.106 1012.43 147.544)
(1.68951 756.388 154.991)
(-288.84 957.629 443.278)
(-6.63697 700.269 463.218)
(-17.1967 1022.42 151.069)
(-3.63925 64.2408 956.683)
(-213.388 100.827 898.331)
(-32.6912 293.338 906.845)
(-174.425 230.987 953.678)
(-170.361 76.6574 935.196)
(-9.49254 93.6974 923.979)
(-24.4962 228.929 947.802)
(-17.61 -78.7767 948.674)
(20.8232 -178.779 849.611)
(-160.289 -217.398 938.123)
(-130.133 -22.3098 835.026)
(-158.987 -62.5886 927.408)
(-7.99404 -225.062 941.063)
(1.33515 -47.1589 871.041)
(151.892 -70.4974 993.266)
(335.908 -258.407 1030.16)
(186.764 -294.773 929.04)
(409.88 -110.183 954.699)
(156.098 -249.387 981.581)
(190.613 -85.6747 953.068)
(333.628 -87.9842 1011.2)
(-5.27095 -87.8252 962.101)
(-214.551 -92.7111 908.848)
(-162.883 -241.601 998.337)
(-11.9811 -315.45 916.995)
(-174.459 -72.3428 950.051)
(0.83779 -255.809 961.264)
(-13.4031 -107.141 925.963)
(139.022 79.2584 1020.32)
(165.379 315.294 951.558)
(403.693 95.1696 983.642)
(307.369 270.571 897.568)
(197.514 123.71 1005.41)
(97.4188 279.746 976.292)
(348.907 43.5992 1018.53)
(2.16288 67.7466 923.517)
(-157.161 216.739 878.919)
(-119.384 40.688 803.879)
(21.7315 159.121 759.696)
(-147.75 73.6754 901.894)
(1.49971 210.63 890.998)
(15.021 37.3143 830.01)
(47.2289 500.733 828.598)
(-18.8498 468.676 911.734)
(-214.325 643.889 835.177)
(-181.384 351.663 934.031)
(-187.638 494.416 818.06)
(11.7289 640.698 847.604)
(-1.24667 359.585 918.667)
(-5.57373e-09 1.07611e-06 1.76052e-06)
(-1.28008e-05 2.74619e-05 5.32994e-06)
(-9.13596e-07 1.70985e-06 1.39136e-06)
(-2.1472e-08 4.30785e-08 5.35436e-08)
(-2.70392e-08 1.02741e-07 1.34594e-07)
(-1.47872e-05 2.78342e-05 7.5822e-07)
(-1.45252 4.64641 0.133998)
(-0.000615597 0.00264435 0.000360064)
(-0.793332 1.09238 0.0334286)
(-422.023 574.399 43.6079)
(-0.000883783 0.00120538 0.000478318)
(-25.7011 43.0861 14.597)
(-0.000282066 0.00183357 0.0008349)
(-94.2252 373.999 270.72)
(-0.000246627 0.00100672 0.00134383)
(-4.15129e-06 3.42295e-05 2.83015e-05)
(-0.042279 0.143479 0.135081)
(-1.5472e-05 6.60974e-05 4.26205e-05)
(-1.5728e-05 4.39661e-05 5.19116e-05)
(-7.12357e-07 3.50532e-06 2.69093e-06)
(-204.809 290.697 90.0252)
(-1477.4 2184.82 178.124)
(-114.751 206.42 12.7301)
(-46.9046 92.3499 23.0508)
(-1051.02 1549.96 488.35)
(-2.96897 6.87414 1.16406)
(-8.24399 17.7292 0.671003)
(-2.14435 13.3651 8.73471)
(-1.87356 10.1397 9.75213)
(-66.4623 189.115 138.512)
(-1.02513 4.10478 4.01987)
(-1.13492 5.361 3.38905)
(-0.0355967 0.275903 0.229452)
(-0.0181777 0.102985 0.0842163)
(-6.92784e-06 1.711e-05 1.76561e-05)
(-1.33277e-05 2.102e-05 1.25836e-05)
(-2.0184e-07 7.13985e-07 5.05635e-07)
(-6.07847e-06 2.17901e-05 1.04919e-05)
(-0.00402466 0.0115036 0.0102257)
(-4.80559e-08 1.04938e-07 6.41143e-08)
(-6.91139e-07 1.43111e-06 6.60479e-07)
(-5.50594 14.4915 3.69524)
(-0.185062 0.592963 0.21536)
(-16.198 33.2651 17.033)
(-0.854473 1.79782 0.766515)
(-337.603 512.513 240.727)
(-0.295224 0.73967 0.146045)
(-0.0103824 0.0269222 0.00927486)
(-0.000678944 0.00292842 0.00224226)
(-0.0419717 0.17109 0.098262)
(-3.26412 8.99527 6.44479)
(-20.8484 54.0616 39.8303)
(-0.274843 1.01398 0.985944)
(-0.284255 1.27716 0.773723)
(-0.00441162 0.0232433 0.0184961)
(-26.3645 38.6661 1.86895)
(-9.77727 15.4609 3.15596)
(-0.274324 0.382551 0.0598159)
(-0.11866 0.243656 0.0329777)
(-0.0104568 0.0169373 0.000354263)
(-0.00353907 0.0057008 0.000710532)
(-0.343041 0.691935 0.017806)
(-8.9636e-08 6.71103e-07 1.06535e-06)
(-5.38265e-06 6.84293e-05 9.54308e-05)
(-9.5957e-07 5.12749e-05 6.53228e-05)
(-1.30641e-07 1.50264e-06 1.6001e-06)
(-1.31443e-08 2.53949e-06 2.64338e-06)
(-1.71885e-08 1.7042e-07 1.80302e-07)
(3.5303e-09 1.8782e-07 2.0011e-07)
(-0.015751 0.0656631 0.00122026)
(-0.00577934 0.0245459 0.00272496)
(-0.528014 1.77936 0.251995)
(-0.0325958 0.0965026 0.0116815)
(-0.0010744 0.00355573 5.73325e-05)
(-0.000388031 0.00126599 0.000132199)
(-0.0915248 0.270509 0.00588254)
(-3.88603e-08 2.42428e-07 3.45747e-07)
(-6.67586e-07 2.89509e-06 3.06974e-06)
(-2.46978e-06 1.51977e-05 2.04107e-05)
(-5.56918e-08 4.47736e-07 4.6077e-07)
(-3.26226e-08 1.44654e-07 1.29071e-07)
(-1.13612e-08 5.96838e-08 6.4863e-08)
(-1.77588e-08 7.48031e-08 8.00043e-08)
(-0.000383949 0.00528399 0.00245227)
(-1.03292e-05 0.000146205 8.74702e-05)
(-1.07566e-05 6.09351e-05 3.56792e-05)
(-0.0312535 0.286272 0.152188)
(-0.0155809 0.104422 0.0541075)
(-0.000522923 0.00622183 0.00432406)
(-0.000378685 0.00218613 0.00149684)
(-0.000324314 0.00278707 0.00371809)
(-1.10323e-05 4.97383e-05 4.99642e-05)
(-9.93681e-06 0.000106275 0.000113947)
(-0.0263124 0.170678 0.204028)
(-0.0137035 0.0646462 0.0774566)
(-0.000485775 0.0049065 0.00487998)
(-0.000356971 0.00175389 0.00172359)
(-0.0554509 0.209341 0.0353265)
(-0.0021413 0.00828759 0.00251556)
(-3.42807e-05 0.000138655 5.14371e-05)
(-0.00327627 0.00974839 0.00151974)
(-6.01109e-06 1.74626e-05 4.99666e-06)
(-4.17174e-05 0.000133766 1.84222e-05)
(-0.00013213 0.000380013 0.000114021)
(-0.93423 1.58471 0.374819)
(-0.0246607 0.0342594 0.00701259)
(-0.0310738 0.0540527 0.021487)
(-0.0112284 0.0226657 0.00395798)
(-4.09328e-05 5.93511e-05 2.01814e-05)
(-0.000346252 0.000542213 9.11526e-05)
(-0.000453574 0.000890429 0.000343964)
(-7.41643e-05 0.000249181 0.000179461)
(-0.000266203 0.000581239 0.00048597)
(-0.00380553 0.0127901 0.00708302)
(-0.280919 0.752957 0.507606)
(-0.0160321 0.0355556 0.0227126)
(-0.000242711 0.000610802 0.000327376)
(-1.86273e-05 4.36223e-05 2.77459e-05)
(-1.16347e-06 1.59148e-06 3.78312e-06)
(-8.49615e-07 3.402e-06 7.04259e-06)
(-7.88231e-06 2.8276e-05 4.74095e-05)
(-2.11501 5.80014 11.9623)
(-3.21455e-06 1.03488e-05 2.29177e-05)
(-0.00340818 0.0061794 0.0205299)
(-6.22769e-06 1.8241e-05 3.19296e-05)
(-2.72754e-06 5.39951e-06 1.44112e-05)
(-3.87408e-07 9.57353e-07 2.06321e-06)
(-1.00968 2.05492 4.85457)
(-0.117461 0.416552 0.894444)
(-0.0291664 0.0840468 0.229992)
(-0.0580066 0.148172 0.357956)
(-0.0127364 0.0274249 0.0823491)
(-0.00169839 0.00626875 0.0157128)
(-0.000768187 0.00207434 0.00567232)
(-1.24944e-07 1.14435e-07 3.20396e-07)
(-2.57418e-08 2.53281e-08 5.00951e-08)
(-7.46596e-08 1.10806e-07 2.36767e-07)
(-5.01373e-07 5.9914e-07 1.29776e-06)
(-5.54613e-06 8.67122e-06 1.67894e-05)
(-1.05872e-05 9.41276e-06 2.51558e-05)
(-9.03757e-05 0.000110064 0.000402751)
(-0.000669996 0.000993928 0.00358072)
(-0.0535404 0.0788983 0.249354)
(-0.286009 0.481854 1.30316)
(-0.00301168 0.005731 0.0157681)
(-0.016641 0.0353041 0.0925429)
(-0.000205753 0.000483264 0.00138347)
(-4.90939e-05 8.94077e-05 0.000250164)
(-7.07124e-06 4.18282e-05 7.14187e-05)
(-0.000128269 0.000421929 0.000759078)
(-0.000164111 0.0011635 0.00204743)
(-0.00536164 0.0242607 0.0490833)
(-0.00266602 0.00864726 0.0187712)
(-6.64868e-05 0.000388902 0.000849059)
(-5.31483e-05 0.000140033 0.000324015)
(-3.68978e-06 1.55713e-05 8.27234e-06)
(-0.000553088 0.0027567 0.00135057)
(-1.47711e-05 5.96199e-05 2.62835e-05)
(-4.9227e-05 0.000375209 0.000168442)
(-4.20451e-06 2.35669e-05 1.29733e-05)
(-0.00364225 0.0228113 0.0114891)
(-7.06908e-05 0.000457027 0.000304319)
(-4.70175e-05 0.000226248 0.000293504)
(-4.53116e-06 1.54789e-05 1.42454e-05)
(-4.97834e-06 2.16591e-05 2.05845e-05)
(-0.000552985 0.00202297 0.00227412)
(-1.92489e-05 6.27096e-05 5.60222e-05)
(-0.00346294 0.015032 0.0177285)
(-6.54057e-05 0.000375624 0.000361245)
(-2.93213e-06 8.25384e-06 1.88967e-05)
(-7.32176e-06 2.66921e-05 8.26093e-05)
(-6.38765e-06 1.29951e-05 3.92756e-05)
(-0.000177952 0.000394083 0.00131199)
(-0.000426505 0.00127894 0.00391966)
(-2.19421e-05 0.000101074 0.000272178)
(-1.65896e-05 3.7595e-05 0.00010308)
(-1.79175e-05 1.48633e-05 5.39427e-05)
(-0.00061521 0.000605424 0.00210939)
(-0.00693228 0.00847157 0.028629)
(-0.000379702 0.000578624 0.00161767)
(-4.08653e-05 4.92206e-05 0.000124412)
(-1.27553e-05 1.93138e-05 4.92874e-05)
(-9.84481e-06 1.11022e-05 2.75158e-05)
(-0.00141764 0.00325333 0.000349897)
(-1.30839e-05 2.50166e-05 1.44656e-06)
(-5.95905e-05 0.000145641 2.25925e-06)
(-0.000142175 0.000258465 4.05834e-06)
(-2.77971e-05 6.66477e-05 5.51415e-06)
(-5.70003e-05 0.000101129 1.0201e-05)
(-0.00406096 0.00946053 0.000176376)
(-6.86056e-06 1.60039e-05 2.8274e-05)
(-1.34006e-05 2.9641e-05 4.92905e-05)
(-2.65388e-05 0.000100196 0.000183327)
(-0.00012133 0.000311589 0.000690262)
(-0.000687237 0.00197796 0.00448012)
(-1.34629e-05 4.07549e-05 9.10242e-05)
(-9.73121e-06 1.88577e-05 3.9313e-05)
(-2.95802e-05 4.42661e-05 2.5699e-05)
(-2.17958e-05 3.75006e-05 2.51619e-05)
(-0.000610914 0.00104982 0.000646821)
(-1.21256e-05 1.97905e-05 1.08502e-05)
(-2.00815e-05 3.60681e-05 2.04503e-05)
(-1.12251e-05 1.96993e-05 1.14408e-05)
(-1.11749e-05 1.83718e-05 1.06168e-05)
(-3.1681e-06 6.25206e-06 1.80322e-05)
(-2.93468e-06 5.14846e-06 1.36945e-05)
(-3.12981e-06 5.39687e-06 1.51969e-05)
(-3.77005e-05 7.63171e-05 0.000278611)
(-9.381e-06 1.60591e-05 5.6989e-05)
(-4.79686e-06 1.0452e-05 3.09865e-05)
(-3.69766e-06 6.47547e-06 1.69377e-05)
(-9.44172e-05 0.000214001 3.21096e-05)
(-1.29332e-05 2.772e-05 5.00884e-06)
(-1.23023e-05 2.76783e-05 5.38317e-06)
(-1.31439e-05 2.77514e-05 5.47362e-06)
(-1.33294e-05 2.93405e-05 5.35344e-06)
(-1.49377e-05 3.17691e-05 5.69409e-06)
(-1.58292e-05 3.50927e-05 7.40846e-06)
(-2.5158e-08 5.12056e-08 6.44089e-08)
(-2.15956e-08 4.44598e-08 5.52025e-08)
(-8.05181e-08 2.14497e-07 3.06026e-07)
(-2.18861e-08 4.62306e-08 5.63159e-08)
(-2.131e-08 4.34339e-08 5.32153e-08)
(-2.14638e-08 4.37957e-08 5.33077e-08)
(-2.10688e-08 4.37718e-08 5.35992e-08)
(-7.05513e-06 1.82932e-05 1.88608e-05)
(-6.51915e-06 1.72897e-05 1.75454e-05)
(-3.81228e-05 0.000109815 0.000118092)
(-7.16556e-06 1.88847e-05 1.90262e-05)
(-8.6341e-06 2.16781e-05 2.21349e-05)
(-6.92702e-06 1.73977e-05 1.74606e-05)
(-6.81458e-06 1.71054e-05 1.73733e-05)
(-5.41918e-06 1.97012e-05 9.30437e-06)
(-3.53048e-05 0.000136573 6.49117e-05)
(-5.87984e-06 2.098e-05 9.79063e-06)
(-5.76121e-06 1.96843e-05 8.9655e-06)
(-7.30221e-06 2.48354e-05 1.1521e-05)
(-5.84822e-06 1.97343e-05 9.43037e-06)
(-5.70242e-06 1.95147e-05 9.2041e-06)
(-2.50852e-06 2.85377e-05 3.74191e-05)
(-2.74955e-06 2.92483e-05 3.8228e-05)
(-5.09342e-06 8.81474e-05 0.000122621)
(-2.63929e-06 2.9502e-05 3.75821e-05)
(-2.71524e-06 3.01966e-05 3.8653e-05)
(-2.71966e-06 2.85122e-05 3.67241e-05)
(-2.60234e-06 2.8031e-05 3.61261e-05)
(-1.59249e-06 5.08327e-05 6.48087e-05)
(-1.68777e-06 0.000140866 0.000191518)
(-3.73426e-06 0.000127949 0.00017443)
(-1.6206e-06 5.23363e-05 6.50754e-05)
(-9.68762e-07 5.28372e-05 6.57641e-05)
(-1.45711e-06 4.99273e-05 6.26573e-05)
(-1.00436e-06 5.01693e-05 6.2958e-05)
(-0.000621161 0.00985046 0.00464497)
(-2.26214 21.6353 14.4374)
(-0.000517833 0.00516548 0.00679513)
(-3.72625e-06 6.2453e-05 5.24714e-05)
(-0.000133574 0.0113971 0.0143752)
(0.0653403 37.3715 24.1236)
(-1.26355e-05 0.000507651 0.000308143)
(-2.05862e-06 0.00010489 8.58872e-05)
(-81.9963 514.783 369.775)
(-1.94182 16.5359 15.52)
(-62.3636 616.938 443.467)
(-1.72228 22.1439 20.4257)
(-2.05484 28.828 19.4874)
(-0.0369439 0.671012 0.562903)
(-0.0390204 0.482588 0.403594)
(-0.0058285 0.948271 0.750722)
(-0.290071 31.2373 27.2977)
(2.85279 740.487 519.371)
(-29.1312 705.187 505.186)
(-1.05538 27.572 25.0007)
(-0.874886 35.3665 23.9408)
(-0.0199349 0.850134 0.708782)
(-1.97775e-05 0.000266961 0.00016205)
(-1.48799e-05 0.000384873 0.000235965)
(-0.00050321 0.0142894 0.00688317)
(-0.0352235 0.506654 0.276807)
(-0.0343701 0.710334 0.397297)
(-0.000648089 0.0164304 0.0116695)
(-0.000813467 0.0114475 0.00805946)
(-0.000398542 0.00751922 0.00972928)
(-1.81867e-05 0.0001868 0.00020278)
(-1.48216e-05 0.000267838 0.00029027)
(-0.0288936 0.301355 0.353915)
(-0.0269594 0.424379 0.48981)
(-0.000587245 0.0129584 0.0128074)
(-0.000752459 0.00902603 0.00894708)
(-0.00036231 0.00978847 0.0125714)
(-1.62451e-05 0.000363063 0.000387662)
(-5.87839e-07 0.000410971 0.00043292)
(-0.000156642 0.0190843 0.0180686)
(-0.0081954 0.632291 0.699628)
(-0.0186004 0.544764 0.62092)
(-0.000457384 0.0167379 0.0164422)
(-0.000218537 0.0181859 0.0087418)
(1.48686e-06 0.000545272 0.0003151)
(2.44315e-05 0.0187202 0.00847334)
(0.000956104 0.929372 0.488519)
(-8.1e-05 0.023001 0.0154627)
(-0.0122999 0.891139 0.498987)
(-0.000396962 0.0210582 0.014897)
(-1.34808e-06 9.87735e-06 1.93687e-05)
(-4.33439e-07 1.58518e-05 3.31722e-05)
(-1.08205e-05 9.44599e-05 0.000149853)
(1.43514e-06 0.000155459 0.000242858)
(-2.59423 11.0316 20.4111)
(-1.61955e-05 5.67339e-05 0.00017253)
(0.180701 21.6063 36.9729)
(3.47391e-08 1.85533e-05 4.1624e-05)
(-2.23266 16.1799 28.1889)
(-0.146176 0.803602 1.58996)
(-0.135182 1.20073 2.28206)
(-0.0397072 0.174098 0.441019)
(-0.0354982 0.267295 0.651018)
(-0.00215282 0.020058 0.0448505)
(-0.00228784 0.0129462 0.0300791)
(-0.0135288 1.71661 3.28691)
(-0.000183681 0.0286679 0.0653084)
(0.00165295 0.361602 0.891954)
(-1.24192 20.0422 34.1395)
(-0.0911597 1.53477 2.8988)
(-0.0201147 0.335574 0.814358)
(-0.00147203 0.0258125 0.0576836)
(-0.238012 -0.0171174 2.18239)
(-421.626 -81.5497 1871.29)
(-0.105423 0.148666 0.945118)
(-406.455 516.707 1781.53)
(268.584 -100.037 1754.12)
(184.549 476.407 1773.88)
(0.208366 -0.0573439 1.77125)
(0.0534548 0.172754 1.20533)
(39.7993 -109.727 1799.18)
(251.241 81.4117 1783.75)
(28.2841 81.6467 1867.38)
(21.4962 23.3564 793.215)
(109.502 -33.6652 637.842)
(34.1269 -38.0226 754.718)
(104.633 15.0064 672.584)
(-428.768 112.913 1874.79)
(-192.831 -92.7101 1840.64)
(-206.621 103.371 1869.45)
(-57.6525 34.4782 800.841)
(-134.448 -18.4747 746.527)
(-140.766 36.8767 739.085)
(-49.2843 -25.0981 789.952)
(-3.37008 508.85 1818.12)
(217.17 272.276 1807.95)
(10.8956 297.905 1866.87)
(9.83554 100.534 745.449)
(49.611 131.477 566.572)
(77.9372 70.5073 660.141)
(0.893662 157.397 618.522)
(-428.756 317.204 1861.04)
(-200.777 523.967 1824.45)
(-207.965 314.394 1872.94)
(-57.1064 110.333 746.334)
(-103.449 142.686 538.786)
(-130.732 101.571 674.741)
(-48.0812 160.658 610.682)
(-3.57892 2.3854 74.7134)
(-9.14225 -0.914661 62.2056)
(-0.24311 0.0549203 2.08799)
(-0.0575632 -0.0302683 2.77296)
(-9.43736 2.28192 60.1086)
(-2.84289 -1.5144 74.3743)
(-0.0761548 0.0579336 2.75157)
(1.78691 1.43211 74.1683)
(0.0816993 -0.0605397 2.58485)
(7.56255 -2.14207 49.4731)
(0.202577 0.00982324 1.96368)
(2.95446 -2.62367 69.514)
(7.53556 0.610864 54.3473)
(0.0453471 0.0310884 2.7495)
(-3.29871 7.74505 62.3411)
(-0.189819 0.148776 1.62419)
(-4.48567 6.33606 31.2717)
(-0.0503091 0.208379 1.28915)
(-7.56019 5.91935 48.7423)
(-2.16258 8.40451 39.9705)
(-0.0750505 0.199888 2.19341)
(0.698521 7.07502 63.5042)
(0.000401124 0.218662 1.37755)
(2.31853 6.69272 36.645)
(0.130072 0.0962099 1.79106)
(5.04232 3.91301 50.7749)
(0.037445 8.59386 41.7728)
(0.0162143 0.182099 2.27199)
(-446.191 -105.316 1708.9)
(-392.15 -77.3691 820.178)
(-350.617 390.199 762.514)
(-468.217 530.469 1919.38)
(128.544 -85.6679 870.171)
(114.082 423.997 814.585)
(170.192 -97.3084 1669.21)
(195.916 517.744 1827.48)
(-38.7865 73.295 1035.99)
(-49.5425 -83.4371 802.819)
(123.115 91.8538 858.832)
(117.346 -79.3439 1154.83)
(-45.1707 78.3996 757.417)
(-47.1439 -79.7562 1071.19)
(115.841 89.5847 1139.67)
(-39.2742 221.08 1043.42)
(-45.5949 388.103 752.525)
(117.493 262.181 820.977)
(118.092 410.536 1106.96)
(-45.9671 236.47 758.087)
(116.239 250.863 1114.5)
(-39.0161 370.885 1045.33)
(-191.616 80.9405 1053.37)
(-372.468 -76.0739 1105.54)
(-369.237 91.2088 772.323)
(-221.034 -78.7615 822.431)
(-348.723 83.7405 1059.18)
(-207.268 88.2279 779.107)
(-207.926 -76.1405 1095.48)
(-189.808 226.139 1032.38)
(-360.578 245.678 755.005)
(-348.507 385.043 1053.86)
(-199.491 389.924 748.253)
(-345.229 230.077 1043.3)
(-203.627 242.765 745.871)
(-188.901 375.35 1036.89)
(-42.8784 83.8981 1279.12)
(-38.6173 -110.035 1590.54)
(125.854 -87.2372 1372.44)
(175.028 119.514 1670.81)
(-54.4493 -92.9181 1282.22)
(131.52 107.501 1364.08)
(-29.6055 92.59 1631.6)
(-219.666 90.5261 1294.02)
(-426.392 -93.2398 1356.11)
(-435.943 105.615 1713.65)
(-247.429 -105.602 1628.06)
(-406.133 93.9653 1329.95)
(-235.387 -89.6051 1312.46)
(-239.809 101.173 1642.37)
(-44.082 254.743 1310.04)
(-31.2224 488.695 1793.14)
(153.139 484.745 1405.39)
(181.505 313.908 1719.24)
(139.231 293.066 1372)
(-45.2964 439.138 1355.36)
(-31.6268 288.722 1685.86)
(-223.437 260.072 1312.76)
(-445.691 302.121 1788.78)
(-429.305 459.143 1416.72)
(-241.132 503.114 1828.62)
(-412.962 267.223 1351.97)
(-230.509 446.564 1366.21)
(-237.215 291.648 1699.54)
(-1.09243e-05 6.95721e-05 0.000111242)
(-0.000279608 0.00225075 0.00377444)
(-0.000214573 0.00335442 0.00547439)
(-0.0065621 0.0466572 0.0887777)
(-0.00618326 0.0697392 0.128078)
(-8.61006e-05 0.00121255 0.00239449)
(-0.000129492 0.00079004 0.0016182)
(-1.32084e-05 0.000141863 0.000218961)
(-6.70312e-05 0.00510766 0.00829362)
(-0.000209943 0.00440429 0.00713134)
(-0.00161695 0.103638 0.192243)
(-1.49745e-05 0.00181761 0.00363116)
(-0.00468092 0.0904157 0.165373)
(-0.000100249 0.00160171 0.0031497)
(-6.89775e-06 0.000109767 0.000321334)
(-1.94655e-06 2.00039e-05 4.54979e-05)
(-8.99404e-07 0.000117815 0.000352398)
(-2.84238e-06 0.000499916 0.00123626)
(1.79298e-05 0.0062063 0.0176916)
(-0.000338563 0.00577359 0.0161035)
(-2.91098e-05 0.000452092 0.00109421)
(-4.00001e-06 1.74676e-05 3.72617e-05)
(-1.1962e-06 1.99617e-05 4.32745e-05)
(-8.7108e-06 8.75208e-05 0.000257525)
(-0.000646313 0.00285305 0.00815995)
(-0.000595231 0.00453793 0.0125978)
(-2.92221e-05 0.000348878 0.000845417)
(-4.74872e-05 0.000222945 0.000555242)
(-4438.2 -2022.8 337.762)
(-587.45 -897.852 663.687)
(-3950.25 -158.805 254.896)
(-617.508 -86.445 695.842)
(-4232.83 1388.3 269.37)
(-1354.02 1440.5 217.621)
(-2194.84 -679.241 1523.56)
(-897.162 -1214.76 2455.02)
(-3370.28 -187.278 2251.83)
(-689.112 -109.021 1899.51)
(-2932.54 983.969 2168.28)
(-497.857 543.859 829.569)
(-0.00130528 -0.000221428 0.00205135)
(-0.0113635 -0.008736 0.0802273)
(-0.0329273 -0.000407249 0.0509502)
(-0.215836 -0.00658192 1.20755)
(-0.00633062 0.00146986 0.0126898)
(-0.0279994 0.0338703 0.182965)
(-0.0391697 0.0752047 0.372674)
(-619.677 -278.114 688.156)
(-1297.96 -1849.87 191.878)
(-1625.6 -707.347 261.228)
(-1710.99 -1330.81 125.568)
(-1856.09 -445.124 156.651)
(-1665.84 -1338.69 782.048)
(-1266.25 -267.192 736.502)
(-1595.45 -377.762 161.968)
(-1475.45 1124.27 239.228)
(-498.545 383.622 550.208)
(-1911.96 -162.225 167.947)
(-1888.5 761.006 147.824)
(-1247.96 -78.9124 739.568)
(-1215.2 452.564 687.686)
(-472.293 505.614 525.03)
(-870.061 1656.3 123.955)
(-694.329 1468.53 677.069)
(-1723.77 991.741 136.298)
(-1671.91 1774.77 113.029)
(-1307.77 686.297 674.414)
(-1873.39 1895.6 835.828)
(-1506.76 -864.062 605.847)
(-1338.73 -594.287 681.709)
(-1515.79 -1119.09 247.033)
(-1868.91 -636.416 230.314)
(-1581.91 -534.762 623.479)
(-1284.84 -965.824 670.446)
(-1755.9 -999.556 218.747)
(-1611.5 185.411 637.887)
(-1349.9 -191.918 705.846)
(-1600.57 384.82 158.577)
(-1903.02 -225.107 248.136)
(-1603.11 -176.739 655.013)
(-1352.97 210.384 682.675)
(-1926.18 203.403 242.856)
(-1559.38 542.213 616.504)
(-1605.54 723.977 259.874)
(-1219.62 938.104 632.919)
(-1759.23 1021.74 214.005)
(-1466.55 854.216 580.181)
(-1300.38 601.486 667.941)
(-1877.84 643.413 230.644)
(-1675.54 -66.6593 440.19)
(-1497.13 -367.614 430.391)
(-1616.65 -150.283 164.614)
(-1800.02 -412.073 98.8413)
(-1562.89 -362.411 431.125)
(-1515.54 -138.37 419.13)
(-1836.47 -101.673 116.267)
(-1700.71 58.7237 429.182)
(-1636.67 138.806 156.755)
(-1503.73 374.86 426.68)
(-1801.28 407.479 94.4512)
(-1576.03 367.524 427.012)
(-1545 133.262 407.456)
(-1861.14 70.8146 109.64)
(-1119.34 143.873 714.715)
(-992.425 -137.735 855.576)
(-582.123 101.043 645.63)
(-707.89 -74.6545 607.966)
(-1150.03 -122.745 753.933)
(-674.338 90.2685 569.346)
(-967.149 164.391 811.016)
(-558.091 -75.0058 827.718)
(-503.51 386.816 799.654)
(-746.98 599.919 2074.06)
(-1505.88 -107.008 1078.06)
(-1557.89 576.1 966.096)
(-1699.8 -72.9599 2238.04)
(-1393.43 572.316 1901.73)
(-726.842 -336.916 1996.08)
(-638.442 -990.457 981.015)
(-568.332 -253.775 837.586)
(-1941.53 -1576.62 1311.61)
(-1555.37 -340.713 1097.79)
(-1086.45 -528.039 1488.92)
(-1714.72 -340.664 2245.44)
(-1060.83 -623.32 685.168)
(-594.533 -445.837 657.302)
(-994.669 -445.526 836.062)
(-706.55 -245.677 599.177)
(-1137.1 -388.708 728.955)
(-695.076 -402.371 590.613)
(-954.743 -727.61 820.806)
(-2028.69 -147.486 148.872)
(-4053.69 978.518 239.775)
(-2010.16 718.39 131.353)
(-4086.09 -243.288 1958.68)
(-1847.86 -101.986 847.451)
(-3987.87 892.278 1932.57)
(-1857.71 588.539 743.74)
(-1058.78 383.607 673.621)
(-543.009 257.421 601.311)
(-851.453 660.395 718.805)
(-623.929 372.931 530.538)
(-958.619 569.865 602.874)
(-644.154 236.62 542.108)
(-922.09 439.532 776.459)
(-1724.2 161.678 550.932)
(-2017.6 -204.077 210.887)
(-2001.87 154.983 163.209)
(-1603.71 -121.584 444.755)
(-1700.54 -153.307 564.331)
(-1635.84 142.988 427.653)
(-2067.08 174.993 206.945)
(-2212.48 -1404.55 143.037)
(-4013.78 -539.164 259.192)
(-2050.45 -425.932 144.164)
(-3896.15 -1436.73 2158.67)
(-2312.81 -1604.12 941.293)
(-4178.45 -644.523 1991.38)
(-1895.25 -339.332 852.141)
(-1142.89 1201.61 440.286)
(-1124.78 1210.38 589.662)
(-1211.78 1669.39 189.715)
(-1628.94 1327.11 194.566)
(-1339.34 1096.41 535.649)
(-980.756 1365.47 514.331)
(-1454.79 1533.4 167.736)
(-1224.86 -961.336 464.637)
(-1081.95 -1553.04 526.533)
(-1273.01 -1286.04 194.422)
(-1457.08 -1597.08 163.933)
(-1083.27 -1118.11 540.298)
(-1450.66 -1128.9 167.803)
(-1200.11 -1326.05 441.052)
(-1522.18 -723.002 496.76)
(-1961.03 -546.322 195.481)
(-1730.39 -698.556 147.974)
(-1566.91 -377.592 423.618)
(-1473.46 -609.443 403.158)
(-1654.54 -455.087 531.062)
(-1817.03 -845.738 182.657)
(-1672.28 471.42 528.799)
(-1924.87 895.948 182.866)
(-1982.5 471.652 157.064)
(-1494.3 631.214 381.165)
(-1593.43 402.805 410.691)
(-1563.35 742.725 492.221)
(-2030.92 556.247 197.046)
(-549.787 -78.0774 1125.19)
(-528.566 90.5186 785.504)
(-730.791 -73.3718 878.654)
(-699.576 89.3845 840.999)
(-521.877 85.1016 1080.89)
(-790.341 95.6829 1157.97)
(-815.444 -89.7017 1198.44)
(-1101.27 121.196 556.414)
(-869.799 -70.1957 622.611)
(-1216.89 -85.4165 533.944)
(-1209.41 99.5277 696.376)
(-1127.89 -97.7936 590.609)
(-1186.57 109.98 499.494)