/*--------------------------------*- C++ -*----------------------------------*\
  =========                 |
  \\      /  F ield         | OpenFOAM: The Open Source CFD Toolbox
   \\    /   O peration     | Website:  https://openfoam.org
    \\  /    A nd           | Version:  9
     \\/     M anipulation  |
\*---------------------------------------------------------------------------*/
FoamFile
{
    format      ascii;
    class       volScalarField;
    location    "0.0004";
    object      T;
}
// * * * * * * * * * * * * * * * * * * * * * * * * * * * * * * * * * * * * * //

dimensions      [0 0 0 1 0 0 0];

internalField   nonuniform List<scalar> 
2674
(
216.707
235.564
248.076
229.571
223
235.669
194.265
216.048
226.775
223.413
223.242
213.715
229.404
218.07
220.32
228.54
221.125
242.017
228.697
229.394
221.01
235.818
228.68
245.005
238.989
244.688
234.713
234.964
236.567
230.917
226.604
235.074
227.551
232.26
232.865
225.235
227.406
227.832
225.54
211.013
220.499
221.751
233.423
228.188
241.325
227.655
224.794
218.145
229.691
235.112
225.801
206.307
205.9
208.112
216.573
216.39
217.449
226.962
225.107
221.853
212.621
218.445
230.115
221.698
230.542
233.97
235.061
232.541
232.459
229.637
233.477
223.506
225.798
224.293
219.432
220.702
222.171
226.847
229.689
238.227
231.804
227.428
229.265
232.33
233.406
205.507
199.008
201.996
197.626
202.758
203.378
202.347
223.525
230.393
222.915
225.479
225.432
224.772
220.455
221.185
220.135
221.546
214.771
214.947
222.507
217.518
228.492
234.193
225.271
228.073
228.699
231.223
226.02
226.998
227.717
227.614
224.11
225.131
228.669
224.933
233.08
237.806
240.885
239.655
235.537
236.679
236.29
230.532
231.196
225.592
231.298
228.105
228.11
233.518
229.332
232.725
229.714
235.077
228.221
230.987
232.219
226.004
222.716
226.217
221.951
225.478
223.897
224.166
232.874
231.939
239.288
233.457
235.305
230.049
236.189
234.691
230.985
230.867
228.343
231.113
229.475
230.328
241.175
248.506
239.778
241.332
240.042
238.341
244.105
241.023
248.532
239.371
240.808
240.021
237.479
244.083
241.944
232.451
239.332
238.949
236.328
235.736
242.098
223.287
223.609
223.748
227.363
225.007
224.766
221.077
226.048
227.881
225.203
230.68
224.505
227.305
229.388
223.822
224.028
222.571
228.196
220.894
224.969
226.659
219.378
214.738
214.245
213.41
216.167
217.767
216.13
222.324
221.802
222.176
218.09
220.837
223.72
219.526
220.42
220.029
219.353
216.286
217.275
221.482
218.331
226.857
230.309
232.458
231.704
228.707
228.164
230.145
227.221
225.162
233.193
227.111
229.624
224.896
229.686
232.576
239.169
240.107
238.866
235.614
236.973
236.274
228.317
231.016
225.153
229.263
225.741
230.669
231.353
224.073
220.447
220.364
215.439
222.458
222.483
223.702
228.704
232.259
234.694
226.977
231.284
228.71
231.354
231.394
231.14
238.218
232.856
233.995
228.862
235.335
217.159
220.738
221.288
227.144
220.819
217.485
222.774
209.337
203.933
213.983
210.903
214.47
207.566
206.894
208.939
205.876
209.687
209.066
206.904
211.676
207.341
212.903
218.322
216.976
213.702
217.321
211.532
215.187
212.02
216.566
212.209
208.285
214.949
215.323
207.347
214.012
224.379
214.078
213.246
217.958
220.003
209.529
221.009
223.362
230.031
225.449
225.3
226.307
220.526
287.926
287.926
287.926
287.926
287.926
287.926
291.052
287.927
288.685
986.263
287.926
334.711
287.926
683.885
287.926
287.926
288.017
287.926
287.926
287.926
678.894
1876.48
555.742
398.026
1601.88
293.144
303.537
298.998
297.435
507.378
291.48
291.918
288.089
287.983
287.926
287.926
287.926
287.926
287.932
287.926
287.926
299.855
288.257
322.039
289.152
892.535
288.346
287.938
287.927
288.017
295.961
348.403
288.695
288.742
287.937
331.024
302.561
288.166
288.056
287.934
287.928
288.332
287.926
287.926
287.926
287.926
287.926
287.926
287.926
287.954
287.936
288.976
287.97
287.927
287.926
288.062
287.926
287.926
287.926
287.926
287.926
287.926
287.926
287.928
287.926
287.926
288.071
287.976
287.928
287.927
287.927
287.926
287.926
288.043
287.968
287.928
287.926
288.026
287.929
287.926
287.93
287.926
287.926
287.926
289
287.944
287.954
287.936
287.926
287.926
287.926
287.926
287.926
287.931
288.425
287.944
287.926
287.926
287.926
287.926
287.926
296.387
287.926
287.934
287.926
287.926
287.926
290.994
288.397
288.029
288.101
287.96
287.932
287.928
287.926
287.926
287.926
287.926
287.926
287.926
287.926
287.927
288.045
288.641
287.932
287.967
287.926
287.926
287.926
287.926
287.926
287.947
287.933
287.926
287.926
287.926
287.927
287.926
287.926
287.926
287.936
287.926
287.926
287.926
287.926
287.927
287.926
287.935
287.926
287.926
287.926
287.926
287.926
287.927
287.926
287.926
287.926
287.926
287.938
287.926
287.926
287.926
287.926
287.927
287.926
287.926
287.926
287.926
287.926
287.93
287.926
287.926
287.926
287.926
287.927
287.926
287.926
287.926
287.926
287.926
287.926
287.926
287.926
287.926
287.926
287.926
287.926
287.926
287.926
287.926
287.926
287.926
287.926
287.926
287.926
287.926
287.926
287.926
287.926
287.926
287.926
287.926
287.926
287.926
287.926
287.926
287.926
287.926
287.926
287.926
287.926
287.926
287.926
287.926
287.926
287.926
287.926
287.926
287.926
287.926
287.926
287.926
287.926
287.926
287.926
287.926
287.926
287.926
287.926
287.926
287.926
287.926
287.926
287.93
306.694
287.929
287.926
287.932
321.814
287.926
287.926
787.08
303.818
853.907
309.521
313.7
288.346
288.221
288.52
318.761
928.525
906.132
315.164
320.242
288.466
287.926
287.926
287.931
288.195
288.313
287.933
287.931
287.93
287.926
287.926
288.137
288.227
287.932
287.93
287.931
287.926
287.926
287.935
288.377
288.316
287.934
287.933
287.926
287.933
288.435
287.936
288.421
287.935
287.926
287.926
287.926
287.926
303.314
287.926
318.01
287.926
310.044
288.805
289.231
288.132
288.238
287.944
287.938
289.875
287.953
288.361
315.372
289.622
288.321
287.949
288.919
1273.97
288.337
1306.84
1161.6
1228.68
288.702
288.448
1199.19
1173.87
1212.4
861.639
766.637
842.849
787.184
1282.06
1235.08
1244.14
873.549
851.139
848.21
867.173
1256.59
1199.89
1232.68
840.991
730.755
786.361
765.481
1298.19
1284.67
1264.2
848.636
719.496
811.582
763.833
343.268
333.242
288.874
289.201
331.58
342.774
289.193
342.734
289.102
321.93
288.794
338.635
325.869
289.189
333.301
288.654
308.753
288.493
322.308
315.127
288.922
334.028
288.531
312.261
288.716
323.22
316.374
288.956
1056.49
230.189
259.901
1226.13
209.891
236.297
955.723
1093.64
279.039
216.787
218.528
268.372
223.586
271.492
275.147
294.171
244.365
226.001
316.26
232.406
288.085
324.874
287.445
295.384
237.429
222.895
305.937
229.622
278.924
304.829
246.291
373.717
250.308
327.497
238.528
340.094
476.601
950.72
477.213
956.695
467.5
478.979
959.346
494.125
530.373
1076.83
980.829
551.902
480.052
995.427
513.661
1108.31
598.296
999.397
509.971
609.247
1008.82
540.589
1134.43
748.31
1152.34
614.308
651.671
1051.13
287.926
287.927
287.928
287.966
287.985
287.927
287.926
287.926
287.929
287.929
288.016
287.927
288.003
287.927
287.926
287.926
287.926
287.926
287.932
287.932
287.926
287.926
287.926
287.926
287.929
287.93
287.926
287.926
1796.73
272.428
849.051
218.707
1014.42
250.016
1649.06
1509.13
1819.57
1179.02
1930.6
318.166
287.926
287.956
287.949
288.46
287.931
287.999
288.08
213.093
258.618
233.805
300.598
237.484
624.352
291.255
235.696
247.6
233.298
240.041
253.663
287.691
346.219
242.745
266.068
507.891
259.415
341.275
419.898
1191.8
228.644
224.303
231.229
233.56
227.62
224.826
232.593
237.329
228.559
242.286
238.561
232.138
233.689
243.426
241.036
245.73
242.034
248.191
245.341
237.717
245.634
235.342
233.748
235.907
238.311
231.678
233.276
240.423
237.447
238.629
240.47
244.68
238.499
235.881
243.418
231.148
224.793
224.658
222.96
225.779
228.557
230.505
241.428
280.048
1330.7
475.842
660.871
1503.18
1480.64
1198.05
402.362
238.72
1085.1
491.892
1350.45
1508.99
219.831
212.681
218.492
218.845
220.658
220.721
217.806
253.534
865.897
268.204
1725.91
417.111
1847.42
533.39
234.857
228.612
237.131
242.923
238.15
234.44
233.881
239.489
238.594
245.502
237.81
234.272
242.489
243.963
388.805
954.872
254.727
2059.62
979.795
1737.02
432.19
252.993
247.068
253.761
252.271
250.596
251.147
257.365
227.987
252.893
229.148
263.297
224.241
231.99
258.699
230.689
234.188
239.259
235.745
238.289
230.139
234.293
243.157
250.075
249.415
250.974
246.533
247.024
246.733
331.661
249.287
265.309
274.686
346.063
442.402
419.655
231.605
238.467
239.719
296.422
226.696
244.396
245.104
219.369
220.732
248.047
312.433
239.337
215.688
259.542
990.98
1433.73
1177.44
841.113
1783.07
1399.08
420.221
246.435
239.852
270.807
262.315
241.105
306.88
241.828
336.821
248.32
264.949
281.112
376.806
431.751
494.818
223.069
237.052
238.784
317.196
245.589
223.322
247.288
235.807
273.381
259.18
313.425
250.085
240.134
254.927
260.195
449.708
320.297
290.604
378.88
494.887
599.12
278.573
2058.86
484.174
1961.21
663.797
2052.27
1610.05
232.117
272.017
247.802
314.361
250.138
235.494
270.712
256.161
257.431
267.311
274.433
280.942
253.091
261.481
254.075
254.993
266.592
256.865
250.976
268.433
259.706
257.725
259.082
261.953
323.352
300.652
325.106
300.856
262.115
274.448
266.385
329.834
316.888
347.9
305.554
263.634
261.281
273.563
310.664
338.269
375.714
339.036
789.568
1910.76
1025.59
289.704
1307.4
288.903
1147.69
319.73
499.552
333.103
643.541
947.07
609.041
989.678
232.147
412.202
387.981
408.353
276.134
286.031
292.902
287.237
429.96
291.062
422.712
723.025
422.751
735.087
1504.57
1807.23
816.984
287.995
835.09
289.4
1302.05
652.32
1200.85
685.041
916.68
1322.09
876.799
1342.38
414.909
589.326
387.401
549.126
795.844
850.856
1092.26
1308.17
288.131
1301.52
863.7
663.675
287.932
287.928
761.331
282.642
525.431
340.96
503.224
675.73
984.54
324.357
566.802
360.962
974.882
630.811
725.893
1079.42
1268.25
448.884
287.926
1230.73
536.121
288.153
287.927
273.059
336.091
306.316
647.243
353.042
410.885
255.518
265.082
308.974
277.976
570.85
246.708
324.049
385.873
292.04
496.717
317.009
754.336
443.947
512.832
858.679
288.41
1162.79
1315.94
425.417
852.43
287.926
287.931
266.042
290.595
284.767
404.606
303.723
314.099
266.032
1252.94
918.758
769.25
1007.02
1454.1
1144.25
1388.57
425.612
554.395
361.802
725.084
1228.26
1083.56
875.198
1254.31
678.234
779.762
1335.57
904.333
1001.44
1375.15
321.158
463.869
300.32
438.899
875.373
484.443
778.482
289.949
437.613
310.005
486.841
624.256
418.951
732.798
297.247
289.885
323.309
340.311
387.258
476.94
393.993
507.96
445.622
795.879
1015.96
527.313
966.438
428.271
517.482
804.657
462.067
1051.86
978.311
558.766
434.424
488.282
1113.55
575.282
677.784
1130.5
1274.41
575.856
1230.16
995.907
2029.63
288.375
974.453
287.927
304.848
320.289
870.944
661.989
828.025
433.633
456.831
565.701
555.13
1110.94
779.703
1414.98
1103.06
1366.21
1628.17
365.77
878.418
467.168
1046.57
580.774
766.64
1313.56
820.751
1328.41
1361.5
1254.76
1283.15
1662.66
1640.33
1385.43
1278.79
1005.82
1209.89
1571.62
1481.6
1448.07
1233.8
381.969
287.926
510.12
289.442
287.926
287.926
747.329
766.982
489.792
961.598
1581.87
1307.85
1278.39
604.136
674.448
399.668
696.467
1465.86
1111.7
1014.79
638.095
1210.44
828.987
1487.68
1191.97
1397.32
1656.88
1122.51
1517.41
1526.69
1317.32
1341.89
1509.25
1555.52
346.519
617.021
411.094
672.837
822.061
1037.92
529.064
1187.91
1451.2
1410
1505.27
1152.55
1437.11
1466.64
759.057
1366.49
1241.84
1739.7
772.978
1343.2
1247.86
893.779
1536
1430.14
1458.29
1345.49
1708.53
1778.5
921.318
1345.91
1421.15
1277.79
1373.04
1649.11
1694.18
911.626
1127.96
1441.69
1878.7
1560.79
777.18
1280.56
530.658
1216.83
656.946
850.944
1282.93
1480.75
680.366
1265.06
1540.74
1584.9
1505.19
1497.32
1377.28
1500.58
1461.56
1424.12
1173.81
1249.96
1494.22
1479.78
1482.93
779.768
1446.42
1775.45
1383.8
1364.28
854.31
1285.55
1425.63
1277.05
822.741
947.949
1791.82
1540.13
1386.24
1314.11
1295.56
1292.72
769.361
757.06
604.027
618.196
1252.73
1144.25
1155.58
612.496
629
455.298
450.823
1319.83
1230.63
1276.96
626.997
711.416
558.959
480.568
1302.86
1300.56
1264.28
764.192
688.708
612.792
547.339
1173.08
1842.21
1616.71
1873.28
1598.59
1819.64
1929.32
1268.87
1131.51
1156.75
581.87
621.932
443.319
409.787
1496.2
1681.39
1623.74
1847.28
1831.91
1865.91
1930.46
1432.39
1565.08
1774.62
1457.08
1629.25
1546.61
1636.37
1222.79
2016.62
1912.09
1931.7
1768.35
1625.44
1581.95
1490.07
1450.06
1106.51
1624.67
1964.51
1834.6
1836.72
1558.84
1689.73
1522.58
1675.73
1184.44
1771.05
1472.28
1602.82
1557.02
1006.81
1259.8
2100.49
1821.11
1788.93
1003.59
1194.72
667.808
1065.92
2007.92
1483.63
1656.96
1661.01
1476.24
1545.16
1672.97
1002.61
1711.54
1407.49
1181.23
1653.44
1424.81
2158.61
1814.02
1631.03
964.847
1668.72
1842.85
1691.27
1738.4
1292.65
1728.54
1297.25
302.04
287.945
452.655
287.926
287.926
287.926
287.926
466.437
287.938
359.212
287.926
287.926
287.926
287.926
1608.2
1288.74
1623.41
1572.79
784.068
1577.76
758.701
1616.88
1229.44
1641.29
763.223
1575.59
1533.86
664.423
1262
1030.45
1190.23
408.44
556.003
431.949
337.317
1877.02
1810.88
1734.51
1758.08
1242.29
1294.11
1771.1
1700.18
1242.19
1658.19
1564.55
603.698
1532.26
701.108
1676.22
1789.01
1731
1260.98
1724.65
1703.58
1142.14
1173.49
837.783
1159.63
417.305
314.49
429.791
311.625
1051.03
1118.18
496.324
866.37
380.865
356.711
312.667
1607.49
2285.08
2192.02
2252.39
2084.18
1993.27
2053.23
1021.74
771.601
1116.13
385.366
297.705
305.124
343.331
527.373
898.625
896.286
325.503
293.305
326.014
292.99
1174.13
763.362
1111.89
312.033
421.677
378.624
303.46
1782.53
1925.98
1968.98
2161.01
2042.67
1863.24
1502.37
1924.96
1868.38
2048.81
1106.29
1749.9
1629.48
831.252
317.96
287.926
287.927
287.926
287.926
287.926
287.926
1766.07
718.138
1418.31
803.672
1728.73
1665.12
1190.96
815.105
498.918
873.152
320.438
290.635
311.174
292.033
1727.27
704.438
1667.91
466.304
1438.23
1209.32
345.435
2027.38
1758.56
1881.79
1663.18
648.266
923.221
1554.57
314.43
288.421
312.727
297.848
288.113
298.775
288.095
296.896
288.145
299.902
291.15
287.962
290.164
287.979
1733.93
1067.3
1709.14
1444.85
359.201
492.665
1268.55
287.986
299.86
291.47
288.169
300.814
291.573
287.987
312.673
288.232
304.548
288.094
298.027
294.491
288.029
288.297
299.601
307.26
295.309
287.989
292.017
288.047
750.864
599.276
965.596
325.539
289.643
294.156
300.475
847.647
358.505
595.312
291.675
310.564
294.125
288.796
706.493
323.429
533.649
289.243
300.462
292.303
288.367
1072.61
409.772
340.25
289.641
1091.73
406.72
336.042
1033.26
364.528
289.392
313.392
394.094
945.546
326.897
392.147
333.446
1068.34
955.016
288.756
350.182
315.566
1601.18
1895.68
2098.45
1284.05
307.025
464.965
711.021
923.194
417.624
1418.74
815.453
289.141
408.516
299.446
397.354
301.287
290.49
296.09
289.427
288.022
288.092
449.669
303.072
301.528
290.857
290.504
288.099
288.12
409.321
294.001
298.223
288.891
289.723
288.054
287.998
248.635
288.104
235.216
260.576
428.019
236.921
249.024
219.85
349.365
244.578
243.511
250.753
246.492
247.932
239.574
248.533
241.175
243.381
240.041
229.812
235.252
235.395
246.029
238.335
241.176
241.775
247.55
241.383
239.041
245.089
840.448
1343.54
1258.03
255.272
664.695
1224.36
1313.85
233.3
227.996
224.677
230.271
231.996
226.726
238.246
236.422
237.67
252.375
231.29
239.182
235.031
243.449
244.201
254.091
243.318
246.622
238.744
251.535
248.801
247.286
253.938
259.566
257.132
250.053
255.044
251.45
264.208
296.574
383.663
307.371
396.963
556.64
535.164
238.072
362.688
257.207
264.704
231.918
264.139
273.707
350.27
478.855
272.826
321.778
423.593
600.961
689.1
242.028
302.308
283.577
384.928
247.19
271.395
284.064
694.538
409.942
428.531
861.626
1196.94
829.987
1224.3
1242.11
782.943
803.608
1068.96
1358.94
1044.99
1377.19
523.322
748.309
461.296
923.865
1360.22
1030.29
1275.94
963.487
1280.91
858.848
1121.58
1456.3
1210.46
1409.46
1323.38
1306.82
1507.39
1435.55
1302.88
1519.2
1446.11
1364.83
1596.32
1478.86
1292.75
1435.83
1548.75
1463.28
288.041
289.969
295.103
290.435
287.936
287.962
288.616
292.607
287.947
289.388
287.942
289
288.271
287.931
744.927
294.495
290.745
288.203
311.248
298.35
508.774
290.277
287.967
288.322
287.931
290.573
288.278
287.963
289.568
287.939
288.057
287.93
288.174
288.785
287.952
288.45
287.931
287.963
287.927
288.281
287.984
287.934
287.936
288.558
288.003
288.545
287.927
287.999
287.936
287.962
288.276
290.308
289.367
287.929
288.139
287.947
327.189
300.005
784.451
543.305
288.049
300.347
291.39
297.459
301.413
362.219
288.85
287.942
288.075
288.03
331.614
288.694
290.78
288.074
288.454
287.958
287.934
296.769
290.365
288.296
288.56
288.022
287.954
287.933
288.456
287.928
287.945
287.927
288.001
287.933
288.079
344.614
288.099
287.945
287.982
289.885
294.377
288.488
284.818
700.63
1142.98
1682.4
269.285
1031.28
564.615
1845.41
273.23
279.439
283.931
376.532
332.308
373.08
333.663
300.245
277.706
289.863
388.669
359.621
416.04
341.932
587.605
333.679
342.468
551.15
960.471
539.387
987.828
385.468
628.757
357.063
580.906
1130.86
639.868
1041.22
648.174
1009.78
527.821
1231.44
650.659
1218.74
520.988
674.522
590.402
1345.95
1047.1
738.748
1255.87
540.789
987.88
1847.22
1583.35
1491.25
979.17
1584.25
1507.97
1905.88
1614.41
1864.87
1029.3
1615.73
1114.73
1545.89
2019.81
1570.12
358.1
291.356
1714.22
393.637
1925.88
293.773
2360.34
297.434
2017.6
378.214
1396.04
1252.79
820.443
1308.26
1796.41
506.918
2147.02
1654.03
1765.01
1595.92
766.424
296.439
1067.37
1637.44
897.703
305.711
320.128
320.71
360.018
393.91
471.455
580.162
462.997
806.267
357.319
2342.95
1407.89
2005.33
287.967
1132.08
1556.52
657.352
287.947
2033.35
656.109
300.09
287.926
442.103
1011.08
548.316
1279.29
748.757
929.168
1494.59
372.134
650.627
450.694
786.883
910.593
1136.35
614.589
1478.96
324.415
288.541
2213.72
327.211
648.767
287.94
686.273
1498.02
858.233
1063.28
1546.83
1708.79
858.648
1101.38
1504.7
1520.34
1489.12
1508.76
1679.12
1682.07
1160.75
1619.31
1556.61
1614.13
1546.95
1690.84
1715.63
1729.9
1817.83
1825.02
1936.39
1995.36
1917.55
2009.84
1923.39
1818.08
1899.07
1743.86
1841.54
1933.71
2015.1
1590.73
1716.88
1726.73
1833.56
1878.11
1749.36
1751.74
1294.93
1049.74
742.008
1205.16
2041.86
1580.53
1762.81
1025.91
1335.42
1390.1
1559.22
1607.91
2078.76
1941.7
1968.8
1734.05
1263.02
1484.37
2029.7
1955.49
1900.03
1376.93
1842.54
1577.11
2202.25
1759.21
1960.62
1155.48
1716.88
1923.01
1719.59
1644.57
877.493
1622.64
886.117
1891.96
1931.42
1986.24
2073.13
2091.31
1794.2
1968.68
777.829
1659.08
816.649
1767.75
1769.01
1462.28
1494.9
875.429
1556.98
1549.29
1210.75
416.259
1245.02
401.291
1966.19
758.915
1672.58
1937.34
1695.85
1618.06
834.312
2157.3
287.971
288.338
287.926
289.179
287.926
287.926
1760.93
2015.87
2218.86
2196.34
2058.63
2126.4
2082.46
663.344
1614.28
725.944
1824.12
1786.64
1432.68
1400.34
1545.64
833.322
1548.21
1168.8
351.647
1110.61
377.396
1478.17
2258.65
2246.99
1955.31
1982.23
2287.27
2190.75
1818.57
1860.59
1916.52
2094.57
2029.91
1644.66
1303.05
1191.27
416.798
1408.79
330.481
1134.71
339.29
1468.04
1955.52
2356.68
2088.73
2355.95
2276.6
2097.02
2346.27
571.311
1882.79
1439.09
1936.19
1341.23
1197.15
434.562
1529.39
497.242
1450.77
325.147
1015.47
842.348
303.654
1323.21
1027.97
315.675
1145.49
396.83
330.387
1432.97
2021.02
2301.58
2132.76
2352.69
2179.83
1967.84
2350.68
2004.33
643.685
1625.82
1494.24
2029.98
1278.39
468.026
2200.97
2091.91
2166.86
1523.74
1267.85
952.776
1771.82
1505.49
1978.78
1903.99
816.249
1247.4
727.641
329.27
611.431
288.185
308.553
639.641
288.199
294.638
309.568
288.032
288.079
299.757
535.722
291.048
483.48
292.456
288.162
294.945
613.534
288.126
303.065
580.384
293.858
2202.49
2188.14
2291.48
2247.47
472.122
1475.94
1533.2
2046.02
2074
2279.7
2215.49
401.062
1303.94
1440.77
1143.58
1647.84
1902.15
901.823
293.816
499.382
328.625
1144.59
860.41
303.007
634.04
302.062
293.442
868.328
1176.21
1627
1966.42
891.732
293.465
440.906
332.953
288.071
293.264
288.141
521.438
300.167
598.265
305.332
1309.29
947.135
311.138
2114.6
1388.15
1023.71
2286.19
351.981
825.813
1223.26
574.33
288.556
350.753
292.083
1235.76
288.83
327.594
290.455
419.461
289.235
287.952
394.077
289.601
290.594
1494.99
291.267
420.581
481.759
287.984
292.867
289.659
416.485
345.801
289.814
288.597
287.952
289.694
288.002
430.714
294.811
345.274
290.295
288.312
288.069
303.461
291.007
289.048
393.298
530.881
287.943
327.208
289.464
1041.55
388.034
310.022
288.925
411.587
288.008
297.5
287.986
294.887
288.293
287.929
288.616
287.948
288.56
287.934
287.926
287.935
287.926
287.931
287.926
287.943
287.928
288.099
287.979
287.926
287.93
287.972
288.242
288.001
287.926
287.937
287.927
288.513
287.936
288.265
287.93
287.926
287.926
287.933
287.926
287.937
288.092
289.399
288.038
287.941
287.927
287.931
287.983
304.243
287.949
290.351
288.367
288.09
289.468
288.057
287.978
287.926
287.931
301.808
288.405
287.945
288.234
288.427
287.932
287.926
287.926
287.93
287.955
287.929
288.039
287.927
287.926
287.926
287.926
288.058
287.927
287.96
287.926
287.927
287.926
287.926
287.959
287.926
287.945
287.927
287.926
287.928
287.926
287.965
287.926
287.96
287.928
287.926
287.928
287.926
287.939
287.926
287.95
287.927
287.926
287.927
287.926
287.926
287.927
287.926
287.937
287.926
287.927
287.926
287.926
287.926
287.926
287.963
290.593
287.953
287.926
287.929
287.934
288.278
287.938
287.926
287.926
287.926
287.926
287.93
287.926
287.928
288.126
287.935
287.926
287.927
287.926
287.932
287.926
287.926
287.926
287.926
287.93
287.926
287.927
287.926
287.926
287.926
287.926
287.926
287.926
287.926
287.926
287.931
287.926
287.926
287.926
287.926
287.926
287.926
287.926
287.926
287.926
287.926
287.926
287.926
287.926
287.926
287.926
287.926
287.926
287.926
287.926
287.926
287.926
287.926
287.926
287.926
287.926
287.926
287.926
287.926
287.926
287.926
287.926
287.926
287.926
287.926
287.926
287.926
287.926
287.926
287.926
287.926
287.926
287.926
287.926
287.926
287.926
287.926
287.926
287.926
287.926
287.926
287.926
)
;

boundaryField
{
    ground
    {
        type            zeroGradient;
    }
    outlet
    {
        type            zeroGradient;
    }
    wall
    {
        type            zeroGradient;
    }
    wall2
    {
        type            zeroGradient;
    }
    wall3
    {
        type            zeroGradient;
    }
    internalPatch
    {
        type            internal;
    }
    procBoundary6to4
    {
        type            processor;
        value           nonuniform List<scalar> 
248
(
287.926
287.926
287.926
287.926
287.926
287.926
287.926
287.926
287.926
287.926
287.926
287.926
287.926
287.926
287.926
287.926
287.926
287.926
287.926
287.926
287.926
287.927
287.93
287.937
287.944
287.946
287.944
287.952
287.954
287.947
287.936
287.935
287.931
287.928
287.926
287.926
287.926
287.926
287.926
287.926
287.926
287.926
287.926
287.926
287.926
287.926
287.926
287.926
287.926
287.926
287.926
287.926
287.926
287.926
287.926
287.926
287.926
287.926
287.926
287.926
287.926
287.926
287.926
287.926
287.93
287.957
288.075
288.359
288.807
289.378
289.721
289.365
288.474
287.993
287.929
287.926
287.926
287.926
287.926
287.926
287.926
287.926
287.926
287.926
287.926
287.926
287.926
287.926
287.926
287.926
287.926
287.926
287.926
287.926
287.926
287.926
287.926
287.926
287.927
287.93
287.939
287.949
287.954
287.954
287.946
287.936
287.929
287.929
287.929
287.927
287.926
287.926
287.926
287.926
287.926
287.926
287.926
287.926
287.926
287.926
287.926
287.926
287.926
287.926
287.926
287.926
287.926
287.926
287.926
287.926
287.926
287.926
287.926
287.926
287.926
287.926
287.926
287.927
287.93
287.938
287.947
287.941
287.933
287.928
287.926
287.926
287.926
287.926
287.926
287.926
287.926
287.926
287.926
287.926
287.926
287.926
287.926
287.926
287.926
287.926
287.926
287.926
287.926
287.926
287.926
287.926
287.926
287.926
287.926
287.926
287.926
287.928
287.934
287.929
287.927
287.926
287.926
287.926
287.926
287.926
287.926
287.926
287.926
287.926
287.926
287.926
287.926
287.926
287.926
287.926
287.926
287.926
287.927
287.926
287.926
287.926
287.926
287.926
287.926
287.926
287.926
287.926
287.926
287.926
287.926
287.927
287.938
287.982
288.094
288.263
288.461
288.589
288.003
287.929
287.926
287.926
287.926
287.926
287.926
287.926
287.926
287.926
287.926
287.926
287.926
287.926
287.926
287.926
287.926
287.926
287.927
287.933
287.946
287.965
287.986
287.929
287.926
287.926
287.926
287.926
287.926
287.926
287.926
287.926
287.926
287.926
287.927
287.928
)
;
    }
    procBoundary6to5
    {
        type            processor;
        value           nonuniform List<scalar> 
198
(
287.926
287.926
287.926
287.927
288.036
296.907
648.96
1570.31
2003.13
2097.26
2119.51
1953.43
1762.29
1640.72
1548.38
1496.66
1515.24
1596.58
1745.73
1954.73
2188.21
2333.91
2127.07
1246.14
352.013
288.821
287.936
287.926
287.926
287.926
287.926
287.926
287.926
287.926
287.926
287.926
287.926
287.926
287.926
287.926
287.926
287.926
287.926
287.926
287.926
287.926
287.926
287.926
287.926
287.926
287.926
287.926
287.932
288.374
319.796
936.155
1717.55
1953.35
1966.29
1813.6
1726.99
1669.3
1642.36
1666.16
1737.51
1862.7
2038.41
2219.76
2276.58
1906.08
892.341
309.582
288.208
287.929
287.926
287.926
287.926
287.926
287.926
287.926
287.926
287.926
287.926
287.926
287.926
287.926
287.926
287.926
287.926
287.926
287.926
287.926
287.926
287.926
287.926
287.926
287.926
287.926
287.945
289.291
374.376
1163.5
1777.53
1875.51
1846.17
1836.69
1847.13
1881.66
1942.04
2032.84
2141.43
2193.35
1986.21
1232.76
381.206
289.507
287.946
287.926
287.926
287.926
287.926
287.926
287.926
287.926
287.926
287.926
287.926
287.926
287.926
287.926
287.926
287.926
287.926
287.926
287.926
287.926
287.926
287.926
287.926
287.97
287.961
290.437
434.808
1295.75
1822.07
1854.73
1896.01
1940.29
1978.25
1997.25
1943.29
1678.93
1046.78
382.116
290.309
287.965
287.926
287.926
287.926
287.926
287.926
287.926
287.926
287.929
287.968
287.926
287.929
287.938
287.954
287.966
287.971
287.926
291.218
291.086
465.794
1351.31
1391.35
1419.8
1395.41
1281.42
1013.14
575.581
318.703
289.227
287.959
287.926
287.94
288.256
292.153
314.632
288.218
288.98
290.138
291.009
475.918
477.069
438.098
371.369
)
;
    }
    procBoundary6to7
    {
        type            processor;
        value           nonuniform List<scalar> 
348
(
287.926
287.926
287.926
287.926
287.926
287.926
287.927
287.935
287.976
288.108
288.309
288.44
288.411
288.311
288.556
288.899
289.032
288.807
288.807
288.476
288.14
287.984
291.551
460.376
1194.99
1448.06
1149.25
629.266
345.141
256.113
241.621
248.085
255.333
227.682
230.781
234.315
235.008
235.008
231.1
228.831
226.959
226.76
225.924
223.645
221.769
219.326
220.239
220.113
221.896
224.991
228.381
228.33
228.33
230.725
234.343
238.312
244.928
268.158
338.441
554.8
1091.89
1778.81
1997.88
1338.83
367.726
321.544
293.011
288.177
287.933
287.926
287.926
287.926
287.926
287.926
287.926
287.926
287.926
287.926
287.927
287.954
287.926
287.932
287.998
288.494
290.975
297.785
306.242
311.312
309.639
305.249
315.895
330.765
337.149
329.311
329.311
314.754
299.721
621.656
1272.91
1305.71
853.012
415.114
256.96
212.675
211.752
220.229
221.281
221.583
226.698
230.601
230.601
228.118
225.703
223.209
223.091
222.131
220.05
217.706
215.143
216.484
216.949
219.384
222.917
225.959
228.33
228.33
219.722
224.517
230.092
233.809
242.804
278.773
380.301
676.059
1276
1857.47
1915.59
1071.34
588.625
308.442
288.458
287.937
287.926
287.936
288.427
287.933
287.926
287.929
288.024
289.992
318.478
288.359
293.048
322.895
436.215
582.936
677.349
713.758
691.396
647.425
738.13
819.373
856.449
844.703
844.703
766.979
1287.72
1155.18
636.774
323.004
232.208
208.393
214.515
216.309
216.309
221.583
221.583
221.583
220.704
219.296
218.801
217.769
215.253
212.174
209.915
211.428
213.648
215.918
216.263
216.263
216.263
210.337
213.445
217.249
220.325
226.696
253.557
334.655
547.647
997.359
1602.05
1937.86
1623.75
888.911
324.49
288.575
322.499
853.753
307.934
288.188
295.696
425.476
913.098
1321.97
532.86
889.693
1130.84
1211.59
1212.5
1180.02
1142.87
1119.21
1165.82
1206.8
1245.87
1284.01
1284.01
1081.27
550.642
297.484
226.641
209.927
209.927
207.537
215.016
215.016
220.651
221.583
217.344
216.701
214.62
211.215
207.753
205.688
208.169
211.068
215.759
216.263
207.384
207.384
198.854
203.235
207.279
212.55
224.605
261.543
349.161
567.181
964.901
1497.37
1860.62
1743.17
962.444
1694.43
1784.84
1533.47
639.582
1277.25
1574.65
1513.53
1307.69
1435.68
1358.4
1231.45
1111.94
1026.09
987.248
991.662
985.152
978.94
1008.34
1081.27
550.642
297.484
226.641
219.787
215.416
204.585
204.585
212.195
215.016
215.016
213.148
210.574
206.377
202.573
200.773
204.75
207.384
207.384
202.06
194.223
194.223
209.942
213.903
220.276
230.836
251.468
294.765
412.293
667.568
1068.51
1493.83
1701.08
1511.14
1201.65
838.605
543.376
1055.5
801.467
620.821
534.438
507.861
517.064
497.664
483.373
497.16
280.402
273.907
273.08
210.511
196.586
204.585
204.585
206.742
202.298
199.918
199.625
194.223
194.223
196.586
196.586
196.586
276.83
278.236
289.594
318.719
389.525
)
;
    }
}


// ************************************************************************* //
