/*--------------------------------*- C++ -*----------------------------------*\
  =========                 |
  \\      /  F ield         | OpenFOAM: The Open Source CFD Toolbox
   \\    /   O peration     | Website:  https://openfoam.org
    \\  /    A nd           | Version:  9
     \\/     M anipulation  |
\*---------------------------------------------------------------------------*/
FoamFile
{
    format      ascii;
    class       volVectorField;
    location    "0.0004";
    object      U;
}
// * * * * * * * * * * * * * * * * * * * * * * * * * * * * * * * * * * * * * //

dimensions      [0 1 -1 0 0 0 0];

internalField   nonuniform List<vector> 
2674
(
(-564.153 -113.736 915.78)
(-620.366 -182.9 65.8442)
(-567.453 615.638 135.008)
(-576.74 639.258 920.429)
(254.36 -166.425 67.0847)
(269.495 692.812 41.543)
(252.152 -202.683 946.528)
(173.639 632.109 908.013)
(-265.543 198.227 620.155)
(-561.441 -113.388 686.516)
(-567.6 142.002 907.251)
(-318.99 -115.149 925.963)
(-570.83 137.68 680.911)
(-253.564 -186.388 619.037)
(-322.774 137.391 929.823)
(-250.587 197.763 484.392)
(-622.15 -209.748 505.043)
(-623.51 185.595 66.0395)
(-262.128 -180.738 65.2626)
(-630.875 218.772 503.184)
(-233.591 -189.102 485.562)
(-265.285 193.585 64.6155)
(-264.875 320.792 485.551)
(-656.878 293.314 60.1255)
(-572.805 628.133 428.171)
(-243 701.082 59.1361)
(-576.44 380.379 426.035)
(-326.053 628.608 427.473)
(-270.392 321.619 62.8884)
(-329.141 390.582 687.034)
(-575.528 393.647 914.677)
(-579.867 645.879 701.125)
(-325.126 633.905 913.337)
(-580.017 398.091 695.818)
(-330.621 640.15 696.344)
(-325.741 389.736 911.83)
(-134.182 179.631 488.788)
(-138.668 -172.383 67.6889)
(238.124 193.475 62.0324)
(237.991 -173.403 467.419)
(-115.566 -178.23 482.723)
(216.174 170.893 441.313)
(-144.027 192.134 70.8962)
(-141.335 295.065 483.894)
(-135.943 663.093 65.3476)
(264.09 308.801 65.325)
(175.736 631.616 412.37)
(250.186 282.387 489.902)
(-177.001 683.004 506.371)
(-134.29 308.774 64.1833)
(-145.521 194.002 602.572)
(-154.573 -198.001 958.905)
(244.766 -189.245 576.445)
(182.584 138.633 921.708)
(-131.92 -188.64 595.919)
(239.122 195.914 557.25)
(-162.879 216.144 971.432)
(-136.669 318.04 620.317)
(-72.3522 618.66 899.654)
(179.736 638.457 684.237)
(177.528 385.615 904.052)
(179.245 387.636 674.404)
(-71.145 622.771 676.254)
(-68.8592 379.075 919.49)
(-500.242 -61.5324 213.271)
(-604.972 -177.694 210.935)
(-640.769 -56.9947 62.8526)
(-504.414 -186.742 66.4816)
(-619.115 -55.6331 210.317)
(-499.099 -190.579 212.852)
(-516.743 -61.6748 68.4121)
(127.596 -47.2636 192.847)
(127.174 -163.835 58.9661)
(260.378 -46.1194 60.731)
(250.684 -174.351 209.862)
(254.436 -53.4321 193.408)
(123.26 -172.484 189.247)
(131.821 -35.6358 60.2058)
(121.175 560.109 202.874)
(103.615 702.67 55.579)
(244.947 538.416 66.415)
(261.952 678.742 237.425)
(239.288 524.737 202.528)
(92.1182 701.59 228.534)
(131.776 574.058 70.7041)
(117.821 -48.9839 860.68)
(93.6266 -188.392 966.937)
(249.812 -187.858 799.786)
(251.607 -9.46365 972.613)
(116.89 -180.687 825.292)
(245.914 -42.2547 828.183)
(99.5319 -32.8286 993.126)
(-394.981 40.9038 764.206)
(-395.84 207.414 572.721)
(-264.369 74.985 626.9)
(-230.599 212.18 772.569)
(-384.961 64.0132 597.012)
(-397.073 226.996 755.448)
(-239.092 62.0938 756.642)
(-390.809 -18.7323 767.462)
(-258.095 -63.1779 620.557)
(-385.298 -191.042 570.048)
(-219.583 -198.103 767.099)
(-389.37 -210.768 752.198)
(-375.913 -53.2211 599.55)
(-236.452 -43.9911 751.232)
(-395.293 62.5355 337.109)
(-361.508 173.738 456.098)
(-255.375 67.4716 495.324)
(-259.462 195.447 346.179)
(-376.554 57.1422 469.635)
(-386.557 188.44 325.164)
(-265.588 67.2137 359.483)
(-514.338 -65.2862 361.8)
(-652.011 -205.96 319.575)
(-637.433 -22.9296 506.884)
(-461.034 -180.909 489.448)
(-488.115 -56.2372 484.661)
(-641.403 -49.8516 334.321)
(-505.598 -180.951 357.109)
(-511.345 67.7698 212.694)
(-644.036 55.9895 62.9091)
(-613.427 179.54 212.71)
(-509.212 196.238 68.6557)
(-629.585 54.483 209.821)
(-507.512 199.031 217.562)
(-520.534 70.2522 67.2525)
(-379.372 -57.1784 203.253)
(-384.989 -174.811 62.688)
(-258.334 -181.886 207.793)
(-265.749 -54.902 65.395)
(-383.176 -173.365 199.046)
(-255.145 -54.1614 208.081)
(-391.444 -54.9729 63.4938)
(-524.6 71.4737 361.094)
(-470.936 192.871 494.115)
(-646.019 36.1372 499.235)
(-661.294 215.857 320.243)
(-499.275 66.8647 482.684)
(-655.07 51.0144 328.948)
(-514.082 188.924 361.02)
(-387.457 -55.3538 337.678)
(-244.719 -57.9365 487.6)
(-347.015 -168.586 454.269)
(-252.786 -185.225 346.937)
(-365.909 -53.7166 470.912)
(-380.044 -179.976 326.761)
(-258.61 -59.6712 350.999)
(-390.29 59.9412 203.973)
(-265.589 195.524 207.408)
(-389.139 181.387 60.6231)
(-268.407 68.994 67.9199)
(-391.153 178.599 196.204)
(-266.127 69.8857 215.407)
(-394.064 60.6013 63.7174)
(-405.253 455.751 317.524)
(-399.076 280.709 502.357)
(-228.535 455.462 504.724)
(-263.756 320.108 354.599)
(-391.454 304.283 351.953)
(-397.848 449.778 503.588)
(-250.079 443.551 351.828)
(-479.924 437.783 221.107)
(-651.897 454.253 36.3271)
(-658.296 289.992 230.286)
(-532.822 325.796 73.8843)
(-647.579 456.632 256.105)
(-526.731 324.698 215.293)
(-488.607 435.603 67.3093)
(-388.14 522.993 220.626)
(-404.344 691.907 38.0091)
(-238.773 704.569 233.273)
(-275.334 575.028 73.8214)
(-404.352 687.507 256.39)
(-272.166 570.667 215.361)
(-388.211 530.62 68.7208)
(-362.725 403.189 217.081)
(-265.968 319.218 204.812)
(-403.494 299.394 66.8566)
(-253.631 448.202 67.655)
(-397.352 292.818 216.652)
(-249.104 443.208 219.283)
(-371.372 414.336 70.4892)
(-4.57794 57.2913 334.149)
(-133.227 60.3013 461.874)
(-17.5243 178.66 461.826)
(-135.474 188.587 360.531)
(-136.677 64.7876 329.918)
(-8.96791 183.632 332.876)
(-4.72207 54.7036 466.115)
(-1.15585 -56.5538 186.923)
(-5.75272 -178.739 57.0056)
(-135.515 -182.75 212.012)
(-135.926 -51.0096 59.0524)
(-8.01284 -180.865 184.461)
(-130.833 -58.3292 190.334)
(-1.2587 -52.6951 57.7018)
(115.131 74.5047 210.837)
(250.054 73.9278 63.1578)
(237.453 188.667 195.966)
(111.18 208.518 62.3228)
(240.32 68.4855 200.387)
(110.121 196.143 198.395)
(122.937 87.8543 67.16)
(122.616 -44.6001 328.109)
(243.536 -169.498 343.113)
(118.406 -172.204 449.034)
(242.876 -61.2089 449.984)
(248.421 -44.4678 322.846)
(120.899 -170.742 319.882)
(120.16 -46.6218 462.351)
(-2.52994 -65.6592 320.359)
(-125.562 -58.9527 455.495)
(-128.133 -181.624 350.526)
(-0.90878 -185.514 444.943)
(-4.0005 -188.972 314.412)
(-131.804 -58.8932 323.276)
(0.0683023 -64.6304 454.675)
(122.976 78.1239 352.66)
(99.0729 197.817 466.922)
(243.076 199.193 321.184)
(239.3 52.393 464.644)
(250.964 76.0067 333.984)
(116.047 203.656 333.182)
(117.182 74.4334 488.451)
(-12.7933 66.149 199.25)
(-143.27 191.65 221.728)
(-139.726 71.3574 60.6582)
(-18.2295 190.54 62.4308)
(-141.302 67.7617 195.558)
(-18.6415 188.971 199.843)
(-7.77786 70.5034 62.3979)
(-5.82663 429.698 331.497)
(-7.80239 295.231 474.912)
(-130.379 404.502 461.007)
(-132.337 309.836 345.274)
(-134.146 433.755 331.185)
(1.17621 305.941 341.593)
(-10.7313 408.601 461.374)
(-10.3552 545.498 208.028)
(1.14461 665.305 63.2207)
(-132.65 656.096 212.554)
(-140.221 547.59 68.1677)
(-143.881 549.981 217.304)
(-4.07323 657.507 208.84)
(-7.61271 547.813 65.2336)
(108.933 432.822 209.165)
(236.754 420.253 64.3408)
(260.411 300.203 209.824)
(134.674 330.335 65.8045)
(127.569 314.63 208.628)
(230.358 403.678 199.747)
(112.446 451.288 64.8918)
(106.199 454.387 333.476)
(115.651 320.681 479.256)
(254.159 321.008 346.211)
(264.704 449.518 487.147)
(132.78 328.877 353.708)
(82.0089 461.802 494.289)
(265.046 466.022 304.427)
(-19.3205 561.436 353.137)
(-136.384 522.506 492.041)
(-164.03 710.703 321.733)
(27.1554 685.043 493.175)
(-132.64 562.159 361.705)
(-23.7377 536.24 477.658)
(20.1987 703.481 323.139)
(-11.334 428.97 202.906)
(-135.563 311.33 206.732)
(-133.669 428.116 62.3908)
(0.690254 309.025 63.322)
(-130.965 434.204 200.989)
(-2.92102 308.198 203.868)
(-7.20875 428.593 63.3273)
(-2.71815 47.9814 714.546)
(-138.763 65.5666 584.172)
(-20.9987 188.422 582.5)
(-130.569 172.909 713.892)
(-128.55 57.8438 705.675)
(-6.06489 59.8643 590.341)
(-18.2339 170.405 705.502)
(-15.8161 -70.7519 852.035)
(23.6349 -202.918 964.328)
(-139.938 -189.796 819.014)
(-152.446 -26.1351 978.205)
(-142.958 -56.2786 833.908)
(-6.96619 -196.124 820.063)
(1.51035 -53.3471 985.338)
(109.957 -51.0345 719.045)
(223.497 -171.932 685.416)
(114.519 -180.748 569.666)
(245.468 -65.9858 571.746)
(110.06 -175.835 692.081)
(118.225 -53.1387 591.128)
(229.686 -60.5727 696.158)
(-3.9017 -65.0107 712.174)
(-136.582 -59.0195 578.569)
(-114.986 -170.556 704.768)
(-7.40558 -194.981 566.798)
(-128.773 -53.3983 701.26)
(0.600734 -183.427 689.271)
(-8.44194 -67.4827 583.216)
(103.554 59.0377 760.011)
(104.473 199.177 601.116)
(244.17 57.5624 594.946)
(250.422 220.441 731.271)
(122.374 76.6472 622.924)
(76.0022 218.247 761.664)
(259.092 32.376 756.339)
(1.99536 62.4994 851.988)
(-148.065 204.194 828.046)
(-145.15 49.4694 977.373)
(27.9254 204.473 976.227)
(-137.235 68.4319 837.707)
(1.40321 197.077 833.666)
(17.9133 44.4992 989.829)
(43.0162 456.069 754.69)
(-12.5764 312.697 608.301)
(-148.455 446 578.498)
(-148.955 288.79 767.037)
(-174.991 461.092 762.922)
(8.059 440.227 582.393)
(-1.0119 291.869 745.667)
(-4.54998e-09 8.78459e-07 1.43716e-06)
(-1.04496e-05 2.24179e-05 4.35097e-06)
(-7.45792e-07 1.3958e-06 1.1358e-06)
(-1.75282e-08 3.51661e-08 4.37091e-08)
(-2.20728e-08 8.38701e-08 1.09873e-07)
(-1.20711e-05 2.27218e-05 6.18955e-07)
(-1.17866 3.77037 0.108734)
(-0.000502526 0.00215864 0.000293928)
(-0.646396 0.890056 0.0272372)
(-231.593 315.213 23.9307)
(-0.000721453 0.000983984 0.000390462)
(-19.9932 33.5172 11.3552)
(-0.000230257 0.00149678 0.000681548)
(-55.701 221.088 160.035)
(-0.000201327 0.000821809 0.001097)
(-3.38881e-06 2.79424e-05 2.31032e-05)
(-0.0345022 0.117088 0.110234)
(-1.26302e-05 5.3957e-05 3.47923e-05)
(-1.28392e-05 3.58907e-05 4.23768e-05)
(-5.81516e-07 2.86149e-06 2.19668e-06)
(-131.471 186.605 57.7892)
(-530.19 784.06 63.9227)
(-78.6969 141.565 8.73041)
(-35.0814 69.0713 17.2404)
(-427.37 630.252 198.575)
(-2.40284 5.56337 0.942092)
(-6.5979 14.1892 0.537023)
(-1.7178 10.7065 6.99722)
(-1.5035 8.13696 7.82593)
(-44.7864 127.437 93.3377)
(-0.830492 3.32542 3.25663)
(-0.918856 4.34037 2.74385)
(-0.0290411 0.225092 0.187196)
(-0.0148355 0.0840495 0.068732)
(-5.65538e-06 1.39673e-05 1.44131e-05)
(-1.08798e-05 1.71592e-05 1.02723e-05)
(-1.64767e-07 5.82845e-07 4.12763e-07)
(-4.96201e-06 1.77878e-05 8.56479e-06)
(-0.00328534 0.00939041 0.00834724)
(-3.92293e-08 8.56637e-08 5.23382e-08)
(-5.64195e-07 1.16826e-06 5.39167e-07)
(-4.42014 11.6337 2.96652)
(-0.15092 0.48357 0.175629)
(-12.7099 26.1017 13.3651)
(-0.695542 1.46343 0.623944)
(-189.816 288.158 135.347)
(-0.240707 0.603081 0.119076)
(-0.008475 0.0219761 0.0075709)
(-0.000554236 0.00239053 0.00183041)
(-0.0342513 0.139619 0.0801874)
(-2.62949 7.24635 5.19175)
(-15.9138 41.2658 30.4028)
(-0.223895 0.826023 0.80318)
(-0.23154 1.04031 0.630237)
(-0.00360112 0.0189731 0.015098)
(-20.6139 30.2323 1.4613)
(-7.83178 12.3845 2.52799)
(-0.223777 0.312062 0.0487942)
(-0.0968229 0.198815 0.0269088)
(-0.00853584 0.0138259 0.000289184)
(-0.002889 0.00465366 0.000580019)
(-0.279712 0.564196 0.0145188)
(-7.31722e-08 5.47839e-07 8.69671e-07)
(-4.394e-06 5.58606e-05 7.79026e-05)
(-7.83322e-07 4.18571e-05 5.33247e-05)
(-1.06645e-07 1.22665e-06 1.3062e-06)
(-1.073e-08 2.07305e-06 2.15786e-06)
(-1.40314e-08 1.39118e-07 1.47185e-07)
(2.88187e-09 1.53322e-07 1.63355e-07)
(-0.0128563 0.0535958 0.000996002)
(-0.0047176 0.0200365 0.00222435)
(-0.429916 1.44878 0.205178)
(-0.026604 0.0787633 0.00953419)
(-0.000877051 0.00290261 4.68017e-05)
(-0.000316759 0.00103346 0.000107917)
(-0.0746789 0.220719 0.0047998)
(-3.17227e-08 1.97901e-07 2.82242e-07)
(-5.44968e-07 2.36334e-06 2.50591e-06)
(-2.01615e-06 1.24063e-05 1.66618e-05)
(-4.54627e-08 3.65499e-07 3.76139e-07)
(-2.66307e-08 1.18085e-07 1.05364e-07)
(-9.27445e-09 4.87214e-08 5.29494e-08)
(-1.4497e-08 6.10637e-08 6.53096e-08)
(-0.000313424 0.00431341 0.00200183)
(-8.43199e-06 0.000119351 7.14042e-05)
(-8.78092e-06 4.97429e-05 2.91259e-05)
(-0.0254991 0.233563 0.124167)
(-0.0127165 0.0852243 0.0441602)
(-0.00042687 0.00507897 0.00352979)
(-0.000309129 0.00178458 0.0012219)
(-0.000264744 0.00227513 0.00303515)
(-9.00593e-06 4.06026e-05 4.07871e-05)
(-8.11168e-06 8.67553e-05 9.30176e-05)
(-0.0214696 0.139265 0.166477)
(-0.0111845 0.0527628 0.0632184)
(-0.000396545 0.00400525 0.0039836)
(-0.000291404 0.00143174 0.00140701)
(-0.0452492 0.170827 0.0288272)
(-0.00174797 0.00676526 0.00205349)
(-2.79842e-05 0.000113188 4.19895e-05)
(-0.00267445 0.0079577 0.00124058)
(-4.90702e-06 1.42552e-05 4.0789e-06)
(-3.4055e-05 0.000109197 1.50386e-05)
(-0.000107861 0.000310214 9.30784e-05)
(-0.760687 1.29033 0.305192)
(-0.0201297 0.0279648 0.00572413)
(-0.0253635 0.0441197 0.0175384)
(-0.00916558 0.0185017 0.00323085)
(-3.34145e-05 4.84499e-05 1.64746e-05)
(-0.000282654 0.000442622 7.44101e-05)
(-0.000370263 0.00072688 0.000280786)
(-6.05422e-05 0.000203413 0.000146499)
(-0.000217309 0.00047448 0.00039671)
(-0.00310647 0.0104406 0.0057819)
(-0.229009 0.61382 0.413807)
(-0.0130865 0.0290228 0.0185395)
(-0.000198131 0.000498613 0.000267246)
(-1.5206e-05 3.561e-05 2.26497e-05)
(-9.49774e-07 1.29917e-06 3.08826e-06)
(-6.93563e-07 2.77715e-06 5.74906e-06)
(-6.43454e-06 2.30825e-05 3.87016e-05)
(-1.6978 4.65599 9.60262)
(-2.62412e-06 8.44801e-06 1.87083e-05)
(-0.00278207 0.00504419 0.0167583)
(-5.08383e-06 1.48906e-05 2.6065e-05)
(-2.22656e-06 4.40776e-06 1.17642e-05)
(-3.16252e-07 7.81512e-07 1.68426e-06)
(-0.818242 1.66529 3.93411)
(-0.0957311 0.33949 0.728973)
(-0.0237986 0.0685787 0.187664)
(-0.0473204 0.120875 0.292012)
(-0.0103953 0.0223839 0.0672125)
(-0.00138639 0.00511717 0.0128263)
(-0.000627083 0.00169332 0.00463041)
(-1.01995e-07 9.3416e-08 2.61548e-07)
(-2.10137e-08 2.0676e-08 4.0894e-08)
(-6.09466e-08 9.04535e-08 1.9328e-07)
(-4.09284e-07 4.89094e-07 1.0594e-06)
(-4.52745e-06 7.07855e-06 1.37056e-05)
(-8.64263e-06 7.68388e-06 2.05353e-05)
(-7.3776e-05 8.98478e-05 0.000328776)
(-0.000546931 0.000811363 0.00292301)
(-0.0436863 0.0643771 0.203461)
(-0.232969 0.392495 1.06149)
(-0.00245843 0.00467821 0.0128715)
(-0.013582 0.0288143 0.0755313)
(-0.000167961 0.0003945 0.00112936)
(-4.00766e-05 7.29858e-05 0.000204215)
(-5.77244e-06 3.41454e-05 5.8301e-05)
(-0.000104709 0.000344431 0.000619654)
(-0.000133967 0.000949788 0.00167136)
(-0.00437639 0.0198025 0.0400638)
(-0.00217625 0.00705869 0.0153228)
(-5.42748e-05 0.00031747 0.000693108)
(-4.33863e-05 0.000114312 0.000264502)
(-3.01206e-06 1.27112e-05 6.75293e-06)
(-0.000451498 0.00225035 0.0011025)
(-1.20581e-05 4.86693e-05 2.14559e-05)
(-4.01853e-05 0.000306293 0.000137504)
(-3.43225e-06 1.92383e-05 1.05904e-05)
(-0.00297312 0.0186206 0.00937843)
(-5.77067e-05 0.000373083 0.000248423)
(-3.83816e-05 0.000184692 0.000239595)
(-3.6989e-06 1.26358e-05 1.16289e-05)
(-4.06395e-06 1.76809e-05 1.68037e-05)
(-0.000451413 0.00165139 0.00185641)
(-1.57133e-05 5.11915e-05 4.57324e-05)
(-0.00282676 0.0122705 0.0144716)
(-5.33923e-05 0.000306632 0.000294893)
(-2.39357e-06 6.73783e-06 1.54259e-05)
(-5.97695e-06 2.17895e-05 6.74361e-05)
(-5.21441e-06 1.06083e-05 3.20617e-05)
(-0.000145266 0.0003217 0.00107101)
(-0.000348164 0.00104402 0.00319969)
(-1.79119e-05 8.25095e-05 0.000222186)
(-1.35425e-05 3.06898e-05 8.41467e-05)
(-1.46265e-05 1.21333e-05 4.40349e-05)
(-0.00050221 0.000494221 0.00172195)
(-0.00565867 0.00691516 0.0233692)
(-0.00030996 0.000472344 0.00132054)
(-3.33594e-05 4.01801e-05 0.000101561)
(-1.04125e-05 1.57664e-05 4.02346e-05)
(-8.03658e-06 9.06305e-06 2.24619e-05)
(-0.00115725 0.00265576 0.000285628)
(-1.06807e-05 2.04217e-05 1.18087e-06)
(-4.86453e-05 0.00011889 1.84429e-06)
(-0.000116062 0.000210992 3.31293e-06)
(-2.26915e-05 5.44063e-05 4.50134e-06)
(-4.65308e-05 8.25542e-05 8.32732e-06)
(-0.003315 0.00772273 0.000143977)
(-5.60046e-06 1.30644e-05 2.30808e-05)
(-1.09393e-05 2.41968e-05 4.02371e-05)
(-2.16643e-05 8.17926e-05 0.000149655)
(-9.90448e-05 0.000254358 0.000563479)
(-0.000561004 0.00161464 0.00365721)
(-1.09901e-05 3.32693e-05 7.43054e-05)
(-7.94385e-06 1.53941e-05 3.20922e-05)
(-2.41471e-05 3.61356e-05 2.09788e-05)
(-1.77925e-05 3.06128e-05 2.05404e-05)
(-0.000498704 0.000856993 0.000528015)
(-9.89842e-06 1.61555e-05 8.85727e-06)
(-1.63931e-05 2.94434e-05 1.66941e-05)
(-9.16331e-06 1.60811e-05 9.33945e-06)
(-9.12237e-06 1.49974e-05 8.66677e-06)
(-2.58621e-06 5.10372e-06 1.47202e-05)
(-2.39566e-06 4.20282e-06 1.11792e-05)
(-2.55495e-06 4.40561e-06 1.24056e-05)
(-3.07759e-05 6.22996e-05 0.000227437)
(-7.65796e-06 1.31095e-05 4.65216e-05)
(-3.9158e-06 8.53224e-06 2.52951e-05)
(-3.0185e-06 5.2861e-06 1.38267e-05)
(-7.70752e-05 0.000174695 2.62119e-05)
(-1.05577e-05 2.26286e-05 4.08884e-06)
(-1.00427e-05 2.25945e-05 4.39442e-06)
(-1.07297e-05 2.26542e-05 4.46826e-06)
(-1.08812e-05 2.39514e-05 4.37015e-06)
(-1.2194e-05 2.59339e-05 4.64824e-06)
(-1.29218e-05 2.86471e-05 6.04772e-06)
(-2.05371e-08 4.18005e-08 5.25787e-08)
(-1.76291e-08 3.62937e-08 4.50632e-08)
(-6.57291e-08 1.75099e-07 2.49817e-07)
(-1.78662e-08 3.77392e-08 4.59721e-08)
(-1.73959e-08 3.54562e-08 4.3441e-08)
(-1.75215e-08 3.57516e-08 4.35165e-08)
(-1.7199e-08 3.57321e-08 4.37544e-08)
(-5.75929e-06 1.49332e-05 1.53965e-05)
(-5.32176e-06 1.4114e-05 1.43228e-05)
(-3.11206e-05 8.96451e-05 9.64017e-05)
(-5.84943e-06 1.5416e-05 1.55316e-05)
(-7.04824e-06 1.76964e-05 1.80693e-05)
(-5.65471e-06 1.42022e-05 1.42536e-05)
(-5.56292e-06 1.39636e-05 1.41823e-05)
(-4.42382e-06 1.60826e-05 7.59541e-06)
(-2.88203e-05 0.000111488 5.29891e-05)
(-4.79987e-06 1.71265e-05 7.99235e-06)
(-4.70302e-06 1.60688e-05 7.31878e-06)
(-5.96098e-06 2.02738e-05 9.40488e-06)
(-4.77406e-06 1.61096e-05 7.69826e-06)
(-4.65504e-06 1.59303e-05 7.51355e-06)
(-2.04777e-06 2.32961e-05 3.05462e-05)
(-2.24453e-06 2.38762e-05 3.12066e-05)
(-4.15789e-06 7.19571e-05 0.000100099)
(-2.15452e-06 2.40832e-05 3.06793e-05)
(-2.21652e-06 2.46503e-05 3.15534e-05)
(-2.22013e-06 2.32753e-05 2.99788e-05)
(-2.12436e-06 2.28824e-05 2.94907e-05)
(-1.29999e-06 4.14961e-05 5.29051e-05)
(-1.37777e-06 0.000114993 0.000156342)
(-3.04837e-06 0.000104448 0.000142392)
(-1.32294e-06 4.27235e-05 5.31228e-05)
(-7.90826e-07 4.31324e-05 5.3685e-05)
(-1.18947e-06 4.07569e-05 5.11488e-05)
(-8.19883e-07 4.09545e-05 5.13943e-05)
(-0.000507059 0.00804101 0.00379173)
(-1.79325 17.1508 11.4448)
(-0.000422713 0.00421664 0.00554695)
(-3.04184e-06 5.0982e-05 4.28338e-05)
(-0.000109036 0.00930345 0.0117344)
(0.0508484 29.0828 18.7732)
(-1.03146e-05 0.000414409 0.000251545)
(-1.6805e-06 8.56244e-05 7.0112e-05)
(-44.684 280.532 201.509)
(-1.5438 13.1464 12.3388)
(-32.2481 319.017 229.316)
(-1.35848 17.4664 16.1111)
(-1.61447 22.6498 15.3111)
(-0.0301158 0.546994 0.458865)
(-0.0318207 0.393545 0.329127)
(-0.0047489 0.772624 0.611667)
(-0.226214 24.3607 21.2884)
(1.40209 363.934 255.26)
(-14.4836 350.608 251.171)
(-0.826427 21.5905 19.577)
(-0.681945 27.5671 18.6611)
(-0.0162448 0.692767 0.577581)
(-1.61449e-05 0.000217927 0.000132286)
(-1.21469e-05 0.000314182 0.000192624)
(-0.000410771 0.0116645 0.00561874)
(-0.0287266 0.413204 0.225751)
(-0.0280205 0.579105 0.323899)
(-0.000529031 0.0134121 0.00952576)
(-0.000664037 0.00934462 0.00657897)
(-0.000325333 0.00613799 0.00794207)
(-1.48463e-05 0.00015249 0.000165534)
(-1.20993e-05 0.000218643 0.000236955)
(-0.0235681 0.245811 0.288684)
(-0.0219839 0.346057 0.399413)
(-0.000479366 0.0105779 0.0104546)
(-0.000614237 0.00736801 0.00730356)
(-0.000295754 0.00799033 0.0102621)
(-1.32613e-05 0.000296377 0.000316458)
(-4.79868e-07 0.000335486 0.000353404)
(-0.000127865 0.0155782 0.0147491)
(-0.0066799 0.515368 0.570253)
(-0.0151634 0.444101 0.506185)
(-0.000373358 0.0136629 0.0134216)
(-0.000178391 0.0148451 0.00713588)
(1.21377e-06 0.000445119 0.000257224)
(1.99433e-05 0.0152812 0.00691673)
(0.000779188 0.757403 0.398124)
(-6.61189e-05 0.0187753 0.012622)
(-0.0100244 0.72628 0.406675)
(-0.000324035 0.0171895 0.0121602)
(-1.10047e-06 8.06314e-06 1.58112e-05)
(-3.53828e-07 1.29403e-05 2.70794e-05)
(-8.83308e-06 7.71101e-05 0.000122329)
(1.17154e-06 0.000126905 0.000198251)
(-2.05936 8.7572 16.2029)
(-1.32208e-05 4.63134e-05 0.000140841)
(0.140406 16.7882 28.7281)
(2.83585e-08 1.51456e-05 3.39788e-05)
(-1.75416 12.7122 22.1475)
(-0.118991 0.654152 1.29426)
(-0.109914 0.976298 1.85551)
(-0.0323867 0.142001 0.359711)
(-0.0289426 0.217932 0.530792)
(-0.00175723 0.0163723 0.0366091)
(-0.0018675 0.0105677 0.0245527)
(-0.0109832 1.39361 2.66845)
(-0.000149923 0.0233991 0.0533055)
(0.00134713 0.2947 0.726929)
(-0.968311 15.6266 26.6182)
(-0.0740484 1.24668 2.35467)
(-0.0163953 0.273524 0.663777)
(-0.00120151 0.0210688 0.0470828)
(-0.193567 -0.013921 1.77486)
(-195.168 -37.7488 866.209)
(-0.0859113 0.121151 0.770194)
(-176.86 224.835 775.197)
(125.193 -46.6297 817.637)
(82.0198 211.732 788.374)
(0.16956 -0.0466644 1.44138)
(0.0435416 0.140717 0.981803)
(19.3147 -53.2506 873.146)
(117.501 38.0747 834.225)
(13.5969 39.2497 897.697)
(11.4354 12.425 421.969)
(60.8311 -18.7019 354.337)
(18.4312 -20.5352 407.607)
(57.4948 8.24584 369.578)
(-197.427 51.9908 863.25)
(-93.2177 -44.8177 889.799)
(-99.1508 49.6044 897.087)
(-30.6817 18.3487 426.195)
(-72.5071 -9.96329 402.597)
(-76.057 19.9247 399.332)
(-26.3151 -13.401 421.791)
(-1.49774 226.145 808.013)
(100.236 125.67 834.465)
(5.11164 139.762 875.838)
(5.31206 54.2974 402.609)
(28.2469 74.8589 322.587)
(43.1489 39.0354 365.478)
(0.496704 87.4824 343.779)
(-193.124 142.878 838.264)
(-88.7114 231.51 806.115)
(-96.9925 146.63 873.518)
(-30.8872 59.6759 403.671)
(-59.3802 81.9025 309.266)
(-72.0684 55.9926 371.962)
(-26.8556 89.7353 341.095)
(-2.67218 1.78105 55.7843)
(-6.92534 -0.692864 47.1213)
(-0.197746 0.0446721 1.69837)
(-0.0467681 -0.024592 2.25293)
(-7.17119 1.73397 45.6749)
(-2.12188 -1.13032 55.5117)
(-0.0618773 0.0470722 2.23571)
(1.33393 1.06907 55.3666)
(0.0663991 -0.0492022 2.10078)
(5.80257 -1.64356 37.9596)
(0.164797 0.00799124 1.59746)
(2.21786 -1.96954 52.1829)
(5.74606 0.4658 41.4413)
(0.0368446 0.0252594 2.23398)
(-2.49869 5.86669 47.2219)
(-0.154515 0.121106 1.32211)
(-3.52286 4.97608 24.5595)
(-0.0409736 0.169711 1.04993)
(-5.82316 4.55932 37.5433)
(-1.68063 6.53149 31.0627)
(-0.0610354 0.16256 1.78381)
(0.528039 5.34828 48.0052)
(0.000326636 0.178057 1.12174)
(1.80919 5.22245 28.5948)
(0.105847 0.078292 1.4575)
(3.86821 3.00186 38.9519)
(0.0290189 6.66001 32.3728)
(0.0131844 0.148071 1.84744)
(-320.592 -75.6705 1227.86)
(-579.764 -114.384 1212.57)
(-579.031 644.4 1259.27)
(-275.869 312.547 1130.88)
(176.664 -117.737 1195.91)
(172.315 640.425 1230.39)
(123.779 -70.7714 1214)
(124.973 330.265 1165.73)
(-57.1551 108.006 1526.61)
(-73.0332 -122.999 1183.48)
(173.339 129.325 1209.19)
(152.027 -102.794 1496.14)
(-71.1934 123.566 1193.76)
(-66.1461 -111.903 1502.95)
(153.333 118.579 1508.52)
(-57.1858 321.907 1519.29)
(-73.8274 628.417 1218.49)
(172.748 385.479 1207.07)
(156.929 545.55 1471.01)
(-73.1155 376.13 1205.82)
(156.202 337.111 1497.67)
(-55.2221 524.938 1479.53)
(-278.446 117.619 1530.7)
(-506.219 -103.392 1502.53)
(-578.688 142.947 1210.42)
(-323.881 -115.409 1205.11)
(-494.573 118.764 1502.17)
(-322.719 137.372 1213.08)
(-288.551 -105.665 1520.26)
(-277.752 330.916 1510.71)
(-587.159 400.058 1229.44)
(-479.699 529.989 1450.57)
(-329.55 644.138 1236.08)
(-492.506 328.229 1488.37)
(-331.108 394.747 1212.82)
(-268.535 533.585 1474.01)
(-49.6101 97.0697 1479.94)
(-30.3039 -86.3473 1248.13)
(131.477 -91.1344 1433.75)
(128.321 87.6211 1224.94)
(-61.7505 -105.378 1454.16)
(139.43 113.966 1446.12)
(-23.1414 72.3739 1275.36)
(-250.913 103.403 1478.09)
(-451.07 -98.6361 1434.59)
(-311.075 75.3633 1222.81)
(-191.808 -81.8631 1262.08)
(-436.443 100.978 1429.2)
(-263.649 -100.364 1470.05)
(-185.173 78.1224 1268.18)
(-49.1477 284.016 1460.58)
(-20.4934 320.764 1176.96)
(149.041 471.772 1367.78)
(128.349 221.976 1215.74)
(144.925 305.053 1428.11)
(-46.1881 447.782 1382.04)
(-23.4651 214.214 1250.8)
(-245.836 286.143 1444.36)
(-298.51 202.351 1198.07)
(-398.783 426.499 1316)
(-154.216 321.766 1169.49)
(-426.023 275.675 1394.73)
(-230.528 446.603 1366.33)
(-172.751 212.392 1237.68)
(-8.91779e-06 5.67935e-05 9.08098e-05)
(-0.000228249 0.00183733 0.00308115)
(-0.000175159 0.00273827 0.00446883)
(-0.00535579 0.0380802 0.0724577)
(-0.00504618 0.0569143 0.104525)
(-7.02858e-05 0.000989834 0.00195468)
(-0.000105707 0.000644928 0.00132098)
(-1.07824e-05 0.000115806 0.000178743)
(-5.47183e-05 0.00416943 0.00677017)
(-0.000171379 0.00359527 0.0058214)
(-0.00131943 0.0845685 0.15687)
(-1.2224e-05 0.00148375 0.00296419)
(-0.00381982 0.0737829 0.134951)
(-8.18349e-05 0.00130751 0.00257117)
(-5.63081e-06 8.96057e-05 0.000262314)
(-1.58902e-06 1.63297e-05 3.71412e-05)
(-7.34207e-07 9.61758e-05 0.000287671)
(-2.3203e-06 0.000408094 0.00100919)
(1.4636e-05 0.00506617 0.0144415)
(-0.000276368 0.00471296 0.0131452)
(-2.37631e-05 0.000369053 0.000893231)
(-3.26531e-06 1.42593e-05 3.04177e-05)
(-9.76489e-07 1.62953e-05 3.53261e-05)
(-7.11085e-06 7.14455e-05 0.000210225)
(-0.000527593 0.00232897 0.00666106)
(-0.000485889 0.00370433 0.0102836)
(-2.38548e-05 0.000284798 0.000690135)
(-3.8765e-05 0.000181995 0.000453258)
(-1566.03 -713.751 119.18)
(-819.854 -1253.06 926.252)
(-2008.19 -80.7318 129.582)
(-813.139 -113.832 916.291)
(-1992.53 653.518 126.801)
(-824.721 877.394 132.551)
(-746.143 -230.91 517.941)
(-332.142 -449.721 908.882)
(-1014.83 -56.3915 678.053)
(-420.995 -66.6033 1160.46)
(-936.54 314.242 692.464)
(-771.322 842.592 1285.24)
(-0.00106553 -0.000180757 0.00167456)
(-0.00927478 -0.00713026 0.0654809)
(-0.0268763 -0.000332409 0.0415872)
(-0.175808 -0.00536129 0.983604)
(-0.00516771 0.00119986 0.0103587)
(-0.0228482 0.0276391 0.149304)
(-0.0319522 0.0613472 0.304003)
(-814.346 -365.483 904.337)
(-830.354 -1183.43 122.752)
(-824.361 -358.703 132.471)
(-1610.23 -1252.44 118.173)
(-1546.03 -370.765 130.482)
(-1333.35 -1071.5 625.959)
(-1648 -347.744 958.542)
(-741.64 -175.602 75.2905)
(-820.211 624.99 132.988)
(-829.937 638.622 915.941)
(-1534.18 -130.172 134.763)
(-1557.17 627.49 121.889)
(-1650.14 -104.344 977.91)
(-1612.54 600.542 912.544)
(-836.191 895.187 929.562)
(-844.849 1608.3 120.363)
(-713.934 1510 696.187)
(-1544.34 888.512 122.111)
(-1649.42 1750.9 111.509)
(-1560.54 818.942 804.762)
(-1039.1 1051.42 463.604)
(-1058.38 -606.934 425.558)
(-817.005 -362.683 416.035)
(-818.538 -604.315 133.4)
(-1070.05 -364.383 131.867)
(-1065.03 -360.03 419.76)
(-814.771 -612.468 425.157)
(-1067.13 -607.472 132.942)
(-1073.01 123.455 424.735)
(-813.603 -115.672 425.424)
(-743.024 178.644 73.6158)
(-1060.4 -125.435 138.266)
(-1058.26 -116.671 432.393)
(-826.48 128.516 417.022)
(-1069.51 112.939 134.845)
(-1076.32 374.248 425.525)
(-828.342 373.519 134.076)
(-823.256 633.228 427.226)
(-1074.24 623.904 130.678)
(-1072.79 624.868 424.409)
(-826.915 382.487 424.746)
(-1077.5 369.189 132.343)
(-885.047 -35.2105 232.516)
(-722.685 -177.452 207.756)
(-763.158 -70.9425 77.7079)
(-886.194 -202.874 48.6621)
(-866.683 -200.971 239.075)
(-743.56 -67.8874 205.635)
(-893.115 -49.4458 56.5429)
(-893.981 30.8683 225.6)
(-767.917 65.1274 73.5489)
(-731.267 182.295 207.495)
(-889.866 201.302 46.6606)
(-878.741 204.919 238.088)
(-755.817 65.1922 199.328)
(-900.167 34.2505 53.0291)
(-1062.55 136.574 678.457)
(-811.77 -112.663 699.832)
(-816.786 141.775 905.894)
(-1067.06 -112.533 916.436)
(-1053 -112.388 690.319)
(-1072.85 143.614 905.811)
(-821.503 139.635 688.883)
(-830.719 -111.646 1232.06)
(-812.38 624.101 1290.19)
(-377.615 303.272 1048.48)
(-1472.9 -104.665 1054.45)
(-1355.98 501.435 840.886)
(-594.533 -25.5189 782.787)
(-514.318 211.243 701.932)
(-424.319 -196.687 1165.28)
(-739.773 -1147.66 1136.72)
(-831.28 -371.188 1225.11)
(-1044.42 -848.115 705.561)
(-1464.53 -320.814 1033.68)
(-421.462 -204.839 577.587)
(-599.939 -119.19 785.625)
(-1037.16 -609.409 669.876)
(-815.826 -611.784 901.959)
(-817.363 -366.108 687.029)
(-1065.12 -370.356 903.252)
(-1053.33 -360.07 675.249)
(-1073.89 -621.66 912.492)
(-807.761 -615.595 694.444)
(-1826.62 -132.795 134.043)
(-2057.03 496.546 121.673)
(-1849.39 660.935 120.848)
(-1365.68 -81.3134 654.645)
(-1765.64 -97.4479 809.744)
(-1386.99 310.335 672.15)
(-1687.78 534.704 675.708)
(-1064.76 385.774 677.426)
(-824.673 390.948 913.217)
(-823.454 638.678 695.168)
(-1092.43 652.962 928.914)
(-1060.68 630.539 667.062)
(-1083.25 397.914 911.641)
(-826.478 393.957 695.948)
(-1310.54 122.889 418.756)
(-1301.96 -131.692 136.086)
(-1546.8 119.752 126.109)
(-1531.54 -116.113 424.741)
(-1294.48 -116.7 429.58)
(-1543.85 134.947 403.605)
(-1313.6 111.206 131.511)
(-1813.36 -1151.18 117.234)
(-1922.95 -258.307 124.176)
(-1850.54 -384.404 130.108)
(-1118.53 -412.466 619.725)
(-1272.87 -882.838 518.047)
(-1355.07 -209.019 645.806)
(-1746.54 -312.707 785.277)
(-1050.57 1104.55 404.721)
(-820.722 883.183 430.263)
(-819.109 1128.43 128.239)
(-1075 875.807 128.401)
(-1064.87 871.727 425.88)
(-807.025 1123.59 423.222)
(-1063.98 1121.46 122.675)
(-1056.15 -828.925 400.639)
(-817.414 -1173.32 397.796)
(-828.038 -836.511 126.463)
(-1070.59 -1173.45 120.45)
(-815.912 -842.159 406.95)
(-1070.38 -832.972 123.815)
(-1056.38 -1167.24 388.231)
(-1277.75 -606.899 416.988)
(-1311.23 -365.295 130.707)
(-1533.15 -618.931 131.107)
(-1538.04 -370.635 415.812)
(-1528.03 -632.012 418.088)
(-1298.84 -357.251 416.893)
(-1299.42 -604.815 130.624)
(-1314.23 370.485 415.579)
(-1322.05 615.358 125.596)
(-1558.74 370.837 123.492)
(-1547.12 653.525 394.638)
(-1548.52 391.452 399.116)
(-1308.56 621.682 412.003)
(-1324.2 362.684 128.478)
(-714.861 -101.52 1463.03)
(-828.521 141.887 1231.27)
(-1068.93 -107.321 1285.21)
(-1065.51 136.14 1280.91)
(-702.44 114.546 1454.86)
(-931.759 112.804 1365.17)
(-942.105 -103.635 1384.6)
(-1295.01 142.517 654.299)
(-1358 -109.595 972.071)
(-1590.34 -111.63 697.806)
(-1650.61 135.836 950.418)
(-1285.3 -111.442 673.033)