/*--------------------------------*- C++ -*----------------------------------*\
  =========                 |
  \\      /  F ield         | OpenFOAM: The Open Source CFD Toolbox
   \\    /   O peration     | Website:  https://openfoam.org
    \\  /    A nd           | Version:  9
     \\/     M anipulation  |
\*---------------------------------------------------------------------------*/
FoamFile
{
    format      ascii;
    class       volScalarField;
    location    "0.0026";
    object      rhoE;
}
// * * * * * * * * * * * * * * * * * * * * * * * * * * * * * * * * * * * * * //

dimensions      [1 -1 -2 0 0 0 0];

internalField   nonuniform List<scalar> 
21629
(
330033
340726
329286
291806
288445
341569
322329
314717
347123
748175
909142
363334
888970
1.04089e+06
813399
864894
1.1194e+06
1.31587e+06
940397
1.04938e+06
1.26094e+06
571007
999784
813223
480314
396111
947034
945468
837731
925000
895502
1.00156e+06
866364
1.01504e+06
975111
1.20147e+06
956263
1.08676e+06
907662
1.10429e+06
1.34384e+06
1.34196e+06
1.01432e+06
1.19319e+06
1.21226e+06
1.50019e+06
1.084e+06
1.48464e+06
1.26595e+06
1.61251e+06
1.26496e+06
1.6229e+06
1.1659e+06
1.61113e+06
1.45129e+06
1.42539e+06
1.34658e+06
1.0671e+06
1.62509e+06
1.02184e+06
1.32695e+06
1.00615e+06
775293
448547
689397
631806
1.10814e+06
513131
481702
747718
517821
367995
386430
462377
465823
376954
384055
432143
447863
129592
461265
135674
613811
174025
957878
337145
541094
878859
118684
465006
453317
123285
478653
409883
134070
412216
125927
571052
507659
154250
574462
409167
158140
430147
174190
631936
808960
294211
717412
518131
272923
711066
1.08828e+06
1.37805e+06
364687
920958
1.22753e+06
541057
841282
920164
538089
736894
238635
204779
171618
132318
208931
175753
233043
260039
216143
182329
139721
250160
223591
186911
362597
278092
221606
196191
319170
311716
250010
720397
515332
468675
414815
642568
613757
549706
1.0349e+06
583514
675773
689694
816804
799767
704527
607377
810882
382935
340578
201987
120715
343020
205088
379866
384739
121872
345484
208457
344042
206938
386569
241261
133050
212649
180061
210594
177491
245236
394188
347453
211500
130661
388115
354508
218372
408738
139961
396826
251397
370200
231393
432794
273946
147068
253771
203979
236064
193631
292217
511107
434968
280023
202004
465864
486632
319442
575503
240105
657627
449720
558380
374217
665615
426218
227351
425954
368822
359063
296170
519786
1.28054e+06
1.08786e+06
982163
1.32697e+06
1.00117e+06
1.36711e+06
1.22655e+06
1.20921e+06
942549
939205
1.179e+06
1.45554e+06
1.4229e+06
1.5103e+06
1.29877e+06
1.51441e+06
1.34042e+06
1.46584e+06
1.38986e+06
1.26396e+06
1.29393e+06
1.416e+06
905691
785151
541186
446370
780381
949003
631283
960487
502402
993086
740583
1.01714e+06
695033
922648
731731
485843
726036
591625
689223
590090
682137
1.01029e+06
599751
771272
1.13822e+06
804719
974804
870116
911133
392710
891767
788211
675871
871218
270346
843345
692827
908050
810252
803898
812944
829984
253249
813667
385326
682447
691627
691477
766831
830019
1.15971e+06
1.2348e+06
1.31592e+06
1.31663e+06
1.20465e+06
814750
385854
690887
1.00878e+06
499558
446646
794276
767461
741765
688934
773372
749274
785354
812255
691482
803584
762866
785666
757051
838613
907266
822298
770007
700238
867372
850468
787735
962859
724138
951585
871458
891583
820549
1.03918e+06
1.25383e+06
1.03596e+06
938917
915377
1.13759e+06
1.14452e+06
1.01802e+06
1.37733e+06
1.02363e+06
1.39769e+06
1.20764e+06
1.26893e+06
1.10565e+06
1.49337e+06
1.49634e+06
1.49199e+06
1.32756e+06
1.38438e+06
1.55877e+06
1.47569e+06
1.37473e+06
1.27458e+06
1.36588e+06
1.0025e+06
1.00299e+06
1.31471e+06
1.31023e+06
812790
1.3987e+06
1.4024e+06
1.19866e+06
1.39958e+06
1.30444e+06
1.45377e+06
1.40066e+06
1.36975e+06
1.42526e+06
1.13781e+06
1.41079e+06
1.37031e+06
1.47274e+06
1.20506e+06
373611
606171
580154
506403
437832
422498
433924
775188
1.16175e+06
623663
899950
501043
589220
760454
514264
970326
983410
763395
485705
537225
501415
295301
276331
348224
260756
529311
253554
388601
253266
664511
257517
253245
253245
266213
379069
288604
385201
284768
390587
300741
379567
300119
416936
402996
552191
312048
348424
483120
637524
657867
874259
596196
666210
311354
320423
547768
303269
806139
339994
422888
457092
574996
325726
433496
450760
589229
484772
425518
618288
477744
670093
475331
607384
757827
398895
279693
498102
501378
278573
254928
268536
255332
253322
260121
254204
253459
253249
491292
290099
258792
411147
255187
270351
226097
286124
272352
231114
292542
264207
274761
278190
240486
309891
234337
298447
283080
357616
314341
372818
287030
314487
375341
358148
356648
292112
316581
387905
315501
380322
354374
309659
248344
324583
318310
294299
258968
347571
329697
350173
290588
440092
271219
383267
358014
340004
316362
396754
324831
349263
313989
404557
471209
323452
527155
578573
401145
380486
631083
579911
647310
579980
715968
472867
702927
691985
704781
634807
654884
482309
735868
616563
520776
606562
375250
469951
302494
543447
380270
487629
700170
536156
572718
730435
562395
743387
674089
527491
452970
323799
294404
475535
474460
319564
319896
382043
301109
326974
388300
409863
401652
381927
437937
382342
423547
463228
510511
475414
607149
518512
563815
645314
486464
571765
595397
430776
271887
303261
310883
259038
259710
277685
760623
629133
762871
637017
647216
577243
758934
253315
253289
253249
253434
253253
253248
253246
390315
255250
255346
253249
309737
355130
417117
336617
399714
423505
446601
427419
545422
513688
480545
489902
547574
580681
562706
579442
316365
646453
406855
483637
349990
270180
259102
254033
269987
255244
255186
253906
448069
274569
274571
405885
412170
333940
262040
442998
253599
253667
269913
412832
253492
253523
339992
253341
253339
255297
255338
253268
253263
253468
253250
253249
253273
253260
253247
253247
253249
253246
253245
253247
253246
253245
253245
253247
253246
253245
253245
253393
816928
540965
802251
261227
792236
893891
535418
301853
716426
269837
955471
743388
476116
502241
565489
742129
577353
257045
253245
254101
305629
253751
758132
629195
285451
585915
754489
639227
267101
723455
645641
260208
786358
574749
577872
254260
309624
263065
253321
358263
253641
253772
253249
253261
253267
253248
253452
253251
253250
253246
253249
302259
257653
253299
253282
253400
253251
253269
253248
253246
253245
253245
253245
253245
253245
253245
253245
253245
253245
253245
253245
253245
253245
253245
253245
253245
253730
253376
253256
253245
253264
253245
253245
253245
253245
253245
1.09409e+06
1.28346e+06
1.08855e+06
1.49075e+06
1.23519e+06
1.36736e+06
1.6828e+06
1.39515e+06
1.60684e+06
253245
253245
253245
253245
253245
253245
253245
253245
253245
253245
253245
253247
253245
253245
253245
253245
480315
272843
271278
827866
996284
335926
996784
556594
253909
253327
253245
518684
525606
606684
630516
720248
1.01227e+06
1.49941e+06
699714
285641
253600
481341
638084
360569
385239
498086
414010
528595
572142
482185
513800
589264
442020
502608
757548
553439
436520
444913
431819
449633
433979
450649
436734
420724
420033
420702
423281
448947
468725
500180
480094
468073
451921
474649
431079
459919
436128
452362
578856
549433
523535
626742
516161
621156
587965
546264
498183
488760
557488
420072
438501
555476
1.09767e+06
1.23861e+06
488139
433366
493813
495653
503382
556531
604725
884639
895398
1.70928e+06
404637
426008
407944
424078
430112
411259
400922
432702
444068
428349
447567
423466
453639
435560
595394
563793
527239
629647
529497
638503
592432
1.33121e+06
1.10208e+06
1.03223e+06
1.4149e+06
1.02884e+06
1.4092e+06
1.33625e+06
1.28555e+06
934715
393441
440051
416182
492439
444028
420044
388572
394720
402756
407135
390302
376040
393988
398315
371586
409995
428601
439069
422560
434601
416075
416985
399272
493862
449348
427485
446798
422308
405961
399570
416181
411493
405423
381787
410236
404251
388942
424267
453062
431405
503534
413481
461905
438865
417609
418266
409814
423740
404994
415283
394972
424841
451689
468051
510792
482665
474569
452703
483551
445023
523032
516515
489661
482024
457786
478780
433951
463591
438535
460931
422551
472966
443428
450719
591221
567659
535272
670983
525840
640450
598448
561024
502734
501004
563046
550366
515161
491451
574143
691270
735391
891657
828276
743747
688331
829600
683597
763376
884644
809684
742259
686206
814687
650806
788321
653433
783588
636116
778245
657646
760924
1.27041e+06
989357
978786
1.28169e+06
1.5791e+06
1.66197e+06
1.6439e+06
1.73126e+06
1.61459e+06
1.62843e+06
1.64261e+06
1.5242e+06
1.7286e+06
1.57398e+06
1.6116e+06
1.00187e+06
1.45834e+06
743582
665350
1.32758e+06
888629
1.13259e+06
631714
626222
634627
693823
839421
457188
516479
524018
596789
763969
976609
1.19171e+06
1.26904e+06
635839
692219
611055
650880
612520
610212
680942
738689
1.05546e+06
695334
911643
921846
688695
699907
954311
932783
706452
738069
974899
715355
1.01043e+06
780683
1.0654e+06
1.51565e+06
634472
744900
534252
616527
751694
538467
629824
635021
616393
754059
532729
754685
537215
632312
639453
751003
530482
618351
630074
762257
538589
667698
641461
850022
603294
794395
562158
719005
885596
928328
664092
817257
792003
1.02556e+06
746679
1.0026e+06
919316
1.27777e+06
1.00217e+06
1.14544e+06
855556
1.14655e+06
265355
253247
253247
253245
253245
424344
256276
284700
254115
253268
253269
253246
253245
253245
253245
253246
253245
253245
418636
453986
193677
366430
316640
255428
253382
253247
253245
439156
457939
214545
458732
307709
253918
253249
253246
253245
576044
551030
268490
740499
275852
253269
253245
253245
253245
1.21026e+06
1.07403e+06
693607
643830
254193
253247
253246
253245
253245
1.00294e+06
1.30913e+06
1.15469e+06
814217
253254
259579
253245
253245
281172
939835
253255
429167
253245
253246
528381
457942
527931
504817
463197
193408
427740
466506
194520
425381
458073
437513
265371
202903
281215
330066
629990
384650
391975
340219
639952
356502
257259
286577
255081
311671
255936
274902
253724
519971
555263
466457
194664
458698
511078
200122
504842
307960
231690
356571
345918
666427
337378
582276
348598
610544
274894
255271
269019
253466
285088
253746
256464
253276
676969
907134
1.04986e+06
553693
399502
772682
858827
522016
860587
881858
453709
361824
716983
339559
411424
263206
833600
277934
265428
253566
253493
254677
253253
256192
253257
253289
253251
1.39344e+06
1.24003e+06
1.22626e+06
1.27984e+06
1.06928e+06
792578
1.58761e+06
1.70105e+06
1.16522e+06
1.09829e+06
1.7666e+06
1.76579e+06
1.12603e+06
1.20682e+06
396895
263059
253586
253320
254283
253607
253252
253248
253249
253255
253246
253696
254204
253252
253250
837335
304947
299940
356167
1.04565e+06
253337
256085
674957
323125
356566
1.14421e+06
1.01585e+06
258419
394271
535120
690398
563950
738345
715686
397207
1.49292e+06
253250
271258
253248
427905
433210
312344
513467
298892
549754
325434
522256
315577
443797
487562
343252
588233
346847
603917
371622
627857
404509
596291
839959
522177
957583
520581
992883
761277
1.26908e+06
809717
1.32588e+06
1.55432e+06
1.32218e+06
831447
1.26078e+06
990879
1.41207e+06
253925
340825
425605
443079
425382
456210
445429
428635
422417
198747
162692
166132
136024
96888.4
99270.1
132928
275811
276906
340798
315571
275884
338893
277115
434659
448557
436797
461235
434147
452219
436834
177186
221742
180012
148680
105862
145318
106392
263486
268495
322364
301711
267028
265006
311405
563556
544509
500710
618795
504365
614325
556455
304158
212492
243781
188162
119325
168943
135950
254455
256690
271723
266990
255740
255079
263075
1.29578e+06
1.08083e+06
967431
1.39889e+06
993143
1.40677e+06
1.26091e+06
889388
505661
618033
595104
300367
398250
427116
253255
253329
253666
253471
253284
253267
253337
684849
995361
1.37986e+06
1.17143e+06
933734
835615
1.267e+06
1.30777e+06
946870
1.42014e+06
826060
736455
1.32681e+06
1.04858e+06
1.00724e+06
784704
777361
1.19938e+06
760855
1.16088e+06
1.01716e+06
253246
253247
253590
257383
253249
253460
253247
263992
253249
253338
253641
254504
253247
253248
433436
477173
423272
464886
479307
425920
431405
193997
329200
332005
338029
140209
140190
336904
412668
408413
410379
409838
435052
466089
482026
432585
480864
428674
437743
335604
194682
339492
338831
138666
139817
339065
414963
409096
410405
419767
422282
433890
413472
428777
436505
416695
419197
420375
412119
414209
418364
418111
408330
412175
415533
429345
457781
447936
435762
447237
432095
432829
425809
433023
442121
426764
439458
421026
430373
420274
415990
414641
422244
420330
420027
416177
423033
274506
239471
247573
199636
227703
235917
192948
169858
208507
173955
138577
104357
101717
141928
253003
293248
261467
203485
251851
241690
209485
389641
271036
406963
331651
274425
408162
384512
400034
335311
290046
413678
280592
410962
415851
257187
258115
256641
257003
257824
256412
257451
273580
314120
271710
330477
274193
335743
270555
256709
256542
256633
255426
257310
255984
256094
444477
483598
435052
470085
439763
489772
438366
341392
195714
343766
340497
137603
339062
137574
424548
406176
422323
405893
456006
484104
534662
470197
506255
449162
478026
352237
369728
209884
347106
145000
139803
361233
433444
425808
411911
452225
416018
413992
419168
413045
444004
475623
497315
465011
467503
444913
466409
422671
433162
419152
439485
270838
328511
283465
221690
262794
214954
277467
184625
246365
194239
152802
110869
107333
158769
395536
300722
324861
230297
326602
297522
242511
456339
303417
414309
350526
434963
321511
411192
477458
352201
373512
384522
345044
401774
495950
254787
255885
254833
254646
255425
255175
254297
260313
293921
258913
283960
261729
298373
257692
254244
254128
254055
253578
254552
253873
253830
564622
578590
502992
619078
512426
644528
552649
448077
227108
255759
418271
154147
383551
170013
528886
450187
482060
492954
645211
717158
882157
753422
742040
630708
767958
631691
303536
380342
474641
243033
197372
566454
600769
672046
562461
712198
523723
457791
470829
504316
653730
717388
863744
772204
716090
642165
789480
672469
731988
873903
823877
724728
683357
811522
607686
702149
581272
736944
634589
782612
647521
768005
550494
360035
414294
297227
373704
262330
459608
296385
380051
456218
223148
219301
166771
284761
939249
501770
653079
361297
817384
614622
482234
488773
400616
355891
322372
503535
423004
320739
436474
299060
403074
267295
427830
288624
357477
253378
253690
253398
253351
253547
253458
253305
253727
260168
253545
254790
254072
257630
253399
253295
253282
253272
253251
253328
253266
253260
1.21786e+06
1.08627e+06
936935
1.38835e+06
947087
1.38472e+06
1.21647e+06
1.02168e+06
681466
499384
924437
317153
710306
436330
1.13446e+06
843124
880595
1.10648e+06
1.54726e+06
1.66368e+06
1.64713e+06
1.75168e+06
1.62469e+06
1.5564e+06
1.71255e+06
1.47164e+06
1.27662e+06
916177
1.18568e+06
798358
608642
1.4364e+06
1.43237e+06
1.7611e+06
1.43057e+06
1.7178e+06
1.32224e+06
1.09148e+06
1.03117e+06
1.42065e+06
1.01839e+06
1.41536e+06
1.33601e+06
1.22515e+06
889866
935474
1.17037e+06
1.26099e+06
985846
970099
1.27798e+06
1.65052e+06
1.70827e+06
1.79196e+06
1.82996e+06
1.71804e+06
1.61626e+06
1.85647e+06
1.66831e+06
1.7022e+06
1.7938e+06
1.81111e+06
1.7179e+06
1.66337e+06
1.85024e+06
1.56437e+06
1.85564e+06
1.50979e+06
1.89172e+06
1.59177e+06
1.82949e+06
1.59671e+06
1.88197e+06
1.03408e+06
1.07373e+06
910110
901415
943963
692400
902833
959639
1.20933e+06
1.14848e+06
823632
829824
611727
961836
864589
1.12893e+06
754327
942106
385255
662718
755684
261875
347189
257434
255901
290356
285866
254193
254795
253784
254459
253346
259576
253425
253546
253248
253252
253247
253251
253249
253251
253248
253262
253318
253866
253366
253292
253271
253418
253267
253320
254052
253547
253306
253274
253485
910195
873415
779753
1.19232e+06
786241
1.18762e+06
977447
465682
528917
282153
291965
476567
563614
274243
953450
737499
659728
986395
718380
1.08687e+06
874969
670739
574830
340713
312868
592857
636814
331736
670577
559967
351902
355553
584385
646611
345959
266441
256885
253246
260388
253255
253245
254407
253245
253245
253269
253246
253245
609837
264736
253246
442836
253247
268424
262407
265068
259385
255376
348279
261199
294350
354879
253267
310587
253317
298079
253250
261787
271296
253252
254039
254297
254425
253251
253309
354119
930301
374700
301673
291775
265605
265621
290630
264768
303584
277273
282281
259479
258444
285798
277223
257604
255822
260751
254031
253789
258811
257276
253577
253284
253464
253257
253259
253356
253328
253252
735293
560813
603766
877039
566476
792868
794926
259024
253350
253307
254502
254133
253249
253251
298239
264230
286279
261461
288969
263315
293032
269640
256738
265632
254829
271550
256024
263420
325461
336480
301378
403717
309711
408702
306625
271076
289182
382513
349958
287120
277106
344008
254243
253459
253918
253283
255051
253364
253580
260812
330852
258914
271576
266361
300490
255955
253540
255266
259230
259336
254128
253930
255196
253287
253333
254182
253582
253345
253279
253553
253366
255438
254041
253623
253545
253946
253510
569638
529527
341499
356507
498755
610563
342782
1.53583e+06
948985
1.3182e+06
1.52657e+06
1.32519e+06
1.44842e+06
1.46989e+06
1.61264e+06
930845
1.3322e+06
1.63773e+06
1.30105e+06
1.53996e+06
1.53034e+06
1.1318e+06
1.56209e+06
827333
890687
1.61863e+06
1.23379e+06
1.5006e+06
376318
292547
301345
355505
258395
265040
347465
254821
403662
385760
296906
253344
279533
253295
253254
253252
253340
261054
253271
257765
253263
513262
347077
378382
477461
304137
430684
329840
297608
253415
360792
271375
253277
256251
253251
253284
253246
253257
256310
253256
253728
253251
809797
602662
739541
691623
516012
646004
627070
254499
253247
254194
254513
253249
253279
253247
253246
253245
253248
253440
253246
253251
253245
309284
517264
902703
288702
737644
411103
532206
253245
253246
253270
253253
253245
253246
253245
253245
253245
253245
253246
253245
253245
253245
1.32804e+06
665139
1.01658e+06
852361
1.11954e+06
959046
1.23372e+06
261736
253789
258395
254014
260383
253861
253668
253819
883435
325537
1.09278e+06
955096
617657
255162
950651
371319
887513
1.10578e+06
1.06065e+06
743391
257099
253247
254315
253248
551150
253564
253256
253248
255349
275237
253249
681059
253855
253341
253247
309835
419590
326001
370302
286441
272874
395210
659426
425216
496424
530751
428264
368667
586739
754448
875158
947401
687104
790935
736954
593479
265826
347279
260979
259211
264844
324663
254231
257482
276426
491699
378926
284758
529009
263675
701974
415345
443337
586438
895333
602879
893709
692138
517492
659485
678021
847860
849772
647122
259477
843796
935722
1.1688e+06
326395
1.12512e+06
256163
253848
253351
612985
364254
253295
253314
253246
253267
420979
267081
270048
253293
253294
253250
253245
253246
253350
253252
253245
253246
253245
1.42184e+06
1.50263e+06
1.17464e+06
1.48847e+06
1.39249e+06
1.43076e+06
1.38341e+06
253406
255229
255998
253474
254081
253310
253272
255861
253594
256519
253474
255010
253383
253504
254291
254476
265252
263723
254259
262368
254085
253257
253255
255931
262712
253405
260126
253357
254466
253249
253575
256316
253290
254067
253258
253248
253246
253252
253373
253250
253259
253246
253245
253245
253246
253251
253245
253247
253245
254403
254590
265888
264350
254454
263347
254284
255808
255972
253558
261715
253877
257767
254170
260698
254015
253709
253246
656941
650611
897966
858479
546238
900720
679306
556700
516857
684267
574441
520074
648210
715968
639148
519311
862340
754226
590152
751458
930657
995275
648381
898639
1.31349e+06
1.00185e+06
994875
1.04798e+06
677211
1.48848e+06
1.21747e+06
1.1006e+06
1.47738e+06
1.04917e+06
627504
884066
592237
612997
607997
623060
695428
836888
668312
757469
1.12648e+06
1.48636e+06
883503
1.07464e+06
1.6153e+06
1.07584e+06
1.41075e+06
1.15926e+06
666735
644696
652549
683397
619842
624990
671803
566342
564222
578679
553487
536284
545125
542748
681240
651145
647661
686167
621628
623841
689406
587443
608991
584043
561435
560805
552659
577419
690263
667018
647558
724348
624485
697466
645030
685379
597993
624323
640650
570425
601304
587980
771761
794477
714281
779425
763345
689596
865478
856810
668961
733902
698095
677114
623360
781582
986858
955113
881512
1.08575e+06
858677
972130
961728
1.15615e+06
819531
924660
1.0119e+06
749831
889486
842341
935496
895088
963921
1.18012e+06
1.13783e+06
1.06305e+06
1.2256e+06
1.43489e+06
1.04858e+06
1.19468e+06
1.13691e+06
1.09984e+06
958115
1.2576e+06
800481
671686
778003
1.04915e+06
1.14607e+06
1.19312e+06
1.0502e+06
1.39907e+06
1.35643e+06
1.45524e+06
1.33121e+06
1.26986e+06
1.34929e+06
1.45263e+06
728883
1.40557e+06
1.19124e+06
1.1023e+06
1.2943e+06
1.469e+06
771377
603551
607305
621713
633459
659200
626631
752512
648206
683362
958293
738778
819849
1.31717e+06
918079
1.02335e+06
1.59898e+06
1.13936e+06
1.27724e+06
1.46001e+06
1.42181e+06
1.45129e+06
619532
1.34497e+06
1.02499e+06
516353
680256
579704
601017
570394
537992
519916
574187
541385
592179
606726
521422
573774
546062
575297
543825
610204
641797
575731
550949
527172
617795
592125
564890
688378
550337
685617
639792
628076
594361
757539
935834
764320
702197
730605
842116
864156
784459
1.03874e+06
844229
1.12515e+06
1.0376e+06
985175
892999
1.15962e+06
1.30783e+06
1.26613e+06
1.23804e+06
1.45838e+06
1.27537e+06
1.33917e+06
1.45784e+06
1.20357e+06
1.55017e+06
1.02876e+06
1.40993e+06
1.27161e+06
1.51989e+06
630740
1.28927e+06
253245
253245
253245
253245
253245
253245
253245
253245
253246
253245
253245
253245
253245
253245
253245
253245
253246
253245
253269
253245
253245
253246
253436
253246
253245
253293
253246
253245
253245
253246
253245
253246
253245
253246
253245
253247
253273
253247
253245
253258
253246
253245
253245
253245
253245
253245
253245
253245
253245
253245
253245
253245
253245
253245
253245
253245
253245
253245
253245
253245
253245
253245
253245
253245
253245
253245
253245
253245
253245
253245
253245
253245
253245
253245
253245
253245
253245
253245
253245
253245
253245
253245
253245
253245
253245
253245
253245
253245
253245
253245
253245
253245
253245
253245
253245
253245
253245
253245
253245
253245
253245
253245
253245
253245
253245
747436
469948
994822
559509
582355
493628
536459
1.17688e+06
610887
565302
820483
635492
339606
380454
503544
333719
458898
489149
375686
599739
592726
613161
847016
672187
849378
720192
510983
504917
617813
603806
874321
410876
1.01474e+06
788335
1.04162e+06
949027
879721
940244
501263
485661
497356
523433
549001
545176
516975
559481
840927
656178
554267
967324
572371
698382
576950
714529
1.08839e+06
788206
671259
578111
749259
526676
886506
877767
585413
705137
665823
662516
411139
503073
595861
961838
711274
729022
765690
809541
1.20295e+06
1.4329e+06
1.10858e+06
1.57681e+06
720707
918886
931247
946955
745842
973345
1.00253e+06
1.05e+06
801823
937693
1.11526e+06
857341
1.14476e+06
847255
1.15275e+06
1.31204e+06
1.0392e+06
1.04751e+06
1.24773e+06
936198
1.37593e+06
1.28974e+06
1.53638e+06
1.25227e+06
1.17811e+06
1.63082e+06
1.31134e+06
630289
663664
671330
577719
581287
619615
614179
664954
602333
734195
652535
706734
588243
633686
641038
678364
692140
583160
585083
627419
622691
636145
623607
619077
555157
557970
565312
567652
737693
694520
635124
784235
690604
754239
862756
658961
702893
589597
738845
665172
735864
724533
673438
742611
791529
253247
253246
253245
253245
663606
642142
653468
649905
677625
683708
664738
705889
817201
712025
748199
754127
919739
904317
815398
1.05912e+06
1.46991e+06
1.01053e+06
1.24806e+06
1.121e+06
1.67155e+06
1.39951e+06
1.2472e+06
1.77555e+06
1.36605e+06
1.49417e+06
1.68847e+06
1.42172e+06
862920
840867
1.17886e+06
581640
253245
253245
253245
253245
253245
253245
253245
253245
253245
253245
253245
253245
253245
253245
253245
253245
253245
721326
604327
761804
253255
253246
253247
253245
253245
253245
253245
253245
253245
253245
253245
253245
253245
253245
253245
253245
628661
635967
633696
558970
567177
558293
563693
653465
634540
571091
647377
559124
562460
573338
899292
984228
884842
780488
842114
949420
1.06317e+06
760213
666043
604359
745840
682792
606879
668629
515035
516634
460757
483675
487338
561873
557785
645475
650218
663315
582987
585369
610484
613729
660211
653739
642692
583395
578016
612100
607741
913627
859072
754277
895248
823493
756421
861253
462008
515406
462518
487297
486146
560102
562230
503897
505047
460710
512263
513222
467639
469747
639634
650648
665774
575903
587722
607779
623943
568239
515165
464638
474731
487078
495915
558269
686603
782328
708316
622414
685520
663090
730808
549358
595483
644431
498079
538634
518819
559751
462046
512299
503108
462792
508973
468527
470050
529561
497743
549590
551229
501014
480978
483500
1.18123e+06
1.20707e+06
1.11993e+06
1.05779e+06
999885
1.07486e+06
1.14564e+06
503400
465231
507265
515977
476899
468721
474915
541101
543021
591645
538982
499473
497998
537898
829282
931920
867407
773848
877210
822189
926152
667145
716471
812108
683673
598903
620789
705756
523230
479922
550778
501560
547149
498517
483346
1.08998e+06
984221
969461
1.02098e+06
960757
971122
1.08603e+06
671304
753968
1.03244e+06
1.18469e+06
765173
829399
691056
874428
1.14783e+06
901134
1.2968e+06
1.4522e+06
1.23384e+06
1.2164e+06
720650
791715
694098
777813
805751
706640
705687
738634
796774
872390
747692
829650
722139
774314
903720
938813
783236
935786
824697
1.03978e+06
833955
1.02076e+06
1.02246e+06
1.38068e+06
1.00722e+06
1.18189e+06
905088
1.1853e+06
1.6727e+06
1.66586e+06
1.13163e+06
1.4489e+06
1.40651e+06
1.86976e+06
1.26251e+06
1.85502e+06
1.53847e+06
1.50682e+06
1.52508e+06
1.82405e+06
1.41107e+06
1.80029e+06
992309
1.03091e+06
1.45837e+06
892805
1.4873e+06
682838
1.22782e+06
577157
656501
676507
643353
519853
714255
542959
898145
585884
702912
1.10354e+06
408758
253247
253245
253245
253245
520462
509493
788286
625786
271393
683813
521458
685472
709447
507966
812905
827721
936098
430165
294750
305762
255733
253633
255384
267601
486274
665016
496627
691682
618873
787108
716703
757757
819328
511152
876444
256113
459907
253341
266287
253258
253253
253290
254320
253421
253306
253245
253245
253245
253245
253245
253409
253245
253245
253246
253245
253245
253245
253245
253245
253246
253245
253245
263715
253245
253245
253245
253245
253245
253245
253245
253245
253245
253245
253245
253245
253245
253245
253245
253245
253245
253245
253245
253245
253245
253245
253245
253245
253245
253245
253245
253245
253245
253245
253245
253245
253245
253245
253245
253245
253245
253245
253245
253245
253245
253245
253245
253245
253245
253245
253245
253245
253245
253245
253245
253245
253245
253245
253245
253245
253245
253245
253245
253245
253245
253245
253245
253245
253245
254127
253245
253246
253245
253245
253245
253245
253245
253245
253286
253245
253245
426827
253245
253245
522996
253249
253245
253245
253245
253245
253245
253245
253245
253245
253245
253245
253245
253245
253245
261742
253245
253245
253245
253245
253245
253245
253245
253245
253245
253245
253245
253245
253245
253245
253245
253245
253245
253245
253245
253245
253245
253245
253245
253245
253245
253245
253245
253245
253245
253245
253245
253245
253245
253245
253245
253245
253245
253245
253245
253245
253245
253245
253245
253245
445115
565993
569852
495795
499229
640784
645287
659937
662733
760697
680174
679069
597098
596898
952769
970369
967205
982295
1.08764e+06
1.02949e+06
1.12625e+06
1.1471e+06
973494
1.30492e+06
1.22511e+06
1.24716e+06
1.30691e+06
1.01931e+06
528009
484007
477591
545486
556676
495908
502326
604637
544405
505704
586825
638412
523915
562318
450611
569256
564861
501229
646058
502334
643038
1.08939e+06
1.05173e+06
891006
934990
957499
798498
820138
776683
683033
601815
712792
814094
619129
699859
941767
1.20096e+06
1.23096e+06
914924
1.02294e+06
1.21719e+06
1.19111e+06
886931
889665
955628
795290
793468
1.05189e+06
953936
455150
561956
566033
503431
642015
648291
509062
979494
769206
910129
1.19474e+06
1.15846e+06
1.18218e+06
1.19136e+06
477488
583445
616625
668527
706043
526644
557798
450617
989365
253245
253245
253245
253245
253246
253245
253245
253245
253245
253245
253245
253245
253245
253245
253245
253245
253245
253245
253245
253245
253245
253245
253245
253245
253245
253245
253245
253245
253245
253245
253245
253245
810366
862549
698611
702918
808819
836092
780170
821099
848992
789230
797481
830551
839587
904142
819265
871790
803731
859683
777831
893903
994239
914366
853070
1.17077e+06
914693
1.1387e+06
1.02864e+06
686898
739086
786324
894848
599573
736405
952759
1.09864e+06
1.16097e+06
837740
856433
664010
739555
957609
891071
649618
815564
1.22212e+06
739967
1.13487e+06
364889
790995
700206
833613
1.03457e+06
568941
939169
694804
940679
725858
351225
403977
1.04414e+06
888693
942249
865111
903093
954601
1.02805e+06
1.2987e+06
1.36218e+06
1.09746e+06
1.16434e+06
1.35419e+06
1.10457e+06
1.29016e+06
1.07968e+06
886186
969911
1.01678e+06
929480
980223
1.13897e+06
1.32278e+06
1.15757e+06
1.32382e+06
1.14814e+06
1.347e+06
1.12373e+06
1.35322e+06
1.33676e+06
1.02738e+06
1.0668e+06
1.00644e+06
1.22769e+06
1.11489e+06
1.13358e+06
1.39543e+06
1.27449e+06
1.17358e+06
1.02795e+06
1.38506e+06
1.17943e+06
1.18037e+06
1.42588e+06
1.08086e+06
1.39097e+06
1.20734e+06
1.24054e+06
1.19075e+06
1.45883e+06
1.35072e+06
934806
876360
1.06021e+06
1.03906e+06
1.14237e+06
1.23474e+06
1.26637e+06
1.51167e+06
1.17719e+06
1.25469e+06
1.411e+06
1.55356e+06
1.10191e+06
866587
700961
965610
617202
1.06504e+06
536887
860925
1.03237e+06
1.24103e+06
1.24359e+06
828902
1.47515e+06
986404
769363
664437
471992
344912
580367
414205
733505
507688
499797
888894
658825
728901
579835
630365
552185
405115
353704
442319
624396
559692
716999
272093
504748
419340
486291
617984
451670
531474
535102
538967
427291
340112
725393
750514
571865
385207
390895
506392
492553
380982
389761
497671
318497
388117
327090
328875
436147
502201
401392
315173
460363
310223
426904
308440
416436
407743
348246
319611
458488
327026
438291
372858
472869
370701
338785
472170
459909
355777
364369
475384
771966
876104
531523
658590
253277
253245
253245
253245
264302
255577
253276
253248
694652
776572
769247
594571
598002
726338
732017
797933
1.06595e+06
945352
1.10072e+06
815307
980062
961277
552440
666779
736610
759245
823283
598946
647372