# vtk DataFile Version 2.0
sampleSurface
ASCII
DATASET POLYDATA
POINTS 2046 float
-2.71051e-18 0 0 0.1 0 0 -1.35525e-18 0.1 0 -1.35525e-18 -0.1
0 -0.1 0 0 -0.1 0.1 0 -0.1 -0.1 0
0.1 0.1 0 0.1 -0.1 0 0 0.2 0 0
-0.2 0 -0.2 0 0 0.2 0 0 -0.1 0.2
0 0.1 0.2 0 -0.2 0.1 0 -0.2 -0.1 0
-0.1 -0.2 0 0.1 -0.2 0 0.2 0.1 0 0.2
-0.1 0 -0.2 0.2 0 0.2 0.2 0 -0.2 -0.2
0 0.2 -0.2 0 9.03502e-19 0.3 0 1.58113e-18 -0.3 0
-0.3 0 0 0.3 0 0 -0.1 0.3 0 -0.3
0.1 0 0.3 -0.1 0 0.3 0.1 0 0.1 0.3
0 -0.1 -0.3 0 0.1 -0.3 0 -0.3 -0.1 0
-0.2 0.3 0 0.2 0.3 0 -0.3 0.2 0 -0.3
-0.2 0 -0.2 -0.3 0 0.2 -0.3 0 0.3 0.2
0 0.3 -0.2 0 1.807e-18 0.4 0 -0.4 0 0
0.4 0 0 3.16226e-18 -0.4 0 0.1 0.4 0 -0.1
0.4 0 -0.4 -0.1 0 -0.4 0.1 0 0.1 -0.4
0 -0.1 -0.4 0 0.4 0.1 0 0.4 -0.1 0
0.3 0.3 0 0.3 -0.3 0 -0.4 0.2 0 -0.4
-0.2 0 0.2 0.4 0 -0.2 0.4 0 0.2 -0.4
0 -0.2 -0.4 0 0.4 0.2 0 0.4 -0.2 0
9.03502e-19 0.5 0 1.58113e-18 -0.5 0 0.5 0 0 0.4
0.3 0 0.3 0.4 0 0.4 -0.3 0 0.3 -0.4
0 0.1 0.5 0 -0.1 0.5 0 -0.1 -0.5 0
0.1 -0.5 0 0.5 0.1 0 0.5 -0.1 0 -0.2
0.5 0 0.2 0.5 0 -0.2 -0.5 0 0.2 -0.5
0 0.5 0.2 0 0.5 -0.2 0 -0.4 0.4 0
-0.4 -0.4 0 0.4 0.4 0 0.4 -0.4 0 0.3
0.5 0 0.5 0.3 0 0.3 -0.5 0 0.5 -0.3
0 0 0.6 0 -0.6 0 0 0 -0.6 0
0.6 0 0 -0.1 0.6 0 0.1 0.6 0 -0.1
-0.6 0 0.1 -0.6 0 0.6 -0.1 0 0.6 0.1
0 -0.6 0.2 0 -0.2 0.6 0 0.2 0.6 0
-0.6 -0.2 0 -0.2 -0.6 0 0.2 -0.6 0 0.6
-0.2 0 0.6 0.2 0 0.5 0.4 0 0.4 0.5
0 0.5 -0.4 0 0.4 -0.5 0 0.3 0.6 0
0.6 0.3 0 0.6 -0.3 0 0.3 -0.6 0 0
0.7 0 3.38813e-18 -0.7 0 0.7 0 0 0.5 -0.5
0 0.1 -0.7 0 0.7 -0.1 0 0.7 0.1 0
0.1 0.7 0 0.5 0.5 0 -0.6 0.4 0 -0.4
0.6 0 0.4 0.6 0 -0.6 -0.4 0 -0.4 -0.6
0 0.6 0.4 0 0.6 -0.4 0 0.4 -0.6 0
0.2 0.7 0 0.2 -0.7 0 0.7 -0.2 0 0.7
0.2 0 0.3 0.7 0 0.7 0.3 0 0.3 -0.7
0 0.7 -0.3 0 0.5 0.6 0 0.6 0.5 0
0.6 -0.5 0 0.5 -0.6 0 6.77626e-18 -0.8 0 0
0.8 0 0.8 0 0 0.4 0.7 0 0.1 -0.8
0 0.7 0.4 0 0.7 -0.4 0 0.4 -0.7 0
0.1 0.8 0 0.8 -0.1 0 0.8 0.1 0 -0.2
0.8 0 0.2 0.8 0 -0.2 -0.8 0 0.2 -0.8
0 0.8 -0.2 0 0.8 0.2 0 -0.6 0.6 0
0.6 0.6 0 -0.6 -0.6 0 0.6 -0.6 0 0.3
0.8 0 0.8 0.3 0 0.8 -0.3 0 0.3 -0.8
0 0.7 0.5 0 0.5 -0.7 0 0.7 -0.5 0
0.5 0.7 0 0.4 0.8 0 -0.4 0.8 0 0.8
0.4 0 0.8 -0.4 0 0.4 -0.8 0 0.9 0
0 0.9 0.05 0 0.9 -0.05 0 0.9 0.1 0
0.9 -0.1 0 0.6 0.7 0 0.7 0.6 0 0.7
-0.6 0 0.6 -0.7 0 0.2 0.9 0 0.2 -0.9
0 0.9 0.2 0 0.9 -0.2 0 0.5 0.8 0
0.8 0.5 0 0.8 -0.5 0 0.5 -0.8 0 0.9
0.3 0 0.9 -0.3 0 0.3 -0.9 0 0.3 0.9
0 0.95 0 0 0.95 0.05 0 0.95 -0.05 0
0.95 0.1 0 0.95 -0.1 0 0.4 0.9 0 0.9
0.4 0 0.9 -0.4 0 0.4 -0.9 0 0.7 -0.7
0 0.7 0.7 0 0 1 0 -0.8 0.6 0
-0.6 0.8 0 0.6 0.8 0 0 -1 0 0.8
0.6 0 1 0 0 0.8 -0.6 0 0.6 -0.8
0 1 -0.05 0 1 0.05 0 1 -0.1 0
1 0.1 0 0.2 1 0 -1 0.2 0 -0.2
1 0 -1 -0.2 0 -0.2 -1 0 0.2 -1
0 1 -0.2 0 1 0.2 0 0.5 -0.9 0
0.5 0.9 0 0.9 -0.5 0 0.9 0.5 0 0.3
1 0 1 0.3 0 1 -0.3 0 0.3 -1
0 1.05 0 0 1.05 -0.05 0 1.05 0.05 0
1.05 -0.1 0 1.05 0.1 0 0.8 0.7 0 0.7
0.8 0 0.8 -0.7 0 0.7 -0.8 0 0.4 1
0 -0.4 1 0 1 0.4 0 1 -0.4 0
0.4 -1 0 0.6 0.9 0 0.9 0.6 0 0.9
-0.6 0 0.6 -0.9 0 1.1 0 0 1.1 -0.05
0 1.1 0.05 0 1.1 -0.1 0 1.1 0.1 0
0.5 1 0 1 0.5 0 1 -0.5 0 0.5
-1 0 1.1 -0.2 0 1.1 0.2 0 -0.8 0.8
0 0.8 0.8 0 0.8 -0.8 0 0.7 0.9 0
0.9 -0.7 0 0.9 0.7 0 0.7 -0.9 0 1.1
0.3 0 1.1 -0.3 0 0.6 1 0 -1 0.6
0 -0.6 1 0 -0.6 -1 0 -1 -0.6 0
1 0.6 0 1 -0.6 0 0.6 -1 0 0.4
1.1 0 1.1 0.4 0 1.1 -0.4 0 0.4 -1.1
0 0 1.2 0 1.2 0 0 -0.1 1.2 0
1.2 -0.1 0 1.2 0.1 0 0.9 0.8 0 0.8
0.9 0 0.9 -0.8 0 0.8 -0.9 0 1.1 0.5
0 0.5 1.1 0 1.1 -0.5 0 0.5 -1.1 0
0.2 1.2 0 -0.2 1.2 0 0.2 -1.2 0 1.2
-0.2 0 1.2 0.2 0 0.7 1 0 1 0.7
0 0.7 -1 0 1 -0.7 0 -0.3 1.2 0
1.2 0.3 0 1.2 -0.3 0 0.6 1.1 0 1.1
0.6 0 1.1 -0.6 0 0.6 -1.1 0 0.4 1.2
0 -0.4 1.2 0 1.2 0.4 0 1.2 -0.4 0
0.4 -1.2 0 0.9 -0.9 0 0.9 0.9 0 -1
0.8 0 -0.8 1 0 1 0.8 0 0.8 1
0 1 -0.8 0 0.8 -1 0 0.5 1.2 0
-0.5 1.2 0 1.2 0.5 0 1.2 -0.5 0 0
1.3 0 1.3 0 0 0.5 -1.2 0 1.1 0.7
0 1.1 -0.7 0 0.7 -1.1 0 -0.1 1.3 0
0.7 1.1 0 1.3 0.1 0 1.3 -0.1 0 -0.2
1.3 0 1.3 0.2 0 1.3 -0.2 0 1.3 0.3
0 1.3 -0.3 0 -0.3 1.3 0 0.6 1.2 0
-1.2 0.6 0 -0.6 1.2 0 1.2 0.6 0 1.2
-0.6 0 0.6 -1.2 0 0.9 1 0 1 0.9
0 1 -0.9 0 0.9 -1 0 1.3 0.4 0
1.3 -0.4 0 -0.4 1.3 0 1.1 0.8 0 0.8
1.1 0 1.1 -0.8 0 0.8 -1.1 0 0.7 1.2
0 -0.7 1.2 0 1.2 0.7 0 0.7 -1.2 0
1.2 -0.7 0 1.3 0.5 0 1.3 -0.5 0 -0.5
1.3 0 0 1.4 0 1.4 0 0 0.1 1.4
0 -0.1 1.4 0 1.4 -0.1 0 1.4 0.1 0
0.2 1.4 0 -1.4 0.2 0 -0.2 1.4 0 -1.4
-0.2 0 -0.2 -1.4 0 0.2 -1.4 0 1.4 0.2
0 1.4 -0.2 0 -1 1 0 -1 -1 0
1 1 0 1 -1 0 0.9 -1.1 0 0.9
1.1 0 1.1 0.9 0 1.1 -0.9 0 1.3 0.6
0 1.3 -0.6 0 -0.3 1.4 0 1.4 0.3 0
1.4 -0.3 0 -0.6 1.3 0 0.8 1.2 0 -1.2
0.8 0 -0.8 1.2 0 1.2 0.8 0 0.8 -1.2
0 1.2 -0.8 0 0.4 1.4 0 -0.4 1.4 0
0.4 -1.4 0 1.4 0.4 0 1.4 -0.4 0 1.3
-0.7 0 -0.7 1.3 0 1.3 0.7 0 -0.5 1.4
0 1.4 0.5 0 1 1.1 0 1.1 1 0
1.4 -0.5 0 1.1 -1 0 1 -1.1 0 0
1.5 0 0.9 1.2 0 -0.9 1.2 0 1.2 0.9
0 1.5 0 0 1.2 -0.9 0 0.9 -1.2 0
0.1 1.5 0 -0.1 1.5 0 1.5 -0.1 0 1.5
0.1 0 0.2 1.5 0 -0.2 1.5 0 1.5 0.2
0 1.5 -0.2 0 0.6 1.4 0 -1.4 0.6 0
-0.6 1.4 0 -0.6 -1.4 0 -1.4 -0.6 0 0.6
-1.4 0 1.4 0.6 0 1.4 -0.6 0 0.8 1.3
0 1.3 0.8 0 0.8 -1.3 0 1.3 -0.8 0
-0.8 1.3 0 -0.3 1.5 0 1.5 0.3 0 1.5
-0.3 0 -0.4 1.5 0 1.5 0.4 0 1.5 -0.4
0 1.1 1.1 0 1.1 -1.1 0 1 1.2 0
-1.2 1 0 -1 1.2 0 1.2 1 0 1.2
-1 0 1 -1.2 0 -0.7 1.4 0 1.4 0.7
0 1.4 -0.7 0 0.9 -1.3 0 0.9 1.3 0
1.3 0.9 0 1.3 -0.9 0 -0.5 1.5 0 -0.9
1.3 0 1.5 0.5 0 1.5 -0.5 0 0 1.6
0 1.6 0 0 0.1 1.6 0 1.6 -0.1 0
1.6 0.1 0 0.8 1.4 0 -1.4 0.8 0 -0.8
1.4 0 1.4 0.8 0 0.8 -1.4 0 1.4 -0.8
0 0.2 1.6 0 1.6 0.2 0 1.6 -0.2 0
-0.6 1.5 0 1.5 0.6 0 1.5 -0.6 0 -1.1
1.2 0 1.1 1.2 0 1.6 0.3 0 1.2 1.1
0 1.6 -0.3 0 1.2 -1.1 0 1.1 -1.2 0
1.3 1 0 1 -1.3 0 1.3 -1 0 1
1.3 0 -1 1.3 0 0.4 1.6 0 1.6 0.4
0 1.6 -0.4 0 -0.7 1.5 0 1.5 0.7 0
1.5 -0.7 0 0.9 1.4 0 -0.9 1.4 0 1.4
0.9 0 0.9 -1.4 0 1.4 -0.9 0 1.6 0.5
0 1.6 -0.5 0 -1.2 1.2 0 1.2 1.2 0
1.2 -1.2 0 0 1.7 0 0.8 1.5 0 -0.8
1.5 0 1.5 0.8 0 1.5 -0.8 0 1.7 0
0 1.7 0.1 0 1.7 -0.1 0 0.1 1.7 0
1.3 1.1 0 1.3 -1.1 0 -1.1 1.3 0 1.1
1.3 0 1.1 -1.3 0 0.6 1.6 0 -1.6 0.6
0 0.6 -1.6 0 1.6 0.6 0 1.6 -0.6 0
0.2 1.7 0 1.7 0.2 0 1.7 -0.2 0 1
1.4 0 -1.4 1 0 -1 1.4 0 -1 -1.4
0 -1.4 -1 0 1.4 -1 0 1.4 1 0
1 -1.4 0 1.7 0.3 0 1.7 -0.3 0 1.6
0.7 0 1.6 -0.7 0 1.7 0.4 0 1.7 -0.4
0 1.5 -0.9 0 0.9 1.5 0 -0.9 1.5 0
1.5 0.9 0 1.2 -1.3 0 1.3 -1.2 0 -1.3
1.2 0 -1.2 1.3 0 1.2 1.3 0 1.3 1.2
0 1.7 -0.5 0 1.7 0.5 0 -1.1 1.4 0
1.4 -1.1 0 1.1 1.4 0 1.4 1.1 0 1.1
-1.4 0 0.8 -1.6 0 1.6 -0.8 0 0.8 1.6
0 -1.6 0.8 0 1.6 0.8 0 0 1.8 0
1.8 0 0 0.1 1.8 0 1 1.5 0 -1
1.5 0 1.5 -1 0 1.5 1 0 1.8 -0.1
0 1.8 0.1 0 1.7 0.6 0 1.7 -0.6 0
0.2 1.8 0 -1.8 0.2 0 -1.8 -0.2 0 -0.2
-1.8 0 0.2 -1.8 0 1.8 0.2 0 1.8 -0.2
0 1.8 0.3 0 1.8 -0.3 0 1.6 -0.9 0
0.9 1.6 0 1.6 0.9 0 1.7 -0.7 0 -1.3
1.3 0 1.7 0.7 0 1.3 1.3 0 -1.4 1.2
0 -1.2 1.4 0 1.4 -1.2 0 1.2 1.4 0
1.4 1.2 0 1.2 -1.4 0 0.4 1.8 0 1.8
0.4 0 1.8 -0.4 0 1.5 -1.1 0 -1.1 1.5
0 1.1 1.5 0 1.8 0.5 0 1.8 -0.5 0
0.8 1.7 0 1.7 -0.8 0 1.7 0.8 0 1
1.6 0 -1.6 1 0 1 -1.6 0 1.6 -1
0 1.6 1 0 0.6 1.8 0 -1.8 0.6 0
-0.6 -1.8 0 -1.8 -0.6 0 0.6 -1.8 0 1.8
-0.6 0 1.8 0.6 0 0 1.9 0 1.9 0
0 1.9 0.1 0 1.9 -0.1 0 0.1 1.9 0
0.2 1.9 0 -1.3 1.4 0 -1.4 1.3 0 1.9
0.2 0 1.4 1.3 0 1.3 1.4 0 1.9 -0.2
0 1.5 -1.2 0 -1.5 1.2 0 -1.2 1.5 0
1.2 1.5 0 1.5 1.2 0 1.7 0.9 0 0.9
1.7 0 1.7 -0.9 0 1.9 -0.3 0 1.9 0.3
0 1.8 -0.7 0 1.8 0.7 0 1.6 -1.1 0
1.9 0.4 0 1.9 -0.4 0 1.9 -0.5 0 1.9
0.5 0 0.8 1.8 0 -1.8 0.8 0 0.8 -1.8
0 1.8 -0.8 0 1.8 0.8 0 1 1.7 0
1.7 -1 0 1.7 1 0 -1.4 1.4 0 -1.4
-1.4 0 1.4 -1.4 0 1.4 1.4 0 -1.3 1.5
0 -1.5 1.3 0 1.3 1.5 0 1.5 1.3 0
1.9 -0.6 0 1.9 0.6 0 1.6 -1.2 0 1.2
-1.6 0 2 0 0 0 2 0 -1.6 1.2
0 1.6 1.2 0 2 -0.1 0 2 0.1 0
-0.1 2 0 0.1 2 0 0.2 2 0 -0.2
2 0 2 0.2 0 2 -0.2 0 0.9 1.8
0 1.8 -0.9 0 1.8 0.9 0 -0.3 2 0
2 0.3 0 2 -0.3 0 1.9 0.7 0 1.9
-0.7 0 -0.4 2 0 0.4 2 0 2 0.4
0 2 -0.4 0 -1.4 1.5 0 -1.5 1.4 0
1.4 1.5 0 1.5 1.4 0 1 1.8 0 -1.8
1 0 -1 -1.8 0 -1.8 -1 0 1 -1.8
0 1.8 -1 0 1.8 1 0 -0.5 2 0
0.8 1.9 0 1.9 -0.8 0 1.9 0.8 0 2
0.5 0 2 -0.5 0 -1.6 1.3 0 1.6 1.3
0 -1.7 1.2 0 1.7 1.2 0 -0.6 2 0
0.6 2 0 -2 0.6 0 2 -0.6 0 2
0.6 0 2.1 0 0 0 2.1 0 0.9 1.9
0 -0.1 2.1 0 0.1 2.1 0 2.1 0.1 0
2.1 -0.1 0 0.2 2.1 0 -0.2 2.1 0 2.1
0.2 0 2.1 -0.2 0 -0.7 2 0 2 -0.7
0 2 0.7 0 -0.3 2.1 0 -1.5 1.5 0
1.5 1.5 0 2.1 0.3 0 2.1 -0.3 0 -1.6
1.4 0 1.4 -1.6 0 1.6 -1.4 0 1.6 1.4
0 -0.4 2.1 0 2.1 0.4 0 2.1 -0.4 0
-1.7 1.3 0 1.7 1.3 0 1 1.9 0 2
-0.8 0 -0.8 2 0 0.8 2 0 -2 0.8
0 2 0.8 0 2.1 -0.5 0 -0.5 2.1 0
-1.8 1.2 0 1.2 -1.8 0 1.8 -1.2 0 1.8
1.2 0 -0.6 2.1 0 2.1 -0.6 0 -0.9 2
0 0.9 2 0 -1.6 1.5 0 1.6 1.5 0
0 2.2 0 2.2 0 0 -1.7 1.4 0 1.7
1.4 0 -0.1 2.2 0 0.1 2.2 0 2.2 -0.1
0 2.2 0.1 0 -0.2 2.2 0 0.2 2.2 0
-2.2 0.2 0 -2.2 -0.2 0 -0.2 -2.2 0 0.2
-2.2 0 2.2 0.2 0 2.2 -0.2 0 -0.7 2.1
0 0.3 2.2 0 -0.3 2.2 0 -1.8 1.3 0
2.2 0.3 0 2.2 -0.3 0 1.8 1.3 0 -1
2 0 1 2 0 -2 1 0 2 -1
0 2 1 0 -0.4 2.2 0 0.4 2.2 0
2.2 0.4 0 2.2 -0.4 0 -1.9 1.2 0 1.9
1.2 0 -0.8 2.1 0 0.8 2.1 0 -0.5 2.2
0 0.5 2.2 0 2.2 -0.5 0 -1.7 1.5 0
1.7 1.5 0 -1.8 1.4 0 -1.4 -1.8 0 -1.8
-1.4 0 1.4 -1.8 0 1.8 -1.4 0 1.8 1.4
0 -0.6 2.2 0 0.6 2.2 0 -2.2 0.6 0
-0.6 -2.2 0 -2.2 -0.6 0 2.2 0.6 0 0.6
-2.2 0 2.2 -0.6 0 1.1 2 0 -1.1 2
0 -0.9 2.1 0 0.9 2.1 0 0 2.3 0
2.3 0 0 0.1 2.3 0 2.3 -0.1 0 2.3
0.1 0 -1.9 1.3 0 1.9 1.3 0 0.2 2.3
0 -0.7 2.2 0 0.7 2.2 0 2.3 0.2 0
2.3 -0.2 0 0.3 2.3 0 -1 2.1 0 1
2.1 0 1.2 2 0 -2 1.2 0 -1.2 2
0 2 1.2 0 0.4 2.3 0 -0.8 2.2 0
0.8 2.2 0 -2.2 0.8 0 2.2 0.8 0 2.2
-0.8 0 -1.8 1.5 0 1.8 1.5 0 0.5 2.3
0 -1.9 1.4 0 1.9 1.4 0 1.1 2.1 0
-1.1 2.1 0 0.6 2.3 0 -0.9 2.2 0 0.9
2.2 0 1.3 2 0 -2 1.3 0 -1.3 2
0 2 1.3 0 0 2.4 0 2.4 0 0
-0.1 2.4 0 0.1 2.4 0 2.4 0.1 0 2.4
-0.1 0 0.7 2.3 0 -0.2 2.4 0 0.2 2.4
0 2.4 0.2 0 2.4 -0.2 0 -1 2.2 0
1 2.2 0 -2.2 1 0 -1 -2.2 0 -2.2
-1 0 2.2 1 0 1 -2.2 0 2.2 -1
0 1.2 2.1 0 0.3 2.4 0 -2.1 1.2 0
-1.2 2.1 0 2.1 1.2 0 -1.9 1.5 0 1.9
1.5 0 -0.4 2.4 0 0.4 2.4 0 2.4 0.4
0 2.4 -0.4 0 0.8 2.3 0 1.4 2 0
-2 1.4 0 -1.4 2 0 2 1.4 0 0.5
2.4 0 1.1 2.2 0 -1.1 2.2 0 0.9 2.3
0 1.3 2.1 0 -2.1 1.3 0 -1.3 2.1 0
2.1 1.3 0 -0.6 2.4 0 0.6 2.4 0 -2.4
0.6 0 2.4 0.6 0 2.4 -0.6 0 0.7 2.4
0 0 2.5 0 -2 1.5 0 -1.5 2 0
1.5 2 0 2 1.5 0 -0.1 2.5 0 0.1
2.5 0 1.2 2.2 0 -2.2 1.2 0 -1.2 2.2
0 2.2 1.2 0 1 2.3 0 -0.2 2.5 0
0.2 2.5 0 0.3 2.5 0 1.4 2.1 0 -2.1
1.4 0 -1.4 2.1 0 2.1 1.4 0 -0.8 2.4
0 0.8 2.4 0 -2.4 0.8 0 2.4 0.8 0
0.4 2.5 0 -1.8 -1.8 0 1.8 -1.8 0 0.5
2.5 0 1.3 2.2 0 -2.2 1.3 0 -1.3 2.2
0 2.2 1.3 0 -1.6 2 0 1.6 2 0
[...]
CELL_DATA 1779
FIELD attributes 1
p 1 1779 float
101298 101298 101298 101298 101298 101298 101298 101298 101298 101298 101298
101298 101298 101298 101298 101298 101298 101298 101298 101298 101298
101298 101298 101298 101298 101298 101298 101298 101298 101298 101298
101298 101298 101298 101298 101298 101298 101298 101298 101298 101298
101298 101298 101298 101298 101298 101298 101298 101298 101298 101298
101298 101298 101298 101298 101298 101298 101298 101298 101298 101298
101298 101298 101298 101298 101298 101298 101298 101298 101298 101298
101298 101298 101298 101298 101298 101298 101298 101298 101298 101298
101298 101298 101298 101298 101298 101298 101298 101298 101298 101298
101298 101298 101298 101298 101298 101298 101298 101298 101298 101298
101298 101298 101298 101298 101298 101298 101298 101298 101298 101298
101298 101298 101298 101298 101298 101298 101298 101298 101298 101298
101298 101298 101298 101298 101298 101298 101298 101298 101298 101298
101298 101298 101298 101298 101298 101298 101298 101298 101298 101298
101298 101298 101298 101298 101298 101298 101298 101298 101298 101298
101298 101298 101298 101298 101298 101298 101298 101298 101298 101298
101298 101298 101298 101298 101298 101298 101298 101298 101298 101298
101298 101298 101298 101298 101298 101298 101298 101298 101298 101298
101298 101298 101298 101298 101298 101298 101298 101298 101298 101298
101298 101298 101298 101298 101298 101298 101298 101298 101298 101298
101298 101298 101298 101298 101298 101298 101298 101298 101298 101298
101298 101298 101298 101298 101298 101298 101298 101298 101298 101298
101298 101298 101298 101298 101298 101298 101298 101298 101298 101298
101298 101298 101298 101298 101298 101298 101298 101298 101298 101298
101298 101298 101298 101298 101298 101298 101298 101298 101298 101298
101298 101298 101298 101298 101298 101298 101298 101298 101298 101298
101298 101298 101298 101298 101298 101298 101298 101298 101298 101298
101298 101298 101298 101298 101298 101298 101298 101298 101298 101298
101298 101298 101298 101298 101298 101298 101298 101298 101298 101298
101298 101298 101298 101298 101298 101298 101298 101298 101298 101298
101298 101298 101298 101298 101298 101298 101298 101298 101298 101298
101298 101298 101298 101298 101298 101298 101298 101298 101298 101298
101298 101298 101298 101298 101298 101298 101298 101298 101298 101298
101298 101298 101298 101298 101298 101298 101298 101298 101298 101298
101298 101298 101298 101298 101298 101298 101298 101298 101298 101298
101298 101298 101298 101298 101298 101298 101298 101298 101298 101298
101298 101300 101298 101300 175379 101298 101299 752642 101298 101298
101298 101298 101298 101298 101298 101298 101298 118008 101462 111057
101298 101298 101298 101919 101329 104930 101298 101298 101298 101298
101298 101304 101298 101300 101503 101390 101299 101298 101384 101300
101298 101298 101298 101298 101298 101298 101298 101298 101298 101298
101298 101298 101298 101298 101298 101298 101298 101298 101298 101298
101298 101298 101298 101298 101298 101298 101298 101298 101298 101298
101298 101298 101298 101298 101298 101298 101298 101298 101298 101298
101298 101298 101298 101298 101298 101298 101298 101298 101298 101298
101298 101298 101298 101298 101298 101298 101298 101298 101298 101298
101298 101298 101298 101298 101298 101298 101298 101298 101298 101298
101298 101298 101298 101298 101298 101298 101298 101298 101298 101298
101298 101298 101298 101298 101298 101298 101298 101298 101298 101298
101298 101298 101298 101298 101298 101298 101298 101298 101298 101298
101298 101298 101298 101298 101298 101298 101298 101298 101298 101298
101298 101298 101298 101298 101298 101298 101298 101298 101298 101298
101298 101298 101298 101298 101298 101298 101298 101298 101298 101298
101298 101298 101298 101298 101298 101298 101298 101298 101298 101298
101298 101298 101298 101298 101298 101298 101298 101298 101298 101298
101298 101298 101298 101298 101298 101298 101298 101298 101298 101298
101298 127643 101299 102353 101308 101520 101298 101298 101298 101298
101298 101298 101298 101298 101325 101300 101298 101298 101298 101298
101298 101298 101298 101298 101298 101298 101298 101298 101298 101298
101298 101298 101298 101298 101298 101298 101298 101298 101298 101298
101298 101298 101298 101298 101298 101298 101298 101298 101298 101298
101298 101298 101298 101298 101298 101298 101298 101298 101298 101298
101298 101298 101298 101298 101298 101298 101298 101298 101298 101298
101298 101298 101298 101298 101298 101298 101298 101298 101298 101298
101298 101298 101298 101298 101298 101298 101298 101298 101298 101298
101298 101298 101298 101298 101298 101298 101298 101298 101298 101298
101298 101298 101298 101298 101298 101298 101298 101298 101298 101298
101298 101298 101298 101298 101298 101298 101298 101298 101298 101298
101298 101298 101298 101298 101298 101298 101298 101298 101298 101298
101298 101298 101298 101298 101298 101298 101298 101298 101298 101298
101298 101298 101298 101298 101298 101298 101298 101298 101298 101298
101298 101298 101298 101298 101298 101298 101298 101298 101298 101298
101298 101298 101298 101298 101298 101298 101298 101298 101298 101298
101298 101298 101298 101298 101298 101298 101298 101298 101298 101298
101298 101298 101298 101298 101298 101298 101298 101298 101298 101298
101298 101298 101298 101298 101298 101298 101298 101298 101298 101298
101298 101298 101298 101298 101298 101298 101298 101298 101298 101298
101298 101298 101298 101298 101298 101298 101298 101298 101298 101298
101298 101298 101298 101298 101298 101298 101298 101298 101298 101298
101298 101298 101298 101298 101298 101298 101298 101298 101298 101298
101298 101298 101298 101298 101298 101298 101298 101298 101298 101298
101298 101298 101298 101298 101298 101298 101298 101298 101298 101298
101298 101298 101298 101298 101298 101298 101298 101298 101298 101298
101298 101298 101298 101298 101298 101298 101298 101298 101298 101298
101298 101298 101298 101298 101298 101298 101298 101298 101298 101298
101298 101298 101298 101298 101298 101298 101298 101298 101298 101298
101298 101298 101298 101298 101298 101298 101298 101298 101298 101298
101298 101298 101298 101298 101298 101298 101298 101298 101298 101298
101298 101298 101298 101298 101298 101298 101298 101298 101298 101298
101298 101298 101298 101298 101298 101298 101298 101298 101298 101298
101298 101298 101298 101298 101298 101298 101298 101298 101298 101298
101298 101298 101298 101298 101298 101298 101298 101298 101298 101298
101298 101298 101298 101298 101298 101298 101298 101298 101298 101298
101298 101298 101298 101298 101298 101298 101298 101298 101298 101298
101298 101298 101298 101298 101298 101298 101298 101298 101298 101298
101298 101298 101298 101298 101298 101298 101298 101298 101298 101298
101298 101298 101298 101298 101298 101298 101298 101298 101298 101298
101298 101298 101298 101298 101298 101298 101298 101298 101298 101298
101298 101298 101298 101298 101298 101298 101298 101298 101298 101298
101298 101298 101298 101298 101298 101298 101298 101298 101298 101298
101298 101298 101298 101298 101298 101298 101298 101298 101298 101298
101298 101298 101298 101298 101298 101298 101298 101298 101298 101298
101298 101298 101298 101298 101298 101298 101298 101298 101298 101298
101298 101298 101298 101298 101298 101298 101298 101298 101298 101298
101298 101298 101298 101298 101298 101298 101298 101298 101298 101298
101298 101298 101298 101298 101298 101298 101298 101298 101298 101298
101298 101298 101298 101298 101298 101298 101298 101298 101298 101298
101298 101298 101298 101298 101298 101298 101298 101298 101298 101298
101298 101298 101298 101298 101298 101298 101298 101298 101298 101298
101298 101298 101298 101298 101298 101298 101298 101298 101298 101298
101298 101298 101298 101298 101298 101298 101298 101298 101298 101298
101298 101298 101298 101298 101298 101298 101298 101298 101298 101298
101298 101298 101298 101298 101298 101298 101298 101298 101298 101298
101298 101298 101298 101298 101298 101298 101298 101298 101298 101298
101298 101298 101298 101298 101298 101298 101298 101298 101298 101298
101298 101298 101298 101298 101298 101298 101298 101298 101298 101298
101298 101298 101298 101298 101298 101298 101298 101298 101298 101298
101298 101298 101298 101298 101298 101298 101298 101298 101298 101298
101298 101298 101298 101298 101298 101298 101298 101298 101298 101298
101298 101298 101298 101298 101298 101298 101298 101298 101298 101298
101298 101298 101298 101298 101298 101298 101298 101298 101298 101298
101298 101298 101298 101298 101298 101298 101298 101298 101298 101298
101298 101298 101298 101298 101298 101298 101298 101298 101298 101298
101298 101298 101298 101298 101298 101298 101298 101298 101298 101298
101298 101298 101298 101298 101298 101298 101298 101298 101298 101298
101298 101298 101298 101298 101298 101298 101298 101298 101298 101298
101298 101298 101298 101298 101298 101298 101298 101298 101298 101298
101298 101298 101298 101298 101298 101298 101298 101298 101298 101298
101298 101298 101298 101298 7.48749e+06 257006 121454 101298 101298 101298
2.24239e+06 101327 1.06447e+06 101378 101298 101298 101298 101298 101298 101298
101298 101298 101298 101298 101298 101298 101298 101298 101298 101298
101298 101298 101298 101298 101298 101298 101298 101298 101298 101298
101298 101298 101298 101298 101298 101298 101298 101298 101298 101298
101298 101298 101298 101298 101298 101298 101298 101298 101298 101298
101298 101298 3.12019e+06 101298 5.56563e+06 101402 109342 101305 1.79956e+06 101326
111762 5.63506e+06 7.37426e+06 4.96848e+06 6.72985e+06 101298 101298 101298 3.26386e+06 2.46821e+06
5.30823e+06 5.70435e+06 3.02791e+06 3.4345e+06 296307 2.25514e+06 5.22691e+06 416959 1.80264e+06 5.12248e+06
4.04739e+06 1.03873e+06 176710 4.08139e+06 1.82933e+06 180515 103416 303435 642305 739901
462397 105659 102962 101327 103862 102025 101305 101481 103027 261400
103898 101988 120409 101471 101845 165389 104544 101340 101298 101299
101299 101298 101319 101298 101298 101315 101332 101298 101298 101298
101298 101303 101298 101298 101316 101298 101298 101298 101300 101298
101298 101300 101298 101298 101298 101298 101298 101298 101298 101298
101298 101298 101298 101298 101298 101298 101298 101298 101298 101298
101298 101298 101298 101298 101298 464281 5.28924e+06 4.97574e+06 6.25107e+06 5.92886e+06
4.73263e+06 5.18882e+06 4.93925e+06 4.9933e+06 4.94359e+06 5.34476e+06 5.12356e+06 6.40372e+06 2.49766e+06 3.03211e+06
6.37041e+06 6.23873e+06 4.68962e+06 6.22814e+06 4.94402e+06 6.28543e+06 5.04002e+06 4.76586e+06 4.72883e+06 9.09049e+06
4.93205e+06 4.5897e+06 4.98065e+06 5.35115e+06 4.82024e+06 4.64533e+06 4.74628e+06 5.02292e+06 9.09859e+06 4.93244e+06
4.5911e+06 4.70457e+06 4.95415e+06 9.10466e+06 4.77818e+06 4.93614e+06 9.08096e+06 4.97126e+06 4.72178e+06 4.81648e+06
4.58807e+06 4.68144e+06 4.91105e+06 4.59429e+06 5.12703e+06 4.91779e+06 8.6335e+06 7.90553e+06 8.55645e+06 8.55804e+06
7.90025e+06 8.64427e+06 8.58281e+06 8.00452e+06 8.57044e+06 8.64766e+06 8.09526e+06 8.63958e+06 7.57187e+06 5.89926e+06
4.90251e+06 5.15617e+06 6.28735e+06 7.75478e+06 5.74026e+06 6.24531e+06 6.73268e+06 6.6618e+06 6.23907e+06 5.78763e+06
5.74056e+06 6.25055e+06 6.72943e+06 6.65429e+06 6.40708e+06 5.78835e+06 310672 101298 101298 7.29427e+06
7.38405e+06 8.17888e+06 7.36617e+06 7.48375e+06 6.71167e+06 3.28177e+06 5.58176e+06 5.33267e+06 5.7067e+06 5.64309e+06
3.44174e+06 5.54032e+06 6.50419e+06 6.17568e+06 4.76436e+06 6.49496e+06 4.73962e+06 5.89642e+06 6.45394e+06 5.03906e+06
5.30089e+06 4.73364e+06 4.64174e+06 5.18704e+06 5.01104e+06 5.02232e+06 6.18731e+06 7.9163e+06 7.57065e+06 5.9282e+06
4.89633e+06 5.92062e+06 6.36154e+06 6.93038e+06 6.92206e+06 6.4963e+06 5.94728e+06 7.98474e+06 7.6902e+06 7.15502e+06
7.46015e+06 7.48899e+06 8.2423e+06 743459 111845 105690 103507 109525 650955 101340
101403 101299 101299 101379 101320 101298 101298 101298 101307 113283
101298 2.20492e+06 5.8048e+06 110022 5.87247e+06 3.21336e+06 101329 101299 3.89721e+06 101300
7.38365e+06 1.80591e+06 101462 7.29356e+06 6.36706e+06 8.17729e+06 101299 367191 101298 776490
101300 101298 3.4118e+06 2.6429e+06 5.58885e+06 5.90032e+06 3.17682e+06 3.60766e+06 165801 101298
101298 101298 101381 101298 101413 101298 101298 4.4407e+06 1.22955e+06 219754
443779 1.90552e+06 5.26485e+06 6.8011e+06 3.86427e+06 907974 418207 3.12128e+06 5.12334e+06 813067
509674 106300 103635 329854 690152 117981 752848 111087 118329 101467
111690 102318 126700 101512 101912 174634 104889 104153 101346 106057
101849 101326 104565 101298 101298 101298 101345 101298 101299 101298
101300 101502 101299 101298 101320 101389 101300 101298 101384 101299
101298 101356 101299 101298 101298 101299 101324 101298 101298 101303
101298 101298 101304 1.91342e+06 101468 3.86755e+06 7.4898e+06 7.46826e+06 6.46343e+06 8.24641e+06
446697 3.22354e+06 5.27571e+06 6.80688e+06 3.90486e+06 910627 101346 1.24736e+06 7.6757e+06 2.80683e+06
101298 101298 513256 335939 7.98294e+06 5.54894e+06 7.15539e+06 4.45647e+06 2.2223e+06 223317
441065 2.81409e+06 5.92006e+06 2.66205e+06 3.18573e+06 6.3618e+06 6.48069e+06 5.92259e+06 6.50614e+06 6.93576e+06
6.91647e+06 6.49046e+06 5.93752e+06 3.42513e+06 5.81157e+06 5.59753e+06 5.90893e+06 5.88011e+06 3.61692e+06 818680
113432 106355 103714 110230 699500 118437 780766 111792 104224 371317
106099 101345 101415 101299 101299 101383 101321 101300 101298 101298
101298 101298 101298 101298 101298 101298 101298 101298 101298 101298
101298 101298 101298 101298 101298 101298 101298 101298 
