/*--------------------------------*- C++ -*----------------------------------*\
  =========                 |
  \\      /  F ield         | OpenFOAM: The Open Source CFD Toolbox
   \\    /   O peration     | Website:  https://openfoam.org
    \\  /    A nd           | Version:  9
     \\/     M anipulation  |
\*---------------------------------------------------------------------------*/
FoamFile
{
    format      ascii;
    class       volScalarField;
    location    "0.00155";
    object      impulseMax;
}
// * * * * * * * * * * * * * * * * * * * * * * * * * * * * * * * * * * * * * //

dimensions      [1 -1 -1 0 0 0 0];

internalField   nonuniform List<scalar> 
12663
(
0.164205
0.000470789
0.0815429
3.96856
5.91848e-05
0.00148066
1.26549e-05
2.65988e-05
0.801544
3.26447
11.3979
0.743268
0.188972
0.153164
0.0363802
0.0276062
0.900778
0.164124
0.00741789
0.0409102
0.0074148
0.00125568
0.0173778
0.129737
0.569972
0.00367444
0.0258265
0.00585197
0.000809121
0.033469
0.000371602
0.00838964
0.00030463
0.0067952
0.0016136
8.14039e-05
97.7629
373.987
464.699
247.406
291.529
189.961
572.213
390.601
215.744
102.845
476.765
418.724
504.934
444.193
381.811
534.405
479.224
405.105
255.777
321.439
355.071
394.725
301.072
224.638
267.431
135.635
247.356
243.209
204.646
178.148
87.7699
571.174
558.082
559.119
536.073
541.561
530.442
525.355
521.694
428.647
366.934
475.245
416.221
365.303
309.722
516.036
540.558
554.242
488.09
521.553
508.564
475.998
546.779
530.334
543.905
518.753
502.852
506.371
514.188
411.86
459.157
466.641
448.517
398.728
391.957
439.701
357.277
366.355
331.492
308.975
348.519
340.714
299.112
389.159
339.962
210.125
262.571
390.107
282.307
140.908
505.589
478.161
511.003
500.334
467.808
467.367
496.594
292.057
278.049
302.436
277.203
249.983
266.756
239.522
15.095
229.929
150.248
164.442
238.61
111.369
23.0688
492.739
511.666
526.31
494.885
448.604
480.543
462.707
230.043
160.656
66.9128
129.005
216.032
85.4332
9.85701
399.637
443.452
451.661
385.123
419.236
377.459
430.073
517.513
504.949
507.781
491.071
492.788
477.3
478.012
450.936
454.51
487.075
474.913
407.664
439.324
442.705
488.546
457.095
440.153
475.494
475.351
454.822
486.629
311.254
342.745
349.353
333.469
279.584
326.847
289.122
88.7338
1.16163
10.6731
223.121
140.936
192.527
95.7108
321.554
455.379
397.244
240.486
338.635
190.649
285.203
496.657
449.365
480.987
433.946
465.534
449.41
418.643
422.478
352.896
379.593
371.608
380.38
343.961
412.801
269.375
255.699
280.992
243.247
255.4
227.884
215.016
461.711
395.331
411.915
416.022
447.453
426.31
429.792
304.577
283.517
328.747
321.313
246.63
296.398
274.475
229.351
239.536
257.763
209.103
228.387
217.997
198.768
491.516
473.083
491.827
459.36
443.376
438.275
462.411
422.982
462.5
460.216
442.702
410.319
403.295
446.925
433.46
421.392
381.629
406.855
368.76
392.602
358.087
337.388
282.775
331.987
270.247
319.971
311.438
260.58
248.212
184.604
219.332
205.102
237.719
208.678
172.869
362.782
368.517
389.47
322.187
353.179
333.875
401.849
433.302
445.883
464.199
431.967
384.461
412.572
402.391
240.478
218.895
206.404
204.348
216.778
180.843
183.17
313.692
236.466
276.213
255.257
305.451
287.159
265.042
222.734
235.67
217.716
206.086
172.853
192.601
186.774
395.903
401.587
432.05
415.353
350.209
378.02
386.059
235.031
195.194
207.5
200.571
212.944
176.665
170.644
422.406
389.232
406.619
356.317
381.049
399.191
428.381
257.246
244.383
230.324
215.671
200.663
216.895
184.269
450.978
431.856
425.606
420.82
414.097
386.986
395.022
163.667
294.98
370.99
157.885
257.494
21.0014
110.279
192.723
213.643
226.116
196.41
141.564
182.204
158.622
214.625
188.007
200.266
191.198
178.909
162.526
152.105
159.261
175.59
196.211
185.44
122.606
146.961
164.565
396.772
331.258
349.154
335.18
357.879
375.821
368.774
406.935
357.564
371.379
358.115
376.296
344.318
327.232
425.334
375.468
402.087
363.923
390.573
365.637
340.283
208.572
173.165
192.89
156.377
177.299
159.39
136.339
375.497
308.094
341.938
323.097
359.681
328.023
291.259
273.784
313.564
324.475
300.07
233.224
284.941
248.774
365.456
404.784
397.083
357.146
333.376
324.404
365.908
262.866
244.619
295.699
283.421
191.691
246.47
231.649
204.487
153.762
166.809
180.151
167.626
138.997
122.783
172.733
106.596
134.512
113.276
157.565
131.715
151.088
161.785
194.066
191.7
152.017
118.753
115.973
154.625
230.988
180.275
199.383
183.117
201.716
165.073
141.677
381.745
329.286
373.327
345.001
309.154
299.805
354.024
152.235
104.525
158.508
129.502
67.429
74.0157
122.438
181.589
157.105
187.531
147.301
103.122
110.814
140.333
109.01
165.06
162.749
134.227
80.6613
136.764
78.4062
199.792
121.112
165.478
139.026
183.712
145.617
97.2334
345.85
350.302
375.66
337.493
282.395
305.946
313.216
326.741
309.714
352.074
325.417
257.483
281.262
301.049
340.004
349.191
337.575
318.765
306.724
313.82
282.346
304.095
322.529
342.157
311.096
248.243
271.411
290.997
143.75
77.5568
132.827
58.8489
112.936
100.946
48.6081
173.624
128.874
163.464
92.9216
130.884
118.756
80.3049
153.286
153.527
175.03
137.372
83.8131
110.45
111.925
298.331
226.672
212.341
278.083
265.137
240.169
185.039
314.012
288.853
276.466
231.733
267.4
279.848
323.187
267.855
168.451
193.108
200.5
225.886
247.926
214.983
114.33
91.7351
139.089
116.623
45.4639
68.1582
90.8111
186.625
115.438
149.32
125.909
249.681
262.546
299.018
274.237
138.783
195.46
77.4541
172.375
117.283
243.225
257.437
263.947
214.31
288.089
299.666
289.096
269.302
268.47
256.363
257.572
293.517
281.653
296.779
285.493
266.05
253.56
249.471
288.642
276.046
281.945
268.668
250.553
243.762
236.321
60.3736
252.861
206.875
209.587
102.003
146.035
47.6222
275.559
257.705
259.325
241.607
226.127
224.328
243.159
266.939
271.28
254.421
238.471
215.937
220.872
233.931
194.054
235.042
233.966
220.811
180.483
178.772
222.258
273.669
249.592
259.803
232.075
242.04
227.352
216.872
227.446
191.046
231.295
217.76
170.252
175.332
213.364
260.841
235.121
253.052
209.303
227.75
219.897
200.995
180.48
222.049
214.931
163.247
207.357
199.611
154.133
237.976
240.324
220.57
224.762
207.306
204.713
190.505
233.163
225.492
243.804
210.45
178.734
199.323
190.896
162.084
195.465
206.092
190.067
128.606
142.65
178.455
204.898
136.538
187.906
161.794
185.858
159.778
206.653
201.502
150.134
176.586
132.293
182.078
155.913
196.594
142.252
169.151
189.966
181.479
106.3
132.123
159.587
226.013
192.024
209.595
173.618
191.915
173.629
153.185
220.931
186.033
201.274
164.018
186.188
170.488
146.073
167.469
182.772
133.818
111.8
164.357
147.174
92.3859
170.899
104.393
92.9507
132.729
119.555
157.864
147.559
98.0278
128.096
171.264
167.95
190.543
151.434
124.127
49.1704
71.058
126.41
94.2483
148.888
126.419
71.0656
86.7992
114.869
141.904
122.637
42.7218
94.0123
67.4616
50.0584
119.229
64.4904
86.5643
25.4146
37.2187
70.1156
113.774
134.988
150.767
103.832
49.4453
86.2772
65.5892
324.05
263.01
293.221
255.19
286.431
253.685
220.186
100.135
21.6697
66.3157
49.8119
64.0166
102.714
47.8673
113.404
138.35
163.699
121.494
45.4703
71.2596
93.5558
295.507
239.022
214.46
226.188
249.644
262.169
271.856
299.863
221.319
267.374
229.06
273.892
239.834
189.83
95.2396
38.3801
52.8991
18.9374
59.5333
44.0288
87.9255
11.8211
25.845
71.0554
28.5175
47.5257
74.9563
100.006
90.6059
25.4459
40.1702
22.7724
44.2774
62.7669
65.298
31.2734
44.4103
78.2969
66.5715
6.42308
23.2326
34.5595
199.1
220.345
252.41
209.132
111.943
171.017
150.978
210.255
196.318
244.207
207.614
112.004
153.06
169.648
165.496
170.026
223.029
192.348
78.3923
135.387
132.832
257.622
260.226
185.711
267.445
198.442
268.577
317.934
326.127
335.426
316.82
334.2
315.408
316.507
296.363
297.929
330.988
308.631
306.825
312.003
313.397
292.901
287.761
293.048
269.313
294.706
273.049
249.092
247.022
274.882
270.253
296.218
294.688
273.678
249.167
275.451
247.224
283.773
263.475
289.336
269.315
237.295
243.046
263.846
265.163
286.592
291.434
270.127
238.337
243.555
264.959
249.954
196.003
225.843
225.392
223.587
251.955
223.187
246.134
213.77
213.692
191.762
219.541
219.252
240.674
313.302
151.035
8.22001
100.72
366.011
257.555
208.884
378.154
325.779
469.797
412.887
466.456
439.569
443.47
437.869
433.752
403.422
410.893
286.507
178.417
35.0628
170.204
302.218
386.612
264.358
196.882
32.3044
123.694
4.78459
11.7518
95.1586
60.3599
440.798
383.469
387.547
414.158
410.106
381.875
356.512
92.8957
0.0964751
6.74203
43.1933
62.6937
215.403
80.9259
357.251
404.863
397.171
365.519
333.454
324.485
374.046
369.67
412.89
405.543
369.69
341.538
332.79
378.173
355.379
357.255
361.378
331.394
327.064
330.393
299.964
337.59
350.371
375.739
345.91
282.464
321.607
306.022
350.008
358.575
383.928
350.027
290.943
325.797
314.479
175.82
177.037
166.445
154.136
143.936
142.464
116.568
314.262
236.387
241.395
291.499
286.924
259.944
207.675
330.773
297.279
248.897
301.325
292.567
288.425
339.619
175.469
184.592
189.904
144.901
139.354
152.106
102.657
300.524
288.352
279.442
285
261.833
166.022
265.892
304.283
247.177
338.39
351.089
291.582
297.042
274.796
332.312
341.273
274.184
360.489
350.179
353.398
341.807
339.439
343.493
330.361
344.064
327.194
334.662
326.538
334.751
321.108
311.268
341.608
324.248
333.764
314.536
327.044
318.096
305.371
324.019
303.144
323.891
313.5
330.956
313.869
292.596
318.52
317.965
332.29
324.662
308.204
308.632
288.618
283.073
316.154
304.241
294.806
314.932
325.515
308.053
268.677
291.729
310.702
280.999
302.687
320.824
303.074
257.343
282.86
267.494
284.581
292.754
307.988
298.047
247.785
247.663
155.825
165.355
233.392
100.187
159.497
270.264
305.487
292.24
278.984
293.325
271.762
256.261
255.893
280.609
300.634
268.991
290.182
266.603
242.539
315.333
281.911
296.011
286.511
298.286
275.471
260.963
259.281
233.18
249.955
262.558
245.857
271.609
286.881
269.895
269.187
272.175
252.355
253.401
250.361
233.135
245.895
219.256
236.448
247.879
203.797
231.245
221.738
264.038
263.644
279.439
257.094
223.101
240.721
240.651
359.052
369.077
362.944
351.549
346.205
355.8
332.143
353.942
360.834
347.341
338.847
347.809
339.367
355.334
361.186
364.966
360.848
368.79
356.681
357.456
359.593
361.609
369.963
367.651
370.115
365.429
367.085
364.204
359.824
355.474
361.577
345.551
358.223
360.78
357.429
350.137
366.352
370.185
363.154
356.634
349.772
360.169
354.906
346.855
350.077
355.521
339.644
349.952
353.008
344.444
357.02
352.876
362.17
355.442
339.179
345.599
350.791
322.486
345.389
337.726
350.419
331.639
339.285
344.797
635.054
349.443
341.739
348.566
358.705
308.804
314.967
244.191
314.674
273.077
335.483
603.996
574.469
517.414
502.489
445.551
577.512
523.887
413.971
409.722
310.925
284.657
418.759
478.969
332.652
364.024
351.678
357.443
351.547
346.142
344.591
338.443
297.151
305.177
231.641
305.247
255.179
288.343
230.955
353.734
338.445
333.911
345.587
340.559
331.321
322.82
672.395
635.728
615.129
619.562
602.879
586.125
592.468
304.042
335.258
308.55
329.634
326.799
320.17
296.898
348.033
328.031
341.472
319.7
334.033
326.889
311.618
543.4
543.924
592.331
534.987
581.378
566.585
527.98
469.836
478.265
417.751
472.1
412.857
415.426
474.582
376.015
345.548
375.867
340.172
370.979
367.883
334.175
329.629
325.508
332.336
318.59
314.922
312.613
300.784
604.088
577.551
595.808
570.204
550.229
554.316
569.505
653.216
374.998
610.98
850.716
615.274
561.766
506.05
618.408
583.692
410.893
458.533
377.895
460.075
320.106
475.095
381.189
409.66
462.334
411.784
473.65
424.562
416.841
465.186
611.536
532.97
531.288
546.949
618.023
611.389
539.708
808.092
682.852
692.947
756.952
665.433
652.234
722.07
362.44
383.671
371.11
369.859
390.198
381.54
359.618
715.025
761.769
669.149
637.084
650.643
620.437
685.616
538.399
614.194
533.871
603.311
537.098
593.524
537.055
461.08
456.651
408.901
412.911
466.946
411.663
463.35
352.593
356.169
374.686
376.577
345.827
373.502
351.985
678.708
602.233
634.123
620.253
599.085
588.767
652.505
606.781
535.544
546.018
595.296
526.241
570.33
537.655
476.188
420.479
425.994
417.36
468.854
413.081
469.536
389.143
362.479
349.679
380.005
339.409
371.714
352.203
605.035
600.788
561.334
579.86
589.414
574.9
626.075
582.841
526.24
541.367
516.906
569.441
556.199
532.206
412.074
467.712
404.887
464.435
409.816
407.99
467.53
373.068
335.055
355.99
329.551
367.153
363.246
343.237
319.162
325.12
334.033
318.339
291.223
308.383
302.057
291.704
300.912
323.067
312.151
278.21
302.605
288.273
548.265
578.182
545.372
560.189
530.741
534.871
558.464
290.076
298.775
314.577
306.982
264.85
290.496
282.245
493.122
554.706
526.157
538.926
478.495
505.305
510.501
537.189
558.093
576.571
549.805
499.783
531.543
515.825
402.528
467.206
454.27
409.902
445.469
463.764
399.098
481.727
422.694
421.276
416.918
464.077
472.251
415.08
545.883
517.067
503.753
526.686
530.489
520.483
541.847
327.407
361.926
350.591
357.93
301.934
319.558
346.628
340.153
370.488
373.675
364.806
318.237
361.935
326.978
314.604
279.065
284.062
302.458
297.059
284.334
265.546
281.045
266.853
268.944
293.712
291.654
279.276
254.015
320.027
287.132
289.736
305.24
302.095
287.129
271.367
324.235
344.859
355.147
327.726
353.043
360.129
328.963
363.051
323.958
335.455
335.301
325.447
325.541
338.393
338.082
332.407
344.278
339.038
333.351
329.055
342.607
348.118
354.496
344.378
352.906
351.181
364.62
368.13
349.784
328.235
337.641
334.056
344.269
360.065
364.939
342.512
366.435
349.107
359.724
356.486
370.06
371.288
363.351
337.997
332.996
349.667
349.755
365.411
367.686
356.895
365.759
370.085
362.469
369.302
370.613
371.071
361.363
369.153
363.651
361.061
358.942
367.917
369.119
367.908
367.939
366.186
319.374
279.559
341.71
324.833
303.059
348.085
363.085
361.249
368.521
369.46
362.026
357.041
357.429
368.552
356.817
363.185
367.786
360.57
354.426
350.022
315.523
325.439
316.416
346.244
339.261
345.978
338.486
334.694
362.35
350.75
349.734
362.003
347.189
333.495
309.415
322.61
313.074
340.124
343.76
335.932
332.104
353.96
346.585
359.062
344.3
326.065
330.555
339.844
304.186
328.449
287.309
288.714
313.961
327.428
312.764
296.118
300.293
284.213
324.697
305.278
309.791
320.515
297.938
269.768
262.405
255.239
287.515
280.794
273.018
522.226
462.52
476.339
473.329
504.572
490.292
494.059
354.886
293.486
335.247
302.328
350.827
310.949
342.237
407.818
433.652
382.202
443.667
455.773
401.301
392.438
257.411
250.428
275.762
262.591
217.347
243.553
236.922
280.469
239.513
265.23
265.23
223.011
249.225
239.517
269.18
272.172
252.352
269.893
233.138
250.364
253.402
278.764
256.258
242.501
252.892
211.449
237.775
227.962
221.583
230.951
204.057
200.992
227.938
210.155
182.027
230.121
205.207
223.66
203.893
228.497
210.358
184.445
253.903
234.667
212.026
213.576
233.391
213.574
191.263
204.064
182.043
210.165
247.79
201.014
227.951
221.595
232.493
186.357
187.155
196.406
215.372
214.879
205.487
410.856
273.376
80.9186
229.298
239.732
253.443
177.648
267.509
242.887
223.507
139.022
290.13
356.476
485.145
427.338
495.353
555.37
439.295
506.064
310.906
299.407
319.363
301.724
292.993
280.452
271.341
207.664
330.362
401.042
412.71
469.621
284.981
323.034
254.396
210.234
119.527
44.5463
177.036
230.119
155.849
559.495
533.036
536.054
537.255
540.588
517.82
515.344
196.043
227.169
102.631
239.032
291.443
154.125
228.205
289.591
279.445
300.935
271.403
282.854
260.858
248.991
537.644
481.181
485.358
512.009
515.885
491.051
461.036
266.202
249.557
275.882
229.51
256.274
246.94
219.955
279.713
244.965
271.045
231.277
257.819
248.911
222.477
483.827
510.539
512.507
491.206
464.228
460.486
492.019
516.949
494.922
519.485
494.901
471.586
468.391
495.339
420.059
450.922
454.746
407.791
411.274
433.544
395.683
366.84
308.861
312.291
357.351
360.828
349.037
298.512
277.064
258.651
263.197
244.463
239.906
235.713
220.793
215.813
228.484
255.164
236.16
195.982
223.905
208.821
249.569
235.015
260.999
238.582
199.912
226.717
212.08
456.809
455.005
485.42
464.312
406.823
435.145
434.848
468.195
463.169
492.968
468.172
414.938
442.76
439.274
266.078
272.744
276.278
248.373
244.741
256.915
226.023
466.412
403.379
439.514
443.455
437.848
433.684
469.769
206.058
206.263
233.285
224.13
167.415
196.471
196.988
367.877
427.809
390.431
380.589
408.686
375.113
349.44
435.52
378.895
397.465
388.621
412.695
378.891
357.419
247.659
210.364
228.505
205.205
223.66
203.907
184.455
245.858
206.897
225.909
203.316
222.293
201.587
180.734
324.102
293.089
343.62
331.517
257.832
281.008
308.145
201.555
185.324
214.098
181.046
210.01
194.192
163.526
440.755
381.835
383.415
387.529
414.137
412.849
410.045
335.351
300.378
350.865
335.355
266.597
316.327
284.985
236.61
194.937
222.011
185.601
213.146
197.622
168.691
251.293
191.874
220.378
208.684
234.909
199.947
168.559
258.89
204.205
227.97
217.674
239.03
204.198
177.825
213.438
154.744
171.39
172.495
200.972
185.024
185.857
177.053
148.321
123.239
179.597
205.417
186.332
158.339
134.131
159.531
187.736
210.313
184.125
189.598
161.638
183.683
159.489
131.827
165.619
189.676
211.725
189.671
357.212
361.363
386.583
355.366
299.942
331.384
327.038
154.989
156.349
186.436
169.361
96.26
136.557
134.902
196.885
143.935
166.451
175.839
116.584
154.148
142.49
186.347
177.084
205.438
179.625
123.273
158.361
148.363
175.13
165.372
141.569
173.357
111.255
149.888
138.324
182.674
177.537
203.518
177.53
121.041
147.889
154.121
314.264
236.383
259.932
241.394
291.497
264.363
286.917
312.41
247.775
231.906
252.091
288.85
275.025
270.8
324.108
253.748
293.263
255.254
295.026
263.048
220.243
267.732
332.495
299.365
264.138
299.38
267.743
230.242
144.89
152.086
189.899
184.576
215.399
175.454
139.324
83.7524
112.105
148.884
70.4155
110.163
81.5785
44.513
56.0024
129.834
85.139
57.7981
102.681
72.3983
32.2651
125.27
127.649
153.695
83.3649
116.226
85.8035
53.8269
118.573
109.891
145.512
76.0545
104.473
66.6033
41.1569
60.4618
132.375
92.9651
129.723
97.5829
136.545
163.837
41.1442
66.581
109.88
145.494
76.0337
118.56
104.44
148.92
70.4675
81.6098
83.7907
123.723
112.157
110.208
209.185
199.125
252.435
220.375
111.994
163.7
171.072
210.559
262.439
225.958
225.967
124.62
170.215
183.449
219.608
224.256
261.932
227.756
134.58
186.332
180.804
142.853
48.1131
93.952
57.8517
104.84
57.5436
20.6114
105.687
111.16
155.297
68.423
111.173
62.7061
27.3965
53.1604
7.94718
3.11146
14.0675
15.0595
38.7539
24.0628
27.3128
93.1592
54.2727
52.1147
6.04221
25.5443
21.5305
32.0375
42.069
72.156
44.1502
2.70174
19.7331
12.9987
66.1856
7.31142
27.7043
40.7335
1.5743
14.2414
11.2207
155.824
61.2985
61.6891
47.3645
98.3865
115.227
97.1694
21.6581
35.5842
59.4169
27.8684
1.08074
11.5825
5.08208
180.367
71.7567
81.9835
77.2965
121.406
133.4
127.241
13.6669
31.4281
69.1739
31.4366
1.74417
13.6707
7.71045
228.954
11.5726
170.47
185.948
239.152
120.222
152.547
166.915
26.3405
136.163
37.9573
210.812
109.575
143.156
19.5198
97.21
2.37446
62.0613
235.008
208.164
214.222
197.688
203.994
182.207
175.667
241.245
220.713
218.441
210.646
208.327
186.717
189.209
220.792
200.084
189.299
190.109
178.924
166.947
155.907
76.1972
0.655787
43.2293
14.2613
102.677
2.77033
0.0542287
99.4577
197.936
104.803
12.5142
57.5179
0.334066
2.11759
199.246
164.112
178.232
151.54
166.5
142.218
125.27
164.222
196.682
194.184
160.104
127.382
162.829
124.443
162.719
128.118
169.567
144.592
90.4112
98.5331
137.062
183.58
159.481
189.818
155.23
111
119.046
148.062
133.35
176.769
174.221
149.635
106.773
103.927
152.411
152.137
147.053
133.298
126.138
111.008
104.658
80.969
153.489
96.1383
141.673
79.6555
126.845
113.747
66.5595
175.28
130.964
164.73
100.225
138.317
125.709
86.7683
128.085
78.1785
1.76557
28.5111
24.4067
87.0121
1.76139
9.43221
171.254
146.015
151.413
167.921
190.526
124.093
98.0056
115.649
135.53
151.688
109.974
53.5791
91.242
70.9691
80.0942
108.951
126.943
97.6938
36.1478
79.0235
51.7236
157.298
174.172
158.753
128.583
113.08
127.987
80.5335
117.569
80.9414
35.9433
72.3702
69.7867
120.486
78.2545
112.103
57.2521
65.3578
32.009
64.7499
73.0676
103.904
129.84
72.4144
100.749
57.7939
85.1458
56.0292
32.2773
126.552
66.8621
94.1329
54.4743
79.8417
48.7083
27.511
34.5916
57.4923
105.858
114.668
140.272
91.606
65.3686
11.813
25.8265
47.5108
74.9462
99.9856
71.0251
47.6049
41.2908
69.4359
119.026
100.138
147.903
119.015
69.426
47.657
55.3802
92.9552
79.4477
12.434
36.5682
43.6688
115.61
53.9362
91.9896
35.8188
70.2436
48.3953
19.4928
87.8741
25.3389
64.7597
21.2488
58.7084
38.273
9.23881
0.00473601
0.818707
25.5531
6.28321
153.691
62.1853
165.357
8.83801
129.739
189.602
187.735
210.312
184.123
161.643
159.529
134.135
7.14487
28.257
3.96801
8.78292e-05
0.00319303
2.03194
0.0171296
99.8754
92.9232
129.8
136.223
161.484
129.798
99.8773
97.5909
136.551
163.847
92.9887
132.39
100.198
60.4743
116.217
85.8119
127.657
83.3538
125.264
95.1631
53.8301
63.8041
6.34046
18.7212
13.971
46.8984
24.8799
31.0218
142.812
57.5089
93.9031
57.8082
92.8358
48.0616
20.582
108.428
22.8522
63.8464
32.1206
76.5342
35.8649
7.46679
6.0475
27.3244
21.5477
52.1331
54.2964
93.1792
60.3716
20.7641
25.2197
49.682
28.2576
53.8125
90.484
60.0617
30.4246
30.4287
62.5591
31.7265
64.585
102.479
64.5892
60.0594
53.8152
90.4894
49.6903
25.2191
20.7684
6.28326
53.7831
17.5473
3.76334
49.8795
15.2794
84.7918
39.5699
25.9469
3.42351
0.598448
12.7251
3.42188
49.3766
25.9403
40.759
32.3449
66.2291
27.7363
1.57796
11.2339
7.32943
10.8622
20.9695
41.6106
19.8722
0.448234
2.52034
6.74289
18.3096
6.64301
0.374133
2.75999
9.38029
42.4852
23.2409
35.5622
27.845
59.3774
21.6268
1.07896
5.07209
8.20861
18.3747
7.56756
35.974
14.2815
0.28945
1.35337
4.72768
8.62678
5.76096
30.0393
15.1545
0.154111
1.5579
2.628
369.781
374.321
339.323
351.829
275.763
346.957
367.96
303.177
370.535
369.699
370.958
379.352
379.128
361.695
362.466
374.567
359.307
367.255
364.225
373.629
356.35
348.348
349.781
332.46
361.69
348.638
361.133
345.727
331.156
369.833
348.243
350.469
323.593
325.36
346.839
345.267
349.485
344.893
356.578
341.248
322.002
327.44
334.899
361.221
333.953
342.264
312.146
318.964
340.145
332.885
304.751
327.868
285.533
287.232
311.644
326.371
310.108
293.091
300.751
281.63
299.161
306.365
322.257
316.235
224.602
286.957
145.801
247.888
297.971
258.042
238.515
160.887
323.951
325.981
299.707
299.163
297.228
269.507
271.403
311.635
293.552
318.884
286.064
292.703
265.169
258.699
276.688
278.411
259.909
247.567
230.148
249.505
228.036
266.359
253.96
272.579
243.295
217.534
223.782
236.964
270.186
236.139
268.097
239.06
208.035
205.607
241.196
256.993
231.453
263.616
234.615
193.9
200.873
228.063
215.926
158.239
197.752
183.326
180.801
218.155
195.395
211.475
168.88
184.369
153.28
176.012
190.926
204.945
26.9751
30.8253
65.6789
25.5708
0.450113
5.82522
4.59392
0.760975
30.1405
8.07292
0.0697075
0.973075
8.6029
0.818474
0.315653
3.96727
22.1914
0.0440125
0.608688
6.93731
0.608704
0.318905
2.48111
0.46873
0.0285777
0.231585
18.7218
3.54866
2.57644
20.2367
46.0312
13.9048
0.160714
1.31723
2.80753
0.0697867
0.973339
7.14744
0.761534
8.07629
8.60394
30.1455
0.201839
3.17954
16.9373
4.6273
0.30486
0.0288429
0.481026
0.202137
1.3892
0.0838965
0.00970811
0.0664011
0.531624
8.66485
2.92579
134.283
0.464776
24.4165
0.199837
214.461
129.906
0.00318637
0.000111014
0.0526867
0.00086187
0.656196
2.22928
69.0776
3.76946
0.135702
0.251366
80.8461
5.61001
144.411
92.5593
0.00971775
29.6169
117.88
51.7623
2.71218
0.0856809
40.4446
0.0035281
9.1822
12.2014
0.0062504
3.26873
0.000100079
142.823
126.299
124.504
84.8992
83.5248
66.2234
67.6564
110.934
126.988
6.04597
0.00188838
5.95601
11.6264
0.00461322
139.452
115.193
120.84
75.6215
80.4619
63.1193
58.2723
164.24
50.6389
36.8482
339.582
288.814
200.939
149.183
127.138
107.476
97.6124
69.0021
60.6959
51.7794
43.8479
1.68052
100.399
3.52891
9.69979e-05
0.00100365
54.7086
0.198903
78.9007
104.943
103.015
47.9279
31.2287
29.9808
49.3253
106.353
71.6674
85.6112
39.9408
50.8801
34.7954
25.1544
330.733
301.306
297.222
292.549
288.368
248.861
257.518
93.1778
75.0046
99.1418
44.9613
23.558
27.3997
40.4107
11.1392
0.956772
32.6376
121.38
261.9
113.771
5.04418
312.373
252.074
247.724
275.006
270.746
231.87
208.849
5.31815
33.6811
32.7767
21.3886
2.47813
2.30911
22.2274
75.1042
61.245
85.1425
18.7454
34.4789
27.4787
13.4429
124.113
78.0635
83.0492
80.3518
75.5185
37.7499
39.7443
0.805656
0.0664694
0.227334
4.2537e-05
0.00491971
0.0121235
0.228946
27.4787
4.69097
30.7149
19.569
1.49206
1.96069
16.7967
56.327
76.7062
59.463
28.5078
17.5781
15.8056
8.04496
118.82
63.362
67.6206
75.2292
70.6252
33.8758
28.2913
3.55401
0.480963
19.7342
0.0114429
0.433027
3.81416e-05
0.00787323
205.739
259.715
251.005
205.721
165.891
156.85
214.443
4.66227e-05
37.0763
0.211576
0.0343546
0.63345
0.00710133
2.11213e-05
50.1082
41.0232
63.2783
19.896
4.27463
8.35686
12.5193
23.2099
1.71373
18.1868
1.01151
13.3138
9.51897
0.609422
251.175
192.218
242.448
201.274
156.089
147.122
209.976
87.2684
53.9983
57.7847
46.1292
42.9614
21.4915
14.2434
227.728
224.239
219.56
186.317
180.757
178.383
134.548
0.0337897
3.27787e-05
0.00242175
0.68585
65.6561
4.75184
0.031251
188.696
211.139
234.072
188.678
112.581
138.876
164.222
202.028
174.672
225.341
184.042
102.425
128.957
159.213
7.84962
0.949587
12.8383
5.93719
0.151776
0.325974
3.08798
11.3415
0.230132
4.75169
0.85547
4.39858
0.788843
11.9881
25.1477
25.1436
41.8423
3.04285
8.6227
3.04373
0.823807
71.8229
19.0844
20.7652
33.3961
30.944
7.70415
3.10123
53.7909
49.9018
84.8112
17.5521
39.5851
15.2928
3.7663
10.0005
2.74198
0.488344
0.188276
3.68799
0.657009
8.07343
22.837
18.4926
36.2798
1.702
6.44594
2.52377
0.547502
42.0578
44.1566
72.1452
32.0291
13.002
11.7451
2.70182
1.77503
0.322472
5.85107
3.70098
0.0474622
0.997132
0.187286
5.36309
33.0517
31.3103
8.69306
0.687091
9.57181
0.602473
41.4088
10.5761
39.3225
10.7748
1.25688
1.09142
11.8187
57.622
102.544
111.228
154.45
106.362
97.8495
163.458
22.9534
4.27093
27.8744
7.05036
0.293352
0.45526
4.9523
78.038
40.4833
85.388
180.914
137.444
129.889
85.3735
29.435
8.59793
35.2772
8.80524
0.504895
0.807939
6.25668
180.34
77.284
71.7202
133.385
127.197
81.9569
35.0436
170.733
70.2551
125.918
68.4196
124.449
80.1759
32.992
3.95161
0.072995
1.55299
0.0604092
1.28903
0.45739
0.0209555
20.6504
9.11494
10.0412
2.9358
3.25258
0.901912
0.216131
20.8863
6.25869
178.298
75.1763
0.420821
14.3727
65.3981
23.2593
161.168
136.702
150.478
130.354
115.937
103.3
81.1039
114.699
91.6507
140.313
78.2163
105.911
57.5396
34.6205
63.3989
83.9581
35.1064
14.4518
52.3594
34.5068
6.16725
115.555
53.4045
92.615
32.9581
66.7299
46.3839
17.8648
42.4341
32.2205
67.521
27.0001
1.48694
11.3119
6.72521
2.76403
9.39406
42.5186
18.3366
0.374863
6.65365
1.77009
85.0777
60.5141
19.6936
136.406
56.2506
80.4868
110.02
17.0417
0.806964
10.9432
0.160245
2.91269
1.39117
0.0736015
22.3171
1.65079
14.7427
0.266586
3.70938
1.77022
0.117836
1.89835
0.0929684
0.356669
0.889656
3.13739
24.4878
12.1575
1.96756
0.0411672
0.212601
0.0230386
0.490781
0.0941622
0.879982
0.802339
3.97021
11.4043
0.743819
0.0364107
0.153354
0.189038
25.5538
30.8164
26.95
5.82191
4.58583
6.73491
0.449475
1.21617e-05
0.0209944
0.000322116
9.28449e-07
5.88416e-06
0.000887223
8.90512e-06
0.0335558
0.00033768
8.04775e-06
8.05382e-06
0.000917926
7.22281e-07
4.75764e-06
6.84241
6.84443
25.8492
4.19129
0.4705
0.470679
0.0465169
2.6902
3.66109
20.3198
0.493563
5.6165
0.369832
0.0293025
4.78762
0.469238
18.7336
0.231935
2.48386
0.319102
0.0285809
3.17768
4.62709
16.93
0.201655
2.03007
0.304796
0.0288144
0.113999
0.330117
5.69906
0.546213
0.00940692
0.0286303
0.182073
0.0230982
0.141796
0.502514
0.141831
0.00160987
0.0368172
0.0062508
0.622346
3.14657
7.92044
0.678447
0.0136403
0.219682
0.0435562
40.6056
0.891622
9.48982
37.1249
84.6951
40.5951
9.48527
9.84928
0.681173
5.85686
29.2923
75.5889
38.532
8.19461
1.39121
0.532145
8.67142
1.76222
0.0839173
0.202288
0.00969224
6.58985
0.0669818
1.22668
0.0567167
1.03547
0.157473
0.00848541
0.0157321
0.078562
0.344018
0.116662
0.00110702
0.0249393
0.00516414
29.2399
29.2631
74.0026
36.5719
0.522184
7.63776
7.74849
8.0803
0.112213
1.82204
0.118897
0.689596
0.0439916
0.00753108
0.0207337
0.0785227
0.00389224
0.209828
0.0417247
0.862215
4.09688
0.982484
0.0929279
0.542052
0.315882
0.0307552
0.00518547
5.05283
0.12023
6.95288
1.54321
0.53583
0.0963573
0.0438867
0.00752369
0.536826
0.0439822
0.00756293
0.68627
0.120295
1.54454
6.95954
0.0627274
0.611702
0.0183925
0.0034727
0.0338805
0.170638
2.94795
0.032911
0.16336
0.0081483
0.00261769
0.0504329
0.0120831
0.000646721
0.935501
0.00403573
0.0597077
0.0796088
0.069214
1.07378
0.0521327
0.0123275
0.0530036
0.898097
0.00361638
0.059318
0.0139174
0.000861264
0.697842
0.0244396
0.0317468
0.00299853
0.0511158
0.0388458
0.441589
0.000443747
0.0656659
0.00563215
0.0780633
0.00562075
0.924249
0.0656176
0.00457947
0.571046
0.0497214
0.0341106
0.000305823
0.0031784
0.0030345
0.0666557
0.0529523
0.712391
0.041387
0.000331812
0.00398188
0.00320769
0.515186
0.641578
7.53448
0.0420259
0.00224923
0.641141
0.0337641
0.000323639
0.00305141
0.0341036
0.00458442
0.0496839
0.570713
0.052642
0.0129256
0.0165225
0.236659
0.106307
0.000477556
0.0057731
0.00723764
0.0501619
0.00254641
0.0462916
10.1646
0.0392571
0.736991
0.77818
0.302266
0.0163463
0.28573
0.025496
0.486297
0.0263993
0.00146345
0.00291009
0.03953
0.281592
0.0170936
0.00240657
0.00131274
0.000203564
0.27067
0.0170907
0.0165197
0.00208335
0.00211355
0.00110431
0.000156871
0.00134266
0.000229992
0.00243
0.0210067
0.00292855
0.281627
0.0395195
0.0334361
0.000322313
0.000387506
0.00162911
0.00680365
0.00838988
0.00149281
0.0241883
0.0108592
0.00121448
0.0241846
0.000166035
0.00248319
0.00121205
0.000648396
0.00686393
0.141695
0.0192005
0.000129721
0.000981494
0.00161377
0.117341
0.000658577
0.0063427
0.0171669
0.000132347
0.000971811
0.00165764
0.144917
0.0133609
0.000780896
0.0180346
0.000139872
0.00101712
0.00167622
0.00384175
0.0244971
0.00305999
0.00110344
4.90428e-05
0.000196423
0.000163571
0.0399547
0.000717263
0.000200449
0.000866926
0.00218715
0.0127505
0.00265763
0.00176653
0.0061136
0.000352594
0.00249748
7.01231e-05
0.000466739
0.000175369
0.0421189
0.00244499
0.000450124
0.00280246
8.23072e-05
0.000217384
0.000512808
0.000327135
0.00179264
8.78655e-05