/*--------------------------------*- C++ -*----------------------------------*\
  =========                 |
  \\      /  F ield         | OpenFOAM: The Open Source CFD Toolbox
   \\    /   O peration     | Website:  https://openfoam.org
    \\  /    A nd           | Version:  9
     \\/     M anipulation  |
\*---------------------------------------------------------------------------*/
FoamFile
{
    format      ascii;
    class       volScalarField;
    location    "0.0001";
    object      alpha.c4;
}
// * * * * * * * * * * * * * * * * * * * * * * * * * * * * * * * * * * * * * //

dimensions      [0 0 0 0 0 0 0];

internalField   nonuniform List<scalar> 
1957
(
4.88896e-107
1.9606e-110
6.54752e-92
1.0114e-88
1.46728e-85
1.99023e-82
2.36806e-93
3.67901e-90
5.34312e-87
7.22444e-84
1.44157e-95
2.26457e-92
3.3184e-89
4.51744e-86
5.29012e-98
8.41713e-95
1.24776e-91
1.71624e-88
1.36378e-100
2.19931e-97
3.30207e-94
4.5964e-91
2.68057e-103
4.38251e-100
6.66798e-97
9.4011e-94
4.22654e-106
7.00531e-103
1.08035e-99
1.54346e-96
5.53415e-109
9.29706e-106
1.45327e-102
2.10424e-99
6.17105e-112
1.05035e-108
1.66383e-105
2.44156e-102
5.97911e-115
1.03051e-111
1.65364e-108
2.4588e-105
6.02303e-97
4.50729e-110
1.87745e-113
6.92522e-128
7.65108e-125
8.31799e-128
8.61994e-125
7.87584e-122
4.03771e-113
1.65217e-116
1.00575e-106
1.13456e-103
9.42068e-110
5.0859e-98
7.89102e-95
1.14868e-91
1.56293e-88
1.78804e-99
2.81989e-96
4.15408e-93
5.69383e-90
1.05705e-101
1.69321e-98
2.52871e-95
3.50672e-92
3.76763e-104
6.12667e-101
9.27986e-98
1.30377e-94
3.40733e-97
6.7911e-100
1.0858e-102
3.53138e-115
6.07015e-112
9.71624e-109
1.44144e-105
3.84246e-118
6.68603e-115
1.08388e-111
1.62909e-108
3.63892e-121
6.40399e-118
1.05066e-114
1.599e-111
1.63604e-93
1.52989e-90
1.27491e-87
1.14584e-93
9.67184e-91
2.2563e-96
2.13606e-93
1.80212e-90
1.54109e-96
1.31543e-93
2.65216e-99
2.54345e-96
2.1732e-93
1.79798e-99
1.55497e-96
2.70697e-102
2.63016e-99
2.27645e-96
1.83086e-102
1.60441e-99
9.43789e-107
1.55737e-103
2.39255e-100
6.92782e-110
1.15664e-106
1.79767e-103
2.59202e-100
3.45516e-97
4.23786e-94
1.80375e-109
3.01896e-106
4.7035e-103
1.30233e-112
2.20486e-109
3.47588e-106
5.08025e-103
6.85468e-100
8.49701e-97
2.7679e-112
4.69636e-109
7.41804e-106
1.97085e-115
3.38149e-112
5.40337e-109
8.00425e-106
1.09424e-102
1.37356e-99
2.48308e-118
4.31402e-115
6.9831e-112
1.04813e-108
1.45194e-105
1.84667e-102
2.67106e-121
4.69473e-118
7.69246e-115
1.16928e-111
1.64087e-108
2.11451e-105
2.50348e-124
4.44709e-121
7.36962e-118
1.13366e-114
1.61081e-111
2.10252e-108
9.62454e-94
1.57412e-96
2.14378e-99
2.4872e-102
2.50553e-105
6.98585e-100
6.25926e-97
4.87929e-103
4.83275e-100
3.01658e-106
3.09406e-103
2.20482e-109
2.2911e-106
1.27893e-112
1.30461e-109
6.39307e-116
6.34184e-113
7.37068e-103
6.50428e-100
4.9412e-106
4.57568e-103
3.09355e-109
2.95646e-106
1.95456e-112
1.90313e-109
1.1389e-115
1.108e-112
5.98321e-119
5.74573e-116
7.62965e-106
6.76955e-103
4.74142e-109
4.30731e-106
2.83009e-112
2.6275e-109
1.65112e-115
1.55777e-112
9.20723e-119
8.74e-116
4.79931e-122
4.54172e-119
7.29204e-109
6.5458e-106
4.29009e-112
3.90837e-109
2.42789e-115
2.24508e-112
1.33157e-118
1.24695e-115
7.04579e-122
6.64962e-119
3.55498e-125
3.36213e-122
8.64825e-97
7.31904e-94
1.06373e-99
9.15693e-97
1.19296e-102
1.04299e-99
1.18794e-105
1.05331e-102
4.30686e-104
1.11764e-100
1.71818e-97
2.5005e-94
3.48366e-91
7.07842e-107
5.03714e-107
8.33972e-104
1.3094e-100
1.95737e-97
7.58274e-95
2.74483e-113
3.90484e-115
9.11864e-120
1.68115e-126
2.59626e-126
1.57185e-131
2.29124e-132
2.66682e-129
2.82795e-126
1.16687e-130
7.57331e-132
7.53234e-129
6.0105e-126
3.26082e-123
4.44885e-134
5.52342e-135
8.29038e-132
1.56465e-128
3.81931e-125
1.28913e-137
6.11314e-138
1.56263e-134
4.2685e-131
1.17192e-127
1.48818e-105
2.6136e-105
4.50685e-102
1.10055e-95
3.9884e-95
2.36579e-108
1.70438e-108
3.07195e-105
5.4946e-102
9.95626e-99
2.62035e-96
8.90005e-115
1.4606e-116
1.35871e-113
2.7316e-110
5.57101e-107
2.89974e-121
2.05101e-123
3.44891e-123
3.09443e-120
7.18493e-117
4.36803e-124
5.54939e-127
1.45098e-125
1.60034e-122
1.39675e-119
1.871e-127
1.71316e-128
2.03322e-125
1.9938e-122
1.39915e-119
5.73455e-131
6.98845e-132
8.2513e-129
8.12515e-126
6.15307e-123
1.6186e-134
2.84197e-135
3.75481e-132
5.0815e-129
8.49085e-126
1.49834e-110
1.42707e-107
1.48722e-104
9.49373e-101
1.77662e-97
5.35511e-114
1.62865e-113
1.76315e-110
9.81573e-108
1.3811e-104
1.49042e-117
1.08427e-119
5.68965e-117
3.47946e-114
5.42686e-111
3.99539e-121
2.78074e-122
3.37959e-119
3.49423e-116
2.67285e-113
1.03186e-124
1.4245e-125
1.77871e-122
1.91931e-119
1.74078e-116
2.57019e-128
5.63923e-129
7.1414e-126
7.7476e-123
6.61417e-120
6.17987e-132
2.13214e-132
2.7502e-129
3.07744e-126
2.91572e-123
2.25726e-113
3.50747e-110
6.01819e-107
1.11944e-103
2.01174e-100
1.61796e-97
1.5059e-116
2.09387e-113
3.75215e-110
6.47953e-107
9.52684e-104
7.84527e-120
1.13012e-116
1.98057e-113
3.11783e-110
3.91052e-107
3.64308e-123
5.46809e-120
9.15567e-117
1.31794e-113
1.45175e-110
1.56167e-126
2.41881e-123
3.89904e-120
5.3962e-117
6.21585e-114
6.25448e-130
9.86627e-127
1.54005e-123
2.06094e-120
2.29145e-117
2.35113e-133
3.73776e-130
5.66364e-127
7.30777e-124
7.65214e-121
3.63022e-116
6.27088e-113
1.0529e-109
1.7029e-106
2.59833e-103
3.73962e-100
2.80657e-119
5.68646e-116
1.0062e-112
1.68737e-109
2.62377e-106
3.88628e-103
1.92206e-122
4.02615e-119
7.11242e-116
1.15798e-112
1.69734e-109
2.23834e-106
1.14862e-125
2.40156e-122
4.18738e-119
6.69007e-116
9.82642e-113
1.40805e-109
6.08376e-129
1.25633e-125
2.15732e-122
3.38157e-119
4.83896e-116
6.29799e-113
2.89727e-132
5.88592e-129
9.92512e-126
1.51407e-122
2.05949e-119
2.37412e-116
1.254e-135
2.50194e-132
4.13118e-129
6.09482e-126
7.81014e-123
8.03865e-120
5.8191e-119
1.0194e-115
1.68453e-112
2.61721e-109
3.81771e-106
5.26668e-103
3.93238e-122
7.28428e-119
1.26427e-115
2.08298e-112
3.27196e-109
4.99826e-106
7.61353e-103
2.58967e-125
4.97681e-122
8.8498e-119
1.48111e-115
2.32711e-112
3.42866e-109
4.61235e-106
1.58286e-128
3.09081e-125
5.53491e-122
9.26156e-119
1.44235e-115
2.06992e-112
2.59658e-109
8.79973e-132
1.72373e-128
3.07673e-125
5.08863e-122
7.7226e-119
1.04899e-115
1.18981e-112
4.43146e-135
8.64542e-132
1.52783e-128
2.47711e-125
3.62746e-122
4.64539e-119
4.90409e-116
2.02706e-138
3.92343e-135
6.83833e-132
1.08258e-128
1.52716e-125
1.85956e-122
1.88655e-119
8.20154e-122
1.44617e-118
2.38686e-115
3.67344e-112
5.25528e-109
6.96718e-106
5.06651e-125
9.20286e-122
1.57148e-118
2.52335e-115
3.80725e-112
5.38788e-109
7.04574e-106
3.08343e-128
5.77594e-125
1.01646e-121
1.68157e-118
2.60189e-115
3.72303e-112
4.78438e-109
1.8065e-131
3.4614e-128
6.20445e-125
1.04e-121
1.61556e-118
2.28548e-115
2.845e-112
9.94164e-135
1.93026e-131
3.48769e-128
5.8576e-125
9.05801e-122
1.27406e-118
1.62773e-115
5.06012e-138
9.88633e-135
1.78869e-131
2.99283e-128
4.59706e-125
6.46535e-122
8.52488e-119
2.36728e-141
4.63497e-138
8.37021e-135
1.39309e-131
2.12916e-128
3.01e-125
4.0844e-122
9.92401e-125
1.76365e-121
2.92769e-118
4.519e-115
6.45629e-112
8.49032e-109
5.83587e-128
1.05662e-124
1.7925e-121
2.83898e-118
4.17947e-115
5.67902e-112
7.02469e-109
3.33768e-131
6.183e-128
1.07491e-124
1.74693e-121
2.63661e-118
3.65457e-115
4.5666e-112
1.85083e-134
3.50463e-131
6.21974e-128
1.02928e-124
1.57395e-121
2.19363e-118
2.73729e-115
9.81626e-138
1.89195e-134
3.40722e-131
5.7011e-128
8.7851e-125
1.23454e-121
1.57424e-118
4.90677e-141
9.583e-138
1.74324e-134
2.9386e-131
4.56154e-128
6.49915e-125
8.54518e-122
2.2889e-144
4.51523e-141
8.27753e-138
1.40489e-134
2.20103e-131
3.19052e-128
4.31772e-125
1.0381e-127
1.86073e-124
3.1146e-121
4.84493e-118
6.96927e-115
9.21671e-112
5.9346e-131
1.07766e-127
1.83027e-124
2.89378e-121
4.23683e-118
5.70459e-115
6.99676e-112
3.25665e-134
6.01199e-131
1.03919e-127
1.67358e-124
2.49519e-121
3.414e-118
4.23908e-115
1.72352e-137
3.24028e-134
5.70188e-131
9.33727e-128
1.41215e-124
1.9533e-121
2.44601e-118
8.76246e-141
1.67704e-137
2.99924e-134
4.9812e-131
7.62494e-128
1.06724e-124
1.35824e-121
4.24262e-144
8.25379e-141
1.49756e-137
2.51926e-134
3.90543e-131
5.55279e-128
7.22843e-125
1.94009e-147
3.83059e-144
7.04467e-141
1.20071e-137
1.88875e-134
2.73617e-131
3.64678e-128
9.51943e-131
1.72081e-127
2.90591e-124
4.5618e-121
6.62399e-118
8.84576e-115
5.34584e-134
9.7616e-131
1.66633e-127
2.64639e-124
3.88995e-121
5.25912e-118
6.49144e-115
2.85563e-137
5.27966e-134
9.12911e-131
1.46903e-127
2.18756e-124
2.9936e-121
3.73511e-118
1.45991e-140
2.73911e-137
4.80455e-134
7.83721e-131
1.18154e-127
1.63445e-124
2.05958e-121
7.15054e-144
1.36341e-140
2.42772e-137
4.0145e-134
6.12688e-131
8.5745e-128
1.09437e-124
3.34444e-147
6.48466e-144
1.17265e-140
1.96688e-137
3.04302e-134
4.32047e-131
5.60671e-128
1.4866e-150
2.93137e-147
5.3862e-144
9.17532e-141
1.44223e-137
2.08329e-134
2.75414e-131
2.27251e-106
1.96138e-112
5.21211e-112
5.02859e-107
2.26784e-106
1.98699e-112
7.62782e-112
3.71819e-103
1.07073e-109
9.15836e-109
8.32528e-104
3.71018e-103
1.12423e-109
1.34397e-108
6.69659e-100
1.80834e-106
1.65758e-105
1.30705e-100
6.68157e-100
1.90279e-106
2.38507e-105
3.76616e-97
2.90273e-103
8.78118e-103
1.95375e-97
3.75868e-97
3.06486e-103
1.20231e-102
1.21067e-100
7.5695e-95
1.27902e-100
1.36288e-112
1.61254e-116
2.2031e-121
2.73735e-113
1.35958e-112
1.60653e-116
1.27234e-120
1.38847e-123
3.92494e-115
3.63956e-123
2.82402e-128
6.49519e-137
7.17251e-126
3.14163e-128
8.5092e-129
5.7505e-135
3.24664e-134
1.51952e-126
9.48378e-126
6.80506e-132
5.36168e-131
1.35422e-123
2.32213e-122
8.41911e-129
1.29284e-127
3.17519e-120
6.35817e-119
1.31374e-115
1.32099e-120
1.24596e-122
1.50797e-114
7.86795e-114
9.15519e-118
5.97778e-117
2.73747e-112
8.2895e-121
1.41974e-119
2.87417e-111
9.51572e-111
1.72532e-114
6.28557e-114
6.13277e-109
7.70986e-118
3.26928e-116
2.18212e-108
1.94307e-107
1.32607e-111
1.32579e-110
2.29419e-106
1.77322e-114
6.3406e-113
4.28495e-105
2.3935e-104
2.6851e-108
1.72417e-107
7.07693e-107
4.48874e-110
4.48046e-110
7.07494e-107
7.07344e-107
4.48132e-110
4.47585e-110
7.56496e-118
3.90643e-115
7.57064e-118
2.81266e-124
4.96028e-123
1.1248e-125
9.07618e-120
1.90932e-123
4.93365e-123
1.16049e-125
1.39121e-131
1.44009e-128
1.68252e-126
1.43939e-128
1.39138e-131
8.03867e-133
1.63451e-136
2.26892e-133
5.75979e-136
7.70194e-130
1.59297e-133
2.13631e-130
5.73717e-133
1.93715e-126
4.23507e-130
5.47053e-127
1.49797e-129
1.46529e-134
3.18971e-133
1.89573e-134
4.38805e-130
1.70298e-131
2.73194e-130
1.53483e-131
9.17289e-132
1.07448e-131
2.01905e-131
6.15256e-129
2.05049e-128
5.37773e-129
1.87596e-128
1.28576e-128
9.61111e-129
1.71487e-128
6.91505e-126
2.89244e-125
6.18841e-126
1.80347e-125
2.27403e-125
6.16993e-126
7.72908e-126
7.07709e-123
5.14885e-122
5.2816e-123
7.69781e-123
1.0414e-107
1.03278e-113
8.43795e-113
1.66527e-108
9.93433e-108
1.03789e-111
8.90653e-111
1.92937e-104
1.17352e-110
1.6916e-109
2.97203e-105
1.83128e-104
1.89962e-108
1.36907e-107
4.24344e-101
2.26941e-107
3.70571e-106
5.27261e-102
3.45606e-101
3.4717e-105
2.68793e-104
1.84035e-98
4.44739e-104
1.41287e-103
9.63471e-99
3.37226e-98
6.58608e-102
3.23228e-101
1.28156e-101
7.6226e-96
5.48586e-99
8.87118e-115
5.17492e-118
4.93615e-118
8.28855e-115
8.28986e-115
6.42017e-117
6.41723e-117
3.34206e-117
6.85471e-117
2.47921e-117
1.45546e-116
1.29042e-119
6.74872e-117
1.68882e-117
6.62795e-114
1.38869e-113
1.66797e-116
1.21401e-113
2.14856e-116
1.24532e-113
1.73154e-114
5.27297e-111
2.81243e-110
3.29889e-113
1.70588e-110
3.77724e-113
2.49065e-110
1.44834e-111
1.07685e-107
5.62246e-107
7.0054e-110
3.52597e-107
7.83888e-110
5.0599e-107
3.01933e-108
3.6574e-125
1.23001e-126
3.68862e-126
5.06339e-121
3.72359e-120
1.08463e-123
2.18906e-123
4.06407e-122
7.64856e-124
4.09037e-123
1.00034e-117
3.94176e-117
5.35345e-121
2.35924e-120
9.70006e-119
6.56365e-121
9.645e-120
7.80161e-115
8.58484e-114
4.38727e-118
5.3105e-117
2.27534e-115
1.48007e-117
2.31928e-116
1.62009e-111
1.28343e-110
9.45174e-115
8.89768e-114
1.5979e-109
4.90147e-110
1.97284e-112
1.95951e-112
4.87302e-110
1.97279e-112
1.59792e-109
7.17723e-109
3.17324e-109
8.75667e-112
5.20724e-112
3.13022e-109
8.75652e-112
7.17737e-109
1.5953e-109
3.29025e-112
5.15102e-110
5.4644e-113
1.58792e-109
1.95695e-112
4.37918e-110
7.16466e-109
2.33288e-111
3.41495e-109
2.3159e-112
1.06113e-108
8.75686e-112
1.86094e-109
2.74924e-106
8.39961e-107
3.5295e-109
1.0706e-109
8.34832e-107
3.52941e-109
2.74929e-106
1.22023e-105
5.36136e-106
1.54802e-108
9.14288e-109
5.28055e-106
1.54799e-108
1.22026e-105
2.74458e-106
3.44716e-109
8.84025e-107
9.59499e-110
2.72788e-106
3.49791e-109
7.40282e-107
1.21796e-105
4.11204e-108
5.7904e-106
4.05034e-109
1.80188e-105
1.54791e-108
3.12665e-106
4.48745e-103
1.36479e-103
6.00176e-106
1.80745e-106
1.35554e-103
6.00158e-106
4.48754e-103
2.28171e-102
9.57388e-103
3.0069e-105
1.65438e-105
9.42997e-103
3.00684e-105
2.28176e-102
4.47948e-103
5.83972e-106
1.4396e-103
1.61086e-106
4.44751e-103
5.9391e-106
1.19334e-103
2.27756e-102
7.3137e-105
1.03433e-102
7.91888e-106
3.21869e-102
3.00644e-105
5.88607e-103
6.93612e-100
2.10756e-100
9.53225e-103
2.89935e-103
2.0911e-100
9.532e-103
6.93628e-100
1.33229e-99
5.14572e-100
1.82601e-102
8.76532e-103
5.07503e-100
1.82598e-102
1.33232e-99
6.9236e-100
9.41351e-103
2.23164e-100
2.58882e-103
6.90217e-100
9.49894e-103
1.85384e-100
1.3305e-99
3.66992e-102
5.5413e-100
4.88679e-103
1.72282e-99
1.8251e-102
3.50082e-100
2.82822e-97
8.46435e-98
4.08714e-100
1.20917e-100
8.39551e-98
4.08706e-100
2.82829e-97
2.82577e-97
3.93239e-100
8.96638e-98
1.0909e-100
2.7763e-97
4.08255e-100
7.37642e-98
2.39965e-115
1.36248e-112
1.59937e-115
1.36288e-112
1.36248e-112
1.59936e-115
2.39966e-115
3.16245e-118
1.80599e-118
2.22061e-119
2.20294e-121
1.80598e-118
2.2183e-119
3.16246e-118
2.39605e-115
1.36153e-112
1.35919e-112
1.61172e-115
1.36113e-112
1.59787e-115
2.40678e-115
3.15698e-118
2.28301e-121
1.82389e-118
1.75347e-119
1.80438e-118
2.88968e-119
3.16806e-118
1.1062e-120
1.38967e-123
1.1072e-120
5.45753e-115
8.98838e-118
9.31076e-118
1.59591e-123
1.17832e-120
1.29517e-120
1.36247e-134
1.42023e-137
3.6485e-135
1.29317e-134
2.73609e-131
2.82673e-128
2.73695e-131
2.8241e-128
2.82681e-128
2.73693e-131
2.73578e-131
2.92125e-134
2.98582e-137
2.55008e-134
7.28448e-135
8.32614e-135
2.92697e-134
2.54735e-134
1.96077e-131
1.91077e-126
7.75163e-127
1.91801e-128
1.51187e-129
9.72545e-133
6.08053e-129
4.7908e-132
1.27067e-129
2.99661e-131
2.91208e-128
3.21747e-128
2.39147e-129
2.91529e-128
3.0904e-131
2.39386e-129
5.25695e-132
9.0375e-132
8.52717e-129
7.06142e-129
8.97422e-132
5.29039e-132
7.06594e-129
9.12289e-133
3.36338e-135
4.48604e-132
6.59064e-136
8.81957e-133
6.21049e-136
5.78436e-135
8.75424e-133
8.61866e-133
8.9431e-133
6.38983e-136
4.64826e-132
7.91645e-135
2.38832e-134
8.1739e-132
9.15258e-132
4.69139e-132
3.35361e-135
1.08364e-129
3.90146e-127
3.03015e-130
1.40975e-126
1.21228e-129
7.13086e-126
5.76129e-129
1.55289e-126
1.18342e-129
1.17791e-129
1.52062e-126
1.52749e-126
1.16522e-129
1.19833e-129
1.52959e-126
6.26458e-129
9.94018e-129
9.50475e-126
8.14547e-126
9.83957e-129
6.30513e-129
8.15096e-126
2.47914e-129
9.24557e-132
1.1875e-128
1.85919e-132
8.7583e-130
6.19605e-133
6.87681e-132
8.43768e-130
8.27424e-130
8.95145e-130
6.64294e-133
1.22842e-128
2.162e-131
3.90173e-131
2.14537e-128
2.41494e-128
1.23465e-128
9.1749e-132
9.98238e-127
3.42553e-124
2.75521e-127
1.24796e-123
3.17335e-126
1.74853e-122
1.46809e-125
3.9153e-123
1.12138e-126
1.09314e-126
1.35523e-123
1.37422e-123
1.07804e-126
1.14682e-126
1.37617e-123
1.59436e-125
2.51472e-125
2.32747e-122
1.99588e-122
2.50074e-125
1.59946e-125
1.99729e-122
4.48988e-126
3.54317e-129
2.21192e-126
1.62119e-129
8.59975e-129
2.11348e-126
2.09491e-126
2.25632e-126
1.73507e-129
3.29909e-125
8.02451e-128
7.42958e-125
3.30923e-125
2.553e-128
2.41769e-123
8.12481e-121
6.79181e-124
2.90961e-120
5.44502e-123
7.44883e-119
6.36834e-120
2.72878e-123
2.64104e-123
3.17768e-120
3.22694e-120
2.62713e-123
2.78497e-123
3.23168e-120
4.12707e-122
8.13486e-122
6.37893e-119
4.97968e-119
4.13591e-122
4.98302e-119
4.2433e-117
4.0959e-116
1.91515e-118
7.8179e-116
4.77403e-119
3.30057e-116
1.58494e-116
5.53495e-120
3.9782e-120
1.79531e-123
1.7924e-120
2.2034e-122
5.08075e-120
4.94789e-121
1.72829e-119
2.69626e-121
2.96832e-123
1.37594e-119
6.38119e-122
3.55764e-119
3.51246e-120
6.04595e-114
8.5325e-113
4.10973e-115
1.316e-112
1.00937e-115
6.05254e-113
2.37988e-113
1.12102e-116
2.25845e-119
2.45896e-120
9.38248e-118
3.27839e-119
5.47125e-117
2.81361e-117
2.07082e-116
5.75521e-118
3.41599e-120
1.48929e-116
1.26801e-118
4.57843e-116
3.80939e-117
1.33013e-110
2.10925e-109
9.4778e-112
2.90613e-109
2.57804e-112
1.39593e-109
5.06696e-110
9.211e-114
4.10197e-116
2.79545e-117
8.14575e-115
5.07078e-116
4.73996e-114
3.06985e-114
4.60533e-113
1.37083e-114
8.10222e-117
3.27791e-113
3.30184e-115
1.01116e-112
8.6478e-114
1.5278e-107
1.03782e-106
4.36591e-109
2.79945e-106
1.40449e-109
1.19963e-106
7.07391e-107
1.9485e-110
9.06142e-113
6.12216e-114
1.80114e-111
1.09324e-112
1.00922e-110
6.4645e-111
5.97705e-110
8.01886e-112
1.09068e-113
4.93107e-110
2.19292e-112
1.49604e-109
1.1429e-110
2.66993e-121
7.51407e-124
5.02094e-124
5.03945e-120
5.03367e-120
1.44243e-120
8.76506e-121
5.07232e-126
6.87404e-124
3.57823e-123
9.97667e-127
1.55925e-123
3.84733e-124
1.72589e-123
6.85439e-123
4.86082e-124
3.14368e-120
1.76935e-123
5.18013e-120
2.13707e-120
5.82766e-121
7.48182e-120
4.12178e-121
2.64285e-117
1.50437e-120
5.18232e-117
1.73776e-117
4.75165e-118
1.69505e-116
9.40307e-118
5.83705e-114
3.37526e-117
1.12845e-113
3.75241e-114
1.04189e-114
1.19273e-125
7.43757e-126
2.50651e-122
1.64041e-126
1.12684e-122
2.03551e-123
7.81209e-123
1.39241e-122
8.50715e-123
2.72543e-119
1.9286e-123
1.25257e-119
2.29694e-120
8.96817e-120
3.34766e-119
2.00649e-119
6.22035e-116
4.68355e-120
2.87552e-116
5.36932e-117
2.03242e-116
5.06357e-116
6.23377e-116
1.07429e-112
7.26146e-117
4.28662e-113
7.95706e-114
4.09701e-113
6.96973e-100
8.4935e-103
1.01941e-105
1.11274e-108
1.07923e-111
2.33475e-100
7.63173e-104
2.42195e-103
1.11706e-100
2.33288e-100
7.61794e-104
2.41623e-103
3.55606e-97
1.21781e-100
3.82093e-100
1.71725e-97
3.55312e-97
1.21557e-100
3.81148e-100
5.15827e-94
1.84052e-97
7.0199e-97
2.49909e-94
5.15388e-94
1.83702e-97
7.00213e-97
4.4723e-91
2.65727e-94
4.17669e-94
3.48163e-91
4.46959e-91
2.65208e-94
4.16765e-94
1.03982e-128
1.4754e-129
1.73884e-130
3.01525e-126
4.45388e-127
4.36442e-127
4.34942e-127
2.36582e-108
1.47972e-111
1.44704e-111
2.33129e-108
2.33083e-108
1.42135e-111
1.42084e-111
2.76525e-128
1.65775e-127
3.42085e-128
2.87768e-125
4.63552e-125
2.78886e-125
4.50895e-125
3.3281e-125
1.39472e-125
4.09464e-125
3.51946e-122
5.56221e-122
3.49075e-122
5.42311e-122
3.58054e-122
1.55009e-122
3.85479e-122
3.76865e-119
5.65419e-119
3.74394e-119
5.33541e-119
3.77224e-119
1.27593e-119
1.72454e-119
3.02686e-116
4.4678e-116
2.97328e-116
3.27136e-116
5.47216e-113
1.65116e-116
3.66307e-116
5.0677e-114
1.99917e-113
1.79371e-116
4.41766e-116
3.53588e-110
1.01971e-113
2.39298e-113
5.73919e-111
3.02058e-110
1.76516e-113
7.89653e-113
5.62912e-107
5.94502e-111
3.94012e-110
9.1082e-108
7.21814e-107
3.14247e-110
1.55356e-109
1.34942e-103
8.81482e-108
1.02346e-106
1.50343e-104
1.7723e-103
5.66818e-107
3.21768e-106
2.2753e-119
8.53217e-121
2.19409e-122
2.36963e-119
5.27573e-119
5.0475e-120
1.59138e-119
1.53084e-116
6.14948e-120
2.43022e-119
3.18076e-116
9.60516e-116
7.1361e-117
2.85147e-116
2.61353e-113
7.19221e-117
4.03297e-116
5.41601e-113
1.72773e-112
1.16784e-113
4.48673e-113
7.24934e-110
1.02939e-113
9.08075e-113
8.11313e-110
3.17965e-109
1.52641e-110
6.9417e-110
4.88037e-122
1.26901e-125
2.8125e-124
4.87868e-122
1.26771e-125
1.18451e-122
1.18616e-122
2.98383e-124
4.39735e-122
2.23363e-124
5.5952e-122
1.66473e-125
1.5463e-122
9.27272e-123
5.16786e-111
6.10322e-114
7.88409e-114
5.19159e-111
3.02454e-114
1.70026e-111
1.68686e-111
4.32288e-110
3.66543e-113
4.22979e-113
3.14511e-110
1.72128e-113
1.02004e-110
1.39692e-110
9.67744e-108
1.1899e-110
4.75573e-111
9.73768e-108
4.95608e-111
3.18944e-108
3.15882e-108
8.33708e-107
7.34299e-110
7.72627e-110
6.05984e-107
3.32089e-110
1.96381e-107
2.69383e-107
1.80009e-104
2.31265e-107
9.78842e-108
1.81519e-104
1.62126e-107
5.94905e-105
5.8774e-105
1.83246e-103
1.74548e-106
1.66434e-106
1.38621e-103
7.69168e-107
4.5058e-104
5.93847e-104
3.39277e-101
4.46861e-104
1.95386e-104
3.39741e-101
3.17264e-104
1.1147e-101
1.10858e-101
7.55748e-101
8.24408e-104
1.40933e-103
6.27252e-101
4.93361e-104
2.04722e-101
2.45659e-101
9.33917e-99
1.2969e-101
1.89837e-101
9.38625e-99
1.92621e-101
3.11282e-99
3.05066e-99
6.33e-98
9.37288e-95
1.31421e-91
1.7628e-88
2.65343e-107
3.00386e-104
2.89067e-101
4.37643e-98
6.46147e-95
2.82391e-110
4.4701e-107
6.68047e-104
1.05331e-100
1.21802e-97
1.53282e-94
3.94271e-102
1.28289e-104
8.40205e-102
4.00476e-102
8.60346e-102
2.71054e-105
8.96481e-105
6.5773e-99
6.67654e-99
1.45627e-98
2.27502e-101
1.42435e-98
4.69788e-102
1.58816e-101
2.48626e-95
4.12293e-98
2.43769e-95
7.71432e-99
1.08551e-95
8.05717e-99
3.76487e-98
2.85247e-92
1.85884e-92
2.20344e-92
1.3576e-95
1.83678e-92
1.40739e-95
1.94713e-95
4.68767e-107
2.40549e-107
7.62784e-107
2.8166e-110
7.28804e-110
8.6573e-111
2.86968e-110
4.70031e-104
2.92631e-104
6.26012e-104
2.9363e-107
4.89593e-107
9.41611e-108
4.08648e-107
9.6371e-101
2.15343e-101
2.3896e-101
1.56234e-104
7.57372e-104
1.42958e-104
9.98827e-104
1.77584e-97
3.02054e-98
3.25421e-98
2.08482e-101
1.63797e-100
2.26136e-101
2.28566e-100
8.9865e-95
8.98553e-95
6.36916e-98
6.37668e-98
4.03491e-101
1.42367e-102
2.32964e-99
3.72872e-96
5.9037e-93
9.576e-90
8.56642e-105
1.46696e-101
2.17579e-98
2.88886e-95
3.85589e-92
5.06625e-113
8.49826e-110
1.33614e-106
1.96867e-103
2.6406e-100
3.37681e-97
8.85781e-116
1.51604e-112
2.42091e-109
3.59183e-106
4.9266e-103
6.2587e-100
1.30579e-118
2.26521e-115
3.66334e-112
5.49805e-109
7.62467e-106
9.72977e-103
1.61982e-121
2.84342e-118
4.65394e-115
7.06862e-112
9.91635e-109
1.27826e-105
1.72173e-124
3.05513e-121
5.05744e-118
7.77206e-115
1.10339e-111
1.43929e-108
1.59746e-127
2.86257e-124
4.78869e-121
7.44143e-118
1.06884e-114
1.41113e-111
8.00387e-103
5.20296e-106
2.98233e-109
2.04732e-112
1.15324e-115
5.71259e-119
7.71515e-106
5.03305e-109
3.03048e-112
1.84169e-115
1.04773e-118
5.45299e-122
7.72806e-109
4.72858e-112
2.76023e-115
1.57176e-118
8.6017e-122
4.43836e-125
7.25627e-112
4.21781e-115
2.35198e-118
1.26931e-121
6.62108e-125
3.30769e-128
9.27585e-100
1.10381e-102
1.21618e-105
1.19398e-108
1.20327e-96
1.60619e-99
1.85145e-102
1.86115e-105
2.8391e-107
4.68341e-104
7.15764e-101
1.01545e-97
1.34172e-94
1.63601e-91
7.32298e-97
1.13561e-99
1.50479e-102
1.71437e-105
1.70174e-108
8.68622e-91
4.27504e-92
7.3562e-88
7.34938e-88
8.66237e-91
1.24756e-88
9.9525e-92
1.24745e-88
9.93668e-92
1.85585e-85
4.87485e-92
1.0238e-92
1.32281e-89
2.52882e-89
4.39595e-90
8.8826e-90
1.18066e-92
3.54373e-93
6.61459e-87
4.74578e-89
3.07969e-70
2.72151e-67
2.87647e-73
2.55693e-70
2.47487e-76
2.21046e-73
1.07412e-71
9.38362e-69
1.02139e-74
8.98496e-72
8.92459e-78
7.90408e-75
6.78019e-74
5.92066e-71
6.46097e-77
5.68902e-74
5.64558e-80
5.01324e-77
2.65217e-76
2.32696e-73
2.51579e-79
2.22833e-76
2.18499e-82
1.95421e-79
7.38608e-79
6.5299e-76
6.95061e-82
6.20924e-79
5.98225e-85
5.40135e-82
4.35558e-79
1.57987e-81
1.40992e-78
1.472e-84
1.3284e-81
1.25337e-87
1.14402e-84
9.31889e-82
2.72222e-84
2.45529e-81
2.50811e-87
2.28893e-84
2.11056e-90
1.9492e-87
1.6055e-84
3.90389e-87
3.56171e-84
3.55385e-90
3.28225e-87
4.77134e-90
4.40616e-87
4.28926e-93
4.01114e-90
5.06494e-93
4.7365e-90
4.49469e-96
4.25753e-93
2.51199e-79
2.93338e-76
6.00605e-95
9.29485e-92
1.3505e-88
1.83472e-85
2.32031e-82
2.71689e-79
1.97972e-85
2.3227e-82
9.05639e-81
1.04743e-77
2.14778e-96
3.36121e-93
4.91559e-90
6.69097e-87
8.4427e-84
9.82829e-81
7.23282e-87
8.47532e-84
5.69009e-83
6.60044e-80
1.28998e-98
2.04607e-95
3.02649e-92
4.1579e-89
5.28419e-86
6.18342e-83
4.49752e-89
5.3101e-86
2.18141e-85
2.55029e-82
4.66812e-101
7.50856e-98
1.12507e-94
1.56387e-91
2.00843e-88
2.37202e-85
1.6921e-91
2.01919e-88
5.90737e-88
6.97719e-85
1.18661e-103
1.93578e-100
2.93999e-97
4.13932e-94
5.38023e-91
6.42557e-88
4.47943e-94
5.41023e-91
1.22308e-90
1.46137e-87
2.30008e-106
3.80522e-103
5.85907e-100
8.35976e-97
1.1006e-93
1.3306e-90
9.04765e-97
1.10687e-93
2.03398e-93
2.46053e-90
3.57757e-109
6.00059e-106
9.36668e-103
1.35462e-99
1.80715e-96
2.21302e-93
1.46625e-99
1.81761e-96
2.80982e-96
3.44316e-93
4.62324e-112
7.85833e-109
1.24328e-105
1.82246e-102
2.46403e-99
3.05742e-96
3.30401e-99
4.10243e-96
5.09118e-115
8.7644e-112
1.40486e-108
2.08683e-105
2.85939e-102
3.59549e-99
3.37189e-102
4.24273e-99
4.87518e-118
8.49368e-115
1.3786e-111
2.07442e-108
2.88001e-105
3.66977e-102
3.14785e-73
2.92621e-76
2.50844e-79
1.11124e-74
1.04959e-77
9.11049e-81
7.01258e-77
6.62616e-80
5.74035e-83
2.72767e-79
2.56235e-82
2.20344e-85
7.53238e-82
7.01296e-85
5.97059e-88
1.5949e-84
1.46914e-87
1.23654e-90
2.71735e-87
2.47383e-90
2.05672e-93
3.85034e-90
3.46194e-93
4.64719e-93
4.12499e-96
4.8698e-96
4.26632e-99
2.95354e-93
2.76165e-90
2.30175e-87
3.51922e-96
3.33282e-93
2.81229e-90
3.63992e-99
3.49223e-96
2.98447e-93
1.97289e-102
2.47853e-99
2.25945e-105
2.87657e-102
2.24646e-108
2.89778e-105
2.84162e-96
3.34195e-99
3.41134e-102
4.88752e-88
4.54378e-85
3.71556e-82
4.72752e-85
9.89804e-91
9.16474e-88
7.55009e-85
7.56679e-91
6.42854e-88
4.76336e-91
8.40656e-97
7.8355e-94
4.67513e-91
4.95931e-88
4.09012e-94
1.93888e-85
1.99028e-82
1.8403e-88
7.09863e-94
5.9349e-91
)
;

boundaryField
{
    ground
    {
        type            zeroGradient;
    }
    outlet
    {
        type            zeroGradient;
    }
    wall
    {
        type            zeroGradient;
    }
    wall2
    {
        type            zeroGradient;
    }
    wall3
    {
        type            zeroGradient;
    }
    internalPatch
    {
        type            internal;
    }
    procBoundary4to2
    {
        type            processor;
        value           nonuniform List<scalar> 
113
(
5.17211e-90
4.7752e-87
3.9459e-87
3.59234e-90
3.59234e-90
3.34257e-87
2.7026e-84
1.86343e-81
1.07014e-78
4.95546e-76
4.95546e-76
1.76475e-73
1.82603e-70
4.62744e-68
7.33841e-66
2.14854e-64
2.643e-64
3.01169e-67
3.09641e-70
2.89912e-73
2.49171e-76
1.9795e-79
1.46227e-82
1.00953e-85
6.54535e-89
2.38048e-90
1.46512e-92
5.44516e-95
1.42263e-97
2.83454e-100
4.53037e-103
6.0116e-106
6.79061e-109
6.66108e-112
1.13496e-108
1.79957e-105
2.64291e-102
3.57882e-99
4.44572e-96
5.03737e-93
4.74526e-90
4.81085e-87
4.38756e-84
3.62646e-84
3.34257e-87
2.7026e-84
1.86343e-81
1.07014e-78
1.12356e-75
5.15909e-73
6.2411e-73
2.21082e-70
5.61322e-68
8.9395e-66
1.03054e-68
1.07351e-71
1.01864e-74
8.86516e-78
7.11774e-81
5.29858e-84
3.67274e-87
2.28005e-89
8.57127e-92
2.26793e-94
4.57912e-97
7.41823e-100
9.97755e-103
1.14215e-105
1.78722e-102
2.59001e-99
3.46076e-96
4.24266e-93
3.51532e-90
3.88248e-87
3.88846e-84
3.50512e-81
2.89775e-81
1.97606e-78
2.38987e-78
1.35884e-75
1.5393e-78
7.13125e-76
2.54309e-73
6.48064e-71
6.75854e-74
6.41507e-77
5.57774e-80
4.46697e-83
3.31068e-86
1.25728e-88
3.36641e-91
6.88426e-94
1.1301e-96
1.5405e-99
2.20286e-96
2.90485e-93
2.07605e-90
2.48108e-87
2.70736e-84
2.68042e-81
1.57142e-81
7.34872e-79
2.64038e-76
2.49276e-79
2.15347e-82
1.71152e-85
4.63338e-88
9.59118e-91
1.5948e-93
1.23319e-87
1.45641e-84
6.88017e-82
5.88911e-85
)
;
    }
    procBoundary4to5
    {
        type            processor;
        value           nonuniform List<scalar> 
188
(
1.04204e-99
1.04204e-99
7.43931e-100
7.43931e-100
1.09768e-93
1.09768e-93
7.07739e-91
7.0911e-97
7.0911e-97
1.04204e-99
4.69286e-103
4.69286e-103
3.01619e-103
3.01619e-103
7.43931e-100
9.12243e-101
9.12243e-101
2.38164e-94
2.38164e-94
2.03356e-91
2.79785e-88
1.09768e-93
7.07739e-91
5.94402e-88
5.94402e-88
6.6204e-94
6.6204e-94
4.46414e-97
3.9369e-100
2.07143e-103
2.121e-106
2.121e-106
9.44899e-107
9.44899e-107
9.30626e-108
2.97421e-104
2.97421e-104
9.12243e-101
4.33514e-101
4.33514e-101
1.36238e-97
1.36238e-97
1.1906e-94
1.1906e-94
6.24258e-89
2.03356e-91
2.03356e-91
2.79785e-88
3.71329e-85
3.71329e-85
4.38712e-80
4.38712e-80
6.58385e-78
1.8766e-76
2.02553e-79
2.01969e-82
2.01969e-82
4.31486e-85
3.55547e-88
8.80129e-94
8.80129e-94
3.237e-96
4.61672e-99
4.61772e-99
4.85848e-99
1.56748e-99
6.47323e-101
1.70861e-104
1.67538e-104
1.67538e-104
3.09361e-107
5.55516e-110
6.37774e-111
2.39598e-113
9.24145e-114
8.24923e-117
7.10116e-120
5.89287e-123
4.71643e-126
7.33728e-126
1.79313e-125
4.25228e-123
1.16801e-123
5.70243e-121
1.06126e-121
3.13008e-124
1.93927e-122
2.53424e-120
2.24903e-118
2.24903e-118
2.29505e-117
2.29505e-117
8.10343e-118
1.83721e-114
4.17585e-111
2.83202e-108
1.03933e-105
2.40189e-100
2.40189e-100
2.07143e-103
2.121e-106
5.95856e-112
2.84403e-110
2.84403e-110
2.79606e-111
2.79606e-111
9.30626e-108
1.42155e-110
3.72059e-107
1.29174e-106
1.47011e-103
2.84966e-104
4.33933e-101
4.33933e-101
2.82439e-97
1.78592e-94
1.1906e-94
1.78592e-94
3.85277e-95
1.21523e-89
1.50432e-86
7.19632e-84
5.15623e-86
5.15623e-86
5.0592e-83
5.0592e-83
7.17648e-81
7.19632e-84
5.15623e-86
5.10556e-87
4.31206e-85
3.54769e-88
9.28233e-94
9.28233e-94
3.41104e-96
3.23724e-96
1.0938e-96
4.61037e-98
4.49094e-98
1.49622e-100
3.54369e-104
3.46457e-104
3.46457e-104
9.91904e-105
1.89755e-107
6.56726e-108
1.78922e-110
9.98494e-111
5.80523e-114
1.29284e-116
8.06992e-122
8.06992e-122
8.06992e-122
9.17388e-123
9.18949e-123
1.10879e-119
1.02669e-119
1.03505e-120
2.39733e-117
2.65363e-117
3.71604e-120
2.58505e-117
8.08017e-115
8.08017e-115
8.23272e-114
8.23272e-114
5.82818e-115
1.17906e-111
5.12982e-109
6.73925e-114
5.36753e-114
1.79125e-113
2.55503e-111
2.89467e-110
1.80106e-107
4.15944e-108
2.63026e-105
3.81296e-102
3.81296e-102
3.26722e-98
3.85277e-95
1.26829e-95
1.26829e-95
4.69061e-90
1.1254e-116
1.29128e-116
8.06992e-122
8.06992e-122
)
;
    }
    procBoundary4to6
    {
        type            processor;
        value           nonuniform List<scalar> 
43
(
1.73513e-93
1.63575e-90
2.09078e-87