/*--------------------------------*- C++ -*----------------------------------*\
  =========                 |
  \\      /  F ield         | OpenFOAM: The Open Source CFD Toolbox
   \\    /   O peration     | Website:  https://openfoam.org
    \\  /    A nd           | Version:  9
     \\/     M anipulation  |
\*---------------------------------------------------------------------------*/
FoamFile
{
    format      ascii;
    class       volScalarField;
    location    "0.00025";
    object      rho.air;
}
// * * * * * * * * * * * * * * * * * * * * * * * * * * * * * * * * * * * * * //

dimensions      [1 -3 0 0 0 0 0];

internalField   nonuniform List<scalar> 
4522
(
0.375868
0.542252
0.00652217
0.00825335
0.402022
0.00646094
0.221241
0.00653647
0.460834
0.012195
0.412644
0.00917409
0.381009
0.00658037
0.00918847
0.388786
0.00668362
0.370178
0.482472
0.00892045
0.0129887
0.00790435
0.0134091
0.0162344
0.00678849
0.0118105
0.00640555
0.00650493
0.00660879
0.0161034
0.0397379
0.00625237
0.00799356
0.00789218
0.0139121
0.00647749
0.5381
0.0156355
2.30785
0.127466
1.06119
0.0247074
0.00998108
0.0185025
0.0217648
0.129483
1.02992
0.0245286
0.263457
0.0819596
2.09833
1.95721
1.23983
2.74166
2.25397
1.39419
0.016609
0.0167668
0.368779
0.583969
0.00665096
0.0622219
0.37084
0.0798958
0.1059
0.439167
0.495538
0.0947929
0.0849511
0.417851
0.00628276
0.00625374
0.00629575
0.00672735
0.00641774
0.00645749
0.00613306
0.00629555
0.00652212
0.00924882
0.00704464
0.00655089
0.00849144
0.00716523
0.0958705
0.0770313
0.396822
0.474535
0.0777482
0.0915401
0.482215
0.00908418
0.00621781
0.0062838
0.00696695
0.00711637
0.00799815
0.00838606
0.00657885
0.00669766
0.00622552
0.00662671
0.00609957
0.00636021
0.00888511
0.0906831
0.473453
0.0954901
0.0765136
0.393346
0.077865
0.3931
0.0129882
0.00815657
0.00680988
0.00724321
0.00615828
0.0062866
0.0103177
0.0808109
0.509188
0.101123
0.473589
0.0926857
0.0778966
0.400992
0.0136565
0.0123994
0.00684661
0.00623501
0.00863527
0.00728702
0.00628465
0.0167714
0.380318
0.0642398
0.0166839
0.580123
0.00661086
0.374782
0.00863304
0.00635435
0.0061981
0.00657527
0.00661482
0.00605719
0.00635542
0.00756331
0.0150033
0.00677303
0.00710605
0.0130489
0.0066333
0.0112748
0.0169188
0.39954
0.0169415
0.590046
0.00672082
0.0664704
0.386788
0.006907
0.00684685
0.00690332
0.00666272
0.00620436
0.00668277
0.00986896
0.0614189
0.377651
0.0167193
0.0167708
0.582329
0.00664759
0.376406
0.0957625
0.397469
0.0774767
0.0769409
0.474453
0.0914218
0.402557
0.00657957
0.00622433
0.00635892
0.00669646
0.00662559
0.00610275
0.00653541
0.0102977
0.00815115
0.00616838
0.00738421
0.00693928
0.012363
0.00647649
0.00676389
0.0089083
0.00806871
0.00621932
0.00618419
0.00632812
0.00706919
0.0118154
0.0373537
0.0320639
0.00897126
0.024322
0.0211655
0.00977075
0.00652057
0.00653767
0.0193397
0.0100241
0.00648241
0.0160935
0.00787942
0.00807609
0.00619575
0.0081396
0.00895769
0.00693268
0.00619254
0.00632016
0.0318546
0.0134451
0.0375384
0.00965071
0.0238868
0.00891319
0.0208294
0.00620742
0.00625535
0.00592893
0.00625318
0.00674071
0.00640547
0.00647359
0.00815481
0.0189166
0.0158215
0.00648387
0.0100087
0.00649158
0.0157757
0.00630782
0.00657992
0.00631196
0.00672128
0.00660783
0.00644269
0.00613744
0.00652778
0.00653697
0.0192759
0.00998942
0.00646775
0.0160872
0.00785903
0.00917388
0.014076
0.0247744
0.0343017
0.0125563
0.021671
0.00988019
0.00641745
0.00612188
0.00628254
0.00629508
0.00672801
0.006521
0.00645751
0.0062146
0.00908509
0.00711347
0.00628249
0.00697121
0.00645994
0.00838827
0.00654071
0.0193389
0.0161327
0.00653438
0.0100244
0.00648259
0.0162181
0.00974329
0.0393564
0.0246975
0.00915452
0.0342367
0.0124859
0.0217368
0.0129811
0.00738707
0.00616127
0.00693869
0.010288
0.012393
0.0081362
0.0101189
0.0155837
0.00759066
0.0167577
0.0118283
0.0100855
0.0256113
0.0408345
0.0208883
0.0110912
0.0303521
0.0181889
0.0490135
0.0128802
0.0114112
0.0115099
0.00738666
0.0168182
0.00826652
0.0100506
0.0200956
0.0139047
0.00916414
0.0247222
0.0342423
0.00974273
0.0124887
0.0393591
0.0316447
0.0153807
0.0107736
0.0304438
0.0128249
0.0134103
0.0389127
0.00615889
0.00635071
0.00633705
0.00647688
0.0062365
0.00633397
0.00630145
0.00642057
0.0063073
0.00629379
0.00649698
0.00623732
0.00640193
0.00639369
0.00610186
0.00637167
0.00632586
0.00648517
0.0063068
0.00632362
0.00619665
0.00583847
0.00699187
0.00593591
0.00608448
0.00595231
0.00619183
0.0058893
0.00649524
0.00671574
0.00654108
0.00660882
0.0064645
0.0066319
0.00666006
0.00592067
0.00793293
0.00680254
0.00782976
0.00628769
0.0066933
0.00631285
0.00651608
0.00697735
0.00707328
0.00634855
0.00701336
0.00647151
0.00642665
0.0061015
0.00627657
0.00626082
0.00640494
0.0061488
0.00628015
0.00626719
0.00679149
0.00655405
0.00742669
0.00625169
0.00729644
0.00625044
0.00666265
0.00624111
0.00657433
0.00637381
0.00655021
0.00633709
0.00653965
0.00632584
0.00601447
0.00615119
0.00641908
0.0061689
0.00610225
0.00614683
0.00611792
0.00642561
0.0063241
0.00628526
0.00651032
0.00638
0.00621094
0.00642905
0.0624128
0.00860148
0.0203452
0.0769494
0.0108814
0.0823914
0.0589828
0.0625438
0.0780782
0.00869552
0.0195877
0.0814527
0.0104816
0.0595726
0.148722
0.574708
0.134729
0.567082
0.140239
0.141665
0.548497
0.0209694
0.00679544
0.00687672
0.0144664
0.00706816
0.0178602
0.0179491
0.00605046
0.0061124
0.00618344
0.00642792
0.00606279
0.0061523
0.00614601
0.00601459
0.0061694
0.00615187
0.00642096
0.00611632
0.00614718
0.00610398
0.00604761
0.00613024
0.00616847
0.00644724
0.00608607
0.00615097
0.00612931
0.00627564
0.00659362
0.00658681
0.00653943
0.00644032
0.00640662
0.00639143
0.00614905
0.006282
0.00630311
0.0064164
0.00631642
0.00620004
0.00628385
0.0062145
0.00635977
0.00634352
0.0064403
0.00627636
0.0063373
0.00631717
0.00595365
0.00613318
0.00601337
0.00613273
0.00597883
0.00595997
0.00605476
0.00628852
0.00612331
0.0067643
0.00640944
0.00616272
0.00645303
0.00631185
0.00635996
0.00675869
0.00643647
0.00642597
0.00629256
0.00655699
0.00628
0.00674012
0.00732708
0.00658263
0.00712299
0.00675408
0.00659242
0.00718833
0.00653591
0.00633332
0.00652613
0.00659621
0.0066187
0.00633283
0.00644141
0.00619787
0.0061391
0.00627717
0.00650278
0.00613734
0.0063042
0.00616578
0.00621237
0.00610997
0.00638345
0.00674331
0.00612182
0.00638302
0.00628148
0.00662149
0.0065134
0.00707324
0.00707257
0.00654981
0.00705784
0.00654999
0.00587006
0.00609767
0.00593978
0.00699277
0.00623025
0.00597296
0.00590289
0.00588991
0.00609791
0.00622547
0.00699668
0.00625729
0.00607192
0.00599893
0.0059588
0.00613782
0.00612551
0.00642433
0.00611464
0.00606691
0.00606684
0.00612444
0.00654584
0.00635832
0.00646117
0.00635189
0.00617202
0.00631604
0.00595287
0.0060219
0.00613536
0.00616177
0.0060677
0.00599336
0.00613351
0.00606629
0.00618891
0.00626444
0.00632799
0.00625854
0.00614594
0.00614598
0.00592872
0.00798959
0.00788252
0.00691109
0.00671777
0.00633922
0.00632606
0.00667055
0.00708053
0.00700492
0.0063555
0.0071705
0.00646305
0.0064538
0.00717516
0.00944265
0.00606077
0.00814702
0.00636541
0.00931044
0.00670988
0.00623316
0.00644221
0.00607337
0.00633242
0.00614223
0.00622098
0.00619084
0.00634937
0.00632267
0.0061459
0.00620608
0.00613911
0.00626195
0.00629952
0.00673623
0.0071593
0.00721344
0.00636776
0.00750603
0.00648776
0.00650737
0.00647227
0.00639962
0.00668513
0.00610105
0.00667417
0.0061262
0.00628787
0.00700258
0.00789691
0.00953618
0.00605947
0.0067181
0.00922481
0.00620625
0.00634148
0.00632507
0.00618782
0.00613901
0.0062643
0.0060986
0.00630351
0.0638724
0.0786009
0.0208116
0.00866378
0.0849834
0.0110388
0.0603598
0.0630471
0.0198694
0.00860848
0.077712
0.0595038
0.082646
0.0105563
0.149287
0.569988
0.134416
0.569228
0.140665
0.139902
0.554568
0.0211371
0.00681147
0.00677813
0.0145687
0.017982
0.00707117
0.0180403
0.00592379
0.00822037
0.0064543
0.00755141
0.006358
0.00605087
0.00679552
0.00600552
0.00618114
0.00623417
0.00632368
0.00609696
0.00612514
0.00621552
0.00591233
0.00640486
0.00609395
0.00609398
0.00602662
0.00601792
0.00606378
0.0058367
0.00692694
0.00608539
0.00593153
0.00589034
0.00591822
0.00618036
0.00604679
0.00646959
0.00629779
0.00647062
0.00615442
0.0061491
0.00632184
0.00590672
0.00600889
0.00601
0.0060965
0.00597797
0.00600833
0.00597819
0.00600784
0.00623564
0.00618529
0.0063244
0.0061292
0.00610105
0.00621561
0.00784841
0.00998438
0.00638157
0.00890822
0.0102615
0.00692155
0.00713959
0.00731478
0.00716419
0.00666538
0.00737509
0.00680355
0.00691524
0.00729731
0.00735035
0.0075354
0.00733217
0.00664066
0.00687133
0.00680547
0.00779736
0.00696273
0.00649302
0.00668392
0.00667428
0.00680146
0.00668456
0.00661188
0.0643961
0.00888055
0.0213357
0.0790279
0.0856374
0.0113835
0.0607171
0.064541
0.0794005
0.00887677
0.0205131
0.0609003
0.0109927
0.0844891
0.153168
0.580899
0.136251
0.581906
0.142466
0.143466
0.57194
0.0214676
0.00699971
0.00700641
0.0146033
0.0181958
0.00745987
0.0182389
0.00639985
0.00640216
0.00629865
0.0076406
0.0065329
0.00674687
0.00626139
0.00656198
0.00671144
0.00671188
0.00739949
0.006795
0.00664214
0.00680044
0.00639795
0.00629752
0.00639839
0.00759973
0.00626079
0.00673082
0.00652729
0.00644564
0.00662538
0.00645638
0.00662431
0.00643845
0.00643639
0.00659126
0.00636473
0.00628207
0.00628001
0.00627964
0.00629175
0.00644789
0.00629131
0.00649333
0.00653768
0.00671685
0.00660788
0.00665941
0.00646105
0.00663182
0.00661682
0.00901912
0.00758608
0.0088379
0.00706072
0.00751865
0.0069673
0.0630472
0.0201343
0.0780792
0.00863095
0.0828414
0.0598991
0.0106055
0.0623732
0.0192996
0.00868962
0.0781193
0.0596478
0.0812606
0.0101999
0.147965
0.567029
0.134209
0.573393
0.139141
0.141377
0.548953
0.020934
0.00682504
0.00687174
0.0144919
0.0179293
0.0179731
0.00706639
0.00586541
0.00697071
0.00593906
0.00609426
0.00596795
0.00589917
0.00621274
0.00595538
0.00642027
0.00612443
0.00613654
0.00606157
0.00606437
0.00611336
0.00606107
0.00618424
0.00626301
0.00632689
0.0061416
0.00613979
0.00625702
0.00588497
0.00697043
0.00622354
0.00609507
0.00606847
0.00623883
0.00599296
0.00611587
0.00645902
0.00635111
0.00654415
0.00616171
0.0063088
0.00634919
0.00594959
0.00602007
0.00613495
0.00616136
0.00599213
0.00613145
0.00606081
0.0060966
0.00632468
0.00636714
0.00648369
0.00631723
0.00619295
0.00630496
0.00623476
0.00631406
0.00643686
0.00609428
0.00622938
0.00612604
0.00625202
0.0071986
0.00803898
0.00973241
0.0061894
0.00693036
0.00933183
0.00638351
0.00677714
0.00698774
0.00714914
0.00649076
0.00662403
0.0070627
0.00650917
0.00642117
0.00628422
0.00632142
0.00650914
0.00642662
0.00620752
0.00637953
0.00653309
0.0069758
0.00698687
0.00634264
0.00696062
0.00645238
0.00644277
0.00610424
0.00653159
0.00604201
0.00633577
0.00605728
0.00619879
0.00617278
0.0061312
0.00643152
0.00609553
0.00624777
0.00609364
0.00623511
0.00608419
0.00634463
0.00635603
0.00621098
0.00622995
0.00617461
0.00631502
0.00629575
0.00678754
0.00627748
0.0073912
0.00655174
0.0062915
0.00719131
0.00669121
0.0067498
0.00745917
0.00627043
0.00653457
0.00628675
0.00669928
0.00719633
0.00851017
0.011712
0.00742704
0.0117301
0.00792692
0.00791153
0.012846
0.00685584
0.00639409
0.00638249
0.00671721
0.00632879
0.00676371
0.00675026
0.00615282
0.00657462
0.006217
0.00608203
0.00617333
0.0062556
0.0060487
0.00606586
0.00650741
0.00622727
0.00601464
0.00614606
0.0061461
0.00599984
0.00630708
0.00634842
0.00621703
0.006192
0.00631063
0.00627616
0.00613257
0.0059301
0.00610857
0.0063269
0.00610928
0.00601831
0.00609212
0.00601803
0.00597918
0.00608735
0.00634331
0.00615618
0.00599364
0.00608802
0.00612075
0.00583246
0.00588581
0.00599959
0.00597653
0.00585578
0.00585149
0.00595529
0.00597836
0.00634229
0.0060865
0.00615575
0.00612085
0.00599421
0.00608663
0.00627065
0.006593
0.00659271
0.00656114
0.00641282
0.00643328
0.00641333
0.0061007
0.00627611
0.0062603
0.00640464
0.00626634
0.00627946
0.0061489
0.00618387
0.00635478
0.00635486
0.00645469
0.00633388
0.00625167
0.00633328
0.00678074
0.00649651
0.00624823
0.00733933
0.00665423
0.00717112
0.00624069
0.008362
0.011616
0.00743075
0.011613
0.00787914
0.0078786
0.0125048
0.00678252
0.00638022
0.0063797
0.00672606
0.00673838
0.00626949
0.00673929
0.00606334
0.00614167
0.00617087
0.00647438
0.00611287
0.00616526
0.00613596
0.00614463
0.00649808
0.00649798
0.00659451
0.00627118
0.00647911
0.00627291
0.00606497
0.00614371
0.00617224
0.00648104
0.00613692
0.00616724
0.00611805
0.0063171
0.0066177
0.00661743
0.0065292
0.00640197
0.00654328
0.00640212
0.00624086
0.00637303
0.00657409
0.00654957
0.00632556
0.00653925
0.00633628
0.00620118
0.00633187
0.00633228
0.00642533
0.00630795
0.00626201
0.006308
0.00599454
0.00617135
0.00607244
0.00614775
0.00603214
0.00609805
0.0060335
0.00673733
0.00626215
0.00744105
0.00656225
0.00629039
0.00721696
0.00668275
0.00669089
0.00746502
0.00626447
0.00652876
0.00669048
0.00628165
0.0071772
0.00841941
0.0116404
0.007404
0.0116171
0.0126504
0.00787727
0.00787262
0.00681381
0.00636845
0.00636915
0.00669953
0.0067327
0.006302
0.00673132
0.00614939
0.00630291
0.00628313
0.00641672
0.00620123
0.00631635
0.00628414
0.00595113
0.00600109
0.00611283
0.00613036
0.0059533
0.00597754
0.00605277
0.00604891
0.00611223
0.00642122
0.00618273
0.00606087
0.00614498
0.00615159
0.006047
0.0064469
0.00612978
0.00616864
0.00612913
0.0060858
0.0061516
0.00627634
0.00658754
0.00659386
0.00654026
0.00644108
0.00640725
0.00639224
0.0061573
0.00634969
0.00633569
0.0064761
0.00633318
0.0063004
0.00623486
0.00621402
0.00635991
0.00634376
0.00644017
0.00633678
0.00631713
0.00627693
0.006192
0.00648972
0.00627226
0.00613767
0.00614593
0.00630173
0.00613501
0.00621084
0.00638161
0.00610938
0.00674081
0.0062804
0.00612098
0.00637918
0.00661953
0.00707711
0.00651385
0.00707978
0.00655014
0.0065498
0.00706267
0.00641822
0.00630629
0.00629222
0.00649639
0.00639222
0.00640131
0.00623518
0.00678443
0.00656843
0.00747289
0.0062798
0.00726038
0.00670015
0.00629126
0.00674814
0.00653303
0.00626942
0.00744904
0.00669684
0.00628708
0.00719092
0.0085093
0.011748
0.00742711
0.0117179
0.0079296
0.00791071
0.0128613
0.00685578
0.00639523
0.00638243
0.00671741
0.00676544
0.00674952
0.00632965
0.00721366
0.00619266
0.00805677
0.00974163
0.00936616
0.00639226
0.00693508
0.00626351
0.00609373
0.00632703
0.00640551
0.00624772
0.00615065
0.00620128
0.00678028
0.0064915
0.00714951
0.00698874
0.00650948
0.00706007
0.00662575
0.109722
0.110013
0.4295
0.723932
0.0856876
0.541838
0.161094
0.0567523
0.0189573
0.0323218
0.123147
0.011879
0.0584847
0.0378483
0.0292493
0.0399734
0.189838
0.0512106
0.0799084
0.0184792
0.061353
0.0225524
0.040514
0.171228
0.0517675
0.0186303
0.0669097
0.051822
0.247102
0.14316
0.65174
1.14832
0.130566
0.278255
0.682201
0.211928
0.0650991
0.0284686
0.07429
0.0240342
0.080989
0.0905968
0.583672
0.0914681
0.312825
0.131469
0.347629
0.152855
0.502629
0.185876
1.21702
0.68978
1.46981
0.385453
0.814383
0.3087
0.450654
0.0453732
0.343765
0.351221
0.141525
0.150323
0.108168
0.823247
0.848088
0.122929
0.458878
0.46821
0.228229
1.52454
0.91909
2.06446
0.762011
1.21287
0.285621
0.344589
1.04088
1.76941
1.10894
1.97475
2.00458
1.21305
1.62216
1.9865
1.96347
2.12191
2.00247
1.73134
1.54553
1.94796
2.46775
2.61592
2.34962
1.40982
1.72821
1.14952
0.554285
2.5187
0.467361
0.0648641
2.01905
1.909
0.560802
2.01369
0.0685164
1.91672
0.247825
0.0711068
0.253201
0.0575468
0.0637372
0.237275
0.270318
0.259425
0.0621998
0.241287
0.241349
0.0562717
0.0621717
0.230502
0.122324
0.55023
0.144317
0.298879
0.0892909
0.0787155
0.338359
0.14644
0.466952
0.121949
0.087831
0.333642
0.294446
0.0774791
0.900869
0.920507
1.92473
1.90746
0.880031
1.90351
0.969178
1.89835
0.931294
0.877077
0.877515
1.90195
0.853558
1.89964
1.54319
2.0012
1.71027
1.06119
1.97537
1.95291
1.18253
1.74026
2.03306
1.54713
1.98764
1.17155
1.04841
1.96417
1.46116
2.27706
2.33594
2.3305
1.8656
2.26087
1.78667
1.29301
1.68319
2.11934
2.43787
1.36967
1.62039
2.36174
0.61384
1.41596
1.23196
2.58203
3.61518
1.72425
3.57011
0.397268
0.0185522
0.806969
1.43833
0.61925
2.58287
0.404266
2.15019
0.422922
0.0184986
0.0512179
0.18826
0.0398822
0.029141
0.126908
0.0791393
0.0611265
0.0515276
0.0221489
0.0655724
0.170102
0.0404838
0.129273
0.0516403
1.65842
2.52414
1.66039
1.225
1.23612
1.22657
2.98896
0.684604
1.45633
1.21304
0.18402
2.30001
0.380651
0.307286
0.0434706
0.134764
0.142361
0.343477
0.33639
0.998385
0.107169
0.174857
0.832124
0.611262
1.38045
1.70686
0.433726
0.252483
0.563209
1.22883
0.565539
0.121498
0.396226
1.54695
0.180629
0.792664
0.176502
0.228057
0.580824
1.39434
1.69342
0.440815
0.53495
1.24704
0.536588
0.1239
0.404033
1.53381
0.163492
2.49495
1.24103
0.452924
1.11241
2.84631
2.41765
2.22985
1.76609
1.51069
3.80337
2.63981
2.63549
3.60425
0.834223
1.44637
4.13798
1.45156
2.20682
2.59407
3.56928
0.651343
1.03706
3.00207
1.04454
0.951841
2.13246
2.31161
0.329692
1.33516
0.523234
1.125
2.30183
2.49942
2.59256
2.76932
2.49368
1.5661
2.52075
2.49938
2.69185
1.24712
2.70215
2.49638
1.55349
2.53536
2.51949
2.69064
1.26484
2.70899
0.0108413
1.82478
0.0126996
0.0860896
0.0671817
0.266212
0.672542
0.78223
0.460494
0.0129868
0.0133593
0.0154092
0.0308164
0.0324788
0.0249067
0.0395693
0.0105931
0.0149334
0.0128663
0.0303719
0.0302466
0.0242766
0.0376746
3.36708
2.57772
1.17058
2.00357
1.22607
1.83935
0.952247
1.24673
2.58755
0.251732
0.0778205
0.0272848
0.0674144
0.0223281
0.0600017
0.192993
0.0833562
0.242016
0.0267063
0.0752607
0.0222463
0.0596093
0.19136
0.34051
0.34185
0.437831
0.0975036
0.124803
0.0973814
0.0763621
0.131713
0.369349
0.105417
0.27248
0.345019
0.0988522
0.0783202
1.66397
1.22595
1.26571
0.928339
2.3477
1.48184
1.72604
1.4753
1.2259
1.27247
0.918059
1.82705
1.28096
1.22597
1.61344
0.852085
1.89368
0.753744
0.250904
0.196017
0.595729
1.93563
0.879276
0.259835
0.677135
1.6219
0.197489
0.600833
0.329141
0.879995
0.960046
0.260444
0.692006
1.95566
2.21682
0.258699
1.12739
0.31675
0.843585
0.684906
1.94076
2.16284
1.23074
0.936019
1.15771
2.28194
2.2931
2.32838
2.1623
1.28482
0.960529
1.28219
2.32674
2.29842
2.35006
2.17617
1.15057
1.47125
1.22434
2.32305
2.26341
2.16264
2.33905
1.14552
1.14869
1.41663
2.27678
2.26172
2.15138
2.3205
0.632352
0.737033
0.0230068
0.018133
3.22902
0.342441
0.387079
3.4137
0.0187862
0.0114623
0.0141278
0.0426079
0.0342229
0.0554658
0.0259895
0.0208975
0.0129857
0.0110745
0.0407444
0.030621
0.0249256
0.0487396
0.128738
0.668605
0.141104
0.242201
1.12816
1.03551
0.273443
0.153919
0.654844
0.132672
0.252079
1.26275
0.30514
1.07878
0.119675
0.097922
0.479437
0.269504
0.0775875
0.384553
0.147892
0.125933
0.110577
0.280542
0.558058
0.170736
0.0809642
0.405143
0.509857
2.06499
1.26106
3.05988
1.1043
1.88987
0.582932
0.530691
2.28867
3.13563
1.40209
0.651451
1.14763
1.96434
2.33223
1.92013
2.21846
2.37692
1.4155
2.31104
1.50852
2.65179
2.63679
1.68996
2.59861
1.93513
2.57743
2.1303
1.43581
2.32539
2.30341
1.92189
2.20719
2.38222
1.51872
2.65454
1.97664
1.9459
2.63375
1.67725
2.60075
2.14513
3.4186
2.48419
2.23553
2.42474
1.99318
2.3038
2.31121
2.13711
1.87117
2.58609
2.37633
1.80765
2.27765
2.00587
3.38325
3.41962
2.17683
2.36643
2.17559
2.46622
2.39177
2.57619
2.11175
2.28603
1.86355
2.58128
2.37221
2.00498
2.18476
2.59738
3.19761
3.47085
2.91499
2.99759
4.07482
2.1186
2.32723
2.39959
2.56241
2.80043
2.97269
2.88168
2.61761
2.28675
2.24573
2.9933
2.82917
2.31151
1.43207
1.81837
1.77094
1.24754
1.31083
1.63807
1.94376
1.27309
1.25858
1.28085
1.84783
1.87471
1.32668
1.99022
1.28256
1.30872
2.18809
2.45089
1.38
2.38312
1.72606
1.24185
2.63148
1.64846
2.52659
2.20314
2.90015
2.07759
1.30654
1.87613
1.81469
1.25677
1.32167
1.71139
1.97427
1.28592
1.73153
1.8487
1.25957
1.88157
1.32978
1.99182
1.28729
1.85554
1.24393
1.26786
1.22717
1.69207
1.25842
1.30366
1.73121
1.22625
1.27405
1.87204
1.22727
1.26
1.30733
1.28412
1.23468
1.22662
1.59793
1.22785
1.24196
1.31967
1.59636
1.25783
1.23411
1.22692
1.46284
1.28784
1.24321
1.26
1.47275
1.23462
1.59386
1.22692
1.28779
1.24303
1.55172
1.26304
1.23079
1.22734
1.40059
1.23893
1.30475
1.22526
1.4288
1.52042
2.53146
1.39494
1.23152
1.23487
1.29774
1.24608
1.81248
1.30221
1.22508
1.22666
1.23001
1.47866
1.22531
1.24036
1.27141
1.22503
1.22699
1.226
1.225
1.22911
1.225
1.225
1.22512
1.22507
1.22518
1.225
1.225
1.225
1.225
1.225
1.225
1.225
1.225
1.225
1.225
1.225
1.225
1.225
1.225
1.225
1.225
1.225
1.225
1.225
1.225
1.225
1.225
1.225
1.225
1.225
1.225
1.225
1.225
1.225
1.225
1.225
1.225
1.225
1.225
1.225
1.225
1.225
1.225
1.225
1.225
1.225
1.225
1.225
1.225
1.225
1.225
1.225
1.225
1.225
1.225
1.225
1.225
1.225
1.225
1.225
1.225
1.225
1.225
1.225
1.225
1.225
1.225
1.225
1.225
1.225
1.225
1.225
1.225
1.225
1.225
1.225
1.225
1.225
1.225
1.225
1.225
1.225
1.225
1.225
1.225
1.225
1.225
1.225
1.225
1.225
1.225
1.225
1.225
1.225
1.225
1.225
1.225
1.225
1.225
1.225
1.225
1.225
1.225
1.225
1.225
1.225
1.225
1.225
1.225
1.225
1.225
1.225
1.225
1.225
1.225
1.225
1.225
1.225
1.225
1.225
1.225
1.225
1.225
1.225
1.225
1.225
1.225
1.225
1.225
1.225
1.225
1.225
1.225
1.225
1.225
1.225
1.225
1.225
1.225
1.225
1.225
1.225
1.225
1.225
1.225
1.225
1.225
1.225
1.225
1.225
1.225
1.225
1.225
1.225
1.225
1.225
1.225
1.225
1.225
1.225
1.225
1.225
1.225
1.225
1.225
1.225
1.225
1.225
1.225
1.225
1.225
1.225
1.225
1.225
1.225
1.225
1.225
1.22501
1.225
1.22501
1.225
1.225
1.225
1.225
1.225
1.22501
1.22501
1.225
1.225
1.225
1.225
1.225
1.225
1.225
1.225
1.225
1.79829
1.80648
1.225
1.225
1.225
1.22505
1.225
1.22544
1.225
1.225
1.225
1.225
1.225
1.225
1.225
1.225
1.225
1.225
1.225
1.225
1.225
1.225
1.225
1.225
1.225
1.225
1.225
1.225
1.22553
1.225
1.24901
1.225
1.22501
1.225
1.225
1.225
1.225
1.225
1.225
1.225
1.225
1.225
1.225
1.225
1.225
1.225
1.225
1.225
1.225
1.225
1.225
1.225
1.225
1.225
1.225
1.225
1.225
1.225
1.225
1.225
1.225
1.225
1.225
1.225
1.225
1.225
1.225
1.225
1.225
1.225
1.225
1.225
1.225
1.225
1.225
1.225
1.225
1.225
1.225
1.225
1.225
1.225
1.225
1.225
1.225
1.225
1.225
1.225
1.225
1.225
1.225
1.225
1.225
1.225
1.225
1.225
1.225
1.225
1.225
1.225
1.225
1.225
1.225
1.225
1.225
1.225
1.225
1.225
1.225
1.225
1.225
1.225
1.225
1.225
1.225
1.225
1.225
1.225
1.225
1.225
1.225
1.225
1.225
1.225
1.225
1.225
1.225
1.225
1.225
1.225
1.225
1.225
1.225
1.225
1.225
1.225
1.225
1.225
1.225
1.225
1.225
1.225
1.225
1.225
1.225
1.225
1.225
1.225
1.225
1.225
1.225
1.225
1.225
1.225
1.225
1.225
1.225
1.225
1.225
1.225
1.225
1.225
1.225
1.225
1.225
1.225
1.225
1.225
1.225
1.225
1.225
1.225
1.225
1.225
1.225
1.225
1.225
1.225
1.225
1.225
1.225
1.225
1.225
1.225
1.225
1.225
1.225
1.225
1.225
1.225
1.225
1.225
1.225
1.225
1.225
1.225
1.225
1.225
1.225
1.225
1.225
1.225
1.225
1.225
1.225
1.225
1.225
1.225
1.225
1.225
1.225
1.225
1.225
1.225
1.225
1.225
1.225
1.225
1.225
1.225
1.225
1.225
1.225
1.225
1.225
1.225
1.225
1.225
1.225
1.225
1.225
1.225
1.225
1.225
1.225
1.225
1.225
1.225
1.225
1.225
1.225
1.225
1.225
1.225
1.225
1.225
1.225
1.225
1.225
1.225
1.225
1.225
1.225
1.225
1.225
1.225
1.225
1.225
1.225
1.225
1.225
1.225
1.225
1.225
1.225
1.225
1.225
1.225
1.225
1.225
1.225
1.225
1.225
1.225
1.225
1.225
1.225
1.225
1.225
1.225
1.225
1.225
1.225
1.225
1.225
1.225
1.225
1.225
1.225
1.225
1.225
1.225
1.225
1.225
1.225
1.225
1.225
1.225
1.225
1.225
1.225
1.225
1.225
1.225
1.225
1.225
1.225
1.225
1.225
1.225
1.225
1.225
1.225
1.225
1.225
1.225
1.225
1.225
1.225
1.225
1.225
1.225
1.225
1.225
1.225
1.225
1.225
1.225
1.225
1.225
1.225
1.225
1.225
1.225
1.225
1.225
1.225
1.225
1.225
1.225
1.225
1.225
1.225
1.225
1.225
1.225
1.225
1.225
1.225
1.225
1.225
1.225
1.225
1.225
1.225
1.225
1.225
1.225
1.225
1.225
1.225
1.225
1.225
1.225
1.225
1.225
1.225
1.225
1.225
1.225
1.225
1.225
1.225
1.225
1.225
1.225
1.225
1.225
1.225
1.225
1.225
1.225
1.225
1.225
1.225
1.225
1.225
1.225
1.225
1.225
1.225
1.225
1.225
1.225
1.225
1.225
1.225
1.225
1.225
1.225
1.225
1.225
1.225
1.225
1.225
1.225
1.225
1.225
1.225
1.225
1.225
1.225
1.225
1.225
1.225
1.225
1.225
1.225
1.225
1.225
1.225
1.225
1.225
1.225
1.225
1.225
1.225
1.225
1.225
1.225
1.225
1.225
1.225
1.225
1.225
1.225
1.225
1.225
1.225
1.225
1.225
1.225
1.225
1.225
1.225
1.225
1.225
1.225
1.225
1.225
1.225
1.225
1.225
1.225
1.225
1.225
1.225
1.225
1.225
1.225
1.225
1.225
1.225
1.225
1.225
1.225
1.225
1.225
1.225
1.225
1.225
1.225
1.225
1.225
1.225
1.225
1.225
1.225
1.225
1.225
1.225
1.225
1.225
1.225
1.225
1.225
1.225
1.225
1.225
1.225
1.225
1.225
1.225
1.225
1.225
1.225
1.225
1.225
1.225
1.225
1.225
1.225
1.225
1.225
1.225
1.225
1.225
1.225
1.225
1.225
1.225
1.225
1.225
1.225
1.225
1.225
1.225
1.225
1.225
1.225
1.225
1.225
1.225
1.225
1.225
1.225
1.225
1.225
1.225
1.225
1.225
1.225
1.225
1.225
1.225
1.225
1.225
1.225
1.225
1.225
1.225
1.225
1.225
1.225
1.225
1.225
1.225
1.225
1.225
1.225
1.225
1.225
1.225
1.225
1.225
1.225
1.225
1.225
1.225
1.225
1.225
1.225
1.225
1.225
1.225
1.225
1.225
1.225
1.225
1.225
1.225
1.225
1.225
1.225
1.225
1.225
1.225
1.225
1.225
1.225
1.225
1.225
1.225
1.225
1.225
1.225
1.225
1.225
1.225
1.225
1.225
1.225
1.225
1.225
1.225
1.225
1.225
1.225
1.225
1.225
1.225
1.225
1.225
1.225
1.225
1.225
1.225
1.225
1.225
1.225
1.225
1.225
1.225
1.225
1.225
1.225
1.225
1.225
1.225
1.225
1.225
1.225
1.225
1.225
1.225
1.225
1.225
1.225
1.225
1.225
1.225
1.225
1.225
1.225
1.225
1.225
1.225
1.225
1.225
1.225
1.225
1.225
1.225
1.225
1.225
1.225
1.225
1.225
1.225
1.225
1.225
1.225
1.225
1.225
1.225
1.225
1.225
1.225
1.225
1.225
1.225
1.225
1.225
1.225
1.225
1.225
1.225
1.225
1.225
1.225
1.225
1.225
1.225
1.225
1.225
1.225
1.225
1.225
1.225
1.225
1.225
1.225
1.225
1.225
1.225
1.225
1.225
1.225
1.225
1.225
1.225
1.225
1.225
1.225
1.225
1.225
1.225
1.225
1.225
1.225
1.225
1.225
1.225
1.225
1.225
1.225
1.225
1.225
1.225
1.225
1.225
1.225
1.225
1.225
1.225
1.225
1.225
1.225
1.225
1.225
1.225
1.225
1.225
1.225
1.225
1.225
1.225
1.225
1.225
1.225
1.225
1.225
1.225
1.225
1.225
1.225
1.225
1.225
1.225
1.225
1.225
1.225
1.225
1.225
1.225
1.225
1.225
1.225
1.225
1.225
1.225
1.225
1.225
1.225
1.225
1.225
1.225
1.225
1.225
1.225
1.225
1.225
1.225
1.225
1.225
1.225
1.225
1.225
1.225
1.225
1.225
1.225
1.225
1.225
1.225
1.225
1.225
1.225
1.225
1.225
1.225
1.225
1.225
1.225
1.225
1.225
1.225
1.225
1.225
1.225
1.225
1.225
1.225
1.225
1.225
1.225
1.225
1.225
1.225
1.225
1.225
1.225
1.225
1.225
1.225
1.225
1.225
1.225
1.225
1.225
1.225
1.225
1.225
1.225
1.225
1.225
1.225
1.225
1.225
1.225
1.225
1.225
1.225
1.225
1.225
1.225
1.225
1.225
1.225
1.225
1.225
1.225
1.225
1.225
1.225
1.225
1.225
1.225
1.225
1.225
1.225
1.225
1.225
1.225
1.225
1.225
1.225
1.225
1.225
1.225
1.225
1.225
1.225
1.225
1.225
1.225
1.225
1.225
1.225
1.225
1.225
1.225
1.225
1.225
1.225
1.225
1.225
1.225
1.225
1.225
1.225
1.225
1.225
1.225
1.225
1.225
1.225
1.225
1.225
1.225
1.225
1.225
1.225
1.225
1.225
1.225
1.225
1.225
1.225
1.225
1.225
1.225
1.225
1.225
1.225
1.225
1.225
1.225
1.225
1.225
1.225
1.225
1.225
1.225
1.225
1.225
1.225
1.225
1.225
1.225
1.225
1.225
1.225
1.225
1.225
1.225
1.225
1.225
1.225
1.225
1.225
1.225
1.225
1.225
1.225
1.225
1.225
1.225
1.225
1.225
1.225
1.225
1.225
1.225
1.225
1.225
1.225
1.225
1.225
1.225
1.225
1.225
1.225
1.225
1.225
1.225
1.225
1.225
1.225
1.225
1.225
1.225
1.225
1.225
1.225
1.225
1.225
1.225
1.225
1.225
1.225
1.225
1.225
1.225
1.225
1.225
1.225
1.225
1.225
1.225
1.225
1.225
1.225
1.225
1.225
1.225
1.225
1.225
1.225
1.225
1.225
1.225
1.225
1.225
1.225
1.225
1.225
1.225
1.225
1.225
1.225
1.225
1.225
1.225
1.225
1.225
1.225
1.24965
1.22501
1.225
1.22501
1.225
1.225
1.225
1.22521
1.225
1.22501
1.22501
1.225
1.225
1.225
1.225
1.225
1.225
1.225
1.225
1.225
1.225
1.225
1.225
1.225
1.225
1.225
1.225
1.225
1.225
1.225
1.225
1.225
1.225
1.225
1.225
1.225
1.225
1.225
1.225
1.225
1.225
1.225
1.225
1.225
1.225
1.225
1.225
1.225
1.225
1.225
1.225
1.225
1.225
1.225
1.225
1.225
1.225
1.225
1.225
1.225
1.225
1.225
1.225
1.225
1.225
1.225
1.225
1.225
1.225
1.225
1.225
1.225
1.225
1.225
1.225
1.225
1.225
1.225
1.225
1.225
1.225
1.225
1.225
1.225
1.225
1.225
1.225
1.225
1.225
1.225
1.225
1.225
1.225
1.225
1.225
1.225
1.225
1.225
1.225
1.225
1.225
1.225
1.225
1.225
1.225
1.225
1.225
1.225
1.225
1.225
1.225
1.225
1.225
1.225
1.225
1.225
1.225
1.225
1.225
1.225
1.225
1.225
1.225
1.225
1.225
1.225
1.225
1.225
1.225
1.225
1.225
1.225
1.225
1.225
1.225
1.225
1.225
1.225
1.225
1.225
1.225
1.225
1.225
1.225
1.225
1.225
1.225
1.225
1.225
1.225
1.225
1.225
1.225
1.225
1.225
1.225
1.225
1.225
1.225
1.225
1.225
1.225
1.225
1.225
1.225
1.225
1.225
1.225
1.225
1.225
1.225
1.225
1.225
1.225
1.225
1.225
1.225
1.225
1.225
1.225
1.225
1.225
1.225
1.225
1.225
1.225
1.225
1.225
1.225
1.225
1.225
1.225
1.225
1.225
1.225
1.225
1.225
1.225
1.225
1.225
1.225
1.225
1.225
1.225
1.225
1.225
1.225
1.225
1.225
1.225
1.225
1.225
1.225
1.225
1.225
1.225
1.225
1.225
1.225
1.225
1.225
1.225
1.225
1.225
1.225
1.225
1.225
1.225
1.225
1.225
1.225
1.225
1.225
1.225
1.225
1.225
1.225
1.225
1.225
1.225
1.225
1.225
1.225
1.225
1.225
1.225
1.225
1.225
1.225
1.225
1.225
1.225
1.225
1.225
1.225
1.225
1.225
1.225
1.225
1.225
1.225
1.225
1.225
1.225
1.225
1.225
1.225
1.225
1.225
1.225
1.225
1.225
1.225
1.225
1.225
1.225
1.225
1.225
1.225
1.225
1.225
1.225
1.225
1.225
1.225
1.225
1.225
1.225
1.225
1.225
1.225
1.225
1.225
1.225
1.225
1.225
1.225
1.225
1.225
1.225
1.225
1.225
1.225
1.225
1.225
1.225
1.225
1.225
1.225
1.225
1.225
1.225
1.225
1.225
1.225
1.225
1.225
1.225
1.225
1.225
1.225
1.225
1.225
1.225
1.225
1.225
1.225
1.225
1.225
1.225
1.225
1.225
1.225
1.225
1.225
1.225
1.225
1.225
1.225
1.225
1.225
1.225
1.225
1.225
1.225
1.225
1.225
1.225
1.225
1.225
1.225
1.225
1.225
1.225
1.225
1.225
1.225
1.225
1.225
1.225
1.225
1.225
1.225
1.225
1.225
1.225
1.225
1.225
1.225
1.225
1.225
1.225
1.225
1.225
1.225
1.225
1.225
1.225
1.225
1.225
1.225
1.225
1.225
1.225
1.225
1.225
1.225
1.225
1.225
1.225
1.225
1.225
1.225
1.225
1.225
1.225
1.225
1.225
1.225
1.225
1.225
1.225
1.225
1.225
1.225
1.225
1.225
1.225
1.225
1.225
1.225
1.225
1.225
1.225
1.225
1.225
1.225
1.225
1.225
1.225
1.225
1.225
1.225
1.225
1.225
1.225
1.225
1.225
1.225
1.225
1.225
1.225
1.225
1.225
1.225
1.225
1.225
1.225
1.225
1.225
1.225
1.225
1.225
1.225
1.225
1.225
1.225
1.225
1.225
1.225