/*--------------------------------*- C++ -*----------------------------------*\
  =========                 |
  \\      /  F ield         | OpenFOAM: The Open Source CFD Toolbox
   \\    /   O peration     | Website:  https://openfoam.org
    \\  /    A nd           | Version:  9
     \\/     M anipulation  |
\*---------------------------------------------------------------------------*/
FoamFile
{
    format      ascii;
    class       volVectorField;
    location    "0.00025";
    object      rhoU;
}
// * * * * * * * * * * * * * * * * * * * * * * * * * * * * * * * * * * * * * //

dimensions      [1 -2 -1 0 0 0 0];

internalField   nonuniform List<vector> 
4522
(
(-1859.74 6155.34 -19556.5)
(13546.6 5567.84 -19164.6)
(-518.366 4392.51 623.764)
(6445.29 2744.98 1052.95)
(-1596.72 9543.18 -18469.7)
(-551.256 5369.12 693.575)
(-3891.72 2676.44 6471.41)
(-482.314 4348.84 -776.76)
(-12183 1496.61 -16934.6)
(-5995.72 801.048 -3003.82)
(-9125.12 -5394.88 -18075.3)
(-4771.94 -2855.86 -3428.39)
(-2064.62 -5975.19 -19122.8)
(-484.296 -3605.02 -4442.89)
(6866.96 2948.2 -1225.71)
(2449.89 6715.75 -20562.4)
(700.946 4512.86 -758.272)
(5524.99 -5388.49 -18453.8)
(11293.9 -4364 -16265.8)
(3045.81 -3004.95 -3677.37)
(5094.3 -2135.64 -2574.28)
(-6017.24 2523.33 982.025)
(-4034.4 1699.79 3533.39)
(-688.482 2192.06 6323.29)
(-7403.2 -368.403 305.441)
(-4474.74 -645.746 3865.91)
(-582.946 -4325.32 593.097)
(-478.267 -3556.11 5230.63)
(640.094 4427.23 654.454)
(760.111 2206.46 6274.28)
(4087.79 1700.38 5287.65)
(3824.41 -3768.46 577.536)
(6128.28 -2533.78 997.393)
(2606.41 -2566.68 5235.6)
(4116.96 -1722.69 3591.42)
(-530.995 5344.83 -813.647)
(-10351.1 7131.98 -15075.9)
(-4020.87 2866.39 -2044.8)
(-8558.24 13078.8 -8025.28)
(-3439.77 5847.21 -611.935)
(-1050.38 15523.5 -12366.3)
(-536.857 7176.57 -777.203)
(-4846.97 3468.69 813.928)
(-3453.14 2432.06 3067.09)
(-633.176 3416.82 5893.83)
(-3625.47 6130.87 594.86)
(-4746.33 7307.53 5746.46)
(-567.385 7250.86 724.945)
(-1704.91 7068.09 5412.01)
(-529.198 2918.19 6966.36)
(-2573.34 1901.94 4651.49)
(-159.098 898.979 2695.77)
(-3.58853 5.61596 11.8975)
(-2146.51 2949.84 3076.5)
(-1404.48 4593.5 5016.28)
(-37.95 106.658 156.436)
(-3410.2 405.64 -5028.22)
(-336.147 3591.56 -5271.89)
(-5347.95 5479.16 -18319.9)
(-1367.98 1654.47 -24765.3)
(-421.422 502.728 -5553.66)
(-2534.49 2592.24 -5414)
(-5809.94 1988.91 -18906.4)
(5017.53 1101.04 -6063.02)
(5943.25 2546.36 -5259.83)
(10284.5 6155.64 -20302.7)
(13503.2 1971.1 -18699.7)
(6018.18 907.802 -5192.28)
(4848.46 2986.62 -5930.38)
(10388 2196.71 -19702.3)
(-3696 457.906 4505.17)
(-3769.03 3824.02 576.612)
(-420.029 3757.29 4496.11)
(-641.555 654.04 715.529)
(-4259.51 548.377 655.262)
(-530.014 577.901 4895.39)
(-3078.28 3109.02 3811.49)
(4555 543.075 4378.33)
(4966 4000.53 627.062)
(5382.85 2313.91 2771.66)
(7681.57 388.531 363.241)
(5433.58 667.822 713.052)
(6066.4 869.491 3072.85)
(4776.6 2866.07 3434.47)
(-1968.08 4844.92 -4246.18)
(-812.011 4501.82 -5497.39)
(-4821.69 8503.18 -17276.2)
(-1379.52 12479.3 -17428.7)
(-2310.51 3932.03 -4839.15)
(-676.315 5467.98 -4723.94)
(-4345.08 11272 -16217)
(-2251.57 5363.63 2766.9)
(-3646.82 4637.56 606.869)
(-452.415 4528.96 4348.44)
(-280.737 7594.28 348.662)
(-2743.05 4675.76 3379.01)
(-2533.3 6127.81 997.691)
(-776.225 6039.17 3062.97)
(-3602.52 473.531 -4427.95)
(-373.022 3772.86 -4625.93)
(-3745.09 3786.11 -628.253)
(-565.959 641.498 -859.821)
(-498.783 585.754 -4739.54)
(-4257.95 537.972 -735.56)
(-3002.24 3042.28 -3694.22)
(-5427.89 747.143 -4663.08)
(-11271.3 4471.93 -16185.8)
(-4897.81 2047.25 -4280.33)
(-4364.46 871.101 -5344.71)
(-8417 4926.51 -17188.8)
(-3900.23 2369.09 -4837.8)
(-9190.8 1700.91 -17840)
(-5183.75 2220.17 -2615.61)
(-6041.02 2526.57 -1033.32)
(-7471.3 282.31 -422.248)
(-4427.38 503.106 -4268.03)
(-4533.91 3645.04 -652.513)
(-5197.66 563.002 -786.377)
(-4506.75 2701.34 -3233.87)
(-4222.85 -2539.32 -5183.19)
(-12303.8 -4996.32 -17311.4)
(-5407.85 -2249.59 -4729.69)
(-12523.9 -1715.38 -17333)
(-5630.22 -764.735 -4844.21)
(-4474.02 -894.994 -5476.61)
(-9414.15 -1873.01 -18131)
(-5666.58 -2424.58 -2897.66)
(-6159.18 -863.941 -3111.86)
(-7517.8 -364.765 -476.463)
(-4732.23 -3776.71 -741.883)
(-6433.91 -2712.9 -1146.78)
(-4417.77 -498.709 -4301.92)
(-5227.69 -612.762 -818.327)
(-404.817 -3426.46 -5059.16)
(-5751.74 -5738.51 -18792.4)
(-2705.14 -2698.43 -5645.72)
(-3424.17 -404.838 -5053.51)
(-1441.44 -1536.78 -23961)
(-438.544 -441.119 -5462.23)
(-5908.69 -2045.84 -18940.7)
(-3188.56 -3189.99 -3881.76)
(-584.031 -4302.28 -782.717)
(-3885.8 -3885.41 -724.795)
(-3598.59 -484.998 -4441.57)
(-653.125 -653.549 -803.914)
(-523.246 -522.134 -4690.51)
(-4300.58 -584.24 -782.251)
(4855.19 639.366 -4630.58)
(6172.09 2714.01 -3204.25)
(5175.23 4156.9 -763.091)
(7811.09 440.598 -439.979)
(6599.26 1018.81 -3331.28)
(5554.13 716.991 -822.14)
(5458.95 3293.45 -3930.99)
(3797.39 530.547 -5482.32)
(6639.89 6641.56 -21078.3)
(532.846 3796.69 -5481.39)
(1834.8 1834.58 -24692.7)
(550.401 550.133 -5611.99)
(3227.83 3232.86 -6567.34)
(6676.14 2424.84 -20481.4)
(3975.37 661.434 -4790.31)
(4269.26 4268.42 -758.575)
(661.29 3970.19 -4789.69)
(746.991 745.727 -807.358)
(629.983 630.735 -4780.22)
(4515.36 701.215 -757.787)
(3782.39 3778.9 -4578.36)
(2595.92 -2538.24 -5427.52)
(2023 -5871.35 -19119.7)
(409.639 -3415.15 -5034.37)
(3588.93 -340.427 -5274.21)
(1666.22 -1422.71 -24676.9)
(501.648 -425.014 -5551.49)
(6155.76 -1878.52 -19563.6)
(4843.55 -1968.1 -4249.73)
(8535.54 -4846.54 -17354.6)
(3932.21 -2311.69 -4847.07)
(4501.75 -814.127 -5498.36)
(12468.8 -1388.8 -17422.2)
(5468.72 -676.563 -4724.45)
(9543.98 -1608.82 -18473.8)
(472.444 -3601.84 -4429.06)
(3786.01 -3744.55 -628.03)
(538.702 -4258.32 -735.491)
(3770.23 -372.214 -4627.21)
(641.015 -566.969 -859.389)
(581.131 -495.976 -4744.28)
(4347.81 -481.573 -775.874)
(4540.77 -2653.46 -3232.46)
(6024.38 -2478.64 -1051.94)
(4587.06 -3618.26 -661.983)
(4610.01 -420.405 -4464.03)
(7566.12 -244.267 -447.223)
(6026.23 -753.912 -3033.59)
(5343.45 -530.903 -814.109)
(-7278.67 274.553 346.74)
(-5245.17 2225.4 2713.41)
(-5864.81 776.903 2991.79)
(-4443.1 480.009 4323.93)
(-4558.16 3679.83 598.714)
(-5161.62 569.504 695.352)
(-4604.88 2746.32 3347.73)
(-4492.16 597.216 3892.79)
(-4017.78 1645.35 5228.81)
(-4239.05 543.47 5402.02)
(-4119.45 789.277 4943.41)
(-3203.21 1910.65 5664.52)
(-3397.45 653.148 5877.16)
(-3692.69 2225.32 4455.54)
(-3555.41 477.767 5283.05)
(-442.038 3600.79 5276.14)
(-2101.93 2130.61 6161.49)
(-241.886 267.743 6577.76)
(-513.199 555.088 5789.3)
(-2182.99 730.759 6364.02)
(-2567.03 2606.39 5235)
(-5875.37 -823.623 2979.49)
(-4645.74 -3732.67 534.295)
(-6187.71 -2623.2 988.535)
(-5245.17 -2250.64 2706.9)
(-4595.05 -2743.95 3299.57)
(-4433.5 -496.883 4284.63)
(-5234.37 -599.425 654.294)
(-4216.75 -596.16 5365.25)
(-3987.81 -1707.35 3494.06)
(-3982.33 -1663.39 5199.53)
(-3637.96 -2202.68 4369.83)
(-3134.11 -1879.6 5540.56)
(-4102.45 -813.845 4896.22)
(-3373.62 -676.824 5802.64)
(-3837.22 -3835.96 484.637)
(-473.036 -3697.77 4447.31)
(-3051.95 -3051.89 3734.71)
(-3697.57 -472.783 4446.88)
(-660.118 -659.48 757.71)
(-4325.35 -581.455 593.916)
(-540.536 -541.026 4892.15)
(-2556.48 -2555.4 5159.23)
(-2086.51 -2085.31 6056.96)
(-721.036 -2187.01 6295.98)
(-3558.55 -478.991 5230.13)
(-283.414 -283.893 6518.08)
(-525.036 -523.942 5766.62)
(-2186.84 -720.386 6295.99)
(3785.06 527.652 4525.32)
(4094.86 4095.61 570.172)
(530.427 3787.46 4525.3)
(659.231 659.833 784.757)
(4426.63 639.224 655.053)
(590.862 592.328 4948.34)
(3193.49 3192.66 3878.2)
(3622.42 518.006 5286.04)
(516.062 3620.54 5285.68)
(2139.97 2139.57 6065.24)
(304.431 304.206 6557.26)
(566.328 565.537 5823.16)
(2205.05 759.195 6273.08)
(2633.45 2633.34 5224.54)
(4172.77 847.308 4945.45)
(4086.49 1750.04 3554.98)
(3220.18 1936.06 5623.93)
(4335.15 617.778 5475.77)
(4579.19 669.349 3930.78)
(3425.47 706.262 5846.75)
(3730.8 2262.91 4447.31)
(546.671 -4259.87 655.139)
(3108.89 -3079.07 3811.64)
(458.019 -3695.37 4504.9)
(3757.13 -423.362 4497.14)
(653.523 -641.21 715.346)
(4392.44 -519.26 625.052)
(578.093 -528.942 4895.57)
(4637.14 -3647.05 605.963)
(5363.92 -2252.16 2766.67)
(4676.35 -2744.07 3380.11)
(4528.77 -452.83 4349)
(7595.27 -280.743 348.484)
(5368.66 -551.573 693.21)
(6038.96 -776.598 3062.02)
(478.633 -3556.2 5283.15)
(2130.72 -2103.31 6161.57)
(730.699 -2183.77 6365.26)
(3600.54 -440.07 5276.22)
(268.125 -242.502 6578.41)
(554.572 -513.722 5789.81)
(2192.07 -689.779 6321.37)
(3723.49 -2212.98 4471.2)
(4098.45 -1666.02 5307.36)
(3221.28 -1899.55 5671.97)
(4160.31 -766.392 4956.49)
(4326.98 -546.794 5495.35)
(4576.28 -596.366 3942.7)
(3415.68 -632.97 5891.98)
(-2135.99 5096.07 -2576.15)
(-419.851 4613.46 -4461.86)
(-3619.13 4587.33 -660.933)
(-244.053 7565.58 -448.084)
(-2653.74 4541.1 -3233.28)
(-751.746 6028.23 -3033.69)
(-2479.25 6024.19 -1052.46)
(-4791.22 3441.34 -845.633)
(-2795.47 3957.29 -2014.66)
(-4376.54 4418.01 -1094.83)
(-3716.15 3733.34 -652.613)
(-3773.61 3800.92 -2699.43)
(-3391.17 4784.76 -850.309)
(-3392.47 3397.39 -1727.71)
(-499.784 7029.44 -2178.81)
(-1620.27 5134.19 -2002.83)
(-656.134 6905.72 -947.046)
(-1627.94 6547.27 -680.759)
(-576.546 6027.05 -2350.3)
(-1534.83 6472.36 -1980.76)
(-1886.37 5917.59 -799.094)
(-4155.9 2959.16 2160.12)
(-2977.64 4204.46 2181.96)
(-4442.4 4474.72 1043.68)
(-3821.78 3829.53 633.829)
(-3960.97 3975.72 2906.8)
(-3472.08 4890.32 821.264)
(-3394.46 3404.76 1748.75)
(-1722 4118.38 3592.17)
(-767.274 4161.86 4957.94)
(-1899.45 3222.71 5673.81)
(-547.217 4328.31 5496.53)
(-2212.43 3724.24 4470.72)
(-596.115 4579.2 3945.2)
(-1665.94 4099.58 5308.43)
(-515.519 6776.32 2100.52)
(-1694.96 5295.56 2106.83)
(-687.526 6942.19 873.244)
(-1699.3 6747.72 676.599)
(-1949.37 6076.63 775.675)
(-589.717 5977.5 2348.15)
(-1573.57 6432.87 1974.06)
(-1739.09 3036.94 2136.63)
(-1690.32 4207.98 679.933)
(-514.749 4207.36 2091.13)
(-581.801 3215.94 691.248)
(-1629.61 4156.16 2078.41)
(-1830.68 3109.51 663.458)
(-530.294 3095.44 2215.28)
(-1476.68 5934.11 1905.18)
(-1674.95 5086.46 662.792)
(-524.861 5088.73 2053.8)
(-444.298 6275.67 533.267)
(-1681.9 5055.08 2083.01)
(-1579.42 5997.24 540.575)
(-409.467 6004 1980.78)
(-1726.35 3013.65 -2183.93)
(-483.131 4211.01 -2226)
(-1667.52 4159.66 -775.531)
(-552.733 3173.51 -848.801)
(-1810.01 3067.88 -752.03)
(-512.404 3087.72 -2339.97)
(-1613.71 4126.76 -2147.59)
(-1630.86 -2712.83 -3385)
(-1460.78 -3568.24 -4475.89)
(-515.455 -3865.88 -3243.07)
(-494.839 -2596.38 -4574.66)
(-1624.79 -3776.2 -3187.83)
(-1617.58 -2566.58 -4543.48)
(-559.718 -2833.22 -3509.71)
(1950.2 3215.42 -2304.4)
(1935.7 4449.34 -826.088)
(718.339 4350.89 -2258.71)
(727.961 3308.44 -831.455)
(686.185 3190.79 -2364.23)
(2037.48 3277.33 -784.777)
(1921.05 4438.21 -2309.85)
(2712.34 -2658.04 -3423.25)
(2120.25 -3533.66 -4255.3)
(3612.28 -3560.56 -2709.08)
(3607.33 -2076.78 -4291.99)
(2558.88 -3604.79 -3230.27)
(2610.38 -2553.4 -4344.42)
(3660.4 -2509.06 -3247.38)
(-6380.77 -1435.86 1671.46)
(-6981.17 -259.329 1813.36)
(-7149.53 -1544.36 222.735)
(-6736.93 -588.983 647.11)
(-6431.03 -1458.18 1757.63)
(-6620.55 -1474.85 631.703)
(-6527.16 -581.432 1718.86)
(-1784.75 -3010.91 2085.32)
(-1748.07 -4152.55 612.526)
(-589.568 -4152.34 2049.91)
(-618.897 -3191.77 690.062)
(-1699.09 -4095.61 2002.34)
(-1867.81 -3078.37 603.826)
(-587.837 -3080.8 2201.28)
(-1438.56 -2010.35 6055.06)
(-1553.32 -3582.15 4981.58)
(-190.904 -3118.72 5688.27)
(-539.656 -2610 5581.03)
(-1348.24 -2806.48 5090.9)
(-1480.28 -2553.84 5464.6)
(-379.553 -2203.53 6194.51)
(1874.07 3104.55 2157.73)
(1857.24 4329.4 690.12)
(647.697 4264.02 2127.61)
(676.422 3231.9 728.489)
(643.774 3146.88 2257.72)
(1956.47 3179.29 656.315)
(1801.75 4247.44 2114.3)
(2882.24 -2837.88 2085.86)
(2766.57 -4027.33 612.779)
(3752.03 -3694.95 1933.67)
(4113.36 -2724.43 614.184)
(2672.82 -3932.06 2062.03)
(3047.19 -2982.55 711.85)
(3993.89 -2630.44 2070.76)
(-1447.02 5902.61 -1946.32)
(-503.014 5129.96 -2178.71)
(-1653.42 5047.15 -752.403)
(-413.369 6249.37 -644.208)
(-1558.23 5955.26 -614.798)
(-1659.51 5044.14 -2150.42)
(-377.3 6045.16 -2077.86)
(-2293.31 1426.55 -6421.03)
(-2347.35 493.685 -5237.43)
(-3425.88 1496.55 -4792.09)
(-3206.66 412.656 -6133.16)
(-2301.33 1396.05 -5175.48)
(-3053.81 1398.23 -5853.05)
(-2387.99 576.711 -6349.12)
(-1363.22 2411.78 -6546.73)
(-329.072 3412.24 -6443.83)
(-417.766 2486.94 -5483.96)
(-1449.04 3522.94 -4878.25)
(-1348.19 3164.7 -5979.17)
(-1350.25 2392.25 -5265.72)
(-487.227 2546.44 -6625.08)
(-1409.22 1530.53 -10204.3)
(-1202.16 5364.68 -25197.7)
(-492.435 653.884 -8819.07)
(-5037.19 1434.16 -24424.1)
(-1487.09 678.319 -9308)
(-525.857 1646.41 -9543.3)
(-4974.03 5147.21 -24157.6)
(-1479.2 1567.55 -6373.12)
(-1371.27 477.075 -5301.43)
(-389.331 1462 -5463.47)
(-448.705 536.449 -6334)
(-1314.19 1385.78 -5299.88)
(-1512.6 537.002 -6148.19)
(-431.497 1617.91 -6311.18)
(-2797.89 1688.92 3458.32)
(-3960.6 504.086 3286.06)
(-2668.01 533.458 4743.54)
(-3640.3 1455.4 4532.16)
(-3850.47 1642.24 3233.44)
(-2614.7 1669.1 4663.47)
(-2928.61 574.22 3605.04)
(-2838.54 2882.33 2085.76)
(-2723.48 4113.34 614.677)
(-4027.44 2766.97 612.891)
(-3697.3 3751.51 1931.37)
(-2630.08 3994.14 2070.7)
(-2982.62 3047.23 711.564)
(-3931.93 2673.76 2063.11)
(-1643.77 2857.37 3455.89)
(-476.55 4039.93 3274.97)
(-496.759 2714.03 4712.91)
(-1425.24 3708.06 4534.56)
(-1617.22 3931.67 3242.76)
(-1627.77 2670.7 4666.71)
(-539.779 2988.78 3573.23)
(-1840.12 1892.25 2278.87)
(-606.119 1992 687.649)
(-1948.16 635.773 732.45)
(-586.826 633.147 2306.28)
(-1867.91 1920.54 746.044)
(-1853.87 629.742 2285.6)
(-592.355 1912.12 2241.83)
(-2977.49 1777.27 2144.59)
(-4099.93 544.006 2109.09)
(-4102.21 1725.68 685.194)
(-3142.18 624.554 731.611)
(-3036.09 1883.22 669.492)
(-4065.48 1665.07 2073.36)
(-3025.53 565.408 2255.62)
(-1708.81 1760.59 3638.64)
(-1660.68 581.141 4812.63)
(-537.416 1707.68 4779.88)
(-563.108 615.268 3712.51)
(-1622.77 1678.55 4810.29)
(-1782.47 574.999 3660.51)
(-535.86 1839.42 3622.27)
(-2729.26 2779.13 3439)
(-3642.31 2162.47 4424.01)
(-3665.87 3703.63 2702.34)
(-2130.5 3697 4435.34)
(-2593.74 3733.13 3228.39)
(-3669.18 2619.79 3213.94)
(-2593.35 2637.35 4493.59)
(5814.61 1715.8 2754.17)
(4944.32 638.548 3313.41)
(5395.09 252.068 4186.97)
(4340.17 1598.46 4445.74)
(4903.33 1611.66 3304.43)
(4719.86 1536.12 3784.77)
(5858.74 449.093 2948.62)
(5998.98 2409.4 2068.62)
(5907.33 3826.19 236.175)
(5297.54 3004.31 758.763)
(4608.3 3936.84 2004.76)
(4990.03 3307.58 1971.17)
(6237.82 2646.62 465.399)
(5153.14 2907.76 1991.35)
(6655.05 1539.72 1782.33)
(7455.78 1622.69 265.388)
(7033.06 641.906 707.108)
(7240.21 305.961 1896.88)
(6970.74 1575.59 711.605)
(6772 640.447 1805.54)
(6693.19 1549.97 1853.49)
(6084.77 1648.83 1936.28)
(5150.52 641.01 2083.6)
(5275.28 1842.6 688.373)
(6361.19 556.414 554.812)
(6228.45 1742.38 542.29)
(5183.96 1837.5 2141.48)
(6072.18 557.04 2010.82)
(-2215.05 5781.01 1992.31)
(-2736.67 5014.6 724.911)
(-3687.64 4388.97 1915.71)
(-3473.37 5484.07 230.299)
(-2692.59 4922.79 1911.61)
(-2402.19 5891.4 435.326)
(-3104.79 4770.09 1886.7)
(-1580.02 5703.27 2720.58)
(-533.956 4901.67 3285.26)
(-1486.83 4301.52 4414.02)
(-156.567 5371.6 4168.1)
(-1484.53 4832.37 3272.62)
(-1454.76 4691.42 3770.04)
(-336.726 5816.92 2930.08)
(-1367.86 6499.02 1736.57)
(-528.03 6939.37 700.157)
(-1460.46 7139.7 258.716)
(-182.431 7194.81 1873.34)
(-1405.58 6707.49 691.246)
(-1415.91 6561.84 1807.65)
(-517.836 6723.02 1788.98)
(-2723.63 1638.66 -3384.29)
(-2601.53 557.953 -4560.54)
(-3875.51 507.635 -3221.92)
(-3527.49 1427.47 -4458.64)
(-2561.74 1666.25 -4560.15)
(-3770.91 1601.52 -3171.89)
(-2841.08 569.631 -3494.73)
(-1591.14 2801.84 -3433.85)
(-446.59 4024 -3382.35)
(-482.845 2745.25 -4759.76)
(-1372.86 3627.74 -4551.91)
(-1626.67 2672.28 -4643.1)
(-500.363 2951.76 -3643.1)
(-1568.99 3867.92 -3244)
(-2810.97 2849.38 -2120.24)
(-2699.12 4063.53 -688.324)
(-4014.7 2729.43 -686.891)
(-3667.32 3708.8 -1936.56)
(-2962.6 3001.6 -786.839)
(-3899.3 2644.12 -2100.54)
(-2605.25 3938.95 -2109.75)
(-1821.78 1879.76 -2300.44)
(-547.143 1951.99 -852.873)
(-573.638 648.98 -2374.43)
(-1895.89 633.276 -814.089)
(-1831.79 1887.26 -835.824)
(-1835.16 653.792 -2278.09)
(-574.825 1899.25 -2347.04)
(-1665.29 1724.89 -3566.32)
(-1618.34 602.151 -4593.78)
(-499.256 1709.1 -4719.61)
(-538.739 609.733 -3692.86)
(-1592.52 1680.55 -4647.38)
(-1729.78 585.615 -3546.46)
(-501.046 1799.29 -3648.98)
(-2944.55 1757.58 -2158.66)
(-4092.14 535.393 -2126.07)
(-4102.42 1692.22 -761.562)
(-3105.9 612.646 -809.936)
(-3016.16 1845.35 -745.946)
(-4042.91 1639.7 -2103.7)
(-2997.83 574.533 -2249.79)
(-2658.87 2712.24 -3424.86)
(-3536.01 2120.87 -4254.39)
(-2077.86 3609.75 -4291.27)
(-3558.97 3610.51 -2708.57)
(-2556.42 2613.63 -4346.21)
(-3606.01 2558.9 -3231.09)
(-2510.92 3661.3 -3249.37)
(-6403.92 1372.71 -1763.82)
(-7185.77 196.357 -1945.11)
(-7061.48 1461.51 -310.082)
(-6783.53 540.852 -767.639)
(-6482.74 1415.94 -1827.35)
(-6635.56 530.154 -1834.17)
(-6592.47 1402.51 -740.316)
(-5582.41 1589.2 -2729.25)
(-5331.3 194.588 -4120.88)
(-4809.2 566.292 -3307.39)
(-4159.6 1504.35 -4308.39)
(-4702.61 1489.81 -3268.42)
(-4597.85 1465.39 -3703.7)
(-5759.87 355.996 -2975.54)
(-5656.86 2199.56 -2029.82)
(-5377.73 3468.95 -286.866)
(-4886.92 2724.71 -780.833)
(-4257.36 3672.12 -1955.33)
(-4801.67 2679.01 -1948.69)
(-5772.96 2390.75 -495.787)
(-4638.35 3066.94 -1898.64)
(-5825.95 1477.33 -1907.64)
(-6100.6 449.589 -610.854)
(-4974.41 543.272 -2092.22)
(-4963.05 1665.35 -734.928)
(-4933 1678.22 -2107.91)
(-5896.77 435.286 -2000.11)
(-5867.75 1560.79 -592.775)
(-6620.46 -1474.36 -1852.45)
(-7212.35 -261.746 -1985.72)
(-7264.18 -1560 -366.164)
(-6804.18 -593.314 -812.295)
(-6830.94 -1531.52 -1947.1)
(-6649.96 -601.186 -1894.41)
(-6725.67 -1493.92 -809.77)
(-5888.89 -2325.99 -2142.41)
(-4476.06 -3839.86 -2075.96)
(-5668.44 -3645.5 -353.987)
(-5022.74 -2819.66 -842.716)
(-5001.17 -3309.75 -2068.9)
(-4913.58 -2769.74 -2025.12)
(-5942.78 -2498.11 -559.942)
(-5736.49 -1670.05 -2833.52)
(-4238.7 -1539.59 -4381.04)
(-5327.16 -215.468 -4154.74)
(-4804.25 -578.819 -3341.13)
(-5765.29 -403.485 -3028.04)
(-4788.85 -1543.18 -3858.93)
(-4744.35 -1530.82 -3327.34)
(-5963.95 -1582.61 -1993.18)
(-6128.13 -512.897 -667.041)
(-5026.51 -1738.51 -779.444)
(-4966.79 -583.756 -2127.25)
(-5905.64 -504.455 -2056.85)
(-5004.82 -1738.19 -2172.82)
(-5965.32 -1647.02 -662.932)
(-1398.39 -2326.39 -6442.52)
(-399.956 -3221.77 -6176.26)
(-1529.12 -3509.65 -4861.45)
(-456.952 -2380.31 -5271.74)
(-1422.63 -3149.45 -5955.83)
(-1385.61 -2354.21 -5198.91)
(-523.106 -2390.15 -6385.49)
(-2336.85 -1394.38 -6441.68)
(-3512.13 -1530.53 -4861.48)
(-2369.27 -457.068 -5261.21)
(-3215.18 -398.78 -6160.73)
(-2408.35 -523.048 -6391.1)
(-3135.98 -1422.03 -5931.89)
(-2347.68 -1383.87 -5193.87)
(-1400.18 -1564.67 -10081.3)
(-1337.09 -5054.21 -24481.5)
(-490.981 -527.155 -8694.66)
(-4959.36 -1413.55 -24223.1)
(-1480.7 -608.04 -9243.08)
(-614.153 -1593.56 -9195.83)
(-5038.29 -5136.92 -23979.8)
(-1487.66 -1451.45 -6200.78)
(-436.083 -1400.41 -5293.35)
(-1382.64 -435.179 -5272.75)
(-492.165 -478.562 -6308.46)
(-1538.45 -427.178 -6156.32)
(-1347.08 -1358.57 -5246.47)
(-421.591 -1480.22 -6066.54)
(-2692.7 -2694.09 -3419.26)
(-2151.46 -3609.53 -4327.55)
(-3714.05 -3713.38 -2817.52)
(-3605.07 -2153.01 -4324.23)
(-2594.91 -3643.93 -3282.37)
(-3643.14 -2593.1 -3280.97)
(-2563.64 -2567.5 -4303.86)
(-1751.86 -2945.25 -2189.63)
(-598.046 -4075.39 -2163.78)
(-1758.03 -4158.61 -823.283)
(-626.318 -3160.04 -833.29)
(-1702.22 -4071.93 -2143.5)
(-565.953 -2977.58 -2272.18)
(-1877.46 -3066.93 -797.845)
(-2827.96 -2825.55 -2140.89)
(-3818.01 -3817.35 -2043.61)
(-2798.52 -4108.53 -749.435)
(-4108.3 -2798.11 -749.992)
(-2700.86 -3947.62 -2158.46)
(-3950.41 -2697.92 -2158.26)
(-3038.34 -3038.66 -842.389)
(-2710.83 -1631.88 -3385.32)
(-3559.83 -1462.76 -4478.25)
(-2594.23 -494.686 -4572.96)
(-3861.21 -515.315 -3242.43)
(-2828.6 -560.893 -3508.42)
(-3773.76 -1623.55 -3185.64)
(-2565.3 -1620.09 -4543.42)
(-1821.89 -1818.86 -2293.96)
(-622.67 -1965.09 -825.002)
(-588.967 -586.018 -2324.67)
(-1964.07 -623.486 -824.464)
(-1829.7 -589.871 -2280.94)
(-591.917 -1824.17 -2280.37)
(-1891.96 -1893.03 -857.478)
(-1661.04 -1663.29 -3533.23)
(-509.709 -1623.02 -4580.43)
(-1623.71 -508.594 -4580.67)
(-557.063 -559.751 -3639.69)
(-1731.28 -524.931 -3540.81)
(-1593.53 -1590.75 -4577.88)
(-523.032 -1735.1 -3541.29)
(-2948.07 -1749.97 -2191.72)
(-4156.9 -1757.83 -823.496)
(-4081.17 -596.856 -2164.42)
(-3158.41 -626.552 -833.482)
(-2983.77 -564.185 -2272.91)
(-4075.15 -1700.24 -2143.35)
(-3065.28 -1877.56 -798.825)
(6348.94 1906.38 -3121.43)
(5824.82 319.343 -4483.47)
(5202.72 714.579 -3558.01)
(4849.9 1847.88 -4990.32)
(5333.96 1798.04 -4311.61)
(5336.04 1789.09 -3703.51)
(6197.97 520.113 -3201.67)
(6493.17 2641.37 -2362.46)
(6132.58 3975.26 -352.179)
(5512.87 3136.1 -908.501)
(5054.24 4355.27 -2331.06)
(6441.97 2765.91 -589.453)
(5499.11 3152.51 -2275.92)
(5497.29 3671.67 -2300.52)
(7101.16 1700.72 -2014.86)
(7638.88 1696.07 -355.848)
(7509.09 362.017 -2039)
(7168.31 691.957 -807.709)
(7173.03 1652.89 -825.944)
(7014.73 708.033 -1962.06)
(7173.73 1704.39 -2070.9)
(6495.07 1810.1 -2160.19)
(5305 702.248 -2223.2)
(5428.87 1922.56 -799.017)
(6488.92 618.494 -645.748)
(6416.87 1837.89 -676.859)
(5460.23 1975.45 -2347.45)
(6271.75 627.349 -2156.34)
(2717.71 1685.65 -7201.49)
(2649.82 598.696 -5689.39)
(4077.33 1828.19 -5554.21)
(3603.14 510.572 -6701.39)
(3627.51 1694.21 -6669.36)
(2707.32 1633.5 -5790.92)
(2707.65 675.224 -6893.07)
(1689.32 2720.31 -7206.41)
(512.821 3612.27 -6709.66)
(600.784 2648.05 -5689.01)
(1827.51 4080.35 -5556.04)
(677.164 2707.37 -6889.98)
(1633.8 2706.72 -5786.28)
(1706.51 3638.22 -6680.8)
(1760.87 1877.78 -10882.6)
(1751.32 5593.6 -25463.7)
(689.625 690.583 -8892.02)
(5548.02 1734.36 -25424.6)
(822.174 1816.16 -9710.82)
(1736.79 797.117 -9707.64)
(5779.42 5833.86 -25491.2)
(1746.86 1739.05 -6836.4)
(1552.34 557.338 -5569.29)
(558.372 1553.18 -5574.04)
(596.87 590.224 -6428.69)
(586.596 1702.46 -6441.07)
(1561.14 1563.76 -5698.34)
(1716.25 588.148 -6470.83)
(3024.56 1861.77 -3654.78)
(2871.91 638.369 -4888.54)
(4192.9 644.348 -3457.76)
(4109.38 1796.48 -5102.91)
(4236.78 1880.69 -3545.14)
(2940.37 1904.28 -5008.76)
(3069.24 694.951 -3714.51)
(3165.75 3169.34 -2333.05)
(3090.63 4476.18 -761.976)
(4477.31 3089.95 -762.11)
(4350.76 4354.89 -2313.13)
(4427.9 3070.87 -2383.42)
(3293.88 3293.38 -863.834)
(3069.44 4430.95 -2384.35)
(1863.4 3024.09 -3653.38)
(644.732 4191.55 -3457.52)
(638.129 2868.62 -4887.84)
(1795.31 4105.31 -5101.56)
(695.651 3069.24 -3715.68)
(1904.97 2937.28 -5006.56)
(1880.64 4234.33 -3545.5)
(1989.01 1991.08 -2392.14)
(736.694 2071.23 -821.656)
(691.529 693.147 -2356.24)
(2073.01 735.688 -823.108)
(708.238 1969.65 -2349.23)
(1966.57 709.889 -2350.36)
(2035.36 2034.47 -859.887)
(1853.23 1853.11 -3759.54)
(1791.15 660.827 -4795.74)
(659.882 1790.17 -4794.9)
(657.875 660.08 -3704.1)
(644.973 1881.95 -3688.85)
(1825.99 1825.18 -4931.83)
(1880.93 644.287 -3688.5)
(3212.3 1953.62 -2305.36)
(4346.18 719.452 -2258.56)
(4449.95 1935.57 -826.223)
(3310.75 728.684 -832.28)
(4435.58 1922.77 -2309.09)
(3186.33 687.915 -2363.88)
(3277.98 2037.69 -785.178)
(3101.92 3100.07 -3845.81)
(4274.7 2606.17 -5060.1)
(4317.08 4316.67 -3249.81)
(2606.91 4270.94 -5057.27)
(4179.56 3018.51 -3711.46)
(3028.08 3025.91 -4929.16)
(3021.52 4178.99 -3714.95)
(1432.77 -2290.74 -6426.71)
(1497.42 -3424.93 -4796.42)
(417.97 -3211.74 -6143.25)
(495.542 -2361.76 -5248.04)
(1411.58 -3060.22 -5865.74)
(580.017 -2371.41 -6343.85)
(1402.44 -2308.33 -5183.14)
(2418.02 -1365.86 -6548.57)
(3522.25 -1449.76 -4880.92)
(2484.65 -421.349 -5487.86)
(3410.13 -332.446 -6443.45)
(2548.25 -490.435 -6631.03)
(3164.09 -1354.46 -5980.93)
(2393.68 -1353.5 -5271.36)
(1472.73 -1520.53 -10218.4)
(1457.87 -5118.96 -24665.4)
(649.758 -511.178 -8758.63)
(5349.01 -1272.21 -25080.9)
(698.722 -1598.51 -9225.83)
(1638.47 -551.958 -9511.1)
(5150.61 -5060.51 -24256.2)
(1575.41 -1452.94 -6314.77)
(482.145 -1392.98 -5322.9)
(1459.29 -393.361 -5465.01)
(540.74 -448.33 -6349.38)
(527.604 -1458.31 -6064.21)
(1623.84 -427.095 -6327.62)
(1389.72 -1328.89 -5319.04)
(1639.47 -2723.73 -3384.51)
(1425.81 -3529.49 -4457.45)
(507.65 -3874.18 -3221.4)
(556.278 -2598.16 -4561.46)
(1601.94 -3770.23 -3171.9)
(570.292 -2840.13 -3494.56)
(1662.79 -2559.5 -4559.42)
(2849.28 -2811.26 -2119.96)
(3707.95 -3667.99 -1936.35)
(2730.54 -4014.48 -685.768)
(4063.37 -2697.84 -689.599)
(2643.91 -3899.36 -2100.02)
(3939.2 -2605.16 -2109.47)
(3001.69 -2962.16 -786.931)
(1756.77 -2943.38 -2157.88)
(534.787 -4092.34 -2125.25)
(1693.34 -4102.72 -761.569)
(612.651 -3106.7 -810.028)
(1638.74 -4042.38 -2103.32)
(573.869 -2996.6 -2248.69)
(1845.61 -3016.7 -745.714)
(2800.82 -1590.69 -3432.68)
(3626.79 -1372.49 -4551.45)
(2742.83 -480.731 -4761.08)
(4022.08 -446.032 -3380.76)
(2950.15 -500.521 -3640.79)
(2670.79 -1624 -4642.69)
(3866.29 -1567.64 -3242.95)
(1879.69 -1820.15 -2298.95)
(633.546 -1896.74 -813.83)
(649.992 -571.873 -2372.91)
(1951.4 -547.709 -852.842)
(653.733 -1832.92 -2275.84)
(1901.38 -574.131 -2345.67)
(1887.64 -1832.47 -835.43)
(1724.94 -1665.89 -3565.96)
(598.697 -1613.91 -4594.24)
(1706.09 -496.397 -4722.08)
(610.24 -537.067 -3691.71)
(586.473 -1728.54 -3545.84)
(1798.85 -501.888 -3647.66)
(1678.83 -1587.61 -4647.39)
(3014.06 -1726.41 -2183.07)
(4159.17 -1666.46 -774.881)
(4214.44 -483.674 -2224.44)
(3172.62 -551.702 -848.434)
(3090.63 -512.555 -2338.12)
(4127.68 -1614.07 -2146.59)
(3067.86 -1809.53 -752.177)
(5707.78 -2154.24 -2056.47)
(4306.16 -3615.51 -1961.95)
(5426.43 -3439.22 -299.299)
(4950.64 -2703.34 -793.757)
(4665.93 -3018.42 -1908.39)
(4852.09 -2630.7 -1966.26)
(5828.25 -2369.91 -519.557)
(5648.48 -1550.93 -2764.39)
(4241.77 -1443.18 -4354.67)
(5538.67 -117.729 -4294.9)
(4968.54 -511.587 -3441.2)
(5919.23 -297.199 -3086.21)
(4632.27 -1425.21 -3714.86)
(4806.57 -1458.78 -3320.98)
(6438.49 -1329.68 -1800.07)
(7077.18 -1438.9 -334.342)
(7248.58 -126.589 -1977.05)
(6891.66 -500.353 -781.947)
(6760.21 -473.571 -1891.82)
(6453.07 -1372.33 -1840.22)
(6650.27 -1375.64 -761.216)
(5904.32 -1446.25 -1946.66)
(5045.69 -1653.07 -753.105)
(5134.29 -503.463 -2179.08)
(6248.2 -413.412 -644.938)
(6050.03 -376.771 -2078.35)
(5045.7 -1660.3 -2151.33)
(5953.86 -1558.36 -615.339)
(-6289 1367.15 1702.24)
(-6951.8 1441.65 261.371)
(-6920.84 200.183 1818.44)
(-6631.98 525.496 669.893)
(-6309.97 1395.44 1747.73)
(-6491.31 1396.67 675.545)
(-6471.65 523.975 1737.46)
(-5547.19 1573.68 2664.69)
(-5245.81 184.087 4107.93)
(-4788.98 542.607 3266.05)
(-4215.07 1513.32 4389.06)
(-4720.49 1490.18 3241.87)
(-4583.32 1456.77 3713.63)
(-5653.77 357.455 2882.68)
(-5636.18 2205.72 1957.95)
(-5400.5 3489.36 232.059)
(-4896.76 2750.84 718.837)
(-4319.15 3706.08 1911.71)
(-4827.29 2697.72 1895.71)
(-5759.38 2403.36 439.442)
(-4684.05 3094.54 1862.38)
(-5747.99 1476.11 1866.35)
(-6013.1 445.477 537.463)
(-4927.95 536.654 2043.46)
(-4939.78 1686.66 660.216)
(-4911.14 1679.98 2063.3)
(-5809.6 1566.73 530.929)
(-5793.65 433.033 1948.52)
(-2007.21 1460.76 6100.63)
(-2605.23 545.496 5641.96)
(-3105.12 187.397 5719.34)
(-3611.33 1565.49 5058.11)
(-2563.4 1504.37 5532.28)
(-2822.54 1360.25 5144.45)
(-2191.06 387.76 6237.99)
(-1413.32 2055.26 6098.91)
(-148.69 3116.09 5687.06)
(-516.759 2632.64 5603.49)
(-1527.57 3662.6 5063.7)
(-1460.07 2611.88 5537.79)
(-350.401 2222.59 6204.5)
(-1323.23 2854.08 5141.26)
(-1263.34 1308.37 6615.15)
(-159.014 1140.91 6372.02)
(-459.148 494.689 6764.04)
(-1123.41 202.705 6388.01)
(-1296.23 482.484 6657.07)
(-441.005 1323.02 6627.81)
(-1088.14 1124.65 6122.35)
(-1340.14 1380.76 6491.18)
(-1586.88 523.327 5627.26)
(-482.171 1620.98 5595.73)
(-425.178 465.118 6515.19)
(-1565.91 1615.86 5595.11)
(-1410.97 467.425 6414.16)
(-425.9 1453.84 6375.71)
(-5702.95 -2257.6 1934.76)
(-5583.21 -3607.2 185.172)
(-4375.27 -3729.46 1861.45)
(-4941.75 -2775.89 663.379)
(-4767.6 -3146.97 1859.3)
(-5857.25 -2464.85 392.464)
(-4860.51 -2726.47 1845.54)
(-5572.82 -1612.49 2628.13)
(-5238.15 -217.27 4081.56)
(-4183.44 -1521.25 4321.54)
(-4797.42 -591.856 3217.92)
(-5674.59 -400.893 2849.17)
(-4554.23 -1468.29 3673.23)
(-4723.78 -1522.69 3183.26)
(-5813.83 -1531.8 1815.16)
(-6104.29 -507.985 487.053)
(-4996.53 -1715.66 609.069)
(-4977.03 -580.785 1995.06)
(-5899.59 -1621.13 467.842)
(-5849.02 -494.525 1911.84)
(-4954.41 -1719.95 2012.13)
(-2862.5 -2863.01 2000.78)
(-2774.32 -4071.34 539.491)
(-3751.32 -3752.69 1844.31)
(-4071.29 -2773.82 538.736)
(-2687.48 -3951.88 2000.49)
(-3019.05 -3019.15 633.444)
(-3951.34 -2690.43 2000.28)
(-1691.21 -2809.54 3386.7)
(-540.814 -3983.48 3229.8)
(-1452.77 -3619.85 4450.76)
(-531.398 -2675.17 4678.64)
(-1660.39 -3852.36 3160.5)
(-1655.24 -2606.06 4591.66)
(-589.224 -2956.86 3545.23)
(-2753 -2751.54 3342.36)
(-3681.25 -3681.78 2636.24)
(-2134.05 -3611.09 4336.55)
(-3610.99 -2134.02 4336.53)
(-2611.85 -3684.81 3138.78)
(-3684.99 -2612.78 3138.92)
(-2584.67 -2584.36 4415.77)
(-2810.17 -1688.51 3387.14)
(-3618.68 -1452.51 4450.49)
(-3980.67 -540.138 3229.48)
(-2675.07 -529.221 4678.2)
(-2954.3 -586.396 3544.95)
(-3852.38 -1660.26 3160.12)
(-2604.77 -1653.57 4591.92)
(-1888.01 -1885.1 2231.56)
(-629.186 -1983.96 697.149)
(-1984.53 -630.559 697.684)
(-633.186 -633.593 2330.46)
(-1907.25 -632.449 2238.81)
(-1904.95 -1906.19 707.767)
(-635.046 -1907.45 2238.39)
(-3013.67 -1784.95 2085.33)
(-4151.37 -1746.93 612.76)
(-4152.57 -592.606 2050.54)
(-3192.18 -619.376 689.942)
(-3080.98 -588.167 2200.89)
(-3077.26 -1867.96 603.266)
(-4098.6 -1701.89 2002.36)
(-1735.06 -1733.88 3572.99)
(-551.397 -1675.36 4756.78)
(-1675.08 -551.899 4757.11)
(-592.754 -594.1 3719.62)
(-1818.11 -555.873 3605.27)
(-1637.65 -1638.48 4745.21)
(-557.538 -1820.34 3604.32)
(-2009.77 -1438.62 6054.31)
(-3581.31 -1553.76 4980.93)
(-2611.42 -540.362 5580.01)
(-3120.5 -191.077 5687.58)
(-2205.4 -380.115 6192.51)
(-2807.32 -1348.11 5090.98)
(-2551.59 -1480.85 5464.84)
(-1281.41 -1280.96 6563.39)
(-194.776 -1153.34 6363.73)
(-468.605 -467.704 6727.83)