/*--------------------------------*- C++ -*----------------------------------*\
  =========                 |
  \\      /  F ield         | OpenFOAM: The Open Source CFD Toolbox
   \\    /   O peration     | Website:  https://openfoam.org
    \\  /    A nd           | Version:  9
     \\/     M anipulation  |
\*---------------------------------------------------------------------------*/
FoamFile
{
    format      ascii;
    class       volScalarField;
    location    "0.00025";
    object      T;
}
// * * * * * * * * * * * * * * * * * * * * * * * * * * * * * * * * * * * * * //

dimensions      [0 0 0 1 0 0 0];

internalField   nonuniform List<scalar> 
4522
(
835.813
830.25
351.096
304.748
821.69
342.353
593.453
347.423
904.81
324.612
835.444
326.31
860.189
338.508
293.971
791.894
343.68
826.808
932.584
318.706
313.437
337.058
324.916
323.51
334.888
321.005
358.823
328.376
347.159
318.182
348.256
346.091
328.365
321.623
319.464
338.228
1049.54
320.502
2198.45
503.531
1339.44
333.389
332.449
329.8
333.873
502.447
1262.88
340.614
647.832
401.69
1913.32
1709.33
299.406
2138.75
1948.31
541.376
337.423
318.92
828.122
1133.48
324.969
398.565
857.338
373.277
392.453
755.059
822.034
391.253
366.039
774.807
341.945
346.099
335.087
367.645
358.735
347.528
327.456
321.416
307.161
300.969
317.146
337.845
312.571
310.264
442.845
398.757
850.083
870.467
413.827
416.715
934.743
319.956
336.984
325.311
322.627
330.329
328.389
321.157
335.742
320.031
342.837
365.829
340.066
356.801
319.007
437.304
947.784
452.476
418.211
859.487
422.123
852.831
321.923
332.395
334.632
328.599
337.329
350.67
326.055
414.28
903.352
436.382
887.684
430.723
414.119
841.883
316.01
322.331
332.08
336.065
323.221
330.506
351.093
339.434
821.646
402.599
339.324
1137.37
328.686
853.928
326.456
357.909
345.615
338.52
367.708
343.877
357.891
300.835
279.595
302.82
313.558
293.296
334.006
285.156
310.292
735.158
310.131
1120.56
320.584
351.302
789.598
313.59
315.908
313.613
363.659
336.084
343.689
281.684
395.988
863.455
337.546
318.857
1132.09
324.879
834.265
442.202
847.882
412.499
398.249
869.482
416.378
820.383
335.745
342.829
356.819
320.001
365.849
340.107
347.426
320.13
324.567
333.463
308.573
318.24
308.144
338.22
337.396
328.011
333.388
335.63
340.489
352.894
334.546
325.888
365.809
358.15
325.467
341.882
338.807
321.394
329.912
323.216
331.072
309.906
335.188
325.944
321.611
327.745
335.267
324.647
315.39
326.821
333.856
352.481
353.484
314.78
356.717
313.891
334.973
321.969
335.227
345.356
340.854
322.193
340.854
368.993
358.819
348.375
318.432
327.881
324.066
328.431
310.102
335.713
323.993
331.555
320.434
331.589
365.915
347.157
346.291
307.229
320.04
320.048
320.301
308.759
334.176
318.159
308.392
312.107
303.905
326.202
345.468
310.069
327.67
303.119
358.737
327.458
341.904
335.098
367.648
351.097
347.526
336.98
319.89
330.312
325.309
322.59
342.343
321.082
329.832
331.123
326.044
323.204
309.899
335.187
323.495
317.971
362.032
339.345
319.008
351.819
316.84
333.827
313.619
308.62
333.462
318.221
320.308
308.113
324.514
328.849
317.913
332.82
331.854
320.026
324.815
335.518
350.837
321.825
314.678
349.115
310.105
375.823
320.528
323.048
320.153
336.765
335.269
327.373
328.111
332.279
319.526
319.053
339.36
351.871
318.006
316.896
362.068
349.313
323.413
322.009
353.312
325.174
318.788
365.781
352.357
350.11
347.993
357.135
347.036
356.188
353.757
335.602
341.516
339.406
334.838
338.746
335.458
332.902
345.829
339.69
346.581
354.089
353.139
347.223
339.024
348.486
341.95
345.482
341.086
343.179
340.124
350.386
335.491
335.647
335.362
350.874
343.359
344.238
326.342
334.317
326.167
328.411
320.862
329.743
324.265
325.419
334.97
333.157
328.055
337.948
325.091
334.847
336.889
355.976
356.096
355.257
362.546
352.019
360.41
358.888
316.056
329.693
319.451
330.388
314.505
326.654
317.153
343.548
339.211
344.165
353.895
350.623
347.409
336.018
349.741
350.912
349.389
347.909
347.5
353.569
345.301
326.786
329.788
337.71
330.573
331.751
329.72
322.589
409.606
325.907
339.763
440.521
323.814
449.368
406.452
402.391
417.458
312.219
330.526
438.963
318.785
390.49
555.627
1090.15
528.899
1100.95
543.565
532.515
1050.19
338.336
324.535
318.351
329.703
318.307
336.968
328.633
348.933
348.646
342.824
343.978
345.351
340.916
351.823
349.742
347.898
350.913
349.387
345.274
353.563
347.509
346.223
341.504
338.989
339.358
340.047
338.168
347.375
357.896
363.507
365.724
363.676
361.622
361.647
359.437
355.202
355.543
355.972
362.001
359.057
352.609
358.618
351.849
346.08
344.456
356.807
343.35
355.175
353.166
344.323
335.884
339.814
333.281
337.881
340.149
334.762
313.943
329.581
320.818
320.049
320.05
309.324
322.001
310.466
307.448
319.153
315.486
305.111
309.977
315.598
315.087
308.013
318.734
315.59
311.579
318.549
307.044
321.729
335.074
329.22
329.943
321.45
326.279
328.1
331.831
340.459
341.01
336.554
338.139
334.259
331.096
328.328
333.925
331.674
324.849
331.708
321.772
326.311
329.88
324.456
324.159
320.925
327.292
321.773
323.922
341.359
338.006
342.847
335.96
332.996
336.895
347.394
335.911
328.052
326.071
326.812
326.408
337.109
326.966
343.145
344.578
347.832
341.451
350.482
340.354
337.425
352.975
361.023
360.338
363.821
359.033
358.454
354.469
344.39
339.777
333.909
351.999
333.826
350.58
345.595
350.179
351.913
353.361
360.114
356.445
347.147
355.502
334.346
326.266
320.962
328.387
324.326
329.758
325.433
334.058
328.849
332.86
336.821
326.163
331.802
337.074
327.148
329.725
337.001
329.402
331.39
322.658
330.443
333.424
339.009
343.285
336.003
335.425
339.619
329.07
339.057
345.201
345.218
347.883
341.331
339.544
343.684
331.508
326.403
325.566
335.846
321.298
331.723
333.757
332.465
337.766
332.353
343.775
325.764
339.148
335.944
328.548
334.01
330.436
338.977
331.609
323.808
335.793
339.119
344.935
348.328
346.402
340.021
343.996
342.247
416.069
442.563
345.02
329.103
452.385
331.629
409.871
414.277
343.413
328.941
440.966
408.379
449.658
330.996
563.254
1105.5
533.798
1103.28
545.686
546.025
1060.31
345.819
328.515
328.173
334.432
340.485
327.538
339.026
345.591
334.493
336.187
334.437
339.024
339.071
335.862
355.602
353.9
355.475
361.736
351.573
357.849
359.735
351.435
346.623
350.748
350.743
346.756
346.741
355.518
348.504
342.025
341.108
345.479
350.393
343.215
340.172
359.128
365.8
363.12
365.789
361.118
361.107
363.361
352.331
343.314
343.333
355.326
353.844
342.478
353.841
355.609
355.463
353.918
361.718
357.865
351.592
359.719
292.169
301.016
312.785
296.32
287.154
299.513
304.399
295.318
302.599
314.682
299.503
305.978
301.802
289.111
301.608
302.994
303.918
314.546
307.605
307.396
293.675
308.889
324.703
325.127
325.785
317.337
314.289
316.841
373.833
305.606
304.995
405.679
399.984
297.314
378.983
374.202
406.087
305.55
304.076
379.44
296.937
399.911
521.748
1072.59
522.535
1072.11
520.716
520.386
1009.5
320.088
313.043
313.137
325.177
322.052
303.946
322.445
323.927
320.941
322.909
307.428
312.177
311.833
332.594
325.313
325.377
325.378
310.48
314.61
334.892
314.696
323.958
322.986
320.945
307.42
332.642
311.821
312.301
344.165
358.433
357.237
358.441
351.05
351.027
352.106
334.038
329.492
329.486
348.324
341.609
321.734
341.574
335.46
335.29
335.664
350.889
326.281
343.304
344.247
313.735
291.738
292.764
291.639
299.248
298.555
299.415
410.39
339.137
442.283
325.941
450.309
407.846
323.597
401.392
329.555
312.15
417.179
390.159
437.484
318.116
554.526
1103.11
528.192
1088.14
543.375
531.506
1052.05
337.642
324.82
318.21
329.781
335.456
328.64
318.535
341.322
335.957
342.808
337.964
336.856
347.355
332.934
343.118
341.448
347.841
344.565
340.353
337.405
350.481
350.136
351.882
353.368
360.14
347.111
355.46
356.458
335.874
326.768
326.036
327.962
337.026
326.418
326.929
352.918
363.847
360.279
361.046
358.399
354.4
359.053
344.331
339.752
333.894
351.965
350.541
345.527
333.77
345.775
346.58
339.611
354.104
347.144
338.979
353.146
324.323
333.647
333.673
336.635
323.956
329.443
330.683
314.487
318.588
309.816
318.915
310.27
310.147
317.642
321.463
321.468
311.218
319.794
313.465
313.246
323.49
326.776
337.699
329.724
330.562
322.555
329.68
331.747
341.437
336.311
336.142
339.023
333.743
339.267
338.528
338.868
336.623
343.963
338.14
340.226
330.18
340.156
340.665
341.953
346.541
343.138
342.931
342.468
335.374
346.061
347.583
349.941
350.509
347.359
346.256
345.831
318.274
331.067
320.682
332.825
328.616
317.663
318.092
316.969
315.782
327.762
328.976
326.111
314.728
314.422
315.929
313.566
308.987
315.455
312.146
310.276
316.967
324.755
333.406
332.19
323.95
329.862
323.969
322.384
333.113
332.542
337.115
343.793
324.931
336.179
339.368
332.838
334.305
334.265
342.705
338.574
324.3
337.67
342.02
346.834
349.234
349.135
343.386
344.561
345.419
351.128
350.914
345.88
350.92
346.375
355.826
346.391
348.857
348.011
341.39
342.46
343.994
339.863
351.746
344.382
335.806
332.201
332.179
337.834
337.862
333.289
348.844
341.369
347.991
342.458
351.744
343.983
339.843
360.074
366.789
366.787
364.934
362.513
364.185
362.516
355.969
356.084
355.25
362.546
358.882
360.404
352.022
353.302
346.409
346.415
357.844
355.762
344.206
355.753
316.015
329.65
330.388
319.316
317.123
314.33
326.635
314.866
315.253
309.566
315.221
311.881
311.886
315.593
323.888
333.492
333.497
324.403
323.636
329.926
323.641
337.623
337.893
336.229
328.878
329.458
329.687
344.383
334.527
329.242
329.243
324.214
325.85
338.282
325.874
337.63
337.911
336.232
328.904
344.388
329.693
329.497
351.25
360.985
360.989
362.077
357.065
354.868
357.068
343.556
344.168
339.213
353.902
336.025
347.409
350.626
345.291
342.397
342.404
355.366
350.916
337.103
350.919
329.254
317.655
316.146
317.665
318.325
319.781
318.402
308.483
324.964
312.603
319.155
317.798
305.599
311.938
308.499
312.637
324.955
319.148
311.934
317.799
305.588
309.633
311.443
307.883
311.413
310.586
308.224
308.192
318.501
330.396
330.395
322.854
320.359
324.186
320.365
355.201
355.973
355.561
362.006
352.629
359.062
358.619
344.312
339.82
335.878
333.286
340.127
337.911
334.76
348.917
348.647
343.948
342.811
345.359
351.808
340.914
346.219
339.365
341.519
339.011
347.383
340.066
338.194
357.901
365.73
363.512
363.682
361.635
361.649
359.446
352.352
350.117
347.994
357.146
356.199
353.762
347.034
351.843
346.08
344.464
356.807
355.168
353.17
343.363
331.824
336.543
341.004
340.458
331.086
334.258
338.142
328.315
331.674
333.941
324.806
326.287
331.733
321.731
329.834
324.14
324.442
320.838
323.895
327.287
321.694
335.582
341.512
339.393
334.828
332.879
335.457
338.736
318.273
332.803
320.811
331.072
317.752
318.137
328.611
316.975
328.975
327.767
315.752
314.702
326.139
314.402
315.941
315.506
308.995
313.517
312.167
310.253
317.038
324.772
333.416
332.199
323.955
324
322.372
329.883
314.534
319.024
318.648
309.875
310.243
317.718
310.348
324.321
336.646
333.661
333.664
330.687
329.476
324.007
321.438
319.809
311.173
321.419
323.484
313.163
313.463
482.939
480.59
913.927
1261.39
440.409
1048.05
557.282
393.249
328.387
353.285
484.089
319.657
392.182
361.679
342.905
371.297
593.928
388.255
431.974
333.081
403.35
337.722
373.651
556.392
390.38
336.562
410.766
386.084
587.471
506.385
1016.94
1493.25
465.641
654.703
1123.92
580.544
398.723
344.085
409.658
334.431
426.88
436.235
951.531
417.297
634.532
466.552
683.478
497.826
861.621
578.576
1655.15
1087.68
1775.63
796.606
1314.76
734.726
841.786
372.977
740.575
767.798
513.401
517.257
469.128
1188.23
1199.69
462.439
849.96
833.398
595.809
1623.09
1206.06
1872.72
1078.08
1446.85
653.463
725.413
1326.47
1768.1
1382.75
1734.26
1704.09
1469.44
1692.62
1676.98
1581.6
1908.58
1752.53
1153.28
1678.94
1547.53
2039.28
2082.51
1933.9
1516.55
1713.13
1347.83
926.589
2020.09
837.542
375.862
1757.85
1637.14
924.111
1714.12
384.136
1692.16
549.813
388.088
551.959
365.304
377.389
530.183
581.114
571.895
375.277
544.685
544.6
364.383
375.203
526.352
466.256
930.605
495.979
626.452
417.949
404.049
677.597
488.414
832.523
461.788
411.416
668.433
621.002
400.599
1185.2
1198.24
1676.56
1599.28
1141.17
1641.22
1261.98
1657.91
1239.26
1171.74
1171.42
1615.76
1124.38
1657.33
1679.42
1729.07
1764.7
1360.08
1748.33
1728.07
1457.9
1751.35
1762.44
1675.73
1751.73
1442.53
1351.98
1738.23
652.892
1848.8
1908.2
1964.55
1369.66
1929.42
1265.77
371.288
1020.59
1617.08
2014.09
500.656
968.674
1867.88
1062.41
1696.24
292.08
2008.66
2783.7
1159.03
2643.43
842.631
337.6
1305.09
611.541
1075.08
2011.15
834.374
1841.45
842.16
341.673
390.946
587.215
371.137
345.022
502.361
431.377
402.406
395.904
341.714
416.864
560.354
374.527
505.172
387.091
1042.14
2050.39
1703.81
287.926
295.372
288.543
2203.04
1068.05
1742.19
1642.73
577.286
2166.74
783.122
730.203
375.505
518.59
518.173
772.015
740.221
1266.16
469.775
554.713
1239.62
1037.2
1670.61
1828.98
881.431
655.407
990.869
1510.06
999.78
494.133
839.197
1688.37
576.88
1259.67
561.993
640.385
1022.2
1677.08
1843.06
884.275
954.587
1495.47
951.85
494.598
835.642
1648.81
543.633
2143.74
1484.38
909.868
1410.95
2247.11
2109.51
1951.16
1816.21
1621.45
2925.33
2311.89
2191.59
2676.14
1166.36
1568.49
2938.36
1583.71
2143.12
2118.42
2629.34
1053.36
1307.1
2196.98
1302.42
1210.12
1847.58
1949.84
740.489
1509.13
918.745
1344.33
1942.91
2025.68
2107.23
2172.76
1954.17
1710.82
2129.37
2090.12
2196.87
1539.08
2164.81
1957.4
1694.8
2129.5
2083.91
2196.04
1533.56
2149.11
329.212
1324.81
334.785
429.819
414.432
657.453
1134.24
1123.17
879.63
325.003
321.957
319.518
355.267
350.676
347.511
362.943
335.937
331.75
331.117
361.376
362.951
354.324
374.906
2683.75
2198.39
1414.04
1875.3
288.284
1366.25
1291.51
306.231
2154.88
636.504
422.36
339.509
409.272
337.955
401.096
573.745
439.426
646.978
349.61
433.237
343
406.676
579.673
771.454
760.904
896.327
454.045
498.346
456.438
422.958
484.997
748.946
441.69
651.082
762.503
449.722
416.172
1734.13
288.216
327.33
1384.67
2145.98
747.608
1270.09
1776.85
288.186
336.376
1405.74
1343.82
349.788
288.211
1806.86
1307.49
1936.31
1139.54
673.803
593.676
1000.28
1905.21
1281.93
659.318
1121.66
1793.6
586.21
991.558
708.502
1179.68
1287.6
639.168
1050.18
1867.07
1940.22
644.11
1419.75
715.742
1187.58
1055.76
1872.31
1959.01
1577.04
1397.74
1620.37
2208.83
2078.78
2148.36
2127.61
1560.93
1380.39
1582.42
2124.59
2031.1
2028.93
2092.87
1575.17
1754.25
1585.54
2164.69
2121.91
2124.03
2149.85
1631.29
1596.89
1800.75
2217.17
2139.65
2145.26
2187.85
1047.65
1066.87
323.475
327.279
2613.07
747.161
740.086
2512.4
324.183
324.333
319.436
361.719
347.143
373.338
342.39
330.508
329.711
329.858
365.122
357.105
347.706
381.949
485.221
1129.17
513.139
600.843
1476.13
1351.29
652.535
491.706
1023.94
476.77
590.585
1400.42
624.426
1322.88
467.244
446.033
887.114
644.837
414.844
769.669
510.263
462.433
436.014
641.242
882.826
498.906
409.663
765.962
841.171
2020.02
1480.6
2512.67
1330.99
1870.56
932.041
828.519
1934.91
2481.99
1450.18
898.731
1319.86
1840.33
1968.95
1475.85
1948.07
1988.58
581.976
1892.73
756.869
2185.01
2219.57
1764.98
2158.14
1417.02
2110.88
1675.33
621.954
1940.85
1988.43
1480.07
1950.63
1996.65
767.149
2226.42
1488.31
1895.85
2229.45
1773.41
2167.86
1686.51
2774.78
2071.77
2042.12
2128.56
1642.49
1932.32
2057.43
2081.82
2018.6
2252.08
2176.53
1305
2034.91
1595.24
2829.56
2817.01
2062.26
2108.25
1924.24
2178.48
2131.75
2239.24
2117.61
2071.33
2031.63
2261.86
2182.4
1596.31
1629.29
2131.84
2605.65
2741.73
2300.44
2303.96
2946.55
1559.22
1996.09
1822.11
1941.82
2216.16
2223.82
2202.71
1972.25
1693.38
1884.55
2213.99
2178.22
1719.48
597.732
1433.94
1283.05
305.741
401.879
1054.04
1627.84
341.988
320.053
349.834
1448.87
1514.14
423.958
1686.3
355.903
397.564
1712.39
2042.4
519.546
1896.46
1084.47
301.541
2154.31
970.051
2102.84
1660.27
2236.5
1517.09
390.471
1553.02
1357.22
317.373
416.918
1235.53
1673.71
362.197
1283.89
1453.64
321.13
1557.37
427.066
1699.1
363.204
1316.38
303.044
332.445
288.775
1065.97
319.923
387.453
1138.11
288.361
341.644
1330.92
288.817
321.438
391.521
370.099
293.855
288.495
977.363
289.091
300.428
438.861
984.256
319.683
293.241
288.59
698.637
364.136
301.513
322.59
718.455
293.637
979.961
288.589
363.867
301.341
896.479
331.772
290.828
288.841
575.191
297.645
412.438
288.002
593.151
738.644
1917.22
536.514
291.736
294.452
378.498
306.356
1194.6
385.647
287.945
288.591
290.721
689.692
288.01
299.518
338.483
287.932
288.758
288.276
287.926
290.076
287.926
287.926
287.956
287.941
287.976
287.926
287.926
287.926
287.926
287.926
287.926
287.926
287.926
287.926
287.926
287.926
287.926
287.926
287.926
287.926
287.926
287.926
287.926
287.926
287.926
287.926
287.926
287.926
287.926
287.926
287.926
287.926
287.926
287.926
287.926
287.926
287.926
287.926
287.926
287.926
287.926
287.926
287.926
287.926
287.926
287.926
287.926
287.926
287.926
287.926
287.926
287.926
287.926
287.926
287.926
287.926
287.926
287.926
287.926
287.926
287.926
287.926
287.926
287.926
287.926
287.926
287.926
287.926
287.926
287.926
287.926
287.926
287.926
287.926
287.926
287.926
287.926
287.926
287.926
287.926
287.926
287.926
287.926
287.926
287.926
287.926
287.926
287.926
287.926
287.926
287.926
287.926
287.926
287.926
287.926
287.926
287.926
287.926
287.926
287.926
287.926
287.926
287.926
287.926
287.926
287.926
287.926
287.926
287.926
287.926
287.926
287.926
287.926
287.926
287.926
287.926
287.926
287.926
287.926
287.926
287.926
287.926
287.926
287.926
287.926
287.926
287.926
287.926
287.926
287.926
287.926
287.926
287.926
287.926
287.926
287.926
287.926
287.926
287.926
287.926
287.926
287.926
287.926
287.926
287.926
287.926
287.926
287.926
287.926
287.926
287.926
287.926
287.926
287.926
287.926
287.926
287.926
287.926
287.926
287.926
287.926
287.926
287.926
287.926
287.926
287.926
287.926
287.926
287.926
287.926
287.926
287.926
287.926
287.926
287.926
287.926
287.926
287.927
287.926
287.928
287.926
287.926
287.926
287.926
287.926
287.928
287.927
287.926
287.926
287.926
287.926
287.926
287.926
287.926
287.926
287.926
1930.55
1946.28
287.926
287.926
287.926
287.933
287.926
288.026
287.926
287.926
287.926
287.926
287.926
287.926
287.926
287.926
287.926
287.926
287.926
287.926
287.926
287.926
287.926
287.926
287.926
287.926
287.926
287.926
288.091
287.926
305.438
287.926
287.927
287.926
287.926
287.926
287.926
287.926
287.926
287.926
287.926
287.926
287.926
287.926
287.926
287.926
287.926
287.926
287.926
287.926
287.926
287.926
287.926
287.926
287.926
287.926
287.926
287.926
287.926
287.926
287.926
287.926
287.926
287.926
287.926
287.926
287.926
287.926
287.926
287.926
287.926
287.926
287.926
287.926
287.926
287.926
287.926
287.926
287.926
287.926
287.926
287.926
287.926
287.926
287.926
287.926
287.926
287.926
287.926
287.926
287.926
287.926
287.926
287.926
287.926
287.926
287.926
287.926
287.926
287.926
287.926
287.926
287.926
287.926
287.926
287.926
287.926
287.926
287.926
287.926
287.926
287.926
287.926
287.926
287.926
287.926
287.926
287.926
287.926
287.926
287.926
287.926
287.926
287.926
287.926
287.926
287.926
287.926
287.926
287.926
287.926
287.926
287.926
287.926
287.926
287.926
287.926
287.926
287.926
287.926
287.926
287.926
287.926
287.926
287.926
287.926
287.926
287.926
287.926
287.926
287.926
287.926
287.926
287.926
287.926
287.926
287.926
287.926
287.926
287.926
287.926
287.926
287.926
287.926
287.926
287.926
287.926
287.926
287.926
287.926
287.926
287.926
287.926
287.926
287.926
287.926
287.926
287.926
287.926
287.926
287.926
287.926
287.926
287.926
287.926
287.926
287.926
287.926
287.926
287.926
287.926
287.926
287.926
287.926
287.926
287.926
287.926
287.926
287.926
287.926
287.926
287.926
287.926
287.926
287.926
287.926
287.926
287.926
287.926
287.926
287.926
287.926
287.926
287.926
287.926
287.926
287.926
287.926
287.926
287.926
287.926
287.926
287.926
287.926
287.926
287.926
287.926
287.926
287.926
287.926
287.926
287.926
287.926
287.926
287.926
287.926
287.926
287.926
287.926
287.926
287.926
287.926
287.926
287.926
287.926
287.926
287.926
287.926
287.926
287.926
287.926
287.926
287.926
287.926
287.926
287.926
287.926
287.926
287.926
287.926
287.926
287.926
287.926
287.926
287.926
287.926
287.926
287.926
287.926
287.926
287.926
287.926
287.926
287.926
287.926
287.926
287.926
287.926
287.926
287.926
287.926
287.926
287.926
287.926
287.926
287.926
287.926
287.926
287.926
287.926
287.926
287.926
287.926
287.926
287.926
287.926
287.926
287.926
287.926
287.926
287.926
287.926
287.926
287.926
287.926
287.926
287.926
287.926
287.926
287.926
287.926
287.926
287.926
287.926
287.926
287.926
287.926
287.926
287.926
287.926
287.926
287.926
287.926
287.926
287.926
287.926
287.926
287.926
287.926
287.926
287.926
287.926
287.926
287.926
287.926
287.926
287.926
287.926
287.926
287.926
287.926
287.926
287.926
287.926
287.926
287.926
287.926
287.926
287.926
287.926
287.926
287.926
287.926
287.926
287.926
287.926
287.926
287.926
287.926
287.926
287.926
287.926
287.926
287.926
287.926
287.926
287.926
287.926
287.926
287.926
287.926
287.926
287.926
287.926
287.926
287.926
287.926
287.926
287.926
287.926
287.926
287.926
287.926
287.926
287.926
287.926
287.926
287.926
287.926
287.926
287.926
287.926
287.926
287.926
287.926
287.926
287.926
287.926
287.926
287.926
287.926
287.926
287.926
287.926
287.926
287.926
287.926
287.926
287.926
287.926
287.926
287.926
287.926
287.926
287.926
287.926
287.926
287.926
287.926
287.926
287.926
287.926
287.926
287.926
287.926
287.926
287.926
287.926
287.926
287.926
287.926
287.926
287.926
287.926
287.926
287.926
287.926
287.926
287.926
287.926
287.926
287.926
287.926
287.926
287.926
287.926
287.926
287.926
287.926
287.926
287.926
287.926
287.926
287.926
287.926
287.926
287.926
287.926
287.926
287.926
287.926
287.926
287.926
287.926
287.926
287.926
287.926
287.926
287.926
287.926
287.926
287.926
287.926
287.926
287.926
287.926
287.926
287.926
287.926
287.926
287.926
287.926
287.926
287.926
287.926
287.926
287.926
287.926
287.926
287.926
287.926
287.926
287.926
287.926
287.926
287.926
287.926
287.926
287.926
287.926
287.926
287.926
287.926
287.926
287.926
287.926
287.926
287.926
287.926
287.926
287.926
287.926
287.926
287.926
287.926
287.926
287.926
287.926
287.926
287.926
287.926
287.926
287.926
287.926
287.926
287.926
287.926
287.926
287.926
287.926
287.926
287.926
287.926
287.926
287.926
287.926
287.926
287.926
287.926
287.926
287.926
287.926
287.926
287.926
287.926
287.926
287.926
287.926
287.926
287.926
287.926
287.926
287.926
287.926
287.926
287.926
287.926
287.926
287.926
287.926
287.926
287.926
287.926
287.926
287.926
287.926
287.926
287.926
287.926
287.926
287.926
287.926
287.926
287.926
287.926
287.926
287.926
287.926
287.926
287.926
287.926
287.926
287.926
287.926
287.926
287.926
287.926
287.926
287.926
287.926
287.926
287.926
287.926
287.926
287.926
287.926
287.926
287.926
287.926
287.926
287.926
287.926
287.926
287.926
287.926
287.926
287.926
287.926
287.926
287.926
287.926
287.926
287.926
287.926
287.926
287.926
287.926
287.926
287.926
287.926
287.926
287.926
287.926
287.926
287.926
287.926
287.926
287.926
287.926
287.926
287.926
287.926
287.926
287.926
287.926
287.926
287.926
287.926
287.926
287.926
287.926
287.926
287.926
287.926
287.926
287.926
287.926
287.926
287.926
287.926
287.926
287.926
287.926
287.926
287.926
287.926
287.926
287.926
287.926
287.926
287.926
287.926
287.926
287.926
287.926
287.926
287.926
287.926
287.926
287.926
287.926
287.926
287.926
287.926
287.926
287.926
287.926
287.926
287.926
287.926
287.926
287.926
287.926
287.926
287.926
287.926
287.926
287.926
287.926
287.926
287.926
287.926
287.926
287.926
287.926
287.926
287.926
287.926
287.926
287.926
287.926
287.926
287.926
287.926
287.926
287.926
287.926
287.926
287.926
287.926
287.926
287.926
287.926
287.926
287.926
287.926
287.926
287.926
287.926
287.926
287.926
287.926
287.926
287.926
287.926
287.926
287.926
287.926
287.926
287.926
287.926
287.926
287.926
287.926
287.926
287.926
287.926
287.926
287.926
287.926
287.926
287.926
287.926
287.926
287.926
287.926
287.926
287.926
287.926
287.926
287.926
287.926
287.926
287.926
287.926
287.926
287.926
287.926
287.926
287.926
287.926
287.926
287.926
287.926
287.926
287.926
287.926
287.926
287.926
287.926
287.926
287.926
287.926
287.926
287.926
287.926
287.926
287.926
287.926
287.926
287.926
287.926
287.926
287.926
287.926
287.926
287.926
287.926
287.926
287.926
287.926
287.926
287.926
287.926
287.926
287.926
287.926
287.926
287.926
287.926
287.926
287.926
287.926
287.926
287.926
287.926
287.926
287.926
287.926
287.926
287.926
287.926
287.926
287.926
287.926
287.926
287.926
287.926
287.926
287.926
287.926
287.926
287.926
287.926
287.926
287.926
287.926
287.926
287.926
287.926
287.926
287.926
287.926
287.926
287.926
287.926
287.926
287.926
287.926
287.926
287.926
287.926
287.926
287.926
287.926
287.926
287.926
287.926
287.926
287.926
287.926
287.926
287.926
287.926
287.926
287.926
287.926
287.926
287.926
287.926
287.926
287.926
287.926
287.926
287.926
287.926
287.926
287.926
287.926
287.926
287.926
287.926
287.926
287.926
287.926
287.926
287.926
287.926
287.926
287.926
287.926
287.926
287.926
287.926
287.926
287.926
287.926
287.926
287.926
287.926
287.926
287.926
287.926
287.926
287.926
287.926
287.926
287.926
287.926
287.926
287.926
287.926
287.926
287.926
287.926
287.926
287.926
287.926
287.926
287.926
287.926
287.926
287.926
287.926
287.926
287.926
287.926
287.926
287.926
287.926
287.926
287.926
287.926
287.926
287.926
287.926
287.926
287.926
287.926
287.926
287.926
287.926
287.926
287.926
287.926
287.926
287.926
287.926
287.926
287.926
287.926
287.926
287.926
287.926
287.926
287.926
287.926
287.926
287.926
287.926
287.926
287.926
287.926
287.926
287.926
287.926
287.926
287.926
287.926
287.926
287.926
287.926
287.926
287.926
287.926
287.926
287.926
287.926
287.926
287.926
287.926
287.926
287.926
287.926
287.926
287.926
287.926
287.926
287.926
287.926
287.926
287.926
287.926
287.926
287.926
287.926
287.926
287.926
287.926
287.926
287.926
287.926
287.926
287.926
287.926
287.926
287.926
305.732
287.927
287.926
287.927
287.926
287.926
287.926
287.977
287.926
287.927
287.927
287.926
287.926
287.926
287.926
287.926
287.926
287.926
287.926
287.926
287.926
287.926
287.926
287.926
287.926
287.926
287.926
287.926
287.926
287.926
287.926
287.926
287.926
287.926
287.926
287.926
287.926
287.926
287.926
287.926
287.926
287.926
287.926
287.926
287.926
287.926
287.926
287.926
287.926
287.926
287.926
287.926
287.926
287.926
287.926
287.926
287.926
287.926
287.926
287.926
287.926
287.926
287.926
287.926
287.926
287.926
287.926
287.926
287.926
287.926
287.926
287.926
287.926
287.926
287.926
287.926
287.926
287.926
287.926
287.926
287.926
287.926
287.926
287.926
287.926
287.926
287.926
287.926
287.926
287.926
287.926
287.926
287.926
287.926
287.926
287.926
287.926
287.926
287.926
287.926
287.926
287.926
287.926
287.926
287.926
287.926
287.926
287.926
287.926
287.926
287.926
287.926
287.926
287.926
287.926
287.926
287.926
287.926
287.926
287.926
287.926
287.926
287.926
287.926
287.926
287.926
287.926
287.926
287.926
287.926
287.926
287.926
287.926
287.926
287.926
287.926
287.926
287.926
287.926
287.926
287.926
287.926
287.926
287.926
287.926
287.926
287.926
287.926
287.926
287.926
287.926
287.926
287.926
287.926
287.926
287.926
287.926
287.926
287.926
287.926
287.926
287.926
287.926
287.926
287.926
287.926
287.926
287.926
287.926
287.926
287.926
287.926
287.926
287.926
287.926
287.926
287.926
287.926
287.926
287.926
287.926
287.926
287.926
287.926
287.926
287.926
287.926
287.926
287.926
287.926
287.926
287.926
287.926
287.926
287.926
287.926
287.926
287.926
287.926
287.926
287.926
287.926
287.926
287.926
287.926
287.926
287.926
287.926
287.926
287.926
287.926
287.926
287.926
287.926
287.926
287.926
287.926
287.926
287.926
287.926
287.926
287.926
287.926
287.926
287.926
287.926
287.926
287.926
287.926
287.926
287.926
287.926
287.926
287.926
287.926
287.926
287.926
287.926
287.926
287.926
287.926
287.926
287.926
287.926
287.926
287.926
287.926
287.926
287.926
287.926
287.926
287.926
287.926
287.926
287.926
287.926
287.926
287.926
287.926
287.926
287.926
287.926
287.926
287.926
287.926
287.926
287.926
287.926
287.926
287.926
287.926
287.926
287.926
287.926
287.926
287.926
287.926
287.926
287.926
287.926
287.926
287.926
287.926
287.926
287.926
287.926
287.926
287.926
287.926
287.926
287.926
287.926
287.926
287.926
287.926
287.926
287.926
287.926
287.926
287.926
287.926
287.926
287.926
287.926
287.926
287.926
287.926
287.926
287.926
287.926
287.926
287.926
287.926
287.926
287.926
287.926
287.926
287.926
287.926
287.926
287.926
287.926
287.926
287.926
287.926
287.926
287.926
287.926
287.926
287.926
287.926
287.926
287.926
287.926
287.926
287.926
287.926
287.926
287.926
287.926
287.926
287.926
287.926
287.926
287.926
287.926
287.926
287.926
287.926
287.926
287.926
287.926
287.926
287.926
287.926
287.926
287.926
287.926
287.926
287.926
287.926
287.926
287.926
287.926
287.926
287.926
287.926
287.926
287.926
287.926
287.926
287.926
287.926
287.926
287.926
287.926
287.926
287.926
287.926
287.926
287.926
287.926
287.926
287.926
287.926
287.926
287.926
287.926
287.926
287.926
287.926
287.926
287.926
287.926
287.926
287.926
287.926
287.926
287.926
287.926
287.926
287.926
287.926
287.926
287.926
287.926
287.926
287.926
287.926
287.926
287.926
287.926
287.926
287.926
287.926
287.926
287.926
287.926
287.926
287.926
287.926
287.926
287.926
287.926
287.926
287.926
287.926
287.926
287.926
287.926
287.926
287.926
287.926
287.926
287.926
287.926
287.926
287.926
287.926
287.926
287.926
287.926
287.926
287.926
287.926
287.926
287.926
287.926
287.926
287.926
287.926
287.926
287.926
287.926
287.926
287.926
287.926
287.926
287.926
287.926
287.926
287.926
287.926
287.926
287.926
287.926
287.926
287.926
287.926
287.926
287.926
287.926
287.926
287.926
287.926
287.926
287.926
287.926
287.926
287.926
287.926
287.926
287.926
287.926
287.926
287.926
287.926
287.926
287.926
287.926
287.926
287.926
287.926
287.932
292.334
608.224
287.926
287.926
287.926
287.926
287.926
287.926
287.926
287.926
287.926
287.926
287.926
287.926
287.926
287.926
287.926
287.926
287.926
287.926
287.926
287.926
2272.17
407.513
724.168
839.181
302.36
287.926
287.97
769.109
299.318