/*--------------------------------*- C++ -*----------------------------------*\
  =========                 |
  \\      /  F ield         | OpenFOAM: The Open Source CFD Toolbox
   \\    /   O peration     | Website:  https://openfoam.org
    \\  /    A nd           | Version:  9
     \\/     M anipulation  |
\*---------------------------------------------------------------------------*/
FoamFile
{
    format      ascii;
    class       volScalarField;
    location    "0.00275";
    object      impulse;
}
// * * * * * * * * * * * * * * * * * * * * * * * * * * * * * * * * * * * * * //

dimensions      [1 -1 -1 0 0 0 0];

internalField   nonuniform List<scalar> 
22924
(
134.444
156.189
145.708
77.5418
85.3863
138.475
93.7355
102.947
124.997
90.9301
74.9431
16.9852
257.661
232.031
229.646
213.149
220.999
173.437
192.996
165.2
152.445
96.2234
130.402
103.191
101.399
138.817
276.08
273.112
279.396
250.432
283.535
265.154
273.434
267.095
241.812
245.125
257.008
255.644
265.785
257.237
234.143
233.297
247.267
207.979
246.459
218.737
236.206
218.905
192.149
176.845
207.362
199.842
222.982
200.151
154.579
150.481
189.617
131.199
178.294
122.673
171.36
128.117
111.158
72.1271
129.437
94.951
153.017
96.5101
169.808
143.753
145.183
129.452
96.8908
121.664
109.678
115.013
115.218
123.136
451.926
64.1942
406.995
68.6383
345.099
71.208
295.998
69.907
134.995
124.131
146.408
238.207
433.32
144.294
208.806
192.783
67.4392
190.095
143.938
215.328
375.103
136.018
195.938
180.128
70.9716
167.702
131.312
179.244
313.966
117.085
143.079
144.677
71.072
122.981
357.504
263.389
112.526
111.978
196.873
91.7724
76.1971
91.5333
60.1872
53.7629
131.447
144.755
58.0553
65.5259
145.748
59.4375
130.317
127.901
143.76
65.3848
69.7697
129.164
141.976
67.1879
117.012
133.379
71.6319
71.3535
121.068
129.212
72.5516
82.7529
111.673
68.1186
67.473
94.9503
102.529
62.3967
204.174
94.1121
169.65
132.299
114.657
115.571
49.5803
123.63
98.4976
307.063
477.21
187.403
147.304
475.527
188.265
306.253
303.057
144.877
452.451
185.875
464.451
186.261
298.851
130.489
65.7942
144.719
63.064
144.614
60.332
130.251
285.704
440.144
184.806
142.521
293.247
425.734
182.607
277.416
139.664
392.716
175.54
409.974
179.47
268.669
126.263
70.4593
136.813
70.3248
139.585
68.8164
124.051
248.917
373.652
170.522
126.271
259.152
353.619
164.841
238.038
121.517
314.3
152.264
333.748
158.844
226.068
111.633
71.3941
118.784
71.3818
124.438
72.6567
104.447
431.581
429.811
382.854
332.586
464.668
399.846
355.932
589.175
515.21
640.323
475.224
383.446
300.567
312.423
271.282
359.889
317.119
325.313
518.278
351.141
419.881
429.995
196.735
294.387
144.332
107.272
212.343
273.128
134.66
177.395
99.2841
211.629
110.352
244.158
122.381
157.108
68.4318
63.6468
79.8907
47.0325
91.2669
54.8961
54.214
212.528
104.058
112.033
248.613
125.126
181.861
159.46
75.8965
20.0829
66.2814
113.726
42.0667
64.3727
4.79154
135.88
105.433
168.587
102.157
103.464
137.498
89.6381
0.000843259
151.802
19.0532
369.087
360.309
354.148
327.087
317.594
280.9
347.741
254.717
262.398
196.449
181.823
151.014
258.47
219.69
189.52
169.073
295.315
321.846
310.07
371.783
321.654
311.255
298.103
290.258
366.335
314.079
304.796
318.639
308.141
285.123
271.421
308.801
300.409
346.785
278.939
300.399
295.141
262.268
336.912
277.247
281.119
288.913
288.471
252.588
230.411
265.835
272.843
307.61
242.25
253.601
263.347
216.27
295.789
222.26
237.296
239.574
251.778
198.995
157.211
201.36
219.981
241.142
178.817
177.836
201.549
136.404
219.066
134.84
163.912
154.351
184.19
113.365
385.229
369.229
411.266
320.41
419.168
336.985
379.748
345.995
289.079
263.655
300.135
301.205
342.211
302.443
146.595
162.522
150.633
160.973
137.572
165.737
139.744
219.734
255.226
186.156
255.173
191.175
218.388
213.518
190.014
91.3001
91.101
152.363
185.244
174.623
162.755
61.7181
3.7967
60.9859
1.39379
52.4861
0.0725168
16.1804
0.00534674
72.2871
0.845572
1.72129e-05
7.76356e-05
84.3721
117.329
84.9613
115.236
17.3205
17.8347
17.7508
15.9183
84.689
110.575
82.6153
98.7231
17.8484
11.6953
79.9534
104.472
54.2054
79.0876
40.2357
41.1089
8.75413
11.2395
59.2663
7.5055
63.0318
13.3074
98.0323
28.4796
62.4309
61.4707
96.2159
26.136
59.1697
91.7494
20.7104
51.7284
56.6996
77.905
27.849
39.1786
57.2074
16.3702
5.61184
26.5568
26.5034
4.73627
0.492854
3.9098
0.465015
0.0247324
1.32154
0.249974
0.0460019
0.000846482
26.9983
6.16674
1.51734
20.0133
0.547997
123.186
78.0785
105.304
84.6567
78.8228
105.396
122.646
121.93
84.5516
80.7518
103.336
79.3004
104.207
120.966
17.3307
12.1052
31.4205
17.2446
11.8417
31.0717
17.7605
16.5797
17.4314
11.1105
29.5057
11.5558
30.4413
15.4495
118.035
81.4593
102.058
84.4222
119.427
82.0355
100.865
116.302
83.8782
82.5911
96.4221
82.5382
99.1961
113.589
11.8879
10.3762
28.0266
17.7006
13.8688
9.35279
25.9711
104.009
81.8286
91.9953
74.8446
109.642
79.8457
84.9956
96.2195
66.289
69.9469
60.3038
76.1447
74.4342
85.6449
55.9039
60.5587
44.4838
26.6651
71.8689
48.5005
29.1642
40.1598
15.7082
25.9213
8.13875
36.129
16.4965
26.8854
58.8613
61.0848
44.0122
78.6174
46.0879
86.7893
51.8415
30.7236
23.6243
9.5943
6.87258
27.1239
24.9385
9.8062
83.5066
52.7159
61.7723
83.3241
52.3659
67.5466
67.9765
80.4281
49.0429
60.307
78.9306
46.7417
60.6915
63.3967
66.998
33.1457
45.9091
58.1058
25.6763
34.6484
44.0293
20.3582
3.67721
7.96333
9.65445
1.19267
1.48519
5.21091
71.5546
47.978
72.5442
43.6127
44.3757
33.9439
60.922
0.0202232
0.0103997
0.000476886
0.0560376
0.00197522
0.000668639
0.00017484
19.0427
0.605542
0.665582
0.0010212
61.5028
81.6282
50.6535
82.3885
51.6119
66.5148
65.3006
59.0736
72.9733
39.0707
76.6707
43.5037
56.8265
51.397
36.983
33.382
9.24692
46.4946
17.2228
23.912
13.292
3.20937
1.19402
0.160912
3.47973
0.403117
0.43056
0.143628
22.5917
4.13562
4.16514
18.5398
18.9411
12.0853
1.9875
21.1686
0.0709594
0.0942581
2.88573
18.1031
0.0504275
0.0640695
11.5298
0.0211544
0.023749
0.41468
0.500491
0.00544279
0.00501447
0.0650397
0.00109121
0.000849215
0.0073774
0.00480969
0.000342383
0.000252905
0.000614215
8.73004e-05
7.21779e-05
0.000482484
0.000218464
2.99209e-05
1.78256e-05
0.00025221
0.000102373
1.31335e-05
3.30607e-06
0.052435
56.4968
30.6164
82.6397
2.54252
58.7117
103.843
30.1144
10.1125
45.7012
4.79852
85.1162
149.434
178.888
152.557
93.4668
77.9015
32.2869
1.18113
6.5407e-05
0.296213
10.4176
0.15879
66.9177
59.6524
6.78506
91.0144
61.8092
55.8176
3.60146
50.1343
47.0435
1.99437
70.352
32.1073
32.7831
0.34371
11.4465
2.71044
0.0301728
16.3147
0.166342
0.178617
0.000816739
0.00571086
0.00772156
0.000511713
0.0602892
0.000872213
0.00056526
0.000152137
0.000792677
10.1856
1.36448
0.0186927
0.0123572
0.0543642
0.00259855
0.00792742
0.000542096
0.000106862
1.6693e-05
7.12832e-07
1.48718e-05
6.66211e-07
5.08174e-06
2.48718e-07
1.21459e-06
5.09079e-08
1.27823e-07
4.51269e-09
3.06936e-08
1.05335e-09
3.06348e-06
1.40719e-07
5.81758e-09
2.0278e-10
0.154868
0.0461333
0.00438984
9.86005e-05
0.00772543
7.3004e-06
3.54821e-07
1.62485e-08
6.85344e-10
2.47004e-11
466.314
394.7
405.314
434.362
442.864
405.708
460.365
443.003
418.197
8.12412e-06
4.10305e-06
2.02863e-07
1.51646e-06
8.24772e-08
4.51553e-07
1.82933e-08
7.53943e-08
2.77748e-09
1.79036e-08
6.62831e-10
0.000315366
1.34752e-05
6.11211e-06
1.67628e-06
4.03153e-07
278.892
5.95845
5.66199
55.1557
117.85
15.9836
94.8559
32.8589
0.281976
0.0368171
8.46674e-05
260.896
261.723
242.212
226.884
206.482
185.825
117.04
49.3628
8.60815
0.139905
151.476
144.877
96.5564
95.5999
137.345
102.637
141.054
125.74
102.12
738.034
658.385
946.558
808.487
601.088
766.187
1126.88
1014.35
1092.21
904.031
1172.06
969.649
1047.26
1643.77
1599.31
1708.78
1532.91
1074.7
855.897
865.88
945.888
917.871
996.481
1021.96
1577.22
1395
1466.1
1505.42
909.21
817.85
895.129
725.218
966.819
771.076
843.419
1325.82
1315.04
1422.22
1224.98
950.938
854.615
694.163
559.497
264.155
547.731
888.697
519.016
502.782
730.568
442.777
425.741
594.513
378.073
403.117
935.411
823.451
1084.63
952.278
826.47
1080.27
937.715
817.73
747.605
983.901
815.619
854.76
714.586
941.597
659.159
611.498
801.725
659.758
696.462
583.872
756.809
513.31
501.489
628.089
519.494
553.102
466.243
581.812
231.427
136.491
765.309
682.505
606.833
549.63
684.489
606.754
766.038
1449.36
1674.47
1657.13
1462.62
1184.76
918.987
914.412
1194.11
910.283
921.509
775.208
1018.8
801.376
1050.34
884.025
746.131
534.82
643.891
580.446
664.548
594.383
725.494
1397.36
1528.33
1596.04
1340.4
1143.61
856.118
887.107
1098.88
672.512
622.393
563.822
483.856
702.409
596.44
541.509
1228.83
1461.97
1284.69
1398.71
1012.21
826.333
1056.42
794.808
776.112
772.511
641.683
847.46
677.488
894.192
735.397
639.28
462.808
539.327
493.149
567.271
516.928
607.193
1171.14
1266.07
1334.37
1109.59
965.713
723.536
760.912
915.457
548.347
516.063
470.515
410.421
577.082
495.193
448.706
968.972
1190.53
1041.7
1107.95
801.611
682.064
860.12
638.236
623.463
626.828
531.361
670.991
557.649
713.19
588.816
520.84
395.023
454.452
406.113
475.235
427.555
493.555
897.524
946.621
1024.97
830.798
744.268
554.292
595.109
690.701
706.19
873.366
768.485
801.169
456.174
467.411
362.776
435.97
419.561
517.095
385.515
620.725
580.12
703.236
512.83
158.064
329.49
135.952
119.963
292.389
141.762
208.176
852.804
797.192
730.845
649.552
595.205
844.253
771.426
686.596
616.189
566.497
497.949
468.386
355.818
762.362
652.315
528.728
733.662
501.692
487.311
434.914
420.162
371.356
680.109
627.024
642.999
667.44
681.451
671.281
660.765
669.58
612.667
662.604
644.536
639.024
583.332
613.08
526.329
661.787
553.41
646.206
532.473
561.986
651.278
651.164
651.045
518.808
543.466
611.276
556.375
632.331
632.714
583.675
526.832
592.922
471.567
611.645
507.786
568.744
553.909
452.284
468.504
516.288
486.486
540.715
529.747
490.337
452.918
496.194
405.948
509.57
436.806
477.939
471.291
390.358
397.129
437.812
419.36
459.281
447.963
3.43033
0.000242532
0.000535594
1.02074e-05
2.8979e-05
24.9669
0.71868
10.6644
0.234013
0.0167849
0.00920714
0.000172321
6.29438e-06
2.08273e-05
2.41387e-06
0.000199862
6.79564e-06
1.69417e-05
498.121
1122.64
152.878
91.8934
9.43799
0.505208
0.0279188
0.000321684
5.87802e-05
471.342
1017
160.959
90.8737
7.59659
0.171967
0.000576211
0.00011951
2.62445e-05
390.549
819.681
157.584
78.9483
3.17559
0.00821242
1.41774e-05
8.23211e-06
7.19569e-06
299.648
623.793
151.458
37.723
0.201298
0.000360798
8.40216e-05
2.89652e-06
4.36321e-07
90.8207
296.79
78.8875
86.6117
0.00417627
1.40642
1.09259e-05
7.68511e-05
8.25109
126.349
0.00438902
23.7738
2.19296e-05
0.00025749
981.064
927.607
949.319
831.46
1001.67
280.338
490.402
948.805
274.804
1058.07
1051.66
985.334
138.399
155.6
139.645
16.6257
59.641
15.6608
91.662
16.2017
58.2008
12.6475
0.636708
4.98675
0.303919
8.34446
0.431074
3.5105
0.0884383
878.145
782.79
921.2
269.265
444.622
796.596
261.812
874.555
140.184
161.478
138.61
15.7745
52.8179
10.7102
87.5398
12.62
36.0424
3.86544
0.327563
2.69698
0.0437604
4.37408
0.0866801
0.666685
0.00716858
693.486
619.202
545.171
747.005
385.885
349.245
611.145
351.854
669.902
646.887
133.598
150.696
121.954
10.7515
18.9575
2.07939
59.8692
3.50665
3.71929
0.0969187
0.045248
0.325461
0.00165649
0.527323
0.0028408
0.0139733
0.000657572
501.743
512.098
394.04
374.795
569.521
310.798
233.974
403.071
161.035
607.028
445.809
437.019
104.867
120.319
22.9978
1.66442
0.148867
0.0246709
0.450764
0.0993009
0.00336987
0.000678916
0.00101262
0.00348228
0.000279244
0.11064
0.194382
0.000898775
0.00105927
81.3681
13.6288
8.37665
20.5952
70.2796
0.0467128
1.21473
79.6819
10.7713
13.5159
81.0503
83.5823
2.05828
20.0832
238.499
70.7181
228.611
62.453
193.06
20.0305
127.246
0.00230291
6.77629
0.00112043
285.05
285.355
241.135
198.892
155.454
237.34
242.185
196.214
155.457
284.67
270.225
240.967
163.849
153.298
212.73
232.32
174.175
148.763
253.534
229.55
210.956
133.515
140.742
166.786
188.581
129.43
125.471
192.739
137.656
153.713
52.6241
105.168
63.4459
96.3577
0.571575
18.8381
1308.69
1163.52
1265.71
1109.87
1153.57
1252.4
1321.88
153.995
182.312
182.48
62.5495
88.3255
88.6393
61.4986
3.39691
3.40057
11.8215
9.20191
3.25916
11.4945
3.56406
1160.17
1042.17
1165.94
977.021
1202.84
997.829
1129.95
187.794
161.878
188.404
78.1116
96.8706
74.3906
99.7328
1.64873
2.27525
9.03475
6.64761
2.18225
1.80667
7.6635
938.594
839.733
974.659
767.386
999.335
789.173
913.376
154.602
183.042
179.434
86.7852
103.294
84.9652
103.418
0.22528
0.568459
2.94012
2.06257
0.436062
0.31595
1.66226
695.463
645.493
730.274
576.581
755.883
597.369
670.651
127.066
161.746
137.989
86.6423
101.226
89.2696
98.329
0.00319673
0.0210405
0.106856
0.0613363
0.0110886
0.00687767
0.0283336
44.4212
189.898
113.832
260.924
152.892
166.216
104.926
283.034
169.1
253
180.353
178.839
118.033
145.725
79.9822
88.0023
57.3438
121.664
59.0335
124.675
76.9279
0.000121607
0.000288329
0.149649
0.970724
0.000875016
0.0983213
0.000195048
2.25904
0.00115778
0.0230943
0.169875
0.380285
0.000317002
0.000560752
923.672
849.075
1112.35
991.449
842.013
1102.12
931.576
278.473
455.661
453.469
734.176
252.587
249.936
743.513
1375.07
1723.43
1696.94
1394.24
907.967
971.132
808.872
1060.99
827.81
1082.1
888.36
447.614
271.861
440.91
715.062
239.345
244.396
693.074
1334.99
1590.84
1644.48
1289.4
1281.19
1133.97
1206.04
1056.74
1128.15
1198.86
1291.71
1980.87
1954.86
1921.61
2014.4
1931.54
1838.02
1815.92
1959.7
1275.55
1082.39
1083.52
1196.2
1120.71
1225.02
1240.43
1246.83
1022.2
1055.71
1130.68
1093.68
1165.44
1211.18
1907.01
1787.83
1855.81
1827.75
1859.67
1671.67
1747.83
1779.8
139.446
149.77
151.254
81.5053
96.47
97.6139
79.5921
183.165
158.626
185.509
65.0877
93.2041
89.9391
69.684
152.247
140.31
154.047
84.3276
102.039
99.3297
88.8427
42.0609
22.3628
26.3368
16.4647
22.4792
25.9909
42.194
41.9293
16.4002
23.8057
24.5867
23.0614
25.4626
41.6314
0.651585
0.793293
0.54326
0.596942
0.746529
0.50777
0.694361
3.10225
8.86925
2.69487
10.1445
3.02708
10.9575
2.68686
0.57398
0.525185
0.555014
0.355088
0.663809
0.441534
0.472866
838.325
784.301
1037.92
886.869
865.359
755.098
1007.88
433.272
266.041
424.172
651.264
235.189
672.164
231.262
1208.47
1546.76
1248.72
1500.36
807.112
845.285
684.425
922.58
722.486
969.378
770.966
413.286
400.393
256.384
628.992
221.738
227.063
604.24
1166.02
1389.8
1449.3
1118.2
1697.97
1732.03
1760.81
1676.77
1109.66
928.592
892.446
1031.68
946.697
1084.2
1056.42
1633.67
1550.55
1618.03
1562.81
154.896
139.676
154.909
95.5084
104.039
92.6859
105.546
187.473
159.933
185.639
80.8248
102.75
101.636
83.0227
136.708
154.156
152.484
97.4149
106.634
106.453
98.6787
39.7888
24.4702
23.2509
15.0714
40.9651
25.0007
21.3911
37.9306
14.0437
25.1873
15.9838
25.2983
18.9678
35.1873
0.260182
0.434073
0.262664
0.229908
0.363342
0.318007
0.17793
1.15455
5.55351
0.913986
4.48037
1.33856
6.10739
0.745775
0.172972
0.14796
0.138262
0.0610344
0.217755
0.109846
0.105167
686.753
643.831
870.765
698.714
730.283
604.185
815.357
369.759
249.843
242.107
544.619
214.823
576.164
206.362
992.571
1315.86
1060.49
1226.82
642.627
653.3
530.801
705.356
566.768
759.465
598.536
332.256
233.129
223.11
510.929
187.041
196.962
475.994
919.248
1034.26
1130.44
845.024
1380.78
1468.45
1479.02
1369.47
876.729
717.233
692.173
789.847
739.348
850.668
815.801
851.383
685.406
681.295
742.783
725.222
792.32
795.135
1274.97
1155.72
1262.28
1169.65
1224.38
1044.66
1133.02
1125.5
128.916
149.806
145.996
99.8265
105.996
99.4867
104.25
174.922
169.25
145.434
88.3726
102.61
103.215
89.4284
111.447
140.488
132.57
99.3277
94.065
100.739
97.307
26.1937
24.4319
12.5296
8.47452
31.3403
22.753
8.81624
19.8047
5.95317
15.526
2.53351
19.8131
5.27464
12.7303
0.0274917
0.0793939
0.0300373
0.0208114
0.0574544
0.0404652
0.0128957
0.099772
1.14715
0.0626476
0.326049
0.152973
0.80249
0.0369307
0.0113024
0.00820084
0.00651151
0.0016036
0.0176278
0.00481554
0.00388425
508.224
494.13
652.771
525.17
554.253
453.968
599.374
286.747
198.421
211.804
403.343
177.006
440.22
166.462
701.753
942.668
772.56
855.219
451.2
470.236
346.66
450.16
404.818
532.512
381.812
223.532
257.609
181.402
358.564
138.013
153.018
305.167
616.954
620.348
749.064
513.354
681.811
637.622
692.89
562.919
739.045
591.115
640.55
973.511
1053.81
1069.44
956.428
943.228
961.648
1032.57
880.627
619.097
518.511
463.291
503.703
537.966
596.248
523.165
607.626
506.93
459.672
480.997
532.929
570.201
513.229
852.795
694.846
837.112
707.824
827.393
638.72
772.557
685.982
72.5403
95.2938
121.269
83.0319
81.8131
92.4781
62.9241
137.641
89.815
111.157
80.4672
87.6565
93.2628
71.1699
54.9386
81.7031
46.5942
67.4212
20.4262
40.5278
47.9895
2.16154
10.3138
0.936457
0.600172
6.32272
5.28111
0.265184
0.507249
0.166492
0.401619
0.0307456
1.76094
0.0616157
0.104582
0.000754784
0.00210623
0.000564568
0.00148378
0.00118081
0.00154069
0.000742405
0.00471375
0.0223616
0.142652
0.0328607
0.0120535
0.00870526
0.0436403
0.00562463
0.0164318
0.173286
0.0654806
0.0139969
0.00688072
0.0557451
61.8587
77.2715
54.6218
111.938
52.166
100.819
70.2286
26.4172
29.4894
6.32265
8.44256
25.6838
33.4803
5.39443
79.58
85.1305
56.0543
115.31
58.5207
122.028
76.4316
42.284
33.2782
12.5031
11.3018
35.7454
39.0598
13.2878
43.1405
35.4328
13.361
14.5352
36.3322
42.2299
14.2905
2.00237
0.62843
0.000166627
1.12526
0.00113071
6.23936e-05
0.188385
5.3202e-05
1.25236e-05
0.00532116
0.000128005
1.78444e-06
73.3432
2.27655
0.000100415
24.0021
0.000332705
2.33687
1.43185
1.85644
1.01927
0.33811
16.101
1.25639
5.60824
14.3714
0.00516841
7.55561
0.0149842
5.58285
0.0011193
1.71745
2.81336
0.000726299
0.172921
0.202637
0.235883
0.00125226
0.0173253
12.9981
78.4167
16.8395
6.83241
5.96369
1.92115
1.88735
5.73303
1.79978
7.1304
3.53488
4.22746
0.983558
0.817216
4.60361
3.45121
0.685915
0.437152
1.14398
0.134905
0.0929581
0.882921
0.625458
0.0614887
0.0088334
0.0455288
0.00289165
0.00319668
0.0237206
0.0181407
0.00161875
65.3839
66.7622
52.6862
106.457
48.5884
96.4859
71.6607
1.08416
0.0251317
0.0137843
0.341741
0.240404
0.00067628
0.00150839
6.31165
1.69438
4.88732
1.29903
5.38574
1.58444
5.55988
2.47843
0.548207
1.83497
0.25866
2.62726
0.441265
1.56338
9.59781
17.173
6.57826
19.804
8.07105
23.2504
7.13768
2.68639
4.92337
15.636
11.9129
4.72575
3.26179
10.9809
0.186621
0.0399929
0.124965
0.00849366
0.301206
0.0242666
0.0690235
1.2801
8.83257
0.915212
3.04818
1.87759
6.48073
0.511384
0.0629664
0.373724
1.16288
1.13901
0.181913
0.1383
0.40112
0.00935404
0.0183805
0.178916
0.0702099
0.0207207
0.00787623
0.0634066
0.0265951
0.435861
0.15485
0.0799196
0.0623387
0.145069
0.0557955
35.6813
33.4825
11.5032
13.986
30.2678
39.8448
12.2738
350.219
134.82
169.283
299.026
149.883
209.036
239.951
391.517
171.833
186.33
401.857
190.992
274.815
266.17
173.62
363.193
151.653
164.604
389.597
185.702
268.955
91.9101
112.21
112.725
69.0863
78.1935
78.7446
69.0706
0.374437
17.5342
15.9751
6.55008
0.023758
4.48761
0.012825
0.00141283
0.00106653
0.0201851
1.46898
0.00605962
0.897299
0.00372424
89.6306
112.55
111.877
68.1554
81.6194
68.9264
82.1843
7.77015
0.0490936
14.2599
3.35525
0.0083584
0.697858
0.00145607
0.00901206
0.000227608
0.0019548
0.630077
0.00226005
0.116508
0.0008426
71.0794
105.291
99.8247
53.4339
80.1152
59.8838
76.737
0.384202
0.000399121
0.334989
0.315615
0.0007427
0.0113691
0.000238893
0.000145994
5.84869e-05
0.000624645
0.0511574
0.000321465
0.00180802
7.57176e-05
12.6536
28.4336
58.9209
8.14093
45.8855
19.5031
29.0559
2.41525e-05
0.000147808
0.012042
0.00275932
7.66738e-05
0.000186703
1.24274e-05
5.09689e-06
3.25602e-06
3.47881e-05
0.000208812
1.3936e-05
8.66555e-05
4.63541e-06
103.641
42.8484
66.8415
54.9966
99.0138
65.8535
94.0264
1.8031
0.13476
1.3423
0.180366
1.75182
0.164536
0.120576
0.244688
59.5139
15.0779
107.369
64.2438
37.6571
0.784416
77.0507
18.5708
63.8608
118.655
75.2267
46.8221
1.52599
0.000173711
0.463186
0.000918478
35.3703
0.16096
0.00549419
0.000401395
0.707552
6.21314
0.00139099
44.0707
0.29329
0.0424652
0.000505809
112.62
91.5498
112.888
69.1356
80.7708
79.556
69.2227
84.1783
110.685
108.659
66.6696
81.7441
82.3065
64.0909
45.2102
91.0159
77.4514
44.2938
60.2997
70.5213
32.5354
4.70583
17.6763
3.02862
1.99056
3.7932
13.4102
0.357663
1.72419
7.58282
31.0263
20.63
8.12702
31.5972
3.32379
68.9303
109.768
108.886
149.067
70.8072
146.675
66.2285
42.6217
106.529
101.058
139.603
55.1678
127.309
37.3498
2.69512
89.5094
66.0617
107.464
15.7112
72.526
1.65086
0.308347
0.0653868
37.0728
23.8314
0.0389095
0.0608547
0.00020178
0.0111233
28.7693
6.15169
8.18556
0.0329637
0.0218576
0.000496046
5.05249e-05
0.000123153
0.0561371
0.00517902
9.27351e-05
0.0001458
1.14743e-05
141.835
183.32
147.418
230.498
134.548
176.887
144.142
0.0699586
0.79465
0.889906
0.0805646
0.294038
0.0244793
0.012543
0.690065
0.0909777
0.891565
0.0668479
0.517594
0.0443978
0.0779377
0.238273
0.253096
2.26645
2.09355
0.221941
2.06311
0.206106
0.00207624
0.00153414
0.47179
1.68032
0.032845
1.245
0.0233737
0.226481
0.000606379
0.0673783
0.579626
0.00993689
0.170246
0.00280802
0.000582951
0.000198126
0.00127348
0.0299941
0.000705576
0.00352767
0.000205371
8.71526e-06
1.63479e-05
0.000157172
0.00231907
6.76891e-05
0.000322632
2.25839e-05
0.250925
0.264604
2.26998
1.97635
0.23431
1.9707
0.221061
0.82606
0.831953
0.104816
1.52698
0.128665
0.914687
0.181177
1.45893
0.164354
0.102563
0.000272493
1031.5
887.384
621.583
469.765
288.819
147.994
1281.23
370.297
951.002
1154.51
377.153
893.892
920.723
1019.94
271.213
866.766
859.998
270.474
739.091
694.552
650.444
256.886
690.424
571.166
231.448
566.519
550.312
514.544
484.79
187.19
528.353
128.439
371.317
481.444
360.017
64.6881
315.908
323.967
300.626
303.544
274.028
275.145
299.542
285.458
264.446
237.716
260.67
226.098
189.193
128.915
180.98
129.948
1308.27
1069.44
1062.78
1209.3
1047.72
1039.09
1230.28
373.605
237.359
244.208
355.232
510.535
511.273
350.894
1221.46
1022.69
974.248
1165.54
972.319
1008.16
1118.34
253.302
264.328
379.811
359.753
507.754
510.144
366.494
1093.48
862.846
923.745
1016.43
934.512
1071.77
885.63
272.955
378.683
373.603
363.795
500.114
368.175
487.04
938.848
739.966
797.727
949.005
767.5
827.259
877.78
264.979
365.065
354.137
353.641
450.351
470.339
339.297
739.193
793.319
692.185
751.356
714.235
809.253
668.355
245.931
341.26
326.087
303.249
428.143
322.126
404.86
610.786
641.736
689.623
700.376
584.995
626.462
650.163
211.991
308.811
288.754
283.151
356.899
381.499
260.221
529.649
538.725
591.74
540.298
541.686
597.428
493.51
158.269
264.944
237.375
201.446
329.182
233.065
297.087
106.046
207.343
179.703
166.827
223.483
260.207
138.213
319.804
246.724
252.308
259.489
268.65
328.336
276.158
330.404
329.21
271.336
324.702
317.291
253.628
307.083
293.677
216.13
276.698
256.355
158.596
232.412
205.316
103.268
177.67
152.027
236.97
271.486
207.04
887.405
980.69
808.709
941.59
971.429
802.877
896.691
867.235
919.184
917.516
774.45
946.327
789.733
846.66
786.679
887.199
753.358
832.185
820.956
847.588
724.968
741.673
788.423
744.107
646.672
798.509
689.217
688.835
592.244
691.93
603.773
645.073
637.547
645.668
564.82
553.255
604.677
564.858
496.939
604.151
530.149
515.424
429.831
524.387
462.074
485.531
474.953
478.468
422.089
379.083
433.192
363.747
320.566
424.903
374.667
40.9728
103.402
5.27695e-05
3.35473e-06
7.78241e-07
6.81826e-05
4.01593e-06
2.47823e-05
1.44965e-06
4.84083e-06
0.000184541
1.06675e-05
9.59757e-05
5.26772e-06
4.54546e-05
2.74456e-06
2.69043e-06
3.05924e-05
0.000188345
8.24645e-05
0.0131513
5.62386e-05
6.2067e-06
0.000157129
0.0683314
0.000138129
2.4982e-05
0.0244217
0.000125452
1.40812e-05
6.56882e-06
0.000226029
1.38683e-05
0.000194729
1.31784e-05
7.8559e-05
5.90092e-06
0.000297084
0.00976816
0.000270285
3.63293e-05
0.004361
0.000226486
2.9602e-05
1.49833e-07
2.45268e-07
4.74732e-07
6.90554e-06
9.91171e-06
1.11282e-06
2.90733e-06
2.34418e-06
6.3509e-06
5.39441e-07
7.42646e-07
1.22081e-05
6.48255e-06
5.0327e-07
3.08238e-07
4.23423e-06
2.61559e-06
1.77723e-07
1.16871e-07
8.57769e-07
4.33721e-07
3.70069e-08
1.44309e-08
1.2097e-07
2.0931e-08
3.63784e-09
8.14743e-10
5.20175e-09
6.69376e-09
1.72431e-10
1.70328e-10
9.69793e-06
4.94194e-07
3.92604e-06
2.0073e-07
8.83449e-07
3.31009e-08
6.71429e-08
2.33353e-09
1.50353e-08
4.37243e-10
2.51388e-07
6.62338e-09
1.69894e-10
6.25706e-07
2.32415e-08
7.98601e-10
2.51721e-11
3.20846e-08
1.38733e-07
9.08559e-10
3.66781e-09
2.43115e-11
8.78688e-11
9.99316e-08
3.65366e-07
3.67383e-09
1.34415e-08
1.2772e-10
4.5859e-10
3.92647e-12
1.40878e-11
3.57496e-08
48.1875
161.723
84.8229
386.9
379.41
274.159
133.866
306.517
178.733
228.089
127.302
196.473
93.4549
97.3318
151.679
121.071
183.184
172.73
120.209
437.49
428.804
485.332
479.533
379.948
440.199
413.498
268.317
299.231
281.031
213.845
146.379
22.8585
84.2819
171.522
111.117
149.493
59.7274
324.055
318.65
284.973
240.141
226.438
306.815
274.05
259.743
150.032
167.87
151.103
174.947
205.011
164.504
180.688
218.274
297.366
266.437
251.264
258.313
249.64
219.139
120.018
108.793
106.646
131.981
136.46
124.479
112.538
21.2615
262.321
210.557
551.37
678.979
685.823
642.56
593.909
557.083
520.536
498.595
469.34
680.802
603.361
607.026
624.144
674.119
634.115
620.159
596.369
608.657
561.844
575.667
582.695
591.128
560.958
523.952
538.864
542.646
521.035
570.183
540.781
549.321
475.839
498.044
502.727
500.81
496.775
475.035
758.173
723.336
724.392
747.573
758.884
712.618
700.985
694.139
661.52
624.86
630.305
663.541
700.641
665.574
757.718
722.152
700.847
751.212
731.442
693.108
708.966
867.645
807.413
797.924
801.479
814.6
868.456
881.679
619.377
597.293
624.692
595.206
597.55
573.34
572.086
49.0898
43.5587
35.2775
92.8424
62.5008
74.5625
53.844
82.2061
73.3695
76.6744
0.000324949
0.000116903
5.38134e-06
1.75295e-06
287.414
301.679
304.546
284.223
290.468
307.918
306.377
293.878
294.784
308.086
295.302
306.277
291.776
293.927
301.69
286.053
263.668
282.848
277.063
268.327
244.616
227.551
249.928
218.779
149.452
201.021
186.144
171.123
114.824
115.367
141.604
86.0376
1.78022e-07
9.04386e-06
3.77461e-07
3.05213e-06
1.14542e-07
5.25513e-07
2.22404e-08
7.96463e-08
2.64965e-09
6.33167e-09
2.04001e-10
2.04633e-08
6.93116e-10
2.14729e-11
1.4628e-09
5.46966e-11
1.79959e-12
103.702
101.719
100.316
0.0051303
0.000132702
0.000221268
3.68991e-05
4.61976e-05
3.63213e-06
1.71886e-05
3.81348e-07
1.70638e-06
7.27132e-08
5.64711e-07
2.62222e-08
1.43882e-07
5.63713e-09
1.74646e-08
6.86201e-10
771.662
847.194
815.379
800.559
857.197
777.791
826.564
685.962
771.676
703.702
722.575
745.551
791.227
745.848
571.269
548.894
550.808
573.769
552.188
531.715
531.244
620.979
631.289
662.633
650.367
682.249
700.685
665.255
776.689
788.777
851.464
748.326
756.02
722.811
710.423
938.839
955.171
1035.84
952.253
961.953
1029.82
1028.18
992.278
940.42
878.983
927.604
888.947
990.678
947.683
569.813
578.026
604.418
591.002
620.462
634.036
603.434
823.171
748.817
793.956
733.908
710.361
691.549
710.037
841.72
854.122
933.438
910.013
919.289
993.185
994.851
831.427
778.706
828.432
851.021
802.963
907.191
856.076
636.989
722.248
766.359
731.22
687.829
657.776
668.456
733.257
725.475
772.661
753.93
710.778
799.94
746.861
648.141
602.901
575.184
691.889
655.848
623.371
592.858
900.342
889.695
805.258
867.857
857.584
925.23
959.961
983.68
1039.24
1024.51
1017.1
1028.9
1038.48
1034.48
483.489
486.649
502.86
525.713
528.686
511.629
509.85
777.065
837.035
826.46
783.47
848.369
891.55
797.519
695.009
736.4
695.423
753.955
800.406
753.33
711.392
657.678
644.899
683.852
671.996
635.158
700.837
659.725
590.672
552.729
531.446
598.984
626.126
567.759
545.145
912.145
964.62
984.438
999.951
948.022
966.555
1000.89
524.12
543.71
552.465
529.653
561.701
574.247
542.874
270.574
267.633
216.092
98.9167
275.318
271.728
272.417
267.548
240.686
240.182
225.625
151.437
180.168
116.595
304.818
294.71
291.572
275.386
293.912
292.804
304.042
304.478
273.979
289.055
291.732
292.028
292.591
303.437
296.618
284.174
289.125
261.169
300.837
277.438
284.774
290.279
252.329
256.461
269.167
268.451
278.298
281.25
250.894
240.11
256.848
206.282
268.678
217.621
240.513
226.422
181.719
147.934
193.666
187.041
219.48
194.278
113.519
105.704
162.727
82.4988
154.506
68.7662
128.417
42.9687
49.1149
79.3407
56.094
35.5317
75.7197
44.4098
97.4472
58.8659
195.752
78.1775
25.7443
0.000856701
1.71359e-06
1.20188e-07
6.22344e-09
187.626
171.517
109.616
38.1892
4.52682
121.95
183.733
118.431
107.254
156.401
81.8626
69.7441
78.9771
22.241
9.15156
9.94467
0.64286
0.0899012
0.43107
3.48564
111.463
98.6045
108.939
94.549
97.4078
70.0973
91.3114
52.3892
56.8085
27.6978
64.4481
1.11622
24.8601
0.0358358
3.34283
0.0032979
0.00156623
0.0103837
0.311225
0.0518396
0.017899
1.94374e-05
1.68623e-06
8.28006e-08
3.51913e-09
1.2815e-10
0.0536632
1.7437e-05
8.53281e-07
0.000256344
1.38967e-06
5.87255e-08
6.27666e-06
2.37287e-07
8.85121e-09
0.000182735
3.44461e-06
1.40394e-07
2.80645
1.31044e-05
7.95585e-07
1.55638e-05
7.03093e-07
3.37909e-08
1.48192e-09
5.9807e-11
2.08953e-12
4.22722e-07
2.99204e-08
1.67423e-09
8.1964e-11
3.54739e-12
1.03804e-13
1.60265e-08
1.2217e-09
7.41841e-11
3.83564e-12
1.41517e-13
0
1.75406e-06
4.56436e-06
1.19009e-07
3.9288e-07
5.8819e-09
1.89235e-08
2.56318e-10
8.29601e-10
9.9911e-12
3.32015e-11
3.04863e-13
1.12886e-12
7.89764e-08
2.29514e-07
5.5632e-09
1.65669e-08
3.04988e-10
9.29066e-10
1.43111e-11
4.53257e-11
5.65342e-13
1.93092e-12
6.18456e-15
4.81426e-14
3.21438e-09
8.84505e-09
2.32702e-10
6.7834e-10
1.3441e-11
4.10826e-11
6.3701e-13
2.08602e-12
1.18841e-14
6.85153e-14
0
0
5.47033e-07
3.62944e-08
1.87327e-09
2.31673e-08
1.5898e-09
8.81745e-11
8.77277e-10
6.2887e-11
3.6341e-12
0.270159
3.09424e-05
0.000106564
7.99891e-06
7.26261e-07
1.77553e-06
5.17321e-07
3.06977e-08
7.6221e-08
0.0144694
6.53177e-06
2.26077e-07
22.3081
3.90218e-05
1.56766e-06
30.6062
0.000570773
2.42886e-06
8.42225e-11
3.39047e-12
9.50725e-14
4.20611e-12
1.52553e-13
0
1.54857e-13
0
0
6.54182e-05
3.26143e-06
1.34814e-07
2.3152
1.37248e-05
8.28462e-07
7.9019e-06
4.69023e-07
2.48344e-08
1.21518e-09
5.31509e-11
1.94195e-12
3.38802e-07
2.34692e-08
1.38453e-09
7.08443e-11
3.15995e-12
9.24047e-14
1.38462e-08
1.03931e-09
6.41405e-11
3.36986e-12
1.25389e-13
0
1.70168e-05
3.81222e-06
2.03097e-07
9.71621e-09
4.17736e-10