/*--------------------------------*- C++ -*----------------------------------*\
  =========                 |
  \\      /  F ield         | OpenFOAM: The Open Source CFD Toolbox
   \\    /   O peration     | Website:  https://openfoam.org
    \\  /    A nd           | Version:  9
     \\/     M anipulation  |
\*---------------------------------------------------------------------------*/
FoamFile
{
    format      ascii;
    class       volScalarField;
    location    "0.00275";
    object      rho.air;
}
// * * * * * * * * * * * * * * * * * * * * * * * * * * * * * * * * * * * * * //

dimensions      [1 -3 0 0 0 0 0];

internalField   nonuniform List<scalar> 
22924
(
0.719386
0.708861
0.703735
0.699464
0.678806
0.863969
0.927068
0.905103
0.896492
2.08017
2.29858
2.15466
0.539898
0.871262
0.636218
0.855989
1.00722
1.48506
1.09846
1.37128
1.74286
2.17309
1.69544
2.37219
1.58434
1.02647
0.565651
0.543342
0.49255
0.633831
0.478583
0.641157
0.576881
0.661231
0.745769
0.889601
0.766509
0.757696
0.669602
0.761899
0.981295
1.04204
0.865406
1.14763
0.868517
1.21423
0.964982
1.09994
1.30117
1.64548
1.18004
1.40448
1.06719
1.24106
1.69838
1.97515
1.3341
2.09639
1.42972
2.32092
1.56978
1.97808
2.39915
1.97842
2.07001
2.4737
1.89482
2.00443
0.981557
1.44455
1.20155
1.067
1.27299
1.75839
1.33473
1.45537
1.09418
1.31803
0.374416
0.176182
0.495709
0.199944
0.785941
0.323802
1.11487
0.637271
1.74399
1.79857
0.137213
0.36662
0.406115
0.145354
0.41346
0.388128
0.187803
0.403909
0.15464
0.517715
0.631003
0.223775
0.735857
0.469475
0.281463
0.619148
0.25923
0.923793
0.980021
0.428773
1.20152
0.961162
0.526728
1.29903
1.1733
1.68579
0.524491
1.7095
1.56631
1.0042
2.30522
1.85572
1.23035
2.29328
0.311572
0.243316
0.265949
0.179038
0.247062
0.271028
0.306049
0.421147
0.28226
0.311582
0.219448
0.370896
0.315017
0.345387
0.761118
0.481091
0.509513
0.376055
0.652985
0.558418
0.589666
1.54741
0.922422
1.00567
0.785059
1.28093
1.12529
1.24521
1.93716
1.1193
1.67767
1.74606
1.96012
2.02468
2.43034
1.49622
2.05604
0.323516
0.300133
0.218397
0.139125
0.303643
0.220869
0.320384
0.329648
0.140827
0.323408
0.230808
0.309464
0.223606
0.344931
0.319496
0.181545
0.262011
0.289627
0.251564
0.276948
0.337818
0.411829
0.347669
0.245007
0.170949
0.371761
0.385097
0.269596
0.463986
0.194311
0.494122
0.34971
0.434922
0.304945
0.525187
0.485948
0.246851
0.415496
0.445015
0.360033
0.390373
0.563006
0.66282
0.559123
0.403251
0.302489
0.59138
0.62958
0.466582
0.74625
0.356927
0.817719
0.647783
0.712512
0.545267
0.851373
0.89769
0.441777
0.770007
0.827618
0.651904
0.693212
1.06825
1.42149
1.19282
1.16393
1.34309
1.21394
1.37696
1.3612
1.40122
1.13413
1.18969
1.33912
1.6439
1.53595
1.72508
1.73932
1.57736
1.57812
1.80712
1.61364
1.71277
1.54933
1.77732
1.17177
0.951319
0.78093
0.653699
0.985846
1.13079
0.96207
1.38546
0.81259
1.50778
1.43802
1.31733
1.17497
1.62744
1.80138
0.982512
1.64805
1.73611
1.36908
1.50576
2.00839
1.6385
1.04389
1.62753
1.634
1.55924
1.80312
1.8102
2.32747
2.26368
2.39496
1.77915
2.3539
2.38314
1.69831
1.89056
1.41424
1.70964
1.79656
1.84508
1.90751
2.089
1.22506
1.57492
2.20291
0.348786
0.418066
0.487896
0.729877
0.801651
1.03966
1.1464
1.50013
1.13907
1.54409
1.61344
0.988887
1.35433
1.56506
1.09692
1.0088
0.324647
0.298069
0.348831
0.354142
0.303476
0.354722
0.319138
0.342849
0.373505
0.371952
0.41594
0.323703
0.373474
0.385923
0.544481
0.448956
0.48326
0.570971
0.456735
0.540744
0.565188
0.632752
0.653447
0.704538
0.730832
0.627539
0.649376
0.717269
0.889366
0.776476
0.8104
0.874787
0.801371
0.85022
0.892699
0.982329
0.953666
1.00401
1.07463
0.926569
0.980421
1.08271
1.3513
1.0895
1.18599
1.27425
1.19928
1.19547
1.33799
1.51377
1.42135
1.37297
1.75012
1.29805
1.53576
1.66041
1.10306
1.03729
1.14754
1.25962
1.02739
1.11271
1.27615
1.18637
1.39535
1.27758
1.51486
1.20548
1.40986
1.25362
1.13833
1.33835
1.752
1.51485
1.49157
1.20929
1.44586
1.28556
1.57885
1.53082
1.28739
1.24184
1.28492
1.57677
1.08534
2.24098
2.28345
1.49263
1.01227
1.16783
1.12086
0.803069
1.47967
0.933164
1.34156
1.42123
1.23271
1.86252
1.22563
1.60726
1.30171
1.225
1.22501
0.577635
0.65757
0.634826
0.677032
0.988221
1.64686
1.03879
1.64731
0.692765
0.814344
0.977626
1.22103
1.0815
1.63412
1.13409
1.31695
1.87367
1.87568
2.01185
2.26514
1.73472
1.95009
1.28206
1.65996
2.23838
1.98741
0.908856
1.67384
1.57785
0.871305
0.934821
1.69504
1.62375
1.09449
1.73692
1.76885
1.2546
1.54048
1.70803
1.94672
1.97484
1.76998
1.67444
1.86082
2.17448
1.57667
1.28372
1.61175
1.27138
1.22821
1.34108
1.25357
1.22966
1.22505
2.31072
1.64569
1.3964
2.15877
1.28893
0.415321
0.393897
0.566896
0.586373
0.400034
0.576226
0.407909
0.427213
0.600141
0.431384
0.630529
0.408653
0.591991
0.456204
1.45782
1.2926
1.26401
0.994043
1.29577
1.27164
1.45473
1.46678
1.0093
1.32197
1.32873
1.30558
1.29178
1.48103
0.582728
0.473242
0.695261
0.771173
0.50757
0.534607
0.784019
0.676673
0.862963
0.703948
1.0192
0.611746
0.890684
0.786477
1.50486
1.34292
1.37722
1.13487
1.49543
1.36185
1.43253
1.06529
0.813529
1.18423
1.35567
0.91288
0.946776
1.40811
1.25755
1.62962
1.33511
1.93128
1.11702
1.68599
1.50406
1.98298
1.60352
2.06943
2.02394
1.78333
1.82483
2.09883
2.08371
1.91169
1.95917
1.76088
1.95642
1.98913
2.06575
1.90637
1.16112
1.69098
1.73996
1.54743
1.65525
1.98659
2.01779
1.88426
1.70153
1.68358
1.8559
2.00729
1.77462
0.772833
1.09794
0.813082
0.782838
1.10872
1.06663
1.05488
0.921281
1.26504
1.01473
1.01946
1.36155
1.35818
1.24409
1.51227
1.68567
1.59458
1.7222
1.78168
1.89154
1.77257
2.01874
1.51962
1.71242
1.84776
1.3351
1.37751
1.6599
1.92049
1.95159
1.94681
2.11462
2.10724
2.1796
2.1527
1.22749
1.22613
1.22502
1.23201
1.22522
1.22507
1.22501
2.2066
1.29819
1.30709
1.2251
0.830761
0.848724
1.18838
0.802502
1.13542
1.09583
1.15563
1.11892
1.30669
1.57272
1.14356
1.46364
1.48821
1.62908
1.75327
1.99968
1.73534
1.89298
1.81303
1.9536
1.90458
1.48276
1.33657
1.24025
1.5335
1.26216
1.26842
1.23946
1.96744
1.5631
1.56411
2.006
2.00233
1.92752
1.41981
1.88763
1.23147
1.23461
1.43487
1.87415
1.2297
1.23169
1.81008
1.22708
1.22765
1.26339
1.27764
1.22556
1.22559
1.23295
1.22509
1.22508
1.22584
1.2256
1.22502
1.22501
1.22504
1.22501
1.22501
1.22505
1.22502
1.225
1.225
1.22501
1.22501
1.225
1.225
1.23216
2.41172
2.31933
2.12159
1.5183
2.32296
1.94645
2.32231
1.9723
2.38057
1.70696
2.28658
1.45366
0.990587
1.17223
1.25979
1.62894
2.22749
1.36967
1.225
1.26425
1.98681
1.24549
1.93205
1.72531
1.76577
1.29205
1.97799
1.76969
1.58428
2.10637
1.91003
1.45064
1.81719
2.18865
2.04517
1.26999
2.01405
1.50907
1.22937
2.12659
1.24934
1.24856
1.22505
1.22578
1.22605
1.22503
1.23248
1.22505
1.22503
1.22501
1.22506
1.98509
1.38968
1.22753
1.22666
1.23246
1.22537
1.22603
1.22504
1.22501
1.225
1.225
1.225
1.225
1.225
1.225
1.225
1.225
1.225
1.225
1.225
1.225
1.225
1.225
1.225
1.225
1.2451
1.23135
1.22565
1.22501
1.22613
1.225
1.225
1.225
1.225
1.225
0.727857
0.93841
0.81607
0.878156
0.76787
0.950489
0.993046
0.887957
1.06812
1.225
1.225
1.225
1.225
1.225
1.225
1.225
1.225
1.225
1.225
1.225
1.22502
1.225
1.225
1.225
1.225
0.766302
1.81853
1.78437
2.50595
1.99116
2.25114
2.20717
2.44598
1.26582
1.23062
1.22501
0.394511
0.414909
0.59227
0.72686
0.927993
1.27969
2.42568
2.9379
2.03464
1.24521
1.07479
1.44402
0.88859
1.0138
1.18359
1.12767
1.24862
1.41342
1.30667
0.436115
0.616868
0.435999
0.666242
0.785793
0.755454
0.529645
0.444307
0.458181
0.503303
0.468195
0.51273
0.519545
0.528937
0.462426
0.472225
0.520632
0.602419
0.58149
0.675875
0.677615
0.590943
0.59407
0.683823
0.597979
0.672219
0.592233
0.675678
0.864895
0.765496
0.765028
0.853195
0.769516
0.863928
0.861134
0.847295
0.754921
0.75583
0.847946
0.322133
0.428892
0.741684
1.27172
1.97249
0.372853
0.377975
0.421336
0.472027
0.653875
0.686804
0.764173
1.09633
1.04593
1.87
0.356
0.329615
0.35897
0.328205
0.335372
0.364165
0.351034
0.491115
0.430796
0.445848
0.493974
0.433095
0.493664
0.506489
0.82618
0.733242
0.752385
0.83778
0.732113
0.825282
0.848036
1.48338
1.23653
1.30606
1.47499
1.26713
1.43105
1.52929
1.8579
2.1368
0.34874
0.343141
0.356391
0.378059
0.348666
0.361602
0.343607
0.357838
0.370909
0.376005
0.352783
0.337273
0.332279
0.337144
0.332281
0.367905
0.344421
0.38147
0.402334
0.350059
0.376435
0.392364
0.358824
0.391342
0.390744
0.392525
0.361605
0.371211
0.380846
0.368423
0.410163
0.386948
0.390717
0.346809
0.364615
0.345698
0.367282
0.472674
0.438824
0.42828
0.537544
0.41847
0.502218
0.48036
0.485964
0.449724
0.429206
0.507822
0.455695
0.397001
0.402568
0.446128
0.563687
0.570464
0.648827
0.664831
0.567906
0.581258
0.645658
0.541681
0.610628
0.653885
0.620467
0.57537
0.5461
0.620881
0.55701
0.661241
0.580588
0.636528
0.5232
0.582058
0.509552
0.599155
0.796587
0.734508
0.699354
0.845756
0.705188
0.820444
0.784238
0.810209
0.744921
0.719443
0.837682
0.768458
0.659673
0.679835
0.744074
0.939306
0.952491
1.07125
1.11473
0.934888
0.964145
1.08443
0.905737
0.93809
1.04309
1.00919
0.920487
0.884036
1.04328
0.921718
1.10487
0.952758
1.06813
0.875403
0.971591
0.844196
1.01332
1.47846
1.30187
1.25744
1.52865
1.71049
1.69495
1.80498
1.94259
1.64284
1.75746
1.88733
1.69171
1.90923
1.74016
1.85985
1.544
1.71034
1.02042
1.02624
1.68106
1.54233
1.83494
0.095215
0.118356
0.226488
0.417194
0.574308
0.257313
0.218394
0.447086
0.620002
0.778531
1.03862
1.16371
1.31308
0.106632
0.328517
0.340728
0.165217
0.415476
0.490417
0.742871
0.817969
1.05643
0.208996
0.273229
0.280746
0.202163
0.230382
0.356108
0.303079
0.282068
0.462236
0.441297
0.364941
0.540775
0.549868
0.628196
0.873284
0.254472
0.286431
0.31076
0.346566
0.293239
0.316976
0.24732
0.279174
0.367275
0.374088
0.382407
0.317543
0.337347
0.336098
0.515191
0.45684
0.45024
0.577579
0.42052
0.550871
0.530236
0.603906
0.663325
0.71288
0.691228
0.638049
0.611985
0.681433
0.823988
0.780318
0.768645
0.893942
0.752296
0.846746
0.849988
0.896508
0.974002
0.974514
1.03975
0.911934
0.940397
0.964202
1.57333
1.22501
1.22505
1.225
1.225
2.40647
1.29961
2.12733
1.25192
1.22806
1.22631
1.22501
1.225
1.225
1.225
1.22502
1.225
1.225
0.299393
0.33579
0.251931
0.764739
1.41663
1.27695
1.22758
1.22502
1.225
0.41495
0.464724
0.301113
0.879223
1.42509
1.24437
1.22504
1.22501
1.225
0.767006
0.785953
0.454081
1.38753
1.37182
1.2261
1.225
1.225
1.225
1.30295
1.32635
0.888211
2.27284
1.24324
1.22504
1.22501
1.225
1.225
2.3357
2.12173
2.52857
1.15608
1.22567
1.35829
1.225
1.22501
1.96196
1.89069
1.22567
2.39384
1.225
1.22502
0.17604
0.249536
0.215378
0.207313
0.332283
0.195051
0.326312
0.406782
0.202647
0.322607
0.406862
0.382534
0.440331
0.266121
0.459239
1.19299
1.54816
1.70845
0.790367
1.22611
1.57878
1.70131
1.26278
1.51444
1.24629
1.42398
1.25205
1.45913
1.23231
0.361041
0.561188
0.466636
0.228713
0.544761
0.707853
0.274492
0.697442
0.510068
0.362904
0.61912
1.25228
1.70987
1.68677
1.05975
1.36692
1.96595
1.5094
1.24642
1.42088
1.22888
1.39621
1.23176
1.28737
1.22567
0.748518
0.943795
0.983682
0.794684
0.534847
0.967771
1.13297
0.67711
1.14436
1.11911
0.803151
0.609379
1.13652
1.40241
2.00635
1.40952
1.85889
1.38701
1.60409
1.23709
1.22882
1.25805
1.22512
1.26595
1.22532
1.22678
1.22503
1.33508
1.09227
1.5139
1.37665
1.30742
0.925485
1.81757
1.9983
1.33217
1.3029
2.01256
1.93323
1.72173
1.54458
2.35833
1.32813
1.24661
1.22825
1.2882
1.23621
1.22552
1.22506
1.22512
1.22547
1.22503
1.23633
1.24221
1.22506
1.2251
1.193
2.2321
1.76509
2.47827
2.68006
1.23248
1.38088
1.10529
1.82507
1.83802
2.70922
2.48659
1.47332
2.24151
0.507726
1.56325
0.5997
1.74565
0.946605
2.1673
2.03792
1.22536
1.94759
1.22517
0.333175
0.351437
0.323059
0.591075
0.436785
0.529792
0.341995
0.60325
0.458231
0.426878
0.592153
0.390097
0.812441
0.520297
0.730894
0.472207
0.860617
0.645363
0.738987
0.988793
0.693498
1.36918
0.852665
1.31753
1.01013
1.63365
1.21564
1.48177
2.33225
1.58921
2.61445
1.9197
2.7856
2.52371
1.32061
2.34587
0.387709
0.330315
0.385171
0.343725
0.337908
0.391346
0.38245
0.258356
0.202337
0.207014
0.201074
0.140675
0.144448
0.195918
1.4008
1.37278
1.51372
1.41774
1.36933
1.51342
1.40578
0.536971
0.454127
0.482166
0.534858
0.475997
0.522845
0.54412
0.244612
0.328928
0.266726
0.250515
0.170135
0.231805
0.183496
1.33345
1.34298
1.51425
1.42165
1.35893
1.32666
1.50706
0.861563
0.772738
0.770295
0.88302
0.768852
0.871056
0.859305
0.51962
0.352237
0.395793
0.370881
0.226311
0.329838
0.248946
1.24406
1.26515
1.40605
1.33896
1.2588
1.24898
1.34526
1.56483
1.3262
1.31146
1.54279
1.32816
1.5489
1.54126
1.19015
0.696802
0.921157
0.852768
0.442574
0.645649
0.571664
1.22542
1.22729
1.23652
1.23176
1.22632
1.22586
1.2285
2.70369
2.15146
2.35652
2.13806
1.0391
1.83963
2.66201
2.03767
1.04563
1.90184
1.83867
1.75487
2.66371
2.26217
2.0834
1.1444
1.57128
1.76626
1.52435
1.74226
2.12358
1.22501
1.22502
1.24697
1.32171
1.22509
1.23944
1.22501
1.43192
1.22513
1.2276
1.24905
1.27053
1.22502
1.22505
0.376742
0.321322
0.379305
0.340736
0.33202
0.385496
0.36982
0.197204
0.275336
0.280905
0.297285
0.145102
0.146455
0.293061
0.373101
0.389702
0.392952
0.369159
0.392376
0.364396
0.403144
0.429298
0.357799
0.400266
0.421725
0.293996
0.212923
0.316458
0.306458
0.156525
0.149707
0.326149
0.386313
0.424683
0.402889
0.410085
0.381737
0.325536
0.368243
0.329056
0.332468
0.37335
0.376713
0.405697
0.398592
0.40215
0.401885
0.400161
0.384387
0.389117
0.395919
0.401913
0.36607
0.397398
0.435306
0.358518
0.40625
0.430096
0.395088
0.346842
0.388868
0.413185
0.351602
0.38632
0.422437
0.41542
0.434523
0.411902
0.438427
0.410466
0.423122
0.39985
0.433734
0.449926
0.339386
0.347832
0.32798
0.445363
0.453662
0.320715
0.214475
0.280178
0.226979
0.206669
0.158587
0.149849
0.217104
0.356578
0.478704
0.373278
0.334436
0.476132
0.460465
0.347402
1.07697
0.80438
1.41141
1.19803
0.809402
1.41811
1.06874
1.09391
1.20843
0.835338
1.45745
0.817889
1.43312
1.12461
1.26921
1.27578
1.25903
1.26071
1.27307
1.25708
1.27192
1.39224
1.42087
1.3552
1.51567
1.36379
1.51491
1.37856
1.26431
1.25699
1.26178
1.24871
1.26824
1.25349
1.25788
0.529605
0.466929
0.476088
0.539107
0.467938
0.544903
0.537916
0.348842
0.249605
0.388537
0.395649
0.167275
0.356654
0.181788
0.498066
0.4618
0.447965
0.515167
0.599744
0.621391
0.722564
0.686455
0.632036
0.609674
0.673639
0.432897
0.481399
0.303255
0.441005
0.220187
0.199444
0.490855
0.556777
0.645918
0.577668
0.621514
0.533087
0.473808
0.476809
0.53062
0.60804
0.613157
0.683705
0.691813
0.600056
0.615546
0.685956
0.599732
0.670609
0.597232
0.674458
0.399449
0.556959
0.437278
0.394494
0.500717
0.366962
0.537424
0.291747
0.4037
0.319626
0.272539
0.210873
0.197233
0.298422
0.699182
0.486566
0.548661
0.429827
0.650187
0.5864
0.474099
1.23042
0.863955
1.48929
1.28602
1.17002
0.904747
1.52625
1.30629
1.3251
1.02596
1.5855
0.958044
1.56185
1.39603
1.24407
1.25435
1.24335
1.24081
1.25083
1.24703
1.23812
1.3041
1.41213
1.28565
1.45544
1.30721
1.49011
1.27914
1.23829
1.2358
1.23546
1.23014
1.24062
1.23362
1.23359
0.831865
0.810722
0.766267
0.885909
0.749836
0.900338
0.85346
0.597275
0.336798
0.379276
0.602648
0.243665
0.54373
0.271968
0.764321
0.714619
0.689104
0.789758
0.929666
0.994356
1.13144
1.09413
1.00297
0.958053
1.05777
0.782773
0.437634
0.519865
0.675408
0.36258
0.309497
0.773575
0.856918
1.01907
0.885897
0.981294
0.834764
0.742431
0.749248
0.821334
0.976268
0.998398
1.138
1.11915
0.988637
0.971361
1.12888
0.98255
0.970425
1.13248
1.13287
0.981934
0.978734
1.1379
0.94613
1.06756
0.924044
1.09868
0.963439
1.11976
0.96447
1.11954
0.941511
0.626747
0.727377
0.604859
0.73368
0.530441
0.850849
0.460198
0.556563
0.737417
0.429111
0.348057
0.286525
0.515691
1.43047
0.863792
1.05538
0.711249
1.31829
1.02908
0.870637
1.59704
1.11268
1.59313
1.42349
1.49565
1.22209
1.57342
1.67661
1.42429
1.43676
1.40393
1.3338
1.50706
1.69615
1.22763
1.23144
1.22774
1.22692
1.23004
1.22857
1.22628
1.23439
1.30203
1.23091
1.25495
1.23782
1.28948
1.22892
1.22618
1.22584
1.22571
1.22518
1.22672
1.22551
1.22545
1.43154
1.2931
1.27255
1.51758
1.22673
1.49108
1.49014
1.10975
0.801162
0.638326
1.07141
0.440207
0.905067
0.548449
1.34671
1.1966
1.14622
1.40905
1.65259
1.76413
1.96152
1.93983
1.73055
1.71861
1.87888
1.60335
1.3286
1.02659
1.25721
0.898746
0.695543
1.48204
1.55211
1.82199
1.62156
1.75415
1.575
1.32115
1.33075
1.51582
1.33912
1.54114
1.56145
1.53913
1.25981
1.30064
1.49019
1.56215
1.32183
1.32403
1.55481
1.80722
1.78566
2.00787
1.9971
1.79222
1.77804
2.02489
1.81491
1.74483
1.98053
1.99199
1.77837
1.79601
2.02265
1.76927
1.91319
1.71552
1.96525
1.78703
1.9521
1.77269
1.97503
2.22197
1.84891
1.32659
1.45901
1.7368
1.10932
2.11699
1.16503
2.06645
1.58614
1.18682
1.06395
0.767606
1.65883
2.45595
2.16773
2.40776
1.90652
2.23624
2.30535
2.27685
1.41911
1.49702
1.31021
1.27695
1.60242
1.48677
1.2543
1.2841
1.24391
1.27279
1.22888
1.37666
1.23292
1.23875
1.2251
1.22525
1.22507
1.22516
1.22515
1.22518
1.22509
1.22557
1.22777
1.23885
1.22881
1.22635
1.22617
1.22981
1.22564
1.22663
1.24104
1.2315
1.22646
1.22574
1.23082
2.30624
1.29252
1.68645
1.81084
1.84431
1.9265
2.18946
2.28276
2.05726
1.71481
1.84736
2.10972
2.29588
1.70653
2.03172
1.12362
1.46337
1.66828
1.49379
1.70783
1.96858
2.31264
2.01844
1.8669
1.95372
2.00266
2.31179
2.00983
2.2714
1.91671
1.86748
1.97428
1.96981
2.19972
2.01019
1.31724
1.27291
1.22501
1.28671
1.22504
1.225
1.23803
1.225
1.225
1.22555
1.22501
1.225
1.0988
1.42322
1.22501
2.32866
1.22503
1.3633
1.29861
1.34134
1.29709
1.24658
1.26232
1.30629
1.4797
1.32328
1.2255
1.57601
1.22643
1.43519
1.22507
1.3704
1.39055
1.22503
1.2427
1.24213
1.24646
1.22511
1.22699
1.79147
2.363
2.08033
1.43297
1.37387
1.32517
1.31361
1.37207
1.32
1.43539
1.38949
1.36159
1.28316
1.2723
1.41125
1.352
1.26725
1.2573
1.29032
1.23531
1.23208
1.28277
1.26437
1.23022
1.22592
1.22927
1.22531
1.22534
1.22737
1.22682
1.22518
1.87881
1.11485
1.44637
1.63299
1.4605
1.6267
1.90831
1.31765
1.22774
1.22644
1.26384
1.25273
1.22505
1.22517
1.43011
1.30752
1.36717
1.29803
1.37019
1.3106
1.42403
1.35782
1.25822
1.31506
1.24297
1.33606
1.25345
1.31764
1.5026
1.19649
1.3824
1.54041
1.3754
1.48899
1.48505
1.38009
1.38076
1.58229
1.38589
1.4431
1.35761
1.59094
1.24073
1.22843
1.23543
1.22587
1.24664
1.22729
1.23151
1.31555
1.42655
1.28458
1.4302
1.31959
1.53967
1.26782
1.2312
1.25482
1.32158
1.31252
1.24193
1.23747
1.26192
1.22597
1.22677
1.24011
1.23173
1.22699
1.22583
1.23102
1.2277
1.2632
1.23855
1.23283
1.23095
1.23884
1.23044
2.04763
1.8619
1.74054
1.91525
1.83178
2.1155
1.84559
1.69538
1.08834
1.62033
1.6948
1.70868
1.9442
1.91114
1.75012
1.05664
1.61295
1.7801
1.61586
1.94639
1.93211
1.57316
1.75343
1.03472
1.05006
1.78051
1.60019
1.93534
0.77432
0.575297
0.585098
0.835586
0.606508
0.615587
0.826984
1.2644
1.91404
1.90042
1.61459
1.22752
1.54252
1.22639
1.22508
1.22506
1.22694
1.34887
1.22558
1.30634
1.22532
0.956108
0.653405
0.70671
0.999096
0.672631
0.930453
0.717047
1.74828
1.23099
1.92166
1.48993
1.22592
1.29804
1.22514
1.22592
1.22502
1.22515
1.28426
1.22521
1.23772
1.22505
1.6147
1.00962
1.2064
1.57393
0.967701
1.38862
1.14024
1.27162
1.22503
1.2684
1.25993
1.22506
1.2265
1.22501
1.22501
1.22501
1.22506
1.23098
1.22503
1.22524
1.22501
2.06034
2.17493
2.11093
1.81434
1.93408
1.98135
2.08185
1.225
1.22501
1.22687
1.22538
1.22501
1.22502
1.225
1.225
1.225
1.225
1.22503
1.225
1.22501
1.225
2.07295
2.61959
2.47104
2.50511
1.6397
2.20354
2.22008
1.38978
1.23963
1.36715
1.24382
1.40415
1.24393
1.23941
1.26054
2.49917
2.25967
2.27185
2.74685
2.51491
1.33038
2.42179
2.26221
2.44053
2.19106
2.78199
2.5474
1.42192
1.22501
1.29161
1.22511
2.63829
1.24958
1.22586
1.22503
1.31385
1.79712
1.22518
2.71205
1.26789
1.23138
1.22505
0.594803
0.825555
0.617634
0.850899
0.64283
0.623654
0.882593
1.20045
0.778568
0.875153
1.0932
0.85427
0.775646
1.22143
2.06395
1.49176
1.8297
1.77399
1.68569
1.38996
1.93509
1.73646
2.2196
1.5812
1.45008
1.62513
1.99864
1.27202
1.44971
1.93553
2.49404
2.31846
1.8956
2.35711
1.58865
1.59639
0.777192
0.805296
0.872811
1.98025
0.893181
2.0279
2.04946
0.909789
1.11819
1.02984
2.18233
1.29346
2.31062
1.55385
1.48515
1.99808
1.71585
2.19741
2.37668
1.46151
1.27111
1.23583
2.39276
2.4821
1.23194
1.23629
1.22501
1.2268
2.68953
1.89607
2.06649
1.23091
1.22838
1.22502
1.225
1.22501
1.2341
1.22599
1.22501
1.22501
1.225
1.81434
1.93268
1.36597
1.74185
1.99181
2.08916
2.32212
1.23542
1.33199
1.33345
1.23589
1.26347
1.22849
1.22695
1.30053
1.2353
1.32272
1.23325
1.28504
1.23077
1.23461
1.24964
1.24871
1.4113
1.40676
1.24695
1.42527
1.24747
1.22509
1.22506
1.26199
1.35466
1.228
1.32544
1.22718
1.2443
1.22503
1.23149
1.27534
1.22595
1.24127
1.22526
1.22505
1.22501
1.22509
1.22818
1.22505
1.22537
1.22502
1.225
1.225
1.22501
1.22528
1.225
1.22502
1.225
1.24988
1.24872
1.40267
1.37937
1.24577
1.39595
1.24663
1.32669
1.32493
1.23891
1.34755
1.23715
1.30906
1.24134
1.35475
1.24119
1.23541
1.22502
0.132522
0.305267
0.753669
0.935472
0.791509
1.74757
0.193754
0.254984
0.25379
0.278051
0.294046
0.355327
0.137082
0.473434
0.39958
0.436316
0.732546
0.616561
0.729591
0.57709
0.918951
0.893053
0.827992
1.09842
1.22661
1.1593
0.875866
0.718011
1.11211
1.57
1.31042
1.80724
1.85564
0.740788
0.798656
2.39233
0.272654
0.308842
0.318042
0.351355
0.42272
0.640757
0.550637
0.765009
0.944726
1.34891
1.02673
1.31542
1.78726
2.10786
1.72728
2.42239
0.182074
0.16124
0.171293
0.212285
0.176085
0.186699
0.20002
0.266535
0.22912
0.241027
0.221144
0.246142
0.2583
0.210122
0.221972
0.198319
0.252104
0.241608
0.270715
0.214937
0.299671
0.266752
0.320164
0.346534
0.247844
0.343619
0.287753
0.3027
0.363237
0.440052
0.334405
0.497492
0.354884
0.386901
0.460418
0.50066
0.422938
0.516643
0.487305
0.422939
0.384601
0.518341
0.598757
0.682035
0.55831
0.622938
0.696927
0.576579
0.757848
0.747756
0.622185
0.73535
0.602734
0.734552
0.62346
0.728729
0.996084
0.867135
0.804336
1.03141
0.815874
0.896429
0.930907
1.05355
0.854595
0.980135
1.00548
0.847277
0.865228
0.959927
1.02172
1.18939
1.10991
1.15706
1.15021
1.04229
1.27034
1.40121
1.1089
1.24489
1.14555
1.19605
1.0736
1.28237
1.12746
1.15873
1.20104
1.44329
1.25416
1.37501
1.33957
1.7239
1.3987
1.5877
1.54413
1.33699
1.41548
1.5086
1.80982
1.78641
1.91649
1.64923
1.83996
1.70717
1.63592
0.283475
0.258933
0.270073
0.294389
0.345669
0.358688
0.522638
0.432571
0.526378
0.780018
0.635247
0.75691
1.13602
0.89214
1.04293
1.57423
1.20175
1.35715
1.98299
1.529
1.74282
2.16148
1.97675
2.17471
0.949585
1.38459
1.1904
0.219389
0.198271
0.249782
0.265881
0.209805
0.262597
0.208014
0.248528
0.297486
0.299456
0.351818
0.240496
0.29414
0.306674
0.498546
0.386191
0.433443
0.529915
0.39243
0.491379
0.529574
0.616708
0.629053
0.716726
0.746268
0.603573
0.635517
0.742142
0.992643
0.826488
0.855345
0.92538
0.871315
0.930524
0.960939
1.10527
1.0323
1.15483
1.18984
1.03676
1.06896
1.21822
1.46385
1.28889
1.32871
1.49841
1.33414
1.43725
1.49984
1.55918
1.71062
1.58308
1.84923
1.54763
1.70134
2.70808
2.75178
1.22501
1.225
1.225
1.22501
1.225
1.225
1.225
1.225
1.22502
1.225
1.22501
1.225
1.225
1.225
1.225
1.225
1.22501
1.22501
1.22717
1.22501
1.225
1.22501
1.23434
1.22501
1.225
1.22889
1.22501
1.225
1.225
1.22502
1.225
1.22502
1.225
1.22501
1.225
1.22502
1.22633
1.22502
1.225
1.22557
1.22502
1.225
1.225
1.225
1.225
1.225
1.225
1.225
1.225
1.225
1.225
1.225
1.225
1.225
1.225
1.225
1.225
1.225
1.225
1.225
1.225
1.225
1.225
1.225
1.225
1.225
1.225
1.225
1.225
1.225
1.225
1.225
1.225
1.225
1.225
1.225
1.225
1.225
1.225
1.225
1.225
1.225
1.225
1.225
1.225
1.225
1.225
1.225
1.225
1.225
1.225
1.225
1.225
1.225
1.225
1.225
1.225
1.225
1.225
1.225
1.225
1.225
1.225
1.225
1.225
2.51268
0.952286
2.46069
0.939163
0.900245
0.852733
1.67793
1.8922
1.27942
1.05653
1.74358
1.29672
0.739125
0.983671
1.11347
0.641711
0.855273
1.01364
0.860181
1.0447
0.960957
1.05031
1.4314
1.29288
1.3541
1.33023
0.871877
0.814611
1.42945
1.23409
1.75849
2.38933
2.40751
1.5906
2.3331
1.82235
2.55164
1.58103
0.842705
0.81351
0.861868
1.02536
1.13483
1.07118
1.02067
1.45503
2.02073
1.89632
1.38629
1.90984
1.50914
1.84667
1.37612
1.53826
1.8879
1.84253
1.5115
1.40461
1.83248
1.8394
1.89963
2.57437
1.51192
2.19573
1.88812
1.65831
2.25434
0.873771
1.16926
0.576938
0.172799
0.197078
0.30775
0.504456
0.613757
0.717405
0.701854
0.819801
0.179045
0.245551
0.253115
0.273656
0.239126
0.320396
0.393933
0.479739
0.391927
0.53122
0.553932
0.469006
0.697903
0.620723
0.633446
0.666913
0.584639
0.74018
0.759125
0.682065
0.817662
0.721222
0.767407
0.677761
0.792073
0.929584
0.838524
0.100721
0.122861
0.128724
0.131318
0.138448
0.162395
0.155534
0.234941
0.396909
0.352813
0.427953
0.259861
0.295103
0.32443
0.124608
0.14691
0.188947
0.161033
0.212024
0.238385
0.18514
0.101742
0.100502
0.0945417
0.122439
0.129646
0.121435
0.129197
0.424177
0.577797
0.494962
0.443233
0.524365
0.603591
0.516513
2.32868
2.41888
2.39552
1.86976
2.0364
2.33987
2.27925
1.92567
2.04139
2.1661
1.22502
1.22501
1.225
1.225
0.312304
0.308593
0.317923
0.302566
0.334372
0.387688
0.340711
0.382539
0.556264
0.459173
0.456572
0.55425
0.681196
0.80863
0.670737
0.837188
1.2703
0.969464
1.03273
1.15153
1.53752
1.54495
1.34822
1.83136
2.41624
1.77353
2.1415
2.06364
2.59786
2.53438
2.36759
2.42674
1.225
1.225
1.225
1.225
1.225
1.225
1.225
1.225
1.225
1.225
1.225
1.225
1.225
1.225
1.225
1.225
1.225
2.30665
1.83886
1.95784
1.22585
1.22501
1.22502
1.225
1.22501
1.225
1.225
1.225
1.225
1.225
1.225
1.225
1.225
1.225
1.225
1.225
0.158085
0.121173
0.163689
0.151743
0.152632
0.200817
0.203352
0.319312
0.235812
0.38131
0.331674
0.281257
0.285373
0.38672
0.56935
0.626885
0.71776
0.648818
0.671621
0.736948
0.630186
0.502797
0.567386
0.480466
0.526592
0.433506
0.488899
0.5816
0.185876
0.193536
0.26471
0.279925
0.286582
0.218559
0.211057
0.106023
0.113859
0.14167
0.130042
0.139032
0.151619
0.16176
0.168032
0.221614
0.185971
0.165572
0.220497
0.190605
0.248196
0.63852
0.718324
0.643137
0.681037
0.607712
0.664719
0.747721
0.286886
0.27291
0.333155
0.307361
0.352132
0.299597
0.243505
0.173684
0.181872
0.257659
0.171255
0.180067
0.247833
0.256624
0.265045
0.366449
0.411335
0.306108
0.41029
0.335765
0.442909
0.477663
0.354348
0.399931
0.476728
0.417359
0.494057
0.383288
0.474306
0.639805
0.525698
0.516941
0.617113
0.555584
0.665875
0.537155
0.566912
0.647661
0.557723
0.64078
0.576097
0.657995
0.281328
0.206977
0.261452
0.329145
0.262921
0.332061
0.282002
0.18597
0.255153
0.187696
0.198795
0.266449
0.250228
0.260211
0.707429
0.842431
0.836644
0.671231
0.781811
0.795021
0.672592
0.342557
0.397902
0.34638
0.442688
0.48539
0.403228
0.477546
0.529185
0.539274
0.631341
0.661767
0.572566
0.562101
0.648544
0.669899
0.84933
0.74852
0.708477
0.79811
0.769631
0.869642
0.697603
0.723409
0.801498
0.816571
0.725329
0.739293
0.825952
0.274488
0.341348
0.230136
0.296898
0.291008
0.353206
0.28818
0.862654
0.688036
0.794033
0.777547
0.740503
0.834852
0.917415
0.371069
0.608779
1.20292
2.68057
0.491523
0.563591
0.401964
0.639657
1.10286
0.850938
1.3522
2.46983
1.65564
2.82659
0.388637
0.507022
0.376328
0.498643
0.514224
0.384324
0.380468
0.408892
0.518306
0.579848
0.449948
0.533686
0.405116
0.45479
0.633766
0.658061
0.521876
0.752268
0.528607
0.77758
0.622495
0.772337
0.904983
1.18275
0.912597
0.947203
0.751772
0.953562
1.50021
1.50607
1.10918
1.66552
1.19307
1.93602
1.33863
1.8659
2.04988
3.0264
1.88829
2.50285
1.60004
2.30199
2.98276
3.30258
2.22928
2.98358
2.72136
3.25
2.57911
2.582
2.95974
2.95035
2.92539
2.11626
2.72727
2.76198
2.81031
2.3497
0.774058
2.24751
2.46623
1.22514
1.225
1.225
1.225
0.484433
0.593641
1.51141
2.38437
1.65151
1.11476
0.503935
1.14227
1.34443
0.792561
1.8667
2.05318
2.10543
2.2485
1.94452
1.95654
1.2971
1.23448
1.26472
1.56907
0.985168
1.38709
1.00652
1.42625
1.30968
1.89298
1.47354
2.13584
2.17976
2.21932
2.17994
1.37368
2.26818
1.23005
1.55992
1.22527
1.22511
1.22607
1.2631
1.23152
1.22721
1.225
1.225
1.225
1.225
1.225
1.23203
1.225
1.225
1.22503
1.225
1.225
1.225
1.225
1.225
1.22501
1.225
1.225
1.50973
1.225
1.225
1.225
1.225
1.225
1.225
1.225
1.225
1.225
1.225
1.225
1.225
1.225
1.225
1.225
1.225
1.225
1.225
1.225
1.225
1.225
1.225
1.225
1.225
1.225
1.225
1.225
1.225
1.225
1.225
1.225
1.225
1.225
1.225
1.225
1.225
1.225
1.225
1.225
1.225
1.225
1.225
1.225
1.225
1.225
1.225
1.225
1.225
1.225
1.225
1.225
1.225
1.225
1.225
1.225
1.225
1.225
1.225
1.225
1.225
1.225
1.225
1.225
1.225
1.225
1.25808
1.225
1.22501
1.225
1.225
1.225
1.225
1.225
1.225
1.227
1.225
1.225
2.25004
1.225
1.225
2.35306
1.22504
1.225
1.225
1.225
1.225
1.225
1.225
1.225
1.225
1.225
1.225
1.225
1.225
1.225
1.469
1.225
1.225
1.225
1.225
1.225
1.225
1.225
1.225
1.225
1.225
1.225
1.225
1.225
1.225
1.225
1.225
1.225
1.225
1.225
1.225
1.225
1.225
1.225
1.225
1.225
1.225
1.225
1.225
1.225
1.225
1.225
1.225
1.225
1.225
1.225
1.225
1.225
1.225
1.225
1.225
1.225
1.225
1.225
1.225
0.369717
0.394309
0.399418
0.376219
0.381262
0.390045
0.395699
0.699716
0.718952
0.809026
0.831011
0.849127
0.752423
0.736524
0.825789
1.00808
0.939411
0.893318
0.986192
0.972428
1.07561
0.740823
0.754617
0.887296
0.885774
0.938716
0.941179
0.770805
0.460568
0.49979
0.415445
0.379523
0.482915
0.43095
0.519346
0.657546
0.679331
0.588651
0.589621
0.69281
0.612121
0.706319
0.384074
0.415077
0.449587
0.394218
0.412585
0.420721
0.449217
0.963039
0.957848
0.866573
0.883422
1.04637
0.922448
0.925609
0.84055
0.867459
0.770719
0.789971
0.88486
0.799715
0.895435
0.767197
0.921057
0.979557
0.830781
0.803659
1.05392
0.987239
0.881157
0.909411
1.07245
0.941159
0.961418
1.02045
1.09652
0.44333
0.504447
0.573567
0.46328
0.507206
0.57974
0.519378
0.908476
1.05976
1.04618
1.14183
1.25805
1.06722
1.17186
0.55942
0.649184
0.724951
0.658452
0.738963
0.584989
0.65699
2.3868
2.31254
1.225
1.225
1.225
1.225
1.22501
1.225
1.225
1.225
1.225
1.225
1.225
1.225
1.225
1.225
1.225
1.225
1.225
1.225
1.225
1.225
1.225
1.225
1.225
1.225
1.225
1.225
1.225
1.225
1.225
1.225
1.225
1.225
0.403991
0.47133
0.428326
0.447405
0.353376
0.405695
0.360978
0.411202
0.413064
0.367576
0.346874
0.371386
0.430378
0.473135
0.426675
0.431995
0.385926
0.411803
0.486579
0.75016
1.39996
2.18578
0.507903
1.97642
0.584224
2.13783
1.53984
0.490548
1.05915
0.517489
1.25702
0.505705
1.08898
0.665212
2.31152
1.13084
2.76517
1.50491
0.610841
1.29713
1.05075
2.27392
0.905717