/*--------------------------------*- C++ -*----------------------------------*\
  =========                 |
  \\      /  F ield         | OpenFOAM: The Open Source CFD Toolbox
   \\    /   O peration     | Website:  https://openfoam.org
    \\  /    A nd           | Version:  9
     \\/     M anipulation  |
\*---------------------------------------------------------------------------*/
FoamFile
{
    format      ascii;
    class       volScalarField;
    location    "0.0031";
    object      alpha.c4;
}
// * * * * * * * * * * * * * * * * * * * * * * * * * * * * * * * * * * * * * //

dimensions      [0 0 0 0 0 0 0];

internalField   nonuniform List<scalar> 
26357
(
0.0255509
0.0899726
0.138202
0.0301363
0.105143
0.0304252
0.0592087
0.0207852
0.15238
0.150375
0.142045
0.0906352
0.0914752
0.0954187
0.0931096
0.125272
0.131144
0.146479
0.093193
0.0967706
0.0914846
0.0829472
0.115164
0.100308
0.12382
0.0725892
0.0844481
0.0842685
0.0698979
0.0749632
0.0793544
0.0988592
0.0785169
0.0497849
0.0662374
0.0617961
0.0305573
0.0529229
0.0544836
0.0527519
0.0299646
0.0541038
0.0302732
0.0551154
0.0539505
0.0292068
0.0543177
0.0282422
0.0517599
0.0299366
0.0286023
0.0448741
0.0504239
0.0512038
0.0253945
0.0286965
0.0447692
0.0500643
0.024049
0.0253135
0.0353316
0.0448897
0.0279025
0.041961
0.00204051
0.00333819
0.00870805
0.00836693
0.0138697
0.00138937
0.000997601
0.0109087
0.00149735
0.00151593
0.013565
0.0130902
0.0142693
0.00204729
0.00199112
0.00836212
0.00777566
0.00804229
0.0149047
0.0078119
0.0144426
0.0150538
0.008075
0.0156519
0.008604
0.0162569
0.00855492
0.0162455
0.0157345
0.00836362
0.00866672
0.0165854
0.0166584
0.00861469
0.0164846
0.0164668
0.00850959
0.04187
0.0292351
0.118402
0.0792921
0.0234154
0.0605653
0.104413
0.0252418
0.107657
0.107858
0.118506
0.0676381
0.0728384
0.073105
0.0678748
0.131126
0.142704
0.0858197
0.138673
0.130005
0.0857243
0.0794954
0.066096
0.0937904
0.104235
0.113286
0.0999546
0.0649348
0.0711382
0.125152
0.12127
0.103853
0.0718819
0.0817368
0.0691372
0.0768714
0.0250238
0.02528
0.0421194
0.0263397
0.0444469
0.0446446
0.0265403
0.0278889
0.0475642
0.0505363
0.0505117
0.0292054
0.0476673
0.0279888
0.0397965
0.0223335
0.0375456
0.0245377
0.0409816
0.0434278
0.0257247
0.0280711
0.0439435
0.0487427
0.0244977
0.0421392
0.0462521
0.0270382
0.0145286
0.0125819
0.0139659
0.00748077
0.00664265
0.00772381
0.00686743
0.00768377
0.016353
0.0153418
0.0147023
0.0159859
0.00808879
0.00725228
0.0138233
0.0151175
0.015507
0.00714785
0.00808687
0.00796143
0.0070619
0.0156375
0.00712521
0.00809258
0.013616
0.0154855
0.00791061
0.0069057
0.0126876
0.0131182
0.014738
0.00736716
0.00536297
0.00642161
0.00632191
0.00205906
0.00426315
0.00433587
0.00424264
0.00195467
0.00419152
0.00195353
0.00405398
0.00201799
0.00414901
0.00191107
0.00400204
0.00409489
0.00193433
0.00196561
0.0043491
0.00427585
0.00423082
0.00192092
0.00410928
0.00182384
0.00335101
0.00146853
0.00326188
0.00173052
0.00374513
0.00383309
0.00175371
0.00344518
0.00151605
0.00342076
0.00393955
0.00176636
0.00390914
0.00176937
0.00141177
0.00362455
0.00158451
0.00181189
0.00404315
0.00381102
0.00165021
0.00325819
0.0014831
0.00341088
0.00390745
0.00172717
0.00375476
0.00162474
0.00244692
0.00292855
0.00121082
0.00122243
0.00293079
0.0034239
0.00144808
0.000613729
5.79557e-11
9.90212e-14
0.000432284
1.94309e-05
0.000805487
9.75528e-06
7.65183e-06
0.000614648
2.96549e-06
0.300079
0.219779
0.148173
0.186629
0.439332
0.334879
0.378311
0.346079
0.361361
0.44306
0.43267
0.428221
0.430309
0.346659
0.367729
0.391338
0.381341
0.44568
0.410819
0.425705
0.380096
0.382151
0.365488
0.410207
0.404793
0.33934
0.349257
0.362326
0.342928
0.317078
0.368674
0.391956
0.366149
0.319942
0.358345
0.337137
0.129713
0.220046
0.248675
0.149079
0.240119
0.26671
0.167812
0.19253
0.170684
0.27757
0.29099
0.209329
0.189478
0.307473
0.275676
0.167914
0.255549
0.161404
0.251384
0.275092
0.180153
0.289949
0.205586
0.288085
0.294861
0.218037
0.200799
0.304752
0.659834
0.656094
0.659592
0.659701
0.65558
0.644665
0.648386
0.639014
0.658883
0.659684
0.659791
0.658813
0.65976
0.658388
0.659113
0.657865
0.659654
0.657714
0.649822
0.659457
0.656946
0.654579
0.657082
0.658513
0.657572
0.654295
0.659602
0.654753
0.658773
0.645502
0.655007
0.647871
0.642262
0.653409
0.648
0.650112
0.65769
0.658168
0.657122
0.654347
0.65543
0.658799
0.656959
0.658592
0.659147
0.659806
0.658955
0.659147
0.659462
0.658212
0.658104
0.657612
0.659308
0.656046
0.655918
0.659181
0.65829
0.656306
0.652246
0.653509
0.650928
0.653305
0.654521
0.655473
0.659757
0.659209
0.659668
0.659351
0.65975
0.659264
0.659367
0.656262
0.650309
0.652975
0.644476
0.651374
0.650781
0.656741
0.64781
0.656608
0.656192
0.64983
0.655563
0.649576
0.657
0.657604
0.65831
0.655165
0.653314
0.653096
0.65786
0.658117
0.652082
0.646173
0.553165
0.492432
0.621027
0.457608
0.624097
0.443716
0.615763
0.654633
0.618814
0.643778
0.625904
0.644102
0.61583
0.613433
0.608854
0.648855
0.639191
0.621456
0.642438
0.599928
0.558103
0.576236
0.488475
0.47636
0.573556
0.562933
0.473116
0.591081
0.60362
0.634819
0.626064
0.636397
0.605387
0.589403
0.644175
0.653656
0.645207
0.64972
0.647357
0.651351
0.642121
0.645042
0.654436
0.647988
0.651946
0.648068
0.651888
0.644996
0.631487
0.634375
0.62061
0.614679
0.636492
0.616319
0.629794
0.640676
0.646964
0.645382
0.635492
0.648628
0.637177
0.638852
0.485608
0.546255
0.483232
0.475254
0.562954
0.469229
0.538122
0.595362
0.630637
0.573441
0.624644
0.634421
0.581383
0.586574
0.443189
0.529615
0.541957
0.460142
0.547442
0.524888
0.458408
0.446242
0.530591
0.466248
0.51144
0.515624
0.457087
0.524281
0.532089
0.459828
0.402648
0.490699
0.434215
0.347259
0.478399
0.414397
0.384083
0.355739
0.390466
0.461078
0.485564
0.426319
0.459512
0.448349
0.463598
0.430141
0.518977
0.506546
0.486509
0.500054
0.30813
0.347192
0.329631
0.367393
0.386147
0.426523
0.39156
0.513136
0.482608
0.496667
0.468937
0.469184
0.493303
0.481515
0.396688
0.44868
0.412667
0.460637
0.45438
0.432705
0.477689
0.512444
0.502518
0.525996
0.510051
0.503316
0.49529
0.515722
0.386841
0.441995
0.431438
0.461696
0.42886
0.461533
0.423066
0.48372
0.486138
0.450666
0.463419
0.478712
0.451668
0.491504
0.438234
0.395652
0.416105
0.32885
0.415809
0.411992
0.330996
0.322371
0.342788
0.4011
0.336052
0.382937
0.351125
0.39048
0.326111
0.418609
0.372123
0.411651
0.434433
0.375221
0.404687
0.417627
0.371871
0.309263
0.359792
0.336218
0.371133
0.380744
0.317146
0.329525
0.317777
0.352942
0.314502
0.337076
0.308179
0.340491
0.433502
0.364948
0.387717
0.427982
0.367681
0.379921
0.415204
0.369074
0.425643
0.395155
0.370339
0.430628
0.399514
0.415504
0.29223
0.318481
0.292115
0.323372
0.302432
0.299675
0.330397
0.369349
0.409423
0.362152
0.363317
0.422305
0.374093
0.412921
0.000857075
0.000716705
0.000774063
0.000302152
0.000261401
0.000276648
0.000235942
0.000722362
0.000524107
0.000630881
0.000198371
0.000240937
0.00020198
0.000162978
0.000669938
0.000509124
0.000557293
0.000174149
0.000216985
0.000194436
0.000155755
0.000532784
0.000344516
0.000435418
0.000164326
9.99663e-05
0.000129763
0.000129969
2.0199e-10
1.4876e-07
7.44801e-08
3.70499e-11
5.50822e-08
9.12087e-12
1.89828e-07
8.78724e-05
1.51207e-05
7.35529e-05
1.65666e-05
7.87379e-05
6.48485e-05
1.26273e-05
5.32016e-05
1.32058e-05
6.67763e-05
5.38794e-05
7.0037e-06
4.18211e-05
9.80369e-06
1.10565e-05
4.50202e-05
5.87338e-05
5.12168e-05
6.18562e-06
3.89223e-05
9.07653e-06
4.17297e-05
2.24172e-05
4.69933e-06
4.53199e-06
3.13758e-05
3.10172e-05
6.8546e-06
0.000862024
1.68983e-07
1.53099e-13
0.000886027
2.30877e-07
1.90266e-13
0.000221168
8.3833e-09
4.92393e-14
0.00088161
2.3759e-07
1.80886e-13
2.0098e-05
6.65212e-13
8.67038e-15
2.2532e-05
0.000880579
2.41803e-05
1.00178e-05
0.00070669
8.82776e-06
0.000697657
2.40924e-05
2.15597e-05
0.000887368
1.00247e-05
0.000709726
8.76249e-06
0.000581003
2.06702e-05
1.11561e-05
0.000531214
7.70835e-06
0.000647785
3.06676e-06
0.000383585
5.91601e-05
0.000141179
0.000312519
1.9883e-07
1.43276e-06
7.80189e-06
1.8406e-06
0.00144485
0.0014071
0.0119953
0.0114787
0.00758986
0.00763466
0.00198673
0.00200417
0.0138924
0.0076342
0.0137284
0.00765496
0.0140613
0.0138656
0.00758277
0.00760676
0.0136668
0.0136802
0.0136112
0.0137431
0.00754366
0.00748581
0.0977835
0.0391086
0.0402756
0.100939
0.02028
0.0844739
0.0215851
0.0574606
0.0978135
0.0972949
0.0972285
0.0623007
0.0624099
0.0625552
0.0623706
0.100907
0.0979509
0.0978901
0.0629487
0.0644379
0.0631315
0.0646493
0.0841812
0.0939724
0.0937569
0.0544121
0.0550294
0.0606364
0.0602793
0.0628698
0.0883077
0.0976396
0.0853994
0.0945465
0.0558432
0.0613107
0.0394908
0.023812
0.02421
0.0240792
0.0244909
0.040552
0.0397583
0.0236214
0.0388785
0.0234915
0.0235582
0.0238184
0.0393265
0.0389942
0.0211296
0.0360021
0.0351337
0.0233502
0.0237752
0.039423
0.0386035
0.0207483
0.0345475
0.0339464
0.0226538
0.0230322
0.0381065
0.0376546
0.0122234
0.0135993
0.0133871
0.00731868
0.00647824
0.00721981
0.00636862
0.0117802
0.0129575
0.0132081
0.00712615
0.00609342
0.0062577
0.00698579
0.00198097
0.00400881
0.00401125
0.00189809
0.00394986
0.00392952
0.00189417
0.00200027
0.00405682
0.00403394
0.00391803
0.00187247
0.00388733
0.0018899
0.00319395
0.00142751
0.00314693
0.00171282
0.00368402
0.00364508
0.00170069
0.00309672
0.00137037
0.00301713
0.00360389
0.00165363
0.00353558
0.00168523
0.118221
0.154953
0.116385
0.151005
0.44592
0.419268
0.430845
0.390178
0.303404
0.312377
0.42192
0.42421
0.426189
0.321805
0.328465
0.42814
0.321693
0.306614
0.45246
0.436741
0.326631
0.342523
0.414573
0.40519
0.421916
0.329724
0.332026
0.33428
0.330705
0.447448
0.421362
0.434852
0.336187
0.35044
0.337994
0.350964
0.113504
0.190714
0.199517
0.211935
0.136828
0.131391
0.220337
0.196425
0.113197
0.190235
0.13209
0.211854
0.130361
0.218741
0.237602
0.149357
0.224173
0.148957
0.143544
0.232235
0.229947
0.14452
0.148627
0.224877
0.239037
0.142632
0.231183
0.232735
0.000815645
0.000885296
0.000817225
0.000328461
0.000327572
0.000290565
0.00029226
7.71169e-06
3.08526e-05
4.88543e-05
2.21952e-08
1.66928e-09
7.2898e-08
2.42726e-07
0.000883262
0.000814438
0.000814084
0.000328856
0.000329134
0.000292558
0.000292781
0.000881554
0.000811451
0.000799933
0.000322959
0.000328125
0.000290442
0.000283479
0.000880959
0.000804189
0.000815517
0.000317325
0.000324707
0.000286394
0.000277597
0.000770386
0.000715019
0.000817808
0.000310354
0.000287754
0.000268462
0.000243654
0.000703712
0.00057401
0.000568523
0.000242533
0.000189139
0.000187508
0.000243286
0.000580305
0.000586246
0.000712274
0.00024231
0.000190354
0.00024331
0.000190937
0.000681895
0.000560429
0.000543536
0.000239775
0.000177353
0.00018433
0.000232328
0.000699574
0.00058799
0.000710839
0.000238944
0.000184918
0.000231292
0.000189733
0.000633032
0.000644207
0.000744176
0.000213905
0.000254808
0.000210036
0.000171029
0.000510387
0.000456342
0.000589414
0.000164231
0.000217351
0.000193663
0.000144051
0.000301375
0.000412894
0.000508288
0.000162833
9.05813e-05
0.000118343
0.000128583
0.000420456
0.000405884
0.000527404
0.000169298
0.000131046
0.000125715
9.41245e-05
0.000151776
0.00022512
0.000314927
6.44835e-05
9.51197e-05
6.56928e-05
4.26659e-05
0.000217394
0.000196032
0.000292158
5.60351e-05
8.71469e-05
6.30154e-05
3.90916e-05
9.43346e-05
9.76616e-05
0.00015058
4.21851e-05
1.49472e-05
2.62232e-05
2.51051e-05
2.51284e-07
2.86364e-10
3.58951e-10
6.74804e-11
1.05986e-06
5.30563e-11
8.7352e-07
9.54258e-09
2.56692e-10
1.8537e-07
6.68468e-11
1.05585e-06
4.76409e-11
7.05162e-08
9.64596e-05
2.36013e-05
9.89854e-05
8.52067e-05
1.80908e-05
8.2363e-05
1.91604e-05
2.40669e-05
9.99384e-05
9.98301e-05
8.62341e-05
1.97394e-05
1.96291e-05
8.64032e-05
9.97288e-05
2.37398e-05
9.90355e-05
8.5207e-05
1.96309e-05
8.61247e-05
1.92321e-05
2.29463e-05
9.38867e-05
9.73287e-05
8.32075e-05
1.70582e-05
7.95541e-05
1.84039e-05
9.01398e-08
7.2873e-11
2.32588e-10
4.18412e-11
7.20554e-07
2.15258e-07
1.08888e-11
9.13351e-05
1.79836e-05
8.3075e-05
1.62867e-05
7.68362e-05
6.83307e-05
1.3806e-05
7.15703e-05
8.57062e-05
0.000122513
3.32344e-05
2.23748e-05
1.81037e-05
1.17367e-05
6.9103e-05
1.46838e-05
5.18426e-05
9.88776e-06
5.13551e-05
1.45726e-05
6.93731e-05
6.80124e-05
1.32527e-05
9.53005e-06
4.77961e-05
5.02213e-05
6.526e-05
1.41586e-05
6.86096e-05
1.46167e-05
5.20525e-05
9.8857e-06
6.92551e-05
5.19367e-05
1.4318e-05
6.69917e-05
1.25991e-05
9.49013e-06
4.89695e-05
6.3893e-05
5.10886e-05
1.36682e-05
1.17505e-05
4.34809e-05
6.00976e-05
5.23744e-05
6.23002e-06
3.71669e-05
9.72555e-06
1.8298e-05
3.38781e-05
5.55514e-05
7.84189e-06
1.37895e-05
6.90854e-06
3.73174e-06
1.46892e-05
5.85103e-05
7.18158e-05
5.73815e-05
7.96206e-06
1.09062e-05
4.51862e-05
1.30065e-05
2.61625e-05
3.9257e-05
3.94313e-06
8.95069e-06
5.54706e-06
2.34019e-06
4.27538e-05
5.1977e-06
4.59633e-06
2.14632e-05
2.94591e-05
7.43119e-06
3.24543e-05
7.11151e-13
4.31583e-12
8.23472e-08
3.26545e-08
4.12412e-11
1.13732e-07
5.72789e-12
4.45851e-05
5.32336e-06
3.3129e-05
4.96477e-06
3.14786e-05
2.23934e-05
3.22163e-06
0.0402331
0.0283695
0.105562
0.0796684
0.0610256
0.0838733
0.0349197
0.0171568
0.109544
0.0715713
0.125111
0.0962743
0.111993
0.0542885
0.0645964
0.0748191
0.0891315
0.0992058
0.0443999
0.0529271
0.048292
0.0579021
0.0658053
0.116006
0.0998785
0.110099
0.0609556
0.0662068
0.0710148
0.135469
0.0841313
0.141013
0.128689
0.122754
0.0728883
0.0775394
0.0406722
0.0206376
0.0231978
0.0190991
0.0316905
0.0371822
0.0215604
0.027388
0.0190678
0.017803
0.0316186
0.0289356
0.0338794
0.0200245
0.0237968
0.025139
0.0429006
0.0215602
0.0365485
0.0391852
0.0227757
0.026823
0.0462133
0.049409
0.0460964
0.0261437
0.0426461
0.024467
3.03656e-05
6.37849e-10
2.15705e-13
8.52191e-10
2.46523e-13
4.03091e-06
1.54599e-10
9.76705e-14
3.05168e-05
3.02494e-05
6.78962e-10
2.3219e-13
0.000787229
2.40542e-06
1.5255e-13
2.80578e-05
4.546e-13
1.40139e-14
3.10235e-05
0.000876203
0.000950514
0.000944945
2.59671e-05
0.00091307
2.736e-05
2.17763e-05
0.000861582
0.00095518
0.000889349
2.43091e-05
1.44458e-05
0.000740589
0.000937744
3.05877e-05
0.000918889
0.000909685
2.73389e-05
2.53446e-05
0.000925231
1.87281e-05
2.90168e-05
0.00092785
0.000797326
2.33178e-05
0.000911173
1.26622e-05
0.000322895
1.67249e-05
0.000639225
2.17812e-06
0.000294447
1.04868e-05
0.000564515
0.00769941
0.013288
0.0135998
0.00761705
0.0020065
0.00206451
0.0122442
0.00399554
0.0113278
0.00358953
0.00207071
0.00200297
0.00809976
0.0132815
0.00379007
0.0114435
0.00354424
0.00757156
0.00206725
0.0017803
0.0130473
0.0135638
0.00424056
0.00413983
0.0020896
0.00851377
0.0137963
0.0020552
0.00831929
0.00377431
0.00740912
0.0037858
0.012582
0.0113302
0.0118686
0.00720339
0.00671602
0.00697529
0.00735359
0.0123363
0.0131955
0.0123418
0.00709553
0.00741836
0.00705797
0.0074088
0.0132103
0.0134945
0.0135441
0.0076012
0.00778974
0.00765577
0.00779247
0.00752494
0.0077702
0.0142082
0.0125393
0.0130508
0.00732957
0.00712432
0.00748722
0.0134402
0.0132654
0.013034
0.0125852
0.00726553
0.00751594
0.0105348
0.0107278
0.0114315
0.00626826
0.00638049
0.00671893
0.00664322
0.0122863
0.0125525
0.0115379
0.00750222
0.00713665
0.00677794
0.00718971
0.0118502
0.0108876
0.0105799
0.00628674
0.00644531
0.00686708
0.00668407
0.00770042
0.013568
0.0135841
0.0134168
0.0135874
0.00770044
0.00777713
0.0150011
0.00837542
0.015705
0.0145472
0.0138094
0.00794121
0.00764818
0.0128241
0.00768828
0.00736198
0.00744567
0.0130791
0.0140498
0.0077556
0.0136502
0.0135177
0.01365
0.00773024
0.00783698
0.00781111
0.00766959
0.00852122
0.0161264
0.016275
0.0150505
0.00811024
0.0152827
0.00816176
0.00718548
0.0134386
0.0129167
0.013355
0.0136026
0.00774697
0.00751958
0.0131226
0.00714161
0.0128399
0.0137134
0.0140767
0.00769202
0.00736087
0.00776357
0.0160892
0.0152825
0.0147057
0.0152424
0.00805147
0.00761877
0.00375986
0.00205832
0.00195755
0.00387743
0.00207227
0.00405395
0.00200141
0.00353295
0.0018792
0.00185338
0.00374809
0.00192643
0.00370666
0.00194485
0.00199479
0.00397792
0.00396543
0.00389233
0.0019773
0.00386274
0.0019928
0.00203736
0.00410849
0.00403694
0.00398576
0.00208091
0.00410313
0.00203474
0.00399793
0.00203216
0.00408693
0.00396495
0.00198411
0.00388372
0.00201512
0.00395021
0.00203522
0.00197328
0.00207164
0.00407476
0.00395089
0.00203064
0.00362701
0.00190104
0.00186045
0.00380804
0.00193495
0.00372342
0.00197317
0.00417072
0.00214354
0.00212279
0.00211601
0.00417915
0.00422611
0.00212513
0.00209289
0.00420824
0.00429778
0.00208949
0.00419463
0.00409131
0.00206006
0.00203658
0.00414299
0.00411976
0.00210344
0.00417828
0.00419631
0.00209678
0.00424129
0.00204462
0.00212802
0.0042091
0.00199802
0.0020977
0.00408006
0.00194647
0.00400383
0.00373687
0.00414612
0.0019163
0.00204523
0.00396155
0.00405191
0.00403399
0.00206088
0.00208466
0.00413296
0.00413647
0.00206919
0.00204286
0.00432999
0.004293
0.00209544
0.00424033
0.00422778
0.00206931
0.00185939
0.00200042
0.00399551
0.00405528
0.0018412
0.00380839
0.00199876
0.00381796
0.00192018
0.00171411
0.00179711
0.00197768
0.00412502
0.00410989
4.05957e-05
0.000129888
9.55708e-05
1.30626e-06
2.00942e-06
4.06747e-08
4.06117e-07
0.072696
0.0905016
0.037668
0.0309981
0.0386161
0.0611388
0.0699146
0.0170114
0.0473737
0.0813088
0.0512766
0.069053
0.0800223
0.0438969
0.0495005
0.0682528
0.08301
0.0804079
0.0426848
0.0424516
0.0492039
0.0501935
0.0961655
0.0990393
0.062603
0.0935109
0.0906754
0.0564327
0.0577955
0.0567418
0.095956
0.0607808
0.0607058
0.0955114
0.0900246
0.0561924
0.0198395
0.0326713
0.0205836
0.0182622
0.0284883
0.0309882
0.0193932
0.0172841
0.0268729
0.0271092
0.0303533
0.0187157
0.0305736
0.0187751
0.0226953
0.0377411
0.0228559
0.0353285
0.0217261
0.0346191
0.0210733
0.0378837
0.0227164
0.023024
0.0345297
0.0209737
0.0350789
0.0208269
0.000906783
0.000899853
0.000886882
0.000358046
0.000351516
0.00035595
0.000355152
0.00092742
0.000952684
0.000917815
0.000363776
0.000373172
0.000368426
0.000364532
0.000947768
0.000939603
0.000922359
0.000366122
0.000366567
0.000366606
0.000364093
0.000896482
0.000879718
0.000903928
0.000352774
0.000357518
0.000362041
0.000357878
0.000960348
0.000970766
0.00097029
0.000375326
0.000367803
0.000360083
0.000370545
0.000892164
0.000927187
0.000950809
0.000340837
0.000322555
0.000307039
0.000354541
0.000877876
0.000804994
0.000888271
0.000319764
0.000287526
0.000277496
0.000327728
0.000926198
0.000922373
0.000932595
0.000360602
0.000348058
0.000350473
0.000361455
0.000907867
0.000918084
0.000912062
0.00035773
0.000348985
0.000349841
0.000356171
0.000917515
0.000925696
0.000914714
0.000349298
0.00035726
0.00036025
0.000350193
0.00092536
0.000938665
0.000944115
0.000362425
0.000345383
0.0003498
0.000360929
0.000946205
0.000930347
0.000942823
0.000363762
0.000361928
0.000347704
0.000352415
0.000931856
0.000946048
0.000917894
0.000339584
0.000357394
0.000345055
0.000321757
0.000871265
0.000910835
0.000938056
0.000333553
0.000353075
0.000334749
0.000310939
0.000813119
0.000831062
0.000890444
0.000321088
0.000252792
0.000292604
0.000284226
0.000691683
0.000750528
0.000849367
0.000303171
0.000232058
0.000276285
0.000259292
0.000612557
0.000753369
0.000785121
0.000273916
0.000259209
0.000202807
0.000214501
0.000493661
0.000623992
0.000700655
0.000205801
0.00023655
0.000183486
0.000156865
0.000337095
0.000481026
0.000461388
0.000146617
0.000104007
9.84178e-05
0.000154864
0.000250387
0.000422945
0.000364422
0.000132074
7.34575e-05
0.00011142
8.82468e-05
0.00013736
0.000211413
0.000221796
6.54729e-05
6.16251e-05
3.85268e-05
3.59035e-05
7.3641e-10
5.52532e-06
5.33268e-06
3.11601e-07
3.37479e-07
4.05155e-10
5.01635e-10
0.000114645
3.06832e-05
0.000114044
3.01543e-05
3.01667e-05
0.000114195
0.000114991
0.000116119
0.000116219
3.07307e-05
2.95501e-05
3.02262e-05
0.00011527
0.000116536
8.48481e-10
5.13087e-06
5.52893e-06
3.23233e-07
1.34222e-08
3.7138e-10
2.59721e-07
0.000115654
3.09918e-05
0.000118698
2.98995e-05
0.000116031
3.0184e-05
0.000117174
0.000113135
2.83326e-05
0.000106318
2.68717e-05
0.000108089
0.00011238
2.8952e-05
0.000114374
3.02553e-05
0.000114647
0.0001156
3.07402e-05
3.03665e-05
0.000115528
0.00011602
0.000191135
0.000160112
4.47661e-05
5.47225e-05
3.13947e-05
2.51226e-05
0.000118084
2.89412e-05
0.000114547
0.000110247
2.87328e-05
2.70382e-05
0.000114797
2.56952e-10
5.01466e-06
2.90833e-06
2.35269e-07
1.32995e-07
1.1412e-10
3.3453e-10
0.000113009
2.9244e-05
2.7256e-05
0.00010859
0.000108559
2.91713e-05
0.00011287
2.93005e-05
0.000108619
0.000113187
0.000113675
2.71412e-05
0.000108482
2.92769e-05
1.95027e-10
5.64526e-10
4.69665e-06
8.97733e-11
2.96448e-10
2.12389e-07
1.11468e-07
0.000113532
2.79991e-05
2.65494e-05
0.000104942
0.000107539
2.89322e-05
0.000111906
0.000113886
2.80702e-05
0.000112196
0.000105697
2.67484e-05
2.55438e-05
0.000108327
2.6231e-05
9.96988e-05
0.000107777
0.000100155
2.0369e-05
9.10289e-05
2.34504e-05
0.000102118
2.5891e-05
9.53023e-05
1.99323e-05
2.40246e-05
8.96391e-05
0.000107504
2.70168e-05
0.000102275
0.000109683
0.000104024
2.17553e-05
9.51196e-05
2.47764e-05
9.49284e-05
8.40393e-05
2.32676e-05
1.73472e-05
8.01468e-05
2.18834e-05
9.84354e-05
9.46751e-05
1.74594e-05
1.83556e-05
7.10586e-05
8.45583e-05
2.15344e-05
8.16268e-05
8.85527e-05
1.53012e-05
6.43169e-05
1.66663e-05
7.8901e-05
7.36202e-05
1.9676e-05
9.43087e-06
4.37054e-05
1.04328e-05
7.49298e-05
7.99495e-05
2.09929e-05
1.93111e-05
1.70534e-11
3.16587e-07
2.01937e-06
7.17905e-12
1.38348e-07
5.16567e-08
6.5954e-11
7.85205e-05
1.51726e-05
7.33872e-05
5.5299e-05
1.15901e-05
1.04632e-05
5.9297e-05
3.52999e-05
5.91008e-06
7.86806e-06
5.35008e-05
6.6053e-05
1.65522e-05
1.28825e-05
1.30426e-05
5.59014e-05
6.57931e-05
4.9036e-05
6.93817e-06
4.07791e-05
8.86186e-06
3.81098e-05
2.58758e-05
7.21461e-06
3.5852e-06
6.48057e-06
2.39603e-05
4.0922e-05
3.34945e-05
2.94243e-06
1.65285e-05
4.1274e-06
2.72847e-05
5.41399e-06
2.07961e-05
3.29995e-06
1.42813e-05
2.27452e-05
1.45803e-05
9.88398e-07
8.66094e-06
1.88508e-06
1.60576e-05
4.23962e-06
9.20954e-06
3.11363e-06
6.05775e-07
1.60061e-06
1.2499e-06
2.83387e-06
1.1854e-05
2.03362e-05
1.37758e-05
8.34838e-07
1.74383e-06
7.66716e-06
1.50346e-09
2.94167e-12
1.84573e-08
6.27497e-13
3.48071e-09
6.81859e-12
1.30836e-07
1.49405e-05
1.7595e-06
1.36566e-05
8.83504e-07
7.79419e-06
7.01657e-06
7.58253e-07
1.00921e-06
4.38345e-06
8.98697e-06
1.41044e-06
1.16213e-05
5.84112e-06
5.9042e-07
8.49891e-06
2.40098e-06
4.32298e-07
4.72468e-07
4.78784e-06
9.60072e-07
4.49625e-06
7.96194e-10
1.79324e-12
1.02998e-08
1.73647e-13
5.63419e-11
2.80463e-09
3.99512e-13
6.34635e-07
2.91765e-06
6.21854e-06
3.4958e-07
3.84599e-06
1.72039e-06
1.25972e-07
5.51573e-06
5.291e-06
5.2568e-06
5.19607e-07
5.13536e-07
4.67215e-07
4.74868e-07
5.47493e-06
4.96889e-06
5.16641e-06
4.64712e-07
4.9698e-07
4.47529e-07
4.12792e-07
5.29905e-06
5.50167e-06
5.26445e-06
5.18523e-07
4.7414e-07
5.08019e-07
4.6364e-07
4.33514e-06
3.30679e-07
4.28866e-06
4.91206e-06
4.86694e-06
4.06258e-07
4.14032e-07
5.3871e-06
4.83992e-06
5.12751e-06
4.37193e-07
4.81811e-07
4.37056e-07
3.92608e-07
4.23837e-06
3.35263e-07
4.32201e-06
4.91176e-06
4.85461e-06
4.12642e-07
4.01174e-07
4.60866e-06
4.48957e-06
4.0652e-06
4.12889e-07
3.61411e-07
3.43672e-07
2.96402e-07
8.86389e-08
1.08683e-07
1.51143e-06
3.3688e-07
3.65454e-06
3.23068e-06
2.82007e-07
2.79161e-07
4.14563e-06
3.87355e-06
4.49421e-06
4.74039e-06
3.85597e-07
3.50415e-07
3.70288e-06
2.97747e-07
4.0386e-06
4.3651e-06
4.68433e-06
3.74344e-07
3.31776e-07
4.37554e-06
4.06922e-06
3.73428e-06
3.75019e-07
3.3241e-07
2.9975e-07
2.61802e-07
3.42962e-06
2.48691e-07
3.52903e-06
2.61731e-06
2.5256e-06
1.56993e-07
1.65423e-07
3.55202e-06
2.46159e-07
3.51101e-06
2.64131e-06
2.60924e-06
1.64273e-07
1.67626e-07
1.39317e-07
7.11167e-07
1.89539e-06
1.02475e-06
6.43507e-08
2.61832e-06
2.11915e-07
3.76872e-06
2.55613e-06
3.36027e-06
1.84629e-07
2.64314e-07
2.24723e-07
1.5515e-07
1.84418e-07
3.45698e-06
2.90805e-06
4.09469e-06
3.5372e-06
3.01295e-07
2.42115e-07
1.60815e-07
3.22749e-06
2.63511e-06
3.88252e-06
3.24914e-06
2.7644e-07
2.13801e-07
2.04437e-07
3.37453e-06
3.11174e-06
2.27703e-06
2.49699e-06
1.53753e-07
1.35068e-07
1.0805e-06
1.69621e-07
2.14242e-06
9.06353e-07
2.33611e-08
4.29495e-07
5.74513e-08
2.90252e-06
2.15948e-07
3.22257e-06
1.19806e-07
2.08174e-06
2.34626e-06
1.41307e-07
3.27663e-06
2.13623e-06
2.95702e-06
1.45313e-07
2.19625e-07
1.88965e-07
1.23484e-07
1.1018e-07
2.47461e-06
1.96827e-06
9.4612e-08
1.74129e-06
1.34951e-06
6.86032e-08
1.29023e-07
2.71733e-06
2.21884e-06
1.94968e-06
1.5469e-06
1.0988e-07
8.18421e-08
8.73107e-08
2.27471e-06
1.63396e-06
2.11926e-06
2.85492e-06
1.79575e-07
1.21385e-07
1.98747e-06
1.36943e-06
7.01506e-08
1.78072e-06
2.5166e-06
1.51476e-07
9.73821e-08
7.90898e-08
4.29707e-07
1.20586e-06
6.7439e-07
1.05425e-08
3.89837e-08
2.26424e-07
1.76223e-06
1.03905e-06
1.73774e-06
9.75797e-08
5.32433e-08
5.1948e-08
9.96049e-08
1.74687e-06
1.02307e-06
1.68368e-06
9.32182e-08
5.28105e-08
9.83039e-08
5.0434e-08
1.75664e-06
1.2424e-06
1.07159e-06
1.15138e-07
9.60548e-08
5.26968e-08
6.34011e-08
1.49528e-06
9.80113e-07
1.65539e-06
9.11595e-08
4.17831e-08
4.82258e-08
7.96144e-08
1.36939e-06
8.31755e-07
3.84758e-08
9.48828e-07
1.5575e-06
8.36752e-08
4.55484e-08
5.71504e-08
1.6752e-06
1.15482e-06
7.39254e-07
1.12349e-06
5.53578e-08
3.38185e-08
1.4407e-06
9.58823e-07
4.56547e-08
6.08763e-07
9.543e-07
4.51702e-08
2.68358e-08
1.25773e-06
5.39527e-07
9.6959e-07
3.31504e-08
6.39366e-08
4.66017e-08
2.36895e-08
2.7313e-08
6.14001e-07
1.06141e-06
1.4246e-06
8.51772e-07
7.38172e-08
3.99701e-08
1.12695e-06
6.76879e-07
2.99275e-08
4.99887e-07
8.51412e-07
3.92349e-08
2.1015e-08
3.33995e-07
4.28438e-08
4.42998e-09
6.63519e-09
1.47706e-07
1.69726e-08
1.04847e-07
4.2374e-07
3.61563e-07
6.76731e-07
3.05784e-08
8.55464e-09
1.50969e-08
1.79858e-08
1.66902e-08
3.96688e-07
7.1765e-07
4.36124e-07
2.28307e-07
1.85624e-08
9.10784e-09
6.70574e-07
2.66979e-07
5.72933e-07
2.55314e-08
1.32942e-08
1.09477e-08
3.08185e-08
3.52485e-07
3.28333e-07
5.8025e-07
2.51482e-08
7.21136e-09
1.44048e-08
1.31081e-08
5.32671e-09
1.28164e-08
3.1193e-07
2.04026e-07
4.4677e-07
1.91579e-08
8.1204e-09
0.361013
0.167826
0.296197
0.182844
0.317094
0.255015
0.422786
0.280071
0.395904
0.391097
0.38453
0.348421
0.372068
0.379465
0.349937
0.239693
0.33455
0.293618
0.291871
0.337741
0.3067
0.255843
0.322189
0.26612
0.307349
0.326511
0.357485
0.318407
0.281937
0.181103
0.217269
0.201067
0.212266
0.251247
0.269123
0.230499
0.221461
0.312799
0.210062
0.224117
0.314836
0.312026
0.231668
0.311706
0.225976
0.223186
0.297815
0.224763
0.232441
0.27289
0.222234
0.225502
0.278875
0.229105
0.304427
0.291347
0.232858
0.188876
0.2116
0.233759
0.22309
0.207521
0.266114
0.227393
0.138397
0.154255
0.085521
0.0299468
0.0294379
0.0670446
0.0227071
0.037695
0.121449
0.0776498
0.136616
0.130684
0.145224
0.0716574
0.0822896
0.150209
0.136358
0.149887
0.0756652
0.0745065
0.0850253
0.0859005
0.146288
0.0898174
0.150736
0.156374
0.153711
0.0899472
0.0940346
0.148772
0.156601
0.156697
0.0924194
0.0953393
0.0962211
0.0926144
0.0435716
0.021864
0.0244776
0.0225996
0.0396513
0.0455924
0.0252543
0.0299579
0.0519278
0.053551
0.0488629
0.0273977
0.050697
0.0280917
0.0408579
0.0229035
0.0406822
0.0466094
0.0252739
0.0466481
0.025562
0.0542282
0.0534362
0.0289893
0.0515376
0.0277135
0.0511919
0.0282788
3.06733e-09
7.58792e-09
1.92893e-07
4.31495e-08
1.05569e-07
3.98611e-09
1.55821e-09
2.36306e-07
5.34324e-08
1.16977e-07
4.31854e-09
9.46126e-09
4.44765e-09
1.95007e-09
1.08775e-07
4.76472e-08
3.90659e-08
5.11635e-09
4.17925e-09
1.76672e-09
1.42934e-09
5.38046e-08
1.97003e-09
8.14838e-08
2.86876e-08
3.06069e-09
1.03119e-09
6.50254e-10
2.0092e-08
2.23939e-08
5.14017e-08
1.87169e-09
2.87737e-10
7.90036e-10
7.05871e-10
3.09812e-08
1.10569e-09
1.56255e-08
5.01619e-09
5.44744e-10
3.55856e-10
1.70582e-10
8.39139e-10
2.37329e-08
2.33491e-08
2.07352e-08
7.57777e-10
7.43438e-10
2.11553e-08
1.74433e-11
2.30729e-13
1.42145e-11
2.51189e-13
2.93325e-11
2.62179e-13
2.55246e-11
7.6746e-10
1.90004e-08
2.14273e-08
1.89983e-08
5.95962e-10
6.79268e-10
1.6706e-08
1.30986e-11
2.48084e-13
1.66456e-11
2.43771e-13
2.33999e-11
2.46876e-13
2.91816e-11
8.0277e-10
2.04832e-08
2.23241e-08
1.96451e-08
6.38387e-10
1.78039e-08
7.04799e-10
2.36398e-08
8.23788e-10
7.55008e-10
2.1084e-08
2.29664e-08
2.04594e-08
7.32378e-10
4.36851e-09
1.53529e-08
1.24071e-08
1.52e-10
5.47712e-10
4.38286e-10
1.20357e-10
1.77647e-08
5.45444e-10
1.524e-08
5.14732e-10
1.43768e-08
1.21764e-08
4.34566e-10
1.16132e-11
1.7078e-13
4.53244e-12
2.45604e-13
2.20585e-11
2.03111e-13
1.89363e-12
3.69655e-12
1.65796e-13
1.77504e-12
2.02276e-13
1.03076e-11
2.14677e-13
1.93775e-11
4.58982e-10
1.28982e-08
1.13966e-08
1.64646e-08
5.26211e-10
1.47273e-08
5.8882e-10
4.90809e-10
1.41142e-08
1.37964e-08
1.75114e-08
6.39164e-10
6.2586e-10
1.79016e-08
4.77021e-10
4.97649e-10
1.40031e-08
6.35817e-10
1.78122e-08
1.71991e-08
6.13784e-10
1.63533e-10
5.59068e-09
4.69672e-09
3.06791e-10
8.71554e-09
7.39492e-09
2.59725e-10
1.04816e-08
1.22195e-08
4.3387e-10
1.58332e-08
4.89596e-10
5.64468e-10
1.37645e-08
2.55751e-10
9.43015e-09
7.23635e-09
4.42275e-10
1.2404e-08
9.73264e-09
3.4585e-10
1.58514e-08
4.90014e-10
1.37837e-08
4.3513e-10
1.22836e-08
1.05495e-08
3.73038e-10
5.59226e-09
2.45424e-09
8.92259e-09
3.11154e-10
5.0918e-11
1.92226e-10
8.38934e-11
6.98969e-09
8.43339e-10
2.16643e-09
9.45937e-11
2.39237e-10
7.29061e-11
2.81885e-11
1.22054e-11
1.85147e-13
9.69484e-12
2.72121e-12
1.18278e-13
2.33751e-12
1.16334e-13
8.75749e-12
1.88319e-13
1.1502e-11
2.12119e-12
1.08356e-13
2.70199e-12
1.20504e-13
3.27465e-10
9.24929e-09
8.09597e-09
5.96539e-09
1.8214e-10
5.19108e-09
2.09519e-10
3.51244e-10
1.0148e-08
9.92312e-09
6.40301e-09
2.29764e-10
2.25062e-10
6.54079e-09
3.37669e-10
3.54948e-10
1.00341e-08
6.10045e-09
2.26288e-10
6.45071e-09
2.14078e-10
3.82406e-10
7.25896e-09
1.07235e-08
8.9757e-09
2.1252e-10
3.19084e-10
6.02013e-09
2.18327e-10
8.40135e-09
6.22253e-09
3.97174e-10
1.12048e-08
8.44789e-09
2.97704e-10
7.27261e-09
8.59084e-09
3.03933e-10
1.60031e-10
4.56475e-09
5.44825e-09
1.91353e-10
2.09201e-12
1.48974e-13
6.33253e-12
1.49672e-12
8.05397e-14
5.13519e-14
6.80367e-13
1.45861e-10