/*--------------------------------*- C++ -*----------------------------------*\
  =========                 |
  \\      /  F ield         | OpenFOAM: The Open Source CFD Toolbox
   \\    /   O peration     | Website:  https://openfoam.org
    \\  /    A nd           | Version:  9
     \\/     M anipulation  |
\*---------------------------------------------------------------------------*/
FoamFile
{
    format      ascii;
    class       volScalarField;
    location    "0.0031";
    object      impulseMax;
}
// * * * * * * * * * * * * * * * * * * * * * * * * * * * * * * * * * * * * * //

dimensions      [1 -1 -1 0 0 0 0];

internalField   nonuniform List<scalar> 
26357
(
257.821
316.435
315.068
256.975
318.847
256.277
318.986
255.961
311.77
308.262
311.94
293.292
290.656
292.733
295.167
317.472
316.435
314.549
294.855
294.163
296.408
296.878
316.662
314.139
313.964
293.83
294.428
296.082
295.252
318.107
319.672
318.636
297.112
296.336
297.425
296.103
256.929
273.881
274.784
275.967
258.964
276.774
258.884
275.095
274.682
254.881
276.976
256.835
276.496
258.211
259.198
275.439
276.53
277.229
257.756
259.12
276.054
277.345
257.136
257.119
275.666
276.826
258.435
276.134
172.974
188.14
218.093
214.209
239.707
166.076
157.545
235.809
171.86
170.694
239.394
238.334
234.954
177.054
178.423
219.077
217.472
218.537
236.752
218.629
237.255
239.08
219.985
238.025
218.929
238.607
220.747
240.858
240.32
220.739
216.523
238.505
237.701
220.043
240.729
239.945
218.591
265.712
256.434
296.187
285.245
254.995
283.77
311.285
257.431
292.29
296.243
300.181
279.033
282.189
285.18
282.076
300.223
304.319
288.129
308.269
304.216
290.951
288.16
283.748
300.243
299.066
302.99
304.101
286.757
286.79
310.699
306.941
307.874
291.96
292.309
289.563
289.69
251.266
253.759
268.256
253.511
268.3
270.715
255.835
255.268
270.561
272.469
274.692
258.509
272.89
257.447
270.749
253.14
268.437
254.293
269.183
271.564
256.241
258.785
274.393
275.367
256.464
272.81
273.679
257.775
239.517
236.781
237.84
219.056
218.221
220.467
219.569
211.105
236.18
233.872
236.257
238.48
216.378
213.349
239.843
240.651
241.138
220.361
221.316
221.262
220.314
240.989
219.769
220.677
239.036
240.244
219.315
218.507
237.735
236.772
238.852
217.213
213.898
214.33
216.565
175.361
199.04
198.079
198.537
173.786
199.193
175.191
199.049
178.026
199.314
175.856
198.413
199.103
175.828
169.871
196.454
194.116
197.141
171.622
194.964
168.641
197.752
171.301
196.707
173.632
197.872
198.831
173.962
197.776
171.697
198.149
198.685
172.458
199.147
173.617
160.093
187.227
161.45
166.044
191.058
191.981
164.816
194.768
168.838
196.652
197.45
170.473
195.405
167.602
188.55
188.797
158.988
162.346
192.095
192.537
163.799
130.642
0.00444497
5.14734e-05
122.901
34.3576
140.905
23.6967
21.0339
133.528
12.1983
315.56
316.278
284.348
305.489
342.932
312.482
349.21
362.629
318.635
322.585
316.425
326.265
332.667
320.408
326.375
334.4
326.202
331.658
352.39
341.624
333.592
341.353
354.992
337.791
344.054
334.788
327.957
333.831
340.714
371.024
361.894
352.423
340.723
354.593
348.062
347.428
279.181
295.895
301.716
287.59
303.779
309.224
292.354
296.196
290.091
308.467
315.649
303.513
297.748
322.387
322.227
300.766
316.67
294.659
310.61
316.02
299.324
335.071
310.744
328.461
322.231
310.146
304.553
328.805
1919.93
4145.12
1815.2
554.093
1717.89
338.282
1709.71
404.056
688.959
960.276
1899.42
1823.52
835.737
719.996
1823.9
679.644
1336.53
1520.76
784.317
1110.67
796.396
813.607
600.893
548.578
944.858
464.903
739.435
590.764
459.436
403.739
492.118
561.15
380.816
528.66
389.014
511.668
1514.29
2805.53
3038.06
1919.63
1868.8
2732.16
1803.73
1215.63
2045.95
1286.46
950.637
896.056
1757.73
1254.83
1262.23
2352.69
1408.34
1048.09
1321.42
1846.01
914.925
1120.15
1245.87
766.383
778.248
1112.54
715.588
1072.25
639.06
633.442
1858.57
1786.63
714.55
1812.58
591.653
438.376
385.763
360.222
357.248
374.046
438.28
396.748
543.399
595.995
1759.41
1718.18
604.773
544.7
1766.95
579.186
1754.73
553.619
1726.36
549.33
1770.04
564.843
3687.94
585.778
492.041
469.311
338.012
366.871
404.072
359.396
692.876
1517.95
1395.57
797.423
1144.2
800.066
810.167
558.546
558.085
945.01
460.437
758.943
590.704
458.972
545.419
823.659
469.845
428.79
704.009
580.393
426.406
400.444
490.782
566.763
377.837
509.115
528.874
384.882
1535.94
3075.51
3125.33
2114.91
2576.4
1761.52
1656.04
1231.94
2286.45
1409.33
1042.67
1845.99
1322.26
915.957
1219.87
2034.08
1344.8
984.048
1843.8
928.099
1311.81
1057.58
1155.43
756.751
756.544
1154.23
723.166
1147.96
420.083
489.456
449.616
399.099
575.87
416.611
437.62
439.031
382.838
352.66
355.869
436.822
369.285
393.121
358.021
382.855
443.932
388.146
457.192
378.667
387.704
365.999
422.454
381.702
367.328
375.959
388.482
396.401
291.728
382.582
353.205
299.336
312.33
297.102
272.639
251.112
247.046
260.051
264.121
257.126
260.372
267.05
270.613
259.866
283.983
272.243
277.181
267.324
277.199
286.494
293.648
295.538
276.437
280.239
280.305
283.819
298.809
273.624
293.018
271.156
309.783
279.074
282.109
317.521
303.416
297.805
287.427
289.828
326.957
304.206
298.333
330.029
312.671
279.336
290.494
347.669
331.257
312.677
322.824
331.193
289.996
300.177
360.982
339.396
334.663
318.299
365.946
371.978
371.709
352.098
351.766
340.644
360.137
333.957
288.446
242.236
319.211
343.735
322.486
301.254
300.395
343.829
271.876
343.36
281.426
348.733
293.909
316.03
313.953
354.993
361.244
297.635
357.238
328.236
339.495
319.138
336.516
314.535
342.316
345.65
310.071
274.42
247.353
247.613
259.357
254.921
268.679
264.21
275.33
287.019
258.945
289.281
268.974
274.469
303.748
332.518
356.746
349.062
325.845
360.011
354.468
337.724
297.792
309.947
306.351
294.141
279.265
289.584
283.36
308.68
330.589
318.683
304.78
304.825
292.203
318.699
144.837
137.125
141.044
108.862
103.583
104.506
99.3234
136.175
126.645
132.325
93.6211
99.414
94.2901
88.5092
137.405
129.804
133.594
93.2614
98.4043
94.2532
89.2194
128.697
119.199
125.015
89.2678
78.4213
83.4686
84.2695
0.00921987
1.0493
0.638037
0.00354072
0.5284
0.00182995
1.51854
69.8654
30.0872
64.6834
31.2026
65.8759
60.8028
27.0621
56.0663
27.6186
61.2609
56.2767
19.9057
51.1486
23.6317
25.5955
53.9139
59.3772
55.582
18.3373
50.1713
22.7043
51.0989
40.5586
15.9725
15.3387
45.976
45.6993
19.4484
145.629
1.16563
6.6172e-05
150.657
1.54626
8.37629e-05
107.917
0.302941
3.68479e-05
152.759
1.60651
7.69568e-05
61.2211
0.000535919
1.73611e-05
38.1876
152.884
41.6467
27.0519
143.442
23.9692
140.272
41.4269
37.0092
150.312
26.9481
143.868
23.3096
136.402
35.7987
25.6143
127.305
21.9435
134.581
13.7518
119.493
84.3305
98.3527
114.601
3.20518
9.0278
21.4866
10.7115
169.981
165.255
231.776
224.482
213.678
208.586
177.13
173.601
232.625
215.855
229.791
216.648
234.813
231.706
214.005
211.255
223.405
226.701
224.341
228.205
211.036
207.765
284.445
255.969
262.792
292.638
240.731
290.96
250.814
280.654
280.454
282.816
286.573
266.056
269.356
272.407
269.184
288.777
285.689
289.445
272.661
275.849
275.715
278.918
289.483
287.514
289.381
271.338
274.21
274.08
270.965
280.616
296.552
295.416
293.418
292.142
277.412
277.372
259.547
245.284
248.508
247.935
251.146
265.45
262.256
241.731
252.147
237.95
240.165
244.263
258.715
254.904
247.847
265.763
262.635
248.744
251.832
266.445
263.263
244.488
259.307
255.868
241.179
245.196
259.797
256.121
234.647
235.543
232.5
216.984
216.207
214.155
213.424
228.404
224.925
228.977
210.89
206.256
210.118
207.198
178.159
196.695
198.191
175.22
197.103
195.12
173.833
175.647
192.677
194.887
192.83
169.749
190.176
172.036
194.952
167.844
192.41
172.605
196.252
193.895
170.827
189.402
162.111
185.867
191.143
165.916
188
168.611
275.413
297.048
272.428
291.772
332.106
315.568
366.143
348.25
308.085
308.816
313.944
323.999
326.884
316.472
316.891
322.186
314.749
310.319
344.24
334.348
319.095
324.088
336.055
352.311
339.744
324.575
331.618
324.593
332.141
355.882
358.996
347.174
327.451
340.27
335.303
332.483
272.853
290.088
291.958
298.183
283.987
281.335
300.05
290.736
271.304
289.814
278.137
297.842
279.439
299.072
312.742
294.408
304.991
291.087
288.454
306.86
311.05
285.365
292.526
304.774
313.506
286.507
311.215
306.533
148.276
151.856
147.629
118.226
117.094
111.441
112.439
48.9049
71.7792
78.4762
0.729998
0.183604
1.7739
3.20253
152.077
148.162
147.156
118.485
117.727
111.802
112.604
148.495
145.565
143.292
113.872
116.228
110.281
107.934
147.97
144.085
146.273
112.43
115.182
109.664
107.039
140.362
136.747
142.045
110.692
106.706
104.793
100.875
142.145
138.599
136.969
105.509
100.231
99.0374
106.476
139.331
139.213
143.504
105.721
100.524
106.508
99.9841
137.736
134.735
131.841
103.851
94.5435
97.1572
101.421
140.342
138.271
142.371
104.146
96.3978
101.705
98.6373
132.411
132.669
137.737
96.4696
101.956
96.2022
90.7845
128.326
124.218
130.787
91.2333
98.247
94.3407
87.2384
114.083
121.101
126.314
89.7124
77.1994
82.567
84.3477
121.382
120.112
126.808
90.2576
84.6263
83.3275
77.7332
100.928
108.211
115.085
71.1213
78.2381
71.3936
64.3358
106.931
104.076
112.547
67.3406
75.6818
70.1224
61.8298
91.7744
93.0727
100.443
63.8398
48.8068
56.8743
55.6338
1.72236
0.0119744
0.0147948
0.0054904
5.79969
0.00457469
4.72586
0.149152
0.0110769
1.26285
0.0053991
5.72344
0.00417362
0.639811
74.6725
39.9678
76.8694
71.2479
33.7398
69.1132
35.4366
41.1094
78.9356
78.2604
72.6054
37.0363
36.5254
73.2698
78.6675
40.5741
77.5909
72.0532
36.8283
73.039
36.0259
39.0951
73.1753
75.7604
70.3407
32.6282
67.875
34.6213
0.736318
0.00512838
0.0102692
0.00388486
4.05242
1.87638
0.00205648
71.7036
32.8584
68.0076
31.4644
66.2325
62.6478
28.6682
84.3663
88.8657
94.6827
58.3512
52.9275
48.8039
43.5309
66.5738
32.1297
61.1571
26.5403
60.3073
31.625
67.3078
65.1752
28.9556
25.513
56.6298
58.8125
63.0473
30.5732
66.3434
31.9607
61.2005
26.2963
67.1907
60.5143
31.2262
64.7776
28.019
25.0793
56.8942
62.451
59.0953
29.9087
26.8024
53.7861
60.2161
56.7165
19.4997
50.3173
24.169
64.3331
74.7177
82.1977
40.2602
46.8676
37.6992
31.4343
29.437
58.6527
63.6409
58.4008
21.8075
25.4206
53.5277
55.4113
67.2829
73.1684
28.8523
38.869
33.8568
24.2693
52.5762
17.7903
16.7297
41.6101
46.249
21.1295
47.8218
0.000745805
0.00139345
1.02742
0.385967
0.00368997
1.29737
0.00156958
53.0745
17.9501
48.0633
17.2006
46.9424
42.0593
14.024
261.551
252.411
287.235
278.466
263.372
269.642
249.531
237.664
278.983
271.49
286.914
274.137
282.415
260.194
268.219
265.5
273.987
278.104
254.489
261.632
257.294
264.926
274.674
291.119
281.337
285.261
268.9
272.242
277.862
293.642
283.937
299.407
295.212
289.364
275.421
280.946
256.23
237.593
241.635
237.76
248.089
254.309
241.077
245.4
239.256
237.833
250.042
246.779
252.234
240.267
247.15
249.342
264.266
242.768
255.934
258.617
244.516
251.139
266.625
268.648
263.103
246.999
261.032
245.95
47.9545
0.0224238
8.89379e-05
0.0325269
0.000109302
16.4519
0.00798679
5.20118e-05
54.6926
49.7888
0.0242491
0.000101335
142.626
9.45042
6.72449e-05
66.2708
0.000550647
2.38128e-05
50.6239
167.243
160.055
156.995
42.1761
156.71
45.8137
36.5654
143.937
153.354
146.589
39.6897
29.0769
137.204
162.033
54.5529
163.693
157.274
45.6064
41.0476
152.075
34.8544
46.87
152.558
140.282
38.2958
148.869
27.1789
116.263
31.8649
134.067
11.2087
113.019
24.747
128.656
207.724
230.139
231.994
210.049
180.765
177.372
226.28
202.778
228.681
206.281
179.547
181.587
217.208
228.079
204.998
229.05
207.135
202.368
174.829
164.093
224.402
217.345
197.102
190.047
175.005
215.622
227.04
179.472
211.445
186.734
208.422
189.99
224.937
227.809
226.485
215.94
217.81
216.038
214.234
228.659
227.901
227.17
215.344
215.513
216.375
213.967
223.07
222.211
220.95
213.609
210.926
211.997
209.427
216.55
217.096
233.403
229.764
230.522
216.688
216.789
212.163
222.969
225.498
223.586
225.461
213.933
212.108
229.678
229.011
227.788
219.914
219.143
217.36
218.151
227.117
228.753
228.364
215.114
216.202
217.996
216.644
229.062
229.252
229.698
219.89
219.21
217.662
218.201
205.164
220.428
217.869
221.56
219.388
209.93
207.448
234.403
216.722
234.832
230.905
230.934
215.196
216.194
225.533
213.179
213.953
211.348
223.66
225.61
210.82
219.899
216.099
218.659
204.863
208.036
206.596
203.454
213.862
234.647
233.784
230.41
213.713
229.346
211.674
199.285
215.249
212.472
214.447
217.041
204.679
201.598
221.516
205.142
218.962
221.266
223.723
208.045
204.822
208.308
232.227
229.888
225.302
227.676
209.091
205.915
204.854
185.628
187.81
202.885
183.547
200.85
185.704
207.163
189.307
190.256
204.268
188
205.089
187.132
181.601
198.885
199.952
201.631
185.044
202.488
184.235
179.389
195.484
197.424
200.259
180.758
198.319
182.848
200.337
180.857
200.118
201.926
184.939
202.541
184.074
202.968
185.735
187.9
183.35
200.932
202.926
185.549
206.358
189.372
190.216
204.266
187.908
205.031
187.033
200.109
179.404
182.775
180.756
198.312
195.401
177.467
177.573
199.422
198.115
180.443
199.072
200.792
182.602
171.776
193.137
190.387
178.093
195.948
193.14
174.927
193.755
171.394
175.62
192.106
169.546
173.741
188.442
168.208
187.254
183.715
189.936
167.122
171.277
186.338
197.257
200.332
182.906
180.515
198.43
195.492
177.095
171.791
196.206
193.669
177.678
196.863
194.128
174.334
171.061
175.502
193.826
192.136
168.743
188.341
173.158
187.102
167.954
163.469
166.062
170.472
190.523
190.879
73.9572
97.031
89.4232
12.8107
11.5545
1.02212
4.2816
260.89
269.419
251.798
242.664
258.511
268.227
262.31
237.358
251.326
262.758
251.34
260.593
264.924
251.734
253.438
260.464
270.516
267.524
252.231
252.145
255.955
258.67
280.813
283.814
271.467
277.923
274.86
262.376
265.61
256.294
275.518
261.615
264.894
278.003
272.035
259.243
234.544
242.169
233.875
235.73
243.543
243.863
235.333
236.73
244.621
244.294
245.882
238.147
247.943
236.829
238.631
248.363
235.546
244.687
234.027
247.404
236.272
255.231
241.675
244.562
250.265
240.774
253.136
238.558
163.866
164.778
166.268
130.993
134.68
131.924
133.704
162.343
162.346
164.682
129.346
129.468
126.85
132.011
159.614
162.203
164.598
128.809
128.907
126.081
131.63
166.24
167.176
164.665
134.567
131.776
130.687
133.498
157.054
155.614
159.328
126.153
123.556
119.444
122.035
146.198
148.978
151.237
114.544
111.468
108.91
117.122
147.936
145.374
150.67
112.999
109.956
107.1
115.875
153.12
155.306
159.234
125.841
119.061
121.457
123.393
157.478
160.684
161.51
127.425
123.772
122.981
128.286
156.252
160.322
161.338
123.518
128.083
126.959
122.371
154.552
158.62
156.147
125.054
117.663
120.447
122.296
156.463
155.257
159.104
125.381
122.533
118.161
121.032
150.355
154.03
150.216
115.824
120.122
116.022
111.767
144.95
148.993
152.936
114.05
118.717
114.322
109.636
140.948
142.255
145.995
111.146
101.392
106.942
105.547
134.87
138.997
144.337
109.158
98.6543
104.489
103.281
131.741
138.21
140.494
105.121
102.587
95.5792
98.0967
124.786
131.397
135.188
95.1356
99.2511
92.2658
88.1753
118.705
126.829
124.447
87.8762
81.9511
79.4635
90.3788
108.958
121.285
117.322
84.5784
72.1326
80.5057
76.1834
99.5839
107.134
109.635
72.8149
70.3466
63.0065
60.5745
0.0262517
21.6653
18.9521
2.01768
2.24902
0.0155738
0.0192387
90.9826
53.9978
94.5056
52.3898
51.7259
91.8208
93.631
88.7711
88.8155
52.0704
47.5259
49.7732
86.1175
91.4826
0.0321228
18.3042
21.5475
2.10438
0.195803
0.0144322
1.65821
89.4216
52.6521
89.6104
48.4394
87.0448
50.4218
92.0302
86.0213
45.6121
79.5597
44.0351
81.823
83.6956
47.5385
94.3669
52.2313
91.6553
90.6025
53.6596
51.342
93.32
93.6438
103.811
99.6608
63.0842
67.0941
57.3719
53.4357
86.4278
45.8174
83.9027
80.0023
44.6828
42.5983
82.4975
0.011068
17.1949
10.4277
1.52088
0.96344
0.00669959
0.0132946
87.5259
49.4171
45.2342
83.9935
83.2674
48.7937
88.3125
49.2348
83.7459
88.107
87.0405
44.7296
82.6665
48.3508
0.00926816
0.0203106
16.3977
0.00567874
0.0120277
1.37898
0.841442
85.2033
44.5904
43.206
78.1918
80.8265
46.8007
82.559
85.3691
44.6476
82.6893
78.5177
43.3633
41.1945
81.1761
41.7665
74.793
79.1463
75.0022
35.0151
70.6888
38.3873
75.3931
40.8638
72.5499
34.6185
38.8413
70.1425
77.8502
43.0492
76.5129
80.5928
76.7341
36.6311
72.7202
39.8985
73.6571
70.7355
39.3321
32.8426
68.1646
37.2315
76.2785
72.1798
32.1035
33.0673
63.1532
68.2474
36.2257
66.9974
70.1895
30.2578
60.6627
31.2812
65.9641
64.77
34.5225
39.5532
76.5546
41.8168
85.956
88.5425
52.6133
50.2441
0.00259135
2.50171
8.0645
0.00174242
1.38603
0.510375
0.00485004
66.6575
30.0068
64.307
57.9187
26.8534
25.1051
60.2138
70.5222
32.9986
36.5923
78.2535
82.5214
47.1306
43.3199
27.6138
57.4766
61.2331
54.9148
20.1911
51.2433
22.8609
51.0014
45.7701
21.6499
15.0325
20.0397
43.6008
53.2379
48.0727
13.2522
37.31
15.5957
44.4944
17.9919
40.7646
14.2953
36.4463
42.4937
36.6586
7.80329
30.8423
10.8235
60.6269
41.8382
53.2992
28.4004
14.5288
22.6701
19.4105
12.9635
33.2995
40.3154
35.596
6.86166
10.2394
28.8185
0.0923909
0.00112018
0.417698
0.000659154
0.155132
0.0016351
1.44842
37.8929
10.3817
35.8145
7.31424
29.7772
27.8345
6.43998
7.33462
22.3279
29.837
8.93968
33.1086
25.3268
5.39545
30.4265
18.9605
4.87143
5.23787
24.9416
7.60178
23.9827
0.0651204
0.000886984
0.303201
0.000275775
0.0156873
0.161877
0.000537072
5.69204
18.9458
26.0791
4.14776
21.9457
15.3356
2.243
21.2194
20.0691
19.6518
3.79951
3.67411
3.22412
3.33406
20.3123
17.4933
18.7895
3.04534
3.41652
2.997
2.66816
19.946
20.9374
19.3572
3.75794
3.29492
3.58076
3.13619
15.7656
2.17427
15.4184
18.0758
17.6905
2.70842
2.80093
19.8417
16.8299
18.3042
2.8576
3.26955
2.85887
2.49329
15.1061
2.21758
15.6335
17.9468
17.3859
2.76526
2.62873
15.8143
15.1181
13.8364
2.59805
2.27194
2.12005
1.85091
1.68905
1.99202
14.2305
4.07853
21.7203
19.9838
3.51862
1.79102
14.6801
13.5613
15.668
16.885
2.51526
2.23558
12.8935
1.91013
14.1777
14.9989
16.3886
2.39143
2.08006
15.0085
14.2106
12.9296
2.38995
2.0799
1.91163
1.66109
12.6177
1.69554
13.1028
10.4931
10.0637
1.17221
1.23881
13.2369
1.66571
12.931
10.6204
10.3619
1.21994
1.26016
2.21156
9.05929
15.1949
11.0456
1.35192
17.7738
2.87301
12.8222
9.40868
11.6608
1.23924
1.65562
1.44439
1.0804
1.2369
12.1172
10.4356
14.0936
12.2457
1.89998
1.54616
1.09996
11.331
9.58613
13.2913
11.3588
1.73155
1.38179
1.37285
12.2742
11.2764
8.94626
9.80037
1.13379
1.00736
13.2499
2.81929
17.5928
11.692
0.898901
8.25477
1.46589
10.6244
1.45609
11.7752
0.918937
8.33185
9.32708
1.06106
11.8511
8.46455
10.7051
1.07623
1.46451
1.27199
0.934499
0.835994
9.24064
7.71613
0.762074
7.15126
5.87187
0.605201
0.947239
9.99455
8.51536
7.85458
6.60562
0.855259
0.694009
0.718172
8.62102
6.78604
8.16611
10.2303
1.20572
0.900763
7.76667
5.98444
0.616682
7.28271
9.31466
1.05761
0.776497
1.60067
7.00486
12.3841
9.51457
0.492233
1.09131
5.05265
8.08318
5.63174
7.87364
0.854684
0.592299
0.573581
0.882019
7.97357
5.44698
7.6143
0.819119
0.582538
0.86645
0.55081
7.20748
5.87051
5.1882
0.887548
0.772805
0.526923
0.606669
6.71442
5.26764
7.41263
0.794908
0.472448
0.532789
0.706413
6.18086
4.34415
0.42832
4.97307
7.00092
0.740422
0.497327
0.546786
6.93685
5.3683
4.02267
5.2933
0.537604
0.396755
6.15207
4.657
0.46569
3.40676
4.5923
0.459408
0.332482
5.828
3.31001
4.82999
0.399155
0.599041
0.484583
0.320934
0.344182
3.52399
5.04704
6.1736
4.38117
0.642705
0.43636
5.22287
3.61928
0.351447
2.86373
4.21013
0.416727
0.274319
6.79662
2.05306
0.311411
0.424443
4.4489
0.701466
3.36635
2.83973
2.56401
3.80688
0.373071
0.177331
0.244954
0.272796
0.257811
2.68724
3.92151
2.88278
1.93525
0.277407
0.183285
3.98292
2.16267
3.48215
0.339677
0.239289
0.205728
0.392856
2.33325
2.14356
3.22312
0.31289
0.14295
0.223441
0.203177
0.130227
0.218278
2.29181
1.77613
2.89923
0.279258
0.167919
376.342
403.052
340.664
335.081
328.928
347.977
355.062
379.833
366.355
342.474
363.276
373.364
349.027
349.992
356.392
388.423
371.269
380.616
361.915
355.346
362.626
369.29
385.476
391.381
382.962
363.915
357.151
363.526
370.117
381.958
376.277
396.273
397.157
389.515
369.767
376.095
307.8
322.431
302.135
309.248
329.083
335.611
314.799
335.16
313.051
317.425
341.672
324.08
319.817
347.123
326.984
321.756
341.611
315.749
335.407
341.839
321.141
358.421
329.966
353.01
353.808
331.564
347.844
325.999
294.778
307.706
281.267
252.519
253.082
266.396
234.048
250.76
283.624
274.465
291.277
287.933
295.401
269.051
277.089
301.831
291.792
299.013
272.747
271.291
279.156
280.445
297.816
286.618
303.471
307.231
301.774
283.695
288.876
312.582
310.334
305.156
285.541
291.382
290.504
286.613
257.811
237.189
241.835
236.526
251.652
258.994
241.647
253.129
270.201
271.222
264.777
247.6
265.929
247.64
252.094
235.561
252.202
259.631
239.532
259.515
240.934
271.647
271.331
251.142
266.48
245.687
266.265
247.042
0.0956947
0.161744
1.71597
0.723397
1.21878
0.113896
0.0667399
1.99289
0.84888
1.31681
0.1214
0.188527
0.123314
0.07865
1.24382
0.783661
0.670335
0.13607
0.116464
0.0724975
0.0617561
0.785896
0.072713
1.01431
0.543538
0.0944567
0.0497158
0.0379325
0.482339
0.523924
0.821025
0.0757692
0.0272767
0.0477534
0.0438584
0.577735
0.0528761
0.40237
0.207441
0.0364672
0.0272535
0.0186073
0.031527
0.360692
0.348694
0.304
0.0284284
0.0275704
0.314283
0.00161052
0.000102406
0.00135854
0.000121215
0.00259471
0.000118009
0.00212674
0.0277654
0.267684
0.307778
0.267678
0.0212273
0.0242867
0.232635
0.00127192
0.000109807
0.00153382
0.00011129
0.0019564
0.000119921
0.00255477
0.0293806
0.287599
0.323658
0.282294
0.0229962
0.250876
0.0257185
0.356045
0.0305461
0.0280885
0.31002
0.338503
0.294593
0.0267107
0.183965
0.395498
0.336173
0.0166057
0.0359816
0.0304868
0.0140375
0.244452
0.0196422
0.213164
0.01844
0.199069
0.173538
0.0161669
0.00109351
7.55693e-05
0.00067942
0.000101233
0.00174446
8.54668e-05
0.000624568
0.000584292
7.2706e-05
0.000554197
8.22418e-05
0.000996109
9.02713e-05
0.00156832
0.0174024
0.188314
0.167301
0.235548
0.0192622
0.20929
0.0215444
0.0186723
0.209434
0.202728
0.253605
0.0238159
0.0231086
0.262081
0.0180504
0.0189698
0.206348
0.0234935
0.258381
0.245375
0.0223497
0.00813568
0.0996841
0.0864069
0.0124414
0.135964
0.117949
0.0108924
0.154118
0.177587
0.0164773
0.222738
0.0178316
0.0203871
0.193419
0.0109642
0.142011
0.11544
0.0164302
0.177735
0.144606
0.0135253
0.222755
0.0177857
0.193433
0.0163561
0.177793
0.154324
0.0143396
0.204395
0.123188
0.2697
0.0243524
0.00842951
0.0184521
0.0111202
0.263467
0.0805108
0.13318
0.0145505
0.0235904
0.0119207
0.00735669
0.00112113
7.93131e-05
0.000928899
0.000540003
6.54362e-05
0.000490518
6.25783e-05
0.000877257
8.19332e-05
0.0010682
0.000457093
5.96445e-05
0.000526679
6.31663e-05
0.0133681
0.143834
0.127781
0.105218
0.00896648
0.0934702
0.00998645
0.0143585
0.159837
0.154789
0.113179
0.0110381
0.0107199
0.116787
0.0138619
0.0145811
0.15734
0.108745
0.0108629
0.114847
0.0103272
0.0145023
0.115913
0.155104
0.13513
0.00973283
0.0127273
0.100876
0.0097309
0.127967
0.101957
0.0148681
0.160696
0.128131
0.0120015
0.117169
0.135117
0.0126423
0.00828123
0.0851467
0.0983685
0.00943583
0.000398748
6.22978e-05
0.000638511
0.000351429
4.89729e-05
4.27489e-05
0.000242355
0.00747086
0.0971235
0.0771852
0.00689787
0.0703412
0.0556426
0.00560909
0.000733058
5.53123e-05
0.000449246
0.000377982
0.000263933
5.13548e-05
4.42724e-05
0.0084795
0.108285
0.0878467
0.00771494
0.0790893
0.063969
0.00638716
0.00869222
0.0895101
0.0664357
0.112366
0.0082024
0.0106894
0.0836831
0.00692923
0.0714378
0.0565346
0.00748488
0.0775722
0.0977075
0.00919766
0.145739
0.0433189
0.0981717
0.00598972
0.0131459
0.00897689
0.00414825
0.078674
0.00779689
0.0540538
0.00535471
0.0523755
0.00758824
0.0811508
0.0753957
0.00765896
0.0531356
0.00514262
0.079738
0.0502185
0.00727728
0.0823592
0.00702705
0.0714983
0.0483201
0.00568328
0.00502394
0.0558294
0.000409429
4.14719e-05
0.000228664
5.94003e-05
0.000450448
4.52187e-05
0.000284254
0.0730619
0.00641049
0.00505528
0.0429878
0.0485581
0.0648312
0.00712034
0.0058476
0.0586264
0.0388083
0.0679935
0.00471451
0.0451828
0.0066485
0.00665008
0.0677991
0.0500379
0.0491168
0.00390482
0.00502516
0.0360199
0.0423002
0.00579927
0.0583572
0.041802
0.0034116
0.030094
0.004398
0.00544484
0.0360758
0.0546543
0.0440028
0.00325618
0.0289064
0.00452191
0.00353542
0.0465725
0.0311413
0.0059092
0.0589845
0.039662
0.00426249
0.00490895
0.0480446
0.0315868
0.0377224
0.00294306
0.0246096
0.00403027
0.0268108
0.0367304
0.0618213
0.00570998
0.00179914
0.00360925
0.00268606
0.000252913
3.09516e-05
0.000155393
0.000101989
2.72687e-05
0.000164603
3.14717e-05
0.0334577
0.00275893
0.0025527
0.0157879
0.0218153
0.00351433
0.0243297
0.00271035
0.0347254
0.0230175
0.00283883
0.0247801
0.0163203
0.00212679
0.0304629
0.00374219
0.0213665
0.00233667
0.00332764
0.0183746
0.0353524
0.02796
0.00241706
0.0022636
0.0127417
0.0199192
0.0180339
0.00307709
0.00237053
0.0115535
0.0192764
0.02474
0.00201036
0.00281334
0.0148541
0.00203342
0.0105752
0.0164016
0.0107308
0.00126996
0.00692997
0.00157958
0.00183686
0.00830931
0.0139422
0.00982866
0.00118748
0.00150245
0.0058807
6.24596e-05
2.69272e-05
0.000106993
7.46336e-05
2.49886e-05
2.8618e-05
0.000128221
0.0116991
0.00148513
0.0100247
0.00119378
0.00634566
0.0054519
0.00110449
0.00614497
0.00125859
0.00794085
0.00432239
0.000890592
0.00339396
0.000961264
0.00624895
0.00246773
0.000853904
0.000876487
0.00402239
0.00104997
0.00373525
3.8561e-05
1.90868e-05
6.58602e-05
2.70764e-05
1.672e-05
4.77005e-05
1.79627e-05
0.00423313
0.000791508
0.00299828
0.000737175
0.00237078
0.00174443
0.000679183
0.00151719
0.000756864
0.00277443
0.00239548
0.000645658
0.00135478
0.000727678
0.00252997
0.00232677
0.00227351
0.000894722
0.000879048
0.000879252
0.000894667
0.00245267
0.00229158
0.00220514
0.000878883
0.000870452
0.000864223
0.00085642
0.00231888
0.00192954
0.0020939
0.000875763
0.000880212
0.000864776
0.000892896
0.00217291
0.00177485
0.00195982
0.000806462
0.000823565
0.000808938
0.00079342
0.00176785
0.000907721
0.000590866
0.00056077
0.00142452
0.00104757
0.000613085
0.00119208
0.000572011
0.00169934
0.00105521
0.000503723
0.000818047
0.000523985
0.00158101
0.00186652
0.00182887
0.00082214
0.000809348
0.000804435
0.000826957
0.00145579
0.00155911
0.00168536
0.0007546
0.000726744
0.000735235
0.000744156
0.00138198
0.00145626
0.00159823
0.000720587
0.000691069
0.000703492
0.000705804
0.00158192
0.00183386
0.00177264
0.000792473
0.000809533
0.000800635
0.000784376
0.00158676
0.00152091
0.00139636
0.000764484
0.00075426
0.000745579
0.000737652
0.00142886
0.00135045
0.00124221
0.000690998
0.000672418
0.000678741
0.000662332
8.42447e-12
1.93068e-10
3.91339e-09
7.69979e-08
1.49317e-06
6.28433e-05
0.000774746
7.88956e-13
1.87936e-11
3.78213e-10
7.22432e-09
1.34054e-07
2.36277e-06
2.45202e-05
3.12866e-14
1.38668e-12
2.87256e-11
5.32271e-10
9.30022e-09
1.54915e-07
2.35767e-06
0
5.6995e-14
1.76866e-12
3.319e-11
5.54694e-10
8.53567e-09
1.19024e-07
0
0
6.22094e-14
1.6896e-12
2.8395e-11
4.15593e-10
5.3776e-09
0.000637041
1.86122e-05
1.35618e-06
5.75483e-08
2.01104
152.504
0.324495
0.000227837
9.89745e-06
4.40513e-07
189.621
60.138
7.33224
2.95152e-05
1.95473e-06
1.51695
121.638
253.573
314.64
0.26596
93.3837
132.853
284.506
367.814
0.00284753
29.6322
175.25
221.083
294.423
6.34046e-05
1.80464e-05
1.62948e-06
3.26644e-07
1.17455e-05
0.107207
2.22706
136.653
185.06
4.12435e-08
9.43292e-07
1.63965e-08
3.94269e-07
3.37624e-09
7.77648e-08
6.05967e-10
1.45861e-08
9.12366e-11
2.09991e-09
4.37506e-08
8.92001e-07
1.2897e-05
0.216957
64.2563
93.6675
1.14508e-11
2.62848e-10
5.35737e-09
1.05137e-07
1.95201e-06
7.91809e-05
0.440502
68.5847
1.07066e-12
2.56747e-11
5.20137e-10
1.00396e-08
1.87761e-07
3.29605e-06
0.000157269
0.708679
5.03254e-14
1.9445e-12
3.95072e-11
7.35207e-10
1.28917e-08
2.1334e-07
3.15642e-06
2.28923e-05
0
8.63414e-14
2.46509e-12
4.5715e-11
7.63191e-10
1.16694e-08
1.59772e-07
1.72063e-06
0
0
9.50725e-14
2.33461e-12
3.89459e-11
5.64782e-10
7.18868e-09
7.46067e-08
186.309
153.837
190.783
57.7321
134.12
0.000351345
13.7053
1.23923e-05
4.89214e-05
5.71959e-07
2.7038e-06
243.873
286.143
219.568
271.567
270.779
295.551
206.129
242.823
332.813
407.256
362.258
352.058
305.672
343.887
388.307
340.508
302.584
257.132
335.409
300.471
240.95
291.856
297.309
378.981
367.01
343.393
258.05
272.238
354.567
306.958
293.96
299.926
281.423
289.414
271.022
273.086
296.866
278.949
279.912
287.282
288.089
270.468
269.777
428.152
417.551
437.713
416.234
406.813
387.43
397.46
408.277
397.082
418.121
388.101
397.216
377.947
370.245
170.814
107.719
166.602
162.149
186.002
145.824
115.95
138.109
223.464
176.278
117.523
182.175
204.605
170.584
171.985
109.481
167.859
191.313
171.849
168.408
109.219
265.041
243.738
262.976
252.311
231.857
252.636
232.322
243.543
261.598
262.38
252.098
231.549
251.453
232.242
384.752
372.384
395.532
366.541
354.241
376.706
345.42
368.985
355.33
375.385
358.435
338.27
340.413
353.576
341.338
256.338
282.475
286.478
325.946
218.046
249.655
392.858
359.06
383.696
365.768
351.32
375.322
342.489
366.535
350.814
374.691
357.253
330.528
335.239
350.934
202.495
261.492
235.994
261.867
218.925
191.13
128.988
282.009
271.348
280.193
261.428
251.175
261.741
251.552
271.215
279.174
279.732
261.255
251.014
251.524
260.717
375.407
370.908
367.318
337.66
348.519
340.881
345.276
351.289
362.712
359.219
330.253
326.313
323.482
333.355
348.481
324.812
320.212
331.516
325.889
308.063
310.236
336.872
318.125
318.869
322.872
323.915
307.502
306.898
241.433
277.456
254.971
176.163
189.839
212.735
202.067
134.703
254.824
277.284
282.224
314.987
141.864
188.48
267.192
164.472
119.454
176.513
160.139
205.013
213.572
252.935
200.437
209.181
248.197
200.576
192.578
239.609
151.225
85.47
81.5741
21.448
94.8622
129.866
0.562978
126.17
1.11269
40.1971
68.8209
94.1355
127.484
138.911
12.29
10.569
16.0318
43.31
28.4281
33.8282
3.76422e-06
1.91554e-07
8.77005e-09
9.04322e-07
4.69616e-08
2.1342e-09
133.63
123.288
160.954
120.797
84.5438
88.6322
111.825
128.737
97.1807
92.9088
135.943
96.1973
142.039
172.812
230.441
120.628
157.287
183.639
160.412
206.254
225.382
18.851
139.325
0.000180469
7.7821e-06
144.186
94.6373
43.9316
51.6424
57.7162
44.5202
35.1399
87.0666
53.3913
58.5695
76.1638
11.2073
73.5798
0.135385
1.83993
46.4596
0.016216
4.40736
1.74102
25.4948
46.5546
67.3087
21.0561
49.5255
47.1389
16.8034
30.2834
39.8825
18.3116
63.5787
72.4062