/*--------------------------------*- C++ -*----------------------------------*\
  =========                 |
  \\      /  F ield         | OpenFOAM: The Open Source CFD Toolbox
   \\    /   O peration     | Website:  https://openfoam.org
    \\  /    A nd           | Version:  9
     \\/     M anipulation  |
\*---------------------------------------------------------------------------*/
FoamFile
{
    format      ascii;
    class       volScalarField;
    location    "0.00245";
    object      impulse;
}
// * * * * * * * * * * * * * * * * * * * * * * * * * * * * * * * * * * * * * //

dimensions      [1 -1 -1 0 0 0 0];

internalField   nonuniform List<scalar> 
19737
(
121.371
50.6722
2.67415
18.5976
0.00127419
0.05569
153.043
101.493
161.694
182.873
190.191
113.411
144.348
166.94
17.8491
0.000227025
206.988
146.723
108.68
108.35
166.656
194.481
146.524
140.079
157.749
172.351
18.5388
43.4448
76.5376
106.216
206.099
186.212
185.271
194.661
195.592
173.953
172.95
205.962
172.763
185.135
206.94
186.161
195.518
173.876
192.685
204.254
201.923
170.858
183.366
180.882
168.152
186.915
195.064
198.85
173.531
177.603
164.583
160.125
178.057
185.308
190.575
168.626
162.785
154.713
148.2
181.478
141.603
158.494
167.864
182.597
159.704
142.945
176.889
164.606
179.572
135.866
139.263
156.406
153.415
141.908
181.71
158.735
167.991
182.697
159.81
143.077
32.4291
90.1347
0.0490933
0.0482427
32.2006
91.3583
17.0992
129.91
112.007
160.986
131.14
162.037
147.873
113.316
160.844
111.803
129.767
131.086
161.983
147.79
113.233
0.014278
0.0406763
30.0675
87.4941
13.6964
78.8151
8.60219
158.896
109.225
127.423
123.951
156.089
141.171
105.406
165.642
171.969
179.151
147.65
155.858
140.374
130.993
169.013
157.856
173.381
125.502
131.312
149.442
144.435
147.633
119.302
152.358
136.926
93.9674
131.511
100.326
274.318
237.877
205.399
230.885
274.029
237.535
187.18
224.643
263.104
258.241
275.151
259.08
263.995
247.973
247.087
275.08
262.786
258.021
259.02
263.903
247.893
246.846
221.873
250.976
235.012
238.813
251.87
235.919
222.795
241.945
224.788
213.673
225.65
242.794
231.76
214.573
238.681
250.655
251.756
235.816
221.574
222.67
234.742
225.606
241.775
242.748
231.686
213.484
230.679
214.5
202.288
272.057
246.169
174.75
225.554
182.601
262.45
231.041
220.63
226.191
183.744
210.088
163.311
205.071
237.851
192.548
269.611
260.81
256.151
258.321
253.794
244.985
242.601
266.371
251.141
246.988
255.074
250.72
239.514
235.736
242.712
253.05
241.608
258.003
246.639
231.339
226.336
233.009
248.68
235.572
219.676
232.876
230.442
217.167
237.691
222.916
239.99
211.71
228.879
226.535
209.318
238.873
242.86
229.643
227.267
209.816
213.857
223.39
213.971
217.634
234.689
223.463
202.356
219.719
206.19
232.367
241.383
247.532
235.968
229.649
220.639
214.18
199.551
215.389
220.821
229.092
234.293
218.853
213.638
197.844
204.706
209.689
221.976
226.83
215.336
210.259
187.464
218.756
201.287
219.65
188.447
206.341
202.215
201.047
205.12
218.519
219.552
188.325
206.216
202.119
196.712
185.263
199.216
203.251
216.7
200.704
214.28
209.25
216.665
223.247
185.9
200.826
193.186
207.652
216.419
198.935
192.29
197.676
179.229
186.388
204.404
189.371
179.101
193.426
197.351
193.229
211.082
207.176
178.851
169.526
184.547
188.329
182.575
202.576
197.198
168.043
175.855
164.395
147.37
155.983
172.182
190.96
157.468
163.758
147.165
118.321
138.282
130.768
109.6
13.8637
0.00108879
0.00842857
48.2183
2.08098
65.5159
3.76337
141.802
97.6709
134.701
86.3319
124.804
116.665
77.4473
141.182
131.567
150.01
121.707
87.1794
110.889
99.2206
69.1211
129.514
91.4327
130.766
70.4078
110.037
92.7751
129.252
68.8198
91.1729
130.655
70.2811
109.896
92.6677
105.578
126.773
66.106
62.1228
88.4563
123.127
84.4388
115.874
87.7596
126.131
106.956
56.3621
95.6336
67.4086
89.3079
96.0686
56.9431
118.239
72.6359
112.038
79.1532
0.0368713
0.0824165
0.0444591
14.4951
41.7859
0.113866
9.71267
0.0167192
0.800134
2.62928
0.0250954
0.485106
0.0928789
0.0578984
36.1695
37.8651
0.0722407
0.112689
45.4341
0.0954398
46.0844
45.2211
45.4438
0.0991871
0.119378
46.6679
28.2992
21.3602
0.0206585
37.456
0.0798322
0.0487932
28.9078
0.0388526
29.788
36.9073
0.0400461
29.9406
37.3377
0.0854943
32.4861
29.9064
0.0562747
0.0136435
17.0988
0.0181986
20.1691
10.046
0.00385463
0.0150551
0.0371164
21.3543
0.0109718
12.6579
18.6804
12.6638
0.0135565
0.00512276
9.04813
8.55257
0.00247089
183.1
197.346
185.592
170.339
198.81
200.753
179.118
65.8274
164.556
105.15
177.737
107.562
84.785
189.672
74.7161
79.5398
194.238
204.466
89.8977
133.229
200.532
86.4548
206.978
138.284
206.635
91.6421
184.466
124.511
112.602
184.577
68.1226
197.229
82.9875
174.588
66.5758
56.7632
195.614
81.3698
186.888
71.425
69.8058
74.555
190.026
50.3795
169.253
55.1328
173.981
51.8604
152.059
78.1902
182.828
66.5305
88.8633
166.238
37.602
157.724
54.0783
179.248
55.1773
157.844
38.5561
168.988
60.1051
43.0378
156.081
36.2401
145.563
35.1812
32.7213
145.255
63.5573
35.512
116.125
140.094
25.3275
198.21
193.391
194.223
169.226
170.272
165.854
164.83
201.655
203.61
204.575
177.148
172.982
174.071
176.011
201.409
196.316
198.811
171.124
171.125
168.376
173.937
65.8544
28.8128
29.7022
19.8747
95.9961
148.15
20.5867
203.311
201.563
200.537
172.972
177.143
174.072
175.96
201.555
203.308
204.463
177.143
172.97
174.069
175.958
205.767
208.057
206.786
179.426
179.465
178.23
180.705
205.421
207.927
206.634
179.39
179.388
178.13
180.687
24.5651
146.241
18.6187
90.7639
134.753
17.606
18.8416
193.247
191.9
195.617
167.556
160.682
164.882
163.275
193.394
198.168
197.234
169.307
165.924
164.973
170.31
198.162
193.387
194.231
169.308
170.311
165.925
164.973
193.244
191.894
189.669
167.556
164.881
163.275
160.683
189.144
185.307
189.964
160.852
154.104
159.836
155.144
185.377
189.231
190.019
160.947
154.314
160.019
155.251
190.356
183.455
186.887
157.33
161.498
157.331
153.154
189.237
185.378
184.577
160.943
160.016
154.303
155.239
187.767
180.911
185.59
152.595
158.326
155.742
149.978
187.77
180.908
183.097
155.738
158.323
152.586
149.97
178.102
179.381
182.828
152.37
142.182
148.136
146.529
179.381
178.1
174.587
152.368
148.135
146.523
142.178
179.988
172.998
173.91
147.471
148.542
140.924
139.823
175.508
171.571
169.265
145.947
143.259
135.43
138.227
175.501
171.556
177.729
145.931
135.411
138.204
143.245
180.063
173.125
179.242
147.689
141.018
140.038
148.641
180.069
173.138
173.995
147.708
148.661
141.048
140.064
175.242
165.264
170.339
136.878
143.006
136.876
130.516
6.07383
16.0882
103.079
83.5868
128.775
9.61473
11.2408
172.619
162.415
168.985
131.677
139.683
135.162
126.942
172.623
162.42
166.247
135.169
139.693
131.691
126.951
159.227
157.73
152.058
129.632
123.003
121.154
114.231
159.228
157.729
164.555
129.628
114.229
121.149
123.002
165.943
158.746
166.904
132.109
120.775
130.971
121.942
158.821
166.083
166.988
132.227
120.966
131.197
122.045
164.432
153.47
161.996
126.331
118.933
129.267
115.846
154.692
149.992
158.78
122.398
106.485
117.417
111.708
131.623
131.626
82.2236
87.3683
128.681
84.7792
134.585
133.547
89.0289
87.313
137.625
134.608
86.4452
136.548
136.198
85.9588
88.4903
137.476
87.109
134.473
89.6703
137.631
87.3276
133.553
89.0329
134.616
136.55
89.9071
139.394
90.194
91.0575
139.607
92.301
140.754
91.4099
139.744
90.7303
92.5581
139.738
138.587
140.908
91.6483
127.739
78.8545
120.232
77.1825
124.872
123.042
81.3583
129.606
78.7429
125.822
83.8161
124.849
130.637
82.9719
129.298
78.2965
82.5222
83.6377
130.506
125.684
79.3674
83.8361
129.616
130.65
125.84
78.7654
124.863
79.5678
127.746
78.8603
124.876
77.1989
123.052
120.239
74.7272
152.853
137.12
145.255
106.104
115.187
106.105
96.7263
118.971
67.6898
73.3601
120.122
68.6932
74.3926
113.739
120.284
68.8796
112.973
73.8159
119.336
74.5889
113.905
111.177
72.2699
117.544
114.752
64.1371
69.8215
108.38
75.5356
116.534
121.143
116.538
67.3352
71.4307
111.936
114.74
72.2487
117.529
111.156
64.1182
66.5509
108.364
73.7882
120.261
119.317
112.947
68.8416
113.875
68.0907
149.659
133.456
143.551
100.148
111.345
104.125
92.669
136.648
148.064
109.128
149.151
137.803
110.317
97.1934
149.21
136.69
137.841
109.266
110.398
97.2461
96.0719
143.404
134.607
131.497
107.13
103.895
93.8513
90.4941
111.056
99.9908
60.8602
62.4491
66.5407
106.435
104.66
111.047
62.4444
106.431
60.8467
104.648
99.9831
56.7549
103.862
57.6433
92.7083
52.8179
95.5755
60.0777
101.045
105.67
62.3724
54.3768
98.3543
97.417
106.593
61.6229
103.887
57.6644
101.065
92.7316
52.8466
95.6051
50.4013
139.601
122.026
127.322
94.1288
99.5634
86.021
80.4422
94.3616
57.5556
100.884
94.3581
46.17
51.8568
87.7327
127.453
125.503
136.209
95.7106
74.2784
86.0957
84.0373
10.1875
20.2024
19.4784
0.00561935
0.0267823
0.0275
0.00574233
84.0248
43.0271
47.1036
50.2667
54.3638
97.2728
92.5304
55.0224
62.2402
61.266
97.1165
105.336
106.463
98.2378
54.4136
62.4145
61.6581
105.702
106.631
98.3977
97.4536
50.2769
47.1196
54.3791
92.5409
97.2883
88.8809
84.037
121.565
115.553
107.82
87.5848
79.9298
73.7882
66.1079
3.02963
7.42094
4.52188
0.00241372
0.00967965
0.000524783
0.00176957
108.877
123.182
124.422
82.6872
65.8003
81.4891
66.9903
71.3567
38.205
32.7186
39.7459
45.38
86.8044
80.0627
38.4579
46.1529
47.0587
77.565
87.8751
88.9827
78.6586
47.1882
37.7918
46.4168
89.1249
77.7893
88.163
78.7754
44.8436
42.417
33.8775
83.3323
75.8456
86.2644
72.859
39.748
38.2112
45.3857
86.8105
80.065
78.1975
71.3601
81.4791
107.633
123.194
108.895
124.41
82.6657
67.0004
120.922
101.546
117.544
63.53
79.2149
75.7931
60.1423
26.9665
39.1757
30.7551
79.3967
63.904
74.4635
68.8685
107.333
96.7527
113.026
71.261
50.2618
65.6713
55.6918
88.3941
48.0429
61.4834
113.027
98.7712
71.1983
57.4805
54.873
20.4291
26.7113
26.712
33.4612
72.2994
63.5581
2.88941
0.0378264
3.07064
0.000451689
0.00287697
0.000460732
0.00290588
17.9613
30.5202
22.6421
58.0046
68.5534
61.6968
51.2344
28.6806
20.5528
29.4683
54.1157
66.2505
67.3152
55.1396
29.5339
19.9292
28.7987
66.4032
67.4011
55.1918
54.1959
0.173855
0.338937
2.57711
0.000410031
0.0025872
0.000250658
0.00122499
27.3255
25.1166
16.6911
64.4359
61.4361
52.2426
49.2957
100.428
75.2479
92.2853
43.9479
59.0831
51.588
36.8842
2015.01
10067.8
7893.97
1733.21
677.903
1766.99
941.746
1982.3
1765.56
646.564
383.49
343.282
630.036
412.264
10490.9
1050.48
1077.05
1052.06
1904.51
2970.53
1889.04
1002.72
2004.24
1988.14
2423.08
1769.65
132426
8214.49
5060.86
877.691
1895.9
1844.2
2442.71
130611
4211.91
9204.36
846.988
643.202
1733.54
603.682
889.457
1807.54
748.902
1827.85
545.115
656.17
628.125
1232.13
1362.32
3529.64
977.183
720.718
1705.28
586.236
1704.56
620.932
857.259
1790.61
522.296
648.975
593.073
1236.92
596.218
1185.77
3720.45
1062.37
1865.64
959.463
1060.5
2961.68
1654.99
1964.5
841.288
8085.44
2300.99
1767.54
128813
5326.39
8084.83
643.183
525.131
667.328
1315.69
1354.17
4188.92
989.274
425.611
266.678
269.045
682.031
311.921
314.693
541.816
1052.58
1032.36
337.752
218.625
1586.99
337.491
797.632
650.373
1287.68
592.934
492.882
878.157
1253.48
3450.22
256.462
345.82
235.74
479.914
273.11
651.89
300.661
2026.55
1824.39
763.852
1822.96
128562
10489.7
5240.65
716.592
307.703
326.671
1062.84
216.683
1608.1
328.441
11344.8
7373.9
5374.55
23767
4371.81
17343.2
16682.9
12839.1
6574.39
7978.83
36445.9
14246.8
11362.3
4169.29
4227.47
1578.86
3091.92
2608.22
2630.66
2057.48
5529.13
873.986
636.664
562.899
1012.87
543.957
956.311
1015.68
8192.3
5621.27
5812.79
22917.5
5097.57
27564.6
18154
617.88
935.162
566.259
1239.9
497.67
1213.52
653.662
954.087
1343.57
1078.59
865.097
1234.04
853.305
910.02
947.313
844.437
1307.73
1052.63
847.81
1219.28
888.891
1182.52
2978.96
1051.01
2961.04
1103.08
1097.7
2912.63
903.634
1528.59
1485.43
936.686
1554.82
942.534
906.087
4488.69
3371.18
2563.6
1676.34
3023.74
2430.26
6452.43
5095.57
3791.68
3766.1
1886.24
3136.29
10744.9
3198.59
4559.1
3434.19
2724.9
1668.51
2851.82
2359.04
5455.29
18540.7
104518
76992.1
80099.2
78946.6
43298.7
29329.3
12315.6
6465.5
7914.62
34240.7
15500
4298.31
12967.6
8474.95
3522.95
3408.47
14518.6
3042.73
11854.8
12465.5
3221.42
1299.8
1348.61
1282.19
1907.92
1908.81
1681.61
4252.98
2528.54
3155.63
1615.26
2427.25
2893.34
6521.42
4201.64
3003.05
2410.57
1574.76
2401.76
6476.45
2874.92
4890.11
3732.73
3750.47
1881.73
11147.8
3190.71
3207.29
16384.3
72188
48888
93030.7
81511.6
49191.2
49780.7
9604.96
4157.83
4044.8
23858.8
2937.87
9186.91
8771.25
12458.3
6042.78
7868.9
27238.4
15066.4
4168.69
13432.4
3154.28
1251.17
1235.9
1315.7
1614.82
1831.21
1821.57
945.378
614.165
609.316
1014.11
560.688
947.572
962.88
1076.37
869.012
1973.47
1189.41
1634.08
781.538
1162.03
1094.71
896.501
2195.11
1246.13
1677.19
1174.67
756.035
1358.97
1866.28
2830.6
2904.51
2510.49
1550.33
1679.95
867.236
587.164
552.7
1007.08
519.301
950.307
861.375
1016.48
1188.45
825.519
2003.22
704.79
1543.25
1043.11
1021.3
1131.17
843.268
1884.4
1101.01
744.407
1534.68
1243.05
1676.45
2552.65
2566.17
1571.78
2287.07
1533.29
880.134
836.247
998.23
1211.77
822.267
1198.94
896.668
878.227
998.09
1212.12
840.132
894.77
816.371
1198.22
1138.47
2951.34
1041.93
2936.36
1094.47
1092.06
2886.83
876.332
1598.78
1596.59
971.361
878.195
1306.9
870.803
2891.7
1195.9
1288.65
1194.99
1770.89
1771.07
1638.22
10225.4
5684
7029.36
29847.5
3860.72
13231.3
15297.1
4505.48
1744.92
3371.36
3370.75
2909.22
2908.96
9936.12
4227.19
1578.56
2609.44
3092.19
5528.09
2631.4
2057.7
20377
100357
97061.5
100357
28410.4
28410.6
68376.9
6808.73
3391.24
3394.34
12994.9
12782.3
3062.06
12783.9
10225.2
7028.79
5684.02
29847.6
13231.1
3860.43
15297.2
964.647
611.088
615.055
1086.37
562.71
974.295
1022.3
1112.12
891.875
2117.85
1230.68
1717.02
783.929
1192.84
1098.76
881.224
2179.11
1248.6
1700.11
1159.62
748.705
1409.65
1852.37
2851.72
2911.34
2608.16
1715.42
1709.02
659.87
1280.5
580.775
1038.99
1186.37
538.84
640.909
657.297
561.588
1226.03
1010.21
1194.98
649.992
538.615
444.878
238.824
399.728
234.125
407.568
430.674
240.713
728.113
1533.29
1531.34
761.851
1409
732.392
728.708
974.437
774.377
1104.38
1813.55
696.739
1138.27
1721.26
996.992
837.276
1090.81
1892.76
1236.14
733.131
1716.1
1429.38
1974.94
3176.92
3210.11
1463.19
1607.5
2194.31
6180.78
4214.38
1854.34
4214.93
2642.45
7044.31
2642.35
5082.13
3606.24
1648.91
2891.64
2536.7
2137.88
5493.31
2688.47
1170.52
1116.38
1116.52
1853.05
1853.64
1660.83
5081.77
1649.22
3605.72
2886.65
5494.77
2537.22
2136.45
33361.9
103151
103151
96330.4
26120.1
36578.2
26119.2
8191.78
5621.17
5811.92
22917.5
18152.8
27564.6
5097.03
6687.15
3454.74
3455.81
13289.6
13420.9
3442.53
13419.6
620.942
932.356
1236.85
559.534
670.969
501.197
1214.1
428.961
232.433
407.541
233.084
433.005
418.009
230.922
751.465
1614.82
1617.79
791.235
740.392
1349.05
739.987
207.195
1628.99
1732.37
579.282
1608.22
220.363
1798.69
1188.42
390.534
737.355
391.777
387.763
266.791
386.473
293.916
328.48
188.3
246.036
377.701
226.561
373.577
312.613
862.494
1772.06
728.861
588.076
1706.39
621.864
1707.79
944.197
3720.01
1236.37
516.9
594.842
646.893
594.843
1019.06
1130.69
1883.62
843.86
745.723
1101.61
1534.54
1241.54
2566.16
2551.93
1675.94
1573.28
1532.73
2286.76
1012.59
1186.54
2001.87
823.43
700.033
1042.63
1542.01
870.961
1008.36
597.588
554.157
515.457
938.411
859.889
190.759
162.19
143.352
272.58
188.103
238.64
229.078
608.023
1697.44
530.126
530.704
1678.96
484.346
1698.49
1620.99
445.32
441.479
494.622
1649.68
507.146
1660.06
1627.26
440.431
440.742
473.613
1655.8
454.437
1664.42
172.359
157.843
179.894
1592.82
1445.26
1571.51
184.224
1447.81
98.3908
184.108
125.113
114.511
147.616
160.651
112.787
185.255
174.971
143.506
128.858
153.705
110.55
158.135
101.915
134.013
155.096
144.217
115.788
112.053
104.346
121.646
172.714
122.204
119.204
159.092
108.326
103.111
169.65
119.24
137.357
130.254
116.857
107.357
104.262
119.233
1584.35
418.627
419.596
421.339
1536.62
417.512
1548.39
153.923
156.449
160.703
134.785
157.821
139.338
154.149
109.932
96.9665
93.8362
106.209
98.0119
92.9168
110.342
165.254
166.784
95.9787
152.321
98.3678
153.583
92.8436
150.545
146.215
157.463
136.143
160.737
156.326
138.256
1593.88
428.651
442.297
435.057
1554.55
455.498
1554.83
202.484
116.951
102.875
162.002
107.599
97.2619
179.281
461.03
1451.16
467.933
438.198
1499.28
433.253
1508.27
107.728
123.277
98.3946
109.917
103.685
96.2616
116.674
182.671
144.629
140.923
131.165
166.351
135.198
163.023
485.627
1426.09
512.646
454.047
1502.32
478.875
1509.77
190.59
143.613
152.276
133.932
172.252
165.294
139.708
162.513
165.921
699.667
209.859
229.704
205.098
3448.76
647.966
374.828
338.888
517.891
340.633
255.595
382.613
247.847
304.548
195.002
224.809
392.01
203.047
320.125
362.922
1287.86
1290.28
877.058
491.857
633.479
593.692
649.297
479.165
270.763
295.316
344.959
250.845
409.309
233.364
1431.01
3177.03
3214.35
1975.13
1463.52
1612.13
2195.77
974.875
1814.75
1104.39
776.255
1138.5
698.675
1722.26
994.696
1890.64
1090.23
841.147
731.996
1233
1714
873.867
1011.29
562.126
604.508
955.512
545.17
1016.02
142.955
175.424
151.798
239.387
185.028
238.921
188.721
273.442
342.092
239.058
273.176
188.37
209.221
222.122
192.488
171.092
177.144
256.804
209.088
279.989
197.446
177.727
162.169
167.61
218.071
173.116
185.757
186.988
203.188
184.325
251.506
239.578
258.704
216.327
258.966
185.151
247.276
259.4
247.359
203.329
185.244
246.021
201.996
256.467
194.526
183.706
238.889
175.014
190.746
174.786
243.47
220.661
151.758
235.247
170.622
256.398
259.242
256.775
242.002
242.457
239.02
238.491
233.737
146.084
177.231
241.025
177.287
216.232
173.002
259.346
256.646
256.894
242.289
242.586
239.124
238.693
175.659
205.888
231.995
214.598
130.282
166.383
171.211
257.84
255.724
254.462
241.373
240.102
237.602
236.092
254.389
250.153
252.659
235.954
238.339
234.066
231.397
252.471
247.857
252.946
234.474
228.247
233.888
228.9
252.622
247.928
253.036
234.562
228.343
234.031
228.971
247.849
246.906
232.871
242.981
229.081
228.048
224.039
251.455
244.272
249.897
226.978
232.784
231.094
225.141
95.7508
204.726
141.052
196.724
228.24
123.763
161.679
241.924
244.957
247.771
228.84
219.634
225.949
222.71
238.406
233.186
238.405
219.361
224.584
219.359
213.974
223.626
203.919
224.222
219.925
198.022
219.277
198.787
203.999
223.834
224.326
220.018
198.152
198.867
219.442
222.699
200.084
221.088
196.76
218.2
216.457
194.777
241.466
231.015
237.359
215.933
222.395
218.216
211.605
240.995
241.676
234.485
221.664
222.372
214.928
214.154
241.725
233.724
234.514
221.712
222.424
214.959
214.157
237.689
232.197
230.198
220.261
218.301
212.638
210.584
197.628
216.258
218.983
214.183
188.95
211.273
192.202
214.718
192.034
207.874
186.006
214.031
192.847
208.62
214.799
186.072
207.968
192.153
192.924
214.161
208.687
235.174
224.24
227.542
212.496
215.726
207.863
204.467
206.545
190.699
212.821
210.963
181.516
204.569
188.617
212.877
186.243
208.83
184.996
207.706
203.467
180.308
227.281
226.168
232.638
213.382
200.873
207.83
206.614
208.533
182.48
178.634
198.722
205.438
201.984
185.902
223.891
220.364
208.647
215.863
204.158
200.453
195.754
225.511
217.182
226.327
206.506
196.093
205.668
196.983
217.16
225.463
226.331
206.51
196.002
205.624
196.959
223.885
212.393
221.783
194.334
204.038
201.866
192.024
180.956
198.508
204.048
198.507
168.312
192.776
174.784
178.33
194.808
201.69
197.276
165.385
190.202
173.403
200.788
178.144
201.59
193.574
168.108
192.728
169.084
178.193
200.839
201.637
193.601
168.122
192.736
169.109
209.476
215.569
219.003
198.99
185.185
195.423
188.97
199.34
173.329
197.253
166.382
191.157
188.944
163.873
213.189
218.885
210.669
192.966
198.968
190.296
183.939
170.25
191.076
194.51
186.033
156.342
182.4
160.543
201.662
211.543
206.847
180.668
191.199
186.219
175.317
192.131
160.73
178.562
159.171
186.167
184.819
167.591
174.07
173.093
144.949
184.485
157.503
183.571
158.553
144.864
146.059
174.043
184.486
157.471
183.53
158.555
186.958
156.018
182.11
151.185
178.036
172.869
144.921
142.771
155.58
181.857
179.498
139.686
168.665
152.825
190.982
195.168
201.425
180.392
161.619
173.582
169.019
176.377
161.061
144.476
135.553
172.489
165.288
149.148
169.775
149.217
176.433
166.77
128.255
159.56
137.351
276.542
306.496
275.322
313.213
271.914
306.884
321.145
273.663
315.459
317.789
319.401
303.226
304.807
306.47
305.301
307.228
318.103
319.88
316.841
319.737
305.579
306.755
320.636
320.089
321.11
306.937
305.983
306.348
306.148
320.376
305.177
319.593
320.466
320.804
306.884
305.843
275.941
289.347
290.432
291.301
275.696
290.51
276.127
291.733
276.143
291.984
276.171
290.969
291.514
276.075
291.283
275.229
273.627
290.029
290.18
290.762
275.455
274.682
291.11
288.889
291.176
272.891
289.625
275.109
338.512
360.502
269.094
301.472
307.301
319.361
363.896
364.637
356.457
356.328
325.725
301.061
265.453
314.961
272.642
307.141
276.301
271.87
306.284
352.606
324.085
298.95
342.736
353.376
288.342
313.785
356.398
373.456
373.22
373.526
373.858
354.307
354.035
355.271
372.95
371.598
371.979
373.711
354.191
352.945
367.77
362.271
368.207
363.054
349.055
350.293
346.753
292.715
316.764
267.074
335.989
350.184
283.671
308.941
307.338
318.634
319.448
318.611
307.389
318.578
306.699
261.119
302.489
311.611
290.817
255.22
300.98
270.027
357.251
352.65
341.347
357.642
345.223
342.354
337.532
317.229
304.949
318.168
306.772
317.203
304.932
301.784
326.145
336.002
340.871
326.361
340.872
336.26
319.83
365.52
369.352
370.982
349.581
341.151
348.173
342.617
341.946
349.113
370.486
365.493
371.002
349.694
342.755
326.349
340.851
340.207
336.166
318.959
335.322
319.791
319.344
303.665
317.911
315.192
317.579
304.56
300.966
365.825
355.707
360.973
338.296
345.49
341.826
334.479
338.33
321.708
335.702
317.097
333.263
330.428
314.431
346.774
347.853
337.233
342.837
332.827
332.462
327.242
274.716
276.66
292.286
275.781
292.033
292.415
291.293
311.595
311.629
315.075
301.633
292.933
297.725
297.295
349.482
349.097
355.119
336.955
323.639
331.514
329.363
318.203
327.914
332.124
326.473
306.267
321.787
310.759
315.113
301.659
311.667
307.322
297.735
297.32
292.946
342.858
323.133
332.442
337.719
328.107
321.825
316.276
269.468
275.047
272.635
289.399
291.573
289.389
286.177
320.453
310.926
329.009
329.585
302.25
311.569
321.217
329.462
302.165
319.798
310.523
328.329
311.507
321.074
267.893
270.316
273.697
290.433
287.408
288.742
284.898
343.082
329.373
336.997
317.791
325.9
320.172
311.85
323.271
303.776
318.283
301.427
316.73
311.431
296.277
317.396
308.493
326.094
323.068
296.241
314.227
305.785
307.329
297.288
302.497
288.124
293.196
288.128
282.846
306.935
296.032
302.119
285.822
292.011
287.423
281.165
265.455
285.892
282.098
264.67
281.489
277.341
260.712
260.71
269.085
264.662
285.876
277.335
282.092
281.473
318.919
292.641
305.114
297.737
314.037
310.019
302.119
307.554
298.378
313.038
305.942
285.082
300.222
290.852
325.082
322.966
331.018
314.374
299.765
308.491
305.857
288.355
290.698
281.657
280.964
269.955
275.458
266.662
265.76
280.67
289.876
284.378
285.376
277.124
283.088
288.945
286.408
281.739
277.447
284.222
293.413
287.924
290.262
273.799
267.677
270.307
278.526
278.543
282.225
275.273
279.652
277.708
274.865
269.859
271.288
277.737
274.901
273.424
267.869
273.48
265.545
276.207
270.895
266.641
270.939
272.093
283.771
277.443
269.893
280.077
268.562
280.679
270.5
270.725
268.645
277.109
276.502
268.268
266.855
273.524
271.592
272.537
265.263
270.201
266.379
176.675
452.39
506.781
294.72
459.545
323.385
500.958
170.358
462.338
1094.79
332.377
352.327
441.938
310.183
496.467
188.58
453.88
464.945
365.938
404.399
351.437
622.436
519.513
347.715
660.113
936.235
522.15
403.106
210.209
165.683
200.787
281.041
256.228
284.628
299.197
386.611
387.356
389.655
394.943
390.525
336.437
451.379
267.164
290.444
203.57
165.37
199.939
253.472
282.738
253.762
288.749
248.558
319.821
365.01
328.861
356.506
359.906
289.822
249.866
289.166
248.566
319.926
356.862
382.077
397.568
389.55
396.67
364.872
360.43
362.556
301.292
308.514
217.837
230.019
246.497
336.16
348.082
438.849
220.616
325.766
261.462
386.342
377.283
472.393
605.531
622.484
957.098
1052.66
616.719
626.289
920.318
365.775
294.07
255.411
306.617
271.899
347.687
373.476
274.682
304.661
276.726
318.637
275.797
306.835
276.209
415.645
500.662
392.799
391.549
476.741
404.684
473.564
473.388
402.416
396.674
498.985
389.48
390.338
473.528
329.367
365.975
327.491
362.336
392.162
413.136
414.65
327.837
373.487
363.438
399.468
392.299
413.211
417.901
298.541
339.994
291.499
369.112
422.612
396.289
388.406
328.096
492.639
438.18
472.931
434.026
511.115
543.535
403.875
463.056
430.045
461.341
411.663
462.92
425.559
460.607
407.528
428.134
404.17
463.086
463.915
426.405
329.298
338.068
303.565
367.417
378.397
376.163
380.325
336.244
371.965
346.891
376.822
397.104
411.15
401.126
466.973
424.597
407.631
417.743
487.015
446.158
456.171
574.133
539.492
453.904
537.378
484.19
540.698
579.486
997.717
636.735
628.034
628.956
826.086
630.568
875.334
374.337
374.437
332.736
387.496
365.265
352.86
360.245
451.135
411.389
427.252
412.572
435.112
440.327
419.628
834.119
614.646
733.929
621.954
713.139
612.051
805.676
440.182
455.301
439.977
433.542
433.099
436.046
431.994
387.677
395.374
389.224
410.027
393.52
411.636
393.682
386.572
387.329
388.592
409.947
391.388
408.929
393.527
440.923
453.767
439.125
432.868
432.782
432.863
434.982
358.947
369.27
375.021
379.65
389.756
387.526
376.978
305.389
312.263
314.842
300.792
303.017
303.682
304.998
419.213
473.56
447.909
434.18
452.188
415.291
443.322
382.299
374.663
383.565
385.941
402.562
391.611
378.196
317.971
290.493
284.439
306.712
300.76
285.084
306.528
275.388
297.855
295.377
295.383
305.05
294.641
299.338
299.846
296.692
309.463
306.261
298.507
295.919
300.406
302.434
406.085
417.37
414.28
393.373
397.603
424.963
405.769
621.019
687.953
733.743
601.428
618.298
607.844
771.217
528.385
505.431
501.415
558.621
578.074
568.977
580.215
433.418
425.78
419.725
424.103
423.31
408.98
411.261
306.132
313.827
316.809
318.119
307.014
316.853
306.162
313.232
317.099
312.155
302.511
305.375
303.001
304.869
319.464
304.894
315.529
317.87
313.228
303.336
305.413
366.145
367.194
373.778
367.225
372.102
373.291
370.699
415.088
409.703
388.618
390.845
412.41
412.531
393.115
414.765
388.352
392.248
410.196
413.989
411.789
393.024
409.269
389.662
402.762
394.414
387.835
383.981
398.462
367.131
367.717
374.407
380.208
364.908
372.759
370.608
319.846
305.678
316.959
319.978
318.211
306.566
307.287
598.582
330.639
547.675
750.795
1121.16
623.14
501.754
323.634
203.962
190.29
313.901
405.485
305.057
424.82
282.224
415.091
198.414
293.547
189.643
312.871
403.885
280.199
1107.45
1124.51
589.964
616.441
972.576
622.912
987.75
596.043
618.935
981.761
1131.51
590.414
616.465
992.883
495.046
442.327
579.617
533.06
513.585
565.595
414.632
567.031
534.668
425.407
492.541
529.008
562.532
410.548
624.284
849.856
626.217
755.924
629.526
620.516
860.474
853.677
616.561
748.675
623.215
756.394
617.971
863.305
403.111
385.746
405.018
394.563
375.811
394.263
378.805
306.735
318.651
307.414
319.534
318.712
307.188
307.389
365.386
358.428
365.147
360.652
368.618
365.631
356.313
272.712
274.218
287.236
284.201
272.546
274.099
287.004
272.981
274.429
273.911
275.147
286.772
288.981
287.649
275.584
288.148
289.802
276.224
275.497
289.544
290.841
371.184
369.591
369.121
375.833
374.789
369.892
368.359
382.188
379.072
377.313
381.551
378.71
372.753
372.159
384.131
368.213
375.727
364.429
376.108
384.638
371.263
276.205
290.707
276.809
276.719
291.728
292.339
291.744
275.159
289.238
275.526
275.075
275.501
288.944
290.241
275.981
275.757
276.161
291.346
290.497
289.449
290.599
276.113
291.569
291.033
276.163
276.562
291.771
292.018
362.83
355.888
364.724
362.646
346.975
359.041
351.779
367.467
358.132
369.672
364.079
345.708
360.21
352.022
392.325
339.013
199.308
221.939
114.534
146.684
160.872
116.237
365.804
321.797
306.054
226.165
196.238
229.579
204.02
398.674
321.451
366.8
226.14
205.293
232.153
209.031
1511.72
163.884
174.4
193.117
257.513
213.486
282.881
207.038
183.359
223.624
191.752
274.627
204.634
288.974
208.423
187.433
122.876
108.602
121.237
138.819
149.192
155.447
150.584
144.887
105.068
134.98
112.253
122.314
155.861
147.692
153.012
1256.04
142.111
105.849
445.634
513.545
202.075
106.461
243.081
126.465
100.13
203.923
129.501
248.08
181.962
149.048
184.726
178.263
164.772
164.802
176.984
157.192
135.319
154.68
142.347
169.749
163.134
171.304
93.5212
98.2209
110.778
112.965
94.3278
110.074
97.3196
93.4922
98.7507
154.375
165.937
96.5005
167.296
99.0116
102.714
161.749
161.514
170.229
102.917
103.649
173.673
111.775
97.5057
113.225
113.087
98.0097
98.3261
116.087
1671.32
1660.72
331.761
397.782
1544.2
115.094
102.407
1551.98
373.653
381.253
313.36
247.072
189.636
228.112
219.726
353.937
351.148
399.186
266.543
215.442
236.981
246.891
527.04
1678.96
510.59
462.153
1631.7
1622.37
457.681
495.294
1651.16
507.7
446.069
1623.61
442.457
1611.33
199.569
146.78
165.932
120.881
156.597
169.233
190.943
184.952
129.453
110.946
154.423
175.937
143.634
158.717
431.493
1586.94
431.795
1538.36
426.481
1578.7
433.262
419.416
1587.84
1540.31
422.18
420.583
418.395
1575.28
1502.7
438.976
434.142
461.85
1454.2
468.591
1450.71
131.252
136.899
172.581
144.996
182.638
140.916
186.703
1498.41
1497.1
438.755
472.901
1437.19
463.807
1442.51
198.318
149.441
154.298
141.954
185.43
146.737
193.063
192.895
111.239
247.707
137.824
197.439
110.784
239.446
252.773
146.135
115.862
195.086
138.995
113.27
240.541
126.561
104.837
152.842
125.593
124.925
106.175
152.76
128.14
107.88
156.146
125.768
125.501
106.445
152.007
1351.56
558.765
1239.23
503.074
1254.78
549.454
1362.76
165.259
209.548
198.407
243.688
162.835
211.047
198.709
219.371
169.461
202.511
165.44
243.739
213.188
199.044
502.765
1369.42
556.816
1263.04
510.551
549.599
1371.31
394.732
1512.88
342.491
165.491
292.124
1483.66
204.842
179.38
1233.49
157.285
1062.99
304.521
131.707
205.096
110.217
243.744
134.799
274.766
305.327
162.336
107.945
97.6928
103.183
180.127
202.438
117.212
117.025
104.054
96.7875
98.8531
114.772
108.184
123.642
318.107
171.577
182.554
273.964
328.33
237.416
327.645
1504.79
479.149
454.564
1448.02
486.01