/*--------------------------------*- C++ -*----------------------------------*\
  =========                 |
  \\      /  F ield         | OpenFOAM: The Open Source CFD Toolbox
   \\    /   O peration     | Website:  https://openfoam.org
    \\  /    A nd           | Version:  9
     \\/     M anipulation  |
\*---------------------------------------------------------------------------*/
FoamFile
{
    format      ascii;
    class       volScalarField;
    location    "0.00245";
    object      rho;
}
// * * * * * * * * * * * * * * * * * * * * * * * * * * * * * * * * * * * * * //

dimensions      [1 -3 0 0 0 0 0];

internalField   nonuniform List<scalar> 
19737
(
2.08466
2.52949
1.54536
2.29153
1.22518
1.23234
1.61491
2.32426
1.50147
1.24972
1.16937
2.18401
1.75459
1.45052
2.20705
1.22501
1.01604
1.72828
2.25693
2.25956
1.45229
1.13761
1.72987
1.8036
1.58307
1.38737
2.32484
2.52467
2.48388
2.26549
1.01922
1.22545
1.23036
1.13701
1.13283
1.37087
1.37708
1.01952
1.37815
1.23091
1.01602
1.2255
1.1329
1.37109
1.14856
1.02812
1.04532
1.39382
1.24332
1.26648
1.42214
1.20229
1.11403
1.07308
1.35438
1.3027
1.46556
1.52643
1.31164
1.23598
1.16861
1.42167
1.50437
1.60507
1.7024
1.27972
1.79444
1.55978
1.44426
1.27351
1.5507
1.78271
1.31896
1.46998
1.29359
1.86806
1.82135
1.57992
1.61566
1.79172
1.27863
1.55801
1.4438
1.27327
1.55026
1.78196
2.44472
2.36083
1.23163
1.23152
2.44395
2.35859
2.18912
1.97841
2.20317
1.52311
1.96909
1.51577
1.71897
2.19616
1.52395
2.20472
1.97941
1.96928
1.51591
1.71935
2.19652
1.22701
1.23053
2.43055
2.37448
2.10279
2.42604
1.91205
1.54275
2.2265
2.00472
2.04835
1.57675
1.79796
2.26362
1.47717
1.40881
1.31576
1.72346
1.6037
1.82225
1.96612
1.41349
1.54913
1.35825
2.02606
1.9366
1.66963
1.74499
1.70293
2.1094
1.62961
1.86227
2.36972
1.94803
2.31348
0.599641
0.834242
1.0451
0.820647
0.597309
0.831599
1.21799
0.857975
0.664263
0.652736
0.598096
0.651166
0.662389
0.722999
0.724984
0.597214
0.661605
0.651606
0.650791
0.661431
0.722566
0.723682
0.920145
0.741511
0.813054
0.831301
0.739167
0.810527
0.916911
0.737324
0.857936
0.956254
0.855826
0.735686
0.818443
0.953384
0.830384
0.738739
0.738192
0.810074
0.919035
0.916501
0.811745
0.855757
0.736901
0.735512
0.818231
0.956375
0.820139
0.953331
1.15277
0.599642
0.751354
1.34413
0.900688
1.25462
0.637798
0.796759
0.877388
0.889505
1.28498
1.01421
1.49359
1.05556
0.775981
1.16223
0.606193
0.664255
0.654934
0.671857
0.663358
0.727801
0.737849
0.618232
0.708683
0.700759
0.685885
0.677838
0.755076
0.782052
0.733429
0.703389
0.784306
0.666087
0.741452
0.820003
0.868845
0.847766
0.742126
0.836252
0.9261
0.817085
0.829299
0.941139
0.751831
0.864116
0.741383
0.964249
0.825833
0.838446
0.980334
0.795112
0.768131
0.868277
0.850005
1.00414
0.966203
0.881942
0.932729
0.899353
0.769413
0.859494
1.0455
0.891719
1.00655
0.828035
0.803774
0.749346
0.836778
0.898672
0.928076
0.997615
1.11955
1.00356
0.945973
0.883035
0.833459
0.926144
0.982201
1.09768
1.03596
0.978449
0.884429
0.835141
0.936132
0.992292
1.21708
0.922181
1.07485
0.919276
1.21218
1.04131
1.07109
1.07526
1.04503
0.921774
0.919077
1.21237
1.0412
1.07112
1.10484
1.23083
1.08533
1.05457
0.929133
1.07338
0.9445
1.07254
1.01373
0.943176
1.28255
1.12771
1.1952
1.04941
0.944153
1.10459
1.1844
1.13805
1.32747
1.23868
1.05963
1.18126
1.29168
1.13603
1.1037
1.1481
0.969794
1.00774
1.31292
1.41164
1.24054
1.20657
1.27793
1.05893
1.12253
1.45848
1.36163
1.49799
1.70621
1.59081
1.39834
1.19783
1.57115
1.48449
1.69926
2.13326
1.84127
1.95879
2.25414
2.17131
1.22515
1.2262
2.49996
1.46689
2.48082
1.61669
1.79665
2.34702
1.91087
2.42626
2.05036
2.16624
2.4756
1.80128
1.93199
1.67539
2.09438
2.47094
2.24511
2.37285
2.49126
1.98532
2.38473
1.97521
2.49199
2.24911
2.38188
1.98767
2.49228
2.38613
1.97585
2.49219
2.24981
2.38223
2.28409
2.01628
2.49942
2.51146
2.40059
2.06499
2.42602
2.18482
2.42311
2.04185
2.28547
2.53366
2.39541
2.51244
2.42959
2.37529
2.52336
2.13287
2.48849
2.21531
2.45762
1.22927
1.23439
1.23011
2.07028
2.40858
1.2381
1.90779
1.22734
1.31557
1.49114
1.22794
1.28098
1.23553
1.2316
2.37564
2.39029
1.23323
1.23786
2.42687
1.23588
2.43899
2.42635
2.42684
1.23627
1.23868
2.43633
2.30657
2.21807
1.22743
2.38397
1.23406
1.23059
2.31238
1.2295
2.32617
2.38216
1.22962
2.32735
2.38456
1.23471
2.34664
2.32723
1.23144
1.22661
2.13482
1.22715
2.20136
1.92185
1.22546
1.22678
1.22929
2.21798
1.2263
2.01548
2.16946
2.01569
1.22661
1.2256
1.87958
1.85851
1.22529
1.31182
1.26403
1.29102
1.4189
1.24672
1.2663
1.35446
2.48334
1.48451
2.23944
1.35529
2.22276
2.40113
1.26737
2.40348
2.40854
1.26073
1.25907
2.40801
2.14802
1.25069
2.40044
1.26964
2.159
1.26021
2.41674
1.31346
2.16599
2.21764
1.30713
2.41004
1.25057
2.40237
1.37645
2.40757
2.4094
1.24925
2.40263
1.28205
2.40464
2.40481
2.41184
1.27808
2.40645
1.43349
2.41615
1.40432
2.40881
1.6524
2.37329
1.30902
2.40628
2.32116
1.46452
2.38091
1.59263
2.41299
1.34897
2.41597
1.58937
2.38729
1.43257
2.40986
2.39706
1.60385
2.37384
1.74072
2.37012
2.35689
1.75416
2.4204
2.40697
2.14817
1.82366
2.29336
1.25873
1.26897
1.2637
1.6574
1.64967
1.66636
1.67422
1.26085
1.26912
1.26344
1.6434
1.65202
1.64433
1.6511
1.2496
1.24685
1.24687
1.63365
1.63348
1.63891
1.63149
2.43717
2.35547
2.36483
2.21517
2.29505
1.72283
2.22936
1.25481
1.25606
1.25095
1.63454
1.63756
1.63858
1.63351
1.2557
1.25469
1.25888
1.63726
1.63422
1.63809
1.63336
1.26937
1.26363
1.26372
1.64531
1.65621
1.65253
1.64924
1.25837
1.2604
1.26013
1.6393
1.63943
1.63547
1.64339
2.31316
1.74069
2.19151
2.35931
1.89735
2.20468
2.1988
1.25296
1.26021
1.24953
1.64458
1.68349
1.65535
1.66856
1.25903
1.25455
1.25094
1.64205
1.66301
1.6627
1.64468
1.25408
1.2586
1.26019
1.64155
1.64403
1.66221
1.66206
1.2528
1.25984
1.26709
1.6442
1.65514
1.66803
1.68312
1.28511
1.30838
1.28002
1.69983
1.75662
1.70769
1.74889
1.3063
1.27739
1.27749
1.69653
1.74761
1.69769
1.74586
1.26348
1.30428
1.28191
1.70907
1.67691
1.70888
1.74539
1.27786
1.30693
1.30761
1.69745
1.69843
1.7484
1.74684
1.28052
1.32431
1.29069
1.75668
1.70544
1.72316
1.77669
1.28092
1.32465
1.3122
1.72365
1.70605
1.7573
1.7772
1.3456
1.33499
1.30877
1.75251
1.85476
1.79357
1.80942
1.33513
1.34589
1.37668
1.75285
1.79375
1.80983
1.85504
1.34914
1.41097
1.40537
1.82087
1.8134
1.89421
1.90125
1.37039
1.41463
1.4333
1.82331
1.84545
1.92923
1.90604
1.37068
1.41486
1.35562
1.82387
1.9295
1.90644
1.84589
1.34793
1.40668
1.34944
1.81372
1.89273
1.89532
1.81164
1.34727
1.40626
1.40368
1.81296
1.81064
1.89183
1.89468
1.37088
1.47692
1.41903
1.91233
1.84681
1.91247
1.97875
1.77819
2.17297
2.27846
2.40903
1.98269
1.95933
1.99532
1.39586
1.50976
1.43284
1.96507
1.8815
1.92946
2.01302
1.39558
1.50951
1.46432
1.92917
1.88113
1.96484
2.0128
1.55329
1.57136
1.65219
1.98694
2.0551
2.07202
2.14092
1.55342
1.57163
1.48474
1.98715
2.14105
2.07222
2.0552
1.48889
1.58542
1.48245
1.98628
2.09126
1.99207
2.08639
1.58411
1.48492
1.48095
1.98448
2.08786
1.98724
2.08504
1.49629
1.63228
1.51957
2.02179
2.09933
1.99847
2.12303
1.61091
1.67715
1.55693
2.05816
2.20744
2.10685
2.15977
2.13616
2.13602
2.40216
2.40064
2.14104
2.40119
2.13346
2.13574
2.40283
2.40325
2.14169
2.1394
2.40055
2.13583
2.1513
2.40255
2.40837
2.1473
2.40416
2.14391
2.41023
2.1414
2.40308
2.13546
2.40276
2.13899
2.13568
2.40787
2.16723
2.41783
2.42663
2.15571
2.42905
2.16475
2.42003
2.14923
2.40901
2.4256
2.14936
2.14128
2.15846
2.41667
2.14511
2.40285
2.17021
2.40399
2.15256
2.16147
2.40278
2.14265
2.40543
2.15986
2.40468
2.15821
2.14504
2.40256
2.15241
2.40699
2.4034
2.40483
2.14849
2.16225
2.40863
2.40446
2.14224
2.14451
2.15919
2.40515
2.15765
2.40822
2.14479
2.40277
2.15239
2.40377
2.161
2.16989
2.40333
1.64217
1.87672
1.75405
2.21648
2.13259
2.21644
2.29312
2.18872
2.41239
2.41021
2.18549
2.41458
2.41215
2.21504
2.18264
2.41395
2.21064
2.4076
2.18089
2.41146
2.21241
2.21401
2.40531
2.18417
2.19365
2.40677
2.40465
2.22395
2.40349
2.18578
2.16627
2.18562
2.40641
2.40457
2.20719
2.19404
2.40555
2.18469
2.2145
2.4069
2.40779
2.22431
2.40793
2.18341
2.18153
2.21125
2.41431
2.21317
2.41035
1.68386
1.92403
1.77662
2.26222
2.16605
2.23201
2.31949
1.8866
1.72538
2.19559
1.7173
1.87811
2.19172
2.29277
1.71621
1.8849
1.87732
2.19348
2.19084
2.29237
2.29415
1.77452
1.90513
1.94179
2.2048
2.22781
2.30409
2.32457
2.21075
2.26581
2.40808
2.40831
2.40619
2.23393
2.24178
2.21101
2.40834
2.23406
2.40815
2.24205
2.26597
2.40943
2.25053
2.40866
2.30226
2.40935
2.29169
2.41002
2.26065
2.24709
2.41623
2.41255
2.28937
2.28796
2.24879
2.41261
2.25014
2.40858
2.26038
2.30212
2.40928
2.29143
2.40646
1.82652
2.06271
1.99488
2.30404
2.26211
2.35472
2.38897
2.29464
2.40983
2.26208
2.29471
2.40348
2.40881
2.32895
2.01169
2.0337
1.8884
2.29982
2.4257
2.3663
2.37722
1.92812
2.20186
2.18686
1.22566
1.22813
1.22821
1.22567
2.34595
2.39699
2.40339
2.40726
2.40852
2.27862
2.30309
2.41596
2.41628
2.41387
2.29158
2.25214
2.25025
2.29038
2.41239
2.41595
2.41236
2.24656
2.24812
2.28883
2.28757
2.40728
2.40344
2.40849
2.30295
2.27842
2.32107
2.34589
2.07753
2.14157
2.22641
2.35103
2.39708
2.42133
2.44799
1.52482
1.80485
1.63757
1.22528
1.22616
1.22504
1.2252
2.21736
2.05785
2.05091
2.38078
2.43757
2.38149
2.43892
2.3992
2.38338
2.35684
2.38878
2.40204
2.33328
2.3658
2.38664
2.40484
2.40882
2.37981
2.3363
2.33555
2.37993
2.40918
2.38186
2.40506
2.33446
2.37844
2.33357
2.37945
2.40042
2.3945
2.36156
2.34867
2.38194
2.33791
2.39047
2.38879
2.38344
2.40207
2.3332
2.36577
2.37326
2.3992
2.3816
2.22257
2.05847
2.21743
2.0513
2.38084
2.43871
2.07692
2.26959
2.11137
2.44117
2.38909
2.40403
2.44888
2.30985
2.38572
2.34181
2.36614
2.41722
2.38675
2.40334
2.22225
2.31104
2.16083
2.42391
2.46262
2.44381
2.45755
2.38987
2.46866
2.46124
2.17788
2.31118
2.43531
2.46509
2.43338
2.22842
2.30795
2.30798
2.36137
2.3963
2.42041
1.51173
1.2298
1.5273
1.22503
1.22533
1.22503
1.22534
2.18183
2.34141
2.26056
2.42867
2.40699
2.42373
2.43433
2.32421
2.2285
2.3332
2.42815
2.41223
2.41369
2.43113
2.33409
2.21658
2.32563
2.41187
2.41367
2.43142
2.42841
1.24674
1.26522
1.48604
1.22503
1.2253
1.22501
1.22514
2.31103
2.2882
2.15078
2.41357
2.41873
2.42746
2.42763
2.28951
2.45124
2.35622
2.45958
2.45921
2.46667
2.44333
0.0718872
0.144165
0.15021
0.0372394
0.0380132
0.0383452
0.037797
0.0398591
0.0389245
0.117188
0.139683
0.140522
0.0375948
0.116897
0.0372906
0.137621
0.0392069
0.118971
0.0506427
0.0410583
0.040525
0.0621419
0.0405538
0.146153
0.143832
0.131062
0.141681
0.0883491
0.144155
0.131495
0.0388948
0.136297
0.142899
0.115453
0.0410544
0.0504849
0.0962096
0.0369974
0.0380449
0.0393194
0.0389138
0.0414875
0.0462531
0.0386006
0.0485401
0.080342
0.0383736
0.0386913
0.12986
0.043255
0.0668774
0.0379631
0.037257
0.0369467
0.0374278
0.037076
0.0382369
0.038559
0.0366119
0.0368223
0.0356536
0.0368536
0.0359415
0.038133
0.0377616
0.0392046
0.0392054
0.0389696
0.0389
0.040451
0.0397665
0.0395745
0.0384063
0.0376491
0.0373068
0.038591
0.0649255
0.0393613
0.0393877
0.0460486
0.133131
0.117571
0.140917
0.137711
0.0672458
0.135109
0.134901
0.153934
0.145453
0.136255
0.14191
0.138387
0.133824
0.140726
0.133714
0.139363
0.141985
0.13972
0.138074
0.132835
0.0760404
0.0359872
0.0355224
0.0433643
0.0501174
0.134751
0.0421078
0.140295
0.0761213
0.122203
0.099017
0.127721
0.13099
0.136585
0.0365211
0.109292
0.0590671
0.143974
0.112222
0.0488636
0.150197
0.12192
0.135965
0.141441
0.144455
0.140462
0.14538
0.138764
0.145552
0.14591
0.13721
0.150162
0.138677
0.150829
0.143469
0.137133
0.152212
0.150711
0.151505
0.148144
0.146075
0.148982
0.0389351
0.0388296
0.0387483
0.0392633
0.0386431
0.0392082
0.0389244
0.0392372
0.0460734
0.0356
0.0386835
0.0386494
0.0360475
0.0493641
0.0472029
0.0368848
0.040516
0.0413569
0.0380052
0.0388353
0.0609646
0.146386
0.12231
0.142334
0.148737
0.138397
0.143954
0.14572
0.0418734
0.0399413
0.0414264
0.0392442
0.0428347
0.0415388
0.0398831
0.0568167
0.109985
0.0774819
0.104743
0.0958547
0.0615584
0.0688214
0.0433915
0.044756
0.0412179
0.0406202
0.0406641
0.0456236
0.0432405
0.042214
0.0399632
0.0458083
0.0405473
0.0426433
0.0400501
0.044349
0.146574
0.143949
0.146923
0.14069
0.145105
0.14025
0.148879
0.145806
0.145519
0.144
0.138843
0.138586
0.149069
0.145051
0.139102
0.13335
0.133672
0.130708
0.133495
0.134225
0.137654
0.150801
0.150543
0.131063
0.149842
0.147127
0.146357
0.149999
0.148503
0.128738
0.130052
0.112741
0.140964
0.143861
0.13988
0.14626
0.14655
0.137821
0.149978
0.139758
0.150697
0.144075
0.139479
0.135106
0.133408
0.130938
0.133113
0.139654
0.134355
0.0477893
0.0393549
0.0389225
0.0413628
0.0427936
0.0436811
0.0396461
0.109735
0.147588
0.102558
0.120078
0.0782166
0.130079
0.138683
0.12143
0.148815
0.131108
0.129446
0.142091
0.100131
0.142563
0.0990907
0.143231
0.0709757
0.090449
0.133325
0.0527342
0.122537
0.0601984
0.039731
0.0549397
0.0460754
0.04547
0.0415725
0.0829127
0.0738171
0.040433
0.0923953
0.066219
0.11631
0.0558595
0.043844
0.0846921
0.0569878
0.105315
0.109183
0.0651069
0.0695245
0.122074
0.0431066
0.0369803
0.0503738
0.03968
0.0412172
0.0374343
0.0545503
0.0415241
0.0381831
0.0388571
0.0412988
0.0438369
0.0409556
0.0381817
0.0690711
0.120654
0.110772
0.113713
0.0812356
0.0948542
0.106274
0.044251
0.0404949
0.0388509
0.0701446
0.0479637
0.0378612
0.0575541
0.0363872
0.0359327
0.035275
0.0362641
0.0358448
0.0363542
0.0357551
0.0371205
0.0374091
0.0363525
0.0369993
0.0370458
0.0376041
0.036494
0.0374692
0.0382503
0.0377023
0.0380569
0.0374873
0.0378743
0.0380385
0.0369735
0.0367933
0.0369242
0.0374303
0.0368529
0.0375407
0.036414
0.039693
0.0394543
0.0389969
0.039714
0.0393215
0.039512
0.0398403
0.0395479
0.0388982
0.0394279
0.0390968
0.039497
0.0391745
0.0393845
0.0401366
0.0405072
0.0404238
0.040275
0.0401508
0.040317
0.0404354
0.0399463
0.0398658
0.0396567
0.0399263
0.0398402
0.0397559
0.0400522
0.0387795
0.0386767
0.0379499
0.0386706
0.0383649
0.0383572
0.0390291
0.0383627
0.0382566
0.0376831
0.0382712
0.0382042
0.0382889
0.0377765
0.0382454
0.0376202
0.0375527
0.0373904
0.0379692
0.0379299
0.0375933
0.0387959
0.0387334
0.0389272
0.0383387
0.0386054
0.0385009
0.0391064
0.0383761
0.0423438
0.0433987
0.0495229
0.0402987
0.0388195
0.0396647
0.0388929
0.0394029
0.0392012
0.0395261
0.0388561
0.0393813
0.0388494
0.0381755
0.0374083
0.0378918
0.0423607
0.0386461
0.0379312
0.0381542
0.105402
0.0744718
0.0686374
0.0510442
0.0952845
0.0828853
0.0777961
0.131559
0.133118
0.133918
0.139381
0.138838
0.138014
0.119404
0.132489
0.131376
0.133785
0.138151
0.140071
0.11946
0.137135
0.120407
0.0546754
0.110271
0.112426
0.134491
0.0930588
0.0912023
0.134341
0.14106
0.137428
0.135723
0.135656
0.134393
0.136573
0.133407
0.133732
0.134544
0.133113
0.133918
0.134661
0.133122
0.139805
0.14189
0.140969
0.139868
0.139168
0.141226
0.14091
0.134868
0.141011
0.136135
0.137617
0.136029
0.137201
0.135942
0.0374338
0.035457
0.0364075
0.0360956
0.0360528
0.0356266
0.037878
0.0544459
0.121521
0.111542
0.110493
0.0905562
0.0929492
0.0652976
0.0395392
0.0395189
0.0370647
0.0654696
0.0361585
0.0533057
0.0416468
0.0408311
0.0367075
0.0358262
0.0365513
0.0365723
0.0373378
0.0382721
0.0846115
0.0607911
0.0830702
0.139844
0.0466618
0.128649
0.110074
0.0622222
0.0394786
0.06846
0.0887729
0.0416485
0.0493403
0.110399
0.110914
0.12901
0.128865
0.148491
0.1401
0.0865726
0.139651
0.0847204
0.0624008
0.0867137
0.140443
0.129478
0.0481457
0.109991
0.062252
0.0386897
0.08625
0.0634969
0.110629
0.041531
0.0481923
0.129587
0.149158
0.15074
0.14964
0.146344
0.145934
0.140442
0.145288
0.13832
0.146655
0.142042
0.140731
0.140889
0.14642
0.140032
0.140821
0.139904
0.139237
0.138922
0.139764
0.139147
0.147086
0.149823
0.147161
0.140619
0.141729
0.149931
0.144701
0.0343852
0.0346115
0.0376568
0.0370408
0.0350444
0.0344101
0.0387367
0.0384428
0.0362384
0.0364806
0.0357793
0.0362116
0.0353598
0.0358056
0.0356317
0.0355952
0.0343194
0.0347484
0.0355185
0.0346064
0.035843
0.0353054
0.0384897
0.0383573
0.0379954
0.0369175
0.0374647
0.0371859
0.0372198
0.0377861
0.0374033
0.0369261
0.0366577
0.0360206
0.0370958
0.0361832
0.0375725
0.0383823
0.0383461
0.0380199
0.0379954
0.0377537
0.0381673
0.0371388
0.0378865
0.0374042
0.0369965
0.0372715
0.0369164
0.0377547
0.0371524
0.0373754
0.0372157
0.0364373
0.0370342
0.0367145
0.0376162
0.0367399
0.0364902
0.0364032
0.0359044
0.0363648
0.0368081
0.0363752
0.0340649
0.0342229
0.0339892
0.0353025
0.0347597
0.0350813
0.0348701
0.0374027
0.0367328
0.036528
0.0365047
0.0360286
0.0358409
0.0367156
0.0348996
0.0348882
0.0347507
0.03582
0.0362249
0.035997
0.0360462
0.034214
0.0344983
0.0341307
0.0355111
0.0351627
0.0350161
0.0356862
0.0334987
0.211019
0.032374
0.0336042
0.0313316
0.0339646
0.0337101
0.0313974
0.0494239
0.377378
0.0339931
0.199044
0.0355725
0.134551
0.208489
0.377144
0.0336413
0.0331814
0.0331558
0.0325298
0.0335722
0.0325201
0.0331498
0.0350352
0.0534604
0.0489295
0.0927769
0.0424681
0.0403878
0.102595
0.0332611
0.0331437
0.0330115
0.0325082
0.0319872
0.032409
0.032346
0.0330612
0.0427469
0.0398356
0.0759047
0.0363253
0.0375435
0.0629173
0.0338408
0.0338784
0.0337679
0.0328882
0.0330175
0.0329584
0.0329127
0.12342
0.24724
0.256318
0.197605
0.318639
0.205611
0.315254
0.205581
0.118191
0.111949
0.153336
0.0712516
0.0648423
0.159911
0.0333916
0.0330453
0.0463278
0.0316186
0.0365066
0.0317353
0.0357354
0.103032
0.0845038
0.233599
0.18171
0.293894
0.311727
0.159501
0.0332876
0.0335602
0.0332746
0.0327365
0.0324713
0.0325134
0.0327171
0.0319883
0.0399941
0.0419507
0.0314064
0.0338726
0.034549
0.0312149
0.0309245
0.0313929
0.0309224
0.0319258
0.0321894
0.0319388
0.032129
0.0856483
0.187537
0.0994038
0.139148
0.0482336
0.0548648
0.121158
0.376622
0.287001
0.285212
0.257212
0.345852
0.262049
0.346455
0.0308999
0.0312127
0.0308689
0.0318658
0.0318222
0.0317323
0.0319938
0.380807
0.285115
0.284771
0.251172
0.339476
0.345214
0.239364
0.116507
0.0336594
0.0352702
0.0785273
0.0338699
0.068126
0.0365428
0.0977568
0.0349571
0.035805
0.0376087
0.0342862
0.0348966
0.0351594
0.0339077
0.033797
0.0337202
0.0373793
0.0346974
0.0365962
0.0347338
0.0340951
0.0361999
0.064759
0.0394466
0.0348684
0.0354157
0.0352798
0.0361035
0.0730331
0.115852
0.130149
0.0419652
0.0982963
0.0507175
0.0743585
0.0353834
0.0366572
0.0364584
0.0363647
0.0363636
0.0353645
0.0358057
0.0349859
0.0364745
0.0350139
0.0357474
0.0360377
0.0347323
0.0354126
0.0359507
0.0405273
0.0518683
0.0456265
0.0408285
0.0366023
0.0379127
0.0348323
0.0359465
0.0353704
0.0344035
0.035863
0.0343504
0.0348991
0.0335066
0.0353328
0.0345908
0.0336554
0.0344833
0.0346776
0.0335188
0.0439451
0.0544722
0.0976052
0.037876
0.0513667
0.057384
0.0357084
0.0605222
0.152742
0.166121
0.0385973
0.10086
0.0415276
0.0818332
0.0499522
0.0456435
0.134207
0.0364425
0.0607344
0.064621
0.0363034
1.07151
1.2647
0.648763
0.725677
0.61728
0.921181
0.619717
1.22351
0.685149
0.618096
0.684071
1.06725
1.22166
0.68561
1.07019
0.626926
1.11891
1.22968
0.719238
1.31587
1.15117
1.32702
0.690767
0.880431
1.66028
0.744448
1.37307
0.636966
0.618804
0.636327
0.729257
0.727856
0.749228
0.750462
0.774624
1.74596
1.31017
0.722919
1.30887
0.921354
1.36431
0.617312
0.634744
0.635635
0.726296
0.72691
0.748327
0.747766
1.31955
1.00113
0.76797
0.928087
1.96469
1.42586
1.37883
0.620133
0.63478
0.638146
0.726554
0.730515
0.74829
0.753077
0.636604
0.656137
0.645537
0.751487
0.739173
0.762884
0.777124
0.657649
0.684705
0.657151
0.775962
0.813395
0.777119
0.812209
0.655902
0.68427
0.656546
0.775263
0.812157
0.775089
0.811742
0.665858
0.671169
0.767836
0.693443
0.79088
0.797499
0.826793
0.656418
0.691536
0.660756
0.814829
0.776423
0.78274
0.823197
2.36866
1.0414
1.82631
1.10952
0.798917
2.06018
1.49448
0.702368
0.682678
0.669545
0.794504
0.85978
0.81218
0.837589
0.725176
0.766591
0.725027
0.867086
0.823372
0.866926
0.918719
0.875212
1.0681
0.873012
0.899845
1.10812
0.901971
1.10468
1.06671
0.871658
0.871879
0.898863
1.10461
1.10347
0.898928
0.87273
1.07954
0.878773
1.10881
0.900669
0.908042
1.12018
0.702334
0.779658
0.730944
0.89217
0.838163
0.874722
0.936148
0.723348
0.722713
0.773599
0.862967
0.861504
0.92586
0.927891
0.722478
0.774602
0.773466
0.862374
0.861191
0.925646
0.927703
0.733495
0.778571
0.788304
0.866609
0.877234
0.933547
0.946601
1.09568
0.906544
0.890245
0.921385
1.16698
0.940844
1.13919
0.93514
1.15748
0.985337
1.21949
0.937237
1.1539
0.983066
0.934387
1.21872
0.983955
1.15488
1.15293
0.935044
0.982517
0.746825
0.83025
0.804611
0.922114
0.894844
0.967993
1.00065
0.98874
1.16079
0.938094
0.947475
1.24695
1.00065
1.17476
0.92904
1.19477
0.960353
1.206
0.968682
1.00733
1.2585
0.818159
0.825112
0.769566
0.922778
1.05899
0.982443
0.991831
0.96349
1.2312
1.27466
1.04965
0.987469
1.02012
1.19749
0.840519
0.866851
0.961051
0.9146
1.01216
1.04607
1.1041
0.840208
0.91885
0.838601
1.00667
1.1094
1.0095
1.1056
0.918782
0.840332
0.83851
1.00652
1.10963
1.00953
1.10554
0.845565
0.942343
0.857383
1.1194
1.01715
1.03297
1.13851
1.25237
1.05874
1.0029
1.05858
1.41392
1.12373
1.32688
1.27852
1.09163
1.02197
1.06891
1.44776
1.14714
1.34145
1.0496
1.30525
1.04678
1.12875
1.42249
1.13243
1.41633
1.30464
1.04881
1.04638
1.12845
1.42163
1.13203
1.41586
0.965769
0.907381
0.877047
1.05864
1.21358
1.097
1.16901
1.05555
1.34108
1.07035
1.43568
1.14093
1.15905
1.46269
0.954357
0.892486
0.972928
1.14961
1.0751
1.1742
1.25647
1.37543
1.12998
1.09414
1.18798
1.56841
1.2307
1.50582
1.04925
0.949629
1.0035
1.27264
1.14899
1.21407
1.34556
1.12928
1.52303
1.30001
1.54256
1.20372
1.21651
1.42206
1.35811
1.36402
1.75522
1.23145
1.56847
1.23619
1.56054
1.75545
1.74586
1.35805
1.23126
1.56807
1.23609
1.56023
1.17978
1.58392
1.24378
1.65107
1.28838
1.36099
1.75406
1.77889
1.58689
1.2475
1.2695
1.82078
1.40584
1.6216
1.18131
1.14377
1.0683
1.29192
1.53478
1.38299
1.4324
1.30422
1.50756
1.74913
1.8832
1.35446
1.4479
1.67502
1.41516
1.69419
1.32192
1.44914
2.0157
1.55484
1.87733
0.51732
0.418595
0.516015
0.383236
0.553949
0.437746
0.410435
0.552241
0.383951
0.393551
0.393652
0.414905
0.416583
0.425861
0.424842
0.427779
0.387516
0.396426
0.384957
0.394054
0.416855
0.425687
0.410376
0.402389
0.402277
0.435524
0.445476
0.445208
0.435256
0.40491
0.44767
0.413139
0.41101
0.402681
0.435323
0.445306
0.515792
0.457483
0.458566
0.467331
0.525123
0.466854
0.524751
0.460042
0.526694
0.469106
0.515815
0.458633
0.467094
0.524706
0.478001
0.537608
0.551144
0.490845
0.490009
0.478333
0.536786
0.539212
0.480392
0.492658
0.477816
0.551057
0.489992
0.536675
0.510719
0.594765
0.561719
0.534374
0.434028
0.456865
0.595649
0.605009
0.513684
0.511533
0.427437
0.530755
0.574685
0.41244
0.549104
0.423485
0.528728
0.55264
0.441808
0.497689
0.428986
0.531311
0.571185
0.483835
0.555116
0.446612
0.516299
0.594296
0.569939
0.600575
0.581723
0.542274
0.545943
0.505834
0.565927
0.562527
0.574783
0.577542
0.540113
0.535209
0.554032
0.533983
0.568596
0.55406
0.485152
0.528754
0.518711
0.531642
0.616725
0.68092
0.570249
0.480377
0.575412
0.459049
0.432676
0.392541
0.400467
0.398288
0.430465
0.404126
0.438223
0.593919
0.448715
0.421081
0.496693
0.645578
0.457888
0.556046
0.505067
0.513775
0.465799
0.532231
0.472071
0.50627
0.498925
0.40726
0.443145
0.40265
0.436984
0.407244
0.44312
0.449166
0.4298
0.484217
0.447251
0.428295
0.446139
0.483329
0.455358
0.595859
0.585238
0.586579
0.562849
0.580493
0.559262
0.582762
0.583865
0.566527
0.60349
0.597047
0.589461
0.563973
0.583318
0.427454
0.444287
0.441534
0.481506
0.454081
0.478334
0.454277
0.407854
0.451147
0.415924
0.419215
0.410473
0.445995
0.455547
0.581882
0.589646
0.572525
0.578128
0.554697
0.547675
0.574525
0.440075
0.432508
0.440262
0.45537
0.475715
0.474337
0.45882
0.484958
0.509977
0.469164
0.513969
0.480151
0.502158
0.513043
0.539955
0.521444
0.464412
0.53196
0.474338
0.471677
0.48132
0.421105
0.424566
0.414202
0.450843
0.472627
0.458631
0.461994
0.580638
0.543245
0.557509
0.538708
0.56827
0.533473
0.569979
0.43828
0.447149
0.442188
0.475131
0.475463
0.480038
0.465327
0.414209
0.450844
0.424522
0.433933
0.458604
0.461931
0.472519
0.494873
0.518059
0.540889
0.524125
0.496453
0.529997
0.552965
0.559758
0.53829
0.549132
0.488468
0.479997
0.488461
0.496477
0.558774
0.491713
0.521655
0.521344
0.533374
0.490473
0.559094
0.519641
0.531918
0.554953
0.488458
0.516558
0.489133
0.557793
0.567727
0.559755
0.544926
0.485428
0.497233
0.491415
0.503209
0.540043
0.577964
0.544792
0.574079
0.537266
0.548912
0.588285
0.457121
0.477506
0.473048
0.490453
0.490508
0.507715
0.511921
0.552445
0.489403
0.513721
0.511938
0.534382
0.551085
0.492655
0.432395
0.468708
0.448642
0.488851
0.470987
0.488764
0.510955
0.438721
0.474288
0.451454
0.498155
0.4773
0.491599
0.516708
0.574619
0.498181
0.508096
0.578881
0.511659
0.524994
0.596004
0.596183
0.56178
0.579022
0.498203
0.525134
0.508138
0.511759
0.512298
0.541849
0.558652
0.511302
0.517363
0.552407
0.499614
0.520972
0.501853
0.494458
0.531
0.573163
0.559905
0.539652
0.575678
0.59353
0.556656
0.567551
0.639562
0.592937
0.610187
0.412855
0.356254
0.437123
0.437578
0.371931
0.480725
0.498378
0.492692
0.444436
0.398112
0.402777
0.384944
0.40063
0.389062
0.387377
0.366727
0.358956
0.374947
0.382905
0.388476
0.383679
0.384842
0.364061
0.401859
0.38627
0.382757
0.378611
0.381017
0.381163
0.4086
0.416841
0.512273
0.447422
0.422861
0.390595
0.391491
0.427099
0.500906
0.427973
0.493319
0.432932
0.421126
0.497353
0.504529
0.504075
0.440319
0.432521
0.502715
0.436482
0.501595
0.435743
0.505063
0.506089
0.502395
0.43432
0.430945
0.501227
0.497286
0.431014
0.429642
0.425618
0.491288
0.420961
0.495991
0.29476
0.505716
0.40381
0.567943
0.560636
0.358644
0.26517
0.218379
0.381057
0.031619
0.366648
0.495565
0.510049
0.369641
0.270316
0.22121
0.385708
0.279932
0.197304
0.428113
0.395025
0.106977
0.161441
0.0863046
0.173724
0.0385991
0.230516
0.148764
0.358114
0.231982
0.290214
0.329688
0.249523
0.318375
0.393049
0.598641
0.630099
0.666908
0.513974
0.593939
0.680398
0.6188
0.231526
0.290003
0.270266
0.220467
0.274586
0.233999
0.295548
0.454816
0.484481
0.379972
0.400483
0.560839
0.47464
0.484727
0.435887
0.431411
0.342948
0.440193
0.35131
0.366823
0.443141
0.597735
0.523139
0.59304
0.484182
0.455824
0.562956
0.495902
0.235103
0.294766
0.273606
0.223034
0.281041
0.302219
0.239528
0.126144
0.157795
0.188985
0.155466
0.0837918
0.189527
0.12599
0.0412611
0.0674712
0.0384163
0.0323024
0.0419009
0.0687433
0.0405128
0.44555
0.442524
0.348191
0.446065
0.355131
0.372877
0.449038
0.505335
0.408366
0.513997
0.404166
0.531902
0.425901
0.515762
0.367874
0.301865
0.273878
0.344191
0.454767
0.428706
0.363662
0.322871
0.247715
0.30739
0.269838
0.251129
0.313476
0.328357
0.519421
0.577842
0.522691
0.580432
0.517498
0.572758
0.569668
0.578532
0.725767
0.625342
0.649873
0.562566
0.605587
0.691756
0.212425
0.256237
0.272265
0.29641
0.225027
0.234538
0.283661
0.150587
0.100501
0.0881992
0.175294
0.183241
0.12778
0.133113
0.41374
0.505791
0.562763
0.477191
0.493109
0.42011
0.483243
0.442179
0.37151
0.439742
0.378215
0.445545
0.386197
0.445187
0.426321
0.322966
0.343859
0.363314
0.407643
0.343984
0.433332
0.533223
0.581413
0.529617
0.565069
0.521901
0.571377
0.560391
0.328523
0.252076
0.313204
0.320821
0.27915
0.258908
0.3354
0.188498
0.221225
0.204785
0.228082
0.207797
0.163785
0.193119
0.0340298
0.0579591
0.0460246
0.0771131
0.0600437
0.092222
0.0462137
0.417798
0.490074
0.590842
0.473439
0.425298
0.556946
0.482683
0.446377
0.377845
0.445841
0.382641
0.447922
0.389602
0.448192
0.0641343
0.147717
0.129318
0.110532
0.138783
0.153572
0.0702424
0.509003
0.506763
0.51161
0.564201
0.558088
0.558618
0.56213
0.601836
0.711959
0.622878
0.611939
0.649223
0.683585
0.602505
0.589623
0.588775
0.593991
0.593451
0.592761
0.591141
0.593828
0.635302
0.534547
0.548817
0.590277
0.650815
0.672912
0.576452
0.49748
0.483209
0.525554
0.467652
0.499141
0.530871
0.497613
0.362393
0.373382
0.378544
0.400615
0.404374
0.408564
0.410907
0.317901
0.282034
0.252951
0.327451
0.258043
0.30685
0.334552
0.58489
0.564342
0.574414
0.588149
0.58803
0.573918
0.573252
0.387056
0.46784
0.442112
0.383284
0.358345
0.442242
0.426111
0.516202
0.39336
0.396917
0.37502
0.372294
0.390042
0.398725
0.401585
0.363712
0.368069
0.366663
0.396331
0.391374
0.401913
0.406154
0.375779
0.440359
0.375294
0.418024
0.36028
0.38521
0.437042
0.118322
0.154318
0.11183
0.171213
0.129731
0.161075
0.0862931
0.23023
0.201618
0.205674
0.164217
0.197494
0.165539
0.195526
0.514939
0.509579
0.514644
0.561063
0.564372
0.558115
0.557729
0.415066
0.37614
0.383939
0.391215
0.422102
0.383997
0.415088
0.381953
0.386899
0.37603
0.410427
0.422531
0.410581
0.422911
0.393053
0.416281
0.380939
0.390283
0.376992
0.413222
0.424636
0.455093
0.411792
0.443308
0.442577
0.475033
0.432425
0.465209
0.590421
0.587788
0.598722
0.594459
0.588619
0.588148
0.595211
0.604616
0.60238
0.639867
0.649286
0.667277
0.597582
0.601974
0.499026
0.476639
0.499035
0.53713
0.526997
0.512441
0.544137
0.528661
0.496613
0.535899
0.54469
0.519462
0.513516
0.546365
0.394318
0.417045
0.3845
0.39661
0.387695
0.418675
0.427845
0.112066
0.156986
0.369116
0.320428
0.0314297
0.107102
0.160693
0.0888251
0.22349
0.169554
0.102069
0.153024
0.281562
0.23722
0.205052
0.126374
0.157947
0.187377
0.159968
0.0924257
0.130799
0.190437
0.097324
0.0440957
0.0554618
0.108941
0.155033
0.185597
0.0810364
0.0421082
0.0683143
0.0383533
0.0323771
0.0441802
0.0737569
0.0430011
0.202335
0.328571
0.351232
0.258832
0.300053
0.245898
0.230991
0.18634
0.217101
0.202175
0.165659
0.220649
0.192249
0.205231
0.183537
0.229868
0.338046
0.256236
0.265806
0.260283
0.152403
0.0641558
0.146652
0.12963
0.11772
0.165178
0.165057
0.0808975
0.587504
0.591928
0.585894
0.575623
0.590948
0.58068
0.581771
0.438252
0.398314
0.43048
0.400542
0.392649
0.423497
0.432706
0.474009
0.479493
0.464903
0.507354
0.494983
0.487508
0.504329
0.508752
0.512753
0.449162
0.440953
0.50738
0.511167
0.448594
0.506479
0.510192
0.505849
0.509783
0.445107
0.451451
0.449456
0.509578
0.446377
0.451858
0.510759
0.506216
0.447926
0.453149
0.410792
0.451021
0.442686
0.438762
0.43129
0.466236
0.475989
0.459417
0.515911
0.495882
0.470862
0.451808
0.489779
0.513831
0.553751
0.577614
0.548449
0.541322
0.530058
0.56553
0.562116
0.508873
0.450931
0.519964
0.514053
0.456692
0.463069
0.456662
0.518524
0.457856