/*--------------------------------*- C++ -*----------------------------------*\
  =========                 |
  \\      /  F ield         | OpenFOAM: The Open Source CFD Toolbox
   \\    /   O peration     | Website:  https://openfoam.org
    \\  /    A nd           | Version:  9
     \\/     M anipulation  |
\*---------------------------------------------------------------------------*/
FoamFile
{
    format      ascii;
    class       volScalarField;
    location    "0.00245";
    object      rhoE;
}
// * * * * * * * * * * * * * * * * * * * * * * * * * * * * * * * * * * * * * //

dimensions      [1 -1 -2 0 0 0 0];

internalField   nonuniform List<scalar> 
19737
(
865330
997759
368984
748904
253299
255448
661574
993679
619393
533251
507175
932801
732766
596001
695574
253249
453493
718383
962506
964329
597672
493133
719924
736411
644373
576243
774504
973623
1.03425e+06
965228
456260
522056
525799
491986
488720
570305
574753
457165
576086
526878
453875
522501
489192
570837
498564
461628
468906
583733
533028
542679
595612
518465
490707
478385
572256
555418
611641
633281
552254
526185
506465
594187
622411
662066
700002
538406
740294
642592
591856
533638
636142
732073
555548
606214
545118
776381
754271
652566
668212
738223
537009
640959
591201
533073
635510
731302
885576
989350
255238
255205
884383
988375
685006
840525
940440
634427
833865
629189
711901
935458
635645
941791
841794
834333
629669
712487
935943
253842
254905
868815
993289
631349
1.00101e+06
529482
645129
952012
855090
875459
660190
753148
966998
606344
581051
550659
706611
658823
750292
815187
587775
637341
569409
848369
807609
690125
720591
711014
901935
681677
781797
1.0035e+06
819741
985020
336498
422097
463546
392878
335272
421585
516587
405071
361585
343359
334722
341495
359631
366168
368248
334271
360456
343106
341465
359246
366207
368139
432814
389920
397823
419587
387714
395476
430127
366372
404373
434251
402190
364453
390675
431702
419481
389030
387445
395601
433193
430353
397926
402500
366706
364636
390924
435149
393363
432090
511239
337228
395137
561736
443501
532416
349034
388974
414504
413260
537181
450104
610118
476096
381189
500501
340240
362479
345576
365790
349595
370880
375450
344037
375893
361257
370077
354673
381355
389112
369916
365270
394672
355876
383878
399286
412370
428935
391288
424288
436972
401099
406399
443231
374502
408585
369618
439343
396725
402367
446254
407120
400194
435086
413324
462170
451392
422462
432266
422229
380795
409742
467079
419397
455314
395514
393332
377663
408743
426421
428803
448984
493573
469548
454812
429115
416560
434382
449540
482012
461056
445090
412994
399565
431827
447420
515221
424987
470681
422441
511583
460562
467676
471804
464479
425672
422767
512140
460973
468149
484953
522767
476860
469269
429655
477024
436237
488192
465381
445242
541045
491284
515043
468356
429710
480610
504323
489876
550832
523165
466637
509357
545082
495559
487146
500383
444886
456216
548730
583100
526892
517182
537983
470698
488701
594701
563471
609342
688653
644510
575805
510671
642107
611596
693793
898482
761203
813705
955828
671963
253288
253601
966489
337736
999107
396901
749949
995586
799997
1.01972e+06
866067
919469
1.02984e+06
733141
792837
681455
877346
1.05195e+06
950348
1.01119e+06
1.02487e+06
835377
1.00857e+06
828106
1.02579e+06
956729
1.00665e+06
837236
1.02508e+06
1.00946e+06
828795
1.02586e+06
957380
1.00698e+06
976436
852498
1.02327e+06
1.01965e+06
1.01369e+06
876094
1.01966e+06
927125
1.02051e+06
860147
973539
1.01932e+06
1.02031e+06
1.03099e+06
1.0314e+06
1.01314e+06
1.01204e+06
907180
1.02757e+06
944095
1.02515e+06
254514
256070
254769
610773
882465
257223
525572
253938
282636
346056
254116
270987
256421
255220
839960
854127
255714
257144
911213
256531
921907
910854
911195
256649
257400
921733
774245
703469
253962
849167
255968
254912
778479
254583
788820
847951
254621
789703
849270
256167
810508
789555
255171
253720
649707
253881
691054
532106
253380
253770
254520
703407
253628
580448
671569
580560
253718
253422
511861
501297
253330
559156
520451
549736
609654
515023
513273
575219
1.00182e+06
638317
954521
579445
947797
1.00274e+06
536981
969925
987271
525624
503343
1.02166e+06
942843
511487
1.00877e+06
500233
946559
498452
1.02912e+06
555560
947318
954236
554455
953232
518591
996954
590952
948443
919939
522124
991036
545274
960003
956178
972361
536989
901207
615779
917721
596058
905089
709323
960138
559044
946704
960395
630238
847519
679267
914350
574091
917706
678580
852897
616200
931161
872899
687490
840230
749550
833469
818081
752184
947053
860075
916681
784250
759750
517638
529179
526176
700378
696009
708834
713488
510442
506896
503828
681052
691458
687262
685344
509529
520246
515035
690542
690506
697213
684048
970840
811591
818163
701826
962702
737215
710718
505453
509794
511517
686585
679386
685539
680305
509732
505440
503300
679254
686491
685356
680251
502139
496533
498874
677732
682011
682005
677563
500902
495974
498429
675808
675872
676547
675488
773899
747583
686280
988979
817217
693431
689552
527417
531344
522148
700538
723739
708210
715116
527608
516938
518634
695923
707687
709741
694427
516864
527539
525533
695766
694198
707381
709507
527405
531295
536951
700428
708155
714938
723630
540582
552071
537373
727386
756776
732305
751695
551646
539265
536868
726167
753366
728777
750508
534965
556638
545259
736738
720311
736687
754304
539365
551801
554590
726549
729083
753732
750954
543379
566356
549689
759713
734619
744014
770028
543450
566424
559248
744174
734851
759988
770226
576830
571598
559017
758169
805700
777264
785388
571608
576868
590969
758268
777308
785518
805770
571262
600614
596193
787112
781985
818416
823407
587749
605756
615656
790955
802081
839159
828018
587846
605917
579576
791249
839342
828288
802293
571052
599766
574282
784486
818043
821358
781411
570841
599525
595791
784084
780916
817549
820963
588115
634646
609660
830738
801605
830765
858469
466945
674480
964679
999706
852134
553868
571103
599864
649748
616225
854491
818406
838779
873279
599809
649721
630171
838706
818268
854384
873226
667140
675542
709322
862165
888194
894927
918210
667143
675552
638327
862198
918213
894948
888203
634474
673665
629412
857793
900619
862076
897183
673418
633554
629078
857259
899864
860501
896921
641060
701817
652984
877229
905409
866940
914267
693345
722314
670151
891165
940128
907990
926219
938942
938902
993392
1.01156e+06
940295
1.00277e+06
937086
937931
1.01721e+06
1.01285e+06
940025
939206
1.00884e+06
937640
943968
1.01072e+06
1.01961e+06
942288
1.01349e+06
941181
1.02256e+06
939867
1.01274e+06
937815
1.01717e+06
938991
937566
1.02158e+06
950373
1.02723e+06
1.03313e+06
945069
1.03639e+06
949069
1.0304e+06
942377
1.02375e+06
1.03499e+06
942447
939222
946287
1.02908e+06
941433
982396
944334
978118
941832
943923
991104
940761
983555
944580
1.00139e+06
943665
941288
997071
944429
985144
999394
1.00211e+06
942711
945775
987710
1.00122e+06
940595
941054
944251
983424
943411
987089
941306
982367
941769
978026
943727
944219
969880
704567
804182
752188
941300
915220
941304
961349
950596
953720
970090
949258
956244
972594
953216
947903
956090
951362
968923
947064
972179
952092
951447
963842
947210
947640
940997
956134
951836
971904
945914
943345
945866
948548
959990
948461
947784
963935
947437
951670
941025
948515
951979
969058
948281
947363
951658
956241
952468
953343
723946
825929
762715
954410
926875
945972
967262
808871
737601
935871
731522
802700
933413
961526
731382
808908
802724
935802
933410
961741
963174
764193
819947
837127
940094
946879
965605
969534
949286
955390
931642
935458
946693
951779
953327
949363
935456
951808
931639
953407
955425
919922
956202
923529
959868
909876
960027
931197
956348
956267
938498
915170
960865
960314
956905
935963
956016
923532
956234
959804
909894
959903
901253
787403
886640
859624
964570
955490
974299
978022
957606
922070
954785
957616
885381
905075
959886
861111
870992
809606
962920
981020
976240
977627
535355
691403
682289
253440
254172
254196
253442
960868
872827
889211
900022
913329
957258
958599
917299
938256
935650
961152
957952
957332
960991
915166
938406
935897
956011
956570
960604
960126
900063
889278
913357
958576
957200
960374
960878
890144
916662
947222
973338
979243
978697
974295
359188
476454
403974
253327
253585
253257
253303
943854
883563
878086
977514
971489
977877
972768
956173
850148
818047
857864
882339
960201
960446
852175
886664
890232
961730
963420
963644
962536
890828
848981
887884
963549
962112
963137
962748
881435
870739
825676
961855
960640
962628
958037
857882
850205
882374
960199
960451
960161
956196
977196
946992
883025
943554
877879
977201
972447
893105
964580
907641
968490
977980
977847
963425
773975
855263
804115
960948
947366
958608
953938
947290
976568
926057
976409
941902
972131
955100
998037
939706
970359
928676
975451
979260
962372
930819
709956
772207
772219
822970
956946
947065
354115
254676
360068
253253
253343
253254
253344
678706
802511
733382
937103
953440
944030
921179
788126
710125
794580
927724
950957
952654
930464
795323
702916
789577
951750
953068
930953
928638
259919
265822
344204
253253
253333
253249
253286
777167
757252
659905
948663
943490
923382
914663
969023
1.0046e+06
988321
921705
963236
947543
891298
37799.3
113419
115973
13824.8
15017.7
14024
14564.2
14191.5
14523.5
81679.1
125368
154175
16508.5
90159.2
15554.3
109365
14344.4
81543.5
21265.7
14426.9
14634.7
29743.3
14527.1
120303
109429
115330
101309
49839.5
123571
112393
14487.5
97765.1
104430
71957.2
15225.7
22244.7
59615.7
13978
14368.4
15354.3
14413.8
15716.4
18913.5
13973.4
21382.2
45548
16452.4
14600.1
91676.5
18320
33857.9
14122.5
13994
14100.6
13931.8
14022.4
14089.7
13960.3
14426.6
14405.8
14987.5
15137.6
14866.3
14346.5
15422.9
14364
14083.5
14245.7
14209.4
14146.2
14286.6
14052.2
14516.9
15154.2
15211.3
14353.3
31393.9
14404.9
16074.4
21279.5
105747
85291.2
113522
103810
34155.2
110887
115575
163562
146133
121408
149163
141506
121628
123754
125797
148428
157818
126175
143671
123002
44906.2
15252.6
15620.3
21535.5
25626.2
102375
18295.5
131432
48223.9
101242
69919.8
115585
109255
134378
15373.4
73781.7
31594.1
113495
70550.6
21999
127779
95350.5
130254
141440
123930
153694
129890
140364
114494
113079
110971
116558
110518
114714
114660
93686
115600
114442
113688
107903
104671
110291
14742.9
14519.6
14777.2
14502.8
14775.1
14527.9
14700.1
17610.3
21656
15399.2
16885
17493.1
15510.2
23357.6
21755.2
15357.8
17942.2
17603.1
16603.4
16282.6
30775.9
132547
89754.7
128584
127266
119851
118791
134993
15326.6
14518.5
15477.8
14151.9
16052.6
15292.2
14306.2
25091.6
73721.1
39870.7
68012.9
60171
28411.5
33766.9
15854.7
16557.6
14587
14296.6
14396.2
17105.6
15676.1
15387.2
14425.5
17474.7
14426.3
15831.8
14256.7
16452.9
117168
109385
122012
118489
115121
118062
116129
113408
111322
104864
109885
109569
111027
112196
113900
112169
116466
114077
111035
115525
114372
117015
113950
88738.4
115715
107816
109295
118754
112532
87873.8
87447
70641.7
99524.5
106534
100318
118328
123308
118917
122389
118613
120218
118547
113476
115100
110158
112620
110071
113567
114472
19552.4
14537.5
14855.8
15778.1
16370.4
17412.4
15065.9
66633.4
109393
60776.7
80691.6
40616
86408.3
98461.7
78127.4
110903
88195.1
89938.8
99980.5
59635.1
102818
56852.7
101288
34876.3
50438.3
89502.3
22808
77902.1
27106.2
14627.2
23308
18330.6
17700.3
15945.8
43321.2
37249.1
16088.1
52027.5
32355.8
72536.9
25194.7
17740.1
45957.2
25884.8
67430.2
71712
31386.9
35215.3
82424.9
18363.7
15193.9
23600.2
16889
17422.7
15245.5
25901
16676.1
14531.6
15004.9
15936.5
17766.7
15956.1
14902.8
35872.8
83889
69799.3
76009.9
45051
56990.8
69380
18685.4
17068
15483.2
35492.5
20629.6
15214.4
27284.5
14712
14658.6
14784.9
15098.4
14643.8
14703.6
14837
14900.5
14961.2
15055.4
15121.5
14944.1
14967.7
15054.2
14602.7
14410.2
14310.6
14622.5
14569.3
14428.9
14647.3
14786.2
15132.3
14984
14748.9
14706.6
14824.5
14955.3
14264.2
14254.9
14328.5
14427.2
14248.8
14387.7
14293.4
14189.1
14270.8
14285.6
14079.2
14130.5
14173.9
14323.2
14215.1
14234.1
14218.8
14128.4
14154.7
14230.7
14286.2
14271.1
14387
14288.1
14145
14162.7
14396.8
14262.1
14770.2
14515.1
14678.5
14507.7
14721.8
14712.9
14569.2
14899
14967.8
15200
15372.7
14982.4
14845.6
15123
14942
14938.4
15199
15122.1
14959.2
14936
15103
14671.6
14464.1
14339
14571.9
14545.6
14696.4
14474.8
14857
17413.7
17364.2
21503.9
15795.2
15050.2
16055.2
14655
14472.1
14377.9
14891.6
14599.5
14515.1
14592.9
14808.8
15074
14790
17490.9
15033.8
14844
15325.5
68585.7
41778
36897
24048.2
60316.3
47983.9
43261
101701
104394
98868.9
116193
108797
113509
84667.3
98526.5
97918.8
94943
108826
106667
81782.7
106958
82981.4
25906.9
70351
71061.1
96309.3
54729.4
54213.1
126890
124322
128334
121549
121583
126352
127425
129681
132468
124797
124122
122885
132024
130520
146032
158873
146251
153370
142131
149282
155963
129606
125308
124421
131710
122764
129579
131844
16570.7
15134.7
15993.3
15204.3
16024.2
15128.2
16687.9
27069.1
88967.2
75703.1
72520.3
54988.7
59664.9
34345.6
17697.9
17096.6
15630.4
33888.2
15357.9
25831.1
18681.5
18090
15326.5
15592.6
15256.2
15883.6
15562.6
16799.5
50164.2
31931
50344.4
108394
22365.6
94105.7
73005.4
32597.3
18270.7
38338.3
54783.4
19321.3
23883.3
74355
72951.5
93440.7
90484.1
120068
103711
51176.3
106465
48415.6
30646.7
48705.6
102194
89033.1
21454.4
70216.5
31582.1
16331.6
49443
31418.5
70381.2
17706.2
22400.1
92275.2
123319
125213
119334
112691
116347
105876
132165
111347
126711
130995
129461
126769
122707
136713
152867
142477
150319
138865
139924
148728
134666
132188
128824
133108
131650
128917
135548
14521.5
14047
13975.7
14469.9
13994.8
14915.3
14062.3
14511.5
14458.6
14969.9
14963.1
14454.4
15007.5
14979.6
14460.2
14454.3
14965.5
14451.5
14994.5
14496.8
14450.8
14991.9
14224.3
14040.1
14147.8
14102.4
13973.9
14097.3
13992.4
14569.1
15207.1
15169.6
14465.2
15158.3
14556.8
14981.6
14674.1
14489.5
14780
14484.2
14504.6
14720.9
14726.6
14884.2
14984.2
15217.9
15220.8
14925
15204.3
14943.4
14923.3
14951.1
15225.2
15095.7
14942.8
15162.6
14983.3
14905
15200
14894.1
15102.5
14902
14937.2
15141.1
14575.3
15025.4
15086.1
14465.7
15072.8
15011.5
14508.7
14143.8
13956
14117
14113.7
13973.4
14112.8
13955.6
14038.5
14138.6
14180
14125.3
13961.2
14091.3
13998
14107.4
14196.1
14248.5
14138
14028.1
14170
13991.1
14610.5
168970
15669.8
14135.9
14544.6
14071.7
14494.6
14419
28056.4
303626
16126.7
163648
16860.2
123170
181775
338744
14564.4
14812.3
14879
14547
15590.1
14455.1
15436.6
16633.9
31631.8
27703.6
70394.2
22239.2
20655
81405.7
14685.8
14966
15065.1
14632.4
15002.1
15099.8
14712.9
15723.2
22345.7
20073.7
50633.9
17884
18620.9
36023.6
14117.5
14229
14276.6
14393.2
14186.2
14337.2
14230.4
108308
259376
277633
187747
332022
200526
320067
177044
93906.4
86622.3
132551
47477
41337.9
140939
16058.8
15949.2
25647.6
14609.7
17855.9
14600
17425.5
78907.7
53582.5
221673
159178
237689
290213
120039
14204.5
14298.2
14365.4
14419.5
14320.7
14480.2
14250.8
15581.7
20469.2
22151.2
14570.8
16516.7
16790.7
14602.9
14348.6
14493.4
14418
14432.7
14316.5
14355.4
14377.9
54209.3
140381
71157.2
111941
25636.2
31835.2
84689.6
326471
253143
246316
239394
332662
249676
323809
14475.4
14617.8
14583.8
14492.4
14495.8
14576.7
14415.1
284765
231830
211978
218876
262748
296762
185759
82404.9
15462.2
15352.7
52700.5
15449.7
46704.6
15326.5
69073
15452.5
17018.2
17870.3
16089.1
15634.3
15565.8
16057.9
15993.7
15434
18307.9
15487
17909.8
15567.9
16122
15357.1
35634.3
18741.6
16313.8
15350.8
15488.8
17031.9
45443.1
96876.4
119453
21998.7
74397.9
28324.2
49795.3
15486.4
15381.8
15891.9
15429.4
15457.2
15460.7
15523.5
15392.9
15404.8
15340.5
15264
15353.4
15356.7
15431.7
16409.9
18763.5
26385.6
22592.2
19638.6
16767.2
17348.5
15417.2
15454.9
15321.4
15420.8
15406.8
15383.5
15454.4
15523.8
17221.1
16888.6
15983.4
15691.6
15629.4
16003.7
23311.3
30631.9
73821.3
19377.2
28776.5
34648.6
18087.1
39137.2
149624
169120
19811.1
78421.8
21664.6
58873
28372.7
24067
114615
18492.9
34732.3
40128.2
18395.8
468674
532365
340839
368847
319798
427129
316878
530683
351548
315331
351635
468375
530766
354289
472476
328966
497263
536195
369287
570992
510127
571897
356797
413095
696898
376629
590601
327771
315316
326227
353407
351508
363634
365602
382913
733712
562317
366189
562581
427818
577214
316863
327663
326203
353335
351467
363565
365479
568927
456372
385301
431556
836530
611073
584528
323943
330415
334348
356471
361113
368576
373206
334632
344638
339185
373797
366926
379082
386030
338993
349918
337424
376856
394125
378931
391921
338988
349939
337409
376847
394285
378952
391987
347997
350811
381728
358283
391019
394148
403939
341704
358260
345590
397454
382081
386804
402458
1.00411e+06
461691
768539
486439
393775
877739
635707
363272
355994
350403
392826
416672
400103
408840
367782
379838
367794
416015
402271
416024
430944
401946
465724
399598
413166
485530
415663
482296
465587
401820
399527
413123
485254
482178
415586
405271
478604
410482
489669
419163
424598
496381
362529
386021
370759
426272
408767
419459
438245
365979
364223
381001
411851
409489
430170
432724
364317
383242
381153
412141
409621
430367
433166
373135
386095
390864
415476
420914
436852
442902
486843
425434
417222
431599
516676
440169
505355
428602
505738
449703
526848
431294
502214
446804
428627
526888
449936
505633
502174
431361
446906
378567
404686
396944
436536
427866
450656
460517
453964
510475
435124
440919
544674
460310
517944
435166
526101
446831
530856
450443
463017
548819
394794
398057
381376
432770
471667
449247
453175
448379
540595
556097
478644
457572
468471
527909
404611
414553
447407
427052
461041
473061
488865
403025
424741
400914
454796
487907
457619
484699
425036
403518
401130
455066
488755
458252
485054
406725
437793
412140
493794
462483
469370
501843
546182
478620
461056
478630
602114
498153
571906
556871
491403
468830
482859
616440
507495
577966
471924
558054
468758
495656
603962
499131
599111
558168
472298
468924
495890
604417
499681
599297
445892
428103
419115
478280
526095
489777
512351
476769
578924
483854
612163
504797
512878
624492
435200
418304
442635
499205
478069
508635
533292
592675
504621
493001
523430
666040
537081
641992
469744
439591
453995
543864
504547
523213
566414
500479
642336
553428
650945
522643
527821
605637
571840
576256
740298
529171
661217
533046
655471
741239
734066
572228
529478
661875
533786
655730
519475
668949
538329
698062
554708
577320
739995
753767
671870
539784
549217
773686
596056
687869
507054
493511
471792
546678
631067
576026
594878
561717
633136
741303
801351
578271
611812
710604
592695
712506
562199
606519
854304
644679
792764
277694
247354
267231
230331
305492
262580
254260
298573
232364
240794
242033
237520
240597
250827
248505
255561
238097
245182
235116
243488
243653
252893
253508
248312
249092
259193
264588
265640
257630
250923
268501
255748
254980
249915
260554
266846
269362
248944
251775
262212
278276
260061
280036
259495
287329
268546
272952
255174
264905
283153
271625
288870
299750
278751
279796
270171
290242
296588
276848
284332
273821
302188
281753
292939
339104
470552
309868
332133
257271
289279
476534
487695
388858
386899
271209
329124
314920
250078
303141
251793
289855
305278
264658
368959
272144
329560
416232
355771
332841
275475
391345
499944
470779
499963
478106
414054
416919
379996
466299
459080
467561
473625
412100
405981
443635
416819
454829
432838
352877
396490
382091
300484
392759
363911
400929
343255
336168
277559
258737
241433
247001
244729
256620
248241
261724
321482
261464
252708
280254
330981
270056
307881
383014
377185
324168
404007
335980
364312
349449
248897
263910
246999
260603
248834
263841
265852
273700
332551
304343
271979
303147
331752
287560
478417
472778
476511
429526
439058
424989
441899
442005
432137
495221
479361
479510
430456
442222
271163
301270
298511
329927
286533
326734
286563
251574
269912
256021
255645
251502
266123
270762
463449
457070
445966
434090
417418
405448
425258
296211
273403
294036
287376
323359
319595
288575
337493
362593
319343
354722
319765
342253
340740
297667
283336
264690
292249
272833
270631
277270
252663
255601
251482
267144
273419
268833
271479
437783
397553
422137
389684
399321
374866
412575
274513
290279
291754
315558
291355
312706
289891
251591
267259
255721
257329
268886
271607
273490
336002
331571
354351
351975
323933
343485
350255
308585
296539
303084
281285
276212
281219
284889
385663
308908
360191
360082
330869
307418
386132
358387
329671
382120
305964
355266
306251
384851
313221
309256
300802
280202
286995
283329
289454
381925
392331
372912
390295
366163
363081
386684
291104
282398
295280
294004
312368
315737
299361
378858
306652
351629
347207
330203
374572
307623
255846
268262
261482
277550
272121
277572
284154
261661
273791
264258
285135
277352
280072
289099
314958
286192
289373
317568
291946
295266
322847
322794
309785
317478
286086
295198
289325
291831
341985
331183
364553
310484
337852
369337
308835
312714
290110
302570
322526
318643
332431
307637
371924
389794
369749
364833
394946
371158
388304
240194
199614
213548
212637
201614
296757
216943
211855
263489
206448
203172
217661
225624
194030
199298
204816
196733
206729
191275
204189
194879
198847
197396
223921
212342
186606
183883
188153
183516
203531
208655
332282
265326
241877
190801
190110
194953
222081
195358
211347
201421
189202
216338
235102
239024
219168
203367
229830
209383
224803
211391
233668
234320
224066
203637
201236
222984
216121
197310
195037
193363
209795
188870
214504
242629
393558
345053
494658
470658
256890
187320
163255
271414
16437.9
255897
332635
389194
220618
188943
162363
269832
189685
127236
287513
271124
77309.9
121465
58604.4
132553
20747.2
160641
98458
286449
177916
218126
268460
185477
236306
315919
489859
529997
604090
408114
504863
626387
532750
166197
204664
195270
166750
202318
170035
213019
376743
398352
296129
306377
478518
391235
389112
326154
328477
250565
346235
264603
269693
340564
481618
405229
491005
336100
331044
413694
374207
166067
203269
192352
158566
191801
204070
165765
92574.5
118378
140227
112374
54515.6
137396
89920.9
22638.2
43140.8
21086.1
16919.9
22850.6
43164.1
22287.5
324605
325938
245636
319280
242856
254408
319427
253164
236480
274650
248353
292353
253149
273077
304584
227074
202713
256175
382419
352668
273051
226632
174866
215301
193289
179476
223834
234404
419475
486154
433735
499759
419837
482689
471754
502463
684983
557687
580817
474984
524384
632671
143523
163638
179112
195563
146837
157437
184014
103678
64842.5
56466.4
117246
127577
88666
90645.6
314293
420882
475740
372079
407675
318448
381944
327295
264235
326415
275113
335311
280280
337605
298504
210744
228749
243001
278465
226337
302397
418580
474928
404592
448450
394326
461268
439717
227413
175691
215420
217222
193061
177933
229065
142778
159445
148526
162771
148355
120931
144476
17992.1
33259.7
25317.2
48592.1
35214.8
59924
25879.2
266729
290303
377567
315553
299571
394309
352641
323747
263087
323361
261408
317124
267767
317735
40338.5
112814
96396.1
78577.2
103218
115847
44343.9
399426
399263
408170
466997
450994
455645
459350
521497
667452
552429
529569
573195
620991
513455
497855
504032
514192
505095
495540
496167
501662
557234
432339
453289
499113
567486
601729
476815
371146
361551
405668
335289
368228
404549
366878
212099
223731
229850
222572
229774
233428
238711
211939
192827
168022
217450
173972
201762
225585
482645
453366
462963
481716
481955
457451
457357
236177
261017
223589
226548
205966
224783
251105
267576
229399
212752
214987
218133
207932
220172
222506
207765
217331
214663
215569
209743
223059
228180
252655
304046
248335
283176
238115
260256
303352
83269.6
115715
76274.1
127716
91310.3
120244
56092.1
161886
137198
142994
118090
143824
116838
143889
395333
378132
385138
445396
451441
433967
430338
244101
227793
234789
240117
250413
234865
244177
229721
235705
224939
233849
246958
234412
246756
241640
240476
230286
238473
226059
236395
248456
328966
280894
307228
308755
337537
289106
318371
494742
481911
492909
491515
486289
487676
496104
512508
497220
552123
560896
591797
496833
504680
358885
336442
363541
404806
378625
372826
406065
412484
376808
420011
421421
388368
384029
422961
243746
243927
234835
245406
238302
247542
255721
120302
151838
332592
426994
16275
78818
122418
62297.9
195299
132995
76787.5
126430
246361
239848
159748
94487.9
120845
140829
123478
66068.9
99472.9
144522
106866
29721.7
38191
100284
198504
222672
79555.5
23441
44661.6
21129.3
16928.9
25065.7
50359.6
25880.7
172413
289341
356129
201630
303913
211951
178238
142272
157785
147949
128251
162167
149026
151735
189220
307982
406977
314094
323695
274868
179540
41087.2
113511
98906.3
92385
154651
137542
64383.4
473481
480814
475932
454558
464282
455234
460555
261841
244798
256682
247156
241581
251903
258874
347466
339677
329385
366536
357100
339397
352506
245336
256973
236076
222792
244565
255919
235578
245510
256424
248574
258914
229770
241003
237095
262920
235259
245211
268285
259199
241426
250361
270952
294833
298426
272719
277602
307837
304534
312413
355352
346866
300836
295200
329258
339264
423582
439926
400920
401083
391335
428972
431506
266300
248251
282004
274611
256328
263368
256377
268618
248962
279774
267359
278454
248460
260229
269554
278510
280160
262449
252095
249223
260446
283256
265054
255390
287424
277774
259611
268666
317045
333560
320305
329974
344696
327170
345733
378762
380099
366979
350870
382263
364665
366493
17292.6
60611.5
142191
175278
30041.5
525226
513916
75653.5
29702.2
15341.8
18789.6
24515.3
15266.5
16168.9
19111.7
27280.6
100439
63979.2
45166.9
38982.2
20125.4
96570.6
14334.2
376779
343368
65813.6
35281.7
165540
72638
114537
402982
211396
320799
140448
186800
112137
145647
338967
183179
62033.9
250994
35393.8
131740
73069.8
19843.7
30405.7
20549.5
16568.7
23484.3
114207
46854
17283.2
14562.2
14583.9
90021.7
18656.5
15079.5
22361.9
32622.2
133443
327965
154206
67022.3
780788
216976
538912
858679
514489
693283
512078
323529
323182
651978
500110
234322
163520
384244
786570
266198
685447
40850.2
49791
168640
194442
84586
174578
94672
17326.8
17732.5
14489.6
15894
25356.2
15881.1
27406.6
30799.6
16858.5
14573.4
16114.7
52758.1
28185.3
21920.8
270819
132341
390340
263073
196267
108392
441261
13905.9
13998.1
14428.4
14342.2
14355.4
19310.5
15389.2
14195.5
14307
14730.4
14853.9
14357.7
14875.6
14480
14644.1
16545.7
27342.5
16664
14237.6
19254.1
15256.4
14865.4
13946.9
13936.1
14238.8
14078.2
13955.2
14002.6
14032.9
14126.7
13948.4
14052.8
14116.8
14024.9
14171.8
13982
14321
17536.9
14981.5
15884.7
14900.9
14314.2
14456.3
14430.2
14833.8
15496.5
14515.7
14543.2
14680.4
14384.9
14197.4
14079.3
14477
14132.9
14257
14079.4
14145.5
14202.8
14091.3
14142.4
14360
14254.8
14291.2
14046.8
14248.3
14388.6
14281.5
14234.4
14440.5
14362.7
14322.8
255429
362507
611327
292437
331241
249184
432289
14807.3
14202.2
14247.5
16650.2
15736.5
14291.7
14298.7
809386
657446
623137
582181
827745
452833
651017
19572.2
52156.6
32635
92680.3
19136.5
56098.3
34619.3
68474.5
134663
84137.1
19991.5
98072.3
57214.5
36362.9
203616
125427
192142
156809
192843
130019
198256
367528
213065
295355
230221
166445
140352
213310
19710.8
49698.7
42879.3
15298
16401.7
19129
14594.9
257781
326842
243815
351841
240063
369384
258724
647989
483929
389321
326570
421140
490403
291907
14911.7
14483
16899.2
14553.7
14959.1
17082.8
14278.7
75232.2
14373.5
209146
304067
208147
14533.2
14705.8
14567.9
14738.6
84145.4
16759.2
75124.3
36665.9
192896
110124
322585
151291
111271
258210
14534.3
16500
16763.3
22173
15639.6
15553.4
20502.7
84532.9
25705.3
31620
70697.9
161355
54587.5
140313
223887
1.0559e+06
285235
249569
230566
307942
235264
14457.9
14538.2
14449.9
14494.8
14425.4
14536.8
14571.2
262196
219170
184798
302080
229824
211412
284189
109797
17880.3
67351.2
14653
16970.9
18969.4
83748.1
222653
96749.1
134021
55828.2
189468
108397
237886
82021.4
73060.6
26772.7
63258.2
51413
116377
107910
15522.1
19136.5
17053.7
16091.7
27759.6
17423.9
21625.2
118249
188109
186364
143032
103880
175657
183544
43974.4
29444.6
18283.2
18033.2
75066.9
27461.7
37094.9
14612.2
14586.2
14623.4
14620.8
14699.8
14946
14653
130778
216959
147550
173361
216617
146762
247027
313115
234364
227068
216800
314963
229301
302843
14605.5
16825.1
14862.1
14940.3
14965.6
16995.2
14724.4
669953
828444
572356
388089
290430
343125
228535
19031
48940.6
71171.9
38884.9
22891.6
29507.4
37697
89384
125201
91191.4
149322
143848
127025
163871
25458.3
40077.3
42259.7
20541.5
21126.7
30724.9
60282
95660.8
73907.2
77533.2
105078
110098
113482
89679.8
189581
238762
288743
189853
167654
210134
270695
128887
194661
136504
206323
144654
150399
207350
15524.3
15125.2
15552.3
20575.3
16639.4
17833.3
14855.4
233560
239253
240913
216747
216351
217035
221745
14808.8
14850.5
14905.8
15986.8
16170.2
18556.9
15875.3
506821
259365
263437
234189
246351
223241
231098
249731
210685
213725
214451
223137
214801
221056
47493.4
59175.3
30095
47464.7
86694.4
64396.3
75223.2
64307.5
54025.2
32977.5
49380.1
91423.1
68687.3
77529.9
122666
88222.2
111232
122693
106687
134361
96757.2
95523.8
139688
122672
127639
113846
99668.1
144472
226884
242674
257367
235889
282305
248806
293195
246298
60313.3
207263
293375
15900.8
14538.2
15373.9
14694
16122.7
14295
14749
89667.1
33701.3
173412
246473
51195.8
16353.5
148511
14753.4
15046.1
15037.5
15243.6
14751.7
14723.1
16442.7
17725.7
21553.9
29995.1
18553.7
36677.7
52843.3
22430.4
295319
302260
288874
303840
395967
350012
249944
14429.8
14461.7
14551.6
14429
14547.3
14600.2
14510.5
144529
55591.5
77230.6
186981
101563
108261
169666
18659.4
14717.9
16338.2
15382.5
24937.7
18667.5
16841
21621.8
17071.3
14735.4
15546.7
27786.9
17456.3
19157.2
74245.2
21888.2
49978.1
74222.2
54212.1
33707.6
93092
115806
26721.6
72782.7
81880.5
63193.2
107658
36658
352484
270472
303016
316912
265169
369263
322180
14581.7
14503.7
14613.6
14589.9
14597.8
14717.9
14547.7
14661.3
14565.6
14644
14647.8
14733.5
14983.1
14612.3
120198
159736
102400
120147
183504
173305
125027
172886
217026
147283
130522
216110
146420
192552
14653.8
120218
1.31759e+06
14192
13983
15006.6
14684.4
14216.1
14405.3
14729.4
15501.8
17231
77550.8
299941
50314.9
22427.4
169841