/*--------------------------------*- C++ -*----------------------------------*\
  =========                 |
  \\      /  F ield         | OpenFOAM: The Open Source CFD Toolbox
   \\    /   O peration     | Website:  https://openfoam.org
    \\  /    A nd           | Version:  9
     \\/     M anipulation  |
\*---------------------------------------------------------------------------*/
FoamFile
{
    format      ascii;
    class       volScalarField;
    location    "0.00245";
    object      T;
}
// * * * * * * * * * * * * * * * * * * * * * * * * * * * * * * * * * * * * * //

dimensions      [0 0 0 1 0 0 0];

internalField   nonuniform List<scalar> 
19737
(
496.552
460.677
326.871
404.348
287.944
288.697
510.437
498.088
518.467
547.637
558.939
502.195
511.932
518.977
394.488
287.927
580.755
511.079
499.324
499.465
519.498
560.023
511.449
500.847
510.234
528.672
410.279
452.734
483.514
498.195
581.724
547.245
548.102
559.357
558.491
529.015
529.808
582.318
530.341
548.678
581.096
547.557
558.854
529.299
560.223
582.641
581.509
530.485
548.886
547.649
529.247
554.784
569.902
577.414
537.198
543.743
525.724
520.294
538.515
548.129
559.724
529.09
520.669
514.175
508.563
538.469
504.859
514.806
518.442
537.356
513.798
503.822
537.301
519.659
538.612
505.158
505.435
515.042
514.118
504.495
537.84
514.36
518.155
537.016
513.56
503.63
432.607
487.766
288.628
288.616
432.27
488.191
392.666
508.451
500.99
520.98
507.998
520.212
510.319
500.872
521.439
501.159
508.738
508.126
520.442
510.503
500.948
288.131
288.508
428.598
486.65
382.711
480.041
363.346
521.744
500.725
508.903
508.007
520.878
511.466
499.072
519.037
524.985
536.275
506.792
512.943
504.295
501.285
527.185
515.245
533.428
501.998
503.913
511.623
508.201
514.615
505.638
518.396
509.744
492.393
507.15
496.162
693.703
655.872
577.097
625.336
691.721
656.333
545.442
615.464
689.514
670.563
691.947
668.919
688.008
656.018
657.442
691.099
688.506
669.895
668.673
687.568
656.064
657.451
613.951
676.494
638.098
654.893
675.246
636.919
613.008
644.535
614.988
592.598
613.829
643.132
624.12
591.597
655.106
676.322
675.172
637.185
614.725
613.399
638.599
614.118
644.642
643.243
624.409
593.295
625.848
591.977
576.122
692.564
675.721
532.965
640.462
544.154
688.574
636.173
615.303
613.725
537.878
582.608
515.516
587.412
644.508
557.89
692.159
689.283
670.941
688.488
670.639
658.332
657.649
690.928
680.204
664.042
685.663
668.592
654.432
647.812
656.146
674.518
658.489
683.617
671.265
637.479
623.858
655.079
676.909
656.646
615.043
639.221
638.155
613.63
645.107
616.076
645.553
593.723
626.552
625.765
592.68
663.755
671.584
649.925
633.988
599.783
608.745
625.901
604.572
611.748
642.294
622.146
581
614.829
588.645
629.923
646.146
661.548
642.821
625.701
608.123
591.507
573.009
610.83
627.024
636.883
652
614.098
599.591
570.349
580.954
593.992
613.515
626.442
603.96
590.459
544.734
602.401
568.69
601.379
543.919
576.236
567.817
569.455
577.905
603.148
601.773
544.296
576.658
568.225
568.418
545.568
569.704
578.121
603.607
576.73
602.492
593.458
602.024
619.767
543.113
567.578
557.936
583.721
598.514
566.672
552.165
560.309
531.982
544.811
575.576
556.474
539.914
564.103
572.093
563.889
598.253
590.232
535.397
524.421
546.465
553.037
540.916
578.996
565.778
517.141
528.694
513.925
500.463
507.342
524.336
551.788
512.074
519.69
505.249
500.099
504.811
502
498.244
390.909
287.94
288.047
453.695
317.293
469.313
333.801
510.57
493.901
506.981
488.037
504.445
501.864
482.974
500.033
497.884
505.224
499.885
492.868
498.306
496.109
477.958
504.987
491.402
504.389
478.66
499.044
491.672
505.246
477.77
491.408
504.521
478.609
499.121
491.687
499.302
505.628
475.728
472.113
490.29
505.171
487.866
501.285
489.17
504.023
498.668
468.901
495.094
476.947
492.396
495.69
467.043
503.591
479.48
501.133
484.171
288.362
288.918
288.452
377.879
436.356
289.343
361.72
288.163
298.704
319.282
288.223
294.435
289.045
288.612
424.435
427.932
288.789
289.311
445.896
289.086
448.652
445.935
445.893
289.128
289.407
448.819
409.689
395.091
288.17
426.704
288.881
288.503
410.416
288.387
412.564
426.811
288.4
412.702
426.774
288.953
417.539
412.669
288.595
288.086
385.207
288.142
392.752
362.84
287.971
288.103
288.364
395.08
288.055
372.174
389.284
372.195
288.086
287.985
358.937
356.588
287.954
537.814
527.008
538.372
536.222
528.697
520.746
534.853
470.118
534.08
497.889
537.156
498.595
488.838
537.642
472.426
479.901
531.947
515.517
497.405
518.773
524.584
492.299
510.287
519.576
511.618
499.167
535.04
514.509
504.168
536.187
463.689
530.058
485.713
537.737
461.843
449.24
533.173
482.552
538.344
467.759
465.888
472.305
534.076
442.081
535.744
447.585
532.557
443.23
526.502
472.254
538.647
461.438
482.844
535.306
425.775
526.565
446.584
535.693
447.612
526.936
426.98
536.228
453.867
432.539
527.875
424.02
523.751
421.992
418.349
521.559
458.183
427.22
502.207
519.516
406.121
526.765
531.817
531.466
522.775
522.508
524.548
524.851
520.459
515.088
514.674
516.898
519.832
519.575
517.249
523.466
532.695
528.656
523.732
523.755
525.649
521.084
465.35
417.024
418.305
395.173
489.287
521.765
396.789
518.509
521.448
524.515
521.549
517.281
519.998
518.743
521.529
518.539
515.551
517.289
521.582
520.03
518.754
511.634
509.456
511.032
514.796
514.53
515.296
513.827
514
509.87
511.626
515.07
515.07
516.411
513.951
409.184
522.401
392.316
487.911
516.757
393.747
392.535
535.899
536.058
533.096
525.761
526.888
526.739
526.57
533.814
527.536
529.964
524.194
524.738
525.626
522.87
527.647
533.911
532.066
524.237
522.92
524.779
525.66
535.945
536.15
537.712
525.795
526.759
526.607
526.921
534.325
534.447
533.843
524.906
524.225
525.226
523.909
534.727
535.704
534.193
525.028
524.525
525.702
523.969
537.622
538.575
538.38
526.485
527.001
526.505
525.366
535.619
534.62
536.121
524.996
525.677
524.515
523.951
537.48
538.566
538.446
525.013
526.334
526.251
524.755
537.398
538.506
537.753
526.216
526.302
524.995
524.73
538.516
538.432
538.703
525.37
521.47
523.75
523.577
538.398
538.454
537.68
525.338
523.731
523.546
521.44
534.101
533.328
532.454
522.052
521.749
518.423
518.681
537.733
535.243
535.722
522.676
522.263
518.406
519.1
537.707
535.273
537.136
522.679
518.423
519.123
522.259
534.223
533.934
535.666
522.291
518.469
518.9
521.784
534.301
533.914
532.593
522.282
521.786
518.457
518.873
537.607
534.071
536.187
518.554
521.524
518.537
514.592
350.569
390.847
494.485
482.795
512.132
368.372
371.03
537.418
533.559
536.168
516.396
520.757
518.062
513.008
537.461
533.607
535.313
518.09
520.774
516.395
513.027
530.926
530.611
526.561
514.281
509.441
508.478
502.945
530.891
530.543
534.021
514.254
502.924
508.451
509.426
530.581
525.7
529.63
513.549
506.928
513.658
506.994
525.811
531.02
529.744
513.598
507.181
513.872
507.055
532.205
527.913
532.52
512.71
506.808
513.808
505.274
529.409
526.666
531.741
510.18
497.877
506.215
502.262
518.531
518.539
483.826
493.729
517.313
488.848
519.273
518.816
496.331
493.889
519.872
518.979
492.314
519.795
519.608
493.239
496.62
519.855
494.131
519.045
497.5
519.869
493.874
518.821
496.327
518.976
519.794
497.4
519.706
498.304
499.165
519.74
500.023
519.734
499.193
519.8
498.336
499.976
519.801
519.967
519.683
499.165
516.638
478.376
510.772
476.098
514.506
513.026
482.561
517.489
478.562
514.739
487.631
514.243
517.557
485.74
517.319
479.233
487.067
488.038
517.531
514.834
480.134
487.595
517.498
517.567
514.731
478.549
514.238
479.879
516.641
478.374
514.51
476.093
513.029
510.781
472.427
526.74
515.842
521.589
496.506
503.498
496.514
489.212
509.848
463.638
471.512
510.222
464.53
472.396
504.588
510.137
464.525
504.094
471.288
509.643
472.295
504.543
502.949
469.226
508.458
506.196
458.72
465.893
500.69
473.415
507.516
511.44
507.523
462.272
467.761
503.325
506.184
469.224
508.453
502.944
458.711
461.833
500.68
471.291
510.147
509.648
504.099
464.523
504.553
463.682
525.721
514.382
521.003
492.48
501.15
495.21
486.308
515.193
521.419
498.777
520.74
514.751
499.021
489.725
520.856
515.521
514.872
499.039
499.09
489.795
489.533
522.062
515.766
514.923
498.344
496.381
488.467
486.033
502.786
492.585
454.45
456.107
461.444
498.363
497.188
502.774
456.103
498.356
454.441
497.176
492.574
449.234
496.473
450.838
486.573
445.111
488.969
453.85
494.178
497.623
456.345
446.853
490.637
490.176
498.063
455.592
496.477
450.852
494.183
486.577
445.138
488.976
442.102
520.224
508.37
512.428
488.161
492.905
482.123
477.112
487.136
450.064
493.151
487.13
436.302
443.227
480.902
509.43
508.568
515.513
488.493
471.793
481.008
479.432
363.642
392.818
391.21
287.991
288.243
288.251
287.992
477.969
432.527
437.839
441.468
446.65
490.571
485.808
447.525
456.307
455.397
490.042
497.575
498.064
490.616
446.882
456.359
455.609
497.62
498.054
490.635
490.18
441.477
437.856
446.662
485.817
490.578
482.848
477.976
506.641
503.368
497.896
482.548
476.242
471.363
464.831
323.145
351.43
334.806
287.953
288.04
287.93
287.945
498.562
507.894
507.546
478.921
465.455
478.449
466.177
465.714
426.128
418.347
428.165
435.363
480.191
473.81
426.857
436.874
437.862
472.054
481.514
482.169
472.779
437.973
426.11
437.211
482.212
472.304
481.721
472.842
435.364
432.164
420.458
477.882
470.872
480.421
468.129
428.167
426.136
435.368
480.199
473.813
472.26
465.716
478.259
498.384
507.601
498.488
507.437
478.864
466.142
507.633
495.841
506.094
463.571
476.999
474.12
460.162
409
427.687
415.455
474.027
458.81
469.057
464.029
498.656
492.376
502.957
469.869
449.477
464.562
455.381
485.995
447.988
461.114
500.651
492.172
469.233
457.194
449.515
396.458
408.675
408.674
419.478
466.564
458.182
321.704
288.421
323.374
287.928
287.958
287.929
287.958
390.653
414.927
400.847
452.672
463.153
456.348
445.566
412.318
396.686
413.579
449.226
461.426
462.257
450.163
413.701
395.392
412.618
461.685
462.334
450.24
449.45
290.33
292.514
318.783
287.928
287.955
287.927
287.939
410.096
405.912
387.406
460.013
456.953
447.496
444.071
493.73
476.966
488.377
442.424
458.355
451.083
433.857
354.653
484.87
470.225
258.58
260.627
255.877
255.01
252.941
251.326
415.435
516.851
601.001
260.865
427.192
246.655
436.923
251.945
416.994
294.596
251.822
250.52
326.392
254.64
469.733
455.939
541.606
421.324
352.801
502.42
518.074
251.033
429.798
437.254
381.915
251.778
281.985
385.861
258.239
261.411
265.455
255.958
265.586
282.097
255.152
292.61
358.027
263.765
253.605
424.465
265.457
335.487
255.243
259.656
259.031
259.249
258.591
254.561
255.16
258.335
258.031
256.741
251.886
256.504
252.626
250.819
252.149
253.502
253.057
251.422
250.563
248.973
252.313
253.489
247.674
250.467
250.489
313.349
247.946
251.752
285.565
463.98
418.844
458.534
449.412
321.858
486.575
479.468
591.784
545.085
505.555
582.991
554.875
529.165
499.545
561.327
590.259
596.394
530.706
570.931
545.693
348.495
249.613
254.231
274.555
294.931
428.713
262.531
501.739
351.748
441.797
396.009
474.617
463.869
522.845
248.22
386.243
314.099
444.111
380.975
278.573
485.745
433.634
506.342
529.811
478.26
587.366
513.851
544.545
474.616
473.274
503.201
467.869
491.397
455.626
486.837
411.892
457.496
458.747
449.322
435.015
429.004
444.297
249.274
251.611
250.642
249.664
250.909
250.095
248.686
262.298
282.233
255.24
260.121
262.577
253.482
288.588
274.103
246.23
255.055
255
248.626
248.713
309.174
491.262
413.181
481.673
469.189
466.402
452.361
502.492
257.121
251.288
257.598
252.394
259.474
257.669
251.716
305.975
413.893
341.971
399.693
393.9
315.338
333.303
259.703
264.791
252.209
251.829
251.916
266.775
259.128
256.66
250.015
265.537
250.765
257.598
250.468
261.744
470.708
438.514
478.63
488.736
462.082
496.064
450.634
465.039
463.654
433.384
474.981
481.882
444.192
457.317
497.524
523.823
532.414
532.886
512.883
521.654
509.954
458.147
448.042
402.628
450.659
433.442
435.316
470.678
445.965
402.944
403.125
380.403
418.734
434.555
419.423
480.634
489.18
518.673
476.533
506.038
463.112
493.5
488.979
504.597
498.075
523.648
505.428
481.235
511.632
274.064
249.798
250.905
257.963
259.829
264.71
250.408
379.995
443.175
374.515
409.009
342.93
403.801
426.718
393
448.074
405.759
417.728
420.853
372.56
431.796
363.247
421.373
323.402
353.116
403.323
285.067
389.543
303.331
249.337
290.488
266.041
265.65
253.716
342.322
329.939
254.496
356.557
316.207
382.471
297.184
261.805
351.125
308.209
397.634
398.949
324.445
332.575
410.382
275.501
259.771
295.754
263.207
271.119
257.653
304.64
264.153
255.37
253.621
260.789
268.727
261.968
255.407
336.747
414.69
386.85
407.173
353.929
371.469
397.329
272.3
261.434
253.645
326.785
279.762
254.708
306.372
255.404
257.353
255.707
254.487
257.552
255.242
253.663
254.269
253.389
253.521
250.717
255.145
252.486
252.603
254.407
253.143
254.596
252.072
254.111
255.175
252.445
253.175
251.991
249.446
250.343
252.584
251.098
251.653
251.74
252.729
252.332
250.942
252.977
251.053
251.605
251.389
251.979
250.303
251.94
250.917
252.638
250.76
251.348
251.344
250.56
250.936
250.729
251.026
252.109
250.715
249.736
249.325
249.51
249.942
250.068
250.351
250.301
252.362
252.686
252.286
251.549
251.465
251.168
247.796
249.28
248.2
246.999
249.694
247.187
246.434
248.821
251.594
249.117
248.73
250.432
250.292
247.15
248.913
251.276
248.911
249.652
247.96
250.476
249.83
246.636
256.044
258.455
277.107
250.5
247.095
249.451
247.828
248.557
248.16
248.204
247.269
249.052
247.265
247.407
247.648
248.423
257.535
247.975
249.002
247.23
387.847
345.487
331.093
294.194
374.731
357.554
344.683
443.526
445.747
426.336
480.438
454.237
473.338
410.331
436.742
440.677
422.584
468.599
447.883
408.559
462.95
405.629
298.922
383.831
385.304
421.352
366.098
363.816
546.642
508.243
527.339
517.436
525.157
541.054
534.076
563.805
575.518
554.268
553.703
544.611
570.649
570.245
580.141
603.222
579.838
588.966
569.627
588.146
597.764
556.262
517.934
544.157
555.658
533.115
544.928
564.572
253.806
251.355
250.244
248.301
252.216
250.349
253.011
301.611
414.155
392.255
386.289
365.509
375.697
321.739
258.528
258.604
249.426
320.075
250.558
296.51
261.696
255.655
246.865
246.483
246.62
246.318
246.412
250.48
352.439
311.636
353.661
432.085
275.196
410.132
385.344
312.533
257.879
331.768
361.731
260.863
283.015
385.164
383.531
410.07
406.301
457.515
423.866
354.06
427.923
349.395
309.746
350.388
422.604
402.986
274.46
380.812
311.435
250.461
351.414
312.315
379.99
256.038
277.844
407.704
463.533
471.462
456.026
440.124
446.153
428.132
499.982
448.228
487.819
513.084
516.883
491.828
463.343
534.042
575.373
567.028
578.866
555.19
548.367
564.338
508.569
494.303
499.632
541.528
528.003
478.78
522.393
268.485
270.174
257.567
256.6
269.356
265.254
255.776
253.497
259.478
255.192
258.038
259.6
260.298
258.223
261.839
263.087
265.416
267.759
261.434
267.868
263.142
261.449
255.273
256.076
255.469
259.275
259.716
259.176
259.89
255.169
250.123
252.125
258.713
257.478
258.884
257.277
254.956
253.614
252.914
255.57
255.712
254.984
252.943
253.889
251.572
250.622
252.777
253.833
252.97
251.793
254.53
253.447
251.315
253.883
255.25
253.279
252.677
256.441
255.277
258.613
257.398
258.726
256.47
255.226
270.023
266.113
267.455
263.744
263.61
262.046
265.499
257.114
260.66
260.194
260.301
263.148
262.649
260.78
269.549
268.783
268.969
263.964
264.414
263.829
264.572
271.75
269.643
271.254
264.702
267.044
266.527
265.239
273.178
539.619
286.888
275.073
286.065
274.201
272.158
285.151
389.351
540.189
267.145
549.739
273.265
592.827
562.837
571.639
272.421
268.495
268.712
275.971
276
275.613
274.844
270.869
394.731
364.229
527.203
335.008
316.873
550.334
274.617
269.467
270.684
276.819
273.398
273.327
278.144
265.214
309.888
281.651
459.075
280.256
291.688
378.222
274.422
273.678
273.903
278.393
278.688
278.11
278.9
575.943
616.539
624.096
589.185
608.77
595.648
602.845
560.131
547.966
536.65
569.02
476.635
449.075
575.557
290.569
289.036
369.945
279.184
300.604
279.286
294.548
517.447
429.451
593.395
568.637
542.134
585.626
519.27
276.54
274.586
276.083
279.074
280.851
280.422
279.514
286.438
313.884
335.682
279.299
283.068
286.426
280.168
283.494
285.443
283.739
281.546
282.463
281.23
282.693
447.207
521.691
502.466
545.286
337.782
389.974
492.333
561.478
560.254
555.566
578.079
583.689
583.235
577.131
284.378
287.127
285.544
282.285
284.466
283.546
283.275
514.375
543.818
518.902
565.452
525.452
558.444
533.139
482.66
261.001
251.603
353.425
260.827
460.343
247.747
393.838
254.723
253.111
255.071
249.948
257.303
255.316
250.947
251.469
260.692
271.295
257.731
266.257
258.055
252.015
250.198
322.236
258.742
249.697
255.862
254.049
251.895
347.962
439.605
478.706
264.832
411.873
296.399
357.059
248.334
248.434
247.128
250.775
251.242
247.809
246.235
248.411
249.155
247.185
252.075
251.429
249.183
246.47
248.918
258.072
293.893
278.51
263.945
250.049
251.378
250.368
253.516
255.905
252.545
253.633
252.507
250.183
261.809
259.539
256.684
251.532
259.932
258.741
251.994
270.247
303.548
395.407
251.2
286.848
305.524
245.682
422.225
608.729
625.037
263.492
528.76
277.265
471.104
341.649
295.03
560.509
251.396
343.158
382.612
248.901
559.383
542.036
632.798
643.363
612.914
603.106
608.909
551.676
639.838
607.059
640.235
560.708
552.286
642.926
563.258
619.78
565.056
553.507
645.764
547.792
563.22
544.678
646.227
613.637
518.462
643.994
541.462
618.946
607.355
617.47
602.741
601.198
608.044
609.566
635.219
514.7
543.126
641.69
543.65
603.504
535.594
608.689
619.825
617.593
603.406
601.211
608.317
610.819
544.498
592.109
640.849
604.006
510.313
537.248
535.833
616.86
624.014
627.427
607.598
611.323
614.86
618.041
624.671
635.521
630.459
617.577
613.983
620.368
623.152
630.701
638.129
629.171
614.509
618.395
616.115
616.671
631.68
638.201
629.368
614.793
619.036
617.241
616.868
641.259
641.966
622.159
646.295
625.161
625.196
624.045
635.419
644.36
638.021
621.42
620.644
622.8
622.488
493.268
578.922
512.066
568.942
635.163
506.542
530.971
645.259
643.604
640.222
624.012
620.331
624.699
622.341
645.49
639.152
645.576
618.101
624.175
618.194
607.754
584.615
558.347
583.275
586.612
559.697
587.984
558.534
558.658
585.847
583.511
586.948
560.772
558.811
589.352
589.389
564.786
592.107
562.949
592.615
594.768
564.025
646.265
638.014
645.267
615.045
623.074
617.449
605.748
641.71
639.954
633.61
613.909
612.239
601.297
602.735
639.973
635.116
633.668
614.236
612.412
601.502
603.02
643.839
636.194
636.05
615.719
615.898
603.925
603.464
565.342
595.555
593.854
595.818
562.398
596.154
563.956
587.766
557.321
586.146
550.452
589.275
556.065
584.585
588.064
550.668
586.854
558.122
556.302
590.324
584.836
643.311
629.275
634.112
609.867
614.345
600.644
594.429
588.661
559.822
592.919
594.255
553.515
589.187
560.37
596.414
559.321
594.891
558.717
594.466
589.636
552.739
628.091
627.494
639.023
607.415
578.183
593.974
592.986
594.301
556.592
551.873
584.444
592.655
588.124
559.54
625.453
620.837
601.763
608.897
590.227
584.776
572.531
621.631
601.972
620.273
585.38
567.612
586.55
566.638
602.239
621.748
620.431
585.642
568.146
586.962
566.943
622.483
603.116
621.915
568.469
587.501
586.606
567.328
553.074
581.212
589.911
581.294
535.509
569.971
544.735
551.236
577.556
588.159
580.322
533.708
567.687
543.811
578.002
542.037
576.555
564.455
533.046
565.66
532.104
542.248
578.516
576.794
564.709
533.528
566.154
532.309
599.4
612.464
618.898
582.965
556.268
575.905
563.36
579.704
544.085
579.552
534.15
566.896
566.225
533.554
596.948
612.254
594.483
561.686
576.385
559.02
545.502
541.83
572.057
577.343
563.114
526.948
556.918
531.187
581.601
602.484
589.65
546.922
565.936
554.222
536.559
569.529
526.353
543.098
525.712
556.857
555.787
535.133
534.265
535.082
515.385
549.78
523.422
550.752
522.576
515.756
514.863
534.524
550.047
523.855
551.27
522.766
563.705
524.19
553.086
521.613
548.165
538.015
516.166
516.204
524.423
551.683
550.653
515.63
534.696
523.898
555.404
560.33
575.195
542.033
516.89
530.333
526.259
547.074
525.863
518.065
513.572
540.78
531.301
521.735
529.909
517.685
541.394
527.78
506.608
518.665
511.132
587.758
547.25
579.678
528.006
621.552
564.803
559.643
613.467
527.405
536.918
536.145
545.15
544.787
554.074
554.62
554.707
527.137
533.577
527.593
535.401
545.656
554.565
560.126
546.689
546.155
564.764
579.286
579.614
564.759
543.092
579.789
557.143
558.511
544.97
565.196
580.042
579.815
563.645
563.331
573.363
590.271
573.874
590.307
568.702
597.408
577.602
582.871
565.212
575.205
593.43
584.578
600.362
615.204
598.827
599.839
584.284
601.298
608.037
588.387
603.461
586.868
618.896
602.216
604.905
708.477
665.005
626.858
700.053
613.006
643.591
669.961
679.874
630.154
628.903
608.59
694.652
640.678
565.049
612.034
547.5
595.234
615.901
565.161
617.35
607.605
694.339
683.845
634.656
700.755
629.157
631.824
651.469
640.686
661.469
652.847
654.908
656.305
624.085
638.678
633.179
645.655
650.524
653.354
649
624.154
618.569
638.012
633.884
613.171
643.287
639.96
697.495
749.036
694.972
706.568
653.392
706.721
651.672
553.949
525.999
532.394
527.299
548.52
535.997
556.895
652.365
637.234
588.049
672.189
661.902
636.168
659.356
622.064
652.718
636.397
638.91
618.461
645.158
662.214
546.873
566.99
533.978
554.246
546.943
567.088
584.422
613.692
645.251
611.886
612.168
610.608
643.886
641.696
672.572
657.513
661.128
675.706
694.728
672.182
697.434
701.255
679.147
670.652
674.544
663.439
677.383
699.423
610.183
608.092
604.885
641.209
637.811
637.854
639.352
543.285
581.797
559.142
569.169
550.09
571.267
590.675
651.194
661.668
647.608
691.184
667.432
664.683
688.862
602.111
607.57
601.399
637.067
634.888
633.667
637
672.919
672.614
661.503
692.438
686.149
685.95
708.547
603.417
591.718
570.997
599.772
578.353
573.112
581.351
588.159
588.464
565.689
585.649
628.753
606.307
607.568
667.342
668.658
653.3
669.811
708.334
686.045
693.414
613.449
627.78
608.696
639.688
655.822
657.021
642.181
565.501
585.443
588.173
612.816
606.197
607.298
628.598
691.649
724.604
724.515
710.002
707.672
726.337
738.724
625.753
601.183
612.078
590.846
578.677
590.934
607.113
711.776
673.628
679.376
678.256
698.177
671.64
710.573
675.41
695.892
705.003
667.715
672.12
669.167
707.838
631.441
624.495
610.279
589.548
605.888
595.435
614.064
690.164
726.837
710.381
728.516
708.397
728.204
744.561
654.148
673.227
680.04
674.429
680.943
702.576
690.323
702.546
667.213
669.185
667.513
693.734
700.711
666.934
613.296
657.449
637.175
648.49
628.68
648.458
663.074
612.443
656.744
636.369
649.211
629.485
648.278
663.145
640.637
608.406
626.425
642.022
628.056
644.572
652.59
652.583
626.983
642.119
608.593
644.655
626.512
628.257
671.991
695.409
713.645
680.649
686.473
703.459
670.634
715.063
688.711
700.638
717.562
701.92
725.914
699.407
738.199
741.077
726.582
741.646
755.335
749.072
753.184
536.328
503.174
525.262
526.267
519.227
585.096
516.928
512.898
557.962
519.223
517.174
521.665
533.37
510.561
514.378
510.378
503.838
517.389
507.257
513.37
506.736
512.468
510.875
540.913
527.694
504.765
502.126
503.355
503.335
519.115
524.674
609.894
573.636
551.295
509.125
509.985
508.393
521.884
508.194
511.544
512.401
504.015
516.539
537.61
540.972
528.005
515.579
529.993
518.79
525.554
524.827
536.431
536.922
524.941
517.452
515.023
523.857
516.619
511.912
510.209
508.048
510.339
504.525
514.816
568.028
591.909
591.968
606.935
623.843
519.885
504.531
514.211
530.61
298.328
508.162
684.248
582.647
515.8
500.126
511.83
521.944
493.161
461.85
563.819
511.211
492.876
512.921
474.796
542.128
323.326
494.203
468.741
556.696
526.088
525.02
565.446
519.488
527.897
562.574
648.035
669.761
665.901
582.282
615.345
643.775
647.527
503.064
505.535
508.504
517.454
515.094
507.381
513.881
574.664
586.275
548.927
551.915
609.3
580.076
586.166
548.107
545.986
519.735
564.177
532.663
533.01
563.842
641.274
568.442
602.006
597.118
554.999
660.44
620.874
499.329
497.34
501.054
503.511
491.321
489.014
493.447
503.391
516.072
512.698
505.848
456.74
507.326
495.297
344.152
436.745
328.6
300.774
340.303
429.772
333.114
533.884
529.109
506.246
516.273
493.558
498.536
524.595
559.073
538.173
584.23
535.926
599.753
554.556
582.971
575.516
535.535
523.852
536.322
593.709
577.262
546.425
512.698
501.129
507.475
511.172
506.219
516.639
521.711
579.323
603.484
596.395
617.879
596.223
618.832
607.628
620.632
663.36
637.616
641.651
618.088
634.722
660.466
483.102
461.78
475.455
479.497
468.623
481.118
473.785
487.226
453.999
450.989
472.527
491.039
484.383
475.218
557.783
604.333
616.51
588.645
591.658
563.467
587.798
559.301
524
552.938
536.326
569.097
541.086
565.783
510.431
476.478
482.355
492.991
530.277
493.029
524.042
562.945
587.345
552.258
577.826
560.797
594.139
586.606
505.982
496.903
499.677
493.227
496.151
491.978
501.411
518.419
503.179
504.222
500.711
500.217
508.966
516.189
307.217
385.388
351.188
434.365
391.802
450.469
350.864
610.543
660.743
732.58
615.767
564.315
683.287
634.54
549.742
513.413
540.904
506.432
544.615
517.423
534.198
423.736
520.802
527.896
488.866
528.568
519.758
430.664
586.543
599.734
597.338
620.328
617.051
623.067
611.908
641.198
669.305
640.561
640.318
666.374
666.845
645.544
626.003
633.464
626.01
629.667
633.074
621.19
639.177
644.855
615.337
617.099
633.553
662.493
662.347
632.464
550.68
584.357
578.103
572.76
563.441
589.723
599.837
510.837
519.127
521.773
526.667
532.66
536.491
540.312
488.704
493.046
479.242
503.536
484.358
487.851
500.69
614.994
609.118
595.179
623.597
609.474
603.502
618.982
536.189
576.041
537.933
525.223
507.991
537.335
554.044
579.913
526.03
525.459
517.025
520.68
522.126
533.144
535.128
511.416
516.973
517.688
522.613
521.611
532.972
533.772
505.798
549.451
529.508
547.786
511.021
520.176
537.054
486.599
533.342
481.943
521.53
488.32
518.904
453.118
495.751
480.855
489.665
499.293
508.315
491.675
511.075
575.046
577.059
568.967
608.878
601.263
595.149
603.742
542.973
519.627
522.576
523.539
544.94
522.596
543.043
529.897
535.717
527.268
544.541
555.276
545.758
554.653
535.791
544.58
526.535
535.836
526.633
544.455
554.374
593.965
577.825
585.295
606.127
612.692
600.161
626.82
633.26
632.717
651.972
639.796
637.526
626.639
644.853
641.378
655.408
668.552
667.753
668.279
642.903
649.917
582.256
586.451
573.725
599.874
624.518
613.049
609.232
612.213
605.008
597.454
607.902
635.358
619.085
623.83
535.346
545.742
527.318
533.574
527.134
547.346
554.674
667.798
652.706
611.732
787.549
297.818
499.22
515.037
488.585
600.547
534.545
528.457
568.066
598.093
671.926
533.818
507.957
519.634
513.747
522.28
497.712
515.881
517.076
666.109
436.467
465.347
624.927
725.737
723.299
625.791
355.308
447.502
330.971
304.617
367.333
470.221
377.548
582.343
600.713
671.013
543.025
670.345
590.608
534.264
519.34
505.552
505.402
522.814
510.678
527.092
509.557
683.704
760.389
752.114
767.111
743.287
700.081
723.897
431.628
524.616
538.652
535.038
649.119
569.252
544.527
625.159
631.879
617.029
611.734
637.124
620.569
627.746
556.798
527.309
548.507
532.372
526.022
547.55
553.893
616.25
650.284
629.61
652.046
633.688
649.232
669.527
551.44
567.277
551.698
537.129
551.086
566.692
551.136
551.619
566.515
553.884
567.596
539.398
551.882
550.934
571.605
543.89
554.946
577.942
567.074
550.695
559.995
593.685
637.263
620.854
629.655
614.837
641.858
657.257
602.319
643.637
629.358
633.632
618.33
645.691
661.857
617.13
643.369
643.265
648.062
631.299
626.683
633.49
575.858
557.884
589.649
584.145
564.691
568.635
564.767
581.788
565.167
592.859
580.76
591.497
564.503
575.148
579.946
590.424
590.329
573.375
563.439
563.676
573.986
593.398
575.155
565.315
597.396
587.873
568.805
577.561
661.881
667.354
645.28
665.515
702.553
681.423
686.83
664.627
668.07
649.49
667.719
704.683
685.237
687.647
265.138
379.328
574.493
566.398
384.755
786.737
765.482
528.147
308.544
256.816
262.728
304.892
259.827
263.61
273.545
308.137
438.872
381.018
358.152
343.697
281.563
431.876
282.593
608.047
743.561
497.97
327.628
564.057
399.682
558.585
778.635
632.33
707.414
515.691
552.462
457.064
526.841
728.071
658.335
475.891
654.89
354.127
507.916
488.552
290.653
377.145
315.008
270.672
342.601
594.53
457.456
276.568
279.048
288.813
520.354
305.386
287.491
371.084
433.514
567.891
545.754
530.437
532.151
729.474
585.537
615.529
871.289
764.082
828.548
802.912
670.669
714.051
859.589
704.189
627.314
630.508
725.238
828.538
701.816
841.96
446.286
478.678
604.704
574.197
533.628
557.978
548.548
293.976
299.591
278.848
289.798
368.373
288.84
384.97
405.092
300.435
279.171
290.76
517.775
383.832
355.83
694.762
622.823
732.483
638.118
676.072
576.092
717.662
263.7
264.32
262.741
262.274
279.267
303.746
274.566
278.768
262.305
259.989
260.575
267.18
264.838
267.631
263.868
272.767
313.919
268.529
266.303
284.044
266.188
268.918
262.715
263.43
263.904
268.127
268.375
269.001
267.362
263.723
264.077
263.394
268.499
269.315
268.761
269.099
271.032
281.418
278.182
277.516
268.415
274.788
271.091
271.789
268.422
275.525
275.851
272.266
267.778
275.291
273.282
273.66
278.579
278.306
277.594
273.981
272.619
273.484
274.238
278.512
278.278
273.743
277.931
274.008
282.243
281.45
280.979
283.103
285.351
283.628
284.848
589.516
662.236
721.868
583.913
563.602
556.207
617.578
286.267
281.883
280.712
308.22
297.924
283.41
284.665
800.829
783.526
724.768
763.122
799.541
669.174
695.785
327.338
480.848
412.426
524.791
321.01
494.113
424.803
564.031
597.909
578.763
327.362
533.289
494.752
429.286
547.572
539.741
520.025
532.514
540.049
544.407
525.111
646.654
640.758
576.394
568.073
540.588
558.655
534.004
346.809
537.907
521.377
291.406
307.466
324.454
288.376
546.358
550.137
523.434
566.53
533.469
577.491
535.864
654.039
638.424
584.893
581.441
592.71
620.072
552.783
288.422
286.988
302.738
289.002
288.357
305.309
286.137
445.394
283.201
478.748
558.936
499.612
285.971
281.757
280.114
289.766
508.447
301.013
457.532
377.915
458.455
541.727
527.352
527.143
460.328
491.962
279.231
283.106
286.416
336.303
286.919
286.473
314.504
491.685
338.316
388.987
501.55
546.906
448.249
521.224
496.293
982.156
543.656
496.76
514.35
545.511
519.52
284.417
283.492
282.21
285.999
284.315
285.491
287.077
523.758
563.562
531.144
538.15
541.573
518.193
513.769
457.381
309.755
461.468
289.343
296.016
314.646
454.345
547.211
438.331