/*--------------------------------*- C++ -*----------------------------------*\
  =========                 |
  \\      /  F ield         | OpenFOAM: The Open Source CFD Toolbox
   \\    /   O peration     | Website:  https://openfoam.org
    \\  /    A nd           | Version:  9
     \\/     M anipulation  |
\*---------------------------------------------------------------------------*/
FoamFile
{
    format      ascii;
    class       surfaceScalarField;
    location    "0.00175";
    object      phi;
}
// * * * * * * * * * * * * * * * * * * * * * * * * * * * * * * * * * * * * * //

dimensions      [0 3 -1 0 0 0 0];

internalField   nonuniform List<scalar> 
43631
(
1.78911
-2.42059
1.45631
-3.23421
-2.24365
1.87166
-0.303204
-0.163371
-0.137709
0.0255949
0.0271906
0.025966
1.2856
-2.54358
0.928324
-3.04237
1.52441
2.74157
-2.53109
3.36233
2.56495
-3.69386
-2.73153
-0.00702757
-0.0300219
0.00138126
0.00154528
0.00164086
-0.354223
0.0299677
0.0310902
-0.108317
0.0276892
-0.00146434
6.43387e-05
6.00482e-05
-0.000394408
7.80267e-05
-0.000308478
-0.00205817
-0.0106287
-0.00218511
0.000482882
0.00044542
0.000547829
-2.35438
2.67431
2.24271
2.53027
-3.51374
-2.91078
3.30139
2.8763
-3.68075
3.65439
-3.75212
-2.81379
1.92196
2.19362
2.43407
-2.37164
1.64961
1.56534
1.26658
-2.09001
1.3823
1.60519
1.10564
0.77017
0.791927
0.469296
-1.7884
0.49222
-2.58914
0.830484
0.83052
2.42116
2.748
-3.5281
-2.56565
1.45556
-3.23404
1.87156
-0.843595
0.226837
-0.770812
0.164767
0.215709
0.843607
-1.56591
0.507134
0.226771
0.215506
0.164693
0.0446175
0.0424892
0.0446205
-1.79768
0.353688
-2.26616
0.585274
0.5598
-2.00546
1.21498
-3.1777
1.58617
2.43201
-3.46579
-0.621446
0.127345
0.0981591
0.113949
0.600551
0.373112
0.166685
0.190507
0.139691
0.0328445
0.0291325
0.0299347
0.5601
0.584877
-1.21598
-0.143117
0.00889107
-0.0335783
0.00885368
0.00876693
0.193938
-0.618375
0.192111
-0.121086
0.00718218
0.00728451
0.155863
0.157258
0.0387694
0.0454214
0.0426033
0.00205557
0.00185979
0.00213201
0.900644
-3.11535
-0.677623
3.17758
-2.75933
3.92324
0.0460734
-4.51548
6.03977
-5.7398
4.89822
-1.1785
-0.0108249
1.55862
4.5759
0.500983
-4.40898
-2.08417
-1.53847
2.44322
3.40329
-2.89972
2.02227
-0.951728
-2.05414
1.16178
2.59802
2.27423
-2.0414
-1.49323
-1.9267
1.71649
3.33985
-2.85271
1.71785
-0.229685
0.724788
7.2566
-7.43831
-0.499493
-0.349731
-4.6234
0.789747
1.26466
4.95396
-1.02802
-2.40634
-3.69577
2.44367
1.13586
-0.939664
4.17231
-2.74182
-2.73418
3.54629
-1.49823
3.12285
1.75396
-7.40567
-0.440395
0.874241
7.63238
-0.616567
0.00754392
-5.689
1.18414
5.94683
-0.919448
-0.221925
-0.0485915
5.17406
0.841844
0.470457
-5.0773
1.80122
-1.45585
-0.287329
-7.37115
7.60101
0.307517
1.98334
-1.71686
-0.0776264
-5.25747
5.60231
1.47265
-1.15257
0.382521
6.90433
-0.53352
-6.82699
-0.809095
-0.0493172
4.77088
0.635787
-4.65462
-0.498646
-1.49192
2.97763
2.14475
0.695782
-2.53796
-2.07192
-3.59842
1.12368
4.08623
-0.932067
-2.56193
-0.525016
2.47943
2.61942
0.648143
-1.91118
1.91857
-1.69552
-4.30375
0.685394
4.74239
1.15118
-0.915765
-1.13211
2.88322
1.69499
-2.38491
-0.787585
-2.24598
2.48622
2.38646
-1.91049
2.22683
1.68804
-1.4833
-1.83204
-3.62805
4.18537
2.42205
-2.6024
-0.662633
2.79514
0.818088
-2.22148
-2.08203
-4.07801
1.23598
1.93489
-0.991421
4.59285
2.05894
-0.796197
2.9843
0.978609
-2.41876
1.15313
-2.39979
-0.975805
2.82853
2.26178
-2.24413
-1.96126
-1.28578
3.24334
-2.7273
1.71383
1.7061
-1.50107
-3.71329
2.26948
4.26792
2.01084
-1.72966
-4.23264
-1.96926
1.91652
5.09038
0.607449
7.01152
-0.539787
-6.97057
-0.387239
-0.270428
7.24704
0.981397
-7.32446
7.02522
-0.539572
0.862571
-6.98769
-0.37089
0.657617
7.28146
-0.430479
0.635941
-0.571173
7.14748
-0.420081
0.422699
-0.547081
0.884379
7.14856
0.911873
7.29108
0.450243
1.82984
6.75235
-0.521469
-6.65184
-0.208686
-7.30255
2.19669
7.52951
0.332917
-0.127068
-5.15985
2.25875
5.54409
3.07871
-2.63578
-0.408364
6.47549
-6.20657
0.221772
2.65334
-2.29675
0.0741109
4.39941
-4.06124
3.50652
-3.08133
-6.96827
0.0491659
7.19283
0.708567
3.15866
-2.85356
-5.17906
-0.474999
5.56469
-0.0357209
5.32081
0.911544
-5.19837
-0.0443238
-0.350057
6.41839
0.604075
-6.25871
6.41077
-6.15788
-0.15038
-0.00414701
0.557591
0.711208
5.47616
-0.332932
0.513905
6.61177
-0.297121
0.0105331
0.776825
6.55953
0.629898
0.83858
5.31898
0.319569
6.99746
-0.537576
-6.94749
-1.26625
7.12366
1.56111
-7.06099
7.20892
-7.21507
1.17703
0.452609
-0.523559
7.10257
-0.488613
-1.20189
1.52467
7.20208
-0.501547
1.51055
7.01802
7.25998
-1.64375
3.11454
2.32269
-2.68547
-0.335885
-0.347952
3.8282
0.596432
-3.5875
3.99962
-3.78014
-0.153948
1.30676
0.794701
4.2998
-0.567871
0.893786
1.95566
3.58192
-0.705366
-1.17446
1.79273
1.0825
3.47144
1.03961
4.14347
-0.513564
2.57571
0.66027
-2.00567
2.67214
2.67264
-2.09585
-0.39163
2.57778
2.71632
-2.0036
-0.413915
-2.49504
0.851529
2.62566
3.1049
-0.711889
0.869061
3.21911
-0.713824
2.37497
1.01532
3.14172
2.53691
0.975253
3.02848
-0.95476
1.40401
2.9436
1.47338
-2.4421
-4.28789
0.69277
2.1557
4.75638
2.20247
-1.77172
-3.7267
1.92837
4.29272
2.04736
-1.74137
-1.59939
3.16781
-2.652
2.40226
-2.08463
0.629443
3.64008
-3.23156
2.9672
-2.6808
-4.54723
1.02212
5.02238
2.37263
2.91382
-2.54381
-4.27207
-1.89793
4.97998
-0.495057
0.72751
-0.492333
-7.32374
0.900591
-0.420613
7.52318
-0.648143
0.736682
-0.528146
-0.505143
7.30554
0.494652
-0.501777
0.994571
-0.4142
-7.43114
1.15168
7.65734
-0.382608
1.17794
7.49174
0.98883
-0.558503
2.58757
0.690099
-2.00841
-2.68221
2.86631
2.49222
-2.30492
-0.508589
2.67924
-2.10113
-0.435266
2.63302
0.875507
3.21011
-0.725866
0.938247
2.51207
3.3825
-0.762132
2.55276
1.00653
3.14394
1.09586
2.432
3.33894
1.05133
-3.99546
-3.66916
-0.794033
4.05162
3.6344
0.712046
-0.526527
2.13967
2.41791
-2.11636
-1.72036
0.871106
-3.09699
-0.659963
2.57839
-2.16073
3.4852
0.243088
-2.96873
2.48401
-2.07708
3.35123
-0.0147661
-0.174627
2.07888
2.35426
0.34331
-2.05545
-1.6473
0.246685
-2.98908
3.02904
-2.64517
3.86388
-0.0132063
0.268967
-3.70192
-4.02721
4.10122
3.72776
-0.0169929
-0.0634405
4.98771
0.750355
-4.89469
-0.914573
6.17116
1.26516
-6.06263
6.33085
-6.21553
1.09237
0.00887217
6.45186
0.00758754
-1.16378
0.432049
1.49803
4.97207
1.44713
6.30164
0.534297
5.14691
-2.30512
1.36073
2.93351
2.19224
-2.3743
-3.79987
2.24894
1.94645
4.3937
-4.4038
-1.97361
2.35121
1.9589
5.20422
-2.21888
-1.87651
3.80437
-3.32452
1.78746
2.51406
-1.75174
2.10942
3.23136
-2.72568
2.08162
-2.58689
-4.42114
2.46254
3.00676
5.36166
-2.999
-5.03242
-2.17031
1.97712
3.10253
5.00637
-1.31434
2.89269
1.92946
-2.42141
-0.901565
3.54033
1.21105
-3.2299
3.66648
-3.39443
1.27349
-1.02736
1.61203
3.40882
0.88527
-1.28873
1.52724
3.90346
1.43685
1.4685
3.40098
4.00338
1.87673
6.95924
-6.87321
-0.497922
6.78329
2.23518
-6.67292
6.56965
-0.507933
2.2268
-6.44367
-0.481274
1.87899
7.10151
1.88481
-0.471886
6.8789
0.43489
-0.422838
2.2985
6.72375
2.27122
6.97924
-6.81315
0.998383
7.0348
-0.739233
0.0235263
0.910841
0.495249
-0.652512
0.747448
-0.508935
6.73246
-0.0199126
1.01999
-0.0121854
-5.54194
0.324478
1.45005
5.82052
1.28052
6.94492
0.427876
1.19085
1.29443
7.24279
0.475273
-0.464321
-0.373568
-7.41276
7.64229
-7.15553
-1.49374
-0.263491
1.85215
7.35396
-0.437801
-1.28593
1.62107
-0.414985
1.64044
-0.333869
7.43253
-2.41967
2.44157
2.50754
-1.86211
-0.833543
2.58764
1.03025
-2.0088
2.53896
-1.95951
1.16519
2.23643
3.1196
-2.06189
-1.09943
2.3202
1.25231
3.06297
1.34447
3.16195
2.4307
3.01169
-3.17637
1.14451
3.2645
-2.80797
3.92766
-3.72679
-1.6625
-3.40151
1.74766
3.3695
2.83644
-3.95265
-3.60699
1.29436
3.98068
3.54157
0.906149
2.16409
2.44553
-2.13651
-1.74406
-3.13105
1.09508
2.60918
-2.18034
3.52782
-1.28994
2.27525
2.60917
-2.28168
-1.86371
1.494
-1.57404
-3.33749
2.90427
-2.29998
3.87022
1.84186
0.75096
-0.493089
-3.66564
4.71907
-4.34474
4.00847
-0.311368
3.56986
6.35571
-6.05018
0.245093
0.0115008
2.99582
4.44662
-4.0893
-6.30732
-4.46548
0.53507
4.73959
6.36149
-6.85162
0.145909
3.87693
7.03122
1.73579
-5.39624
-1.41544
-4.047
4.34536
5.71511
0.949901
-5.2325
-0.698388
3.45519
5.59108
1.6589
5.97032
-5.84808
0.0423934
4.44415
0.367886
1.93248
-4.21516
5.77693
2.08331
-5.62116
0.0315243
1.83192
0.334346
4.83129
1.83565
6.12894
-0.0437562
2.24673
5.97534
0.262988
2.1638
4.75299
1.00067
1.10355
-0.867699
-4.03442
1.23654
1.39092
4.45348
-1.01593
1.13017
1.61929
-0.918436
3.95121
-0.903029
1.50132
1.3196
0.741956
-4.49002
1.48248
4.85469
1.32011
1.43701
4.39711
1.32665
-0.832403
2.60573
0.999706
-2.01561
-2.50339
2.77532
2.34035
-2.18441
2.55579
-1.95981
-1.13513
2.3569
1.28757
3.17271
2.45659
3.13106
1.24716
2.3413
3.33781
2.25216
1.41434
3.38064
1.33423
6.61743
-0.0172224
-0.0404574
-5.39253
0.308776
5.69815
-6.47964
-1.58949
1.92322
6.71606
0.0100961
-1.48287
0.308812
1.77591
1.68135
6.83369
0.362821
-3.72115
1.17344
4.1978
-0.965101
-2.26634
1.02088
2.52057
-0.855473
1.05778
-0.876077
3.67475
2.16598
1.22724
-1.99916
-3.56053
2.34077
1.3022
4.0862
1.36365
4.1792
2.43632
1.16647
-0.891252
3.11999
1.08916
-2.58631
1.72865
-2.1101
3.10412
-2.58328
1.7457
-0.685685
3.00446
-2.45624
-0.608407
-2.18573
1.04953
3.60801
1.8575
-0.828516
1.00796
3.52375
-0.802791
2.11724
1.19873
3.51726
1.25923
3.62293
1.82737
-0.479695
6.62284
-6.43402
-2.6522
6.20442
-0.406984
3.09266
-5.99963
6.38148
-0.472188
-6.21821
2.74039
0.335901
-0.339456
6.57567
-0.248289
-2.70912
6.73493
3.19309
-0.238677
6.44864
3.1928
6.85635
-7.04364
2.24424
-0.182584
7.27356
-0.368337
1.99546
2.02953
-0.35487
6.92632
0.276673
-0.270018
2.45221
-0.131032
-7.20351
2.63327
7.42991
-0.0898205
2.66308
7.17737
2.41384
1.50208
3.4723
-3.13326
0.799235
3.46665
1.78461
-3.10976
3.0472
1.29306
1.674
-2.56653
0.758561
1.76408
3.85657
1.67801
1.28292
3.44422
0.673364
2.02419
3.87759
1.16878
1.91663
3.52529
1.26486
2.69807
-2.14057
-1.86629
2.75901
2.17452
1.42743
-2.21835
2.84622
1.5406
-2.3187
-1.8899
1.4573
2.21831
3.16312
1.56148
3.24977
1.75196
1.80858
3.36773
2.13671
1.71832
3.30895
2.54612
1.03933
-0.863747
-3.85949
1.17662
2.35781
-0.961327
4.32883
1.08519
2.45301
-0.887822
-3.66102
2.37948
1.31723
4.16778
2.4693
1.19223
3.84161
1.26119
2.3739
1.37829
2.28657
4.3312
1.49426
3.90422
-0.804347
1.3785
0.703372
-4.37554
4.77699
0.719919
-1.53702
1.7488
-3.89578
-1.629
1.20275
1.83265
4.37598
1.26427
1.67455
1.25171
4.36837
0.0801744
4.38871
0.268347
-4.09803
-2.51659
5.49674
2.9414
-5.25364
5.61758
-5.41693
2.66421
-0.0206684
5.85937
-0.0447568
-2.4969
4.77678
0.271441
2.82642
5.77884
3.07438
4.74375
0.237095
2.28411
2.03067
-1.98173
-1.59594
-0.00261828
0.195649
2.1793
2.61597
-1.77037
-0.00588951
0.202293
2.50385
2.47223
-2.20867
-0.00740668
2.56484
0.387253
2.5187
-2.2724
2.22603
0.37907
2.68204
-1.81935
-0.222566
0.41983
2.89113
2.66087
2.83331
2.61593
-0.0115073
1.39673
3.67169
2.02834
-1.91728
-3.56902
2.27482
4.11959
-3.70958
-1.54814
1.74852
4.23033
-1.90662
-1.31377
2.24926
1.49057
1.57887
4.19052
2.34074
-1.16009
3.0747
1.35423
-2.51267
2.0057
3.00429
-2.42986
3.166
-2.63231
1.7169
1.3815
2.0468
3.53984
-1.98235
-1.46204
1.66988
3.72079
1.78241
1.57187
3.59333
3.65843
1.79996
-6.34029
2.27798
6.6103
-0.0043801
2.06951
0.271056
2.0533
6.22736
0.0417618
2.44199
-0.199837
-5.12431
2.55003
0.400811
5.53061
2.6485
6.52366
2.36996
0.268991
2.11021
2.39076
-2.09434
-1.68741
-0.579513
2.62673
0.771856
2.57593
-2.33026
-0.572349
2.2776
0.765369
2.74669
-1.87636
2.59721
2.54735
-2.3048
2.25354
2.71674
-1.8523
0.62033
2.68895
2.9241
0.820501
2.71869
2.95765
6.81852
2.89443
0.190462
-0.169289
-0.0505703
-7.08697
7.31156
-0.105487
-2.87611
3.35386
-3.10011
-6.71132
0.151575
3.53681
6.91007
0.0175391
7.05857
-0.0564945
3.34629
1.20533
2.71513
-2.15029
2.22156
2.85899
1.4568
-2.32878
2.26655
1.48416
3.26002
3.06442
2.13535
1.60337
-2.54336
1.61258
2.1758
3.45808
2.19113
1.7307
3.38735
2.11458
1.84558
3.5625
3.53822
6.0583
-0.305515
-5.80968
-0.210202
6.23615
4.06602
-5.93552
5.95281
-0.180892
3.98131
-5.65347
-0.15957
3.68532
6.61115
3.64437
-0.123689
6.3388
0.0526981
0.0101426
4.08419
6.23317
4.14022
6.49946
-3.23633
-1.8061
4.27789
-3.7322
2.25776
3.67421
-3.35511
1.06688
4.31636
-3.89138
3.71258
0.629467
2.71446
3.78325
-3.3694
-5.13768
-3.87394
2.00639
4.19081
5.53209
-4.69119
1.23575
3.26279
5.15106
-5.73504
-3.13064
-4.18235
3.30286
4.48814
5.93493
-4.56532
-2.08891
3.30473
2.60993
5.37299
-3.66744
2.31527
4.19688
-1.34061
2.29449
1.51152
2.38141
1.42961
3.85365
2.286
-3.89226
-1.57811
2.17092
1.79194
4.44105
2.20246
1.61256
2.21837
4.3653
2.48271
2.19193
1.09786
-2.16553
-1.77084
0.973493
2.65943
2.60311
-2.35703
0.966927
2.30034
2.77819
-1.89831
2.32984
1.16946
2.81986
-1.92622
2.70083
1.17707
2.63621
-2.39137
1.03064
2.74912
2.99598
1.24677
2.79354
3.04675
-4.00525
1.21983
-0.985119
4.48758
-2.15984
1.15524
1.90009
-0.923718
1.1336
-0.913394
4.00835
2.08887
1.33734
-2.01343
-4.09721
1.47844
1.92164
4.67215
1.444
4.513
1.37434
1.86835
6.14891
2.8381
0.111458
-0.312067
-5.13886
0.525069
5.54221
-0.222904
-2.67924
2.99552
0.438402
-3.02909
-6.08854
3.40032
6.35424
6.44376
3.23473
0.320354
0.692031
3.52576
-3.1417
-1.95846
3.32574
1.0764
2.26033
-2.88126
3.17331
1.16167
-2.7179
-2.31061
0.642268
2.60215
4.08118
0.630048
3.96063
2.18961
1.09542
3.64095
1.07478
2.49185
3.79821
3.34944
5.41357
-5.13791
-0.103089
4.52141
3.32771
0.350248
-4.1495
5.36892
3.74126
-5.05613
-0.155199
3.15321
4.83547
0.384316
3.4743
5.7263
0.311832
3.85743
5.68698
3.48387
4.91588
0.556786
1.5687
3.17796
-2.64486
-1.90068
3.45997
1.95659
-2.99837
1.73002
3.30192
1.80514
-2.80493
-1.92538
1.89392
3.81339
1.77797
1.78006
3.67151
1.88235
2.01137
3.78135
2.14515
3.95361
1.78743
0.666527
1.97912
-3.93148
2.06395
1.17962
4.4227
1.88318
1.17952
-4.33317
0.744892
2.40993
4.81646
0.647526
2.2347
4.00859
1.12731
2.12929
1.19795
2.32457
4.51511
-1.70599
2.95004
2.09428
-2.42415
-1.83886
3.19806
2.15465
-2.7165
3.01177
-2.51304
2.08855
1.64795
3.51441
-1.5905
-2.0193
2.06109
2.35165
3.69516
2.40759
3.7005
2.09002
3.48652
-4.40813
5.77516
0.155683
-5.49585
4.78014
-0.0959825
6.13068
-5.82912
5.86878
-0.0382794
-5.55325
4.4775
-0.0725833
0.196709
6.11104
0.20825
-4.53003
6.22104
4.82549
0.459103
5.97946
4.79357
6.39461
-3.77978
1.98072
4.30431
-1.79592
1.70914
2.17919
1.78582
3.88532
1.70444
2.03322
-1.75665
-3.86096
2.19992
2.212
4.44909
2.25478
4.42736
2.1356
1.9703
2.53821
2.22808
-2.21392
-1.81082
-1.38581
2.83322
-2.50481
1.6089
-1.37618
2.41669
2.95326
-2.01127
1.59695
2.36707
2.87857
-1.96311
2.75834
-2.44081
2.68101
1.47327
2.86493
3.11623
2.98306
3.20891
1.71903
1.53362
4.03454
2.01567
-1.96165
-4.14321
1.9097
4.82822
-1.9392
-1.58944
1.8188
1.83832
-4.08716
-1.66718
1.91007
4.69779
1.73762
4.56864
1.84659
-3.03139
2.52677
0.451714
-2.11917
3.4118
0.218971
2.32531
-1.92933
-0.010358
2.37067
0.415211
-1.976
3.26206
-0.24321
0.452486
2.83738
0.26264
-3.20735
3.10528
3.66598
-0.018037
0.485466
3.15328
3.72195
2.79301
-0.0153567
2.1558
3.03002
-2.51918
-1.87792
3.38191
2.06597
-2.90803
2.17962
3.21232
2.09285
-2.7229
-2.02112
2.13537
3.77073
2.3488
2.14483
3.55595
2.1148
2.08201
3.70625
2.08612
3.91185
2.42614
-0.00216187
3.80243
-6.58259
3.93582
0.332175
6.74023
3.79231
0.0741702
6.43474
-0.107581
0.255747
4.19588
0.276309
-6.7272
4.18504
6.81226
0.567516
4.25617
6.56713
4.18769
-0.626355
2.84324
0.827026
-2.52775
-3.0707
3.11906
-0.462801
-2.72363
3.91083
2.8093
-0.427126
-2.49957
3.3492
0.665886
-0.455668
3.17311
-0.728839
-3.416
0.976653
3.72106
3.91831
-0.493469
3.68192
3.94533
0.879848
3.2169
-0.615885
2.41786
0.816845
-2.02259
-3.06598
2.55208
-2.1413
3.44829
2.39521
-2.0016
3.29716
0.661167
2.86983
-0.705869
-3.33676
0.933391
3.2832
3.84513
3.20241
3.77228
0.871991
2.91137
-3.03523
3.07751
-2.69301
3.8937
0.228013
2.72486
-2.41517
-0.0117869
2.77758
-2.47035
-0.244442
3.29899
3.13782
-3.25015
0.259389
3.58522
3.93856
-0.0152059
3.08777
-0.0148122
3.63967
3.95414
2.22681
1.72413
-3.96506
2.03585
2.14724
4.5832
1.82399
2.13927
-3.93712
2.25711
2.23551
4.59862
2.18944
1.97983
4.09536
2.10706
2.07078
2.17181
2.33453
4.8632
-4.11722
5.32411
-5.01848
4.45701
-0.26505
4.61959
0.521554
-4.23451
5.34983
-5.01723
4.20261
0.536468
5.63525
-0.827001
-3.81316
1.08172
5.06582
4.13419
5.57777
4.50543
0.788974
4.99759
-0.380526
3.31532
0.616632
-6.0239
3.73738
6.25173
3.61755
5.94629
0.604661
3.96273
-0.966552
-5.28938
3.74807
1.23384
5.62422
4.03501
6.15655
3.62974
0.854039
2.58091
3.50984
1.04798
-3.0634
0.711358
3.94465
3.025
-3.53063
0.73228
2.90035
4.22471
3.71471
1.0932
2.90603
-3.26783
2.80301
1.12406
3.98362
0.890654
3.21781
4.3907
1.24854
3.12244
4.18983
-4.42523
0.853159
4.90807
-2.50361
0.775538
2.78655
0.677343
4.13264
2.40913
1.12278
-2.60259
-4.29461
1.40057
2.89479
4.81285
1.26685
4.64898
1.17964
2.70312
1.04041
2.88162
-2.55957
-3.26825
3.38335
-2.88174
1.40955
3.91528
2.93565
-2.60221
1.26329
-3.53984
1.24263
3.77068
3.87242
1.10781
3.27407
3.58644
1.349
3.36452
1.51979
3.81463
3.80047
1.02802
2.43986
-2.04108
-3.17845
2.6638
1.32751
-2.20908
3.59285
2.47261
1.24322
-2.06795
-3.38316
1.17689
3.35143
3.9505
1.096
2.96846
3.45418
1.33124
3.06065
1.43864
3.38421
4.10369
-1.88018
3.61009
-3.15618
1.75236
-2.06337
3.60327
-3.14408
2.34775
3.44019
-2.97407
2.27745
1.88608
3.93439
-1.92483
-2.43605
4.54532
1.87055
2.78767
4.16724
2.59134
4.17466
1.81357
2.49539
3.41288
-2.93411
-1.54872
3.66611
2.82573
-3.15889
2.02096
-1.60168
2.71852
3.94267
2.07346
3.65998
2.86129
-3.17212
2.75985
3.92814
1.68615
3.11992
4.17753
3.11543
4.23486
2.1536
6.27793
4.51985
-0.237152
0.504859
0.389251
-4.49135
4.75376
0.417235
-6.53237
6.58255
-4.52124
-6.1471
0.990311
4.77328
6.30647
0.80832
6.42208
0.763318
4.78352
4.03737
2.32904
1.66242
-1.79267
-4.03983
2.24592
4.67407
-1.68167
-2.27507
2.14798
2.62418
-2.56632
-4.24068
2.89392
4.81839
4.60316
2.6623
2.12094
-1.89785
2.07794
1.83829
-4.18315
2.189
4.95003
1.96438
4.34813
1.9217
2.22751
-2.00157
-4.70793
2.74105
2.00622
5.21061
2.52418
5.23528
2.37959
1.86435
-2.59168
-0.549431
1.93607
0.726458
3.14532
-2.899
-1.77256
2.22812
2.03993
3.78358
-1.31866
-2.75191
2.07051
1.53557
3.4471
0.842988
-2.4421
-2.94134
-0.638419
3.80074
0.651707
-1.84515
-0.4762
1.99746
-1.55577
0.567553
-1.5606
-0.414955
1.62403
2.0795
1.37101
-0.0966126
1.41242
0.183663
-0.87304
-1.56166
-0.137124
1.79029
1.76108
0.268696
-1.27085
0.233305
-2.83103
-2.34025
3.60627
-0.0103827
0.189212
-2.43632
1.8479
3.00405
0.0016232
1.85588
-2.69044
-1.56142
-3.23177
3.14097
3.89108
-0.916612
-2.66943
1.98658
1.11497
3.25221
-2.4761
-2.97645
1.0635
3.83468
-1.85656
0.838412
2.02483
-1.58333
-1.60611
0.740065
1.63088
2.1218
1.06263
-0.887257
1.42882
1.7099
-1.21151
-1.9719
-1.2023
2.13437
1.39246
-1.7021
-0.117671
1.58896
0.227201
-1.06823
1.30984
1.33656
-0.786802
0.00156238
1.52336
1.49058
-0.995725
-0.00029693
0.138783
1.53267
1.89834
0.00307646
1.5924
0.270631
1.96648
-0.151802
0.297076
1.784
2.11351
1.71968
2.05262
0.000526249
1.39311
-0.286051
0.407845
-1.065
-0.354822
1.70816
0.497807
1.60331
-1.22165
1.39867
1.4901
-0.979054
1.65273
1.59705
-1.15141
1.61797
2.02273
0.456172
1.81369
2.16112
0.621077
1.82765
2.20549
1.38531
0.558412
-1.11228
0.663442
1.7438
1.60521
-1.26158
1.38041
1.63505
0.720153
-1.13622
1.7681
0.833304
1.61129
-1.28435
1.64132
0.916997
2.15411
0.802679
1.84146
2.2379
0.985024
1.85934
2.26403
-2.83262
-3.45197
2.17673
3.83446
3.28154
1.49818
1.25212
1.77966
-1.28756
-1.86395
-1.48505
2.15613
2.13303
1.70823
-1.70522
-1.70827
1.83121
2.0992
-1.66637
1.97709
-2.68778
3.51695
-2.21312
-2.2132
2.53302
2.53338
2.46326
-2.39322
-2.08926
-2.04164
2.37089
2.71156
-3.22048
3.55881
-2.56445
-2.95619
2.98223
3.42014
1.7154
1.70436
-1.20913
-0.000966554
-0.155673
1.92399
0.307059
-1.4645
1.87271
-1.40916
-0.00122994
2.01203
-0.167393
0.326441
2.25179
0.183753
-1.94662
2.33523
-0.00421832
0.355969
2.38424
2.19811
-0.00156826
-0.419487
1.85389
0.581271
-1.38959
1.82963
1.81045
-1.3353
1.96256
-1.51503
2.04392
0.498221
2.29008
-0.539009
-2.06398
0.72337
2.44739
2.41629
0.673648
2.32574
-2.49957
1.89412
0.368465
3.06095
0.16572
1.7049
0.00340044
1.75901
0.325816
2.62738
-0.179312
0.348268
1.96645
0.203571
-2.5702
2.0772
3.14639
-0.00282895
0.390002
2.12522
3.20089
1.90987
-0.000538379
1.3915
1.66532
-1.16504
-1.00153
1.84561
1.17581
1.68607
-1.36415
1.79881
1.6353
-1.31433
-1.09114
1.69124
1.26835
2.22813
1.65859
2.18644
1.16264
1.8887
2.29525
1.34504
1.93463
2.33851
-0.494754
1.7963
0.663351
-2.54385
1.91677
3.10123
1.78254
2.66632
0.524607
1.9914
-0.575906
-2.70464
0.759554
2.1724
3.2894
2.14912
3.2423
0.700275
2.00995
0.758992
1.88291
-1.42035
-1.87438
2.05081
1.02178
-1.60766
1.90721
0.93493
-1.44265
-2.08429
0.918409
2.47478
0.862344
2.35347
2.11057
1.0503
2.37914
1.11334
2.5036
-2.63279
1.95762
3.19256
0.846294
1.81172
1.83182
1.03362
-2.73734
0.956921
2.19998
3.34735
0.889202
2.0306
2.76874
1.08122
2.05627
1.16307
2.23677
3.42542
1.36691
1.91475
1.76405
-1.44423
1.59593
1.8733
1.46562
-1.39602
1.45886
1.7468
2.28736
2.00104
1.58435
-1.54833
1.82289
1.67237
2.36528
1.54381
1.99974
2.39831
1.76677
2.0824
2.47362
-1.10688
1.99016
1.2867
-1.53221
-1.91129
2.08621
-1.64591
1.94102
-1.47662
1.23481
2.15105
2.41328
-2.20685
-1.30845
1.51454
2.5894
1.42701
2.45949
2.53996
-2.70689
2.02324
3.3324
-1.21944
1.89081
1.40983
1.85662
2.80663
1.27271
2.09123
-1.37812
-2.8584
1.60954
2.349
3.72808
2.28438
3.53426
1.47277
2.13782
2.2032
2.74961
-0.194873
0.373347
-2.87833
-2.38859
0.437349
3.65656
0.211456
-2.14658
-0.00824134
0.218399
-2.69807
3.33865
-0.00686439
0.399893
0.412863
3.39107
-0.00455241
2.23021
2.78368
0.556817
-0.605378
-2.81642
0.797922
3.4949
-0.59057
-2.25342
0.781192
-2.90954
-2.4148
3.73957
3.437
0.739692
-2.84739
1.00524
3.5708
-2.27899
0.983827
0.934689
2.88216
2.31169
1.13315
-2.52456
-3.02584
1.2996
3.86913
1.22308
3.69055
1.19224
1.70962
1.98123
-1.52536
-1.83011
2.20663
2.10099
-1.79032
2.10048
2.09897
1.97775
-1.66618
-1.91292
2.01689
2.56766
2.18036
1.91352
2.45729
2.01649
2.18043
2.56746
2.29436
2.29437
2.05577
2.05452
-1.61017
-1.60161
2.2674
1.83364
-1.85602
2.46753
2.19387
-1.77303
2.36749
-2.279
1.74002
2.6569
2.5849
1.6377
2.51936
2.36837
1.87255
2.59853
1.99027
2.75497
2.68587
-1.61515
2.01239
1.84438
2.81469
1.94222
2.13676
3.60433
-2.93308
1.86938
2.44162
3.80772
1.6919
2.20222
3.05921
1.93791
2.28717
2.18182
2.58096
3.86618
2.92697
1.33464
2.35711
-1.45317
-2.99911
1.71155
3.84958
-2.59149
-3.10458
2.99123
3.89462
-2.41753
-1.40841
1.64224
3.79439
1.54909
2.6602
-2.60652
-2.27133
2.59489
2.97664
-2.32553
-2.13434
2.87817
2.42944
-1.9571
-1.91598
2.22987
-2.26912
2.35437
-1.94556
2.58076
2.22367
-1.80866
2.47661
2.70486
2.92248
2.81032
-2.54282
-2.54318
2.90536
2.90596
3.76917
-3.26428
-2.36852
2.75761
3.86033
-2.10295
2.3935
-3.03837
2.36826
3.85924
2.10298
3.26416
2.39321
2.75698
3.86037
-3.12099
2.01358
3.88146
-2.49671
1.89968
2.83718
1.78643
2.59848
3.31309
2.05057
-3.56269
-3.01301
2.48821
3.74847
3.34656
2.19598
2.98553
2.35282
3.85383
-1.69631
3.55882
1.99621
3.79083
3.4032
3.01312
3.48829
3.86924
3.62799
1.61421
3.50997
-1.79588
-3.64156
3.7111
2.04745
3.69722
3.77417
3.76869
3.70165
1.91702
-3.24682
2.75501
-2.24809
3.69355
-1.46694
2.58735
-2.15
1.70775
2.52063
-2.10539
1.58087
3.56746
3.20161
-3.75273
-1.73499
3.39103
4.34289
2.07844
3.32838
1.85474
3.40684
4.27585
0.865044
4.12521
-3.70362
-3.24132
4.16844
1.40239
-3.71634
3.60743
3.93535
1.2147
-3.48795
-3.55556
1.34396
4.73863
3.89802
1.09735
4.57113
3.46615
1.43758
4.41552
1.6669
4.63837
3.83212
3.63119
-0.26099
3.63487
0.486608
-3.71712
-4.04352
0.533022
4.10892
3.73153
0.274987
-3.57681
4.27395
-0.0186072
-3.60546
0.269101
3.82727
-0.0164593
0.522458
4.305
-0.0172536
0.523211
3.83359
-4.13786
2.32189
4.92087
-2.28146
2.23189
2.6386
2.18529
4.31338
2.36606
2.11869
-2.70847
-4.67594
2.35668
3.15242
5.52979
2.23656
5.30625
2.18114
2.73298
5.86749
4.26676
0.886181
-1.16631
-3.93856
1.44214
4.24917
-4.31617
-5.81906
4.59409
6.05608
-1.22515
-5.34074
1.51331
5.66578
6.0937
4.55123
1.14403
0.940158
3.08937
-4.48289
3.2044
1.59218
5.00031
3.00856
1.30809
-4.84977
1.48443
3.56361
5.28244
1.15194
3.40691
4.69267
3.33356
1.49937
3.52565
1.82241
5.19756
3.68745
3.65421
0.710512
-0.778432
-3.67003
1.04147
3.8106
-0.771234
-3.76871
1.03536
4.32904
-3.70368
-4.04255
4.09353
3.69824
4.32153
3.83102
0.943726
-2.70798
-3.11832
2.83886
3.22176
3.51399
-3.61337
-3.12626
3.68096
3.30946
-2.73877
3.21755
-2.69504
-3.60488
2.9105
3.69393
-3.52925
3.75223
-2.35461
2.74189
4.66084
2.54208
1.95391
-2.04437
-4.98649
2.01195
5.12585
-2.01584
-2.75886
2.00679
3.18879
-2.93723
-5.05316
3.24018
5.26341
5.32758
2.93979
1.9329
-3.6761
1.30876
3.76704
-3.87805
1.31605
4.31983
1.19752
3.66801
4.02227
1.47551
-3.90115
-3.54257
1.50433
3.86803
3.41271
1.56469
3.70105
1.60042
4.2693
-1.63273
3.96166
-3.43565
2.09662
-3.23613
4.17955
-3.70308
3.61927
3.92209
-3.43519
3.48059
1.85983
4.43284
-2.11004
-3.53334
4.93607
2.64083
3.98702
4.68625
3.85826
4.56282
2.32518
-3.72765
1.67514
4.05306
-5.0034
1.75275
5.40796
1.39986
4.90565
3.6759
1.72812
-3.8517
-5.09956
2.39365
4.19358
5.59127
2.09025
5.38967
1.99258
4.02141
-1.77262
3.00814
2.24043
-4.47463
3.22594
5.05545
3.00691
4.72162
1.95031
3.35187
-2.36888
-4.91431
3.72825
2.91986
5.8124
3.56731
5.31657
3.41058
2.44295
-2.29035
-0.437448
1.48326
0.620631
2.7421
-1.55546
-0.456646
-1.32177
2.19043
-1.88045
0.631078
-1.81091
-2.8901
-0.615905
0.818968
3.26257
-2.20614
-0.135944
1.42761
0.276574
2.65164
-1.49586
0.218084
-1.726
-2.75278
3.12885
-0.00923678
-0.144778
-1.22964
2.12479
0.290549
-1.81757
-0.491055
0.0458549
1.56395
0.780601
-1.24247
0.0141624
0.120572
0.706858
1.48936
-1.09821
-0.0788286
-0.622108
1.35593
-0.065995
-0.976311
-0.367151
0.00649735
0.0294106
0.808885
1.70899
-0.764892
0.0159968
1.44571
0.54053
-0.116367
-1.05537
-0.424241
0.856655
0.0577745
1.81139
-0.805328
1.66429
0.0965893
0.841918
-1.33015
-0.0932039
0.192731
2.00894
1.07115
1.90666
1.01523
0.00714655
1.50751
0.625884
-1.11968
-0.5224
-0.18007
1.72461
0.964548
-1.37386
0.295934
-0.116236
0.987113
1.87577
0.218535
-0.957546
0.926881
1.87655
-0.878269
1.72609
0.913399
-1.38692
0.317329
2.07268
1.13233
2.0864
1.17215
0.467004
-0.0911912
1.16036
0.184728
-1.17451
-2.10259
1.38646
2.55348
-1.46096
0.00701234
1.1153
-1.13652
0.00893077
2.39396
-0.128762
0.264674
1.29464
0.162277
-2.29829
1.45536
2.73737
0.00370863
0.327419
1.4977
2.82434
1.24506
0.00592213
-1.17346
2.04379
-1.73258
0.000466072
0.107575
1.79385
-1.47749
0.00373805
1.88811
0.219059
-1.56973
-0.135644
1.42459
0.27524
2.23149
-1.37303
0.167246
2.38764
-0.000805464
2.14145
0.00345719
0.332075
2.46321
-0.300947
1.25225
0.449588
-1.28022
-2.2722
1.46451
2.71316
-1.53605
1.21444
-1.23069
2.45359
0.422185
1.34072
-0.510014
-2.47911
1.54726
0.703799
2.90567
1.52813
2.87557
1.36948
0.597086
-1.28369
2.1698
-1.86599
-0.353828
1.9546
-1.62674
0.506238
1.94324
-1.62301
1.46875
0.434815
2.28443
-0.512626
-1.49701
2.52964
0.69844
2.50427
2.30398
0.607512
2.60644
-0.161744
1.60545
0.323804
-1.76825
-2.8251
0.414345
3.19858
0.189398
-2.52337
2.92693
-0.00245992
-1.5574
0.192374
-0.00419288
0.370912
3.00424
0.00163118
0.373763
2.65407
1.63815
0.502312
-0.564653
-2.67942
0.763247
3.07331
-0.565269
-1.66098
0.759846
-1.7922
-2.86306
3.23412
3.0456
0.689203
0.788847
-0.536258
-4.61683
3.81577
2.32521
-1.86053
-3.96025
3.5335
-2.26145
-4.70035
3.70813
2.06516
-3.45857
4.02326
-1.76534
2.4656
1.93524
0.0725684
-6.12939
4.53271
-5.06847
0.50789
-5.70485
5.28131
1.65583
-4.45601
-1.35291
-4.89345
4.77352
0.0316663
-5.33167
5.28118
-4.9164
5.66721
-0.471357
-4.0943
4.22194
-3.86694
0.732405
4.46022
-0.411182
5.47302
4.48604
-5.05939
0.224307
0.0854544
3.87565
3.3978
-3.53765
4.34636
5.22912
-0.398909
-4.92834
-0.249363
4.48811
5.82904
-0.270432
5.39238
4.93858
-4.98263
5.14552
-0.246695
4.74174
-4.78814
4.35048
-0.223808
5.55274
0.125204
-0.0678174
5.49385
4.75831
5.73809
4.91834
-4.12285
1.0976
3.5573
-4.24149
-4.64959
1.90292
4.584
3.30007
-4.54707
-2.89044
-5.04188
5.0497
-3.37557
-3.53959
-1.78072
3.84099
2.22732
4.0402
-3.14673
-3.14521
3.5311
-0.851729
3.52937
1.1939
0.636162
3.31498
2.97962
-2.95113
1.97661
-1.49003
2.96019
2.66564
-2.51488
1.58371
1.96067
2.88752
-2.45003
-4.20984
-2.42151
4.52103
2.91655
2.83044
-1.75877
-2.97739
2.05623
-2.21688
3.38452
2.51274
-4.34431
-2.22697
4.29382
2.33357
-3.3182
3.37325
-3.41848
-4.63078
2.04429
3.48607
1.94879
-3.17784
-1.78665
-2.69228
3.66162
3.06266
-3.3747
2.43662
-2.85922
4.08096
3.37334
3.98876
4.69723
-4.38981
-0.0668995
3.52274
0.332264
4.232
-0.0488693
3.97101
0.325569
3.73631
-3.62558
4.67232
4.34475
-4.33825
4.03367
5.01569
0.23773
5.01589
4.40062
0.503699
4.34176
3.8699
-4.07206
2.48388
3.65466
-3.61484
1.44302
-2.28536
2.75746
-4.29733
-4.71879
-5.23799
3.30432
4.79358
-3.62535
-3.62494
4.27988
-2.06856
4.27914
2.04635
-3.53239
-3.73138
-2.40218
4.22287
2.38663
4.491
2.06816
3.00001
2.67872
-2.54724
-3.30643
-3.12892
-1.97013
3.85571
1.9099
-5.86738
4.48047
0.196534
-0.0960272
4.51701
4.41052
-0.0382299
5.77263
-0.0460456
0.155556
4.78363
0.208066
-6.03738
4.82974
0.458824
4.79733
4.90127
-5.12315
5.10028
0.134478
-4.75571
5.43682
-0.135847
5.32964
-4.93796
5.12067
-0.0775696
-4.74024
5.10382
-0.0316591
0.13443
5.43361
0.184527
-5.28448
5.53612
5.54
0.421299
5.37127
5.37521
5.66416
2.78789
3.07005
1.03694
-2.6833
0.706337
3.16439
3.70138
0.706837
3.49492
-3.13422
3.31893
3.2991
1.07759
-2.91402
3.01835
1.08135
3.48641
0.854954
3.88895
3.51127
1.19938
3.71452
3.37577
-5.34771
4.20566
-0.265009
3.66838
0.521535
4.12004
0.492925
5.32115
4.46046
-4.71594
-0.826694
4.13699
1.08149
4.01153
0.750862
4.50892
-4.70055
4.72879
-4.39758
5.0211
-0.229145
4.0912
-3.73356
0.498451
4.69759
-4.34249
0.471314
4.73237
5.01769
-4.22515
-0.77939
4.56267
1.03374
4.56594
4.4569
0.732398
5.01498
5.01876
2.09047
3.03929
-2.64155
1.68686
1.65296
3.0641
-2.64732
2.25987
2.16378
1.68325
3.31823
3.20074
-2.80875
2.37831
1.73577
3.49239
2.4546
2.2669
1.79698
1.87521
3.65851
2.57154
2.69983
2.97749
-2.55726
-1.52003
2.94568
1.99009
3.43486
-1.50687
3.24358
1.98372
-2.80022
3.08364
3.24895
-2.824
3.09911
2.97206
3.43413
1.60563