/*--------------------------------*- C++ -*----------------------------------*\
  =========                 |
  \\      /  F ield         | OpenFOAM: The Open Source CFD Toolbox
   \\    /   O peration     | Website:  https://openfoam.org
    \\  /    A nd           | Version:  9
     \\/     M anipulation  |
\*---------------------------------------------------------------------------*/
FoamFile
{
    format      ascii;
    class       surfaceScalarField;
    location    "0.00345";
    object      phi;
}
// * * * * * * * * * * * * * * * * * * * * * * * * * * * * * * * * * * * * * //

dimensions      [0 3 -1 0 0 0 0];

internalField   nonuniform List<scalar> 
89430
(
-8.75208
-0.267352
9.67514
6.133
7.68104
5.6586
-0.150905
-0.881057
-5.27632
-7.63571
0.916528
5.30565
8.22002
0.439159
7.27937
5.06337
-0.422027
0.0418945
-4.16431
-5.8195
0.398402
4.17979
6.16951
-0.109246
6.20739
3.97167
0.387475
7.79029
5.97655
-0.169253
-8.53539
9.38843
-0.694252
5.96822
0.507485
-7.47732
-0.544771
0.464001
7.5161
5.59081
0.391746
5.28579
7.28162
5.36526
-0.543216
0.712715
-0.415394
-4.79224
-6.83947
4.82275
7.25961
-6.50562
0.0362308
0.226605
6.44999
4.41885
0.132053
4.22298
6.13766
4.12901
0.339733
-0.154871
5.91117
4.5052
5.60527
7.66765
-0.288313
5.89264
-0.332329
4.39781
-0.647092
0.585194
5.46574
3.15984
4.80058
7.04281
-0.32236
5.17318
-0.610185
2.50257
0.135832
0.196621
4.16845
1.63498
3.77728
5.88325
3.84404
1.61728
-6.07544
-5.80161
0.220351
-0.444659
7.1441
5.38117
-0.215754
6.12721
-0.18498
5.81954
4.82798
7.76313
5.91922
-0.329257
-0.408997
8.69078
-0.384166
4.73512
7.17515
5.4592
-5.94406
-5.7252
-0.642512
7.02188
5.21463
7.66263
5.77966
-7.59436
0.574787
5.76001
-0.67359
8.3338
0.554004
5.60765
-5.6842
-0.682731
4.25494
-5.81634
4.53937
-0.781001
6.8571
4.98602
5.47438
0.474306
3.787
4.18627
0.823603
-5.25434
-5.14579
-0.744116
6.33444
4.39878
5.52721
-0.662846
8.07023
5.41264
-0.742345
3.89411
7.02055
5.07647
-0.43443
6.62347
4.70451
-0.524251
7.76861
-0.690471
3.49549
-4.95599
-4.84814
-0.555238
6.01191
4.12079
6.74659
4.75164
-6.7895
0.287293
4.64327
0.00221025
7.11051
0.514924
4.49753
-4.49594
-0.250191
2.85278
7.45486
-4.8545
3.11968
-0.288459
5.61376
3.88649
4.51124
0.450531
1.78231
2.04569
-0.0628664
-4.06694
-3.7945
4.72788
3.56749
4.34066
0.328942
6.74293
4.1618
0.0948618
2.69504
5.7954
3.88048
5.19615
3.70398
6.32164
2.63803
-5.04767
-7.25792
5.07556
7.75456
0.754343
8.35633
5.30711
-0.590243
8.75971
5.55819
0.78547
-0.772286
0.832212
9.16189
-0.594367
8.67889
0.934639
-0.830085
5.0228
0.915606
5.2713
5.67235
-0.761546
0.555937
9.92469
-0.832241
-8.19291
0.603076
5.72742
8.94951
-5.48875
-7.93884
5.5299
8.62406
9.10588
5.78609
9.58791
-0.780201
0.548032
5.74328
5.52579
-4.4952
-6.33957
4.52347
6.71552
-7.51954
0.317328
0.013727
7.72251
0.336448
4.72441
-0.0329889
7.95282
5.0307
8.20812
-0.600312
4.77048
-0.284311
4.50967
9.58565
6.09423
-0.280173
5.82014
10.2704
5.79004
10.159
-0.307487
-8.42463
5.91857
9.23225
-8.36937
5.86221
9.15406
0.269287
5.90555
5.97109
-7.0748
0.388936
7.22881
4.41062
0.31496
-0.124574
5.27124
-4.10575
3.98853
3.80694
-6.58674
6.6895
4.24737
3.79133
5.6333
-1.77083
1.96624
0.0558815
0.537986
0.200184
0.00745091
0.0114386
-0.0495947
-0.0744306
0.00987792
0.00123127
0.00103225
-0.00528769
-0.0106469
0.00109026
1.15735e-05
1.22145e-05
1.22433e-05
-2.39879e-05
-5.20358e-05
-3.1677e-05
-1.93356e-05
-1.33239e-05
-1.44203e-05
-1.26783e-05
-1.28577e-05
9.64219e-07
3.47894e-06
-2.4007e-06
1.57401e-06
-0.205497
0.144103
0.106097
-0.298931
-0.790074
0.123238
2.11118e-05
-1.73139e-05
1.91787e-05
-2.48557e-05
-9.89145e-05
1.45237e-05
-1.42539e-05
9.67436e-06
-1.5496e-05
8.98608e-06
-3.05984e-05
-1.7557e-05
-2.21773e-05
5.4128e-06
-0.230888
-0.676122
0.0888134
0.0979792
0.159408
0.380698
0.299379
0.803809
-0.511677
-0.395156
-0.288053
-0.398633
-1.75095
-0.46882
0.647954
0.541961
1.80772
-2.10717
-0.693656
-0.782784
2.10984
0.88588
0.963294
0.630369
-2.02332
0.00706582
-0.560035
0.275329
2.04102
1.97421
1.63262
-2.13864
-1.83487
0.936841
-0.028654
-0.108203
-0.478907
0.095424
0.152438
0.0782694
0.81993
-0.477174
-0.304016
-0.850955
0.350795
0.480897
-0.123796
-0.774592
-0.187126
0.5089
0.301284
0.180251
-0.31979
-0.134483
-0.131515
0.124701
0.336965
-0.382267
-0.517958
-0.175052
0.170231
0.130115
0.283283
-0.412249
-0.253988
-0.889136
0.88688
0.807226
0.299333
-0.673039
-0.812712
0.27073
0.750794
0.588915
-1.0386
-0.810371
-0.324682
0.777372
0.359023
1.08492
-0.417462
0.51138
0.237713
0.959877
-0.687124
-0.210177
-1.39717
1.4969
0.575528
-0.472211
0.53952
-0.428954
0.391814
-0.418522
-1.47859
-0.233723
0.420225
1.55669
1.67346
0.337361
-0.468984
-0.145574
-1.61521
0.554677
0.462753
-0.462508
1.71263
-0.247457
0.533985
2.49244
-1.6727
0.00108411
-2.28887
0.152918
1.68823
-1.2571
-1.02027
2.69154
1.37802
-2.16443
1.1779
0.271211
0.883892
-0.599707
-0.250732
0.467436
0.3306
0.386822
-0.495604
0.416666
0.489796
0.286552
0.32974
-0.412543
0.439085
-0.366195
1.24038
0.443406
-0.343997
-0.473099
0.732465
0.459642
0.814852
-0.429842
1.16059
0.44306
0.154847
0.0479707
-0.544544
-0.157164
-0.0978513
-0.414061
0.0869304
0.170154
-0.0262289
-0.51718
0.201421
-0.134682
0.07982
-0.057332
-0.162732
-0.701144
0.173564
0.143436
0.20776
-0.123063
-0.556614
0.163885
-0.694374
-0.164145
0.253959
0.182515
-0.672501
-0.23538
-0.214617
-0.250558
0.286469
0.266933
0.718261
-0.321491
-0.73541
0.359569
0.777686
-0.418032
-0.800197
-0.268969
0.283795
-0.228575
0.216768
-0.698981
-0.295298
0.199467
1.03772
0.633953
-0.772822
-0.167139
0.565747
0.496521
0.189031
0.580664
0.669123
0.0929877
0.311992
0.510323
1.31602
-0.518067
-0.294042
0.972731
0.597557
0.893006
0.60345
-0.309233
-1.43516
-0.469497
0.317883
1.14657
0.496084
-1.50385
0.668748
1.74596
0.415867
-0.440462
0.0552142
-1.97569
0.206606
2.18037
0.575842
-1.9996
-0.563605
0.64587
-0.135361
2.05238
0.480065
-0.48086
-1.72296
-0.239931
1.78225
0.551269
-1.437
-0.371586
0.707698
1.50938
0.431144
0.50414
-1.65828
-0.279521
-0.439429
1.69899
1.06848
2.11036
-2.02165
-0.782228
0.768164
2.23911
-0.608261
-0.153086
0.540494
-2.40681
0.724383
-0.613942
-0.0279116
2.09886
0.383376
0.7093
1.23514
-1.97913
-1.01434
0.791689
1.98129
2.20907
-0.0996451
-0.519353
0.48432
-2.37447
-0.857046
-0.810449
0.92438
1.10897
-2.1738
0.683881
-0.422843
0.489959
-0.467715
1.51888
-0.994068
-0.345088
0.399412
1.01858
-0.427273
0.483314
0.578943
1.41569
-0.42136
-0.912166
-0.680446
-0.305203
0.932803
-0.385178
-0.369896
-0.493668
-1.35623
-0.127311
2.55963
0.281636
1.44527
-0.61333
1.44715
-1.95775
-1.31302
0.721972
1.9733
-0.299444
-2.38063
-1.02833
0.388702
2.37419
1.18731
1.15341
1.64229
-1.9954
-1.4938
-0.998165
2.0182
-0.0568437
-2.10563
-1.57381
0.154187
2.29724
1.53775
-0.410362
-1.59449
1.77187
-1.53807
0.524331
1.5207
-1.73221
-1.73287
-0.480585
1.66676
0.626279
1.98998
0.00102934
-1.30885
0.112487
0.386756
1.3389
-3.43174
-1.93455
0.174652
3.26839
2.38319
-0.00695828
-0.749464
0.00538825
-0.0118799
0.106117
2.4039e-05
-0.0002381
-0.000132163
-9.77975e-06
1.12878e-05
1.18301e-05
2.43403e-05
1.14516e-05
-0.000258035
-0.000236529
-0.000247497
-0.000536033
0.000445586
-0.00205974
0.000378273
1.87087e-05
-0.312567
0.218299
-0.662678
0.254165
0.00429931
-2.33986
0.708809
-0.427419
2.25889
0.0436133
-0.743207
-3.37139
0.0713604
3.08031
1.19812
-0.544445
0.0147467
-0.00779257
-0.00478075
0.0302913
0.0949038
-1.47279e-05
-0.000303117
0.00011542
5.15412e-05
1.19307e-05
-0.000286005
-0.000252896
-0.000239624
-0.000312926
5.31994e-05
-0.000236528
9.6348e-05
6.23726e-06
-0.00249677
0.000356264
-0.00114801
1.7328e-05
0.00052325
-0.0664825
0.00425982
0.000291297
-0.00132988
0.00893262
-0.0445663
-0.0054381
0.00017833
0.00375416
0.00462815
-0.0951078
0.00242614
-0.0265816
-0.000754794
0.0119927
0.0129737
-5.38498e-05
-4.02504e-05
2.36148e-05
1.59255e-05
3.29207e-06
-5.24197e-05
-3.7018e-05
-3.73169e-05
-4.78768e-06
1.37716e-05
3.83701e-06
-2.61515e-05
-5.12732e-05
-2.48805e-05
-4.6081e-05
-1.60894e-06
-6.72898e-06
-1.29038e-06
-6.76793e-06
-4.61729e-06
-4.414e-06
-4.61094e-06
-0.000108682
-6.64434e-06
4.23247e-05
1.50687e-06
-5.02782e-05
6.47789e-06
3.91982e-05
2.93387e-06
-5.05248e-05
-5.19635e-05
-5.10122e-05
-5.79811e-08
-1.83325e-05
-9.90021e-06
3.1216e-06
1.10791e-05
5.65205e-07
-1.82668e-05
-1.36982e-05
-1.36352e-05
2.51057e-05
-4.87657e-05
4.06562e-06
2.98714e-05
-4.92569e-05
-5.38066e-05
-5.24861e-05
-3.51954e-05
-3.5461e-05
-4.26147e-05
-4.27912e-05
3.33824e-06
3.21948e-06
1.30722e-06
-2.15112e-05
-7.23087e-06
-1.65477e-05
-6.54639e-06
-5.46225e-06
-4.9185e-06
-5.0689e-06
-4.36399e-06
-2.55013e-07
1.08988e-06
2.38737e-07
-2.80144e-07
2.3977e-06
4.09271e-07
-2.19191e-05
-2.11244e-05
-2.18839e-05
-2.19338e-05
8.40065e-07
2.00157e-06
3.48045e-07
-8.03474e-06
-7.00046e-06
-7.78655e-06
-6.74406e-06
5.44225e-07
1.04736e-07
-2.40447e-06
-2.37833e-06
-2.29817e-06
-2.60084e-06
6.80783e-06
6.34705e-06
2.35542e-06
-1.95505e-05
-8.40732e-06
-7.47417e-06
-8.52456e-06
-9.63593e-06
-3.30073e-05
-2.67615e-05
5.17085e-07
4.55664e-07
1.59881e-07
4.51127e-08
7.79895e-08
1.85861e-08
6.40463e-09
1.22756e-07
2.07168e-08
4.38114e-08
9.64038e-08
1.61678e-08
2.43473e-08
4.38229e-09
5.5976e-07
5.96429e-07
1.81152e-07
-4.66074e-06
4.71099e-08
4.5868e-08
1.41794e-08
5.85187e-09
5.37828e-09
1.32424e-09
1.31842e-09
6.4751e-09
1.08516e-09
1.84633e-09
4.2681e-09
6.99618e-10
1.09588e-09
1.89704e-10
3.77661e-08
1.23844e-08
-3.05536e-07
3.38607e-09
1.01502e-09
2.4793e-10
8.8491e-11
1.04706e-10
5.27649e-11
7.14806e-11
2.98925e-11
8.05045e-12
-0.0252926
-1.41916
-0.302917
0.43345
0.402556
1.47592
-2.85767
-0.53913
-3.57352
0.679115
3.33655
0.00329903
-0.193446
-0.0157444
-0.00549295
0.0237622
0.0103675
-2.35095e-05
1.61948e-05
-0.00010863
3.96236e-06
7.10918e-06
8.09197e-06
1.23631e-05
6.67185e-06
-0.000139831
-0.000144338
-0.000133186
-0.000141275
-4.96384e-05
-0.000358594
0.000299747
-0.00137465
0.000250679
5.41289e-05
-0.0226009
-0.289867
0.15588
-0.560767
0.197727
0.0264973
-2.47591
0.642465
-0.165674
-0.358498
2.22212
0.209696
-0.836659
-3.39458
-0.300003
0.367532
2.86944
1.18419
-0.287725
-0.0201516
-0.00322694
0.0154276
0.0175429
0.0459872
-1.5473e-05
-0.000135434
-2.34541e-05
5.53977e-05
2.744e-05
1.98877e-05
-0.000100088
-0.000113566
-8.63068e-05
-0.000199704
-1.34294e-05
2.75852e-05
-0.000146244
6.79389e-05
1.4603e-05
-0.00155412
-5.85127e-05
0.00021343
-0.000663579
5.84396e-05
0.000392295
-0.0389078
-0.00142082
0.00202285
0.00136249
-0.000260167
0.00496809
-0.020015
-0.00272209
-0.000772256
0.000643016
0.00157324
0.00196254
-0.0385439
-0.010956
-0.00283025
0.0021289
0.0044803
0.00493392
-2.67961e-05
-1.97719e-05
-5.82786e-06
1.22142e-05
6.88849e-06
3.17776e-06
-2.31167e-05
-2.13498e-05
-2.01054e-05
-9.52076e-06
8.78283e-06
3.43311e-06
-1.89841e-05
-3.40841e-05
-1.71207e-05
-2.72555e-05
-2.11936e-07
-4.03357e-06
-1.99181e-07
-4.43064e-06
3.07151e-06
2.35934e-05
8.37936e-06
-9.4362e-05
-0.000168048
-7.28833e-05
-0.000107214
-8.53278e-07
1.73602e-06
-7.45881e-07
-1.93758e-06
-1.77215e-06
-1.89915e-06
-1.61409e-06
-3.65714e-05
-4.71991e-06
5.19279e-06
2.4936e-05
3.58895e-06
-3.65527e-05
-3.37586e-05
-3.34298e-05
-1.03041e-05
-8.66954e-07
-3.94728e-06
1.32497e-06
5.03179e-06
6.92903e-07
-1.06963e-05
-1.13635e-05
-1.31025e-05
8.83736e-06
-7.075e-05
-5.77021e-06
-4.16373e-05
4.68086e-06
1.38339e-05
1.46938e-06
1.49291e-06
5.24543e-07
-8.17667e-06
-3.83421e-06
-5.45968e-06
-3.30534e-06
-2.43433e-06
-2.54202e-06
-2.08064e-06
-2.18887e-06
-1.81248e-07
6.28546e-07
1.80666e-07
-1.58118e-08
1.27391e-06
4.40083e-07
5.07366e-07
1.13796e-06
3.42605e-07
-5.25473e-06
-4.74204e-06
-4.94391e-06
-5.65331e-06
2.41617e-07
7.65648e-08
-1.31843e-06
-1.77586e-06
-1.43467e-06
-1.8689e-06
3.0798e-06
2.87089e-06
1.42223e-06
-5.72235e-06
-4.20144e-06
-3.12568e-06
-4.70965e-06
-4.00224e-06
-1.15745e-05
-7.59608e-06
2.38443e-07
2.14131e-07
8.74546e-08
1.72149e-08
4.13293e-08
1.23241e-08
4.16904e-09
6.9285e-08
2.51149e-08
2.23483e-08
4.86861e-08
1.61952e-08
1.10777e-08
4.00196e-09
2.62549e-07
2.803e-07
1.28531e-07
-2.34626e-06
2.14113e-08
2.12338e-08
8.7478e-09
2.51891e-09
2.70731e-09
8.44729e-10
6.86533e-10
3.63001e-09
1.32383e-09
9.29866e-10
2.17533e-09
7.60544e-10
5.3857e-10
1.9622e-10
1.72967e-08
9.03679e-09
-1.44761e-07
1.54875e-09
6.9992e-10
1.0931e-10
5.78666e-11
5.08535e-11
6.15898e-11
3.76943e-11
3.3058e-11
8.59401e-12
-2.72295
-0.914546
1.02365
-0.421505
2.67038
0.868242
-3.16282
-1.11863
-3.43372
1.2275
3.39111
6.57367e-05
-1.39687e-05
4.35324e-05
9.85657e-05
-1.15213e-05
-5.50866e-05
-2.75024e-05
-0.000114934
-0.000382047
-0.000211217
-0.000178487
-0.00012223
-9.88971e-05
-0.000132037
-0.000127475
-3.67608e-05
-0.000119144
0.000117568
-0.000469012
0.000111244
3.21167e-05
-0.0283596
-0.190103
0.0627363
-0.274184
0.0714616
0.0251168
-2.56196
0.421801
-0.327768
-0.161259
1.77429
0.351437
-0.78694
-3.04837
-0.488375
0.465818
1.39353
0.919156
-0.0356525
-0.00495357
-0.000480904
0.00201165
0.00243256
0.00455047
-4.28835e-05
-2.96349e-05
1.43424e-06
2.3606e-05
2.32664e-05
-3.04959e-05
-2.73343e-05
-2.72351e-05
-2.59387e-05
-8.17656e-05
-9.82208e-06
3.76088e-06
-4.72071e-05
3.83417e-05
3.50247e-06
-0.000444727
-4.01128e-05
5.92823e-05
-0.000137553
3.41281e-05
0.00018978
-0.00841094
-0.000629678
0.000195009
0.000411664
0.000104828
0.000990989
-0.00194664
-0.000326189
-0.00015288
7.63421e-05
0.000112083
0.000183531
-0.00212806
-0.000594921
-0.000307151
0.000109036
0.000180391
0.000262745
9.33066e-07
5.11966e-06
-2.10351e-06
-2.21121e-05
-7.36083e-06
-9.67555e-06
-6.05181e-06
-9.46023e-06
-1.15003e-05
-1.31756e-05
-9.77674e-06
-2.63931e-07
-8.9537e-07
-7.07346e-07
-9.36736e-07
-2.17523e-06
-2.53208e-06
-2.48855e-06
-3.24473e-06
4.31936e-06
-2.9033e-07
-1.43185e-05
-1.62136e-05
-1.72451e-05
-1.32722e-05
-1.13646e-06
7.75881e-06
2.99135e-06
-4.03035e-05
-5.77059e-05
-1.99913e-05
-3.44896e-05
1.91647e-06
5.97817e-06
1.71432e-06
-5.56682e-05
-3.10692e-05
-2.82807e-05
-1.65244e-05
-2.29061e-06
-2.07815e-06
-1.70759e-06
-1.56114e-06
1.0442e-06
4.35363e-07
-1.01929e-05
-3.17758e-06
-4.60854e-06
-1.79884e-06
-4.29811e-07
-3.7409e-07
-3.70699e-07
-3.73776e-07
-1.94545e-05
-2.51661e-05
-6.64265e-06
2.27321e-06
6.90601e-06
1.15049e-05
-2.4657e-05
-2.67393e-05
-2.62437e-05
5.94159e-07
6.17083e-07
-2.01408e-07
-2.92067e-06
-4.17259e-06
-4.0971e-06
-4.144e-06
-3.95645e-08
2.31686e-07
1.78481e-08
1.02864e-09
4.18466e-07
1.4985e-07
1.25233e-07
2.72413e-07
8.31829e-08
5.95288e-08
2.39693e-08
9.8668e-07
9.25159e-07
3.03821e-07
-2.38047e-06
-2.72658e-06
-3.09797e-06
-3.10677e-06
-4.26169e-06
-4.22098e-06
-3.16341e-06
-3.94957e-06
6.62624e-08
6.71738e-08
4.13546e-09
5.07483e-09
1.34236e-08
2.93739e-09
2.43912e-09
2.26697e-08
7.79296e-09
5.4761e-09
1.28966e-08
3.98017e-09
3.22205e-09
1.07762e-09
6.58164e-08
7.24502e-08
2.64503e-08
-6.02035e-07
5.63067e-09
6.0332e-09
6.94257e-10
7.01093e-10
8.18247e-10
1.7905e-10
2.23928e-10
1.14432e-09
3.60139e-10
2.38899e-10
6.07507e-10
1.76566e-10
1.5806e-10
4.58371e-11
4.33494e-09
1.90868e-09
-3.51739e-08
4.05137e-10
9.80585e-11
2.9587e-11
4.85656e-12
1.42109e-11
1.31308e-11
9.64917e-12
7.28306e-12
1.88649e-12
-3.10492
-1.26096
1.34626
-0.489627
3.33968
0.98534
-2.56785
-1.22867
-2.34982
0.885139
1.49164
0.0133029
-0.02734
-0.0273111
0.0173472
0.0232986
-0.0696372
0.000596406
-0.00290091
-0.00242891
0.000877656
0.00102755
-0.00512086
-0.00978822
-0.0439071
0.00906546
-0.0398325
0.00953734
0.00531426
-1.52428
0.0632205
-0.271815
0.0489831
0.284398
0.170525
-0.122842
-0.378086
-0.0830932
0.0256466
0.0446607
0.0403581
-0.00316397
-0.0073551
-0.00491532
0.00156915
0.00171758
0.0008737
-0.000487292
-0.000184931
7.63679e-05
0.000113183
-0.000286644
0.000201449
-0.000113976
-0.000121731
9.71404e-06
4.74065e-05
1.18028e-05
-0.000113121
-0.000100998
-9.53127e-05
-3.17392e-05
-2.61521e-05
-2.65276e-05
-2.34858e-05
-9.39276e-05
-6.18839e-05
1.54924e-05
-4.13053e-05
5.39966e-05
1.96707e-05
-0.000176555
-8.03397e-05
-0.000115551
-0.000433303
-4.04112e-05
-8.53052e-06
2.22899e-05
1.18801e-05
9.51025e-05
-4.53857e-05
-4.60193e-06
-2.01959e-05
4.54942e-06
8.2111e-06
3.70997e-06
-1.8344e-05
-1.66464e-05
-1.01337e-05
-4.58026e-06
-5.36576e-06
-5.31425e-06
-0.000473727
-4.75265e-05
6.91324e-07
-5.78776e-05
6.2308e-05
4.93038e-05
-5.22391e-05
-3.64954e-05
-3.58052e-05
-5.21296e-05
-1.3904e-05
9.4528e-06
2.09108e-05
-5.84967e-06
1.95125e-06
3.64276e-06
6.67627e-07
-9.04515e-06
-6.81523e-06
-2.50345e-05
-8.59561e-06
-4.36886e-06
-5.08287e-06
-4.04082e-06
-5.10786e-06
9.21903e-07
2.20084e-06
1.1324e-06
-8.44032e-06
-1.15171e-05
-5.88458e-06
-5.76713e-06
4.59788e-07
9.76856e-07
4.81672e-07
-9.33914e-06
-4.11861e-06
-3.27168e-06
-1.86241e-06
2.59683e-07
9.98581e-08
-1.20903e-06
-7.17281e-07
-7.04293e-07
-5.63132e-07
5.70776e-06
6.42431e-06
1.00182e-06
-1.48865e-05
-2.30209e-05
-9.81425e-06
-1.36107e-05
-9.97705e-06
-7.46173e-06
-6.43478e-06
-6.40348e-06
-1.19621e-06
-1.18064e-06
-8.04959e-07
-7.88739e-07
8.69844e-07
1.59252e-06
1.93514e-08
-1.04628e-05
-1.02938e-05
-7.13981e-06
-1.03829e-05
1.8086e-07
2.48162e-07
-7.09646e-09
6.83525e-08
1.38113e-07
5.64807e-08
2.19907e-08
5.3804e-08
1.90971e-08
1.4911e-08
4.79087e-09
3.83801e-07
5.52599e-07
1.12506e-07
-2.66668e-06
5.61692e-08
9.41805e-08
1.66017e-09
1.12234e-08
1.51424e-08
-1.57076e-10
3.42411e-09
7.17627e-09
2.55284e-09
9.45619e-10
2.69381e-09
8.11134e-10
7.13037e-10
2.06295e-10
2.49012e-08
3.77904e-08
9.48422e-09
-1.63698e-07
3.53219e-09
5.76297e-09
2.82917e-10
5.88024e-10
8.35868e-10
-4.15668e-13
1.56184e-10
3.2211e-10
1.05917e-10
3.7339e-11
1.18597e-10
3.34346e-11
3.02762e-11
8.42704e-12
1.48544e-09
6.79467e-10
-9.63855e-09
2.04551e-10
4.09948e-11
2.59632e-11
1.36424e-12
6.44462e-12
3.98259e-12
1.35714e-12
1.26477e-12
3.19744e-13
-1.20666
1.27458
-0.0314097
1.40728
-1.15653
0.0345038
-1.50647
1.70764
-0.191707
1.8435
-1.60719
0.195464
-2.4728
1.63842
-0.331201
2.73777
-1.83027
0.429315
-1.58828
-3.05518
-1.74992
1.94232
1.20581
1.69057
-0.00791128
-0.00966531
-0.0166386
0.00153766
0.0010531
-2.10976
-0.742688
2.2153
0.143098
0.848038
0.154099
0.917527
-1.69525
-0.709271
0.76361
1.70787
-0.64042
0.401169
-1.73349
-0.731165
0.592948
0.876307
-0.277453
0.012804
-0.177404
-0.0558441
0.0162067
0.0243561
-0.00300622
-0.0580345
-0.00280547
-0.0111058
0.00388432
0.00616104
0.00349248
-0.000304679
-0.00105485
-0.000264289
4.89985e-05
0.000102954
6.96711e-05
-1.91907
-0.587938
0.134962
-0.0160112
0.526244
0.950958
-0.124786
-0.0407985
0.0121654
0.0181985
-0.0147915
0.01982
-0.00291367
-0.000941325
0.000138144
0.000327459
-7.93774e-05
0.000393358
-6.50635e-05
-1.87637e-05
-6.41589e-06
2.04706e-05
2.49814e-05
7.1446e-06
-4.55469e-05
-6.91284e-05
-4.08789e-05
-1.88208e-05
-2.43411e-05
-2.44613e-05
-1.7286e-05
-8.46402e-06
-8.40789e-06
3.01318e-06
5.95122e-06
2.13614e-06
-1.25151e-05
-1.25315e-05
-9.3335e-06
7.65174e-07
3.46484e-07
-6.66027e-06
-2.00722e-06
-1.70812e-06
-1.10729e-06
-9.79036e-07
-5.10829e-07
-4.34516e-07
-3.6089e-07
-9.46849e-07
-7.10019e-07
-6.44327e-07
-5.63019e-07
9.23292e-05
-0.00266219
-0.000530393
-1.31152e-05
0.000214524
0.000363107
-8.41082e-05
-8.17499e-05
2.62313e-05
3.9464e-05
3.78143e-06
-0.000104684
-5.57218e-05
-6.13246e-05
8.34193e-06
4.02728e-06
5.94755e-06
1.60436e-06
-3.99466e-05
-1.46977e-05
-3.25137e-05
-1.13204e-05
-8.35555e-06
-5.24806e-06
-8.218e-06
-4.77604e-06
7.74795e-07
1.09653e-06
4.27525e-07
-4.31937e-06
-3.18982e-06
-3.5489e-06
-2.44743e-06
1.17878e-07
2.55006e-07
8.66555e-08
-1.18578e-06
-8.79992e-07
-9.17864e-07
-1.10946e-06
4.32156e-08
1.64763e-08
6.06383e-06
7.31208e-06
1.63194e-06
-4.08503e-05
-4.35491e-05
-1.77843e-05
-1.80473e-05
-6.57547e-06
-5.59661e-06
-6.73909e-06
-6.72405e-06
1.25629e-06
2.22228e-06
4.56938e-07
-8.11221e-06
-5.72915e-06
-7.82543e-06
-5.30261e-06
2.27117e-07
3.58296e-07
8.23203e-08
3.52359e-08
6.32576e-08
2.0519e-08
4.96927e-09
1.12618e-08
3.53899e-09
2.03066e-09
7.15797e-10
3.48362e-07
4.64644e-07
1.47807e-07
-1.13289e-06
6.95594e-08
1.34483e-07
2.81703e-08
1.20494e-08
2.04928e-08
4.2565e-09
1.72041e-09
3.10079e-09
9.89353e-10
2.11806e-10
4.6807e-10
1.48084e-10
8.61888e-11
2.94094e-11
2.01717e-08
2.93181e-08
9.61189e-09
-7.69591e-08
3.74855e-09
7.17822e-09
1.51094e-09
6.17739e-10
1.08844e-09
2.08324e-10
8.23235e-11
1.42187e-10
4.47997e-11
9.12337e-12
1.92912e-11
6.11422e-12
3.42482e-12
1.14753e-12
9.33881e-10
5.73394e-10
-3.88285e-09
1.89686e-10
8.19398e-11
2.9992e-11
1.00115e-11
3.73745e-12
1.93623e-12
3.76588e-13
2.41585e-13
3.90799e-14
-2.58532
-0.571003
-0.818559
0.927315
2.46091
0.992355
-2.11377
-1.73422
-1.69368
1.92314
2.33981
2.04057
-2.22569
-2.07168
-1.945
1.87316
2.08215
1.71119
-0.193797
-0.177607
-0.248901
0.0400066
0.0382938
0.030375
-0.00639795
-0.00527462
0.000733909
-0.00448722
0.000797075
0.00062884
-1.23205e-05
-8.5538e-06
6.48132e-06
7.04993e-06
-2.08856e-05
-1.04882e-05
-1.0903e-05
-9.19312e-06
-2.24278e-05
-1.425e-05
-1.20177e-05
-1.07392e-05
-8.35247e-06
-8.9191e-06
0.341145
-0.571269
0.250887
-0.548571
-1.58589
0.337554
-0.433512
-2.58081
-1.31538
1.39415
2.53846
0.771166
-0.400533
-2.06426
-1.09567
0.601553
0.565425
0.380738
-0.00759773
-0.0339412
-0.0124878
0.00311993
0.00352584
0.00177593
-4.48623e-05
-0.000182531
-4.13643e-05
1.93712e-05
2.482e-05
1.32624e-05
-5.67656e-05
-4.1639e-05
-2.69641e-05
-2.16156e-05
-1.78411e-05
-1.25459e-05
-1.94979e-05
-2.39304e-05
-1.41254e-05
1.07631e-06
6.94172e-07
-5.54609e-06
-1.4143e-06
-1.13965e-06
-8.1505e-07
-9.16098e-06
-1.8741e-06
-1.72018e-06
-1.07907e-06
-4.22498e-06
-1.41184e-06
-1.54624e-06
-1.05507e-06
-0.111497
0.0281757
-0.115224
0.0445875
0.0486073
-0.156311
-0.0564287
-0.0157692
0.0189026
0.0119339
0.0204356
-0.00104999
-0.000339786
-0.000141247
8.78169e-05
5.11934e-05
0.000129058
-1.13263e-05
-1.36079e-05
-4.71013e-06
2.996e-06
5.85902e-06
1.7407e-06
-9.34151e-06
-9.26197e-06
-1.13727e-05
4.12205e-07
6.26471e-07
2.86439e-07
-3.34598e-06
-1.46553e-06
-1.32095e-06
-1.26635e-06
-6.36528e-07
-4.62376e-07
-4.54389e-07
-4.43115e-07
-9.46072e-07
-9.7471e-07
-8.0208e-07
-9.5239e-07
7.30095e-08
3.78433e-08
-0.00175149
-0.000345615
8.45052e-05
0.00012929
0.000221454
-4.54056e-05
-3.39026e-05
-1.10242e-05
9.56815e-06
1.47126e-05
6.24439e-06
-2.67359e-05
-2.59055e-05
-1.7463e-05
1.19621e-06
1.59728e-06
6.97867e-07
-1.32822e-05
-3.60238e-06
-4.41199e-06
-2.08211e-06
-2.77659e-06
-1.65958e-06
-1.61423e-06
-1.25044e-06
1.80002e-07
2.87393e-07
1.02377e-07
-1.2013e-06
-1.16481e-06
-1.23659e-06
-1.41875e-06
2.05548e-08
3.52873e-08
1.31079e-08
4.02463e-09
1.78903e-09
2.12075e-06
2.77465e-06
1.52701e-06
-6.65354e-06
-2.194e-05
-8.5208e-06
-7.90163e-06
-4.60418e-06
4.44487e-07
7.30577e-07
3.08022e-07
-2.864e-06
-2.01084e-06
-1.84078e-06
-1.5044e-06
7.47563e-08
1.16082e-07
4.64945e-08
9.75532e-09
1.50044e-08
5.21398e-09
1.02653e-09
1.72373e-09
5.78311e-10
1.95016e-10
7.79785e-11
1.328e-07
1.86542e-07
7.48429e-08
-4.54495e-07
2.63838e-08
4.70687e-08
1.7578e-08
4.29671e-09
7.35443e-09
2.71197e-09
5.29283e-10
8.08065e-10
2.6996e-10
5.15286e-11
8.27285e-11
2.61124e-11
8.88889e-12
3.2756e-12
7.19711e-09
1.17328e-08
4.31261e-09
-2.64693e-08
1.45167e-09
2.67916e-09
9.6562e-10
2.32035e-10
4.12278e-10
1.4494e-10
2.74767e-11
4.18297e-11
1.33333e-11
2.52243e-12
3.87956e-12
1.18305e-12
3.90799e-13
1.3145e-13
3.58092e-10
2.34184e-10
-1.46574e-09
7.48983e-11
5.0342e-11
1.16671e-11
7.16582e-12
1.32871e-12
6.25278e-13
1.13687e-13
4.61853e-14
3.55271e-15
0.408751
-0.670569
0.247201
-1.18084
-1.20131
0.379251
-0.812587
-0.766582
-1.21191
0.321508
0.319447
0.196676
-0.00428825
-0.00375679
-0.00908833
0.000997074
0.000901089
0.000793524
-2.1218e-05
-1.68147e-05
-2.57166e-05
1.55922e-05
1.71814e-05
7.34473e-06
2.26868e-06
-1.07008e-05
-9.03603e-06
2.71324e-06
-1.15513e-05
2.34293e-06
-8.32739e-06
-1.04002e-05
-1.07123e-05
4.11413e-07
4.23223e-07
-1.06554e-06
-4.75152e-06
-1.05265e-06
-6.40692e-07
-7.90915e-07
-7.59141e-07
-6.17322e-07
-4.40698e-07
-9.4343e-07
-3.27785e-07
-3.64898e-07
-0.205006
-0.364612
0.0811116
0.0765493
0.0551423
-0.798839
-1.33769
-0.805953
0.330812
0.294666
0.192972
-0.00457351
-0.00731884
-0.00432057
0.00090339
0.00103673
0.000669122
-1.44313e-05
-1.93916e-05
-1.32024e-05
7.60232e-06
8.52366e-06
5.94072e-06
-8.8912e-06
-7.88197e-06
-8.40348e-06
-1.24134e-05
-1.17459e-05
-1.27288e-05
-1.52227e-05
-1.55441e-05
-1.50074e-05
5.62534e-07
5.84753e-07
4.41519e-07
-2.26756e-06
-9.31206e-07
-7.76254e-07
-7.68813e-07
-2.18402e-06
-9.7863e-07
-8.86223e-07
-6.5732e-07
-1.77517e-06
-1.21218e-06
-1.3204e-06
-1.38745e-06
5.25932e-08
4.5295e-08
3.51111e-05
-0.000297629
-9.55014e-05
-0.000173416
4.78468e-05
8.38558e-05
-0.000726716
-0.000225588
-0.00023903
6.58282e-05
5.13906e-05
0.000104461
3.45901e-06
4.16219e-06
2.25853e-06
-3.82984e-05
-1.01095e-05
-7.20915e-06
-3.84898e-06
-1.24143e-05
-3.36276e-06
-3.34655e-06
-1.58777e-06
-1.69806e-05
-4.59482e-06
-5.09484e-06
-2.37638e-06
4.0661e-07
5.16284e-07
2.75324e-07
-1.7859e-06
-1.21349e-06
-1.3664e-06
-1.48296e-06
-5.96321e-07
-4.92561e-07
-5.85513e-07
-5.65515e-07
3.80932e-08
4.79494e-08
2.81757e-08
4.26835e-09
2.83931e-09
-3.38799e-05
-2.21228e-05
-2.25366e-05
1.41711e-05
5.59206e-06
6.75965e-06
-2.59463e-05
-2.42855e-05
-3.00612e-05
1.28667e-06
1.79357e-06
8.52296e-07
-1.27641e-05
-4.20396e-06
-3.28933e-06
-2.23797e-06
-1.91e-06
-1.15881e-06
-1.01809e-06
-8.28961e-07
-2.29474e-06
-1.97471e-06
-1.66691e-06
-1.8289e-06
1.99721e-07
2.84793e-07
1.26903e-07
2.42482e-08
3.2394e-08
1.46686e-08
2.27654e-09
3.03186e-09
1.47931e-09
2.68614e-10
1.48088e-10
3.92467e-07
7.31982e-07
2.75435e-07
-1.67766e-06
-3.02321e-06
-3.08502e-06
-2.56695e-06
-3.39528e-06
7.6907e-08
1.26918e-07
5.20577e-08
1.20034e-08
1.87192e-08
7.60363e-09
1.43242e-09
1.98099e-09
8.1705e-10
1.30761e-10
1.76328e-10
7.56764e-11
1.50706e-11
7.1978e-12
2.16276e-08
3.93155e-08
1.44316e-08
-9.25938e-08
4.36965e-09
7.82836e-09
2.95161e-09
6.81524e-10
1.1284e-09
4.30429e-10
8.00071e-11
1.1503e-10
4.40323e-11
7.13385e-12
9.74154e-12
3.80851e-12
7.81597e-13
3.37508e-13
1.21511e-09
2.20968e-09
8.05926e-10
-5.25467e-09
2.40284e-10
4.43045e-10
1.61773e-10
3.67919e-11
6.23359e-11
2.29861e-11
4.22062e-12
6.19593e-12
2.25953e-12
3.69482e-13
5.04485e-13
1.81188e-13
3.55271e-14
1.42109e-14
6.37712e-11
4.26184e-11
-2.78042e-10
1.23919e-11
8.35243e-12
1.84741e-12
1.13687e-12
1.98952e-13
1.03029e-13
1.42109e-14
7.10543e-15
0
4.75478e-05
-8.11037e-05
5.11672e-05
-0.000328914
-0.000151785
4.02261e-05
2.514e-05
-5.95687e-05
-4.88036e-05
-0.000173807
2.65394e-05
2.9951e-05
6.07433e-06
-2.27012e-05
-1.34742e-05
5.06454e-06
5.0304e-06
-1.52372e-05
-1.13236e-05
-1.07776e-05
-1.32084e-05
6.16525e-07
-1.88052e-06
-1.12557e-06
-2.2872e-06
1.52999e-06
1.12406e-06
1.95661e-07
1.76641e-07
1.95428e-07
-7.41078e-07
-5.30611e-07
-1.25248e-06
-5.39492e-07
-4.74877e-07
-5.95656e-07
-8.5102e-07
-8.53363e-07
-8.48533e-07
1.63763e-08
2.11203e-08
-7.07398e-08
-2.85742e-05
-7.70647e-05
2.2455e-05
3.27575e-05
1.62586e-05
-0.00042099
-0.00028546
-0.000187258
5.09335e-05
6.25463e-05
5.56695e-05
2.65863e-06
2.64879e-06
2.28e-06
-2.37706e-05
-6.21859e-06
-4.69118e-06
-2.62414e-06
-1.38741e-05
-3.79345e-06
-2.95917e-06
-1.68051e-06
-1.31431e-05
-3.87961e-06
-3.24871e-06
-1.79861e-06
3.1246e-07
2.92585e-07
2.88655e-07
-1.19625e-06
-8.2827e-07
-9.04838e-07
-1.04547e-06
-5.32426e-07
-6.90799e-07
-6.9034e-07
-6.8704e-07
2.8857e-08
2.68868e-08
2.6852e-08
2.28838e-09
2.36858e-09
-4.6492e-05
-1.51234e-05
-2.06328e-05
-1.54221e-05
-1.34345e-05
1.22971e-05
1.78219e-05
1.29955e-05
-2.85048e-05
-2.23305e-05
-2.14407e-05
-1.42012e-05
-1.41742e-05
-1.37536e-05
1.59465e-06
1.90989e-06
1.32984e-06
-9.55598e-06
-2.89117e-06
-2.1283e-06
-1.47289e-06
-1.18255e-05
-3.55812e-06
-2.95344e-06
-1.80348e-06
-3.71009e-06
-2.11366e-06
-2.1437e-06
-1.72803e-06
2.3462e-07
2.75903e-07
1.98332e-07
2.71498e-08
2.95708e-08
2.17243e-08
2.45217e-09
2.63326e-09
1.98256e-09
2.14193e-10
1.70076e-10
6.28973e-07
1.00825e-06
5.942e-07
-2.93876e-06
-3.59713e-06
-2.13829e-06
-2.36433e-06
-2.44902e-06
-1.61515e-06
-1.55852e-06
-1.25981e-06
-1.50023e-06
1.15636e-07
1.66517e-07
9.80314e-08
1.70459e-08
2.31079e-08
1.38728e-08
1.95716e-09
2.3491e-09
1.43421e-09
1.74033e-10
2.00657e-10
1.24956e-10
1.57456e-11
1.03171e-11
3.82486e-08
6.55357e-08
3.29751e-08
-1.72955e-07
7.32422e-09
1.18996e-08
6.20693e-09
1.09642e-09
1.62601e-09
8.6602e-10
1.25596e-10
1.62423e-10
8.75104e-11
1.1056e-11
1.3415e-11
7.30438e-12
1.00897e-12
5.71987e-13
2.29838e-09
4.02827e-09
1.89204e-09
-1.04353e-08
4.37879e-10
7.58789e-10
3.63926e-10
6.52065e-11
1.02375e-10
4.99689e-11
7.41096e-12
1.01252e-11
4.96314e-12
6.46594e-13
8.10019e-13
3.97904e-13
5.68434e-14
2.84217e-14
1.31521e-10
2.36845e-10
1.06713e-10
-5.94525e-10
2.47979e-11
4.43023e-11
2.02363e-11
3.63798e-12
5.86908e-12
2.71072e-12
3.97904e-13
5.68434e-13
2.62901e-13
3.55271e-14
4.26326e-14
1.77636e-14
0
0
6.96332e-12
5.64526e-12
-3.13918e-11
1.29319e-12
1.0445e-12
1.84741e-13
1.3145e-13
1.42109e-14
1.06581e-14
0
0
0
2.92818e-06
2.75959e-06
-4.71559e-06
-2.18673e-05
-6.65851e-06
2.09779e-06
-2.13306e-05
-1.79167e-05
-1.39208e-05
-1.3467e-05
-1.01777e-05
6.5369e-06
5.4601e-06
5.27357e-06
6.60856e-07
6.07539e-07
6.30584e-07
-1.62206e-06
-1.95954e-06
-9.6174e-07
-1.09121e-06
-1.54392e-06
-9.61836e-07
-8.7281e-07
-7.64823e-07
-7.95976e-07
-7.23833e-07
-6.35868e-07
8.67011e-08
7.39835e-08
8.95502e-08
-3.29574e-07
-9.13926e-07
-9.16027e-07
-9.10963e-07
8.96546e-09
7.51451e-09
9.6549e-09
-3.44046e-08
6.52868e-10
9.08155e-10
-3.0179e-09
1.30061e-06
-2.1326e-06
-6.66815e-06
2.45588e-06
1.88525e-06
7.6984e-07
7.98845e-07
7.62117e-07
-6.20387e-06
-2.0541e-06
-1.67934e-06
-1.10295e-06
-1.62623e-06
-1.03553e-06
-1.08799e-06
-8.32185e-07
-1.30718e-06
-1.02541e-06
-1.22339e-06
-1.18271e-06
1.22524e-07
1.18167e-07
1.27237e-07
1.49794e-08
1.28898e-08
1.44685e-08
1.4057e-09
1.20342e-09
1.33904e-09
9.8396e-11
1.1072e-10
4.80071e-07
6.31051e-07
5.59127e-07
-2.22154e-06
-2.38161e-06
-1.40925e-06
-1.58089e-06
-1.70725e-06
-1.443e-06
-1.49528e-06
-1.19384e-06
-1.44619e-06
8.91913e-08
1.06212e-07
9.35367e-08
1.3318e-08
1.50762e-08
1.32051e-08
1.54165e-09
1.55697e-09
1.35359e-09