/*--------------------------------*- C++ -*----------------------------------*\
  =========                 |
  \\      /  F ield         | OpenFOAM: The Open Source CFD Toolbox
   \\    /   O peration     | Website:  https://openfoam.org
    \\  /    A nd           | Version:  9
     \\/     M anipulation  |
\*---------------------------------------------------------------------------*/
FoamFile
{
    format      ascii;
    class       volScalarField;
    location    "0.0002";
    object      p;
}
// * * * * * * * * * * * * * * * * * * * * * * * * * * * * * * * * * * * * * //

dimensions      [1 -1 -2 0 0 0 0];

internalField   nonuniform List<scalar> 
2417
(
101298
101298
101298
101306
101298
104136
101298
101298
101298
101298
101298
101298
101298
101298
101298
101298
101298
101298
101302
101298
101303
102955
101302
101298
101298
101298
101298
101298
103166
101300
101298
101298
101298
101298
104111
101298
101298
158896
101298
101298
101298
101569
101299
101298
101298
101298
101298
101298
101298
101298
101299
101847
101298
101298
101298
101850
105996
102380
101344
101377
101315
101307
105597
101713
102342
101322
101365
101313
101304
101926
101594
101389
101327
101307
101302
101299
101298
101298
101298
101298
101298
101298
101298
122083
101980
101521
102326
101635
101312
101302
101298
101298
101298
101298
101298
101298
101298
101364
101310
101441
101300
101298
101299
101298
101309
101354
101438
101300
101298
101298
101299
101368
101321
101304
101302
101299
101298
101298
101299
101400
101311
101298
101299
101298
101298
101298
101298
101298
101298
101298
101298
101298
101446
101299
101325
101300
101337
101298
101298
101424
101441
101332
101298
101304
101299
101299
101298
101298
101298
101298
101298
101298
101298
101298
101327
101306
101298
101298
101298
101298
101298
101298
101298
101298
101298
101298
101298
101298
101298
101298
101298
101298
101298
101298
101299
101298
101299
101298
101298
101298
101298
101298
101298
101298
101298
101298
101298
101298
101298
101298
101298
101298
101298
101298
101298
101298
101298
101299
101298
101298
101298
101298
101314
101298
101303
101298
101298
101298
101298
101306
101298
101300
101298
101298
101298
101298
101307
101298
101299
101298
101298
101298
101298
101298
101312
101302
101298
101298
101298
101298
101298
101298
101298
101298
101298
101298
101298
101298
101298
101298
101298
101298
101298
101298
101304
101298
101300
101298
101298
101298
101298
101298
101298
101298
101298
101298
101298
101298
101298
101298
101299
101298
101298
101298
101298
101299
101298
101298
101298
101298
101298
101298
101299
101298
101298
101298
101298
101298
101298
101299
101298
101298
101298
101298
101298
101298
101300
101298
101298
101298
101298
102319
101298
101305
101298
101298
101459
3.01423e+06
101298
239641
844691
101298
119101
1.26226e+06
101298
101298
4.06744e+06
101298
101298
101298
101454
101298
101299
208647
101298
101298
3.02655e+06
101298
101298
103871
101298
101298
101298
101298
101298
101298
101298
101298
101298
101298
101298
101298
101298
101298
101298
101298
101298
101298
101298
101298
101298
101298
1.96955e+06
114572
101298
101298
101298
101298
101298
101298
101298
909107
1.48859e+06
1.37548e+06
3.99815e+06
1.65536e+06
946071
2.93263e+06
1.8015e+06
1.38351e+06
1.2432e+06
1.59363e+06
2.07505e+06
2.75824e+06
3.14448e+06
2.19999e+06
3.05228e+06
1.88453e+06
3.0193e+06
2.9912e+06
2.59018e+06
103323
681868
1.33057e+06
1.86791e+06
1.42286e+06
2.33124e+06
1.29093e+06
600753
962287
888489
1.21407e+06
1.21549e+06
916079
786649
1.2119e+06
908451
967439
2.11015e+06
1.25349e+06
929763
945810
1.39291e+06
876067
1.61749e+06
764218
1.31331e+06
899845
862701
1.38885e+06
613535
786566
628396
627997
602800
715712
686378
818311
938588
1.24197e+06
1.43985e+06
770256
1.44991e+06
876211
1.02539e+06
1.08123e+06
1.54154e+06
2.2865e+06
872446
1.13602e+06
2.04048e+06
835981
1.50353e+06
1.89279e+06
857562
810109
2.02182e+06
860800
822600
2.45546e+06
2.07331e+06
1.11862e+06
764580
1.18396e+06
2.20178e+06
647279
590553
867415
666709
624766
914625
659174
1.36679e+06
1.57628e+06
1.83544e+06
1.56603e+06
1.25532e+06
1.58646e+06
1.68487e+06
1.66321e+06
1.53986e+06
1.74408e+06
1.99021e+06
1.33489e+06
1.67182e+06
1.96306e+06
1.84529e+06
2.46329e+06
2.23898e+06
1.872e+06
1.78782e+06
1.95636e+06
2.37597e+06
1.42138e+06
2.02317e+06
1.67873e+06
1.85933e+06
1.36735e+06
1.64652e+06
1.84947e+06
1.8402e+06
2.18113e+06
1.89335e+06
2.24319e+06
1.8128e+06
1.82347e+06
2.18078e+06
1.33804e+06
1.06446e+06
1.11362e+06
1.46695e+06
902128
1.37856e+06
1.41384e+06
1.6676e+06
1.50452e+06
1.87499e+06
2.13558e+06
1.33593e+06
1.65864e+06
2.03676e+06
1.1861e+06
1.58336e+06
1.45882e+06
1.9569e+06
1.13502e+06
1.43504e+06
1.69828e+06
1.20133e+06
1.50879e+06
1.71334e+06
2.06615e+06
1.19425e+06
1.44692e+06
1.80771e+06
1.23486e+06
881855
1.06156e+06
1.17275e+06
1.27435e+06
1.16384e+06
1.00794e+06
1.89143e+06
2.56378e+06
1.96719e+06
2.35329e+06
1.88766e+06
2.00661e+06
2.47233e+06
1.68224e+06
2.16276e+06
1.57306e+06
2.15208e+06
1.57856e+06
1.61868e+06
2.25123e+06
1.35595e+06
1.4231e+06
1.11631e+06
1.13649e+06
1.08385e+06
1.34264e+06
1.45789e+06
1.20495e+06
855587
1.11036e+06
991444
1.1487e+06
973499
1.19042e+06
1.39259e+06
1.18622e+06
1.50261e+06
1.16726e+06
1.4281e+06
1.11519e+06
1.50004e+06
1.71297e+06
1.63275e+06
2.27876e+06
2.25564e+06
1.70112e+06
1.58281e+06
2.35709e+06
596483
658249
835343
877405
840489
545172
650171
611658
889208
699803
907803
579760
865965
680147
856996
681549
819516
1.35087e+06
895223
1.33403e+06
643576
1.27585e+06
2.3323e+06
113179
1.75012e+06
1.08855e+06
101325
101301
657650
1.24572e+06
866492
925248
657917
890079
844311
175574
2.66124e+06
1.50114e+06
119455
1.60705e+06
101298
101312
661732
1.2959e+06
1.14187e+06
1.40891e+06
735731
966067
900526
1.19868e+06
1.2121e+06
659240
1.5359e+06
953930
2.1918e+06
727398
2.17811e+06
209810
2.94388e+06
101354
1.93379e+06
101315
1.56801e+06
909524
896315
695507
2.23385e+06
1.15775e+06
1.54896e+06
619784
1.11658e+06
1.33785e+06
1.69186e+06
1.568e+06
1.12469e+06
1.57786e+06
1.45227e+06
3.15516e+06
161811
2.38666e+06
101298
129704
101329
1.79457e+06
2.16358e+06
832474
1.46768e+06
1.43243e+06
1.2052e+06
1.24516e+06
2.07686e+06
108430
101298
102101
109148
104327
101298
101298
1.35804e+06
1.29728e+06
1.17285e+06
2.14172e+06
877537
1.45761e+06
2.24866e+06
1.44475e+06
1.3493e+06
2.0442e+06
1.70746e+06
2.27588e+06
1.18237e+06
1.50684e+06
1.15969e+06
1.58748e+06
1.76254e+06
2.19839e+06
1.70975e+06
1.37815e+06
1.49132e+06
1.91562e+06
1.29136e+06
2.10492e+06
2.11766e+06
1.93318e+06
2.07826e+06
2.10752e+06
1.36153e+06
2.10432e+06
2.12576e+06
2.76778e+06
1.38378e+06
2.1214e+06
2.10549e+06
2.16433e+06
2.28105e+06
1.89381e+06
3.48243e+06
3.56848e+06
1.12141e+06
3.1525e+06
219215
102611
101298
413936
101316
101298
101298
101298
101310
106117
101330
107571
101298
101298
3.30509e+06
1.06246e+06
3.24101e+06
3.29675e+06
1.95533e+06
3.65982e+06
1.99244e+06
2.15453e+06
2.2367e+06
2.39747e+06
3.02942e+06
2.42134e+06
2.11571e+06
1.82942e+06
2.10859e+06
2.39644e+06
2.3941e+06
3.04783e+06
3.15973e+06
1.54922e+06
3.16832e+06
1.52419e+06
3.16249e+06
3.12051e+06
2.97888e+06
2.38442e+06
2.05667e+06
2.42621e+06
1.58476e+06
2.32348e+06
2.98277e+06
2.44501e+06
2.17312e+06
2.02341e+06
1.61834e+06
4.13053e+06
101299
627721
101300
743726
101298
101330
338199
105486
101324
541205
101298
101324
101298
2.44293e+06
3.13994e+06
3.33455e+06
3.92063e+06
3.72784e+06
2.20657e+06
3.45544e+06
3.6112e+06
2.07942e+06
3.45189e+06
4.37189e+06
4.41412e+06
2.20031e+06
3.23397e+06
3.60792e+06
2.06041e+06
4.36036e+06
3.41168e+06
2.14846e+06
4.54135e+06
3.23816e+06
2.20751e+06
2.42821e+06
2.43115e+06
2.88519e+06
3.00098e+06
2.69448e+06
3.15671e+06
2.33244e+06
3.31988e+06
2.63376e+06
3.01943e+06
3.60728e+06
3.0837e+06
3.28831e+06
3.09107e+06
2.65956e+06
3.27629e+06
2.95568e+06
2.55476e+06
2.27708e+06
2.84265e+06
398091
101298
173449
101298
101299
101298
101298
2.57449e+06
1.7268e+06
2.56449e+06
1.21199e+06
285879
1.26633e+06
270261
3.55786e+06
2.69269e+06
3.01082e+06
2.34481e+06
3.97066e+06
3.7531e+06
3.86448e+06
2.85245e+06
1.97714e+06
2.90706e+06
1.84474e+06
391232
1.68966e+06
416433
101599
101299
310891
101298
101298
101298
101298
1.25925e+06
194816
1.21594e+06
603667
113354
646233
111656
2.65934e+06
1.70625e+06
2.86176e+06
1.74211e+06
776330
636954
187248
102744
101298
101431
101298
101298
101298
101298
101298
101298
101298
169678
101298
101298
101298
835595
3.28315e+06
1.85282e+06
3.06739e+06
1.97257e+06
976417
235106
2.68237e+06
1.11861e+06
2.6213e+06
219630
1.10716e+06
669962
131793
101393
101298
101298
101786
101298
101298
101298
4.12185e+06
3.30702e+06
3.70189e+06
861676
3.30608e+06
2.69629e+06
3.21873e+06
4.18515e+06
3.62332e+06
4.0094e+06
1.24098e+06
3.2379e+06
3.76621e+06
2.95605e+06
2.96195e+06
1.33052e+06
3.01865e+06
308106
1.50648e+06
1.06279e+06
164353
101298
101300
102189
101298
101298
101298
101298
4.63085e+06
4.66924e+06
4.79442e+06
1.76392e+06
4.04931e+06
3.84806e+06
4.44705e+06
151777
682543
1.06491e+06
443858
102377
210448
106400
2.54013e+06
1.57524e+06
2.66186e+06
993338
126699
199566
550192
122750
1.183e+06
856849
108712
535143
281004
103209
3.40805e+06
1.94163e+06
3.12671e+06
1.89819e+06
218735
1.60396e+06
378333
3.96902e+06
2.42064e+06
3.57928e+06
1.44385e+06
913282
2.15709e+06
432886
4.44718e+06
4.13608e+06
3.63094e+06
3.44782e+06
2.52939e+06
1.12642e+06
2.11638e+06
668059
1.99394e+06
1.71572e+06
793583
2.37865e+06
1.8621e+06
521634
670900
874065
709170
639109
607906
658411
936690
575548
1.17377e+06
910795
2.32078e+06
2.38889e+06
853264
1.22765e+06
2.58073e+06
1.04808e+06
2.23959e+06
840093
2.1608e+06
1.00998e+06
941443
2.49437e+06
630419
658629
570668
670453
574964
563991
596621
1.22819e+06
2.51744e+06
2.32391e+06
1.20476e+06
1.2604e+06
1.36326e+06
2.62148e+06
1.11422e+06
2.221e+06
2.26428e+06
1.01462e+06
1.17104e+06
768185
2.56961e+06
914550
499392
932253
614424
968707
998214
481813
827334
634373
603832
619328
699885
591178
560137
1.83917e+06
1.72132e+06
2.04043e+06
2.08739e+06
1.74502e+06
1.76085e+06
2.16463e+06
2.1213e+06
2.52624e+06
2.42685e+06
1.95843e+06
2.02844e+06
2.05043e+06
2.59864e+06
1.73597e+06
2.02431e+06
2.05834e+06
1.37821e+06
1.76809e+06
1.51132e+06
2.15579e+06
574386
520416
590389
541699
560351
604330
523139
620545
870523
916919
645430
905635
552487
678693
661420
959952
947095
704079
608463
949982
712117
1.55232e+06
1.20325e+06
1.22997e+06
1.54374e+06
1.20435e+06
1.5138e+06
1.61426e+06
1.43351e+06
1.30357e+06
1.02188e+06
1.15618e+06
1.14289e+06
1.36841e+06
1.39909e+06
1.89465e+06
2.23265e+06
1.81205e+06
2.37652e+06
1.80003e+06
1.86233e+06
2.31984e+06
1.99276e+06
2.259e+06
2.0002e+06
2.47899e+06
1.92072e+06
2.09132e+06
2.34572e+06
1.40983e+06
1.07482e+06
975752
1.28027e+06
1.09887e+06
1.34766e+06
1.37593e+06
1.56148e+06
1.26342e+06
1.28435e+06
1.56067e+06
1.25041e+06
1.51797e+06
1.62592e+06
2.04158e+06
2.06626e+06
2.47471e+06
2.56171e+06
2.02207e+06
2.12766e+06
2.46639e+06
1.26891e+06
1.01726e+06
959917
1.42329e+06
1.37168e+06
812743
1.32165e+06
1.71394e+06
2.102e+06
1.62465e+06
2.37234e+06
1.4218e+06
1.75149e+06
2.32882e+06
1.6877e+06
2.04698e+06
1.49381e+06
2.32644e+06
1.35169e+06
1.66762e+06
2.3064e+06
1.88479e+06
1.9708e+06
2.48523e+06
2.4759e+06
1.90246e+06
1.85841e+06
2.5158e+06
1.69812e+06
1.27311e+06
1.24796e+06
1.61606e+06
1.68071e+06
1.64066e+06
1.2956e+06
2.1856e+06
2.6531e+06
2.08165e+06
2.63144e+06
2.11205e+06
2.16773e+06
2.75184e+06
2.12574e+06
2.36611e+06
2.00316e+06
2.47244e+06
2.03121e+06
2.07768e+06
2.51266e+06
1.62597e+06
1.52749e+06
1.21541e+06
1.2716e+06
1.59663e+06
1.56477e+06
1.2734e+06
1.66649e+06
1.2936e+06
1.61436e+06
1.24558e+06
1.60666e+06
1.67569e+06
1.29518e+06
1.66159e+06
1.25927e+06
1.59232e+06
1.30706e+06
1.61421e+06
1.62171e+06
1.29588e+06
2.21249e+06
2.13775e+06
2.65187e+06
2.62344e+06
2.19517e+06
2.15193e+06
2.68082e+06
1.42556e+06
1.14491e+06
1.10386e+06
1.47837e+06
1.3993e+06
1.5116e+06
1.11394e+06
1.7344e+06
2.17759e+06
1.63835e+06
2.33762e+06
1.72082e+06
1.64192e+06
2.28541e+06
1.87894e+06
2.22617e+06
1.91112e+06
2.38643e+06
1.96956e+06
1.92739e+06
2.30786e+06
1.41252e+06
1.1461e+06
1.46775e+06
900899
1.51139e+06
997802
1.39295e+06
1.25965e+06
980442
1.121e+06
785033
1.23599e+06
982846
1.13878e+06
1.92962e+06
2.01176e+06
2.48107e+06
2.54272e+06
1.93065e+06
2.02954e+06
2.4557e+06
776535
957404
935066
763460
766019
981196
763929
581290
503396
613588
521563
592593
582021
513919
780863
791071
941794
979599
752599
984644
806825
792264
994387
818504
969871
796891
776117
1.00661e+06
711279
948733
997518
617203
992356
653638
688427
571738
571381
500423
479772
566874
559540
497302
533963
848131
794628
631255
519102
805718
639885
3.7055e+06
3.99761e+06
3.00836e+06
2.6297e+06
1.65969e+06
643019
1.42947e+06
114609
111589
114398
101509
101432
101518
101476
101298
101298
101298
102858
102375
101299
101298
1.2562e+06
1.68452e+06
336906
133386
1.02541e+06
154458
2.03375e+06
107526
116629
115076
101518
101406
101391
101546
104428
109480
110775
101448
101344
101432
101344
112259
103620
105443
101401
101477
101362
101334
101298
101298
101298
101300
101957
101298
101298
1.29122e+06
330932
1.77289e+06
124059
154156
995622
2.0745e+06
1.32497e+06
117256
784204
443660
118062
105928
843811
102721
112163
104967
101366
101469
101350
101316
111087
101298
101298
101298
101298
101298
101298
3.83141e+06
179241
290874
211273
1.98762e+06
1.74791e+06
1.274e+06
104622
103597
109513
101423
101308
101344
101330
1.69838e+06
126518
562376
104563
180910
106699
101505
3.05116e+06
169043
1.62264e+06
117792
804097
177783
102155
392617
106074
105802
107446
107624
101382
101383
110486
101298
101298
101298
101298
101298
101298
103891
117059
331172
121649
101310
101493
102508
101298
101298
101298
101298
101298
101298
101298
101312
101298
101298
101298
101298
101298
101298
579805
388033
1.79042e+06
208475
101464
104454
107466
924860
509210
2.30647e+06
392449
101616
107982
120118
1.25649e+06
113758
448311
102399
137478
105046
101408
233163
101379
101412
113031
109493
102039
101305
2.88208e+06
215537
1.6901e+06
176239
109669
102519
470768
2.16644e+06
125939
1.03927e+06
104977
347063
124673
101593
2.4632e+06
191202
1.33382e+06
137237
106907
102124
305927
101298
101298
101298
101298
101298
101298
101298
156604
101998
103579
101322
165201
103331
101903
306246
103165
105944
101363
260113
103869
106711
454145
102041
182261
108783
101653
101364
142136
315550
101982
103913
102591
105677
101349
101312
161478
104037
101931
104911
102151
101345
101309
152806
102195
101974
102578
102244
101312
101317
159261
118294
103541
101336
101860
305420
105285
101298
101298
101298
101458
101298
101298
101298
975486
104845
419818
124922
102388
101498
226789
134255
101445
101713
101527
101897
101306
101301
128140
101361
101542
101310
102324
107598
101585
101693
102574
138799
110767
101301
101597
101393
302600
102185
101350
102768
103694
191953
105735
102322
104004
198604
129734
101306
101580
101974
102524
101447
101425
101318
101315
101300
101300
101352
101663
101930
101307
101298
101303
101299
101754
101340
101334
101305
101304
101298
101299
101480
101338
101804
101305
101298
101300
101298
101887
101310
101356
101300
101305
101299
101298
101536
101384
101318
101309
101301
101299
101298
102225
101483
101490
101300
101309
101300
101310
107532
101301
101360
101302
101382
101299
101298
101598
101304
101320
101299
101302
101298
101298
104231
101652
101869
101305
101316
101302
101330
104097
101523
101853
101304
101309
101300
101328
101859
101385
101461
101303
101307
101300
101298
101298
101521
101341
101927
101417
101299
101305
101529
101323
101338
101300
101301
101298
101298
102251
101299
101300
101298
101328
101307
101354
104665
101300
101302
101299
101330
101368
101475
101940
102176
127934
101517
101298
101306
101304
101305
101327
101984
101345
101298
101300
101298
101418
101484
114389
101966
101298
101304
101308
104093
103190
278519
103194
101298
101329
101321
102375
103487
200918
102217
101298
101320
101310
101474
101475
101346
101306
101300
101299
101300
102614
101401
101386
101314
101312
101298
101299
101309
101301
101637
101332
101298
101299
101298
101952
101334
101374
101298
101304
101310
105481
101298
101340
104016
101510
101298
101300
101301
101603
101315
101347
101298
101306
101301
103160
101298
101298
101298
101298
101298
101298
101298
101384
101299
101389
101299
101298
101299
101298
101298
101298
101298
101298
101298
101298
101298
101298
101298
101298
101298
101298
101298
101298
101301
101300
101298
101298
101299
101302
101298
101298
101298
101298
101298
101298
101298
101298
101301
101298
101300
101298
101302
101301
101298
101356
101299
101351
101299
101298
101299
101298
101330
101298
101305
101298
101299
101298
101298
101325
101298
101300
101298
101298
101298
101298
101330
101308
101300
101299
101298
101298
101298
101298
101298
101298
101298
101298
101298
101298
101298
101307
101298
101298
101298
101298
101298
101298
101337
101305
101301
101299
101298
101298
101298
101298
101298
101298
101298
101298
101298
101298
101298
101298
101298
101298
101298
101298
101298
101298
101298
101298
101298
101298
101298
101300
101298
101298
101298
101299
101298
101298
101300
101298
101299
101298
101300
101299
101298
101299
101298
101301
101299
101298
101298
101298
101298
101300
101301
101299
101298
101299
101298
101299
101317
101361
101299
101298
101298
101298
101305
101298
101327
101299
101298
101298
101298
101346
101298
101309
101298
101299
101298
101298
101307
101298
101305
101298
101298
101298
101298
101298
101298
101298
101319
101314
101298
101298
101298
101310
101307
101298
101298
101298
101298
101319
101299
101327
101298
101298
101298
101298
101307
101299
101324
101298
101298
101298
101298
101321
101298
101304
101298
101298
101298
101298
101310
101298
101301
101298
101298
101298
101298
101299
101299
101298
101298
101298
101298
101298
101300
101298
101298
101302
101298
101298
101298
101298
101298
101298
101298
101298
101298
101298
101316
101298
101298
101298
101298
101298
101298
101307
101298
101298
101298
101298
101298
101298
101299
101298
101301
101298
101298
101298
101298
101298
101298
101298
101301
101308
101298
101298
101300
101298
101303
101298
101298
101298
101298
101298
101300
101300
101298
101298
101298
101298
101303
101298
101299
101298
101298
101298
101298
101315
101298
101298
101298
101298
101298
101298
101330
101298
101298
101298
101298
101298
101298
101309
101298
101298
101298
101298
101298
101298
101298
101298
101298
101298
101298
101298
101298
101298
101298
101298
101298
101298
101298
101298
101299
101298
101298
101298
101298
101298
101298
101298
101298
101298
101298
101298
101298
101298
101300
101298
101298
101298
101298
101298
101298
101298
101298
101298
101298
101298
101298
101298
101298
101298
101298
101298
101298
101298
101298
101298
101298
101298
101298
101298
101298
101298
101300
101298
101298
101298
101298
101298
101298
101298
101298
101299
101298
101298
101298
101298
101299
101298
101298
101298
101298
101298
101298
101298
101299
101298
101298
101298
101298
101298
101298
101298
101298
101298
101298
101298
101298
101299
101298
101298
101298
101298
101298
101298
101298
101298
101298
101298
101298
101298
101298
101298
101298
101298
101298
101298
101298
101298
101298
101298
101298
101298
101298
101298
101298
101298
101298
101298
101298
101298
101298
101298
101298
101298
101298
101298
101298
101298
101298
101298
101298
101298
101298
101298
101298
101298
101298
101298
101298
101298
101298
101298
101298
101298
101298
101298
101298
101298
101298
101298
101298
101298
101299
101298
101298
101298
101298
101298
101298
101298
101298
101298
101298
101298
101298
101298
101298
101298
101298
101298
101298
101298
101298
101298
101298
101298
101298
101298
101298
101298
101298
101298
101298
101298
101298
101298
101298
101298
101298
101298
101298
101298
101298
101298
101298
101298
101298
101298
101298
101298
101298
101298
101298
101298
101298
101298
101298
101298
101299
101298
101298
101298
101298
101298
101298
101298
101298
101298
101298
101298
101298
101298
101298
101298
101298
101298
101298
101298
101298
101298
101298
101298
101298
101298
101298
101298
101298
101298
101298
101298
101298
101299
101298
101298
101298
101298
101298
101298
101298
101298
101298
101298
101298
101298
101298
101298
101298
101298
101298
101298
101298
101298
101298
101298
101298
101298
101298
101298
101298
101298
101298
101298
101298
101298
101298
101298
101298
101298
101298
101298
101298
101298
101298
101298
101298
101298
101298
101298
101298
101298
101298
101298
101298
101298
101298
101298
101298
101298
101298
101298
101298
101298
101298
101298
101298
101298
101298
101298
101298
101298
101298
101298
101298
101298
101298
101298
101298
101298
101298
101298
101298
101298
101298
101298
101298
101298
101298
101298
101298
101298
101298
101298
)
;

boundaryField
{
    ground
    {
        type            zeroGradient;
    }
    outlet
    {
        type            zeroGradient;
    }
    wall
    {
        type            zeroGradient;
    }
    wall2
    {
        type            zeroGradient;
    }
    wall3
    {
        type            zeroGradient;
    }
    internalPatch
    {
        type            internal;
    }
    procBoundary1to0
    {
        type            processor;
        value           nonuniform List<scalar> 
232
(
101298
101298
101298
101298
101298
101298
101298
101298
101298
101298
101298
101298
101298
101298
101298
101298
101298
101298
101298
101298
101298
101298
101298
101298
101298
101298
101298
101298
101298
101298
101298
101298
101298
101298
101298
101298
101298
101298
101298
101298
101298
101298
101298
101298
101298
101298
101298
101298
101298
101298
101298
101298
101298
101298
101298
101298
101298
101298
101298
101298
101298
101298
101298
101298
101298
101298
101298
101298
101298
101298
101298
101298
101298
101298
101298
101298
101298
101298
101298
101298
101298
101298
101298
101298
101298
101298
101298
101298
101298
101298
101298
101298
101298
101298
101298
101298
101298
101298
101298
101298
101298
101298
101298
101298
101298
101298
101298
101298
101298
101298
101298
101298
101298
101298
101298
101298
101298
101298
101298
101298
101298
101298
101298
101298
101298
101298
101298
101298
101298
101298
101298
101298
101298
101298
101298
101298
101298
101298
101298
101298
101298
101298
101298
101298
101298
101298
101298
101298
101298
101298
101298
101298
101298
101298
101298
101298
101298
101298
101298
101298
101298
101298
101298
101298
101298
101298
101298
101298
101298
101298
101298
101298
101298
101298
101298
101298
101298
101298
101298
101298
101298
101298
101298
101298
101298
101298
101298
101298
101298
101298
101298
101298
101298
101298
101298
101298
101298
101298
101298
101298
101298
101298
101298
101298
101298
101298
101298
101298
101298
101298
101298
101298
101298
101298
101298
101298
101298
101298
101298
101298
101298
101298
101298
101298
101298
101298
101298
101298
101298
101298
101298
101298
)
;
    }
    procBoundary1to2
    {
        type            processor;
        value           nonuniform List<scalar> 
499
(
101298
101298
101298
101298
101298
101298
101298
101298
101298
101298
101298
101298
101298
101298
101298
101298
101298
101298
101298
101298
101298
101305
101381
101932
103689
105350
104517
102383
102383
204031
1.43053e+06
2.60086e+06
2.60086e+06
2.11533e+06
1.87032e+06
1.88294e+06
1.63238e+06
1.00935e+06
867710
1.34098e+06
1.34548e+06
1.34548e+06
1.92392e+06
2.02243e+06
2.11987e+06
2.14717e+06
2.21145e+06
2.23599e+06
2.17642e+06
2.14571e+06
2.06671e+06
2.00754e+06
1.57366e+06
1.57366e+06
1.41766e+06
1.41766e+06
1.94557e+06
1.9791e+06
1.48697e+06
1.48697e+06
1.35694e+06
1.35694e+06
1.32471e+06
1.59873e+06
2.10315e+06
3.11998e+06
3.07559e+06
989233
123583
123583
160171
196046
183698
151894
115334
102768
101374
101300
101298
101298
101298
101298
101298
101298
101298
101298
101298
101298
101298
101298
101298
101298
101298
101298
101298
101298
101298
101298
101298
101298
101298
101298
101298
101298
101298
101298
101303
101382
102321
108865
128295
148428
142550
117000
117000
747141
2.3469e+06
2.39319e+06
2.39319e+06
1.68565e+06
1.46117e+06
1.52478e+06
1.1525e+06
707265
765548
1.34548e+06
1.34548e+06
1.40431e+06
1.51935e+06
1.6715e+06
1.76411e+06
1.83798e+06
1.90168e+06
1.89178e+06
1.8604e+06
1.77912e+06
1.7144e+06
1.57366e+06
1.57366e+06
1.41766e+06
1.41766e+06
1.49557e+06
1.50507e+06
1.48697e+06
1.48697e+06
799901
764352
764352
947135
1.46788e+06
2.31977e+06
3.31538e+06
2.27991e+06
426734
105554
105554
112026
117753
117690
112716
104622
101646
101315
101298
101298
101298
101298
101298
101302
101657
101304
101303
101577
101301
101298
101298
101298
101298
101298
101301
101298
101299
101300
101300
101299
101298
101306
101300
101336
101878
108122
146966
241636
318963
317264
213106
213106
1.31259e+06
2.06594e+06
1.29015e+06
1.29015e+06
919396
816455
850547
743990
606005
914444
914444
914444
1.24862e+06
1.34633e+06
1.4374e+06
1.50524e+06
1.52712e+06
1.48931e+06
1.16884e+06
1.16884e+06
945668
850829
815923
815923
815923
633935
647161
732396
732396
1.25607e+06
2.14805e+06
3.10895e+06
2.67063e+06
752049
115310
101446
101446
101672
101874
101989
101816
101458
101315
101299
101298
101298
101300
101452
115721
110857
101381
101299
101298
101298
101298
101304
101366
101679
101320
101352
101351
101321
101652
101445
103420
122340
216479
361881
460384
481668
361447
361447
1.45625e+06
1.46482e+06
889067
889067
692164
635019
654183
670947
676997
676997
984863
914444
1.03909e+06
1.13549e+06
1.19947e+06
1.21403e+06
1.21926e+06
1.16884e+06
1.16884e+06
673917
612645
662445
937889
900860
995822
1.31832e+06
1.31832e+06
2.27507e+06
3.00722e+06
2.41112e+06
736896
119727
101534
101301
101301
101306
101311
101315
101311
101302
101298
101298
101332
104563
342492
243535
102616
101311
101298
101298
101302
101371
102106
106081
112004
102194
102128
111175
105803
139013
256685
386075
485183
530850
415070
415070
1.41385e+06
1.23831e+06
782358
782358
635950
597841
597841
624954
624954
665749
665749
690741
676997
676997
881915
926927
782048
782048
782048
694134
681752
748887
894806
859261
995015
1.41284e+06
1.41284e+06
2.32787e+06
2.75767e+06
1.90062e+06
520179
520179
736896
119727
101534
101301
101306
101311
101315
101311
101302
101610
127636
907519
658578
110742
101394
101299
101299
101326
101808
107395
135204
177802
174165
318927
429426
491128
515415
393944
393944
1.41097e+06
1.27034e+06
783024
783024
629736
593943
597841
597841
624954
624954
665749
665749
710337
782048
627162
676121
641772
707420
931092
931092
1.56436e+06
2.12732e+06
2.1744e+06
1.24435e+06
292142
107655
107655
118858
795393
1.01486e+06
144390
101895
102223
102512
102269
175628
1.27031e+06
983883
128345
101608
101302
101302
101399
103229
123062
214392
319918
409572
445439
435122
305397
305397
1.41146e+06
1.1599e+06
572947
153542
103449
101365
101365
101509
101653
129760
940228
1.1501e+06
165866
186322
1.26228e+06
1.03125e+06
137244
101746
101304
101304
101461
104513
138850
278258
286546
254293
168763
168763
109696
101825
101321
101299
101299
101301
101303
101303
101434
104141
136762
125678
109696
101825
101321
101299
101301
101378
103074
593943
593943
593943
815923
)
;
    }
}


// ************************************************************************* //
