/*--------------------------------*- C++ -*----------------------------------*\
  =========                 |
  \\      /  F ield         | OpenFOAM: The Open Source CFD Toolbox
   \\    /   O peration     | Website:  https://openfoam.org
    \\  /    A nd           | Version:  9
     \\/     M anipulation  |
\*---------------------------------------------------------------------------*/
FoamFile
{
    format      ascii;
    class       volScalarField;
    location    "5e-05";
    object      rhoE;
}
// * * * * * * * * * * * * * * * * * * * * * * * * * * * * * * * * * * * * * //

dimensions      [1 -1 -2 0 0 0 0];

internalField   nonuniform List<scalar> 
3969
(
253245
253245
253245
253245
253245
253245
253245
253245
253245
253245
253245
253245
253245
253245
253245
253245
253245
253245
253245
253245
253245
253245
253245
253245
253245
253245
253245
253245
253245
253245
253245
253245
253245
253245
253245
253245
253245
253245
253245
253245
253245
253245
253245
253245
253245
253329
253245
253245
253245
253245
253292
253245
253246
253245
253245
253245
253245
253245
253245
253245
253245
253245
253245
253245
253245
253245
253245
253245
253245
253245
253245
253245
253245
253245
253245
253245
253245
253245
253245
253245
253245
253245
253245
253245
253245
253245
253245
253245
253245
253245
253245
253245
253245
253245
253245
253245
253245
253245
253245
253245
253245
253245
253245
253245
253245
253245
253245
253245
253245
253245
253245
253245
253245
253245
253245
253245
253245
253245
253245
253245
253245
253245
253245
253245
253245
253245
253245
253245
253245
253245
253245
253245
253245
253245
253245
253245
253245
253245
253245
253245
253245
253245
253245
253245
253245
253245
253245
253245
253245
253245
253245
253245
253245
253245
253245
253245
253245
253245
253245
253245
253245
253245
253245
253245
253245
253245
253245
253245
253245
253245
253245
253245
253245
253245
253245
253245
253245
253245
253245
253245
253245
253245
253245
253245
253245
253245
253245
253245
253245
253245
253245
253245
253245
253245
253245
253245
253245
253245
253245
253245
253245
253245
253245
253245
253245
253245
253245
253245
253245
253245
253245
253245
253245
253245
253245
253245
253245
253245
253245
253245
253245
253245
253245
253245
253245
253245
253245
253245
253245
253245
253245
253245
253245
253245
253245
253245
253245
253245
253245
253245
253245
253245
253245
253245
253245
253245
253245
253245
253245
253245
253245
253245
253245
253245
253245
253245
253245
253245
253245
253245
253245
253245
253245
253245
253245
253245
253245
253245
253245
253245
253245
253245
253245
253245
253245
253245
253245
253245
253245
253245
253245
253245
253245
253245
253245
253245
253245
253245
253245
253245
253245
253245
253245
253245
253245
253245
253245
253245
253245
253245
253245
253245
253245
253245
253245
253245
253245
253245
253245
253245
253245
253245
253245
253245
253245
253245
253245
253245
253245
253245
253245
253245
253245
253245
253245
253245
253245
253245
253245
253245
253245
253245
253245
253245
253245
253245
253245
253245
253245
253245
253245
253245
253245
253245
253245
253245
253245
253245
253245
253245
253245
253245
253245
253245
253245
253245
253245
253245
253245
253245
253245
253245
253245
253245
253245
253245
253245
253245
253245
253245
253245
253245
253245
253245
253245
253245
253245
253245
253245
253245
253245
253245
253245
253245
253245
253245
253245
253245
253245
253245
253245
253245
253245
253245
253245
253245
253245
253245
253245
253245
253245
253245
253245
253245
253245
253245
253245
253245
253245
253245
253245
253245
253245
253245
253245
253245
253245
253245
253245
253245
253245
253245
253245
253245
253245
253245
253245
253245
253245
253245
253245
253245
253245
253245
253245
253245
253245
253245
253245
253245
253245
253245
253245
253245
253245
253245
253245
253245
253245
253245
253245
253245
253245
253245
253245
253245
253245
253245
253245
253245
253245
253245
253245
253245
253245
253245
253245
253245
253245
253245
253245
253245
253245
253245
253245
253245
253245
253245
253245
253245
253245
253245
253245
253245
253245
253245
253245
253245
253245
253245
253245
253245
253245
253245
253245
253245
253245
253245
253245
253245
253245
253245
253245
253245
253245
253245
253245
253245
253245
253245
253245
253245
253245
253245
253245
253245
253245
253245
253245
253245
253245
253245
253245
253245
253245
253245
253245
253245
253245
253245
253245
253245
253245
253245
253245
253245
253245
253245
253245
253245
253245
253245
253245
253245
253245
253245
253245
253245
253245
253245
253245
253245
253245
253245
253245
253245
253245
253245
253245
253245
253245
253245
253245
253245
253245
253245
253245
253245
253245
253245
253245
253245
253245
253245
253245
253245
253245
253245
253245
253245
253245
253245
253245
253245
253245
253245
253245
253245
253245
253245
253245
253245
253245
253245
253245
253245
253245
253245
253245
253245
253245
253245
253245
253245
253245
253245
253245
253245
253245
253245
253245
253245
253245
253245
253245
253245
253245
253245
253245
253245
253245
253245
253245
253245
253245
253245
253245
253245
253245
253245
253245
253245
253245
253245
253245
253245
253245
253245
253245
253245
253245
253245
253245
253245
253245
253245
253245
253245
253245
253245
253245
253245
253245
253245
253245
253245
253245
253245
253245
253245
253245
253245
253245
253245
253245
253245
253245
253245
253245
253245
253245
253245
253245
253245
253245
253245
253245
253245
253245
253245
253245
253245
253245
253245
253245
253245
253245
253245
253245
253245
253245
253245
253245
253245
253245
253245
253245
253245
253245
253245
253245
253245
253245
253245
253245
253245
253245
253245
253245
253245
253245
253245
253245
253245
253245
253245
253245
253245
253245
253245
253245
253245
253245
253245
253245
253245
253245
253245
253245
253245
253245
253245
253245
253245
253245
253245
253245
253245
253245
253245
253245
253245
253245
253245
253245
253245
253245
253245
253245
253245
253245
253245
253245
253245
253245
253245
253245
253245
253245
253245
253245
253245
253245
253245
253245
253245
253245
253245
253245
253245
253245
253245
253245
253245
253245
253245
253245
253245
253245
253245
253245
253245
253245
253245
253245
253245
253245
253245
253245
253245
253245
253245
253245
253245
253245
253245
253245
253245
253245
253245
253245
253245
253245
253245
253245
253245
253245
253245
253245
253245
253245
253245
253245
253245
253245
253245
253245
253245
253245
253245
253245
253245
253245
253245
253245
253245
253245
253245
253245
253245
253245
253245
253245
253245
253245
253245
253245
253245
253245
253245
253245
253245
253245
253245
253245
253245
253245
253245
253245
253245
253245
253245
253245
253245
253245
253245
253245
253245
253245
253245
253245
253245
253245
253245
253245
253245
253245
253245
253245
253245
253245
253245
253245
253245
253245
253245
253245
253245
253245
253245
253245
253245
253245
253245
253245
253245
253245
253245
253245
253245
253245
253245
253245
253245
253245
253245
253245
253245
253245
253245
253245
253245
253245
253245
253245
253245
253245
253245
253245
253245
253245
253245
253245
253245
253245
253245
253245
253245
253245
253245
253245
253245
253245
253245
253245
253245
253245
253245
253245
253245
253245
253245
253245
253245
253245
253245
253245
253245
253245
253245
253245
253245
253245
253245
253245
253245
253245
253245
253245
253245
253245
253245
253245
253245
253245
253245
253245
253245
253245
253245
253245
253245
253245
253245
253245
253245
253245
253245
253245
253245
253245
253245
253245
253245
253245
253245
253245
253245
253245
253245
253245
253245
253245
253245
253245
253245
253245
253245
253245
253245
253245
253245
253245
253245
253245
253245
253245
253245
253245
253245
253245
253245
253245
253245
253245
253245
253245
253245
253245
253245
253245
253245
253245
253245
253245
253245
253245
253245
253245
253245
253245
253245
253245
253245
253245
253245
253245
253245
253245
253245
253245
253245
253245
253245
253245
253245
253245
253245
253245
253245
253245
253245
253245
253245
253245
253245
253245
253245
253245
253245
253245
253245
253245
253245
253245
253245
253245
253245
253245
253245
253245
253245
253245
253245
253245
253245
253245
253245
253245
253245
253245
253245
253245
253245
253245
253245
253245
253245
253245
253245
253245
253245
253245
253245
253245
253245
253245
253245
253245
253245
253245
253245
253245
253245
253245
253245
253245
253245
253245
253245
253245
253245
253245
253245
253245
253245
253245
253245
253245
253245
253245
253245
253245
253245
253245
253245
253245
253245
253245
253245
253245
253245
253245
253245
253245
253245
253245
253245
253245
253245
253245
253245
253245
253245
253245
253245
253245
253245
253245
253245
253245
253245
253245
253245
253245
253245
253245
253245
253245
253245
253245
253245
253245
253245
253245
253245
253245
253245
253245
253245
253245
253245
253245
253245
253245
253245
253245
253245
253245
253245
253245
253245
253245
253245
253245
253245
253245
253245
253245
253245
253245
253245
253245
253245
253245
253245
253245
253245
253245
253245
253245
253245
253245
253245
253245
253245
253245
253245
253245
253245
253245
253245
253245
253245
253245
253245
253245
253245
253245
253245
253245
253245
253245
253245
253245
253245
253245
253245
253245
253245
253245
253245
253245
253245
253245
253245
253245
253245
253245
253245
253245
253245
253245
253245
253245
253245
253245
253245
253245
253245
253245
253245
253245
253245
253245
253245
253245
253245
253245
253245
253245
253245
253245
253245
253245
253245
253245
253245
253245
253245
253245
253245
253245
253245
253245
253245
253245
253245
253245
253245
253245
253245
253245
253245
253245
253245
253245
253245
253245
253245
253245
253245
253245
253245
253245
253245
253245
253245
253245
253245
253245
253245
253245
253245
253245
253245
253245
253245
253245
253245
253245
253245
253245
253245
253245
253245
253245
253245
253245
253245
253245
253245
253245
253245
253245
253245
253245
253245
253245
253245
253245
253245
253245
253245
253245
253245
253245
253245
253245
253245
253245
253245
253245
253245
253245
253245
253245
253245
253245
253245
253245
253245
253245
253245
253245
253245
253245
253245
253245
253245
253245
253245
253245
253245
253245
253245
253245
253245
253245
253245
253245
253245
253245
253245
253245
253245
253245
253245
253245
253245
253245
253245
253245
253245
253245
253245
253245
253245
253245
253245
253245
253245
253245
253245
253245
253245
253245
253245
253245
253245
253245
253245
253245
253245
253245
253245
253245
253245
253245
253245
253245
253245
253245
253245
253245
253245
253245
253245
253245
253245
253245
253245
253245
253245
253245
253245
253245
253245
253245
253245
253245
253245
253245
253245
253245
253245
253245
253245
253245
253245
253245
253245
253245
253245
253245
253245
253245
253245
253245
253245
253245
253245
253245
253245
253245
253245
253245
253245
253245
253245
253245
253245
253245
253245
253245
253245
253245
253245
253245
253245
253245
253245
253245
253245
253245
253245
253245
253245
253245
253245
253245
253245
253245
253245
253245
253245
253245
253245
253245
253245
253245
253245
253245
253245
253245
253245
253245
253245
253245
253245
253245
253245
253245
253245
253245
253245
253245
253245
253245
253245
253245
253245
253245
253245
253245
253245
253245
253245
253245
253245
253245
253245
253245
253245
253245
253245
253245
253245
253245
253245
253245
253245
253245
253245
253245
253245
253245
253245
253245
253245
253245
253245
253245
253245
253245
253245
253245
253245
253245
253245
253245
253245
253245
253245
253245
253245
253245
253245
253245
253245
253245
253245
253245
253245
253245
253245
253245
253245
253245
253245
253245
253245
253245
253245
253245
253245
253245
253245
253245
253245
253245
253245
253245
253245
253245
253245
253245
253245
253245
253245
253245
253245
253245
253245
253245
253245
253245
253245
253245
253245
253245
253245
253245
253245
253245
253245
253245
253245
253245
253245
253245
253245
253245
253245
253245
253245
253245
253245
253245
253245
253245
253245
253245
253245
253245
253245
253245
253245
253245
253245
253245
253245
253245
253245
253245
253245
253245
253245
253245
253245
253245
253245
253245
253245
253245
253245
253245
253245
253245
253245
253245
253245
253245
253245
253245
253245
253245
253245
253245
253245
253245
253245
253245
253245
253245
253245
253245
253245
253245
253245
253245
253245
253245
253245
253245
253245
253245
253245
253245
253245
253245
253245
253245
253245
253245
253245
253245
253245
253245
253245
253245
253245
253245
253245
253245
253245
253245
253245
253245
253245
253245
253245
253245
253245
253245
253245
253245
253245
253245
253245
253245
253245
253245
253245
253245
253245
253245
253245
253245
253245
253245
253245
253245
253245
253245
253245
253245
253245
253245
253245
253245
253245
253245
253245
253245
253245
253245
253245
253245
253245
253245
253245
253245
253245
253245
253245
253245
253245
253245
253245
253245
253245
253245
253245
253245
253245
253245
253245
253245
253245
253245
253245
253245
253245
253245
253245
253245
253245
253245
253245
253245
253245
253245
253245
253245
253245
253245
253245
253245
253245
253245
253245
253245
253245
253245
253245
253245
253245
253245
253245
253245
253245
253245
253245
253245
253245
253245
253245
253245
253245
253245
253245
253245
253245
253245
253245
253245
253245
253245
253245
253245
253245
253245
253245
253245
253245
253245
253245
253245
253245
253245
253245
253245
253648
253276
740974
3.26543e+06
253245
253246
253246
253245
7.92016e+06
259122
253245
4.22889e+08
2.98167e+07
253251
403642
253245
2.29316e+06
253246
253245
253245
253245
3.13783e+08
6.51068e+06
253245
254800
253245
253245
267485
253245
253245
253245
253245
253245
253245
253245
253245
253245
253245
253245
253245
253245
254861
253245
253245
253245
253245
253245
253245
253245
253245
253245
253245
253245
253245
253245
253245
4.15542e+08
321915
2.93847e+07
654493
5.73239e+07
6.31066e+06
2.14538e+08
2.73277e+07
6.93352e+06
4.03887e+08
5.24535e+06
259106
7.30421e+07
1.23162e+07
253263
253284
3.34611e+06
253279
253245
929252
253246
2.9795e+07
1.18478e+06
6.5708e+06
4.03602e+07
4.83694e+06
4.24696e+08
9.509e+07
4.06631e+08
6.89547e+06
259754
2.48442e+08
2.96846e+07
4.38962e+07
1.12976e+06
3.48986e+06
253245
253283
3.34346e+06
253246
259154
253245
253245
253245
253245
308854
253262
253247
253245
3.1185e+08
253322
1.56683e+06
253245
253254
253247
595108
6.04905e+06
2.28466e+06
2.99865e+08
253248
253245
631296
253255
253245
253245
253245
253245
253245
254588
253245
6.01357e+06
266335
1.9508e+06
253253
253245
519226
253245
3.01289e+08
2.11865e+06
253328
606816
253245
253247
253245
253245
253245
253245
254305
253245
253245
253245
263734
253245
253245
253245
253245
253245
253245
253245
253245
253245
253245
253245
253245
253245
2.67774e+06
7.24785e+06
3.05617e+06
280445
290547
255904
501423
940719
3.73552e+06
8.27054e+06
289555
299838
524248
256860
9.4387e+07
9.34142e+07
5.12288e+06
6.32287e+06
1.38572e+08
4.472e+07
7.86873e+06
2.51374e+07
1.11396e+06
690480
332608
4.45661e+06
9.63811e+06
2.29733e+06
2.36155e+08
2.48435e+08
2.25448e+08
4.3201e+08
4.27091e+08
2.57854e+08
7.4999e+07
1.2671e+08
1.37095e+08
1.2145e+07
3.98079e+07
3.01221e+08
2.83525e+07
6.71323e+07
253876
253857
326326
380916
411354
253810
253469
1.26141e+06
2.71085e+07
794228
320261
1.17962e+07
4.57463e+06
259044
1.12894e+07
1.40118e+08
1.29769e+08
4.21732e+07
6.55093e+07
2.97073e+07
2.8258e+07
1.57961e+06
4.15543e+07
1.57867e+06
527022
1.47184e+07
6.52868e+06
268229
2.29242e+08
2.23057e+08
2.48675e+08
4.17753e+08
2.60811e+08
4.3501e+08
7.30725e+07
4.61e+06
259532
1.30125e+06
2.74011e+07
811844
1.19314e+07
2.30768e+06
1.23873e+07
3.19085e+07
3.92397e+07
1.32692e+08
1.43704e+08
3.22749e+08
6.66107e+07
9.92715e+06
257931
1.03841e+06
305644
3.8372e+06
2.34665e+07
1.89773e+06
9.94504e+06
2.51202e+07
3.69114e+07
1.27138e+08
2.64343e+07
1.20314e+08
3.05224e+08
8.61595e+07
3.89927e+06
3.77126e+07
8.57275e+07
6.15478e+06
1.33563e+08
6.30799e+06
6.49064e+07
4.20111e+08
2.27018e+08
2.14772e+08
4.32091e+08
2.58261e+08
4.20051e+08
1.23054e+08
1.0128e+07
1.24381e+08
3.98586e+07
2.71062e+07
3.00004e+08
5.36566e+07
8.80646e+07
4.12635e+06
8.71306e+07
5.58415e+06
1.31411e+08
3.55432e+07
7.00841e+06
2.12928e+08
2.17731e+08
2.12506e+08
4.04655e+08
2.48089e+08
4.03879e+08
5.64954e+07
4.46042e+07
7.89162e+06
9.44752e+07
9.30598e+07
6.34287e+06
1.37031e+08
7.92396e+06
1.25899e+06
802601
1.17138e+07
2.6978e+07
320986
4.57551e+06
2.30518e+06
2.29424e+08
2.4868e+08
4.35022e+08
2.22666e+08
4.17772e+08
2.61023e+08
4.15607e+08
6.64074e+07
3.24294e+07
1.43656e+08
1.29412e+08
4.18444e+07
2.99867e+07
3.11844e+08
295345
297630
838434
8.68055e+06
3.21203e+06
624004
256826
3.77657e+06
293989
9.19121e+06
299589
256727
3.42689e+06
596189
4.13355e+07
1.13512e+07
3.02776e+07
1.38211e+08
1.40604e+08
3.2162e+08
6.56946e+07
4.7816e+06
258408
322928
2.84069e+07
763866
2.28814e+06
1.16136e+07
9.76628e+07
9.41526e+07
4.6322e+06
4.15515e+06
1.27199e+08
6.66702e+06
4.3922e+07
3.00683e+07
1.26167e+08
2.8558e+07
1.13388e+07
6.09595e+07
1.35654e+08
3.14178e+08
329813
1.24816e+06
259455
1.12011e+07
785714
2.77509e+07
2.35627e+06
2.25871e+08
2.32669e+08
6.45171e+07
2.32459e+08
4.30914e+08
4.24675e+08
2.57085e+08
4.16938e+07
4.77887e+06
7.4259e+06
9.59101e+07
4.60544e+06
1.28133e+08
7.43396e+06
2.21509e+08
2.37973e+08
2.21456e+08
4.20824e+08
4.06623e+08
2.56953e+08
7.56543e+07
9.11654e+07
9.08303e+07
4.84373e+06
4.60075e+06
1.27485e+08
6.95853e+06
4.2819e+07
2.60074e+07
1.33875e+06
833732
319662
4.35835e+06
2.13283e+06
1.18667e+07
4.27089e+08
7.49797e+07
2.3607e+08
2.25375e+08
4.32019e+08
4.22767e+08
2.57868e+08
1.40166e+08
1.12919e+07
6.54318e+07
1.29207e+08
4.16004e+07
3.13941e+08
2.81132e+07
9.79086e+07
4.62812e+06
6.66466e+06
9.37746e+07
4.15701e+06
1.2717e+08
6.53991e+06
1.13141e+07
258184
734025
2.60744e+07
301606
4.01575e+06
1.94657e+06
292181
297705
916624
8.63082e+06
600348
3.21158e+06
256640
794461
281567
8.45107e+06
291338
528621
255952
2.93233e+06
367562
253657
253415
253641
341067
361829
253607
1.23149e+07
1.29807e+08
1.43624e+08
4.17198e+07
6.64576e+07
2.99748e+07
3.24159e+07
6.87889e+06
1.55353e+06
4.29429e+07
533264
1.45102e+07
6.83193e+06
268708
293436
927831
9.18058e+06
299639
3.41845e+06
256714
3.78173e+06
1.24355e+06
1.24357e+06
3.70066e+07
520011
1.13811e+07
265873
6.02628e+06
1.11765e+06
693104
2.50441e+07
332054
9.69737e+06
4.453e+06
259153
1.0105e+07
1.23841e+08
1.23108e+08
3.97981e+07
5.35579e+07
2.71202e+07
2.71686e+07
295664
298357
256863
841246
8.68392e+06
3.21503e+06
3.35278e+06
1.27109e+06
1.31446e+06
3.99566e+07
470358
1.34392e+07
6.105e+06
263826
1.1264e+06
2.61964e+07
735208
300594
1.13275e+07
4.01565e+06
258122
281151
789179
8.46976e+06
290737
3.3242e+06
2.91733e+06
255895
1.21504e+07
1.37311e+08
1.26394e+08
3.94244e+07
6.71443e+07
2.99092e+07
2.83145e+07
1.34193e+06
2.59349e+07
831761
320662
1.18971e+07
4.37256e+06
259778
297953
292753
256653
918841
8.61891e+06
3.49994e+06
3.22196e+06
4.1625e+08
3.75026e+08
4.07599e+08
4.49669e+08
3.65768e+08
4.1786e+08
4.4053e+08
1.45439e+08
2.72648e+08
2.96554e+08
1.91059e+08
2.57551e+08
1.61736e+08
1.72435e+08
3.90246e+08
3.95288e+08
3.68393e+08
4.38248e+08
4.03468e+08
4.23731e+08
3.50911e+08
3.78494e+08
1.8355e+08
3.51299e+08
2.59774e+08
3.10793e+08
2.39611e+08
3.98972e+08
3.84166e+08
3.45129e+08
3.87109e+08
4.29177e+08
4.22736e+08
3.8604e+08
3.30034e+08
3.12901e+08
1.39945e+08
1.54537e+08
1.38113e+08
2.45195e+08
2.06948e+08
2.42607e+08
7.36727e+07
3.90156e+07
3.45132e+07
8.98561e+07
3.02456e+07
7.68939e+07
8.51624e+07
3.96569e+08
3.63074e+08
4.14311e+08
4.51599e+08
3.54788e+08
3.99396e+08
4.44546e+08
4.65488e+07
8.44297e+07
3.28302e+07
1.23433e+08
2.77641e+07
1.16421e+08
4.78014e+07
3.90799e+08
3.57185e+08
3.94409e+08
4.30865e+08
4.256e+08
3.88796e+08
3.51924e+08
3.78838e+08
3.23575e+08
2.21573e+08
3.21929e+08
3.05214e+08
3.81796e+08
3.04285e+08
1.48945e+08
2.91089e+08
2.75308e+08
1.91131e+08
1.67215e+08
2.54987e+08
1.7148e+08
1.29275e+08
2.51071e+08
2.80298e+08
1.82735e+08
2.30924e+08
1.62171e+08
1.49308e+08
1.42898e+08
2.62987e+08
2.8745e+08
1.83116e+08
1.67283e+08
2.52426e+08
1.56432e+08
5.08583e+07
1.26062e+08
8.92714e+07
3.28303e+07
1.23403e+08
2.95624e+07
5.03565e+07
5.12449e+07
3.30905e+07
1.2419e+08
8.84893e+07
2.95918e+07
1.2325e+08
5.03479e+07
2.10844e+07
5.19748e+06
1.92531e+07
5.26378e+06
2.0121e+07
2.02754e+07
4.59288e+06
5.84271e+07
1.40439e+08
1.38187e+08
5.91644e+07
1.39548e+08
5.78996e+07
5.84498e+07
3.85709e+08
3.73188e+08
2.7672e+08
2.06615e+08
3.28484e+08
2.59287e+08
4.15822e+08
3.78854e+08
3.21946e+08
3.23582e+08
2.21561e+08
3.04296e+08
3.81764e+08
3.05231e+08
3.81645e+08
3.58261e+08
2.69702e+08
2.00895e+08
3.21933e+08
2.55529e+08
4.02573e+08
4.27228e+08
4.35351e+08
4.41748e+08
4.21501e+08
4.25172e+08
4.40217e+08
4.28321e+08
4.14992e+08
4.18503e+08
3.76117e+08
4.54943e+08
4.14638e+08
3.6822e+08
4.51602e+08
3.99709e+08
2.71148e+08
2.69619e+08
3.85376e+08
2.7247e+08
4.0585e+08
3.97672e+08
3.34171e+08
1.44592e+08
1.57443e+08
1.43575e+08
2.55488e+08
2.5643e+08
2.14287e+08
1.01715e+08
2.3837e+08
6.05737e+07
1.11652e+08
2.11027e+08
5.38358e+07
1.1516e+08
9.95337e+07
6.32654e+07
2.07846e+08
1.24092e+08
5.77356e+07
1.04624e+08
1.96339e+08
7.25381e+07
3.48963e+07
8.79796e+07
3.74657e+07
7.7251e+07
8.1587e+07
2.97074e+07
1.42853e+08
2.87363e+08
2.62928e+08
1.82712e+08
1.563e+08
2.52345e+08
1.67076e+08
9.98419e+07
2.1706e+08
1.20867e+08
6.37765e+07
1.99849e+08
1.08723e+08
5.47857e+07
1.03721e+08
2.42662e+08
1.15214e+08
6.20705e+07
2.14727e+08
5.48886e+07
1.18115e+08
7.53334e+07
9.30015e+07
3.70651e+07
3.95238e+07
8.15981e+07
3.04925e+07
8.5213e+07
3.6554e+08
2.71213e+08
3.6515e+08
1.99155e+08
2.51382e+08
3.1574e+08
4.02772e+08
3.60658e+08
3.48411e+08
2.64143e+08
1.96142e+08
2.49803e+08
3.89061e+08
3.08063e+08
3.5711e+08
3.172e+08
3.20812e+08
2.19331e+08
3.70939e+08
2.95806e+08
2.93495e+08
3.96286e+08
4.18284e+08
4.01558e+08
4.30797e+08
4.10148e+08
4.13003e+08
4.07702e+08
3.77203e+08
2.72499e+08
2.65398e+08
3.73213e+08
2.70998e+08
3.87121e+08
3.80228e+08
3.95692e+08
4.15226e+08
3.75782e+08
4.57631e+08
4.09071e+08
3.58578e+08
4.40339e+08
3.12918e+08
1.3989e+08
1.38301e+08
1.54586e+08
2.06866e+08
2.45214e+08
2.42687e+08
7.50815e+07
3.71077e+07
3.65453e+07
8.88389e+07
3.07982e+07
8.21468e+07
8.1753e+07
1.04582e+08
6.27959e+07
2.49798e+08
1.15454e+08
2.15875e+08
5.5684e+07
1.19062e+08
1.03186e+08
6.68949e+07
2.22204e+08
1.24483e+08
2.00988e+08
1.14168e+08
5.86733e+07
1.46886e+08
1.9018e+08
3.03838e+08
2.79381e+08
2.58973e+08
1.7236e+08
1.65514e+08
6.35148e+07
3.42393e+07
3.15157e+07
8.26555e+07
2.52374e+07
7.6302e+07
7.08587e+07
8.62007e+07
1.08269e+08
5.84727e+07
1.9576e+08
4.91971e+07
1.79225e+08
9.59843e+07
9.02519e+07
1.00037e+08
5.68084e+07
2.33314e+08
1.09676e+08
4.70576e+07
1.97554e+08
1.27456e+08
1.77809e+08
2.56868e+08
2.89782e+08
1.60531e+08
2.41444e+08
1.45333e+08
4.25426e+07
2.97038e+07
7.6143e+07
1.17243e+08
2.41525e+07
1.07996e+08
4.67726e+07
4.22081e+07
7.61195e+07
1.17095e+08
2.92753e+07
4.60277e+07
2.4017e+07
1.07934e+08
1.75415e+07
4.68697e+06
1.85591e+07
4.69371e+06
1.90414e+07
1.92506e+07
3.42715e+06
5.0229e+07
1.33158e+08
1.32824e+08
5.64148e+07
5.44783e+07
1.24372e+08
5.50293e+07
3.16913e+08
1.25977e+08
1.4222e+08
1.26005e+08
2.34415e+08
2.34427e+08
1.92154e+08
4.26458e+08
4.09108e+08
3.66911e+08
4.52388e+08
3.6216e+08
4.46436e+08
4.16208e+08
3.71656e+08
2.02257e+08
3.00586e+08
3.00513e+08
2.84381e+08
2.84352e+08
3.714e+08
3.78486e+08
1.83592e+08
2.60001e+08
3.51209e+08
3.98939e+08
3.10838e+08
2.39647e+08
4.33118e+08
4.38269e+08
4.153e+08
4.38263e+08
4.25685e+08
4.25692e+08
4.3044e+08
3.95172e+08
2.65555e+08
2.65633e+08
3.79648e+08
3.92845e+08
2.62414e+08
3.92812e+08
4.26448e+08
3.66881e+08
4.09117e+08
4.52412e+08
4.46438e+08
3.62183e+08
4.16223e+08
9.02469e+07
5.98058e+07
2.28839e+08
9.87044e+07
4.78267e+07
1.88692e+08
1.11616e+08
8.53916e+07
5.87479e+07
1.92781e+08
1.01534e+08
9.78222e+07
1.69843e+08
4.77731e+07
6.68128e+07
3.40784e+07
3.76908e+07
8.85159e+07
7.48283e+07
8.10459e+07
2.77274e+07
1.29394e+08
2.80541e+08
2.51096e+08
1.82868e+08
1.4917e+08
2.3103e+08
1.62576e+08
4.15778e+07
1.16857e+08
7.46055e+07
3.12841e+07
2.45214e+07
1.03492e+08
4.65081e+07
4.09503e+07
3.08964e+07
1.14256e+08
7.40988e+07
4.47061e+07
1.02733e+08
2.43289e+07
1.71372e+07
4.59564e+06
1.86874e+07
4.65638e+06
1.7854e+07
1.86232e+07
3.78461e+06
4.78543e+07
1.30411e+08
1.27277e+08
5.72919e+07
5.1446e+07
1.18958e+08
5.40756e+07
3.47642e+08
2.55094e+08
3.39536e+08
1.74365e+08
2.86003e+08
2.25713e+08
3.86459e+08
3.35964e+08
2.86134e+08
2.85944e+08
1.83947e+08
2.59592e+08
3.4716e+08
2.59705e+08
3.4764e+08
3.39354e+08
2.54577e+08
1.74045e+08
3.86414e+08
2.25754e+08
2.8588e+08
3.93699e+08
4.09187e+08
3.93582e+08
4.09181e+08
4.05283e+08
4.05385e+08
3.88937e+08
3.7235e+08
2.57489e+08
2.57247e+08
3.66331e+08
3.81824e+08
2.49635e+08
3.81685e+08
3.84194e+08
3.87079e+08
3.45209e+08
4.29179e+08
3.30061e+08
4.22827e+08
3.86007e+08
2.84392e+08
1.12543e+08
1.22891e+08
1.12384e+08
2.07113e+08
1.75326e+08
2.07068e+08
5.04842e+07
8.93807e+07
3.27832e+07
1.25841e+08
2.95307e+07
4.9965e+07
1.23319e+08
5.06179e+07
8.79327e+07
1.23497e+08
3.29132e+07
4.97081e+07
2.9406e+07
1.22639e+08
2.07525e+07
5.31483e+06
1.88277e+07
5.25963e+06
1.98345e+07
1.99442e+07
4.62311e+06
5.74072e+07
1.39436e+08
1.36602e+08
5.78111e+07
5.70344e+07
5.70341e+07
1.38977e+08
3.65473e+08
1.99285e+08
3.65094e+08
2.71517e+08
3.15676e+08
4.02672e+08
2.515e+08
3.57096e+08
2.19313e+08
3.20794e+08
3.1722e+08
2.95789e+08
2.93502e+08
3.70909e+08
3.95698e+08
4.15252e+08
3.75782e+08
4.57632e+08
3.58598e+08
4.40346e+08
4.09082e+08
3.60538e+08
1.95891e+08
2.63993e+08
3.48496e+08
3.8898e+08
2.4986e+08
3.08013e+08
3.96282e+08
4.30815e+08
4.01599e+08
4.18289e+08
4.13036e+08
4.07638e+08
4.10162e+08
3.77025e+08
2.72818e+08
2.65497e+08
3.72827e+08
3.86935e+08
3.80341e+08
2.7125e+08
3.90234e+08
3.6846e+08
3.95314e+08
4.38321e+08
4.23752e+08
3.50934e+08
4.03458e+08
1.05935e+08
1.2526e+08
6.68769e+07
2.19875e+08
5.94214e+07
2.01016e+08
1.14858e+08
1.06028e+08
1.1297e+08
6.29853e+07
2.39325e+08
1.18752e+08
5.54459e+07
2.1151e+08
7.8917e+07
3.85751e+07
3.93703e+07
9.32347e+07
8.53947e+07
3.25529e+07
8.54775e+07
1.49256e+08
2.75458e+08
2.91203e+08
1.91406e+08
1.71822e+08
2.55123e+08
1.6753e+08
7.7057e+07
3.74338e+07
4.01096e+07
9.31072e+07
3.09001e+07
8.39508e+07
8.74124e+07
1.07761e+08
6.70971e+07
2.53048e+08
1.19176e+08
2.19775e+08
5.7324e+07
1.25299e+08
1.00971e+08
6.43949e+07
2.19268e+08
1.20252e+08
1.99435e+08
1.11544e+08
5.47174e+07
1.46984e+08
1.95579e+08
3.03694e+08
2.7871e+08
2.59357e+08
1.66605e+08
1.76126e+08
4.73144e+07
1.22951e+08
3.39182e+07
9.01228e+07
1.1909e+08
2.89654e+07
4.80083e+07
4.74623e+07
3.26012e+07
1.22374e+08
8.82203e+07
1.18703e+08
4.8282e+07
2.84364e+07
1.76024e+07
3.67898e+06
1.65089e+07
3.47823e+06
1.73405e+07
1.72778e+07
3.03682e+06
5.15129e+07
1.298e+08
1.31431e+08
5.09397e+07
1.3049e+08
5.11373e+07
5.1293e+07
9.48131e+07
5.77739e+07
1.10671e+08
2.01207e+08
5.1475e+07
1.00478e+08
1.86978e+08
1.0203e+08
6.64033e+07
1.11608e+08
2.50367e+08
1.22934e+08
5.425e+07
2.10396e+08
1.44486e+08
1.8837e+08
2.64343e+08
3.03019e+08
1.55529e+08
1.751e+08
2.54344e+08
3.57762e+08
3.00649e+08
2.01266e+08
3.00657e+08
2.84112e+08
3.63043e+08
2.8412e+08
3.68083e+08
3.67735e+08
1.94101e+08
2.74802e+08
3.10905e+08
2.484e+08
4.09193e+08
3.10377e+08
1.37319e+08
1.27958e+08
1.28069e+08
2.30692e+08
2.30782e+08
1.98118e+08
3.68165e+08
1.94049e+08
3.67319e+08
2.74628e+08
4.09416e+08
3.10789e+08
2.48326e+08
4.08211e+08
4.38916e+08
4.38916e+08
4.18958e+08
4.28865e+08
4.10678e+08
4.28844e+08
3.96521e+08
3.63053e+08
4.14392e+08
4.51605e+08
4.44451e+08
3.99398e+08
3.54782e+08
3.88338e+08
2.73748e+08
2.7371e+08
3.81887e+08
4.00993e+08
2.70151e+08
4.01045e+08
4.65197e+07
8.49486e+07
1.23199e+08
3.3408e+07
4.75724e+07
2.80657e+07
1.16371e+08
1.9281e+07
4.07629e+06
1.70925e+07
4.14506e+06
1.84078e+07
1.89714e+07
3.84734e+06
5.28824e+07
1.33508e+08
1.33806e+08
5.20558e+07
5.30664e+07
1.31902e+08
5.41802e+07
3.64101e+08
3.50534e+08
2.63528e+08
1.95071e+08
3.12957e+08
2.45117e+08
3.92444e+08
3.55919e+08
3.04451e+08
3.04553e+08
2.18335e+08
2.93216e+08
3.54938e+08
2.93187e+08
3.64075e+08
3.50546e+08
2.63633e+08
1.95016e+08
3.92398e+08
2.45122e+08
3.12987e+08
3.93711e+08
4.156e+08
4.15596e+08
4.1227e+08
4.11872e+08
3.90868e+08
4.11863e+08
3.90847e+08
3.943e+08
3.57118e+08
4.30845e+08
3.51867e+08
3.88828e+08
4.25623e+08
3.73785e+08
2.64419e+08
2.64558e+08
3.78527e+08
3.84747e+08
2.59526e+08
3.84768e+08
3.16932e+08
1.38596e+08
1.60589e+08
1.38561e+08
2.48513e+08
2.02834e+08
2.4849e+08
4.54752e+07
1.20078e+08
3.15006e+07
8.39257e+07
1.13776e+08
2.72023e+07
4.7103e+07
4.55058e+07
3.13484e+07
1.1993e+08
8.37374e+07
4.73882e+07
1.13718e+08
2.70755e+07
1.86066e+07
3.80408e+06
1.69083e+07
4.11413e+06
3.53642e+06
1.91171e+07
1.82273e+07
5.13819e+07
1.31066e+08
1.30183e+08
5.17929e+07
5.44689e+07
1.26929e+08
5.23913e+07
4.1495e+08
3.76087e+08
4.18478e+08
4.54938e+08
3.68189e+08
4.1463e+08
4.5159e+08
3.34196e+08
1.57476e+08
1.44693e+08
1.43484e+08
2.56458e+08
2.5548e+08
2.14203e+08
3.85772e+08
3.73098e+08
2.06737e+08
2.76741e+08
3.28452e+08
4.15919e+08
2.59207e+08
3.81657e+08
2.00809e+08
3.58175e+08
2.69752e+08
4.0257e+08
3.21889e+08
2.55579e+08
4.27236e+08
4.41753e+08
4.35353e+08
4.21507e+08
4.25172e+08
4.40222e+08
4.28316e+08
4.16251e+08
3.74972e+08
4.07621e+08
4.49636e+08
4.17881e+08
4.4049e+08
3.65735e+08
3.9967e+08
2.71086e+08
2.69618e+08
3.85372e+08
4.05824e+08
3.97691e+08
2.72466e+08
9.96872e+07
6.38029e+07
1.20886e+08
2.17018e+08
5.47622e+07
1.08679e+08
1.99823e+08
1.03272e+08
1.147e+08
2.4248e+08
6.15068e+07
1.17595e+08
2.14564e+08
5.44159e+07
7.47879e+07
3.67532e+07
9.23247e+07
3.88789e+07
8.44481e+07
8.11842e+07
3.02397e+07
1.45084e+08
2.72566e+08
2.96594e+08
1.90945e+08
1.7208e+08
1.61448e+08
2.57509e+08
4.70763e+07
9.04233e+07
3.41004e+07
1.22554e+08
2.90966e+07
4.74131e+07
1.18812e+08
4.71518e+07
8.80504e+07
1.22256e+08
3.22386e+07
4.78881e+07
1.18501e+08
2.83223e+07
1.75391e+07
3.46011e+06
1.65588e+07
3.57609e+06