/*--------------------------------*- C++ -*----------------------------------*\
  =========                 |
  \\      /  F ield         | OpenFOAM: The Open Source CFD Toolbox
   \\    /   O peration     | Website:  https://openfoam.org
    \\  /    A nd           | Version:  9
     \\/     M anipulation  |
\*---------------------------------------------------------------------------*/
FoamFile
{
    format      ascii;
    class       volScalarField;
    location    "0.0006";
    object      rho.air;
}
// * * * * * * * * * * * * * * * * * * * * * * * * * * * * * * * * * * * * * //

dimensions      [1 -3 0 0 0 0 0];

internalField   nonuniform List<scalar> 
6435
(
1.225
1.225
1.225
1.225
1.225
1.225
1.225
1.225
1.225
1.225
1.225
1.225
1.225
1.225
0.652665
1.22642
3.23318
2.13521
1.22513
3.46172
1.25559
1.2251
2.38365
1.22507
1.22501
1.26006
1.225
1.225
2.63158
1.05496
2.31186
2.08796
2.80301
2.27959
2.60709
0.657286
0.964978
0.940914
1.68332
1.63747
1.98846
2.07305
2.8428
1.56435
1.95294
1.82767
2.99439
1.22604
1.43939
0.775172
1.34256
1.05593
2.07004
1.76352
2.07801
2.33033
2.87516
1.97469
2.74991
1.45474
1.38656
2.40625
2.52117
2.68518
2.545
2.59099
2.71464
2.51774
2.81644
2.42253
2.03696
2.73404
2.80245
1.75877
1.48408
2.4443
2.6124
1.8574
2.31041
2.52258
2.55404
2.68653
2.86801
2.89236
2.4596
2.68645
2.60638
2.69389
2.09227
2.30581
2.71465
2.69363
2.59483
2.85617
2.26237
2.82108
2.82635
2.84679
1.75354
2.69861
1.68834
2.77635
2.22568
2.87768
2.12908
2.8991
2.71766
2.9675
1.8843
2.77591
2.61889
1.60902
1.58145
2.44745
1.41097
2.7219
1.76152
1.9937
2.67194
2.73899
1.70753
2.67783
1.44574
2.51735
2.27307
1.32816
1.84702
2.6332
1.39369
2.5221
1.24658
1.33215
1.73214
3.35346
3.17576
2.68637
3.18994
2.49326
1.86899
3.4799
1.34616
2.2814
1.32771
1.54758
1.24013
1.59717
1.23791
2.8498
1.25721
1.6919
2.39944
2.98761
2.25082
1.3647
2.0226
1.27605
1.23265
1.43309
2.48992
1.86953
1.25922
1.29693
1.85385
1.25857
1.46231
1.22878
1.23393
1.33612
0.83746
0.806448
2.85151
3.23541
1.83257
3.28916
2.1601
3.38986
0.729892
1.04755
1.09184
1.78265
1.81873
2.16919
2.16951
1.02564
1.17268
1.0313
1.77269
1.64614
1.90082
1.97106
3.14506
2.18916
3.06434
1.53911
1.53912
2.64147
2.64074
2.83012
3.18026
2.91324
3.11773
2.74933
3.14611
2.98973
1.82674
2.69739
2.73308
1.43265
1.3533
2.27711
2.29028
2.67658
3.12925
2.6008
2.79154
3.28429
3.1681
2.83052
2.58673
3.06363
1.89973
3.30432
2.45006
3.01318
3.09853
3.25118
3.35769
3.09385
3.03626
3.34334
3.18571
3.0498
1.26582
1.24926
1.71881
1.48747
1.22555
1.23527
1.24288
1.93324
1.2323
1.45769
2.43375
1.55948
1.31838
3.07971
1.4598
1.23338
1.22605
1.22866
1.22584
1.25343
1.22509
1.22563
1.2288
1.25044
1.53882
1.22674
1.23539
1.28163
1.22503
1.24509
1.22558
1.31277
1.22515
1.22797
1.23021
1.22747
1.22506
1.22711
1.25731
1.22619
1.26278
1.22602
1.22504
1.22559
1.22646
1.248
1.22528
1.22569
1.23504
1.225
1.22778
1.22507
1.22524
1.225
1.22501
1.22501
1.225
1.22501
1.22512
1.22525
1.22505
1.22724
1.22501
1.225
1.22503
1.22507
1.225
1.225
1.225
1.225
1.225
1.225
1.225
1.225
1.225
1.225
1.225
1.225
1.225
1.225
1.22501
1.225
1.225
1.225
1.22505
1.225
1.225
1.225
1.225
1.22509
1.22507
1.225
1.225
1.225
1.225
1.225
1.22501
1.225
1.225
1.225
1.225
1.225
1.225
1.225
1.225
1.225
1.225
1.225
1.225
1.225
1.225
1.225
1.225
1.225
1.225
1.225
1.225
1.225
1.225
1.225
1.225
1.225
1.225
1.225
1.225
1.225
1.225
1.225
1.225
1.225
1.225
1.225
1.225
1.225
1.225
1.225
1.225
1.225
1.225
1.22791
1.225
1.225
1.23645
1.29092
1.22501
1.22503
1.22732
1.22509
1.22507
1.225
1.225
1.225
2.19623
1.65999
1.22719
1.22551
1.71657
2.78866
2.83081
2.93385
2.57251
2.92607
2.52213
1.40099
2.93877
2.53785
1.54458
2.70613
2.93057
2.4045
1.22739
1.26973
1.97425
1.26235
1.8977
1.27919
1.22693
1.22548
1.24068
1.51881
1.24924
1.73549
1.25926
1.22615
1.22515
1.22532
1.22921
1.23086
1.29591
1.23694
1.35241
1.23122
1.22561
1.23228
1.43186
1.24648
1.24313
1.4043
1.225
1.225
1.22503
1.22506
1.22641
1.22616
1.22505
1.225
1.22502
1.22504
1.22502
1.22555
1.22636
1.22504
1.22502
1.225
1.225
1.22531
1.22501
1.22571
1.22503
2.91996
2.49022
1.69628
3.56444
3.13603
2.99874
2.80433
2.30015
2.87377
2.93173
1.23378
1.29031
1.27544
0.819977
2.27408
0.582769
2.07553
0.497482
2.0697
0.893195
2.59846
2.22787
2.65736
2.88058
2.61455
2.63573
2.75831
2.7013
2.69997
2.53641
2.67064
3.25577
2.93722
3.48761
3.27108
2.79008
3.32022
3.40447
3.22275
3.29636
2.79813
2.94449
2.97616
3.29058
2.87673
2.55023
2.74946
2.70512
2.52944
2.58155
2.61986
2.44074
1.53333
2.79207
2.19359
2.71978
2.10252
2.62025
1.59617
1.25885
1.91262
1.27816
1.22748
1.83044
1.26667
1.22697
0.7059
0.630605
0.499939
1.5114
1.68072
1.58969
1.71823
0.489459
0.43054
0.418653
1.35927
1.43688
1.33573
1.40258
1.05307
1.04248
0.776609
1.96785
1.85619
1.71638
1.66969
1.175
2.21536
1.09255
0.765836
0.874645
1.8319
1.92155
1.97442
0.970331
0.931295
0.651254
0.658321
1.68382
1.622
0.609875
0.815236
0.539134
1.84604
1.48854
1.91147
1.55463
2.11351
2.04222
1.13346
0.928372
1.12056
1.92266
1.78803
2.33834
1.0462
1.34351
1.05991
0.768626
2.08039
1.75484
0.39489
0.20335
2.63395
2.92097
0.560722
0.31213
0.368444
0.380882
0.167661
0.140696
0.188524
0.0826377
0.23184
0.197675
0.0577638
0.139977
0.0359289
0.0427408
0.0677478
0.135949
0.119438
0.113543
0.0288596
0.0308674
0.0340778
0.036011
0.193042
0.313157
0.190927
0.0856759
0.0872826
0.0482512
0.050142
0.605164
0.594515
0.34323
0.370394
0.151524
0.37733
0.164186
0.23278
0.471194
0.310543
0.156205
0.10874
0.060937
0.0933252
0.298588
0.179185
0.0714335
0.262024
0.154837
0.0402179
0.0465698
0.433663
0.742333
0.647231
0.459986
0.262888
0.402936
0.196329
0.113779
0.566233
0.389162
0.378942
0.239837
0.110753
0.0647249
0.605996
0.178726
0.555917
0.497864
1.16766
1.22977
0.53952
0.266775
0.95962
0.730502
0.840267
1.67662
1.39011
0.643699
2.2058
2.91852
2.15576
2.28693
1.20581
2.3261
1.2631
2.17447
1.42724
1.35345
2.39504
2.44245
2.8689
2.87155
2.79845
2.40876
2.69485
2.61701
2.5339
2.67865
2.57745
3.06822
2.66845
2.95909
3.14225
2.79487
2.83073
2.98647
2.99449
1.68672
2.56867
2.9494
2.34184
2.44004
1.41247
2.87608
3.29157
3.15754
3.30403
3.17445
2.82338
2.74022
2.68117
2.08874
2.71449
2.45436
2.308
2.68961
2.59956
2.37019
1.8833
1.59494
2.70854
2.90283
2.55233
2.88881
2.98304
2.80636
2.9324
2.57532
1.5479
1.7936
2.74828
2.89657
2.91683
2.88891
2.05921
2.87929
1.97364
2.83432
2.67748
1.31941
2.24173
1.93709
1.42579
2.73988
2.4912
1.45246
1.22544
1.23952
1.24569
1.22613
1.25791
1.66619
1.22516
1.22501
1.22519
1.225
1.225
1.225
1.225
1.225
1.22501
1.2251
1.225
1.225
1.225
1.225
0.00315431
1.48098
0.109134
0.41014
3.00064
1.225
1.225
0.219942
2.42676
0.766738
0.853407
1.12846
3.13668
2.95359
1.44736
2.88875
2.94393
2.34371
3.09956
2.8592
1.84532
1.57307
1.2286
1.225
2.89754
2.36183
3.64514
3.31973
2.74137
2.75831
2.18226
1.94175
2.95641
1.3515
1.35168
1.22504
1.225
1.22513
1.225
1.225
1.225
1.225
1.225
1.23182
1.22501
1.22504
1.225
1.225
0.0285881
0.188854
0.387808
0.0776072
0.032409
0.415547
0.648558
0.00338253
0.012579
0.0115307
0.00485252
0.00527632
0.0218829
0.0204214
2.91488
0.710324
0.0738948
0.921585
0.184133
3.0533
1.63975
0.00692092
0.00420636
0.016333
0.0122831
0.00683087
0.0284897
0.0509845
0.0337782
0.131471
0.129045
0.0107991
0.0116765
0.048963
0.046652
0.0506187
0.047668
0.195108
0.0884292
0.310142
0.0847447
0.316014
0.0439937
0.260311
0.165128
0.0279729
0.0153392
0.0636645
0.110684
0.020307
0.0739642
0.0349329
0.123213
0.126682
0.233104
0.343248
0.113237
0.06575
0.243263
0.112975
0.566947
0.189231
0.385129
0.109802
0.32483
0.338214
0.351127
0.362126
0.786867
0.847138
0.427149
1.08053
1.02192
0.185705
0.584695
0.181842
0.57145
0.137836
0.512815
0.373483
0.548608
0.402963
0.840452
1.02974
0.476534
1.35068
1.10403
0.229536
0.874762
0.351752
0.654622
0.434836
0.882606
0.472046
0.0750795
0.229516
0.245809
0.54899
0.805667
0.270119
1.00556
0.385858
0.63513
0.824845
1.74464
0.255964
0.941692
0.384881
1.32882
0.606043
0.803077
1.62006
0.833693
1.6241
1.50265
2.58942
2.42656
1.50529
1.62303
0.910306
1.80396
1.69077
1.55346
2.63835
1.66585
2.49096
0.774695
1.32513
0.792014
1.41325
0.847474
2.21744
1.44757
1.79226
2.61432
1.55042
1.00263
0.81809
1.55263
1.79227
0.919691
2.00663
1.7536
1.60881
2.68477
1.85789
2.50303
1.81009
1.32765
0.591948
2.6048
1.64272
1.14316
2.12994
0.995683
2.56769
1.8414
1.30926
0.61826
1.13104
2.04626
2.33161
2.25494
1.31484
1.59841
2.98323
2.55663
2.50416
2.44419
2.99087
2.23935
3.01566
2.33527
2.96766
3.17399
2.31555
3.2014
2.96706
2.17876
1.41372
2.94048
2.31181
1.57362
2.99146
2.50207
2.95531
2.97917
2.37309
3.10927
2.99646
3.12601
2.99794
2.44086
3.12207
2.59603
2.98708
3.49573
2.90104
3.27771
3.53011
3.35356
3.49498
3.11168
3.01179
2.59879
2.89546
2.70297
3.09057
2.96332
2.81415
3.02187
2.91338
2.79918
2.44517
3.00109
2.63103
2.94648
2.43339
3.12388
3.17113
3.4427
2.94194
3.0558
3.44885
2.54219
2.90486
3.04535
2.02177
3.0154
2.83312
2.80732
2.60644
2.84014
2.7989
2.58405
2.94289
2.92084
2.33497
1.8411
2.65771
1.34514
2.00788
3.04353
2.97686
2.51894
3.23143
2.98855
1.81385
3.19447
2.95809
3.23108
2.89676
3.00283
2.3955
3.09093
3.19091
1.54817
2.75801
2.7244
3.09409
2.41612
1.62754
3.17996
3.03841
2.96966
2.72862
2.49443
1.33861
1.83131
3.0479
3.34078
3.66619
2.15847
2.08613
1.29597
1.28534
1.84391
3.02522
2.90205
1.9221
2.96322
1.9118
2.60889
1.33762
2.90258
2.40931
1.82184
3.54407
3.3748
2.85207
3.43046
3.40692
3.47511
3.59972
1.66268
1.24497
1.26854
1.71505
2.64873
2.80701
1.48978
1.26441
1.2265
1.25943
2.93437
1.25314
1.74516
1.70067
1.23636
1.25192
1.22571
1.23673
1.36788
2.59795
1.58235
1.22535
1.29022
1.23304
2.23162
1.33928
1.23807
1.47723
2.28273
1.22958
1.31045
1.23411
1.23878
1.47767
1.22541
1.24212
1.22947
1.22549
1.23423
2.18238
1.48064
1.29392
1.22599
1.22566
1.22507
1.25035
1.44787
1.22836
1.26206
1.225
1.225
1.225
1.22516
1.225
1.225
1.225
1.22627
1.22503
1.22504
1.22502
1.22561
1.22591
1.24786
1.22612
1.225
1.22503
1.22561
1.22593
1.24613
1.22502
1.22501
1.225
1.22995
1.22515
1.225
1.22545
1.22501
1.22509
1.22527
1.22502
1.225
1.22501
1.22528
1.229
1.225
1.225
1.225
1.22509
1.22501
1.22683
1.22519
1.225
1.225
1.225
1.225
1.225
1.225
1.225
1.225
1.225
1.225
1.225
1.225
1.225
1.225
1.225
1.225
1.225
1.225
1.225
1.225
1.225
1.225
1.225
1.225
1.225
1.225
1.225
1.225
1.225
1.225
1.225
1.225
1.225
1.225
1.225
1.225
1.225
1.225
1.225
1.225
1.225
1.225
1.225
1.225
1.225
1.225
1.225
1.225
1.225
1.225
1.225
1.225
1.225
1.225
1.225
1.225
1.225
1.225
1.225
1.225
1.225
1.225
1.225
1.225
1.225
1.225
1.225
1.225
1.225
1.225
1.225
1.225
1.225
1.225
1.225
1.225
1.225
1.225
1.225
1.225
1.225
1.225
1.225
1.225
1.225
1.225
1.225
1.225
1.225
1.225
1.225
1.225
1.225
1.225
1.225
1.225
1.225
1.225
1.225
1.225
1.225
1.225
1.225
1.225
1.225
1.225
1.225
1.225
1.225
1.225
1.225
1.225
1.225
1.225
1.225
1.225
1.225
1.225
1.225
1.225
1.225
1.225
1.225
1.225
1.225
1.225
1.225
1.225
1.225
1.225
1.225
1.225
1.225
1.225
1.225
1.225
1.225
1.225
1.225
1.225
1.225
1.225
1.225
1.225
1.225
1.225
1.225
1.225
1.225
1.225
1.225
1.225
1.225
1.225
1.225
1.225
1.225
1.225
1.225
1.225
1.225
1.225
1.225
1.225
1.225
1.225
1.225
1.225
1.225
1.225
1.225
1.225
1.225
1.225
1.225
1.225
1.225
1.225
1.225
1.225
1.225
1.225
1.225
1.225
1.225
1.225
1.225
1.225
1.225
1.225
1.225
1.225
1.225
1.225
1.225
1.225
1.225
1.225
1.225
1.225
1.225
1.225
1.225
1.225
1.225
1.225
1.225
1.225
1.225
1.225
1.225
1.225
1.225
1.225
1.225
1.225
1.225
1.225
1.225
1.225
1.225
1.225
1.225
1.225
1.225
1.225
1.225
1.225
1.225
1.225
1.225
1.225
1.225
1.225
1.225
1.225
1.225
1.225
1.225
1.225
1.225
1.225
1.225
1.225
1.225
1.225
1.225
1.225
1.225
1.225
1.225
1.225
1.225
1.225
1.225
1.225
1.225
1.225
1.225
1.225
1.225
1.225
1.225
1.225
1.225
1.225
1.225
1.225
1.225
1.225
1.225
1.225
1.225
1.225
1.225
1.225
1.225
1.225
1.225
1.225
1.225
1.225
1.225
1.225
1.225
1.225
1.225
1.225
1.225
1.225
1.225
1.225
1.225
1.225
1.225
1.225
1.225
1.225
1.225
1.225
1.225
1.225
1.225
1.225
1.225
1.225
1.225
1.225
1.225
1.225
1.225
1.225
1.225
1.225
1.225
1.225
1.225
1.225
1.225
1.225
1.225
1.225
1.225
1.225
1.225
1.225
1.225
1.225
1.225
1.225
1.225
1.225
1.225
1.225
1.225
1.225
1.225
1.225
1.225
1.225
1.225
1.225
1.225
1.225
1.225
1.225
1.225
1.225
1.225
1.225
1.225
1.225
1.225
1.225
1.225
1.225
1.225
1.225
1.225
1.225
1.225
1.225
1.225
1.225
1.225
1.225
1.225
1.225
1.225
1.225
1.225
1.225
1.225
1.225
1.225
1.225
1.225
1.225
1.225
1.225
1.225
1.225
1.225
1.225
1.225
1.225
1.225
1.225
1.225
1.225
1.225
1.225
1.225
1.225
1.225
1.225
1.225
1.225
1.225
1.225
1.225
1.225
1.225
1.225
1.225
1.225
1.225
1.225
1.225
1.225
1.225
1.225
1.225
1.225
1.225
1.225
1.225
1.225
1.225
1.225
1.225
1.225
1.225
1.225
1.225
1.225
1.225
1.225
1.225
1.225
1.225
1.225
1.225
1.225
1.225
1.225
1.225
1.225
1.225
1.225
1.225
1.225
1.225
1.225
1.225
1.225
1.225
1.225
1.225
1.225
1.225
1.225
1.225
1.225
1.225
1.225
1.225
1.225
1.225
1.225
1.225
1.225
1.225
1.225
1.225
1.225
1.225
1.225
1.225
1.225
1.225
1.225
1.225
1.225
1.225
1.225
1.225
1.225
1.225
1.225
1.225
1.225
1.225
1.225
1.225
1.225
1.225
1.225
1.225
1.225
1.225
1.225
1.225
1.225
1.225
1.225
1.225
1.225
1.225
1.225
1.225
1.225
1.225
1.225
1.225
1.225
1.225
1.225
1.225
1.225
1.225
1.225
1.225
1.225
1.225
1.225
1.225
1.225
1.225
1.225
1.225
1.225
1.225
1.225
1.225
1.225
1.225
1.225
1.225
1.225
1.225
1.225
1.225
1.225
1.225
1.225
1.225
1.225
1.225
1.225
1.225
1.225
1.225
1.225
1.225
1.225
1.225
1.225
1.225
1.225
1.225
1.225
1.225
1.225
1.225
1.225
1.225
1.225
1.225
1.225
1.225
1.225
1.225
1.225
1.225
1.225
1.225
1.225
1.225
1.225
1.225
1.225
1.225
1.225
1.225
1.225
1.225
1.225
1.225
1.225
1.225
1.225
1.225
1.225
1.225
1.225
1.225
1.225
1.225
1.225
1.225
1.225
1.225
1.225
1.225
1.225
1.225
1.225
1.225
1.225
1.225
1.225
1.225
1.225
1.225
1.225
1.225
1.225
1.225
1.225
1.225
1.225
1.225
1.225
1.225
1.225
1.225
1.225
1.225
1.225
1.225
1.225
1.225
1.225
1.225
1.225
1.225
1.225
1.225
1.225
1.225
1.225
1.225
1.225
1.225
1.225
1.225
1.225
1.225
1.225
1.225
1.225
1.225
1.225
1.225
1.225
1.225
1.225
1.225
1.225
1.225
1.225
1.225
1.225
1.225
1.225
1.225
1.225
1.225
1.225
1.225
1.225
1.225
1.225
1.225
1.225
1.225
1.225
1.225
1.225
1.225
1.225
1.225
1.225
1.225
1.225
1.225
1.225
1.225
1.225
1.225
1.225
1.225
1.225
1.225
1.225
1.225
1.225
1.225
1.225
1.225
1.225
1.225
1.225
1.225
1.225
1.225
1.225
1.225
1.225
1.225
1.225
1.225
1.225
1.225
1.225
1.225
1.225
1.225
1.225
1.225
1.225
1.225
1.225
1.225
1.225
1.225
1.225
1.225
1.225
1.225
1.225
1.225
1.225
1.225
1.225
1.225
1.225
1.225
1.225
1.225
1.225
1.225
1.225
1.225
1.225
1.225
1.225
1.225
1.225
1.225
1.225
1.225
1.225
1.225
1.225
1.225
1.225
1.225
1.225
1.225
1.225
1.225
1.225
1.225
1.225
1.225
1.225
1.225
1.225
1.225
1.225
1.225
1.225
1.225
1.225
1.225
1.225
1.225
1.225
1.225
1.225
1.225
1.225
1.225
1.225
1.225
1.225
1.225
1.225
1.225
1.225
1.225
1.225
1.225
1.225
1.225
1.225
1.225
1.225
1.225
1.225
1.225
1.225
1.225
1.225
1.225
1.225
1.225
1.225
1.225
1.225
1.225
1.225
1.225
1.225
1.225
1.225
1.225
1.225
1.225
1.225
1.225
1.225
1.225
1.225
1.225
1.225
1.225
1.225
1.225
1.225
1.225
1.225
1.225
1.225
1.225
1.225
1.225
1.225
1.225
1.225
1.225
1.225
1.225
1.225
1.225
1.225
1.225
1.225
1.225
1.225
1.225
1.225
1.225
1.225
1.225
1.225
1.225
1.225
1.225
1.225
1.225
1.225
1.225
1.225
1.225
1.225
1.225
1.225
1.225
1.225
1.225
1.225
1.225
1.225
1.225
1.225
1.225
1.225
1.225
1.225
1.225
1.225
1.225
1.225
1.225
1.225
1.225
1.22583
1.22502
1.225
1.225
1.225
1.22532
1.49646
1.22877
1.225
1.225
1.225
1.225
1.225
1.225
1.225
1.225
1.225
1.225
3.29029
3.29742
2.19655
1.41103
1.23204
1.22512
0.768078
0.913751
1.54618
2.72796
0.646245
0.588262
2.52199
1.75871
2.87265
1.16776
2.84953
1.25264
1.225
1.225
1.225
1.225
1.225
1.225
1.225
1.225
1.225
1.225
1.225
1.225
1.225
1.225
1.225
1.225
1.225
1.225
1.225
1.225
1.225
1.225
1.225
1.225
1.225
1.225
1.225
1.225
1.225
1.225
1.225
1.225
1.225
1.225
1.225
1.225
1.225
1.225
1.225
1.225
1.225
1.225
1.225
1.225
1.225
1.225
1.225
1.225
1.225
1.225
1.225
1.225
1.225
1.225
1.225
1.225
1.225
1.225
1.225
1.225
1.225
1.225
1.225
1.225
1.225
1.225
1.225
1.225
1.225
1.225
1.225
1.225
1.225
1.225
1.225
1.225
1.225
1.225
1.225
1.225
1.225
1.225
1.225
1.225
1.225
1.225
1.225
1.225
1.225
1.225
1.225
1.225
1.225
1.225
1.225
1.225
1.225
1.225
1.225
1.225
1.225
1.225
1.225
1.225
1.225
1.225
1.225
1.225
1.225
1.225
1.225
1.225
1.225
1.225
1.225
1.225
1.225
1.225
1.225
1.225
1.225
1.225
1.225
1.225
1.225
1.225
1.225
1.225
1.225
1.225
1.225
1.225
1.225
1.225
1.225
1.225
1.225
1.225
1.225
1.225
1.225
1.225
1.225
1.225
1.225
1.225
1.225
1.225
1.225
1.225
1.225
1.225
1.225
1.225
1.225
1.225
1.225
1.225
1.225
1.225
1.225
1.225
1.225
1.225
1.225
1.225
1.225
1.225
1.225
1.225
1.225
1.225
1.225
1.225
1.225
1.225
1.225
1.225
1.225
1.225
1.225
1.225
1.225
1.225
1.225
1.225
1.225
1.225
1.225
1.225
1.225
1.225
1.225
1.225
1.225
1.225
1.225
1.225
1.225
1.225
1.225
1.225
1.225
1.225
1.225
1.225
1.225
1.225
1.225
1.225
1.225
1.225
1.225
1.225
1.225
1.225
1.225
1.225
1.225
1.225
1.225
1.225
1.225
1.225
1.225
1.225
1.225
1.225
1.225
1.225
1.225
1.225
1.225
1.225
1.225
1.225
1.225
1.225
1.225
1.225
1.225
1.225
1.225
1.225
1.225
1.225
1.225
1.225
1.225
1.225
1.225
1.225
1.225
1.225
1.225
1.225
1.225
1.225
1.225
1.225
1.225
1.225
1.225
1.225
1.225
1.225
1.22694
1.22533
1.2251
1.22506
1.225
1.225
1.225
1.225
1.225
1.225
1.225
1.225
1.225
1.23131
1.2253
1.225
1.22539
1.225
1.225
1.225
1.225
1.225
1.22556
1.22724
1.22567
1.22687
1.2251
1.22506
1.22513
1.22505
1.22504
1.22506
1.22505
1.22505
1.22502
1.22503
1.225
1.22501
1.22504
1.225
1.225
1.22501
1.225
1.22504
1.225
1.225
1.225
1.225
1.225
1.225
1.225
1.225
1.225
1.225
1.225
1.225
1.225
1.225
1.225
1.225
1.225
1.225
1.225
1.225
1.225
1.225
1.225
1.225
1.225
1.225
1.225
1.225
1.225
1.225
1.225
1.225
1.225
1.225
1.225
1.225
1.225
1.225
1.225
1.225
1.225
1.225
1.225
1.225
1.225
1.225
1.225
1.225
1.225
1.225
1.225
1.225
1.225
1.225
1.225
1.225
1.225
1.225
1.225
1.225
1.225
1.225
1.225
1.225
1.225
1.225
1.225
1.225
1.225
1.225
1.225
1.225
1.225
1.225
1.225
1.225
1.225
1.225
1.225
1.225
1.225
1.225
1.225
1.225
1.225
1.225
1.225
1.225
1.225
1.225
1.225
1.225
1.225
1.225
1.225
1.225
1.225
1.225
1.225
1.225
1.225
1.225
1.225
1.225
1.225
1.225
1.225
1.225
1.225
1.225
1.225
1.225
1.225
1.225
1.225
1.225
1.225
1.225
1.225
1.225
1.225
1.225
1.225
1.225
1.225
1.225
1.225
1.225
1.225
1.225
1.225
1.225
1.225
1.225
1.225
1.225
1.225
1.225
1.225
1.225
1.225
1.225
1.225
1.225
1.225
1.225
1.225
1.225
1.225
1.225
1.225
1.225
1.225
1.225
1.225
1.225
1.225
1.225
1.225
1.225
1.225
1.225
1.225
1.225
1.225
1.225
1.225
1.225
1.225
1.225
1.225
1.225
1.225
1.225
1.225
1.225
1.225
1.225
1.225
1.225
1.225
1.225
1.225
1.225
1.225
1.225
1.225
1.225
1.225
1.225
1.225
1.225
1.225
1.225
1.225
1.225
1.225
1.225
1.225
1.225
1.225
1.225
1.225
1.225
1.225
1.225
1.225
1.225
1.225
1.225
1.225
1.225
1.225
1.225
1.225
1.225
1.225
1.225
1.225
1.225
1.225
1.225
1.225
1.225
1.225
1.225
1.225
1.225
1.225
1.225
1.225
1.225
1.225
1.225
1.225
1.225
1.225
1.225
1.225
1.225
1.225
1.225
1.225
1.225
1.225
1.225
1.225
1.225
1.225
1.225
1.225
1.225
1.225
1.225
1.225
1.225
1.225
1.225
1.225
1.225
1.225
1.225
1.225
1.225
1.225
1.225
1.225
1.225
1.225
1.225
1.225
1.225
1.225
1.225
1.225
1.225
1.225
1.225
1.225
1.225
1.225
1.225
1.225
1.225
1.225
1.225
1.225
1.225
1.225
1.225
1.225
1.225
1.225
1.225
1.225
1.225
1.225
1.225
1.225
1.225
1.225
1.225
1.225
1.225
1.225
1.225
1.225
1.225
1.225
1.225
1.225
1.225
1.225
1.225
1.225
1.225
1.225
1.225
1.225
1.225
1.225
1.225
1.225
1.225
1.225
1.225
1.225
1.225
1.225
1.225
1.225
1.225
1.225
1.225
1.225
1.225
1.225
1.225
1.225
1.225
1.225
1.225
1.225
1.225
1.225
1.225
1.225
1.225
1.225
1.225
1.225
1.225
1.225
1.225
1.225
1.225
1.225
1.225
1.225
1.225
1.225
1.225
1.225
1.225
1.225
1.225
1.225
1.225
1.225
1.225
1.225
1.225
1.225
1.225
1.225
1.225
1.225
1.225
1.225
1.225
1.225
1.225
1.225
1.225
1.225
1.225
1.225
1.225
1.225
1.225
1.225
1.225
1.225
1.225
1.225
1.225
1.225
1.225
1.225
1.225
1.225
1.225
1.225
1.225
1.225
1.225
1.225
1.225
1.225
1.225
1.225
1.225
1.225
1.225
1.225
1.225
1.225
1.225
1.225
1.225
1.225
1.225
1.225
1.225
1.225
1.225
1.225
1.225
1.225
1.225
1.225
1.225
1.225
1.225
1.225
1.225
1.225
1.225
1.225
1.225
1.225
1.225
1.225
1.225
1.225
1.225
1.225
1.225
1.225
1.225
1.225
1.225
1.225
1.225
1.225
1.225
1.225
1.225
1.225
1.225
1.225
1.225
1.225
1.225
1.225
1.225
1.225
1.225
1.225
1.225
1.225
1.225
1.225
1.225
1.225
1.225
1.225
1.225
1.225
1.225
1.225
1.225
1.225
1.225
1.225
1.225
1.225
1.225
1.225
1.225
1.225
1.225
1.225
1.225
1.225
1.225
1.225
1.225
1.225
1.225
1.225
1.225
1.225
1.225
1.225
1.225
1.225
1.225
1.225
1.225
1.225
1.225
1.225
1.225
1.225
1.225
1.225
1.225
1.225
1.225
1.225
1.225
1.225
1.225
1.225
1.225
1.225
1.225
1.225
1.225
1.225
1.225
1.225
1.225
1.225
1.225
1.225
1.225
1.225
1.225
1.225
1.225
1.225
1.225
1.225
1.225
1.225
1.225
1.225
1.225
1.225
1.225
1.225
1.225
1.225
1.225
1.225
1.225
1.225
1.225
1.225
1.225
1.225
1.225
1.225
1.225
1.225
1.225
1.225
1.225
1.225
1.225
1.225
1.225
1.225
1.225
1.225
1.225
1.225
1.225
1.225
1.225
1.225
1.225
1.225
1.225
1.225
1.225
1.225
1.225
1.225
1.225
1.225
1.225
1.225
1.225
1.225
1.225
1.225
1.225
1.225
1.225
1.225
1.225
1.225
1.225
1.225
1.225
1.225
1.225
1.225
1.225
1.225
1.225
1.225
1.225
1.225
1.225
1.225
1.225
1.225
1.225
1.225
1.225
1.225
1.225
1.225
1.225
1.225
1.225
1.225
1.225
1.225
1.225
1.225
1.225
1.225
1.225
1.225
1.225
1.225
1.225
1.225
1.225
1.225
1.225
1.225
1.225
1.225
1.225
1.225
1.225
1.225
1.225
1.225
1.225
1.225
1.225
1.225
1.225
1.225
1.225
1.225
1.225
1.225
1.225
1.225
1.225
1.225
1.225
1.225
1.225
1.225
1.225
1.225
1.225
1.225
1.225
1.225
1.225
1.225
1.225
1.225
1.225
1.225
1.225
1.225
1.225
1.225
1.225
1.225
1.225
1.225
1.225
1.225
1.225
1.225
1.225
1.225
1.225
1.225
1.225
1.225
1.225
1.225
1.225
1.225
1.225
1.225
1.225
1.225
1.225
1.225
1.225
1.225
1.225
1.225
1.225
1.225
1.225
1.225
1.225
1.225
1.225
1.225
1.225
1.225
1.225
1.225
1.225
1.225
1.225
1.225
1.225
1.225
1.225
1.225
1.225
1.225
1.225
1.225
1.225
1.225
1.225
1.225
1.225
1.225
1.225
1.225
1.225
1.225
1.225
1.225
1.225
1.225
1.225
1.225
1.225
1.225
1.225
1.225
1.225
1.225
1.225
1.225
1.225
1.225
1.225
1.225
1.225
1.225
1.225
1.225
1.225
1.225
1.225
1.225
1.225
1.225
1.225
1.225
1.225
1.225
1.225
1.225
1.225
1.225
1.225
1.225
1.225
1.225
1.225
1.225
1.225
1.225
1.225
1.225
1.225
1.225
1.225
1.225
1.225
1.225
1.225
1.225
1.225
1.225
1.225
1.225
1.225
1.225
1.225
1.225
1.225
1.225
1.225
1.225
1.225
1.225
1.225
1.225
1.225
1.225
1.225
1.225
1.225
1.225
1.225
1.225
1.225
1.225
1.225
1.225
1.225
1.225
1.225
1.225
1.225
1.225
1.225
1.225
1.225
1.225
1.225
1.225
1.225
1.225
1.225
1.225
1.225
1.225
1.225
1.225
1.225
1.225
1.225
1.225
1.225
1.225
1.225
1.225
1.225
1.225
1.225
1.225
1.225
1.225
1.225
1.225
1.225
1.225
1.225
1.225
1.225
1.225
1.225
1.225
1.225
1.225
1.225
1.225
1.225
1.225
1.225
1.225
1.225
1.225
1.225
1.225
1.225
1.225
1.225
1.225
1.225
1.225
1.225
1.225
1.225
1.225
1.225
1.225
1.225
1.225
1.225
1.225
1.225
1.225
1.225
1.225
1.225
1.225
1.225
1.225
1.225
1.225
1.225
1.225
1.225
1.225
1.225
1.225
1.225
1.225
1.225
1.225
1.225
1.225
1.225
1.225
1.225
1.225
1.225
1.225
1.225
1.225
1.225
1.225
1.225
1.225
1.225
1.225
1.225
1.225
1.225
1.225
1.225
1.225
1.225
1.225
1.225
1.225
1.225
1.225
1.225
1.225
1.225
1.225
1.225
1.225
1.225
1.225
1.225
1.225
1.225
1.225
1.225
1.225
1.225
1.225
1.225
1.225
1.225
1.225
1.225
1.225
1.225
1.225
1.225
1.225
1.225
1.225
1.225
1.225
1.225
1.225
1.225
1.225
1.225
1.225
1.225
1.225
1.225
1.225
1.225
1.225
1.225
1.225
1.225
1.225
1.225
1.225
1.225
1.225
1.225
1.225
1.225
1.225
1.225
1.225
1.225
1.225
1.225
1.225
1.225
1.225
1.225
1.225
1.225
1.225
1.225
1.225
1.225
1.225
1.225
1.225
1.225
1.225
1.225
1.225
1.225
1.225
1.225
1.225
1.225
1.225
1.225
1.225
1.225
1.225
1.225
1.225
1.225
1.225
1.225
1.225
1.225
1.225
1.225
1.225
1.225
1.225
1.225
1.225
1.225
1.225
1.225
1.225
1.225
1.225
1.225
1.225
1.225
1.225
1.225
1.225
1.225
1.225
1.225
1.225
1.225
1.225
1.225
1.225
1.225
1.225
1.225
1.225
1.225
1.225
1.225
1.225
1.225
1.225
1.225
1.225
1.225
1.225
1.225
1.225
1.225
1.225
1.225
1.225
1.225
1.225
1.225
1.225
1.225
1.225
1.225
1.225
1.225
1.225
1.225
1.225
1.225
1.225
1.225
1.225
1.225
1.225
1.225
1.225
1.225
1.225
1.225
1.225
1.225
1.225
1.225
1.225
1.225
1.225
1.225
1.225
1.225
1.225
1.225
1.225
1.225
1.225
1.225
1.225
1.225
1.225
1.225
1.225
1.225
1.225
1.225
1.225
1.225
1.225
1.225
1.225
1.225
1.225
1.225
1.225
1.225
1.225
1.225
1.225
1.225
1.225
1.225
1.225
1.225
1.225
1.225
1.225
1.225
1.225
1.225
1.225
1.225
1.225
1.225
1.225
1.225
1.225
1.225
1.225
1.225
1.225
1.225
1.225
1.225
1.225
1.225
1.225
1.225
1.225
1.225
1.225
1.225
1.225
1.225
1.225
1.225
1.225
1.225
1.225
1.225
1.225
1.225
1.225
1.225
1.225
1.225
1.225
1.225
1.225
1.225
1.225
1.225
1.225
1.225
1.225
1.225
1.225
1.225
1.225
1.225
1.225
1.225
1.225
1.225
1.225
1.225
1.225
1.225
1.225
1.225
1.225
1.225
1.225
1.225
1.225
1.225
1.225
1.225
1.225
1.225
1.225
1.225
1.225
1.225
1.225
1.225
1.225
1.225
1.225
1.225
1.225
1.225
1.225
1.225
1.225
1.225
1.225
1.225
1.225
1.225
1.225
1.225
1.225
1.225
1.225
1.225
1.225
1.225
1.225
1.225
1.225
1.225
1.225
1.225
1.225
1.225
1.225
1.225
1.225
1.225
1.225
1.225
1.225
1.225
1.225
1.225
1.225
1.225
1.225
1.225
1.225
1.225
1.225
1.225
1.225
1.225
1.225
1.225
1.225
1.225
1.225
1.225
1.225
1.225
1.225
1.225
1.225
1.225
1.225
1.225
1.225
1.225
1.225
1.225
1.225
1.225
1.225
1.225
1.225
1.225
1.225
1.225
1.225
1.225
1.225
1.225
1.225
1.225
1.225
1.225
1.225
1.225
1.225
1.225
1.225
1.225
1.225
1.225
1.225
1.225
1.225
1.225
1.225
1.225
1.225
1.225
1.225
1.225
1.225
1.225
1.225
1.225
1.225
1.225
1.225
1.225
1.225
1.225
1.225
1.225
1.225
1.225
1.225
1.225
1.225
1.225
1.225
1.225
1.22503
1.225
1.225
1.225
1.225
1.225
1.225
1.225
1.225
1.225
1.225
1.225
1.22501
1.225
1.225
1.225
1.225
1.225
1.225
1.225
1.225
1.225
1.225
1.225
1.225
1.225
1.225
1.225
1.225
1.225
1.225
1.225
1.225
1.225
1.225
1.225
1.225
1.225
1.225
1.225
1.225
1.225
1.225
1.225
1.225
1.225
1.225
1.225
1.225
1.225
1.225
1.225
1.225
1.225
1.225
1.225
1.225
1.225
1.225
1.225
1.225
1.225
1.225
1.225
1.225
1.225
1.225
1.225
1.225
1.225
1.225
1.225
1.225
1.225
1.225
1.225
1.225
1.225
1.225
1.225
1.225
1.225
1.225
1.225
1.225
1.225
1.225
1.225
1.225
1.225
1.225
1.225
1.225
1.225
1.225
1.225
1.225
1.225
1.225
1.225
1.225
1.225
1.225
1.225
1.225
1.225
1.225
1.225
1.225
1.225
1.225
1.225
1.225
1.225
1.225
1.225
1.225
1.225
1.225
1.225
1.225
1.225
1.225
1.225
1.225
1.225
1.225
1.225
1.225
1.225
1.225
1.225
1.225
1.225
1.225
1.225
1.225
1.225
1.225
1.225
1.225
1.225
1.225
1.225
1.225
1.225
1.225
1.225
1.225
1.225
1.225
1.225
1.225
1.225
1.225
1.225
1.225
1.225
1.225
1.225
1.225
1.225
1.225
1.225
1.225
1.225
1.225
1.225
1.225
1.225
1.225
1.225
1.225
1.225
1.225
1.225
1.225
1.225
1.225
1.225
1.225
1.225
1.225
1.225
1.225
1.225
1.225
1.225
1.225
1.225
1.225
1.225
1.225
1.225
1.225
1.225
1.225
1.225
1.225
1.225
1.225
1.225
1.225
1.225
1.225
1.225
1.225
1.225
1.225
1.225
1.225
1.225
1.225
1.225
1.225
1.225
1.225
1.225
1.225
1.225
1.225
1.225
1.225
1.225
1.225
1.225
1.225
1.225
1.225
1.225
1.225
1.225
1.225
1.225
1.225
1.225
1.225
1.225
1.225
1.225
1.225
1.225
1.225
1.225
1.225
1.225
1.225
1.225
1.225
1.225
1.225
1.225
1.225
1.225
1.225
1.225
1.225
1.225
1.225
1.225
1.225
1.225
1.225
1.225
1.225
1.225
1.225
1.225
1.225
1.225
1.225
1.225
1.225
1.225
1.225
1.225
1.225
1.225
1.225
1.225
1.225
1.225
1.225
1.225
1.225
1.225
1.225
1.225
1.225
1.225
1.225
1.225
1.225
1.225
1.225
1.225
1.225
1.225
1.225
1.225
1.225
1.225
1.225
1.225
1.225
1.225
1.225
1.225
1.225
1.225
1.225
1.225
1.225
1.225
1.225
1.225
1.225
1.225
1.225
1.225
1.225
1.225
1.225
1.225
1.225
1.225
1.225
1.225
1.225
1.225
1.225
1.225
1.225
1.225
1.225
1.225
1.225
1.225
1.225
1.225
1.225
1.225
1.225
1.225
1.225
1.225
1.225
1.225
1.225
1.225
1.225
1.225
1.225
1.225
1.225
1.225
1.225
1.225
1.225
1.225
1.225
1.225
1.225
1.225
1.225
1.225
1.225
1.225
1.225
1.225
1.225
1.225
1.225
1.225
1.225
1.225
1.225
1.225
1.225
1.225
1.225
1.225
1.225
1.225
1.225
1.225
1.225
1.225
1.225
1.225
1.225
1.225
1.225
1.225
1.225
1.225
1.225
1.225
1.225
1.225
1.225
1.225
1.225
1.225
1.225
1.225
1.225
1.225
1.225
1.225
1.225
1.225
1.225
1.225
1.22537
1.2251
1.225
1.225
1.225
1.225
1.225
1.225
1.225
1.225
1.225
1.225
1.22503
1.225
1.22503
1.225
1.225
1.225
1.225
1.22501
1.22502
1.225
1.225
1.225
1.225
1.225
1.225
1.225
1.225
1.225
1.225
1.225
1.225
1.225
1.225
1.225
1.225
1.225
1.225
1.225
1.225
1.225
1.225
1.225
1.225
1.225
1.225
1.225
1.225
1.2922
1.22806
1.22578
1.23193
1.22518
1.225
1.225
1.225
1.225
1.225
1.225
1.225
1.225
1.225
1.225
1.225
1.225
1.225
1.225
1.225
1.225
1.225
1.225
1.225
1.225
1.225
1.225
1.225
1.225
1.225
1.225
1.225
1.225
1.225
1.225
1.225
1.225
1.2734
1.2255
1.22501
1.225
1.2254
1.22862
1.22792
1.23828
1.31681
1.24159
1.225
1.22504
1.22503
1.22613
1.22507
1.22642
1.22505
1.22504
1.28558
1.2291
1.22655
1.22508
1.22545
1.22501
1.225
1.225
1.24575
1.29752
1.2493
1.22994
1.22672
1.22716
1.22696
1.22674
1.22638
1.22535
1.22613
1.22589
1.22501
1.22501
1.22501
1.2251
1.22508
1.225
1.225
1.225
1.225
1.225
1.225
1.225
1.225
1.225
1.225
0.685009
1.234
0.299211
0.577517
1.19559
0.231198
0.506811
0.5646
1.08422
1.0122
0.18376
0.429513
0.183229
0.41083
0.773532
0.565205
0.738657
1.19455
1.11225
0.390109
0.599228
0.872591
1.09449
1.3491
0.646047
0.349791
0.225232
0.47068
1.63162
2.66646
1.5859
3.18823
2.24916
3.05857
2.22692
2.39606
1.45824
1.3738
2.87039
2.74299
2.09122
1.96248
1.225
2.0935
0.627343
1.32614
1.85865
2.60152
1.6753
1.0053
1.46606
2.41804
2.40272
1.94628
2.78997
2.82415
1.94319
1.47255
2.43865
2.62
2.73161
2.80857
2.02722
2.28229
3.00064
2.09001
2.84647
2.86729
3.06035
3.06176
2.58554
2.28563
2.84179
2.84641
2.86295
2.57184
2.71118
3.00736
1.22524
1.225
1.22501
1.225
1.225
1.22515
1.22502
2.89658
2.36053
3.0588
1.82728
2.42497
3.34838
3.01206
2.86705
2.121
2.76587
1.68452
1.73357
2.78829
2.69158
3.38187
2.75847
3.48825
1.32905
3.13542
1.28518
2.79954
1.245
3.18187
1.22548
1.72705
1.225
3.04097
1.23787