/*--------------------------------*- C++ -*----------------------------------*\
  =========                 |
  \\      /  F ield         | OpenFOAM: The Open Source CFD Toolbox
   \\    /   O peration     | Website:  https://openfoam.org
    \\  /    A nd           | Version:  9
     \\/     M anipulation  |
\*---------------------------------------------------------------------------*/
FoamFile
{
    format      ascii;
    class       volScalarField;
    location    "0.0006";
    object      rhoE;
}
// * * * * * * * * * * * * * * * * * * * * * * * * * * * * * * * * * * * * * //

dimensions      [1 -1 -2 0 0 0 0];

internalField   nonuniform List<scalar> 
6435
(
253245
253245
253245
253245
253245
253245
253245
253245
253245
253245
253245
253245
253245
253245
2.91579e+06
253791
5.44253e+06
1.53736e+06
253288
1.13984e+07
275305
253277
2.00449e+06
253266
253250
273330
253245
253245
3.41697e+06
3.91671e+06
2.27399e+06
4.81276e+06
3.673e+06
5.13271e+06
3.11924e+06
2.97139e+06
3.46783e+06
3.44266e+06
4.73832e+06
4.61563e+06
4.8859e+06
5.08881e+06
4.09791e+06
4.65387e+06
1.29379e+06
936924
5.62589e+06
253638
438616
3.33543e+06
4.23707e+06
3.7617e+06
5.1854e+06
4.81822e+06
5.03639e+06
5.32336e+06
5.50831e+06
4.56863e+06
5.19696e+06
4.08838e+06
3.95525e+06
5.15298e+06
5.42909e+06
5.46184e+06
3.18756e+06
5.21446e+06
4.97335e+06
2.7051e+06
5.24264e+06
2.48204e+06
4.72899e+06
5.13701e+06
5.056e+06
4.6002e+06
4.18772e+06
5.21553e+06
5.37301e+06
4.95004e+06
5.7239e+06
5.68356e+06
5.90134e+06
5.61975e+06
5.58935e+06
5.14437e+06
2.87437e+06
4.99664e+06
5.14685e+06
4.83778e+06
1.60281e+06
2.16896e+06
4.56388e+06
5.71043e+06
2.80539e+06
4.52707e+06
5.34545e+06
5.96298e+06
5.31937e+06
4.27827e+06
823647
3.41455e+06
739534
4.42865e+06
1.74364e+06
4.70029e+06
1.56806e+06
6.02677e+06
3.29495e+06
5.7356e+06
1.06527e+06
3.82781e+06
2.9771e+06
640025
605966
2.49305e+06
407912
4.21262e+06
896268
1.31489e+06
3.76558e+06
4.41173e+06
822823
3.75204e+06
454764
2.80025e+06
1.98123e+06
328565
1.08413e+06
2.59742e+06
384661
2.57981e+06
264265
340500
783192
9.04332e+06
6.91165e+06
3.89048e+06
6.61222e+06
3.2613e+06
1.31323e+06
9.64002e+06
337110
1.8198e+06
322284
539610
260340
593057
259194
3.7694e+06
271345
748631
2.13122e+06
5.07607e+06
1.80483e+06
358097
1.35489e+06
285192
256697
436107
2.69368e+06
1.06324e+06
272994
298963
1.01276e+06
272068
450549
254788
257204
330996
7.30632e+06
4.97212e+06
4.18268e+06
1.20408e+07
1.10901e+07
1.21079e+07
7.00496e+06
7.24034e+06
3.51913e+06
4.10376e+06
5.62662e+06
5.45646e+06
7.13213e+06
7.47354e+06
5.79435e+06
1.14529e+07
1.12522e+07
7.74714e+06
1.24363e+07
9.22475e+06
9.42262e+06
1.22429e+07
8.42655e+06
5.47419e+06
6.42344e+06
4.70763e+06
6.21883e+06
7.89919e+06
6.17514e+06
6.32561e+06
6.74379e+06
8.34258e+06
8.31932e+06
3.39882e+06
5.96968e+06
6.14031e+06
8.69242e+06
1.21696e+07
1.01092e+07
1.10737e+07
8.17895e+06
9.67043e+06
1.21201e+07
1.28052e+07
9.65924e+06
1.02411e+07
1.02703e+07
1.15548e+07
9.13181e+06
1.26401e+07
2.86797e+06
4.53258e+06
1.06423e+06
8.03139e+06
2.27067e+06
4.70752e+06
5.62634e+06
1.00018e+07
9.40105e+06
6.49674e+06
1.02531e+07
1.07524e+07
8.16938e+06
1.24049e+07
277267
266370
818452
495560
253444
258048
262321
1.49816e+06
257106
530376
2.8292e+06
730238
339443
5.77787e+06
458724
257058
253639
254762
253553
268865
253275
253487
254805
268473
596406
253912
258588
287244
253253
263755
253455
313532
253295
254455
255502
254195
253263
254050
270243
253681
273496
253615
253257
253458
253794
264901
253340
253493
257825
253246
254376
253268
253330
253245
253247
253248
253246
253249
253285
253331
253263
254131
253247
253246
253253
253267
253246
253245
253245
253245
253245
253245
253246
253245
253245
253245
253245
253245
253245
253245
253250
253245
253245
253245
253262
253245
253245
253245
253246
253276
253269
253246
253245
253245
253245
253245
253249
253245
253245
253245
253245
253245
253245
253245
253245
253245
253245
253245
253245
253245
253245
253245
253245
253245
253245
253245
253245
253245
253245
253245
253245
253245
253245
253245
253245
253245
253245
253245
253245
253245
253245
253245
253245
253245
253245
253245
253245
253245
253245
254429
253245
253245
258736
295400
253247
253254
254180
253275
253269
253246
253245
253246
1.72567e+06
721539
254123
253427
796201
3.77382e+06
3.92505e+06
5.71121e+06
2.80786e+06
5.68412e+06
2.67022e+06
397444
5.14855e+06
2.63089e+06
566103
3.35487e+06
5.51448e+06
2.30091e+06
254204
279930
1.2124e+06
275018
1.08917e+06
286937
254012
253420
261067
526825
266344
824943
272778
253686
253295
253357
255034
255842
300679
259062
350963
256000
253467
256513
431041
264612
262664
403683
253245
253245
253256
253266
253790
253687
253262
253245
253250
253258
253250
253445
253769
253258
253250
253245
253245
253355
253249
253507
253255
1.21094e+07
2.6097e+06
809719
1.5723e+07
7.95481e+06
6.81164e+06
5.98295e+06
2.17939e+06
5.69442e+06
5.09259e+06
257282
295248
1.09196e+07
7.07544e+06
7.37176e+06
3.15078e+06
5.06937e+06
2.66701e+06
5.08071e+06
3.71308e+06
5.99931e+06
5.7005e+06
3.03829e+06
4.28292e+06
3.63718e+06
5.61536e+06
4.02192e+06
5.77634e+06
3.81219e+06
5.41731e+06
3.8373e+06
9.76395e+06
1.33293e+07
1.27255e+07
1.22069e+07
1.05466e+07
1.01222e+07
1.22904e+07
6.75224e+06
9.27137e+06
6.38455e+06
4.65541e+06
8.41458e+06
7.05686e+06
4.40895e+06
3.36013e+06
5.77635e+06
5.32581e+06
2.9553e+06
5.41102e+06
3.56472e+06
2.75272e+06
569520
4.79672e+06
1.82735e+06
3.47722e+06
1.6388e+06
3.22189e+06
647901
272844
1.13658e+06
286425
254236
1.00581e+06
278109
254022
4.55152e+06
4.32651e+06
2.92429e+06
4.9712e+06
6.62815e+06
5.16323e+06
6.78679e+06
2.57495e+06
2.48448e+06
2.39222e+06
4.25344e+06
4.4421e+06
4.22999e+06
4.39605e+06
1.15361e+07
1.18881e+07
6.89322e+06
1.26958e+07
1.22425e+07
8.99103e+06
8.94128e+06
5.64104e+06
5.75569e+06
4.14885e+06
3.57856e+06
5.04188e+06
5.42584e+06
7.02784e+06
4.88803e+06
3.49808e+06
3.46754e+06
3.00664e+06
2.95744e+06
4.72497e+06
4.62242e+06
3.04677e+06
3.50871e+06
2.85309e+06
5.00321e+06
4.52653e+06
5.14199e+06
4.68005e+06
1.18027e+07
9.221e+06
7.70133e+06
7.34186e+06
1.12029e+07
1.2011e+07
9.02256e+06
5.40501e+06
3.81805e+06
4.326e+06
4.0134e+06
3.39498e+06
5.2781e+06
4.87071e+06
2.33148e+06
1.73097e+06
6.15812e+06
6.1059e+06
5.84049e+06
2.02685e+06
4.88574e+06
2.41188e+06
1.66132e+06
1.40967e+06
1.67754e+06
1.13188e+06
2.60606e+06
2.39033e+06
1.29905e+06
1.51458e+06
900098
927208
1.37957e+06
1.35264e+06
1.29716e+06
1.2391e+06
791197
806233
809406
825064
1.65802e+06
1.97859e+06
1.60207e+06
1.09867e+06
1.13599e+06
889201
912665
1.04172e+07
1.06665e+07
4.72577e+06
9.96578e+06
3.23312e+06
9.71296e+06
3.31896e+06
1.97472e+06
3.59031e+06
2.99425e+06
2.08258e+06
1.34411e+06
1.04492e+06
1.62107e+06
2.13568e+06
1.62978e+06
1.04744e+06
1.98698e+06
1.49634e+06
849487
886085
5.26779e+06
9.96826e+06
1.01984e+07
9.28864e+06
4.0206e+06
9.49868e+06
3.56076e+06
1.33829e+06
2.86371e+06
2.42047e+06
2.29248e+06
1.90002e+06
1.29832e+06
1.00751e+06
2.97723e+06
1.60329e+06
2.79337e+06
2.52724e+06
4.02718e+06
4.22752e+06
2.69975e+06
1.96263e+06
3.70776e+06
3.30306e+06
3.45296e+06
4.89179e+06
4.52039e+06
3.02044e+06
5.77391e+06
6.10974e+06
5.63155e+06
5.78122e+06
4.1085e+06
5.9006e+06
4.30913e+06
5.56489e+06
4.56522e+06
4.39096e+06
5.65324e+06
5.749e+06
5.82067e+06
5.79582e+06
5.15295e+06
2.4583e+06
4.93825e+06
3.33149e+06
3.16419e+06
5.39409e+06
5.19604e+06
5.30055e+06
3.09728e+06
5.90039e+06
6.14407e+06
3.87865e+06
6.14373e+06
8.11344e+06
5.67295e+06
5.01197e+06
6.10281e+06
5.9756e+06
5.93967e+06
6.03256e+06
4.61168e+06
9.90884e+06
1.07729e+07
8.36364e+06
1.14964e+07
9.0866e+06
1.24535e+07
1.00282e+07
4.84397e+06
1.60996e+06
4.59333e+06
2.8844e+06
2.28024e+06
5.02944e+06
5.16529e+06
5.85657e+06
5.07046e+06
4.78278e+06
5.69606e+06
5.12342e+06
5.78175e+06
5.58693e+06
5.67329e+06
3.82977e+06
5.9984e+06
2.80845e+06
563772
917686
3.64973e+06
6.13173e+06
4.4409e+06
6.12914e+06
1.37921e+06
4.32058e+06
1.23205e+06
4.14117e+06
3.74468e+06
321277
1.90308e+06
1.2666e+06
433623
4.40157e+06
2.7071e+06
456466
253404
260405
264182
253673
271953
740871
253300
253249
253310
253246
253245
253245
253246
253246
253247
253280
253245
253245
253245
253246
437998
4.71057e+06
1.07238e+06
2.11223e+06
5.92363e+06
253245
253245
1.51701e+06
5.42152e+06
2.69323e+06
2.88048e+06
3.46893e+06
6.15667e+06
5.69512e+06
4.178e+06
3.53003e+06
6.63455e+06
5.68449e+06
5.19503e+06
3.45659e+06
930320
578677
254774
253245
8.23698e+06
1.15037e+07
1.20188e+07
5.49463e+06
5.64438e+06
5.52009e+06
1.44244e+06
1.07785e+06
4.42762e+06
344539
344587
253260
253245
253292
253245
253245
253245
253245
253245
256389
253247
253258
253245
253245
736820
1.5722e+06
2.36033e+06
1.01798e+06
712491
2.0897e+06
2.7656e+06
445866
621523
610423
479111
493284
700277
684083
6.06223e+06
3.19918e+06
1.04934e+06
3.34557e+06
1.44813e+06
6.08678e+06
4.48757e+06
498135
457405
645563
578397
516692
747305
906727
733128
1.26059e+06
1.21614e+06
570435
582778
867396
837081
899797
873512
1.63915e+06
1.12824e+06
1.95299e+06
1.08279e+06
2.00642e+06
805695
1.73298e+06
1.41172e+06
712718
614834
977194
1.25196e+06
644830
1.03629e+06
769032
1.29136e+06
1.34335e+06
1.74522e+06
2.08663e+06
1.30395e+06
992788
1.8675e+06
1.28555e+06
2.80666e+06
1.64483e+06
2.26135e+06
1.10482e+06
1.73164e+06
1.72505e+06
1.84999e+06
1.83358e+06
2.74931e+06
2.87129e+06
2.07967e+06
3.33743e+06
3.22684e+06
1.53841e+06
2.53876e+06
1.49125e+06
2.54638e+06
1.23098e+06
2.34651e+06
1.91802e+06
2.47776e+06
2.0488e+06
2.9191e+06
3.30394e+06
2.31249e+06
3.87255e+06
3.4512e+06
1.7127e+06
3.33094e+06
2.10424e+06
2.83581e+06
2.23524e+06
3.24045e+06
2.36386e+06
1.03059e+06
1.64521e+06
1.74209e+06
2.64351e+06
3.37777e+06
1.83689e+06
3.77192e+06
2.19523e+06
2.9575e+06
3.37639e+06
5.06887e+06
1.89042e+06
3.6026e+06
2.26529e+06
4.35071e+06
2.90311e+06
3.32941e+06
4.7253e+06
2.83952e+06
4.11254e+06
3.86789e+06
5.76635e+06
5.35747e+06
3.87027e+06
4.11106e+06
2.99634e+06
4.33409e+06
4.09183e+06
3.90218e+06
5.67427e+06
4.13547e+06
5.30823e+06
2.97026e+06
3.88567e+06
2.95438e+06
4.05509e+06
3.08723e+06
5.5392e+06
4.0422e+06
4.57782e+06
5.80312e+06
4.05464e+06
3.26567e+06
2.86932e+06
4.05196e+06
4.56758e+06
3.07861e+06
4.77951e+06
4.28397e+06
4.10082e+06
5.71291e+06
4.6288e+06
5.38342e+06
4.89557e+06
4.22724e+06
2.74624e+06
6.09472e+06
4.59443e+06
3.86849e+06
5.51792e+06
3.40396e+06
5.90822e+06
4.67616e+06
4.01698e+06
2.83074e+06
3.78656e+06
5.23384e+06
5.90508e+06
5.79557e+06
4.39453e+06
4.80894e+06
5.79844e+06
6.08302e+06
6.00513e+06
5.90511e+06
6.54915e+06
5.63839e+06
6.41483e+06
5.75836e+06
6.64849e+06
5.79802e+06
5.61685e+06
6.12881e+06
6.3653e+06
5.4902e+06
4.00349e+06
6.62001e+06
5.59843e+06
4.22845e+06
6.22249e+06
5.68047e+06
6.49882e+06
6.0495e+06
5.6301e+06
5.43715e+06
5.76808e+06
4.61051e+06
4.27901e+06
5.34531e+06
5.97976e+06
5.7322e+06
5.61272e+06
8.52363e+06
6.49678e+06
5.96957e+06
7.31826e+06
6.72363e+06
9.13178e+06
4.16372e+06
4.92998e+06
5.28335e+06
4.64442e+06
2.98923e+06
5.60643e+06
5.27193e+06
3.23775e+06
5.71104e+06
4.0187e+06
3.44012e+06
5.4163e+06
5.48602e+06
5.78659e+06
5.53362e+06
9.60843e+06
1.24087e+07
1.06136e+07
1.04558e+07
1.23193e+07
1.08036e+07
1.23252e+07
6.01281e+06
3.97392e+06
6.08037e+06
5.33301e+06
5.19895e+06
6.22327e+06
6.18827e+06
5.31604e+06
4.45177e+06
4.02238e+06
2.67079e+06
4.96875e+06
5.16125e+06
1.975e+06
983798
3.06744e+06
341306
1.26932e+06
4.95417e+06
4.51752e+06
2.36863e+06
6.2612e+06
3.95506e+06
883649
5.96003e+06
6.69955e+06
6.26519e+06
3.56278e+06
6.46648e+06
2.0293e+06
5.17604e+06
5.9442e+06
546879
3.04223e+06
2.95703e+06
5.28318e+06
2.09625e+06
643031
5.96432e+06
4.92388e+06
6.29121e+06
2.99549e+06
2.10529e+06
331690
1.0496e+06
4.26868e+06
5.25236e+06
8.43796e+06
1.44609e+06
1.29122e+06
295367
288247
913433
4.11209e+06
3.81414e+06
1.01875e+06
5.53542e+06
1.09376e+06
2.86248e+06
333312
4.13235e+06
2.10003e+06
939676
9.70521e+06
7.68154e+06
4.39166e+06
8.56858e+06
1.27922e+07
1.12309e+07
1.12119e+07
688260
263278
277566
750897
2.87668e+06
3.52747e+06
482697
275567
253837
272342
3.72008e+06
268430
788875
734930
258783
267794
253516
258984
362535
2.59383e+06
589424
253372
295294
256981
1.67943e+06
334047
259623
469555
1.79246e+06
255209
310595
257457
259979
470760
253393
261808
255129
253424
257503
1.58241e+06
474692
297339
253623
253489
253270
267427
450186
254676
275322
253245
253245
253245
253300
253245
253245
253245
253746
253255
253260
253253
253472
253595
265303
253674
253245
253255
253471
253599
264189
253253
253249
253246
255394
253299
253245
253411
253249
253275
253342
253250
253245
253247
253345
254981
253246
253245
253246
253274
253247
253980
253312
253245
253245
253245
253245
253245
253245
253245
253245
253245
253245
253245
253245
253245
253245
253245
253245
253245
253245
253245
253245
253245
253245
253245
253245
253245
253245
253245
253245
253245
253245
253245
253245
253245
253245
253245
253245
253245
253245
253245
253245
253245
253245
253245
253245
253245
253245
253245
253245
253245
253245
253245
253245
253245
253245
253245
253245
253245
253245
253245
253245
253245
253245
253245
253245
253245
253245
253245
253245
253245
253245
253245
253245
253245
253245
253245
253245
253245
253245
253245
253245
253245
253245
253245
253245
253245
253245
253245
253245
253245
253245
253245
253245
253245
253245
253245
253245
253245
253245
253245
253245
253245
253245
253245
253245
253245
253245
253245
253245
253245
253245
253245
253245
253245
253245
253245
253245
253245
253245
253245
253245
253245
253245
253245
253245
253245
253245
253245
253245
253245
253245
253245
253245
253245
253245
253245
253245
253245
253245
253245
253245
253245
253245
253245
253245
253245
253245
253245
253245
253245
253245
253245
253245
253245
253245
253245
253245
253245
253245
253245
253245
253245
253245
253245
253245
253245
253245
253245
253245
253245
253245
253245
253245
253245
253245
253245
253245
253245
253245
253245
253245
253245
253245
253245
253245
253245
253245
253245
253245
253245
253245
253245
253245
253245
253245
253245
253245
253245
253245
253245
253245
253245
253245
253245
253245
253245
253245
253245
253245
253245
253245
253245
253245
253245
253245
253245
253245
253245
253245
253245
253245
253245
253245
253245
253245
253245
253245
253245
253245
253245
253245
253245
253245
253245
253245
253245
253245
253245
253245
253245
253245
253245
253245
253245
253245
253245
253245
253245
253245
253245
253245
253245
253245
253245
253245
253245
253245
253245
253245
253245
253245
253245
253245
253245
253245
253245
253245
253245
253245
253245
253245
253245
253245
253245
253245
253245
253245
253245
253245
253245
253245
253245
253245
253245
253245
253245
253245
253245
253245
253245
253245
253245
253245
253245
253245
253245
253245
253245
253245
253245
253245
253245
253245
253245
253245
253245
253245
253245
253245
253245
253245
253245
253245
253245
253245
253245
253245
253245
253245
253245
253245
253245
253245
253245
253245
253245
253245
253245
253245
253245
253245
253245
253245
253245
253245
253245
253245
253245
253245
253245
253245
253245
253245
253245
253245
253245
253245
253245
253245
253245
253245
253245
253245
253245
253245
253245
253245
253245
253245
253245
253245
253245
253245
253245
253245
253245
253245
253245
253245
253245
253245
253245
253245
253245
253245
253245
253245
253245
253245
253245
253245
253245
253245
253245
253245
253245
253245
253245
253245
253245
253245
253245
253245
253245
253245
253245
253245
253245
253245
253245
253245
253245
253245
253245
253245
253245
253245
253245
253245
253245
253245
253245
253245
253245
253245
253245
253245
253245
253245
253245
253245
253245
253245
253245
253245
253245
253245
253245
253245
253245
253245
253245
253245
253245
253245
253245
253245
253245
253245
253245
253245
253245
253245
253245
253245
253245
253245
253245
253245
253245
253245
253245
253245
253245
253245
253245
253245
253245
253245
253245
253245
253245
253245
253245
253245
253245
253245
253245
253245
253245
253245
253245
253245
253245
253245
253245
253245
253245
253245
253245
253245
253245
253245
253245
253245
253245
253245
253245
253245
253245
253245
253245
253245
253245
253245
253245
253245
253245
253245
253245
253245
253245
253245
253245
253245
253245
253245
253245
253245
253245
253245
253245
253245
253245
253245
253245
253245
253245
253245
253245
253245
253245
253245
253245
253245
253245
253245
253245
253245
253245
253245
253245
253245
253245
253245
253245
253245
253245
253245
253245
253245
253245
253245
253245
253245
253245
253245
253245
253245
253245
253245
253245
253245
253245
253245
253245
253245
253245
253245
253245
253245
253245
253245
253245
253245
253245
253245
253245
253245
253245
253245
253245
253245
253245
253245
253245
253245
253245
253245
253245
253245
253245
253245
253245
253245
253245
253245
253245
253245
253245
253245
253245
253245
253245
253245
253245
253245
253245
253245
253245
253245
253245
253245
253245
253245
253245
253245
253245
253245
253245
253245
253245
253245
253245
253245
253245
253245
253245
253245
253245
253245
253245
253245
253245
253245
253245
253245
253245
253245
253245
253245
253245
253245
253245
253245
253245
253245
253245
253245
253245
253245
253245
253245
253245
253245
253245
253245
253245
253245
253245
253245
253245
253245
253245
253245
253245
253245
253245
253245
253245
253245
253245
253245
253245
253245
253245
253245
253245
253245
253245
253245
253245
253245
253245
253245
253245
253245
253245
253245
253245
253245
253245
253245
253245
253245
253245
253245
253245
253245
253245
253245
253245
253245
253245
253245
253245
253245
253245
253245
253245
253245
253245
253245
253245
253245
253245
253245
253245
253245
253245
253245
253245
253245
253245
253245
253245
253245
253245
253245
253245
253245
253245
253245
253245
253245
253245
253245
253245
253245
253245
253245
253245
253245
253245
253245
253245
253245
253245
253245
253245
253245
253245
253245
253245
253245
253245
253245
253245
253245
253245
253245
253245
253245
253245
253245
253245
253245
253245
253245
253245
253245
253245
253245
253245
253245
253245
253245
253245
253245
253245
253245
253245
253245
253245
253245
253245
253245
253245
253245
253245
253245
253245
253245
253245
253245
253245
253245
253245
253245
253245
253245
253245
253245
253245
253245
253245
253245
253245
253245
253245
253245
253245
253245
253245
253245
253246
253246
253245
253245
253245
253245
253245
253245
253245
253245
253245
253245
253245
253245
253245
253245
253245
253245
253245
253245
253245
253245
253245
253245
253245
253245
253245
253245
253245
253245
253245
253245
253245
253245
253245
253245
253245
253245
253245
253245
253245
253245
253245
253245
253245
253245
253245
253245
253245
253245
253245
253245
253245
253245
253245
253245
253245
253245
253245
253245
253245
253245
253245
253245
253245
253245
253245
253245
253245
253245
253245
253245
253245
253245
253245
253557
253251
253245
253245
253245
253358
502389
254840
253246
253245
253245
253245
253245
253245
253245
253245
253245
253245
8.43226e+06
7.61738e+06
1.67726e+06
409843
256403
253286
4.4811e+06
9.75722e+06
1.07445e+07
7.78776e+06
2.86817e+06
2.56369e+06
5.3987e+06
4.67011e+06
6.23373e+06
3.91233e+06
6.01762e+06
268452
253245
253245
253245
253245
253245
253245
253245
253245
253245
253245
253245
253245
253245
253245
253245
253245
253245
253245
253245
253245
253245
253245
253245
253245
253245
253245
253245
253245
253245
253245
253245
253245
253245
253245
253245
253245
253245
253245
253245
253245
253245
253245
253245
253245
253245
253245
253245
253245
253245
253245
253245
253245
253245
253245
253245
253245
253245
253245
253245
253245
253245
253245
253245
253245
253245
253245
253245
253245
253245
253245
253245
253245
253245
253245
253245
253245
253245
253245
253245
253245
253245
253245
253245
253245
253245
253245
253245
253245
253245
253245
253245
253245
253245
253245
253245
253245
253245
253245
253245
253245
253245
253245
253245
253245
253245
253245
253245
253245
253245
253245
253245
253245
253245
253245
253245
253245
253245
253245
253245
253245
253245
253245
253245
253245
253245
253245
253245
253245
253245
253245
253245
253245
253245
253245
253245
253245
253245
253245
253245
253245
253245
253245
253245
253245
253245
253245
253245
253245
253245
253245
253245
253245
253245
253245
253245
253245
253245
253245
253245
253245
253245
253245
253245
253245
253245
253245
253245
253245
253245
253245
253245
253245
253245
253245
253245
253245
253245
253245
253245
253245
253245
253245
253245
253245
253245
253245
253245
253245
253245
253245
253245
253245
253245
253245
253245
253245
253245
253245
253245
253245
253245
253245
253245
253245
253245
253245
253245
253245
253245
253245
253245
253245
253245
253245
253245
253245
253245
253245
253245
253245
253245
253245
253245
253245
253245
253245
253245
253245
253245
253245
253245
253245
253245
253245
253245
253245
253245
253245
253245
253245
253245
253245
253245
253245
253245
253245
253245
253245
253245
253245
253245
253245
253245
253245
253245
253245
253245
253245
253245
253245
253245
253245
253245
253245
253245
253245
254082
253360
253276
253263
253246
253245
253245
253245
253245
253245
253245
253245
253245
256315
253346
253245
253377
253245
253245
253245
253245
253245
253455
254211
253499
254035
253280
253265
253288
253260
253257
253264
253259
253261
253253
253255
253245
253248
253260
253245
253245
253249
253245
253257
253246
253245
253245
253245
253246
253245
253245
253245
253245
253245
253245
253245
253245
253245
253245
253245
253245
253245
253245
253245
253245
253245
253245
253245
253245
253245
253245
253245
253245
253245
253245
253245
253245
253245
253245
253245
253245
253245
253245
253245
253245
253245
253245
253245
253245
253245
253245
253245
253245
253245
253245
253245
253245
253245
253245
253245
253245
253245
253245
253245
253245
253245
253245
253245
253245
253245
253245
253245
253245
253245
253245
253245
253245
253245
253245
253245
253245
253245
253245
253245
253245
253245
253245
253245
253245
253245
253245
253245
253245
253245
253245
253245
253245
253245
253245
253245
253245
253245
253245
253245
253245
253245
253245
253245
253245
253245
253245
253245
253245
253245
253245
253245
253245
253245
253245
253245
253245
253245
253245
253245
253245
253245
253245
253245
253245
253245
253245
253245
253245
253245
253245
253245
253245
253245
253245
253245
253245
253245
253245
253245
253245
253245
253245
253245
253245
253245
253245
253245
253245
253245
253245
253245
253245
253245
253245
253245
253245
253245
253245
253245
253245
253245
253245
253245
253245
253245
253245
253245
253245
253245
253245
253245
253245
253245
253245
253245
253245
253245
253245
253245
253245
253245
253245
253245
253245
253245
253245
253245
253245
253245
253245
253245
253245
253245
253245
253245
253245
253245
253245
253245
253245
253245
253245
253245
253245
253245
253245
253245
253245
253245
253245
253245
253245
253245
253245
253245
253245
253245
253245
253245
253245
253245
253245
253245
253245
253245
253245
253245
253245
253245
253245
253245
253245
253245
253245
253245
253245
253245
253245
253245
253245
253245
253245
253245
253245
253245
253245
253245
253245
253245
253245
253245
253245
253245
253245
253245
253245
253245
253245
253245
253245
253245
253245
253245
253245
253245
253245
253245
253245
253245
253245
253245
253245
253245
253245
253245
253245
253245
253245
253245
253245
253245
253245
253245
253245
253245
253245
253245
253245
253245
253245
253245
253245
253245
253245
253245
253245
253245
253245
253245
253245
253245
253245
253245
253245
253245
253245
253245
253245
253245
253245
253245
253245
253245
253245
253245
253245
253245
253245
253245
253245
253245
253245
253245
253245
253245
253245
253245
253245
253245
253245
253245
253245
253245
253245
253245
253245
253245
253245
253245
253245
253245
253245
253245
253245
253245
253245
253245
253245
253245
253245
253245
253245
253245
253245
253245
253245
253245
253245
253245
253245
253245
253245
253245
253245
253245
253245
253245
253245
253245
253245
253245
253245
253245
253245
253245
253245
253245
253245
253245
253245
253245
253245
253245
253245
253245
253245
253245
253245
253245
253245
253245
253245
253245
253245
253245
253245
253245
253245
253245
253245
253245
253245
253245
253245
253245
253245
253245
253245
253245
253245
253245
253245
253245
253245
253245
253245
253245
253245
253245
253245
253245
253245
253245
253245
253245
253245
253245
253245
253245
253245
253245
253245
253245
253245
253245
253245
253245
253245
253245
253245
253245
253245
253245
253245
253245
253245
253245
253245
253245
253245
253245
253245
253245
253245
253245
253245
253245
253245
253245
253245
253245
253245
253245
253245
253245
253245
253245
253245
253245
253245
253245
253245
253245
253245
253245
253245
253245
253245
253245
253245
253245
253245
253245
253245
253245
253245
253245
253245
253245
253245
253245
253245
253245
253245
253245
253245
253245
253245
253245
253245
253245
253245
253245
253245
253245
253245
253245
253245
253245
253245
253245
253245
253245
253245
253245
253245
253245
253245
253245
253245
253245
253245
253245
253245
253245
253245
253245
253245
253245
253245
253245
253245
253245
253245
253245
253245
253245
253245
253245
253245
253245
253245
253245
253245
253245
253245
253245
253245
253245
253245
253245
253245
253245
253245
253245
253245
253245
253245
253245
253245
253245
253245
253245
253245
253245
253245
253245
253245
253245
253245
253245
253245
253245
253245
253245
253245
253245
253245
253245
253245
253245
253245
253245
253245
253245
253245
253245
253245
253245
253245
253245
253245
253245
253245
253245
253245
253245
253245
253245
253245
253245
253245
253245
253245
253245
253245
253245
253245
253245
253245
253245
253245
253245
253245
253245
253245
253245
253245
253245
253245
253245
253245
253245
253245
253245
253245
253245
253245
253245
253245
253245
253245
253245
253245
253245
253245
253245
253245
253245
253245
253245
253245
253245
253245
253245
253245
253245
253245
253245
253245
253245
253245
253245
253245
253245
253245
253245
253245
253245
253245
253245
253245
253245
253245
253245
253245
253245
253245
253245
253245
253245
253245
253245
253245
253245
253245
253245
253245
253245
253245
253245
253245
253245
253245
253245
253245
253245
253245
253245
253245
253245
253245
253245
253245
253245
253245
253245
253245
253245
253245
253245
253245
253245
253245
253245
253245
253245
253245
253245
253245
253245
253245
253245
253245
253245
253245
253245
253245
253245
253245
253245
253245
253245
253245
253245
253245
253245
253245
253245
253245
253245
253245
253245
253245
253245
253245
253245
253245
253245
253245
253245
253245
253245
253245
253245
253245
253245
253245
253245
253245
253245
253245
253245
253245
253245
253245
253245
253245
253245
253245
253245
253245
253245
253245
253245
253245
253245
253245
253245
253245
253245
253245
253245
253245
253245
253245
253245
253245
253245
253245
253245
253245
253245
253245
253245
253245
253245
253245
253245
253245
253245
253245
253245
253245
253245
253245
253245
253245
253245
253245
253245
253245
253245
253245
253245
253245
253245
253245
253245
253245
253245
253245
253245
253245
253245
253245
253245
253245
253245
253245
253245
253245
253245
253245
253245
253245
253245
253245
253245
253245
253245
253245
253245
253245
253245
253245
253245
253245
253245
253245
253245
253245
253245
253245
253245
253245
253245
253245
253245
253245
253245
253245
253245
253245
253245
253245
253245
253245
253245
253245
253245
253245
253245
253245
253245
253245
253245
253245
253245
253245
253245
253245
253245
253245
253245
253245
253245
253245
253245
253245
253245
253245
253245
253245
253245
253245
253245
253245
253245
253245
253245
253245
253245
253245
253245
253245
253245
253245
253245
253245
253245
253245
253245
253245
253245
253245
253245
253245
253245
253245
253245
253245
253245
253245
253245
253245
253245
253245
253245
253245
253245
253245
253245
253245
253245
253245
253245
253245
253245
253245
253245
253245
253245
253245
253245
253245
253245
253245
253245
253245
253245
253245
253245
253245
253245
253245
253245
253245
253245
253245
253245
253245
253245
253245
253245
253245
253245
253245
253245
253245
253245
253245
253245
253245
253245
253245
253245
253245
253245
253245
253245
253245
253245
253245
253245
253245
253245
253245
253245
253245
253245
253245
253245
253245
253245
253245
253245
253245
253245
253245
253245
253245
253245
253245
253245
253245
253245
253245
253245
253245
253245
253245
253245
253245
253245
253245
253245
253245
253245
253245
253245
253245
253245
253245
253245
253245
253245
253245
253245
253245
253245
253245
253245
253245
253245
253245
253245
253245
253245
253245
253245
253245
253245
253245
253245
253245
253245
253245
253245
253245
253245
253245
253245
253245
253245
253245
253245
253245
253245
253245
253245
253245
253245
253245
253245
253245
253245
253245
253245
253245
253245
253245
253245
253245
253245
253245
253245
253245
253245
253245
253245
253245
253245
253245
253245
253245
253245
253245
253245
253245
253245
253245
253245
253245
253245
253245
253245
253245
253245
253245
253245
253245
253245
253245
253245
253245
253245
253245
253245
253245
253245
253245
253245
253245
253245
253245
253245
253245
253245
253245
253245
253245
253245
253245
253245
253245
253245
253245
253245
253245
253245
253245
253245
253245
253245
253245
253245
253245
253245
253245
253245
253245
253245
253245
253245
253245
253245
253245
253245
253245
253245
253245
253245
253245
253245
253245
253245
253245
253245
253245
253245
253245
253245
253245
253245
253245
253245
253245
253245
253245
253245
253245
253245
253245
253245
253245
253245
253245
253245
253245
253245
253245
253245
253245
253245
253245
253245
253245
253245
253245
253245
253245
253245
253245
253245
253245
253245
253245
253245
253245
253245
253245
253245
253245
253245
253245
253245
253245
253245
253245
253245
253245
253245
253245
253245
253245
253245
253245
253245
253245
253245
253245
253245
253245
253245
253245
253245
253245
253245
253245
253245
253245
253245
253245
253245
253245
253245
253245
253245
253245
253245
253245
253245
253245
253245
253245
253245
253245
253245
253245
253245
253245
253245
253245
253245
253245
253245
253245
253245
253245
253245
253245
253245
253245