/*--------------------------------*- C++ -*----------------------------------*\
  =========                 |
  \\      /  F ield         | OpenFOAM: The Open Source CFD Toolbox
   \\    /   O peration     | Website:  https://openfoam.org
    \\  /    A nd           | Version:  9
     \\/     M anipulation  |
\*---------------------------------------------------------------------------*/
FoamFile
{
    format      ascii;
    class       volScalarField;
    location    "0.0032";
    object      impulseMax;
}
// * * * * * * * * * * * * * * * * * * * * * * * * * * * * * * * * * * * * * //

dimensions      [1 -1 -1 0 0 0 0];

internalField   nonuniform List<scalar> 
26191
(
133.94
118.144
9.56803
84.3551
0.00183454
0.0261289
3.38092e-05
3.99679e-05
162.564
200.535
137.89
122.13
0.0100973
0.0038022
0.000773185
0.000334798
208.763
142.584
196.104
146.499
198.733
165.397
211.159
150.13
157.53
207.251
127.925
187.154
140.021
194.453
190.881
138.142
193.593
104.445
99.2933
181.36
178.406
181.582
131.178
187.045
95.8926
174.194
80.4413
171.379
209.94
204.982
206.185
195.949
197.232
192.965
191.659
210.739
207.462
207.019
198.564
198.098
193.853
194.333
205.372
203.432
201.493
194.286
192.203
189.96
187.835
203.129
196.552
199.198
186.841
189.721
185.301
182.353
198.25
203.332
202.869
189.17
184.506
183.983
189.668
200.779
197.364
202.007
188.254
181.66
183.036
186.918
199.181
192.4
197.187
179.857
185.172
182.991
177.602
203.947
195.377
238.264
206.553
240.394
188.785
185.911
225.531
222.872
202.338
230.2
234.789
184.106
186.259
221.228
220.144
240.878
236.162
235.674
229.455
228.975
224.166
224.659
239.489
233.542
234.766
226.861
228.076
223.268
222.051
236.71
231.964
225.324
230.028
223.43
220.49
218.579
232.608
225.4
227.84
218.868
221.276
216.396
213.932
231.066
225.043
230.581
218.9
213.617
213.116
219.397
206.058
218.268
217.783
212.817
201.29
213.319
200.777
228.437
224.12
229.667
217.999
210.959
212.204
216.774
215.688
205.172
216.896
211.922
198.616
210.709
199.874
226.828
219.228
224.872
209.314
215.184
213.235
207.308
214.134
200.36
212.23
196.958
209.117
207.175
194.914
214.321
222.649
216.928
210.994
202.276
204.968
208.43
198.047
207.548
210.031
204.924
189.709
202.342
192.507
207.308
195.403
188.234
201.697
201.166
207.823
194.873
206.404
192.639
187.276
198.959
200.244
205.16
193.946
190.919
197.259
203.527
201.523
181.854
195.168
188.787
189.975
192.12
194.837
180.387
171.734
174.905
177.353
183.291
196.464
189.819
192.702
175.975
179.158
199.178
181.018
164.264
182.472
177.566
156.689
176.087
158.437
141.404
33.6576
14.9726
112.833
37.6211
17.9304
117.681
183.448
166.037
183.988
178.562
160.26
179.12
159.603
193.089
187.835
187.307
178.759
178.209
171.691
172.272
185.011
192.178
186.364
175.797
177.226
170.66
169.159
131.541
20.8704
28.1287
95.2704
6.72328
13.1696
109.662
160.33
176.765
179.126
154.387
174.156
171.737
151.49
181.016
189.174
183.235
173.915
171.557
167.17
164.66
173.161
145.78
167.731
153.807
167.128
173.736
153.12
154.144
170.637
173.942
168.837
143.752
165.419
147.964
172.134
150.095
164.482
144.5
166.059
170.616
151.907
184.525
178.376
175.258
165.328
168.708
161.615
157.986
293.695
242.422
310.135
250.813
253.448
306.049
238.672
235.89
289.347
249.197
292.802
303.331
234.144
226.984
286.643
276.186
309.568
305.534
288.261
304.884
287.815
283.75
284.266
308.18
284.975
301.272
303.432
286.699
282.531
280.707
299.989
282.784
298.551
295.24
280.061
278.388
275.559
296.44
273.89
287.922
291.661
277.065
272.474
269.218
300.038
292.938
299.346
278.734
273.561
272.941
279.301
252.078
266.132
267.573
263.363
246.259
261.864
247.557
268.936
252.985
268.526
264.392
248.946
264.837
248.488
291.447
295.713
297.859
277.46
269.852
271.662
275.614
264.313
247.179
262.027
244.592
259.94
257.577
242.54
292.995
283.432
289.695
267.502
273.269
270.428
264.699
256.772
244.906
259.505
254.978
237.726
252.169
240.248
282.335
279.911
286.108
267.336
258.278
261.609
264.019
259.618
254.684
244.073
238.188
254.176
260.104
243.606
258.542
241.336
237.216
251.547
253.088
257.01
242.647
239.621
249.55
255.026
252.627
232.033
247.137
237.535
417.762
439.901
394.579
421.531
434.714
451.622
403.448
396.341
437.086
437.72
433.627
454.905
448.69
434.534
439.85
429.116
412.124
424.282
423.516
437.131
425.13
414.137
408.321
403.459
424.754
405.665
420.884
417.713
401.126
404.227
400.804
413.4
411.26
391.18
403.414
396.892
445.341
439.317
434.269
421.577
433.376
428.585
417.74
423.011
417.339
426.458
420.775
404.27
411.835
411.641
414.177
385.908
395.95
410.957
383.831
400.771
393.745
380.22
389.857
375.093
390.134
384.384
398.636
405.597
368.966
311.862
313.796
332.731
374.088
327.835
382.232
308.691
364.247
358.238
324.527
371.31
305.564
293.738
354.501
336.836
391.445
386.157
389.86
384.55
372.84
366.842
368.158
386.721
366.887
376.997
381.532
370.473
364.351
360.633
376.805
370.758
362.223
364.771
356.631
355.817
350.166
378.549
367.301
376.831
359.054
351.601
350.23
360.445
354.499
332.04
353.545
347.439
327.335
326.531
348.486
364.499
345.047
351.677
358.121
350.838
344.36
338.659
330.408
348.576
351.599
345.33
322.197
342.236
324.771
373.73
359.91
369.181
356.5
344.146
347.721
352.776
344.596
320.471
339.697
318.924
338.225
333.443
314.967
363.461
348.528
357.008
339.624
348.044
342.619
334.554
329.515
316.18
334.612
328.471
306.504
323.512
310.77
344.362
342.561
350.516
337.063
324.214
329.353
331.62
340.084
333.149
320.93
312.877
332.025
320.041
341.166
337.948
311.139
315.771
327.006
329.946
334.89
318.275
312.562
323.287
330.99
326.433
301.88
319.005
308.751
321.692
300.446
297.891
309.838
314.465
316.924
304.675
249.976
232.613
229.65
241.531
244.461
247.1
235.199
865.522
480.001
406.668
418.654
424.967
515.704
540.976
432.585
481.324
537.625
945.019
454.17
630.144
565.841
738.723
592.741
398.458
428.21
409.074
478.888
512.813
516.227
479.173
477.288
564.925
578.102
554.524
613.84
566.142
621.653
456.764
437.165
424.072
474.11
506.747
513.884
466.238
405.34
425.148
409.578
460.553
461.121
464.1
455.419
613.579
509.28
597.001
569.975
572.84
627.919
628.492
930.321
706.462
706.92
832.271
690.078
688.618
820.922
700.957
902.569
704.883
683.679
769.764
675.518
798.766
419.61
424.112
415.646
452.849
431.962
442.435
445.268
500.405
542.903
535.685
503.263
497.286
538.342
505.758
597.906
587.941
627.577
632.643
595.842
634.434
625.277
488.619
513.832
525.485
475.777
486.596
526.808
475.588
477.489
457.561
466.691
475.365
452.003
471.899
460.014
573.18
577.232
586.152
630.646
606.4
617.152
622.826
663.995
633.785
663.565
661.04
657.862
630.916
730.286
654.556
691.071
615.59
645.535
624.347
644.984
712.984
463.832
435.364
451.277
442.804
461.866
451.145
448.385
690.099
486.554
551.923
823.205
548.134
572.418
535.297
613.24
556.282
483.797
400.05
409.689
498.992
508.643
401.829
440.239
621.589
547.035
621.709
560.439
623.14
615.522
553.413
440.29
480.627
439.438
495.998
457.28
451.871
490.135
692.283
778.099
679.469
736.518
663.279
648.88
701.468
416.922
402.796
413.696
419.442
431.829
425.845
411.062
647.708
732.665
664.109
633.706
637.455
619.774
667.304
481.014
445.512
441.388
450.262
494.956
450.809
490.624
614.984
547.324
618.741
608.037
552.571
600.134
551.629
666.361
605.622
632.692
619.671
596.714
596.314
641.268
561.249
594.727
612.257
601.878
549.193
583.992
554.34
417.014
399.646
413.533
423.197
403.453
422.867
406.071
503.463
467.403
464.922
458.385
504.497
462.008
499.23
441.786
423.814
422.765
432.944
414.145
434.089
415.097
607.863
598.053
583.231
582.305
588.587
598.536
617.752
592.084
546.962
564.839
542.388
574.074
582.649
550.589
455.205
499.753
501.376
457.692
458.758
454.823
498.747
428.046
403.776
424.238
407.216
428.14
424.816
408.472
369.346
391.025
405.634
388.04
394.858
407.868
368.711
348.399
397.236
401.247
411.356
393.505
402.474
404.247
395.816
392.656
384.921
388.381
391.263
395.861
388.492
382.532
395.931
381.757
389.141
384.531
395.488
387.774
377.356
412.133
398.858
402.752
395.644
402.268
393.179
386.815
378.114
375.468
383.267
380.259
363.156
373.466
370.065
388.714
391.153
384.889
384.786
371.465
378.617
377.666
382.664
377.674
390.785
382.483
361.729
374.659
370.258
374.317
355.897
359.948
354.833
366.923
367.017
362.81
147.687
162.401
168.623
166.118
136.754
159.778
144.636
180.805
173.429
174.018
164.252
156.397
155.736
164.87
170.897
179.824
172.4
163.162
152.84
154.567
161.56
163.098
136.404
152.798
132.743
156.594
159.517
140.897
166.4
176.538
168.91
150.551
159.434
156.741
147.641
102.368
11.9239
107.368
69.9719
1.4829
1.05763
64.8473
137.371
160.964
160.333
152.599
128.494
153.272
127.67
157.55
135.997
159.212
151.408
123.954
149.64
126.183
168.033
159.776
163.371
153.46
139.766
144.078
149.551
12.9054
8.17768
99.0954
0.840176
61.4876
18.4222
0.2964
155.353
127.659
152.569
120.959
147.281
144.279
117.151
142.2
135.011
134.188
109.544
108.637
100.379
101.284
145.096
123.33
149.175
140.601
106.934
136.167
112.488
139.997
130.537
132.726
104.568
107.003
98.739
96.2959
143.711
117.295
103.528
134.153
133.363
144.435
116.417
142.424
112.411
101.835
129.833
131.951
140.506
114.815
135.084
127.614
123.925
101.351
97.3541
93.0626
89.0468
127.235
114.154
119.449
87.0745
92.5929
84.2685
78.7414
109.189
126.979
137.937
134.654
91.6166
123.328
105.112
122.211
115.212
124.498
89.7027
77.4398
79.894
87.2487
116.802
126.874
126.023
91.3489
82.4346
81.5403
92.2506
130.599
94.3119
86.4658
113.356
118.812
125.682
100.158
119.161
105.686
115.322
74.1972
84.0027
79.9794
70.1914
105.21
100.892
110.677
75.2043
59.9863
65.4446
69.6983
106.466
95.9343
95.0205
71.861
70.9841
59.7617
60.6118
104.823
90.8227
93.3391
66.9169
69.3518
58.1598
55.7717
95.0028
87.4768
83.3042
63.7021
59.7389
52.6259
48.7647
90.0876
72.5234
78.3116
49.7204
55.0636
44.2361
39.1075
1.09391
0.0127135
0.00320365
0.00244925
2.21043
1.38622
2.96993
72.5054
36.913
71.6415
63.7477
31.117
64.5875
30.4545
67.7186
35.592
70.0606
62.197
27.3891
59.8994
29.2088
83.4217
69.0767
82.5092
48.0507
36.894
36.1471
48.8598
217.703
87.7765
53.6658
0.00067556
1.25727e-05
197.593
116.182
0.00187914
6.49402e-05
224.609
180.142
192.31
179.832
211.38
200.005
157.146
186.274
126.072
145.423
99.0923
122.217
176.787
183.918
227.55
222.7
216.195
219.67
213.175
211.154
208.001
221.345
212.463
216.275
205.906
209.768
204.423
200.354
217.337
208.037
214.179
199.188
205.513
202.187
195.643
112.029
164.389
174.222
73.5675
164.105
137.716
48.3595
204.729
188.801
201.523
186.471
199.379
195.995
182.733
194.267
193.541
190.119
183.538
179.792
178.968
175.101
206.596
204.257
210.619
198.397
187.027
191.61
194.071
184.774
193.688
197.863
192.115
173.483
187.666
178.424
190.512
181.838
186.24
170.687
175.542
170.661
165.552
193.33
186.469
172.266
189.725
167.987
182.604
175.816
189.007
180.2
185.458
168.015
173.839
169.777
163.696
243.781
259.675
236.744
289.061
224.042
272.322
259.932
213.04
285.181
270.596
284.035
280.038
267.135
265.811
262.272
263.515
276.989
281.155
271.705
275.928
258.546
254.587
250.734
239.705
253.847
234.966
249.163
245.97
231.946
278.439
268.341
274.424
254.761
260.555
256.935
251.069
548.621
401.116
347.138
587.455
654.365
557.201
568.06
541.844
557.813
509.068
510.263
495.387
401.254
456.35
400.405
486.171
395.862
382.782
363.484
389.928
383.84
342.556
371.541
328.614
631.963
625.141
618.651
612.752
608.7
600.719
593.905
609.292
559.374
600.979
552.566
591.638
582.2
549.053
450.138
504.055
454.994
500.456
453.396
457.283
504.339
420.926
401.972
423.898
401.782
423.056
423.259
400.515
599.626
602.485
608.486
593.943
575.928
586.863
582.117
583.246
578.76
591.878
586.609
565.057
573.71
575.104
381.692
388.152
387.461
378.032
377.18
384.125
372.185
578.389
556.025
590.224
572.192
534.749
562.179
542.586
573.412
556.3
528.093
564.501
521.148
548.414
535.393
464.798
508.975
460.024
461.644
504.309
505.791
464.757
500.79
457.948
496.727
459.105
494.056
500.966
458.583
426.375
401.883
425.23
424.125
398.077
426.347
399.338
580.795
566.761
561.993
559.204
567.243
573.486
570.657
422.755
397.756
422.595
422.649
395.262
423.192
398.016
373.157
358.028
368.306
356.831
367.282
361.652
351.051
385.539
369.161
373.736
378.592
381.136
367.492
363.43
379.926
365.498
371.413
376.061
380.048
366.155
360.786
555.762
521.285
514.738
533.302
540.801
547.219
528.308
461.374
495.803
490.49
457.4
499.33
458.333
462.009
424.265
396.126
394.806
426.131
424.799
426.72
396.268
357.945
352.574
363.19
356.345
340.454
351.463
345.594
349.647
353.859
360.557
354.89
337.264
348.545
343.976
374.765
373.167
377.009
361.875
354.557
357.211
358.624
349.888
334.23
332.672
340.752
344.15
345.598
338.844
294.34
336.166
307.539
352.313
289.495
331.397
323.365
276.462
346.767
339.493
345.68
334.22
340.123
333.164
327.901
341.438
324.166
329.157
329.787
334.878
322.898
317.972
324.518
303.212
319.662
302.154
318.584
313.767
297.717
338.619
326.28
333.216
319.16
326.31
321.199
314.181
310.235
314.935
298.83
309.026
288.713
304.24
293.214
316.941
328.163
321.455
316.288
304.77
309.382
311.425
296.085
305.164
312.144
307.362
285.203
300.504
291.661
302.618
282.742
280.87
291.376
295.912
297.907
287.217
229.973
233.524
247.398
242.538
224.948
238.806
228.619
266.023
270.298
264.217
253.12
243.001
247.184
249.053
229.776
238.357
244.02
240.725
220.765
234.943
226.645
237.165
219.329
217.105
227.181
231.234
233.279
223.178
185.572
165.925
162.994
173.124
178.203
180.852
171.22
171.01
181.416
175.932
165.082
152.93
158.693
159.664
16.8823
5.92689
93.0347
64.5978
1.01772
88.817
4.73541
166.803
139.913
162.383
138.766
161.429
156.802
132.925
178.172
171.616
161.357
167.371
156.731
153.72
148.742
151.457
133.506
157.298
151.458
118.243
145.279
126.122
131.087
148.326
155.315
150.423
115.55
143.088
124.849
169.652
156.824
162.476
145.16
151.382
142.911
136.061
155.541
150.534
159.555
134.6
144.918
139.432
128.457
144.736
109.26
107.851
129.791
136.969
138.132
117.603
148.019
144.634
154.242
132.962
112.715
121.21
125.335
2.27291
33.4735
9.59323
10.0546
0.106849
3.65512
0.0292113
140.27
104.938
134.583
100.449
130.869
124.596
93.0248
109.368
108.02
101.02
80.8081
73.8207
72.4903
65.5344
96.85
120.025
127.883
117.221
75.4008
108.637
84.6653
87.5675
106.888
119.811
112.885
65.885
99.3721
79.9323
101.657
84.3824
93.138
57.7887
66.1315
57.9143
49.7089
98.899
81.5348
91.7366
53.8611
63.4837
56.6025
47.1323
104.833
62.1702
57.4499
81.1983
90.7985
95.6251
71.4435
74.8774
73.4427
83.7238
49.1221
32.3042
39.8978
41.15
0.0727546
0.00180041
0.0419948
0.00139595
0.0349921
0.000595193
0.0870338
0.00743617
0.0537825
32.6073
26.0511
29.6195
0.0706921
0.114683
36.5723
0.0448911
0.0202132
30.1725
23.8476
15.1938
0.0293122
20.4056
22.9924
26.3789
0.0552409
0.0153428
1.68175
0.0193832
2.12138
0.0115702
0.0055451
20.9064
12.8623
5.75677
0.0100641
9.37255
0.00668987
3.85176
6.62326
0.716932
0.00117609
0.00206243
1.80573
31.1498
64.6419
60.8648
25.0439
56.8825
53.1816
22.2414
78.2583
67.3844
80.808
46.5073
32.5559
34.7016
44.2083
24.6685
43.9032
15.6803
51.3544
56.4229
48.8379
19.075
65.9671
43.7739
77.8076
70.4736
58.6873
37.3162
27.466
74.8735
57.3373
70.6741
29.7633
41.192
37.5133
26.4026
55.3105
17.4053
24.4684
47.184
46.4093
56.1225
23.8639
2.6817
0.473124
0.000885463
0.000813281
0.0999936
0.00844377
0.000527135
38.4413
12.225
45.7124
12.8999
39.5686
32.5478
8.91122
53.7974
21.0582
42.7804
16.4083
44.9467
51.5554
22.7203
28.4857
46.8555
59.9362
52.4413
65.6832
33.246
22.5751
18.9356
39.9491
48.615
45.0179
11.1022
36.4992
16.4424
62.401
42.2916
50.7576
23.4897
30.487
21.2808
15.2291
28.0358
36.0662
10.843
40.8126
8.90064
32.4993
13.6966
14.1572
23.3661
33.9572
40.6546
53.4797
46.3922
18.0833
30.9277
34.5155
32.785
8.46494
8.36707
7.59181
9.30613
34.7809
35.8437
34.0756
10.3513
9.094
9.43477
9.98311
0.00149102
1.13537
1.55105
0.137386
0.0973615
0.000570463
0.000682047
11.5046
37.9036
37.1761
27.8704
6.95673
28.5324
6.66299
28.7217
27.7772
30.5206
7.41444
5.54361
6.6246
6.23482
32.4443
28.973
31.7676
7.98449
7.00785
6.73594
8.29397
33.7343
10.7046
35.7873
26.596
5.32569
24.7224
6.10355
28.5536
27.2722
25.726
7.23832
6.54425
5.40387
6.00464
0.000366317
0.16181
0.000779177
0.00124741
0.919893
0.0767069
0.000482706
31.0655
6.64415
27.8445
4.40995
22.3098
19.4458
3.45135
9.15546
26.2497
33.026
26.3636
3.64468
20.1027
5.97908
26.4245
21.234
23.6903
4.72582
5.68124
4.66453
3.85535
24.6306
19.6464
21.1758
4.43612
5.01541
3.84892
3.38626
22.8112
25.7666
22.2395
5.66882
5.4387
4.37483
4.18927
23.2312
30.8666
8.06247
25.3436
3.08573
18.2593
5.55795
23.9822
19.0539
22.5223
4.26107
3.58829
4.75636
3.19946
18.3083
17.2904
20.6053
3.65661
2.21936
3.00014
2.72733
2.22459
14.7181
15.1819
19.0295
18.5066
3.20934
3.06654
18.4514
17.7126
15.4569
3.75875
3.04326
2.84859
2.28611
1.74609
3.66341
20.1316
5.09483
24.1606
16.2561
2.53871
6.44617
19.8913
26.9461
30.8264
38.7813
12.9465
8.34189
1.93323
12.6287
13.8552
16.1426
17.5334
2.80558
2.45305
15.7285
10.4152
12.9819
1.72204
2.34715
1.74796
1.27521
1.10787
1.39691
11.1037
14.3958
12.3784
2.04763
1.63111
18.9479
3.47292
11.5719
1.40461
11.1439
19.514
3.30411
17.8513
2.54538
1.25563
9.12611
10.3122
16.2566
2.98252
1.45488
11.044
11.4365
8.00776
7.69701
0.90216
0.859343
19.6836
2.0214
8.94856
1.84448
13.3885
14.1852
3.51394
1.2609
9.28074
10.3117
6.31248
7.1179
0.780567
0.675375
7.54792
0.838537
0.605435
7.99524
10.1999
1.24031
0.900542
2.049
7.68464
14.2477
11.9401
0.630183
6.1149
1.55343
0.00929886
0.000239122
0.000120517
0.102632
0.000531972
0.00198819
0.000302266
1.12489
2.45104
15.9324
1.51847
11.7988
6.56729
0.682313
0.714879
0.905295
8.02078
5.34912
4.3148
0.556616
0.436796
201.228
212.095
167.8
206.379
151.409
201.769
158.336
174.537
216.513
209.9
190.198
132.841
175.754
164.507
147.871
199.428
215.401
213.508
212.401
205.144
203.772
201.572
200.228
213.937
209.055
210.926
199.901
202.028
198.513
196.389
207.36
206.808
204.215
197.407
194.543
193.875
190.98
210.143
205.245
209.024
193.314
197.645
196.316
191.992
205.622
203.73
207.529
194.605
188.096
192.464
190.266
204.473
197.975
201.277
187.632
191.294
187.682
183.967
203.323
196.733
200.683
185.513
189.921
186.983
182.517
172.798
191.56
189.986
169.7
187.41
185.876
167.987
194.314
193.668
197.687
183.63
175.167
179.084
179.834
185.585
170.563
188.005
183.927
162.982
181.519
165.759
177.834
164.328
182.854
181.343
156.604
162.614
176.326
182.74
179.472
160.67
159.647
178.669
175.369
155.737
179.399
157.546
171.908
154.31
176.981
160.368
174.366
156.255
151.202
171.551
171.589
145.965
151.199
167.281
154.135
168.963
174.098
170.737
143.647
150.105
165.502
236.749
257.04
230.294
222.88
260.83
217.797
213.707
247.043
263.108
226.393
253.028
250.179
213.178
220.988
203.152
211.568
244.788
258.777
263.591
257.566
246.945
246.32
245.486
244.168
244.208
258.139
254.291
255.789
245.45
243.103
241.65
236.794
209.866
199.618
185.995
197.48
222.381
229.075
262.814
253.911
256.244
241.154
243.716
241.402
238.542
255.34
242.533
252.264
249.736
240.394
239.777
237.509
249.272
250.899
252.644
240.194
235.166
238.592
236.84
246.91
243.579
246.802
234.981
237.854
234.932
232.12
248.696
242.255
246.085
233.188
236.616
234.327
230.967
236.027
225.512
235.259
223.954
233.967
233.026
223.018
232.98
224.378
234.276
231.946
220.235
230.554
221.826
240.152
239.553
243.211
231.822
225.646
228.472
229.03
231.349
218.734
229.35
218.245
228.82
226.696
215.895
240.196
243.343
239.684
231.867
229.032
228.477
225.627
228.681
221.097
231.597
230.433
216.771
220.111
227.435
229.246
217.176
215.456
224.538
227.758
218.852
226.144
224.191
216.132
226.962
224.197
210.199
213.213
221.357
233.68
233.68
237.024
222.51
225.911
222.489
219.032
233.139
236.008
231.976
220.702
224.777
221.9
217.772
215.104
222.573
225.891
223.661
209.092
212.681
220.278
221.088
214.717
206.872
206.297
209.945
217.651
218.204
221.062
206.831
218.188
206.18
217.585
214.671
203.074
226.553
225.901
229.996
218.724
210.816
214.506
215.168
211.449
203.436
214.993
211.423
195.63
207.785
199.585
202.069
209.482
213.735
210.76
194.149
206.414
198.875
301.079
248.725
317.065
275.265
297.434
282.406
284.99
270.355
331.467
345.487
312.36
343.3
327.513
310.188
297.857
304.477
289.837
308.108
294.564
317.914
313.502
289.556
333.842
339.424
322.717
302.168
306.791
294.033
289.71
285.27
267.103
269.628
266.21
281.935
278.162
263.382
304.223
278.795
281.893
300.957
308.952
285.738
282.376
380.13
367.5
389.128
351.247
288.719
285.834
292.097
287.618
374.914
385.616
349.157
378.754
342.222
353.428
345.123
357.677
357.787
369.575
323.562
333.646
334.943
323.041
388.89
378.924
380.245
355.03
355.511
345.794
344.044
366.528
355.723
369.359
334.148
316.819
320.844
331.195
317.198
279.751
308.929
289.641
320.55
311.184
280.909
271.324
273.102
300.612
301.431
268.379
291.408
273.124
320.959
289.992
321.821
311.415
278.674
280.531
309.679
289.34
264.715
261.608
300.52
269.314
271.872
297.827
274.646
278.787
263.923
260.244
256.409
274.402
260.064
279.046
262.196
257.73
273.436
254.832
259.235
268.567
262.485
265.993
252.495
269.78
251.772
255.955
265.218
259.474
293.746
281.922
266.107
252.361
281.892
262.048
293.41
300.254
284.754
303.331
300.296
297.097
281.828
278.907
275.673
278.933
297.099
290.261
293.778
275.738
272.262
297.11
289.761
293.675
274.868
278.599
275.478
271.547
270.129
256.203
252.573
251.997
265.597
262.672
248.851
286.328
290.152
285.946
272.088
264.29
268.023
268.477
262.832
245.707
249.062
259.524
242.339
256.104
245.731
258.133
248.091
244.076
259.06
241.152
255.083
245.185
248.277
234.52
238.615
237.985
242.04
251.811
255.842
316.357
346.19
375.939
323.971
315.751
342.397
312.298
352.856
370.31
362.919
366.684
362.192
356.931
354.377
349.701
391.639
428.795
430.06
430.114
389.276
391.236
379.049
395.212
382.812
366.868
436.331
500.301
444.319
452.235
384.147
448.703
424.106
435.599
373.519
372.974
366.202
381.294
381.933
374.058
396.21
440.86
472.464
448.51
473.446
450.733
469.559
463.202
370.206
382.071
385.322
353.861
390.594
368.916
390.817
365.585
322.689
370.263
389.734
437.737
402.335
332.673
377.5
383.792
386.852
386.997
382.969
390.57
385.05
402.336
427.202
413.781
437.644
423.727
416.171
421.683
366.281
410.614
405.896
384.02
379.546
399.827
397.339
449.118
451.541
465.906
436.718
446.94
451.47
436.857
496.188
483.092
484.435
479.191
478.037
466.523
465.424
431.775
409.175
404.32
416.182
445.373
437.71
409.241
383.468
389.042
386.739
383.99
386.106
390.705
386.297
423.882
433.41
427.087
412.15
410.967
416.031
407.71
387.561
389.321
385.975
388.267
386.863
386.391
386.2
392.03
411.33
405.791
401.746
389.851
388.088
405.002
422.857
421.872
433.957
416.801
407.672
420.871
404.029
463.858
448.618
467.608
451.822
431.812
435.591
449.5
413.96
397.104
388.063
427.343
389.584
415.546
400.351
351.679
324.137
352.6
292.037
286.332
321.408
319.559
318.558
281.745
304.461
293.894
279.024
289.089
299.976
289.731
326.61
321.671
335.582
312.001
305.543
314.956
329.578
314.653
303.324
314.614
311.138
317.245
322.635
302.322
298.6
291.625
300.674
280.575
288.872
298.354
290.799
338.544
330.806
344.296
324.736
346.67
333.856
338.372
318.595
303.419
310.602
324.713
303.022
311.222
325.9
318.76
312.819
330.362
309.972
326.445
323.041
305.583
332.276
342.061
331.975
320.506
342.573
330.208
334.016
323.175
669.25
543.799
1076.55
289.47
430.701
1578.4
1219.49
278.371
318.754
337.029
276.896
328.243
351.709
291.546
1558.91
561.06
591.145
1502.49
590.923
623.085
1468.33
392.556
303.891
361.226
383.618
339.347
425.559
312.04
395.087
306.399
329.275
285.701
352.269
381.234
303.805
1469.86
1524.74
627.737
661.754
1348.97
701.614
1418.35
695.67
1274.98
671.462
1400.72
631.006
661.046
1352.98
418.275
483.171
363.328
421.893
365.928
477.536
330.308
733.055
1151.84
718.099
694.55
1212.13
726.529
1290.05
507.978
399.684
362.4
332.499
447.701
365.612
360.153
430.439
335.293
357.486
343.956
347.888
340.192
372.622
356.136
352.44
365.026
356.256
357.423
348.608
356.118
365.694
381.153
407.278
377.278
441.935
404.854
401.308
447.787
336.231
355.287
338.197
426.185
390.513
379.818
421.796
381.865
355.129
346.173
383.668
421.202
397.137
422.714
384.936
418.881
375.936
405.527
450.196
416.58
451.664
484.902
481.117
440.72
439.35
490.001
480.764
472.713
439.916
468.663
441.697
451.909
438.322
469.283
459.552
729.381
497.668
789.752
487.811
559.424
1001.29
592.616
493.116
348.846
1064.94
709.877
424.872
366.111
397.802
375.777
432.57
357.593
333.141
432.47
381.492
484.594
374.607
481.106
549.284
423.605
327.233
343.466
341.511
336.843
334.525
349.091
367.018
1390.21
1288.49
743.756
1260.22
737.057
757.985
1160.94
344.647
361.626
349.275
354.487
342.117
351.631
361.873
568.969
532.331
961.834
561.32
607.839
709.375
556.598
402.03
386.824
466.657
404.484
512.949
488.18
398.683
486.448
418.062
544.484
599.262
526.911
489.445
622.247
426.446
604.082
550.268
604.467
535.786
632.875
494.053
380.829
358.527
339.959
384.118
462.353
428.361
414.575
388.999
370.457
352.396
389.108
470.053
422.089
433.105
737.007
1125.62
746.572
751.803
927.782
732.572
1038.87
761.593
1175.89
762.27
760.94
966.051
750.314
1061.09
364.75
352.512
342.394
368.846
383.838
371.101
390.924
373.212
365.312
355.136
373.222
388.735
396.747
375.862
419.528
477.315
444.483
481.836
436.134
467.316
432.036
629.842
642.465
545.87
551.496
642.817
532.863
636.426
629.921
551.398
642.92
545.786
636.981
642.988
559.533
419.299
481.506
436.005
476.33
431.637
444.168
487.307
745.367
703.683
856.89
873.829
731.081
721.642
954.88
747.002
876.729
731.964
866.065
724.411
705.713
794.908
394.972
412.605
391.994
393.836
405.811
387.314
403.349
394.679
393.611
405.684
391.346
402.918
412.364
397.387
679.861
797.39
709.003
680.745
678.641
654.096
731.199
453.012
490.322
446.683
452.804
506.029
497.536
457.511
639.647
562.73
646.189
639.955
572.514
629.151
569.06
780.818
661.905
694.664
674.249
667.961
643.391
724.501
552.428
624.407
634.436
633.995
563.948
618.968
563.795
481.653
445.825
439.473
449.491
499.462
452.728
493.136
420.638
398.454
413.897
420.514
404.147
425.806
401.85
394.99
415.902
409.171
418.247
401.945
422.363
400.335
421.762
450.599
420.584
440.9
411.611
412.024
440.804
380.551
377.672
374.292
380.816
382.073
381.325
373.074
405.459
383.755
376.369
399.711
391.805
386.5
370.108
392.971
392.729
392.734
386.545
387.048
386.27
384.37
425.177
405.745
411.911
412.721
418.023
399.274
392.445
397.416
393.993
381.848
384.676
384.862
399.551
393.467
391.486
388.422
390.023
383.959
384.413
385.172
382.563
376.896
362.565
388.346
375.681
401.566
384.639
358.505
651.545
638.278
613.729
634.236
626.967
631.4
676.874
429.024
411.329
399.372
388.492
415.166
401.522
427.359
626.396
570.019
596.057
565.931
609.097
613.795
570.032
403.406
403.366
403.412
424.796
427.313
426.099
427.79
456.054
511.811
462.969
508.618
458.164
504.024
460.649
379.752
373.394
381.963
379.478
365.632
375.861
369.98
386.951
389.621
392.139
383.793
375.199
379.513
380.53
372.602
377.437
380.04
378.476
364.346
374.066
369.423
392.543
371.896
398.527
379.314
346.08
352.942
372.156
386.704
377.335
393.757
380.327
356.355
363.346
372.779
356.743
346.591
372.134
366.652
327.532
350.616
341.182
351.383
364.629
359.105
358.092
353.552
345.255
340.609
320.095
339.69
344.829
319.917
338.508
334.189
316.224
357.892
357.886
362.001
345.015
349.763
345.025
339.919
359.267
365.151
360.103
375.275
364.64
369.723
370.747
317.986
338.462
344.55
360.314
329.144
335.377
353.15
348.253
347.691
353.315
340.324
329.977
334.951
335.454
312.532
330.34
334.941
329.925
308.486
325.556
312.427
316.365
329.795
334.362
329.818
308.091
325.03
312.407
299.57
304.258
320.832
325.357
303.861
320.402
308.374
207.423
191.12
190.344
198.975
202.931
203.65
195.247
166.855
156.819
139.882
138.661
145.384
161.472
162.401
304.769
325.781
275.936
660.536
608.561
979.323
456.6
1075.76
362.985
313.012
298.524
282.226
397.333
312.318
379.655
355.624
274.111
334.833
329.374
287.218
370.69
361.073
292.458
281.296
272.907
272.294
275.387
283.036
285.315
277.895
286.912
380.52
352.53
393.136
328.908
427.703
306.964
1442.36
1453.08
598.221
652.457
1344.65
643.454
1329.31
310.809
296.865
295.21
310.835
295.469
297.922
313.569
289.171
290.535
280.05
292.038
298.432
286.116
301.043
318.656
310.983
303.001
303.603
324.862
310.712
318.877
630.314
1375.51
1417.09
670.335
1244.87
694.488
1295.88
285.545
301.411
288.576
292.406
321.403
307.291
291.028
314.663
428.581
376.436
491.019
506.772
415.266
323.441
456.133
370.781
568.926
406.86
534.783
498.129
341.765
690.097
1213.77
1058.51
705.815
709.603
682.585
1196.09
299.827
320.603
347.04
367.464
332.409
302.695
310.009
313.6
322.008
298.743
302.065
359.745
328.005
316.824
702.29
1108.17
716.223
1024.92
713.778
715.492
1159.76
307.712
327.646
363.151
367.667
341.457
314.749
321.765
486.985
333.823
330.795
1050.35
694.367
759.281
547.174
926.173
505.645
370.894
426.779
310.146
478.446
446.037
394.317
389.131
420.052
365.042
474.209
361.057
478.352
539.817
412.907
305.464
326.236
323.377
318.537
313.38
330.99
351.261
320.247
342.412
330.13
332.397
319.712
332.196
342.218
1314.26
1233.7
726.854
1177.13
718.477
735.109
1099.35
414.834
598.425
541.539
591.543
525.999
622.74
482.772
383.753
357.972
340.396
380.329
460.931
422.686
414.097
425.105
598.978
548.348
590.778
531.028
616.255
487.38
363.626
402.864
335.454
384.567
467.077
421.147
427.183
753.794
1142.59
747.717
740.419
941.485
735.999
1019.54
1044.69
713.857
724.603
726.519
869.947
706.876
977.357
352.449
368.692
342.414
364.712
383.011
390.369
365.793
344.14
387.138
330.803
368.668
391.28
398.117
370.143
616.606
540.136
625.174
539.74
622.978
628.806
524.059
412.808
471.622
472.273
437.326
429.176
459.399
427.648
721.454
843.691
679.628
814.078
695.061
710.675
909.69
389.383
388.7
408.103
391.228
402.122
399.877
382.204
348.757
361.985
401.506
374.093
366.665
416.693
377.209
357.463
360.261
363.955
356.86
363.666
362.606
357.682
364.762
352.728
357.559
360.158
356.283
356.595
365.108
365.93
365.47
370.77
367.942
370.344
366.596
370.865
376.052
359.112
378.435
358.766
384.223
355.001
363.854
394.369
406.833
396.994
358.272
367.765
413.754
379.188