/*--------------------------------*- C++ -*----------------------------------*\
  =========                 |
  \\      /  F ield         | OpenFOAM: The Open Source CFD Toolbox
   \\    /   O peration     | Website:  https://openfoam.org
    \\  /    A nd           | Version:  9
     \\/     M anipulation  |
\*---------------------------------------------------------------------------*/
FoamFile
{
    format      ascii;
    class       volScalarField;
    location    "0.00265";
    object      alpha.c4;
}
// * * * * * * * * * * * * * * * * * * * * * * * * * * * * * * * * * * * * * //

dimensions      [0 0 0 0 0 0 0];

internalField   nonuniform List<scalar> 
23859
(
0.110961
0.088767
0.0184951
0.0147465
0.00130952
0.00226481
0.000174371
0.031276
0.204176
0.0622831
0.0925032
0.0277564
0.0307344
0.0124241
0.0319855
0.229877
0.102881
0.0396153
0.0141607
0.0729044
0.0344669
0.179957
0.16177
0.142174
0.161359
0.142417
0.109009
0.123372
0.0282105
0.00391436
0.00206835
0.00697496
0.00648103
0.00219341
0.000841849
0.00728313
0.0329739
0.0160356
0.00220191
0.000857602
0.00545812
0.00220043
0.204018
0.183047
0.16178
0.188543
0.167474
0.127979
0.144138
0.122187
0.0492986
0.0963501
0.0503218
0.0974525
0.0751902
0.0394743
0.140755
0.0572514
0.110925
0.060826
0.116242
0.0891212
0.0470732
0.124363
0.0818649
0.10946
0.0810314
0.0650852
0.0582973
0.0912355
0.0794963
0.12258
0.108779
0.0802483
0.062354
0.0562894
0.0899825
0.140131
0.0914227
0.123901
0.0940389
0.0738182
0.0663618
0.105464
0.00223817
0.00133845
0.000501749
0.00105305
0.0004489
0.000555226
0.000293301
0.0138043
0.0224257
0.0228945
0.0108771
0.0110291
0.0181897
0.00872602
0.000411178
0.00394627
0.00140741
0.000407642
0.00025314
0.00191691
0.000484364
0.0568576
0.0401534
0.0757707
0.0568638
0.0235335
0.0412395
0.0309915
0.0390351
0.0571358
0.0748871
0.0569375
0.0237034
0.042089
0.0308007
0.00102899
0.00162766
0.00179648
0.0047549
0.00189608
0.000590024
0.00109845
0.000201375
0.14858
0.0996315
0.132505
0.0967993
0.0764739
0.0691263
0.108167
0.064132
0.0446663
0.0854389
0.0664691
0.0270013
0.0480685
0.0359853
0.0157398
0.0258387
0.0275323
0.0121932
0.0128789
0.0214705
0.00999536
0.00702919
0.00474669
0.00657831
0.00956969
0.00657507
0.0043999
0.00311524
0.071673
0.0498987
0.0932761
0.0690114
0.0289259
0.0507439
0.0377188
0.057345
0.0423197
0.0435757
0.0256107
0.0396
0.0385934
0.0637729
0.00603601
0.00786936
0.00530235
0.00388391
0.00605672
0.00467434
0.00287845
0.00868562
0.0144727
0.0179963
0.0114857
0.0145023
0.00695849
0.00553625
0.0185102
0.00698773
0.00881729
0.0114221
0.0145945
0.00696112
0.00545418
0.0203599
0.00755476
0.0095707
0.0129146
0.0167278
0.00780634
0.00607913
0.0416878
0.0173492
0.0199412
0.0175964
0.0296989
0.0291185
0.0236166
0.0677869
0.0504122
0.05005
0.0295016
0.0459977
0.0455782
0.0751883
0.0085715
0.00396954
0.00646733
0.00403156
0.00671455
0.00509803
0.0029505
0.0228263
0.00848404
0.0105317
0.0138567
0.0175538
0.00811837
0.00642101
0.00287422
0.00330668
0.00404782
0.00282473
0.00220833
0.00200246
0.00150077
3.92583e-05
7.36261e-05
0.000506947
4.56135e-05
8.97416e-05
7.44787e-05
1.98535e-05
0.0494209
0.0229003
0.020553
0.0201657
0.0346751
0.0341955
0.0279462
0.00291369
0.0025149
0.00439256
0.0010275
0.00163737
0.00292383
0.00187899
0.00120492
0.00283027
0.00195671
0.00310992
0.00438908
0.00285888
0.00197547
0.00307104
0.00435107
0.00276583
0.00175089
0.00116839
0.00283201
0.00195329
0.00292056
0.00368063
0.00469532
0.00364669
0.00162069
0.0028497
0.00215596
0.00307566
0.00276497
0.00274629
0.00208315
0.00202678
0.00192825
0.00136798
0.0087183
0.00883148
0.0114498
0.00549542
0.0031869
0.00428595
0.00421637
0.0018213
0.00142866
0.0027536
0.00137058
0.00176264
0.00115036
0.000858757
0.00358675
0.00283976
0.00467054
0.00361316
0.00153803
0.00276151
0.00211209
0.0038528
0.00293786
0.00496611
0.00391796
0.00163997
0.00301967
0.00219199
0.0101814
0.00998615
0.0133662
0.00624068
0.00350354
0.00479692
0.00473545
0.0041195
0.00298371
0.00527797
0.00400789
0.00161458
0.00309763
0.00219307
0.00245576
0.00121957
0.00161164
0.001138
0.00153688
0.000999825
0.000714344
0.00146467
0.00154779
0.00204993
0.00102163
0.00142904
0.00102091
0.000692647
0.000619943
0.00115795
0.00187858
0.000694688
0.000362363
0.000623947
0.00116715
0.00100621
0.00111141
0.00184634
0.00067017
0.000348149
0.000614542
0.00115176
0.000831729
0.000911115
0.00144324
0.000902529
0.000499981
0.000552689
0.00029529
0.000647023
0.000710296
0.000400468
0.00107966
0.00069642
0.00179198
0.00120057
0.00280805
0.00114456
0.00159574
0.00118259
0.00216718
0.00211742
0.0015825
0.00195295
0.000936073
0.00144927
0.00094906
0.00138503
0.000980291
0.000631101
0.00196333
0.000974396
0.00142146
0.000983757
0.00137217
0.000931511
0.000637164
0.00190145
0.000845207
0.00131676
0.000923505
0.00133994
0.000888698
0.000570228
0.00305521
0.00169924
0.00118358
0.00120471
0.00231438
0.00231306
0.00162639
0.000774956
0.00119441
0.000898167
0.00074702
0.000325452
0.00048135
0.000532089
8.50045e-17
1.06363e-17
7.59949e-19
5.01685e-20
2.64134e-21
1.13468e-22
4.24353e-24
1.67538e-13
4.5217e-16
2.75512e-17
1.91943e-18
1.03425e-19
4.41251e-21
1.61392e-22
2.92451e-10
5.42278e-14
6.02285e-16
6.17602e-17
3.548e-18
1.52869e-19
5.56486e-21
4.0095e-06
8.37642e-09
8.44946e-13
2.54743e-15
1.11836e-16
4.48014e-18
1.62812e-19
0.000771617
4.36293e-05
4.77493e-07
2.83728e-11
4.97218e-15
1.20763e-16
3.95085e-18
0.0163416
0.00163602
0.000105027
1.75346e-06
1.04674e-10
5.10202e-15
7.48352e-17
0.019642
0.00211666
0.000129694
1.80236e-06
3.64531e-11
2.2625e-15
0.0191406
0.0020123
0.000101895
5.65313e-07
1.33563e-12
0.0139293
0.000875555
5.08021e-06
2.06275e-11
2.527e-17
2.28474e-18
2.0226e-19
1.37319e-20
7.48167e-22
3.33146e-23
1.29316e-24
5.3798e-16
7.79698e-17
7.43796e-18
5.20446e-19
2.84325e-20
1.24642e-21
4.7142e-23
3.09435e-13
5.38361e-15
1.46341e-16
1.58831e-17
9.47035e-19
4.2274e-20
1.57475e-21
4.24754e-07
3.66443e-10
4.61041e-14
4.2282e-16
2.37692e-17
1.16416e-18
4.50093e-20
0.000237368
1.19772e-05
5.11361e-08
1.24115e-12
9.76001e-16
2.39904e-17
1.02224e-18
0.00422929
0.000568316
3.79466e-05
3.49045e-07
4.65815e-12
1.01932e-15
1.73314e-17
0.00503947
0.000767629
5.00863e-05
3.75308e-07
1.64025e-12
3.09442e-16
0.00164904
0.000741277
3.79965e-05
7.20516e-08
6.83016e-14
0.00376571
0.000297959
2.79882e-08
3.42681e-14
2.04438e-18
2.30874e-19
1.95623e-20
1.37002e-21
7.72146e-23
3.55034e-24
1.42563e-25
6.73295e-17
7.84733e-18
6.9339e-19
4.97475e-20
2.82611e-21
1.2802e-22
5.01633e-24
3.42366e-15
1.58876e-16
2.08842e-17
1.62916e-18
9.59464e-20
4.25931e-21
1.62582e-22
1.7144e-10
1.15362e-13
9.84625e-16
5.00382e-17
3.13519e-18
1.25383e-19
4.60389e-21
5.42509e-06
8.78356e-08
1.9323e-11
4.18442e-15
5.94913e-17
3.52351e-18
1.10243e-19
0.000215159
2.39411e-05
8.44168e-07
3.35436e-10
4.76278e-15
5.25723e-17
2.22977e-18
0.000277189
4.47821e-05
1.48239e-06
4.09324e-10
3.1538e-15
2.76071e-17
0.000337196
0.000207071
9.4936e-07
3.3922e-11
6.46415e-16
0.000221517
0.000132844
9.88873e-13
1.15808e-15
1.74162e-19
1.92492e-20
1.69961e-21
1.2333e-22
7.18223e-24
3.42819e-25
1.43433e-26
5.94223e-18
6.33206e-19
5.73887e-20
4.29669e-21
2.51386e-22
1.18531e-23
4.86298e-25
1.78559e-16
1.72992e-17
1.71679e-18
1.3942e-19
8.16271e-21
3.79115e-22
1.52083e-23
1.81137e-14
4.55209e-16
4.64254e-17
4.41784e-18
2.4268e-19
1.0706e-20
4.18278e-22
2.22733e-09
1.92845e-12
3.12379e-15
7.75658e-17
7.33137e-18
2.66168e-19
9.77672e-21
0.000109686
9.74123e-06
1.65497e-10
8.18186e-15
1.05632e-16
5.98167e-18
1.8743e-19
0.000252241
0.00010151
1.66592e-05
9.17513e-10
8.7984e-15
6.27955e-17
2.83189e-18
0.000403833
2.55356e-05
1.38248e-05
2.72689e-10
2.53191e-15
2.73826e-17
0.000369202
0.000155859
4.74279e-06
3.35958e-15
1.57719e-16
1.55913e-20
1.72681e-21
1.55975e-22
1.13662e-23
6.66496e-25
3.22819e-26
1.37862e-27
5.22975e-19
5.76292e-20
5.30334e-21
3.91736e-22
2.29004e-23
1.09433e-24
4.59275e-26
1.81082e-17
1.74825e-18
1.65773e-19
1.25602e-20
7.31946e-22
3.44291e-23
1.41517e-24
3.27666e-16
4.33548e-17
4.61846e-18
3.61876e-19
2.08336e-20
9.61073e-22
3.8614e-23
2.24709e-14
1.14867e-15
9.83202e-17
1.00092e-17
5.22888e-19
2.30891e-20
9.06381e-22
2.74136e-09
2.14176e-12
4.29952e-15
1.45259e-16
1.1987e-17
4.62168e-19
1.75748e-20
7.52382e-06
8.04387e-06
5.48644e-11
6.60118e-15
1.23761e-16
7.4768e-18
2.69076e-19
0.000160737
2.17711e-05
1.01582e-05
7.651e-11
4.23833e-15
6.97421e-17
3.15968e-18
2.27846e-05
5.03751e-06
9.55494e-15
3.17673e-16
3.44843e-17
1.25353e-21
1.39445e-22
1.24898e-23
8.97675e-25
5.23323e-26
2.54166e-27
1.0947e-28
4.22913e-20
4.72074e-21
4.26544e-22
3.07004e-23
1.77566e-24
8.50706e-26
3.60626e-27
1.37773e-18
1.49523e-19
1.36425e-20
9.82168e-22
5.61537e-23
2.64567e-24
1.10089e-25
4.49315e-17
4.21197e-18
3.90589e-19
2.82568e-20
1.59058e-21
7.33789e-23
2.98836e-24
5.83825e-16
9.66197e-17
9.68178e-18
7.12545e-19
3.93566e-20
1.7721e-21
7.05079e-23
4.09953e-14
2.20797e-15
1.96225e-16
1.52664e-17
8.18819e-19
3.59375e-20
1.40138e-21
8.69147e-09
3.80417e-12
7.01728e-15
2.4398e-16
1.34071e-17
5.81863e-19
2.25636e-20
2.92289e-05
5.87864e-06
3.22562e-08
6.81487e-15
1.41396e-16
7.0324e-18
2.8595e-19
6.75053e-07
1.63221e-07
4.44443e-09
3.94203e-16
6.67942e-17
2.95144e-18
7.94105e-23
8.80225e-24
7.79985e-25
5.55619e-26
3.23273e-27
1.57591e-28
6.84228e-30
2.66022e-21
2.9481e-22
2.62221e-23
1.86596e-24
1.07761e-25
5.19249e-27
2.22343e-28
8.36266e-20
9.21772e-21
8.22963e-22
5.84021e-23
3.34049e-24
1.58854e-25
6.69954e-27
2.42692e-18
2.58274e-19
2.31835e-20
1.63949e-21
9.25645e-23
4.33282e-24
1.79731e-25
6.47601e-17
6.24581e-18
5.6836e-19
4.03522e-20
2.24571e-21
1.03216e-22
4.20717e-24
5.30036e-16
1.1492e-16
1.12763e-17
8.32401e-19
4.61412e-20
2.0865e-21
8.36994e-23
2.82254e-14
2.30977e-15
1.58989e-16
1.31539e-17
7.59908e-19
3.4405e-20
1.36983e-21
1.69229e-09
1.01621e-12
3.88118e-15
1.42079e-16
9.33193e-18
4.4402e-19
1.79026e-20
8.08883e-07
6.05079e-10
1.13919e-14
8.70904e-17
4.47967e-18
1.85406e-19
3.93806e-24
4.36419e-25
3.85057e-26
2.73708e-27
1.59667e-28
7.83592e-30
3.43502e-31
1.29172e-22
1.43011e-23
1.26525e-24
8.98891e-26
5.21431e-27
2.53495e-28
1.09838e-29
3.93642e-21
4.34655e-22
3.85906e-23
2.74058e-24
1.5804e-25
7.60942e-27
3.25736e-28
1.06673e-19
1.17243e-20
1.04807e-21
7.44758e-23
4.26781e-24
2.0346e-25
8.60433e-27
2.52753e-18
2.72675e-19
2.47266e-20
1.76618e-21
1.00625e-22
4.75066e-24
1.98638e-25
4.98362e-17
5.15076e-18
4.8348e-19
3.53558e-20
2.01509e-21
9.44271e-23
3.91268e-24
4.96969e-16
7.08528e-17
7.15812e-18
5.64368e-19
3.29596e-20
1.54757e-21
6.39187e-23
1.80886e-14
7.05714e-16
7.53467e-17
6.76321e-18
4.21653e-19
2.02354e-20
8.41863e-22
7.30437e-15
2.47487e-15
6.35792e-17
4.2111e-18
2.07583e-19
8.75917e-21
1.59227e-25
1.76969e-26
1.56204e-27
1.11274e-28
6.52767e-30
3.23047e-31
1.43137e-32
5.0883e-24
5.65907e-25
5.01103e-26
3.57131e-27
2.08694e-28
1.02533e-29
4.4999e-31
1.50414e-22
1.67241e-23
1.48766e-24
1.06205e-25
6.18649e-27
3.01851e-28
1.31221e-29
3.9136e-21
4.35757e-22
3.90963e-23
2.80369e-24
1.63052e-25
7.90837e-27
3.40755e-28
8.67959e-20
9.72909e-21
8.87918e-22
6.43144e-23
3.74499e-24
1.80921e-25
7.73939e-27
1.56463e-18
1.78404e-19
1.68255e-20
1.24609e-21
7.30786e-23
3.52922e-24
1.50349e-25
2.20129e-17
2.5355e-18
2.52124e-19
1.96176e-20
1.17451e-21
5.7093e-23
2.4343e-24
2.08562e-16
2.92923e-17
2.89079e-18
2.41502e-19
1.50553e-20
7.44535e-22
3.19835e-23
2.26544e-16
2.74221e-17
2.37074e-18
1.51768e-19
7.65063e-21
3.32403e-22
5.61097e-27
6.26271e-28
5.54425e-29
3.96756e-30
2.34464e-31
1.1715e-32
5.24972e-34
1.74743e-25
1.95554e-26
1.73801e-27
1.24546e-28
7.34234e-30
3.64866e-31
1.62266e-32
5.01552e-24
5.62642e-25
5.0285e-26
3.61457e-27
2.12833e-28
1.05273e-29
4.64831e-31
1.26436e-22
1.42448e-23
1.28507e-24
9.29575e-26
5.47869e-27
2.70105e-28
1.18505e-29
2.71356e-21
3.08829e-22
2.8333e-23
2.07441e-24
1.2285e-25
6.05277e-27
2.64331e-28
4.75868e-20
5.5346e-21
5.23011e-22
3.91439e-23
2.34355e-24
1.1586e-25
5.0525e-27
6.52291e-19
7.87397e-20
7.79032e-21
6.05932e-22
3.70191e-23
1.84728e-24
8.07842e-26
7.27851e-18
8.87388e-19
9.0987e-20
7.4747e-21
4.71434e-22
2.39025e-23
1.05308e-24
7.74332e-18
8.5856e-19
7.31086e-20
4.73958e-21
2.44606e-22
1.08832e-23
0.00385429
0.0723321
0.0195192
0.00944064
0.00227053
0.0261111
0.00932863
0.00373492
0.0592135
0.0176086
0.00916624
0.00221937
0.0238468
0.00858629
0.00695995
0.0608739
0.0234426
0.016859
0.00286645
0.00828412
0.00171713
0.00301828
0.077411
0.0192862
0.00798505
0.00174883
0.0298122
0.00929194
0.0663122
0.0456456
0.0446626
0.0412651
0.0404574
0.0270506
0.0294509
0.00131447
0.0125092
0.00500872
0.000606408
0.000164319
0.0016543
0.000645671
0.00557945
0.00493422
0.00129735
0.00464487
0.000644919
0.000168346
0.000871152
0.0648466
0.0486934
0.0441501
0.0494884
0.0449702
0.0293078
0.0318613
0.0114015
0.000713462
0.00149132
0.00448607
0.00099538
0.000575544
0.000121592
0.0425322
0.0180302
0.0178033
0.0306812
0.0301875
0.0208981
0.0129203
0.046707
0.0192418
0.0328503
0.0197244
0.0335869
0.0226235
0.013922
0.0551568
0.040923
0.0374405
0.039415
0.0361614
0.0235883
0.0254452
0.000984921
0.0143297
0.00347502
0.000450114
0.000107665
0.00115807
0.000579446
0.00108933
0.000107111
0.000200295
0.000340283
0.000114558
9.93051e-05
4.49559e-06
0.00111431
0.000216491
5.24178e-05
0.000331136
0.000173266
0.000109006
3.50448e-06
0.000240686
0.000157368
0.00132778
2.33262e-05
1.95806e-06
0.000216765
6.89523e-05
0.040736
0.0170401
0.028424
0.0166685
0.0276198
0.0185231
0.0116396
0.0701056
0.0505017
0.0461419
0.0499129
0.0456391
0.0286768
0.0310457
0.000149687
0.000857225
0.000313546
2.12983e-05
2.00818e-06
0.000247946
7.94631e-05
0.000279631
0.0117134
0.00208334
0.00130685
0.000185773
0.00609116
0.00129296
0.0301435
0.0178285
0.0276555
0.0174345
0.01148
0.0108473
0.0187056
0.0314331
0.0181822
0.0288712
0.018423
0.0118631
0.0112049
0.0197668
0.0518187
0.0208356
0.0349457
0.0208609
0.0347357
0.0223818
0.0139281
0.0115469
0.00902637
0.00892571
0.00439457
0.00434258
0.00672097
0.00331513
0.000235548
0.0103578
0.0016116
0.00125257
0.000156466
0.00812237
0.0010082
0.0286823
0.0164581
0.0263978
0.0169975
0.0108286
0.0102519
0.0182138
0.00593828
0.00955498
0.00977487
0.00459419
0.00466721
0.00717405
0.00348976
0.000221733
0.0114242
0.00204703
0.000994336
0.000144398
0.00887369
0.00126246
0.0320404
0.0183288
0.0295146
0.0184749
0.0117214
0.0110737
0.0198101
0.014216
0.0131425
0.0213155
0.0139234
0.0059893
0.00892056
0.00899675
0.0132141
0.012698
0.020466
0.0136072
0.0057053
0.00846335
0.00881516
0.026664
0.015783
0.0246652
0.0149877
0.009785
0.00928336
0.0159864
0.0130898
0.0240992
0.022377
0.0140943
0.00841473
0.00799736
0.0150155
0.000530985
0.00761387
0.00602322
0.00143787
0.000124211
0.000896645
7.71109e-05
0.0146515
0.0140883
0.0228448
0.0147477
0.00608406
0.00910018
0.00949369
0.01449
0.0136778
0.0222438
0.0146887
0.00615841
0.0092016
0.0094511
0.00541583
0.00857743
0.00840958
0.00413252
0.00403619
0.00608841
0.00297736
0.0120707
0.0127106
0.0192898
0.0121017
0.00520559
0.00769467
0.00790697
0.0317012
0.0180071
0.0292672
0.0174829
0.0109939
0.0103923
0.0187147
9.88808e-05
0.00840788
0.00144865
0.000445625
5.59223e-05
0.00438717
0.000871072
0.0296632
0.0153074
0.0274258
0.0166381
0.0095534
0.00904879
0.0177976
0.000711632
0.000352559
8.3454e-05
0.000299479
0.000117302
8.37253e-06
0.000184848
0.0106153
0.0111331
0.0176406
0.0114049
0.00449218
0.00664172
0.00746512
0.0144116
0.0141272
0.0227802
0.0140059
0.00569691
0.00854145
0.0090328
0.00659775
0.0103364
0.0103819
0.0048413
0.0048398
0.00716256
0.00340875
0.000110032
0.00338653
0.000765292
9.44316e-05
1.11206e-05
0.000440357
9.69008e-05
0.00288434
0.00123158
0.00121195
0.002237
0.00220655
0.00167221
0.000891889
9.21241e-05
0.00155991
0.000591778
9.34571e-05
8.78707e-06
0.000396842
7.07306e-05
7.99608e-05
0.000434616
0.000350437
9.46402e-05
7.16947e-06
0.000301186
0.000186202
0.00299093
0.00123586
0.00229721
0.00122258
0.00230748
0.00172632
0.000897172
0.00682384
0.00246919
0.0033634
0.00333743
0.00485324
0.00243287
0.00169934
0.00661495
0.00232616
0.00325947
0.00318727
0.00476261
0.00238763
0.00162352
0.00070474
0.00175911
0.0011798
0.00105297
0.000680166
0.000637725
0.000394993
0.000848481
0.00079512
0.000755041
0.000467559
0.000493702
0.000432794
0.000260236
8.30013e-05
0.00162739
0.000738274
6.08846e-05
6.87637e-06
0.00039141
8.89074e-05
0.00725043
0.00247818
0.00350699
0.00335733
0.00507529
0.00250799
0.00168423
0.000398682
0.000261141
0.000129142
0.000309971
5.82977e-05
9.96258e-05
4.329e-06
0.0112164
0.00681214
0.00691439
0.00372875
0.00651573
0.00661283
0.0118737
0.0105845
0.00666317
0.00646153
0.0036146
0.00637635
0.00618916
0.0111924
0.0123287
0.0134444
0.0214905
0.01335
0.00494688
0.00744318
0.00861808
0.00706402
0.00249794
0.00345542
0.00341492
0.00506193
0.00251328
0.00172843
0.0110632
0.0069058
0.00681175
0.00660397
0.00651482
0.00376864
0.00389762
0.00271443
0.00110025
0.00205888
0.00105191
0.00199383
0.00147223
0.000761602
0.00630549
0.00224258
0.00309258
0.00290922
0.004284
0.00213622
0.0014761
0.00168641
0.00103931
0.000665703
0.000985636
0.000622577
0.000593138
0.000361583
0.0098173
0.00618778
0.00593353
0.0058371
0.00560255
0.00328704
0.0033889
0.00583121
0.00186324
0.00284235
0.0024988
0.00404316
0.00200931
0.0012561
2.76295e-05
0.00112496
0.000268265
0.000522837
4.23106e-05
6.0261e-05
2.77678e-06
4.85876e-05
0.000533979
0.000156515
2.00272e-05
2.41149e-06
0.000199329
7.31515e-05
0.00921319
0.00320823
0.00378653
0.00384717
0.00548891
0.00557025
0.00616161
0.0087194
0.00311714
0.00373481
0.00363669
0.0053821
0.00523275
0.00586569
0.00867297
0.00496942
0.00542558
0.00278494
0.00521148
0.00477681
0.00913415
0.00908848
0.00384822
0.00380499
0.00556375
0.00549221
0.0032434
0.00230288
0.0107951
0.0066042
0.00631736
0.00630929
0.00603637
0.00342564
0.00353904
0.000812328
0.000467173
0.000285602
0.000430721
0.00067117
0.00110036
0.000711127
0.00242171
0.00726329
0.00495097
0.00312104
0.00480106
0.00233417
0.00154629
0.000472949
0.00078001
0.00138855
0.000885912
0.000532745
0.000471679
0.000277337
0.00548663
0.00349748
0.0050257
0.00331076
0.00475285
0.00284336
0.00202755
0.000771424
0.000446941
0.000278151
0.000425713
0.000694721
0.00105877
0.000652434
0.00230747
0.00160037
0.00313776
0.00112302
0.00228043
0.0016197
0.000791433
0.00592856
0.00366617
0.00532158
0.00349267
0.00508202
0.00294616
0.00207656
0.000704282
0.000475402
0.000284584
0.000425681
0.000674549
0.000988446
0.000664648
0.000654765
0.000366717
0.000226831
0.000563647
0.000363899
0.000939918
0.00060883
0.00719721
0.00282128
0.00241208
0.00308232
0.00442518
0.00405683
0.00487103
0.00983302
0.00543715
0.00592791
0.00292364
0.00520917
0.00567406
0.0103953
0.00124021
0.000904441
0.00169607
0.00122416
0.00043769
0.000855121
0.000637943
0.000603735
0.00163975
0.001166
0.00120031
0.000416467
0.000815948
0.000624459
0.000466353
0.000726847
0.00104483
0.000740424
0.000476139
0.00051022
0.000309435
8.49738e-05
0.000304639
0.000154518
0.000538673
0.000286017
0.000319247
0.000163278
0.00010594
0.000397254
0.000216101
0.000388645
0.000196705
0.000360038
0.000691125
0.000182491
0.000166068
0.000323205
0.000296967
0.000554535
0.00032505
0.000166955
2.84319e-05
0.00236574
0.000491442
1.62027e-05
1.33465e-06
0.000245883
4.92385e-05
0.00692585
0.00202869
0.00328105
0.00267977
0.0045699
0.00220703
0.0013036
0.000313893
0.000525915
0.000279824
0.000170795
0.000296392
0.000150674
8.33503e-05
8.54373e-06
1.72101e-05
8.79523e-05
4.5858e-05
1.32967e-06
6.82141e-07
5.21605e-09
2.99031e-06
8.94188e-05
1.73771e-05
3.68952e-05
3.73072e-07
9.88673e-07
2.58269e-09
0.00214712
0.00218843
0.00340805
0.00171766
0.000675753
0.00109369
0.00112002
0.000880476
0.00121181
0.00171812
0.00123661
0.000413125
0.000830449
0.000626586
0.00124905
0.000906944
0.0017243
0.00124864
0.000437568
0.000863345
0.000639706
0.00213995
0.00208538
0.0032737
0.00166829
0.000674351
0.00110439
0.00107616
0.000355818
0.000394666
0.000681206
0.000193532
0.000381065
0.000213596
0.000104905
0.00724528
0.0044723
0.00430323
0.0039306
0.00378737
0.0021877
0.00224804
0.00172028
0.00219562
0.00217648
0.00112818
0.00112164
0.00134223
0.000695914
0.000667889
0.000704221
0.0010122
0.000724311
0.000454658
0.000497848
0.000292748
0.000258987
0.000458598
0.000680033
0.000385608
0.000653221
0.00095381
0.000604294
0.000138815
0.000135539
0.000245769
0.000273539
0.000465511
0.0002685
0.00015252
0.000222283
0.00065156
0.000376949
0.000213926
0.00037472
0.000221012
0.000119361
0.000118839
6.09776e-05
3.40558e-05
2.95327e-06
1.64303e-06
2.10641e-08
1.31752e-06
0.000186008
0.000326505
0.0006331
0.000340754
0.000169911
0.000192498
9.3303e-05
3.2099e-05
5.40511e-06
5.09125e-05
1.74975e-05
9.9157e-08
1.40117e-07
4.20148e-10
0.00808045
0.00250611
0.00298292
0.00326657
0.0043765
0.00477167
0.00537737
0.00080478
0.0011193
0.0015394
0.00106054
0.000371228
0.000736178
0.000540709
0.00306678
0.00200553
0.00189698
0.00103354
0.000974972
0.00118338
0.000612558
6.11787e-06
0.00109017
0.000128979
6.7465e-05
3.29448e-06
0.000696865
8.51858e-05
0.00391028
0.00206795
0.00378158
0.00209055
0.00112291
0.00110596
0.00214088
6.83012e-06
0.00108604
0.000113446
8.58757e-05
3.7743e-06
0.000698401
7.46592e-05
0.00358838
0.00196715
0.00347662
0.00186727
0.00103644
0.00102186
0.00190789
5.00372e-05
2.3793e-06
6.07434e-05
7.71267e-07
1.17156e-08
2.10748e-05
1.52983e-06
4.96619e-07
0.000120028
3.56056e-05
9.68112e-08
5.67321e-10
8.52279e-06
5.26327e-07
7.99501e-06
4.69257e-07
0.000103087
3.69291e-08
2.02912e-10
3.46492e-06
1.253e-07
0.0006081
0.000198726
0.000375128
0.000199695
0.00036171
0.000212783
0.000110631
0.000385627
0.000368209
0.000625979
0.000203253
0.000350481
0.000204512
0.000112608
0.000450901
0.00013996
0.00027132
0.000118703
0.000234187
0.000136283
6.64475e-05
0.000416744
0.00012513
0.000249583
0.000112822
0.000228159
0.000132302
6.26057e-05
0.00383553
0.00203474
0.00370929
0.00207608
0.00111652
0.00109918
0.00212641
0.0040702
0.00253379
0.00365388
0.00222303
0.00321603
0.00189135
0.00133534
0.000594605
0.0003693
0.000639998
0.000906839
0.000602498
0.000419618
0.000244635
0.0016063
0.00176234
0.00271813
0.00137389
0.00050932
0.000901865
0.000816762
0.000828562
0.00166819
0.00117373
0.00112061
0.000363715
0.000749252
0.00054535
0.0004905
0.000143052
0.000289021
0.000120704
0.000249545
0.000142916
6.70052e-05
0.00372618
0.00200113
0.00360598
0.00189517
0.00103227
0.00101803
0.00193773
0.00798664
0.00481182
0.00461818
0.0040544
0.00390321
0.00220959
0.00227541
0.00326202
0.00207126
0.00196296
0.00104885
0.000986411
0.00119059
0.000603453
3.26152e-06
0.00078404
5.81535e-05
6.64435e-05
1.59008e-06
0.000505003
3.50412e-05
0.000496615
0.00030657
0.000195973
0.000200997
0.000313683
0.000191827
0.000115535
3.6851e-05
2.71937e-05
3.57358e-05
2.70952e-07
1.30058e-06
1.04965e-06
2.614e-09
0.000455628
0.00139537
0.000912581
0.000991324
0.00030594
0.000618144
0.000500474
0.000326606
0.000552927
0.000298788
0.000168185
0.000174103
0.000187896
9.35502e-05
0.000522171
0.000283797
0.000168336
0.000180595
0.000313684
0.000160017
9.04303e-05
0.00181004
0.00230643
0.00325365
0.00182982
0.00071856
0.000980813
0.00132337
0.00178306
0.00227172
0.00319473
0.00181776
0.000716461
0.000975301
0.00131656
0.00314344
0.00158034
0.00305185
0.00173553
0.000880061
0.000869413
0.00177126
0.00172594
0.00214
0.00300277
0.00164052
0.000668015
0.000908398
0.00119099
0.00139068
0.00188422
0.00264272
0.00152652
0.000568416
0.000774049
0.00110799
0.00659268
0.00263689
0.00388138
0.0022328
0.00328934
0.00188915
0.00130302
0.000186323
0.000307512
0.00017422
0.000103521
0.000173288
0.000275527
0.000458412
1.99011e-06
0.000764524
9.12402e-05
2.40624e-05
8.33428e-07
0.000476276
5.72756e-05
0.00330369
0.00160036
0.00319856
0.00175981
0.000865573
0.000853547
0.00179905
3.57605e-05
6.8926e-06
6.21315e-07
4.34828e-08
3.49861e-10
7.09258e-06
5.04973e-07
0.000421127
0.000219505
0.000130036
0.00011549
0.000239196
0.000138076
6.52419e-05
0.00164967
0.00182244
0.00292965
0.00143913
0.000487779
0.000811278
0.000906863
0.00175174
0.00219215
0.00310266
0.00165869
0.000658803
0.000902822
0.00119272
0.000358149
0.000623681
0.000890745
0.000589165
0.000327913
0.000404723
0.000216478
4.39695e-06
0.000231373
4.66021e-05
3.08547e-06
9.41435e-08
6.8071e-05
3.53788e-06
5.97323e-05
4.48213e-05
3.33473e-06
3.28887e-05
3.30903e-06
5.68565e-08
1.84185e-06
0.000852869
0.000335127
0.000268136
0.000278585
0.000542201
0.000558662
0.000428592
0.000839824
0.000338421
0.000280789
0.000273
0.000556167
0.000541533
0.000429896
0.00139604
0.00192828
0.00274719
0.00153859
0.000546088
0.000754781
0.00110233
0.00256695
0.00141069
0.00249572
0.00123179
0.000682751
0.000674616
0.00125502
0.000517285
0.000201677
0.000313662
0.00023095
0.000349608
0.0002005
0.000125466
0.000496069
0.000328111
0.000186476
0.000218846
0.000341462
0.000195361
0.000118316
0.000863301
0.00028385
0.000284396
0.000565488
0.000564114
0.000348495
0.000172957
0.000510539
0.000198932
0.000304683
0.00022803
0.000343333
0.000192528
0.000122139
0.000171377
0.00027612
0.000453729
0.000184685
0.000293334
0.000176438
0.000103645
0.00225426
0.00143348
0.00124799
0.000722554
0.000622265
0.000761599
0.000381396
0.272257
0.100329
0.0395938
0.0154655
0.00562374
0.00144239
0.00236495
0.136417
0.403441
0.258114
0.086838
0.0426611
0.14916
0.076736
0.367682
0.357027
0.320869
0.359597
0.324234
0.277259
0.311423
0.0194748
0.0724871
0.0347211
0.0073989
0.00294389
0.0179601
0.00719644
0.268611
0.119855
0.226137
0.123916
0.230669
0.191385
0.0990499
0.00200612
0.0150227
0.00570297
0.00311747
0.000825852
0.0108073
0.0034981
0.0308212
0.210411
0.0939102
0.0331562
0.0134001
0.0614048
0.0308769
0.307761
0.226898
0.273136
0.231127
0.214328
0.187749
0.26223
0.315591
0.242168
0.282205
0.236236
0.224092
0.197838
0.266947
0.167401
0.103497
0.197077
0.16121
0.0687874
0.134718
0.0824112
0.152526
0.0959228
0.187102
0.156246
0.0630683
0.12564
0.0790561
0.0383573
0.0562483
0.0586344
0.0290701
0.0302887
0.0455735
0.0230023
0.0241041
0.0131719
0.0179382
0.0134618
0.0185425
0.0137657
0.0097899
0.192427
0.178158
0.173696
0.120179
0.156757
0.152278
0.218942
0.183971
0.169712
0.166444
0.148415
0.145399
0.113865
0.129852
0.0133689
0.0108748
0.0109908
0.00955577
0.00956147
0.00784953
0.00671417
0.00693997
0.0277105
0.0070142
0.0022139
0.000909366
0.0039839
0.00221858
0.0439666
0.0173225
0.0222849
0.0284079
0.0357838
0.017742
0.0139052
0.0479313
0.0193804
0.024109
0.0310018
0.0373913
0.0184148
0.0149155
0.12968
0.0822054
0.0543152
0.0519797
0.10636
0.102508
0.0655175
0.122667
0.0502405
0.0491123
0.0994226
0.0972366
0.0772127
0.0398625
0.000568009
0.00898055
0.00274804
0.000856132
9.05583e-05
0.00233695
0.000602836
0.0121343
0.00753071
0.00856498
0.00739378
0.00848991
0.00586279
0.00502073
0.13294
0.0888892
0.116781
0.0864977
0.0707106
0.0632325
0.0978589
0.0110236
0.0100088
0.0142716
0.0106173
0.00535752
0.00825121
0.00724592
0.0102417
0.00971539
0.013482
0.0103693
0.00532493
0.00792416
0.00718982
0.127389
0.0829263
0.111662
0.0844535
0.0675972
0.0602854
0.0956679
0.0245018
0.0234825
0.0294881
0.0143139
0.0092472
0.0116745
0.0112989
0.0136532
0.0227571
0.0223064
0.0110425
0.0108841
0.018314
0.00884042
0.000517262
0.0023318
0.00107054
0.0005186
0.000115514
0.00148581
0.000930088
0.00788225
0.00481714
0.00680868
0.00404784
0.0056317
0.00471243
0.00329398
0.06198
0.0410482
0.0794239
0.0600816
0.0252957
0.045355
0.0320855
0.0576267
0.0391454
0.0757232
0.0585939
0.0241323
0.0431778
0.0313157
0.0079191
0.00458444
0.00669344
0.00394777
0.00559571
0.0046271
0.00313023
0.144168
0.0176278
0.00795444
0.39842
0.250308
0.0767452
0.254786
0.125624
0.0753655
0.0388916
0.362267
0.349039
0.350807
0.314531
0.313503
0.266285
0.30024
0.0690853
0.0348789
0.00978872
0.0341275
0.0179335
0.00722094
0.00295495
0.262932
0.11672
0.115798
0.220413
0.220781
0.182248
0.0933231
0.0150615
0.00485754
0.00281654
0.0070055
0.001581
0.00235444
0.00149728
0.299002
0.221187
0.265927
0.220962
0.204495
0.179512
0.250945
0.302119
0.223723
0.267592
0.22175
0.20744
0.181321
0.2524
0.0364424
0.0545603
0.0539707
0.0279893
0.0282708
0.0427588
0.021791
0.0945534
0.150535
0.183231
0.149165
0.0610291
0.12078
0.0754097
0.0931292
0.150081
0.182547
0.148967
0.0605216
0.120869
0.0749288
0.0231748
0.0131856
0.0131266
0.0175265
0.0176522
0.0133411
0.00976005
0.179884
0.162622
0.164096
0.110256
0.143421
0.142432
0.205514
0.0136544
0.0110704
0.0110397
0.00985118
0.00986839
0.00803057
0.00701837
0.0434353
0.0173846
0.0220784
0.0276241
0.0342143
0.0171277
0.0135964
0.0426186
0.0171011
0.0217306
0.0273593
0.0339634
0.0170396
0.0135272
0.120278
0.0487011
0.0749927
0.0486101
0.0960531
0.0958211
0.0604144
0.0113796
0.00795755
0.00894537
0.0089548
0.0125935
0.00624322
0.00543626
0.00722053
0.013448
0.0102673
0.0101887
0.0053195
0.0078211
0.007218
0.00974704
0.0101872
0.0133169
0.010171
0.00535984
0.00783198
0.00722873
0.0221627
0.0221147
0.0273359
0.0135086
0.0086877
0.010809
0.0108072
0.00699381
0.00802422
0.00573612
0.00409195
0.0057668
0.00490507
0.00336312
0.00490144
0.00576685
0.00801894
0.00414181
0.00578832
0.00493088
0.00341541
0.00617434
0.00655468
0.00600283
0.00444674
0.00428324
0.00400842
0.00281562
0.00230439
0.00353311
0.00418976
0.0053912
0.00620682
0.0042478
0.00359813
0.00286847
0.00359249
0.00424177
0.00542228
0.00622901
0.00427545
0.00362636
0.00804301
0.00487767
0.00394502
0.0039506
0.00629726
0.00619136
0.00531873
0.00382091
0.00488799
0.00577783
0.0039103
0.0020203
0.00254144
0.00323875
0.00414769
0.00517948
0.00599737
0.00402528
0.00222598
0.00273667
0.00337019
0.0616467
0.0477008
0.0466487
0.0282788
0.0431615
0.0421561
0.069074
0.00534784
0.0060922
0.00786303
0.0039699
0.00612965
0.00478109
0.00297256
0.0039786
0.00395171
0.00472239
0.00606529
0.00604412
0.00781589
0.00534709
0.0187947
0.00735453
0.00900799
0.0121545
0.0150188
0.00719902
0.00581558
0.00873647
0.0180311
0.0145301
0.0116664
0.0147062
0.00708631
0.00563556
0.0441303
0.0217753
0.0187593
0.0183422
0.0320431
0.0312898
0.0246164
0.00280243
0.0028545
0.00398573
0.00320579
0.00147727
0.00214795
0.00221916
0.00337287
0.00294442
0.00410915
0.00290791
0.00228613
0.00208395