/*--------------------------------*- C++ -*----------------------------------*\
  =========                 |
  \\      /  F ield         | OpenFOAM: The Open Source CFD Toolbox
   \\    /   O peration     | Website:  https://openfoam.org
    \\  /    A nd           | Version:  9
     \\/     M anipulation  |
\*---------------------------------------------------------------------------*/
FoamFile
{
    format      ascii;
    class       volScalarField;
    location    "0.00265";
    object      rho;
}
// * * * * * * * * * * * * * * * * * * * * * * * * * * * * * * * * * * * * * //

dimensions      [1 -3 0 0 0 0 0];

internalField   nonuniform List<scalar> 
23859
(
0.50863
0.483681
0.694693
0.66774
1.22564
1.0187
1.62774
0.577893
0.40936
0.478702
0.461541
0.572816
0.548652
0.673696
0.591366
0.42982
0.472249
0.600832
0.696653
0.497757
0.559535
0.414633
0.424635
0.4311
0.431473
0.438431
0.456043
0.447603
0.551757
0.842835
1.0216
0.729028
0.76794
0.944736
1.18242
0.795705
0.573714
0.64359
1.08273
1.24091
0.838002
0.977806
0.435728
0.441625
0.448766
0.453761
0.46146
0.475381
0.466173
0.432093
0.500576
0.450634
0.508941
0.458211
0.477614
0.531261
0.453161
0.516066
0.467865
0.528764
0.480389
0.49611
0.548234
0.441839
0.471414
0.449839
0.476627
0.489324
0.500992
0.466472
0.494998
0.45577
0.464802
0.484477
0.50568
0.518283
0.473761
0.455524
0.48264
0.464162
0.492505
0.501558
0.513945
0.481589
1.11713
1.14733
1.56143
1.17903
1.39671
1.47519
1.57824
0.636456
0.57674
0.587641
0.666933
0.68156
0.612156
0.710979
1.46808
0.922341
1.09791
1.69732
1.79934
1.2223
1.55395
0.519242
0.541575
0.48672
0.508126
0.604164
0.544253
0.565202
0.52362
0.494276
0.471093
0.499851
0.582663
0.525857
0.555442
1.21407
1.11072
1.16108
0.935117
1.19089
1.39204
1.30575
1.6638
0.479495
0.520411
0.489287
0.505016
0.527325
0.53993
0.493656
0.5051
0.536525
0.484928
0.515141
0.596071
0.538517
0.570475
0.663924
0.595756
0.610507
0.691811
0.710918
0.632914
0.73848
0.856235
0.945247
0.853076
0.784161
0.861887
0.942543
1.03665
0.543748
0.562583
0.509923
0.528022
0.626126
0.566142
0.584269
0.508178
0.534665
0.525016
0.58554
0.537401
0.547487
0.496122
0.755366
0.716854
0.794587
0.865115
0.773952
0.812177
0.913439
0.697116
0.629213
0.60193
0.668202
0.638323
0.741338
0.775551
0.625547
0.78022
0.728807
0.696124
0.651239
0.758569
0.812287
0.618599
0.748935
0.719765
0.685727
0.657608
0.767367
0.799472
0.533493
0.635193
0.614097
0.622881
0.564355
0.575071
0.591721
0.525482
0.554012
0.539542
0.604656
0.566977
0.552422
0.512825
0.751075
0.88315
0.78712
0.913921
0.81169
0.848052
0.959345
0.649931
0.815344
0.760368
0.722942
0.674652
0.789525
0.847961
0.929663
0.941979
0.868186
0.955652
1.0492
1.01645
1.12603
1.93944
1.76484
1.28399
1.9093
1.72503
1.75629
2.12391
0.550717
0.634678
0.657181
0.639878
0.595685
0.579857
0.60949
1.02942
1.0031
0.93123
1.21995
1.09962
1.01856
1.12979
1.28188
1.04138
1.148
1.03089
0.937421
1.04091
1.14742
1.05506
0.958427
1.07894
1.19084
1.31508
1.05347
1.16165
0.892677
0.835494
0.794665
0.851126
1.01578
0.893075
0.96329
1.00958
0.980071
1.01778
1.08234
1.12896
1.07429
1.19944
0.728751
0.713495
0.680032
0.791219
0.891669
0.829153
0.848722
1.11562
1.22778
1.02281
1.27154
1.15187
1.24786
1.38948
0.899966
0.940479
0.83468
0.872853
1.07103
0.939236
0.989154
0.861778
0.929668
0.824097
0.885278
1.05569
0.924617
1.00654
0.755709
0.734895
0.702575
0.821549
0.927357
0.884506
0.857967
0.946603
0.994881
0.876307
0.913507
1.13127
0.986324
1.0414
1.10693
1.32984
1.1962
1.40348
1.25467
1.34225
1.51111
1.05748
1.09782
0.992378
1.14423
1.07888
1.20371
1.28396
1.34889
1.25082
1.12378
1.39347
1.49637
1.34812
1.25009
1.23957
1.29559
1.14937
1.42667
1.52702
1.36218
1.26478
1.167
1.1809
1.07438
1.19227
1.29636
1.31062
1.42345
1.47484
1.44223
1.62776
1.32323
1.46097
1.16826
1.28979
0.912876
1.12341
1.03225
1.09391
0.957832
0.982341
1.03951
1.04835
1.28453
1.1639
1.20876
1.10902
1.23901
1.35905
1.03801
1.22852
1.15493
1.19328
1.13248
1.27031
1.34385
1.11817
1.38409
1.25358
1.28412
1.17488
1.32202
1.45307
0.952738
1.07871
1.1832
1.14197
1.02956
0.995884
1.09005
1.31587
1.21418
1.34877
1.34504
1.63137
1.44359
1.51025
1.225
1.225
1.225
1.225
1.225
1.225
1.225
1.22501
1.225
1.225
1.225
1.225
1.225
1.225
1.22733
1.22501
1.225
1.225
1.225
1.225
1.225
2.56421
1.27547
1.22509
1.225
1.225
1.225
1.225
1.87337
2.78286
2.43031
1.22681
1.225
1.225
1.225
0.784859
1.29011
2.20299
2.92695
1.23066
1.225
1.225
0.64277
1.06143
1.98615
2.94044
1.22738
1.225
0.605799
1.05319
2.15078
2.58349
1.22515
0.725689
1.60371
2.79152
1.22549
1.225
1.225
1.225
1.225
1.225
1.225
1.225
1.225
1.225
1.225
1.225
1.225
1.225
1.225
1.22502
1.225
1.225
1.225
1.225
1.225
1.225
1.86402
1.23163
1.22501
1.225
1.225
1.225
1.225
2.2444
2.89509
1.65366
1.2252
1.225
1.225
1.225
1.03376
1.53582
2.54134
2.61691
1.22564
1.225
1.225
0.84697
1.27448
2.26631
2.66971
1.22527
1.225
1.00055
1.26092
2.4739
1.83691
1.22502
0.952357
1.88241
1.52981
1.22501
1.225
1.225
1.225
1.225
1.225
1.225
1.225
1.225
1.225
1.225
1.225
1.225
1.225
1.225
1.225
1.225
1.225
1.225
1.225
1.225
1.225
1.23024
1.22503
1.225
1.225
1.225
1.225
1.225
2.90667
2.11547
1.22778
1.225
1.225
1.225
1.225
1.81578
2.536
2.94236
1.25702
1.225
1.225
1.225
1.54874
1.97982
2.94319
1.26406
1.225
1.225
1.60341
1.55241
2.95258
1.22986
1.225
1.70732
1.84772
1.2252
1.225
1.225
1.225
1.225
1.225
1.225
1.225
1.225
1.225
1.225
1.225
1.225
1.225
1.225
1.225
1.225
1.225
1.225
1.225
1.225
1.225
1.225
1.22501
1.225
1.225
1.225
1.225
1.225
1.225
1.28148
1.22544
1.225
1.225
1.225
1.225
1.225
2.32817
2.92694
1.24585
1.22501
1.225
1.225
1.225
1.93239
2.10565
2.59326
1.31761
1.22501
1.225
1.225
1.61801
2.31374
2.74259
1.25807
1.225
1.225
1.61531
2.07051
3.04483
1.225
1.225
1.225
1.225
1.225
1.225
1.225
1.225
1.225
1.225
1.225
1.225
1.225
1.225
1.225
1.225
1.225
1.225
1.225
1.225
1.225
1.225
1.225
1.225
1.225
1.225
1.225
1.225
1.225
1.225
1.22501
1.225
1.225
1.225
1.225
1.225
1.225
1.2778
1.22543
1.225
1.225
1.225
1.225
1.225
2.7051
2.60051
1.2321
1.22501
1.225
1.225
1.225
1.5818
2.12877
2.48757
1.23436
1.225
1.225
1.225
2.21905
2.72058
1.225
1.225
1.225
1.225
1.225
1.225
1.225
1.225
1.225
1.225
1.225
1.225
1.225
1.225
1.225
1.225
1.225
1.225
1.225
1.225
1.225
1.225
1.225
1.225
1.225
1.225
1.225
1.225
1.225
1.225
1.225
1.225
1.225
1.225
1.225
1.225
1.225
1.225
1.22501
1.225
1.225
1.225
1.225
1.225
1.225
1.37933
1.22573
1.225
1.225
1.225
1.225
1.225
2.10336
2.47946
1.82387
1.225
1.225
1.225
1.225
2.52795
2.33076
1.3386
1.225
1.225
1.225
1.225
1.225
1.225
1.225
1.225
1.225
1.225
1.225
1.225
1.225
1.225
1.225
1.225
1.225
1.225
1.225
1.225
1.225
1.225
1.225
1.225
1.225
1.225
1.225
1.225
1.225
1.225
1.225
1.225
1.225
1.225
1.225
1.225
1.225
1.225
1.225
1.225
1.225
1.225
1.225
1.225
1.225
1.22501
1.225
1.225
1.225
1.225
1.225
1.225
1.26028
1.22522
1.225
1.225
1.225
1.225
1.225
2.32838
1.24446
1.225
1.225
1.225
1.225
1.225
1.225
1.225
1.225
1.225
1.225
1.225
1.225
1.225
1.225
1.225
1.225
1.225
1.225
1.225
1.225
1.225
1.225
1.225
1.225
1.225
1.225
1.225
1.225
1.225
1.225
1.225
1.225
1.225
1.225
1.225
1.225
1.225
1.225
1.225
1.225
1.225
1.225
1.225
1.225
1.225
1.225
1.225
1.225
1.225
1.225
1.225
1.225
1.225
1.225
1.225
1.225
1.225
1.225
1.225
1.225
1.225
1.225
1.225
1.225
1.225
1.225
1.225
1.225
1.225
1.225
1.225
1.225
1.225
1.225
1.225
1.225
1.225
1.225
1.225
1.225
1.225
1.225
1.225
1.225
1.225
1.225
1.225
1.225
1.225
1.225
1.225
1.225
1.225
1.225
1.225
1.225
1.225
1.225
1.225
1.225
1.225
1.225
1.225
1.225
1.225
1.225
1.225
1.225
1.225
1.225
1.225
1.225
1.225
1.225
1.225
1.225
1.225
1.225
1.225
1.225
1.225
1.225
1.225
1.225
1.225
1.225
1.225
1.225
1.225
1.225
1.225
1.225
1.225
1.225
1.225
1.225
1.225
1.225
1.225
1.225
1.225
1.225
1.225
1.225
1.225
1.225
1.225
1.225
1.225
1.225
1.225
1.225
1.225
1.225
1.225
1.225
1.225
1.225
1.225
1.225
1.225
1.225
1.225
1.225
1.225
1.225
1.225
1.225
1.225
1.225
1.225
1.225
1.225
1.225
1.225
1.225
1.225
1.225
1.225
1.225
1.225
1.225
1.225
1.225
1.225
1.225
1.225
1.225
1.225
1.225
0.916046
0.493215
0.608076
0.748158
1.02126
0.585904
0.70587
0.891289
0.49664
0.623432
0.702718
0.99199
0.576949
0.723436
0.843154
0.518442
0.620094
0.638923
1.0327
0.741857
1.14465
1.12708
0.545326
0.665404
0.913965
1.25417
0.646319
0.775086
0.485059
0.51489
0.518483
0.526975
0.530636
0.568718
0.556709
1.12278
0.672553
0.797928
1.30806
1.61158
1.02833
1.22079
0.76554
0.794017
1.08891
0.817497
1.21278
1.56205
1.15584
0.505154
0.520857
0.533363
0.528547
0.541325
0.577821
0.565075
0.716204
1.32218
1.10983
0.838431
1.25313
1.28605
1.76319
0.521164
0.609936
0.614559
0.553378
0.557269
0.596495
0.653761
0.529409
0.617051
0.559439
0.626527
0.567857
0.605812
0.664589
0.531432
0.547928
0.561101
0.56526
0.578756
0.619694
0.606098
1.37553
0.746919
0.961011
1.58947
1.92712
1.2325
1.35887
1.30629
1.84558
1.66488
1.69747
1.99
1.88693
2.85515
1.3578
1.83139
2.07681
1.78229
1.90149
2.04064
2.9041
1.6057
1.67313
1.1226
2.20553
2.55679
1.5237
1.79337
0.558389
0.651763
0.589764
0.672901
0.608861
0.65056
0.71427
0.557749
0.572369
0.585592
0.595727
0.609091
0.650896
0.637263
2.05674
1.48648
1.75656
2.64624
2.94816
1.71784
2.01723
1.70088
0.67537
1.03772
1.16963
1.82625
0.772917
1.14252
0.553942
0.617517
0.565886
0.619134
0.675017
0.686451
0.607451
0.557976
0.619998
0.57034
0.626879
0.681056
0.692784
0.614607
0.585184
0.678794
0.615632
0.705773
0.64062
0.684206
0.751049
0.660681
0.697305
0.703089
0.808316
0.815722
0.744375
0.862618
1.79855
0.706954
1.18388
1.1588
1.92917
0.74819
1.29625
0.5629
0.635577
0.575153
0.624985
0.690124
0.701741
0.613168
0.782019
0.706585
0.718498
0.821022
0.836706
0.757887
0.880499
1.92151
0.737347
1.09603
1.41499
2.06766
0.781864
1.20677
0.576079
0.655729
0.589152
0.638653
0.711399
0.723779
0.625999
0.645632
0.650362
0.593481
0.647306
0.772029
0.714642
0.704461
0.66448
0.661403
0.603211
0.653416
0.789109
0.730435
0.711201
0.586997
0.651513
0.600214
0.673397
0.731136
0.743403
0.66038
0.739341
0.631044
0.644865
0.702124
0.806048
0.819095
0.688795
1.74519
0.86101
0.910205
1.25847
2.29496
1.37511
2.47719
0.686263
0.678129
0.617947
0.668079
0.816018
0.754183
0.728057
0.64828
0.655651
0.597912
0.655577
0.780108
0.721546
0.714151
0.83832
0.748894
0.774079
0.874323
0.90578
0.815091
0.948724
0.691143
0.681198
0.629693
0.704286
0.836019
0.773733
0.767227
0.611445
0.678609
0.624852
0.708387
0.771519
0.784648
0.694855
2.59229
0.953591
1.3891
2.06204
2.72299
1.09246
1.5225
0.670964
0.799414
0.684972
0.747305
0.874593
0.888802
0.733286
1.26352
1.37764
1.76222
1.48325
1.76979
2.70019
1.6807
0.773803
0.74383
0.677456
0.73465
0.921563
0.852689
0.800482
0.710668
0.72059
0.656424
0.742314
0.886231
0.818261
0.809953
0.878573
0.781184
0.812216
0.916385
0.95432
0.858343
1.00244
1.94414
0.865232
1.24359
1.76566
2.53148
1.30749
1.72341
0.880378
1.06265
1.07356
0.931845
0.940997
0.996526
1.13942
2.05333
1.03541
1.40552
1.74369
2.67345
1.36617
1.91454
1.81792
1.42135
1.38757
2.02201
2.80794
1.66697
1.67111
0.902275
1.08382
0.948578
1.10875
0.968761
1.01993
1.16899
0.740387
0.916497
0.857813
0.863909
0.795854
0.918472
0.989333
0.753439
0.943997
0.873783
0.882923
0.803537
0.927507
1.01097
1.44301
1.16936
1.2912
1.32475
1.46333
1.47534
1.62935
1.22008
1.26107
1.21946
1.3257
1.36919
1.36889
1.48392
2.21176
1.08795
1.31445
2.09599
2.82114
1.44019
1.8149
0.773998
0.980375
0.900653
0.914631
0.823873
0.953002
1.04894
1.48836
1.81774
1.95192
1.4623
1.98491
1.88509
2.96147
0.704847
0.801
0.780712
0.927584
0.812856
0.792288
0.692812
0.69123
0.767819
0.777511
0.902404
0.779027
0.788762
0.679775
0.837742
0.790193
0.72017
0.783369
1.00497
0.927172
0.854977
0.747093
0.921512
0.866744
0.873731
0.807726
0.933559
1.00142
0.68689
0.769096
0.765079
0.780465
0.776319
0.895776
0.884577
0.971714
1.16157
1.01422
1.20814
1.05318
1.10198
1.26553
0.78834
0.968521
0.916564
0.935155
0.867119
1.0018
1.07016
1.22878
1.35845
1.49912
1.41149
1.55651
1.55304
1.71013
0.718853
0.795179
0.806601
0.821981
0.833675
0.948732
0.937348
0.848931
1.09892
0.988752
1.03002
0.904599
1.04478
1.17591
2.5578
1.2506
1.62999
1.4881
2.62199
2.01586
2.92103
2.18501
1.52475
1.76242
2.89657
2.9987
2.00715
2.23245
0.734279
0.957346
0.905196
0.881997
0.842812
0.821438
0.794219
0.719552
0.930981
0.86578
0.876414
0.807244
0.817189
0.777281
0.776292
0.90745
0.858948
1.04476
0.870978
0.919871
0.763638
0.715236
0.868314
0.863127
0.809052
0.804581
0.92448
0.985587
0.750084
0.830673
0.842862
0.870422
0.882975
1.0065
0.994375
1.44569
1.62874
1.73816
1.53223
1.44214
1.29373
1.38717
1.01642
0.823495
0.877737
0.993734
0.917379
1.06236
1.13891
1.70619
1.57748
1.35968
1.50675
1.64139
1.74127
1.88316
0.808358
0.895969
0.835479
0.925636
0.863286
0.978072
1.0416
1.44153
1.61769
1.72469
1.51761
1.37785
1.28687
1.42913
1.06972
1.17992
1.02548
1.291
1.11717
1.1703
1.35145
0.846312
0.938844
0.873972
0.984042
0.915729
1.03843
1.10749
1.23837
1.34274
1.51944
1.4367
1.27294
1.17194
1.31605
1.59626
1.7937
1.89251
1.56961
1.65119
1.40988
1.49289
0.808055
1.02071
1.07614
0.9667
0.901737
0.952234
0.873224
0.82958
0.988303
0.921848
1.14018
1.00189
0.934859
0.815949
1.05887
1.13282
0.990856
1.06097
1.30415
1.13906
1.21504
1.25137
1.01019
1.09155
1.07171
1.33333
1.16415
1.22776
1.36872
1.21428
1.1265
1.20127
1.35328
1.29198
1.46024
1.7566
1.48831
1.61014
1.3301
1.44401
1.45951
1.57995
1.85373
1.56036
1.75032
1.57824
1.68
1.50346
1.40124
1.59857
1.56642
1.44681
1.41721
1.30482
1.44606
1.56583
2.81869
1.22129
1.65119
2.83311
2.84547
1.80115
2.26015
0.902448
1.19374
1.05383
1.12607
0.968118
1.12026
1.28576
1.46184
1.33297
1.44642
1.63126
1.49235
1.61332
1.75936
2.38539
2.18799
1.73367
2.00397
2.81771
2.55066
1.41088
2.56772
1.81999
2.20273
2.13747
2.44354
2.8021
1.32304
1.00453
0.978508
0.889929
1.02043
1.25936
1.13966
1.11013
1.20026
1.13729
1.04538
1.10416
1.38862
1.2101
1.2683
1.06526
1.14733
1.00242
1.08026
1.32263
1.15402
1.23925
0.959216
0.970923
0.869684
0.995817
1.22019
1.0871
1.10016
1.5053
1.56143
1.40304
1.68338
1.58142
1.75272
1.85633
0.874484
0.96983
0.982693
1.04953
1.06293
1.20208
1.18898
0.991187
0.962823
0.956566
1.09196
1.08441
1.08262
1.214
1.30505
1.25763
1.16066
1.22772
1.38596
1.3285
1.50485
1.60544
1.41399
1.29721
1.52644
1.34635
1.23437
1.39308
1.59836
1.61396
1.46111
1.41966
1.2935
1.43324
1.56801
1.80988
1.465
1.63726
1.80191
1.63698
1.81046
1.99966
1.97049
2.19557
2.34172
2.97075
2.94437
1.8216
2.9406
1.71445
1.56799
1.47015
1.67183
1.7684
1.82951
1.93087
2.05389
2.49305
2.01828
2.3885
1.91408
2.06133
1.2456
0.865449
1.17626
1.11773
1.04268
1.03934
0.96978
0.937942
1.21901
1.12088
1.06284
1.16016
1.41147
1.23231
1.33199
0.904392
0.992472
1.02499
1.12421
1.16026
1.14268
1.27878
2.95221
1.27413
2.00037
2.38049
2.9499
1.38852
2.14661
0.894927
1.07299
0.906258
1.05265
1.24091
1.25306
1.04122
2.94128
1.23305
2.06991
2.12954
2.95813
1.34377
2.2244
0.908723
1.06455
0.919911
1.09339
1.25922
1.27134
1.08192
2.34228
2.99797
2.18787
2.90155
1.6014
2.43914
2.94723
2.68835
1.81968
2.14876
1.95538
1.25201
2.46618
2.51921
2.47486
2.48253
1.76227
1.58193
1.23598
2.49036
2.0153
1.50511
1.87743
1.66174
1.84195
1.65738
1.83311
2.04669
1.65857
1.65835
1.50438
1.84585
1.6996
1.87476
2.04615
1.42202
1.7347
1.53978
1.73284
1.53873
1.6627
1.87271
1.35053
1.64838
1.46426
1.70129
1.51025
1.63279
1.84332
0.883547
1.04903
0.894664
1.04515
1.2218
1.23381
1.0338
0.983562
1.08986
1.01704
1.17714
1.09945
1.23706
1.31341
1.41289
1.55203
1.31751
1.25441
1.37195
1.4393
1.6309
1.12886
1.0699
0.97647
1.11646
1.39718
1.20963
1.27384
1.29104
1.12006
1.18021
1.23398
1.50515
1.3128
1.42159
1.62341
1.85599
1.7593
1.96123
1.86108
2.01182
2.12533
0.949029
1.10782
0.960832
1.15763
1.32453
1.33723
1.14549
0.968286
1.07502
1.08924
1.18858
1.20322
1.35381
1.33943
0.948764
1.04196
1.09215
1.18161
1.23736
1.21687
1.36213
2.93807
1.4386
2.58809
2.31781
2.85256
1.55659
2.72485
1.41987
1.54565
1.75458
1.73407
1.52785
1.65386
1.88447
2.50386
2.54065
2.66516
2.48923
3.01287
2.92796
1.32376
1.45985
1.14998
1.27201
1.21013
1.54232
1.35033
1.38963
1.76049
1.62071
1.84099
2.0286
1.97324
1.94012
2.1906
1.62059
1.83455
1.96346
1.94345
1.7884
2.03226
2.19046
1.10322
0.997633
0.93539
1.08241
1.35352
1.28432
1.14743
1.07843
0.983851
0.923182
1.07463
1.33232
1.26459
1.13882
0.97833
1.19604
0.990001
1.13701
1.36167
1.37447
1.12527
1.09408
1.01076
0.94876
1.12322
1.37076
1.30226
1.18903
1.22711
1.0858
1.02014
1.16731
1.47639
1.406
1.23458
1.00906
1.21326
1.12921
1.33468
1.24524
1.39495
1.48437
1.79324
1.67631
1.7231
1.9689
1.85008
1.62515
1.4812
2.81893
1.57966
2.33708
2.85187
2.59182
1.71394
2.52196
1.05298
1.30322
1.06551
1.22242
1.47579
1.48951
1.20986
2.62997
3.04474
2.913
1.6462
1.24363
2.89487
2.79139
1.81061
2.05249
2.17606
2.29313
2.00101
2.14684
2.45562
1.23942
1.15708
1.05173
1.20389
1.53252
1.39794
1.30873
1.13864
1.05758
0.991466
1.1893
1.44108
1.36935
1.25957
1.59711
1.40542
1.3433
1.4756
1.68164
1.54445
1.76054
2.79297
1.48644
1.93101
2.93607
2.70486
1.91448
2.89808
2.00406
1.95345
2.87153
2.15116
2.91576
2.4593
2.98702
1.17671
1.42464
1.48771
1.4498
1.30356
1.26995
1.34963
1.14647
1.38012
1.41754
1.43418
1.24255
1.2573
1.3127
1.33807
1.17232
1.09929
1.2554
1.60104
1.52414
1.3285
1.10209
1.27118
1.11463
1.36387
1.53416
1.54813
1.3506
1.28417
1.55955
1.45093
1.48215
1.38008
1.56212
1.67851
1.31149
1.42235
1.61096
1.51538
1.39498
1.57939
1.7158
1.14157
1.42544
1.41472
1.24883
1.23979
1.37399
1.55597
1.30233
1.57168
1.47365
1.50445
1.40971
1.59799
1.70478
1.83572
1.61002
1.47075
1.7835
1.56775
1.70847
1.95443
1.09819
1.20392
1.29759
1.35462
1.45412
1.43246
1.58684
0.407073
0.465436
0.537522
0.633027
0.831983
1.07119
1.175
0.447414
0.343872
0.384795
0.467954
0.52757
0.383034
0.4442
0.345497
0.356308
0.358547
0.364144
0.366487
0.379265
0.376301
0.607067
0.433106
0.509055
0.765794
0.905602
0.575824
0.712798
0.355417
0.401915
0.36964
0.410307
0.378243
0.392485
0.42916
1.00903
0.613437
0.770818
1.06587
1.38708
0.751966
0.967397
0.554381
0.400673
0.458956
0.551551
0.650986
0.467239
0.544859
0.370005
0.388411
0.372875
0.393439
0.404297
0.40899
0.389705
0.385216
0.411481
0.388436
0.401086
0.418773
0.424175
0.397092
0.427187
0.438704
0.4022
0.416509
0.486177
0.44161
0.45737
0.402915
0.422321
0.385411
0.408413
0.471049
0.42613
0.449524
0.489556
0.457079
0.46688
0.519612
0.531087
0.490515
0.560352
0.535043
0.618679
0.572136
0.633377
0.585416
0.62244
0.678746
0.415273
0.432079
0.425018
0.455558
0.438705
0.431233
0.410297
0.405226
0.42033
0.417965
0.426288
0.423823
0.445925
0.438285
0.653964
0.660345
0.676153
0.704442
0.721627
0.728629
0.779907
0.7413
0.536406
0.722118
0.955358
1.13539
0.816947
0.93439
0.482367
0.582369
0.550304
0.541419
0.515628
0.590744
0.622071
0.501748
0.61817
0.573851
0.560333
0.525109
0.602771
0.646802
0.432596
0.476368
0.505974
0.498559
0.457897
0.450468
0.477433
0.422215
0.493598
0.491252
0.445482
0.442984
0.466719
0.517563
1.55361
0.815334
1.05486
1.33181
1.93949
1.04847
1.36459
0.699219
0.811998
0.754347
0.83478
0.773769
0.838135
0.906055
0.441694
0.47537
0.44949
0.470657
0.48754
0.499094
0.460991
0.693709
0.697157
0.638548
0.674899
0.811592
0.729571
0.743472
0.649245
0.664501
0.610098
0.659861
0.773713
0.698502
0.725592
0.437168
0.468755
0.444817
0.468475
0.483378
0.494906
0.458805
0.583465
0.57383
0.549406
0.63273
0.704322
0.675656
0.662679
0.615468
0.56714
0.563898
0.653579
0.649164
0.593636
0.685764
1.28759
0.98529
1.16566
1.50555
1.87994
1.1833
1.31505
0.712938
0.82899
0.762648
0.845526
0.785402
0.845385
0.917589
0.497785
0.521235
0.470307
0.493064
0.578958
0.523223
0.546388
0.491324
0.516711
0.465642
0.490909
0.574439
0.519183
0.544106
0.7492
0.899442
0.803077
0.890513
0.805938
0.868885
0.970824
0.370956
0.557208
0.788122
0.332864
0.388728
0.449844
0.382265
0.438355
0.441638
0.518745
0.334599
0.350494
0.348294
0.350599
0.352823
0.368744
0.365818
0.419687
0.516722
0.665645
0.505653
0.59526
0.706308
0.879123
0.342873
0.395984
0.393381
0.360473
0.362913
0.380649
0.418325
0.593839
0.845869
0.996119
0.748025
1.07991
1.06006
1.18318
0.369159
0.392705
0.372174
0.388026
0.403728
0.408627
0.384256
0.364823
0.385869
0.367697
0.38576
0.399372
0.403926
0.382096
0.474556
0.450599
0.447106
0.507781
0.512342
0.477491
0.54475
0.422223
0.407577
0.384507
0.402464
0.471883
0.42582
0.444508
0.416985
0.40006
0.379464
0.399918
0.466168
0.420836
0.44179
0.518142
0.608456
0.60259
0.558055
0.563449
0.603334
0.656065
0.405072
0.420137
0.417901
0.44611
0.423809
0.426239
0.400406
0.633096
0.649162
0.643081
0.685918
0.692217
0.703282
0.751836
0.482837
0.593115
0.551763
0.542861
0.509617
0.583796
0.624638
0.47561
0.578148
0.5421
0.534861
0.505829
0.578619
0.613578
0.422057
0.494807
0.467095
0.491674
0.443001
0.445569
0.467745
0.725393
0.795646
0.733662
0.740381
0.676018
0.806191
0.868384
0.728019
0.611857
0.662948
0.651239
0.776725
0.701845
0.714366
0.652494
0.643956
0.600079
0.644647
0.760478
0.687805
0.706845
0.568867
0.564463
0.537071
0.616765
0.68795
0.650038
0.656168
0.762683
0.713504
0.786865
0.847742
0.771782
0.829374
0.918781
0.82049
0.763286
0.69959
0.829571
0.763627
0.82064
0.898779
0.881178
0.893415
0.908684
0.968195
1.00114
0.987501
1.08952
1.08563
0.987782
0.911456
0.881849
0.818029
0.893035
0.966427
0.973824
0.955944
0.883554
0.863984
0.802197
0.883497
0.955625
0.711958
0.80439
0.857798
0.837773
0.76661
0.7502
0.790073
0.975486
0.937848
0.864827
0.939274
1.16357
1.05942
1.02206
0.893272
0.883134
0.818631
0.912
1.08672
0.995996
0.989498
0.495699
0.516207
0.514213
0.566429
0.528335
0.526219
0.484272
0.763552
0.733084
0.690136
0.823768
0.738697
0.780525
0.876552
0.817971
0.826828
0.783109
0.734186
0.741869
0.691893
0.765107
0.598648
0.73466
0.692734
0.663404
0.62613
0.725129
0.769665
0.684083
0.592452
0.624102
0.657401
0.62309
0.720833
0.761273
0.519841
0.593917
0.611195
0.608851
0.554348
0.552417
0.575132
0.949277
0.925267
0.864863
0.940237
1.11971
1.04467
1.01562
0.903425
0.900122
0.833409
0.908489
0.995509
0.97448
1.0779
0.985933
0.976916
0.901022
0.997332
0.911123
0.834566
0.904077
1.16346
0.959959
1.05706
1.19294
1.08125
1.19409
1.31799
0.972836
1.13761
1.05474
1.17738
1.09185
1.18732
1.2788
1.02644
1.30353
1.13577
1.28685
1.12091
1.24041
1.42502
0.873507
0.826714
0.778248
0.825227
0.99433
0.875071
0.932854
1.07744
1.06696
0.979443
1.19853
1.08987
1.19177
1.32319
1.32372
1.19311
1.07773
1.0907
1.19822
0.979536
1.06641
1.02269
1.24328
1.27177
1.22816
1.14957
1.11414
1.11883
0.699098
0.696003
0.658343
0.762691
0.859214
0.811046
0.806808
0.843401
0.887529
0.78954
0.83095
1.00847
0.886244
0.940004
1.07311
1.04578
0.970723
1.11929
1.04425
1.16425
1.25539
0.987548
1.19655
1.09379
1.13684
1.05289
1.17483
1.2768
1.41453
1.36081
1.23183
1.36246
1.71481
1.56233
1.50314
1.23885
1.5119
1.41639
1.34898
1.63601
1.54005
1.44511
1.24236
1.15181
1.26699
1.29937
1.53095
1.43026
1.39631
0.877077
0.992804
1.06776
1.0608
0.935685
0.930131
0.997009
1.45688
1.30029
1.18549
1.29912
1.59301
1.41069
1.45607
1.33883
1.34752
1.21138
1.31231
1.62554
1.43688
1.47264
1.20806
1.19926
1.12285
1.25995
1.45549
1.36234
1.35115
1.47583
1.83714
1.7772
1.72039
1.67986
1.62079
1.5742
1.41655
1.64904
1.7489
1.73216
1.53941
1.52573
1.60059
1.90637
1.66632
1.99764
2.11302
1.83032
1.73741
1.57757
2.95847
1.44972
2.37257
2.84629
2.26799
1.93685
2.89299
1.86208
2.38163
2.9308
2.03671
2.97867
1.98905
2.96316
1.69294
1.49068
1.36579
1.58048
1.44407
1.63832
1.79318
1.38249
1.42407
1.23146
1.30042
1.68146
1.47363
1.49764
1.08021
1.378
1.21082
1.43798
1.24004
1.37462
1.57545
1.19251
1.46454
1.28439
1.50881
1.32451
1.44369
1.63015
1.65687
1.56857
1.38541
1.60322
1.51489
1.7175
1.81632
2.93163
1.49875
2.28728
2.93607
2.03632
2.00449
2.85965
1.09647
1.413
1.22994
1.46162
1.25
1.38607
1.60181
1.10933
1.39643
1.24254
1.4778
1.29304
1.43054
1.61671
2.05567
1.74147
1.94182
1.94304
2.30129
2.15604
2.05713
1.21983
1.30343
1.14767
1.39784
1.658
1.58235
1.47304
1.22059
1.40284
1.23437
1.52743
1.70917
1.72418
1.51301
1.92622
1.68652
1.59695
1.76346
2.02436
1.85675
2.14164
1.60695
1.7884
1.91004
1.77049
1.97154
1.93021
2.14171
1.76957
1.96924
2.13986
1.78547
1.92784
1.6053
1.73237
1.56103
1.94707
1.7205
1.89922
2.17459
1.94683
1.72008
1.61832
1.29683
1.31057
1.47753
1.79842
1.81393
1.4636
2.86965
1.98622
2.16505
2.73435
2.05193
2.82254
1.62147
1.28452
1.6416
1.56926
1.56758
1.37868
1.44786
1.46993
1.78441
2.1308
2.01256
1.96635
2.36215
2.2099
2.08142
1.96259
1.7795
1.88149
2.00612
2.35533
2.20532
2.12276
1.82523
1.88393
2.06151
1.80449
2.25005
2.04113
1.97259
1.96931
1.73776
1.5923
1.77358
2.22936
1.94156
2.01664
1.65801
1.42882
1.34768
1.5139
1.94716
1.85566
1.59421
1.16256
1.45605
1.30309
1.55379
1.37058
1.51584
1.6999
1.25509
1.53969
1.35047
1.60644
1.41179
1.53547
1.73041
1.38844
1.34254
1.47207
1.5084
1.64719
1.62235
1.79842
1.96832
1.66763
1.80014
1.87614
2.05358
2.03474
2.24371
1.24508
1.44873
1.4619
1.46948
1.48268
1.7258
1.71123
2.74264
1.67065
2.82026
2.92019
1.51905
2.21853
2.89989
1.44023
1.35624
1.27291
1.56809
1.85667
1.76561
1.65732
1.19013
1.5488
1.32992
1.58707
1.34094
1.48103
1.73112
1.54979
1.67556
1.47325
1.71248
1.6222
1.84845
1.95015
1.28646
1.48315
1.49652
1.53083
1.54451
1.78051
1.76559
2.22811
1.96851
1.7712
2.01521
1.79232
1.59046
1.73641
2.329
1.84444
2.66895
2.64506
1.29949
2.49722
2.94279
1.28721
1.69233
1.43794
1.72282
1.44369
1.59363
1.88209
1.50471
1.65985
1.8878
1.74889
1.58046
1.79368
1.98955
2.49159
2.62658
2.80769
2.27531
2.89795
2.99373
1.35578
1.89245
2.03307
2.09913
2.28289
2.36646
2.25046
2.5693
2.00502
2.17067
2.30541
2.07434
2.53695
2.36954
2.19727
2.20918
2.08354
1.91208
2.18269
2.55078
2.37875
2.32155
1.23617
1.45476
1.44396
1.71546
1.46799
1.45711
1.22414
1.31428
1.5081
1.56581
1.81356
1.52151
1.57959
1.3019
1.81341
2.01118
1.99429
2.20293
2.22994
2.15525
2.4425
1.68585
1.85005
2.06584
1.87117
2.22228
2.24844
2.42008
1.27587
1.56494
1.49421
1.58607
1.51506
1.76079
1.8363
1.38489
1.7165
1.79192
1.68942
1.58369
1.48879
1.58478
1.81159
2.15154
1.96909
2.01151
2.44094
2.22903
2.20264
1.89899
2.26306
2.11064
2.10526
2.57511
2.28471
2.36973
1.91597
1.91934
1.69304
1.83127
2.38717
2.08504
2.09412
1.26712
1.75053
1.57221
1.56041
1.50062
1.4895
1.33533
1.40482
1.68457
1.59787
1.9376
1.69941
1.61202
1.39168
1.43133
1.73268
1.53338
1.84499
1.63778
1.76879
1.97948
1.33324
1.63567
1.48198
1.77774
1.59132
1.74531
1.9353
2.11367
1.73982
1.82494
2.26161
1.93208
2.02726
2.38828
1.31811
1.60211
1.52949
1.65193
1.57799
1.81725
1.89652
1.96904
2.08723
1.97007
2.14269
2.27348
2.28626
2.47087
1.91594
1.98771
2.11917
2.16931
2.29795
2.36321
2.46935
1.45196
1.64306
1.65748
1.74159
1.75669
1.9957
1.97913
1.41252
2.36892
2.86063
2.18715
1.28449
2.54403
2.87576
1.49249
1.89078
1.50721
1.68537
2.09309
2.11218
1.67035
2.19063
2.31237
2.46781
2.30514
2.81601
2.6353
2.48348
2.48911
2.27105
2.14161
2.31587
2.80762
2.6828
2.47328
1.34541
1.85028
1.62578
1.68563
1.5541
1.6127
1.41472
1.60791
1.62636
1.49184
1.68926
1.98987
1.8185
1.83913
2.02543
1.87206
1.64301
1.77244
2.19823
1.9076
2.02809
1.91668
1.83
2.101
1.79264
2.25793
1.95211
2.05317
1.68769
1.64524
1.53578
1.74114
2.05884
1.91197
1.86241
1.90745
1.78479
2.04515
1.8167
2.24473
1.94052
2.08701
1.68378
1.61761
1.60503
1.81555
1.75623
1.83033
1.98352
2.59026
2.05798
2.57658
1.69029
1.24262
2.99948
2.90748
1.62952
2.09038
1.86358
1.91476
1.7096
1.95511
2.20858
2.3063
2.20709
2.33525
2.48879
2.64326
2.4944
2.82647
1.43779
1.97869
1.81546
1.72254
1.73576
1.64647
1.51142
1.9446
1.64759
1.5512
1.73014
2.29507
2.17122
1.8291
1.57829
1.57606
1.39206
1.54915
1.95671
1.76677
1.73434
1.53957
1.55125
1.37002
1.53636
1.92384
1.73766
1.72035
1.76123
2.2451
1.93326
1.86577
2.40459
2.05225
2.1525
1.4844
1.76693
1.69175
1.87245
1.79315
2.03781
2.12929
1.55472
2.06494
1.71679
2.09552
1.72003
1.88377
2.29346
2.68554
2.33396
2.85364
2.88438
1.42113
2.79596
1.23084
1.75788
1.65986
1.70843
1.8772
1.8363
1.93351
2.07897
1.55897
1.58831
1.40451
1.59484
1.97018
1.78062
1.78145
1.62413
1.66274
1.47216
1.68751
2.07602
1.87263
1.88359
2.1737
2.04275
1.78133
1.9596
2.43641
2.07834
2.27541
1.48513
1.81729
1.65018
2.00227
1.79649
1.97774
2.19981
1.58312
1.92145
1.70135
2.09198
1.85112
2.00705
2.26537
1.59404
1.79366
1.80921
1.93112
1.94786
2.21389
2.19508
1.58748
1.67432
1.69619
1.81554
1.83864
1.95381
2.10817
1.63907
1.74539
1.81981
1.98112
1.95115
2.07325
2.22875
1.66676
2.02351
1.86519
2.31336
1.88112
2.04151
1.6521
1.71891
1.68805
1.49829
1.64772
2.10646
1.90259
1.83767
1.8548
1.77276
1.66832
1.89242
2.2692
2.01067
2.11284
1.64143
1.71518
1.76792
1.86161
1.91889
2.02107
2.18696
1.96046
2.19513
2.403
2.47476
2.1965
2.40402
2.61354
2.60684
2.76319
1.29259
2.67573
1.25585
1.22508
1.24417
2.4282
1.99905
2.17647
2.52825
2.27143
2.47709
2.6281
1.70387
2.19344
2.36856
2.0094
1.92158
2.09014
1.78514
1.68319
1.67007
1.44178
1.58018
2.09876
1.82654
1.81166
1.73751
1.80014
1.52332
1.66422
2.21964
1.88262
1.94967
1.87731
1.81694
1.61595
1.77057
2.31529
2.07451
1.97521
2.37025
2.02148
1.91762
2.13533
2.69774
2.26335
2.53504
1.63151
1.93542
1.84888
2.09505
1.99395
2.26817
2.38147
1.28364
2.34336
2.95169
2.78948
1.24246
2.52674
2.84411
1.69761
2.0022
1.71212
2.00788
2.3377
2.35627
1.99181
2.47084
2.64405
2.66838
2.80824
2.96394
2.81293
3.03392
2.16765
2.59639
2.62584
2.40741
2.43769
2.70195
2.85234
2.35511
1.2621
2.74248
1.23127
1.22505
2.30712
1.25125
2.36669
2.24437
1.2471
1.22766
1.22503
1.59081
1.22935
1.99804
2.48469
2.50878
2.47427
2.29116
2.20601
2.29846
1.88957
2.34678
2.11322
2.60152
2.36474
2.13195
1.87312
1.94242
1.84272
1.62762
1.77891
2.40601
2.11256
2.00078
2.27169
2.18242
2.59173
2.05669
2.74998
2.31276
2.41248
1.85839
1.81091
1.65814
1.92875
2.37308
2.12828
2.14968
1.90968
2.12445
2.42219
2.44243
2.15067
2.39818
2.54625
2.27915
2.53465
2.4824
2.22345
2.18048
2.43135
2.63231
1.7225
2.01661
1.73721
2.05479
2.37765
2.3964
2.03837
2.36859
2.54527
2.35232
2.67472
2.4881
2.59899
2.66649
1.81989
1.88559
1.99899
2.04275
2.17088
2.27492
2.46788
2.39705
2.54608
2.42203
2.14892
2.44174
2.18747
1.90872
1.25634
2.49369
2.76565
2.8184
1.23425
2.66463
2.45698
1.25133
2.68503
2.87763
1.24969
1.22564
2.87451
2.22376
1.79724
2.46729
1.99241
2.47028
1.98658