/*--------------------------------*- C++ -*----------------------------------*\
  =========                 |
  \\      /  F ield         | OpenFOAM: The Open Source CFD Toolbox
   \\    /   O peration     | Website:  https://openfoam.org
    \\  /    A nd           | Version:  9
     \\/     M anipulation  |
\*---------------------------------------------------------------------------*/
FoamFile
{
    format      ascii;
    class       volScalarField;
    location    "0.00265";
    object      rho.air;
}
// * * * * * * * * * * * * * * * * * * * * * * * * * * * * * * * * * * * * * //

dimensions      [1 -3 0 0 0 0 0];

internalField   nonuniform List<scalar> 
23859
(
0.333362
0.338385
0.653697
0.632435
1.21876
1.00919
1.62625
0.515313
0.189249
0.393438
0.314155
0.508156
0.486926
0.638746
0.519896
0.182623
0.310965
0.525748
0.659178
0.399823
0.49241
0.215703
0.226419
0.252208
0.231244
0.256992
0.29787
0.273444
0.503683
0.828675
1.01178
0.707212
0.746297
0.933991
1.17629
0.77319
0.519824
0.605965
1.07315
1.23517
0.8221
0.967445
0.210648
0.219875
0.247332
0.223132
0.250917
0.293264
0.26681
0.287509
0.423712
0.320749
0.430382
0.325624
0.361205
0.461241
0.287164
0.429204
0.32021
0.436741
0.324721
0.361265
0.467841
0.268046
0.337084
0.292536
0.342685
0.3707
0.391609
0.319914
0.361288
0.280692
0.305171
0.350699
0.390446
0.411385
0.327895
0.262729
0.335069
0.288763
0.340499
0.370027
0.392279
0.315968
1.1085
1.13995
1.55785
1.17257
1.39259
1.4713
1.57522
0.606352
0.533361
0.54373
0.639935
0.654597
0.572704
0.686824
1.46432
0.909722
1.09016
1.69428
1.79694
1.21496
1.55046
0.418142
0.47039
0.368539
0.407513
0.551167
0.461519
0.503026
0.454403
0.394119
0.355898
0.399589
0.52902
0.441872
0.493564
1.20929
1.10429
1.15356
0.92098
1.18331
1.38872
1.30022
1.66213
0.272651
0.358683
0.299545
0.348237
0.391196
0.413724
0.323327
0.394966
0.459733
0.355866
0.40122
0.537357
0.445316
0.501039
0.63165
0.54805
0.560491
0.66338
0.681707
0.588973
0.712835
0.837818
0.931138
0.835429
0.761417
0.844283
0.92907
1.02601
0.421199
0.477835
0.368421
0.409902
0.564741
0.468741
0.512152
0.399927
0.446674
0.434825
0.524419
0.453232
0.465156
0.379076
0.736695
0.695746
0.778233
0.851268
0.755524
0.795833
0.901394
0.672813
0.593768
0.562647
0.636854
0.602947
0.719717
0.756366
0.585797
0.759136
0.704801
0.665412
0.615915
0.737202
0.793792
0.576172
0.726517
0.694516
0.65232
0.619067
0.744799
0.779748
0.450063
0.591431
0.563816
0.578352
0.497471
0.509438
0.538354
0.401422
0.453244
0.439073
0.537262
0.472877
0.458621
0.378926
0.72957
0.869511
0.768361
0.900456
0.792824
0.831576
0.947748
0.604028
0.792199
0.734112
0.688575
0.63499
0.766724
0.828292
0.918246
0.9304
0.854674
0.944564
1.04001
1.00704
1.11845
1.93886
1.76402
1.28115
1.90866
1.72406
1.75546
2.12352
0.45536
0.579709
0.608431
0.591331
0.521143
0.505723
0.549435
1.01956
0.994564
0.91825
1.21517
1.09317
1.00867
1.12242
1.27619
1.03132
1.1402
1.02027
0.92397
1.03076
1.13955
1.04456
0.945132
1.06914
1.1835
1.30953
1.04342
1.15386
0.88034
0.820761
0.77806
0.836627
1.00666
0.880313
0.95278
0.999134
0.969455
1.00746
1.07375
1.12072
1.06557
1.19264
0.702563
0.686773
0.648959
0.772335
0.87825
0.812757
0.832749
1.10762
1.22114
1.01275
1.26517
1.14417
1.24172
1.38459
0.886153
0.928782
0.818645
0.858673
1.06252
0.927145
0.978964
0.847144
0.91781
0.807542
0.870815
1.04695
0.911978
0.99646
0.7275
0.70659
0.668696
0.801854
0.913902
0.86804
0.841228
0.932361
0.983483
0.859802
0.899184
1.12311
0.974154
1.0316
1.09815
1.32413
1.18916
1.39815
1.24801
1.33689
1.50695
1.04925
1.08999
0.982689
1.13742
1.07087
1.19745
1.27878
1.34545
1.24547
1.11641
1.38963
1.49393
1.34466
1.2447
1.23487
1.29041
1.1421
1.42293
1.52466
1.35876
1.25945
1.16315
1.17664
1.0687
1.18804
1.29354
1.30752
1.42142
1.47084
1.43817
1.62493
1.31778
1.45697
1.16076
1.28412
0.900407
1.11611
1.02344
1.08632
0.947034
0.971893
1.03066
1.03928
1.27882
1.15664
1.20247
1.1013
1.233
1.35431
1.02897
1.22256
1.14779
1.1869
1.12503
1.26464
1.3391
1.10973
1.37897
1.24709
1.27831
1.16773
1.31663
1.44882
0.940333
1.07018
1.17629
1.13475
1.01927
0.985272
1.08159
1.3108
1.20781
1.34368
1.34013
1.62848
1.43967
1.50649
1.225
1.225
1.225
1.225
1.225
1.225
1.225
1.22501
1.225
1.225
1.225
1.225
1.225
1.225
1.22733
1.22501
1.225
1.225
1.225
1.225
1.225
2.56408
1.27547
1.22509
1.225
1.225
1.225
1.225
1.87035
2.78226
2.43027
1.22681
1.225
1.225
1.225
0.746509
1.28371
2.20203
2.92685
1.23066
1.225
1.225
0.593791
1.05276
1.985
2.94033
1.22738
1.225
0.556486
1.04467
2.1498
2.58345
1.22515
0.689868
1.5999
2.79135
1.22549
1.225
1.225
1.225
1.225
1.225
1.225
1.225
1.225
1.225
1.225
1.225
1.225
1.225
1.225
1.22502
1.225
1.225
1.225
1.225
1.225
1.225
1.864
1.23163
1.22501
1.225
1.225
1.225
1.225
2.24293
2.89481
1.65366
1.2252
1.225
1.225
1.225
1.02048
1.53269
2.5408
2.61688
1.22564
1.225
1.225
0.829579
1.27009
2.26566
2.66968
1.22527
1.225
0.991263
1.25653
2.47334
1.8369
1.22502
0.938893
1.88049
1.52981
1.22501
1.225
1.225
1.225
1.225
1.225
1.225
1.225
1.225
1.225
1.225
1.225
1.225
1.225
1.225
1.225
1.225
1.225
1.225
1.225
1.225
1.225
1.23024
1.22503
1.225
1.225
1.225
1.225
1.225
2.90644
2.11546
1.22778
1.225
1.225
1.225
1.225
1.81359
2.53525
2.94229
1.25702
1.225
1.225
1.225
1.54565
1.97893
2.94309
1.26406
1.225
1.225
1.60045
1.54977
2.9525
1.22986
1.225
1.70472
1.84593
1.2252
1.225
1.225
1.225
1.225
1.225
1.225
1.225
1.225
1.225
1.225
1.225
1.225
1.225
1.225
1.225
1.225
1.225
1.225
1.225
1.225
1.225
1.225
1.22501
1.225
1.225
1.225
1.225
1.225
1.225
1.28148
1.22544
1.225
1.225
1.225
1.225
1.225
2.32682
2.92649
1.24585
1.22501
1.225
1.225
1.225
1.93024
2.10443
2.5927
1.31761
1.22501
1.225
1.225
1.61516
2.31327
2.74207
1.25807
1.225
1.225
1.61277
2.06883
3.04454
1.225
1.225
1.225
1.225
1.225
1.225
1.225
1.225
1.225
1.225
1.225
1.225
1.225
1.225
1.225
1.225
1.225
1.225
1.225
1.225
1.225
1.225
1.225
1.225
1.225
1.225
1.225
1.225
1.225
1.225
1.22501
1.225
1.225
1.225
1.225
1.225
1.225
1.2778
1.22543
1.225
1.225
1.225
1.225
1.225
2.70486
2.60027
1.2321
1.22501
1.225
1.225
1.225
1.58041
2.12835
2.4873
1.23436
1.225
1.225
1.225
2.21862
2.72038
1.225
1.225
1.225
1.225
1.225
1.225
1.225
1.225
1.225
1.225
1.225
1.225
1.225
1.225
1.225
1.225
1.225
1.225
1.225
1.225
1.225
1.225
1.225
1.225
1.225
1.225
1.225
1.225
1.225
1.225
1.225
1.225
1.225
1.225
1.225
1.225
1.225
1.225
1.22501
1.225
1.225
1.225
1.225
1.225
1.225
1.37932
1.22573
1.225
1.225
1.225
1.225
1.225
2.10287
2.47925
1.82387
1.225
1.225
1.225
1.225
2.52789
2.33074
1.33859
1.225
1.225
1.225
1.225
1.225
1.225
1.225
1.225
1.225
1.225
1.225
1.225
1.225
1.225
1.225
1.225
1.225
1.225
1.225
1.225
1.225
1.225
1.225
1.225
1.225
1.225
1.225
1.225
1.225
1.225
1.225
1.225
1.225
1.225
1.225
1.225
1.225
1.225
1.225
1.225
1.225
1.225
1.225
1.225
1.225
1.22501
1.225
1.225
1.225
1.225
1.225
1.225
1.26028
1.22522
1.225
1.225
1.225
1.225
1.225
2.32833
1.24446
1.225
1.225
1.225
1.225
1.225
1.225
1.225
1.225
1.225
1.225
1.225
1.225
1.225
1.225
1.225
1.225
1.225
1.225
1.225
1.225
1.225
1.225
1.225
1.225
1.225
1.225
1.225
1.225
1.225
1.225
1.225
1.225
1.225
1.225
1.225
1.225
1.225
1.225
1.225
1.225
1.225
1.225
1.225
1.225
1.225
1.225
1.225
1.225
1.225
1.225
1.225
1.225
1.225
1.225
1.225
1.225
1.225
1.225
1.225
1.225
1.225
1.225
1.225
1.225
1.225
1.225
1.225
1.225
1.225
1.225
1.225
1.225
1.225
1.225
1.225
1.225
1.225
1.225
1.225
1.225
1.225
1.225
1.225
1.225
1.225
1.225
1.225
1.225
1.225
1.225
1.225
1.225
1.225
1.225
1.225
1.225
1.225
1.225
1.225
1.225
1.225
1.225
1.225
1.225
1.225
1.225
1.225
1.225
1.225
1.225
1.225
1.225
1.225
1.225
1.225
1.225
1.225
1.225
1.225
1.225
1.225
1.225
1.225
1.225
1.225
1.225
1.225
1.225
1.225
1.225
1.225
1.225
1.225
1.225
1.225
1.225
1.225
1.225
1.225
1.225
1.225
1.225
1.225
1.225
1.225
1.225
1.225
1.225
1.225
1.225
1.225
1.225
1.225
1.225
1.225
1.225
1.225
1.225
1.225
1.225
1.225
1.225
1.225
1.225
1.225
1.225
1.225
1.225
1.225
1.225
1.225
1.225
1.225
1.225
1.225
1.225
1.225
1.225
1.225
1.225
1.225
1.225
1.225
1.225
1.225
1.225
1.225
1.225
1.225
1.225
0.902328
0.364172
0.558102
0.720285
1.01168
0.528493
0.677167
0.877527
0.386149
0.577577
0.674265
0.982273
0.523024
0.696566
0.821953
0.405207
0.567572
0.595013
1.02208
0.716011
1.13706
1.11693
0.407638
0.617875
0.892222
1.24721
0.583846
0.748143
0.364988
0.421393
0.426524
0.440042
0.445015
0.504534
0.488555
1.11627
0.639605
0.779712
1.30341
1.60967
1.01932
1.21558
0.746148
0.77588
1.08222
0.800297
1.20751
1.56002
1.14948
0.386048
0.422391
0.441614
0.428849
0.448303
0.509766
0.492867
0.685923
1.3171
1.1017
0.8219
1.24792
1.2813
1.76165
0.436585
0.564366
0.569471
0.484643
0.489415
0.543929
0.617364
0.438395
0.569535
0.487152
0.578403
0.494484
0.550369
0.626627
0.426149
0.462533
0.481045
0.482849
0.501398
0.563456
0.546779
1.37092
0.712147
0.948055
1.58626
1.92588
1.22593
1.35453
1.3008
1.84447
1.66322
1.69478
1.98853
1.88587
2.85496
1.35246
1.82946
2.07609
1.77984
1.89995
2.03921
2.90394
1.60395
1.67176
1.11732
2.2051
2.55668
1.52216
1.79259
0.476528
0.609012
0.525722
0.631397
0.546756
0.604082
0.681908
0.430142
0.471988
0.491867
0.497173
0.517159
0.586897
0.569288
2.0551
1.48201
1.75403
2.6458
2.94804
1.71603
2.01632
1.69893
0.641731
1.02895
1.16329
1.82472
0.752009
1.13607
0.484498
0.570528
0.50055
0.572952
0.641837
0.654427
0.559017
0.486307
0.572382
0.502859
0.579008
0.647265
0.660192
0.56438
0.486255
0.630168
0.541237
0.657893
0.56747
0.631944
0.715539
0.629115
0.669926
0.675989
0.791429
0.799026
0.721809
0.848554
1.79682
0.67679
1.17697
1.15251
1.92782
0.722724
1.29112
0.496265
0.591746
0.512298
0.579801
0.658601
0.67126
0.565833
0.762283
0.678453
0.690222
0.803981
0.819772
0.734768
0.866391
1.91995
0.705918
1.08774
1.41038
2.06646
0.755707
1.20071
0.503945
0.609051
0.521129
0.591089
0.678721
0.692273
0.576101
0.606019
0.61348
0.540082
0.608302
0.751309
0.686854
0.676371
0.627317
0.625607
0.551622
0.61518
0.769239
0.703893
0.683605
0.524803
0.609486
0.541315
0.633583
0.702692
0.71585
0.61882
0.705002
0.575018
0.591735
0.664869
0.781839
0.795621
0.64992
1.74239
0.839289
0.891757
1.2523
2.29388
1.37052
2.47635
0.647038
0.640249
0.562504
0.628098
0.795927
0.726955
0.699578
0.608199
0.617901
0.542927
0.61532
0.759191
0.693341
0.685404
0.820274
0.723405
0.749427
0.858888
0.89097
0.79515
0.936489
0.657344
0.645499
0.581124
0.670419
0.817965
0.749668
0.742694
0.541252
0.633337
0.558702
0.665096
0.74174
0.755954
0.649383
2.59138
0.932081
1.38352
2.05987
2.72232
1.07933
1.51851
0.606855
0.762849
0.624626
0.706816
0.849669
0.864756
0.690756
1.25822
1.37387
1.76079
1.4799
1.7679
2.69976
1.67832
0.744524
0.713168
0.633448
0.702925
0.906186
0.832163
0.777506
0.672642
0.683866
0.602441
0.705974
0.86809
0.793512
0.784284
0.858959
0.753229
0.78481
0.900271
0.938695
0.837273
0.990106
1.94305
0.851533
1.23909
1.76438
2.53117
1.30347
1.72206
0.867425
1.05474
1.06576
0.920652
0.92995
0.987226
1.13291
2.05237
1.02736
1.40194
1.74237
2.67318
1.36245
1.91348
1.81659
1.41738
1.38385
2.02052
2.80754
1.66425
1.66871
0.889432
1.0761
0.93749
1.10126
0.957877
1.01079
1.16271
0.717563
0.905068
0.843601
0.850288
0.777896
0.907127
0.980618
0.731244
0.933147
0.859974
0.869823
0.785873
0.916346
1.00258
1.43898
1.16197
1.2856
1.31941
1.45941
1.47139
1.62654
1.21608
1.25728
1.21591
1.32304
1.36636
1.36639
1.48208
2.21091
1.08028
1.31027
2.09514
2.8209
1.43682
1.81369
0.751083
0.969728
0.886811
0.901657
0.805999
0.941962
1.04082
1.48466
1.81531
1.95008
1.45891
1.98383
1.8834
2.96117
0.672552
0.779645
0.758778
0.914053
0.79202
0.770887
0.659325
0.659838
0.746158
0.75642
0.888824
0.757874
0.768147
0.647277
0.806957
0.756594
0.67079
0.749374
0.989865
0.906443
0.831006
0.723953
0.910092
0.852496
0.860087
0.789582
0.922261
0.992762
0.65444
0.746966
0.743071
0.758873
0.754841
0.881812
0.870413
0.96005
1.15463
1.00421
1.20158
1.04365
1.09403
1.26006
0.767454
0.958124
0.903677
0.923262
0.851456
0.99199
1.06258
1.2217
1.35317
1.49526
1.40646
1.55286
1.5493
1.70751
0.689657
0.774947
0.786803
0.802904
0.814991
0.936309
0.924787
0.830092
1.09056
0.977262
1.01995
0.889968
1.03565
1.16953
2.55725
1.24492
1.62745
1.48491
2.62139
2.01493
2.92088
2.18416
1.52074
1.76028
2.89588
2.99849
2.00512
2.23117
0.706351
0.945108
0.89113
0.867509
0.824355
0.80247
0.773561
0.692265
0.918661
0.851312
0.862267
0.788437
0.798831
0.75689
0.750662
0.891316
0.841259
1.03424
0.85364
0.904048
0.737193
0.687121
0.85365
0.848489
0.789902
0.785512
0.911841
0.975654
0.719793
0.810248
0.822935
0.851204
0.864229
0.994388
0.982104
1.44104
1.62537
1.73555
1.52867
1.4377
1.28787
1.38249
1.00628
0.801579
0.861034
0.982164
0.901571
1.05286
1.13179
1.70308
1.57337
1.35378
1.50238
1.63817
1.73836
1.88103
0.789268
0.882342
0.817819
0.912743
0.846593
0.966766
1.03266
1.43707
1.61443
1.72212
1.51407
1.37325
1.28119
1.42478
1.0598
1.17205
1.01355
1.28478
1.10767
1.16266
1.34641
0.827066
0.925432
0.856331
0.971481
0.89915
1.02749
1.09896
1.23281
1.33832
1.51623
1.43277
1.26762
1.16537
1.31107
1.5924
1.7909
1.8903
1.56579
1.64809
1.40483
1.48881
0.785654
1.00978
1.06654
0.954723
0.886233
0.938081
0.856423
0.802925
0.972328
0.9041
1.13017
0.986293
0.917544
0.788292
1.05131
1.12625
0.981462
1.05345
1.30011
1.13325
1.2098
1.24639
1.00108
1.08437
1.06431
1.32944
1.15856
1.22261
1.36447
1.20856
1.11954
1.19546
1.34896
1.28727
1.45681
1.75566
1.4862
1.60878
1.32705
1.44202
1.45731
1.57854
1.85262
1.55769
1.74851
1.5756
1.67836
1.50103
1.39742
1.59703
1.565
1.4446
1.41517
1.30171
1.44384
1.5644
2.81824
1.21304
1.6485
2.83273
2.84539
1.7991
2.25943
0.882575
1.18588
1.04229
1.11656
0.953437
1.11152
1.28001
1.45968
1.32998
1.44447
1.62979
1.49028
1.612
1.75844
2.38514
2.18763
1.73271
2.00332
2.81762
2.55061
1.41088
2.56758
1.81901
2.20237
2.1369
2.4435
2.80202
1.32304
0.995184
0.968831
0.876521
1.01198
1.25516
1.13371
1.10393
1.19422
1.13044
1.03652
1.09699
1.385
1.20481
1.2634
1.05774
1.14087
0.993108
1.07287
1.31868
1.1483
1.23416
0.949452
0.961363
0.856252
0.98721
1.21582
1.08078
1.09397
1.5029
1.55877
1.39926
1.68176
1.57883
1.75092
1.85523
0.853402
0.955395
0.968524
1.03693
1.05054
1.19386
1.18069
0.982452
0.952987
0.946712
1.08563
1.07804
1.07581
1.20956
1.30007
1.25222
1.15403
1.22211
1.38182
1.32401
1.5016
1.60254
1.40994
1.29205
1.5229
1.34147
1.22828
1.38857
1.59715
1.61278
1.45941
1.41778
1.29091
1.43139
1.56669
1.8079
1.46098
1.63435
1.79982
1.63409
1.8085
1.99831
1.96898
2.19452
2.34093
2.97051
2.94426
1.8216
2.9405
1.71287
1.56574
1.46658
1.66945
1.76693
1.82784
1.92986
2.05338
2.49285
2.01761
2.38811
1.91407
2.06132
1.2456
0.842482
1.16724
1.10739
1.03115
1.02559
0.954489
0.92117
1.21319
1.11402
1.05442
1.15372
1.40799
1.22728
1.32754
0.891806
0.98326
1.01628
1.11824
1.15462
1.13652
1.27476
2.95201
1.26895
1.99924
2.37974
2.94976
1.3846
2.14572
0.880853
1.06436
0.89238
1.04383
1.23553
1.24766
1.03236
2.94107
1.22771
2.06885
2.12864
2.95798
1.3397
2.22357
0.895449
1.05606
0.906798
1.0853
1.25409
1.26618
1.0738
2.34133
2.99776
2.18682
2.90148
1.6014
2.43872
2.94713
2.6883
1.81855
2.14821
1.95537
1.25201
2.46593
2.51916
2.47462
2.48249
1.7613
1.58192
1.23598
2.49021
2.01529
1.5013
1.8756
1.65905
1.83996
1.65456
1.8312
2.0454
1.65582
1.65549
1.50048
1.84383
1.69684
1.8729
2.04485
1.41939
1.73344
1.53786
1.73173
1.53703
1.66147
1.87192
1.34816
1.64727
1.46251
1.70025
1.50862
1.6316
1.84259
0.869498
1.04031
0.880811
1.03633
1.21636
1.22835
1.02492
0.969754
1.0801
1.00436
1.16862
1.08837
1.22957
1.30752
1.40841
1.54857
1.31248
1.24845
1.36723
1.43539
1.62808
1.12151
1.06182
0.965426
1.10944
1.3938
1.20442
1.26912
1.28563
1.11195
1.17375
1.22799
1.50208
1.30823
1.4176
1.62053
1.85469
1.75721
1.96009
1.85922
2.01048
2.12452
0.935931
1.09956
0.947909
1.14989
1.31967
1.33234
1.13773
0.947477
1.06115
1.07568
1.1771
1.19196
1.34648
1.33203
0.936408
1.03309
1.08389
1.176
1.23218
1.21113
1.35848
2.93792
1.43463
2.58738
2.31704
2.85247
1.55355
2.72431
1.41585
1.54253
1.75238
1.73183
1.52468
1.65141
1.8828
2.50324
2.53995
2.66437
2.4892
3.01272
2.92788
1.32376
1.45613
1.14256
1.26657
1.20417
1.53944
1.34614
1.38554
1.75788
1.61718
1.83855
2.02699
1.97143
1.93838
2.18945
1.61722
1.8322
1.96169
1.94175
1.78605
2.03071
2.18933
1.09528
0.987789
0.922837
1.07431
1.34945
1.2793
1.14095
1.07041
0.973968
0.910632
1.06651
1.32819
1.25951
1.13231
0.966675
1.18915
0.978461
1.12946
1.35725
1.37002
1.11771
1.08626
1.00135
0.936845
1.11574
1.36685
1.29745
1.18302
1.22072
1.07748
1.00962
1.16032
1.47301
1.40184
1.22896
0.991058
1.20429
1.11724
1.3272
1.23527
1.38837
1.47933
1.79111
1.67354
1.72081
1.96733
1.84806
1.62228
1.47744
2.81882
1.57614
2.3362
2.85144
2.59177
1.71134
2.52127
1.0417
1.29685
1.05438
1.21532
1.47178
1.48548
1.20274
2.62916
3.04438
2.91291
1.64619
1.24363
2.89463
2.79133
1.80778
2.05055
2.17456
2.29189
1.9991
2.14544
2.45469
1.23273
1.14955
1.04111
1.19741
1.52964
1.39382
1.30405
1.13104
1.04845
0.97978
1.18219
1.43741
1.36481
1.25391
1.59381
1.40082
1.33778
1.47129
1.67858
1.54096
1.75807
2.79277
1.48357
1.93006
2.93582
2.70483
1.91308
2.89781
2.00277
1.95253
2.87135
2.15043
2.9155
2.45929
2.98683
1.17116
1.42186
1.48502
1.44697
1.29963
1.26584
1.34582
1.14073
1.3772
1.4146
1.43129
1.23832
1.25315
1.30871
1.33223
1.16452
1.08924
1.24888
1.59804
1.5204
1.32332
1.0926
1.265
1.10522
1.35847
1.53067
1.54462
1.3452
1.27941
1.55685
1.44746
1.47928
1.37632
1.55942
1.67647
1.3069
1.41878
1.6084
1.51262
1.39129
1.57675
1.71384
1.13577
1.42253
1.41177
1.24461
1.23553
1.37103
1.55392
1.29769
1.56901
1.47028
1.50164
1.40609
1.5954
1.70279
1.8337
1.60714
1.46702
1.78138
1.56474
1.70616
1.95285
1.08918
1.19738
1.29191
1.35045
1.45051
1.42845
1.58426
0.149075
0.308175
0.479592
0.596151
0.816561
1.06317
1.16665
0.260347
0.0762319
0.147981
0.364652
0.453686
0.260327
0.353478
0.0981133
0.0959247
0.120273
0.0967478
0.121138
0.14631
0.120011
0.565803
0.358634
0.456876
0.746989
0.893465
0.544958
0.693444
0.163258
0.291694
0.190551
0.295145
0.192135
0.220425
0.325765
0.999663
0.585776
0.754377
1.05583
1.38234
0.72845
0.955846
0.483722
0.180788
0.310327
0.486388
0.61364
0.38423
0.482993
0.119769
0.175247
0.146029
0.17506
0.180026
0.207459
0.147676
0.120823
0.176613
0.147135
0.175478
0.180838
0.208669
0.148014
0.25347
0.329876
0.222093
0.251412
0.393804
0.284246
0.359704
0.24917
0.32269
0.219195
0.249984
0.386025
0.28106
0.356007
0.43974
0.391806
0.398924
0.47648
0.486703
0.430733
0.521821
0.497904
0.592482
0.540239
0.607137
0.55304
0.594614
0.656472
0.207618
0.217855
0.21708
0.285988
0.244991
0.243908
0.179981
0.208007
0.217398
0.218556
0.243942
0.244849
0.285122
0.260083
0.627965
0.637251
0.653281
0.683124
0.700709
0.709542
0.762804
0.718278
0.488997
0.700162
0.944747
1.12884
0.802411
0.923518
0.424394
0.548736
0.512475
0.493186
0.462237
0.556734
0.59165
0.439236
0.582476
0.534164
0.508966
0.46985
0.568111
0.615435
0.282216
0.352219
0.42321
0.418939
0.316937
0.314924
0.389302
0.280724
0.416253
0.4153
0.314024
0.314143
0.349622
0.447589
1.55
0.794227
1.04508
1.32773
1.9385
1.04049
1.36122
0.674355
0.793359
0.734304
0.816741
0.75425
0.822508
0.891903
0.25955
0.331884
0.284851
0.330773
0.361104
0.382645
0.307355
0.669123
0.674922
0.61035
0.650579
0.795541
0.708245
0.724561
0.62498
0.642058
0.582414
0.635617
0.757161
0.677127
0.70647
0.261664
0.333496
0.286503
0.331406
0.36164
0.382977
0.308128
0.537487
0.529127
0.499897
0.601947
0.679333
0.647726
0.635074
0.585268
0.523341
0.520659
0.626195
0.621933
0.553889
0.661117
1.28286
0.975447
1.15911
1.50186
1.87826
1.1764
1.3098
0.693497
0.814474
0.745074
0.831884
0.769314
0.831295
0.905935
0.39103
0.449633
0.350198
0.38917
0.522777
0.434372
0.482813
0.390753
0.44765
0.35035
0.389125
0.520059
0.433689
0.481648
0.730385
0.886219
0.786394
0.877588
0.790216
0.855249
0.959991
0.25471
0.526186
0.768232
0.075743
0.153615
0.35797
0.148765
0.26423
0.352426
0.449899
0.0970346
0.097404
0.0963265
0.120272
0.121093
0.147501
0.121744
0.349064
0.464208
0.642985
0.454141
0.556023
0.686785
0.866594
0.160052
0.288994
0.287824
0.188722
0.189319
0.218984
0.321212
0.565422
0.831363
0.985757
0.729789
1.0719
1.05092
1.17624
0.12325
0.180015
0.148715
0.178156
0.186096
0.212701
0.151497
0.120683
0.175877
0.146678
0.17684
0.182056
0.209066
0.149926
0.426683
0.387069
0.384306
0.465706
0.469963
0.420769
0.507372
0.323274
0.252695
0.220162
0.250728
0.38861
0.284393
0.354666
0.320401
0.249009
0.218431
0.249521
0.384087
0.281135
0.352851
0.481681
0.5819
0.576041
0.526353
0.531646
0.57563
0.633311
0.210582
0.222891
0.220362
0.288881
0.246441
0.248797
0.18378
0.605906
0.625374
0.619252
0.663598
0.669959
0.683325
0.733602
0.425276
0.559507
0.514109
0.495493
0.45792
0.550371
0.594606
0.419105
0.544714
0.504787
0.487857
0.454471
0.545248
0.583502
0.282328
0.419006
0.352375
0.416216
0.315221
0.31736
0.38555
0.700206
0.775816
0.712443
0.71923
0.649661
0.789267
0.852881
0.708743
0.584128
0.638766
0.626988
0.760111
0.680573
0.694905
0.629735
0.619654
0.572387
0.620345
0.743627
0.66635
0.687284
0.525792
0.521454
0.49007
0.586739
0.663528
0.622906
0.629107
0.744637
0.693702
0.770469
0.833934
0.755144
0.814598
0.906894
0.805674
0.746596
0.679626
0.815513
0.746869
0.805736
0.886643
0.8647
0.876305
0.892815
0.954959
0.98844
0.975277
1.07985
1.0767
0.976196
0.898419
0.866548
0.801309
0.879717
0.954565
0.963227
0.94407
0.870211
0.848497
0.78528
0.870052
0.943645
0.690645
0.787707
0.843903
0.823604
0.747817
0.731312
0.773781
0.963927
0.92428
0.849722
0.927225
1.15577
1.0502
1.01149
0.880255
0.868408
0.802458
0.899445
1.07806
0.985905
0.978409
0.381755
0.41935
0.419095
0.499955
0.438239
0.43782
0.360376
0.746793
0.714064
0.668699
0.809369
0.719718
0.76366
0.86401
0.803429
0.81242
0.766328
0.715195
0.722996
0.670492
0.748309
0.558268
0.712359
0.667935
0.630896
0.589855
0.702941
0.749957
0.659557
0.553079
0.588527
0.6256
0.587252
0.69876
0.741739
0.432912
0.539687
0.564393
0.562726
0.483353
0.48266
0.519999
0.938318
0.913963
0.851577
0.928987
1.11225
1.0357
1.00629
0.891451
0.888346
0.819486
0.896894
0.985866
0.96463
1.06995
0.976048
0.96704
0.889218
0.987572
0.89945
0.820553
0.89198
1.15587
0.947193
1.04695
1.18583
1.07189
1.18682
1.3126
0.96072
1.13151
1.04543
1.17156
1.08294
1.18059
1.27442
1.0148
1.29713
1.12663
1.28051
1.11203
1.23354
1.42026
0.86091
0.811846
0.761384
0.810312
0.984968
0.862022
0.921969
1.06915
1.05799
0.969018
1.19182
1.08177
1.18531
1.31803
1.3185
1.18659
1.06938
1.08247
1.19138
0.96897
1.05729
1.01302
1.23729
1.26569
1.22174
1.14215
1.10636
1.11058
0.671198
0.668365
0.62623
0.743054
0.844939
0.793987
0.789803
0.828615
0.875151
0.772741
0.816065
0.999263
0.873256
0.929211
1.06506
1.03744
0.960791
1.11228
1.03591
1.15771
1.25006
0.977901
1.19033
1.08604
1.13001
1.04467
1.16841
1.27163
1.40974
1.35571
1.22509
1.35736
1.71227
1.55883
1.4994
1.23251
1.50913
1.41204
1.34427
1.634
1.53687
1.44209
1.23777
1.14476
1.26177
1.29436
1.52863
1.42661
1.39308
0.864018
0.983407
1.05989
1.05287
0.924476
0.918886
0.987678
1.45293
1.29515
1.17893
1.29399
1.59003
1.40664
1.45213
1.334
1.34253
1.20512
1.30729
1.62268
1.43299
1.4688
1.20231
1.19344
1.11588
1.25466
1.45205
1.35808
1.34683
1.47238
1.83551
1.77577
1.71885
1.67756
1.61832
1.57201
1.41255
1.64658
1.7467
1.72992
1.5363
1.52256
1.59765
1.90447
1.66361
1.99588
2.11164
1.82827
1.73488
1.57424
2.95837
1.44686
2.37198
2.84611
2.26798
1.93601
2.89283
1.86042
2.38105
2.93066
2.03588
2.97854
1.98904
2.96293
1.69061
1.48741
1.3615
1.57794
1.4406
1.63585
1.79138
1.37761
1.41943
1.22437
1.29494
1.67906
1.47
1.49402
1.07342
1.37505
1.20639
1.43507
1.2355
1.37165
1.57354
1.18716
1.46177
1.28039
1.50621
1.32075
1.441
1.62829
1.65445
1.56554
1.38122
1.60075
1.51173
1.71524
1.81458
2.93154
1.49602
2.28665
2.93594
2.03631
2.00371
2.85948
1.08975
1.41015
1.22558
1.45876
1.2455
1.38313
1.59995
1.10285
1.39354
1.2383
1.47504
1.28884
1.42778
1.6149
2.05494
1.73964
1.94059
1.94182
2.30082
2.15523
2.0564
1.21306
1.29772
1.13909
1.39285
1.65535
1.57908
1.46905
1.21175
1.39727
1.22564
1.52272
1.70617
1.72117
1.50828
1.92433
1.68382
1.5936
1.76095
2.0226
1.85475
2.14027
1.60543
1.78739
1.9094
1.76945
1.97087
1.92958
2.1413
1.76853
1.96857
2.13945
1.78445
1.92721
1.60377
1.7314
1.55971
1.94651
1.7196
1.89862
2.17422
1.94627
1.71917
1.61451
1.2898
1.30358
1.47292
1.79592
1.81142
1.459
2.86936
1.98416
2.1635
2.73373
2.05191
2.82208
1.62146
1.27989
1.63945
1.56701
1.56518
1.37521
1.44473
1.46674
1.78268
2.13012
2.01143
1.96517
2.3617
2.20912
2.08071
1.96139
1.77774
1.88041
2.00497
2.35488
2.20454
2.12208
1.82428
1.88305
2.0609
1.80362
2.24968
2.04058
1.972
1.96878
1.73688
1.59104
1.77275
2.22902
1.94099
2.01613
1.6545
1.42383
1.34132
1.50966
1.94527
1.85333
1.59082
1.15638
1.45335
1.29912
1.55124
1.36669
1.51335
1.69825
1.25012
1.53719
1.3468
1.60416
1.40843
1.53309
1.72879
1.38349
1.33677
1.46728
1.50488
1.64427
1.61904
1.79638
1.96772
1.66621
1.79926
1.87523
2.05297
2.03418
2.24334
1.23973
1.44546
1.45861
1.4663
1.47948
1.72386
1.70931
2.74259
1.66852
2.81988
2.92004
1.51905
2.21792
2.89981
1.43514
1.35021
1.26506
1.56379
1.85446
1.76284
1.65396
1.1844
1.54647
1.32619
1.58469
1.33702
1.47846
1.72956
1.54675
1.67287
1.46947
1.71034
1.61942
1.8465
1.94866
1.28127
1.47996
1.49332
1.52783
1.54147
1.77867
1.76376
2.22775
1.96796
1.77035
2.01469
1.79152
1.58918
1.73552
2.32898
1.84265
2.66847
2.64502
1.29949
2.49673
2.94268
1.282
1.69036
1.43465
1.72076
1.44016
1.59138
1.88078
1.50111
1.65723
1.88594
1.74687
1.57756
1.79162
1.98812
2.49071
2.62654
2.80731
2.27466
2.89787
2.99358
1.35578
1.89056
2.03165
2.09779
2.28202
2.36563
2.24945
2.5687
2.00409
2.16969
2.30483
2.07327
2.53655
2.36885
2.19664
2.20855
2.08249
1.91059
2.18174
2.55039
2.37808
2.32098
1.2307
1.45148
1.44065
1.71348
1.46469
1.45378
1.21867
1.30943
1.50509
1.56302
1.81182
1.51847
1.57677
1.29708
1.81133
2.00983
1.99281
2.202
2.22903
2.15417
2.44186
1.68477
1.8493
2.06533
1.87044
2.22183
2.24799
2.41978
1.27088
1.56241
1.49112
1.5836
1.51205
1.75896
1.83479
1.38077
1.71465
1.79017
1.6874
1.58106
1.48578
1.58203
1.80952
2.15046
1.96758
2.01017
2.4403
2.22812
2.20171
1.89706
2.26205
2.10929
2.10402
2.57451
2.28383
2.36891
1.91528
1.91866
1.69195
1.8305
2.38688
2.08455
2.09365
1.26202
1.74867
1.56968
1.55785
1.49752
1.48638
1.33119
1.40033
1.68207
1.59509
1.93603
1.69689
1.60923
1.38721
1.42762
1.73079
1.53062
1.84338
1.63541
1.7671
1.97833
1.32861
1.6336
1.47899
1.77588
1.58855
1.74352
1.93409
2.11205
1.73692
1.82259
2.26013
1.92992
2.02553
2.38711
1.31328
1.59966
1.52649
1.64962
1.57515
1.81551
1.8951
1.96824
2.08653
1.96937
2.1422
2.27299
2.28583
2.47057
1.91525
1.98706
2.11857
2.16886
2.29753
2.36282
2.46909
1.44797
1.64054
1.65494
1.73936
1.75444
1.99427
1.97771
1.41252
2.3673
2.86015
2.1871
1.28449
2.54284
2.87543
1.48658
1.88777
1.50134
1.68154
2.09107
2.11016
1.6665
2.18938
2.31122
2.46693
2.30411
2.8155
2.6346
2.48272
2.48837
2.27034
2.14044
2.31502
2.80733
2.68226
2.47278
1.34088
1.84864
1.62343
1.68346
1.55125
1.61006
1.41103
1.60583
1.62431
1.489
1.68725
1.98887
1.81704
1.8377
2.02417
1.87037
1.64054
1.77056
2.19731
1.90619
2.02683
1.91504
1.82821
2.0998
1.79079
2.25704
1.95076
2.05194
1.6858
1.64324
1.53308
1.73923
2.05791
1.91064
1.86101
1.90581
1.78293
2.04391
1.81489
2.24383
1.93915
2.0858
1.68175
1.61555
1.60294
1.81408
1.75479
1.82888
1.98252
2.59023
2.05659
2.57609
1.69028
1.24262
2.9991
2.90739
1.62634
2.08885
1.86135
1.91311
1.70711
1.95336
2.20743
2.30525
2.20583
2.33409
2.48802
2.64256
2.49352
2.82596
1.43362
1.97722
1.81354
1.72041
1.73341
1.64385
1.50806
1.94185
1.64354
1.54592
1.72665
2.29357
2.16935
1.82637
1.57641
1.57407
1.38916
1.5472
1.95589
1.76555
1.73301
1.53761
1.54919
1.36705
1.53438
1.92298
1.7364
1.71899
1.75904
2.24403
1.93164
1.86404
2.40378
2.05102
2.15136
1.48066
1.76497
1.68936
1.87072
1.79105
2.03647
2.12818
1.55135
2.06371
1.71464
2.09421
1.7177
1.88227
2.2926
2.68545
2.33288
2.85335
2.88408
1.42113
2.79591
1.23084
1.75602
1.6579
1.70659
1.87582
1.835
1.93222
2.07806
1.55705
1.58634
1.40168
1.593
1.96937
1.77942
1.78019
1.62235
1.66096
1.46955
1.68589
2.0753
1.87156
1.88249
2.17257
2.04127
1.77918
1.95802
2.43562
2.07714
2.27436
1.48116
1.81561
1.64771
2.00076
1.79425
1.97634
2.19885
1.58002
1.91998
1.69912
2.09077
1.84928
2.00575
2.26451
1.59051
1.79145
1.80699
1.92921
1.94595
2.21265
2.19386
1.5856
1.67252
1.69444
1.81437
1.8375
1.95274
2.10747
1.63672
1.74364
1.81823
1.97989
1.95003
2.07215
2.22797
1.66375
2.02187
1.86326
2.31227
1.87917
2.03986
1.64911
1.71736
1.68633
1.4958
1.64602
2.10576
1.90157
1.8365
1.85329
1.77108
1.66606
1.89083
2.26845
2.00948
2.11178
1.63966
1.71345
1.76629
1.8605
1.91784
2.02006
2.18631
1.95978
2.19469
2.40274
2.47448
2.19606
2.40376
2.61339
2.60677
2.76315
1.29259
2.67569
1.25585
1.22508
1.24417
2.42795
1.99839
2.17608
2.52798
2.27102
2.47685
2.62795
1.70107
2.19217
2.36754
2.00791
1.91976
2.0886
1.78288
1.68141
1.66826
1.43887
1.57828
2.09806
1.82538
1.81048
1.73585
1.7986
1.52072
1.66252
2.21902
1.88153
1.94866
1.87604
1.81551
1.61382
1.76911
2.31472
2.07366
1.97423
2.36926
2.01999
1.91573
2.13398
2.69706
2.26232
2.53413
1.62825
1.93374
1.8468
2.09361
1.99217
2.26702
2.38052
1.28364
2.34269
2.95158
2.78942
1.24246
2.52621
2.84404
1.69565
2.00104
1.71014
2.00673
2.33702
2.35559
1.99067
2.46979
2.64323
2.66743
2.80762
2.9634
2.8122
3.03353
2.16685
2.59609
2.62554
2.40687
2.43716
2.70159
2.85216
2.35509
1.2621
2.74244
1.23127
1.22505
2.3071
1.25125
2.36667
2.24436
1.2471
1.22766
1.22503
1.59081
1.22935
1.99751
2.48447
2.50859
2.47406
2.29083
2.20565
2.29813
1.88708
2.34541
2.1116
2.60062
2.36338
2.13032
1.87063
1.94108
1.84123
1.6253
1.77742
2.40546
2.1117
1.99982
2.27044
2.18112
2.59086
2.05525
2.74932
2.31177
2.41152
1.85704
1.80954
1.65617
1.92758
2.37254
2.12749
2.14889
1.90908
2.12406
2.42196
2.44221
2.15029
2.39794
2.54612
2.27874
2.53439
2.48216
2.22302
2.18009
2.43109
2.63216
1.72058
2.01547
1.73528
2.05368
2.37698
2.39573
2.03727
2.36821
2.54505
2.35199
2.6745
2.48776
2.5988
2.66638
1.8185
1.8842
1.99777
2.04184
2.17008
2.27413
2.46736
2.39681
2.54594
2.42179
2.14853
2.44152
2.1871
1.90812
1.25634
2.49308
2.76558
2.81833
1.23425
2.66416
2.45695
1.25133
2.68422
2.87743
1.24969
1.22564
2.87434
2.22374
1.79458
2.46635
1.99077
2.46926