/*--------------------------------*- C++ -*----------------------------------*\
  =========                 |
  \\      /  F ield         | OpenFOAM: The Open Source CFD Toolbox
   \\    /   O peration     | Website:  https://openfoam.org
    \\  /    A nd           | Version:  9
     \\/     M anipulation  |
\*---------------------------------------------------------------------------*/
FoamFile
{
    format      ascii;
    class       volVectorField;
    location    "0.0004";
    object      rhoU;
}
// * * * * * * * * * * * * * * * * * * * * * * * * * * * * * * * * * * * * * //

dimensions      [1 -2 -1 0 0 0 0];

internalField   nonuniform List<vector> 
2677
(
(6.3549e-37 -4.49422e-17 -5.4363e-15)
(6.89571e-21 -2.3036e-15 3.90159e-17)
(0 -4.43169e-17 -6.91113e-15)
(1.09784e-38 0 -3.09518e-17)
(4.84262e-22 -4.54488e-18 -4.81327e-16)
(0 0 -2.794e-19)
(9.20649e-41 0 -1.38734e-18)
(2.82794e-24 0 -2.35226e-16)
(0 0 0)
(0 0 0)
(0 0 0)
(0 0 0)
(0 0 0)
(0 0 0)
(0 0 0)
(0 0 2.05976e-17)
(0 0 1.68388e-19)
(0 0 1.64609e-21)
(0 0 0)
(0 0 0)
(0 0 0)
(0 0 0)
(0 0 0)
(0 0 0)
(7.82543e-27 -2.92837e-18 1.57169e-14)
(1.24037e-16 -3.35352e-17 -8.15488e-15)
(-5.73613e-20 -4.31291e-17 -1.54545e-14)
(7.79313e-37 -8.16916e-17 -1.82204e-16)
(2.37735e-20 -3.66766e-15 -1.16753e-14)
(0 -1.16577e-16 -2.34805e-18)
(0 -4.75385e-29 0)
(0 -9.19819e-26 0)
(0 -2.31547e-24 0)
(0 -1.06089e-25 0)
(0 0 0)
(0 0 0)
(0 0 0)
(0 0 0)
(0 0 -1.3541e-14)
(1.25963e-48 0 0)
(2.13364e-20 0 0)
(0 0 0)
(0 -1.98354e-19 9.5062e-15)
(0 -1.18216e-17 0)
(1.13844e-32 -2.47319e-16 0)
(0 -1.27127e-17 0)
(0 2.76333e-18 -1.97666e-18)
(0 0 0)
(5.8912e-34 2.47747e-16 0)
(0 0 0)
(0 1.24115e-25 -1.09553e-26)
(0 4.42845e-33 0)
(0 3.97425e-35 0)
(0 0 -8.59392e-29)
(0 0 0)
(0 0 0)
(0 0 -6.29678e-31)
(0 0 0)
(0 0 0)
(0 0 0)
(0 0 0)
(0 0 0)
(0 0 0)
(0 7.55706e-34 2.05346e-18)
(0 0 0)
(0 0 0)
(0 0 0)
(0 0 2.00505e-18)
(0 0 0)
(0 0 0)
(0 0 0)
(0 4.44705e-25 0)
(0 0 0)
(0 0 0)
(0 0 0)
(0 0 0)
(0 0 0)
(0 0 0)
(0 0 0)
(0 0 0)
(0 0 0)
(0 0 0)
(0 0 0)
(0 0 0)
(0 0 0)
(0 0 0)
(0 0 0)
(0 0 0)
(0 0 0)
(0 0 0)
(0 0 0)
(0 0 3.49668e-28)
(0 0 0)
(0 0 0)
(0 0 0)
(0 0 0)
(0 0 0)
(0 0 0)
(0 0 0)
(0 0 0)
(0 0 0)
(0 0 0)
(0 0 0)
(0 0 0)
(0 0 0)
(0 0 0)
(0 0 0)
(0 0 0)
(0 0 0)
(0 0 0)
(0 0 0)
(0 0 0)
(0 0 0)
(0 0 0)
(0 0 0)
(0 0 0)
(0 0 0)
(0 0 0)
(0 0 0)
(0 0 0)
(0 0 0)
(0 0 0)
(0 0 0)
(0 0 0)
(0 0 0)
(0 0 0)
(0 0 0)
(0 0 0)
(0 0 0)
(0 0 0)
(0 0 0)
(0 0 0)
(0 0 0)
(0 0 0)
(0 0 0)
(0 0 0)
(0 0 0)
(0 0 0)
(0 0 0)
(0 0 0)
(0 0 0)
(0 0 0)
(0 0 0)
(0 0 0)
(0 0 0)
(0 0 0)
(0 0 0)
(0 0 0)
(0 0 0)
(0 0 0)
(0 0 0)
(0 0 0)
(0 0 0)
(0 0 0)
(0 0 0)
(0 0 0)
(0 0 0)
(0 0 0)
(0 0 0)
(0 0 0)
(0 0 0)
(0 0 0)
(0 0 0)
(0 0 0)
(0 0 0)
(0 0 0)
(0 0 0)
(0 0 0)
(0 0 0)
(0 0 0)
(0 0 0)
(0 0 0)
(0 0 0)
(0 0 0)
(0 0 0)
(-6.52053e-21 0 -4.18521e-16)
(5.16091e-40 0 0)
(3.55295e-20 7.39077e-16 0)
(0 0 0)
(0 1.88657e-24 -3.76085e-16)
(4.37071e-47 1.78566e-26 0)
(3.36514e-19 3.5427e-28 0)
(0 6.17692e-30 0)
(0 0 0)
(0 0 0)
(0 0 0)
(0 0 0)
(0 0 0)
(0 0 0)
(0 0 0)
(0 0 0)
(0 0 0)
(0 0 0)
(0 0 0)
(0 0 0)
(0 0 0)
(0 0 0)
(0 0 0)
(0 0 0)
(0 0 3.09765e-16)
(0 0 1.30274e-17)
(0 0 1.69637e-19)
(0 0 1.6567e-21)
(0 0 0)
(0 0 0)
(0 0 0)
(0 0 0)
(0 0 0)
(0 0 0)
(0 0 0)
(0 0 0)
(0 0 0)
(0 0 0)
(0 0 0)
(0 0 0)
(0 0 0)
(0 0 0)
(0 0 0)
(0 0 0)
(0 0 0)
(0 0 0)
(0 0 0)
(0 0 0)
(-5.83511e-23 -1.88659e-20 -2.55269e-15)
(2.59367e-39 -3.72742e-18 0)
(5.70836e-23 -6.19615e-17 0)
(0 -4.18158e-18 0)
(0 -2.10907e-22 0)
(0 -7.50949e-20 0)
(0 -1.36372e-18 0)
(0 -8.34219e-20 0)
(0 -1.01866e-24 0)
(0 -7.10411e-22 0)
(0 -1.2406e-20 0)
(0 -7.86855e-22 0)
(0 -1.04815e-26 2.61783e-15)
(0 -9.54543e-24 2.63615e-16)
(0 -1.94731e-22 5.23934e-18)
(0 -1.08027e-23 6.88577e-20)
(0 0 2.48461e-19)
(0 0 1.72462e-19)
(9.02053e-39 0 0)
(6.01522e-17 0 8.81205e-16)
(-3.63518e-20 0 -2.18183e-15)
(-6.14734e-21 0 1.24321e-15)
(0 0 0)
(0 0 4.81673e-16)
(0 0 2.49755e-16)
(5.72998e-36 0 2.54912e-16)
(0 0 0)
(1.40789e-17 0 0)
(3.43682e-30 0 -8.01528e-16)
(1.41741e-40 0 -1.22117e-15)
(2.00874e-36 0 0)
(2.68022e-17 0 -4.361e-15)
(8.67732e-19 0 0)
(4.30662e-20 0 0)
(2.24351e-19 0 -1.17527e-15)
(0 0 0)
(0 0 0)
(1.10704e-38 0 -6.66364e-15)
(4.02182e-19 8.78832e-15 -6.1188e-15)
(0 0 -6.99436e-15)
(-1.38609e-29 -1.04441e-16 0)
(1.02649e-37 -1.1348e-15 0)
(1.18947e-24 -1.1348e-15 -6.10485e-16)
(0 -1.1348e-15 0)
(-9.83629e-22 -9.34739e-17 2.49418e-22)
(2.53458e-36 -1.08049e-15 2.62293e-15)
(4.04357e-23 -1.19654e-15 1.18577e-16)
(0 -1.12373e-15 2.54842e-15)
(1.10805e-35 -2.82577e-15 -8.56491e-15)
(2.70492e-19 -3.6148e-16 3.91786e-15)
(0 -2.81589e-15 -8.17917e-15)
(0 0 0)
(0 0 6.71378e-23)
(0 0 0)
(0 0 8.74888e-16)
(-4.56048e-22 0 -9.68116e-18)
(0 0 0)
(-3.01252e-24 0 0)
(0 0 0)
(5.42767e-37 0 0)
(1.04693e-38 0 0)
(3.38847e-36 0 -9.27751e-15)
(6.7526e-51 0 -1.10199e-17)
(1.56179e-51 0 4.24349e-19)
(9.30359e-53 0 0)
(0 0 0)
(2.27613e-24 0 0)
(5.16352e-27 0 0)
(7.06832e-39 0 0)
(4.78062e-37 0 2.49513e-21)
(2.05165e-22 0 -2.04248e-15)
(5.85784e-24 0 4.24627e-19)
(0 0 0)
(0 0 0)
(0 0 0)
(0 0 0)
(0 0 2.10017e-19)
(0 0 0)
(0 0 0)
(0 0 9.37636e-17)
(-8.03529e-20 -2.68868e-16 -2.48901e-19)
(-8.90048e-22 -1.87641e-16 -9.68761e-18)
(-9.19945e-19 -2.94055e-16 -2.51041e-17)
(-1.14581e-21 0 -1.7663e-15)
(-1.6509e-25 0 1.63379e-15)
(-4.52858e-21 0 2.35132e-15)
(1.16539e-35 0 2.47564e-15)
(4.44065e-49 0 0)
(0 0 -1.48408e-18)
(1.53916e-34 0 -2.03628e-17)
(5.73323e-33 0 -1.34225e-15)
(3.24989e-35 0 1.54318e-14)
(5.25106e-50 0 2.31132e-15)
(0 1.76549e-16 0)
(0 0 1.0614e-17)
(1.60649e-22 0 1.27385e-16)
(6.87269e-20 0 0)
(1.32033e-21 0 0)
(3.00844e-36 0 -2.08891e-17)
(6.54063e-21 0 2.52599e-15)
(0 0 2.50544e-15)
(0 -1.65206e-17 0)
(0 -2.848e-16 0)
(0 0 2.60159e-19)
(0 0 8.45596e-18)
(0 0 -2.46127e-15)
(0 0 -4.61855e-16)
(9.45455e-51 -1.79765e-14 8.97491e-15)
(6.02239e-50 -2.73915e-14 8.97491e-15)
(0 -1.84032e-14 0)
(0 0 0)
(0 0 0)
(0 0 0)
(1.17596e-34 -1.75777e-14 1.33244e-14)
(1.35448e-19 -2.73915e-14 1.70171e-14)
(0 -2.73915e-14 -1.6339e-14)
(0 0 0)
(-5.23797e-25 0 0)
(-7.14886e-23 -1.73809e-14 0)
(0 0 0)
(1.34384e-51 -2.73915e-14 0)
(0 0 0)
(0 0 1.56107e-14)
(4.68126e-50 -1.76718e-14 -1.18259e-14)
(3.92343e-50 -2.73915e-14 -1.19815e-17)
(0 0 0)
(0 0 -1.85565e-14)
(1.18166e-37 -1.79765e-14 0)
(0 0 8.26801e-16)
(0 0 0)
(2.55062e-49 -2.73915e-14 -1.17331e-14)
(2.20956e-36 -1.79765e-14 1.77974e-19)
(0 0 3.5137e-15)
(0 0 0)
(0 0 0)
(0 0 -5.95414e-15)
(0 0 0)
(0 0 0)
(0 0 0)
(0 0 1.68157e-15)
(0 0 0)
(0 0 -1.81105e-14)
(-6.92178e-24 0 0)
(0 0 0)
(0 0 1.32338e-15)
(0 0 -1.75944e-16)
(0 0 -2.285e-14)
(0 -2.72848e-14 -2.68133e-14)
(0 -1.84032e-14 1.04997e-17)
(0 0 0)
(0 0 -2.1945e-14)
(0 -3.63798e-14 1.28492e-14)
(0 0 0)
(0 0 0)
(0 0 0)
(0 0 0)
(0 0 0)
(0 0 0)
(0 0 0)
(0 0 4.14742e-16)
(0 0 4.1781e-15)
(4.27714e-49 -2.73915e-14 1.9029e-15)
(0 0 0)
(0 0 0)
(2.50166e-32 0 -7.58593e-15)
(3.12655e-48 0 0)
(1.024e-16 -1.81709e-14 2.57701e-14)
(5.76613e-17 -1.88489e-14 1.87766e-14)
(1.59306e-35 -1.79765e-14 -2.92788e-16)
(0 0 0)
(0 0 0)
(3.0501e-18 0 0)
(3.44038e-35 0 -3.68114e-26)
(3.165e-17 -2.71348e-14 1.22662e-14)
(-6.40773e-21 -1.45468e-14 -1.03414e-15)
(0 0 0)
(9.04897e-21 0 5.73106e-29)
(2.06281e-32 0 8.85506e-27)
(0 0 0)
(1.85141e-23 0 -1.23985e-18)
(3.80736e-18 0 -9.13505e-15)
(0 0 0)
(0 0 5.41819e-15)
(0 0 1.43738e-16)
(-3.66729e-15 0 -1.08723e-15)
(0 0 0)
(0 0 0)
(0 0 0)
(3.29313e-29 0 0)
(0 0 -8.12038e-15)
(3.24337e-27 0 0)
(0 0 0)
(0 0 0)
(0 0 0)
(0 0 3.35781e-15)
(1.60835e-23 0 0)
(2.5053e-25 0 0)
(-2.44454e-28 0 0)
(0 0 3.81324e-17)
(-1.01578e-26 0 0)
(0 0 -9.12344e-16)
(0 0 6.6346e-15)
(0 0 -5.73048e-15)
(0 0 6.09633e-15)
(-1.10314e-23 0 0)
(-3.64278e-25 0 0)
(0 0 1.5883e-14)
(0 0 3.2314e-15)
(0 0 -2.19968e-15)
(8.73468e-22 0 0)
(-2.92581e-23 0 2.60551e-14)
(3.88739e-20 0 2.49235e-24)
(-2.85719e-22 0 0)
(0 0 3.42151e-15)
(-2.58983e-21 0 -5.12903e-17)
(0 0 -4.06313e-15)
(0 0 0)
(0 0 1.71339e-14)
(0 0 -3.79924e-15)
(0 -2.72848e-14 -2.08752e-14)
(0 -1.42052e-14 1.07888e-14)
(0 -3.35647e-14 -7.35089e-16)
(3.28784e-15 -3.14438e-14 -1.20645e-14)
(-8.90012e-17 -3.17957e-14 1.60498e-14)
(4.21943e-17 0 0)
(0 0 -8.98444e-16)
(-1.57599e-19 0 1.40396e-15)
(0 0 7.28989e-15)
(-3.50121e-20 0 0)
(0 0 0)
(0 0 -4.48176e-15)
(0 0 1.11691e-14)
(0 0 3.46007e-15)
(0 0 -4.62814e-15)
(0 0 4.23627e-16)
(0 0 -4.95513e-15)
(4.7909e-47 0 -5.27973e-17)
(6.4322e-16 -2.84122e-14 -5.91305e-15)
(1.29814e-15 0 -1.14336e-15)
(4.80533e-33 0 2.94509e-17)
(3.35649e-17 0 1.58228e-16)
(3.69691e-16 -2.81344e-14 1.37558e-15)
(3.60075e-32 -4.74493e-15 7.30321e-17)
(0 0 2.86226e-15)
(0 0 3.6351e-16)
(0 0 1.39801e-15)
(0 0 2.60927e-14)
(0 0 0)
(0 0 0)
(0 0 0)
(0 0 0)
(0 0 0)
(0 0 0)
(0 0 0)
(0 0 0)
(0 0 0)
(0 0 0)
(0 0 0)
(0 0 0)
(0 0 0)
(0 0 0)
(0 0 0)
(0 0 0)
(0 0 0)
(0 0 -1.80317e-14)
(0 0 0)
(0 0 0)
(0 0 0)
(0 0 -1.03805e-17)
(0 0 0)
(0 0 0)
(0 0 0)
(0 0 0)
(0 0 0)
(0 0 0)
(0 0 3.2482e-16)
(0 0 1.56827e-14)
(0 0 -2.47117e-14)
(0 0 0)
(0 0 2.64613e-14)
(0 0 0)
(0 0 0)
(0 0 0)
(0 0 0)
(0 0 1.40636e-14)
(0 0 0)
(0 0 0)
(0 0 0)
(0 0 -2.01417e-14)
(0 0 0)
(0 0 0)
(0 0 0)
(0 0 8.81378e-16)
(0 0 1.08989e-14)
(0 0 0)
(0 0 0)
(0 0 1.32269e-14)
(0 0 -2.59298e-15)
(0 0 -3.51768e-15)
(0 0 2.01021e-14)
(0 0 0)
(0 0 -1.37884e-14)
(0 0 -2.04269e-14)
(0 0 0)
(0 0 6.70353e-15)
(0 0 0)
(0 0 0)
(0 0 3.74452e-17)
(0 0 0)
(0 0 0)
(0 0 1.75944e-15)
(0 0 -7.9682e-15)
(0 0 5.50895e-15)
(0 0 3.43466e-14)
(0 0 0)
(0 0 0)
(0 0 -1.9775e-15)
(0 0 2.30417e-14)
(0 0 0)
(0 0 0)
(0 0 1.67035e-15)
(0 0 0)
(0 0 0)
(0 0 0)
(0 0 0)
(0 0 0)
(0 0 6.75478e-18)
(0 0 0)
(0 0 5.96233e-17)
(0 0 1.83538e-17)
(0 0 2.47217e-18)
(0 0 0)
(0 0 0)
(0 0 5.21148e-15)
(0 0 0)
(0 0 1.02202e-15)
(0 0 2.41539e-16)
(0 0 1.18606e-15)
(0 0 0)
(0 0 0)
(0 0 -3.79545e-15)
(0 0 0)
(0 0 -2.14354e-14)
(0 0 2.69165e-14)
(0 0 7.00191e-15)
(0 0 -1.05131e-14)
(0 0 0)
(0 0 7.71918e-15)
(0 0 0)
(0 0 -3.78897e-16)
(0 0 2.24466e-16)
(0 0 2.36062e-15)
(0 0 -8.65387e-16)
(0 0 1.04731e-15)
(0 0 -1.43969e-14)
(0 0 -3.21964e-14)
(0 0 -1.05566e-15)
(0 0 3.35439e-14)
(0 0 -5.70507e-15)
(0 0 2.68946e-15)
(0 0 6.20015e-15)
(0 0 -5.38306e-15)
(0 0 -3.51888e-16)
(0 0 2.51478e-14)
(0 0 6.44403e-15)
(0 0 3.29231e-14)
(0 0 0)
(0 0 -8.6732e-15)
(0 0 0)
(0 0 0)
(0 0 8.99182e-15)
(0 0 -6.14561e-16)
(0 0 -2.72392e-14)
(0 0 1.08575e-15)
(0 0 6.27756e-15)
(0 0 2.57304e-14)
(0 0 3.95792e-16)
(0 0 -2.47008e-14)
(0 0 0)
(0 0 0)
(0 0 4.46049e-15)
(0 0 3.3467e-14)
(0 0 -3.51888e-16)
(0 0 0)
(0 0 -3.51888e-16)
(0 0 1.34706e-14)
(0 0 -2.89741e-16)
(0 0 4.45825e-15)
(0 0 2.56231e-16)
(0 0 -3.84337e-15)
(0 0 1.8236e-14)
(0 0 0)
(0 0 -1.12886e-14)
(0 0 0)
(0 0 0)
(0 0 -1.5387e-14)
(0 0 0)
(0 0 0)
(0 0 -1.7308e-15)
(0 0 2.20273e-15)
(0 0 4.75039e-15)
(0 0 0)
(0 0 2.14571e-14)
(0 0 -2.12616e-14)
(0 0 -8.39117e-15)
(0 0 3.7313e-15)
(0 0 -3.46674e-14)
(0 0 1.80759e-15)
(0 0 9.22708e-15)
(0 0 -8.38664e-15)
(0 -1.39601e-14 0)
(0 0 0)
(0 0 0)
(0 0 0)
(0 0 0)
(0 0 0)
(0 0 0)
(0 0 0)
(0 0 0)
(0 0 0)
(0 0 0)
(0 0 0)
(0 0 0)
(0 0 0)
(0 0 0)
(0 0 0)
(-4.41094e-26 -1.39763e-14 1.02911e-14)
(0 0 0)
(0 0 0)
(0 0 0)
(0 0 0)
(0 0 0)
(0 0 0)
(0 0 0)
(0 0 0)
(0 0 0)
(-1.72144e-21 -1.66376e-14 -3.17561e-17)
(0 0 0)
(0 0 0)
(0 0 0)
(4.08107e-15 6.39445e-16 1.49477e-16)
(-6.47013e-23 0 1.77312e-16)
(4.70296e-23 0 2.31302e-15)
(-2.3612e-20 -1.61496e-14 1.28723e-15)
(0 0 0)
(-1.91033e-17 0 -4.836e-16)
(-3.34553e-16 -1.6553e-14 1.6613e-14)
(1.41138e-14 3.98729e-16 -7.74294e-15)
(2.7537e-15 2.54226e-14 1.0372e-14)
(3.95409e-17 6.1107e-19 -2.31666e-14)
(1.62942e-19 0 -1.46173e-14)
(0 0 0)
(0 0 0)
(0 0 0)
(0 0 0)
(0 0 -1.86629e-26)
(0 0 0)
(1.17214e-18 -7.25931e-17 -4.34127e-15)
(-7.85381e-19 -7.25931e-17 4.28583e-15)
(0 0 4.43969e-20)
(2.53473e-19 0 1.50975e-16)
(4.08162e-15 6.39445e-16 1.4694e-16)
(1.17931e-31 0 1.92465e-16)
(-9.81363e-23 0 -7.79491e-15)
(8.26818e-18 0 8.72904e-17)
(0 1.23707e-19 5.00591e-16)
(1.09853e-18 0 9.24397e-17)
(0 0 9.10527e-20)
(4.61352e-27 0 -1.83662e-14)
(5.516e-23 0 -2.55664e-15)
(4.5696e-16 0 6.63734e-15)
(0 0 5.16798e-15)
(2.13904e-23 0 0)
(0 0 1.62162e-14)
(-5.26169e-20 0 0)
(-2.60264e-19 0 1.85487e-16)
(3.70504e-18 8.0509e-31 7.16679e-15)
(0 1.01812e-32 -1.64863e-15)
(0 0 0)
(0 0 0)
(0 0 0)
(0 0 0)
(0 0 0)
(0 0 0)
(0 0 0)
(0 0 0)
(0 0 0)
(0 0 -3.39826e-26)
(0 0 0)
(0 0 -2.11799e-26)
(0 0 -3.19194e-27)
(0 0 -1.82828e-26)
(0 0 0)
(1.61542e-22 0 -3.94941e-15)
(0 -2.87211e-14 1.3752e-14)
(0 0 2.4332e-16)
(0 0 6.28585e-15)
(0 0 -2.68712e-14)
(0 0 2.86016e-15)
(0 0 -1.07999e-14)
(0 0 0)
(-1.99938e-14 3.11798e-15 -7.03997e-15)
(-2.44295e-14 2.21329e-14 1.36047e-14)
(-5.11382e-15 -6.64383e-17 -1.41941e-19)
(0 0 -2.82815e-14)
(0 0 2.33693e-15)
(0 0 -1.50283e-14)
(0 0 2.93821e-14)
(0 0 -4.08593e-14)
(0 0 -3.35065e-14)
(3.55796e-15 -6.61959e-16 -4.26662e-15)
(-2.46873e-14 -5.79981e-16 -4.51007e-15)
(0 0 -2.57414e-16)
(0 0 0)
(0 0 0)
(0 0 -1.20993e-15)
(0 0 -9.83988e-16)
(0 0 -2.80062e-14)
(0 0 -4.25333e-17)
(0 0 1.15848e-18)
(0 0 3.78768e-16)
(0 0 0)
(0 0 5.58999e-17)
(0 0 8.70466e-18)
(0 0 -5.85304e-17)
(0 0 1.92429e-17)
(0 0 1.74602e-14)
(0 0 -1.47493e-15)
(0 0 -1.43907e-15)
(-2.33684e-19 0 -5.07677e-16)
(0 0 -3.95022e-15)
(0 0 9.58679e-16)
(-7.10147e-18 0 2.19976e-17)
(0 0 0)
(0 0 -8.14005e-16)
(0 0 -9.40478e-18)
(0 0 0)
(0 0 -3.01246e-15)
(0 0 0)
(0 0 -4.60121e-16)
(0 0 7.36195e-21)
(0 0 4.27913e-19)
(0 0 -1.23214e-14)
(0 0 -4.56542e-15)
(0 0 0)
(0 0 1.16901e-15)
(0 0 -2.66714e-15)
(0 0 2.43482e-15)
(0 0 2.9884e-14)
(1.91939e-22 1.86159e-17 2.02096e-17)
(7.1089e-16 5.54649e-19 -2.5274e-15)
(1.41009e-14 9.46214e-20 8.84409e-15)
(0 0 1.49667e-15)
(0 0 1.91431e-15)
(0 0 1.92814e-14)
(0 0 -3.4982e-15)
(0 0 -2.10286e-15)
(0 1.25033e-18 -7.05518e-15)
(0 -8.9381e-21 -3.55616e-19)
(0 1.04947e-19 1.33197e-23)
(0 2.06167e-18 6.95683e-17)
(0 0 -1.79829e-15)
(0 0 -2.11039e-15)
(0 0 1.78356e-16)
(0 1.22075e-17 0)
(0 6.17379e-16 9.19139e-15)
(0 1.55059e-16 0)
(0 4.03494e-17 1.01008e-15)
(0 0 -5.98961e-15)
(0 0 4.02652e-17)
(0 0 5.58764e-17)
(0 0 1.57245e-14)
(0 0 0)
(0 0 0)
(0 0 0)
(5.87051e-15 0 -1.21292e-14)
(2.10076e-14 -3.3138e-14 -1.07662e-14)
(-3.26572e-14 3.67458e-16 -1.52638e-15)
(0 0 -1.51354e-14)
(0 0 -4.39945e-15)
(0 0 0)
(0 0 1.84359e-14)
(0 0 0)
(2.49471e-14 2.2683e-14 2.42981e-15)
(0 2.61184e-17 -2.26232e-15)
(8.90344e-18 6.0231e-16 1.86359e-15)
(-7.05462e-16 -6.53047e-17 1.75148e-19)
(-5.31368e-19 -1.35604e-22 2.58906e-19)
(0 0 -1.18373e-15)
(0 0 -7.23186e-15)
(0 0 0)
(0 0 0)
(0 0 -3.51017e-15)
(0 0 3.56599e-17)
(0 0 0)
(0 0 -7.39207e-15)
(0 0 -4.4183e-14)
(0 0 -9.33511e-15)
(0 0 0)
(4.02515e-15 0 -2.22042e-14)
(1.43195e-18 0 2.23363e-16)
(0 0 -1.14556e-14)
(0 0 -2.79778e-14)
(0 3.88389e-15 3.28532e-14)
(0 6.01897e-16 -2.66812e-14)
(0 0 -3.25123e-15)
(0 0 3.77142e-15)
(0 0 -1.20567e-15)
(0 0 1.15801e-14)
(0 0 -1.06428e-14)
(0 0 0)
(0 0 6.25987e-17)
(0 0 -8.07111e-16)
(0 0 5.15548e-16)
(0 0 -2.62396e-16)
(0 0 -4.81349e-16)
(0 0 2.38938e-16)
(0 0 7.95296e-16)
(0 0 1.05818e-14)
(0 0 2.26491e-16)
(0 0 -3.56987e-16)
(0 0 0)
(0 0 -6.3001e-15)
(0 0 4.27612e-15)
(0 0 -1.89113e-14)
(0 0 1.3534e-15)
(0 0 1.04127e-14)
(0 0 1.36019e-14)
(0 0 6.19976e-16)
(0 0 -6.16281e-15)
(0 0 0)
(0 0 0)
(0 0 0)
(0 0 -1.70223e-17)
(0 0 -6.86753e-16)
(0 0 -1.63451e-15)
(0 0 -3.49271e-15)
(0 0 7.83955e-15)
(0 0 8.99526e-15)
(0 0 -1.59495e-14)
(0 0 3.55827e-14)
(0 0 0)
(0 0 0)
(0 0 -1.11976e-15)
(0 0 0)
(0 3.23154e-14 -3.36053e-14)
(0 0 0)
(0 3.25766e-14 3.14471e-16)
(0 0 5.63835e-15)
(0 0 1.98167e-14)
(0 0 -4.51124e-15)
(0 0 -3.06089e-14)
(0 0 2.42827e-15)
(0 0 -1.28476e-15)
(0 0 2.17253e-15)
(0 0 -1.73035e-14)
(0 3.25766e-14 -2.87376e-15)
(0 0 -2.12367e-14)
(0 3.22412e-14 5.46677e-16)
(0 0 3.16261e-14)
(0 0 -1.05678e-15)
(0 0 -9.22136e-16)
(1.38735e-14 -1.60183e-15 9.92883e-15)
(0 0 2.49588e-14)
(0 0 0)
(0 0 -1.54304e-14)
(0 -5.29113e-22 -9.43665e-15)
(0 -5.58707e-24 -3.13992e-15)
(0 -3.48175e-23 -1.03066e-16)
(0 -1.24268e-22 -6.71597e-15)
(0 0 6.7648e-15)
(0 0 -1.4969e-14)
(0 0 1.91427e-14)
(0 -7.83238e-21 2.37109e-14)
(0 -1.89667e-20 0)
(0 -9.37819e-20 -1.69852e-14)
(0 -1.49442e-21 0)
(0 0 0)
(0 0 6.58286e-15)
(0 0 1.86541e-14)
(0 -2.45488e-19 0)
(0 -1.01851e-18 1.67608e-14)
(0 -8.333e-18 -2.61161e-14)
(0 -2.09132e-18 0)
(0 0 1.58854e-14)
(0 0 -3.47538e-16)
(0 0 0)
(0 -6.58523e-17 0)
(0 -8.20475e-17 0)
(0 -5.40343e-16 0)
(0 -1.50195e-17 0)
(2.2341e-39 -1.02024e-15 0)
(3.19258e-33 -9.77724e-16 -5.48217e-15)
(7.28561e-30 -2.53819e-15 -5.7253e-15)
(0 0 -1.79336e-14)
(0 0 -2.94979e-18)
(0 0 -4.59751e-23)
(0 0 0)
(0 0 0)
(0 0 0)
(0 0 1.09488e-15)
(0 0 -2.24665e-16)
(0 0 1.95116e-17)
(0 0 1.65527e-16)
(0 0 1.40803e-15)
(0 0 1.37502e-14)
(0 0 3.48019e-16)
(0 0 5.40625e-21)
(0 0 0)
(0 0 2.00578e-16)
(6.12788e-26 5.23808e-20 -2.55362e-19)
(7.09723e-28 0 -9.31104e-26)
(0 0 -4.59637e-18)
(0 0 -3.30428e-19)
(0 0 8.17455e-20)
(0 0 1.92467e-21)
(0 0 0)
(0 0 0)
(0 0 0)
(0 0 0)
(0 0 0)
(8.80538e-42 0 0)
(0 0 0)
(0 0 -3.33025e-17)
(2.07703e-42 0 0)
(0 0 -3.33025e-17)
(0 0 0)
(0 0 0)
(0 0 0)
(0 0 0)
(0 0 0)
(4.05099e-29 0 -4.78616e-16)
(0 0 -1.23329e-16)
(0 0 1.16434e-16)
(4.31333e-41 0 1.3774e-17)
(0 0 1.08951e-16)
(0 0 8.25186e-27)
(0 0 0)
(0 0 0)
(0 0 0)
(0 0 0)
(0 1.0731e-20 -7.98228e-15)
(0 0 -2.98185e-16)
(1.67543e-36 2.42718e-15 1.55551e-16)
(0 0 -8.84324e-17)
(7.41927e-26 0 -3.85414e-17)
(0 0 -5.9727e-16)
(0 0 -3.76586e-17)
(0 0 4.31214e-18)
(0 0 -1.98376e-18)
(0 0 -2.61751e-18)
(0 0 -1.32507e-17)
(0 0 -1.2659e-18)
(0 0 6.2507e-20)
(0 0 -3.75633e-20)
(2.7999e-21 2.68123e-20 -8.14404e-15)
(0 3.58827e-16 -1.62214e-14)
(0 0 -1.96501e-16)
(1.23645e-32 2.30942e-15 2.25148e-16)
(0 0 3.23455e-18)
(0 9.94397e-26 -4.08707e-16)
(0 8.49139e-28 -2.53432e-17)
(0 2.22635e-30 6.82951e-18)
(0 1.16472e-32 2.06085e-19)
(0 0 7.87871e-21)
(0 0 0)
(0 0 2.57543e-16)
(0 0 9.21812e-25)
(0 2.49265e-18 -4.39693e-16)
(0 0 -5.8308e-17)
(0 0 -1.80225e-18)
(1.93998e-24 6.7905e-19 2.95776e-16)
(-1.86736e-18 -2.22627e-15 7.78423e-16)
(5.48555e-25 -8.61254e-23 2.6269e-15)
(3.09509e-19 -1.00014e-18 0)
(9.79107e-18 -8.98194e-19 -1.0376e-18)
(0 0 1.88479e-16)
(0 -1.12946e-15 5.47616e-16)
(0 0 4.29261e-15)
(0 0 -3.62339e-16)
(0 0 -3.05216e-20)
(0 0 -2.25735e-15)
(0 0 -1.53171e-14)
(0 0 1.71601e-15)
(0 -2.27724e-15 1.34888e-14)
(0 0 0)
(0 0 0)
(0 0 0)
(0 0 0)
(0 0 0)
(0 0 0)
(0 0 0)
(0 0 0)
(0 0 0)
(0 0 0)
(0 0 0)
(0 0 0)
(0 0 -7.89647e-21)
(0 0 1.17296e-14)
(0 0 0)
(2.97247e-24 0 0)
(0 -1.25995e-15 0)
(0 0 0)
(0 -2.27724e-15 -9.31152e-15)
(0 -1.52708e-15 2.91403e-17)
(0 0 0)
(0 0 0)
(0 0 0)
(0 0 0)
(0 0 0)
(0 0 0)
(0 -1.79007e-15 1.21866e-15)
(0 0 0)
(0 0 0)
(3.66925e-17 0 -9.14349e-15)
(0 0 -1.8427e-15)
(0 -1.81899e-14 1.41995e-15)
(0 0 0)
(0 0 0)
(0 0 0)
(0 0 0)
(0 0 0)
(0 0 0)
(0 0 0)
(0 0 0)
(0 0 0)
(0 0 0)
(0 0 0)
(0 0 0)
(0 0 0)
(0 0 -3.93949e-16)
(-5.46159e-18 0 3.66637e-15)
(3.71416e-16 0 1.16443e-14)
(0 0 4.59803e-16)
(1.98517e-25 0 1.78481e-14)
(3.70186e-16 0 3.5483e-16)
(0 0 4.522e-16)
(0 0 0)
(0 0 0)
(0 0 0)
(0 0 0)
(0 0 0)
(0 0 0)
(0 0 0)
(0 0 0)
(0 0 0)
(0 0 0)
(0 0 0)
(0 0 0)
(0 0 0)
(0 0 0)
(0 0 0)
(0 0 0)
(0 0 0)
(0 0 0)
(0 0 0)
(0 0 0)
(0 0 0)
(0 0 0)
(0 0 0)
(0 0 0)
(0 0 0)
(0 0 0)
(0 0 2.46307e-32)
(0 0 0)
(0 0 -6.69505e-33)
(0 0 9.99753e-32)
(0 0 6.01791e-31)
(1.00422e-18 0 -1.07692e-14)
(1.49766e-15 -1.55316e-15 4.85887e-15)
(0 0 0)
(0 0 0)
(0 0 5.72041e-15)
(0 0 4.84636e-19)
(0 0 0)
(0 0 -1.27597e-16)
(0 0 0)
(0 2.91855e-20 1.65145e-20)
(0 0 -2.15004e-17)
(0 0 1.21462e-16)
(0 0 1.61921e-18)
(0 0 -1.84052e-15)
(0 0 -7.67226e-15)
(0 0 -1.68047e-15)
(-2.50775e-24 -1.37416e-14 7.35741e-15)
(0 0 0)
(-1.81461e-16 0 0)
(0 0 0)
(-3.98341e-23 0 -9.54998e-15)
(-2.80599e-24 -1.81851e-14 2.50659e-14)
(0 0 0)
(0 0 0)
(0 0 0)
(-3.58467e-20 0 0)
(-7.84795e-22 0 -4.2821e-17)
(-3.45768e-16 0 2.70939e-15)
(0 0 -5.65279e-15)
(-3.90656e-20 0 -4.27185e-17)
(-3.69857e-20 0 -5.09224e-17)
(0 0 0)
(0 0 0)
(0 0 -3.62845e-30)
(0 0 0)
(0 0 -1.2915e-28)
(0 0 -2.01825e-29)
(0 0 2.53167e-30)
(-8.35688e-19 0 -1.1147e-14)
(0 -1.23451e-14 0)
(0 0 0)
(0 -1.49273e-14 1.97909e-14)
(0 0 -2.71948e-30)
(0 -1.613e-14 -1.28736e-16)
(0 0 0)
(0 -1.23451e-14 1.02804e-19)
(0 -1.613e-14 3.19675e-18)
(0 0 0)
(0 0 0)
(0 0 4.08092e-19)
(0 0 0)
(0 0 0)
(0 0 0)
(0 0 0)
(0 -1.2388e-14 1.83556e-15)
(0 -1.613e-14 1.33218e-14)
(0 0 -1.1357e-32)
(0 0 0)
(0 0 0)
(0 4.7041e-15 7.11077e-15)
(0 0 0)
(0 0 0)
(0 0 0)
(0 0 2.7725e-19)
(0 0 2.46606e-23)
(0 0 0)
(-1.06402e-17 0 0)
(0 0 2.38363e-23)
(0 0 0)
(-2.63687e-16 0 2.34695e-22)
(0 -4.76967e-15 -1.23007e-15)
(0 0 -3.13457e-18)
(0 0 0)
(0 0 0)
(0 0 0)
(0 0 0)
(0 0 0)
(0 0 0)
(0 0 0)
(0 0 0)
(0 0 0)
(0 0 0)
(0 0 0)
(0 0 0)
(0 0 0)
(0 0 0)
(0 0 -1.7721e-31)
(0 0 0)
(0 0 0)
(0 0 0)
(0 0 0)
(0 0 0)
(0 0 0)
(0 0 0)
(0 0 0)
(0 0 0)
(0 0 0)
(0 0 0)
(0 0 3.28034e-19)
(0 0 0)
(0 -1.60943e-14 2.55658e-14)
(0 -4.67128e-15 1.67625e-14)
(0 0 0)
(0 0 0)
(0 0 0)
(0 0 0)
(0 0 0)
(0 0 0)
(0 0 0)
(0 0 0)
(0 0 0)
(0 0 0)
(0 0 2.9455e-19)
(0 0 2.74897e-22)
(0 0 0)
(0 0 1.96306e-21)
(0 0 0)
(0 0 0)
(0 0 0)
(0 0 0)
(0 0 0)
(0 0 0)
(0 0 0)
(0 0 0)
(0 0 0)
(0 0 0)
(0 0 0)
(0 0 0)
(0 0 0)
(0 0 0)
(0 0 0)
(0 0 0)
(0 0 0)
(0 0 0)
(0 0 0)
(0 0 0)
(0 0 0)
(4.28581e-26 -1.81899e-14 2.41537e-14)
(0 0 0)
(0 0 0)
(0 0 1.26509e-20)
(0 0 0)
(1.04552e-24 0 -8.99906e-15)
(0 0 0)
(0 0 0)
(0 0 0)
(0 0 0)
(1.86791e-14 2.52016e-14 2.08487e-14)
(3.96614e-16 0 0)
(1.92968e-17 4.02374e-18 1.07529e-14)
(4.09514e-33 0 6.60514e-18)
(3.64276e-17 0 2.04526e-17)
(9.47127e-18 0 3.94093e-18)
(5.77592e-17 1.21731e-17 1.26109e-17)
(3.92975e-46 2.65264e-28 -4.81372e-15)
(-4.16988e-15 -8.43411e-16 1.20305e-14)
(0 0 0)
(1.81777e-51 -5.61557e-19 -2.72627e-14)
(0 -1.50811e-18 -5.59136e-18)
(0 0 0)
(-7.35766e-22 0 0)
(0 0 6.05261e-27)
(0 0 3.80144e-23)
(2.04162e-21 0 0)
(0 0 -5.03652e-15)
(0 0 3.41925e-21)
(0 0 -1.56056e-14)
(0 0 -5.10568e-15)
(0 1.61279e-25 0)
(0 2.0664e-20 -8.57362e-18)
(0 0 1.50997e-18)
(0 0 0)
(-5.53112e-20 0 0)
(4.86154e-20 0 0)
(0 0 -2.26658e-14)
(0 0 0)
(0 4.25183e-19 -5.39027e-21)
(0 0 0)
(0 0 1.5949e-31)
(0 2.13356e-16 0)
(0 2.13356e-16 0)
(-4.57338e-15 0 -1.01635e-15)
(0 4.36119e-15 2.3476e-14)
(0 0 0)
(0 -2.80719e-14 2.72016e-14)
(-2.80538e-14 0 2.72848e-14)
(0 8.09886e-20 1.27896e-17)
(0 -3.13691e-21 0)
(-5.89213e-15 -1.92482e-14 1.19921e-14)
(8.40213e-16 0 -5.27832e-16)
(6.83021e-15 0 2.11246e-14)
(2.51921e-14 -4.26712e-16 2.08536e-14)
(-2.8059e-14 3.00458e-14 1.74161e-14)
(3.48112e-17 0 -1.5529e-14)
(1.72055e-51 6.77984e-19 -2.33929e-14)
(5.62927e-21 0 2.05624e-15)
(1.21825e-16 -8.66619e-18 -1.57976e-14)
(1.93289e-14 -2.37472e-14 -9.42669e-15)
(-1.37712e-16 0 -3.95332e-15)
(-4.39399e-16 -8.89183e-18 0)
(0 0 0)
(0 0 2.84098e-22)
(0 0 1.48835e-21)
(0 0 0)
(0 0 4.04681e-22)
(0 0 0)
(0 0 5.30949e-21)
(0 0 0)
(0 0 -2.91705e-19)
(-2.75086e-20 0 -4.8807e-20)
(0 0 0)
(0 0 -2.5965e-18)
(0 0 0)
(0 0 -2.91037e-19)
(0 0 0)
(0 0 0)
(0 0 4.0659e-26)
(0 0 7.34749e-26)
(0 0 0)
(0 0 0)
(0 0 6.55867e-25)
(0 0 0)
(0 0 0)
(0 0 4.64175e-22)
(0 0 1.38913e-24)
(0 0 0)
(0 0 0)
(0 0 1.97092e-23)
(0 0 0)
(0 0 2.94812e-18)
(3.16641e-20 0 -6.74829e-19)
(0 0 0)
(0 0 -2.12052e-17)
(0 0 0)
(0 0 -2.60912e-16)
(0 0 0)
(0 0 -7.03332e-18)
(0 0 -1.1178e-15)
(0 0 0)
(0 0 -1.89727e-14)
(0 0 1.34346e-14)
(0 0 -4.66426e-15)
(0 0 0)
(0 0 0)
(0 0 7.38432e-21)
(0 0 2.34624e-20)
(0 0 0)
(0 0 0)
(0 0 1.31921e-20)
(0 0 0)
(0 0 2.73072e-14)
(0 -3.00621e-16 -1.29714e-16)
(0 0 2.21225e-20)
(0 -3.4875e-17 4.98345e-15)
(0 0 5.06725e-16)
(0 0 -3.42322e-18)
(4.96518e-17 0 9.44279e-19)
(0 0 1.09934e-15)
(0 -3.79809e-15 -1.60534e-15)
(2.75286e-15 0 -1.83194e-14)
(0 -1.9047e-16 3.68308e-17)
(3.08511e-16 0 1.6727e-14)
(3.17528e-16 0 -5.60313e-15)
(-2.87405e-14 3.95254e-24 2.58773e-14)
(0 2.72039e-14 2.72848e-14)
(0 4.06473e-28 0)
(0 -2.56773e-14 2.40345e-14)
(-2.95145e-14 -3.78245e-15 9.31734e-15)
(0 -3.02114e-15 0)
(0 -6.22091e-16 0)
(-1.69126e-14 2.08025e-22 1.79298e-14)
(3.50143e-15 3.40666e-24 0)
(2.53051e-14 3.56367e-23 2.72848e-14)
(0 0 0)
(0 0 2.85961e-21)
(0 0 7.95859e-21)
(0 0 0)
(0 0 1.34722e-20)
(0 0 0)
(0 0 4.10062e-20)
(0 0 0)
(0 0 -1.92332e-20)
(-6.64993e-19 0 -9.45772e-22)
(-7.25443e-19 0 0)
(-4.65559e-18 0 -1.26572e-19)
(0 0 0)
(-4.35709e-18 0 -1.02564e-20)
(0 0 0)
(0 0 5.84412e-20)
(7.28617e-19 0 2.65087e-19)
(0 8.39015e-26 0)
(4.68445e-18 0 1.72768e-18)
(5.04637e-19 0 0)
(0 4.95552e-25 2.91242e-19)
(0 0 0)
(0 0 -7.53318e-18)
(0 0 2.54763e-20)
(0 1.29705e-24 0)
(0 4.78344e-23 1.06016e-18)
(0 4.82119e-24 1.22116e-21)
(0 8.08709e-24 3.01562e-19)
(0 -4.41375e-16 -1.7733e-14)
(7.61917e-17 0 2.12519e-14)
(3.60099e-16 -5.284e-16 2.54345e-14)
(-5.32769e-16 1.2734e-17 1.38082e-14)
(0 0 0)
(0 0 1.72183e-18)
(0 -1.15361e-18 1.69184e-18)
(0 0 8.62618e-20)
(0 -1.63026e-19 2.18099e-18)
(0 0 0)
(0 0 3.27549e-19)
(-3.52192e-18 0 1.76985e-21)
(-3.38235e-17 0 -9.37189e-19)
(0 0 1.88944e-23)
(-3.46789e-17 0 -7.68314e-20)
(3.261e-17 0 1.41882e-17)
(3.8208e-18 0 5.82129e-18)
(0 0 0)
(0 1.09427e-19 0)
(0 0 0)
(0 1.08232e-20 0)
(0 0 0)
(0 1.87594e-19 0)
(0 1.66367e-18 0)
(0 0 -1.72606e-15)
(2.24795e-50 0 1.95714e-15)
(4.93712e-20 0 6.29003e-15)
(0 0 -1.71891e-15)
(0 1.57034e-26 -9.47201e-15)
(0 -2.41548e-19 0)
(0 2.54444e-14 2.56801e-14)
(0 5.14511e-16 2.72848e-14)
(0 0 -1.29201e-15)
(0 0 7.16133e-16)
(0 0 6.99235e-16)
(0 0 7.05931e-16)
(0 0 0)
(0 0 0)
(0 0 0)
(0 8.42418e-17 0)
(0 4.54845e-15 0)
(0 2.75084e-16 0)
(0 9.36124e-16 0)
(0 0 0)
(0 0 0)
(0 0 0)
(0 2.44411e-18 0)
(0 1.59789e-16 0)
(0 2.22319e-17 0)
(0 1.58606e-17 0)
(0 -5.70853e-18 -7.53764e-15)
(0 2.61596e-17 -1.06635e-19)
(0 -3.64913e-16 3.79647e-15)
(5.92565e-19 6.90182e-20 9.09495e-15)
(0 0 -3.23688e-19)
(0 0 0)
(2.10704e-16 6.93254e-16 2.72117e-14)
(0 0 8.71415e-23)
(0 0 0)
(0 0 2.99275e-22)
(0 0 0)
(3.16993e-30 0 0)
(0 0 0)
(0 0 0)
(4.6349e-28 1.60223e-17 0)
(1.61579e-19 -2.18615e-16 1.37565e-15)
(5.81759e-20 7.74853e-22 0)
(0 0 0)
(5.74327e-46 1.61892e-15 0)
(0 0 0)
(1.46295e-39 9.86056e-16 1.90943e-14)
(0 2.13356e-16 0)
(0 0 0)
(0 0 0)
(0 0 0)
(0 0 0)
(0 0 0)
(0 0 0)
(-1.52012e-23 -4.74381e-27 0)
(0 0 1.52141e-18)
(0 0 -2.82602e-19)
(0 0 0)
(0 0 0)
(0 1.30131e-26 0)
(0 0 0)
(0 9.35485e-29 0)
(0 0 0)
(0 0 0)
(0 9.64918e-28 0)
(0 3.63732e-28 0)
(0 0 0)
(4.19777e-27 1.55328e-14 0)
(1.52957e-37 5.26501e-15 -1.44384e-14)
(0 0 0)
(0 0 0)
(1.28451e-24 1.81899e-14 0)
(5.57542e-22 1.81899e-14 1.90244e-14)
(0 2.13356e-16 -2.72391e-15)
(9.43287e-18 -1.81345e-15 2.72848e-14)
(2.39856e-22 2.05868e-14 5.98704e-15)
(2.6605e-21 0 0)
(3.45802e-16 -2.58643e-14 8.22726e-15)
(3.72546e-22 0 2.69065e-14)
(7.61778e-18 1.39993e-16 2.79158e-14)
(3.61311e-21 1.08824e-17 1.40755e-15)
(0 4.52569e-25 0)
(0 0 0)
(0 1.14143e-27 0)
(0 0 0)
(0 0 0)
(0 1.40675e-26 0)
(0 4.50846e-27 0)
(0 6.8441e-24 0)
(0 0 0)
(0 0 0)
(0 3.69245e-24 0)
(0 0 0)
(0 3.94176e-25 0)
(0 2.45308e-23 0)
(0 2.44473e-25 0)
(0 0 0)
(0 0 0)
(0 2.18965e-25 0)
(0 0 0)
(0 1.76745e-26 0)
(0 1.53247e-24 0)
(0 0 0)
(0 0 4.30436e-22)
(0 0 1.2146e-21)
(0 0 0)
(0 0 2.35347e-28)
(0 0 0)
(0 0 2.15634e-29)
(0 0 0)
(0 0 1.01244e-22)
(0 0 8.93384e-24)
(0 0 0)
(0 0 0)
(0 0 0)
(0 0 0)
(0 0 0)
(0 0 0)
(0 0 0)
(0 0 0)
(0 0 0)
(0 0 0)
(0 0 0)
(0 0 0)
(0 0 0)
(0 0 0)
(0 0 0)
(0 0 0)
(0 0 0)
(0 0 0)
(1.04398e-24 2.80511e-14 2.71089e-14)
(1.60645e-23 0 2.72848e-14)
(2.33497e-22 -5.02377e-27 0)
(1.59985e-23 -2.55446e-14 4.97211e-16)
(2.34144e-24 -2.92348e-14 5.73872e-15)
(2.28888e-22 -3.52017e-15 2.28994e-14)
(4.63497e-23 -3.80024e-15 0)
(0 0 0)
(0 0 6.36836e-22)
(0 0 2.35385e-21)
(0 0 0)
(0 0 0)
(0 0 6.47558e-21)
(0 0 1.94298e-20)
(0 0 0)
(0 0 2.73899e-20)
(0 0 0)
(0 0 8.87095e-20)
(0 0 0)
(0 0 8.4371e-22)
(0 0 -1.60233e-23)
(0 0 0)
(0 0 -1.43771e-21)
(0 0 0)
(0 0 -7.87325e-21)
(0 0 0)
(0 1.81922e-18 0)
(0 0 0)
(0 6.18153e-19 0)
(0 0 0)
(0 5.87518e-18 0)
(0 1.83918e-17 0)
(0 0 0)
(0 2.00675e-26 0)
(0 0 0)
(0 1.60277e-27 0)
(0 0 0)
(0 0 0)
(0 0 0)
(0 0 0)
(0 0 1.72255e-18)
(0 0 1.36266e-18)
(0 0 6.68724e-20)
(0 0 2.19504e-18)
(0 0 0)
(0 0 3.04099e-19)
(0 0 0)
(0 0 -3.01285e-19)
(0 0 -3.10628e-19)
(0 0 -1.21093e-20)
(0 0 -4.17423e-19)
(0 0 0)
(0 0 -9.4687e-20)
(0 0 0)
(0 1.40282e-25 0)
(0 0 0)
(0 1.40307e-26 0)
(0 0 0)
(0 0 0)
(0 0 0)
(1.78132e-20 0 3.96204e-15)
(2.08925e-21 6.71454e-25 -5.53276e-15)
(8.87897e-45 6.40053e-21 0)
(2.66746e-33 2.16156e-24 0)
(3.05495e-44 0 0)
(4.97451e-29 0 6.12229e-25)
(8.11549e-41 3.7624e-19 0)
(9.54932e-31 5.38743e-23 9.27909e-24)
(8.11733e-41 0 9.2792e-24)
(6.24331e-37 1.79575e-17 -4.0683e-20)
(2.89768e-28 2.82415e-21 -9.52857e-16)
(6.24554e-37 0 -9.63068e-16)
(1.47772e-25 6.15627e-16 -1.06238e-22)
(4.00181e-33 6.46942e-16 0)
(8.97882e-26 6.20675e-16 -8.7297e-22)
(3.99986e-33 6.48153e-16 0)
(2.70039e-16 7.82703e-22 1.04488e-15)
(8.50317e-15 2.80821e-14 2.72841e-14)
(7.31282e-22 0 1.72893e-14)
(1.13784e-22 2.05168e-16 7.22351e-16)
(8.14484e-21 0 -1.47722e-14)
(8.17238e-21 5.26044e-18 0)
(8.12849e-20 1.24464e-21 0)
(0 0 0)
(0 0 0)
(0 0 0)
(0 9.64614e-17 0)
(0 4.90039e-15 0)
(0 3.41586e-16 0)
(0 9.98991e-16 0)
(0 0 0)
(0 0 0)
(0 0 0)
(0 0 0)
(0 0 0)
(0 0 0)
(0 0 0)
(6.09167e-41 6.81262e-15 4.83256e-23)
(3.2885e-28 6.74636e-15 -6.88056e-15)
(1.63852e-23 6.7057e-15 6.19565e-15)
(4.42324e-19 2.57824e-20 -2.50455e-15)
(0 0 0)
(0 3.38338e-20 1.75944e-16)
(0 0 0)
(0 0 0)
(0 5.94275e-16 0)
(0 -5.73464e-17 -2.25053e-17)
(2.51963e-14 3.6262e-15 -9.07799e-15)
(0 0 0)
(0 4.05152e-18 0)
(0 0 0)
(0 2.32297e-21 0)
(0 0 1.65993e-14)
(1.15263e-21 5.51377e-15 0)
(0 2.44709e-14 0)
(0 0 0)
(0 0 -1.68498e-14)
(5.12825e-20 6.60679e-15 0)
(0 2.72848e-14 1.20099e-15)
(0 0 -7.16867e-15)
(0 3.41369e-14 2.75976e-14)
(0 2.76315e-23 0)
(0 0 0)
(0 4.25217e-24 0)
(0 0 0)
(0 0 0)
(0 7.77049e-23 0)
(0 2.70278e-25 0)
(0 0 1.78155e-14)
(2.41766e-18 1.00264e-14 -4.10248e-24)
(0 3.00763e-14 -8.65392e-17)
(0 0 1.76371e-30)
(0 0 -3.79985e-17)
(3.53752e-17 1.81849e-14 0)
(0 2.72848e-14 0)
(0 3.63798e-14 -7.81527e-17)
(0 0 2.23897e-14)
(0 0 -3.71444e-15)
(-2.98823e-16 3.1525e-14 -7.62807e-16)
(0 3.40344e-25 0)
(0 0 0)
(0 2.76939e-25 0)
(0 0 0)
(0 0 0)
(0 3.45665e-24 0)
(0 1.65595e-26 0)
(0 5.66208e-24 0)
(0 0 0)
(0 0 0)
(0 1.37986e-21 0)
(0 0 0)
(0 1.37164e-22 0)
(0 5.07733e-23 0)
(0 3.0014e-24 0)
(0 0 0)
(0 -5.35583e-26 0)
(0 0 -1.74888e-14)
(0 0 0)
(0 -3.46036e-24 -2.15038e-17)
(0 6.64864e-27 0)
(0 1.04659e-21 0)
(0 0 0)