/*--------------------------------*- C++ -*----------------------------------*\
  =========                 |
  \\      /  F ield         | OpenFOAM: The Open Source CFD Toolbox
   \\    /   O peration     | Website:  https://openfoam.org
    \\  /    A nd           | Version:  9
     \\/     M anipulation  |
\*---------------------------------------------------------------------------*/
FoamFile
{
    format      ascii;
    class       volScalarField;
    location    "0.0012";
    object      alpha.c4;
}
// * * * * * * * * * * * * * * * * * * * * * * * * * * * * * * * * * * * * * //

dimensions      [0 0 0 0 0 0 0];

internalField   nonuniform List<scalar> 
10147
(
8.77653e-14
2.28678e-21
4.39523e-21
6.84976e-23
8.95842e-25
2.20363e-19
2.81676e-21
3.21001e-23
9.77085e-17
1.57157e-18
5.63017e-18
1.30648e-19
7.23335e-19
1.32761e-20
6.33417e-21
2.10127e-22
1.21726e-16
1.85213e-24
1.23444e-20
1.78615e-21
2.04861e-19
1.41347e-17
5.24564e-20
2.64302e-18
1.65393e-20
1.05372e-18
9.65805e-18
1.60999e-19
2.85356e-17
3.1138e-19
3.03669e-18
4.98718e-20
9.85644e-19
4.05022e-21
3.03828e-19
1.67272e-21
7.10137e-20
6.99081e-19
1.30757e-20
2.66325e-18
3.1251e-20
3.13161e-19
4.85934e-21
1.2189e-19
4.66088e-22
1.20465e-20
5.33375e-23
8.59767e-21
8.69499e-20
1.45461e-21
1.03026e-19
1.14863e-21
1.34144e-20
2.33245e-22
1.07726e-21
3.75191e-24
1.73074e-22
1.45554e-24
6.83849e-23
7.25625e-22
1.46731e-23
4.81593e-22
6.09651e-24
3.91549e-23
5.7093e-24
1.74255e-18
3.9954e-21
8.83875e-21
2.02228e-16
6.63149e-18
2.47405e-18
9.2174e-20
6.42538e-16
1.30373e-17
2.18837e-17
7.36835e-16
3.78187e-17
2.81817e-18
1.07702e-17
6.27425e-19
1.09698e-17
8.26762e-20
6.85689e-19
4.34155e-18
1.23967e-17
5.48645e-19
3.46842e-18
1.02875e-19
4.32418e-21
1.18891e-21
1.40292e-19
5.19524e-20
1.12381e-21
1.22759e-19
5.10394e-21
3.82886e-20
4.40202e-18
1.02851e-19
5.50221e-19
2.22005e-19
1.48263e-18
1.53547e-20
2.00757e-21
1.72446e-20
3.67629e-22
2.95186e-20
4.458e-22
4.9947e-20
1.02044e-21
3.24579e-21
4.1015e-20
3.29444e-19
5.83978e-19
8.23177e-21
2.11514e-20
1.21193e-19
2.1342e-22
1.01681e-22
1.1399e-20
3.81552e-21
4.22591e-22
8.16842e-23
6.55699e-21
3.61565e-21
4.36167e-19
1.12482e-20
7.17974e-20
1.75063e-20
1.46385e-19
1.89886e-21
1.83487e-22
1.72385e-21
3.62437e-23
3.27768e-21
4.13624e-23
4.93032e-21
1.12507e-22
3.583e-22
4.76974e-21
4.0589e-20
7.11691e-20
9.72403e-22
2.31425e-21
1.44452e-20
2.23576e-23
1.10325e-23
1.33207e-21
4.41192e-22
4.74194e-23
8.82204e-24
7.53594e-22
1.12255e-22
1.57533e-20
4.07562e-22
1.8995e-21
5.65342e-22
5.14577e-21
4.42815e-23
5.46781e-24
5.97227e-23
9.96181e-25
8.85904e-23
1.42143e-24
1.61673e-22
2.49562e-24
2.15035e-24
4.87137e-23
3.17134e-22
4.70417e-22
7.21784e-24
1.33758e-23
9.98447e-23
1.33238e-25
9.46298e-26
9.96922e-24
3.01085e-24
3.4493e-25
5.67744e-26
4.76499e-24
2.82277e-24
6.77675e-23
1.88949e-21
3.76364e-23
2.45985e-23
2.2856e-23
1.63835e-22
3.71878e-25
3.24362e-25
6.61676e-24
3.24653e-24
1.13112e-25
7.78295e-25
2.03455e-23
7.77738e-19
2.16304e-18
3.92284e-19
3.48587e-19
1.33405e-20
4.82425e-20
2.67514e-19
4.32295e-24
2.26106e-23
4.30716e-22
6.11144e-23
2.12069e-21
5.38897e-23
9.71667e-22
3.03541e-20
2.54276e-20
5.40299e-19
1.11832e-20
5.45328e-19
1.0389e-17
2.16937e-19
1.37718e-19
1.55429e-19
7.0592e-22
1.07781e-19
1.20229e-20
3.50957e-19
3.12236e-20
3.53295e-21
6.2539e-23
4.15117e-22
1.28101e-20
1.01204e-22
1.21363e-21
4.20017e-21
2.45739e-17
1.5531e-17
3.89363e-16
6.70548e-18
1.46315e-14
3.45393e-16
1.28825e-16
1.47169e-24
1.58458e-24
1.0821e-20
1.23909e-24
7.15645e-28
2.14727e-30
1.58132e-28
1.21907e-26
8.97272e-21
4.90324e-23
2.55995e-25
1.27645e-27
9.38811e-30
9.62946e-29
2.24969e-22
1.82587e-24
1.2372e-26
7.46395e-29
4.10278e-31
7.54306e-31
2.01937e-24
1.94817e-26
1.54216e-28
1.06047e-30
6.7188e-33
5.75747e-33
1.59563e-26
1.72099e-28
1.51622e-30
1.148e-32
7.94897e-35
4.25161e-35
1.13098e-28
1.32979e-30
1.27165e-32
1.03882e-34
7.7092e-37
3.0372e-37
7.35163e-31
9.29387e-33
9.51002e-35
8.27822e-37
6.5146e-39
2.1139e-39
4.55138e-25
2.48915e-24
8.23022e-22
1.10352e-25
8.80151e-29
4.21651e-31
3.26727e-28
2.33619e-26
8.63711e-22
5.30734e-24
3.06144e-26
1.66736e-28
7.80051e-30
1.9981e-28
2.46585e-23
2.20652e-25
1.63199e-27
1.06567e-29
1.35671e-31
1.57519e-30
2.47411e-25
2.59808e-27
2.22203e-29
1.6384e-31
1.769e-33
1.15444e-32
2.1553e-27
2.50523e-29
2.36217e-31
1.89972e-33
1.91901e-35
7.95095e-35
1.66596e-29
2.09145e-31
2.12027e-33
1.82178e-35
1.80207e-37
5.20803e-37
1.16923e-31
1.56331e-33
1.67932e-35
1.52202e-37
1.51331e-39
3.30308e-39
1.54648e-25
8.00772e-25
1.07283e-26
6.90116e-30
6.34315e-32
1.29082e-28
7.61002e-27
7.93855e-23
4.47573e-25
2.40437e-27
1.23949e-29
2.52729e-30
6.55458e-29
2.08547e-24
1.73747e-26
1.2152e-28
7.609e-31
3.11514e-32
5.20299e-31
1.95619e-26
1.94064e-28
1.5902e-30
1.13496e-32
3.22626e-34
3.84315e-33
1.6191e-28
1.80064e-30
1.64165e-32
1.28448e-34
2.96229e-36
2.67526e-35
1.20537e-30
1.46074e-32
1.43888e-34
1.20461e-36
2.47006e-38
1.77608e-37
8.22134e-33
1.06619e-34
1.11441e-36
9.83274e-39
1.90563e-40
1.14265e-39
1.9711e-26
7.94393e-26
1.19519e-28
2.11123e-31
5.61572e-33
1.42205e-29
7.01264e-28
1.42614e-24
8.93661e-27
5.24417e-29
2.92107e-31
2.20885e-31
5.77582e-30
4.12249e-26
3.77372e-28
2.84395e-30
1.89196e-32
2.5301e-33
4.50146e-32
4.21593e-28
4.52838e-30
3.9419e-32
2.94846e-34
2.45438e-35
3.31627e-34
3.75461e-30
4.4524e-32
4.25514e-34
3.44954e-36
2.13529e-37
2.32341e-36
2.96473e-32
3.7778e-34
3.85672e-36
3.31496e-38
1.70726e-39
1.55765e-38
2.11584e-34
2.85164e-36
3.06115e-38
2.75326e-40
1.27821e-41
1.01086e-40
2.76035e-22
3.47659e-24
3.83368e-26
1.45841e-27
4.42791e-27
5.67986e-23
1.69785e-26
2.66725e-28
2.43534e-30
1.33916e-30
3.84965e-29
3.35324e-26
3.44187e-28
4.95683e-30
8.03714e-32
5.96565e-32
3.179e-31
5.98658e-28
6.96731e-30
9.00027e-32
1.30688e-33
6.34355e-34
2.50425e-33
7.04274e-30
9.28161e-32
1.23565e-33
1.76166e-35
5.79537e-36
1.87273e-35
6.80237e-32
9.91979e-34
1.39772e-35
2.03811e-37
4.81435e-38
1.33379e-37
5.73234e-34
9.11128e-36
1.36982e-37
2.08648e-39
3.73604e-40
9.08677e-40
4.35737e-36
7.49972e-38
1.21103e-39
1.95252e-41
2.75733e-42
5.98219e-42
4.75622e-20
1.20884e-21
3.10694e-23
4.81177e-25
2.95447e-26
6.54589e-28
2.17919e-23
5.11207e-25
1.07987e-26
2.02013e-28
2.231e-28
9.21895e-30
2.92447e-25
6.758e-27
1.47403e-28
2.87491e-30
1.65735e-30
8.62752e-32
3.24237e-27
7.89018e-29
1.76262e-30
3.49985e-32
1.20393e-32
7.06014e-34
3.20026e-29
8.36548e-31
1.92737e-32
3.88147e-34
8.5552e-35
5.45493e-36
2.90449e-31
8.14941e-33
1.93833e-34
3.9712e-36
5.95243e-37
4.00562e-38
2.46717e-33
7.36065e-35
1.80758e-36
3.7803e-38
4.05224e-39
2.81899e-40
1.99372e-35
6.26425e-37
1.58878e-38
3.40653e-40
2.73159e-41
1.92159e-42
7.76683e-21
2.65231e-22
6.55848e-24
1.26567e-25
2.61928e-27
3.78067e-29
9.35233e-23
3.10345e-24
7.78051e-26
1.57322e-27
3.46025e-29
5.82212e-31
1.04575e-24
3.4544e-26
8.77867e-28
1.82519e-29
4.01449e-31
7.38383e-33
1.10524e-26
3.65133e-28
9.35074e-30
1.97442e-31
4.26769e-33
8.23102e-35
1.10379e-28
3.64595e-30
9.36647e-32
1.99594e-33
4.23182e-35
8.36522e-37
1.03527e-30
3.42066e-32
8.81391e-34
1.89284e-35
3.95266e-37
7.91463e-39
9.08722e-33
3.01014e-34
7.80172e-36
1.69227e-37
3.50186e-39
7.02442e-41
7.5266e-35
2.50812e-36
6.56852e-38
1.44414e-39
2.98227e-41
5.99037e-43
2.03698e-22
6.73202e-24
1.83182e-25
4.21605e-27
6.60641e-29
9.6257e-31
4.30705e-24
1.42775e-25
3.80356e-27
8.34839e-29
1.27865e-30
1.88801e-32
6.72951e-26
2.2339e-27
5.89758e-29
1.28541e-30
1.99942e-32
3.00268e-34
8.90438e-28
2.95534e-29
7.7605e-31
1.69113e-32
2.68247e-34
4.09795e-36
1.04068e-29
3.45258e-31
9.04686e-33
1.97771e-34
3.23291e-36
4.99056e-38
1.09456e-31
3.63715e-33
9.55255e-35
2.10286e-36
3.60098e-38
5.5721e-40
1.04982e-33
3.50605e-35
9.27711e-37
2.06511e-38
3.73694e-40
5.79281e-42
9.36795e-36
3.15657e-37
8.45701e-39
1.91113e-40
3.62795e-42
5.68851e-44
3.09268e-24
1.01641e-25
2.73802e-27
6.10279e-29
1.07885e-30
1.67832e-32
6.87536e-26
2.27563e-27
6.13568e-29
1.36814e-30
2.40075e-32
3.7428e-34
1.22314e-27
4.05916e-29
1.08628e-30
2.41536e-32
4.26633e-34
6.71852e-36
1.8181e-29
6.04006e-31
1.608e-32
3.57635e-34
6.3974e-36
1.02262e-37
2.33521e-31
7.77549e-33
2.06932e-34
4.62336e-36
8.41653e-38
1.36854e-39
2.65523e-33
8.88721e-35
2.37761e-36
5.36041e-38
9.98251e-40
1.6524e-41
2.72534e-35
9.20296e-37
2.4881e-38
5.68311e-40
1.08682e-41
1.83258e-43
2.58803e-37
8.8494e-39
2.42874e-40
5.63804e-42
1.1082e-43
1.90531e-45
4.0025e-26
1.32092e-27
3.55295e-29
7.92474e-31
1.47084e-32
2.39651e-34
9.40784e-28
3.12249e-29
8.44838e-31
1.90157e-32
3.53598e-34
5.78635e-36
1.79582e-29
5.9763e-31
1.61253e-32
3.63829e-34
6.81265e-36
1.12599e-37
2.861e-31
9.5485e-33
2.57348e-34
5.82922e-36
1.10389e-37
1.85089e-39
3.91581e-33
1.3138e-34
3.55362e-36
8.11061e-38
1.55887e-39
2.65807e-41
4.72239e-35
1.59818e-36
4.3607e-38
1.00662e-39
1.96916e-41
3.41836e-43
5.1263e-37
1.75602e-38
4.85497e-40
1.13689e-41
2.26759e-43
4.00844e-45
5.13954e-39
1.78786e-40
5.02621e-42
1.19651e-43
2.43505e-45
4.38192e-47
1.6093e-21
1.76432e-24
5.31965e-22
2.12453e-24
9.37337e-26
1.08156e-27
5.20252e-26
1.31693e-28
5.07159e-29
2.66047e-30
2.24909e-29
1.83932e-30
1.81124e-25
1.39505e-31
2.01381e-28
7.09788e-26
1.12698e-31
4.04096e-28
3.66742e-25
1.43507e-26
3.02386e-26
6.36113e-25
3.28074e-25
7.45039e-27
4.05255e-26
1.15227e-22
2.178e-21
2.52334e-22
3.58717e-21
4.25785e-23
8.80492e-22
1.80169e-22
2.34361e-26
3.89655e-24
1.13913e-24
4.93302e-25
1.40826e-26
3.12846e-24
8.53874e-25
6.09695e-29
1.76577e-26
5.5909e-27
4.63084e-28
4.35834e-29
1.47551e-26
4.19493e-27
3.73735e-30
8.32293e-29
2.6752e-29
1.65148e-30
5.4104e-30
6.96232e-29
2.02599e-29
1.32417e-22
4.3086e-25
1.87193e-25
1.38117e-26
1.16667e-28
4.52912e-27
8.96143e-30
6.15957e-30
4.08189e-31
1.6496e-30
1.26357e-31
2.10982e-26
3.22397e-32
2.46893e-28
6.78921e-27
2.44516e-32
5.1911e-28
6.58931e-25
8.19907e-27
7.2396e-26
3.78098e-25
5.54626e-25
7.33994e-27
6.4525e-26
9.73821e-24
1.90054e-22
2.71426e-23
3.87842e-24
8.54958e-23
8.68206e-24
2.556e-27
4.51666e-25
1.45124e-25
4.22399e-26
9.39984e-28
2.29509e-25
4.83497e-26
8.69711e-30
2.35306e-27
7.93565e-28
3.20412e-29
2.89881e-30
1.24595e-27
2.64744e-28
6.95659e-30
1.2123e-29
4.45425e-30
2.33948e-31
7.84489e-30
6.52206e-30
1.63698e-30
4.44025e-26
5.42245e-27
1.32753e-27
9.42465e-30
1.19285e-28
2.19185e-30
4.73425e-31
2.89954e-32
1.32171e-31
8.63262e-33
2.7852e-26
8.18644e-33
1.02198e-28
1.72699e-26
4.38363e-33
1.25594e-28
2.16716e-25
3.15603e-27
3.85635e-26
1.01202e-25
1.37284e-25
1.82354e-27
1.28753e-26
1.03083e-24
1.96168e-23
2.33818e-24
1.23693e-25
4.8352e-24
7.48254e-25
2.14705e-28
3.68139e-26
1.15829e-26
1.38978e-27
5.27594e-29
1.85952e-26
3.88806e-27
6.34166e-31
1.80382e-28
5.96124e-29
2.05557e-30
2.04337e-31
9.46902e-29
1.99254e-29
2.87728e-30
8.88895e-31
4.3209e-31
3.38222e-32
1.8644e-30
4.69134e-31
1.55127e-31
2.48618e-28
5.84968e-27
1.06527e-29
2.33239e-31
1.54094e-27
6.83753e-29
1.50759e-32
1.2176e-33
1.86544e-29
6.28768e-31
4.44811e-27
9.54393e-34
1.09598e-29
1.10991e-27
1.56433e-31
9.00867e-30
2.27231e-26
3.68814e-28
3.57015e-27
8.34821e-27
1.06535e-26
1.38914e-28
1.1761e-27
8.9722e-27
2.23531e-25
4.2918e-26
2.91363e-27
9.11999e-26
1.24143e-26
4.5584e-30
7.67088e-28
2.42859e-28
2.52005e-28
3.86545e-29
3.38788e-28
7.3851e-29
2.33913e-32
4.13946e-30
1.35374e-30
3.70643e-30
4.17357e-31
2.07421e-30
4.36369e-31
3.07025e-31
2.18981e-32
1.94194e-32
3.38922e-32
1.35318e-31
1.25826e-32
6.98318e-33
3.62336e-23
4.91448e-26
2.19523e-27
8.55787e-22
1.78912e-22
1.69404e-23
3.21957e-24
4.59431e-25
5.94604e-28
2.14458e-29
1.6627e-23
2.25802e-24
3.09579e-25
3.97234e-26
3.31146e-27
5.27448e-30
2.00845e-30
1.68153e-25
2.43501e-26
3.10276e-27
4.44909e-28
2.25967e-22
2.40561e-22
7.77365e-23
5.40332e-23
8.38331e-24
2.77552e-19
5.41211e-21
7.027e-26
4.85748e-25
8.59995e-17
4.9349e-20
1.64429e-21
2.31057e-23
3.75513e-24
4.8013e-26
5.63112e-19
2.06653e-20
5.09071e-22
9.22095e-24
1.55836e-25
1.85839e-27
9.02398e-21
3.00303e-22
7.39564e-24
1.4468e-25
2.50604e-27
3.62396e-29
1.18812e-22
3.85511e-24
9.70999e-26
2.0027e-27
3.58779e-29
5.59705e-31
1.37604e-24
4.49085e-26
1.16275e-27
2.49233e-29
4.60077e-31
7.48165e-33
1.00525e-23
3.8285e-24
1.08322e-21
1.56034e-22
2.18622e-23
7.41727e-22
6.18501e-23
1.83338e-23
8.80891e-25
1.9325e-25
9.71714e-22
2.79424e-23
3.08279e-23
6.17515e-22
2.06576e-23
2.45934e-23
5.26333e-25
1.35037e-21
3.32354e-25
3.14206e-22
8.24193e-24
9.94951e-24
2.96887e-22
1.83868e-22
5.71706e-24
5.73609e-24
2.65499e-22
9.80281e-26
1.48071e-22
1.95457e-26
3.93369e-23
1.08305e-24
1.10377e-24
3.04838e-23
1.54984e-23
5.19066e-25
4.6582e-25
1.07713e-19
7.23989e-19
6.49281e-21
7.46432e-22
2.05718e-18
4.74437e-19
4.28581e-20
9.59389e-21
5.30411e-20
6.8346e-23
1.0052e-23
4.53998e-20
6.02281e-21
8.83485e-22
1.20906e-22
6.32356e-22
8.2597e-25
6.46532e-26
4.04572e-22
6.68418e-23
8.51613e-24
1.33329e-24
1.2114e-20
3.71334e-21
1.10282e-23
1.95138e-22
1.01953e-22
9.00987e-23
2.59197e-23
1.91485e-23
4.14959e-24
1.22487e-24
6.24782e-23
1.64797e-24
5.0267e-25
2.83931e-25
3.40748e-25
4.3409e-26
1.69225e-26
1.08389e-24
1.60433e-26
1.12242e-26
3.43318e-27
3.17121e-27
5.89876e-28
1.73008e-28
1.06619e-26
8.74517e-24
5.87339e-23
4.41411e-22
1.56695e-21
5.54018e-23
3.64335e-22
1.04464e-23
4.3738e-25
4.5113e-26
1.45664e-23
1.64653e-24
4.17686e-26
1.29761e-23
5.08265e-25
4.54153e-24
5.78665e-22
1.85963e-23
7.82586e-23
2.27769e-23
1.91855e-22
2.02142e-24
2.16609e-25
2.13593e-24
4.18837e-26
3.77139e-24
4.58106e-26
6.1761e-24
1.13869e-25
3.42306e-28
2.65507e-27
1.80354e-26
9.0957e-26
2.51996e-27
1.57917e-26
3.91019e-28
2.28717e-29
1.96737e-29
1.41227e-27
1.06203e-27
1.87737e-29
8.72844e-28
3.3104e-29
1.518e-28
5.18076e-26
1.71268e-27
6.2953e-27
1.82859e-27
6.22432e-27
1.43626e-28
8.82917e-30
1.7554e-28
2.46957e-30
2.52145e-28
3.88365e-30
3.14691e-28
7.02235e-30
1.94861e-31
1.38387e-30
3.09926e-29
3.9235e-29
1.321e-30
9.38311e-30
5.38138e-31
5.15252e-32
4.7077e-32
3.17452e-30
2.6487e-30
4.61969e-32
2.80209e-30
6.42725e-32
1.22656e-31
2.36575e-29
4.3228e-31
1.24408e-29
5.17452e-31
6.22136e-30
2.21622e-31
1.6918e-32
1.86355e-30
3.1495e-32
8.62121e-31
3.28211e-32
7.40155e-31
2.00104e-32
1.68249e-25
3.4411e-25
3.29987e-25
3.55414e-27
5.3105e-26
4.46412e-26
3.93107e-27
1.3696e-30
3.11011e-32
2.7035e-31
1.20753e-31
2.78191e-32
1.94987e-31
1.54434e-30
1.44861e-25
5.31113e-26
1.2947e-25
1.65428e-27
1.40787e-26
2.36684e-26
1.23761e-27
9.21669e-31
1.14476e-31
2.27942e-32
3.40182e-31
2.24272e-32
2.95641e-31
8.84202e-31
4.10437e-25
5.15147e-24
4.23448e-23
9.48053e-25
1.60763e-23
2.32001e-26
9.97398e-27
1.33671e-24
1.38397e-25
4.44903e-26
3.19852e-27
7.83103e-25
1.81704e-26
1.88183e-25
3.62163e-27
3.53812e-25
3.89884e-27
5.48213e-25
1.07482e-26
2.99259e-29
4.6581e-28
3.72962e-27
7.20484e-27
7.8457e-29
1.93833e-28
1.43464e-27
2.69025e-30
2.14643e-30
1.85284e-28
1.15188e-28
4.79821e-30
2.02917e-30
1.10464e-28
1.24795e-29
4.58549e-27
1.45696e-28
5.18364e-28
1.54564e-28
5.26608e-28
1.19618e-29
6.61617e-31
1.06787e-29
1.71163e-31
1.98464e-29
2.6124e-31
2.24022e-29
5.58931e-31
2.43819e-32
1.58247e-31
3.9484e-30
5.08612e-30
7.39852e-32
1.49673e-31
1.23307e-30
7.50611e-33
8.60786e-33
4.5981e-31
3.84587e-31
9.92326e-33
7.27052e-33
4.0588e-31
1.08177e-32
1.74195e-30
3.26724e-32
1.40397e-30
3.98009e-32
5.27371e-31
2.47199e-32
1.40331e-33
1.30348e-31
2.75757e-33
7.09928e-32
3.04846e-33
5.53099e-32
2.04651e-33
6.93074e-26
1.63417e-26
6.72748e-26
6.77641e-28
1.05611e-26
7.72262e-28
1.03145e-26
7.62107e-31
2.13556e-32
2.55058e-31
2.65876e-32
8.45276e-31
1.97163e-32
1.90298e-31
5.85208e-26
5.19504e-26
5.03349e-27
5.03057e-28
8.92621e-27
1.07971e-26
4.10058e-28
9.70242e-31
2.22651e-32
2.2648e-32
4.25482e-31
2.48094e-32
4.18844e-31
8.79168e-31
2.11664e-27
9.74667e-28
1.35784e-25
1.41739e-26
4.3304e-27
2.98116e-28
7.78767e-26
5.22305e-28
5.59907e-27
9.57951e-29
8.91015e-27
1.11092e-28
1.63411e-26
2.37242e-28
2.61177e-30
4.39307e-29
3.16797e-28
7.03353e-28
6.68494e-30
1.74709e-29
1.31548e-28
2.04488e-31
1.67336e-31
1.5188e-29
9.33644e-30
3.91175e-31
1.59534e-31
8.48069e-30
4.93142e-31
1.48957e-28
3.75577e-30
1.54503e-29
4.74728e-30
2.11201e-29
3.2913e-31
3.26729e-32
2.28984e-30
3.74387e-32
9.67884e-31
4.3967e-32
1.1125e-30
2.47694e-32
1.76922e-33
1.18044e-32
3.11322e-31
3.92102e-31
5.96897e-33
1.14378e-32
9.13482e-32
5.18401e-34
8.58107e-34
3.30484e-32
2.72832e-32
7.36603e-34
6.28352e-34
2.8713e-32
8.38046e-34
1.39006e-31
3.69106e-33
8.61942e-32
4.28565e-33
4.07604e-32
1.43907e-33
9.75863e-35
8.95746e-33
2.76703e-34
4.35896e-33
3.26107e-34
3.86217e-33
1.02381e-34
1.95651e-26
4.14508e-27
3.35861e-27
2.00773e-28
6.60225e-27
3.11036e-28
3.66503e-27
2.5556e-31
1.17381e-32
1.44169e-31
5.70889e-33
4.50229e-31
6.58721e-33
6.93976e-32
1.38049e-26
2.405e-27
1.83195e-27
1.69142e-28
2.37321e-27
3.56781e-27
1.19294e-28
2.76436e-31
4.67392e-33
5.49651e-33
9.83372e-32
6.90455e-33
1.02135e-31
2.19795e-31
3.43726e-29
7.51376e-30
1.07088e-27
1.00015e-28
3.41169e-29
1.11568e-29
4.58783e-28
1.05353e-27
2.05992e-28
1.8879e-26
1.02516e-26
4.19004e-28
4.60249e-28
5.0816e-26
1.00704e-30
4.51036e-31
4.67235e-30
7.69098e-30
1.09277e-31
2.96702e-30
2.05827e-30
3.63165e-31
8.06727e-33
2.93958e-31
2.79589e-31
1.47692e-32
1.4722e-31
3.20308e-31
4.29847e-29
5.67595e-29
5.09657e-27
4.25775e-28
1.22734e-28
2.69857e-29
1.82537e-27
1.60547e-29
3.33941e-30
2.79752e-28
1.84898e-28
6.42377e-30
7.40472e-30
6.79805e-28
1.25065e-32
1.24687e-33
6.67347e-33
2.56732e-32
4.0101e-34
3.67848e-32
1.01241e-32
3.65618e-33
1.01316e-34
1.24567e-33
1.82158e-33
1.03571e-34
1.38482e-33
2.52673e-33
5.7505e-31
7.54209e-31
6.87142e-29
5.82351e-30
1.6294e-30
3.70886e-31
2.56288e-29
1.7167e-31
3.5895e-32
2.99288e-30
1.95438e-30
6.35638e-32
7.79484e-32
7.71112e-30
2.3657e-27
3.00751e-28
6.06152e-28
2.23715e-29
1.40895e-27
5.61826e-29
5.02564e-28
2.79711e-32
1.92357e-33
1.84997e-32
6.46054e-34
7.5167e-32
1.02343e-33
6.42997e-33
1.45575e-27
2.51788e-28
2.02392e-28
1.50797e-29
1.88341e-28
3.47562e-28
1.32369e-29
2.65085e-32
6.45245e-33
6.76321e-31
5.44707e-32
1.56264e-32
1.01014e-32
2.37189e-31
1.7359e-23
4.98528e-24
1.6741e-24
1.13276e-23
1.51172e-25
4.40716e-25
3.87042e-24
2.218e-25
1.00736e-25
4.9196e-26
1.38084e-25
2.40864e-27
6.29071e-27
4.24591e-26
1.4247e-18
3.46536e-18
1.36329e-18
4.97031e-17
3.93319e-18
1.00944e-20
2.429e-19
1.05518e-20
2.69158e-19
8.27754e-21
2.41961e-19
1.21049e-20
1.23262e-22
3.45691e-21
2.46001e-22
5.26312e-21
1.07404e-22
3.43446e-21
2.7478e-22
9.44561e-24
1.62113e-23
1.56604e-23
5.10495e-22
5.14721e-22
4.98648e-22
5.35142e-22
6.32245e-24
2.94258e-24
5.54445e-24
2.02308e-22
1.6014e-22
1.84529e-22
1.64379e-22
1.68926e-24
6.63326e-25
1.38428e-24
2.9513e-23
2.97911e-23
3.91174e-23
3.03031e-23
9.85498e-25
7.51518e-25
1.2132e-25
6.63661e-24
7.25298e-24
8.86288e-24
3.57151e-24
2.76483e-25
1.16643e-25
9.93116e-26
3.10806e-24
4.35341e-24
3.41129e-24
3.2032e-24
5.31829e-23
1.39753e-21
1.35516e-21
6.48401e-23
1.43901e-21
6.94996e-23
4.63477e-23
2.17071e-25
6.60958e-26
5.11728e-26
1.82464e-24
2.35776e-24
2.53974e-24
1.50889e-24
3.71265e-26
8.44341e-27
1.60655e-26
2.52786e-25
5.69041e-25
4.10542e-25
3.84389e-25
3.17655e-26
7.36357e-27
5.69019e-27
1.59462e-25
2.52822e-25
2.27632e-25
2.18879e-25
5.48549e-20
7.80054e-20
2.43301e-20
2.41894e-18
1.02262e-18
2.87021e-18
9.95845e-19
1.35335e-19
3.74162e-20
1.13939e-18
1.07042e-19
3.05341e-18
3.91207e-20
1.8112e-21
3.05637e-21
9.29697e-22
3.82737e-20
1.05961e-19
3.58219e-20
1.1695e-19
2.27398e-22
1.31045e-22
4.1629e-23
4.98086e-21
1.21512e-21
3.60929e-21
1.72409e-21
2.72859e-21
6.22476e-20
1.67879e-21
5.27486e-20
2.41009e-21
6.13923e-20
1.88521e-21
2.49863e-23
1.3084e-23
8.28049e-24
3.29769e-22
3.58493e-22
2.58769e-22
4.43251e-22
3.53978e-24
2.90574e-24
1.5359e-24
9.53078e-23
5.03859e-23
8.3566e-23
5.78345e-23
2.53914e-25
3.25331e-25
1.04216e-25
3.84775e-24
9.14978e-24
3.29592e-24
9.9657e-24
7.95237e-24
2.66768e-22
1.51705e-23
2.35313e-22
1.11738e-23
2.35896e-22
1.11641e-23
4.87431e-24
1.39221e-22
1.56287e-22
7.35326e-24
1.40054e-22
6.67592e-24
6.14616e-24
1.88312e-21
2.0947e-21
5.93986e-22
1.93129e-23
6.96213e-23
2.31284e-22
7.52186e-22
9.40149e-23
7.09752e-25
2.60716e-19
5.15445e-23
3.52239e-22
1.43426e-23
1.46766e-24
1.18157e-23
1.16277e-25
1.79766e-25
7.94902e-26
2.825e-18
1.80572e-17
8.73091e-20
2.19293e-22
3.6259e-21
1.17823e-22
4.01504e-24
3.98994e-25
5.52362e-23
1.73783e-24
8.29044e-24
2.00866e-24
1.80174e-23
2.04622e-25
3.96298e-26
5.24098e-25
4.59997e-24
1.28377e-23
9.72934e-26
4.07439e-25
1.69056e-24
1.1554e-26
1.79704e-24
4.47827e-26
1.99135e-25
6.88655e-26
5.52342e-25
4.39707e-27
3.16088e-28
4.64633e-27
3.3849e-26
8.1526e-26
7.24717e-28
2.79485e-27
1.11575e-26
4.03046e-27
1.31812e-26
9.78522e-25
3.74853e-26
1.7672e-26
2.29581e-27
2.25864e-25
1.1618e-18
6.38812e-19
2.15778e-18
2.24077e-17
7.07041e-17
2.64053e-17
6.66199e-17
1.77294e-20
1.82011e-21
5.9485e-20
3.37542e-20
1.53048e-20
4.23177e-22
4.30622e-21
2.01368e-27
4.16023e-27
4.13983e-27
7.45897e-29
2.00613e-28
9.10527e-28
4.02312e-28
2.09345e-24
1.79862e-24
7.95078e-26
1.71999e-25
6.80047e-27
3.67041e-24
2.42686e-25
2.78559e-27
6.38018e-28
1.3947e-28
3.29197e-25
7.06408e-26
2.37279e-26
6.66524e-27
3.21418e-29
1.16117e-29
2.23361e-30
5.98196e-27
9.70763e-28
4.96483e-28
1.36855e-28
3.80987e-31
1.54574e-31
4.051e-32
6.26192e-29
1.32926e-29
8.36094e-30
2.70702e-30
9.85565e-22
1.19027e-21
3.49747e-20
1.13056e-20
1.87565e-20
3.18004e-22
5.08136e-22
1.50276e-21
4.50209e-22
4.47654e-22
3.00504e-23
7.65073e-24
4.00397e-23
1.57088e-23
2.93094e-23
8.18857e-24
7.84106e-24
5.85588e-25
1.30765e-25
8.997e-25
3.21795e-25
4.55441e-25
1.08902e-25
1.15265e-25
9.02336e-27
2.72171e-27
1.58794e-26
6.1162e-27
8.12954e-29
1.51015e-27
5.88614e-30
1.84566e-28
1.36148e-27
5.37592e-30
9.07844e-29
4.63372e-29
4.01627e-28
7.1246e-28
1.02078e-29
8.11123e-28
1.00227e-29
4.05535e-29
2.98677e-29
6.11192e-28
7.78944e-30
1.40907e-28
3.44794e-29
4.60704e-28
5.38689e-30
3.7415e-29
5.18985e-28
7.91117e-28
1.46318e-29
8.43978e-28
1.45716e-29
3.36403e-29
9.86086e-30
2.8042e-28
4.02031e-30
5.5416e-29
1.68279e-29
1.62265e-28
2.03823e-30
1.08454e-29
1.26163e-28
1.9606e-28
3.41277e-30
2.29482e-28
3.54162e-30
8.60246e-30
1.10188e-30
5.00723e-29
5.11625e-31
5.52286e-30
2.89215e-30
1.94691e-29
1.92028e-31
8.81112e-31
9.03761e-30
1.44312e-29
2.54261e-31
1.85926e-29
2.4939e-31
7.94345e-31
1.60062e-24
2.10716e-25
1.27947e-26
1.33633e-24
7.65832e-26
3.32591e-24
3.62031e-25
5.83579e-25
1.19582e-26
5.95259e-27
6.94526e-26
2.83111e-26
3.04777e-25
2.01999e-25
2.72951e-26
2.84317e-27
1.90965e-28
2.02396e-26
1.1327e-27
5.82536e-26
6.0626e-27
6.80083e-27
1.39663e-28
6.59644e-29
7.19091e-28
3.4259e-28
3.31337e-27
2.3876e-27
1.21207e-27
4.68168e-27
9.6167e-28
1.41593e-27
2.89054e-28
6.71666e-29
6.32337e-28
2.48322e-28
3.02999e-29
1.57322e-30
1.88686e-28
1.01481e-29
5.43197e-28
5.40901e-29
6.73392e-29
1.27084e-29
6.50579e-31
1.11985e-29
3.67944e-30
4.14014e-29
2.19678e-29
6.58687e-26
1.97614e-25
2.72522e-25
1.72506e-23
2.81294e-24
4.18361e-24
7.80129e-25
2.12641e-18
1.24493e-18
4.74066e-19
1.07645e-18
5.72669e-17
3.75944e-17
2.62879e-17
6.98978e-20
2.63586e-20
2.6191e-20
2.65042e-18
1.46623e-18
1.90162e-18
1.45376e-18
1.38232e-21
5.08335e-22
4.91332e-22
5.63379e-20
3.01786e-20
5.53239e-20
2.99359e-20
2.20642e-23
6.78156e-24
6.98789e-24
9.19378e-22
4.29232e-22
9.07661e-22
4.25903e-22
2.81859e-23
7.42164e-22
1.94917e-23
6.24665e-22
2.48853e-23
7.31022e-22
2.12709e-23
3.55429e-26
1.0657e-25
2.74551e-26
9.62156e-25
5.95891e-25
7.97176e-25
6.86574e-25
3.35585e-23
3.259e-25
2.5042e-24
2.23078e-25
8.63861e-25
9.69558e-24
1.60639e-23
5.2541e-23
2.29207e-22
1.3101e-24
1.30704e-23
7.01722e-24
6.84642e-22
5.49884e-23
8.83887e-28
5.13988e-30
1.92561e-28
1.11848e-28
1.09249e-27
6.13069e-30
2.83977e-28
2.13935e-27
1.2813e-29
5.12107e-28
1.51857e-28
2.03323e-27
9.79345e-30
4.76086e-28
9.52739e-28
6.58141e-30
3.06299e-28
3.74677e-29
5.14402e-28
2.12948e-30
9.85593e-29
8.60052e-29
5.99786e-31
2.68257e-29
2.72006e-30
4.29755e-29
1.75075e-31
8.88788e-30
4.8613e-30
1.00438e-31
1.49363e-30
1.96681e-29
1.36434e-29
5.24196e-30
3.69532e-30
1.55788e-22
1.12176e-24
7.25424e-27
4.33832e-29
1.73967e-23
1.39414e-25
9.92357e-28
6.47281e-30
1.48087e-24
1.1112e-26
7.52333e-29
4.72737e-31
2.86718e-26
2.35832e-28
1.72294e-30
1.14998e-32
4.82393e-28
4.03277e-30
3.03932e-32
2.10618e-34
1.85285e-20
1.82543e-21
1.68558e-22
2.92828e-24
5.05706e-26
1.86739e-23
1.73117e-25
1.41818e-27
1.07047e-29
7.73769e-32
5.5031e-34
2.36104e-23
2.41284e-25
2.37401e-27
2.21146e-29
1.93618e-31
1.60309e-33
9.25277e-23
1.42245e-24
1.87614e-26
2.199e-28
2.32324e-30
2.2357e-32
1.99779e-34
1.48452e-24
2.61874e-26
3.88849e-28
5.00016e-30
5.69103e-32
5.83999e-34
5.53524e-36
2.06304e-26
3.90621e-28
6.20279e-30
8.47272e-32
1.01944e-33
1.10273e-35
1.09953e-37
8.55009e-12
4.65773e-10
2.80803e-16
1.73724e-18
9.69821e-14
2.37078e-17
3.53908e-20
6.46564e-18
1.55741e-20
8.43836e-15
1.17957e-13
2.60326e-17
5.36197e-19
2.73358e-15
2.24496e-18
2.00954e-20
3.76195e-19
1.7139e-21
2.17719e-12
1.62112e-14
6.41207e-15
1.77482e-17
2.55093e-19
6.74385e-17
8.25589e-19
7.18349e-21
1.06282e-20
4.00802e-22
8.08007e-15
1.40905e-15
3.02518e-13
2.09289e-16
1.531e-18
2.58879e-20
2.23679e-15
1.73117e-18
9.26977e-20
7.97517e-22
6.37268e-19
2.80198e-22
4.5764e-16
8.75836e-18
1.32401e-19
1.77927e-21
1.38259e-14
5.65496e-17
1.0761e-18
1.54012e-20
4.98336e-23
9.25992e-17
1.51607e-17
2.68802e-19
3.91183e-21
5.07975e-23
3.24052e-17
6.96915e-19
1.08595e-20
1.48589e-22
1.93849e-24
2.68165e-19
4.85373e-21
7.27835e-23
9.88094e-25
5.75666e-19
1.26932e-20
2.19134e-22
3.27167e-24
4.54861e-26
7.80767e-21
1.81179e-22
3.3928e-24
5.50761e-26
8.1786e-28
5.61226e-15
8.80475e-16
1.87146e-15
1.39172e-16
3.2629e-17
1.99343e-14
4.04022e-16
8.32205e-17
1.01915e-17
3.40647e-16
2.31804e-17
1.39964e-18
2.01657e-18
4.78489e-19
6.04455e-21
1.65375e-16
6.88836e-18
3.98814e-18
1.8391e-19
6.58465e-20
2.57697e-20
2.8964e-21
1.03028e-21
3.20072e-15
3.40343e-18
3.47958e-14
7.38258e-16
1.41801e-16
3.16491e-19
2.64272e-18
2.75744e-19
4.84763e-20
1.65641e-17
5.76092e-19
3.83406e-20
1.72139e-20
1.03489e-19
3.77455e-18
9.14755e-21
3.31001e-21
1.20313e-21
9.92037e-14
1.99984e-16
2.96349e-13
1.00542e-14
6.08441e-16
4.92035e-18
1.01988e-16
1.55038e-17
1.1311e-19
2.41926e-16
6.9234e-18
7.21428e-19
4.4762e-20
1.22193e-19
7.56939e-21
3.01198e-21
2.94454e-19
6.66116e-20
4.62505e-21
1.73116e-21
6.94459e-18
2.52709e-17
1.9273e-19
2.9878e-21
3.45207e-20
2.78603e-21
4.00763e-22
1.74308e-15
4.20169e-17
1.23865e-18
7.84217e-19
5.13582e-18
9.59713e-19
3.89895e-17
1.39256e-17
1.30783e-18
4.29777e-16
7.03982e-18
8.94124e-19
1.97189e-19
6.8852e-20
1.45638e-19
2.67359e-20
1.90024e-21
6.00388e-21
1.2821e-21
8.39456e-20
2.09616e-19
3.38525e-20
5.912e-23
1.25839e-22
4.49252e-23
8.34841e-16
8.80962e-16
3.53013e-17
7.31711e-16
5.46453e-16
5.34565e-17
1.93374e-17
2.8857e-17
2.57845e-18
6.42154e-19
6.02513e-17
9.62764e-18
1.92851e-18
2.53377e-19
4.47024e-19
4.61817e-20
8.4665e-21
6.16987e-19
1.35472e-19
1.59646e-20
3.02012e-21
5.01791e-17
9.11207e-17
1.08432e-13
3.04795e-15
5.80505e-14
1.25204e-15
2.38502e-14
2.80304e-14
3.13594e-15
3.22859e-15
4.18366e-17
1.36235e-16
4.38109e-15
4.86224e-17
3.00583e-15
1.07151e-15
8.68776e-17
2.41804e-15
1.07124e-17
2.31361e-15
2.28923e-17
4.13348e-16
1.76745e-16
4.82133e-17
2.57751e-18
2.48284e-19
4.99108e-19
1.0425e-20
4.98258e-19
4.87303e-19
8.96261e-21
5.10965e-19
9.93515e-21
9.11211e-21
6.02837e-15
8.34687e-17
4.32794e-15
8.72618e-18
2.42071e-16
2.96864e-16
1.62811e-18
2.49414e-19
1.38627e-21
7.35235e-20
1.47732e-21
6.46905e-20
1.7648e-21
6.63563e-20
1.37881e-21
3.22321e-20
5.22699e-21
7.15369e-21
3.66617e-16
1.07254e-16
1.17484e-17
2.14591e-18
3.17991e-16
6.83747e-17
1.19903e-17
2.18732e-15
2.04292e-16
4.91454e-15
2.30074e-17
5.38117e-15
5.53247e-17
8.05642e-16
8.30507e-17
5.58912e-19
1.11568e-17
1.58408e-18
1.58478e-17
3.77202e-18
4.06615e-17
1.11896e-18
5.39001e-18
5.1351e-20
1.61566e-19
1.29341e-18
3.54904e-18
3.65611e-20
9.09928e-19
5.74894e-20
1.1945e-18
9.5643e-21
1.51122e-18
2.62235e-20
2.96453e-19
4.06636e-19
6.54308e-20
3.59529e-19
6.57301e-18
6.38458e-19
1.51429e-18
1.86042e-20
5.40084e-20
1.37425e-19
1.01355e-22
3.46188e-21
1.27489e-22
2.84179e-21
1.09088e-22
3.3287e-21
1.0191e-22
2.0568e-21
3.46847e-22
8.32389e-22
9.01733e-15
5.26796e-15
6.64504e-16
7.4081e-17
1.18259e-14
2.02024e-15
4.22369e-16
1.88138e-14
1.58933e-14
1.90831e-16
5.85344e-16
8.44495e-15
1.13872e-15
8.44111e-18
1.15858e-16
1.59839e-17
2.03993e-16
6.4944e-17
3.56767e-16
3.61919e-17
2.75119e-16
2.27583e-18
5.11218e-18
5.61456e-17
1.0318e-16
1.10722e-18
7.18809e-18
4.40432e-18
3.01395e-19
4.75278e-20
8.60396e-18
1.76842e-18
2.03676e-19
1.39977e-17
8.63885e-19
1.56404e-17
3.02782e-19
2.16074e-17
3.77816e-19
4.28699e-18
9.36277e-19
1.02397e-20
1.63098e-19
6.65445e-20
2.31116e-19
4.289e-20
4.59626e-19
2.65422e-20
1.57363e-19
1.29498e-21
3.32423e-21
3.27382e-20
7.72266e-20
9.45179e-22
2.20858e-20
1.46388e-21
1.73898e-20
2.86736e-21
3.0991e-20
8.13845e-22
8.97658e-21
3.24406e-17
2.65142e-18
1.72611e-17
6.51235e-18
1.96364e-17
3.2975e-19
6.81751e-19
2.63893e-18
1.046e-20
1.32047e-21
5.84228e-21
3.3583e-20
1.6405e-20
1.06531e-20
4.29619e-22
4.28536e-21
1.60581e-21
7.02498e-23
1.83318e-22
3.76617e-23
9.40053e-17
3.3208e-15
4.32599e-17
1.728e-15
1.05258e-16
3.13537e-15
4.27215e-17
3.02521e-18
2.69074e-20
1.42469e-18
2.73439e-20
1.38555e-18
1.41459e-18
2.67384e-20
2.76963e-20
2.76349e-22
4.50166e-21
8.27257e-21
1.79634e-22
1.15542e-20
2.47184e-22
1.49057e-22
6.42746e-14
1.11596e-11
1.6914e-14
7.02261e-12
2.4931e-14
1.17932e-12
5.18946e-15
7.31646e-18
5.34361e-19
8.36231e-20
1.17667e-17
3.33471e-18
2.31619e-19
5.25291e-20
1.70091e-18
6.46754e-20
4.35823e-20
1.80526e-18
8.75955e-19
4.6138e-20
2.57429e-20
3.81148e-13
6.19201e-14
1.14426e-11
8.43213e-14
4.70579e-13
6.22752e-15
1.15855e-15
8.41331e-16
3.62982e-17
2.10769e-15
8.44415e-16
1.12102e-16
1.70923e-17
7.66109e-19
1.76068e-20
1.5273e-20
7.64147e-19
5.7274e-19
1.43835e-20
1.00848e-20
5.59696e-15
2.18829e-14
4.95626e-16
2.04814e-14
1.17051e-15
1.70202e-15
9.36592e-17
9.34418e-17
1.37321e-17
2.89563e-18
1.28406e-16