/*--------------------------------*- C++ -*----------------------------------*\
  =========                 |
  \\      /  F ield         | OpenFOAM: The Open Source CFD Toolbox
   \\    /   O peration     | Website:  https://openfoam.org
    \\  /    A nd           | Version:  9
     \\/     M anipulation  |
\*---------------------------------------------------------------------------*/
FoamFile
{
    format      ascii;
    class       volScalarField;
    location    "0.0012";
    object      impulseMax;
}
// * * * * * * * * * * * * * * * * * * * * * * * * * * * * * * * * * * * * * //

dimensions      [1 -1 -1 0 0 0 0];

internalField   nonuniform List<scalar> 
10147
(
4.01196e-07
1.23795e-13
1.94632e-13
4.85064e-16
0
7.39887e-12
1.48447e-13
0
1.61286e-09
3.45905e-11
1.03262e-10
2.36564e-12
1.23236e-11
2.40609e-13
1.81656e-13
2.30405e-15
2.86521e-09
0
7.35842e-13
9.31842e-14
6.67422e-12
2.94066e-10
2.69983e-12
6.18649e-11
8.50854e-13
4.01502e-11
2.30337e-10
6.79978e-12
5.18543e-10
1.35898e-11
7.65177e-11
2.68403e-12
2.01772e-11
1.75506e-13
4.45481e-12
4.96671e-14
2.70569e-12
1.49946e-11
4.41945e-13
3.58399e-11
9.02773e-13
5.07756e-12
1.71158e-13
2.22282e-12
1.35818e-14
2.4177e-13
3.63798e-16
2.82273e-13
1.70671e-12
4.14556e-14
2.20576e-12
4.40022e-14
3.40983e-13
9.70128e-15
3.20142e-14
0
3.09228e-14
0
2.66785e-15
2.15853e-14
0
1.18841e-14
0
1.21266e-16
0
1.10416e-10
5.67005e-13
5.79166e-13
3.37607e-09
2.08137e-10
8.03839e-11
5.31422e-12
1.27528e-08
2.87448e-10
6.35163e-10
1.32234e-08
1.32958e-09
6.8362e-11
4.27355e-10
5.22494e-11
2.43465e-10
5.10214e-12
3.738e-11
9.7225e-11
2.58595e-10
2.92354e-11
7.94346e-11
6.34917e-12
4.30563e-13
1.44999e-13
6.80475e-12
2.62104e-12
1.3315e-13
5.92665e-12
5.17736e-13
2.33711e-12
1.0443e-10
5.45811e-12
1.54009e-11
1.21235e-11
3.73123e-11
9.64965e-13
1.8668e-13
9.33973e-13
3.69688e-14
1.43059e-12
4.82119e-14
2.55634e-12
8.74847e-14
1.60036e-13
1.70367e-12
7.14064e-12
1.15267e-11
3.84898e-13
8.62357e-13
2.76611e-12
1.11565e-14
6.79089e-15
4.71049e-13
1.53731e-13
2.75274e-14
3.39545e-15
2.5504e-13
1.25528e-13
6.75017e-12
3.26725e-13
1.09188e-12
5.24077e-13
2.42759e-12
5.96802e-14
7.27596e-15
5.56438e-14
3.63798e-16
8.97368e-14
7.27596e-16
1.50526e-13
3.75924e-15
1.47944e-14
1.58858e-13
7.84088e-13
1.38706e-12
3.4197e-14
8.62374e-14
3.21078e-13
1.21266e-16
0
4.2547e-14
1.11565e-14
7.27596e-16
0
2.15853e-14
3.39545e-15
3.74868e-13
1.12777e-14
4.49723e-14
2.15853e-14
1.27173e-13
3.63798e-16
0
7.27596e-16
0
1.21266e-15
0
3.75924e-15
0
0
3.63798e-16
7.51849e-15
1.23691e-14
0
0
1.33393e-15
0
0
0
0
0
0
0
1.21266e-16
1.45519e-15
3.61182e-13
3.63798e-15
5.82077e-15
0
3.45608e-14
0
0
9.70128e-16
0
0
0
5.3357e-15
4.55909e-11
1.66767e-10
5.05985e-11
1.38485e-11
2.6471e-12
8.07598e-12
9.41628e-12
0
7.27596e-16
4.03642e-14
2.66785e-15
1.33704e-13
3.39545e-15
7.11658e-14
1.92068e-12
1.75718e-12
2.68478e-11
1.0077e-12
3.49696e-11
2.53032e-10
1.54521e-11
5.89879e-12
1.37288e-11
1.33479e-13
3.89945e-12
2.10467e-12
1.43965e-11
1.27009e-12
2.21206e-13
7.76102e-15
1.21959e-13
9.15402e-13
2.06152e-14
3.76098e-13
2.59093e-13
6.5077e-10
6.22631e-10
5.94132e-09
3.10668e-10
1.5605e-07
9.49164e-09
4.93707e-09
0
0
9.52769e-13
0
0
0
0
0
3.97441e-13
1.33393e-15
0
0
0
0
9.94381e-15
0
0
0
0
0
0
0
0
0
0
0
0
0
0
0
0
0
0
0
0
0
0
0
0
0
0
0
0
0
0
0
5.73415e-14
0
0
0
0
0
2.4617e-14
0
0
0
0
0
0
0
0
0
0
0
0
0
0
0
0
0
0
0
0
0
0
0
0
0
0
0
0
0
0
0
0
0
0
0
0
0
0
0
0
0
0
3.63798e-16
0
0
0
0
0
0
0
0
0
0
0
0
0
0
0
0
0
0
0
0
0
0
0
0
0
0
0
0
0
0
0
0
0
0
0
0
0
0
0
0
0
0
0
0
0
0
0
0
0
0
0
0
0
0
0
0
0
0
0
0
0
0
0
0
0
0
0
0
0
0
0
0
0
0
0
0
0
0
5.39634e-14
0
0
0
0
4.9719e-15
0
0
0
0
0
0
0
0
0
0
0
0
0
0
0
0
0
0
0
0
0
0
0
0
0
0
0
0
0
0
0
0
0
0
0
0
0
0
0
0
0
3.23442e-12
1.19222e-13
4.85064e-16
0
0
0
1.21266e-16
0
0
0
0
0
0
0
0
0
0
0
0
0
0
0
0
0
0
0
0
0
0
0
0
0
0
0
0
0
0
0
0
0
0
0
0
0
0
0
0
0
3.81399e-13
1.04289e-14
0
0
0
0
2.54659e-15
0
0
0
0
0
0
0
0
0
0
0
0
0
0
0
0
0
0
0
0
0
0
0
0
0
0
0
0
0
0
0
0
0
0
0
0
0
0
0
0
0
6.18456e-15
0
0
0
0
0
0
0
0
0
0
0
0
0
0
0
0
0
0
0
0
0
0
0
0
0
0
0
0
0
0
0
0
0
0
0
0
0
0
0
0
0
0
0
0
0
0
0
0
0
0
0
0
0
0
0
0
0
0
0
0
0
0
0
0
0
0
0
0
0
0
0
0
0
0
0
0
0
0
0
0
0
0
0
0
0
0
0
0
0
0
0
0
0
0
0
0
0
0
0
0
0
0
0
0
0
0
0
0
0
0
0
0
0
0
0
0
0
0
0
0
0
0
0
0
0
0
0
0
0
0
0
0
0
0
0
0
0
0
0
0
0
0
0
1.64471e-13
0
5.45177e-14
0
0
0
0
0
0
0
0
0
0
0
0
0
0
0
0
0
0
0
0
0
0
1.72198e-14
1.89937e-13
9.58001e-15
3.28146e-13
5.21444e-15
7.88229e-14
4.85064e-15
0
0
0
0
0
0
0
0
0
0
0
0
0
0
0
0
0
0
0
0
0
7.27596e-15
0
0
0
0
0
0
0
0
0
0
0
0
0
0
0
0
0
0
0
0
0
0
0
0
7.76102e-15
0
0
2.18279e-15
0
0
0
0
0
0
0
0
0
0
0
0
0
0
0
0
0
0
0
0
0
0
0
0
0
0
0
0
0
0
0
0
0
0
0
0
0
0
0
0
0
0
0
0
0
0
0
0
0
0
0
0
0
0
0
0
0
0
0
0
0
0
0
0
0
0
0
0
0
0
0
0
0
0
0
0
0
0
0
0
0
0
0
0
0
0
0
0
0
0
0
0
0
0
0
0
0
0
0
0
0
0
0
0
0
0
0
0
0
0
0
0
0
0
0
0
0
0
0
0
0
0
2.06152e-15
0
0
1.10265e-13
1.64922e-14
3.63798e-16
0
0
0
0
0
0
0
0
0
0
0
0
0
0
0
1.87962e-14
9.33748e-15
1.21266e-16
1.69772e-15
0
1.54992e-11
4.23305e-13
0
0
1.83981e-09
3.09375e-12
8.92171e-14
0
0
0
1.94971e-11
8.50698e-13
1.89175e-14
0
0
0
4.36072e-13
1.30967e-14
0
0
0
0
3.51671e-15
0
0
0
0
0
0
0
0
0
0
0
3.39545e-15
9.70128e-16
1.88776e-13
2.86188e-14
2.54659e-15
8.1508e-14
1.01863e-14
1.21266e-16
0
0
9.68222e-14
1.33393e-15
0
4.42448e-14
0
0
0
1.91063e-13
0
2.18798e-14
0
0
2.43052e-14
8.00355e-15
0
0
3.65184e-14
0
1.61284e-14
0
1.21266e-16
0
0
1.21266e-16
0
0
0
1.09774e-11
3.2651e-11
9.17134e-13
8.14214e-14
8.90349e-11
2.00779e-11
3.29235e-12
7.22693e-13
2.99768e-12
4.12304e-15
0
2.14241e-12
3.46595e-13
7.0265e-14
8.24609e-15
5.58863e-14
0
0
2.54485e-14
2.54659e-15
0
0
1.04845e-12
6.55287e-13
0
2.30405e-14
1.96451e-14
3.2482e-14
6.79089e-15
3.63798e-16
1.21266e-16
0
4.48684e-15
0
0
0
0
0
0
0
0
0
0
0
0
0
0
1.21266e-16
1.00651e-14
4.39676e-14
1.6435e-13
6.91216e-15
3.6605e-14
3.63798e-16
0
0
7.27596e-16
0
0
7.27596e-16
0
0
5.43964e-14
1.33393e-15
7.15469e-15
1.33393e-15
1.80686e-14
0
0
0
0
0
0
0
0
0
0
0
0
0
0
0
0
0
0
0
0
0
0
0
0
0
0
0
0
0
0
0
0
0
0
0
0
0
0
0
0
0
0
0
0
0
0
0
0
0
0
0
0
0
0
0
0
0
0
0
0
0
0
0
0
0
0
0
0
0
0
0
0
0
0
0
0
0
0
0
0
0
0
0
0
0
0
0
0
0
0
0
0
0
0
1.33393e-15
0
1.21266e-16
0
0
0
0
0
0
0
0
0
0
0
0
0
0
0
0
0
0
0
0
0
0
0
0
0
0
0
0
0
0
0
0
0
0
0
0
0
0
0
0
0
0
0
0
0
0
0
0
0
0
0
0
0
0
0
0
0
0
0
0
0
0
0
0
0
0
0
0
0
0
0
0
0
0
0
0
0
0
0
0
0
0
0
0
0
0
0
0
0
0
0
0
0
0
0
0
0
0
0
0
0
0
0
0
0
0
0
0
0
0
0
0
0
0
0
0
0
0
0
0
0
0
0
0
0
0
0
0
0
0
0
0
0
0
0
0
0
0
0
0
0
0
0
0
0
0
0
0
0
0
0
0
0
0
0
0
0
0
0
0
0
0
0
0
0
0
0
0
0
0
0
0
0
0
0
0
0
0
0
0
0
0
0
0
0
0
0
0
0
0
0
0
0
0
0
0
0
0
0
0
0
0
0
0
0
0
0
0
0
0
0
0
0
0
0
0
0
0
0
0
0
0
0
0
0
0
0
0
0
0
0
0
0
0
0
0
0
0
0
0
0
0
0
0
0
0
0
0
0
0
0
0
0
0
0
0
0
0
0
0
0
0
0
0
0
0
0
0
0
0
0
0
0
0
0
0
0
0
0
0
0
0
0
0
0
0
0
0
0
0
0
0
0
0
4.85064e-16
1.21266e-16
0
0
0
0
0
0
0
0
0
0
0
0
9.10383e-11
2.01732e-10
8.50674e-11
1.64677e-09
2.11364e-10
9.32414e-13
1.31851e-11
1.24615e-12
1.5121e-11
9.03535e-13
1.33647e-11
1.16713e-12
1.29755e-14
2.65278e-13
3.00047e-14
4.33179e-13
1.3218e-14
2.53186e-13
3.01259e-14
4.12304e-15
3.51671e-15
4.12304e-15
1.38659e-13
1.43908e-13
1.27139e-13
1.49833e-13
9.70128e-16
3.63798e-16
3.63798e-16
5.63713e-14
4.40195e-14
5.24908e-14
4.50936e-14
0
0
0
5.09317e-15
6.54836e-15
8.00355e-15
3.75924e-15
0
0
0
4.85064e-16
0
1.21266e-16
1.21266e-16
0
0
0
0
0
0
0
3.63798e-15
1.03128e-13
1.84827e-13
5.57823e-15
1.11911e-13
3.03165e-15
5.57823e-15
0
0
0
0
0
0
0
0
0
0
0
0
0
0
0
0
0
0
0
0
0
5.11564e-12
1.143e-11
4.17832e-12
1.69411e-10
8.47181e-11
2.05176e-10
7.909e-11
1.22024e-11
4.46687e-12
6.66789e-11
1.03993e-11
1.74917e-10
4.49363e-12
3.27678e-13
7.02788e-13
2.07867e-13
4.84626e-12
1.21024e-11
4.33949e-12
1.22793e-11
2.54485e-14
2.80124e-14
1.18841e-14
7.54344e-13
2.88422e-13
5.99192e-13
2.92095e-13
2.87643e-13
3.76697e-12
1.90041e-13
3.04462e-12
2.82931e-13
3.55167e-12
1.92466e-13
1.69772e-15
2.54659e-15
4.85064e-16
5.35996e-14
8.76406e-14
5.22656e-14
7.81819e-14
0
0
0
1.27329e-14
5.57823e-15
1.46732e-14
5.57823e-15
0
0
0
0
0
0
0
0
3.90476e-14
1.21266e-16
2.68691e-14
0
2.38721e-14
0
0
1.23691e-14
1.66134e-14
0
5.94203e-15
0
0
2.9452e-13
6.10176e-13
1.96832e-13
6.79089e-15
2.78912e-14
2.69037e-14
8.59083e-14
3.27418e-15
0
1.28332e-11
7.27596e-16
1.67347e-14
0
0
0
0
0
0
1.40965e-10
4.75505e-10
7.61484e-12
1.85537e-14
3.37362e-13
7.27596e-15
0
0
1.69772e-15
0
0
0
0
0
0
0
0
0
0
0
0
0
0
0
0
0
0
0
0
0
0
0
0
0
0
0
0
0
0
0
0
0
5.97575e-11
6.87244e-11
1.8314e-10
1.01413e-09
3.22535e-09
1.39394e-09
2.36824e-09
1.11622e-12
5.04934e-13
9.59396e-12
3.18228e-12
3.32246e-12
1.60418e-13
3.29618e-13
0
0
0
0
0
0
0
0
0
0
0
0
0
0
0
0
0
0
0
0
0
0
0
0
0
0
0
0
0
0
0
0
0
0
0
1.14614e-13
9.69781e-14
2.66868e-12
1.14333e-12
1.39102e-12
3.3608e-14
3.832e-14
1.22981e-13
3.63971e-14
3.63971e-14
7.27596e-16
0
9.70128e-16
0
1.21266e-16
0
0
0
0
0
0
0
0
0
0
0
0
0
0
0
0
0
0
0
0
0
0
0
0
0
0
0
0
0
0
0
0
0
0
0
0
0
0
0
0
0
0
0
0
0
0
0
0
0
0
0
0
0
0
0
0
0
0
0
0
0
0
0
0
0
0
0
0
0
0
0
0
0
0
0
0
0
0
0
0
0
0
0
0
0
0
0
0
0
0
0
0
0
0
0
0
0
0
0
0
0
0
0
0
0
0
0
0
0
0
0
0
0
0
0
0
0
0
0
0
0
0
0
0
0
7.67064e-11
6.42753e-11
2.8858e-11
4.2858e-11
1.32463e-09
1.35911e-09
6.71203e-10
3.50157e-12
1.43291e-12
1.41484e-12
7.49113e-11
4.16907e-11
6.21329e-11
4.24031e-11
8.49555e-14
2.60549e-14
2.96409e-14
2.13771e-12
1.13034e-12
2.19005e-12
1.14957e-12
0
0
0
4.53535e-14
1.64922e-14
4.53535e-14
1.64922e-14
9.70128e-16
6.45481e-14
1.21266e-16
5.28027e-14
7.27596e-16
6.22441e-14
4.85064e-16
0
0
0
0
0
0
0
3.63798e-15
0
1.21266e-16
0
0
0
3.63798e-16
3.27418e-15
2.47383e-14
0
5.21444e-15
1.21266e-16
7.28808e-14
1.96451e-14
0
0
0
0
0
0
0
0
0
0
0
0
0
0
0
0
0
0
0
0
0
0
0
0
0
0
0
0
0
0
0
0
0
0
0
4.72937e-15
0
0
0
0
0
0
0
0
0
0
0
0
0
0
0
0
0
0
0
5.8102e-13
4.21313e-14
1.33393e-15
0
0
0
0
0
0
0
0
0
0
0
0
0
0
1.69772e-15
0
0
0
0
0
0
0
0
0
0
0
0
0
0
0
0
0
0
0
0
1.08196e-05
0.000382524
5.56479e-09
7.17259e-11
8.85264e-07
1.0415e-09
1.98649e-12
6.43804e-10
1.76418e-12
1.69165e-07
7.80018e-07
6.98824e-10
2.09221e-11
6.36772e-08
9.50218e-11
9.36832e-13
3.59973e-11
1.86732e-13
5.46234e-06
1.68197e-07
7.33448e-08
2.98589e-10
7.53486e-12
2.28769e-09
2.46886e-11
2.94832e-13
1.60217e-12
3.45088e-14
1.83012e-07
1.94648e-08
1.699e-06
4.18688e-09
3.90485e-11
1.03435e-12
5.65465e-08
8.50061e-11
3.45996e-12
3.18756e-14
7.5047e-11
6.73546e-14
8.95077e-09
2.30996e-10
5.22195e-12
9.38945e-14
1.60355e-07
1.31396e-09
3.03374e-11
6.81775e-13
0
2.91309e-09
3.28896e-10
8.59178e-12
1.83216e-13
1.21266e-16
6.41695e-10
1.83558e-11
4.24951e-13
4.72937e-15
0
8.05331e-12
2.04853e-13
7.27596e-16
0
1.63213e-11
4.97398e-13
5.57823e-15
0
0
3.47011e-13
6.30583e-15
0
0
0
1.13926e-07
2.5783e-08
4.11596e-08
8.03974e-09
9.57993e-10
4.21656e-07
1.26266e-08
3.24203e-09
4.01936e-10
1.18427e-08
1.21647e-09
8.88254e-11
1.45838e-10
3.3901e-11
7.64513e-13
5.69395e-09
2.6468e-10
2.78241e-10
1.82071e-11
3.10773e-12
3.28426e-12
6.5844e-13
1.12621e-13
7.3373e-08
1.81186e-10
5.68806e-07
1.85832e-08
4.31851e-09
2.75626e-11
9.29129e-11
2.20885e-11
3.27011e-12
6.10186e-10
3.54764e-11
4.09921e-12
1.49614e-12
1.15532e-11
2.80814e-10
1.67205e-12
4.0884e-13
2.62368e-13
1.25419e-06
7.66806e-09
2.7379e-06
1.18387e-07
2.05129e-08
2.0547e-10
2.46299e-09
9.86095e-10
9.58973e-12
6.34953e-09
2.86016e-10
4.16291e-11
1.83827e-12
6.96546e-12
1.0141e-12
2.63528e-13
1.85982e-11
3.23616e-12
3.03511e-13
1.30985e-13
5.25918e-10
1.43195e-09
1.54002e-11
5.57009e-13
3.41507e-12
2.45633e-13
4.53535e-14
3.44723e-08
1.036e-09
7.07582e-11
8.18182e-11
5.34542e-10
8.61281e-11
1.60274e-09
6.89879e-10
6.41081e-11
8.58122e-09
2.8632e-10
5.02451e-11
1.15347e-11
7.71922e-12
1.50706e-11
3.00438e-12
3.07461e-13
9.83155e-13
2.10882e-13
1.44633e-11
2.94746e-11
5.98357e-12
1.17628e-14
2.44957e-14
5.3357e-15
1.87745e-08
1.67512e-08
1.15986e-09
1.56415e-08
1.00144e-08
1.55973e-09
4.87167e-10
5.50079e-10
9.2296e-11
2.06154e-11
1.13471e-09
2.04498e-10
5.06738e-11
8.32515e-12
1.2544e-11
2.02533e-12
4.33075e-13
1.87375e-11
4.31541e-12
7.81195e-13
1.55065e-13
1.57632e-09
2.81909e-09
1.25624e-06
7.8335e-08
8.93459e-07
3.82692e-08
4.82464e-07
5.8302e-07
3.21582e-08
8.74783e-08
1.30797e-09
7.46796e-09
9.42354e-08
1.60651e-09
2.06541e-08
2.01168e-08
3.88506e-09
6.47018e-08
5.31483e-10
6.12527e-08
9.11036e-10
1.11468e-08
7.43944e-09
2.59438e-09
2.26039e-10
2.45663e-11
4.55323e-11
1.48317e-12
3.39944e-11
3.28072e-11
1.31582e-12
3.50402e-11
1.43016e-12
1.29561e-12
1.06862e-07
2.79634e-09
6.95578e-08
4.48538e-10
4.11947e-09
6.82387e-09
1.16885e-10
2.88567e-11
2.15611e-13
5.75261e-12
1.74831e-13
4.96565e-12
2.66317e-13
5.25861e-12
1.89262e-13
4.40322e-12
7.09198e-13
1.00573e-12
7.31543e-09
3.04257e-09
6.00947e-10
1.12466e-10
8.37236e-09
1.88509e-09
4.80611e-10
2.88951e-08
6.42905e-09
7.28557e-08
9.74932e-10
8.97585e-08
1.80639e-09
1.65388e-08
2.89352e-09
5.02274e-11
4.74188e-10
1.25514e-10
8.6523e-10
2.22475e-10
1.95076e-09
5.34739e-11
2.96968e-10
4.38907e-12
1.41178e-11
6.88264e-11
1.98345e-10
3.2096e-12
3.78299e-11
6.36482e-12
6.25397e-11
1.03086e-12
8.84279e-11
2.24631e-12
1.67898e-11
4.46653e-11
7.19145e-12
3.33883e-11
4.70335e-10
6.04532e-11
1.1865e-10
3.12521e-12
8.21424e-12
1.63742e-11
1.28542e-14
4.11421e-13
1.89175e-14
1.96693e-13
1.67347e-14
3.5699e-13
6.79089e-15
4.44977e-13
6.87405e-14
1.44151e-13
2.12141e-07
1.07777e-07
2.3491e-08
3.47351e-09
2.43835e-07
4.95435e-08
1.62044e-08
2.92397e-07
2.88756e-07
5.59766e-09
1.87989e-08
9.55397e-08
3.18363e-08
4.75048e-10
2.80251e-09
6.99295e-10
5.69621e-09
2.94609e-09
8.51964e-09
1.53382e-09
1.10994e-08
2.07369e-10
4.21032e-10
2.76368e-09
5.36713e-09
9.6266e-11
2.76351e-10
1.639e-10
2.86745e-11
4.18005e-12
3.71062e-10
7.15841e-11
1.73747e-11
4.74035e-10
6.85964e-11
5.97622e-10
1.45944e-11
8.69929e-10
2.73427e-11
1.6736e-10
4.64266e-11
1.00342e-12
9.46668e-12
3.29206e-12
1.24162e-11
4.11433e-12
2.41382e-11
2.08541e-12
1.32596e-11
2.00591e-13
4.53102e-13
3.04513e-12
6.53984e-12
1.1671e-13
2.12813e-12
2.13376e-13
1.7889e-12
1.64956e-13
2.79759e-12
1.31955e-13
7.71252e-13
1.9574e-09
2.26261e-10
1.08903e-09
3.72706e-10
1.18202e-09
3.4339e-11
5.40852e-11
2.0255e-10
2.06429e-12
2.39518e-13
1.0743e-12
5.07134e-12
1.45701e-12
1.65667e-12
6.96586e-14
4.46293e-13
3.10164e-13
9.82254e-15
1.70985e-14
4.9719e-15
3.14701e-09
5.82008e-08
1.72645e-09
3.20835e-08
3.62294e-09
5.45203e-08
1.58798e-09
1.64685e-10
3.58551e-12
8.69431e-11
3.77082e-12
7.32208e-11
8.62319e-11
3.29831e-12
3.70481e-12
4.03642e-14
6.39366e-13
9.33783e-13
2.86881e-14
9.70942e-13
3.55829e-14
3.38159e-14
5.63635e-07
2.26514e-05
2.18109e-07
1.77629e-05
2.71037e-07
3.04736e-06
5.87846e-08
2.15821e-10
3.56617e-11
6.04364e-12
4.785e-10
8.30124e-11
1.68648e-11
2.70745e-12
6.15416e-11
4.48509e-12
2.68639e-12
6.58355e-11
2.65845e-11
2.99503e-12
1.25457e-12
2.01768e-06
4.91242e-07
2.80307e-05
6.47924e-07
2.46338e-06
7.68298e-08
1.24234e-08
1.31348e-08
8.18176e-10
2.54996e-08
1.06649e-08
2.88317e-09
5.04816e-10
2.24556e-11
1.03055e-12
8.58771e-13
2.2116e-11
1.12119e-11
8.56051e-13
4.04578e-13
7.47921e-08
3.38827e-07
1.27368e-08
1.88793e-07
2.52843e-08
3.22187e-08
2.50602e-09
1.58164e-09
5.28147e-10
9.50836e-11
2.73802e-09
1.34643e-09
2.07652e-10
6.76731e-11
3.24075e-12
1.5205e-13
1.12552e-13
3.00196e-12
1.25552e-12
1.03215e-13
4.03816e-14
1.08232e-08
1.60395e-10
3.07081e-10
3.5354e-09
6.39072e-09
6.03787e-11
1.35189e-09
6.73679e-11
8.26914e-10
1.13181e-11
1.02538e-09
1.78743e-11
2.06507e-10
3.60355e-10
3.58866e-08
2.19576e-07
6.62992e-09
2.00611e-07
1.86284e-08
3.93181e-08
1.94282e-09
2.74304e-13
3.832e-14
4.36557e-15
3.70641e-13
7.40762e-14
1.04289e-14
0
9.15416e-08
5.13129e-09
1.05129e-10
1.85916e-12
1.90388e-14
147.14
344.725
71.7725
2.5599
0.000939332
71.6971
2.73762e-05
217.512
1.66856
86.6904
0.00330989
7.33556e-07
0.0261201
53.3446
0.00152077
0.649385
1.33988e-06
1.6921e-09
8.907e-06
1.24863
1.62401e-05
1.33069e-07
1.03052e-08
2.40361e-08
2.4591e-10
4.70382e-10
4.8944e-12
1.53142e-13
3.63798e-16
0
0
8.99811e-12
7.40762e-14
0
0
0
0
1.58062e-13
2.54659e-15
0
0
0
0
0
0
0
0
0
0
0
0
0
0
0
54.2095
0.133025
125.183
54.0761
0.00213891
3.27773e-05
0.00377019
0.0470362
1.13026e-05
5.94906e-05
0.0475385
0.000592959
1.17267e-05
0.114697
0.000150743
7.28794
0.000110876
2.59481e-07
1.10671e-06
4.34048e-06
3.77024e-06
1.73912e-07
3.6292e-08
3.4835e-05
2.37738e-08
2.98659e-09
9.25846e-06
1.6109e-07
0.0103689
7.3257e-06
2.85606e-08
1.90824e-08
1.36789e-08
1.80899e-09
1.91934e-05
0.000511416
1.03913e-05
0.0899674
0.00323531
1.87747e-08
3.92492e-08
3.04061e-09
2.24198e-06
7.36476e-07
2.86987e-10
1.15212e-09
2.25099e-10
1.04382e-08
4.85963e-09
1.55541e-08
15.8382
1.48952
4.05313
0.0739777
0.841651
2.40576
21.9107
42.6681
2.44854
13.3433
15.8025
6.22255
0.0180281
0.0248338
0.0751693
0.209079
0.624304
0.883622
0.000634644
0.0417778
0.000103482
0.00207906
0.0233486
5.67898e-05
0.00113928
1.71198e-05
2.80509e-06
1.55329e-06
3.05683e-05
0.000154461
0.000501564
0.000687323
1.74219e-06
0.00574088
1.36293e-05
1.97802e-05
4.38842e-06
7.64933e-08
3.9265e-07
9.26637e-07
2.31357
0.0259134
1.31859
1.64776
11.1169
0.00591639
0.0312019
0.310983
4.09936e-07
2.22512e-07
0.000115449
2.53094e-07
2.33528e-06
7.53336e-09
5.16452e-08
0.0920802
0.170498
1.89578
0.00839741
0.00297319
0.00171668
0.00513045
8.42598e-06
0.0586981
9.34199e-05
0.000268248
0.00524635
7.55836e-05
0.000469683
0.000876688
0.000183299
6.97783e-07
2.59559e-06
3.13708e-06
7.44402e-06
1.64225e-05
3.49188e-05
5.86649e-07
4.91742e-05
1.59179e-07
2.9664e-07
1.82269e-06
3.25496e-06
4.38983e-08
1.18131e-07
1.14471e-08
1.50734e-07
7.10613e-09
3.72661e-07
5.54131e-08
4.41656e-07
9.22403e-09
6.27947e-07
2.08227e-08
1.72901e-07
3.09921e-08
1.05335e-09
2.23911e-09
1.34217e-08
0.00173688
1.53708e-06
6.89233e-05
7.75137e-06
0.000106392
8.47031e-08
2.99732e-07
2.68677e-06
9.06086e-10
4.06199e-10
5.09348e-09
6.08436e-10
1.20098e-09
8.22527e-11
1.50802e-10
0.000106275
2.73106e-05
0.000317871
9.13905e-06
5.55845e-06
1.67989e-06
1.26337e-06
1.09485e-07
1.37044e-05
1.22927e-06
5.42968e-07
2.72142e-05
6.28062e-07
2.38836e-06
6.64931e-06
1.83983e-06
4.87692e-08
5.0573e-07
9.17724e-08
7.4604e-07
1.83845e-07
9.34904e-07
6.15461e-08
1.84514e-07
3.69857e-09
1.45509e-08
4.76035e-08
1.74689e-07
3.49141e-09
1.09779e-07
8.66135e-09
4.85397e-08
5.33036e-08
1.94965e-07
3.33857e-09
8.03545e-09
1.66582e-08
7.77697e-07
1.25688e-07
1.30512e-06
6.81286e-08
154.663
215.083
135.161
295.767
62.6089
165.146
88.8309
0.0139871
10.6218
0.000926699
13.9069
0.000546783
0.289751
0.000244616
21.3374
122.871
0.690724
100.09
0.0963854
45.9832
0.000776027
4.67328e-05
0.0204211
3.99854e-06
0.00371678
6.19247e-06
1.97715e-05
1.20784e-06
0.0395429
15.1102
0.000108726
20.9856
0.000630718
2.48594
2.95552e-05
1.23317e-05
1.4535e-05
0.000878393
4.94631e-06
3.52625e-05
4.03799e-06
1.15956e-05
8.71913e-07
0.0482835
9.044e-08
7.64837e-09
1.5677e-09
1.64214e-10
2.72672e-11
3.12156e-12
4.39676e-13
4.30494e-14
5.82553e-06
6.69576e-08
1.87787e-09
1.44057e-07
7.60129e-09
1.11805e-08
4.16405e-07
3.73967e-08
1.6045e-07
1.2932e-05
1.0908e-06
1.53064e-06
8.50001e-10
3.78567e-09
1.00831e-09
2.74817e-08
1.88167e-08
9.25391e-08
1.20318e-08
3.3196e-08
3.90787e-07
2.71762e-09
6.49675e-07
1.77221e-08
4.2741e-08
8.15271e-07
5.24679e-08
2.2283e-08
5.13562e-07
2.78551e-08
4.72271e-07
127.198
150.169
4.08266
5.49271e-05
8.37517e-08
122.384
29.043
30.2768
4.7409
0.00190359
0.000228131
0.000666322
8.97821e-06
6.80871e-07
0.000307859
2.51683e-05
7.43168e-06
9.98184e-08
1.08266e-06
1.84388e-06
7.61979e-09
37.1081
125.981
27.1166
0.15469
1.69391e-05
1.38046e-08
3.81794e-06
3.77498e-07
1.55667e-07
66.4636
156.08
38.4086
104.365
139.864
29.0214
79.0189
69.8988
64.8698
109.229
80.4578
22.1202
0.252034
2.51714
0.0130811
0.0222304
0.144783
0.00439683
0.00783734
0.000216933
0.00259388
5.21749e-05
0.000110327
0.000633449
4.0063e-06
0.000656834
0.000319725
0.00059933
2.3613e-06
0.00773926
2.89089e-05
5.06714e-05
4.45942e-05
2.5792e-07
1.05953e-06
3.33897e-07
2.87275e-06
3.54278e-06
3.58902e-06
1.31694e-05
1.63263e-07
1.77134e-06
4.30199e-05
1.81763e-07
3.64341e-06
2.1191e-08
2.90121e-08
2.64651e-07
311.459
240.609
263.948
104.799
329.449
131.883
156.646
39.2927
40.9948
0.0465144
45.7184
0.00698807
10.5277
0.0159848
0.255833
0.000218001
0.00136396
1.61351e-05
311.106
240.351
374.126
216.379
221.126
346.236
333.344
270.935
170.606
135.46
217.044
186.823
294.434
214.399
545.176
292.295
499.075
224.059
298.391
416.217
74.1673
73.3951
121.039
5.88476
143.139
23.9706
41.6906
27.5113
0.343781
0.543899
1.05542
3.46503
6.74144
9.33288
159.469
5.69408
49.8886
0.180608
0.213078
5.53143
1.48455
0.188853
0.362671
0.00530306
4.00729
0.0635094
0.124613
0.375606
0.00128546
0.00272792
0.00523371
0.0157163
0.0305805
0.0661444
0.033092
0.000416577
0.00995904
9.80792e-05
0.000384961
0.00234437
2.69231e-07
4.3198e-07
3.37073e-07
2.32873e-06
2.44249e-06
5.5301e-06
1.88024e-07
285.336
3.3003
142.802
240.542
124.887
0.325871
34.991
45.6994
1.47402
97.8075
74.2002
35.4769
0.138717
0.00218703
224.015
274.166
212.159
220.2
155.994
207.59
142.87
175.027
130.693
162.647
79.1497
107.53
95.3022
68.3987
328.123
368.286
352.578
263.737
307.404
290.115
281.633
58.534
0.584807
0.0162054
0.00168094
0.0413254
95.4116
25.2914
294.58
257.313
274.399
322.498
368.802
353.014
339.725
175.837
169.538
104.448
259.335
196.207
190.704
125.507
94.1759
38.7114
60.5949
114.369
145.914
79.3357
54.5405
119.976
108.486
86.9037
60.7015
51.2313
43.3057
35.1954
320.314
276.847
251.597
231.11
209.891
257.414
181.985
197.348
285.176
267.615
317.193
299.945
232.905
250.977
226.709
220.279
179.934
290.344
280.633
321.395
246.745
55.3178
26.0742
15.1436
93.0628
72.4756
39.2591
25.3333
189.82
150.89
122.116
57.1497
144.484
116.341
81.1809
1.06697e-05
0.00347436
0.000549142
20
0.000248979
3.96239
3.99185e-05
72.9664
71.1458
47.2085
22.4994
22.9819
40.8385
10.1568
189.979
236.921
124.124
138.353
218.927
108.961
207.755
236.109
267.87
188.623
222.364
114.837
200.51
150.056
73.2213
37.2686
63.0886
10.1929
25.5792
19.3664
6.75688
173.695
156.812
111.874
247.492
230.196
187.451
204.284
131.435
134.313
119.05
64.6985
54.0231
44.8115
54.3974
144.308
27.3811
83.3311
61.5896
131.746
72.1692
20.8585
19.8795
0.00142187
0.147447
0.000147298
1.72594e-05
0.0130845
4.54631
32.6983
37.125
20.1973
1.98382
13.7959
5.08973
6.75463
115.028
89.2739
54.1344
156.625
115.458
225.659
185.554
8.16755
27.4535
45.2153
36.3704
1.94565
5.25446
20.8391
119.143
58.2886
47.6441
156.47
91.1147
77.8474
173.665
157.069
106.9
134.669
41.0474
185.795
79.6228
106.704
16.4899
19.3511
4.67992
63.879
98.0925
31.8338
60.3224
16.4877
1.3513
6.14269
27.0622
50.1311
12.3652
3.53772
82.6826
199.196
156.369
150.119
107.778
78.2372
43.4992
157.883
91.5095
61.0679
56.9678
15.8685
34.3656
86.4715
95.4394
7.22956
42.5237
48.9649
115.237
58.1796
13.6561
28.1478
82.3722
21.9129
116.73
102.352
33.5735
41.6199
1.86347e-05
0.00105683
0.0634159
8.50884e-06
0.00550278
9.20658e-05
1.89054e-06
22.6405
25.1731
8.99179
0.49251
2.16794
8.88239
2.82619
0.635778
1.83722
4.83545
30.8249
45.7217
10.2003
19.1379
1.01393
6.63782
15.1548
25.7729
0.890188
2.65507
13.3513
17.4444
0.836792
12.5132
0.526032
9.11332
6.00808
0.298724
6.24281e-06
1.21099e-06
1.36243e-05
0.000993753
2.53575e-06
1.50487e-05
4.05931e-07
100.927
49.2236
89.3465
11.9281
33.6197
26.4892
8.2816
4.61028
15.8434
47.9082
60.5858
11.6584
38.9721
6.81364
7.98002
27.4461
47.8868
124.228
21.7083
52.0891
76.9976
13.5537
73.4666
10.1567
2.85068
50.876
26.8789
0.813489
4.23171
7.57561
1.61039
0.193489
0.0666147
0.397837
1.14782
9.15251
7.59111
2.31469
0.510373
0.393828
2.12928
0.09546
0.0473837
3.1878
1.15469
0.381521
7.31934
3.09832
0.134857
14.5381
4.19411
2.48186
1.96884
1.10207
0.20104
0.11072
94.1747
80.3466
43.8272
29.5326
9.51122
22.2659
6.28053
2.07634
0.312453
2.33669
0.0231357
6.77164
0.0795496
0.576739
56.6547
2.0421
10.3967
37.6766
74.2032
18.1996
4.69099
51.9693
33.5656
12.8908
0.790156
30.5733
11.0944
4.72948
0.0289147
0.163153
1.40858
5.33627
0.696708
16.5052
3.65072
0.405778
0.177468
0.0170089
8.71135
1.12954
0.490608
0.0483214
2.28642e-06
6.53907e-07
1.54828e-06
0.0176668
0.000473543
5.07146e-05
0.00116572
0.618474
0.138813
3.14814
1.82542
0.0143672
0.0766246
0.346104
1.39528
38.3535
0.675585
5.66202
4.57072
21.5051
0.185314
0.0135586
0.00321494
0.0816167
0.96638
0.00952919
0.236375
0.337174
12.8353
0.364101
9.16264
6.16262
0.343282
0.214793
8.88867
24.5745
1.68477
9.82925
22.8304
0.228085
1.88826
6.67564
0.417498
7.24829
0.248722
1.21479
26.5111
20.1605
1.99156
2.88797
14.7126
1.71522
1.45714
0.847079
0.107347
0.0606261
1.2592
1.73358
0.214986
0.0473048
0.0710429
0.350719
0.00857351
13.0876
0.036867
1.09465
4.8107
3.30113
29.7927
0.189711
0.0769671
0.464838
0.415657
0.00306298
0.0168333
0.103376
0.0188938
0.0119509
0.0552075
0.297842
0.820475
0.00627673
0.0337035
0.155891
0.118338
0.0278912
0.298107
0.00114348
0.0508518
0.0120711
0.004812
0.0667345
2.2469
1.42164
3.35831
0.166536
0.103719
5.05335
0.410684
0.0824941
0.233872
0.0059684
0.0159133
0.00884906
0.00329542
0.15797
0.317806
0.0106163
9.20034
0.815217
0.401431
0.0278998
0.0264085
0.0781443
0.226414
0.00106862
0.0269354
0.00317409
0.00918029
2.30207
0.00811858
0.0645764
0.326889
1.50721
8.87757
0.0422811
0.00300852
0.0198497
0.083619
0.453121
0.00467765
0.0168661
0.119072
0.00279055
0.0313423
0.00346353
0.0665739
0.755501
0.0842671
0.00724776
0.543389
0.109415
3.47691
2.12111
0.00932036
0.0632202
0.316936
0.02258
0.00394166
0.0064886
0.14327
0.781246
0.490311
0.231131
0.00334639
0.000157762
0.000810932
0.0205091
0.0158218
0.0868114
0.00375391
0.000994074
0.0117726
0.0213496
0.34744
0.19352
0.0155511
0.00847653
0.00565971
0.072561
0.359247
1.49927
0.0414411
0.207101
0.0099463
0.000873158
0.0509555
0.458089
0.102836
0.0136198
0.00332422
0.0271366
0.0262528
3.54262
0.0155435
0.00607036
0.531391
0.187742
0.000832595
0.000643294
0.000311094
0.007846
0.00264503
0.0162358
0.00189066
0.0474402
9.73455e-08
1.96222e-06
4.38907e-07
1.36961e-06
2.04871e-07
4.47843e-08
8.26337e-08
0.0119327
0.0594943
0.418406
1.03427
0.00437145
0.0299588
0.152236
0.000523088
0.0385755
0.00141858
0.0366418
0.106287
0.00391971
0.00145349
0.0353806
0.0221795
0.0122955
0.00259214
0.00143504
0.000910903
0.000506255
9.96979e-06
1.84841e-06
1.9567e-07
7.67888e-07
1.56316e-07
2.20923e-07
2.4499e-06
2.23962e-07
8.4277e-07
1.55169e-06
9.94673e-07
1.57018e-05
7.98973e-06
4.47253e-07
0.00172215
0.00718752
0.000265057
0.0160602
0.00222018
0.000574863
9.30438e-05
0.0848536
0.00188431
0.0463916
0.000366124
0.00851058
0.00460926
0.000206062
0.00116656
0.00658001
0.0575298
5.71838e-05
0.000423967
0.000267229
0.00226605
0.00549568
0.00954761
0.0592271
0.000385702
4.56741e-05
0.00023133
0.00237265
0.00010051
0.00182121
0.00515597
0.0301268
0.00128847
0.0854012
0.00366823
0.00139454
0.378564
0.00130351
0.00630494
0.0104133
0.0517857
0.000179274
0.00391433
0.00106438
0.000151185
0.0387919
0.0191179
0.142311
0.00516065
0.000289813
0.00711415
0.000689822
0.000810627
0.0202757
0.00198532
9.21826e-05
0.00023578
0.00186665
9.51468e-05
0.0157063
0.00536075
0.000634246
0.000230661
1.36875e-09
3.46032e-11
6.90014e-08
3.59462e-09
8.08041e-11
1.51317e-12
0.000161963
1.32515e-08
2.99903e-10
6.30926e-12
1.0467e-13
4.03023e-08
8.57827e-10
1.8598e-11
7.53495e-13
3.60039e-13
6.66963e-15
9.70128e-16
0
8.96884e-08
7.42234e-10
1.06746e-08
2.75807e-10
6.60379e-09
1.15059e-10
5.42148e-10
1.20918e-11
4.54293e-08
1.23621e-09
3.18679e-11
6.87699e-13
4.17867e-11
1.09872e-12
1.57646e-14
1.10184e-12
1.85364e-14
0
2.65095e-06
1.57646e-14
0
0
0
0
0
0
0
0
7.60461e-07
4.11079e-05
4.9662e-06
8.08621e-06
2.57334e-07
3.70361e-07
6.52624e-05
1.27846e-06
8.26665e-07
1.39795e-07
1.88455e-06
8.96866e-07
1.04662e-07
4.15931e-07
1.021e-05
3.93601e-05
3.13895e-07
2.23604e-06
1.12013e-06
2.40244e-07
1.26111e-06
1.92936e-05
2.0504e-07
2.31391e-07
3.77261e-07
1.72621e-06
6.27849e-06
4.17518e-06
9.66574e-07
0.00167814
0.000453944
0.00277293
2.02515e-05
0.0128552
6.48693e-05
0.000335681
0.00155392
0.000197587
0.000334253
0.0116739
0.00687331
0.0339278
0.0566103
0.000607584
0.00118299
4.46907e-05
0.000201055
0.106408
0.00310308
0.00616914
0.000153344
5.0204e-05
0.000119107
0.0115224
0.000898326
0.000416956
0.00285964
9.97051e-06
0.000121814
3.5771e-05
0.000158348
0.000657587
0.00406742
0.000741432
0.0462276
0.000805494
0.0263357
0.000130122
0.00359585
0.00201201
7.7592e-05
0.0108524
0.0101783
0.00625289
0.000520483
0.000318266
0.00018371
0.000297776
3.82519e-07
3.98413e-07
6.11201e-06
1.65274e-07
1.36209e-06
1.18234e-07
1.64029e-07
0.000523003
0.00856958
0.000131938
0.00202848
9.7751e-05
0.000361414
1.79377e-05
0.00557095
0.000580035
0.00303981
6.66942e-05
0.000234894
0.000137949
4.59399e-05
0.00434671
0.000127173
0.000565519
4.25606e-05
0.000156815
2.93883e-05
1.37926e-05
1.58056e-07
8.71567e-08
6.68101e-07
2.67443e-07
9.62282e-07
9.77269e-08
7.50809e-08
2.66432e-07
1.68059e-07
3.05903e-06
7.38823e-07
1.21045e-07
8.57274e-08
1.03943e-07
8.17316e-05
8.48788e-06
2.55554e-05
5.03073e-05
0.00198648
0.000472791
0.000194483
1.7659e-05
2.67894e-05
0.000194545
0.000250629
0.0044615
3.29148e-05
0.000485928
2.05702e-05
0.00472837
0.000345623
0.00037254
0.0122884
0.000916001
3.88471e-05
0.00189373
6.00524e-05
3.94024e-05
0.00479185
0.00294152
8.86949e-05
0.000141082
7.06783e-05
2.85277e-05
0.000519355
3.41036e-05
1.91864e-05
0.000134261
0.000371777
0.000114664
0.00124792
0.000140058
9.91261e-06
4.75732e-06
5.21855e-05
9.01036e-06
5.52709e-05
7.08465e-06
1.01292e-05
0.00015268
0.00196707
0.00112049
0.00026935
2.10472e-05
4.70506e-05
4.7518e-05
0.00106002
1.24078e-05
0.000128791
0.000357284
5.66541e-05
4.18274e-05
1.47479e-05
0.000228992
0.0017525
0.00901746
0.00116958
0.000457746
2.96456e-05
1.56982e-05
0.000249002
0.00130288
6.07319e-05
2.255e-05
0.0031371
0.000269971
0.00179647
2.23248e-05
9.39083e-05
5.63706e-05
1.54483e-05
4.76739e-06
9.73311e-05
0.000447975
0.000189948
1.65553e-05
9.95756e-06
2.89011e-05
7.76659e-06
5.13836e-06
1.57567e-05
3.05286e-05
0.00148953
0.00039573
0.000107177
1.14266e-05
3.14448e-05
4.99552e-05
3.51094e-05
0.000651153
0.000352923
2.3496e-05
8.89473e-05
3.79567e-05
0.000827464
3.19329e-05
0.000246217
1.8924e-05
1.13602e-05
0.00108923
6.16099e-05
0.000601414
6.15113e-05