/*--------------------------------*- C++ -*----------------------------------*\
  =========                 |
  \\      /  F ield         | OpenFOAM: The Open Source CFD Toolbox
   \\    /   O peration     | Website:  https://openfoam.org
    \\  /    A nd           | Version:  9
     \\/     M anipulation  |
\*---------------------------------------------------------------------------*/
FoamFile
{
    format      ascii;
    class       volScalarField;
    location    "0.0012";
    object      p;
}
// * * * * * * * * * * * * * * * * * * * * * * * * * * * * * * * * * * * * * //

dimensions      [1 -1 -2 0 0 0 0];

internalField   nonuniform List<scalar> 
10147
(
101298
101298
101298
101298
101298
101298
101298
101298
101298
101298
101298
101298
101298
101298
101298
101298
101298
101298
101298
101298
101298
101298
101298
101298
101298
101298
101298
101298
101298
101298
101298
101298
101298
101298
101298
101298
101298
101298
101298
101298
101298
101298
101298
101298
101298
101298
101298
101298
101298
101298
101298
101298
101298
101298
101298
101298
101298
101298
101298
101298
101298
101298
101298
101298
101298
101298
101298
101298
101298
101298
101298
101298
101298
101298
101298
101298
101298
101298
101298
101298
101298
101298
101298
101298
101298
101298
101298
101298
101298
101298
101298
101298
101298
101298
101298
101298
101298
101298
101298
101298
101298
101298
101298
101298
101298
101298
101298
101298
101298
101298
101298
101298
101298
101298
101298
101298
101298
101298
101298
101298
101298
101298
101298
101298
101298
101298
101298
101298
101298
101298
101298
101298
101298
101298
101298
101298
101298
101298
101298
101298
101298
101298
101298
101298
101298
101298
101298
101298
101298
101298
101298
101298
101298
101298
101298
101298
101298
101298
101298
101298
101298
101298
101298
101298
101298
101298
101298
101298
101298
101298
101298
101298
101298
101298
101298
101298
101298
101298
101298
101298
101298
101298
101298
101298
101298
101298
101298
101298
101298
101298
101298
101298
101298
101298
101298
101298
101298
101298
101298
101298
101298
101298
101298
101298
101298
101298
101298
101298
101298
101298
101298
101298
101298
101298
101298
101298
101298
101298
101298
101298
101298
101298
101298
101298
101298
101298
101298
101298
101298
101298
101298
101298
101298
101298
101298
101298
101298
101298
101298
101298
101298
101298
101298
101298
101298
101298
101298
101298
101298
101298
101298
101298
101298
101298
101298
101298
101298
101298
101298
101298
101298
101298
101298
101298
101298
101298
101298
101298
101298
101298
101298
101298
101298
101298
101298
101298
101298
101298
101298
101298
101298
101298
101298
101298
101298
101298
101298
101298
101298
101298
101298
101298
101298
101298
101298
101298
101298
101298
101298
101298
101298
101298
101298
101298
101298
101298
101298
101298
101298
101298
101298
101298
101298
101298
101298
101298
101298
101298
101298
101298
101298
101298
101298
101298
101298
101298
101298
101298
101298
101298
101298
101298
101298
101298
101298
101298
101298
101298
101298
101298
101298
101298
101298
101298
101298
101298
101298
101298
101298
101298
101298
101298
101298
101298
101298
101298
101298
101298
101298
101298
101298
101298
101298
101298
101298
101298
101298
101298
101298
101298
101298
101298
101298
101298
101298
101298
101298
101298
101298
101298
101298
101298
101298
101298
101298
101298
101298
101298
101298
101298
101298
101298
101298
101298
101298
101298
101298
101298
101298
101298
101298
101298
101298
101298
101298
101298
101298
101298
101298
101298
101298
101298
101298
101298
101298
101298
101298
101298
101298
101298
101298
101298
101298
101298
101298
101298
101298
101298
101298
101298
101298
101298
101298
101298
101298
101298
101298
101298
101298
101298
101298
101298
101298
101298
101298
101298
101298
101298
101298
101298
101298
101298
101298
101298
101298
101298
101298
101298
101298
101298
101298
101298
101298
101298
101298
101298
101298
101298
101298
101298
101298
101298
101298
101298
101298
101298
101298
101298
101298
101298
101298
101298
101298
101298
101298
101298
101298
101298
101298
101298
101298
101298
101298
101298
101298
101298
101298
101298
101298
101298
101298
101298
101298
101298
101298
101298
101298
101298
101298
101298
101298
101298
101298
101298
101298
101298
101298
101298
101298
101298
101298
101298
101298
101298
101298
101298
101298
101298
101298
101298
101298
101298
101298
101298
101298
101298
101298
101298
101298
101298
101298
101298
101298
101298
101298
101298
101298
101298
101298
101298
101298
101298
101298
101298
101298
101298
101298
101298
101298
101298
101298
101298
101298
101298
101298
101298
101298
101298
101298
101298
101298
101298
101298
101298
101298
101298
101298
101298
101298
101298
101298
101298
101298
101298
101298
101298
101298
101298
101298
101298
101298
101298
101298
101298
101298
101298
101298
101298
101298
101298
101298
101298
101298
101298
101298
101298
101298
101298
101298
101298
101298
101298
101298
101298
101298
101298
101298
101298
101298
101298
101298
101298
101298
101298
101298
101298
101298
101298
101298
101298
101298
101298
101298
101298
101298
101298
101298
101298
101298
101298
101298
101298
101298
101298
101298
101298
101298
101298
101298
101298
101298
101298
101298
101298
101298
101298
101298
101298
101298
101298
101298
101298
101298
101298
101298
101298
101298
101298
101298
101298
101298
101298
101298
101298
101298
101298
101298
101298
101298
101298
101298
101298
101298
101298
101298
101298
101298
101298
101298
101298
101298
101298
101298
101298
101298
101298
101298
101298
101298
101298
101298
101298
101298
101298
101298
101298
101298
101298
101298
101298
101298
101298
101298
101298
101298
101298
101298
101298
101298
101298
101298
101298
101298
101298
101298
101298
101298
101298
101298
101298
101298
101298
101298
101298
101298
101298
101298
101298
101298
101298
101298
101298
101298
101298
101298
101298
101298
101298
101298
101298
101298
101298
101298
101298
101298
101298
101298
101298
101298
101298
101298
101298
101298
101298
101298
101298
101298
101298
101298
101298
101298
101298
101298
101298
101298
101298
101298
101298
101298
101298
101298
101298
101298
101298
101298
101298
101298
101298
101298
101298
101298
101298
101298
101298
101298
101298
101298
101298
101298
101298
101298
101298
101298
101298
101298
101298
101298
101298
101298
101298
101298
101298
101298
101298
101298
101298
101298
101298
101298
101298
101298
101298
101298
101298
101298
101298
101298
101298
101298
101298
101298
101298
101298
101298
101298
101298
101298
101298
101298
101298
101298
101298
101298
101298
101298
101298
101298
101298
101298
101298
101298
101298
101298
101298
101298
101298
101298
101298
101298
101298
101298
101298
101298
101298
101298
101298
101298
101298
101298
101298
101298
101298
101298
101298
101298
101298
101298
101298
101298
101298
101298
101298
101298
101298
101298
101298
101298
101298
101298
101298
101298
101298
101298
101298
101298
101298
101298
101298
101298
101298
101298
101298
101298
101298
101298
101298
101298
101298
101298
101298
101298
101298
101298
101298
101298
101298
101298
101298
101298
101298
101298
101298
101298
101298
101298
101298
101298
101298
101298
101298
101298
101298
101298
101298
101298
101298
101298
101298
101298
101298
101298
101298
101298
101298
101298
101298
101298
101298
101298
101298
101298
101298
101298
101298
101298
101298
101298
101298
101298
101298
101298
101298
101298
101298
101298
101298
101298
101298
101298
101298
101298
101298
101298
101298
101298
101298
101298
101298
101298
101298
101298
101298
101298
101298
101298
101298
101298
101298
101298
101298
101298
101298
101298
101298
101298
101298
101298
101298
101298
101298
101298
101298
101298
101298
101298
101298
101298
101298
101298
101298
101298
101298
101298
101298
101298
101298
101298
101298
101298
101298
101298
101298
101298
101298
101298
101298
101298
101298
101298
101298
101298
101298
101298
101298
101298
101298
101298
101298
101298
101298
101298
101298
101298
101298
101298
101298
101298
101298
101298
101298
101298
101298
101298
101298
101298
101298
101298
101298
101298
101298
101298
101298
101298
101298
101298
101298
101298
101298
101298
101298
101298
101298
101298
101298
101298
101298
101298
101298
101298
101298
101298
101298
101298
101298
101298
101298
101298
101298
101298
101298
101298
101298
101298
101298
101298
101298
101298
101298
101298
101298
101298
101298
101298
101298
101298
101298
101298
101298
101298
101298
101298
101298
101298
101298
101298
101298
101298
101298
101298
101298
101298
101298
101298
101298
101298
101298
101298
101298
101298
101298
101298
101298
101298
101298
101298
101298
101298
101298
101298
101298
101298
101298
101298
101298
101298
101298
101298
101298
101298
101298
101298
101298
101298
101298
101298
101298
101298
101298
101298
101298
101298
101298
101298
101298
101298
101298
101298
101298
101298
101298
101298
101298
101298
101298
101298
101298
101298
101298
101298
101298
101298
101298
101298
101298
101298
101298
101298
101298
101298
101298
101298
101298
101298
101298
101298
101298
101298
101298
101298
101298
101298
101298
101298
101298
101298
101298
101298
101298
101298
101298
101298
101298
101298
101298
101298
101298
101298
101298
101298
101298
101298
101298
101298
101298
101298
101298
101298
101298
101298
101298
101298
101298
101298
101298
101298
101298
101298
101298
101298
101298
101298
101298
101298
101298
101298
101298
101298
101298
101298
101298
101298
101298
101298
101298
101298
101298
101298
101298
101298
101298
101298
101298
101298
101298
101298
101298
101298
101298
101298
101298
101298
101298
101298
101298
101298
101298
101298
101298
101298
101298
101298
101298
101298
101298
101298
101298
101298
101298
101298
101298
101298
101298
101298
101298
101298
101298
101298
101298
101298
101298
101298
101298
101298
101298
101298
101298
101298
101298
101298
101298
101298
101298
101298
101298
101298
101298
101298
101298
101298
101298
101298
101298
101298
101298
101298
101298
101298
101298
101298
101298
101298
101298
101298
101298
101298
101298
101298
101298
101298
101298
101298
101298
101298
101298
101298
101298
101298
101298
101298
101298
101298
101298
101298
101298
101298
101298
101298
101298
101298
101298
101298
101298
101298
101298
101298
101298
101298
101298
101298
101298
101298
101298
101298
101298
101298
101298
101298
101298
101298
101298
101298
101298
101298
101298
101298
101298
101298
101298
101298
101298
101298
101298
101298
101298
101298
101298
101298
101298
101298
101298
101298
101298
101298
101298
101298
101298
101298
101298
101298
101298
101298
101298
101298
101298
101298
101298
101298
101298
101298
101298
101298
101298
101298
101298
101298
101298
101298
101298
101298
101298
101298
101298
101298
101298
101298
101298
101298
101298
101298
101298
101298
101298
101298
101298
101298
101298
101298
101298
101298
101298
101298
101298
101298
101298
101298
101298
101298
101298
101298
101298
101298
101298
101298
101298
101298
101298
101298
101298
101298
101298
101298
101298
101298
101298
101298
101298
101298
101298
101298
101298
101298
101298
101298
101298
101298
101298
101298
101298
101298
101298
101298
101298
101298
101298
101298
101298
101298
101298
101298
101298
101298
101298
101298
101298
101298
101298
101298
101298
101298
101298
101298
101298
101298
101298
101298
101298
101298
101298
101298
101298
101298
101298
101298
101298
101298
101298
101298
101298
101298
101298
101298
101298
101298
101298
101298
101298
101298
101298
101298
101298
101298
101298
101298
101298
101298
101298
101298
101298
101298
101298
101298
101298
101298
101298
101298
101298
101298
101298
101298
101298
101298
101298
101298
101298
101298
101298
101298
101298
101298
101298
101298
101298
101298
101298
101298
101298
101298
101298
101298
101298
101298
101298
101298
101298
101298
101298
101298
101298
101298
101298
101298
101298
101298
101298
101298
101298
101298
101298
101298
101298
101298
101298
101298
101298
101298
101298
101298
101298
101298
101298
101298
101298
101298
101298
101298
101298
101298
101298
101298
101298
101298
101298
101298
101298
101298
101298
101298
101298
101298
101298
101298
101298
101298
101298
101298
101298
101298
101298
101298
101298
101298
101298
101298
101298
101298
101298
101298
101298
101298
101298
101298
101298
101298
101298
101298
101298
101298
101298
101298
101298
101298
101298
101298
101298
101298
101298
101298
101298
101298
101298
101298
101298
101298
101298
101298
101298
101298
101298
101298
101298
101298
101298
101298
101298
101298
101298
101298
101298
101298
101298
101298
101298
101298
101298
101298
101298
101298
101298
101298
101298
101298
101298
101298
101298
101298
101298
101298
101298
101298
101298
101298
101298
101298
101298
101298
101298
101298
101298
101298
101298
101298
101298
101298
101298
101298
101298
101298
101298
101298
101298
101298
101298
101298
101298
101298
101298
101298
101298
101298
101298
101298
101298
101298
101298
101298
101298
101298
101298
101298
101298
101298
101298
101298
101298
101298
101298
101298
101298
101298
101298
101298
101298
101298
101298
101298
101298
101298
101298
101298
101298
101298
101298
101298
101298
101298
101298
101298
101298
101298
101298
101298
101298
101298
101298
101298
101298
101298
101298
101298
101298
101298
101298
101298
101298
101298
101298
101298
101298
101298
101298
101298
101298
101298
101298
101298
101298
101298
101298
101298
101298
101298
101298
101298
101298
101298
101298
101298
101298
101298
101298
101298
101298
101298
101298
101298
101298
101298
101298
101298
101298
101298
101298
101298
101298
101298
101298
101298
101298
101298
101298
101298
101298
101298
101298
101298
101298
101298
101298
101298
101298
101298
101298
101298
101298
101298
101298
101298
101298
101298
101298
101298
101298
101298
101298
101298
101298
101298
101298
101298
101298
101298
101298
101298
101298
101298
101298
101298
101298
101298
101298
101298
101298
101298
101298
101298
101298
101298
101298
101298
101298
101298
101298
101298
101298
101298
101298
101298
101298
101298
101298
101298
101298
101298
101298
101298
101298
101298
101298
101298
101298
101298
101298
101298
101298
101298
101298
101298
101298
101298
101298
101298
101298
101298
101298
101298
101298
101298
101298
101298
101298
101298
101298
101298
101298
101298
101298
101298
101298
101298
101298
101298
101298
101298
101298
101298
101298
101298
101298
101298
101298
101298
101298
101298
101298
101298
101298
101298
101298
101298
101298
101298
101298
101298
101298
101298
101298
101298
101298
101298
101298
101298
101298
101298
101298
101298
101298
101298
101298
101298
101298
101298
101298
101298
101298
101298
101298
101298
101298
101298
101298
101298
101298
101298
101298
101298
101298
101298
101298
101298
101298
101298
101298
101298
101298
101298
101298
101298
101298
101298
101298
101298
101298
101298
101298
101298
101298
101298
101298
101298
101314
101298
101298
101298
101298
101298
101298
101298
101298
101298
101298
101298
101298
101298
101298
101298
101298
101298
101298
101298
101298
101298
101298
101298
101298
101298
101298
101298
101298
101298
101298
101298
101298
101298
101298
101298
101298
101298
101298
101298
101298
101298
101298
101298
101298
101298
101298
101298
101298
101298
101298
101298
101298
101298
101298
101298
101298
101298
101298
101298
101298
101298
101298
101298
101298
101298
101298
101298
101298
101298
101298
101298
101298
101298
101298
101298
101298
101298
101298
101298
101298
101298
101298
101298
101298
101298
101298
101298
101298
101298
101298
101298
101298
101298
101298
101298
101298
101298
101298
101298
101298
101298
101298
101298
101298
101298
101298
101298
101298
101298
101298
101298
101298
101298
101298
101298
101298
101298
101298
101298
101298
101298
101298
101298
101298
101298
101298
101298
101298
101298
101298
101298
101298
101298
101298
101298
101298
101298
101298
101298
101298
101298
101298
101298
101298
101298
101298
101298
101298
101298
101298
101298
101298
101298
101298
101298
101298
101298
101298
101298
101298
101298
101298
101298
101298
101298
101298
101298
101298
101298
101298
101298
101298
101298
101298
101298
101298
101298
101298
101298
101298
101298
101298
101298
101298
101298
101298
101298
101298
101298
101298
101298
101298
101298
101298
101298
101298
101298
101298
101298
101298
101298
101298
101298
101298
101298
101298
101298
101298
101298
101298
101298
101298
101298
101298
101298
101298
101298
101298
101298
101298
101298
101298
101298
101298
101298
101298
101298
101298
101298
101298
101298
101298
101298
101298
101298
101298
101298
101298
101298
101298
101298
101298
101298
101298
101298
101298
101298
101298
101298
101298
101298
101298
101298
101298
101298
101298
101298
101298
101298
101298
101298
101298
101298
101298
101298
101298
101298
101298
101298
101298
101298
101298
101298
101298
101298
101298
101298
101298
101298
101298
101298
101298
101298
101298
101298
101298
101298
101298
101298
101298
101298
101298
101298
101298
101298
101298
101298
101298
101298
101298
101298
101298
101298
101298
101298
101298
101298
101298
101298
101298
101298
101298
101298
101298
101298
101298
101298
101298
101298
101298
101298
101298
101298
101298
101298
101298
101298
101298
101298
101298
101298
101298
101298
101298
101298
101298
101298
101298
101298
101298
101298
101298
101298
101298
101298
101298
101298
101298
101298
101298
101298
101298
101298
101298
101298
101298
101298
101298
101298
101298
101298
101298
101298
101298
101298
101298
101298
101298
101298
101298
101298
101298
101298
101298
101298
101298
101298
101298
101298
101298
101298
101298
101298
101298
101298
101298
101298
101298
101298
101298
101298
101298
101298
101298
101298
101299
101298
101299
101298
101298
101298
101298
101298
101298
101298
101298
101298
101298
101298
101298
101298
101298
101298
101298
101298
101298
101298
101299
101298
101298
101298
101298
101298
101298
101298
101298
101298
101298
101298
101298
101298
101298
101298
101298
101298
101298
101298
101298
101298
101298
101298
101298
101298
101298
101298
101298
101298
101298
101298
101298
101298
101298
101298
101298
101298
101298
101298
101298
101298
101298
101298
101298
101298
101298
101298
101298
101298
101298
101298
101298
101298
101298
101298
101298
101298
101298
101298
101298
101298
101298
101298
101298
101298
101298
101298
101298
101298
101298
101298
1.11342e+06
723305
1.01902e+06
204756
101347
993853
101298
1.08619e+06
170927
1.13023e+06
101450
101298
102098
618224
101347
122306
101298
101298
101298
141813
101298
101298
101298
101298
101298
101298
101298
101298
101298
101298
101298
101298
101298
101298
101298
101298
101298
101298
101298
101298
101298
101298
101298
101298
101298
101298
101298
101298
101298
101298
101298
101298
101298
101298
958236
107048
1.16107e+06
959497
101398
101299
101465
103403
101298
101301
103831
101331
101299
106484
101305
337512
101302
101298
101298
101298
101298
101298
101298
101300
101298
101298
101298
101298
101661
101298
101298
101298
101298
101298
101299
101325
101299
106530
101486
101298
101298
101298
101298
101298
101298
101298
101298
101298
101298
101298
538096
164043
257543
104561
137559
200552
638950
882558
208941
530040
557720
326730
102110
102433
104787
110448
128778
141237
101326
103114
101303
101391
102321
101301
101348
101299
101298
101298
101299
101305
101321
101330
101298
101556
101299
101299
101298
101298
101298
101298
219407
102683
171017
192978
577061
101620
103079
118161
101298
101298
101304
101298
101298
101298
101298
105552
109323
185652
101697
101437
101379
101542
101298
104035
101302
101311
101528
101301
101319
101331
101306
101298
101298
101298
101298
101299
101299
101298
101300
101298
101298
101298
101298
101298
101298
101298
101298
101298
101298
101298
101298
101298
101298
101298
101298
101298
101298
101298
101298
101398
101298
101302
101298
101304
101298
101298
101298
101298
101298
101298
101298
101298
101298
101298
101302
101299
101309
101298
101298
101298
101298
101298
101298
101298
101298
101299
101298
101298
101298
101298
101298
101298
101298
101298
101298
101298
101298
101298
101298
101298
101298
101298
101298
101298
101298
101298
101298
101298
101298
101298
101298
101298
101298
101298
101298
1.13877e+06
1.03557e+06
1.16066e+06
805022
982983
1.11914e+06
1.10372e+06
101856
421761
101336
490909
101321
113779
101308
619036
1.19778e+06
132007
927585
104354
781701
101324
101300
102207
101298
101418
101298
101298
101298
102510
391646
101301
441149
101319
176553
101299
101298
101298
101330
101298
101299
101298
101298
101298
102720
101298
101298
101298
101298
101298
101298
101298
101298
101298
101298
101298
101298
101298
101298
101298
101298
101298
101299
101298
101298
101298
101298
101298
101298
101298
101298
101298
101298
101298
101298
101298
101298
101298
101298
101298
101298
101298
101298
101298
1.16039e+06
2.57078e+06
316117
101300
101298
1.69151e+06
877659
1.15441e+06
299964
101371
101309
101322
101298
101298
101309
101299
101298
101298
101298
101298
101298
1.2382e+06
2.36653e+06
1.02044e+06
110319
101299
101298
101298
101298
101298
1.02207e+06
1.22746e+06
944560
1.58852e+06
1.2076e+06
811987
1.08408e+06
1.36794e+06
1.06876e+06
1.19586e+06
1.96554e+06
673123
113113
208978
101885
102121
107550
101550
101571
101306
101389
101300
101302
101321
101298
101323
101310
101321
101298
101587
101299
101300
101300
101298
101298
101298
101298
101298
101298
101298
101298
101298
101300
101298
101298
101298
101298
101298
795087
2.1725e+06
864754
1.76488e+06
3.42632e+06
2.61409e+06
1.22216e+06
1.08763e+06
789619
103046
1.50533e+06
101638
340646
101856
109961
101306
101350
101299
1.56365e+06
1.36551e+06
2.36706e+06
2.10517e+06
1.33122e+06
2.34499e+06
1.5976e+06
1.47888e+06
2.00922e+06
1.30435e+06
2.30826e+06
1.29477e+06
2.32804e+06
1.44901e+06
3.66952e+06
3.27707e+06
3.63477e+06
3.07005e+06
3.54148e+06
3.61666e+06
1.12059e+06
1.13481e+06
1.9711e+06
340641
1.37997e+06
695385
1.13498e+06
696694
116442
121068
139715
235903
351737
354056
2.96724e+06
389469
1.59203e+06
111651
111956
378285
150777
107687
113476
101486
220608
103484
105597
114128
101345
101398
101491
101851
102380
103676
102548
101313
101661
101302
101313
101385
101298
101298
101298
101298
101298
101298
101298
868506
190041
743422
1.01112e+06
924012
111057
772729
584030
142656
657298
665938
533016
105454
101369
903287
900563
939949
1.07522e+06
1.07352e+06
1.10114e+06
1.08214e+06
846828
751082
868124
722194
907088
893294
697554
767415
673939
722849
901662
800094
842792
864870
931435
122828
101948
101368
102930
1.09316e+06
665050
826872
953387
933049
931383
702410
745382
918129
1.0495e+06
1.16317e+06
1.06897e+06
947626
990048
1.13262e+06
1.08576e+06
756161
589657
810109
758617
896890
865290
656416
683765
685384
653579
622816
594738
552298
516247
759496
878370
951882
956933
1.07431e+06
890619
1.13674e+06
1.05678e+06
853326
888214
780673
822324
974961
944929
999489
1.04519e+06
1.16976e+06
922288
857266
765890
1.01926e+06
605509
475141
374514
683303
640135
548280
459321
1.15647e+06
1.10252e+06
1.12117e+06
929332
1.17902e+06
1.16493e+06
1.02113e+06
101298
101410
101316
439606
101306
213349
101299
884276
724891
650884
565103
484540
716806
334468
1.06696e+06
982479
1.151e+06
1.12588e+06
1.00645e+06
1.11491e+06
1.05223e+06
942875
863988
1.13723e+06
1.04387e+06
1.17872e+06
1.03797e+06
1.18065e+06
642193
547977
624462
315931
461675
414829
261485
1.11697e+06
1.12603e+06
1.13925e+06
940479
968466
1.07694e+06
1.06009e+06
1.10195e+06
1.12461e+06
1.10246e+06
951824
882081
824273
900233
1.15177e+06
652555
994603
949590
1.14753e+06
959065
575832
577254
101356
105660
101304
101298
101706
268263
531404
540661
433919
160909
365480
231830
260150
1.2084e+06
1.11285e+06
970252
1.17123e+06
1.18284e+06
1.0918e+06
1.21732e+06
315466
502561
712966
657900
157481
253811
448233
1.1394e+06
969707
890083
1.12224e+06
1.10166e+06
1.04271e+06
1.11995e+06
1.11728e+06
1.11397e+06
1.16479e+06
846204
1.06311e+06
1.05367e+06
1.14464e+06
533564
487554
245362
768563
1.01476e+06
623001
922839
403793
143301
249558
490280
591078
342748
198910
1.09878e+06
1.03966e+06
1.13696e+06
1.19684e+06
1.18341e+06
1.09736e+06
904827
1.20034e+06
1.08397e+06
982114
981889
539314
774382
1.10488e+06
1.09985e+06
335283
810649
878840
1.13435e+06
901296
466813
685291
1.03876e+06
602531
1.12469e+06
1.08568e+06
732836
812836
101298
101331
103140
101298
101468
101301
101298
595053
522673
326164
117621
183324
358202
187259
122273
160620
233786
534721
627281
336308
457824
136599
263894
447979
571881
127874
187755
367284
392397
125056
338669
116084
289141
240313
109818
101298
101298
101298
101330
101298
101298
101298
1.07574e+06
877835
1.05441e+06
436677
729631
657766
360274
265142
511740
885702
950097
431241
804234
324287
373358
711857
921295
1.14507e+06
636997
925788
1.06981e+06
481690
1.03263e+06
422478
210780
919554
672588
135226
218015
280852
151891
107413
103463
113592
136852
307310
283601
172831
117186
113672
165108
104427
102741
187683
135555
112185
264999
184754
105319
383901
218011
176847
160688
135512
107682
104900
1.11998e+06
1.0677e+06
876824
736897
405848
640004
323168
175599
112366
171126
102040
298933
104257
119483
928641
183340
405976
791970
1.00952e+06
548077
268689
970227
791795
495829
136860
771430
463239
281799
102320
106835
147628
251359
125454
419926
211177
114509
107010
101869
303795
137629
116707
102891
101298
101298
101298
101966
101317
101300
101345
119712
105420
185922
154446
101746
103617
111653
158511
800642
129468
303766
264814
616278
109077
101720
101401
103862
130283
101597
108445
111335
440607
114825
365768
298523
114069
109455
362713
689916
174562
415864
670185
111457
183049
345259
118121
341870
111475
150554
684863
593043
180481
206578
496424
167252
159628
135892
105509
103707
153566
159700
108899
103302
103776
115384
101608
496308
102917
148516
278515
233566
743824
109345
103916
116467
114709
101404
101856
104647
101929
101671
103059
110206
125739
101499
102326
106126
105305
102256
111094
101338
102993
101706
101464
103918
186573
156414
222920
107687
105378
271266
114786
103788
109121
101479
101834
101601
101399
107877
114002
101732
388693
133543
117777
102416
102190
103933
108615
101335
102187
101406
101606
196202
101654
104079
114698
165171
383753
103133
101417
101969
104609
118257
101454
101941
105200
101401
102414
101425
103716
127793
104352
101569
122755
105593
226096
182474
101677
103806
113856
102186
101461
101561
107084
131469
120341
110386
101406
101303
101324
101951
101812
104043
101423
101331
101698
102012
112445
107628
101814
101583
101545
104380
116329
164216
103068
110102
101725
101335
103489
120981
105578
101887
101437
102444
102497
246088
102014
101572
125646
109584
101336
101319
101308
101555
101386
101817
101359
102799
101298
101298
101298
101298
101298
101298
101298
101779
103782
117693
141875
101479
102489
107476
101314
102659
101348
102413
104983
101435
101343
102333
101949
101667
101375
101341
101325
101313
101298
101298
101298
101298
101298
101298
101298
101298
101298
101298
101298
101298
101298
101298
101350
101521
101306
101784
101369
101315
101301
103979
101359
102777
101310
101577
101451
101304
101340
101527
103243
101300
101313
101307
101376
101493
101635
103327
101312
101299
101306
101381
101301
101361
101476
102323
101342
104168
101423
101360
117366
101356
101585
101750
103603
101306
101461
101342
101304
102917
102102
107089
101520
101307
101535
101321
101325
101955
101365
101301
101305
101356
101300
101769
101463
101317
101305
101298
101298
101298
101298
101298
101298
101304
101298
101298
101298
101298
101298
101298
101298
101298
101298
101298
101298
101298
101298
101298
101298
101298
101298
101298
101298
101298
101298
101298
101298
101298
101298
101298
101298
101298
101298
101298
101298
101298
101298
101298
101298
101298
101298
101298
101298
101298
101298
101299
101298
101298
101298
101298
101300
101298
101298
101298
101298
101298
101298
101298
101298
101299
101298
101298
101298
101298
101298
101298
101298
101298
101298
101298
101298
101298
101298
101369
101317
101396
101298
101826
101300
101310
101362
101306
101312
101780
101587
102696
103612
101325
101350
101300
101306
105967
101435
101565
101303
101299
101302
101717
101327
101313
101405
101298
101302
101299
101303
101320
101433
101323
103190
101331
102381
101303
101440
101378
101301
101715
101689
101543
101318
101310
101305
101309
101298
101298
101298
101298
101298
101298
101298
101316
101599
101302
101370
101301
101311
101298
101469
101316
101392
101300
101305
101302
101299
101436
101302
101317
101299
101303
101299
101298
101298
101298
101298
101298
101298
101298
101298
101298
101298
101298
101298
101298
101298
101298
101301
101298
101299
101300
101366
101314
101305
101298
101299
101305
101307
101465
101299
101317
101298
101499
101312
101313
101810
101335
101299
101373
101300
101299
101486
101415
101301
101303
101300
101299
101315
101299
101298
101302
101310
101302
101344
101303
101298
101298
101300
101298
101300
101298
101298
101305
101382
101346
101310
101299
101299
101299
101334
101298
101302
101310
101300
101300
101298
101308
101374
101678
101349
101313
101299
101298
101306
101339
101300
101298
101423
101309
101370
101299
101302
101300
101298
101298
101302
101319
101307
101299
101298
101299
101298
101298
101299
101299
101363
101315
101302
101298
101299
101300
101299
101320
101310
101299
101301
101299
101325
101299
101306
101298
101298
101336
101300
101319
101300
101299
101298
101298
101323
101302
101305
101298
101299
101298
101298
101299
101305
101318
101309
101298
101299
101302
101312
101298
101298
101303
101332
101299
101298
1.15386e+06
2.1786e+06
2.44811e+06
1.90838e+06
1.88418e+06
2.08337e+06
2.23056e+06
1.93447e+06
2.13884e+06
1.85908e+06
2.15281e+06
2.51314e+06
2.20282e+06
1.14728e+06
1.20229e+06
2.42437e+06
3.01361e+06
927379
2.72575e+06
643532
1.39698e+06
3.75968e+06
2.58582e+06
498302
903537
1.43636e+06
1.92107e+06
2.28104e+06
1.93475e+06
2.31055e+06
1.93953e+06
2.19367e+06
1.94487e+06
2.66929e+06
2.62027e+06
2.323e+06
1.67933e+06
1.84748e+06
2.6164e+06
2.70576e+06
1.93631e+06
1.54252e+06
2.71896e+06
1.26742e+06
2.18485e+06
850148
1.69901e+06
1.16368e+06
2.35999e+06
855309
3.26989e+06
4.29823e+06
4.03535e+06
3.78888e+06