/*--------------------------------*- C++ -*----------------------------------*\
  =========                 |
  \\      /  F ield         | OpenFOAM: The Open Source CFD Toolbox
   \\    /   O peration     | Website:  https://openfoam.org
    \\  /    A nd           | Version:  9
     \\/     M anipulation  |
\*---------------------------------------------------------------------------*/
FoamFile
{
    format      ascii;
    class       volScalarField;
    location    "0.0009";
    object      rhoE;
}
// * * * * * * * * * * * * * * * * * * * * * * * * * * * * * * * * * * * * * //

dimensions      [1 -1 -2 0 0 0 0];

internalField   nonuniform List<scalar> 
8137
(
1.32108e+06
31962.7
1.56318e+06
125769
1.88623e+06
82915.2
1.78228e+06
69855.4
508694
559944
1.38752e+06
1.46493e+06
531856
513400
1.51379e+06
120964
166471
35403.9
41829.6
122376
120547
49851.8
55990.6
124969
47861
63289.7
120889
56120.4
134387
145039
131321
56666.4
72962.1
128185
148895
60773.2
40167.8
34634.2
32323.3
33920
34530.6
36299.3
38480.1
63260.8
54545.1
173609
176547
185282
58226.3
59080.5
44949.7
34325.9
43440
38473.3
36569.7
41174.6
47057.6
45163.2
37345.4
50437.2
41679.2
37964
49811.7
42875
512400
511453
1.46329e+06
1.65867e+06
506904
1.57445e+06
532531
137886
72500.3
166895
77024.2
155743
65945.9
148502
569917
530353
1.62038e+06
1.79168e+06
528637
572978
1.64813e+06
542406
1.76622e+06
614644
1.82801e+06
587169
1.69515e+06
567156
32824.5
44221.3
52966.2
50313.6
63787.5
77811
54750.1
71278.4
44994.3
35481.4
37308.8
42093.6
39860.9
41419.7
43082.9
47558.8
47783.4
39393.5
49213.8
42928.9
44484.4
52265.3
49969.9
42764.8
52300.3
55306.4
44855.3
47937.8
57306.3
58242.5
51511.3
46198.3
56730.1
48207.2
49979.4
59579.4
37282.7
33203.5
33661.8
35154.1
34520
35645
36187.8
38106.5
34637
36634.6
37987.3
36319.2
36642.9
37978.7
38775.4
35913.2
37577.9
39723.2
36889.2
39122.3
37991
38790.7
37804.7
41081
41284.6
37957
40305.9
38387.4
60464.1
53189.9
55680.1
65316.1
48283.1
60655
57682.9
54124.5
55787.5
65673
59556
51276.8
61863.2
58316.1
69974.9
62898
56443.1
61959.8
54728.9
64235.4
63755.1
73865.8
59410.8
71154.2
70494.3
66755.3
66834
63618.3
1.22517e+06
31173.5
30346.8
1.41467e+06
124820
1.35706e+06
126815
1.19658e+06
203411
40943.7
49608.2
46977.5
41363.3
47458.3
30883
37879.9
494602
483209
1.29205e+06
1.15547e+06
694454
616490
1.20675e+06
35516.8
34020.3
35694.2
28020.8
30931.4
32460.8
37583.3
201153
188169
32978.6
27403.9
291900
30056.7
200759
516847
1.48823e+06
511341
566716
1.37566e+06
534675
1.28578e+06
123362
49825.7
41210.7
177328
35288.7
31580.5
123963
538552
1.47807e+06
512432
1.41065e+06
517274
568403
1.27999e+06
124612
125473
41545
35335
49881.8
178940
31781.8
495265
1.26747e+06
620371
496567
1.14645e+06
694713
1.19922e+06
208796
30190.8
32908.1
203162
27366
296524
30195.7
41316.8
44613.7
42541.8
37027.5
35371.8
32507.1
39696.7
47440.1
56947.4
54835.4
42452.3
52161.5
50066.3
44716.8
37898.4
38078.3
49180.4
47988.1
34892.3
46921.2
41589.6
42627.2
35109.5
40914.8
44577.3
39557.2
37081.5
32489.5
54823.5
49569
56924.5
44570.1
52047.1
42416
49987.3
33718.1
35551.5
37397.4
35546.6
28015.1
30896.5
32684.7
41395.1
48992
46800.8
37874
48177.5
35133.4
46796.5
31049.9
31672.9
31963.2
29452.2
32628.5
29989.8
30323.1
31247.5
32068.4
30809.4
28745
29252.7
30383.8
33083.7
50881.6
204471
51778.7
224769
54628.3
215395
49771.5
38360.5
40760.5
40313.7
37214.2
39800
37417.7
37964.5
30846.9
31401.9
31729.9
29233.6
32396.6
29798.4
30130.6
40710
38266.1
41386.9
37324.9
40681.9
38067.6
40488.4
849510
557102
485900
805720
536569
822706
844174
850134
809761
547442
479362
825723
531971
844556
1.07034e+06
1.21385e+06
1.06016e+06
1.20643e+06
1.05788e+06
1.06492e+06
1.27716e+06
888266
635638
631691
961638
591423
914500
915141
32457.5
33191.2
34121.6
36572.1
34334.8
35142.6
31515.3
32535.8
32579.5
32455.5
35917
34408.5
30863.7
34323.1
32551.5
33363
34258.4
36715.2
34469.2
35236.4
31662.7
30193.3
28767.2
28695.3
28891.1
29323
29514.6
29574
30935
31755.1
31546.3
29282.7
29955.7
32497.4
30133.6
31073.2
32866.1
32888.7
29801.8
33552.7
30296.9
30338.9
34049.8
36972.5
36594.6
37045.2
35463.6
35412.3
36201.3
49728.3
221868
51297.6
198702
208352
53542.3
49282.2
49020.3
49443.9
210583
191337
203543
47684
52380.2
33505.1
31595.5
31486
38796.2
30021.8
36302.4
36315.3
30123.8
28116.9
29432.7
28017.1
28624.3
29663.9
29688.7
47705.5
256966
251119
55101.9
228787
50427.1
49404
31287.2
32162.9
30639.8
28538.3
29163.3
33129
30453.8
53719.9
192752
190893
64151.9
189323
58406.6
58186.8
45016.6
50072.2
41052.3
36741.9
49689.8
42672.4
37416.7
64430.9
186894
56357.2
182139
59633.2
193786
60606.2
44805.9
38361.2
34059.8
43359.1
40995.1
36285.4
47020.8
40072.8
33536.8
34743.3
32063.8
36396.1
38433.5
34270.1
45139.3
50177.8
41283.3
37047.5
49749.1
42810.3
37650.7
44876
43286
38494.7
34148.4
46938.2
40951.3
36471.1
65010.3
185679
188294
56655.6
60884.1
196427
60267.2
40195.5
33818.4
32165.5
34808.1
38555.5
36455.1
34443.9
845529
802296
490103
558067
818049
540621
842106
847280
491588
559099
805472
844323
821025
541354
1.06002e+06
1.19955e+06
1.05539e+06
1.19973e+06
1.05496e+06
1.05407e+06
1.2602e+06
884374
636623
637359
957950
912525
596512
911514
54821.6
199558
65435.7
200371
59511.1
59652.9
197250
31296.3
32218.4
30656.1
28590.4
33187.7
30460.7
29097.6
33348.6
38674.5
31410.5
31423.6
36194.9
36096.4
29867.3
50858.6
204739
224679
51661.6
49662.3
54531.1
215428
30251.3
28036.4
29398.3
28035.9
29721.9
29716.6
28584.6
49262.9
261066
261241
56093.1
51218
237884
51220.1
31283.8
30655.5
32197
28590.5
30450.8
33159.1
29097.8
38335.1
40352.7
40619.4
37175
39706.9
37461.2
37871.5
38428.1
39373.1
35630.8
37337.7
36640.6
38762.9
37615.9
37805.8
37731.1
34397.1
36533
36132.7
36291.2
37750.4
36977.5
34730.1
33372.9
32977.2
34287.2
35306.8
35820.9
40856.4
37272.3
41416
38339.6
38142.7
40802.1
40452.9
40939.7
41538.7
37425.2
38495
38256.1
40537.9
40948.4
42750
46601.1
42579
46662.3
42486.3
42463.5
45698.3
39884.1
35193.6
35219.2
38669.5
36034.3
39119.3
39111
37784.3
37484.3
36316.7
34270.6
37629.9
36217.8
36004.9
38409.8
39442.2
37337.4
35642.7
37650
38783.6
36616.7
36927
34729
32871.7
33376.9
35229
35871.2
34218.7
32296.1
32262.2
35630.2
32275.2
34121.9
30640
34121.4
32404.5
33176.2
36515.8
34190.7
34262.1
35089.9
31533.3
33883.8
36357.8
36824.4
36826
35243.7
35242.6
36062.3
32403.3
36514.2
33174.9
34186.6
31532.1
34260.9
35086.6
30114
28651
28654
28977.8
29517.2
29215.4
29516.1
30844.7
31411.1
31732
29241.1
30131.9
29803.9
32393
31002.7
32940.7
32938.9
29937.1
30319.2
33473.3
30319.5
40710.1
38265.3
37322.8
41378.7
40488
40678.8
38064.5
42645.4
46666.2
42852.3
46666.1
42528.4
42526.4
45569.5
39841.1
35283.4
35282.9
38939
39217
35972
39216.1
60876.4
98578.2
80289
114297
87037.3
89501.3
129147
132865
77400
71707.8
62918.5
65535.5
73551
67678.7
75626.7
71197.4
84287.2
75912.4
80287.2
66407.4
76398.3
71196.6
78953.5
80881.4
88692
82318.1
71685.7
73762.8
80652.3
81545.1
77423.5
101111
106067
78884.1
80232.3
108808
96479.1
89352.9
81818.4
84369.7
91920.7
85221.2
77128.8
83562.3
123732
87050.7
83560.6
105777
80829.5
114293
91533
131432
93015
85756.3
118006
84377.9
120443
93524.3
146985
101614
136811
96308.6
88457.8
125638
45415.6
32790.1
50776.4
61920.2
55095
69042.8
70648.9
81191.7
48943.8
40027.5
48951.4
50852.9
43750.6
45381
54176.1
45649.1
35793.6
37589.5
42020.2
40361.5
41811.7
43446.9
50760.7
43178.3
52925.6
55797.3
45426.8
48394.7
58117.7
57645.2
58757.1
60864.1
52428.5
46429.9
48783.6
50380.5
37523.5
33310.2
33712.2
35068.9
36289.4
34706.3
35711.4
38494.4
34831.1
37017.1
38241.4
38506.5
36576.8
36849
39053.2
36108
37974.8
40179.7
38192.7
37188.7
39508.8
39050.9
37688.7
41162.1
41541.5
38493.5
38041.4
40675.6
67092.8
54460.9
59600
54460.4
56724.9
49252.1
61921.9
66884.1
60894.1
58097.8
61490.2
64093.5
55780.9
52628.8
63575.5
72648.4
65659.3
57523.8
62527.4
55282.1
64799.6
73538.1
73851.4
66136.6
76105.9
69008.2
61126.2
68471
1.82171e+06
56840.4
1.3437e+06
32301.2
1.82409e+06
2.09365e+06
70540.2
86807.3
120992
120870
48290.5
64925.7
115819
130068
56864.5
512361
1.45523e+06
560484
1.49383e+06
531323
516990
1.59495e+06
118171
35947.5
164355
42299.5
118081
119877
50268.8
145134
74180.3
146712
129041
57172.4
128200
61446.3
40247.2
32791.4
34642.2
34324.7
36266.9
38508.6
35040
45041.4
34665
43367.3
39181.7
40910
47356.1
36914
62615.7
54177.4
169185
174754
57459.7
58744
181878
45383.1
37651.4
50622
42096.8
43053.5
50133.6
38323.1
537336
1.70114e+06
515817
515333
1.56485e+06
507456
1.69782e+06
164223
144628
75216.6
79376.5
152627
134174
67332.3
1.90287e+06
575648
579577
536305
1.65623e+06
533908
1.74557e+06
623750
1.95363e+06
573246
1.98929e+06
593977
547927
1.83958e+06
2.02029e+06
1.7988e+06
500624
926307
239004
2.21705e+06
2.41792e+06
628658
401913
218930
188955
205046
250623
458481
581922
317401
711510
443881
926472
317310
556011
711305
663586
440578
291130
535274
352719
775988
1.06874e+06
1.63769e+06
1.07618e+06
881805
1.7388e+06
992786
1.19932e+06
1.8968e+06
904511
1.35951e+06
1.17425e+06
680310
466499
961502
1.2299e+06
1.35726e+06
2.17027e+06
1.5106e+06
1.86553e+06
1.16327e+06
1.35697e+06
2.01998e+06
2.30657e+06
1.99121e+06
1.50794e+06
1.30185e+06
1.4137e+06
2.08167e+06
1.60679e+06
2.55512e+06
2.34489e+06
1.82453e+06
1.66398e+06
1.53422e+06
2.20295e+06
1.71126e+06
2.69875e+06
2.91094e+06
1.05861e+06
265748
1.54734e+06
1.12129e+06
2.48606e+06
2.69683e+06
2.58669e+06
2.69041e+06
2.55183e+06
2.63819e+06
2.67949e+06
2.65656e+06
2.632e+06
2.77156e+06
2.6168e+06
2.69661e+06
2.58121e+06
2.64316e+06
2.58131e+06
2.49756e+06
2.81801e+06
2.84719e+06
2.73862e+06
2.47002e+06
2.59188e+06
2.55086e+06
2.40194e+06
2.0918e+06
2.34948e+06
2.84724e+06
2.88289e+06
2.79087e+06
2.47607e+06
2.28558e+06
404312
1.69624e+06
464834
428338
1.61385e+06
1.45231e+06
373166
1.33862e+06
343596
297867
1.23066e+06
286500
322335
943993
306213
338103
1.31234e+06
384198
1.48859e+06
1.31264e+06
338162
614162
275210
791189
878850
281496
1.07741e+06
300503
1.68216e+06
1.32431e+06
1.79935e+06
1.50479e+06
173365
205068
197860
153832
156995
162792
166166
280536
290145
320715
309194
185581
163033
173359
345051
310331
345057
386659
432452
453861
204072
175362
179431
368757
353772
250720
582198
500853
218996
188964
401994
458568
632656
1.28178e+06
610160
701655
1.38499e+06
1.42865e+06
673403
1.3994e+06
759697
679513
759784
1.61046e+06
1.50496e+06
847217
1.72721e+06
944061
988870
813128
1.5265e+06
1.56961e+06
778516
1.89736e+06
1.19985e+06
1.07672e+06
882096
1.73911e+06
1.63812e+06
993033
264637
253251
253245
253245
1.95954e+06
253285
253245
253338
253245
253245
253245
1.30332e+06
332237
369904
301308
286389
254416
256057
253693
253245
253245
253245
253245
253245
253245
467691
253517
253625
260056
257970
253407
253255
253247
253245
253245
253245
253245
253245
253245
255015
253262
253992
253273
253247
253246
253312
256651
253283
254652
253282
253248
253246
253334
253281
253257
253261
253246
253246
253246
253245
253251
253247
253350
253249
253245
253245
253245
253256
253250
253439
253250
253245
253245
253245
253258
253245
253245
253246
253246
253245
253245
253246
253245
253245
253245
253245
253245
253247
253246
253245
253245
253245
253245
253245
253245
253245
253245
253245
253245
253245
253245
253245
253245
253245
253245
253245
253245
253245
253245
670679
253425
253245
6.33451e+06
5.28411e+06
4.92842e+06
4.51768e+06
256362
423599
253255
1.40911e+06
268904
5.0455e+06
259559
253246
253335
253245
5.164e+06
5.94325e+06
6.20097e+06
6.01882e+06
6.25763e+06
6.39609e+06
6.49374e+06
255712
253627
919547
253474
253245
253245
253245
6.17691e+06
5.49962e+06
6.61409e+06
5.25904e+06
6.54589e+06
5.57896e+06
3.0392e+06
4.6348e+06
6.49837e+06
6.42862e+06
4.70291e+06
2.18738e+06
1.48164e+06
5.35002e+06
6.40513e+06
3.73148e+06
6.21645e+06
4.41235e+06
1.68119e+06
1.08519e+06
5.10977e+06
1.9136e+06
367355
492852
336180
430166
261893
257336
2.99001e+06
2.96469e+06
909686
2.59371e+06
753852
638702
280480
3.18804e+06
2.78726e+06
5.66818e+06
2.85441e+06
267425
523843
690879
2.49651e+06
1.87443e+06
5.18875e+06
2.52835e+06
261250
403890
583288
467965
294229
283371
260350
262837
254723
253581
1.39668e+06
377329
348169
254534
292467
304183
2.08362e+06
254363
693232
284658
253788
269581
254382
253287
489234
253762
270603
253566
265285
254121
253272
282552
253354
253330
254233
254547
253291
253249
257937
253617
263183
253617
253252
253260
253424
494327
253642
253422
253555
258766
260423
265845
255994
253429
258971
253539
253250
253255
253387
3.38617e+06
1.80555e+06
1.20717e+06
1.46109e+06
1.18888e+06
4.26512e+06
3.94982e+06
3.09947e+06
2.34893e+06
2.26866e+06
3.44329e+06
1.64356e+06
4.39949e+06
4.62698e+06
4.0402e+06
4.33103e+06
1.01982e+06
1.33972e+06
1.12168e+06
1.85351e+06
2.11702e+06
2.19209e+06
1.78017e+06
1.79276e+06
2.08286e+06
2.20088e+06
2.64338e+06
2.98659e+06
2.71205e+06
3.05514e+06
1.56036e+06
1.50351e+06
1.3025e+06
1.93377e+06
2.35182e+06
2.27567e+06
2.01697e+06
1.03344e+06
1.26647e+06
1.12781e+06
1.75024e+06
1.72336e+06
1.69439e+06
1.76272e+06
2.6019e+06
2.03101e+06
2.40794e+06
2.8294e+06
2.78363e+06
3.13354e+06
3.18612e+06
3.42531e+06
2.69763e+06
2.73106e+06
3.68242e+06
3.2861e+06
3.31053e+06
3.67449e+06
2.91902e+06
3.40926e+06
2.80949e+06
3.35342e+06
3.65401e+06
3.4077e+06
3.66721e+06
1.43153e+06
1.36871e+06
1.27594e+06
1.80959e+06
1.87912e+06
1.88418e+06
1.81429e+06
2.55527e+06
2.86126e+06
4.00967e+06
3.45511e+06
3.4965e+06
2.90485e+06
2.50311e+06
3.35498e+06
4.38498e+06
4.33697e+06
3.65552e+06
3.39066e+06
3.68671e+06
4.36634e+06
2.63534e+06
3.09177e+06
4.10674e+06
3.65392e+06
3.56056e+06
2.97143e+06
2.77956e+06
3.13975e+06
3.01141e+06
2.32416e+06
2.396e+06
3.03224e+06
3.16895e+06
2.36998e+06
3.49468e+06
4.46814e+06
3.42627e+06
3.7132e+06
4.46395e+06
4.40412e+06
3.73842e+06
4.39684e+06
4.33094e+06
3.82575e+06
3.84052e+06
4.39339e+06
4.34822e+06
4.0369e+06
3.86409e+06
4.03777e+06
4.38453e+06
4.3963e+06
4.36988e+06
3.88904e+06
4.03544e+06
2.48115e+06
2.57591e+06
3.26834e+06
3.06248e+06
3.21393e+06
2.61755e+06
2.45246e+06
3.43095e+06
2.54022e+06
2.84058e+06
3.3773e+06
2.3859e+06
4.7551e+06
5.77828e+06
4.40036e+06
4.87941e+06
1.94174e+06
2.13193e+06
1.54671e+06
4.7106e+06
4.47756e+06
2.20163e+06
2.81183e+06
2.7407e+06
2.46186e+06
2.83077e+06
2.86918e+06
3.22628e+06
3.28839e+06
2.98895e+06
1.64104e+06
2.05357e+06
1.76949e+06
2.43327e+06
2.12777e+06
2.33324e+06
2.60863e+06
3.02271e+06
3.37547e+06
3.11684e+06
3.65422e+06
3.45925e+06
3.50822e+06
3.67201e+06
1.53644e+06
1.64273e+06
1.6444e+06
1.98956e+06
1.99167e+06
2.19181e+06
2.18793e+06
3.2786e+06
3.38833e+06
3.19841e+06
3.57199e+06
3.77476e+06
3.67429e+06
3.71006e+06
2.22395e+06
2.29876e+06
1.96158e+06
2.70428e+06
3.56609e+06
3.29258e+06
2.95313e+06
3.06476e+06
2.58596e+06
2.92744e+06
3.40726e+06
3.69889e+06
3.61285e+06
3.24898e+06
4.04294e+06
4.41025e+06
3.91845e+06
3.96108e+06
4.43134e+06
4.47221e+06
4.05177e+06
3.63582e+06
4.58081e+06
3.79073e+06
3.90119e+06
5.20932e+06
4.79924e+06
3.91612e+06
2.1411e+06
1.81367e+06
1.81969e+06
2.54046e+06
2.96276e+06
3.04117e+06
2.52393e+06
3.3137e+06
3.75473e+06
3.00707e+06
3.33189e+06
4.70937e+06
3.81241e+06
3.69145e+06
3.3125e+06
2.7507e+06
3.12007e+06
3.05677e+06
3.05329e+06
3.29146e+06
2.95974e+06
4.03451e+06
4.1597e+06
4.91725e+06
4.52747e+06
4.61937e+06
4.17096e+06
4.07551e+06
4.10326e+06
5.03123e+06
5.62937e+06
5.54657e+06
5.15853e+06
4.44312e+06
4.38814e+06
3.69773e+06
4.81832e+06
4.84179e+06
3.29707e+06
3.7125e+06
3.98065e+06
4.23322e+06
3.30663e+06
3.17369e+06
2.59146e+06
2.78552e+06
3.08458e+06
3.41583e+06
3.15042e+06
184932
152965
154588
1.15412e+06
1.01999e+06
3.18887e+06
1.43215e+06
3.30644e+06
825141
123877
129138
104031
1.0465e+06
547996
1.01532e+06
633356
148651
332524
321719
198820
462950
439724
209040
102163
105394
101935
143552
139001
145301
151520
164988
405790
356621
523332
320999
656394
246314
2.60967e+06
2.59782e+06
1.00146e+06
1.26893e+06
2.85157e+06
1.2372e+06
2.84954e+06
118563
111507
108029
166760
147730
154193
176773
112267
134302
115826
161667
220138
171909
199928
132732
136445
120484
172272
261898
213765
202085
1.06688e+06
2.70365e+06
2.65005e+06
1.34387e+06
2.87851e+06
1.4655e+06
2.86355e+06
230725
474728
211392
232678
629401
546692
257244
343602
784135
924501
1.28162e+06
1.36296e+06
720428
384953
926483
743611
1.8459e+06
1.09159e+06
1.55339e+06
1.15803e+06
504181
1.65247e+06
3.08713e+06
3.27422e+06
2.1037e+06
2.1497e+06
1.61203e+06
3.0745e+06
291689
501377
773365
878948
668871
330653
429526
287602
510288
227304
251890
694619
573253
326155
1.7581e+06
3.06662e+06
2.40278e+06
3.23556e+06
2.25965e+06
1.89853e+06
3.0703e+06
317658
558031
886541
815924
686230
454686
410973
196267
470251
143639
359539
1.2151e+06
877037
1.95447e+06
1.77088e+06
138151
190932
204270
213856
232546
367612
407613
160454
331488
240892
396471
286254
493570
632969
694721
394734
754519
1.10281e+06
667098
723523
1.15124e+06
446977
953400
497990
1.21104e+06
718590
783007
1.26158e+06
872100
600621
1.01073e+06
849111
1.29978e+06
998831
1.22255e+06
754665
1.07789e+06
591504
912515
1.39726e+06
1.33109e+06
1.06123e+06
1.43107e+06
1.47835e+06
1.11011e+06
1.16461e+06
1.80657e+06
1.50849e+06
1.46519e+06
1.24074e+06
1.57789e+06
1.60849e+06
1.86548e+06
1.55439e+06
1.31745e+06
1.51458e+06
1.16374e+06
1.27718e+06
3.1798e+06
3.04782e+06
1.68351e+06
3.15267e+06
2.64663e+06
2.48942e+06
1.20574e+06
1.56428e+06
1.45832e+06
1.60187e+06
1.49613e+06
1.95352e+06
1.91185e+06
1.35353e+06
1.7381e+06
1.66229e+06
1.61669e+06
1.54996e+06
2.02458e+06
2.13159e+06
3.32741e+06
2.20422e+06
2.79598e+06
3.07322e+06
2.24873e+06
2.84015e+06
3.33342e+06
3.2956e+06
1.79101e+06
2.32206e+06
2.37555e+06
1.83076e+06
2.54339e+06
3.33309e+06
2.44703e+06
3.11521e+06
2.32718e+06
2.92201e+06
3.31161e+06
3.0507e+06
3.33002e+06
1.98631e+06
2.47709e+06
1.8937e+06
2.64546e+06
3.49314e+06
3.39872e+06
2.81152e+06
3.39019e+06
2.24767e+06
3.48142e+06
3.41205e+06
2.17652e+06
3.47152e+06
3.12766e+06
3.447e+06
2.88091e+06
1.99677e+06
3.32416e+06
3.42787e+06
3.49327e+06
3.04626e+06
1.19985e+06
197001
244585
2.84462e+06
1.29404e+06
3.19351e+06
2.33044e+06
3.17363e+06
1.82172e+06
803107
929319
156805
1.99632e+06
1.42198e+06
1.61552e+06
1.20918e+06
513685
397640
752534
513278
913907
1.25833e+06
853107
169604
267394
232917
346328
300088
516842
609407
168148
309603
250515
403144
321060
531480
614144
2.75429e+06
2.80214e+06
1.49975e+06
2.90399e+06
1.65771e+06
1.87722e+06
2.90935e+06
726748
1.54511e+06
1.11451e+06
1.6604e+06
1.64207e+06
1.97074e+06
1.31194e+06
764766
511321
430056
843325
1.33398e+06
1.01443e+06
1.14023e+06
1.06563e+06
2.17157e+06
1.4836e+06
1.8612e+06
2.0524e+06
2.39168e+06
1.50692e+06
772960
1.18012e+06
656210
971938
1.66868e+06
1.4077e+06
1.16336e+06
2.00924e+06
2.83147e+06
1.74495e+06
2.11112e+06
2.91845e+06
2.34196e+06
2.90057e+06
3.02979e+06
2.55566e+06
2.08445e+06
2.28946e+06
3.16424e+06
2.71821e+06
3.00358e+06
517531
744738
446187
820953
1.0804e+06
1.06729e+06
879441
761109
1.14244e+06
665736
943812
1.32633e+06
1.31953e+06
1.00907e+06
2.13995e+06
1.98923e+06
2.67613e+06
2.18658e+06
2.54185e+06
2.33602e+06
1.80822e+06
1.24868e+06
1.65195e+06
1.81241e+06
1.75822e+06
1.55688e+06
1.4718e+06
1.42559e+06
2.49235e+06
3.02182e+06
2.97913e+06
3.16902e+06
2.86016e+06
2.67506e+06
3.00881e+06
1.17117e+06
1.31489e+06
1.62509e+06
1.43898e+06
1.44386e+06
1.32053e+06
1.18077e+06
253322
2.44406e+06
2.87078e+06
3.40224e+06
264548
1.40085e+06
2.54711e+06
3.41512e+06
1.34395e+06
265369
253685
369737
3.05788e+06
2.62146e+06
3.36398e+06
889851
261304
3.19017e+06
2.55939e+06
3.08679e+06
2.49686e+06
2.81547e+06
3.06788e+06
3.18872e+06
2.49312e+06
2.85865e+06
2.81161e+06
3.08571e+06
3.0676e+06
3.19023e+06
3.19603e+06
338124
262455
253245
790075
253345
258202
1.76818e+06
2.72933e+06
2.92807e+06
3.03369e+06
3.1003e+06
3.11409e+06
3.17274e+06
3.10762e+06
2.88108e+06
3.25154e+06
3.16247e+06
2.91611e+06
3.08342e+06
2.94631e+06
2.59644e+06
2.23129e+06
3.28959e+06
3.04634e+06
3.41815e+06
3.25891e+06
3.08619e+06
2.33457e+06
3.42319e+06
3.28694e+06
3.25826e+06
3.09301e+06
2.26948e+06
3.06684e+06
2.34763e+06
6.06071e+06
2.89227e+06
301799
3.59138e+06
255936
2.31281e+06
1.62701e+06
2.89323e+06
3.15235e+06
3.04995e+06
1.21783e+06
273441
4.2758e+06
3.51779e+06
3.27562e+06
5.1597e+06
5.67001e+06
6.14889e+06
1.68694e+06
5.71588e+06
3.10746e+06
2.68126e+06
3.92794e+06
2.8361e+06
350420
254702
1.73832e+06
1.81154e+06
2.12801e+06
1.9683e+06
2.35993e+06
2.44986e+06
2.73233e+06
2.4424e+06
3.25912e+06
2.8773e+06
2.49053e+06
255972
253778
253247
1.94338e+06
2.7228e+06
2.25368e+06
3.08422e+06
2.70715e+06
3.06619e+06
3.3088e+06
3.40418e+06
3.67083e+06
3.6088e+06
3.88367e+06
3.84084e+06
4.11051e+06
4.0951e+06
2.17433e+06
3.22156e+06
2.4364e+06
3.49301e+06
3.00162e+06
3.25489e+06
3.48455e+06
3.28462e+06
3.96672e+06
3.61761e+06
4.40906e+06
3.94019e+06
4.46457e+06
5.33434e+06
2.86216e+06
2.88056e+06
3.0398e+06
2.90336e+06
3.12638e+06
3.21562e+06
2.55843e+06
2.8913e+06
4.08252e+06
3.80668e+06
4.47297e+06
3.96423e+06
4.29799e+06
5.28849e+06
2.71058e+06
3.29978e+06
3.45789e+06
3.30032e+06
3.49787e+06
3.55736e+06
3.23278e+06
4.3551e+06
3.9077e+06
3.89842e+06
4.5657e+06
5.09724e+06
5.36276e+06
4.45616e+06
4.36565e+06
5.40231e+06
4.43586e+06
4.91251e+06
5.74222e+06
5.99793e+06
4.73756e+06
3.25697e+06
3.35119e+06
3.27174e+06
3.45613e+06
3.21217e+06
2.99321e+06
2.56283e+06
5.24745e+06
258404
5.978e+06
4.32248e+06
1.86045e+06
2.41108e+06
3.8148e+06
5.65752e+06
5.23084e+06
4.08861e+06
3.41833e+06
5.51308e+06
5.25956e+06
2.94668e+06
3.59172e+06
1.72212e+06
2.94876e+06
2.40455e+06
3.68208e+06
1.76211e+06
5.76105e+06
3.97935e+06
4.00719e+06
4.04715e+06
3.45927e+06
5.55133e+06
5.15658e+06
3.74214e+06
699924
2.96163e+06
3.01975e+06
2.48503e+06
3.50431e+06
1.58819e+06
2.58658e+06
2.89446e+06
2.5221e+06
3.44133e+06
4.03167e+06
3.97565e+06
3.47872e+06
3.46696e+06
3.40929e+06
3.73769e+06
4.46187e+06
4.53036e+06
4.44445e+06
4.55243e+06
3.39641e+06
3.69598e+06
3.69615e+06
4.4131e+06
4.47612e+06
4.42245e+06
4.42913e+06
2.90028e+06
2.58992e+06
2.52729e+06
3.44881e+06
4.04397e+06
3.98278e+06
3.4933e+06
4.05306e+06
4.23589e+06
3.97126e+06
4.44714e+06
4.60937e+06
4.52365e+06
4.53869e+06
4.14609e+06
3.88134e+06
3.90598e+06
4.37328e+06
4.39187e+06
4.35407e+06
4.44106e+06
2.34697e+06
2.42628e+06
2.36706e+06
3.14033e+06
3.04977e+06
3.17542e+06
3.0239e+06
2.97539e+06
6.01875e+06
4.86354e+06
6.11139e+06
4.40575e+06
4.01265e+06
4.49576e+06
1.00134e+06
253663
478026
481659
4.2577e+06
277693
3.15254e+06
2.42688e+06
2.34858e+06
2.36557e+06
3.13551e+06
3.04851e+06
3.02299e+06
3.16697e+06
3.71501e+06
3.5377e+06
3.74318e+06
4.56392e+06
4.4619e+06
4.5394e+06
4.72289e+06
2.67207e+06
3.1435e+06
2.81299e+06
4.13406e+06
3.55088e+06
3.63199e+06
4.27252e+06
3.8769e+06
4.01412e+06
3.87547e+06
4.3635e+06
4.35513e+06
4.3634e+06
4.35074e+06
2.50808e+06
2.59783e+06
2.63494e+06
3.07928e+06
3.21706e+06
3.26705e+06
3.11371e+06
3.92863e+06
3.98642e+06
3.88816e+06
4.39644e+06
4.39229e+06
4.48232e+06
4.34964e+06
3.33303e+06
3.36884e+06
3.0278e+06
3.71405e+06
4.64602e+06
3.74955e+06
4.45696e+06
3.95269e+06
3.70127e+06
3.81281e+06
4.68955e+06
5.26019e+06
4.94553e+06
4.96254e+06
3.04911e+06
2.75834e+06
2.81612e+06
3.30715e+06
3.07176e+06
3.28721e+06
3.13592e+06
4.99099e+06
4.9627e+06
5.91917e+06
5.57156e+06
5.8267e+06
4.87873e+06
5.08879e+06
5.44769e+06
5.4712e+06
6.14372e+06
5.28034e+06
6.10422e+06
5.44162e+06
5.54024e+06
4.92678e+06
5.52177e+06
4.78567e+06
5.775e+06
4.92384e+06
5.77022e+06
4.81409e+06
5.40847e+06
5.2895e+06
5.45718e+06
6.06826e+06
5.42838e+06
6.074e+06
5.43953e+06
3.62378e+06
4.52616e+06
2.45658e+06
3.70211e+06
4.54061e+06
2.55626e+06
3.59304e+06
3.63673e+06
3.7318e+06
4.57169e+06
2.52123e+06
4.55923e+06
3.63301e+06
2.57571e+06
3.188e+06
2.94473e+06
2.03557e+06
1.81163e+06
2.12503e+06
2.97194e+06
3.15977e+06
3.1955e+06
1.82377e+06
2.9613e+06
2.08011e+06
3.18105e+06
2.13809e+06
2.97694e+06
4.79412e+06
5.81012e+06
4.94787e+06
5.01114e+06
5.63776e+06
5.88492e+06
4.84132e+06
4.0152e+06
4.12898e+06
4.18022e+06
4.52432e+06
4.67169e+06
5.01413e+06
4.79251e+06
4.1891e+06
5.12406e+06
4.57397e+06
5.54824e+06
5.31551e+06
5.73686e+06
5.70127e+06
5.47331e+06
6.05623e+06
5.48046e+06
5.57845e+06
4.96384e+06
6.03571e+06
5.50219e+06
4.55926e+06
2.34039e+06
3.5846e+06
3.47821e+06
3.16622e+06
4.52548e+06
2.01167e+06
3.67067e+06
4.78774e+06
3.91975e+06
4.72411e+06
3.62643e+06
3.19638e+06
4.53733e+06
3.29381e+06
3.18193e+06
3.4038e+06
2.80662e+06
3.07803e+06
2.58266e+06
2.22299e+06
5.14089e+06
6.08586e+06
5.10451e+06
5.78593e+06
5.35038e+06
5.99523e+06
4.93113e+06
2.89511e+06
1.90691e+06
3.12384e+06
3.00058e+06
1.28415e+06
1.60084e+06
2.75447e+06
1.56032e+06
1.40254e+06
2.63263e+06
2.45923e+06
2.58994e+06
2.46565e+06
3.07504e+06
2.93914e+06
1.44626e+06
1.60186e+06
1.62987e+06
1.83657e+06
1.86965e+06
2.0807e+06
2.0417e+06
1.50179e+06
1.72741e+06
1.67195e+06
1.99468e+06
1.91757e+06
2.14808e+06
2.26188e+06
2.30614e+06
3.17868e+06
1.84615e+06
2.35919e+06
1.87813e+06
2.51491e+06
3.22353e+06
2.0233e+06
2.46081e+06
1.93442e+06
2.61572e+06
3.40296e+06
2.77831e+06
3.29891e+06
2.51231e+06
3.04062e+06
3.05278e+06
3.15386e+06
2.77365e+06
2.81838e+06
3.1524e+06
2.7055e+06
3.08327e+06
3.06913e+06
2.89076e+06
3.06505e+06
3.12869e+06
2.99747e+06
3.21161e+06
2.40033e+06
3.40602e+06
3.23718e+06
2.3096e+06
3.03943e+06
3.3929e+06
2.79735e+06
1.30514e+06
2.75811e+06
2.38303e+06
758316
2.45792e+06
831454
2.77847e+06
1.41369e+06
2.80313e+06
2.46748e+06
784781
2.4147e+06
841599
3.32184e+06
3.23698e+06
3.36428e+06
2.05933e+06
2.96742e+06
2.76409e+06
1.69527e+06
3.32331e+06
3.51594e+06
2.84999e+06
3.41282e+06
2.63376e+06
3.30393e+06
3.24599e+06
3.02314e+06
2.47912e+06
1.73957e+06
3.13036e+06
1.06863e+06
1.93335e+06
2.73817e+06
2.61639e+06
951576
1.5273e+06
3.25949e+06
4.11871e+06
2.85742e+06
4.41643e+06
5.96969e+06
4.04846e+06
4.62498e+06
5.72284e+06
5.48368e+06
5.89327e+06
5.52984e+06
5.79077e+06
4.78474e+06
5.00455e+06
4.36772e+06
4.48583e+06
5.49764e+06
5.22795e+06
2.09161e+06
3.34433e+06
1.72668e+06
2.73786e+06
3.22023e+06
3.31859e+06
3.27516e+06
2.48211e+06
1.16619e+06
2.68202e+06
660044
2.25321e+06
1.95406e+06
496125
3.04985e+06
2.51417e+06
3.17418e+06
3.16611e+06
2.76962e+06
1.96226e+06
1.0831e+06
4.99689e+06
4.98675e+06
4.13069e+06
5.31901e+06
6.15461e+06
6.27765e+06
6.08815e+06
2.36801e+06
2.95147e+06
3.31713e+06
3.16115e+06
700977
1.77966e+06
2.45381e+06
4.99537e+06
6.09321e+06
5.7157e+06
5.75166e+06
5.13147e+06
6.31268e+06
6.01467e+06
530147
2.00253e+06
1.16291e+06
885981
2.48339e+06
2.76307e+06
2.34202e+06
5.9499e+06
5.61363e+06
6.01586e+06
5.38988e+06
5.63663e+06
5.95377e+06
5.76015e+06
4.33794e+06
5.26277e+06
4.51256e+06
3.92219e+06
4.62582e+06
5.42114e+06
2.52251e+06
5.14118e+06
2.37295e+06
4.09214e+06
3.28386e+06
2.7552e+06
4.91502e+06
1.06052e+06
6.18391e+06
5.85501e+06
5.94987e+06
5.69454e+06
5.15779e+06
6.10499e+06
5.54567e+06
3.19757e+06
2.95847e+06
3.36072e+06
2.38712e+06
682289
1.78589e+06
1.18801e+06
3.35087e+06
3.46459e+06
3.78246e+06
2.9829e+06
1.12781e+06
1.57103e+06
2.51877e+06
253245
253310
1.02505e+06
253245
253245
253245
253404
5.66341e+06
6.14914e+06
6.28058e+06
5.78776e+06
6.34006e+06
6.33479e+06
5.37455e+06
3.18531e+06
1.24853e+06
1.66312e+06
2.42206e+06
473375
650706
1.95466e+06
5.28655e+06
1.93979e+06
3.14169e+06
5.25126e+06
6.03841e+06
6.02204e+06
4.68466e+06
2.47806e+06
3.19183e+06
4.76195e+06
5.04222e+06
3.84242e+06
2.27501e+06
3.85672e+06
1.55817e+06
593152
2.11896e+06
1.4924e+06
280939
921175
349967
3.54734e+06
2.27578e+06
3.26044e+06
1.55432e+06
2.75559e+06
1.62203e+06
557455
4.6446e+06
3.74022e+06
2.95913e+06
5.73309e+06
6.02917e+06
6.11053e+06
6.09137e+06
1.26445e+06
1.96866e+06
2.8495e+06
649107
2.41092e+06
3.17329e+06
1.65722e+06
300609
1.05169e+06
498581
3.5167e+06
2.17251e+06
1.23072e+06
2.48582e+06
2.75658e+06
806062
466939
372540
1.02534e+06
1.98744e+06
1.67341e+06
3.30361e+06
1.70677e+06
3.02151e+06
715531
2.02253e+06
1.2793e+06
383163
816481
441980
1.8907e+06
335855
1.43799e+06
795647
272945
266273
629835
388138
322286
1.30966e+06
1.6662e+06
863350
2.83484e+06
1.30291e+06
595334
253269
2.45042e+06
275514
264268
2.05196e+06
3.36317e+06
3.61483e+06
3.60372e+06
3.66665e+06
3.71373e+06
3.4471e+06
2.93426e+06
3.70587e+06
3.75901e+06
3.37249e+06
2.55234e+06
3.4586e+06
1.92022e+06
754919
3.17144e+06
661593
2.57447e+06
394605
1.87171e+06
1.00157e+06
281662
3.47276e+06
1.08965e+06
2.94822e+06
554824
2.13674e+06
1.1818e+06
309020
589767
1.56017e+06
361568
1.66834e+06
267151
388326
650465
1.68191e+06
267497
609445
370254
1.59907e+06
392059
658383
507052
330459
1.39009e+06
1.05685e+06
257223
291426
384563
830641
1.4564e+06
2.51666e+06
273187
802862
1.91149e+06
445320
1.65031e+06
2.78092e+06
1.99591e+06
365926
1.02359e+06
464834
272522
6.36264e+06
4.71148e+06
3.78115e+06
4.41976e+06
5.89047e+06
6.3411e+06
5.79103e+06
420369
279241
881697
259962
479673
292263
254427
1.33476e+06
351120
848559
2.03748e+06
4.583e+06
5.61657e+06
3.61484e+06
1.82053e+06
1.89765e+06
1.11039e+06
261573
3.87038e+06
362699
533530
687270
267758
257695
254745
407565
268244
302055
1.10023e+06
298372
272786
256207
292690
348769
771559
300078
2.92757e+06
1.08574e+06
1.31395e+06
323040
328922
256233
262840
253769
271215
329894
257743
1.55862e+06
417566
731519
254044
271070
260958
430261
1.90229e+06
469191
750567
876880
2.20548e+06
531493
254829
271481
277856
345959
281203
947996
357374
253531
256264
262739
291105
254092
260513
281983
457618
500331
1.24352e+06
256898
253457
255108
260187
313758
266766
374720
342393
256230
356726
253522
947112
280889
255862
270152
260611
491706
310301
253368
254969
257210
1.60094e+06
50185.7
1.24216e+06
30595.6
1.2883e+06
1.5145e+06
201396
121624
562111
512990
1.45823e+06
1.50106e+06
518044
531828
1.34836e+06
164944
117892
36023.6
42338.8
119848
32304.1
117991
482616
1.34943e+06
481491
1.16584e+06
694423
614161
1.24325e+06
186781
33684.9
185894
27455.5
288463
30592.2
189561
615788
1.20299e+06
493567
484508
1.15462e+06
694379
1.2251e+06
510324
1.3857e+06
532650
561560
1.47024e+06
515394
1.3237e+06
201691
32972.9
30050.4
189344
27403.2
291990
30336.9
122752
50054.2
35421.3
167348
41828.1
120896
31951.3
31264.7
31247.8
32125.3
28980.3
30424.1