/*--------------------------------*- C++ -*----------------------------------*\
  =========                 |
  \\      /  F ield         | OpenFOAM: The Open Source CFD Toolbox
   \\    /   O peration     | Website:  https://openfoam.org
    \\  /    A nd           | Version:  9
     \\/     M anipulation  |
\*---------------------------------------------------------------------------*/
FoamFile
{
    format      ascii;
    class       volScalarField;
    location    "0.0014";
    object      overpressure;
}
// * * * * * * * * * * * * * * * * * * * * * * * * * * * * * * * * * * * * * //

dimensions      [1 -1 -2 0 0 0 0];

internalField   nonuniform List<scalar> 
11481
(
28567
6907.68
36694
34249.7
42154.1
2269.6
2613.9
3499.65
1703.19
0.447899
0.00370671
0.00138308
79905.3
8893.85
38890.9
4339.36
5046.96
802.751
1139.12
208.77
302.777
3.44771
1.57367
0.379297
9.5456
26.6112
106941
49643.8
195361
47494.6
111687
31689
176007
78308.2
20283.9
8941.84
74019.3
16114.6
123817
49190.9
25470.4
5786.41
46679.6
3055.33
34114.1
3790.8
30793.9
18886.8
1702.61
1237.99
9524.23
2291.65
18992.7
12527.9
2503.98
542.132
3992.94
85.733
6454.11
183.93
1263
733.11
17.5274
13.9826
41.2904
45.8783
284.214
139.906
1.66551
0.0683144
0.0788362
133.162
164.151
16.374
5.08354
241.445
96.8576
7.31648
437091
299337
525928
91425.1
138833
146.281
10509.2
1.63605
0.867438
0.0101433
475988
409971
462650
491294
34090.7
11430.6
195769
3344.22
418553
12900
338201
9032.42
101.654
138.437
442.583
3.02215
2740.88
19.2214
36912.5
134.297
0.482355
0.437555
6.81543
0.199097
237439
2838.33
33.2696
0.535132
448.542
0.10481
0.104504
0.0490903
0.00599614
0.00449088
54911.5
321430
103019
290769
295491
87336.5
70873.2
213.243
33866.6
5060.92
19475.8
1568.9
4476.04
842.101
0.886289
35.0085
7.5881
59.8268
2.12932
14.5174
3.129
0.00594606
0.381809
0.0785227
0.300489
0.0224162
0.0709117
0.014224
0.961799
0.022956
0.187634
0.158133
0.00989529
0.0434202
0.0145951
0.114895
0.0049249
572652
821065
501411
480926
837020
493679
566626
579315
489523
885268
409384
852261
472681
570046
27004.6
263485
129055
19572.1
233888
54000
7822.07
276055
851910
256332
239780
472448
665654
76016.6
86038.3
61245.8
138087
1555.39
368468
9613.82
17883.8
26.9756
2624.1
99.2335
21.3508
532.427
110.452
5.66531
2391.3
51500.8
513.142
1103.04
5751.49
21177.3
211.99
933.235
422.684
2661.01
24.7593
8046.15
80.5051
303.112
0.318106
22.4435
1.59113
0.334107
5.46964
1.14707
0.0939664
16875.2
318737
50040.9
124054
89209
183224
9873.9
883.167
3095.15
5580.08
554.51
2068.72
26015.6
3811.35
145.232
40246.8
1388.91
191.097
104.313
7.44593
73.2205
9.6027
15.384
680.841
6.06421
6.37199
77.5279
135.736
1.12939
2.22808
0.88636
2.13067
0.0295071
19.3471
0.165248
0.289504
0.00103565
0.0418277
0.00286587
0.000408413
0.0115348
0.00208339
0.000455551
0.583973
0.0270074
0.00588885
0.717788
0.00653447
0.070663
0.0626567
0.000389928
1.84659e-05
0.000334719
0.0117611
0.000439666
0.000400267
1.85805e-05
0.062617
0.013317
0.195038
0.00810455
0.00515322
0.0455411
0.00577221
2.6107e-05
0.0697037
0.00139495
50167.5
97978.4
143102
266341
241669
210446
363253
50155.7
186394
10019.7
782.296
33.9896
2283.93
4079.79
9.29182
10.9343
3080.28
-30719.1
71083
64473.4
-18628.2
85002.5
-6107.97
16501.8
78246.7
15490.9
133265
-2448.99
103438
37075
101312
45111.6
184171
218678
68772.2
91245.8
234912
112705
264085
124711
208208
120904
243395
102552
78151.1
115843
166026
222223
87735.3
109104
136151
72850.5
216323
125211
78632.2
114291
109690
65215.9
27516
135768
44188.7
130417
49258.1
133647
16876.9
10480
54485.4
43133.5
658.506
105829
4233.52
2443.97
494311
369124
443814
329050
437940
417998
405308
472074
208349
280928
67469.8
407993
268424
322990
213.013
8416.11
72.6211
65.8553
748.172
956.497
13.4161
65275.2
5171.95
248.787
81130.6
4033.58
5165.46
309.211
2.82975
0.0071208
0.00524564
0.0989396
3.90819
0.1615
0.246439
18.4201
0.000269884
0.344563
4.2373e-06
0.00084149
1.07815e-07
7.97534e-06
3.71074e-09
0.00100033
3.85917e-08
4.36557e-11
8.06176e-09
417.946
1.44909
43.3077
0.635051
0.832999
0.00161367
0.0725283
0.000360442
9.2541
0.306143
0.0465345
0.0943148
0.0143693
1.90319e-05
0.0185612
0.0321347
0.000751232
0.00686914
0.000173158
0.00142094
2.12967e-06
0.000144127
0.0011368
2.27607e-07
0.000256573
7.18818e-06
0.207333
0.0140993
0.0102633
1.69981
0.096752
0.0032014
0.00266103
0.0245994
0.000186787
0.000639613
0.00203486
0.00338363
1.28316e-05
0.000103072
0.000974158
3.06053e-06
2.873e-05
3.45214e-05
0.000241188
7.43399e-07
7.86869e-06
4.07252e-05
1.03493e-07
1.20468e-06
1.45592e-07
4.43432e-06
1.09139e-08
1.32524e-07
0.000459603
4.03481e-07
1.35516e-05
0.000168016
4.94759e-06
2837.41
8097.38
184.247
310.066
6149.19
131.38
3903.01
1291.36
147.824
971.98
15.598
3107.03
58.2312
359.589
0.00408422
0.0355754
0.0992922
0.594668
0.0273508
0.0698835
0.00559629
0.00173436
0.266638
0.00310192
0.00840392
0.0119971
0.0299767
0.000450114
9.57051
224.307
2.97235
1.34963
69.7495
34.3519
0.421726
1.31932
0.195017
0.997675
0.0199747
4.63441
0.063635
0.307911
1.24874e-05
0.000594942
0.00153952
0.00211645
8.37243e-05
8.70355e-05
0.000232607
0.0521299
0.378003
0.00824701
0.00770805
0.124513
0.15631
0.0041869
0.0186627
0.00266871
0.0157148
0.000537536
0.0555821
0.00144095
0.00562191
0.00040895
0.00362098
0.000152543
3.60934e-05
0.00131975
0.000684537
5.17959e-05
8.06518e-05
7.07502e-06
2.87199e-05
5.38678e-06
0.000112684
1.44747e-05
3.73613e-05
4.90363e-05
0.0012713
6.48924e-05
0.000506088
6.991e-05
0.000560146
4.45705e-05
3.23234e-06
3.8138e-06
2.39816e-07
4.82076e-07
4.02456e-06
2.92565e-06
5.03744e-07
8.07626
0.768725
13.4012
5.67673
0.548546
0.226016
0.323088
0.123133
0.0126637
0.0496889
0.0188299
0.00213431
0.001755
0.00568288
0.000498327
4.11981e-05
0.000353873
0.000271731
1.74283e-05
3.97718e-05
8.67922e-05
1.15928e-05
5.2515e-07
1.94465e-06
5.47964e-06
1.64378e-07
1.2746e-06
3.30541e-06
0.000833545
7.8207e-05
0.000443872
9.40339e-05
3.72077e-05
5.81107e-05
0.000498978
3.97791e-07
1.45519e-09
1.18162e-08
1.30094e-07
5.927e-08
3.23053e-09
1.78989e-09
1.86438e-05
5.93078e-07
8.20466e-07
4.32483e-08
6.12412
0.663522
0.068538
2.48993
0.241376
0.0961904
0.0291211
0.00765212
0.00120672
9.41031e-05
0.00320676
0.000324001
0.000354428
0.000134649
0.000120293
4.6119e-05
2.05814e-06
9.78511e-05
6.37476e-06
2.2828e-05
9.25067e-06
4.28758e-07
5.67932e-07
1.50176e-08
1.20372e-06
4.17058e-08
3.60815e-07
1.30327e-07
5.61881e-06
1.20836e-06
3.6096e-07
6.98818e-06
2.42612e-06
3.86543e-06
1.01085e-06
0.000237892
5.12735e-06
6.07935e-06
6.45707e-05
8.32492e-05
1.32313e-06
2.66993e-06
1.61825e-05
1.05516e-07
4.31653e-07
4.02302e-07
2.99513e-06
1.43773e-08
1.01209e-07
8.9992e-07
4.05998e-09
2.81143e-08
2.58151e-08
2.44065e-07
1.06229e-09
8.3819e-09
3.60596e-08
8.73115e-11
1.06229e-09
3.20142e-10
3.97267e-09
0
1.01863e-10
7.52188e-08
3.55067e-09
2.18279e-10
0
2.44552e-05
0.000310364
0.00178303
0.0408069
1.44113e-05
0.00328363
0.00669964
0.000309636
0.000147113
0.000184156
1.18382e-05
0.00585859
0.0933164
2.78994
0.140841
0.0231059
0.00193398
0.000136534
5.94631e-06
2.12021e-08
5.82222e-07
6.59271e-05
2.0662e-06
0.00112478
0.00087779
4.6811e-05
0.00825553
0.000448002
0.00034455
2.17881e-05
9.95528e-05
7.56749e-05
4.24183e-06
0.000416063
2.52548e-05
1.73338e-05
1.19807e-06
8.45041e-06
5.37306e-06
3.7752e-07
3.83318e-05
2.4839e-06
1.53406e-06
1.15717e-07
3.54048e-07
2.19647e-07
1.4843e-08
6.29312e-07
3.58996e-08
2.50584e-08
2.11003e-09
3.89118e-08
1.2296e-05
5.29572e-06
4.66403e-07
4.1374e-07
6.35628e-07
2.86163e-07
8.46878e-06
6.40124e-07
5.18485e-08
1.78989e-09
0
8.87667e-10
0
1.45519e-11
0
0
0
0
0
0
0
7.27596e-11
0
0
0
7.54972e-05
6.74072e-06
7.11254e-07
2.93658e-08
4.57905e-07
8.28004e-09
1.01863e-10
0
0
0
320511
306451
339730
240437
278534
455879
348779
354981
449519
2.47383e-10
1.65892e-09
0
1.30967e-10
0
0
0
0
0
0
0
1.21159e-07
1.02591e-08
8.14907e-10
0
0
140399
3.51567e-06
4.16183e-06
8.531e-05
0.002328
4.76094e-06
0.000108307
6.04682e-06
4.83938e-07
8.24119e-07
1.12923e-07
4312.72
1960.73
0.348857
0.097696
0.0192581
0.00229303
0.000278861
2.4064e-05
1.53249e-06
1.3721e-07
1.72582
0.0479907
8.9922
0.865664
0.173321
0.374656
0.0800173
0.00885809
0.0337616
526106
506144
649458
740634
428720
635244
1.13865e+06
782737
1.13165e+06
732677
1.2589e+06
867917
1.06804e+06
2.15984e+06
2.66229e+06
2.78289e+06
2.19524e+06
922381
772017
794827
708873
880860
900534
678585
1.29711e+06
712615
1.5056e+06
507519
296124
632843
503116
533045
451772
503276
367073
50054.9
275952
155402
108865
529363
542519
610913
307993
7.52003
268379
530570
284040
297854
686016
429882
393298
411741
303781
1819.45
881231
422463
1.02785e+06
555502
446621
1.03881e+06
864627
883339
449934
1.01427e+06
631634
881642
535397
998316
400126
561792
521743
531014
509338
502359
397381
14680.7
333348
62709.1
137771
86540.5
175950
9353.74
0.0539361
0.00780225
724279
330875
581650
283177
350297
593718
707053
2.23359e+06
2.55302e+06
2.55659e+06
2.21859e+06
1.88295e+06
1.49433e+06
1.51326e+06
1.86272e+06
866480
544317
435234
1.00032e+06
440535
1.01599e+06
859287
720521
282718
347126
600503
347349
595371
720317
2.2198e+06
2.52569e+06
2.5269e+06
2.23748e+06
1.87906e+06
1.55079e+06
1.51972e+06
1.90161e+06
732477
362150
614876
361023
738755
436796
605899
2.02022e+06
2.52425e+06
2.26656e+06
2.1848e+06
1.68734e+06
1.55947e+06
1.91408e+06
1.35436e+06
791756
693108
613367
705266
607191
867441
661056
664168
417571
515874
464265
504250
552095
561095
1.51019e+06
839236
1.5821e+06
855288
1.24591e+06
436085
918208
692101
355145
477558
355247
359857
441979
437654
274069
205733
369097
406480
170016
177649
196918
339342
95207.7
319499
474229
418442
182617
463404
302279
213369
289031
336880
384504
127947
413026
207131
200558
89748
17084.9
66963.5
24829.9
81886.3
12336.5
39802.6
24777.5
758.155
3372.13
5111.39
476.522
1714.46
20873.7
3071.45
90.52
33843.6
1044.95
153.254
85.9008
4.52127
51.9508
7.69883
0.00645038
0.341009
0.015147
0.0225827
0.570552
0.00679063
0.0658621
355102
276933
374807
432905
382442
280782
270879
430749
454665
399375
476886
479435
254424
142085
327712
102622
236370
154978
193520
328468
324683
347244
96558.4
12012.6
42649.3
61410
141047
136493
86577.9
183487
287950
185880
225269
250363
323175
288015
258958
133087
42512.6
152715
123780
69113
180616
98330.2
162076
137510
123993
215744
96687
195178
190514
303372
162253
260112
262340
233256
223098
335670
348754
311498
274743
413220
266145
394858
351148
325591
272338
409308
315658
340509
265742
394907
336841
324060
316095
426434
279442
401855
377506
0.000488902
2.00501e-06
1.35956e-05
4.70754e-08
3.56027e-07
6.98378e-05
4.31933e-06
1.00423e-05
1.70621e-07
1.65019e-07
2.06637e-09
2.67755e-09
0
0
0
9.93896e-09
7.27596e-11
3.62343e-09
610714
926773
10353.7
0.0132043
4.02396e-05
2.31317e-07
2.47965e-08
2.00816e-09
0
643611
1.02301e+06
113.476
0.000180688
3.86572e-07
6.67933e-09
0
5.82077e-11
0
266.316
599711
0.00778911
6.31801e-07
1.45519e-11
8.73115e-11
0
0
0
0.209603
26127.9
0.000249204
2.19297e-08
0
0
0
0
0
0.000819293
0.567935
1.50657e-06
0.000224726
6.1118e-10
3.07045e-09
0
4.36557e-11
4.16856e-06
0.0039658
2.63535e-08
9.66131e-06
0
4.33647e-09
689164
392391
734207
374029
778947
595914
640554
836798
456899
666935
918141
648990
12.6816
3016.44
3.38664
0.00138564
0.00053429
4.65455e-05
0.00351216
9.38549e-05
0.000108338
8.97651e-06
1.78195e-06
5.38261e-07
4.2771e-07
2.5764e-06
1.32204e-07
1.06098e-07
9.95788e-08
781685
809318
977448
79329.2
169812
952545
641.904
933938
0.122902
0.969774
0.00133397
1.43394e-05
4.87045e-06
3.07555e-07
7.57011e-06
8.13452e-09
1.86716e-07
6.4465e-09
2.44618e-08
3.94357e-09
5.44242e-09
2.18279e-10
2.76486e-10
1.01863e-10
3.0559e-10
616603
513662
473776
588851
80.5818
12.2797
44389.4
2.84675
112630
377320
3.36933e-05
0.000395208
3.97561e-06
9.74978e-10
1.47556e-08
2.91038e-10
8.67149e-08
1.45519e-11
2.06637e-09
0
1.30967e-10
0
2.91038e-11
0
0
0
0
407035
518699
39967.9
179186
7895.53
0.0901528
0.0645801
8.78331
0.00102047
249702
32.6744
829.872
1.42702e-06
4.99844e-05
2.56696e-08
0
1.74623e-10
0
6.69388e-10
0
0
0
0
0
0
4.36557e-11
3.63798e-10
0
0
6.41965e-05
7.71252e-09
1.69093e-08
8.00137e-07
6.40751e-06
2.18861e-08
1.92449e-07
0.000667063
5.45115e-08
2.27665e-07
5.18281e-05
0.00014082
1.48251e-06
4.42051e-06
1.79245
0.000550552
0.0777798
3.16193e-05
0.00072687
2.31652e-07
1.30236e-05
3.0559e-10
8.69622e-08
2.91038e-11
90862.4
46929.2
995.126
0.0488657
1.15816
0.49294
245.224
0.0176252
0.312337
2459.86
2.48057
8.47721
0.00366319
0.0496006
0.0101516
0.149208
0.000281799
0.00592153
0.133237
0.0584439
0.0131398
2.37564e-05
0.000423621
8.49602e-05
0.00149424
3.11683e-06
4.78577e-05
0.00644134
0.000657137
0.000181378
3.98082e-07
5.66382e-06
7.80288e-07
1.64916e-05
2.65427e-08
4.96439e-07
1.54322e+06
938453
1.54086e+06
934303
946723
1.51797e+06
1.56192e+06
7201.91
194315
154394
21755.9
286260
255427
29229.3
1.4434e-07
1.11849e-06
6.02816e-06
2.99604e-05
8.1968e-07
4.28403e-06
2.01922e-07
1.19217e+06
934231
1.37905e+06
1.20392e+06
1.34953e+06
1.04159e+06
1.25838e+06
3204.03
11.7645
326.418
60.264
16229.8
528.793
1988.05
2.32831e-10
1.0099e-08
5.36238e-08
4.14002e-08
1.70257e-09
1.03319e-09
5.73345e-09
190493
602734
230198
377034
355832
446378
86241.5
0.00177189
0.185513
0.0317778
0.00635365
1.14346
0.0375067
0.186819
0
0
0
0
0
0
0
592.143
80669.9
1278.13
3666.06
4353.04
12037.5
175.252
2.27129e-05
0.000421548
3.45754e-05
2.09467e-05
0.00119104
5.00137e-05
0.000330251
0
0
0
0
0
0
0
3.11876e-05
0.0110647
2.81248e-05
0.127261
0.00098335
0.00677293
0.000227861
3.4744
0.00305791
0.0515198
0.0314473
0.0797907
0.00168057
0.00379067
1.63005e-05
0.0002868
1.46291e-05
0.000136665
2.00121e-05
0.000225231
9.79353e-06
0
0
1.16415e-10
9.45874e-10
0
5.70435e-09
1.30967e-10
2.9584e-08
2.91038e-11
2.18279e-10
4.22442e-08
1.26907e-07
1.19326e-09
3.4488e-09
1.04243e+06
607286
1.31515e+06
787154
615670
1.3056e+06
1.04795e+06
554435
821622
800848
1.30732e+06
712678
687495
1.34542e+06
2.64303e+06
3.38418e+06
3.29221e+06
2.72412e+06
1.02825e+06
799739
667797
1.27011e+06
628589
1.28515e+06
1.01732e+06
754790
272411
639675
1.23993e+06
520873
635956
1.11993e+06
2.5067e+06
2.93531e+06
3.14677e+06
2.27586e+06
1.39284e+06
816901
1.21351e+06
691408
835165
1.21565e+06
1.40114e+06
3.53678e+06
3.73455e+06
3.62313e+06
3.62749e+06
3.1858e+06
2.88623e+06
2.86557e+06
3.23271e+06
1.48976e+06
924757
887191
1.40286e+06
923452
1.46727e+06
1.41314e+06
1.34663e+06
674317
778003
1.14402e+06
816284
1.17903e+06
1.29508e+06
3.38534e+06
3.22076e+06
3.45141e+06
3.18888e+06
3.08518e+06
2.7491e+06
2.79986e+06
2.97919e+06
8.61722
371.538
255.213
820.13
39.8232
27.9941
1145.45
79673.9
712.156
20264.5
10360.5
78537.1
184700
2926.95
102.621
0.800015
24.3513
363.018
2.94465
11.8097
94.8711
0.00257125
0.0428534
0.000165481
0.00105044
0.0292132
0.000117571
0.00381464
0.000985738
0.000407906
0.00279508
1.03808e-05
0.0116743
4.45354e-05
0.000246031
3.81551e-08
1.37108e-07
4.77812e-07
1.31274e-06
9.93605e-08
3.49915e-07
4.64206e-08
5.13392e-08
1.14245e-05
6.83649e-08
3.80038e-07
3.06623e-07
1.57462e-06
1.29512e-08
1.11759e-08
5.3749e-07
8.64384e-09
4.01051e-08
3.73984e-08
1.35173e-07
3.59432e-09
980205
781926
1.28992e+06
1.20221e+06
1.03471e+06
968124
1.19606e+06
404586
8600.45
128108
510148
287972
885060
65200.1
1.13377e+06
2.44412e+06
1.83339e+06
1.51412e+06
802467
1.18648e+06
870357
541763
1.02209e+06
932430
455540
12416.1
892.014
46.8242
137669
379.6
5155.35
11606.7
431736
93147.8
603343
58218.8
1.97699e+06
2.73984e+06
2.79503e+06
1.79406e+06
920579
1.17952e+06
838719
591346
1.01579e+06
964423
628483
993208
146966
760287
292193
3.81171
0.0145769
0.40403
1.81006
0.488367
16.3877
0.0537288
26.0405
0.0773636
1.96555
5.09738
12.4152
164.226
0.393989
0.000284637
0.034416
0.00298627
0.154961
0.000383156
0.00464748
0.0121999
4.20681e-06
0.000441189
1.5418e-06
1.54917e-06
3.62028e-05
5.0196e-05
1.68744e-07
3.74144e-07
1.36279e-07
3.02418e-07
1.25146e-09
4.49528e-06
1.50612e-08
3.16504e-08
1.01863e-10
1.38243e-09
6.41739e-09
3.88536e-09
5.09317e-10
1.45519e-10
1.30967e-09
0
3.59432e-09
0
2.91038e-11
7.27596e-11
4.94765e-10
0
0
7.71252e-10
0
5.82077e-11
0
2.18279e-10
0
17191.8
545029
148727
299898
107717
236303
33101.7
13.0711
4.2928
0.702623
155.814
33.9116
1002.54
5.40701
757.31
8265.69
4852.41
1629.78
4247.59
141153
21901.9
2131.12
86450.2
8914.61
945.26
0.591716
0.154047
0.031897
34.2055
0.227583
1.17348
6.88367
184.517
100.842
438.069
40.2291
16814.3
19076.6
62644.1
5009.92
86881.6
240226
217481
6837.13
339752
28362.6
23449.7
171709
458093
311788
127159
412453
253085
66640.1
4965.01
346.174
1445.46
1177.54
14396.5
8689.72
35827.6
3558.79
2.25265e-05
0.000319908
9.31882e-05
0.000216832
4.0087e-05
0.00120359
8.50532e-06
0.0072666
0.00166705
0.000148472
0.00138486
0.00777262
0.0402955
0.000286058
2.97352e-06
2.29099e-05
1.03898e-05
4.92853e-05
6.55244e-07
2.08551e-06
1.17418e-05
1.9354e-09
3.12284e-08
2.03727e-10
3.34694e-10
4.19095e-09
8.60018e-09
8.73115e-11
5.52973e-10
1.01863e-10
1.00408e-09
0
2.50293e-09
0
2.47383e-10
0
0
0
1.45519e-11
0
0
0
0
0
0
0
0
0
0
0
0
0
0
0
0
0
18.9041
3963.73
372.973
1054.33
159.898
478.086
48.663
0.0233033
0.00279189
0.00605216
0.110526
0.0319758
0.960025
0.00539675
0.764336
17.3775
6.47712
2.25641
1.68802
107.122
2.89877
0.419407
41.8517
4.95267
0.126046
0.0154121
0.0127378
0.00108297
0.0160544
0.000963412
0.00112191
0.012241
0.0707965
0.0212614
0.231692
0.00682934
1762.33
163974
32127.1
83355.5
12606.2
35919.9
4533.47
28.7364
62.1425
213.737
8.37203
85.8257
1621.02
633.686
223.524
62.7296
387.716
110.085
1.56671
1297
18.4969
5.37336
186.824
9740.74
323.596
41.1483
3854.58
484.558
15.8798
3.03547
0.07831
0.882257
0.265181
9.08885
2.03926
23.7601
0.781446
3.40689e-07
4.45798e-07
2.32694e-06
1.19625e-06
1.26398e-07
2.29635e-06
7.25122e-08
6.88317e-05
2.50411e-06
4.41285e-06
4.99943e-06
5.24456e-05
7.7398e-05
2.43699e-06
1.14509e-07
2.44851e-07
3.81115e-08
2.84737e-07
5.2969e-09
1.57452e-08
1.05545e-07
0
1.30967e-10
0
0
1.45519e-11
4.36557e-11
0
0
0
0
0
0
0
0
0
0
0
0
0
0
0
0
0
1.01863e-10
0
0
0
0
0
0
1.74623e-10
2.91038e-11
0
0
0
8.63554e-07
2.64801e-05
4.23889e-06
2.7537e-05
1.44663e-06
1.01357e-05
2.18456e-06
5.97065e-08
2.68992e-07
5.07862e-09
1.97324e-08
8.39646e-08
1.57845e-07
6.62112e-09
2.97569e-05
0.000416982
4.83841e-05
0.000562763
3.012e-05
0.000382696
4.57828e-05
1.08907e-06
8.9602e-07
8.55362e-08
6.64295e-08
1.3073e-06
6.46643e-07
1.37021e-07
1.97112e-06
3.33018e-06
1.41968e-07
3.96118e-07
2.06823e-06
3.14509e-06
2.46815e-07
5.03768e-05
8.06482e-07
3.24508e-09
7.24409e-07
2.61934e-10
2.91038e-11
3.34694e-09
0
0
0
0
0
0.000927431
4.32919e-08
1.30967e-10
1.62628e-05
2.663e-09
2.4453e-05
3.89284e-06
5.59152e-06
3.00497e-07
7.74162e-09
0.000101688
1.64e-08
7.95451e-07
4.31497e-05
3.18687e-09
1.4175e-07
4.36557e-11
1.31267e-06
6.1118e-10
2.53058e-08
2.82831e-07
2.91038e-11
2.96859e-09
5.23869e-10
5.09317e-09
0
2.91038e-10
3.13215e-07
0.00022968
7.25716e-06
0.000193393
0.0013628
1.14952e-05
3.76496e-05
0.00103465
8.42028e-06
0.000265418
5.85191e-07
2.09559e-05
1.58776e-07
1.1157e-07
3.7922e-06
3.13441e-06
2.91329e-08
6.72298e-09
8.41537e-08
8.73115e-10
1.13505e-09
1.83354e-08
3.13885e-08
3.49246e-10
1.45519e-11
4.22006e-10
0
0
1.01863e-10
1.30967e-10
0
5.52527e-05
0.00117219
6.50853e-05
0.000629721
7.15987e-05
0.000626897
5.80002e-05
1.3737e-08
3.63798e-10
3.0559e-10
2.16809e-07
1.95068e-07
5.98084e-09
4.94765e-09
7.94029e-05
1.57227e-05
0.000111209
9.20889e-07
0.0004422
3.36571e-06
2.14278e-05
1.1902e-07
2.22644e-08
1.94181e-07
2.18279e-09
5.85642e-07
5.64614e-09
3.96976e-08
2.40396e-06
0.000349139
4.68288e-06
1.26378e-05
1.51668e-05
4.10971e-05
7.62855e-07
1.31899e-07
2.02295e-06
5.72419e-06
1.83906e-05
3.54616e-07
8.02276e-07
2.34395e-06
2.06637e-09
3.0559e-10
1.96451e-09
0
9.41509e-09
7.27596e-11
5.09317e-10
4.20259e-08
6.10058e-06
5.06261e-08
1.83107e-07
2.50293e-07
7.59348e-07
1.02445e-08
7.71252e-10
1.11613e-08
4.33938e-08
5.98811e-08
2.45927e-09
2.98314e-09
1.2471e-08
0
0
3.63798e-10
8.73115e-11
1.45519e-11
0
4.36557e-11
1.74623e-10
1.40426e-08
4.36557e-10
1.16415e-09
7.567e-10
3.24508e-09
7.27596e-11
3.85223e-06
4.52547e-06
2.9162e-07
5.53526e-07
4.49941e-06
4.20898e-06
5.64178e-07
0.0152202
0.000557073
0.000425294
0.0126569
0.000185112
0.00578709
0.00826857
0.0319515
0.00376561
0.00223654
0.0441973
0.00316669
0.0328038
0.0295668
0.00645125
0.17062
0.00944093
0.00560262
0.083109
0.00480468
0.0421038
0.00907108
0.414544
0.277847
0.02609
1.24819
0.863875
0.038205
1.41692e-07
8.06295e-06
1.7397e-06
7.24671e-07
1.56724e-08
1.44952e-07
4.72937e-09
6.25732e-10
1.16415e-10
5.82077e-09
1.37516e-08
3.34694e-10
2.85218e-09
7.27596e-11
7.64043e-05
0.00397115
0.000545746
5.06725e-05
0.0136745
0.000383125
0.00151282
8.91305e-08
4.24916e-09
7.9599e-09
5.64614e-09
1.74623e-10
2.03727e-10
4.36557e-11
3.0559e-10
0
0
1.01863e-10
0
0
0
5.17117e-07
2.07838e-06
1.43617e-06
3.491e-08
1.32146e-06
7.06204e-08
3.53859e-07
3.7835e-10
1.45519e-11
8.73115e-11
0
0
0
0
0
0
0
0
0
0
0
7.84348e-09
9.58971e-09
3.12866e-08
3.92902e-10
6.69388e-09
6.69388e-10
3.68163e-09
0
0
0
0
0
0
0
0
0
0
0
0
0
0
6.91498e-06
1.26412e-07
3.43862e-07
2.15965e-07
9.04693e-06
4.69547e-07
3.41951e-06
5.07862e-09
1.60071e-10
5.77711e-09
3.34694e-10
1.01863e-08
2.6921e-09
1.04774e-09
3.79296e-07
3.9141e-05
1.76209e-06
0.000285875
1.41226e-05
3.68898e-05
3.80317e-06
0.000217688
2.00932e-05
0.000253015
0.00159558
8.68579e-05
0.000158236
1.51127e-05
2.82307e-09
7.92788e-08
3.65253e-09
7.02727e-07
3.62488e-08
2.80343e-07
1.76806e-08
1.35075e-06
4.54806e-07
8.39209e-08
3.92286e-06
1.96553e-07
1.12598e-06
7.31525e-08
0.108009
0.00116723
0.0269067
0.0102343
0.0852311
0.35176
0.00258317
5.24912e-06
5.15419e-05
1.52884e-05
4.09181e-06
1.15974e-05
0.000131883
5.42364e-07
7.41711e-08
2.83428e-07
2.06826e-07
8.25094e-09
3.64817e-08
9.5577e-08
4.72937e-09
1.64437e-09
2.51748e-09
8.58563e-10
2.91038e-11
2.32831e-10
6.98492e-10
0
2.28465e-09
2.2992e-09
1.63564e-08
1.32859e-08
1.36788e-09
2.46655e-08
1.77533e-09
0.000219487
0.0217774
0.00765423
0.00162956
5.92679e-05
0.00063019
2.30451e-05
2.84758e-06
0.00166494
0.000117922
9.48459e-05
3.03089e-06
7.5998e-06
3.98548e-07
3.15777e-08
9.79137e-06
1.23592e-06
6.92045e-07
2.71102e-08
9.94187e-08
5.86442e-09
1.33878e-08
3.31784e-09
1.40848e-07
1.13214e-08
3.92902e-10
7.567e-10
2.91038e-11
2.54659e-09
1.06223e-06
2.7052e-08
4.90691e-08
1.4843e-09
4.75848e-09
3.34694e-10
0
0
8.44011e-10
2.91038e-11
0
0
0
0.000150645
0.0021604
0.000168572
0.0024111
6.45963e-05
0.001205
0.000467955
2.91038e-11
1.45519e-10
5.82077e-11
0
7.27596e-11
0
0
2.61934e-10
4.36557e-11
1.49885e-09
0
5.96629e-10
1.01863e-10
3.63798e-10
7.567e-09
1.04774e-09
1.4159e-08
8.92032e-09
6.54836e-10
2.00816e-08
4.13274e-09
2.12895e-08
4.78758e-09
1.84838e-07
3.54408e-05
6.70072e-07
7.83558e-06
1.55516e-07
1.04483e-08
0
7.85803e-10
4.16811e-07
9.38599e-09
2.56987e-08
8.29459e-10
0
0
1.60071e-10
5.48607e-09
1.89175e-10
1.03319e-09
0
0
0
0
1.01863e-10
0
0
0
9.66247e-09
1.41154e-09
1.96014e-08
1.73895e-08
1.29512e-09
4.26662e-08
1.06083e-08
9.46748e-07
7.18937e-07
5.86006e-08
1.31549e-08
3.40515e-09
3.47063e-08
9.74978e-10
3.55503e-08
9.29867e-09
8.01811e-09
5.02769e-07
728198
744599
414334
491235
150096
0.0427244
591539
191897
663245
595241
245844
735075
668449
732764
174676
838212
878499
277135
1.14832e+06
619473
629085
134246
896679
653731
33548
310143
365360
309500
691280
3465.09
130463
29.5307
179.681
339624
548327
5.72239e-05
251675
292281
265249
222193
197328
112815
20208.9
427.55
12861
1972.05
12.0869
0.688713
134.963
1.03608
0.0652461
0.0106364
575550
642124
667809
629799
670913
690087
614320
209996
50619.1
61902.7
113504
227778
242800
102746
590915
659410
647671
639735
701849
692835
659546
85234.1
120121
301194
131417
314513
267800
160952
640801
719674
667250
848651
744730
720468
836644
244072
388168
475815
313662
401300
214356
560908
841411
729851
751195
1.02312e+06
934308
923290
1.12643e+06
225179
451007
296543
426968
650827
681341
467676
832503
861613
683082
1.09552e+06
888852
1.14464e+06
817391
68406.3
123467
41766.7
303779
477141
398305
284366
619451
911789
843511
1.04495e+06
736541
768675
973358
13090.1
13674.5
3698.32
231201
65435.6
156385
165084
704073
913820
978866
642372
669818
856575
532575
443.094
669.307
65.2506
14925.1
14997.6
80627.8
1491.52
1.77513
4.63931
0.297708
856.423
5.6929
94.4482
46.2315
264528
105994
115459
136228
169729
328711
185506
345209
279937
41272.7
137927
35377.3
4939.81
7823.24
2246.56
634.465
695.353
175.728
14.4791
28.4001
2.71479
0.0671275
0.204543
0.0141027
464.084
1057.52
2.58122
474422
657040
470454
682306
676492
488549
458503
492455
699907
719321
552681
692919
511833
524451
737181
788039
643549
1.07192e+06
595070
931275
832250
935969
1.22531e+06
1.10848e+06
1.03555e+06
1.08171e+06
1.01334e+06
1.04683e+06
914464
1.00493e+06
877513
634538
1.03797e+06
818888
641490
778308
465562
582984
254450
686211
438336
644177
197226
445679
85229.3
21887.8
461291
230825
11699.4
24627.2
2247.5
3558.02
68.8031
44295.1
1024.79
2.27521e-06
4.40029e-05
0
0
0
0
0
0
0
0
0
0
0
0
0
0
0
1.16415e-10
1.16415e-10
8.44011e-10
1.61526e-09
0
0
3.7835e-09
1.7797e-08
5.82077e-10
4.51109e-10
8.33825e-09
3.0559e-10
4.22006e-10
0
0
0
0
0
7.27596e-11
0
2.06637e-09
2.62953e-08
8.00355e-10
3.34694e-10
2.0591e-08
7.42148e-10
3.63798e-10
0
0
0
0
9.38599e-09
0
0
1.03319e-09
9.03674e-09
0
1.45519e-11
0
0
0
0
0
0
0
0
0
0
0
0
0
0
0
0
0
0
0
0
0
0
0
0
0
0
0
0
0
0
0
0
0
1.16415e-10
0
0
0
0
0
0
0
0
0
0
1.60071e-10
0
0
0
0
0
0
0
7.68556e-05
16.191
0.000760238
324797
461856
3566.47
0.27863
12.0317
0.191853
7.647
0.0199001
0.190439
89.7358
4.4834
0.825826
1304.58
158.075
8.84963
69.3877
559555
302950
687482
289870
62586.1
300858
34225.7
1808.56
36899.6
157.426
0.498431
0.021223
4.62781e-05
0.000934197
0.111298
0.00378791
0.00593687
0.00032088
1578.44
64545.6
28050
1180.68
72.3751
4162.42
1626.4
224.745
0.0379389
0.0200581
0.00262786
0.413651
0.307614
4.58337
0.0220914
3.86471
230.116
3.84083
0.734872
81.6342
13.0737
0.198715
0.0187126
0.00152835
0.000458184
0.00349672
0.00127172
0.000256419
0.000442227
0.00103032
3501.63
39.6047
289887
28648.7
100951
195909
346146
223485
195735
290052
206359
53810.6
-20175.8
460.614
43163.2
151089
94931.7
141297
193736
248892
279173
221070
276463
289528
322583
244476
215269
269466
285581
278978
310331
259599
246725
188172
230988
277219
288997
301563
115461
65267.3
89453.6
142940
179578
125110
90593.4
278151
375891
271810
318097
221221
312508
254015
189741
134361
179499
224546
266387
209699
168467
408973
230788
196240
231277
273905
411400
464547
348216
393262
401184
297015
351364
349203
299168
1.90343e-06
9.25892e-05
2.0356e-05
4.23888e-05
1.00472e-05
8.51111e-06
4.8878e-06
0.000117167
1.07062e-05
7.54673e-06
4.98549e-08
2.21189e-09
0
0
114438
200302
194575
116296
109332
156566
182303
96224.4
36053.8
108068
71089.7
42937.8
10443.3
1818.06
9167.4
2706.67
275.793
398.369
776.089
110.911
98.2122
7.57947
32.6733
27.1912
0.474713
1.10512
4.78451
0.107442
0.0362867
0.000931019
0.00862617
0.00253354
0
4.65661e-10
0
0
0
0
0
0
0
0
0
0
0
0
0
0
0
0.000112425
0.00144774
6.62139e-05
1.40219e-06
2.17406e-08
1.27955e-07
1.61526e-09
2.40107e-09
0
0
0
2.32831e-10
0
0
0
0
0
0
0
325119
442946
478733
317050
490144
361525
518559
425693
525135
472280
554303
415039
566057
594196
331359
298439
336943
372355
335474
307800
263868
416145
451456
476132
484734
527315
559168
511255
193079
238035
321585
206842
241937
172808
133577
605672
666373
762383
653057
706841
748800
781324
745715
729237
672196
706575
709531
775075
766823
332911
361247
410274
352088
420472
445151
386023
336594
302937
356557
259475
282630
238471
205687
293019
343800
439477
482808
535524
567699
613050
706414
730454
769443
752907
787726
802163
866808
363969
351557
407922
496162
332383
417390
286057
688153
696632
748839
739735
657402
875556
825752
465913
408178
404948
550588
557012
478876
492375
452537
548873
406104
468956
564262
622465
618064
736134
783039
748151
775030
809046
743529
780714
264394
320367
346090
277524
322710
297162
248600
456704
516205
605128
643638
720953
655787
595658
535184
618707
571248
701853
734602
627723
617733
514742
530222
616145
542514
453977
736587
634237
428820
387820
364970
500998
535174
481830
459495
735748
773888
778357
814392
786547
817773
781019
370560
303040
344179
325866
320579
373501
402864
56468.4
918.933
0.195725
0.00553559
4465.56
1251.79
31133.9
433.542
3.99348
5.89312
0.831507
0.0122956
0.0444479
0.00169199
27852.6
3217.1
52569.9
3743.15
2746.22
46638.2
30923
22475.7
2519.06
1102.33
21226.4
1958.53
35546.6
15164.9
2372.26
452.578
8106.45
108.263
7234.2
135.678
2201.64
616.458
22.014
7.55518
87.9802
33.233
463.596
150.523
13.3564
1.88368
18.8826
0.218292
40.497
0.576333
5.04656
4.26349
0.0559932
0.0375189
0.305607
0.169545
1.4349
1.04096
0.0156597
0.00522535
0.0416679
0.000375239
0.159508
0.000536793
0.00435611
1.53259e-05
0.000328362
0.00126294
3.23131e-05
4.17288e-06
5.49976e-05
4.55246e-05
0.000368188
9.52384e-05
0.0426169
0.000559086
1.17518e-05
1.74346e-07
0
0
0
0.0841451
576.602
7.32558
0.0609167
0.00296301
2.89047e-05
0.252111
167.506
0.146124
0.0324405
0.137201
0.00810467
0.0030236
0.0142556
0.000862222
0.000145132
0.000291191
1.66537e-05
7.49943e-06
1.46863e-05
9.15826e-05
0.202073
0.0266864
0.159315
0.00971375
0.0395226
0.00196445
0.00790489
0.000479387
0.00304051
0.000170576
0.000853293
5.07342e-05
0.000145371
7.70867e-06
1.52499e-05
8.05143e-07
3.44924e-07
3.26385e-07
2.34797e-06
9.0267e-07
8.55497e-06
1.10595e-07
1.30967e-09
0
0
0
5.21376e-05
1.01386e-06
1.81753e-08
1.43584e-07
4.05998e-09
4.36557e-11
4.9622e-09
1.16415e-10
0
7.92032e-07
2.09111e-08
4.65661e-10
2.75777e-05
6.11821e-07
1.29075e-08
1.95432e-08
3.7835e-10
0
0
0
0
5.52973e-10
0
0
0
0
0
0
0
0
0
0
0
2.21189e-09
1.50467e-08
0
3.63798e-10
0
0
0
0
0
0
0
0
0
4.07454e-10
0
0
0
0
0
0
0
0
0
0
0
0
0
0
0
0
0
0
0
0
0
0
1.16415e-10
0
0
0
0
0
0
0
0
1.08123e-05
7.32252e-08
4.5888e-07
2.59664e-07
2.08092e-09
1.28493e-08
5.87897e-09
0
2.61934e-10
1.9837e-06
4.60859e-08
9.31323e-10
9.19885e-05
2.92076e-06
7.36036e-08
0.00029972
8.79988e-06
2.11672e-07
0
0
0
0
0
0
0
0
0
7.25369e-07