/*--------------------------------*- C++ -*----------------------------------*\
  =========                 |
  \\      /  F ield         | OpenFOAM: The Open Source CFD Toolbox
   \\    /   O peration     | Website:  https://openfoam.org
    \\  /    A nd           | Version:  9
     \\/     M anipulation  |
\*---------------------------------------------------------------------------*/
FoamFile
{
    format      ascii;
    class       volScalarField;
    location    "0.0014";
    object      rho.c4;
}
// * * * * * * * * * * * * * * * * * * * * * * * * * * * * * * * * * * * * * //

dimensions      [1 -3 0 0 0 0 0];

internalField   nonuniform List<scalar> 
11481
(
38.6411
48.0092
37.3851
29.5629
28.7503
44.1403
39.6864
38.8984
45.2864
1.16113
1.26659e-07
8.12392e-08
10.4718
13.1372
19.0407
18.0607
13.4464
24.3637
19.5947
28.415
31.1205
30.2244
13.5688
3.8985
50.5079
51.5531
5.5801
8.08843
5.68433
12.9627
4.08219
9.8844
7.96699
6.36669
13.399
10.2667
9.47995
10.262
9.28081
6.58564
7.961
10.7098
9.80288
15.2023
6.90238
12.4077
11.1326
10.5901
18.8803
21.4467
18.9825
16.0129
14.1491
14.8404
30.6407
28.8168
25.7021
38.2014
21.4333
37.1352
33.6574
40.5431
44.287
48.9528
47.5038
44.2171
41.5754
47.3343
8.68899
0.0076292
0.0109669
48.471
46.5988
50.1951
36.6653
45.9455
49.5227
52.0594
3.23198
10.368
9.44661
31.7724
17.0848
27.2248
32.9373
11.1986
3.03497
5.5518e-05
6.29851
7.75469
4.6362
12.8031
25.2285
27.8807
21.5866
31.0666
21.4885
30.7726
14.4263
27.3877
25.5127
40.7536
28.8266
34.4423
25.1755
26.7033
26.4656
34.4885
3.67953
2.65228
36.7829
0.514286
23.0681
48.0453
39.3051
4.11297
42.0246
0.0141018
0.055156
0.0142627
1.99542e-07
2.69236e-06
23.5988
15.3469
17.8946
11.2172
16.3412
18.7339
22.9543
40.5636
35.688
37.6154
37.2306
39.3794
38.4203
39.827
5.33734
27.9093
28.8417
28.6718
20.2034
29.4282
30.4168
2.29458e-06
0.789015
0.011668
0.635332
8.46952e-05
0.00311131
3.86746e-05
4.11653
0.000209747
0.381091
0.296477
6.29456e-05
0.00256009
7.69049e-05
0.0517849
6.46893e-07
5.79115
5.05263
8.61051
6.77738
5.39018
9.2726
5.40921
7.03258
8.46857
8.68277
17.8914
6.36806
11.7567
10.1819
27.005
14.4704
27.6913
29.8351
20.162
22.4504
33.3846
25.9772
13.3415
28.5078
31.4384
16.8668
20.0979
35.504
28.7145
32.1484
24.3607
27.6357
25.3556
33.1865
25.0076
36.5414
34.6197
29.1448
29.8952
35.1894
36.2098
30.0591
23.9312
22.4582
25.8211
26.2328
22.9166
23.095
27.1178
27.3746
29.7066
31.4654
35.1054
26.3748
30.6615
32.2266
0.858309
32.2171
11.2978
1.1108
33.3467
7.76936
0.014964
41.5042
23.4831
32.8682
34.0991
34.6521
35.9707
39.8074
43.2017
37.0547
38.3014
42.2947
46.2195
42.9156
48.9936
48.8364
44.8384
45.1874
49.2515
46.914
49.9994
46.4352
49.8844
42.2859
36.9552
39.9162
44.3292
37.3977
41.9987
5.56084
15.8145
4.3016
13.7317
4.06026e-05
46.3287
0.0301748
0.188316
2.02513e-11
0.00138779
3.48429e-10
5.3221e-14
9.16355e-07
5.65733e-09
1.73449e-11
1.79669
0.000354851
2.56557e-08
2.40905
3.13992e-08
0.00178297
0.00134875
3.85169e-11
2.22045e-16
2.06782e-11
6.89728e-05
8.38551e-11
4.44338e-11
2.22045e-16
0.00172488
2.05781e-06
0.0581272
9.95129e-08
7.59914e-08
0.00169428
1.27726e-07
5.71708e-15
0.0119979
1.24309e-07
0.981887
1.62778
2.18185
4.02924
4.31896
9.1948
12.3247
46.1816
14.4905
44.5904
49.7788
51.4702
52.0911
50.055
53.7988
54.0534
0.859343
0.53488
1.2254
1.09434
0.626646
1.35902
0.760059
1.05936
1.29654
1.04857
2.11357
0.794845
1.6221
1.41631
2.8247
1.42809
3.01757
2.9855
2.02013
1.9593
4.28532
3.46093
3.62902
2.61669
5.97613
2.37902
5.38358
3.81468
4.687
2.79469
6.40805
4.89637
4.09334
3.10702
7.39783
6.26519
6.31146
5.45557
13.6447
3.87026
9.6583
9.08788
22.2482
8.54933
19.9198
23.4932
14
14.5723
28.479
34.1402
34.814
40.6769
45.9098
25.7113
37.7361
44.904
11.638
6.89944
12.5564
20.9005
7.18659
11.2045
21.5427
20.8668
34.9741
36.3741
47.8742
20.0859
36.7136
37.5911
49.4226
48.5799
50.1617
51.9669
48.3711
50.4059
52.1412
48.0276
50.9923
51.9537
49.7909
51.0878
52.1643
52.3285
21.4748
1.46314e-05
2.74676e-06
0.0367584
31.4875
0.237125
0.680625
35.5407
2.47051e-09
1.73049
2.22045e-16
1.41794e-09
2.22045e-16
2.22045e-16
2.22045e-16
1.85261e-12
2.22045e-16
2.22045e-16
2.22045e-16
30.6882
14.1334
40.237
4.23207
17.0818
2.44123e-06
0.156013
9.33555e-09
44.2236
2.48229
0.00730875
0.0737202
0.00120707
4.82744e-16
0.000465903
0.00706896
2.06806e-10
3.3472e-05
2.73951e-14
2.18277e-07
2.22045e-16
1.43797e-12
2.72546e-10
2.22045e-16
4.08236e-11
2.22045e-16
0.878231
0.00196452
0.000446023
18.9115
0.252002
3.88318e-05
4.1384e-06
0.00430491
7.48833e-11
2.47589e-08
7.90224e-08
3.3985e-06
2.22045e-16
1.83856e-12
7.58262e-08
2.22045e-16
6.26762e-15
2.22045e-16
2.88247e-11
2.22045e-16
2.22045e-16
2.22176e-14
2.22045e-16
2.22045e-16
2.22045e-16
2.22045e-16
2.22045e-16
2.22045e-16
6.59588e-11
2.22045e-16
2.22045e-16
1.94825e-13
2.22045e-16
28.8408
24.8311
32.9861
31.3004
25.5068
33.4969
28.3187
31.9738
34.6019
35.7289
41.2642
29.0785
36.3793
37.6853
2.24839e-06
0.0269593
0.167319
11.1769
0.0104549
0.0678395
9.00282e-06
4.33035e-08
3.22149
4.78984e-06
2.98414e-05
0.000798191
0.00501451
3.80384e-11
42.588
41.4036
31.7587
11.4823
42.4269
41.8865
1.77751
10.9168
0.546607
8.00424
0.000220412
37.9096
0.00998992
1.10144
2.22045e-16
3.07331e-09
1.90469e-08
3.87909e-07
1.86728e-15
7.16979e-14
4.47227e-13
0.00419172
1.87578
3.89125e-06
1.10385e-05
0.0812028
0.26175
9.21764e-07
0.000112974
8.35386e-08
0.00013561
7.73091e-11
0.00718411
6.05336e-10
3.61368e-07
2.852e-12
1.52678e-07
2.73171e-13
2.22045e-16
1.89295e-10
3.08109e-11
2.95817e-14
2.22045e-16
2.22045e-16
2.22045e-16
2.22045e-16
3.54041e-16
2.22045e-16
2.22045e-16
2.22045e-16
5.42179e-10
2.22045e-16
2.66146e-14
2.22045e-16
3.08568e-14
2.22045e-16
2.22045e-16
2.22045e-16
2.22045e-16
2.22045e-16
2.22045e-16
2.22045e-16
2.22045e-16
37.065
7.02901
36.0857
37.4819
4.52378
1.01269
1.79384
0.0960142
0.000197078
0.00881998
0.000269386
6.42856e-08
2.88507e-07
2.01745e-06
5.12514e-12
2.22045e-16
6.70526e-12
8.13793e-13
2.22045e-16
8.2465e-15
7.71634e-14
2.22045e-16
2.22045e-16
2.22045e-16
2.22045e-16
2.22045e-16
2.22045e-16
2.22045e-16
2.4139e-13
2.22045e-16
9.07015e-14
2.22045e-16
2.22045e-16
2.22045e-16
1.82523e-13
2.22045e-16
2.22045e-16
2.22045e-16
2.22045e-16
2.22045e-16
2.22045e-16
2.22045e-16
2.22045e-16
2.22045e-16
2.22045e-16
2.22045e-16
38.7945
4.39168
0.0271886
27.9874
1.2399
0.0914511
0.00154609
2.75639e-05
1.10847e-09
1.08058e-14
1.30751e-07
1.38861e-11
2.2727e-11
2.44917e-12
1.37028e-14
2.22045e-16
2.22045e-16
2.22045e-16
2.22045e-16
2.22045e-16
2.22045e-16
2.22045e-16
2.22045e-16
2.22045e-16
2.22045e-16
2.22045e-16
2.22045e-16
2.22045e-16
2.22045e-16
2.22045e-16
2.22045e-16
2.22045e-16
2.22045e-16
2.22045e-16
2.22045e-16
5.68195e-10
2.22045e-16
2.22045e-16
5.68697e-12
4.82961e-13
2.22045e-16
2.22045e-16
8.52583e-16
2.22045e-16
2.22045e-16
2.22045e-16
2.22045e-16
2.22045e-16
2.22045e-16
2.22045e-16
2.22045e-16
2.22045e-16
2.22045e-16
2.22045e-16
2.22045e-16
2.22045e-16
2.22045e-16
2.22045e-16
2.22045e-16
2.22045e-16
2.22045e-16
2.22045e-16
2.22045e-16
2.22045e-16
2.22045e-16
2.22045e-16
2.22045e-16
4.45358e-15
7.27376e-13
2.21635e-09
0.000793469
2.22045e-16
6.38682e-08
1.4243e-06
6.381e-13
7.781e-15
3.19784e-14
2.22045e-16
1.01769e-06
0.0208504
18.1897
0.0697427
0.00167262
1.01846e-07
3.07416e-13
2.22045e-16
2.22045e-16
2.22045e-16
2.22045e-16
2.22045e-16
2.34113e-08
8.57843e-09
1.92712e-15
0.000120341
1.35923e-10
5.72908e-11
2.22045e-16
3.05836e-14
2.38238e-14
2.22045e-16
3.5835e-11
2.22045e-16
2.22045e-16
2.22045e-16
2.22045e-16
2.22045e-16
2.22045e-16
2.22045e-16
2.22045e-16
2.22045e-16
2.22045e-16
2.22045e-16
2.22045e-16
2.22045e-16
2.22045e-16
2.22045e-16
2.22045e-16
2.22045e-16
2.22045e-16
2.22045e-16
2.22045e-16
2.22045e-16
2.22045e-16
2.22045e-16
2.22045e-16
2.22045e-16
2.22045e-16
2.22045e-16
2.22045e-16
2.22045e-16
2.22045e-16
2.22045e-16
2.22045e-16
2.22045e-16
2.22045e-16
2.22045e-16
2.22045e-16
2.22045e-16
2.22045e-16
2.22045e-16
2.22045e-16
2.22045e-16
2.22045e-16
2.22045e-16
3.29133e-11
2.22045e-16
2.22045e-16
2.22045e-16
2.22045e-16
2.22045e-16
2.22045e-16
2.22045e-16
2.22045e-16
2.22045e-16
4.25453
4.04871
4.501
2.9301
3.34702
6.87981
4.4488
4.64926
6.64277
2.22045e-16
2.22045e-16
2.22045e-16
2.22045e-16
2.22045e-16
2.22045e-16
2.22045e-16
2.22045e-16
2.22045e-16
2.22045e-16
2.22045e-16
2.22045e-16
2.22045e-16
2.22045e-16
2.22045e-16
2.22045e-16
48.8786
2.22045e-16
2.22045e-16
2.22045e-16
1.41463e-09
2.22045e-16
2.22045e-16
2.22045e-16
2.22045e-16
2.22045e-16
2.22045e-16
81.4502
87.7182
0.0215934
0.00628135
3.35789e-06
3.01039e-09
3.25488e-13
2.22045e-16
2.22045e-16
2.22045e-16
2.54867
0.000441447
32.0021
0.707567
0.0038127
0.0427779
0.000274634
2.50815e-08
2.09933e-05
4.7822
4.96057
6.7346
10.4718
4.91182
10.8681
17.8321
8.41639
10.5533
8.43827
13.0089
10.8027
14.1525
39.2137
22.2303
27.0326
31.7042
22.2112
9.79105
13.5866
18.5262
12.7556
17.1178
23.8377
47.3519
36.6691
38.4638
43.746
26.0987
13.8581
19.159
11.9039
24.4651
15.0754
21.1104
32.9883
31.6369
35.834
30.0369
3.36206
5.48186
9.01725
28.412
53.5359
2.03121
4.63919
2.88963
3.52306
8.63612
6.16871
6.70588
18.1955
14.8191
49.4344
4.36196
2.73863
4.93602
3.65313
2.98441
5.23989
4.089
9.74703
4.54054
8.7425
6.8605
7.33009
5.68174
11.6921
15.3899
7.70289
15.82
9.89839
13.5642
8.55064
17.6324
42.249
25.3697
37.7361
40.1825
36.1472
37.7505
43.2182
0.000632874
4.25131e-05
3.6881
2.26602
3.17136
2.18884
2.45982
3.37359
3.45131
7.98812
8.9633
9.44061
7.55129
6.92811
6.01565
6.3906
6.52278
4.83922
4.03705
3.83697
6.81981
3.31128
5.78932
5.72513
4.13558
2.44986
3.2045
4.68248
2.7413
3.82517
4.95913
9.07055
13.2734
10.6716
11.3099
7.94218
9.67885
7.42107
10.0583
8.52818
3.83054
6.18953
4.53105
6.41653
4.83648
8.40581
22.4135
18.7137
15.8488
26.6269
19.8916
14.1757
14.2041
20.334
11.7372
8.01852
7.29633
15.221
6.71675
14.0215
12.8493
10.3286
5.49664
6.37981
11.7162
5.79604
10.4092
11.4078
27.2902
31.479
32.3217
27.1345
23.9724
23.5216
24.3045
23.8323
14.1124
6.82017
12.694
7.71468
12.2232
7.70371
14.6421
25.5663
28.1265
25.2407
27.5632
23.5133
22.0351
22.6266
22.6938
19.9591
12.4769
15.9452
29.9328
10.8782
22.3011
27.6142
18.4736
10.0737
14.6661
25.169
9.93144
18.7017
25.8175
28.6431
34.7966
30.0053
33.6758
27.0229
31.2736
25.9173
32.5298
43.5214
39.8872
39.0187
44.1447
46.4292
46.4376
49.0278
49.4706
45.4506
46.9853
49.1696
46.9267
30.1075
47.3353
49.8609
2.69898e-08
0.342665
1.26209e-05
0.000156258
1.56317
2.86987e-08
0.00117224
2.11512
1.91311
2.79607
3.40028
3.36738
2.11949
2.1237
3.78833
4.15643
4.2576
8.78961
13.7106
42.853
1.20632
2.45606
1.15024
1.76411
1.83504
2.29805
3.73759
4.00519
7.84454
0.938951
0.565352
0.693218
0.792336
1.16768
1.17654
0.909974
1.43449
2.07686
1.45824
1.72273
1.79561
2.3067
2.02792
2.59907
1.1959
0.7676
1.38147
1.29063
0.902501
1.55988
1.02755
1.42211
1.50741
1.37018
2.18861
1.10679
1.80994
1.72492
2.57035
1.70682
2.68653
2.92272
2.10247
2.13486
3.31293
2.89978
3.42516
2.62963
4.10124
2.46678
3.82268
3.02232
3.29138
2.77583
4.34228
4.44022
3.12118
2.996
4.72376
3.83636
5.53858
4.74407
8.02046
3.57002
5.76438
5.00979
4.43455e-09
2.22045e-16
2.22045e-16
2.22045e-16
2.22045e-16
1.37002e-15
2.22045e-16
2.22045e-16
2.22045e-16
2.22045e-16
2.22045e-16
2.22045e-16
2.22045e-16
2.22045e-16
2.22045e-16
2.22045e-16
2.22045e-16
2.22045e-16
13.518
7.647
88.3483
1.16481e-06
2.22045e-16
2.22045e-16
2.22045e-16
2.22045e-16
2.22045e-16
42.748
13.7521
124.37
3.71144e-16
2.22045e-16
2.22045e-16
2.22045e-16
2.22045e-16
2.22045e-16
70.2396
29.6281
8.15934e-09
2.22045e-16
2.22045e-16
2.22045e-16
2.22045e-16
2.22045e-16
2.22045e-16
0.0488775
52.5475
2.22045e-16
2.22045e-16
2.22045e-16
2.22045e-16
2.22045e-16
2.22045e-16
2.22045e-16
8.30994e-11
0.669298
2.22045e-16
2.22045e-16
2.22045e-16
2.22045e-16
2.22045e-16
2.22045e-16
2.22045e-16
1.26192e-07
2.22045e-16
2.22045e-16
2.22045e-16
2.22045e-16
4.26496
2.76788
5.17745
2.75094
7.75462
46.3201
17.2205
11.2648
59.4036
4.24699
10.3062
5.7281
63.178
94.3673
10.1444
1.70376e-09
4.39318e-11
2.22045e-16
4.26407e-09
2.86516e-16
2.19382e-14
2.22045e-16
2.22045e-16
2.22045e-16
2.22045e-16
2.22045e-16
2.22045e-16
2.22045e-16
2.22045e-16
7.14842
8.47491
16.2376
108.621
125.389
47.5025
139.61
29.9524
0.00161801
0.351652
1.08438e-12
2.22045e-16
2.22045e-16
2.22045e-16
2.22045e-16
2.22045e-16
2.22045e-16
2.22045e-16
2.22045e-16
2.22045e-16
2.22045e-16
2.22045e-16
2.22045e-16
2.22045e-16
2.22045e-16
7.66162
8.83262
7.24419
48.7304
93.2448
43.8933
56.4763
6.34667
45.0442
21.9416
2.22045e-16
1.22238e-15
2.22045e-16
2.22045e-16
2.22045e-16
2.22045e-16
2.22045e-16
2.22045e-16
2.22045e-16
2.22045e-16
2.22045e-16
2.22045e-16
2.22045e-16
2.22045e-16
2.22045e-16
2.22045e-16
2.22045e-16
30.5472
10.6612
57.6526
47.4814
62.2621
0.000347437
0.0242167
42.733
8.32612e-12
33.1409
63.9866
51.0185
2.22045e-16
2.22045e-16
2.22045e-16
2.22045e-16
2.22045e-16
2.22045e-16
2.22045e-16
2.22045e-16
2.22045e-16
2.22045e-16
2.22045e-16
2.22045e-16
2.22045e-16
2.22045e-16
2.22045e-16
2.22045e-16
2.22045e-16
2.22045e-16
2.22045e-16
2.22045e-16
2.22045e-16
2.22045e-16
2.22045e-16
2.22045e-16
1.83254e-13
2.22045e-16
2.22045e-16
2.22045e-16
2.88622e-14
2.22045e-16
2.22045e-16
3.67301
3.24157e-12
0.00321477
2.22045e-16
2.9218e-12
2.22045e-16
2.22045e-16
2.22045e-16
2.22045e-16
2.22045e-16
65.8987
74.1531
98.1554
0.000400304
1.66702
0.0883218
102.253
2.15064e-06
0.0318521
112.268
3.51568
32.5272
2.19951e-08
0.00128458
3.70943e-07
0.00971513
6.45684e-14
2.28062e-07
0.0133095
0.00169032
1.36668e-06
2.22045e-16
5.92565e-13
2.22045e-16
1.99426e-09
2.22045e-16
2.22045e-16
5.15436e-07
1.5078e-11
1.40255e-13
2.22045e-16
2.22045e-16
2.22045e-16
2.22045e-16
2.22045e-16
2.22045e-16
9.52511
6.72718
10.665
7.98642
7.05539
11.0983
9.14968
88.495
73.5883
74.6787
79.0602
55.9654
58.1279
78.0232
2.22045e-16
2.22045e-16
2.22045e-16
2.22045e-16
2.22045e-16
2.22045e-16
2.22045e-16
23.4192
10.6995
20.8902
20.5683
16.2873
14.5064
32.5632
118.421
43.9592
135.5
138.035
113.841
122.402
134.514
2.22045e-16
2.22045e-16
2.22045e-16
2.22045e-16
2.22045e-16
2.22045e-16
2.22045e-16
32.623
19.0382
44.8991
30.4857
32.6021
20.4832
40.6849
9.62044e-12
0.00265291
5.35574e-06
5.16157e-08
1.16709
4.17928e-05
0.00900306
2.22045e-16
2.22045e-16
2.22045e-16
2.22045e-16
2.22045e-16
2.22045e-16
2.22045e-16
52.938
45.8331
53.7808
57.8301
48.1901
52.0262
58.2908
2.22045e-16
2.22045e-16
2.22045e-16
2.22045e-16
1.22227e-11
2.22045e-16
2.30051e-16
2.22045e-16
2.22045e-16
2.22045e-16
2.22045e-16
2.22045e-16
2.22045e-16
2.22045e-16
2.22045e-16
3.68103e-06
2.22045e-16
0.0375271
1.03896e-12
1.78935e-06
6.24313e-13
22.3044
6.34154e-10
0.000853733
0.000192172
0.0163868
2.21229e-09
1.21726e-07
2.22045e-16
2.22045e-16
2.22045e-16
2.22045e-16
2.22045e-16
2.37533e-16
2.22045e-16
2.22045e-16
2.22045e-16
2.22045e-16
2.22045e-16
2.22045e-16
2.22045e-16
2.22045e-16
2.22045e-16
2.22045e-16
2.22045e-16
2.22045e-16
2.22045e-16
2.22045e-16
2.22045e-16
12.3426
7.49984
11.4823
8.1006
7.83292
12.0058
11.8059
48.8818
25.4531
26.9369
23.4126
32.9029
34.7812
22.448
26.4216
23.3196
24.2468
25.4307
14.0032
9.09292
11.0221
17.1338
8.79451
13.58
17.8479
32.8397
80.5665
47.778
27.2212
61.2685
42.5196
36.7297
30.2174
35.8823
27.6416
39.3594
7.84519
5.41417
6.08452
4.57468
5.75429
6.41254
7.50035
16.5843
19.6741
20.3847
15.982
13.527
10.7542
11.2611
12.9763
10.4661
8.79533
8.66561
14.8764
7.69296
12.3224
12.2669
8.60255
5.03076
7.09732
8.24187
6.30566
7.0447
10.0431
18.5847
29.1767
22.9484
23.2379
15.1772
15.7066
12.6615
18.877
38.8724
98.1243
98.1378
93.0964
101.499
101.344
92.6471
82.2832
107.803
97.9047
86.9516
87.8822
68.0916
103.071
103.083
0.667612
114.7
99.2395
8.86262
60.5933
112.246
1.5022e-09
0.00138947
3.79747e-16
2.41601e-10
0.000387838
2.22045e-16
1.05923e-08
6.06908e-12
9.75874e-13
1.23458e-08
2.22045e-16
5.27716e-06
2.22045e-16
1.78391e-15
2.22045e-16
2.22045e-16
2.22045e-16
2.22045e-16
2.22045e-16
2.22045e-16
2.22045e-16
2.22045e-16
2.22045e-16
2.22045e-16
2.22045e-16
2.22045e-16
2.22045e-16
2.22045e-16
2.22045e-16
2.22045e-16
2.22045e-16
2.22045e-16
2.22045e-16
2.22045e-16
2.22045e-16
47.2855
16.2122
25.3752
26.6802
26.8709
27.9714
42.3875
80.6787
131.87
122.5
104.471
94.8893
59.1921
128.548
97.0513
54.083
59.6897
85.0224
81.7182
39.5557
64.9454
78.6504
47.0735
65.649
107.421
137.714
127.821
131.454
139.704
130.518
140.754
129.421
135.906
98.6538
112.894
127.16
49.8264
43.4084
33.5915
66.7236
30.5892
27.3215
18.9823
50.7368
17.8181
45.8538
33.1593
61.1537
70.0796
83.4902
54.2893
9.25296
2.17628e-07
0.03224
3.15174
0.121189
74.1992
0.000171018
113.709
0.00010613
2.10019
14.3259
43.8097
140.941
0.0345294
1.51536e-13
5.03817e-06
6.09936e-11
0.0031901
1.16372e-14
5.24698e-09
2.1329e-07
2.22045e-16
4.70789e-13
2.22045e-16
2.22045e-16
2.22045e-16
2.22045e-16
2.22045e-16
2.22045e-16
2.22045e-16
2.22045e-16
2.22045e-16
2.22045e-16
2.22045e-16
2.22045e-16
2.22045e-16
2.22045e-16
2.22045e-16
2.22045e-16
2.22045e-16
2.22045e-16
2.22045e-16
2.22045e-16
2.22045e-16
2.22045e-16
2.22045e-16
2.22045e-16
2.22045e-16
2.22045e-16
2.22045e-16
2.22045e-16
2.22045e-16
2.22045e-16
2.22045e-16
2.22045e-16
2.22045e-16
70.8673
71.6893
65.2946
47.918
91.5697
69.2301
52.1864
45.8089
9.39961
0.171177
70.0804
95.4746
94.326
14.7768
68.7143
64.7373
91.5028
51.5266
68.2919
50.8591
73.6454
56.3297
68.9388
52.2488
72.0987
0.113004
0.00255986
3.65913e-06
69.2605
0.0154902
1.73782
19.9004
66.4754
56.2042
52.1594
69.8746
36.9857
47.0312
40.2758
42.3342
36.3277
35.8213
35.5696
48.0534
25.8026
42.6377
42.2124
30.636
15.019
27.7305
33.3237
19.1732
25.8234
37.4516
39.2413
49.5053
44.5125
44.2019
35.1075
36.7206
32.0479
39.8618
2.22045e-16
3.99135e-16
2.22045e-16
3.08209e-15
2.22045e-16
1.22502e-11
2.22045e-16
1.21238e-08
2.33693e-12
3.2829e-16
9.30546e-11
1.14847e-07
0.000133101
9.23967e-15
2.22045e-16
2.22045e-16
2.22045e-16
2.22045e-16
2.22045e-16
2.22045e-16
2.22045e-16
2.22045e-16
2.22045e-16
2.22045e-16
2.22045e-16
2.22045e-16
2.22045e-16
2.22045e-16
2.22045e-16
2.22045e-16
2.22045e-16
2.22045e-16
2.22045e-16
2.22045e-16
2.22045e-16
2.22045e-16
2.22045e-16
2.22045e-16
2.22045e-16
2.22045e-16
2.22045e-16
2.22045e-16
2.22045e-16
2.22045e-16
2.22045e-16
2.22045e-16
2.22045e-16
2.22045e-16
2.22045e-16
2.22045e-16
2.22045e-16
2.22045e-16
2.22045e-16
2.22045e-16
2.22045e-16
2.22045e-16
81.2984
80.2213
61.547
66.4131
76.4763
82.7446
65.3005
2.17613e-05
2.33612e-10
1.03672e-09
0.00105055
2.98696e-05
0.761523
3.25051e-09
0.544808
61.6126
22.1824
5.98896
3.16046
68.6004
8.04251
0.110201
82.4652
20.0497
0.00253084
5.56122e-06
4.19546e-06
7.32932e-12
1.89098e-06
5.87679e-12
2.33852e-12
3.94232e-06
0.000387139
2.7271e-06
0.0191483
1.09069e-08
48.4383
39.2702
40.0907
43.396
43.6077
47.2046
45.1442
53.6608
54.6072
49.4374
43.8125
49.2026
41.744
45.0126
45.9186
56.4046
61.3989
58.7234
4.69159
55.9982
62.0686
29.4614
51.9605
48.3595
54.2322
51.1388
51.5527
48.696
54.8737
13.096
0.00121164
1.51187
0.056738
53.4189
9.52874
49.0748
1.80136
2.22045e-16
2.22045e-16
2.22045e-16
2.22045e-16
2.22045e-16
2.22045e-16
2.22045e-16
2.22045e-16
2.22045e-16
2.22045e-16
2.22045e-16
2.22045e-16
2.22045e-16
2.22045e-16
2.22045e-16
2.22045e-16
2.22045e-16
2.22045e-16
2.22045e-16
2.22045e-16
2.22045e-16
2.22045e-16
2.22045e-16
2.22045e-16
2.22045e-16
2.22045e-16
2.22045e-16
2.22045e-16
2.22045e-16
2.22045e-16
2.22045e-16
2.22045e-16
2.22045e-16
2.22045e-16
2.22045e-16
2.22045e-16
2.22045e-16
2.22045e-16
2.22045e-16
2.22045e-16
2.22045e-16
2.22045e-16
2.22045e-16
2.22045e-16
2.22045e-16
2.22045e-16
2.22045e-16
2.22045e-16
2.22045e-16
2.22045e-16
2.22045e-16
2.22045e-16
2.22045e-16
2.22045e-16
2.22045e-16
2.22045e-16
2.22045e-16
2.22045e-16
2.22045e-16
2.22045e-16
2.22045e-16
2.22045e-16
2.22045e-16
2.22045e-16
2.22045e-16
2.22045e-16
2.22045e-16
2.22045e-16
2.22045e-16
2.22045e-16
2.22045e-16
9.42056e-15
2.22045e-16
4.45988e-14
2.22045e-16
2.3351e-14
2.22045e-16
2.22045e-16
2.22045e-16
2.22045e-16
2.22045e-16
2.22045e-16
2.22045e-16
2.22045e-16
2.22045e-16
2.22045e-16
2.22045e-16
2.22045e-16
2.22045e-16
2.22045e-16
2.22045e-16
5.14691e-14
2.22045e-16
2.22045e-16
2.22045e-16
2.22045e-16
2.22045e-16
2.22045e-16
2.22045e-16
2.22045e-16
2.22045e-16
2.22045e-16
2.22045e-16
7.98752e-12
2.22045e-16
2.22045e-16
2.22045e-16
2.22045e-16
1.98005e-13
2.22045e-16
2.22045e-16
2.22045e-16
2.22045e-16
6.55133e-14
2.22045e-16
2.22045e-16
3.41942e-16
2.22045e-16
2.22045e-16
2.22045e-16
2.22045e-16
2.22045e-16
2.22045e-16
2.22045e-16
2.22045e-16
2.22045e-16
2.22045e-16
2.22045e-16
2.22045e-16
2.22045e-16
2.22045e-16
1.47082e-11
2.22045e-16
1.07545e-12
3.61841e-07
2.22045e-16
7.9433e-15
9.14277e-08
2.22045e-16
7.05522e-12
2.22045e-16
2.22045e-16
2.22045e-16
2.22045e-16
2.22045e-16
2.22045e-16
2.22045e-16
2.22045e-16
2.22045e-16
2.22045e-16
2.22045e-16
2.22045e-16
2.22045e-16
2.22045e-16
2.22045e-16
2.22045e-16
2.22045e-16
2.22045e-16
2.22045e-16
2.22045e-16
2.22045e-16
2.22045e-16
1.73006e-10
2.22045e-16
4.26331e-14
2.22045e-16
3.6966e-14
2.22045e-16
2.22045e-16
2.22045e-16
2.22045e-16
2.22045e-16
2.22045e-16
2.22045e-16
2.22045e-16
5.24767e-15
2.22045e-16
1.47794e-12
2.22045e-16
1.79386e-09
2.22045e-16
2.22045e-16
2.22045e-16
2.22045e-16
2.22045e-16
2.22045e-16
2.22045e-16
2.22045e-16
2.22045e-16
2.22045e-16
8.46397e-11
2.22045e-16
2.22045e-16
2.22045e-16
2.22045e-16
2.22045e-16
2.22045e-16
2.22045e-16
2.22045e-16
2.22045e-16
2.22045e-16
2.22045e-16
2.22045e-16
2.22045e-16
2.22045e-16
2.22045e-16
2.22045e-16
2.22045e-16
2.22045e-16
2.22045e-16
2.22045e-16
2.22045e-16
2.22045e-16
2.22045e-16
2.22045e-16
2.22045e-16
2.22045e-16
2.22045e-16
2.22045e-16
2.22045e-16
2.22045e-16
2.22045e-16
2.22045e-16
2.22045e-16
2.22045e-16
2.22045e-16
2.22045e-16
2.22045e-16
2.22045e-16
2.22045e-16
2.22045e-16
2.22045e-16
2.22045e-16
2.22045e-16
2.22045e-16
2.22045e-16
2.22045e-16
2.22045e-16
2.22045e-16
2.22045e-16
2.22045e-16
2.22045e-16
2.22045e-16
2.22045e-16
2.22045e-16
1.67642e-06
9.44221e-13
4.45023e-13
2.65693e-06
2.84265e-13
2.25341e-06
2.26388e-06
7.57489e-05
6.72269e-10
1.3227e-09
7.86091e-05
1.27603e-09
0.000136542
0.00017161
3.55764e-08
0.0228111
4.38517e-07
2.15353e-08
0.00178714
2.96433e-08
0.000929108
2.48279e-07
0.119877
0.0358519
6.31343e-05
3.14578
1.65469
0.000226228
2.22045e-16
2.22045e-16
2.22045e-16
2.22045e-16
2.22045e-16
2.22045e-16
2.22045e-16
2.22045e-16
2.22045e-16
2.22045e-16
2.22045e-16
2.22045e-16
2.22045e-16
2.22045e-16
3.38395e-16
2.37823e-09
1.93392e-14
2.22045e-16
1.02116e-06
7.66087e-14
6.47779e-11
2.22045e-16
2.22045e-16
2.22045e-16
2.22045e-16
2.22045e-16
2.22045e-16
2.22045e-16
2.22045e-16
2.22045e-16
2.22045e-16
2.22045e-16
2.22045e-16
2.22045e-16
2.22045e-16
2.22045e-16
2.22045e-16
2.22045e-16
2.22045e-16
2.22045e-16
2.22045e-16
2.22045e-16
2.22045e-16
2.22045e-16
2.22045e-16
2.22045e-16
2.22045e-16
2.22045e-16
2.22045e-16
2.22045e-16
2.22045e-16
2.22045e-16
2.22045e-16
2.22045e-16
2.22045e-16
2.22045e-16
2.22045e-16
2.22045e-16
2.22045e-16
2.22045e-16
2.22045e-16
2.22045e-16
2.22045e-16
2.22045e-16
2.22045e-16
2.22045e-16
2.22045e-16
2.22045e-16
2.22045e-16
2.22045e-16
2.22045e-16
2.22045e-16
2.22045e-16
2.22045e-16
2.22045e-16
2.22045e-16
2.22045e-16
2.22045e-16
2.22045e-16
2.22045e-16
2.22045e-16
2.22045e-16
2.22045e-16
2.22045e-16
2.22045e-16
2.22045e-16
2.22045e-16
2.22045e-16
2.22045e-16
2.22045e-16
2.22045e-16
2.22045e-16
2.22045e-16
2.22045e-16
2.53859e-13
2.22045e-16
2.22045e-16
2.22045e-16
4.51895e-14
2.22045e-16
1.79646e-12
9.83094e-10
2.22045e-16
1.9768e-12
2.22045e-16
2.22045e-16
2.22045e-16
2.22045e-16
2.22045e-16
2.22045e-16
2.22045e-16
2.22045e-16
2.22045e-16
2.22045e-16
2.22045e-16
2.22045e-16
2.22045e-16
2.22045e-16
2.22045e-16
0.00238327
2.51917e-12
1.12019e-05
8.58662e-07
0.00160939
0.102544
2.01217e-09
2.22045e-16
2.22045e-16
2.22045e-16
2.22045e-16
2.22045e-16
2.22045e-16
2.22045e-16
2.22045e-16
2.22045e-16
2.22045e-16
2.22045e-16
2.22045e-16
2.22045e-16
2.22045e-16
2.22045e-16
2.22045e-16
2.22045e-16
2.22045e-16
2.22045e-16
2.22045e-16
2.22045e-16
2.22045e-16
2.22045e-16
2.22045e-16
2.22045e-16
2.22045e-16
2.22045e-16
2.22045e-16
4.78768e-14
2.79633e-05
2.90741e-07
2.02511e-10
2.22045e-16
7.91446e-13
2.22045e-16
2.22045e-16
4.56008e-09
1.5911e-14
5.20478e-16
2.22045e-16
2.22045e-16
2.22045e-16
2.22045e-16
2.22045e-16
2.22045e-16
2.22045e-16
2.22045e-16
2.22045e-16
2.22045e-16
2.22045e-16
2.22045e-16
2.22045e-16
2.22045e-16
2.22045e-16
2.22045e-16
2.22045e-16
2.22045e-16
2.22045e-16
2.22045e-16
2.22045e-16
2.22045e-16
2.22045e-16
2.22045e-16
2.22045e-16
2.22045e-16
2.22045e-16
2.22045e-16
2.22045e-16
2.22045e-16
2.22045e-16
2.22045e-16
1.64866e-11
2.22045e-16
3.74589e-11
2.22045e-16
2.65302e-12
1.41385e-12
2.22045e-16
2.22045e-16
2.22045e-16
2.22045e-16
2.22045e-16
2.22045e-16
2.22045e-16
2.22045e-16
2.22045e-16
2.22045e-16
2.22045e-16
2.22045e-16
2.22045e-16
2.22045e-16
2.22045e-16
2.22045e-16
2.22045e-16
2.22045e-16
2.22045e-16
2.22045e-16
2.22045e-16
2.22045e-16
2.22045e-16
2.22045e-16
1.98392e-13
2.22045e-16
2.22045e-16
2.22045e-16
2.22045e-16
2.22045e-16
2.22045e-16
2.22045e-16
2.22045e-16
2.22045e-16
2.22045e-16
2.22045e-16
2.22045e-16
2.22045e-16
2.22045e-16
2.22045e-16
2.22045e-16
2.22045e-16
2.22045e-16
2.22045e-16
2.22045e-16
2.22045e-16
2.22045e-16
2.22045e-16
2.22045e-16
2.22045e-16
2.22045e-16
2.22045e-16
2.22045e-16
2.22045e-16
2.22045e-16
2.22045e-16
2.22045e-16
2.22045e-16
2.22045e-16
2.22045e-16
2.22045e-16
2.22045e-16
2.22045e-16
2.22045e-16
2.22045e-16
2.22045e-16
2.22045e-16
4.04927
6.59767
4.79737
9.80531
49.2093
0.00190085
4.6005
4.94397
6.2158
6.02396
6.34121
8.93029
3.89985
8.96782
8.80217
12.0645
10.6676
28.7787
28.4482
5.73792
8.08367
49.567
29.2226
10.7616
59.7578
48.3261
5.446
3.94804
22.8361
80.7127
61.7044
87.663
70.7559
4.78519
17.5122
2.22045e-16
7.62931
10.1565
24.248
31.1228
16.5363
51.7228
95.6982
108.108
63.9944
65.7953
41.7687
0.191724
80.3944
2.23681
0.0103874
3.43084e-06
4.34689
4.29534
4.59726
5.31249
4.91482
5.20391
5.04419
5.32488
3.16258
3.42466
3.41763
4.52365
4.8124
3.20815
5.11618
5.09978
5.92551
5.94328
6.87602
5.80295
7.13897
4.10159
5.57261
8.57989
3.9335
7.23047
5.55051
5.06952
7.3857
8.24161
7.07865
11.5693
8.48771
9.03964
10.4215
15.818
13.6373
25.1175
12.1401
10.8196
7.4639
18.517
10.2508
8.63638
8.77811
14.1381
12.0159
11.756
15.6485
43.1436
45.814
65.5525
19.3792
43.7906
30.875
27.0444
10.8721
10.6833
8.25251
17.6938
11.909
16.5893
12.074
53.0107
68.0568
64.5206
37.4898
51.7659
32.5406
55.7875
8.71015
15.9229
12.2021
20.6716
17.4554
13.4695
27.593
70.8944
66.5141
73.3583
45.7473
72.0904
61.7812
61.0218
15.0122
37.3989
23.5794
64.654
25.4743
41.3898
39.9128
85.7709
80.6106
84.2341
88.0877
81.541
78.6912
86.2346
6.80139
18.7391
0.0389205
88.9791
26.0782
86.272
87.0573
8.25408
4.87437
5.29857
6.61769
9.76658
14.5619
30.5876
24.5262
45.1072
64.9941
72.9655
83.8383
62.2122
74.4094
66.5178
73.0254
67.9164
73.3684
64.368
80.941
6.73081
0.00155601
0.0133414
6.91098e-07
52.9164
53.4215
16.1443
5.07433
5.45176
5.54195
6.5511
5.75723
5.8358
4.82238
5.67939
7.34979
7.79253
8.11376
6.46923
6.56098
6.91696
13.3894
10.0062
11.4121
18.1859
9.28977
13.3476
18.3205
18.7556
25.0459
17.9374
37.3373
16.5585
28.5698
22.865
27.9282
18.2876
42.5853
30.3808
25.5705
18.5542
46.7364
33.2686
35.9367
29.1586
69.9621
21.3008
55.1697
45.6233
88.4663
44.0969
82.1058
67.3243
67.6085
63.1072
87.359
91.3137
70.0113
72.0185
84.2085
70.9081
87.0402
2.22045e-16
2.22045e-16
2.22045e-16
2.22045e-16
2.22045e-16
2.22045e-16
2.22045e-16
2.22045e-16
2.22045e-16
2.22045e-16
2.22045e-16
2.22045e-16
2.22045e-16
2.22045e-16
2.22045e-16
2.22045e-16
2.22045e-16
2.22045e-16
2.22045e-16
2.22045e-16
2.22045e-16
2.22045e-16
2.22045e-16
2.22045e-16
2.22045e-16
2.22045e-16
2.22045e-16
2.22045e-16
2.22045e-16
2.22045e-16
2.22045e-16
2.22045e-16
2.22045e-16
2.22045e-16
2.22045e-16
2.22045e-16
2.22045e-16
2.22045e-16
2.22045e-16
2.22045e-16
2.22045e-16
2.22045e-16
2.22045e-16
2.22045e-16
2.22045e-16
2.22045e-16
2.22045e-16
2.22045e-16
2.22045e-16
2.22045e-16
2.22045e-16
2.22045e-16
2.22045e-16
2.22045e-16
2.22045e-16
2.22045e-16
2.22045e-16
2.22045e-16
2.22045e-16
2.22045e-16
2.22045e-16
2.22045e-16
2.22045e-16
2.22045e-16
2.22045e-16
2.22045e-16
2.22045e-16
2.22045e-16
2.22045e-16
2.22045e-16
2.22045e-16
2.22045e-16
2.22045e-16
2.22045e-16
2.22045e-16
2.22045e-16
2.22045e-16
2.22045e-16
2.22045e-16
2.22045e-16
2.22045e-16
2.22045e-16
2.22045e-16
2.22045e-16
2.22045e-16
2.22045e-16
2.22045e-16
2.22045e-16
2.22045e-16
2.22045e-16
2.22045e-16
2.22045e-16
2.22045e-16
2.22045e-16
2.22045e-16
2.22045e-16
2.22045e-16
2.22045e-16
2.22045e-16
2.22045e-16
2.22045e-16
2.22045e-16
2.22045e-16
2.22045e-16
2.22045e-16
2.22045e-16
2.22045e-16
2.77724e-13
73.876
5.36424e-11
60.2596
28.5445
71.7527
0.0238043
65.7997
0.19466
43.4983
5.36242e-05
0.144766
83.7668
16.895
0.458625
85.9161
83.0836
42.8152
85.2517
37.0383
88.5003
60.7489
90.5263
72.6934
61.883
91.8148
60.2346
58.8133
61.3243
0.557182
4.34186e-05
2.22045e-16
1.3518e-10
0.0268832
1.04529e-07
8.88255e-07
2.50732e-12
88.6998
72.2479
88.7783
83.6777
82.173
72.3849
87.3968
71.7587
1.80183e-05
1.26418e-06
6.74108e-10
0.0852195
0.0359512
20.2678
2.17853e-06
14.0657
71.7742
12.8315
0.767808
84.0592
74.1572
0.0112015
8.6312e-07
1.12865e-09
5.29691e-12
4.35694e-10
8.15681e-13
4.42038e-16
4.84768e-15
8.48045e-08
61.3693
53.2655
2.27639
0.630387
0.916226
1.37586
2.70912
1.52684
1.63199
3.47114
2.25912
0.724215
0.414511
0.492577
0.664097
1.1516
0.891293
1.09514
1.31794
1.62203
1.85496
1.45815
1.77486
2.1235
2.39479
1.96383
1.57838
1.91386
2.53509
2.19509
2.4616
2.28866
2.62612
1.82046
2.15364
2.81539
3.28448
3.49048
1.087
0.839965
0.938319
1.25862
1.43034
1.13714
0.985264
2.10681
3.02822
1.95045
2.45988
1.66121
2.54804
2.04952
1.4517
1.14213
1.3946
1.71834
2.09665
1.69162
1.38386
2.37466
1.62177
1.45594
1.69073
1.90683
2.49567
2.78656
2.63439
3.31681
3.26142
2.1205
2.69975
2.78155
2.20783
2.22045e-16
3.25774e-15
2.22045e-16
2.22045e-16
2.22045e-16
2.22045e-16
2.22045e-16
2.22045e-16
2.22045e-16
2.22045e-16
2.22045e-16
2.22045e-16
2.22045e-16
2.22045e-16
11.1135
15.1138
16.1667
10.315
13.7278
27.8702
19.7703