/*--------------------------------*- C++ -*----------------------------------*\
  =========                 |
  \\      /  F ield         | OpenFOAM: The Open Source CFD Toolbox
   \\    /   O peration     | Website:  https://openfoam.org
    \\  /    A nd           | Version:  9
     \\/     M anipulation  |
\*---------------------------------------------------------------------------*/
FoamFile
{
    format      ascii;
    class       volScalarField;
    location    "0.00135";
    object      impulseMax;
}
// * * * * * * * * * * * * * * * * * * * * * * * * * * * * * * * * * * * * * //

dimensions      [1 -1 -1 0 0 0 0];

internalField   nonuniform List<scalar> 
11001
(
918.56
434.931
598.892
629.646
513.924
949.204
563.177
741.006
597.034
444.851
366.255
318.372
391.967
340.74
479.213
385.357
571.037
461.8
449.746
611.835
530.456
609.39
534.517
379.966
351.023
341.309
458.094
461.977
406.758
409.913
386.587
413.525
368.998
457.848
462.618
410.418
406.826
584.991
505.5
483.68
614.184
534.138
537.699
612.821
939.121
706.564
705.885
687.321
835.647
689.793
827.632
347.981
341.284
332.312
363.855
378.113
380.461
365.312
888.31
699.463
703.383
682.319
786.983
674.322
811.163
360.141
354.611
356.768
379.632
356.358
363.31
374.722
617.637
553.975
540.199
615.467
535.059
592.767
550.762
469.657
424.389
412.159
464.704
476.119
421.956
407.763
662.518
624.575
661.056
657.483
657.244
620.464
734.525
370.6
337.676
358.399
383.488
335.044
367.322
356.844
650.541
700.628
601.166
645.868
612.52
640.085
720.599
609.749
531.035
572.635
525.423
584.343
542.832
600.547
455.321
455.325
467.339
414.121
387.647
398.574
403.087
376.499
348.939
340.618
328.064
359.251
350.489
366.385
571.404
327.313
435.862
365.011
487.956
598.294
511.194
451.885
383.008
428.553
170.92
290.478
305.473
448.436
344.494
190.702
593.592
583.711
579.664
544.042
540.571
536.903
539.929
444.194
387.458
383.718
420.634
360.681
357.609
417.238
560.448
584.354
571.706
529.604
522.428
519.277
532.666
506.472
560.891
556.439
473.723
517.295
513.212
469.866
308.072
342.955
339.808
274.21
310.54
307.707
271.593
535.791
498.172
547.713
505.229
453.264
462.775
494.094
368.223
436.883
376.686
352.017
403.616
411.27
344.896
323.831
299.271
332.974
301.987
257.582
265.929
294.043
496.575
448.291
495.643
492.344
449.065
445.223
493.179
485.783
478.693
430.041
443.658
439.13
476.208
487.09
430.331
420.539
470.112
466.514
379.923
417.371
427.009
459.424
401.41
411.445
373.864
410.917
420.588
449.292
386.088
293.084
330.921
327.892
341.383
383.025
289.718
322.53
369.77
275.286
335.629
377.485
283.755
315.251
236.073
237.241
277.289
274.276
187.282
233.761
233.172
268.658
218.507
218.723
180.774
227.511
227.372
260.75
34.21
0.00343196
0.0381409
19.9798
53.5587
0.000686566
7.68255
0.00134609
12.2253
0.0649461
63.0127
0.00304282
0.0252703
46.925
4.0956e-05
0.000410083
2.71809
10.4294
61.5858
44.9038
43.5708
17.4771
16.7352
8.33267
8.84072
0.0159281
0.00661394
23.3316
0.033498
0.0128013
3.86783e-05
2.04891e-05
58.4698
36.1462
40.6713
12.738
15.1414
7.26349
5.72937
38.775
30.2048
23.2234
9.76208
6.61849
3.98836
2.36592
0.000167668
16.806
1.59212
0.00630297
0.000257935
1.46331e-05
1.08473e-05
29.55
9.07957
15.8454
1.76737
3.81505
1.16137
0.485937
19.928
9.90338
23.5886
2.43401
0.396934
0.56254
1.76491
11.4721
27.1254
26.0026
2.93814
0.765641
0.696897
3.18432
2.96779
15.3471
5.20394
0.243102
1.10506
0.598966
0.127436
32.4318
6.4334
7.90848
7.14732
5.81172
0.471835
0.538014
0.0602847
1.43172
1.32922
0.457036
0.0216347
0.494315
0.0199761
0.851006
0.0507857
1.12391
0.381603
0.0120716
0.282704
0.0165516
28.7481
3.06599
3.79515
5.66811
4.59688
0.351525
0.218443
0.571612
0.0145771
0.338467
0.00765173
0.183211
0.10216
0.0041819
0.520177
5.97605
1.36593
0.282589
0.0211809
0.0563579
0.113576
10.1777
1.66726
2.05592
0.88636
0.731138
0.111819
0.0470373
0.0748207
0.00722599
0.17356
0.0487458
0.00079708
0.0200395
0.00196826
0.1299
0.00122745
0.0326317
0.00588714
0.0297456
0.141714
0.00539118
4.77598
0.0797825
0.0918385
0.313813
0.266461
0.0164667
0.00476629
0.105993
0.00311056
0.016789
0.000986628
0.0239754
0.0756005
0.00439055
0.00191993
0.0101014
0.0468285
0.0251272
0.000212184
0.00518196
0.00101888
0.357206
0.0140737
0.315464
0.0231037
0.00121283
0.0262945
0.00106961
0.601609
0.0291881
0.524993
0.0295794
0.00195747
0.00171191
0.033827
0.0105691
0.15012
0.237952
0.0171582
0.000496872
0.010562
0.00079856
0.237385
0.0213055
0.387193
0.0217552
0.00076037
0.00125422
0.0132096
0.0782822
0.00148636
0.0338995
0.000257108
0.0053568
0.0022539
0.000116816
0.0115873
0.000186136
9.49691e-05
0.000833136
0.00225574
0.00452891
0.000464433
0.119697
0.00256987
0.049441
0.000379518
0.00658406
0.00271617
0.00016499
0.000535663
0.00361904
0.0121762
0.000781897
2.35303e-05
0.000241373
4.77646e-05
0.00481394
0.000865134
0.0169542
0.000935894
3.02843e-05
6.51772e-05
0.000272453
279.942
75.0782
1.97938
239.844
272.445
232.729
156.249
138.49
77.9638
61.6739
258.492
277.39
256.112
245.383
242.98
222.053
219.643
251.339
244.232
265.327
230.814
238.096
214.763
207.425
194.19
19.6985
27.9625
180.636
0.181031
0.0785106
59.9868
219.806
237.464
217.36
180.247
202.17
199.666
177.57
212.543
205.324
225.594
194.653
164.376
187.071
172.331
14.6212
124.957
171.312
0.0420688
0.00217595
49.9495
14.1777
205.721
153.47
203.186
129.51
180.766
178.147
126.704
189.962
147.644
197.98
172.808
111.738
120.856
164.554
191.921
161.519
141.566
158.979
139.094
100.976
103.436
187.45
126.316
146.153
153.95
134.091
95.8884
87.979
132.229
104.455
157.927
155.137
75.3161
101.661
129.318
149.51
114.599
87.0858
69.8946
95.9304
140.853
123.506
159.182
115.67
135.416
121.48
102.105
77.377
64.3712
143.865
67.2293
84.2489
104.314
85.7708
49.602
34.1127
120.524
72.666
117.862
61.1911
28.2906
26.7517
63.3229
23.8559
65.8392
72.8476
40.7612
5.52119
35.01
7.52701
79.4954
26.6448
77.354
44.5468
9.73113
46.3269
9.00599
67.6618
104.029
112.439
56.6676
18.8544
23.5452
49.728
56.5734
9.3868
45.4967
3.43602
27.7163
19.5844
1.74267
92.6513
38.2008
78.4909
13.2763
40.7571
30.4163
7.81211
275.421
185.629
242.541
267.253
114.891
41.6797
52.5147
208.443
126.631
261.176
129.088
106.531
9.56026
34.4727
159.734
200.125
260.79
274.258
259.337
235.929
234.488
217.701
219.45
271.547
251.196
256.159
226.551
231.349
214.106
208.605
252.92
244.317
219.822
235.178
210.855
200.991
191.018
229.97
242.496
210.566
223.912
199.49
178.504
163.109
220.591
218.574
240.802
196.855
173.364
171.095
198.906
231.64
214.558
237.181
192.793
159.52
166.547
186.602
124.791
187.975
186.227
165.925
104.425
167.942
102.524
176.894
120.935
182.538
161.793
92.1543
155.401
98.4882
224.037
189.393
214.185
149.889
178.06
166.905
137.351
168.994
95.7175
158.555
83.476
146.58
135.087
72.5009
67.0301
82.4316
145.314
120.722
45.3218
103.404
59.5761
187.63
176.081
202.11
152.87
102.892
121.723
135.632
140.773
113.036
50.8281
79.0678
110.765
142.987
77.183
136.284
66.9654
47.2302
98.7562
106.072
129.293
73.196
58.6038
88.8044
119.703
107.342
26.1202
76.3766
48.4124
92.2637
25.1056
17.4174
46.0354
61.856
74.8008
36.9638
21.147
4.9342
33.3417
11.6815
0.250494
5.41644
0.718762
44.4155
25.7493
62.0755
19.7374
1.17304
3.55487
10.2468
17.8601
3.88151
1.67915
0.160817
3.48674
19.0469
1.49974
15.4085
0.764181
0.122576
1.78773
2.72239
11.916
1.16092
0.426353
0.969951
7.97385
4.39431
0.0188698
0.439502
0.201421
338.555
351.866
326.619
344.242
358.246
334.382
344.7
354.502
323.991
335.218
337.959
325.358
328.219
337.977
340.964
332.051
349.197
342.825
338.91
333.003
345.906
352.586
352.741
347.178
356.007
364.38
349.711
353.196
368.241
328.252
339.086
331.416
355.771
342.624
346.421
360.06
361.267
358.511
368.781
358.84
371.209
366.81
371.336
343.127
348.965
336.422
352.586
360.936
362.457
361.12
365.984
362.987
360.879
365.316
353.323
363.547
366.579
368.595
360.516
355.549
349.969
361.102
368.217
364.856
362.493
367.983
301.567
308.734
247.865
279.329
329.361
335.747
365.513
356.304
364.722
356.626
365.256
348.268
349.098
368.267
352.275
355.364
360.11
363.892
345.761
341.693
295.888
335.95
325.318
307.763
335.262
324.291
294.681
317.823
354.715
338.663
337.263
353.928
334.564
316.38
329.474
305.387
333.055
321.681
287.527
317.532
291.922
346.512
334.153
351.202
331.657
308.331
313.254
327.111
310.377
258.913
291.233
309.14
257.177
289.765
277.904
306.186
269.638
253.531
281.146
286.444
301.48
274.703
356.288
354.307
325.237
329.263
328.983
337.074
273.712
266.83
358.285
357.213
357.172
353.737
353.065
340.658
342.703
359.147
347.192
353.524
342.067
348.795
335.495
328.63
336.256
313.379
349.943
334.45
348.337
327.024
311.47
337.557
330.714
343.916
322.464
301.669
316.199
307.511
334.554
311.133
308.296
291.45
320.091
317.433
288.87
321.603
295.715
302.991
312.37
277.122
284.062
305.516
303.765
254.935
286.305
301.441
252.629
271.397
284.184
248.059
279.912
241.215
259.991
273.499
290.438
296.947
365.325
345.964
267.595
296.147
203.582
291.559
240.049
322.864
359.753
347.338
354.719
348.276
341.28
336.137
329.214
353.321
325.34
331.684
340.83
334.191
320.615
309.892
324.36
288.77
317.881
281.227
311.777
304.09
272.732
340.614
314.552
333.387
301.428
320.895
312.856
292.262
299.354
279.249
309.721
294.406
249.452
282.526
262.102
313.457
304.138
324.545
302.776
267.712
281.018
290.579
262.508
273.754
294.86
286.038
230.024
264.071
253.123
275.136
228.221
238.613
217.892
252.343
262.208
241.688
233.441
174.419
128.685
234.581
296.015
222.349
308.303
111.516
226.47
266.013
213.98
274.613
99.6886
48.8356
210.102
167.556
318.398
294.296
316.842
292.481
294.322
268.454
270.344
313.495
285.418
282.854
288.715
290.847
264.543
258.523
300.956
291.409
277.724
264.049
267.711
250.114
239.416
265.958
231.113
263.858
238.597
207.168
204.693
240.817
268.178
232.563
266.352
239.164
206.147
203.862
241.257
279.736
241.525
236.969
251.484
255.625
226.65
211.788
228.526
256.836
262.612
235.021
192.686
228.76
199.409
259.603
219.504
253.095
234.268
192.785
199.939
227.7
248.828
203.29
238.504
183.522
220.163
209.203
171.628
244.16
198.355
232.974
183.07
218.734
207.417
170.636
211.545
190.228
226.105
195.95
138.059
180.13
156.683
204.495
184.321
219.758
193.825
135.931
155.151
177.663
207.93
173.813
171.988
125.859
171.13
169.402
210.281
203.372
120.223
156.633
158.077
165.971
196.516
164.362
145.91
147.164
187.176
175.148
84.8719
132.874
131.876
160.143
93.5378
67.5706
93.7367
114.988
141.471
114.361
1.8737
0.0256938
0.00703088
0.0517232
0.166766
0.618732
0.0789214
196.815
171.571
189.257
79.3392
63.3653
49.3695
35.7
0.495707
0.192359
52.7849
15.0706
122.116
27.2764
3.90089
0.0958109
0.00378071
194.248
167.755
164.99
153.624
150.739
115.526
118.488
181.756
151.326
159.592
136.433
145.088
109.57
100.433
158.504
139.928
124.623
125.151
109.491
88.2154
73.2199
142.213
85.5208
106.894
70.452
91.2136
56.2053
38.4693
127.878
76.7595
124.945
73.2181
35.0428
75.8397
33.1684
101.165
47.1159
98.2826
62.6951
22.7284
21.1846
65.227
71.4546
110.135
119.103
67.8129
23.655
59.6077
29.3
83.5765
42.5104
92.4611
57.504
13.6559
18.0482
49.7063
97.9822
40.3923
82.8374
16.908
49.031
36.8036
10.1158
71.8169
18.1913
57.7313
8.80056
39.8348
28.7185
4.54915
27.2752
46.4714
65.2692
24.1112
1.51776
12.6949
4.65837
26.8031
9.83611
42.2746
17.6273
0.515977
1.75514
8.34252
28.9867
7.43265
5.34497
0.431853
4.75857
30.7759
6.69113
25.2869
3.44599
2.30788
0.31675
3.64135
19.9645
5.24627
1.82734
1.18066
13.7695
7.81694
0.0392784
0.494036
0.772564
3.36227
0.07808
0.0495245
0.0133919
0.172867
1.03445
0.270524
0.00144676
0.000104892
0.000123941
3.5615e-05
0.000111278
0.00164569
9.46987e-05
0.00106156
4.69844e-05
5.38265e-05
2.28214e-05
7.76292e-05
0.000646604
6.60542e-05
2.63216e-05
2.90703e-05
0.000302652
0.000129908
1.39771e-05
2.00756e-05
1.88993e-05
2.49523e-05
1.09568e-05
1.10036e-05
1.08741e-05
1.14678e-05
1.47137e-05
1.13643e-05
4.74971e-05
0.399408
6.66533e-05
9.1018e-06
0.00207621
2.40148e-06
6.65095e-07
8.72263e-06
0.0844031
0.0198723
0.0223651
0.00465718
0.00423494
0.0011785
0.000263111
0.0145451
0.000124661
0.000119219
0.000789378
0.000737927
5.72163e-05
2.17352e-05
0.000886712
1.79714e-05
0.000196955
1.27521e-05
6.30982e-05
2.11608e-05
1.05753e-05
0.00113964
2.28961e-05
0.000241826
1.54169e-05
7.23907e-05
2.40768e-05
1.24451e-05
9.54421e-06
1.07954e-05
2.22891e-05
9.65817e-06
9.03505e-06
9.04617e-06
9.0908e-06
9.07228e-06
1.02036e-05
1.97753e-05
9.18569e-06
8.63877e-06
8.70094e-06
8.64059e-06
1.26301
67.5387
71.5971
0.000644968
20.3154
8.95673
225.967
44.1555
117.816
1.59703
0.389169
4.94221e-05
0.000702059
0.0747272
0.00029937
38.0659
0.929669
0.227832
38.7774
0.0144581
87.2509
0.240336
0.0864649
36.381
0.0122763
0.00344452
21.108
84.9065
0.215954
46.71
34.3645
0.00370349
0.0499791
8.43651e-05
0.00169418
14.4864
89.4204
381.204
267.327
163.533
36.4411
321.64
212.168
0.396985
0.0206453
0.00386709
22.292
0.00388
0.369258
3.8207e-05
371.068
347.034
336.316
334.113
322.841
287.14
298.249
86.0922
87.5811
73.1146
31.5987
32.5691
23.273
22.39
0.00323996
0.000835137
2.46973
0.425223
1.29421e-05
0.204704
3.35207e-05
12.8675
289.417
173.72
3.42959
0.00486948
131.841
21.828
88.0325
72.6142
73.515
32.3651
32.8661
23.5094
22.9868
80.9258
70.11
65.9018
30.8619
28.2771
21.5597
19.1745
20.1284
75.1668
52.2254
59.9416
24.6578
15.9444
12.1192
348.773
289.713
315.553
275.26
301.709
267.102
241.04
0.000436605
87.5933
4.11476
0.00470007
1.74192e-05
19.3703
0.0344933
1.3223
0.00110699
2.61627e-05
5.36508e-06
1.6799e-05
0.00197667
0.0455126
0.0560948
221.576
54.1673
9.57815
0.00218598
163.798
14.7326
308.982
256.961
298.365
248.033
214.975
204.558
258.649
0.257025
4.75614e-06
2.085e-05
0.00039548
0.458669
0.0710061
8.90222e-06
282.585
214.896
271.204
234.027
185.029
174.135
244.906
6.31559
55.253
39.4644
56.7501
14.1964
13.4703
6.7803
39.7537
56.1191
57.096
14.3686
6.54941
13.887
6.88087
53.5751
32.5037
49.3592
5.77455
12.696
10.7866
4.60958
57.9715
14.9496
42.9056
32.4323
9.68734
8.13764
4.60336
27.3047
36.2314
43.5304
8.36576
1.96489
5.75816
3.2524
194.114
223.64
250.768
214.071
120.914
152.828
185.744
237.98
253.45
278.722
228.627
155.541
184.837
201.878
245.764
256.911
240.886
210.59
190.887
204.589
149.987
22.0104
11.8816
21.648
2.12797
5.18144
2.0609
0.721611
188.542
92.6581
150.129
74.0963
129.133
90.0297
41.1704
4.47354
0.244333
4.75154
2.45022
0.106746
2.27631
0.115352
0.24936
4.68872
4.83863
2.49764
0.112328
2.39175
0.117615
27.8274
8.37735
18.9903
0.997803
3.38005
1.60682
0.43543
192.241
138.617
154.768
80.0604
128.015
144.132
202.905
211.349
165.043
169.487
154.471
158.845
99.2566
109.148
21.7595
2.0719
22.9177
9.69205
2.28114
0.541688
0.486595
4.27772
0.177283
3.60468
0.0989556
2.12226
1.70911
0.0788044
23.1405
9.274
9.8288
2.16731
2.32365
0.552196
0.510123
58.8285
51.5338
37.647
28.01
18.6559
13.8301
4.24144
17.2258
8.05244
6.28045
1.82213
1.35029
0.421516
0.306066
0.000263994
121.012
0.236959
0.00039082
1.76304e-05
0.27431
0.000701133
1.87093
0.131274
2.75788
1.23233
0.0353998
0.789336
0.0561367
219.062
118.409
167.418
112.014
161.165
105.314
61.4597
183.776
64.8749
126.653
77.5232
142.212
86.8553
33.882
171.719
61.3297
76.3733
92.3099
106.888
123.148
141.108
192.11
103.213
108.238
133.81
138.501
79.7071
52.498
8.15618e-06
5.92952
0.00485013
1.68089e-05
2.18055e-06
0.00433677
2.49605e-05
9.10091
4.28559
13.3157
0.493003
0.874021
0.193312
0.104484
4.74858
3.80619
10.8242
0.626262
0.0505622
0.1636
0.210407
0.0133321
2.93762e-05
1.41843e-06
7.97712e-06
1.79076e-06
3.19967e-07
7.49428e-06
0.320111
0.0138094
0.0419933
1.00987
0.015126
0.0456443
0.34956
1.02929
0.0153998
0.334723
0.0440199
0.974727
0.0464885
0.35589
1.10409
0.0249586
0.565206
0.0194429
0.444439
0.216531
0.00909933
4.85544
11.258
4.07145
0.664046
0.215849
0.176326
0.0528353
0.286367
0.0381359
0.847302
0.662642
0.00922136
0.0295887
0.218127
37.6517
4.41581
13.598
2.16357
7.96232
1.13926
0.237073
102.026
37.2447
92.3084
44.3082
12.3498
9.11627
51.7893
0.462479
0.0121969
0.00605214
0.0842089
0.284997
0.0203354
0.145752
22.6364
26.6875
69.3148
37.691
0.487456
6.75738
8.571
63.0089
53.9009
106.577
52.0448
2.66063
20.661
15.441
110.683
46.5387
100.742
47.4641
15.6633
11.8389
55.1788
2.42246
1.16166
5.256
0.241996
0.100527
0.0478753
0.0186451
40.2953
53.5048
97.0679
48.9436
1.59131
11.2039
18.5207
69.4752
63.1578
67.86
24.7608
28.0837
23.27
4.30009
3.37914e-06
0.00340849
2.821e-05
9.42191e-06
7.65083e-07
0.00016282
1.23369e-05
0.090902
0.0105366
0.249251
0.0879473
0.00119259
0.00358056
0.0299018
2.48478
2.21802
0.350672
0.0947854
0.0146781
0.10662
0.0166165
2.32806
0.405412
2.5351
0.108789
0.0154545
0.0169591
0.0996415
21.1234
0.766021
7.34105
0.219309
2.42426
0.454892
0.0382254
24.0064
46.3296
72.8956
29.8929
0.855061
4.05582
13.2559
31.9365
54.0277
81.2206
32.6741
1.30367
5.66847
15.1784
7.04194
0.0874978
1.8759
0.047952
1.08121
0.219759
0.00998474
0.339479
0.333141
1.45699
0.0132205
0.0578976
0.0134698
0.00293858
1.34225
0.295934
1.89823
0.0123302
0.0806058
0.0565093
0.00843889
0.272003
0.940535
0.169369
0.00669273
0.0379871
0.0108015
0.00177035
0.0425572
0.154338
0.861226
0.0101906
0.0348067
0.00607906
0.00165124
338.996
158.896
8.64175
395.265
252.527
196.805
271.027
106.613
216.864
50.7362
386.295
351.741
357.749
347.796
341.691
302.402
312.6
308.549
156.052
52.3103
179.564
22.2082
25.5212
0.0123975
364.979
296.89
303.004
327.86
321.749
283.386
258.842
113.063
0.458402
0.00884284
11.1904
0.000199162
0.00262261
0.000162685
304.143
242.24
293.769
253.508
210.02
199.728
263.671
316.216
260.798
306.005
259.65
222.977
212.72
269.822
267.545
265.453
272.01
229.224
221.427
225.824
176.237
249.866
223.304
274.622
234.831
151.03
180.171
209.287
262.418
242.129
286.946
241.114
165.808
193.712
215.927
213.708
105.079
113.184
171.486
162.759
115.719
61.6551
209.007
161.105
168.119
96.847
157.544
150.582
219.209
80.9435
62.0019
68.3357
40.5472
35.9897
26.4153
10.1087
215.674
101.039
163.929
107.956
170.744
115.781
58.5495
229.734
124.844
180.971
123.396
178.594
123.962
71.7405
189.821
99.8762
77.4695
107.107
137.255
130.117
161.595
33.0221
7.00249
22.1635
19.0128
55.977
3.20986
0.66292
14.3159
103.809
49.2064
61.1799
2.40723
19.1743
20.9709
65.297
68.7179
120.339
68.0825
4.5027
27.5518
25.2063
60.6043
66.9831
118.939
67.9384
4.00592
27.5599
23.3008
7.38978
20.7291
2.31525
0.210193
4.00362
0.76963
0.0383532
1.0095
5.30954
28.6402
0.374983
5.26305
1.01126
0.0618579
0.00630118
0.0419032
0.151609
0.0679551
0.000716709
0.00276609
0.0179516
0.089571
0.00370342
0.000847398
0.00409659
0.0990152
0.0229684
0.000943129
0.004171
0.0938443
0.100867
0.0233992
0.00088822
0.0216404
0.000960447
0.0783506
0.00236898
0.0576048
0.000728455
0.0178388
0.0128408
0.000521553
0.0598908
0.120568
0.815617
0.0340431
0.00242452
0.017547
0.00490582
0.73083
0.779556
0.338011
0.0794671
0.037868
0.0354186
0.00387179
0.00174041
0.0221335
0.110608
0.449754
2.19728
0.179083
0.0349003
0.0137084
0.043789
0.228031
0.755298
3.63111
0.229139
0.0439697
0.00151498
0.020651
0.0370013
0.00797304
0.000173569
0.00423421
0.000323049
13.5166
0.0887973
0.0539797
0.120948
0.960758
2.20395
1.30474
0.0221061
0.10328
0.483063
0.0537474
0.000511239
0.00242503
0.0111119
0.176592
0.441467
2.1532
0.108213
0.00173166
0.00872595
0.0217303
11.3357
1.12287
1.34719
0.0350087
0.707756
0.849575
15.0556
4.00391
4.71972
25.8998
0.209629
3.71929
0.254582
0.0130592
0.266977
0.193401
0.23751
4.5828
3.38464
25.0506
3.81747
19.0022
0.118544
3.02012
0.099298
2.59715
0.195103
0.00728365
0.0259104
0.00197661
0.000336321
0.000259301
0.00104267
0.00650184
0.00836762
0.0274585
0.000343728
0.00858595
0.000279373
0.00700711
0.00206063
8.76221e-05
0.00887573
0.190503
0.0251827
0.00101432
0.00765707
0.00280764
0.000364975
4.71444
24.4479
3.09091
0.151959
3.22053
0.246439
0.0110275
5.33854
0.0116595
0.0460121
0.055705
0.242557
0.291783
1.20149
0.0135383
0.0104346
0.0664139
0.00259146
8.93268e-05
0.000413478
0.000534353
0.0098877
0.000164182
0.00400684
8.0518e-05
0.00191153
0.000731857
3.57399e-05
0.0641155
0.00996287
0.00249367
0.00192866
0.000525146
0.000393505
8.67678e-05
0.00491597
0.00990264
0.114072
0.0215092
9.40216e-05
0.000977882
0.00180187
0.054674
0.0203794
0.328765
0.0160155
0.00275402
0.00102853
0.000198031
0.00341013
0.00100896
0.0201497
0.00276274
0.015507
0.321478
0.0547661
0.00258632
0.00572451
0.0220067
0.000864458
4.07155e-05
0.000116306
0.000231672
0.000593992
3.65015e-05
0.000163123
0.00434691
3.95716e-05
0.000671405
0.000181938
0.00443248
4.04382e-05
0.000171073
0.00062538
0.000684876
0.004063
0.000185338
0.000518981
0.0644406
0.00678083
0.000255625
0.00313316
0.000348072
4.20309e-05
0.0652151
0.00044596
0.00648358
0.000236375
0.00321606
0.000335825
3.82794e-05
0.015749
9.00286e-05
0.00176353
8.28201e-05
0.00164408
0.0001894
1.84517e-05
0.000140004
0.000498336
0.00327194
0.00228202
2.73193e-05
0.000342679
0.000101574
0.000508777
9.3466e-05
0.002226
0.000518496
1.11909e-05
0.000116964
2.65281e-05
0.00135556
3.52575e-05
0.000100793
1.70286e-05
0.000689476
0.000196876
6.05446e-05
6.32268e-05
0.000258401
0.00147847
0.000413383
9.67352e-06
7.20497e-05
2.2372e-05
0.000388937
5.75804e-05
0.0013536
0.000234155
8.80529e-06
1.51694e-05
6.68047e-05
0.0145173
0.0129259
0.284096
0.0133476
5.2304e-05
0.000636096
0.000717065
0.000747985
0.00233653
0.0121562
0.000139334
0.000608795
5.29934e-05
2.30902e-05
2.2606e-05
5.31939e-05
0.000749314
0.000617391
0.000137135
0.0122479
0.00235081
0.002198
4.37472e-05
0.000295486
1.91949e-05
8.91522e-05
1.90573e-05
9.27075e-06
0.00502208
3.17198e-05
6.11644e-05
9.71577e-05
0.000231978
0.000411275
0.00101925
0.00523011
0.00632462
0.139339
0.010105
3.79099e-05
0.000405395
0.000484332
0.00662871
0.00901954
0.171843
0.0106608
5.22155e-05
0.000442959
0.000592741
12.0497
19.4613
1.74421
0.00191601
0.0164446
3.06801e-05
0.000145162
1.43659e-05
16.1129
1.2028
1.68483
5.7057
7.56959
0.388916
0.272191
7.86239
0.404189
0.747681
2.01553
0.0844334
3.71953
0.164548
0.270898
0.0739651
0.0112762
1.18288
0.179629
0.0498043
0.00739144
0.04739
0.0140431
0.341529
0.686962
0.100632
0.0286633
0.00409141
0.0723186
0.00298949
0.000671046
0.0512616
0.00210698
0.0113875
0.000462648
0.0034195
0.000686231
0.0168616
0.0316104
0.00129678
0.00676074
0.000277995
232.725
36.121
42.2308
160.031
165.212
127.338
6.9277
15.9399
187.223
226.941
180.648
210.028
203.503
160.356
152.882
208.771
219.025
171.692
194.743
183.45
142.761
129.714
182.484
89.2351
148.201
175.141
139.825
119.131
81.075
60.1791
41.5137
66.3502
98.8284
129.062
121.834
91.3211
152.332
128.445
113.875
108.108
57.3536
94.2266
70.3244
21.4471
29.2526
52.0322
99.4841
112.017
81.3064
68.9199
68.4946
30.9539
25.4247
57.2178
0.654253
0.0690361
0.782756
0.197772
83.0826
63.7193
78.4597
29.6646
26.7132
20.627
17.9677
72.1025
49.0302
63.92
18.1071
22.8085
14.5543
10.6793
35.2362
4.18548
5.41914
52.1825
47.4762
12.0477
9.97808
240.101
127.044
139.245
91.0764
262.595
247.974
262.786
143.253
278.787
250.795
287.988
285.142
275.314
247.413
235.974
274.617
235.626
222.005
280.794
270.12
242.519
230.093
246.538
266.812
251.576
208.878
226.293
203.135
221.365
230.033
256.423
239.428
195.241
184.889
205.255
214.474
201.871
206.101
148.269
193.008
132.565
126.991
187.989
187.769
136.307
195.93
119.285
109.182
171.54
180.988
154.921
176.151
113.476
148.297
84.7294
107.405
170.309
76.1599
127.504
65.4313
99.0991
88.3777
151.527
162.21
19.036
33.5324
41.1923
1.62035
4.92934
2.82989
7.48433
19.8149
66.2792
35.6378
5.67324
4.00803
59.235
30.0033
1.14611
39.3407
15.5435
11.3885
2.37454
50.0913
23.0551
3.9596
0.15679
3.22639
0.09093
1.95578
1.52119
0.0700092
1.54385
0.0292341
0.0710388
0.111966
2.37594
1.0598
0.0481669
0.265316
0.0113419
0.0352167
0.195052
0.00821693
0.592839
0.0264132
0.236357
0.125066
0.010064
0.00284115
0.00519593
0.399554
0.0174981
317.662
283.49
176.872
244.903
337.073
284.383
243.795
178.093
289.32
334.512
308.446
336.937
320.036
311.591
291.992
337.879
319.117
320.564
310.718
312.398
292.545
290.826
252.261
301.245
271.52
285.584
303.434
273.964
254.723
285.935
302.273
303.804
274.407
253.294
272.692
255.144
728.931
354.955
609.864
532.249
465.173
713.876
548.919
528.081
464.829
473.606
411.865
269.53
478.184
359.005
413.572
272.004
420.32
476.742
423.12
411.237
461.606
466.508
406.203
546.101
548.414
611.391
590.987
531.007
535.121
587.923
550.182
610.812
612.342
590.823
531.799
586.512
535.82
478.918
425.583
425.353
412.495
464.567
467.601
409.748
653.241
733.054
655.95
618.774
650.25
653.424
615.592
725.391
649.907
654.804
617.146
639.129
611.645
647.708
359.163
386.529
386.214
371.136
336.84
369.289
338.469
381.571
357.609
384.222
369.853
333.545
337.359
365.512
576.964
585.927
530.024
535.217
532.957
589.062
573.885
554.906
502.273
507.421
468.643
510.574
506.273
551.547
575.099
532.786
578.886
526.744
570.136
531.088
585.339
554.142
468.733
502.588
504.989
549.313
509.611
506.639
384.921
439.94
352.5
415.386
444.204
356.152
380.513
385.946
416.103
442.336
355.335
445.071
383.603
357.186
341.917
303.903
304.536
272.875
308.083
307.506
337.846
342.902
273.766
306.677
307.238
340.824
309.04
308.437
280.108
241.81
277.024
256.257
219.213
259.039
222.169
279.109
245.632
280.848
259.602
220.722
257.771
222.747
216.917
237.477
199.287
240.161
179.999
202.264
219.719
240.651
180.495
218.042
200.605
238.719
202.779
220.184
0.000455592
0.00300437
0.000128546
0.0020092
2.46986e-05
9.0091e-05
0.000299758
8.28753e-05
3.20747e-05
0.000548308
0.00113166
1.76372e-05
5.3729e-05
0.000164919
569.182
503.185
483.842
433.308
405.516
230.702
231.666
199.332
0.149218
0.0211301
122.381
490.946
596.976
511.854
451.621
436.943
383.117
365.373
449.158
292.541
307.887
344.817
328.4
191.154
174.299
471.953
554.475
479.637
426.59
375.221
354.066
305.557
425.193
297.427
317.696
317.592
269.176
162.298
105.474
583.475
591.651
579.593
536.882
543.295
540.329
538.999
561.229
581.836
571.962
530.163
522.324
520.464
531.855
234.726
195.617
150.748
126.002
69.6491
51.0506
14.0489
508.32
561.254
557.459
513.619
474.066
517.417
470.632
446.371
387.953
385.271
359.249
421.187
418.69
361.315
342.934
305.245
340.111
308.613
274.284
310.847
271.894
440.301
372.876
379.635
354.912
406.444
413.44
349.078
500.582
537.332
548.914
505.965
454.654
495.317
463.817
548.363
538.201
534.042
510.739
508.28
494.05
497.131
451.727
351.834
262.459
411.593
284.386
200.839
349.574
326.715
299.869
334.247
303.985
259.797
297.52
266.994
523.448
507.875
466.634
442.999
482.131
466.815
428.958
521.099
499.851
517.862
477.687
464.137
458.836
481.699
492.29
496.159
448.938
448.128
445.209
495.425
492.9
365.26
416.007
357.372
397.407
341.557
332.596
386.565
283.243
307.843
272.339
250.215
289.203
279.306
238.576
328.549
247.201
156.758
317.547
80.5965
13.5177
165.933
486.348
479.622
444.154
430.855
439.653
477.255
487.388
466.577
430.466
420.519
379.91
417.222
470.125
427.114
490.717
451.797
434.993
449.58
395.445
430.59
413.036
469.344
418.96
465.415
451.076
412.783
403.904
456.462
479.771
462.529
457.073
444.076
437.394
413.071
421.292
349.072
339.771
393.49
322.178
359.284
373.939
309.79
128.759
47.5695
2.60385
123.144
5.45843
0.0368771
44.1438
459.813
411.885
401.918
373.984
411.091
450.085
420.797
329.468
386.498
341.94
293.675
383.89
291.136
331.569
255.981
244.699
223.006
221.009
208.825
197.536
185.082
325.075
371.337
336.467
278.351
378.729
286.027
318.756
275.66
236.355
237.883
188.505
235.389
277.822
233.966
433.99
422.157
395.653
364.205
385.61
413.918
440.869
260.025
246.058
286.399
268.199
210.16
255.619
225.322
216.671
193.569
209.294
176.852
194.294
169.93
151.385
271.169
221.575
222.467
182.993
230.305
264.533
229.036
400.319
389.759
437.578
422.535
340.216
374.727
386.291
416.545
396.344
429.721
376.252
409.691
386.648
355.203
361.436
267.875
310.101
299.19
304.087
349.159
254.661
211.559
211.637
255.638
244.605
146.929
197.532
198.873
438.546
402.82
431.481
385.765
366.49
355.644
395.518
405.215
352.362
337.055
324.083
357.122
385.671
370.266
215.995
183.443
204.094
153.514
176.814
163.72
139.471
400.461
339.819
390.849
364.934
325.287
312.77
375.857
379.214
362.233
314.45
342.236
294.889
322.272
276.679
274.454
213.399
260.491
192.139
240.551
221.48
170.04
286.028
317.901
287.999
218.292
334.69
238.282
270.318
178.966
110.153
164.792
99.363
153.207
138.539
83.9376
374.163
378.625
405.488
361.145
305.397
332.94
331.866
175.233
178.754
155.698
152.961
128.644
130.273
101.752
231.194
164.153
157.718
127.932
179.649
214.588
183.254
173.4
168.693
190.055
147.414
101.16
127.414
122.043
332.545
314.445
363.978
339.836
260.191
289.236
310.263
50.1417
0.802394
6.98356
3.01089e-05
1.42228
0.105115
17.5482
336.267
295.517
316.932
250.81
283.181
305.109
347.981
3.44456
0.15733
102.332
0.000570928
5.60637
0.0362489
3.25805e-05
126.263
91.0871
147.261
120.418
47.0993
66.0632
98.8893
341.766
274.153
296.781
271.878
298.871
253.831
225.522
102.528
75.314
129.034
113.933
38.7476
61.0462
87.3966
298.371
194.088
251.171
221.55
275.632
227.582
165.573
313.153
229.765
232.563
256.259
261.133
283.542
284.959
192.632
219.284
242.683
196.753
109.215
165.624
142.228
153.303
102.478
128.805
77.3727
103.725
77.1723
52.5162
140.842
132.087
193.664
167.542
55.2302
104.048
113.133
153.861
92.8923
125.374
68.2506
100.368
72.2904
43.2788
95.6621
50.6069
29.2685
25.8681
45.2236
74.7904
69.7111
101.577
28.6237
74.7782
26.8395
74.3952
50.078
13.0787
86.5138
64.359
91.9365
57.1491
39.1416
35.1472
16.1428
191.605
219.339
249.487
198.836
99.1377
133.443
164.814
73.2274
68.1332
99.7971
49.9801
11.1831
25.4584
29.3224
76.8918
47.6164
62.2656
40.0641
28.6363
19.4908
8.1043
136.907
46.8452
31.8011
52.917
74.9797
103.381
82.8685
31.7407
15.0733
52.6683
31.4186
1.33648
5.27894
15.3981
10.8282
23.1078
47.1584
27.1537
0.639999
3.76259
9.87179
234.235
236.658
45.1456
132.825
22.5348
237.548
71.3532
155.07
7.26953
187.543
67.8698
45.3798
17.7664
156.915
150.256
6.10205
191.698
214.487
238.589
216.764
194.034
168.066
165.4
238.985
215.475
217.205
192.712
194.475
168.543
166.494
229.074
211.672
188.905
205.899
183.04
162.179
155.532
212.521
221.931
197.943
164.169
174.907
146.292
134.204
70.4289
103.813
133.887
72.4721