/*--------------------------------*- C++ -*----------------------------------*\
  =========                 |
  \\      /  F ield         | OpenFOAM: The Open Source CFD Toolbox
   \\    /   O peration     | Website:  https://openfoam.org
    \\  /    A nd           | Version:  9
     \\/     M anipulation  |
\*---------------------------------------------------------------------------*/
FoamFile
{
    format      ascii;
    class       volScalarField;
    location    "0.00135";
    object      overpressure;
}
// * * * * * * * * * * * * * * * * * * * * * * * * * * * * * * * * * * * * * //

dimensions      [1 -1 -2 0 0 0 0];

internalField   nonuniform List<scalar> 
11001
(
-4722.11
117343
38808.4
84306.9
230237
-9732.21
-4171.75
26835.2
172150
260736
99564.3
244588
72829.7
73642.6
228447
219680
2030.69
36672.8
22535.9
57265
120607
48917.6
130100
60197.1
78477.3
69522.6
173891
175209
173211
169796
109263
94747.2
94311.8
171413
171566
162839
161311
16196
94043.6
63920.9
73344.8
155597
144027
92680.5
-7946.29
-13845.2
-10888.7
15232.4
3792.81
10592
6106.76
75190.7
65201.1
65114.3
149357
163638
161276
149712
701.349
6585.92
-4513.14
24764.8
18382.4
38487.9
10583.1
94283.4
87611.1
87802.1
155661
145740
147100
154960
115566
193608
232272
121348
232379
174971
195139
265052
225261
269751
263750
225711
221147
267668
63183.4
99902.3
50061.6
55316.9
67417.3
104371
30451.2
263400
244807
201476
216223
244493
261481
200311
64606.4
46294.1
121749
74279.2
111438
76875.7
36781.7
129614
194974
183290
230359
177720
195606
139870
216060
260415
219014
213115
265656
264067
211662
208792
258301
194756
242599
257598
195491
206690
130194
506023
332773
429059
268389
110149
264839
307509
406681
307981
619844
297627
289012
302354
474589
578601
114167
156545
160185
166250
219837
223136
169715
302746
316114
316616
344522
371760
375003
347064
175933
120615
166323
229421
185308
239444
175729
265219
219808
221423
300622
266365
268067
302246
287750
305867
306495
342216
361128
364455
345431
228500
265593
223580
271592
310715
305304
277908
324335
303734
318402
381113
359153
351664
391416
313790
291417
308170
370638
362123
351412
381316
233156
365680
291656
294681
311490
369592
236505
301166
253514
388612
319654
377071
311890
242932
345424
382894
319188
321669
410588
386271
348425
327046
403669
362572
418018
393110
354056
335860
397768
562484
448873
454405
480452
402247
569932
464123
420683
607145
490781
409801
584096
479198
425660
587612
446076
451192
583369
594721
430183
461115
639213
457288
596183
610646
439687
478017
409361
105.047
879.197
265816
394656
17.8937
147217
34.5106
202409
1483.33
415768
77.2662
590.849
378519
0.936911
10.8141
66149.4
181603
412096
376847
372105
229701
223880
143937
150304
471.645
199.849
343434
1011.93
395.103
0.364625
0.167178
405301
345954
362273
189770
211023
130268
109279
354190
321421
286035
159571
121386
83030.1
54601.2
5.12634
290136
48687.7
197.358
8.02552
0.128689
0.163505
318253
165638
235110
42246.7
80189.7
28236.1
11944.6
266088
175686
289406
55966.4
9714.99
13719.2
42072.6
193997
309848
303380
65504.3
18685.3
16995.9
69990.6
70828
231008
110307
6061.48
26805.9
14656.1
3306.47
399619
150019
176256
163826
138932
13770.1
15698.1
1376.73
31590.9
29346.7
10290.8
511.703
11128.1
473.67
18932.8
1162.69
24882.8
8633.96
293.151
6493.98
395.77
378747
83189.2
100967
138130
115942
10309.8
6511.09
12767
350.199
7683.87
189.595
4340.47
2509.36
105.576
13816.5
122691
35480.4
7009.28
578.738
1500.69
2971.84
214036
48555.8
59319.5
26781.6
21880.4
3421.61
1458.15
1857.01
179.26
4127.74
1217.89
20.8178
511.386
50.4103
3152.53
31.5255
815.709
146.837
744.461
3424.64
134.712
124911
2527.96
2929.51
9617.87
8120.64
521.476
154.09
2594.08
78.4976
427.819
25.4834
603.267
1865.08
110.02
48.8506
263.287
1164.85
633.691
5.56166
138.57
26.226
10246.8
417.769
9071.47
695.331
36.6671
789.745
32.3346
17630.7
883.261
15382
896.224
59.9858
52.4587
1023.31
315.919
4442.04
6908.25
520.079
14.9719
324.121
24.148
7083.84
649.21
11388
663.571
23.2609
38.4882
408.07
2361.16
46.077
1037.09
7.68923
166.63
70.9996
3.27894
300.841
4.91915
2.43356
23.3766
61.7597
121.721
12.2945
3672.07
81.3319
1537.18
11.5605
206.318
86.0391
4.76569
16.8752
116.365
382.996
25.1376
0.390243
7.53603
1.18064
156.559
27.9005
539.314
30.0505
0.518652
1.6661
8.6236
256478
527253
53669.6
237294
263052
247034
534620
559888
481652
458764
234931
258211
237534
310562
313534
291538
294810
243381
252495
271541
330579
319925
301774
313474
332735
283953
337375
362698
5115.39
2277.49
499436
258226
240566
261798
338205
300466
304675
343209
268823
279826
256806
313485
372942
328458
354220
240913
513311
387440
1235.25
68.415
474508
269959
395337
537846
400115
501361
388340
393402
502938
429395
546048
410710
404710
513697
507191
423977
336933
433704
477416
437886
479404
527443
529652
346463
497244
467611
448923
486013
525367
522358
455532
488970
412676
417335
477934
488358
458103
427690
476063
487403
471262
488334
443755
464995
422442
511037
492338
518766
521782
515757
499345
467054
506793
542166
538924
523144
465939
408980
529860
522420
529674
492498
370751
360762
498232
312340
478788
489451
414477
123080
390497
154901
499840
329399
495819
428780
186023
435573
176151
514063
536302
532142
481475
303005
339086
462612
460509
181717
430607
84789.6
353935
300061
47257.4
538141
433251
532050
247849
432429
385730
175141
164564
339686
224550
181065
455940
392566
426667
290343
452031
192207
460284
460488
184845
365407
416945
308215
191789
167305
194856
227222
230304
267871
264291
172824
209562
200818
246329
236638
275210
286894
206042
221323
260218
235991
279325
304118
327694
243194
222686
279866
254749
304941
359631
401530
267455
271037
227814
321047
390818
394611
317241
243810
278436
234203
329471
419807
404008
343572
451604
342979
346242
398978
471259
396536
469580
365810
452701
353492
405315
467053
416368
468264
257151
333186
274781
441885
364696
393629
469408
383494
464033
405711
464025
432019
451738
455453
448358
462564
431447
474037
402695
492878
436471
335018
368465
299607
430137
522072
499552
470677
453184
498130
421200
468189
496924
451958
464670
457675
449961
410452
498408
497244
466177
458989
435456
497786
478243
490848
325310
490977
411706
497209
320174
266966
432997
471318
489395
375015
314588
113839
384573
222547
7138.14
129612
20092.1
464698
368205
510755
315421
35703.5
96315
214093
284261
97796.3
45112.2
4563.8
89547.7
294851
40469.4
260950
20992.2
3515.86
50106.6
72791.5
222602
31606.1
11807.2
27892.1
170081
109028
565.62
12796.2
5729.94
-98022.5
-73504.1
-99785.3
-88670.6
41211.5
-16243.8
71856.9
60000.7
-99867.1
-98828.4
-98052.9
-98205.4
-96978.3
-87749.7
-82137.3
-99489.7
-88285.1
-96012.8
-77332.3
-92230.1
-69178.8
-47675.6
-48140.1
-84114.6
-40218.3
1079.45
-49658.9
-41141.7
7800.62
-79772.9
-2721.09
-69734
20460
-42666.6
-32673.3
27006.5
-27483
-54048.6
-10165.3
-27806.5
18664.5
-9699.61
12925.1
-21292.8
17730.2
-49487
-17930.3
42288.4
33507.5
2162.49
32339
41757.8
5070.02
11682.3
62785.1
44893.5
36051.6
16991.3
43942.1
52431.5
66444.9
47959.9
23573.2
39933.6
4617.03
16020.6
130254
115883
220937
168740
98432.7
87660.5
11078.2
40027.6
32187.2
43683.9
36410.6
65196.8
62452.1
22378.3
52197.9
47386.8
44534.6
40179.9
69246.3
74930.7
140345
75216.9
97883.1
118072
76980.7
100071
142985
116377
57075.7
84977.5
87045.7
60218.5
90009.9
118754
87314.7
122956
81160.3
104874
156550
112032
148494
69534.7
91869.9
64379
94775.3
131584
124076
101513
124385
202259
154926
126923
205539
157768
171738
132349
186183
211819
171779
163518
140207
177654
86546.3
65676.6
103501
107771
168021
164701
188622
197073
71412.2
65605.6
68467.8
120333
122269
106632
104522
78342.7
78321.5
72087
129241
124634
110397
117515
90612.1
124003
73567.7
92360.4
75576.2
109112
125967
84829.3
96553.9
78634.3
113423
139196
121256
131072
165997
210283
211022
188187
144854
146316
190058
173577
221325
214310
150809
203727
195268
158960
145834
206224
162438
147681
209269
191211
164984
215432
170757
224664
205887
179488
161612
153090
29472.9
67283.2
186490
140219
296728
152749
233245
107924
38720.5
59352.2
51830.3
62244.4
69752
83469.1
95007.2
51244.5
100269
92990.5
76228.6
83614.7
109434
126355
95869.3
153080
107703
167128
121798
134201
180209
78047.9
120136
89672.4
141838
111120
123246
154385
139948
168477
122603
149182
215139
166634
196037
121320
135134
104302
137903
188052
169640
155132
197432
182786
150584
163281
248758
196211
211231
178625
249950
233462
269089
212808
197084
228396
236912
371846
519436
243834
148953
264676
130637
534313
247198
188286
279381
177938
541816
484457
271739
364857
115616
150484
117778
153038
151583
189270
186264
123078
165373
166897
158651
157271
195285
204016
140996
153838
176215
191583
189563
215712
230542
190242
240406
193225
233544
288132
292211
230056
190242
247400
193367
236137
301158
305160
232657
169461
226548
229283
208420
206086
249755
275119
254294
208375
199504
242938
328265
253125
313719
199216
257505
208091
240286
314340
300608
250401
220280
299559
235263
350604
267157
285907
383355
219905
291455
235028
335596
264342
283123
368182
280157
328809
254668
311982
488930
350412
430192
281129
320304
254801
309302
477628
415957
348287
293033
384300
398455
520560
389603
403392
289096
301224
525768
437225
424508
402407
314638
415723
467963
456483
335088
366383
541501
495043
504091
412745
552510
525573
549573
530628
474436
535706
53307.1
775.611
216.566
1605.25
5020.26
18269.5
2329.67
300476
354334
314125
533255
508182
437574
388934
14372.4
5718.1
484735
280762
491975
348053
100712
2916.27
121.709
304820
389256
394909
415402
420574
510515
509693
330073
430607
408135
451262
432466
514442
519882
390199
461631
475439
496614
500068
521725
513820
439249
536027
526700
505931
514633
486084
431016
512265
528723
513840
517330
413001
522292
402919
502231
430111
500966
486758
323509
311724
492884
521247
528697
519658
509053
345155
494082
381421
499565
414913
500786
475279
244726
286851
455152
536261
444660
535507
290454
467710
423727
212790
491795
286956
469805
184475
422449
371438
113595
379827
472799
517605
353711
46417.3
249860
122202
358913
198661
427612
293869
15426.4
50826.6
185046
373550
167562
128374
12529.9
117146
384322
155105
350225
92419
64212
9248.78
94544.8
311567
129282
53055
34377.1
253519
175355
1210.41
14569.2
23204.2
92205.1
2475.62
1546.56
422.715
5252.59
31576.5
8257.53
45.84
2.59353
3.23759
0.314365
2.84304
52.1877
2.28614
33.8834
1.05686
1.28592
0.218628
2.06958
20.6798
1.67494
0.556134
0.658133
10.2707
4.25223
0.111223
0.329497
0.288763
1.10451
0.171891
0.175077
0.165288
0.206218
0.423376
0.19926
1.34422
12534.9
1.96986
0.136417
71.4897
0.045696
0.0128522
0.126491
2750.48
640.381
723.389
154.253
139.577
38.32
8.29348
488.547
3.91897
3.71593
26.8333
24.9552
1.48886
0.269058
29.5789
0.331432
6.53333
0.143674
1.88973
0.444167
0.0757841
38.2903
0.45843
8.10806
0.181216
2.1655
0.498975
0.0904752
0.166788
0.251388
1.02332
0.174178
0.131309
0.132275
0.135704
0.150308
0.227039
0.869301
0.158382
0.12066
0.125518
0.12099
33170.6
416843
424314
19.8657
268245
163502
683975
677975
931689
67657.7
13337
1.3698
23.5064
2109.49
9.64844
352747
20531.4
4865.72
355846
346.431
437749
5119.17
1946.35
346609
296.483
87.0046
272516
434937
4635.52
376929
337889
93.6343
1138.92
2.13442
43.3429
222612
842847
434030
600881
845102
647436
494650
713854
10385.7
519.339
103.924
281344
97.1434
9668.59
0.722548
464142
484498
508869
501138
524520
573263
554540
436512
438831
427541
302515
306889
263611
258378
81.3048
21.5533
60631.1
11191
0.143347
5473.61
0.59195
367316
559335
895391
122909
209.474
816439
495791
439298
426291
428316
306077
308212
265038
262102
431331
421897
415354
299302
287539
253614
238692
244452
425818
390152
405458
269826
215958
183152
473294
551672
523180
574132
539973
593430
641937
16.5881
690668
137409
151.877
0.202795
326077
1154.96
34739.5
28.741
0.576098
0.0372407
0.314307
61.1017
1305.48
2336.09
685676
739163
294331
96.1071
853702
399075
538750
619005
559009
633651
703276
725289
617223
6913.67
0.040674
0.450542
10.4847
12157.4
2006.19
0.0829517
579314
703111
595373
660499
780101
799035
644429
117080
398342
358351
402456
202604
195931
123633
359552
400817
403422
204178
120460
199945
125045
394534
330888
384292
109585
188930
170022
92393.7
401651
208215
366380
330214
158435
140428
92415.1
307097
344691
368452
143052
46263.5
109190
70502.1
747456
681727
618278
696111
900244
839576
790510
644925
619347
578141
662946
870194
773700
742622
695172
638057
682956
824903
883158
798503
955705
278699
197554
276297
49857.2
101118
48444.4
17730.9
816096
829734
916509
777343
919416
887598
650583
82987.3
5195.91
86972.7
51322.7
2386.01
48074.9
2575.26
5298.86
86122.4
88227.1
52206
2511.04
50285.8
2625.77
309655
156291
258645
24263.3
72757
38550.8
10676.7
758398
857217
842433
822118
859767
852078
736154
707698
826397
818288
840107
833828
861324
869938
277579
48392.2
285253
172912
52704.5
13166.5
11818.1
80228.8
3860.54
70191
2219.4
45246.3
37102.3
1775.95
286728
167673
174647
50409
53592.2
13430.1
12399.6
547701
620427
537616
422451
332830
324041
119571
245674
151783
126639
43100.3
32414.4
10261
7513.01
11.2693
954942
10532.9
16.171
0.189411
11760.2
30.718
40425.6
2912.7
56567.7
27034.8
814.08
17486.2
1274.19
749855
963676
941733
945091
920227
942918
826977
863799
818727
949086
865269
938698
899411
636789
806347
771521
846900
889000
869496
875794
891027
753498
905857
910748
872040
868155
839797
763777
0.0797515
153191
168.395
0.423549
0.0382083
150.712
0.284819
165143
94526.1
211441
12015.6
21206.5
4864.33
2726.59
103097
86706.3
185951
15369.9
1355.58
4193.1
5324.47
393.048
0.763105
0.0249487
0.133509
0.0345211
0.00655889
0.112907
7257.59
331.262
959.773
22308.2
361.571
1042.6
7900.66
22746.5
367.976
7581.07
1006.5
21545.9
1062.24
8043.52
24331.6
582.796
12592.9
458.901
9947.18
5051.91
223.428
104946
190981
91600.3
16329.1
5459.42
4507.43
1417.81
6542.24
874.968
18757.8
14702.8
225.697
684.637
5078.29
443616
121270
270378
65128.3
184725
35694.5
7548.97
863525
629733
850722
683105
339253
275207
726366
10326.4
294.729
150.579
2071.71
6511.15
478.264
3494.29
503816
523491
820088
662855
19498.5
226380
261138
822489
730095
924384
764089
104778
498785
397810
870518
697477
862871
703699
398722
332366
744965
59931.1
30195.1
111011
6025.51
2638.02
1275.3
510.109
688630
779526
919304
754837
68031.3
335458
470815
864578
831043
852529
560702
600828
536910
166676
0.0675007
120.644
0.488563
0.199504
0.0146821
5.19784
0.328604
2244.06
257.139
5758.89
2171.39
30.9651
90.5742
755.805
60836.6
55050.8
9180.33
2470.13
399.232
2772.12
450.867
57493.8
10610.2
61935.7
2828.45
420.138
460.129
2596.03
427582
25662.9
188463
8314.12
85123.1
14907.4
1308.85
514094
724438
818607
579604
36147
149336
371590
599342
772183
843643
606704
55211.5
197542
407351
194437
2793.59
57286.2
1733.81
38557.4
7077.38
331.148
9051.14
8882.05
38159.7
364.092
1554.82
370.416
84.2821
34461.9
7789.1
47873.6
337.469
2109.93
1491.04
233.749
7311.7
24861.4
4649.93
190.354
1023.25
301.661
51.7679
1221.76
4250.74
22749.5
285.09
937.32
173.136
48.3717
470705
771901
206202
418634
623407
758589
593869
867171
702010
752223
446696
479178
472198
496131
502624
553743
533041
519214
928452
718837
880102
522449
542618
544.879
453993
541558
532827
509207
516104
572369
610815
715038
14964.4
297.446
259667
6.35203
90.0276
5.21084
543802
641534
563613
623021
713091
736196
604371
528763
613141
549808
614367
681649
704059
594955
620536
617693
602292
758718
786728
729238
929901
625985
673784
582966
650313
877729
785687
722654
605127
638363
568204
639934
849214
749028
704724
727389
851403
863414
889272
901949
938987
768001
712843
831267
820080
857230
835283
843992
690093
610247
665799
692915
508768
479460
486381
240678
763239
934665
946229
938852
903294
960129
811715
716354
971747
921131
956830
883169
970812
873974
759722
900383
832354
909347
868930
872915
858673
431557
175902
366529
334435
524780
94875.2
21689.3
376411
918342
745959
813328
95462.8
475988
482876
785105
848278
944966
845482
166610
590189
538604
817691
848436
952867
857693
156823
594778
541550
188728
419534
80836.9
7907.06
133444
25720.2
1309.61
34167.1
171116
510446
14403.3
169556
34196.7
2156.78
156.521
1045.63
3631.5
1685.39
18.6543
70.1868
458.395
2191.96
92.7273
21.8214
102.426
2418.91
576.504
24.2302
104.302
2296.22
2464.27
587.328
22.8653
544.147
24.674
1923.56
59.8436
1420.89
18.9075
451.473
329.404
13.6526
1679.38
3316.89
21279.8
910.103
68.9503
478.215
137.889
23817
25558.2
10779.9
2699.53
1264.13
1178.05
132.724
59.2237
734.256
3608.67
14515.5
67253.6
5872.82
1170.24
466.34
1477.75
7500.39
24838.3
105857
7536.9
1484.53
38.6361
521.794
920.483
208.934
4.55095
113.461
8.52791
378026
3903.67
2257.61
5154.35
40826
91117.4
53368.3
699.262
3283
14816.8
1725.75
16.8259
79.3651
364.529
5790.77
14223.7
66026.2
3529.37
58.4378
293.088
719.462
322480
45395.5
54400.5
1463.47
28884.3
34782.5
388620
150746
178267
570523
8962.07
145180
11229.6
575.182
11436.8
8252.69
10473
173953
133699
559761
144498
475779
5263.61
122547
4379.09
106724
8666.21
329.514
656.77
54.042
8.87234
6.8521
27.0901
172.9
221.973
696.187
9.08233
227.805
7.39549
186.337
56.3745
2.22086
262.501
5155.5
720.644
29.2752
215.182
80.7647
10.4628
180577
552362
124654
6709.76
129397
10957.9
502.657
188158
499.401
1993.16
2425.72
10088.6
12161.3
50920.3
399.156
308.849
1885.92
74.9858
2.40938
12.1936
15.8789
257.552
4.34026
107.804
2.06182
52.4153
20.5757
0.818797
1822.17
295.087
72.2571
59.6154
15.6116
11.6031
2.34811
185.35
382.577
4258.97
725.284
2.89502
33.2751
62.6584
1898.39
806.791
12588.3
629.394
96.7294
40.4468
6.3436
120.598
39.454
796.111
96.7438
605.471
12259.8
1898.81
78.7943
172.528
639.434
25.4671
0.822341
3.13532
6.71564
16.4737
0.687024
4.18401
116.641
0.772255
18.6146
4.69849
118.945
0.78661
4.39281
17.3393
18.9881
109.184
4.7837
18.0457
2178.07
236.914
8.49936
107.584
11.8302
0.970696
2215.54
15.4306
226.783
7.86138
110.942
11.4355
0.855237
519.088
2.8151
60.0723
2.54766
55.8471
6.32438
0.320896
3.56414
13.8618
88.5323
62.2519
0.419626
9.51763
2.50473
14.3804
2.45772
61.3976
14.6274
0.147242
3.29357
0.586054
37.641
0.789303
2.74957
0.253358
19.4705
5.55237
1.50589
1.64716
7.46622
41.2862
11.8978
0.103011
2.0022
0.47755
11.2235
1.50232
37.8422
6.77096
0.0953002
0.283947
1.86432
641.317
586.847
12549.9
606.619
1.6192
28.616
31.4962
25.8862
80.5225
413.71
4.38593
20.8119
1.38704
0.345624
0.342163
1.41415
25.9457
21.2091
4.31569
416.905
81.1033
68.7562
1.26417
9.52828
0.401422
2.64567
0.395736
0.0832787
167.79
0.686392
1.72848
2.96043
7.54602
13.8838
34.4766
234.593
284.784
6156.93
460.259
0.964832
17.9018
21.6026
297.027
394.365
7575.36
482.461
1.19778
19.1332
25.4064
198067
261775
44185
54.7014
416.8
0.541403
3.69531
0.134785
236101
28893.2
39996.4
117541
144949
9464.09
6700.8
148746
9849.26
18130.3
50710.9
2213.88
84310.3
4174.99
7138.72
1936.29
309.038
30401.7
4827
1315.5
205.178
1332.53
384.905
8998.16
17949.1
2781.05
768.154
115.255
1775.04
75.0441
17.435
1264.62
53.2631
293.09
12.1182
91.8912
17.6487
428.31
787.586
33.0503
177.952
7.26192
242279
370489
391234
413488
408337
499374
145853
252110
347358
252941
362299
290543
304072
423857
438696
287009
267570
384284
323701
350963
459231
484629
364218
523785
468452
381860
485476
507823
517815
436673
391022
448159
499296
469595
476439
497221
444524
507522
528354
517032
483683
522079
506763
295163
339897
418801
493335
485680
492545
480214
418749
323159
296369
398887
14458.8
1700.84
17299.4
4264.47
432877
410678
428013
293512
279416
247447
229965
420930
381083
409843
230505
259086
204055
168105
341436
85591
104237
390498
378283
182337
160943
215562
439660
445359
466929
186815
213081
186609
421473
153012
192034
132722
140672
161665
200713
225176
163832
226654
254596
151016
172895
212205
237992
216564
177663
206893
289008
246410
301728
257196
244773
198603
229121
320138
345152
292947
272498
300032
289254
416122
326089
438669
442644
337818
336285
429495
315499
448729
455589
376764
354690
421444
371737
458406
431214
463216
459674
383489
456647
463119
443813
461602
461827
419964
399748
257812
333092
360049
38631.3
96821.1
62840.3
131727
284001
479034
392729
125194
95460.5
464772
365124
31478.8
407349
263404
205372
61980.7
442239
323681
75420.3
3432.78
64089.7
2038.73
41970.9
33093.9
1575.93
33567.6
674.5
1597.79
2492.34
49725.6
23250.5
1093.53
6078.92
274.498
807.961
4567.53
201.618
13128
612.258
5453.24
3019.58
244.199
71.4014
129.129
8934.5
413.059
146283
166626
347454
310711
171246
166055
314786
346416
190432
165610
211454
164298
144064
211483
188637
167084
148001
144681
215478
212853
189149
192046
211820
148361
192842
163335
146020
189951
208146
162978
148289
145820
189858
211401
192945
207874
39743.2
201543
126234
182326
317223
36172.6
188934
184357
310942
230105
362645
347643
219508
204588
356172
348140
226033
228388
227740
274013
271808
270014
274134
199702
193763
119286
178292
239728
236327
182553
191005
123245
118304
176315
228763
176770
232874
225525
218638
225615
272506
262559
267144
268678
62964.1
35737.9
57334.8
107834
76024.8
71368.9
112700
34403.1
61266.5
56709.9
107106
73529.9
110733
70333.5
206043
217306
223035
268476
249105
265112
249624
220447
204018
223443
268948
247247
249242
267350
166282
123758
236987
178998
233886
119684
170095
229020
276262
282864
314099
280119
273543
232065
166014
179522
123188
238222
169745
234196
119296
227234
311894
267970
279100
226945
278732
270747
322724
313916
384430
358865
311733
380333
324490
321387
356481
307084
380742
309335
320947
378927
312500
292268
369777
344987
366410
292016
313129
311867
345190
293449
368539
311768
365926
292231
257586
313161
258586
238280
295670
235759
292281
261199
311322
258431
236142
296195
239405
292537
265263
242904
307133
239243
342237
302644
261110
239190
341949
264721
306808
242839
302598
260871
12.6967
81.3026
3.27509
54.9006
0.370655
2.21227
8.33661
2.19479
0.651881
15.6028
31.6954
0.228366
1.28063
4.61287
131729
224646
261046
301711
331623
424588
322679
398022
4639.88
687.84
520298
260946
109691
263524
307938
336773
405614
422763
301148
297380
286748
472473
491885
579009
620410
289912
147222
267132
356383
441156
436630
511216
308405
363492
324126
508766
609749
651800
749222
156558
113369
160086
223635
166145
220016
170018
177559
120563
166859
231160
190168
243008
177766
264984
295792
409615
577858
581595
436043
247656
261584
219214
219490
266414
299419
265764
299157
299665
315533
315356
373282
343140
343504
371075
305010
287069
304814
363218
341651
360540
344299
298806
323049
317002
378229
350922
345700
387266
259580
224892
220581
269216
304532
275462
300371
193232
167369
215181
207746
259564
281198
230370
316856
475480
614343
387061
549405
744576
444715
313419
290066
306882
369186
361087
379819
350317
234002
248328
276975
312453
286292
301994
324385
193250
272170
241895
307366
291666
337333
258667
295224
233345
312746
365626
369412
291825
237723
333312
318176
347873
359223
400288
418800
370719
308531
340435
325090
376662
395233
417790
399393
427310
669919
914349
497463
732352
342963
711464
302778
259715
322276
389250
377266
314829
246247
320304
344393
382346
407687
384763
318679
345616
267061
290398
308458
322302
364021
347132
341137
278499
405785
331582
352826
380709
426714
302454
305469
301322
341559
328257
370390
406071
367094
367631
393893
349260
443956
411495
387314
477123
472527
525188
82397.6
660226
130066
1152.54
459137
325041
356683
401082
413306
390926
333594
349509
451197
396079
474529
560607
397584
564517
447735
283589
300325
281974
346030
369388
331482
360023
458576
409898
480791
592725
401984
574726
470825
449763
425453
586798
584209
592461
445528
429563
378158
363630
409463
478402
451259
407153
331224
348115
379967
395541
450270
484791
495887
433086
353242
338820
305193
462298
406243
402581
460120
458828
455471
632217
597343
606748
474358
438765
367765
415626
346650
364474
455462
434595
383634
332513
363570
348197
393476
376797
411255
429105
421885
620094
487950
512962
532653
438888
661329
482773
670404
497517
532644
690292
722602
525277
343392
421717
380405
443804
452919
482887
408356
386944
431936
485303
480088
457846
413823
404901
270141
320019
288649
400694
351187
384816
436494
398793
507918
438814
472258
514427
540199
437087
372924
405554
469037
443942
522487
485421
584153
438907
489657
496431
562786
560470
651230
664341
549507
494982
565361
787916
462556
718007
600777
457862
594987
498010
518847
451224
482987
517422
401058
426614
384756
450177
518705
493217
470816
391460
467788
537157
466825
519335
614189
559473
585804
659759
840236
728655
783400
661442
585446
357840
356950
315724
430364
504919
477658
474383
465163
516914
444884
480176
596080
553786
504851
493083
24048.3
158881
0.388158
42110.1
3593.42
305425
507930
560504
525771
629624
578926
547299
478929
96824.1
4600.68
544314
18.1446
144491
1219.94
0.264674
596103
601222
546830
516032
453255
498141
538555
446896
598259
524512
600276
536834
665440
769630
488632
481631
463447
485604
398367
462544
495264
537226
860834
670597
748319
590780
759640
916230
519307
659371
657607
606694
598459
564137
551353
586197
683634
574706
764359
813592
870558
764430
418405
519260
489311
508630
514837
518200
469783
733960
875118
753540
843058
669471
869625
779970
565092
585332
546623
639799
661583
550357
480613
502110
450019
360879
338509
424456
498417
485693
629221
376059
531034
420299
618703
482326
248679
550051
504989
551600
513493
435997
418512
291245
841055
752120
659895
856347
910333
937126
928505
519913
525439
536096
470746
230723
365864
383224
541495
463332
517407
454188
383883
317816
184896
895591
706577
546393
688492
817613
890187
767118
382863
259959
461415
386034
39020.2
127201
271019
249574
413327
552714
384400
19477.4
99805
216291
240268
235198
403930
494579
303679
233950
457881
456894
150934
343502
451791
402414
284675
435622
466151
132508
338556
282220
231149
277784
334310
411431
415144
230687
280903
277332
337117
333839
411115
414026
249912
288226
344784
300415
358152
421772
435488
281388
263422
318494
406015
378434
455146
479769
455718
501222
466467
460206
465998
503495
410522
353994
528226
458182
453810
349147
493320
532106
461073
466448
466051
503954
406902
502307
411713
453450
352587
348694
493339
529957
532780
494451
469473
442051
475964
396236
501031
499906
378390
361624
482307
377435
526607
499066
507431
521874
494419
426620
485421
496630
311363
487313
351318
526270
504029
401787
517525
494537
524526
513320
260425
262971
283974
479138
369650
383557
381936
485140
192721
175070
238443
198247
216673
269051
296255
267420
331208
238057
290419
213335
238849
333009
258998
225410
245591
368575
311316
345019
408800
352601
459224
448497
461885
394760
423642
463681
319722
500046
441944
308966
271878
389376
454583
130640
469791
200266
209118
318823
199069
471020
125928
412096
147755
205009
240256
468908
459870
327626
414088
137975
151088
189795
159075
197624
213464
222075
147189
186114
127339
124396
144024
182963
205757
123800
145893
143459
184750
182425
205264
207843
159980
182612
169645
221513
208239
233706
248768
281069
239445
171439
196499
167978
235741
276897
196019
170231
167460
235247
279606
238116
276398
175818
213756
184183
286521
244210
253712
297790
282351
437036
413440
412774
278912
315372
437035
412192
280119
278072
314629
436465
316842
436783
225454
208954
195227
267445
337657
286255
314540
285556
418796
294850
437811
322801
333045
441606
436745
426554
308688
348299
455350
369032
447823
416019
364696
458509
361595
472220
459595
413972
361009
472743
415182
458850
363100
459711
413678
419959
458964
369028
379546
466289
460626
429028
414617
464697
450967
394992
461319
463222
442545
453719
417779
463898
452626
419173
455144
451799
437824
461022
430899
464231
396989
445553
494484
469793
496714
359817
488419
344371
413384
494719
452129
412862
437793
440348
496864
160040
513738
459262
477007
92772.9
455617
453436
341682
365884
47822.9
519394
307713
385675
269916
315880
366768
450080
498152
425864
378430
306571
439793
477127
505962
524197
526427
494642
362277
513864
436456
526206
509173
384069
532032
449331
523163
509388
526865
492580
534380
389972
483002
526959
512379
522321
490427
487059
416033
361441
349269
495562
471328
266951
542497
477079
542502
459706
522707
503991
401966
497135
311260
486843
253382
465781
426793
173625
487991
409847
146288
493294
157426
418661
313482
494232
159415
307953
413680
420163
490284
315163
291419
399353
483051
471021
104763
375258
263345
551457
518823
549695
505890
293059
420684
436716
420884
39475.4
164833
451553
71772.2
338407
221030
516276
546542
541544
459259
179116
310651
379608
474300
149588
274855
413974
51381.9
314342
151293
370718
237820
96247.8
401032
32166.1
271648
132232
397642
229865
127554
364362
30197.6
90023.4
265723
3617.48
0.206464
324.467
151.147
0.192961
0.219069
0.0430823
6335.69
102276
17162.9
120001
208302
374588
304470
117382
410763
519602
220847
410434
116773
18585.9
248548
60041.4
336077
161697
386974
95091.4
10506.2
9579.52
302112
44785
134349
7231.44
36467.8
1488.42
252497
388119
493915
163625
338635
62289.3
10784.2
37244.1
1523.89
9719.58
7535.81
46213.9
137683
304871
256326
5200.21
7273.99
24604.6
32359.1
95376.1
120829
97368.8
17179
211000
2162.67
51409.8
12850.7
534.851
383877
43780.9
254789
9466.05
102726
28261.9
2144.73
4303.82
15584.7
497.984
12014.6
1965.58
47173.6
202146
408639
588857
443107
273691
361237
208701
371689
530494
425520
607767
326414
442992
295869
469061
722961
654198
772960
250576
257462
294669
259694
297864
342367
309215
328544
441832
312429
474210
490721
391950
205499
262330
310669
300476
315126
304133
345476
357616
392886
308959
341415
391406
414316
442693
359313
314510
405674
348922
395642
421803
451389
362617
335159
383782
391814
394129
402342
470983
471786
326176
333183
371539
340203
381617
385518
434856
355677
395350
344047
393988
465903
449669
407450
365735
409453
352550
398640
477870
459298
413077
297725
366929
375688
361862
353204
452941
450320
444245
470764
474821
551437
499286
494988
415273
508821
382088
429411
512240
441817
507557
608933
397640
551529
452663
531923
450585
521774
645231
301413
410617
425644
375175
363942
481043
531870