/*--------------------------------*- C++ -*----------------------------------*\
  =========                 |
  \\      /  F ield         | OpenFOAM: The Open Source CFD Toolbox
   \\    /   O peration     | Website:  https://openfoam.org
    \\  /    A nd           | Version:  9
     \\/     M anipulation  |
\*---------------------------------------------------------------------------*/
FoamFile
{
    format      ascii;
    class       volScalarField;
    location    "0.00135";
    object      rho;
}
// * * * * * * * * * * * * * * * * * * * * * * * * * * * * * * * * * * * * * //

dimensions      [1 -3 0 0 0 0 0];

internalField   nonuniform List<scalar> 
11001
(
0.350059
0.856378
0.521752
0.56294
1.01011
0.336851
0.394687
0.422627
0.811804
1.12297
0.776963
1.12348
0.726235
0.68491
1.05814
1.05763
0.414034
0.594153
0.548168
0.560021
0.798542
0.536157
0.828157
0.685756
0.718537
0.686182
0.960931
0.969822
0.947797
0.946319
0.819126
0.793586
0.773767
0.961205
0.963413
0.935559
0.933219
0.456758
0.765501
0.678813
0.604891
0.896535
0.868002
0.656932
0.34185
0.332114
0.340735
0.407361
0.368101
0.394715
0.374436
0.683397
0.646433
0.653418
0.866536
0.910128
0.911904
0.875626
0.363182
0.387967
0.358373
0.432312
0.404797
0.467227
0.385763
0.756208
0.736429
0.73234
0.908423
0.883526
0.881306
0.912724
0.692277
0.941604
1.00196
0.709562
1.00844
0.822938
0.95047
1.12237
1.06635
1.16179
1.12612
1.05876
1.0631
1.16332
0.507007
0.604676
0.490362
0.504334
0.518489
0.61745
0.432208
1.15868
1.11322
1.00801
1.0548
1.11546
1.15881
1.01014
0.528664
0.472174
0.665571
0.536814
0.637534
0.560575
0.448346
0.734628
0.956524
0.85217
1.00963
0.835098
0.957007
0.763319
1.03815
1.12349
1.0474
1.04818
1.1648
1.16084
1.04238
1.0419
1.1588
1.00387
1.11598
1.15539
1.00462
1.03662
0.667807
1.77368
1.04597
1.40288
1.07526
0.611479
1.05329
0.985755
1.3324
1.21946
2.52217
1.26596
1.23231
1.18923
1.66788
2.34705
0.623271
0.726571
0.738392
0.727173
0.85024
0.861755
0.738475
1.1968
1.26665
1.273
1.28594
1.42385
1.43523
1.29769
0.783687
0.641812
0.757167
0.880874
0.782936
0.907299
0.756813
1.06065
0.903536
0.91222
1.1121
0.984431
0.992942
1.12164
1.22783
1.26584
1.27034
1.41341
1.44072
1.4502
1.42139
0.937423
1.0673
0.922815
1.0055
1.15064
1.13471
1.0216
1.3051
1.20607
1.2843
1.45811
1.34523
1.31688
1.49847
1.30154
1.24281
1.28032
1.47222
1.48576
1.44227
1.51497
0.853575
1.10361
0.978611
0.988872
0.99653
1.11435
0.864362
1.00713
0.910069
1.15881
1.01662
1.13294
1.03293
0.882987
1.19931
1.17511
1.07097
1.08016
1.34565
1.18587
1.21113
1.09535
1.22942
1.25567
1.36896
1.20424
1.23004
1.1156
1.43884
2.06447
1.67838
1.69456
1.6858
1.45436
2.08542
1.72844
1.52402
2.2172
1.71951
1.48169
2.1321
1.78899
1.74168
2.26925
1.74703
1.76065
2.36057
2.28849
1.75294
1.79554
2.45508
1.86117
2.41162
2.34338
1.78712
1.86521
2.83036
1.22586
1.23188
2.43596
2.56337
1.22515
2.00158
1.22529
2.22469
1.2364
2.56514
1.22564
1.22968
2.5733
1.22501
1.22509
1.6208
2.14755
2.55941
2.59866
2.58919
2.29919
2.27769
1.98293
2.0118
1.22872
1.22661
2.69826
1.23284
1.22814
1.225
1.225
2.55723
2.56312
2.57741
2.16027
2.23359
1.9235
1.83044
2.57351
2.53664
2.47694
2.04756
1.88829
1.70608
1.559
1.22504
2.56666
1.52583
1.22659
1.22507
1.225
1.225
2.54174
2.08823
2.34378
1.49165
1.69436
1.40897
1.30757
2.42167
2.11748
2.47775
1.56413
1.29209
1.31796
1.48855
2.18984
2.52995
2.51133
1.61487
1.34945
1.3387
1.63918
1.64391
2.32327
1.83827
1.26793
1.39979
1.32485
1.24919
2.80668
2.03292
2.15218
2.09534
1.97998
1.31839
1.33077
1.23561
1.42867
1.41509
1.29646
1.22906
1.30204
1.22876
1.352
1.23401
1.38828
1.2855
1.22736
1.27123
1.22816
2.76739
1.70972
1.8028
1.97971
1.87173
1.29623
1.27128
1.3129
1.22781
1.2794
1.22654
1.2566
1.24382
1.22587
1.31887
1.89878
1.45017
1.2746
1.22955
1.23641
1.24689
2.30659
1.52414
1.58481
1.39924
1.36912
1.25018
1.23613
1.23913
1.22646
1.2552
1.23441
1.22517
1.22905
1.22542
1.24829
1.22526
1.23132
1.2262
1.23078
1.25022
1.2261
1.92119
1.24385
1.24675
1.29202
1.282
1.22911
1.22625
1.24435
1.22565
1.22837
1.22521
1.22971
1.23913
1.2259
1.2254
1.2271
1.23399
1.22997
1.22505
1.22612
1.22522
1.29575
1.2283
1.28798
1.23042
1.2253
1.23114
1.22527
1.34316
1.23186
1.32881
1.23195
1.22549
1.22543
1.23291
1.22751
1.25715
1.27374
1.22909
1.22512
1.22758
1.2252
1.27522
1.23009
1.30338
1.23019
1.22519
1.22532
1.22824
1.24263
1.22538
1.23299
1.22506
1.22635
1.22558
1.22503
1.2274
1.22504
1.22502
1.22519
1.22551
1.22599
1.2251
1.25199
1.22567
1.23673
1.2251
1.22666
1.2257
1.22504
1.22514
1.22595
1.22803
1.22521
1.225
1.22506
1.22501
1.22627
1.22523
1.22925
1.22525
1.225
1.22501
1.22507
1.15108
2.83765
1.55179
1.13304
1.16428
1.16199
2.33075
2.48019
2.67523
2.72532
1.10116
1.15329
1.10653
1.35139
1.35859
1.32952
1.33862
1.12242
1.15241
1.18825
1.4199
1.37867
1.36289
1.41187
1.63148
2.49723
2.62431
1.73735
1.26167
1.242
2.85907
1.25684
1.14148
1.26731
1.62371
1.4117
1.42462
1.64042
1.29262
1.34004
1.19938
1.45736
1.76856
1.52192
1.68395
2.3732
2.46957
1.84363
1.23445
1.22556
2.87737
2.51396
1.70851
2.34483
1.72265
2.35796
1.74994
1.76667
2.36994
1.83884
2.38911
1.76077
1.81125
2.49072
2.4097
1.89975
1.64232
2.06211
2.27179
2.07524
2.28006
2.64011
2.64098
1.67376
2.38128
2.20141
2.11755
2.31305
2.65725
2.6993
2.21046
2.48357
1.92146
1.93956
2.67492
2.49156
2.22479
1.988
2.35848
2.59238
2.69191
2.5253
2.07925
2.27003
2.00317
2.48507
2.32908
2.49074
2.60906
2.76195
2.82364
2.21845
2.83236
2.81566
2.66324
2.73415
2.8561
2.8242
2.55021
2.83196
2.55392
2.8287
2.75039
2.72305
2.83719
2.56354
2.73198
2.70946
2.7546
1.89776
2.7323
2.03804
2.7063
2.60214
2.7016
2.77009
2.17138
2.78313
2.12823
2.8393
2.63969
2.58099
2.82749
2.58855
2.67395
2.83144
2.7591
2.1559
2.77165
1.71494
2.68373
2.57102
1.51614
2.72353
2.86374
2.81562
2.42093
2.82481
2.77668
2.14234
0.952091
1.61824
1.16643
0.989884
2.29163
2.67158
2.69522
1.4227
2.24047
1.01967
2.23808
2.35663
2.17151
2.6542
1.99377
1.49528
1.04042
0.957102
1.04581
1.19556
1.20116
1.34467
1.33757
0.968967
1.08447
1.05945
1.24428
1.21569
1.36408
1.40303
1.05997
1.12166
1.29041
1.17499
1.36073
1.46698
1.56413
1.20278
1.11799
1.36946
1.25395
1.46549
1.70613
1.9033
1.34985
1.3576
1.17251
1.5621
1.86705
1.87777
1.55329
1.22042
1.37927
1.1889
1.58778
1.97854
1.91126
1.64025
2.24125
1.65864
1.66594
1.89509
2.4344
1.88852
2.43394
1.73151
2.25468
1.68694
1.918
2.48257
1.96807
2.44712
1.26998
1.60598
1.34466
2.08588
1.72763
1.85857
2.23581
1.80502
2.44728
1.91147
2.5396
2.05117
2.17153
2.60714
2.64318
2.55224
2.05411
2.33008
2.69393
2.51142
2.66623
1.62144
1.76795
1.4573
2.03764
2.61873
2.4236
2.25876
2.17404
2.47638
2.68567
2.60639
2.47746
2.1687
2.60224
2.19793
2.62837
2.6783
2.5438
2.49734
2.25267
2.60801
2.65885
2.61436
2.34399
2.46673
2.59989
2.69456
2.68181
2.59982
2.60044
2.46242
2.78406
2.75967
2.71555
2.675
2.61622
1.85787
2.74267
2.3254
1.27527
1.93509
1.35795
2.91051
2.77135
2.88977
2.63488
1.4509
1.77737
2.30389
2.52172
1.7816
1.50323
1.25786
1.73879
2.55744
1.47648
2.44858
1.36307
1.25067
1.53157
1.65296
2.31822
1.42572
1.30579
1.40473
2.11324
1.83673
1.22944
1.31222
1.26585
0.0601311
0.19338
0.0430777
0.115242
0.586097
0.399387
0.640838
0.615471
0.041929
0.0530908
0.0598368
0.0584735
0.0686557
0.121082
0.150894
0.0470191
0.123604
0.0784024
0.179233
0.101028
0.214457
0.308344
0.284281
0.138557
0.316475
0.449958
0.282814
0.315827
0.473481
0.161834
0.444953
0.206631
0.508627
0.308282
0.347707
0.530342
0.368866
0.282865
0.432912
0.369351
0.509764
0.435904
0.491994
0.401093
0.512052
0.290332
0.403867
0.577196
0.551995
0.474149
0.540909
0.5674
0.463288
0.485671
0.622637
0.577016
0.55269
0.504568
0.571836
0.593744
0.631507
0.585716
0.523977
0.564605
0.462609
0.502867
0.82634
0.793281
1.11988
0.944633
0.710154
0.693051
0.485334
0.570389
0.542485
0.581628
0.555952
0.636709
0.629537
0.522056
0.603941
0.592723
0.576591
0.56757
0.647009
0.659024
0.857052
0.675079
0.7296
0.797657
0.678904
0.733948
0.861967
0.766831
0.609566
0.680809
0.684897
0.617788
0.697889
0.771185
0.703473
0.808908
0.689399
0.745301
0.894485
0.762016
0.874357
0.63828
0.696503
0.62854
0.709581
0.801871
0.783775
0.724689
0.797465
1.06851
0.888008
0.802264
1.07474
0.893255
0.950037
0.814805
0.987492
1.09074
0.929784
0.907002
0.834117
0.963805
0.699913
0.641718
0.719425
0.739098
0.908591
0.90501
0.957737
0.978134
0.658398
0.634743
0.642529
0.786447
0.79183
0.742543
0.738238
0.678871
0.665478
0.652034
0.806281
0.798213
0.750423
0.764055
0.693533
0.77905
0.650964
0.696693
0.655345
0.740688
0.782296
0.67289
0.705765
0.661728
0.749186
0.811849
0.764612
0.793697
0.906011
1.01981
1.01844
0.955109
0.842604
0.844072
0.957508
0.917014
1.03672
1.02324
0.853006
0.988954
0.968753
0.869099
0.835969
1.03634
0.886667
0.838719
1.04391
0.963066
0.891875
1.06231
0.906308
1.09451
1.00365
0.929993
0.86977
0.850619
0.537881
0.604807
0.971081
0.84833
1.46336
0.841876
1.1646
0.727814
0.552471
0.617108
0.58884
0.6056
0.634615
0.674518
0.695243
0.572825
0.696092
0.667922
0.631561
0.660298
0.724081
0.764714
0.72008
0.876035
0.74194
0.920969
0.782154
0.8075
0.956117
0.652656
0.752119
0.67315
0.825287
0.743229
0.767159
0.857226
0.813181
0.914656
0.771669
0.843225
1.08239
0.895831
1.00741
0.744209
0.788408
0.702607
0.802037
0.97558
0.905153
0.85388
1.02123
0.961975
0.858777
0.891362
1.23045
1.00759
1.06895
0.939526
1.2388
1.1699
1.32657
1.07466
1.01039
1.13893
1.18849
1.81048
2.48028
1.24468
0.861022
1.31059
0.793568
2.59306
1.22113
0.972361
1.37277
0.933044
2.69273
2.93629
1.32984
1.79996
0.759835
0.858775
0.763708
0.863927
0.86603
0.997047
0.990442
0.776117
0.902212
0.90028
0.877927
0.87998
1.01354
1.04193
0.816961
0.850026
0.933932
0.980981
0.979738
1.08588
1.151
0.99448
1.19821
1.00164
1.18116
1.43823
1.45053
1.17214
1.01388
1.2524
1.02012
1.19904
1.50229
1.51255
1.19098
0.899814
1.14205
1.14952
1.05115
1.04711
1.24459
1.374
1.27239
1.06467
1.0362
1.21936
1.59855
1.25706
1.54094
1.01886
1.26255
1.04832
1.20258
1.53989
1.48132
1.24112
1.10818
1.46745
1.17221
1.69557
1.31763
1.40854
1.84414
1.09454
1.43178
1.16348
1.63936
1.30356
1.39733
1.79433
1.39334
1.60801
1.26472
1.54024
2.33772
1.72889
2.05871
1.39944
1.58132
1.2625
1.5325
2.3162
2.01924
1.72638
1.45762
1.86405
1.91882
2.48774
1.88087
1.93383
1.44671
1.48609
2.52239
2.0688
2.022
1.92871
1.54138
1.97896
2.21105
2.17058
1.63461
1.78037
2.8021
2.36819
2.39778
1.99398
2.78837
2.89458
2.78448
2.58617
2.28199
2.60002
1.54995
1.23102
1.22674
1.23717
1.2611
1.34667
1.24237
1.4833
1.7166
1.53258
2.82896
2.86247
2.78545
2.74246
1.32273
1.26608
2.88904
2.55543
2.42369
2.68823
1.80385
1.2467
1.22599
1.49713
1.88823
1.90728
2.00353
2.02295
2.50898
2.49988
1.6017
2.05922
1.95939
2.17454
2.07601
2.54684
2.62007
1.89127
2.21314
2.32111
2.41028
2.50291
2.71709
2.81564
2.13478
2.80411
2.62355
2.82566
2.68637
2.87898
2.8721
2.4625
2.82464
2.47224
2.8221
2.84015
2.82716
2.81594
2.5728
2.77283
2.57789
2.81372
2.64715
2.61073
2.82177
2.83571
2.58744
2.51116
2.83302
2.70657
2.85688
2.77644
2.67166
2.76144
2.60949
2.81611
2.41104
2.54234
2.82396
2.69262
2.88552
2.80608
2.57181
2.87597
2.85731
2.30519
2.74798
2.55077
2.80811
2.18353
2.81763
2.76038
1.8661
2.80285
2.92789
2.89625
2.74639
1.51392
2.44986
1.91038
2.74476
2.24458
2.82257
2.58522
1.32972
1.53845
2.19332
2.7586
2.11615
1.9366
1.31078
1.88093
2.78654
2.05809
2.70907
1.76045
1.61207
1.28954
1.76963
2.62186
1.93965
1.55102
1.44438
2.45089
2.15073
1.23433
1.32419
1.37792
1.761
1.24355
1.23683
1.22836
1.26295
1.42818
1.28316
1.22538
1.22502
1.22503
1.225
1.22502
1.22543
1.22502
1.22528
1.22501
1.22501
1.225
1.22502
1.22517
1.22501
1.225
1.22501
1.22509
1.22504
1.225
1.225
1.225
1.22501
1.225
1.225
1.225
1.225
1.225
1.225
1.22501
1.31082
1.22502
1.225
1.22558
1.225
1.225
1.225
1.24534
1.22999
1.23062
1.22624
1.22613
1.22532
1.22507
1.22885
1.22503
1.22503
1.22522
1.22521
1.22501
1.225
1.22524
1.225
1.22505
1.225
1.22502
1.225
1.225
1.22532
1.225
1.22507
1.225
1.22502
1.225
1.225
1.225
1.225
1.22501
1.225
1.225
1.225
1.225
1.225
1.225
1.22501
1.225
1.225
1.225
1.225
1.43713
2.51803
2.51985
1.22516
2.42289
2.06515
1.95103
3.24571
3.26297
1.55765
1.31335
1.22501
1.2252
1.24059
1.22508
2.57143
1.3616
1.26031
2.57799
1.22777
2.4515
1.26207
1.23983
2.56337
1.22738
1.22572
2.44204
2.45011
1.25872
2.58091
2.56971
1.22577
1.23386
1.22502
1.22536
2.29996
3.22548
1.13098
1.64471
2.72111
3.1583
1.54751
2.24282
1.29621
1.22907
1.22585
2.45891
1.2258
1.29151
1.22501
1.20477
1.24358
1.31492
1.28632
1.35803
1.5235
1.45447
2.45493
2.45739
2.52443
2.45669
2.46827
2.38528
2.36812
1.22567
1.22518
1.5889
1.30176
1.225
1.26394
1.22501
2.60309
1.95747
2.9454
1.84825
1.22661
3.49757
3.18821
2.4568
2.51999
2.52534
2.4644
2.47191
2.39033
2.37917
2.46136
2.5175
2.5263
2.44759
2.4252
2.35382
2.31394
2.33176
2.48493
2.56725
2.54507
2.39082
2.24954
2.13927
1.31046
1.70645
1.44358
1.77864
1.49473
1.67878
1.99942
1.22514
3.3793
1.95223
1.22623
1.225
2.69806
1.2339
1.44652
1.22524
1.225
1.225
1.225
1.2255
1.23497
1.24105
2.01204
3.30536
2.39466
1.22575
2.74185
2.69892
1.4056
1.71374
1.47503
1.7698
2.07491
2.1559
1.70152
1.27362
1.225
1.225
1.22509
1.30809
1.24005
1.225
1.53463
2.03216
1.60259
1.87148
2.38012
2.46264
1.80046
1.86406
2.56989
2.58391
2.57655
2.20883
2.18193
1.89507
2.58728
2.57278
2.57853
2.21563
1.87982
2.19755
1.90221
2.56787
2.54452
2.56985
1.82984
2.15595
2.08579
1.74994
2.55406
2.22864
2.57994
2.56019
2.04802
1.97219
1.75583
2.51138
2.56527
2.57285
1.97918
1.51281
1.83228
1.64172
2.2617
2.13556
1.7715
2.07162
3.07222
2.69092
2.50612
1.88205
1.91903
1.6227
1.94966
2.81652
2.38162
2.34086
2.58341
2.18324
2.32304
2.96366
3.16554
2.65719
3.4182
2.47064
2.21691
2.46421
1.53478
1.79836
1.52691
1.34485
3.20954
3.73133
3.57326
3.72367
3.67459
3.72088
3.56895
1.70451
1.26262
1.72535
1.54045
1.24298
1.52204
1.24435
1.26335
1.72039
1.73214
1.54563
1.24388
1.53443
1.24472
2.52613
2.04769
2.41537
1.38485
1.65585
1.47022
1.29919
2.2827
2.86444
2.72659
3.2168
2.91211
2.787
2.19795
2.09119
2.62996
2.58877
2.69715
2.65912
3.15066
3.13028
2.44739
1.52227
2.47156
2.10557
1.54606
1.3144
1.30562
1.6903
1.25337
1.6397
1.24177
1.50637
1.46081
1.23856
2.4769
2.08271
2.11365
1.53332
1.55124
1.31617
1.30937
3.12366
3.46356
3.34146
3.012
2.76735
2.7486
1.89548
2.36166
2.01644
1.90888
1.49304
1.43229
1.29549
1.27747
1.22509
3.26453
1.28802
1.22513
1.225
1.29751
1.22525
1.48064
1.24675
1.56858
1.40164
1.23139
1.34323
1.23486
2.50652
3.48934
3.32471
3.29125
3.04596
3.50838
3.46153
2.86702
3.47877
3.49184
3.33955
3.16301
3.51646
3.24361
2.51594
3.23062
3.26133
3.23481
3.07334
2.9739
2.93625
2.30639
3.19565
3.17336
2.89588
2.85927
3.23037
3.28066
1.225
2.05505
1.22636
1.225
1.225
1.22622
1.225
2.0789
1.76099
2.25308
1.30766
1.36558
1.25978
1.24512
1.80923
1.72769
2.1711
1.32977
1.23533
1.25551
1.26336
1.22809
1.22501
1.225
1.225
1.225
1.225
1.225
1.27626
1.22765
1.23248
1.3727
1.22789
1.23311
1.28061
1.37554
1.22794
1.27844
1.23284
1.3679
1.23327
1.28162
1.38581
1.22962
1.31207
1.22866
1.29457
1.26161
1.22681
1.81833
2.19137
1.75275
1.33593
1.26429
1.2577
1.2358
1.27146
1.23184
1.35062
1.32515
1.22682
1.23039
1.26158
2.95312
1.90638
2.54078
1.61763
2.20076
1.45224
1.27829
3.17119
3.15624
3.18174
3.22304
2.56818
2.35261
3.29445
1.29686
1.22737
1.22623
1.24066
1.27146
1.2288
1.25071
3.10804
3.30769
3.69162
3.45048
1.34138
2.20752
2.42271
3.64696
3.67684
3.71103
3.59279
1.75182
3.05503
2.90241
3.12158
3.23953
3.14398
3.245
2.74241
2.53535
3.30918
1.58673
1.41867
1.84307
1.2679
1.24452
1.23475
1.22902
3.23115
3.31872
3.3241
3.39899
1.55616
2.52323
2.89329
3.48405
3.34919
3.35731
3.09284
3.16702
3.00832
1.95224
1.225
1.22598
1.225
1.225
1.225
1.22504
1.225
1.24194
1.22708
1.26648
1.24142
1.22526
1.22574
1.23093
1.58758
1.55634
1.28834
1.24328
1.22816
1.24541
1.22856
1.56926
1.29773
1.59395
1.24581
1.22832
1.22863
1.24416
3.085
1.39041
2.21764
1.28107
1.70154
1.32524
1.235
2.95754
3.2473
3.23885
3.07441
1.41809
1.9011
2.62371
3.10708
3.28625
3.22771
3.1179
1.50643
2.08442
2.72051
2.22689
1.24572
1.57265
1.23787
1.4575
1.27496
1.22764
1.28788
1.28671
1.46673
1.22788
1.23686
1.22793
1.22568
1.44247
1.27926
1.51732
1.22768
1.24075
1.23632
1.22687
1.2763
1.38744
1.2585
1.22653
1.23287
1.2274
1.22543
1.23435
1.25573
1.37445
1.22727
1.23223
1.2264
1.2254
1.48533
3.22867
2.29041
1.09679
1.74254
2.40467
1.62252
3.14742
2.20273
3.27146
1.1678
1.23089
1.21376
1.28375
1.30135
1.46178
1.39223
1.83599
3.09503
3.66276
2.89192
2.97976
3.30544
1.22903
1.2675
1.68139
1.65088
1.40649
1.42806
1.60676
1.89348
3.26002
1.32548
1.22737
2.51285
1.22505
1.22574
1.22504
1.4282
1.81394
1.49785
1.73766
2.12595
2.20887
1.66762
1.37754
1.69252
1.447
1.70002
2.00027
2.07959
1.62974
2.33879
2.12459
2.0704
2.74768
2.84348
2.4469
3.27012
1.9518
2.00068
1.64862
1.90934
2.86207
2.437
2.27839
1.8703
1.85696
1.58962
1.86539
2.72422
2.29144
2.21395
2.8793
3.70373
3.68388
3.41573
3.48578
3.69872
3.71063
2.11612
2.67045
2.60222
3.16419
2.67169
2.73523
2.03566
3.11806
3.49353
3.51494
3.16741
3.11954
3.24095
2.43739
2.55634
3.52287
3.3568
3.30587
2.98056
3.49958
3.45501
2.40413
3.4788
3.22929
3.25749
2.90447
3.48247
3.48853
2.33371
3.20969
3.2345
3.17883
2.87025
2.92659
2.76654
2.92623
2.16015
2.83777
2.74756
3.02725
1.77353
1.36838
2.83838
3.71801
3.57839
3.64375
1.71138
2.99953
3.15609
3.72327
3.66454
3.68719
3.6641
2.0169
3.2673
3.29698
3.34271
3.35618
3.27358
3.48258
1.91471
3.15676
3.05471
2.218
3.05909
1.68115
1.27864
1.93503
1.39065
1.23501
1.43981
2.10498
3.2997
1.31788
2.09848
1.43994
1.24114
1.22627
1.23312
1.25174
1.23787
1.22516
1.22558
1.22864
1.24147
1.22576
1.22518
1.22584
1.24311
1.22951
1.2252
1.22585
1.24222
1.24344
1.22959
1.22519
1.22926
1.2252
1.23954
1.22549
1.23588
1.22516
1.22855
1.22761
1.22511
1.23769
1.24927
1.36488
1.23204
1.22557
1.22877
1.22612
1.38125
1.39167
1.29962
1.2451
1.2347
1.23407
1.22608
1.22549
1.23074
1.25149
1.32354
1.62894
1.26698
1.23401
1.22867
1.23629
1.27784
1.38763
1.82884
1.27807
1.23634
1.22532
1.22911
1.23215
1.22668
1.22504
1.22592
1.22507
2.71886
1.25047
1.24071
1.25895
1.43912
1.66299
1.51198
1.23049
1.24919
1.32591
1.2381
1.22514
1.22565
1.2279
1.26643
1.32173
1.62258
1.25093
1.22548
1.22734
1.23063
2.50461
1.46503
1.50706
1.23531
1.38471
1.41381
2.71354
1.95054
2.01313
3.22568
1.2816
1.88438
1.29231
1.22924
1.29573
1.27754
1.28819
1.99685
1.83875
3.20373
1.92507
2.88112
1.25836
1.78218
1.2533
1.72385
1.27778
1.22745
1.23018
1.22544
1.22507
1.22506
1.22523
1.2264
1.22679
1.23048
1.22508
1.22684
1.22506
1.22651
1.22546
1.22502
1.2271
1.2619
1.23061
1.22524
1.22673
1.22566
1.22509
2.00419
3.03766
1.79573
1.26699
1.81462
1.29033
1.22867
2.04899
1.2287
1.23868
1.24145
1.28669
1.29823
1.4869
1.22814
1.22744
1.23909
1.22561
1.22502
1.2251
1.22513
1.22706
1.22504
1.22588
1.22502
1.22543
1.22517
1.22501
1.23865
1.22734
1.22559
1.22549
1.22513
1.2251
1.22502
1.22647
1.22797
1.25504
1.23066
1.22502
1.22528
1.22551
1.23929
1.23109
1.30712
1.2298
1.22579
1.22533
1.22505
1.22598
1.22532
1.23102
1.22579
1.22963
1.30525
1.23929
1.22564
1.22639
1.23
1.22521
1.22501
1.22503
1.22506
1.22514
1.22501
1.22504
1.22595
1.22501
1.22515
1.22504
1.22597
1.22501
1.22504
1.22514
1.22516
1.22589
1.22504
1.22515
1.24139
1.2269
1.22507
1.22588
1.2251
1.22501
1.24163
1.22513
1.22682
1.22507
1.2259
1.2251
1.22501
1.2291
1.22502
1.22549
1.22502
1.22546
1.22505
1.225
1.22503
1.22512
1.22572
1.22551
1.225
1.22508
1.22502
1.22512
1.22502
1.22551
1.22512
1.225
1.22503
1.225
1.22531
1.22501
1.22502
1.225
1.22516
1.22505
1.22501
1.22501
1.22506
1.22534
1.2251
1.225
1.22502
1.225
1.22509
1.22501
1.22531
1.22506
1.225
1.225
1.22502
1.22971
1.22926
1.29941
1.2294
1.22501
1.22523
1.22525
1.22521
1.22566
1.22827
1.22504
1.22517
1.22501
1.225
1.225
1.22501
1.22521
1.22518
1.22504
1.22829
1.22566
1.22556
1.22501
1.22508
1.225
1.22502
1.225
1.225
1.22636
1.22501
1.22501
1.22502
1.22506
1.22512
1.22529
1.22677
1.22713
1.26379
1.22837
1.22501
1.22514
1.22517
1.22722
1.22795
1.27202
1.22853
1.22501
1.22515
1.2252
2.20363
2.40377
1.49731
1.22545
1.22829
1.225
1.22503
1.225
2.33118
1.41156
1.47569
1.86792
1.9874
1.29031
1.27209
2.00999
1.29348
1.34656
1.53547
1.24151
1.71074
1.2551
1.275
1.23952
1.22746
1.41895
1.2596
1.23504
1.22665
1.23517
1.22806
1.2875
1.34446
1.24554
1.23098
1.22594
1.23846
1.22562
1.22515
1.23473
1.22544
1.22733
1.2251
1.22575
1.22515
1.22839
1.23115
1.22527
1.22643
1.22506
1.24089
2.64626
2.66942
1.96278
1.9422
2.39417
2.0001
2.40023
1.67611
1.27708
1.73311
1.4448
1.49456
2.00876
2.07615
1.4152
1.33256
1.82634
1.57483
1.69612
2.18309
2.33234
1.75719
2.69491
2.20924
1.82704
2.29161
2.45787
2.73261
2.64297
2.66296
2.62867
2.5524
2.28169
2.3347
2.59255
2.1112
2.41638
2.5673
2.55198
2.83095
2.664
2.78644
2.52722
2.61143
2.66203
2.53285
2.42139
2.65379
2.71953
2.51933
2.5293
2.48721
2.54584
1.32388
1.23797
1.34148
1.25616
2.45703
2.52834
2.46975
2.4361
2.40751
2.33598
2.28758
2.49349
2.56451
2.52531
2.29081
2.36319
2.20823
2.08035
2.55399
1.71645
1.80485
2.56502
2.56493
2.13059
2.04909
1.16636
2.18043
2.14161
2.49961
1.03003
1.10799
1.02136
2.06304
0.9349
1.09371
0.884475
0.905121
0.95761
1.11579
1.19276
0.959585
1.18849
1.28635
0.930227
0.986482
1.1469
1.23175
1.13188
1.00458
1.10243
1.43749
1.27427
1.48101
1.30731
1.23212
1.06401
1.17373
1.55089
1.65541
1.43578
1.3595
1.50068
1.46946
2.03667
1.60029
2.16611
2.1965
1.63826
1.62343
2.10981
1.55044
2.25115
2.33233
1.79038
1.70002
2.01118
1.78172
2.32655
2.05979
2.52909
2.35997
1.82661
2.57622
2.26037
2.63064
2.41916
2.50103
2.00255
1.89891
2.40125
2.54797
2.5639
1.46964
1.77354
1.6015
1.92995
2.48911
2.72578
2.72564
1.90306
1.76482
2.74017
2.68946
1.42545
2.74948
2.4588
2.24165
1.59499
2.75495
2.61592
1.66603
1.25039
1.60775
1.24047
1.48823
1.43739
1.23709
1.44075
1.23032
1.23727
1.24376
1.53135
1.3787
1.2335
1.26833
1.22721
1.23133
1.25809
1.22663
1.31501
1.22984
1.26426
1.24739
1.22697
1.22559
1.22605
1.28763
1.2283
0.864121
0.912312
1.66364
1.35972
0.937097
0.908415
1.36612
1.65819
0.977139
0.929474
1.04235
0.92235
0.856103
1.03971
0.971099
0.926918
0.864707
0.856292
1.04549
1.04054
0.970883
0.977369
1.06576
0.858021
0.983012
0.903469
0.850562
0.974761
1.05622
0.902001
0.85445
0.849021
0.973709
1.06277
0.980459
1.05524
0.471369
1.03058
0.744829
0.775516
1.15502
0.454928
0.920748
0.763584
1.12026
1.08108
1.33612
1.43743
1.02262
1.02689
1.3047
1.43028
1.08642
1.06675
1.08173
1.1802
1.15093
1.13756
1.18892
0.981163
0.95712
0.721355
0.838277
1.03414
1.01679
0.856352
0.940818
0.717185
0.713684
0.827222
0.978351
0.819485
1.00014
1.05033
1.04525
1.07021
1.17112
1.10184
1.12292
1.15595
0.541846
0.458807
0.524703
0.638266
0.555157
0.540674
0.654422
0.453347
0.52782
0.520619
0.632901
0.539518
0.636299
0.535522
1.0324
1.05649
1.07479
1.17857
1.13223
1.16704
1.13591
1.0799
1.03079
1.08007
1.18383
1.13829
1.13831
1.18692
0.7588
0.659162
0.898255
0.762502
0.885059
0.645073
0.773598
0.92946
1.08777
1.02696
1.1411
1.01458
1.07325
0.943963
0.753256
0.758968
0.644663
0.881635
0.755311
0.880245
0.640449
0.918951
1.13034
1.04336
0.997849
0.909091
1.00575
1.05958
1.28859
1.22651
1.46413
1.32077
1.21318
1.44906
1.29965
1.28071
1.31063
1.18825
1.44217
1.20115
1.27478
1.44179
1.29067
1.25349
1.47212
1.42799
1.45987
1.24905
1.2976
1.28531
1.42552
1.24694
1.45821
1.28166
1.45517
1.2465
1.16646
1.36768
1.17115
1.12239
1.34924
1.11497
1.33935
1.17144
1.35913
1.16627
1.11451
1.34684
1.12154
1.33864
1.29015
1.15995
1.44008
1.14999
1.64732
1.42701
1.27877
1.1491
1.64592
1.28688
1.43637
1.15728
1.42603
1.27783
1.22511
1.22567
1.22503
1.22545
1.225
1.22502
1.22507
1.22502
1.22501
1.22513
1.22526
1.225
1.22501
1.22504
0.648579
0.808708
0.865717
1.16584
1.23379
1.79877
1.40231
1.77686
1.25831
1.23034
2.51824
1.0183
0.608697
1.0467
0.983914
1.02513
1.32711
1.3564
1.18299
1.24535
1.2242
1.6603
1.7079
2.34964
2.52151
0.96259
0.676382
1.01612
1.05431
1.17204
1.38566
1.58522
1.17108
1.45225
1.30317
1.76095
2.09603
2.68466
3.41817
0.724206
0.615033
0.729558
0.851882
0.724386
0.847511
0.730051
0.757912
0.628213
0.740617
0.86278
0.763669
0.880072
0.742913
1.2016
1.41876
1.98876
2.62474
3.15969
2.75743
2.4336
1.03913
0.898934
0.896082
0.977754
1.10624
0.97986
1.1032
1.17682
1.2624
1.259
1.42236
1.2798
1.27859
1.41972
1.2618
1.22231
1.25825
1.44237
1.41213
1.43811
1.41739
1.16891
1.26754
1.25845
1.43302
1.29014
1.28071
1.45808
1.02736
0.891749
0.892284
0.977422
1.10097
0.980591
1.10062
0.782784
0.711913
0.817418
0.79263
0.90378
0.934345
0.8293
1.00196
1.2289
1.65538
1.0495
1.70044
2.34506
1.41883
1.27353
1.22723
1.25984
1.45734
1.47206
1.4909
1.43446
0.897633
0.911609
1.02184
1.10742
0.989413
1.00531
1.12432
0.75661
0.903314
0.858458
0.970761
0.923817
1.01142
0.87389
0.979076
0.851106
0.989684
1.10058
1.10394
0.975816
0.856817
1.29025
1.19071
1.33456
1.31119
1.50318
1.577
1.34979
1.28013
1.35937
1.34223
1.53717
1.54981
1.64532
1.64169
1.66902
2.28223
3.07268
1.78142
3.5717
2.75914
3.0174
0.988973
0.89098
1.00339
1.1299
1.11384
1.00541
0.869817
1.06669
1.19396
1.17095
1.32899
1.17237
1.06685
1.19429
0.93314
1.04076
1.07924
1.02943
1.21247
1.06396
1.15804
0.920304
1.1514
1.02816
1.05622
1.08877
1.17746
0.956521
0.950586
0.924877
1.00084
0.976424
1.05576
1.10579
1.03031
1.41021
1.52256
1.30395
1.68516
1.50452
1.41347
1.82934
2.31788
3.20416
1.69672
3.03235
1.94804
1.23388
2.91289
1.07053
1.20917
1.19307
1.33835
1.17977
1.07896
1.19903
1.67991
1.43196
1.66283
2.05824
1.43349
2.06634
1.67357
1.22959
1.29772
1.27896
1.49055
1.60451
1.49665
1.63445
1.69982
1.46393
1.67711
2.15534
1.44292
2.09529
1.74062
1.75503
1.74228
2.26739
2.36626
2.28223
1.74535
1.75322
1.08855
1.0433
1.12756
1.24808
1.20849
1.12527
0.998519
1.4416
1.58939
1.5914
1.78851
2.03584
1.9899
1.80034
1.55556
1.56691
1.39536
2.0456
1.78204
1.84167
2.13004
1.78293
1.85146
2.42381
2.41717
2.32865
1.84049
1.78465
1.22745
1.21245
1.0929
1.11385
1.43076
1.23996
1.25888
1.13907
1.21697
1.05368
1.28663
1.11179
1.1752
1.378
1.50173
2.25627
1.80863
1.91304
1.8412
1.56106
2.40927
1.97011
2.58034
1.93824
2.09042
2.90878
2.80315
2.15821
0.984836
1.12281
1.05678
1.16676
1.17154
1.24666
1.09149
1.14424
1.37734
1.33725
1.49627
1.27979
1.18711
1.30815
1.26005
1.54245
1.35367
1.90648
1.63041
1.79798
2.10074
1.09083
1.30529
1.16897
1.22586
1.3166
1.3923
1.14909
1.39802
1.51028
1.84194
1.61662
2.01239
1.74654
2.23422
1.78323
2.09164
2.03223
2.37537
2.26302
2.61969
2.81598
2.06112
1.75665
1.9517
2.86409
1.64551
2.61532
2.25618
1.97094
2.81288
2.16977
2.60966
2.04237
2.23572
2.74964
1.30993
1.20521
1.12069
1.25658
1.61624
1.36024
1.48648
1.82224
2.1004
2.40336
2.18192
2.46899
2.81572
2.79709
2.31335
2.77381
3.3543
3.17269
3.07426
2.61823
2.4277
1.70401
1.72758
1.49411
2.03444
2.58689
2.31536
2.33666
1.46659
1.41869
1.24606
1.32539
1.84909
1.53174
1.57671
2.93544
1.38078
2.06228
1.225
1.48512
1.2513
2.61034
1.30633
1.45403
1.35323
1.72686
1.52547
1.42491
1.23038
1.77709
1.25809
2.70555
1.22515
2.01383
1.23434
1.225
2.74225
3.01148
2.43284
2.47449
2.91636
2.86496
2.72434
1.63598
2.2834
2.04303
2.08331
1.8986
2.50004
2.82176
2.48851
2.6833
2.2147
2.39654
2.76003
2.76365
2.63633
1.89302
3.12352
2.50133
2.51843
2.05718
2.79444
3.34001
1.43082
1.91986
2.05271
1.88651
1.68954
1.57289
1.71235
2.4999
2.74951
2.3489
3.04163
3.62051
3.43972
3.28342
2.00113
2.63919
2.37232
2.78552
2.60816
2.83323
2.87565
3.15858
3.58142
2.98589
3.35479
3.59045
3.70105
3.49001
2.54389
2.95691
2.60532
3.38709
3.1884
3.01239
3.06103
2.60108
2.82718
2.74887
2.68144
2.80282
2.7758
2.76272
3.05038
2.84268
2.91536
3.04662
3.25944
2.99687
2.46498
2.825
2.8491
2.79563
2.93271
2.85228
2.83594
2.56847
2.80362
2.53097
2.26209
3.10455
3.53012
3.47895
3.35417
2.85454
2.93213
2.71878
2.92455
2.38133
2.80986
2.81188
2.87085
2.87
2.91414
2.91754
2.79265
2.64878
2.18554
3.61806
3.56114
3.38409
3.64198
3.70562
3.72645
3.66228
2.78881
2.48962
2.86539
2.82388
1.47115
1.939
2.52179
2.47243
3.0464
3.30799
2.89145
1.35453
1.80002
2.33912
1.23219
1.22222
2.67593
2.36385
2.54004
1.21804
2.62822
2.1611
2.0169
1.65456
2.62968
2.67738
2.52244
2.05917
2.19548
1.93572
1.64852
1.42018
1.21443
1.41074
1.63869
1.96511
1.97573
1.21313
1.41553
1.40949
1.64304
1.63724
1.96383
1.97037
1.26224
1.43497
1.66451
1.47749
1.71288
1.99709
2.05597
1.3828
1.31061
1.5478
1.91818
1.79514
2.15261
2.2894
2.6263
2.53613
2.25959
2.63194
2.25584
2.53647
2.68692
1.72312
2.68026
2.1675
2.15423
1.71107
2.35673
2.68284
2.63359
2.25646
2.25532
2.53682
2.68023
2.53503
2.68974
2.15275
1.71755
1.70969
2.35601
2.67985
2.68353
2.35992
2.27401
2.64341
2.31996
2.66918
2.5479
2.58396
2.65671
1.74525
2.26896
1.80555
2.69117
2.38485
2.4415
2.72458
2.50541
2.66413
2.3993
2.64134
2.56579
2.70784
2.63113
2.52784
2.38368
1.90726
2.52959
2.82648
2.63723
2.77711
1.28599
2.45573
1.39123
2.3677
1.78598
1.80472
1.81423
2.43573
1.01422
0.967676
1.20856
1.03786
1.09814
1.32489
1.43236
1.31488
1.58182
1.18139
1.40545
1.08209
1.18648
1.59067
1.28023
1.13766
1.21817
1.74973
1.49932
1.64454
1.93728
1.67173
2.36058
2.2375
2.40507
1.86135
2.01255
2.52553
1.55486
2.44341
2.10997
1.50782
1.33585
1.84828
2.17282
0.874318
2.48905
1.08654
1.152
1.58146
1.08227
2.48841
0.864802
2.01711
0.909895
1.09382
1.20486
2.49637
2.22413
1.57833
2.02098
0.889883
0.925325
1.08272
0.942417
1.0986
1.15584
1.17542
0.920914
1.08044
0.870538
0.862729
0.913316
1.0735
1.14512
0.860534
0.915464
0.911187
1.07459
1.07143
1.14319
1.14646
0.934648
0.996294
0.965936
1.1576
1.12304
1.20714
1.25388
1.41595
1.25772
0.990155
1.07923
0.982778
1.25051
1.40743
1.0777
0.985331
0.980914
1.24877
1.41066
1.25246
1.40588
0.995597
1.11723
1.01507
1.42646
1.26375
1.28937
1.4621
1.45294
2.15513
2.02646
2.02475
1.44547
1.5741
2.15434
2.02131
1.44343
1.44218
1.5712
2.14869
1.57292
2.15214
1.15345
1.08263
1.04374
1.33341
1.61515
1.40014
1.52285
1.45243
2.04033
1.47504
2.15442
1.58457
1.61401
2.17897
2.14479
2.08066
1.51551
1.66637
2.3034
1.74677
2.22795
1.98966
1.76047
2.31473
1.75349
2.4909
2.31514
1.9841
1.75119
2.49144
1.98472
2.31139
1.75324
2.31436
1.98268
2.0008
2.31928
1.76789
1.8048
2.52335
2.34831
2.04238
1.96372
2.48026
2.62299
1.86908
2.56833
2.40262
2.11564
2.19703
1.97899
2.50394
2.62952
2.69342
2.20621
2.63225
2.09337