/*--------------------------------*- C++ -*----------------------------------*\
  =========                 |
  \\      /  F ield         | OpenFOAM: The Open Source CFD Toolbox
   \\    /   O peration     | Website:  https://openfoam.org
    \\  /    A nd           | Version:  9
     \\/     M anipulation  |
\*---------------------------------------------------------------------------*/
FoamFile
{
    format      ascii;
    class       volScalarField;
    location    "0.0035";
    object      p;
}
// * * * * * * * * * * * * * * * * * * * * * * * * * * * * * * * * * * * * * //

dimensions      [1 -1 -2 0 0 0 0];

internalField   nonuniform List<scalar> 
30774
(
106525
96851.7
99647.6
111684
101241
118650
96439.5
114510
102320
101915
99683.7
104230
106299
108338
105862
100077
104568
103122
112865
110542
107460
109412
97837
98273.2
98398.2
102032
102847
103897
102586
96216.7
98493.2
97794.7
104979
104356
106535
103273
115007
108621
111751
106546
109232
109311
112294
114983
118485
122767
112130
119524
115298
115645
107544
104416
105194
107463
108920
110294
106208
109785
111503
116793
110274
112523
113327
108064
166190
154323
130841
137458
111934
160484
168108
120509
154994
156290
108127
106777
112087
161013
157046
127426
126979
126804
112791
122316
108775
109722
122502
114143
128774
116009
124757
113048
111188
123361
133782
118507
121705
126815
115487
118513
129668
99422.2
108830
104874
102501
100557
124213
101717
104206
116437
126510
110414
101643
100865
100773
105274
101569
101516
104435
99990.8
101739
102644
101152
113325
143879
136571
119675
129731
110687
103693
99748.4
105073
112254
101621
101615
102915
100909
103403
101357
98304.2
104607
101119
99476.5
102467
106494
103199
105746
103911
106534
101501
104255
99657.2
99961.7
103038
100233
99309.2
98802
101218
105042
102377
102835
102154
100373
100570
102874
107838
106252
107012
119406
117510
119780
117960
141920
125412
129734
126059
121981
133150
137348
109830
109280
111084
120114
122050
120701
118873
113388
121915
124024
114386
116173
126692
124315
117180
123059
119353
129913
130761
133788
127200
163399
145108
146543
141866
161895
140730
160226
143586
158947
144171
158306
140360
140216
159077
169470
148600
151463
143733
164197
146479
167229
134355
155192
134500
157120
136989
136830
157276
135707
155358
134778
138356
159116
137319
157915
175563
159601
177673
173277
155128
150002
170993
139590
157971
137272
140095
161044
142669
163793
146370
150021
171858
163812
142571
145942
167362
195392
105972
101302
199491
261832
186561
262831
273822
189706
274754
106255
99055.4
112761
109436
99934.9
136882
125966
111947
116439
126249
144170
140021
127585
140786
119526
102550
105806
108197
95178.9
107680
103706
97605.1
123380
133465
126760
138389
141365
124026
127476
94300.9
93385.8
109981
104411
93617.8
94500.5
108402
117788
123270
111120
115438
127848
110310
108510
111740
111850
106969
102888
106330
106770
100972
120094
126939
140139
119107
134698
113679
106918
94927.5
101258
102396
101248
102074
102983
97117.6
42781.9
48101.6
44578.1
47908.5
51141.2
55760.2
45836.4
49773.9
49118.8
44327.5
45257.2
46420.4
46863.5
47668.7
47970.4
50023.3
43858.3
49960.8
50984.8
48317.7
49038.3
51248.5
50559.6
50212
49815.3
52254.5
48297.3
51393
50284.8
47860
49628.8
50613.5
51020.7
48807.3
48906.9
51417.3
48872.1
46620.8
48742.6
49198.4
49494.8
47589.3
48263
48701
45137.5
46034.2
46563.3
48047.3
46923.6
47143.9
49529.3
49324.9
49260.2
50951.7
50127
48341.6
50454.5
50392
50444.6
50100.3
51634.5
51066.3
50784.4
49632.6
46097.6
49373
45622.3
48212.6
46924.4
48420.7
49313.3
50837.5
54563
53547.6
52946.7
50611.9
52687.5
52586.4
46735.8
48480.7
46445.5
46696.1
47462.1
47706.3
47489.1
49813
50535.3
52437.8
48356
49366.4
48941.6
51660.5
49094
54209.6
69129.5
62679.6
59005.8
77110.9
52209.9
67139.3
54350.9
50777.4
52451
51783.1
54306.9
52446.1
53760.6
60654.1
55798.7
52000.8
54924.1
56998.7
53056.8
58916.5
57988.3
56303.5
65727.3
61635.7
60320
56641.9
63124
55438.2
56385.6
52704.7
53728.8
53590.3
55373.4
57179.4
50407.1
49604.7
49790.5
49711.7
50367.4
49913.2
50202.9
51065.3
50114.5
52034.8
51281.2
51292.3
50541.3
51880.4
51597.9
50800.8
53690.1
51859.3
52033.4
52592.7
50969.7
51987.1
51061.2
52340.5
53001.2
51498.3
53289.6
51815.8
76122.6
60680.3
70065.1
72695.8
63814.1
66464.6
65864.9
58226.7
57578
63547.9
55787
54944.5
59440
61635.5
65305
59695.7
60268.8
63971.5
58906.7
61455
65363
70554.9
62525.7
73816.3
69980.9
63871.6
68296.9
67312.1
133438
112845
112375
138605
91016.6
89529.4
114845
97204.4
94442
89551.1
90468.7
108627
110755
101293
102475
104704
103144
95190.4
124369
115835
105804
112359
89691.8
94017.9
87544.3
87742.6
96168.7
96567.3
94081.3
124379
139550
123746
129230
114477
115121
128598
89307.2
94734.3
90001
98391.8
96269.9
94568.3
102363
142294
138755
127139
116959
131099
128481
121818
101941
119767
106894
107253
112042
119396
101876
108409
121197
111606
103760
119226
102211
111628
82749.1
66992.9
96608.2
82605.5
88059.7
87441.6
81843.2
88984
71219
69749.5
69907.9
67087.5
72871.3
68301.2
70268.9
89102.4
75127.6
75479.4
77954
80187.5
71434.2
82523.9
74159
79955
72191.3
76623.5
70110.5
71357.3
75798
74148.5
74543.7
85476.1
79945.5
77399.5
73122.1
80805
105356
79631.9
94611.6
94925.9
86333.7
86299.5
87867.8
84567.6
83278.5
78066.9
78398.5
78693
74196.3
81606.1
88600
87584.4
86178.7
79580.7
81984.9
79254.1
82065.1
87722.8
88041.4
88061
80346.7
88886.1
83797.7
84331.7
182719
189609
185851
203521
211924
207948
216868
190782
199124
194027
218203
212798
222526
228825
186156
188269
184919
223152
218491
223823
228468
194108
198189
192629
230052
241989
237063
234790
111446
236835
226351
105096
226440
102989
254765
237810
266841
248410
262843
242152
252564
267377
250175
263170
246438
256321
266981
259490
267410
270954
262385
256945
260521
274504
265374
271518
263858
271422
271508
274827
266819
268434
271720
160874
236868
101301
163532
242072
101302
183746
209132
101301
170372
243747
101302
218313
101996
101298
254395
167845
255617
267675
177802
262597
176481
256592
260482
176031
269284
178627
272928
182480
254607
255842
167392
260921
174946
256102
181455
197225
183301
172307
246793
253362
255901
254493
155837
157846
108811
117105
128389
129937
153300
149221
112261
127635
113373
122791
108962
110292
123790
129150
118891
115569
116838
112894
125499
128091
154266
109688
99774.7
141651
118810
151701
101687
136728
155271
151621
153554
141340
130874
138619
144872
132191
144599
149952
118092
107230
128058
115471
148571
151926
153738
148314
147658
144264
147280
126576
151322
148110
153138
152673
144261
137555
103336
104908
103585
103316
101503
100242
105725
107767
119026
112485
112677
106988
114107
123824
105827
110688
120408
103600
100838
103737
111726
111784
129382
135647
114932
108360
121222
129802
107006
107439
109094
119728
117875
120757
119211
112204
116366
111963
122897
125669
121767
126272
155202
142514
143138
157713
140866
141428
157091
151296
140249
141566
141991
155077
142448
156243
135101
156734
136164
157293
137646
138603
157615
137938
159178
140595
139971
158150
141797
157941
127851
144908
170948
161269
150656
153460
122536
125969
163911
155574
153233
145156
143640
158678
154928
151521
162432
165400
139929
140757
157213
152374
135353
124607
133728
151096
143156
150344
141650
130740
122587
130984
147326
133946
136770
142630
143535
158979
142189
160921
129849
146544
147961
173130
159307
168938
166683
166790
159265
166694
153323
155404
160816
137106
151487
152585
157266
164328
160434
162853
150997
160437
156244
159521
175966
173105
177882
189776
192660
200913
198255
231974
208053
200947
231339
204926
241767
246954
165533
174234
172598
187311
185398
194008
195946
161966
170993
169490
183701
184183
192526
191596
179216
182704
180084
199504
195914
204057
207704
168161
167152
160429
184040
185373
191335
191942
177141
179500
179694
201947
209847
209070
203406
179503
179878
179738
207526
211111
205248
212932
175724
179964
180246
200867
208440
208641
200026
183382
180840
181288
210390
218841
214012
215479
166813
162171
160847
191345
187792
193663
196816
180573
180959
174249
208645
199670
200052
209393
182232
174243
173923
201456
213228
210807
204139
169135
168158
164566
196285
201480
202492
207568
186475
178433
175619
216972
208308
214052
222088
177004
179043
172980
218271
209853
215036
223363
189285
190826
182927
221182
235194
228310
228973
244392
114443
117755
107283
261101
106086
255059
184670
113468
240143
107228
262394
105826
230698
222019
254493
221082
229591
256811
229659
257493
254892
222194
221169
230384
259750
258468
231935
224048
257722
226651
237099
261214
234240
262706
259070
233670
229906
240463
265760
244244
264276
227538
106720
112494
105392
252380
241605
103260
223964
255022
226850
256435
230715
232632
256280
195313
191185
186407
227001
231754
235346
239315
239973
264217
250182
265996
248648
262589
241736
238863
259842
264301
246698
247510
238325
261113
246802
265892
252098
270635
244060
254277
267420
249968
270033
271853
259460
253373
256738
268830
258789
246247
238484
239391
259263
246193
257857
216699
205989
197700
241705
236641
243310
247290
255502
234527
230450
235310
255984
256167
238374
224621
212241
206006
248095
242501
245541
250352
240784
256066
257649
247197
246515
256958
242634
101674
102424
232880
211642
105243
236446
102694
238580
255621
241600
255576
242415
244733
255017
102284
112163
109441
110368
122168
116641
127656
125389
117580
115120
111897
116960
110876
121048
113197
117575
110545
109959
120704
111027
120482
111596
101706
103667
107493
105726
104882
106179
102830
107490
106982
104023
103318
106393
108115
104769
118383
134233
125199
131657
126581
116475
123828
125374
122402
128747
114845
126034
115192
123069
107128
108148
103779
113548
107106
108082
113984
109895
105843
108400
112320
117250
109952
115259
251148
125339
101302
135286
101302
254754
109766
101302
248673
250830
128042
101302
167041
259029
101301
213059
101429
101299
250190
141467
145850
149049
252802
157034
252516
253998
155179
149674
155097
253424
255560
158712
149874
248733
147366
161996
252981
255858
172105
255280
251986
159770
183745
257059
175852
259413
171669
254706
160868
254175
173652
255896
163747
126792
118183
117612
128406
145942
141419
102749
112781
123335
113131
157687
151530
133561
134729
124777
126521
117213
122460
139897
139565
99315.7
98691.1
115349
119654
164476
136887
137491
140280
143470
164185
147767
147762
113385
107065
116915
104305
105973
116235
113026
124097
119035
122909
127878
131840
130462
131041
109402
97690.1
105888
103697
104125
110324
108695
132324
132781
117723
124834
125348
135333
132959
129840
121330
120076
119675
121343
125220
122411
116609
111703
120102
112314
108632
119791
123647
135068
132113
130552
139195
132218
127034
135240
129421
126121
121527
116919
121915
131424
127595
124753
122207
122637
117699
115488
119389
116391
118683
134897
120427
127440
126056
140168
137680
139621
143243
137353
142531
144329
140740
147509
97734.6
103653
103985
106921
105269
108319
108904
139751
122880
126097
129566
142917
132523
146183
120602
123017
122909
112002
113385
114225
113362
149258
153095
154600
149315
144634
152060
157005
148060
129947
134454
140900
136290
150085
154704
112539
126168
125044
119083
128624
117682
128393
114642
124565
124682
121317
130385
124380
128945
148661
139136
141294
131316
139453
134530
136830
143481
134253
136779
128351
133857
125752
134938
143309
154544
145349
141181
142637
137849
146153
129291
133100
129991
143492
140937
136506
139539
120695
127465
125619
132230
132789
128138
135923
113757
129955
127833
129602
117195
117611
131227
160988
147503
149896
153825
148133
144586
149904
139000
131742
129519
133559
123701
122470
134027
117357
134942
132358
118725
135669
133283
120409
138836
127906
127124
122119
136976
135207
122652
138742
133986
136589
147581
145409
149941
151696
168185
152654
155932
157831
151839
155775
161884
147456
143956
143390
154495
159448
159003
155688
164397
172107
176267
169846
165902
159774
159965
205520
185186
190995
253142
253748
235769
248998
158921
154466
108891
119622
102285
111436
121484
121562
138221
155157
135442
142820
140903
129058
122135
129104
115279
125196
122000
124219
115021
112076
136785
121960
104197
115291
128588
110429
105889
134151
155156
136935
123380
148374
143830
119840
108639
121036
115506
113440
120898
117993
117906
117698
124314
122888
116761
121428
115572
119913
111004
116804
114763
118218
117315
111968
116280
104324
108720
107336
108953
113993
107520
115103
144294
144469
141917
168167
165885
167768
166523
144756
144376
142884
169175
169363
170758
167698
152891
146273
144170
170999
169572
173322
167764
142653
141698
145493
165888
168122
169253
166546
147513
148539
146274
171502
172897
175555
174088
154028
152260
151146
178745
180779
182515
177154
163411
158424
155055
183177
182158
187233
178250
154611
155485
148831
172000
177338
177000
173144
159257
149324
150639
171542
178643
177408
171817
165108
155612
152806
180690
172955
174881
183340
168504
158892
162484
177430
189934
186470
180460
156230
151822
148854
171943
176175
179483
174850
151623
149996
154448
178540
175003
177546
180629
179720
170064
166236
193694
183878
187602
197719
156601
156528
153846
180785
187504
183619
184704
187909
177783
173937
191581
206636
202020
195805
162208
158464
157232
185040
186941
192190
190095
165558
161702
159884
192349
189370
194987
198408
170068
165086
166552
198670
203784
206284
196317
176016
168292
170310
201766
213634
205500
209597
183243
177777
176019
212462
215083
222155
224645
129104
264194
263176
246196
248169
118307
122593
205707
248867
203080
249446
249663
205041
203745
207710
207663
249840
251302
250409
210135
205410
135059
263660
264243
247302
194238
117238
243815
207124
249413
207211
250951
209249
250204
205144
210030
251762
216128
252404
214512
212062
251111
203123
249463
205141
206041
249110
249761
203901
187742
180036
182827
222571
218526
227820
231484
210017
251851
212141
215748
252154
252803
213529
113001
262497
258319
241537
233064
108272
115778
208809
250564
252292
214069
213813
250678
208423
250691
215239
208902
210234
253681
217214
251088
111888
124077
263120
107415
114617
240813
231336
212368
252775
254691
223330
219958
251830
215224
210696
252346
213327
217220
253177
253428
214502
253840
227280
218761
222854
258155
231600
254880
220039
253135
222579
254513
253713
224859
217742
252592
218732
214945
218607
254157
222220
253478
221713
224093
254298
255266
226577
254416
219022
222948
255081
254912
230946
226393
254331
227716
227334
256531
240252
259045
235987
231942
255800
241958
202995
240309
194259
192019
231804
233944
103853
243880
255962
102778
237065
218862
106370
227771
255151
229915
234985
255158
255464
233026
208833
245987
243930
201111
197267
236572
239491
255611
235612
232616
237364
255826
239907
255745
239614
242403
255200
254741
255348
243725
237975
241633
254603
247034
255281
243764
255415
245343
255174
248254
244773
247065
252662
249633
254062
219884
239811
228447
248655
254751
251823
252662
254819
248604
245784
247574
252013
253901
250055
176527
102182
216418
101539
191246
102839
237242
246157
253495
247178
251780
249201
250030
251240
252234
251956
249747
253031
248417
251019
250367
249312
252540
249882
250251
251229
252451
251382
166191
101968
209109
101357
129618
192988
101514
250925
252676
251022
248877
252047
253099
244038
263938
263736
263485
255654
254905
253164
253890
263655
262702
263195
251985
253733
251992
250214
263746
264112
263549
255699
253878
255015
253124
262503
247445
262055
263097
262806
250694
251396
263971
262914
263327
252170
253898
251904
250038
262612
248108
262692
263138
262952
251327
250508
261996
261513
260948
249612
247768
246498
244535
241144
242636
252893
248339
251643
252190
247397
244257
261563
260875
261937
262472
249510
247677
261988
245931
262452
262247
262724
249174
247162
262253
262225
261192
249734
247428
246459
243945
262718
244459
262595
262760
263075
239738
240356
262137
243518
261400
262005
260937
238934
240081
243856
253132
253122
253285
238926
252740
245959
260135
257602
259505
237364
242494
240348
234945
237889
259964
258743
261161
260043
245125
241725
236738
261117
259733
261452
260243
244360
240620
239890
260607
259649
258372
259747
237125
234495
253249
245911
252772
253311
234248
253118
239930
262211
242384
262672
235880
262580
263071
238321
260872
257649
259678
236676
242191
239406
233543
232304
261170
259509
232303
261591
260047
227216
232809
258489
257046
256794
254921
230949
226378
226857
257116
254915
256515
258529
237278
231486
257709
254947
224437
256233
258546
235728
229396
240836
252599
253307
253190
225227
236626
251567
261744
259380
260355
233323
228095
226246
234804
262758
263126
263272
234821
228830
235322
228278
255101
252867
251827
230760
228020
219242
222458
256890
257397
258757
231052
219396
223398
227882
263190
263339
223177
263482
263451
233378
226508
220734
255169
252697
249783
252630
220425
212494
257272
254325
218288
254761
257841
220034
210502
254765
249327
252330
214106
223683
218182
207404
208248
248200
251983
253814
250308
224169
214585
262401
262598
218091
261091
260986
220203
210981
252620
246980
216771
222903
251349
230842
249792
246121
245795
249491
210990
189154
199107
201954
200067
245374
249488
246200
241586
202352
189965
248909
242346
247652
207571
197374
192966
211480
255408
258586
258745
211786
190023
201001
201688
179125
194988
243389
240133
245860
202120
186947
102990
79861.1
114877
100630
108140
91105.6
98023.9
82084.9
99649.3
102372
90136.3
90080.8
95471.9
104028
95930.3
77888.8
84799
83109.3
86528.9
90160.5
89443.9
84379
106840
95917.9
92405.6
111074
107047
97880.8
101090
86566
84737.5
77882.5
87148
84335.7
90691.5
93195.7
113414
106661
112109
106457
100519
101209
107277
110921
115919
119655
103055
112022
109105
106253
97930.6
98049
91749.8
101847
95513.3
95583
102238
93648
105640
99340.1
91918
98813.5
96922.3
103418
125958
113660
112766
122385
115026
123841
148330
129456
118582
117401
113086
120169
114375
126125
119983
119324
122451
116387
132746
129036
122984
126458
108495
109154
104737
105712
109607
115270
111433
108659
106951
111320
118095
116823
114023
121309
120938
136905
127405
140092
132111
124147
130471
118480
111400
114812
115236
119969
118694
123347
139592
143832
135534
127888
138731
132078
134234
118414
122217
126728
122527
131806
126620
127280
169465
186088
240028
227189
235483
175133
158291
241934
229851
236533
177234
190934
177713
163408
235272
228039
225424
180369
175482
160625
155731
228423
160803
232411
221685
168924
149384
141994
219611
221190
229338
162370
134224
148492
146104
223084
151311
215777
199526
141125
134163
126326
134259
214513
213165
208802
131697
130758
210151
103541
101302
103085
101303
105077
101303
104308
131357
205285
209792
205133
124960
128018
200469
102968
101301
103404
101303
104165
101303
105042
132164
206364
210490
206081
126036
201871
128837
214366
133754
131465
209939
212775
208256
130242
195858
214986
211311
123973
140528
136481
121099
200692
122560
196128
121115
193451
188761
118713
102818
101301
102028
101302
103862
101302
101421
101935
101301
101445
101302
102692
101302
103702
120431
192328
187979
200031
122327
195778
124837
121891
196434
195108
202789
127365
126539
204130
121354
122351
196085
127130
203842
202066
126014
110525
170453
165166
115568
181819
176485
113739
185807
190850
119585
198813
121237
123998
194006
113117
181951
174228
119248
189933
182361
115948
199176
121298
194228
119763
191418
186271
117408
199007
184883
206070
131514
114177
125996
117688
205786
172888
187560
122051
131181
118977
112878
103022
101302
102676
101917
101302
101792
101301
102573
101301
102911
101759
101302
101910
101302
116077
182795
178304
171436
111027
166970
112224
117209
187019
185670
174344
113438
113047
175719
116695
117521
186619
173302
113249
175299
112629
116844
173688
184479
179593
111564
114941
168771
111975
179029
170600
118014
187548
179308
114725
175781
181075
115289
110239
164365
169658
111584
101781
101301
102361
101681
101301
101300
101464
109427
168856
160446
108757
157475
149363
107286
102471
101301
101862
101718
101318
101301
101301
110440
172190
164555
109599
160997
153608
108095
110553
164988
154495
173058
109931
112772
162340
108980
158254
149857
109525
160764
169418
111651
189978
154208
178714
110914
120303
114978
108145
161648
109927
149674
107080
148316
109648
163023
160750
109804
149527
106953
162678
147909
109373
161521
108731
156739
144106
107212
106498
148469
101824
101300
101445
101302
101359
101301
101338
158780
108227
106669
141728
145619
154434
109067
107703
152142
140684
157208
106468
144913
108644
108470
155557
145613
145199
105352
106651
136509
140832
107572
150812
140712
104732
132017
105927
107227
136891
148766
142115
104653
131367
106170
104844
143354
132746
107560
150555
138751
105684
106661
145870
135443
138835
104343
129554
105608
141516
150053
165135
110613
104314
107350
105961
101702
101299
101409
101305
101299
101313
101300
134986
104193
103926
119732
125537
105139
127720
104039
135714
126444
104233
128033
120238
103316
132340
105282
124855
103529
104796
122079
135906
131391
103733
103624
117542
124077
123416
104615
103654
115266
123198
127998
103157
104236
118755
103373
114512
120772
114695
102246
110326
102713
103100
111983
118262
113775
102118
102615
109121
101301
101299
101384
101304
101299
101299
101314
115826
102639
113966
102180
109684
108599
102064
109707
102411
111851
107380
101798
106150
101932
110065
105001
101867
101911
107207
102218
106799
101305
101299
101362
101301
101298
101302
101299
107721
101782
106007
101674
104999
103983
101566
103711
101775
105931
105332
101505
103381
101710
104947
104616
104502
101677
101618
101629
101664
104874
104582
104433
101673
101656
101626
101611
104684
103941
104272
101595
101599
101562
101637
104571
103804
104163
101583
101624
101583
101547
104648
102630
101563
101466
103947
103006
101637
103475
101630
104594
103137
101414
102488
101479
103465
104088
103992
101566
101521
101513
101575
103310
103519
103798
101547
101476
101498
101519
103216
103391
103697
101536
101464
101488
101505
103512
104056
103926
101518
101573
101560
101508
103547
103390
103132
101554
101522
101507
101481
103396
103230
102982
101536
101489
101506
101465
101298
101298
101298
101298
101298
102163
105137
101298
101298
101298
101298
101298
101298
101302
101298
101298
101298
101298
101298
101298
101298
101298
101298
101298
101298
101298
101298
101298
101298
101298
101298
101298
101298
101298
101298
103398
101300
101298
101298
260523
183853
240782
101415
101298
101298
203477
209527
256229
101301
101298
320169
288401
230917
206028
307866
283164
289539
217860
182178
174263
312173
276533
244975
233715
102214
101502
101301
101298
101582
333571
355482
228638
216273
101298
101298
101298
101298
101298
101298
101298
101298
101298
101298
101298
101298
101301
339420
278235
215362
101298
101298
101298
101298
101298
102273
282857
219620
101298
101298
101298
101298
101298
101298
102818
254574
101298
101298
101298
101298
101298
101298
101298
101301
101298
101298
101298
101298
101298
101298
101298
101298
101298
101298
101298
101298
101298
101298
101298
101298
226507
168890
175904
208999
154748
101579
254949
101298
101303
101298
101298
209107
181391
241647
217948
158953
168696
166283
168159
196935
160742
179374
190267
208242
190349
171707
193362
212906
252285
192765
203888
166143
195784
212266
182364
185733
191357
224884
218833
187394
168873
184071
173519
183214
186357
195760
196296
173520
171541
181087
172592
184049
189693
170071
156440
156958
153333
162462
165083
170225
166751
163938
165470
159617
172280
168100
174766
180652
141802
173252
191311
250213
232930
167105
179510
190841
230909
229369
201173
182029
181277
169316
136323
172642
166717
144387
135936
157052
173310
194186
207267
193723
206220
225563
209006
216831
195021
171807
188781
192830
160065
164731
190776
168110
171277
162726
178844
184063
173577
192395
182807
188145
175368
186029
198066
199428
191475
192990
238883
223782
210052
197381
203009
228968
172059
184118
174285
180222
187849
177036
190756
181148
186832
177143
184520
198414
194805
189610
229900
236174
245743
183636
174655
177939
229679
200446
213678
200132
208816
229965
212329
216765
193709
169411
192678
192475
152706
184626
161200
183790
183586
184957
195401
193131
194020
194507
188726
185089
186469
196962
197867
199021
195559
183392
198390
205102
199253
207878
219536
216678
197596
188755
203028
197412
208297
210851
185978
148914
169957
135097
157518
144802
122533
133144
252248
206508
111352
169886
139165
263056
214468
122518
315381
365340
323299
314475
287343
304557
280641
287828
309698
284558
317352
301225
292080
327825
433250
393800
521621
405964
356219
428458
321755
462801
277092
249826
268782
240861
276825
338405
284457
238758
137918
155175
210502
101298
101298
101298
101298
101298
101298
181977
172045
191075
125571
89075.3
83181.9
135006
117269
72499.6
77653.1
109901
226199
187569
250629
206639
205576
216907
196780
171694
179221
163442
344398
208960
101704
101300
245028
198179
170450
181485
159491
120695
128889
141565
101000
96207.3
149963
292686
232013
304795
289418
208016
229800
285345
330139
139400
231222
211360
217225
171897
106977
154074
185241
114468
204196
159942
172142
124034
112120
189668
157902
95567.6
102889
145819
376500
309603
201605
111928
201570
301519
102570
122376
101416
309068
101300
101298
101298
235329
191478
101300
101299
101298
101298
101298
149910
384274
293189
233188
397496
323443
101298
101298
101298
101298
101298
101298
101299
101298
101298
101299
105198
101677
172410
101298
101315
487251
101505
512183
241573
392251
389830
101298
101298
101298
101298
101298
101298
101298
101298
101298
101298
101298
101298
101298
101298
101298
101298
101298
101298
101298
101298
101298
101298
101298
101298
101298
101298
101298
101298
101298
101298
101298
101298
101298
101298
101298
101298
101298
101298
101302
101298
101298
101298
101298
101298
101298
101298
101298
101298
101298
101302
101298
101298
101298
101298
101298
101298
101298
101298
101298
101298
101298
101298
101298
101298
101298
101298
101298
101298
101298
101298
101298
101298
101298
101298
101298
101298
101298
101298
101298
101298
101298
101298
101298
101298
101298
101298
101298
101298
101298
101298
101298
101298
101298
101298
101298
101298
101298
101298
101298
101298
101298
101298
101298
180043
102196
311533
359952
422229
219492
464906
111343
112659
206472
101303
101298
101959
101368
101356
102145
102171
101303
101298
101298
101298
101298
101298
101298
101298
340805
377236
307119
329798
298273
417072
339024
371840
408840
367856
373133
157202
101298
132491
119210
127409
125340
119883
120349
113215
107543
111533
104053
136822
103986
130017
134046
103767
104303
103568
125238
121677
102814
128596
103342
102970
101938
114795
102302
108400
102396
109259
101889
101524
124863
101389
111408
101301
101340
101299
101299
101759
101300
101299
101316
101308
101299
101300
101299
101300
101324
101476
101321
101299
101298
101305
101299
102988
101299
101299
101298
101299
101310
101327
102846
101303
103184
101298
101298
101299
101953
101298
101298
101298
101298
101298
101525
101302
101649
101299
101299
101339
101298
101441
101299
101654
101298
101298
101304
101298
101298
101303
101428
101299
101308
200465
294925
183712
101801
160200
101380
102556
101602
101298
101300
101298
101300
101299
101298
101298
101298
101299
101299
101298
101299
101298
101298
101515
101317
101517
101315
101315
101499
101534
101477
101312
101308
101422
101312
101465
101429
101298
101299
101298
101299
101298
101298
101298
101298
101298
101298
101298
101298
101298
101298
101348
101305
101379
101302
101384
101302
101345
101323
101300
101299
101309
101300
101322
101309
101623
105057
103163
101432
105477
101601
101440
101298
101298
101298
101298
101298
101298
101298
101298
101298
101298
101298
101298
101298
101298
101299
101298
101302
101298
101302
101298
101300
101315
102007
101350
101517
101351
101531
101316
101298
101298
101298
101298
101298
101299
101298
101299
101298
101298
101300
101298
101301
101299
101312
101314
101725
101350
101337
101303
101466
101320
101299
101299
101302
101300
101307
101310
101537
101341
102320
102170
101395
101408
103762
255894
155441
204954
250108
175502
230214
248027
115869
162341
132736
208301
115738
179214
138314
101304
101299
101302
101346
101329
101299
102910
105479
101488
101814
103000
105963
101467
132640
111516
104432
102769
125102
113859
105300
101298
101298
101298
101298
101298
101298
101298
101298
101298
101298
101298
101298
101298
101298
101298
101298
101298
101298
101298
101298
101298
101298
101298
101298
101298
101298
101298
101298
101298
101298
101298
101298
101298
101298
101298
101298
101298
101298
101298
101298
101298
101298
101298
101298
101298
101298
101298
101298
101298
101298
101298
101298
101298
101298
101298
101298
101298
101298
101298
101298
101298
101298
101298
101298
101298
101298
101298
101298
101298
101298
101298
101298
101298
101298
101298
101298
101298
101298
101298
101298
101298
101298
101298
101298
101298
101298
101298
101298
101298
101298
101298
101298
101298
101298
101298
101298
101298
101298
101298
101298
101298
101298
101298
101298
101298
101298
101298
101298
101298
101298
101298
101298
101298
101298
101298
101298
101298
101298
101298
101298
101298
101298
101298
101298
101298
101298
101298
101298
101298
101298
101298
101298
101298
101298
101299
101298
101298
101298
101298
101298
101298
101298
101298
101298
101298
101298
101298
101298
101298
101298
101298
101298
101298
101298
101298
101298
101298
101298
101298
101298
101298
101298
101298
101298
101298
101298
101298
101298
101298
101298
101298
101298
101298
101298
101298
101298
101298
101298
101298
101298
101298
101298
101298
101298
101298
101298
101298
101298
101298
101298
101298
101298
101298
101298
101298
101298
101298
101298
101298
101298
101298
101298
251991
184454
101365
101298
101298
241068
142573
101298
101298
101298
102049
101606
101298
101298
101298
101368
101298
101298
101298
101298
101298
101298
101298
101298
101298
101298
101298
101298
101298
101298
101298
101298
101298
101298
101298
101298
101298
101298
101298
101298
101298
101298
101298
101298
101298
101298