/*--------------------------------*- C++ -*----------------------------------*\
  =========                 |
  \\      /  F ield         | OpenFOAM: The Open Source CFD Toolbox
   \\    /   O peration     | Website:  https://openfoam.org
    \\  /    A nd           | Version:  9
     \\/     M anipulation  |
\*---------------------------------------------------------------------------*/
FoamFile
{
    format      ascii;
    class       volScalarField;
    location    "0.0035";
    object      rhoE;
}
// * * * * * * * * * * * * * * * * * * * * * * * * * * * * * * * * * * * * * //

dimensions      [1 -1 -2 0 0 0 0];

internalField   nonuniform List<scalar> 
30774
(
276083
259932
274777
289648
273103
309955
254689
297989
286034
285926
276820
282974
289223
295934
287785
273062
286381
285744
307227
302088
291269
294483
265921
265713
269657
273069
277601
280093
273890
256077
262460
263163
281546
275226
283502
274213
299379
286858
296618
281515
283312
290065
292285
306399
316458
321767
298312
312886
306700
301965
278940
274714
277678
284470
282986
286933
279874
290783
290158
304945
289369
297295
295534
284534
436453
404001
337425
356596
287994
423093
446034
311793
405839
410265
277155
273221
286407
420834
408942
327407
325660
325417
288577
313283
277789
280626
313992
292566
331423
298015
320662
290275
284888
316573
345941
305175
314324
326556
297216
305831
334731
257532
281292
288861
274788
258540
331378
276477
269353
318381
348426
304665
268382
268137
268252
278585
282517
284237
282288
278181
282306
277451
271456
301050
397526
377936
330046
356233
294697
276262
274573
289483
306281
271892
273741
274692
270518
265077
259857
254810
268765
262941
258849
263307
274365
269635
277798
273183
275400
265392
268639
259434
256576
267455
257129
257651
257262
260197
271618
268643
270373
263287
262381
263121
265174
275860
271460
273318
305698
300903
306913
302378
369519
324923
337230
327125
315664
344695
356659
282039
280029
285215
308720
313554
309638
305093
291739
313872
319170
294944
299627
326769
320734
302735
318796
308553
335889
338835
346773
328890
428029
375884
380235
367506
424425
364070
419338
371102
414615
372976
413327
362605
362398
415768
446410
386370
394892
372988
431371
381031
440526
347175
406113
347351
410688
353698
353423
411364
351462
407235
348609
358116
417224
354996
413478
465734
419158
471444
458021
405819
391354
451914
362909
415450
356098
363201
423088
370706
431405
382558
392016
455685
433135
371579
380215
442165
524575
265011
253254
539751
740275
497057
742816
779307
508898
781826
323013
287610
318237
314273
318414
421949
389649
337998
361363
403071
461742
446584
404094
436568
370479
321191
330693
345508
297021
338605
321667
302015
378227
420574
396058
425658
438275
382161
388283
279547
284305
339206
319572
278134
287105
326103
327384
360153
330016
323671
377814
329427
308742
325345
321028
322319
310422
310532
308420
305991
358473
362231
419640
336822
401661
340089
306090
280666
293155
304531
304279
297916
298337
291614
199373
217971
187664
197208
204575
224157
199086
207562
216009
204785
205606
212020
211159
215737
212517
217709
204403
216778
223585
214578
218958
220870
206474
212809
210490
217036
206389
216767
208909
203083
209166
215950
207054
211359
200522
215289
219530
214646
217612
222438
220622
215552
220303
220601
209261
211498
214523
219148
214501
216565
218347
217229
215150
221177
220110
214944
219865
223117
225230
220919
224465
225120
221946
222980
192692
210853
199637
201223
203820
208185
205195
210232
224735
214009
212126
203123
217659
215485
200865
206028
205659
195527
208071
197691
203564
206982
207258
209217
196142
198963
204593
211407
218371
221536
272260
241934
238777
295616
214285
258665
231297
218545
223368
225340
228703
224896
230166
245820
234621
218336
228679
235070
224267
242959
239994
231477
252112
245181
242589
236777
249421
224375
234434
222295
217047
223822
231075
229799
221424
218071
218449
222590
218932
220734
222882
222066
218173
221965
222098
221093
221001
223526
224480
219643
226741
224411
223205
225739
223377
225989
226087
226235
228738
225472
228323
227523
290149
247671
268654
276750
254439
259357
262127
241648
239024
256436
223952
227764
238448
255082
251331
237204
246660
252686
241478
243711
258240
272078
254842
283127
276813
252882
268593
270657
460129
365499
352400
459585
304077
291222
404289
338539
323368
297184
306259
371300
384133
336130
346642
368265
355734
327237
435923
404754
362183
386026
285796
296717
283532
290264
310060
318176
303665
422975
460108
416937
421487
378050
385230
423056
296147
320963
303274
329353
318458
310762
344716
478509
462995
435409
394752
437041
425591
413592
320784
383723
344507
351441
356603
387109
326792
359249
398747
359151
339749
389868
332425
372235
307184
245130
344870
285036
297342
311676
292430
296399
255681
256512
249181
250738
261709
255679
249784
323663
271610
280175
286972
290812
266825
296005
275133
282328
266260
275820
263293
269264
270497
258810
261716
298340
268958
273728
251994
275975
371935
280846
333240
329349
307831
298630
308970
305011
307855
291416
282185
288234
278970
289679
290276
302108
292859
274910
270131
270359
274869
295932
303594
307171
279406
303987
285269
292863
485231
507190
495526
549692
576538
563724
592335
510164
537014
520988
596673
579274
610538
631086
497752
506412
495799
615148
598506
615708
632592
522762
537665
520172
636056
677226
659144
653435
278986
651957
616132
262792
615171
257483
710536
660125
755747
695054
743199
674575
709156
757438
702110
744048
689074
722199
756056
733202
757516
769251
744677
724608
736934
781474
754908
771084
748289
774831
770858
782373
758227
765128
771702
421546
652587
253254
428561
670360
253254
491687
560631
253251
447959
675921
253254
601495
254992
253246
718306
440616
721392
758316
471276
742144
467505
724300
736267
464884
763663
473866
776345
488003
718975
721915
442231
736617
463350
720294
483905
533943
491545
457767
686886
710610
721481
714524
407791
413540
278000
300157
329306
333422
398139
386840
286692
327299
289573
314438
278082
281502
317108
331349
304264
295374
298945
288392
321690
328692
431959
284095
258011
392042
306311
422023
260843
367425
433915
421915
429075
380086
348873
372772
391927
362402
399520
417440
312147
282445
341395
305732
412813
424630
429655
402444
400555
390598
399852
337852
419869
411862
425827
425974
390130
370115
267157
268693
265283
264697
259999
259405
273674
276311
309596
288961
289551
274417
296441
323486
271598
287533
314382
265656
258507
268826
290197
287418
340061
358087
295751
278229
316651
341071
273241
274222
278526
306436
301709
309164
305221
287056
297937
286163
314898
322549
312032
324006
403547
367837
369670
411503
363898
365449
409708
392553
361448
365158
367019
404065
368252
407329
348878
410334
351806
411083
355430
358101
412027
356706
417343
364043
361920
413629
366991
413012
352715
414509
487214
469604
494459
495557
392156
393176
508616
479865
492799
465601
463419
496518
482090
493039
516449
518977
457515
457190
496178
485366
429681
393268
428041
473589
443434
468828
441377
423780
390300
422201
464776
421163
428407
452659
397453
465334
413314
478558
362035
411205
437197
523087
446504
500873
479564
501205
452026
508157
461088
447039
483476
387347
431156
456167
475079
476352
464207
493558
460582
460670
474399
487811
465031
456073
470902
507273
515974
541665
533355
644878
568094
546121
633926
547195
669381
687462
434084
459862
455147
500027
494625
520755
526364
424327
450636
446478
490374
491390
516657
514290
474542
485794
477697
537097
525942
551548
563083
442943
440466
420700
491853
496375
514020
516463
469349
477498
478030
545730
571332
568933
550069
477736
479306
477481
563252
575465
555848
581611
465414
478857
479708
542659
567190
567699
540433
489051
482644
482447
572546
601061
584170
590053
440001
426764
422391
515753
504286
522392
532655
480761
482095
461656
568002
539798
541504
570606
486670
462636
461169
546373
583605
575444
555254
447896
445337
434288
531392
547570
551010
567064
500365
476109
467238
596066
568848
587537
612938
472205
478612
460066
601563
574496
591116
618028
509716
513990
490036
610690
656074
633423
636078
677984
286727
295339
268337
734231
265298
714549
483781
284202
663411
268197
738521
264640
629546
611403
718445
607923
634778
725341
635589
727377
719447
610406
607673
636735
733901
730212
641205
615979
727871
624131
657637
738357
648370
743080
731963
646562
634430
668647
752409
681178
747877
620766
266908
281687
263542
705533
668936
258164
618067
720138
627786
724089
639563
646376
723403
528833
515915
501264
629865
645301
657198
670220
667934
747417
701930
753045
697121
742540
673250
664823
734071
747650
691478
693729
663609
738052
689945
752681
708394
768487
680727
716180
757740
700620
766251
772698
734503
712275
724917
762320
730622
690478
664693
668301
731113
690894
727482
595218
561213
535765
677584
661230
683024
695331
721322
653607
639899
655711
721720
722739
666451
621492
581752
562224
698354
680741
690288
704891
673695
721127
725670
695285
692577
724358
680549
254184
256066
639311
568458
263164
651417
256741
667436
719951
677669
719668
680480
688192
717238
264888
290038
297563
297296
327835
316160
336170
323865
326726
309374
312431
320896
305828
322333
301713
315726
298028
299445
317815
292100
318706
295195
268166
284758
290995
289285
276198
281356
272977
301136
288783
291823
287103
294799
288779
280410
310824
350398
325280
342358
331988
304372
320866
326847
316010
333576
298140
329424
299808
318229
274846
278005
269744
291955
277515
280935
293525
283269
276411
284602
294771
303618
287087
297554
707889
315290
253255
342057
253255
716947
274675
253254
699524
707190
322499
253255
439704
728885
253253
584831
253572
253247
704627
364972
377936
387122
713545
409454
712046
717164
405846
389352
405162
715517
721486
416491
388875
699942
381703
423436
713397
722270
453124
721493
711055
417813
488540
725950
464384
732434
456008
719104
423083
713832
462075
721953
431871
324335
302479
301109
328823
376896
364643
259978
285731
315973
286301
410559
392620
344048
349020
317695
324924
297101
312773
360690
360927
251166
249920
293029
305141
430746
353983
357229
361453
373369
432380
384109
382968
288593
271218
298170
263405
267615
295006
286554
318452
304715
315064
327086
338552
334314
336229
277981
247067
268682
261983
263251
279522
275367
340085
341591
301688
320679
322358
348287
341403
332848
310788
307478
306113
310710
319730
312040
296952
283579
306977
284170
274481
304538
315053
349534
341209
336481
359304
339101
324416
347856
333278
323715
310635
296498
310152
336885
326020
318786
313151
314393
300736
294624
303892
295976
304658
348094
309810
328885
324668
362574
355205
362762
371093
353815
368787
376530
366850
383631
247306
263040
263747
270928
266401
274562
276296
362414
316901
326175
335165
370716
343839
380414
307970
315209
314796
285250
288881
290398
288332
391078
399917
406997
392290
378368
397163
412009
386900
337279
350272
368345
354852
392054
405905
284877
322244
318936
302429
329071
298891
328197
290237
317454
317673
308265
333311
316454
329507
384459
357767
363866
335689
358418
344520
351299
370186
344300
351229
327687
343546
320775
346294
369693
401344
375686
363366
367248
353833
377183
330190
341037
332325
369862
362782
350139
358648
306533
325319
320221
338083
339848
326704
348521
288554
333155
327070
332019
297829
299173
336763
420331
382093
389242
399295
383611
373240
387926
358547
337543
331678
343007
315432
312346
344608
298666
347601
340085
302423
349753
342768
307245
358501
327555
325742
311689
353523
348220
313418
356822
343344
350904
381621
375687
388926
393625
441942
397496
407356
411054
394546
406290
423115
382444
372119
370191
402414
416849
415943
405480
432430
453914
466694
447373
435269
418983
418937
560929
497561
515552
711456
712618
648991
694768
433514
426713
281889
309930
264464
293005
324647
313080
365728
425444
358744
384451
381385
339778
321192
345185
309084
336071
320571
326406
301717
294015
373897
331001
273828
310577
347716
289787
277936
356171
431663
365612
326357
409569
392937
315594
277313
314535
296552
290397
313604
306248
303153
302228
323478
319278
302813
313060
299687
308714
284837
303304
295064
307100
301864
290091
299027
269692
278702
275127
281897
292927
278170
295840
373107
373499
366331
443542
436636
442265
438541
374605
373605
369192
446657
447135
451522
442063
397601
378812
372715
451865
447851
458870
442389
368362
365618
376368
436718
443295
446669
438747
382926
385947
379241
453705
458096
466271
461663
402354
397066
393702
476169
482513
487967
471178
428693
414661
404585
489046
486510
501734
474369
403067
405286
386249
455147
471334
469989
458785
415631
387429
391009
453551
474278
470876
454198
432464
405117
397097
480198
457481
463165
488050
442434
414584
425077
470733
507983
497436
479856
407364
395038
386342
455055
467526
477632
463915
395058
390098
402938
475272
464580
472480
481928
476156
447658
436183
519581
490263
501743
532165
410154
409702
401799
482571
503711
491401
494875
501485
471247
459410
514186
560597
545800
527571
427164
415791
412043
495941
501927
518553
511951
437438
425676
420126
519067
509606
527319
538082
451107
435919
440391
538899
555082
563003
531533
469333
445709
451911
548632
586567
560498
573571
491547
474721
469320
582866
591266
614187
622246
325347
747927
744013
684439
690928
296788
308021
559845
700221
551509
702280
703081
557714
553557
566101
566196
703862
708754
705796
573700
559087
341444
745864
748268
688219
513288
293996
676282
564299
701973
564393
707346
571047
704837
557873
573553
710199
592949
712164
587494
580121
708038
551801
702490
558076
560939
701436
703680
554366
505464
481653
490244
615429
602330
632544
644477
573347
710329
580285
591880
711265
713432
584643
282996
741475
726600
668509
639513
270858
290193
569535
706034
711619
585322
584902
706578
568108
706458
588740
569487
573582
715624
594819
707835
280125
311947
743715
268675
287177
665983
633539
580126
713088
718663
613983
603329
710109
589058
575836
712153
583788
596221
714962
715612
588017
716428
626632
600268
613411
729218
640680
719656
605800
714477
614110
718705
716325
621579
598303
712857
601506
589396
601216
717751
612925
715651
610714
619110
718535
721102
626617
718667
602590
615330
720300
719889
641713
626633
718233
630987
628002
724308
669715
731672
655258
643261
722387
679150
553001
673810
525765
518823
645677
652684
259657
677019
718442
256953
653616
591870
266019
631241
720317
638321
655247
719954
720678
648752
571406
691921
685451
546973
535052
661345
670963
721446
657284
647257
663240
720989
671927
721187
671035
680537
719313
716609
719498
684881
665512
677801
715726
695469
718388
684926
719293
690099
717694
698887
688044
695513
707860
703101
713329
605810
670077
633095
699703
716648
708840
711210
716337
700343
691554
697221
705547
712695
704560
459582
255457
584143
253847
504388
257107
654376
692752
711497
695946
705073
702011
704391
703023
706465
709556
703656
709565
699723
707104
699756
702329
710555
697832
699161
707463
707188
707987
429121
254921
560540
253393
326754
509791
253784
701606
711196
707213
694238
709763
711712
677217
747084
746169
745366
716302
713992
708076
710313
745850
742293
744155
704101
710000
704100
698087
746332
747953
745798
716530
710328
714470
708032
741093
688671
739800
743700
742817
699703
701870
747201
743143
744802
704714
710622
703856
697493
741360
690739
741628
743865
743301
701675
699151
739652
737898
735850
696041
689750
685424
678713
667439
672616
711058
692619
708588
709980
689236
677830
738120
735695
739559
741542
695690
689464
738742
683526
740531
740347
742238
694603
687732
740586
740354
736677
696392
688577
685209
676684
740890
678192
740450
740352
741539
661700
663778
739061
675235
736893
737943
734695
659351
662952
676667
710163
711849
711347
659791
711236
684092
732985
724066
730716
654262
671758
664424
645986
656013
732396
728027
736667
732620
680733
669106
652010
735611
730843
737360
733010
678151
665382
662939
734337
731115
726364
730883
653304
644421
711482
683758
711139
711339
643775
709496
663073
738916
671183
740544
648065
739919
741521
656648
735440
724119
731238
651787
670626
661190
641186
636352
735452
729933
635632
736564
731249
618338
638689
727078
722048
721034
714646
632369
616885
618461
722301
714688
720242
727247
653912
634163
724045
714749
610228
719159
727070
648681
627136
666191
707662
711702
710371
613246
651833
703441
736705
728796
732374
639690
621006
615270
644315
740039
741170
741952
644052
623245
645856
621348
715456
707839
704246
631770
622469
593197
603848
721064
722304
727206
632209
593128
606069
621669
741570
741584
604213
742274
742536
638857
615282
598012
715545
707033
697010
706789
597015
571200
722350
712301
589502
712973
723621
594619
563905
713936
695188
705681
576110
607698
589593
554748
557626
691663
704628
710974
698968
609478
577988
738725
738759
587602
733227
733664
594655
564768
707460
686532
585205
605422
702269
632226
696709
684435
683183
695990
566360
497658
528626
537676
531748
681899
696012
684700
668917
538931
500208
694270
671750
689935
555527
523390
509592
568040
713912
724185
725699
567538
499192
533434
535308
467227
515851
675177
664136
683718
538247
490949
314898
224418
343290
281098
329502
262697
309220
239728
309877
319385
277824
272989
292919
321622
290405
224275
254420
245152
253512
270677
264297
243361
320864
280861
275286
333713
326582
291746
296400
242306
240578
221332
249322
244840
263635
266581
335142
325530
329541
312822
304187
304075
315810
335432
342926
352586
305838
325433
319941
310830
281015
283934
268373
297973
284911
281609
298060
261967
301061
284029
261058
279924
281449
298602
359725
320865
306174
319904
298451
334873
393026
342412
333152
318022
318853
340498
324653
343492
327356
339678
348844
331448
365285
353496
337412
348281
306377
296854
295387
298412
310861
315089
304806
302495
300545
315722
324281
320483
312874
333946
319099
358656
332019
368324
351040
329203
341191
308565
294043
304608
304008
311680
314751
321630
374078
379563
361712
340701
365609
353340
352336
315542
326825
332453
326406
346318
338655
333137
438610
488284
663642
619952
648134
455316
406304
670116
629019
651722
461562
503213
463000
421006
647638
623066
614177
471008
456387
413007
399022
624217
413502
637842
601572
437040
381106
360528
594595
599859
627251
418007
339214
378608
371932
606153
386519
582018
530228
358123
339047
317927
339282
577450
573273
559283
332313
329796
563444
258871
253255
257724
253258
262746
253258
260803
331415
548100
562471
547643
314284
322435
532868
257430
253254
258527
253256
260442
253258
262656
333598
551549
564708
550640
317143
537294
324629
576981
337909
331693
562781
572021
557562
328406
518785
579562
567663
311680
356489
345371
304100
533571
307942
519193
304142
510829
496305
297849
257054
253253
255073
253256
259679
253255
253552
254838
253254
253613
253254
256736
253255
259277
302347
507348
493922
531483
307327
518100
313959
306181
520036
515996
540177
320673
318482
544298
304771
307386
518959
320049
543406
537919
317086
276620
441448
426044
289650
475200
459259
284902
487276
502767
300131
527664
304462
311739
512577
283294
475598
452550
299248
499912
476823
290636
528755
304623
513243
300596
504488
488692
294440
528597
484774
550889
331865
286035
317049
295168
549966
448783
492978
306600
330963
298535
282677
257565
253254
256697
254794
253254
254481
253253
256437
253252
257286
254399
253254
254775
253254
290972
478163
464683
444328
277911
431281
280991
293923
490863
486851
452869
284121
283114
456848
292582
294733
489646
449741
283635
455603
282035
292969
450964
483239
468512
279290
288020
436520
280349
466828
441872
296021
492605
467681
287459
457108
472926
288923
275886
423646
439035
279341
254453
253254
255906
254204
253253
253251
253661
273807
436727
412408
272094
403885
380969
268347
256184
253254
254655
254295
253296
253254
253251
276404
446552
424270
274247
414021
392971
270406
276693
425516
395475
449094
275099
282404
417874
272665
406172
382405
274059
413350
438426
279516
500421
394719
466123
277620
302008
288113
270532
415841
275085
381794
267821
378037
274374
419730
413229
274772
381379
267499
418736
376869
273669
415528
272028
401849
366355
268158
266344
378519
254562
253250
253613
253254
253399
253252
253346
407647
270742
266778
359741
370524
395296
272887
269408
388749
356786
403106
266268
368503
271805
271362
398486
370538
369389
263439
266733
345421
357269
269075
385070
356906
261872
333169
264895
268196
346448
379341
360835
261674
331438
265511
262157
364264
335180
269044
384362
351565
264281
266757
371171
342424
351714
260891
326500
264088
359220
382999
426057
276848
260818
268510
264983
254257
253249
253523
253264
253247
253282
253249
341263
260513
259841
300508
315815
262900
321642
260125
343249
318231
260613
322479
301836
258304
334083
263264
314010
258840
262035
306671
343782
331455
259355
259080
294777
311924
310177
261577
259156
288863
309619
322388
257905
260621
297954
258449
286905
303236
287380
255619
276110
256790
257763
280368
296666
284995
255298
256544
273026
253254
253248
253461
253261
253247
253248
253286
290318
256603
285490
255452
274465
271692
255161
274525
256033
280029
268585
254497
265462
254831
275441
262554
254670
254779
268145
255547
267108
253262
253247
253406
253252
253246
253255
253246
269453
254456
265099
254185
262548
259984
253916
259298
254439
264906
263390
253762
258468
254277
262416
261581
261293
254193
254046
254074
254160
262232
261496
261117
254183
254140
254065
254027
261751
259877
260711
253988
253998
253905
254094
261467
259533
260439
253958
254061
253958
253867
261662
256583
253908
253666
259894
257526
254093
258706
254075
261524
257854
253536
256226
253697
258681
260247
260007
253916
253802
253784
253938
258289
258815
259518
253868
253690
253745
253798
258052
258494
259262
253840
253660
253721
253764
258798
260167
259841
253796
253932
253899
253769
258886
258492
257842
253885
253806
253767
253703
258506
258088
257464
253840
253723
253764
253662
253245
253245
253245
253245
253246
255411
262896
253245
253245
253245
253245
253245
253245
253254
253245
253245
253245
253245
253245
253245
253245
253245
253245
253245
253245
253245
253245
253245
253245
253245
253245
253245
253245
253245
253245
258510
253250
253245
253245
733542
491349
662874
253537
253246
253245
552492
572592
720484
253253
253245
949809
849252
644901
589533
900957
826922
845130
597538
504562
452355
922512
790992
679453
638267
255537
253756
253253
253245
253955
985561
1.06956e+06
630599
585396
253245
253245
253245
253245
253245
253245
253245
253245
253245
253245
253245
253245
253251
1.00521e+06
792373
587255
253245
253245
253245
253245
253246
255686
801485
601870
253245
253245
253245
253245
253245
253245
257054
711338
253245
253245
253245
253245
253245
253245
253245
253253
253245
253245
253245
253245
253245
253245
253245
253245
253245
253245
253245
253245
253245
253245
253245
253245
623480
447144
466748
571366
405311
253949
718359
253245
253257
253245
253245
564941
487786
661655
588649
414107
453557
434641
442655
528441
437736
477698
510995
561757
526938
469814
517731
574391
698977
517644
550200
438727
524263
590452
551722
545780
560719
622619
615260
566519
453908
493258
468903
493729
500863
526003
526987
468757
457803
487168
459117
494053
508049
448860
443520
425939
432411
454826
463701
461539
450973
465645
451757
453348
484098
472621
474871
491684
367651
460310
513679
702059
645642
440417
478810
512611
632378
628959
543960
481998
482466
447968
352161
458597
440123
374326
350593
411600
460622
522379
560241
521323
555302
612764
562785
587119
522994
455235
506624
514938
417756
431429
507766
449156
453256
432955
477881
488903
462019
514307
492670
504430
470834
499392
532204
535848
515143
532100
656775
609306
567996
544604
551439
631267
478893
510503
486023
487888
507831
478309
516652
504793
517995
494167
500442
538371
528550
514747
625086
645036
677947
486252
463929
469048
630857
537942
577441
537998
562375
624350
571695
585162
517089
446165
516102
513079
395726
488215
420451
551394
556882
556187
573408
570106
573510
570119
565205
561205
560240
576982
581701
580608
577178
486868
530859
552668
532703
559935
595986
585473
531421
505061
547855
530043
562380
570975
495462
467796
511868
413767
500048
448283
363190
402579
703205
562733
327612
452914
400330
741336
589670
367054
1.04552e+06
1.06675e+06
973088
1.03011e+06
944903
975473
887852
932026
983551
890091
989704
951057
894078
1.04998e+06
1.27503e+06
1.17767e+06
1.60085e+06
1.19713e+06
1.04095e+06
1.27081e+06
1.01267e+06
1.51172e+06
940508
846706
921763
824828
928961
1.13634e+06
902302
763673
472958
529103
675061
253245
253245
253245
253245
253245
253245
569468
496712
590704
376100
285724
259585
413670
343272
215256
235997
315224
764628
622716
831896
658543
690923
740479
664206
558613
593015
527393
1.12595e+06
663854
254260
253249
684010
571782
458515
499554
425585
321128
344696
397319
296370
276458
427246
859481
694276
884623
842108
584769
625588
838981
1.02637e+06
375084
728501
662234
613691
497739
319447
418780
503975
345206
564874
460767
551589
425853
382146
609727
501303
314453
345782
455724
1.12546e+06
961596
534769
280243
536675
889636
256432
307496
253541
888216
253251
253245
253245
651032
504577
253249
253247
253245
253245
253245
431071
1.12586e+06
905194
646905
1.24303e+06
949843
253245
253245
253245
253245
253245
253245
253248
253245
253245
253249
263046
254193
446138
253246
253286
1.58014e+06
253762
1.68761e+06
658825
1.27448e+06
1.18822e+06
253245
253245
253245
253245
253245
253245
253245
253245
253245
253245
253245
253245
253245
253245
253245
253245
253245
253245
253245
253245
253245
253245
253245
253245
253245
253245
253245
253245
253245
253245
253245
253245
253245
253245
253245
253245
253245
253245
253254
253245
253245
253245
253245
253245
253245
253245
253245
253246
253246
253255
253245
253245
253245
253245
253245
253245
253245
253245
253245
253245
253245
253245
253245
253245
253245
253245
253245
253245
253245
253245
253245
253245
253245
253245
253245
253245
253245
253245
253245
253245
253245
253245
253245
253245
253245
253245
253245
253245
253245
253245
253245
253245
253245
253245
253245
253245
253245
253245
253245
253245
253245
253245
253245
470446
255493
917176
1.09132e+06
1.37028e+06
588395
1.5302e+06
278743
282125
549292
253257
253246
254900
253419
253391
255364
255431
253257
253245
253245
253245
253245
253245
253245
253245
1.14115e+06
1.19885e+06
1.03809e+06
1.1252e+06
1.02329e+06
1.41271e+06
1.15146e+06
1.22648e+06
1.36688e+06
1.24331e+06
1.2462e+06
402531
253246
334432
299148
320769
315271
300911
302148
283542
268996
279214
260159
346179
259990
327814
338680
259439
260789
258938
315071
305650
257042
324040
258369
257434
254847
287635
255760
271182
255995
273377
254723
253811
314022
253474
278898
253251
253349
253248
253248
254397
253249
253248
253290
253271
253248
253251
253248
253249
253311
253691
253301
253247
253246
253263
253248
257481
253247
253247
253246
253246
253275
253317
257124
253257
257974
253245
253245
253247
254884
253246
253246
253246
253245
253245
253812
253255
254123
253247
253248
253348
253245
253603
253246
254136
253246
253245
253260
253246
253246
253257
253570
253248
253270
554724
889435
484441
254503
412233
253451
256397
254006
253245
253249
253246
253249
253249
253246
253245
253245
253248
253247
253246
253248
253246
253245
253787
253291
253792
253287
253288
253749
253836
253692
253280
253271
253554
253280
253662
253574
253245
253247
253246
253246
253245
253246
253245
253245
253246
253245
253245
253246
253245
253245
253369
253262
253448
253256
253460
253255
253363
253307
253251
253247
253272
253250
253305
253272
254058
262694
257919
253580
263755
254003
253599
253245
253245
253245
253245
253245
253245
253245
253245
253245
253245
253245
253245
253245
253245
253248
253246
253256
253246
253255
253245
253249
253288
255019
253374
253794
253378
253827
253289
253246
253246
253245
253246
253245
253247
253246
253248
253246
253245
253249
253245
253253
253246
253281
253286
254315
253374
253342
253259
253665
253301
253247
253248
253256
253250
253267
253275
253842
253354
255808
255430
253489
253520
259449
759039
467418
561569
705667
527405
678804
694552
290420
419819
335140
560468
290063
468417
350208
253260
253247
253256
253366
253322
253248
257284
263763
253720
254537
257511
264988
253667
334746
279166
261117
256929
314699
285197
263307
253245
253245
253245
253245
253245
253245
253245
253245
253245
253245
253245
253245
253245
253245
253245
253245
253245
253245
253245
253245
253245
253245
253245
253245
253245
253245
253245
253245
253245
253245
253245
253245
253245
253245
253245
253245
253245
253245
253245
253245
253245
253245
253245
253245
253245
253245
253245
253245
253245
253245
253245
253245
253245
253245
253245
253245
253245
253245
253245
253245
253245
253245
253245
253245
253245
253245
253245
253245
253245
253245
253245
253245
253245
253245
253245
253245
253245
253245
253245
253245
253245
253245
253245
253245
253245
253245
253245
253245
253245
253245
253245
253245
253245
253245
253245
253245
253245
253245
253245
253245
253245
253245
253245
253245
253245
253245
253245
253245
253245
253245
253245
253245
253245
253245
253245
253245
253245
253245
253245
253245
253245
253246
253245
253245
253245
253245
253245
253245
253245
253245
253245
253245
253245
253245
253247
253245
253245
253245
253245
253245
253245
253245
253245
253245
253245
253245
253245
253245
253245
253245
253245
253245
253245
253245
253245
253245
253245
253245
253245
253245
253245
253245
253245
253245
253245
253245
253245
253245
253245
253245
253245
253245
253245
253245
253245
253245
253245
253245
253245
253245
253245
253245
253245
253245
253245
253245
253245
253245
253245
253245
253245
253245
253245
253245
253245
253245
253245
253245
253245
253245
253245
253245
708843
483304
253411
253245
253245
669291
362139
253246
253245
253245
255125
254015
253245
253245
253245
253420
253245
253245
253245
253245
253245
253245
253245
253245
253245
253245
253245
253245
253245
253245
253245
253245
253245
253245
253245
253245
253245
253245
253245
253245
253245
253245
253245
253245
253245
253245
253245
253245
253245
253245
253245
253245
253245
253245
253245