/*--------------------------------*- C++ -*----------------------------------*\
  =========                 |
  \\      /  F ield         | OpenFOAM: The Open Source CFD Toolbox
   \\    /   O peration     | Website:  https://openfoam.org
    \\  /    A nd           | Version:  9
     \\/     M anipulation  |
\*---------------------------------------------------------------------------*/
FoamFile
{
    format      ascii;
    class       volScalarField;
    location    "0.00325";
    object      overpressureMax;
}
// * * * * * * * * * * * * * * * * * * * * * * * * * * * * * * * * * * * * * //

dimensions      [1 -1 -2 0 0 0 0];

internalField   nonuniform List<scalar> 
28316
(
4.50544e+06
8.02734e+06
1.91444e+06
2.98338e+06
2.10908e+06
2.60777e+06
3.66504e+06
1.95603e+06
1.53136e+06
4.04532e+06
1.40709e+06
2.10001e+06
1.4643e+06
2.6189e+06
1.45247e+06
8.96741e+06
6.75522e+06
7.71252e+06
3.40368e+06
2.67239e+06
2.99964e+06
2.84171e+06
2.58084e+06
2.81675e+06
2.63505e+06
4.05173e+06
3.70837e+06
2.5073e+06
2.63042e+06
2.53359e+06
4.01526e+06
1.91574e+06
1.86194e+06
1.61555e+06
1.54298e+06
1.90283e+06
1.86981e+06
1.62411e+06
5.35694e+06
4.70353e+06
6.1408e+06
1.61828e+06
1.59137e+06
1.40048e+06
1.42092e+06
1.58467e+06
1.62721e+06
1.41012e+06
1.6576e+06
1.44333e+06
1.709e+06
1.44559e+06
1.67216e+06
1.42909e+06
1.6896e+06
2.61718e+06
2.85696e+06
2.87991e+06
1.60653e+06
1.69381e+06
1.4329e+06
1.40252e+06
1.67506e+06
1.62366e+06
1.38316e+06
1.98592e+06
1.80646e+06
1.75585e+06
1.92987e+06
2.00213e+06
1.79515e+06
1.74497e+06
2.06583e+06
2.06893e+06
1.87593e+06
1.71946e+06
1.89063e+06
1.97009e+06
1.71353e+06
2.15273e+06
2.17549e+06
1.93571e+06
1.88332e+06
2.12178e+06
1.86697e+06
1.91472e+06
2.68251e+06
4.92956e+06
2.71168e+06
4.94846e+06
2.75229e+06
2.70526e+06
4.48608e+06
2.13126e+06
1.9089e+06
1.79739e+06
2.00853e+06
1.88844e+06
1.98962e+06
1.81589e+06
218902
76.2297
9.79784
0.096579
0.0106552
1359.61
0.945484
0.0587503
3400.92
216669
76780
203438
145992
79765.4
6404.54
46226.9
21542.2
7403.15
7237
49953.6
34944.6
48288.7
207676
132095
204402
195342
160067
375412
210479
212420
152571
151881
169876
136728
136514
172210
17590.3
6687.71
8343.77
20860.4
8337.44
16509.6
22390
21089.3
33699.9
27657.4
45902.2
21442.6
33296.3
27280.5
202624
150811
149486
167204
135281
135990
164364
36396.2
76542.8
101655
89672.7
115910
96869.8
116674
182489
232423
197889
224007
238012
226907
111291
83808.9
98367
133827
84002.4
98513
112197
341076
262442
306776
247306
356543
307298
329359
160597
291507
974.897
0.998762
11.5124
5904.69
81779.1
116399
1388.2
0.656711
0.559065
8.66175
104.857
27.3315
137.469
0.0747936
0.0501672
0.103453
0.0872244
0.0155785
0.171327
0.0148816
0.00308815
0.0057463
0.00389896
0.00082431
0.025021
0.00167728
0.000202264
0.000315423
0.000181067
4.2391e-05
0.00185755
0.000134889
1.32621e-05
1.60778e-05
8.41019e-06
2.00776e-06
0.000112376
9.0313e-06
8.08417e-07
6.88335e-07
3.43542e-07
8.06176e-08
163773
262118
233.008
0.515471
9.50067
4194.33
76436
87815
628.026
0.329728
0.375175
5.90177
53.2769
9.12612
44.5914
0.0274539
0.0272544
0.0563545
0.0405179
0.00652518
0.0805788
0.00689837
0.00148926
0.00319027
0.00186686
0.000384915
0.0110827
0.000689723
9.62479e-05
0.000175133
9.10886e-05
2.0984e-05
0.000749867
5.8173e-05
6.25146e-06
8.66161e-06
4.29699e-06
1.00074e-06
4.81868e-05
4.0671e-06
3.75439e-07
3.56624e-07
1.73473e-07
3.95958e-08
211760
216418
0.995334
2.69649
1380.46
44080.6
13698.3
46.6119
0.139266
0.143766
1.78907
6.74393
0.38155
0.962705
0.0142209
0.00726595
0.0183304
0.00999901
0.00231569
0.0250697
0.00206842
0.000453801
0.00110488
0.000527091
0.000138276
0.00251438
0.000205565
2.80298e-05
5.69014e-05
2.66533e-05
6.61054e-06
0.000197963
1.64581e-05
1.69185e-06
2.48991e-06
1.17929e-06
2.74536e-07
1.26857e-05
1.08026e-06
9.73087e-08
9.11823e-08
4.33793e-08
9.83709e-09
199886
5376.88
464.335
13.9649
139.93
3701.61
161.077
30.0531
3.31619
0.231089
0.308111
0.312941
0.0176601
0.382746
0.0551327
0.0110338
0.0073912
0.00245298
0.00060412
0.0249921
0.0036261
0.000630005
0.000342437
0.000123563
2.59233e-05
0.00156916
0.000228754
3.22074e-05
1.30708e-05
4.92201e-06
1.05031e-06
9.464e-05
1.35324e-05
1.61518e-06
4.67408e-07
1.7196e-07
3.83734e-08
5.16867e-06
6.99467e-07
7.45495e-08
1.57452e-08
5.26779e-09
1.22236e-09
179360
170020
158193
16228.9
2.49359
128134
73062.4
15759.3
232.374
34.4213
0.190892
16979
263.295
2.30245
0.0748592
0.00782651
0.00172892
2.22955
0.149528
0.0136431
0.00257191
0.000325609
6.46548e-05
0.018994
0.00609258
0.000842631
0.000108709
1.37645e-05
2.48957e-06
0.00135765
0.000303896
4.58103e-05
4.8996e-06
5.64018e-07
9.50822e-08
8.32844e-05
1.61671e-05
2.25168e-06
2.17595e-07
2.25118e-08
3.40515e-09
4.29038e-06
7.68807e-07
9.8109e-08
8.90577e-09
7.71252e-10
1.45519e-11
254836
206630
63633.2
129.401
1.68407
0.0252808
3292.58
128592
5077.96
11.3219
0.0233751
0.00237323
362.566
155.868
0.450026
0.0085131
0.00102748
0.000110234
0.902923
0.029763
0.00448113
0.000521877
5.06748e-05
5.07903e-06
0.00828772
0.00173435
0.000290169
2.85834e-05
2.46186e-06
2.29309e-07
0.000564042
0.000103659
1.58706e-05
1.45046e-06
1.15935e-07
9.8662e-09
3.19147e-05
5.82426e-06
8.05972e-07
7.05186e-08
5.23869e-09
3.20142e-10
1.55451e-06
2.84766e-07
3.64817e-08
2.98314e-09
1.16415e-10
0
3124.44
2012.39
4.74252
0.128767
0.0131795
0.00124497
522.793
2108.61
1.37637
0.012747
0.0011722
0.000100769
0.934535
0.419678
0.0107148
0.000981258
7.99255e-05
6.32137e-06
0.0238041
0.0052202
0.000693147
6.24127e-05
4.81377e-06
3.59869e-07
0.00152192
0.000298745
3.93553e-05
3.55767e-06
2.67435e-07
1.89611e-08
9.10555e-05
1.64816e-05
2.12355e-06
1.90557e-07
1.39407e-08
8.87667e-10
5.00816e-06
8.84625e-07
1.09634e-07
9.61882e-09
5.96629e-10
0
2.44821e-07
4.23315e-08
4.91855e-09
3.20142e-10
0
0
1.45961
0.59567
0.0347306
0.0051066
0.000523589
4.51678e-05
0.407953
0.310482
0.00834323
0.000763359
6.21422e-05
4.60922e-06
0.030368
0.00605446
0.00073973
6.50791e-05
4.99369e-06
3.49421e-07
0.00212868
0.00040418
5.0195e-05
4.51942e-06
3.39918e-07
2.27737e-08
0.000142938
2.50721e-05
3.11274e-06
2.81289e-07
2.07656e-08
1.26602e-09
8.71907e-06
1.48338e-06
1.80167e-07
1.60653e-08
1.10595e-09
0
4.91316e-07
8.21601e-08
9.67702e-09
7.567e-10
0
0
2.43745e-08
3.92902e-09
3.92902e-10
0
0
0
0.0243201
0.0152366
0.0025184
0.000260705
2.39608e-05
1.86918e-06
0.0130704
0.00305701
0.000420055
3.86604e-05
3.08394e-06
2.15339e-07
0.00159815
0.000313569
3.91081e-05
3.57541e-06
2.74842e-07
1.82335e-08
0.000135764
2.40053e-05
2.96398e-06
2.71248e-07
2.03727e-08
1.23691e-09
9.79329e-06
1.65272e-06
1.9974e-07
1.80735e-08
1.25146e-09
0
6.26911e-07
1.0326e-07
1.21508e-08
9.60426e-10
0
0
3.65835e-08
5.77711e-09
5.52973e-10
0
0
0
1.76078e-09
2.03727e-10
0
0
0
0
0.00292782
0.000662413
0.000108945
1.15226e-05
1.04606e-06
7.81438e-08
0.000622101
0.000132596
1.7792e-05
1.71467e-06
1.39073e-07
9.48785e-09
7.91497e-05
1.4417e-05
1.81659e-06
1.71058e-07
1.3315e-08
7.71252e-10
7.19687e-06
1.22808e-06
1.50088e-07
1.38243e-08
9.60426e-10
0
5.46701e-07
9.00473e-08
1.0652e-08
8.58563e-10
0
0
3.64089e-08
5.77711e-09
5.52973e-10
0
0
0
2.09548e-09
2.32831e-10
0
0
0
0
0
0
0
0
0
0
861.163
2.21127
464.264
1.69786
0.492373
2.26103
0.408949
1.67339
13.9712
2740.82
10.5635
2271.53
69175.6
12635.8
77737.5
70430.4
10966
79446.2
249710
95434
148368
160524
248238
96964.1
148498
4.02524
1372.09
5.04098
745.921
3.25529
1162.65
3.96153
1.57321
0.929313
0.498827
0.836022
1.13512
0.775043
0.408894
1257.44
3.15239
15.6504
7.21651
988.908
2.44585
11.6212
64779.4
42.7558
634.402
4821.29
62043.4
31.4206
449.728
301.627
1.23683
0.624888
0.272994
1.34296
0.169403
0.527924
8.65717
2004.17
3.65
1056.34
76271.2
9975.68
80545
83135.8
5979.26
80443.1
273953
98002.4
148786
213485
269586
98561.4
137668
4.65353
631.416
6.21229
2.21964
117.626
2.57043
0.802623
0.525773
0.259987
0.314939
0.468732
0.259033
0.144901
839.185
1.79357
11.2997
5.27176
372.426
0.949655
7.9236
59743.9
25.5858
356.073
2008.38
42612.4
10.8752
119.419
0.957184
222.658
0.425318
0.365849
121.942
11.9734
2.3203
764.668
5.18401
181.114
132914
4530.88
76928.6
134975
1253.5
42160.4
266557
94601.4
121927
207324
252669
52672.9
24644.6
2.92124
53.2639
1.63214
90.8228
90.1828
18.9419
0.467476
0.374281
0.135479
59.1212
4.37173
2.89986
0.860815
249.581
0.446941
4.03355
2.056
46.3743
0.386741
1.81821
32822.9
7.91034
71.6691
285.363
6603.33
4.36467
10.8975
1420.76
47004.8
847.806
103.194
47187.9
31585.2
40.8751
95.1602
19740
1478.58
134948
668.691
24623.4
134064
611.654
1611.86
246439
30825.9
7562.14
189632
87918
1437.54
79.7816
3464.02
561.62
944.047
50093.3
13277.5
18828.9
37.1134
9.92864
4.02532
43092.2
12003.4
727.78
35.1174
19.382
2.05858
0.980898
4873.09
211.162
12.0783
3.40307
3114.08
4.29442
5.09775
84.7664
169.536
1.63784
2.47026
173741
82384.7
77728.7
221241
213780
139032
120839
165258
61724.6
5727.63
211408
208710
81671.8
2504.15
118520
2134.33
585.534
170145
13873.4
646.421
11.1617
461799
326028
314208
470213
259404
606199
530445
110072
996.05
392546
221033
146637
780.483
846.723
0.306135
256115
235764
313.51
23.6795
0.117586
0.00418904
160003
8534.01
0.209124
0.0176016
0.00204335
0.000176019
33.143
0.248884
0.00715832
0.00122727
0.000102965
8.43153e-06
0.00976976
0.00214625
0.000362186
4.97182e-05
4.80558e-06
3.90661e-07
74751.1
75559.7
478573
324004
406038
476810
378707
404484
81542.5
88344.5
485382
327701
403873
473826
327372
393529
168782
610896
169261
467105
322009
378931
556881
436877
316853
369261
580358
167422
474846
167107
422741
259975
294541
427156
368407
242947
222610
234885
313194
222700
213917
435237
403074
293665
250393
547257
207665
199792
395991
379160
248519
246192
421086
189723
207642
360585
311164
238036
100885
234033
187682
108273
166974
176191
141834
140579
149557
130238
129518
151141
168022
136468
134355
146164
127889
127136
146986
148118
128773
122974
67068.2
81126.9
56096.6
100664
77.8756
866.922
92.2804
784.416
785.091
84.7191
85.3637
8.66628
1.34836
10.8363
2.13559
1.27721
10.0608
9.39939
63.4304
638.878
448.478
51.9596
630.862
69.9999
46.0884
7.19939
1.94883
0.94182
6.45843
1.15558
8.37437
5.42219
0.137276
0.244746
0.266178
0.484182
0.236986
0.258039
0.142738
0.413053
2.78411
0.476659
2.16319
2.66083
0.463767
0.431677
0.126854
0.444856
0.192956
0.207804
0.223013
0.239428
0.107634
0.368361
1.9458
2.07413
0.365458
2.40816
0.397205
0.317747
113.922
18.7926
86.2191
13.4384
18.0083
82.7766
118.386
669.026
3506.55
510.011
2651.52
3400.79
491.299
692.953
106.273
12.0915
14.4631
66.4911
16.5586
75.7206
94.4908
626.239
2491.32
2975.97
409.102
3221.63
457.369
567.073
69207.7
116548
116453
84915.7
104466
104595
84664.4
25549.8
13845.3
34395.1
12308.1
13573.2
34137.6
25468.2
117504
72949.6
119815
85912.3
106984
105409
87656.8
25710.8
11746.9
12455.6
33101.7
13117.1
33738.6
25816.1
17.7821
282.56
34.7476
30.018
21.3146
2.34024
0.640764
4.58555
0.818655
3.69209
0.413634
3.17703
1.38496
0.657218
0.269968
1.41294
0.301444
1.91857
0.964288
0.0552201
0.133578
0.150006
0.208288
0.0794331
0.0925738
0.109241
0.192171
1.68565
0.263068
1.05588
0.248414
1.30754
0.225257
0.0411083
0.156166
0.0843776
0.102904
0.0710052
0.0790085
0.0470084
0.133405
0.752618
0.650186
0.127685
0.944817
0.148651
0.100479
64.0688
12.0265
57.5021
6.96387
78.7373
9.54469
46.1071
416.192
2673.64
349.373
1699.57
495.417
2322.66
287.382
49.5917
5.05763
5.04621
25.0499
7.12877
35.0558
36.368
333.853
1375.61
1545.14
166.698
1938.2
224.945
254.389
122885
79833.7
126089
92390.2
109034
89922.5
111260
25935.5
11578.4
32104.3
8788.04
25892.7
10466.4
30552.3
128857
131125
86079.2
94670.9
114858
113255
96587.2
25768.3
7436.48
7705.24
25024.6
9145.1
28226.2
24955.6
9.88568
0.790071
1.84768
4.43426
1.69216
5.30567
8.44779
70.4005
31.3619
276.727
374.592
40.4421
56.029
451.239
1.20398
0.342559
0.233835
2.17743
0.158917
2.60428
1.01384
0.545778
0.443902
0.135366
0.40611
0.114413
0.465381
0.463493
10.4754
16.1633
158.095
61.4158
21.3695
7.98122
84.2711
4.61569
1.69313
17.3165
29.1545
2.09084
3.42471
39.7032
15.8668
3.31618
17.0189
1.55255
24.8749
2.12229
10.5078
122.52
1168.63
115.794
516.954
182.719
832.358
75.0502
9.56303
1.46281
7.70299
4.89122
1.90009
6.30748
7.71218
75.3567
321.119
328.773
24.7657
549.187
44.5312
42.99
134201
88742.9
91214.5
99394.6
116047
98141.5
116824
21486.7
6274.56
20953.1
3210.01
23536.4
4869.72
16253.1
135227
93467.1
95500.1
100351
117212
117216
100889
18567.6
2103.31
2322.53
7286.23
3512.62
11502.5
14508.4
10640
1660.13
2224.44
7808.08
2524.24
8105.95
11308
21868.7
28075.3
28743.7
46833
20963
31747.5
28511
3570.37
1029
467.112
5084.69
601.264
5596.97
3093.88
2189.13
157.889
231.575
850.219
325.124
1228.04
1721.49
14821.8
22701.6
28974.3
46074.3
18640.7
16533.7
29205.4
10894.2
6159.21
28846.3
40995.7
7568.91
10811.2
29437.2
259.994
67.6264
17.1864
369.338
29.9052
604.995
142.065
114.545
178.748
17.0684
59.2768
31.25
121.202
58.267
2365.61
3011.03
25772.5
9775.16
4612.8
1276.17
18622.1
1026.37
195.854
4363.42
3994.96
449.834
481.329
10135.3
134144
98705
97244
89503.9
116589
98099.3
110517
5600.94
1360.82
4084.6
324.72
9760.52
709.506
2017.17
134207
107965
102217
74818.5
72585.6
95704
58050.4
2766.88
190.315
1856.9
556.847
444.54
910.137
1699.4
171791
139391
138140
148463
128456
128955
147688
161664
131409
128041
142788
107011
123561
127449
335504
291501
277498
502681
348080
304059
583224
235972
462944
225921
452147
309107
289878
510609
214221
417249
216321
405401
290340
74462.5
155126
154729
109499
229169
228390
110191
155429
78138
157618
109700
229902
228367
111265
160513
85128.2
163433
116787
232571
113653
235715
165860
167627
91126.7
120113
240411
238435
123317
169311
93490.9
95631.3
127986
241480
126019
241189
246590
639354
727182
353813
762959
361803
242440
168631
97618.9
99501.8
129295
236692
239558
130076
165594
102753
101262
130091
232647
130367
227461
163213
115238
104238
129048
217445
221314
131348
228385
165257
162261
286969
199981
206116
277464
325124
248822
476248
263112
489396
316498
217827
159405
156646
262149
193822
187652
269099
210711
153757
150601
256556
173740
180780
251926
299905
565148
216067
428434
220226
440985
295027
204276
147031
142859
243722
166689
159895
247837
193960
137939
132308
238751
147472
153418
232944
193739
131283
140762
230342
144109
151231
227827
229637
690333
343554
548208
236939
650304
331154
220856
514496
555969
302369
607643
317108
210509
183206
144800
143260
131132
132193
153202
155721
32.6429
3262.92
230441
46.9954
66.0053
25.3542
886.705
600.066
4703.3
46472.4
50178.6
249061
282402
197585
110286
148378
177.047
159.48
9.74481
94.3623
39.4745
7.08445
81.7335
12.1221
5.51926
18.3699
22.1572
5.44519
31.5441
4.86505
34.8227
15.5146
115.753
152.978
1017.34
592.369
181.126
95.113
695.556
13069
5055.77
3301.59
18359.9
3628.31
15045.9
15066.4
21980.5
33997.6
27984.7
46666.5
21742.5
33613.1
28264.2
241854
168262
171375
297413
219342
212601
308495
161428
134356
148018
192515
146438
133313
158498
16.7218
3226.76
122076
390.895
12.3578
3.3364
0.753612
84877.8
67456.5
76248.9
94419.6
42336.9
124736
8780.07
35652.9
2014.44
90.1121
122299
45616.5
2991.46
68.9658
660.201
28.4826
2.5465
14517.8
243.976
17.6569
1.51136
55.1477
1.66382
0.667282
60.4266
1.72679
0.838332
0.223393
195546
189240
225164
210412
239651
179963
131623
227357
139757
220773
150719
97806.2
78791.9
1291.03
219453
643.836
207663
42875
602.53
252.234
2.09907
95996
1633.81
1.77311
137.735
2.52706
1.86872
0.609974
62384.1
84891.6
60035.5
77961.9
85020.4
60194.6
62145
63072.3
78530.3
86843.6
61073.9
85654.2
60576.5
64178.5
67223.8
88372.3
61508.6
81545.4
65616.8
90035.3
61578.1
68735.2
81711.9
92805.5
58619.3
91566.9
60803.1
69993.6
71430.9
93706.2
54382.5
69965.5
70976.3
94311.8
47177.4
70061.1
58299.5
89297.6
24943.4
93949.7
36872.8
64976.3
39929
78428.9
14213.7
11104.7
54886.6
59092.8
6846.34
23103.4
4391.7
14246.2
1233.9
33994.9
2984.33
10684.8
122512
96787.1
82289.5
106718
96586.2
123550
106244
121780
96251.7
82255.5
103162
96429.6
121215
105959
115219
95948.9
36679.8
88257.9
89116.3
120642
56617.2
93669.5
41480
15849.4
8066.37
69405.3
57039.7
24293.8
132249
136446
123187
41160.3
48138
48320.9
22941.4
9518.4
18681.6
937.97
2739.12
8231.64
24994.9
981.979
4339.23
5746.42
723.285
196.411
6534.28
2149.05
418.91
130.243
31615.9
226340
374150
346197
318940
12103.7
287624
241546
225195
298728
366025
281189
294389
283230
199612
248714
343669
299096
256227
249836
247460
3639.38
245684
294382
291548
248199
174904
209452
14845.9
7.12844
303350
76320.7
28709.6
379.618
310594
460936
317356
372456
277375
389732
316973
189422
202171
164075
248782
242878
197889
261720
126555
82862.1
97377.6
82579.9
97039.2
107396
124914
109254
128356
83202.3
97760.4
83531.6
130231
98099.3
118283
904.112
653.363
78905.4
109624
624.192
398.719
102706
485.949
282.679
56664.8
54988.5
151.466
55.7003
32818.1
87.0358
26.2973
8345.77
2226.11
10.8179
2.02972
649.851
4.3626
1.14367
139.12
7.11368
1.63688
0.498228
1.30371
0.297619
0.10025
0.721435
0.167116
0.0548586
0.0123465
2234.82
1.07786
3.09983
0.359753
0.624324
0.0275212
0.118885
0.00876812
0.0828734
0.00495854
1193.62
420.36
116.069
1.96509
1.25942
13348.8
0.249984
0.0265639
0.00164591
0.738952
0.0445423
0.00660272
0.000378181
0.596838
0.0422381
0.0100394
0.000660995
3.79976e-05
0.036321
0.00779679
0.000645844
4.38284e-05
2.72633e-06
0.00317032
0.000368484
3.21472e-05
2.3895e-06
1.59693e-07
574516
654799
490347
473072
938547
897202
497855
1.3099e+06
450500
473123
633216
492896
504694
955473
905337
345590
1.20187e+06
451013
411241
462265
536105
507447
556767
1.03518e+06
896987
332628
1.03595e+06
575944
437277
301179
494475
497182
584212
239878
1.0792e+06
961621
751304
289299
1.05438e+06
845348
368161
565067
572088
16.5762
457298
656407
722367
561730
1939.84
681287
279640
13047.6
38.4808
0.184607
320128
406304
647.271
1549.78
0.558021
12888.8
1.7299
0.244545
0.015634
248423
235129
0.534748
0.0246096
0.00909118
14718
0.877599
0.0402895
0.00634241
0.000489712
1.44653e+06
1.3822e+06
918468
1.33479e+06
976039
941641
928256
1.27379e+06
937629
1.45351e+06
1.35974e+06
778258
1.23481e+06
750364
478082
1.35484e+06
1.25199e+06
1.3183e+06
1.16294e+06
737633
1.08013e+06
702576
448814
1.0387e+06
1.19324e+06
1.22101e+06
1.18302e+06
1.21792e+06
977791
953378
1.09719e+06
864048
1.00599e+06
856897
913526
781302
1.10531e+06
1.13903e+06
936946
685368
895373
1.0476e+06
1.17851e+06
591651
825398
872246
860124
987933
1.12189e+06
910356
725880
807921
841534
721717
811301
856192
697805
783844
657794
687171
606421
1.14954e+06
949685
839966
880970
797611
702700
680624
703311
412539
627946
1.18408e+06
1.28977e+06
1.16773e+06
934431
1.24935e+06
918577
1.01301e+06
957538
1.15249e+06
828859
1.09681e+06
1.16463e+06
1.06685e+06
977157
990716
941689
975585
974090
907043
812223
794481
764328
511155
725158
737865
351327
448531
512336
512517
740955
727739
661290
457931
528381
504375
458855
607355
591726
530424
520900
441066
423584
340480
662886
517917
1.42378e+06
1.42761e+06
1.41256e+06
1.4069e+06
1.39273e+06
1.40368e+06
1.25261e+06
1.34826e+06
1.2228e+06
1.31694e+06
1.33546e+06
1.20662e+06
1.26662e+06
1.23862e+06
1.29688e+06
1.31015e+06
1.16829e+06
1.32485e+06
1.18844e+06
1.21967e+06
1.42874e+06
1.39731e+06
1.26459e+06
1.12439e+06
1.14748e+06
234712
761785
908486
356234
923474
356651
234477
1.38361e+06
1.32724e+06
1.36825e+06
1.29606e+06
1.29757e+06
1.3411e+06
1.27378e+06
1.21948e+06
234652
891887
356889
728094
234359
872801
360467
1.12339e+06
1.00855e+06
1.0384e+06
1.27957e+06
1.24276e+06
1.29577e+06
1.12358e+06
1.34739e+06
1.18139e+06
1.22018e+06
1.28937e+06
1.32027e+06
1.2683e+06
1.13786e+06
1.37701e+06
1.22938e+06
1.19663e+06
1.19954e+06
1.04929e+06
1.03271e+06
1.05426e+06
1.10852e+06
1.13695e+06
1.11509e+06
1.00454e+06
1.14581e+06
1.00883e+06
1.03666e+06
1.05565e+06
1.08901e+06
959814
948188
974310
958184
857934
1.02472e+06
908133
889263
1.19645e+06
1.04866e+06
1.12251e+06
1.23318e+06
1.04941e+06
1.12987e+06
992605
985412
1.05219e+06
248252
820023
368939
664313
247000
794657
367147
943801
858287
901688
1.08688e+06
1.20715e+06
1.21674e+06
1.07119e+06
1.2119e+06
1.09282e+06
1.09738e+06
934557
789982
872722
995665
833135
975730
967779
881837
868715
987041
985638
868637
1.01703e+06
1.16275e+06
1.0519e+06
1.03001e+06
1.10518e+06
1.06273e+06
972143
955823
959079
977232
847586
1.03293e+06
889976
906228
932799
939435
871234
808599
967629
894415
845412
882974
788030
758513
763948
825177
838465
807305
776467
892079
808876
801554
831288
829596
760270
724886
747845
711654
656023
771466
711418
671196
1.2451e+06
1.05161e+06
1.12295e+06
913787
1.05686e+06
951047
877662
1.00307e+06
921078
824935
859706
892936
757455
838697
768818
726888
798959
742463
656391
715290
379376
733958
306107
536444
322883
559920
362490
646675
235837
948175
361390
770998
937051
358604
238353
238729
716832
840897
367931
857398
364814
243474
509202
669211
758825
641848
502640
667075
767290
770803
729008
627220
900368
759737
713001
615937
754764
685468
528110
912600
712622
647045
510470
562567
615361
497918
473458
664314
657721
450367
625214
837117
478116
489063
869557
846882
687071
686550
503824
796013
596628
662892
473172
500730
772428
846868
463743
493778
628763
737768
542887
865443
821910
510270
568102
761171
692981
563111
544200
457336
609803
468486
490595
397129
1.29142e+06
1.14715e+06
1.22471e+06
1.19406e+06
1.26598e+06
1.12481e+06
1.16554e+06
1.19566e+06
1.19531e+06
1.05608e+06
1.23456e+06
1.0958e+06
1.10055e+06
1.1364e+06
494940
644690
776713
570528
465607
626071
816648
440066
423304
372562
392909
12957.1
348737
23542.4
232447
213547
145494
1.35606
0.10328
1.03892e+06
1.38517e+06
982109
993228
2.03557e+06
985362
621158
1.14553e+06
874899
1.06865e+06
981594
1.79395e+06
403520
576846
617575
1.01493e+06
1.28208e+06
1.44741e+06
398156
473210
823025
309973
290209
431783
182202
271442
837.651
0.718683
0.185077
0.0159387
0.00136015
175305
1.39674
0.0765987
0.010315
0.00109791
8.82768e-05
57.7275
0.612164
0.0281034
0.0041779
0.000357398
2.77762e-05
0.0177807
0.00463505
0.00055006
5.75191e-05
4.67124e-06
0.0363209
0.00690724
0.00131738
0.000186563
1.79651e-05
1.43977e-06
1.23631e+06
1.90496e+06
1.07166e+06
1.02194e+06
1.84812e+06
948437
1.79978e+06
996085
950164
1.72286e+06
2.28007e+06
2.08572e+06
1.8649e+06
994800
1.82911e+06
1.00117e+06
985493
1.71482e+06
955292
1.69918e+06
1.28038e+06
1.01364e+06
1.58691e+06
2.00912e+06
1.73579e+06
1.55399e+06
1.27788e+06
1.62879e+06
860157
1.22099e+06
1.29013e+06
1.51351e+06
1.61282e+06
1.25083e+06
1.81459e+06
1.98894e+06
1.77595e+06
2.52951e+06
2.45293e+06
1.61004e+06
1.71659e+06
1.54409e+06
2.00071e+06
1.81788e+06
1.3085e+06
1.33723e+06
1.21685e+06
1.33463e+06
1.19047e+06
456909
1.62067e+06
1.59728e+06
1.99381e+06
1.88216e+06
1.60162e+06
1.97182e+06
1.61228e+06
1.65263e+06
2.06723e+06
2.04432e+06
1.67553e+06
1.62964e+06
1.8632e+06
1.62746e+06
1.96371e+06
1.60866e+06
1.95945e+06
1.65263e+06
1.53349e+06
1.57349e+06
1.67924e+06
1.77532e+06
1.5738e+06
1.65478e+06
1.53673e+06
1.48254e+06
1.55795e+06
1.53734e+06
1.49039e+06
1.53616e+06
1.75109e+06
1.59245e+06
1.60427e+06
1.57693e+06
1.62964e+06
1.54333e+06
1.47757e+06
1.49387e+06
1.5171e+06
1.47302e+06
2.5406e+06
2.22434e+06
2.47579e+06
2.59823e+06
2.6645e+06
2.15747e+06
2.33305e+06
2.40276e+06
1.62145e+06
1.59043e+06
1.93057e+06
1.67144e+06
1.72696e+06
1.50401e+06
1.54988e+06
1.83211e+06
2.10347e+06
1.74852e+06
2.11017e+06
1.79e+06
1.67585e+06
1.96884e+06
1.80651e+06
1.71625e+06
1.72829e+06
1.94766e+06
1.87067e+06
1.97169e+06
2.06077e+06
1.84925e+06
1.81936e+06
1.77177e+06
1.72558e+06
1.84556e+06
1.74628e+06
1.90961e+06
1.80164e+06
1.56377e+06
1.62429e+06
1.58161e+06
1.67664e+06
1.55352e+06
1.65295e+06
1.55413e+06
1.46797e+06
1.46637e+06
1.47013e+06
1.43724e+06
1.55639e+06
1.64003e+06
1.62973e+06
1.46838e+06
1.65696e+06
1.51669e+06
1.52202e+06
1.45076e+06
1.35691e+06
1.4029e+06
1.4088e+06
2.25472e+06
1.92408e+06
2.1715e+06
2.17832e+06
2.3336e+06
1.83739e+06
1.94427e+06
2.07127e+06
1.45256e+06
1.3987e+06
1.63986e+06
1.39836e+06
1.47503e+06
1.26828e+06
1.33575e+06
1.64082e+06
1.84984e+06
1.77176e+06
1.69966e+06
1.62836e+06
1.66441e+06
1.7443e+06
1.5227e+06
1.73588e+06
1.56788e+06
1.6174e+06
1.47848e+06
1.39223e+06
1.5438e+06
1.3169e+06
1.49316e+06
1.40629e+06
1.32781e+06
1.34546e+06
1.45062e+06
1.48129e+06
1.34921e+06
1.38003e+06
1.56973e+06
1.403e+06
1.42209e+06
1.46098e+06
1.48176e+06
1.32024e+06
1.79824e+06
1.48408e+06
1.64652e+06
1.48642e+06
1.64655e+06
1.36146e+06
1.37101e+06
1.50315e+06
1.04294e+06
1.25003e+06
1.17087e+06
1.11743e+06
1.08336e+06
1.17759e+06
1.0745e+06
1.29265e+06
987516
1.11358e+06
1.01737e+06
716418
890143
685055
908036
698828
844154
676802
942511
1.09648e+06
886841
842404
717498
884901
766333
688573
821579
647777
698698
606135
661500
624920
613606
686104
801835
499253
499354
672328
806555
623887
485921
628974
751728
408066
437350
529145
574029
383988
227921
227436
67516.3
52258.7
8.34696
2.22443
0.083549
0.296251
356007
276655
263557
385424
360604
270322
181863
179790
343519
245697
239699
354613
256375
177213
174366
331913
226315
233271
320097
991602
881667
1.10085e+06
614329
446716
419756
820532
363355
398614
773672
342320
586390
1.25379e+06
3.09926e+06
2.83455e+06
2.21202e+06
1.41563e+06
2.14661e+06
2.16258e+06
2.8773e+06
2.2261e+06
2.10985e+06
2.42949e+06
1.95398e+06
1.42244e+06
1.5945e+06
781094
1.22349e+06
628531
870171
1.25933e+06
1.46578e+06
985825
2.81577e+06
3.01502e+06
2.74103e+06
2.75833e+06
1.9922e+06
1.25196e+06
418330
623508
389160
1.64515e+06
1.66475e+06
2.07456e+06
2.12649e+06
1.68149e+06
2.05378e+06
1.63296e+06
2.12178e+06
1.70118e+06
1.68498e+06
2.93781e+06
1.77587e+06
2.25509e+06
1.8632e+06
2.21577e+06
1.85191e+06
1.88825e+06
2.61508e+06
1.74711e+06
1.77838e+06
1.58644e+06
1.5984e+06
1.24768e+06
1.40994e+06
1.78618e+06
851974
1.02838e+06
1.15867e+06
1.07956e+06
957231
914642
1.03384e+06
777116
969284
752127
874227
825648
949972
720751
1.10351e+06
1.11487e+06
982242
1.47609e+06
1.28243e+06
1.30236e+06
1.13211e+06
1.03307e+06
1.16828e+06
1.35178e+06
2.20873e+06
1.27945e+06
2.25343e+06
3.39222e+06
3.17539e+06
1.14294e+06
2.34148e+06
1.01943e+06
2.21479e+06
3.15958e+06
2.67965e+06
1.01593e+06
2.02835e+06
828918
1.40106e+06
2.41538e+06
1.68019e+06
1.76172e+06
1.6991e+06
2.26576e+06
2.19079e+06
1.72266e+06
2.25176e+06
1.72934e+06
1.76014e+06
2.19102e+06
1.73147e+06
2.33957e+06
1.72306e+06
2.25774e+06
1.76277e+06
3.68873e+06
3.29954e+06
3.58969e+06
3.22138e+06
3.49624e+06
3.51619e+06
1.87321e+06
1.8024e+06
2.44783e+06
2.38103e+06
1.82643e+06
1.87534e+06
2.48657e+06
1.84827e+06
2.33773e+06
1.81102e+06
2.26818e+06
1.8781e+06
2.4257e+06
1.75175e+06
3.49968e+06
3.07317e+06
3.39818e+06
2.90899e+06
2.91282e+06
3.19701e+06
1.41546e+06
1.67899e+06
2.03876e+06
1.8148e+06
1.59458e+06
1.50444e+06
1.78809e+06
1.24356e+06
1.60189e+06
1.16622e+06
1.33222e+06
1.32698e+06
1.54724e+06
1.0893e+06
2.59977e+06
2.15597e+06
2.29072e+06
1.90914e+06
1.70982e+06
1.99128e+06
415854
466760
384748
641993
406210
669678
442856
1.16214e+06
702601
659484
1.15265e+06
822714
711884
956609
527508
587951
560814
578008
511249
602597
430081
980524
1.15975e+06
984640
1.11365e+06
983216
1.10855e+06
983640
794946
656359
798527
665942
818137
820095
667228
1.3377e+06
1.42742e+06
1.38103e+06
1.21908e+06
1.30341e+06
1.25638e+06
1.26635e+06
955354
761532
730383
709656
728897
1.00481e+06
924114
1.31219e+06
1.30878e+06
1.29101e+06
1.37168e+06
1.47948e+06
1.44077e+06
1.41099e+06
1.00405e+06
1.09367e+06
986362
1.15698e+06
993340
1.1022e+06
985190
664417
686192
838303
657319
807464
826894
673879
594639
588007
552421
567210
563814
518256
512565
1.32536e+06
1.24028e+06
1.21534e+06
1.18423e+06
1.15232e+06
1.21606e+06
1.12892e+06
1.13695e+06
1.28804e+06
1.24554e+06
1.3385e+06
1.29276e+06
1.17846e+06
1.22284e+06
1.31444e+06
1.21167e+06
1.30634e+06
1.33298e+06
1.30238e+06
1.39087e+06
1.32134e+06
534567
567613
503634
582005
543437
563378
507498
1.13401e+06
1.01458e+06
1.02118e+06
981371
1.08178e+06
1.06675e+06
985192
331988
381608
393916
510226
387674
479326
431459
864243
679473
702248
863583
703727
851460
723794
1.11161e+06
1.19024e+06
1.0526e+06
1.04338e+06
1.14499e+06
1.01372e+06
1.15622e+06
1.2163e+06
1.25567e+06
1.15962e+06
1.1874e+06
1.07742e+06
1.15029e+06
1.10466e+06
543210
518324
534061
473652
491097
484070
466211
1.12792e+06
1.09305e+06
1.2675e+06
1.23567e+06
1.19684e+06
1.29118e+06
1.26692e+06
1.00789e+06
1.03483e+06
1.00116e+06
936565
912618
906815
931957
1.05297e+06
914365
958303
977680
1.04623e+06
953996
908567
914309
718287
701294
698195
610813
699171
887552
581987
526879
581137
578424
577815
593957
502249
1.30137e+06
1.05073e+06
1.30624e+06
1.09852e+06
1.32453e+06
1.21667e+06
1.31897e+06
819125
688720
828283
828549
702673
815779
690196
1.03929e+06
978502
949801
1.07621e+06
1.01619e+06
982780
1.11619e+06
1.08266e+06
1.01268e+06
1.06886e+06
967156
1.11132e+06
986902
1.04794e+06
1.31245e+06
1.02812e+06
1.3031e+06
1.03233e+06
1.03334e+06
1.29986e+06
1.32503e+06
495240
449049
469267
507387
523311
476552
457927
1.27078e+06
1.17209e+06
1.29511e+06
1.12701e+06
1.28824e+06
1.04414e+06
1.26561e+06
1.11795e+06
1.02116e+06
1.01402e+06
1.02468e+06
960242
973369
1.04749e+06
1.02704e+06
895896
945612
968133
1.03762e+06
950439
902606
906948
971373
880835
1.02339e+06
989074
896288
921787
570445
390980
602408
564959
611726
426988
469217
897874
729655
818086
801600
869652
870058
743885
1.17442e+06
1.26019e+06
972224
945007
1.00281e+06
1.13481e+06
1.2328e+06
812620
705904
836354
831959
706131
813998
695885
569346
589297
569603
496019
494935
491903
496151
273014
258875
315213
363816
262194
342103
246394
978824
948022
971331
874528
890118
883295
867750
841928
887465
954458
948813
862515
924050
864123
918832
930575
997559
1.05068e+06
944817
959605
1.02411e+06
931323
1.0134e+06
926361
887395
996524
939638
877011
829090
688079
821443
818220
822474
687792
677731
575953
489083
558188
580584
494592
497295
569046
506179
583433
494131
594111
574024
491149
499379
501426
489046
481027
457579
450265
440527
433692
1.02843e+06
1.02062e+06
1.24257e+06
1.00509e+06
1.21473e+06
1.00942e+06
1.21639e+06
840990
810107
718605
721219
839666
806446
731587
943171
846513
859804
937795
959071
873304
858654