/*--------------------------------*- C++ -*----------------------------------*\
  =========                 |
  \\      /  F ield         | OpenFOAM: The Open Source CFD Toolbox
   \\    /   O peration     | Website:  https://openfoam.org
    \\  /    A nd           | Version:  9
     \\/     M anipulation  |
\*---------------------------------------------------------------------------*/
FoamFile
{
    format      ascii;
    class       volVectorField;
    location    "0.0006";
    object      U;
}
// * * * * * * * * * * * * * * * * * * * * * * * * * * * * * * * * * * * * * //

dimensions      [0 1 -1 0 0 0 0];

internalField   nonuniform List<vector> 
6668
(
(5.26453e-07 1.65043e-07 3.0197e-06)
(1.42677e-09 5.99192e-10 6.83947e-09)
(1.37013e-11 5.96277e-12 5.73198e-11)
(1.52408e-13 5.68103e-14 5.78292e-13)
(1.32579e-16 0 4.28587e-15)
(1.80666e-06 6.74549e-07 9.55639e-06)
(5.24562e-09 2.46307e-09 2.22497e-08)
(1.14431e-10 5.42442e-11 4.91334e-10)
(1.68311e-12 8.45788e-13 8.29379e-12)
(1.39621e-14 4.51687e-15 1.0499e-13)
(3.33077e-05 -2.51191e-05 0.00010628)
(1.3201e-08 -8.46802e-09 3.10845e-08)
(1.32047e-10 -8.41008e-11 4.21398e-10)
(1.47865e-12 -8.63487e-13 5.48323e-12)
(1.20647e-14 -5.57038e-15 6.13629e-14)
(0 -3.27063e-18 2.16977e-20)
(6.40222e-08 -7.4954e-08 5.05176e-07)
(2.54912e-07 -8.94503e-08 8.41557e-07)
(3.11093e-06 5.03052e-07 1.69856e-05)
(5.99033e-07 4.58058e-08 2.25656e-06)
(2.76766e-09 -2.20639e-09 1.41057e-08)
(9.31681e-10 -4.72332e-10 3.42366e-09)
(6.88744e-09 -3.54844e-10 3.25659e-08)
(2.22742e-09 -5.45482e-11 8.65278e-09)
(6.89142e-11 -4.89391e-11 3.04954e-10)
(9.99808e-12 -5.39859e-12 4.18564e-11)
(1.12015e-12 -7.74778e-13 5.4073e-12)
(1.09494e-13 -4.85399e-14 4.47387e-13)
(8.21992e-15 -4.62195e-15 7.36631e-14)
(0 0 2.5853e-15)
(2.66239e-11 -6.25908e-13 1.22985e-10)
(3.06954e-13 -9.96448e-15 1.4102e-12)
(1.19321e-15 -4.36909e-17 1.21062e-14)
(1.79963e-10 -8.56759e-12 7.46953e-10)
(3.02793e-12 -1.17457e-13 1.38883e-11)
(3.29626e-14 -8.16405e-16 1.99174e-13)
(3.69815e-13 -1.07837e-13 5.83095e-13)
(1.42939e-15 -1.32579e-16 5.5188e-15)
(0 0 4.15262e-18)
(0 0 0)
(6.20801e-08 -3.24186e-08 9.03523e-08)
(1.03598e-09 -5.34013e-10 2.42975e-09)
(9.31951e-12 -4.53836e-12 2.48246e-11)
(8.95239e-14 -3.74371e-14 2.68926e-13)
(3.99599e-16 0 1.34025e-15)
(1.63004e-18 0 0)
(8.12309e-06 -2.09376e-06 2.2396e-07)
(4.94251e-09 -1.28201e-09 -9.6981e-12)
(9.05631e-11 -1.93182e-11 6.2117e-14)
(1.2585e-12 -2.38212e-13 1.27536e-14)
(1.17996e-14 -9.28056e-16 0)
(3.40885e-07 -1.03485e-07 5.82668e-09)
(7.34496e-09 -1.69082e-09 2.45011e-10)
(9.64849e-11 -2.42213e-11 2.96126e-12)
(1.13515e-12 -2.80604e-13 3.12444e-14)
(9.81088e-15 -1.32579e-15 1.06389e-17)
(1.08474e-06 -3.29005e-07 1.54509e-07)
(5.26846e-08 -1.52327e-08 1.02532e-08)
(7.75525e-10 -1.79988e-10 1.51977e-10)
(1.09127e-11 -2.32183e-12 1.97715e-12)
(1.43193e-13 -2.25385e-14 1.86778e-14)
(3.97738e-16 0 7.73274e-18)
(1.36547e-07 -4.88799e-08 6.84355e-08)
(4.17189e-09 -9.21271e-10 1.3918e-09)
(4.52826e-11 -8.42633e-12 1.25848e-11)
(5.35759e-13 -8.81984e-14 1.37061e-13)
(3.96804e-15 0 6.55882e-16)
(0 0 0)
(3.84803e-09 -1.16974e-09 3.70925e-09)
(6.02854e-11 -1.36436e-11 4.13008e-11)
(8.68482e-13 -1.6478e-13 4.76288e-13)
(9.7376e-15 -9.28056e-16 3.67026e-15)
(2.74741e-20 0 0)
(0 0 0)
(3.62397e-11 -1.09542e-11 4.72821e-11)
(7.55933e-13 -1.71856e-13 7.14624e-13)
(1.02869e-14 -1.19321e-15 9.26608e-15)
(5.23707e-20 0 4.82195e-19)
(0 0 0)
(0 0 0)
(6.006e-15 -9.28056e-16 9.20323e-15)
(2.56734e-20 0 6.43282e-19)
(0 0 0)
(0 0 0)
(0 0 0)
(1.94807e-21 0 1.60941e-19)
(0 0 0)
(0 0 0)
(0 0 0)
(0 0 0)
(0 0 0)
(0 0 0)
(0 0 0)
(0 0 0)
(0 0 0)
(0 0 0)
(0 0 0)
(0 0 0)
(0 0 0)
(0 0 0)
(1.89847e-06 -2.52671e-07 2.84454e-08)
(4.58907e-08 -6.28498e-09 -2.64512e-10)
(8.0814e-10 -1.09502e-10 -6.7497e-12)
(1.35084e-11 -1.65375e-12 -6.53699e-14)
(1.8518e-13 -1.58832e-14 -3.31449e-16)
(0.0098144 0.00052525 0.000177466)
(1.36342e-07 2.12339e-09 1.03286e-09)
(2.11291e-09 2.90258e-11 1.4267e-12)
(3.45484e-11 2.88777e-13 3.59584e-15)
(4.97711e-13 1.75733e-15 7.21306e-16)
(7.38264e-07 -1.72319e-07 -1.66107e-09)
(4.68653e-08 -5.63498e-09 2.05787e-09)
(1.01109e-09 -1.05526e-10 2.96091e-11)
(1.63972e-11 -1.58096e-12 3.80428e-13)
(2.08879e-13 -1.38104e-14 2.45272e-15)
(5.40154e-06 2.5369e-07 9.37674e-08)
(8.09568e-08 1.61054e-09 4.48491e-09)
(1.6322e-09 2.85528e-11 7.30726e-11)
(3.01744e-11 3.02482e-13 1.04724e-12)
(4.47066e-13 2.41992e-15 1.23556e-14)
(0.000209354 -4.74377e-05 9.18116e-05)
(1.80095e-06 -2.28938e-07 2.62006e-07)
(6.39802e-09 -8.83027e-10 1.37248e-09)
(1.26098e-10 -1.4818e-11 2.89065e-11)
(1.80888e-12 -1.87391e-13 4.0155e-13)
(1.85611e-14 -6.62125e-16 2.32014e-15)
(5.45491 0.462683 1.62888)
(9.4081e-06 -2.26436e-07 1.53004e-06)
(1.38013e-08 3.05337e-11 2.41471e-09)
(2.8911e-10 1.89057e-12 5.23904e-11)
(4.49915e-12 1.9687e-14 8.40385e-13)
(5.45683e-14 1.2578e-18 6.2473e-15)
(4.32722e-07 -1.01065e-07 3.41652e-07)
(1.6885e-08 -2.73792e-09 7.61498e-09)
(3.39269e-10 -4.84418e-11 1.19301e-10)
(5.36038e-12 -6.62099e-13 1.61481e-12)
(6.55829e-14 -3.70309e-15 1.57687e-14)
(0 0 0)
(4.34465e-06 2.08067e-07 3.33075e-06)
(5.07182e-08 4.00428e-10 2.12257e-08)
(9.57115e-10 5.75095e-12 3.05453e-10)
(1.55949e-11 6.57905e-14 4.23483e-12)
(2.04388e-13 -1.34348e-16 4.98516e-14)
(6.6049e-16 -8.11922e-21 0)
(1.74112e-08 -3.05363e-09 1.62724e-08)
(4.38292e-10 -7.03048e-11 3.06461e-10)
(8.14177e-12 -1.14715e-12 4.65253e-12)
(1.17203e-13 -1.05778e-14 5.56502e-14)
(1.47702e-16 0 0)
(0 0 0)
(4.29786e-08 1.65862e-11 4.46298e-08)
(1.13694e-09 9.53104e-13 8.42153e-10)
(2.31995e-11 -6.19702e-15 1.35544e-11)
(3.65055e-13 -2.01943e-17 1.75794e-13)
(2.63157e-15 -7.33183e-20 7.89499e-16)
(0 -2.51936e-22 0)
(2.72296e-10 -5.52154e-11 3.51165e-10)
(6.84983e-12 -1.15381e-12 6.66037e-12)
(1.21922e-13 -1.42751e-14 9.58466e-14)
(1.60428e-16 0 3.31449e-16)
(0 0 0)
(0 0 0)
(6.35124e-10 -1.65314e-12 8.56835e-10)
(1.85711e-11 -5.52182e-14 1.86162e-11)
(3.74389e-13 -1.60285e-16 3.01988e-13)
(3.94136e-15 -9.08439e-20 2.38107e-15)
(0 -2.72601e-22 0)
(0 -7.70185e-25 0)
(3.17443e-12 -7.1707e-13 5.23405e-12)
(7.7794e-14 -1.09727e-14 9.58383e-14)
(1.75515e-17 0 5.30318e-16)
(0 0 0)
(0 0 0)
(0 0 0)
(8.35021e-12 -5.47652e-14 1.38793e-11)
(2.35875e-13 -1.59814e-17 2.95936e-13)
(3.02605e-15 -4.81877e-20 3.95064e-15)
(0 -1.29806e-22 4.13298e-21)
(0 -3.24932e-25 0)
(0 -7.77226e-28 0)
(2.6781e-14 -4.17625e-15 5.93723e-14)
(2.40371e-18 0 2.65159e-16)
(0 0 0)
(0 0 0)
(0 0 0)
(0 0 0)
(8.93404e-14 -1.84597e-18 1.80201e-13)
(6.59716e-16 -1.96183e-21 2.96465e-15)
(0 -1.32142e-24 0)
(0 -5.92144e-28 0)
(0 -1.57591e-31 0)
(0 -2.09845e-35 0)
(0 -1.92966e-18 8.83684e-17)
(0 0 0)
(0 0 0)
(0 0 0)
(0 0 0)
(0 0 0)
(0 -1.56875e-21 9.62335e-16)
(0 -1.05632e-24 0)
(0 -4.73258e-28 0)
(0 -1.25937e-31 0)
(0 -1.67684e-35 0)
(0 0 0)
(0 0 0)
(0 0 0)
(0 0 0)
(0 0 0)
(0 0 0)
(0 0 0)
(0 -2.11338e-24 0)
(0 -9.46832e-28 0)
(0 -2.51912e-31 0)
(0 -3.35285e-35 0)
(0 0 0)
(0 0 0)
(1.8762e-05 -3.40187e-06 3.13395e-05)
(4.81526e-05 2.82324e-06 7.9704e-05)
(6.01205e-09 -1.70906e-09 1.1897e-08)
(1.43224e-08 -2.98993e-11 2.38905e-08)
(7.10449e-11 -2.39134e-11 1.91272e-10)
(1.91155e-10 -8.9424e-13 4.27577e-10)
(7.01079e-13 -2.64761e-13 2.24896e-12)
(4.21485e-15 -9.28056e-16 2.04888e-14)
(1.57324e-17 0 0)
(2.11719e-12 -1.6919e-14 5.87451e-12)
(1.70945e-14 -1.47641e-18 6.71446e-14)
(6.42184e-17 -1.25639e-21 4.23061e-20)
(0.0150863 0.00105703 0.00706827)
(5.61745e-05 2.24211e-06 1.73639e-05)
(0.000692935 7.75128e-06 9.04976e-05)
(40.3061 -3.67646 12.1953)
(0.0162092 -0.000987129 0.00765267)
(0.00055988 -3.21947e-05 7.21006e-05)
(5.9182e-05 -2.02875e-06 1.85774e-05)
(9.14883e-06 -1.47085e-06 2.52244e-06)
(3.17405e-05 -6.56634e-06 4.86864e-06)
(0.583365 -0.130022 0.103717)
(24.874 -3.93783 6.86492)
(0.00869928 -0.000805096 0.00403124)
(0.000125472 -1.86157e-05 1.83932e-05)
(2.15257e-05 -2.51738e-06 6.79731e-06)
(0.121075 0.0080624 0.0280806)
(37.2127 3.9358 11.0613)
(1.02263 0.0758527 0.193513)
(47.6047 1.28104 14.8594)
(7.34168 0.142209 2.25271)
(1.36774 0.0219366 0.266417)
(0.16503 0.00219625 0.0387844)
(1.38394e-05 2.29009e-06 0.000108906)
(1.31619e-07 1.7215e-08 5.4512e-07)
(2.49598e-07 4.18447e-08 1.78672e-06)
(2.50091e-07 -7.22042e-08 1.83096e-06)
(1.44183e-05 -2.0925e-06 0.000113353)
(3.21469e-06 -4.18842e-07 1.75151e-05)
(1.31885e-07 -3.13407e-08 5.4835e-07)
(48.7316 -0.846973 15.302)
(5.95179 -0.434581 1.79709)
(7.53192 -0.0929267 2.32043)
(1.11874 -0.0700786 0.213665)
(1.40512 -0.0132273 0.27455)
(0.16943 -0.00130345 0.0399171)
(0.132211 -0.00749511 0.0308692)
(5.14349e-08 -3.16449e-08 1.16925e-07)
(1.96917e-05 -1.07477e-05 4.16896e-05)
(1.90801e-07 -1.05327e-07 4.85808e-07)
(2.4028e-06 -1.4402e-06 5.02702e-06)
(2.17514e-06 -1.36325e-06 5.23516e-06)
(2.17086e-05 -1.95791e-05 5.85132e-05)
(3.39879e-07 -2.89633e-07 1.25497e-06)
(5.28535e-08 -3.3745e-08 2.26173e-07)
(2.685e-06 -2.81522e-06 2.17046e-05)
(1.29323e-06 -8.00708e-07 6.44615e-06)
(1.27774e-07 -6.36732e-08 1.0197e-06)
(8.22897e-06 -4.13939e-06 6.56465e-05)
(1.88947e-06 -7.11279e-07 1.02653e-05)
(7.43145e-08 -2.98662e-08 3.17169e-07)
(4.16982e-05 -1.70653e-05 8.13884e-06)
(3.78586e-06 -1.55243e-06 1.20303e-06)
(1.28799e-07 -4.18819e-08 3.33868e-08)
(4.82925e-05 -1.47848e-05 1.644e-05)
(1.311e-06 -3.13482e-07 3.11447e-07)
(9.47104e-06 -2.66698e-06 1.62582e-06)
(0.000129912 -3.85491e-05 1.6589e-05)
(11.0129 -2.16459 2.6709)
(3.30267 -0.427915 0.952949)
(1.25872 -0.204962 0.337903)
(0.632828 -0.0717937 0.114216)
(0.245692 -0.0353995 0.0408114)
(0.0714914 -0.00740419 0.0163153)
(0.0264852 -0.0035046 0.00579236)
(1.14222e-06 7.86611e-07 5.49689e-06)
(3.15529e-06 2.89778e-06 2.11718e-05)
(6.67828e-08 3.90722e-08 2.86347e-07)
(1.25003e-07 9.97485e-08 6.76042e-07)
(8.90149e-06 3.87982e-06 6.1454e-05)
(8.8136e-08 2.86756e-08 3.78818e-07)
(1.929e-07 6.03754e-08 1.16838e-06)
(7.66321e-06 3.66835e-07 8.95661e-08)
(5.34722e-06 2.86314e-07 1.89697e-07)
(0.000549192 3.16637e-05 3.72852e-05)
(0.0141162 -5.11376e-05 0.000260258)
(8.53373e-06 -3.09599e-07 1.06184e-07)
(0.000764572 -5.39187e-06 5.39366e-05)
(5.73405e-06 -1.76762e-07 2.14778e-07)
(0.000293445 1.4021e-05 4.62211e-06)
(2.03472e-06 1.05199e-07 2.15045e-07)
(0.000109046 3.99571e-06 9.2238e-06)
(0.000356683 -5.94335e-06 5.49491e-06)
(5.84955e-06 -1.33651e-07 1.04541e-07)
(0.0001155 -2.71651e-06 9.86507e-06)
(2.02082e-06 -3.52366e-08 2.26372e-07)
(6.03366e-07 -1.50431e-07 1.55033e-08)
(0.00076593 -7.53799e-05 1.37794e-05)
(1.81299e-05 -3.44616e-06 1.44095e-06)
(0.00694967 -0.000463851 0.000133178)
(3.2199e-06 -2.40911e-07 2.44447e-08)
(0.000251586 -2.0049e-05 1.77274e-05)
(2.96922e-06 -2.21131e-07 7.6056e-08)
(3.08194 -0.684909 0.640611)
(0.0582982 -0.0117289 0.0136248)
(0.335451 -0.0630845 0.0822353)
(0.0118349 -0.00220186 0.00168236)
(0.0641367 -0.0108673 0.00974469)
(0.00676789 -0.00106424 0.00145898)
(0.00119171 -0.000219787 0.000251674)
(1.12021e-05 -2.25405e-06 2.96385e-07)
(6.10787e-07 -1.28602e-07 6.50417e-08)
(5.92067e-06 -1.12788e-06 5.52795e-07)
(9.75887e-05 -1.13488e-05 2.43136e-06)
(2.11651e-06 -1.73541e-07 2.63082e-08)
(4.02541e-05 -3.97831e-06 3.58297e-06)
(1.24215e-06 -9.61037e-08 1.37589e-07)
(3.67206e-07 2.39673e-08 2.25684e-07)
(3.66551e-06 1.65884e-07 1.67298e-06)
(6.95786e-05 4.13713e-06 4.39541e-05)
(0.000458194 -2.53959e-05 0.000275743)
(3.97469e-06 -1.97996e-07 3.08684e-06)
(3.41891e-06 -1.57604e-07 1.688e-06)
(3.53269e-07 -2.21796e-08 2.18391e-07)
(7.11647e-07 6.36862e-08 1.3457e-06)
(2.18218e-06 1.40263e-07 3.22663e-06)
(1.47514e-07 1.19873e-08 2.07738e-07)
(4.81295e-05 -2.50467e-06 7.83827e-05)
(7.04137e-07 -5.34057e-08 1.26418e-06)
(2.01497e-06 -1.25182e-07 2.94241e-06)
(1.45501e-07 -7.57504e-09 2.04319e-07)
(1.35367e-05 -2.53556e-06 8.60114e-06)
(1.22224e-07 -2.09693e-08 7.25459e-08)
(4.56267e-07 -8.02166e-08 2.28271e-07)
(0.000161975 -1.48217e-05 9.61918e-05)
(1.66784e-06 -1.56518e-07 1.29201e-06)
(1.5026e-06 -1.26116e-07 7.01141e-07)
(1.63747e-07 -2.98866e-08 9.89182e-08)
(0.00040516 3.17291e-05 0.000174203)
(0.363019 0.0260366 0.129103)
(0.00789396 0.00054103 0.00249533)
(0.0204853 0.000244473 0.00970523)
(0.490875 0.00706532 0.177493)
(0.0108107 0.000120149 0.00344598)
(0.000536495 7.50159e-06 0.000231933)
(0.0208941 -0.000157376 0.00993029)
(0.392878 -0.0242863 0.141026)
(0.50201 -0.00455574 0.182176)
(0.011065 -7.25904e-05 0.00353921)
(0.000435795 -2.84526e-05 0.00019055)
(0.00856405 -0.0004927 0.00272822)
(0.000548933 -4.05168e-06 0.000240001)
(-1.11775e-05 6.75033e-06 0.000103402)
(-2.61944e-09 2.29791e-09 1.44976e-08)
(-5.38336e-11 4.84572e-11 3.06155e-10)
(-8.23564e-13 7.75556e-13 5.33579e-12)
(-5.25049e-15 4.37512e-15 7.36259e-14)
(-1.86822e-12 3.20335e-12 2.12664e-11)
(-1.72408e-14 3.22499e-14 3.13049e-13)
(-4.04218e-08 2.20175e-08 1.68568e-07)
(-1.0129e-09 6.73164e-10 4.94687e-09)
(-1.08363e-11 7.66734e-12 5.997e-11)
(-1.17029e-13 7.22735e-14 6.24046e-13)
(-1.10344e-17 2.86328e-21 4.56307e-15)
(-9.10358e-09 2.4887e-09 1.83024e-08)
(-1.05544e-10 3.52643e-11 2.94575e-10)
(-1.00017e-12 3.90933e-13 3.39938e-12)
(-6.85037e-15 1.32582e-15 3.1703e-14)
(-1.22761e-26 7.55904e-23 0)
(-9.56416e-06 -6.6274e-06 7.57417e-05)
(-1.94128e-05 5.30978e-06 0.000175486)
(-2.67028e-09 -2.41071e-09 1.38397e-08)
(-6.85911e-09 -5.72217e-11 3.7089e-08)
(-6.85786e-11 -5.21525e-11 3.05602e-10)
(-1.62426e-10 -4.03798e-13 7.91032e-10)
(-1.12412e-12 -8.31557e-13 5.4754e-12)
(-2.77878e-12 1.18504e-15 1.45489e-11)
(-8.61766e-15 -4.78581e-15 7.67635e-14)
(-2.55381e-14 2.76462e-17 2.09326e-13)
(-1.57142e-05 1.94541e-05 0.000242901)
(-5.82316e-08 5.31921e-07 2.64507e-06)
(-6.44033e-09 9.13874e-09 6.08569e-08)
(4.4002e-09 1.23294e-08 1.03713e-07)
(-1.24465e-10 1.88304e-10 1.17051e-09)
(6.77499e-11 2.43555e-10 2.12785e-09)
(1.01124e-12 3.92459e-12 3.68329e-11)
(8.21416e-15 4.41563e-14 5.10068e-13)
(0 0 0)
(-9.07911e-21 0 0)
(1.30162e-20 0 0)
(1.14003e-20 0 0)
(5.86463e-22 0 0)
(3.18786e-23 0 0)
(2.29252e-24 0 0)
(1.48142e-26 0 0)
(5.56232e-30 0 0)
(8.30925e-33 0 0)
(3.16321e-36 0 0)
(0 0 0)
(0 0 0)
(-1.6712e-18 0 0)
(2.28024e-18 0 0)
(1.88043e-18 0 0)
(1.11253e-19 0 0)
(6.12503e-21 0 0)
(5.12794e-22 0 0)
(3.55974e-24 0 0)
(4.38783e-27 0 0)
(2.1496e-30 0 0)
(1.41106e-33 0 0)
(0 0 0)
(-4.15347e-16 -5.43576e-15 0)
(-3.22004e-16 -2.51199e-14 0)
(4.05902e-16 -2.53641e-14 0)
(3.39884e-16 -3.31176e-15 0)
(2.10371e-17 0 0)
(1.10555e-18 0 0)
(1.06116e-19 0 0)
(7.97674e-22 0 0)
(2.0676e-24 0 0)
(5.95897e-28 0 0)
(4.70255e-31 0 0)
(0 0 0)
(-5.79538e-14 -2.31414e-12 -7.30844e-15)
(6.72224e-14 -2.33569e-12 7.95476e-16)
(6.52302e-14 -4.55453e-13 1.44108e-14)
(4.3344e-15 -3.14752e-14 0)
(1.94236e-16 0 0)
(8.21909e-18 0 1.29837e-14)
(6.65691e-20 0 -1.3963e-14)
(7.81538e-22 0 -2.19585e-15)
(1.68895e-25 0 0)
(1.45896e-28 0 0)
(0 0 0)
(-4.93944e-12 -1.56954e-10 -5.42448e-13)
(5.5798e-12 -1.69152e-10 -1.06942e-13)
(5.97074e-12 -3.66018e-11 1.13529e-13)
(5.62987e-13 -2.47831e-12 -1.30764e-14)
(3.46343e-14 -1.0144e-13 -1.4013e-14)
(6.07619e-16 -6.61987e-16 0)
(1.28912e-17 0 -1.6183e-14)
(1.02524e-19 0 -1.40099e-14)
(4.70861e-23 0 0)
(4.42127e-26 0 0)
(0 0 0)
(-3.93861e-10 -8.38667e-09 -9.74463e-11)
(3.85138e-10 -9.53034e-09 -8.2765e-11)
(4.4796e-10 -2.77179e-09 1.75874e-11)
(4.43665e-11 -1.56615e-10 6.61121e-14)
(2.90585e-12 -7.02633e-12 1.59696e-14)
(1.07914e-13 -1.71512e-13 1.58352e-14)
(9.7013e-16 -1.32561e-15 0)
(1.27831e-17 0 1.04131e-14)
(1.29556e-20 0 0)
(1.31095e-23 0 0)
(0 0 0)
(-1.38294e-07 -1.65947e-06 8.30274e-09)
(4.14386e-09 -2.35562e-07 -1.44332e-09)
(1.50257e-08 -9.16292e-08 7.99605e-10)
(3.13483e-09 -8.88062e-09 8.12508e-12)
(1.98573e-10 -4.1436e-10 -8.47553e-13)
(7.56531e-12 -1.0237e-11 -9.58715e-15)
(1.74714e-13 -1.83265e-13 -1.71719e-14)
(1.5998e-15 -9.28053e-16 -1.51067e-14)
(3.87256e-18 0 0)
(3.72144e-21 0 0)
(0 0 0)
(-2.34784 -12.8044 0.463994)
(3.82549 -21.3357 0.790855)
(0.0039108 -0.0171751 0.000430301)
(0.000267011 -0.000993369 2.13392e-05)
(1.41492e-08 -2.34912e-08 8.49092e-11)
(4.55392e-10 -4.9837e-10 -1.23971e-12)
(1.02269e-11 -8.5723e-12 -1.24376e-14)
(1.80349e-13 -1.25943e-13 -1.99698e-14)
(1.42014e-15 -1.32579e-16 0)
(9.81119e-19 0 0)
(0 0 0)
(0.00112356 -0.00154181 0.000162168)
(1.31189e-06 -1.16095e-06 1.48443e-07)
(2.72738e-08 -2.22451e-08 2.65166e-10)
(4.68381e-10 -2.87194e-10 -8.55759e-13)
(8.01864e-12 -4.21835e-12 -2.47261e-14)
(1.19829e-13 -5.37112e-14 0)
(3.66167e-16 0 0)
(0 0 0)
(0 0 0)
(-9.35099e-21 0 0)
(1.90095e-20 0 0)
(5.87122e-21 0 0)
(3.99436e-22 0 0)
(1.07862e-23 0 0)
(1.33437e-25 0 0)
(9.08146e-28 0 0)
(3.37857e-30 0 0)
(4.1087e-33 0 0)
(1.14137e-36 0 0)
(0 0 0)
(0 0 0)
(-1.65608e-18 0 0)
(3.29827e-18 0 0)
(1.18673e-18 0 0)
(8.2625e-20 0 0)
(2.61198e-21 0 0)
(3.57637e-23 0 0)
(2.5999e-25 0 0)
(9.47889e-28 0 0)
(1.40943e-30 0 0)
(6.18902e-34 0 0)
(0 0 0)
(-4.85845e-16 -5.56833e-15 5.13797e-17)
(-3.0487e-16 -2.64651e-14 0)
(5.54179e-16 -2.23025e-14 0)
(2.40259e-16 -2.50639e-15 0)
(1.63338e-17 0 0)
(6.16916e-19 0 0)
(9.12949e-21 0 0)
(6.96588e-23 0 0)
(2.64837e-25 0 0)
(4.62832e-28 0 0)
(2.5304e-31 0 0)
(0 0 0)
(-5.1822e-14 -2.27374e-12 5.01586e-14)
(8.32846e-14 -1.98796e-12 5.15651e-14)
(4.85048e-14 -3.21418e-13 8.39393e-15)
(3.44266e-15 -2.55055e-14 1.98869e-16)
(1.39354e-16 0 0)
(2.18164e-18 0 0)
(1.72692e-20 0 0)
(7.0694e-23 0 0)
(1.43178e-25 0 0)
(9.53088e-29 0 0)
(0 0 0)
(-4.77792e-12 -1.79747e-10 4.88451e-12)
(6.51002e-12 -1.83414e-10 5.10119e-12)
(4.46287e-12 -2.28367e-11 9.86482e-13)
(4.28301e-13 -2.29669e-12 6.82701e-14)
(2.92831e-14 -9.30015e-14 1.39208e-15)
(4.82498e-16 -3.97282e-16 0)
(3.95522e-18 0 0)
(1.77685e-20 0 0)
(4.11429e-23 0 0)
(3.36964e-26 0 0)
(0 0 0)
(-6.05604e-10 -1.61402e-08 4.87726e-10)
(6.40419e-10 -1.80882e-08 5.49349e-10)
(3.58365e-10 -1.63624e-09 7.7881e-11)
(3.4513e-11 -1.69607e-10 5.33029e-12)
(2.78296e-12 -7.43942e-12 2.19585e-13)
(9.87666e-14 -1.66283e-13 3.64593e-15)
(8.45395e-16 -1.45541e-15 0)
(4.68076e-18 0 0)
(1.11423e-20 0 0)
(1.1049e-23 0 0)
(0 0 0)
(-1.26646e-07 -1.61113e-06 4.14067e-08)
(2.78533e-08 -7.34648e-07 2.24474e-08)
(2.34981e-08 -1.21173e-07 5.67926e-09)
(2.6109e-09 -1.00031e-08 3.74653e-10)
(2.28139e-10 -5.14176e-10 1.64108e-11)
(8.1069e-12 -1.13141e-11 3.65737e-13)
(1.71434e-13 -1.79871e-13 4.17625e-15)
(1.65909e-15 -7.93789e-16 0)
(3.21257e-18 0 0)
(3.30223e-21 0 0)
(0 0 0)
(-7.66966e-06 -5.51577e-05 6.93876e-07)
(0.0174202 -0.114776 0.00198678)
(0.00014455 -0.000631752 8.62972e-06)
(1.47632e-06 -3.28426e-06 2.72977e-07)
(1.61302e-08 -2.67579e-08 1.18562e-09)
(5.60684e-10 -6.0677e-10 2.41967e-11)
(1.13303e-11 -9.43033e-12 3.83262e-13)
(1.75924e-13 -1.21576e-13 4.04367e-15)
(1.09379e-15 -1.32579e-16 0)
(8.85783e-19 0 0)
(0 0 0)
(0.000217874 -0.00029428 4.5042e-05)
(5.78472e-07 -5.24172e-07 6.4206e-08)
(2.63018e-08 -1.93579e-08 1.26438e-09)
(5.62783e-10 -3.27888e-10 1.85902e-11)
(8.76664e-12 -4.31621e-12 2.48393e-13)
(1.15594e-13 -5.01647e-14 1.98736e-15)
(3.43933e-16 0 9.83386e-19)
(0 0 0)
(0 0 0)
(-7.06403e-22 0 0)
(1.4521e-21 0 0)
(8.90338e-22 0 0)
(3.70704e-23 0 0)
(8.97163e-25 0 0)
(8.98253e-27 0 0)
(5.0337e-29 0 0)
(1.34882e-31 0 0)
(1.53233e-34 0 0)
(-3.93839e-37 0 0)
(0 0 0)
(0 0 0)
(-1.97243e-19 0 0)
(2.78686e-19 0 0)
(2.11012e-19 0 0)
(9.12185e-21 0 0)
(2.22507e-22 0 0)
(2.44879e-24 0 0)
(1.55801e-26 0 0)
(4.38313e-29 0 0)
(5.69474e-32 0 0)
(-5.31367e-35 0 0)
(0 0 0)
(-4.89939e-17 0 4.91806e-17)
(-5.378e-17 -3.04058e-15 6.62897e-17)
(5.39459e-17 -4.23174e-15 0)
(4.85982e-17 0 0)
(2.10336e-18 0 0)
(5.15074e-20 0 0)
(6.49928e-22 0 0)
(4.79846e-24 0 0)
(1.40042e-26 0 0)
(2.09399e-29 0 0)
(-1.19749e-33 0 0)
(0 0 0)
(-1.20647e-14 -3.67285e-13 5.74334e-14)
(1.03893e-14 -4.32275e-13 4.55162e-14)
(1.03461e-14 -7.0007e-14 5.70091e-15)
(4.38182e-16 -1.85199e-15 0)
(1.12549e-17 0 0)
(1.72424e-19 0 0)
(1.4451e-21 0 0)
(4.40922e-24 0 0)
(7.65689e-27 0 0)
(1.23148e-30 0 0)
(0 0 0)
(-1.15772e-12 -2.34882e-11 4.33617e-12)
(9.76924e-13 -2.9365e-11 3.96308e-12)
(1.0448e-12 -4.68463e-12 6.03609e-13)
(8.01108e-14 -3.34058e-13 4.7712e-14)
(2.53253e-15 -1.09735e-14 6.62897e-16)
(4.58291e-17 0 0)
(4.0934e-19 0 0)
(1.35152e-21 0 0)
(2.74854e-24 0 0)
(6.33821e-28 0 0)
(0 0 0)
(-8.16793e-11 -1.46326e-09 2.91686e-10)
(7.02118e-11 -1.78626e-09 3.08108e-10)
(6.15833e-11 -2.58166e-10 3.64316e-11)
(6.15005e-12 -2.43699e-11 4.30078e-12)
(3.90118e-13 -1.02051e-12 1.78468e-13)
(1.17138e-14 -2.27281e-14 2.05498e-15)
(1.04575e-16 0 0)
(3.92413e-19 0 0)
(9.34781e-22 0 0)
(2.78596e-25 0 0)
(0 0 0)
(-5.52866e-09 -9.63817e-08 1.73525e-08)
(5.31947e-09 -1.03727e-07 1.88723e-08)
(2.56873e-09 -1.51394e-08 1.96563e-09)
(4.78235e-10 -1.86579e-09 3.10759e-10)
(3.21578e-11 -7.67854e-11 1.39166e-11)
(1.11276e-12 -1.60754e-12 3.22997e-13)
(2.36336e-14 -2.4976e-14 3.57964e-15)
(1.04455e-16 0 0)
(2.87001e-19 0 0)
(1.20456e-22 0 0)
(0 0 0)
(-6.64847e-07 -6.09255e-06 9.18709e-07)
(0.000343993 -0.0348727 0.00531271)
(3.28333e-06 -9.0349e-06 1.5267e-06)
(1.73372e-07 -5.72983e-07 7.80337e-08)
(2.87138e-09 -5.40712e-09 9.37191e-10)
(8.50952e-11 -9.85945e-11 2.09583e-11)
(1.63357e-12 -1.43937e-12 3.43331e-13)
(2.47938e-14 -1.81036e-14 2.38643e-15)
(7.62744e-17 0 0)
(4.8359e-20 0 0)
(0 0 0)
(5.60363e-06 -9.68839e-06 3.2755e-06)
(9.66557e-08 -1.13231e-07 3.10122e-08)
(5.67368e-09 -4.53084e-09 1.08568e-09)
(9.47109e-11 -5.76957e-11 1.71e-11)
(1.36972e-12 -7.10145e-13 2.28707e-13)
(1.75176e-14 -6.23123e-15 1.35874e-15)
(1.68902e-17 0 4.87506e-19)
(0 0 0)
(0 0 0)
(-8.68881e-29 0 0)
(2.10976e-23 0 0)
(1.57752e-23 0 0)
(5.95931e-25 0 0)
(1.04327e-26 0 0)
(8.70091e-29 0 0)
(3.53687e-31 0 0)
(6.0349e-34 0 0)
(2.26907e-37 0 0)
(-1.03156e-37 0 0)
(0 0 0)
(0 0 0)
(-3.23805e-27 0 0)
(5.23925e-21 0 0)
(3.9854e-21 0 0)
(1.57307e-22 0 0)
(2.90474e-24 0 0)
(2.66934e-26 0 0)
(1.22392e-28 0 0)
(2.34023e-31 0 0)
(9.13673e-35 0 0)
(-1.58018e-35 0 0)
(0 0 0)
(-1.27822e-18 0 1.60938e-19)
(-8.51406e-26 0 0)
(1.21569e-18 0 0)
(9.78396e-19 0 0)
(3.8925e-20 0 0)
(8.00989e-22 0 0)
(8.12028e-24 0 0)
(4.15009e-26 0 0)
(8.93489e-29 0 0)
(3.86101e-32 0 0)
(-2.12636e-33 0 0)
(0 0 0)
(-1.18603e-24 -1.58314e-14 3.28704e-15)
(2.54362e-16 -1.9155e-14 4.04367e-15)
(2.27126e-16 -1.32322e-15 6.62897e-17)
(8.83557e-18 0 0)
(2.22716e-19 0 0)
(2.41812e-21 0 0)
(1.34926e-23 0 0)
(3.29445e-26 0 0)
(1.67556e-29 0 0)
(-2.49828e-31 0 0)
(0 0 0)
(-5.15734e-14 -1.4034e-12 3.53146e-13)
(4.7123e-14 -1.59761e-12 4.13225e-13)
(4.7734e-14 -2.78407e-13 6.51545e-14)
(1.94589e-15 -1.4279e-14 1.9224e-15)
(6.13803e-17 0 0)
(6.83274e-19 0 0)
(4.08898e-21 0 0)
(1.13988e-23 0 0)
(7.24776e-27 0 0)
(-2.60144e-29 0 0)
(0 0 0)
(-4.49966e-12 -1.11354e-10 2.76932e-11)
(3.87264e-12 -1.24729e-10 3.3227e-11)
(3.88431e-12 -1.84753e-11 4.93862e-12)
(3.37184e-13 -1.32804e-12 3.34117e-13)
(1.57039e-14 -3.95131e-14 1.03412e-14)
(1.77063e-16 0 0)
(1.12674e-18 0 0)
(3.58995e-21 0 0)
(2.99517e-24 0 0)
(-2.41125e-27 0 0)
(0 0 0)
(-4.54512e-10 -1.01735e-08 3.04868e-09)
(4.14415e-10 -1.10219e-08 3.41389e-09)
(2.57868e-10 -1.12091e-09 3.48309e-10)
(2.80703e-11 -1.1559e-10 3.15494e-11)
(1.55104e-12 -3.32288e-12 1.02876e-12)
(4.18845e-14 -6.30055e-14 2.09475e-14)
(2.79315e-16 0 0)
(1.00483e-18 0 0)
(1.1292e-21 0 0)
(-1.98664e-25 0 0)
(0 0 0)
(-1.31082e-07 -1.44802e-06 6.18877e-07)
(8.09654e-08 -3.27526e-06 1.52398e-06)
(1.58818e-08 -7.05688e-08 3.16618e-08)
(2.84972e-09 -9.99381e-09 3.72983e-09)
(1.47162e-10 -2.58607e-10 9.67262e-11)
(3.56739e-12 -4.09893e-12 1.61071e-12)
(6.33842e-14 -5.70558e-14 2.1743e-14)
(2.4816e-16 0 0)
(3.73731e-19 0 0)
(-1.42447e-23 0 0)
(0 0 0)
(1.15507e-07 -2.24813e-07 1.56767e-07)
(1.31006e-08 -1.56423e-08 9.02507e-09)
(2.69209e-10 -2.21369e-10 1.16829e-10)
(4.02113e-12 -2.58676e-12 1.39144e-12)
(5.53262e-14 -2.75765e-14 1.52104e-14)
(1.06158e-16 0 1.6928e-17)
(-8.4312e-22 0 0)
(0 0 0)
(0 0 0)
(-2.40478e-29 0 0)
(1.45625e-25 0 0)
(1.19029e-25 0 0)
(3.70194e-27 0 0)
(5.47707e-29 0 0)
(3.40502e-31 0 0)
(7.32425e-34 0 0)
(4.21389e-37 0 0)
(4.02766e-42 0 0)
(0 0 0)
(0 0 0)
(0 0 0)
(-4.58699e-27 0 0)
(3.79419e-23 0 0)
(3.25049e-23 0 0)
(1.03107e-24 0 0)
(1.67892e-26 0 0)
(1.19111e-28 0 0)
(2.81165e-31 0 0)
(1.94019e-34 0 0)
(2.07237e-39 0 0)
(0 0 0)
(0 0 0)
(-1.69491e-20 0 2.61319e-20)
(-3.67974e-25 0 0)
(9.29947e-21 0 0)
(8.45402e-21 0 0)
(2.77762e-22 0 0)
(5.12667e-24 0 0)
(4.09194e-26 0 0)
(1.06163e-28 0 0)
(8.79601e-32 0 0)
(9.42617e-37 0 0)
(0 0 0)
(0 0 0)
(0 0 6.55721e-20)
(2.10205e-18 0 0)
(2.0418e-18 0 0)
(7.39792e-20 0 0)
(1.54967e-21 0 0)
(1.34576e-23 0 0)
(3.87511e-26 0 0)
(3.86987e-29 0 0)
(3.72874e-34 0 0)
(0 0 0)
(0 0 0)
(0 -3.10682e-14 1.50629e-14)
(4.32854e-16 -3.4947e-14 1.64813e-14)
(4.47188e-16 -4.49779e-15 1.2595e-15)
(2.02926e-17 0 0)
(4.49403e-19 0 0)
(4.10321e-21 0 0)
(1.33197e-23 0 0)
(1.61136e-26 0 0)
(1.25667e-31 0 0)
(0 0 0)
(0 0 0)
(-9.03363e-14 -2.3012e-12 1.2192e-12)
(8.13377e-14 -2.51467e-12 1.37121e-12)
(8.76968e-14 -4.61984e-13 2.38088e-13)
(5.55097e-15 -2.52412e-14 1.20647e-14)
(1.19248e-16 0 0)
(1.1287e-18 0 0)
(4.19556e-21 0 0)
(6.17275e-24 0 0)
(3.50924e-29 0 0)
(0 0 0)
(0 0 0)
(-7.21984e-12 -1.56983e-10 1.00428e-10)
(6.39733e-12 -1.69867e-10 1.10777e-10)
(6.03607e-12 -2.6208e-11 1.62683e-11)
(5.73382e-13 -1.93422e-12 1.1621e-12)
(2.79421e-14 -5.95674e-14 3.29211e-14)
(2.77385e-16 0 0)
(1.18736e-18 0 0)
(2.12197e-21 0 0)
(7.78535e-27 0 0)
(0 0 0)
(0 0 0)
(-6.28991e-10 -1.06358e-08 9.17991e-09)
(5.76744e-10 -1.14123e-08 9.87406e-09)
(3.31211e-10 -1.27389e-09 1.00944e-09)
(4.15252e-11 -1.32365e-10 1.03242e-10)
(2.26207e-12 -3.85323e-12 2.88795e-12)
(6.23568e-14 -7.09358e-14 5.2634e-14)
(3.00822e-16 0 0)
(6.43474e-19 0 0)
(1.27187e-24 0 0)
(0 0 0)
(0 0 0)
(3.01302e-09 -6.85591e-09 8.22092e-09)
(1.63714e-10 -2.07682e-10 2.21839e-10)
(4.00498e-12 -3.36066e-12 3.44158e-12)
(6.98106e-14 -4.40164e-14 4.62726e-14)
(1.71328e-16 0 9.25758e-17)
(1.2763e-22 0 6.96539e-23)
(0 0 0)
(0 0 0)
(0 0 0)
(-7.81751e-28 0 0)
(8.12353e-28 0 0)
(4.58184e-28 0 0)
(1.18013e-29 0 0)
(1.23117e-31 0 0)
(4.36364e-34 0 0)
(3.02009e-37 0 0)
(3.45909e-42 0 0)
(0 0 0)
(0 0 0)
(0 0 0)
(0 0 0)
(-2.02914e-25 0 0)
(2.06369e-25 0 0)
(1.31471e-25 0 0)
(3.54867e-27 0 0)
(4.16406e-29 0 0)
(1.63571e-31 0 0)
(1.38551e-34 0 0)
(1.78938e-39 0 0)
(0 0 0)
(0 0 0)
(0 0 0)
(0 0 0)
(-4.97601e-23 0 0)
(4.95773e-23 0 0)
(3.62014e-23 0 0)
(1.04718e-24 0 0)
(1.40237e-26 0 0)
(6.03778e-29 0 0)
(6.28538e-32 0 0)
(8.18034e-37 0 0)
(0 0 0)
(0 0 0)
(0 0 0)
(-2.65902e-20 0 0)
(-1.13623e-20 0 0)
(1.10608e-20 0 0)
(9.39115e-21 0 0)
(3.09861e-22 0 0)
(4.6788e-24 0 0)
(2.18236e-26 0 0)
(2.80333e-29 0 0)
(3.25114e-34 0 0)
(0 0 0)
(0 0 0)
(0 0 0)
(-2.25187e-18 -7.92697e-18 0)
(-2.38532e-18 0 0)
(2.252e-18 0 0)
(2.25105e-18 0 0)
(9.3741e-20 0 0)
(1.50741e-21 0 0)
(7.5768e-24 0 0)
(1.20362e-26 0 0)
(1.10012e-31 0 0)
(0 0 0)
(0 0 0)
(0 0 0)
(-3.30197e-16 -3.8791e-15 2.91675e-15)
(-5.00189e-16 -3.43236e-14 2.72451e-14)
(4.58217e-16 -3.7473e-14 2.87697e-14)
(4.89781e-16 -6.34812e-15 3.71222e-15)
(2.80259e-17 0 0)
(4.49965e-19 0 0)
(2.45431e-21 0 0)
(4.82202e-24 0 0)
(3.07963e-29 0 0)
(0 0 0)
(0 0 0)
(0 0 0)
(-8.83547e-14 -3.33375e-13 2.94799e-13)
(-9.54527e-14 -2.09336e-12 1.87247e-12)
(8.55578e-14 -2.22425e-12 2.02603e-12)
(9.54749e-14 -4.36275e-13 3.76136e-13)
(7.51122e-15 -2.53686e-14 1.98869e-14)
(1.19516e-16 0 0)
(7.2081e-19 0 0)
(1.74479e-21 0 0)
(6.82193e-27 0 0)
(0 0 0)
(0 0 0)
(0 0 0)
(-6.10177e-12 -1.02377e-10 1.22599e-10)
(5.45911e-12 -1.08736e-10 1.31488e-10)
(5.25095e-12 -1.8672e-11 2.07411e-11)
(5.39875e-13 -1.44473e-12 1.55362e-12)
(2.78271e-14 -4.40031e-14 4.71403e-14)
(1.89102e-16 0 0)
(5.55153e-19 0 0)
(1.10275e-24 0 0)
(0 0 0)
(0 0 0)
(0 0 0)
(2.77696e-11 -5.98951e-11 9.75968e-11)
(1.63123e-12 -2.04134e-12 2.97445e-12)
(4.5066e-14 -3.92435e-14 5.56553e-14)
(1.53186e-16 0 1.45092e-16)
(1.07888e-22 0 2.44587e-22)
(0 0 0)
(0 0 0)
(0 0 0)
(0 0 0)
(-8.02896e-31 0 0)
(1.40623e-30 0 0)
(8.36112e-31 0 0)
(1.65648e-32 0 0)
(1.21022e-34 0 0)
(8.96756e-38 0 0)
(7.22172e-43 0 0)
(0 0 0)
(0 0 0)
(0 0 0)
(0 0 0)
(0 0 0)
(-2.89019e-28 0 0)
(4.32319e-28 0 0)
(2.60105e-28 0 0)
(5.48364e-30 0 0)
(4.34434e-32 0 0)
(4.20644e-35 0 0)
(3.69436e-40 0 0)
(0 0 0)
(0 0 0)
(0 0 0)
(0 0 0)
(0 0 0)
(-9.38003e-26 0 0)
(1.23451e-25 0 0)
(7.8239e-26 0 0)
(1.75563e-27 0 0)
(1.54608e-29 0 0)
(1.94674e-32 0 0)
(1.67208e-37 0 0)
(0 0 0)
(0 0 0)
(0 0 0)
(0 0 0)
(0 0 0)
(-2.71598e-23 0 0)
(3.21714e-23 0 0)
(2.24092e-23 0 0)
(5.47761e-25 0 0)
(5.49881e-27 0 0)
(8.89392e-30 0 0)
(6.58872e-35 0 0)
(0 0 0)
(0 0 0)
(0 0 0)
(0 0 0)
(0 0 0)
(-6.94363e-21 0 0)
(7.53945e-21 0 0)
(5.99731e-21 0 0)
(1.69513e-22 0 0)
(1.95474e-24 0 0)
(3.95872e-27 0 0)
(2.21428e-32 0 0)
(0 0 0)
(0 0 0)
(0 0 0)
(0 0 0)
(0 0 0)
(-1.5547e-18 0 0)
(1.57195e-18 0 0)
(1.47053e-18 0 0)
(5.23979e-20 0 0)
(6.79472e-22 0 0)
(1.67505e-24 0 0)
(6.1714e-30 0 0)
(0 0 0)
(0 0 0)
(0 0 0)
(0 0 0)
(0 -2.64644e-15 3.10305e-15)
(-3.34579e-16 -2.32462e-14 2.90183e-14)
(3.20222e-16 -2.54901e-14 3.01452e-14)
(3.2511e-16 -3.57244e-15 5.10431e-15)
(1.57668e-17 0 0)
(2.20987e-19 0 0)
(6.53484e-22 0 0)
(1.36736e-27 0 0)
(0 0 0)
(0 0 0)
(0 0 0)
(0 0 0)
(-6.41519e-14 -1.12679e-12 1.6035e-12)
(5.87539e-14 -1.17364e-12 1.69083e-12)
(6.42159e-14 -2.43267e-13 3.36914e-13)
(4.48015e-15 -1.44059e-14 1.98869e-14)
(6.38044e-17 0 0)
(2.27274e-19 0 0)
(2.23149e-25 0 0)
(0 0 0)
(0 0 0)
(0 0 0)
(0 0 0)
(2.90545e-13 -5.58772e-13 1.06941e-12)
(1.55794e-14 -1.78982e-14 3.34872e-14)
(6.8231e-17 0 1.27296e-16)
(2.23764e-23 0 2.6655e-22)
(0 0 0)
(0 0 0)
(0 0 0)
(0 0 0)
(0 0 0)
(0 0 0)
(5.97777e-34 0 0)
(5.52655e-34 0 0)
(6.2399e-36 0 0)
(1.36295e-37 0 0)
(0 0 0)
(0 0 0)
(0 0 0)
(0 0 0)
(0 0 0)
(0 0 0)
(0 0 0)
(0 0 0)
(2.17682e-31 0 0)
(2.02329e-31 0 0)
(2.44595e-33 0 0)
(3.7824e-35 0 0)
(0 0 0)
(0 0 0)
(0 0 0)
(0 0 0)
(0 0 0)
(0 0 0)
(0 0 0)
(0 0 0)
(7.69623e-29 0 0)
(7.15904e-29 0 0)
(9.17657e-31 0 0)
(9.91108e-33 0 0)
(0 0 0)
(0 0 0)
(0 0 0)
(0 0 0)
(0 0 0)
(0 0 0)
(0 0 0)
(0 0 0)
(2.58757e-26 0 0)
(2.40392e-26 0 0)
(3.25464e-28 0 0)
(2.43758e-30 0 0)
(0 0 0)
(0 0 0)
(0 0 0)
(0 0 0)
(0 0 0)
(0 0 0)
(0 0 0)
(0 0 0)
(8.06219e-24 0 0)
(7.50659e-24 0 0)
(1.08241e-25 0 0)
(5.7474e-28 0 0)
(0 0 0)
(0 0 0)
(0 0 0)
(0 0 0)
(0 0 0)
(0 0 0)
(0 0 0)