/*--------------------------------*- C++ -*----------------------------------*\
  =========                 |
  \\      /  F ield         | OpenFOAM: The Open Source CFD Toolbox
   \\    /   O peration     | Website:  https://openfoam.org
    \\  /    A nd           | Version:  9
     \\/     M anipulation  |
\*---------------------------------------------------------------------------*/
FoamFile
{
    format      ascii;
    class       volScalarField;
    location    "0.0014";
    object      T;
}
// * * * * * * * * * * * * * * * * * * * * * * * * * * * * * * * * * * * * * //

dimensions      [0 0 0 1 0 0 0];

internalField   nonuniform List<scalar> 
12360
(
1018.66
296.15
1100.17
288.918
813.647
346.524
288
817.31
388.767
934.51
287.938
383.342
491.801
372.353
1365.9
1347.8
1126.38
637.352
795.682
290.355
288.45
1080.98
1034.05
778.918
300.997
396.727
305.887
288.173
287.926
288.387
287.926
1336.35
289.602
1108.94
288.133
755.873
288.188
287.939
1142.48
1233.17
1166.62
1151.09
1329.76
1380.83
1217.26
945.159
810.569
595.022
351.198
701.546
861.976
458.293
1363.38
1025.67
1061.17
1194.7
1182.9
1131.76
1156.01
957.137
1085.5
976.278
1045.88
450.224
1116.58
838.578
1205.99
1088.59
1276.6
1164.22
1027.18
1176.77
1238.38
1058.3
1089.18
1103.09
490.696
434.49
930.122
917.314
891.845
320.419
288.372
596.8
775.314
714.504
314.07
1069.26
1114.24
1056.58
1119.16
1164.81
1238.36
1194.98
568.382
1376.52
1307.96
1359.93
964.237
1210.9
738.967
872.92
1110.97
1126.79
393.113
296.839
898.993
795.921
1337.06
1099.41
1257.08
940.834
764.485
1392.16
1209.94
1032.57
1064
1070.3
1206.83
1159.8
1199.81
1167.8
792.234
1355.82
1350.6
944.833
545.502
1241.85
1179.76
1043.89
1098.49
1080.87
1218.49
1203.43
1238.57
1181.2
1190.09
1237.77
1276.59
1317.03
1369.5
1380.11
1286.27
1103.17
1165.45
1126.91
1188.89
1210.08
1267.03
1211.82
943.204
922.203
921.721
924.941
919.935
882.241
872.165
1127.91
1131.62
1173.27
1238.9
1270.38
1311.81
1288.21
288.859
804.98
661.438
288.227
287.939
567.861
397.184
1106.99
1135.53
1112.34
1234
1198.92
1228.8
1202.41
943.285
900.685
915.331
881.542
905.949
851.624
819.886
750.697
300.854
287.939
815.471
362.393
501.816
288.032
1140.9
1142.85
1122.44
1242.79
1216.22
1257.66
1208.2
415.47
1011.01
1171.68
738.54
480.307
1355.5
1268.21
1377.86
1268.17
1299.35
1356.03
1395.45
1380.99
1340.44
1023.12
1077.14
1029.29
1098.92
1031.14
1102.35
1028.61
1195.19
1307.88
1235.78
1354.12
1384.27
1382.01
1342.19
951.245
985.785
352.016
590.719
1125.38
665.491
288.215
1293.54
1220.26
1196.67
1314.43
1232.55
1226.58
1343.17
937.854
989.096
955.056
917.461
974.597
961.643
888.137
1171.93
1201.31
1215.44
1226.49
1280.05
1306.28
1234.71
1097.18
287.985
584.79
976.366
549.139
647.47
288.331
1356.78
1407
1407.23
1416.58
1408.87
1394.63
1412.37
899.462
854.033
895.508
774.982
833.127
819.122
757.563
1091.76
1040.12
1042.35
1118.98
1121.29
1051.79
1050.9
419.782
1261.02
1230.18
307.042
296.322
1077.33
1037.78
1339.5
1367.95
1319.5
1356.28
1357.73
1334.6
1325.89
368.097
1130.03
1087.17
290.425
287.948
745.478
491.786
1392.44
1410.67
1310.07
1378.4
1358.02
1394.34
1394.64
1324.25
1222.42
1299.62
1327.94
1205.49
1314.43
1226.97
1346.4
1368.59
1349.3
1349.76
1357.18
1356.05
1335.52
1311.36
1223.69
1265.77
1327.21
1229.75
1332.53
1236.64
1096.54
1048.82
1045.82
1130.1
1125.51
1052.89
1051.7
987.541
929.949
989.009
951.451
839.61
952.417
836.782
917.234
876.054
840.865
847.086
777.038
802.429
724.037
861.383
836.869
883.439
793.946
690.585
757.869
729.444
987.844
926.952
990.081
947.795
810.136
938.427
828.044
1360.42
1371.15
1367.21
1309.52
1337.86
1322.14
1327.67
1368.87
1404.44
1398.64
1395.01
1380.47
1346.1
1365.75
1092.23
1019.55
1018.12
1110.88
1105.78
1028.37
1030
500.522
288.71
287.926
333.744
709.025
292.698
287.93
449.846
291.184
287.926
517.248
288.011
310.069
287.928
293.336
1193.35
992.201
292.42
288.148
998.915
777.458
1366.07
1331.55
1366.98
1372.99
1317.61
1299.14
1379.12
575.847
1314.76
1174.74
970.086
298.992
810.343
288.422
294.88
288.007
504.999
336.982
290.325
287.948
287.926
846.936
678.032
830.964
614.621
774.221
754.754
589.456
1049.87
1117.85
1048.54
1134.53
1136.86
1046.42
1036.55
1235.66
1240.86
1357.42
1228.01
1346.98
1324.41
1213.21
290.65
1267.4
904.922
381.598
288.042
1123.99
712.026
1337.35
1210.68
1244.41
1184.97
1287.87
1222.79
1324.38
1310.52
1295.25
1193.93
1222.52
1295.79
1307.03
1224.85
964.956
892.168
916.949
946.437
806.89
851.928
927.951
1360.82
1379.17
1369.15
1284.25
1264.77
1244.02
1304.31
870.088
299.5
287.926
333.208
1050.29
287.948
671.888
287.928
593.302
322.647
287.929
287.926
331.546
288.215
764.29
642.226
803.145
722.999
505.55
679.436
552.6
1315.32
1286.03
1191.51
1230.16
1294.4
1320.29
1228.24
1113.48
993.257
1034.04
1104.5
1114.95
1025.86
967.683
1310.17
1210.43
1312
1241.63
1152.61
1254.72
1139.32
980.265
872.272
967.116
782.129
921.75
897.877
744.576
1427.2
1375.62
1414.56
1343
1279.49
1267.69
1360.67
1340.42
1232.76
1342.91
1212.95
1316.89
1280.07
1183.21
1345.03
1122.42
1222.06
958.864
1049.33
920.597
1236.95
957.125
1208.48
1063.44
725.258
997.383
1025.4
1119.13
992.275
814.384
937.94
949.099
965.993
983.052
1016.23
1036.59
1002.42
984.213
1016.16
987.529
1065.28
1064.86
1106.72
1028.08
978.141
1012.06
989.05
1081.6
1048.68
1073.29
1101.84
1015.24
1009.7
1004.5
1062.3
1029.57
1072.57
1034.22
1007.98
1084.37
1044.35
1108.12
1159.77
1154.65
1129
970.152
984.702
965.539
961.935
992.952
994.53
961.177
1081.81
1268.67
1122.97
1149.76
1266.03
1292.69
1108.32
1044.74
1030.99
1025.69
1092.96
1083.64
1036.32
1034.77
1187.68
1354.35
1199.18
1303.12
1238.69
1322.74
1145.85
967.023
997.987
971.787
992.112
939.577
985.238
954.161
1271.68
1162.29
1165.57
1189.58
1215.3
1287.26
1176.33
1222.41
1319.34
1210.32
1220.79
1261.55
1304.77
1193.61
1097.38
1037.78
1042.43
1122.61
1103.38
1044.9
1034.48
931.019
922.065
984.809
982.039
795.797
920.054
912.442
1111.79
1124.14
1108.68
1044.18
1012.34
1040.14
1026
972.699
873.28
864.17
765.75
956.859
900.648
893.18
857.62
737.293
795.644
680.546
747.413
659.368
582.442
323.375
916.006
1078.05
288.052
287.932
697.086
453.658
1364.84
1270.2
1353.39
1185.82
1250.54
1335.74
1378.44
1266.72
1228.65
1323.18
1319.51
1133.14
1234.18
1220.61
829.525
729.716
788.383
640.917
711.772
654.537
580.261
1381.56
1239.89
1360.88
1300.26
1166.39
1151.49
1317.13
803.461
752.282
734.057
704.65
682.916
606.924
580.609
935.927
826.495
675.571
910.479
615.402
795.425
780.59
1294.49
1204.54
1190.49
1216.84
1079.75
1178.67
1115.57
1122.84
1042.17
1045.94
1129.86
1136.15
1022.07
1000.63
1402.32
1331.98
1384.55
1283.36
1212.45
1196.64
1301.44
766.995
718.747
675.508
647.491
601.529
549.014
502.133
1336.61
1313.55
1293.15
1209.55
1188.79
1119.7
1140
1027.73
1116.83
1117.02
1037.62
1027.27
1119.29
1013.63
540.652
633.078
706.474
684.257
430.429
514.698
608.701
1232.3
1310.36
1348.81
1279.98
1144.66
1218.74
1188.44
289.244
287.944
287.926
287.926
287.93
289.053
287.926
1303.57
1124.63
1088.23
1171.97
1187.09
1271.01
1202.72
537.327
446.634
625.424
467.695
654.578
561.619
378.615
1140.65
931.253
1186.88
938.499
904.054
1166.2
1162.42
928.264
837.902
949.677
867.147
641.126
827.938
698.016
1190.23
1182.82
1291.22
1240.88
1023.5
1102.31
1155.26
1269.44
1212.56
1317.48
1222.62
1062.85
1144.15
1135.15
781.911
664.871
705.079
606.636
650.075
542.6
493.58
1258.44
1242.88
1239.89
1031.63
1061
1037.85
1055.12
1302.82
1105.93
1283.24
1209.67
1032.41
1010.78
1228.66
288.926
923.733
872.584
287.927
287.926
311.075
298.324
1078.33
1133.42
1134.11
1013.46
904.252
899.968
1015.09
650.287
527.338
428.547
393.233
605.928
477.375
573.209
1113.33
1082.99
1116.09
1014.72
878.73
931.97
996.108
1072.08
1134.4
1135.41
1009.37
868.189
888.985
1000.02
1153.45
1250.79
1231.2
1037.82
964.609
942.557
1058.33
1166.34
1130.61
1226.57
1030.6
1126.7
1061.01
964.302
1250.56
1209.53
1231.05
1015.94
1010.29
984.702
1040.38
1034.77
1130.23
1019.91
1113.1
968.826
1080.96
919.382
1302.29
1221
1212.45
1184.91
1174.69
1058.08
1070.38
1099.43
787.275
1065.9
881.921
1043.15
853.345
1121.94
1097.67
357.277
287.958
411.773
287.987
288.3
287.926
669.735
670.937
736.15
586.315
417.89
506.778
504.634
1219.57
1061.37
922.607
1131.9
1119.58
1046.71
1232.52
719.115
559.287
622.326
476.721
545.112
443.705
376.507
860.821
817.77
940.689
750.877
901.909
860.519
677.775
1112.45
1107.88
964.303
1025.18
1007.23
837.617
814.051
287.953
828.164
588.476
287.926
287.926
293.589
288.231
1128.41
996.907
1115.24
835.972
983.675
959.2
790.669
287.94
1022.22
526.934
287.929
287.926
362.808
288.039
878.532
659.709
666.509
541.705
740.52
725.729
837.015
852.829
693.509
483.328
688.944
687.537
856.122
684.132
644.027
522.385
599.995
390.177
472.427
423.933
348.601
1178.91
1072.66
1175.33
963.17
850.108
970.313
841.568
1171.88
1140.14
1118.11
962.655
935.763
870.51
898.862
1253.7
1166.52
1153.83
1105.69
1090.87
965.78
983.023
663.223
681.653
599.931
570.925
490.445
500.107
382.748
843.856
645.141
465.107
646.154
672.147
826.471
670.734
1076.29
698.788
865.629
998.482
828.454
1102.5
969.94
1046.34
1126.04
1219.76
1150.75
838.044
948.947
1061.01
1097.92
1080.07
1170.13
979.719
769.271
877.844
880.831
1124.4
1023.08
1039.8
1057.13
1104.41
977.539
903.432
1078.58
944.438
915.7
936.844
978.247
778.801
730.491
812.409
622.164
793.176
437.199
627.359
598.9
407.442
1144.18
1061.29
1165.8
945.247
782.239
911.136
820.22
654.481
612.958
551.846
547.558
484.342
432.625
364.672
1250.6
1108.29
1172.25
1066.75
1133.49
1017.42
941.731
760.255
290.442
287.926
287.926
321.852
287.926
287.935
469.917
373.01
551.538
486.062
296.073
322.073
400.934
1035.36
707.419
867.776
642.347
979.314
775.799
926.657
1170.78
913.643
868.141
1004.27
1077.05
999.798
1096.35
1117.4
922.321
1026.43
763.705
898.024
1007.79
1135.57
649.625
472.981
624.577
332.754
473.416
444.259
316.994
1097.84
800.849
963.138
894.008
1061.05
905.618
689.748
900.969
683.015
863.56
569.762
776.557
705.714
479.5
1201.61
1035.29
1109.12
957.433
1042.88
912.204
809.547
398.583
287.946
287.926
287.966
287.926
287.926
287.926
500.386
387.697
584.364
486.803
295.51
320.432
398.337
944.315
1056.4
1092.43
924.179
649.957
729.515
875.08
605.787
610.15
799.775
763.217
348.896
552.89
562.961
542.455
340.512
515.458
300.509
424.682
396.592
295.811
706.906
997.093
973.462
890.227
644.685
609.678
915.584
1119.37
937.115
990.655
937.616
1025.44
844.149
734.536
489.829
432.01
405.265
333.402
318.253
302.218
297.138
1072.53
967.91
1049.94
790.174
727.818
694.342
820.756
1107.07
943.416
1053.98
727.021
859.49
791.666
654.575
876.68
1009.63
824.489
880.741
806.663
667.453
587.186
1060.66
971.139
952.001
855.974
831.004
699.519
728.56
481.229
465.349
546.032
369.071
295.633
319.931
312.643
763.766
724.013
535.651
557.653
331.145
502.736
369.111
1109.56
953.984
1098.72
913.763
753.508
725.097
931.687
587.17
394.745
485.473
331.544
406.759
320.025
295.209
539.147
432.928
587.927
404.555
294.608
358.24
303.246
770.867
1014.76
1000.37
853.049
615.591
582.369
873.896
1062.77
686.157
705.266
848.041
829.481
951.575
970.835
427.266
317.204
477.053
361.151
289.627
325.121
292.013
621.664
791.989
908.016
821.221
389.503
520.235
698.792
899.664
870.232
985.135
708.144
459.035
604.939
563.762
1047.01
884.988
1033
812.861
654.532
621.824
836.608
485.02
511.066
397.189
396.149
319.43
325.012
295.4
456.41
296.053
292.626
405.901
367.596
330.776
289.92
288.144
287.928
287.926
287.928
287.926
287.926
287.926
756.91
865.044
916.496
792.958
436.057
683.313
576.205
585.892
376.032
467.297
328.2
403.659
311.868
293.218
399.428
332.81
370.16
295.378
304.477
292.854
290.029
1008.2
791.225
895.739
638.24
762.448
620.197
482.214
917.537
702.173
694.813
661.339
651.768
416.657
425.572
967.266
1018.34
961.413
851.195
774.99
803.471
583.372
761.106
481.503
801.786
454.124
444.019
769.931
793.422
1002.71
548.398
807.179
658.854
924.854
714.192
425.099
287.926
293.528
287.932
287.926
287.926
287.963
287.926
407.693
289.954
298.636
290.01
297.005
333.894
332.441
714.736
400.506
313.944
428.28
483.828
650.767
503.007
793.322
383.434
712.262
533.758
497.191
680.478
821.085
575.525
567.89
779.255
694.333
301.481
438.61
465.569
763.069
877.546
991.632
812.031
373.564
670.974
540.841
738.979
457.58
734.607
386.24
420.954
699.961
772.437
702.294
866.654
954.485
792.714
374.288
498.457
678.524
992.307
904.947
1060.19
860.238
516.086
649.013
757.054
951.432
659.728
753.849
591.21
710.693
484.763
374.927
901.815
643.475
675.99
587.773
627.927
396.376
367.003
287.94
288.099
288.012
331.495
288.005
287.926
287.93
287.926
305.253
308.723
293.431
290.679
288.66
288.759
288.148
690.802
452.469
753.797
527.87
297.768
462.933
309.312
899.289
602.964
876.969
719.332
455.932
421.394
747.699
507.995
833.668
801.143
346.845
611.266
576.929
327.018
726.815
601.191
809.053
608.391
307.008
477.856
373.11
478.416
302.681
406.357
290.282
317.666
297.105
288.605
363.086
301.918
341.793
288.915
292.273
290.623
288.538
460.859
586.399
456.259
303.816
380.138
306.739
290.206
825.803
900.674
987.514
744.931
402.684
537.045
618.497
473.724
399.322
605.763
305.453
433.207
360.623
293.861
846.063
667.743
822.843
540.424
405.898
375.924
575.263
846.167
911.571
809.094
705.928
585.13
635.004
404.908
479.553
321.715
455.195
611.385
436.211
311.5
290.468
679.173
345.842
642.585
567.884
329.053
315.218
606.25
287.929
287.926
287.926
287.926
287.926
287.926
287.926
290.976
311.218
351.693
304.501
288.139
288.628
293.223
289.208
295.048
316.497
300.567
288.052
288.467
291.017
672.64
371.412
304.927
536.052
363.106
683.067
525.005
370.621
289.317
319.982
288.516
301.793
292.166
288.099
400.748
289.371
321.144
289.112
317.962
293.705
288.158
403.656
298.078
330.129
289.896
296.464
289.839
288.35
767.118
596.146
532.305
530.901
459.071
334.306
309.447
719.343
326.695
457.952
320.878
413.201
586.779
596.96
647.266
326.611
300.909
458.655
346.508
604.678
499.283
514.481
674.888
817.349
592.715
295.008
327.361
441.405
513.453
691.393
812.078
641.268
301.235
350.432
501.691
314.625
309.036
295.689
291.157
288.845
289.086
288.061
330.013
350.559
567.978
460.83
288.514
298.603
304.995
301.418
295.367
318.254
289.286
288.059
288.502
288.24
664.298
406.058
472.097
295.122
435.793
375.308
694.998
411.056
293.687
320.805
289.316
296.008
289.359
288.158
636.235
588.556
757.486
455.62
295.754
324.282
343.658
687.757
367.902
451.224
321.973
381.074
296.288
290.616
538.207
618.301
452.184
395.895
309.196
334.182
291.924
289.23
290.273
315.836
305.48
287.991
288.721
289.351
292.291
298.961
385.335
359.146
288.183
290.691
295.085
479.913
304.17
420.333
291.393
298.713
387.551
517.178
309.284
406.527
545.727
473.862
289.852
297.868
351.14
610.82
303.152
513.005
291.793
389.619
329.131
289.149
311.248
582.375
546.283
402.861
294.689
292.314
435.729
460.982
308.684
452.304
298.701
288.797
299.94
288.703
608.551
768.494
528.065
316.377
521.085
343.732
290.706
659.282
642.603
868.989
351.865
581.828
365.208
293.353
710.059
298.828
481.96
300.385
495.785
321.505
288.904
292.648
287.982
287.97
288.243
288.118
289.318
288.993
573.027
290.109
293.533
296.765
413.094
326.895
346.09
299.441
309.356
367.409
292.413
288.027
288.417
288.855
415.943
332.086
521.335
311.576
288.316
289.557
294.011
399.909
303.918
431.943
296.231
288.301
293.319
288.517
745.131
332.656
514.501
305.523
430.366
303.684
289.275
400.924
803.73
287.926
313.048
391.074
287.94
842.876
558.816
507.19
288.021
564.558
305.633
287.928
288.191
291.787
305.235
287.927
837.046
751.558
781.653
766.413
734.761
637.838
614.501
824.409
707.56
742.043
672.185
708.485
580.577
535.396
624.892
730.621
773.148
661.255
601.453
478.358
410.375
296.54
287.95
287.926
287.926
288.033
287.926
287.926
666.796
479.097
643.56
334.722
487.057
459.999
319.164
360.794
582.596
381.302
302.055
442.129
416.868
297.442
596.599
488.898
672.919
432.547
524.988
340.959
301.214
480.972
525.05
335.72
383.11
290.502
345.15
293.369
563.957
440.031
609.543
422.621
295.666
376.585
305.02
783.917
855.352
895.847
563.926
836.807
864.204
863.225
865.808
669.949
825.495
840.317
304.399
818.451
823.823
875.433
503.716
812.316
872.861
885.339
894.37
889.742
898.521
884.284
885.056
903.122
887.852
894.672
900.58
902.085
882.019
873.483
904.143
889.607
909.904
890.8
873.62
861.129
847.377
879.881
864.116
881.372
848.217
864.054
864.297
844.044
889.926
862.982
889.558
836.342
865.008
863.994
828.686
873.665
861.976
879.974
861.053
814.269
853.295
833.061
873.614
853.63
884.289
858.45
788.264
847.821
812.971
714.724
729.822
296.745
290.002
625.47
307.718
287.931
865.613
856.843
887.938
835.778
854.178
832.019
808.085
843.517
851.673
863.252
786.002
840.762
821.194
745.163
858.858
778.61
841.418
753.179
831.459
807.056
706.208
790.02
779.883
845.668
840.684
646.046
763.758
775.172
794.556
824.569
843.523
813.243
770.736
765.237
694.29
743.879
838.402
792.731
790.106
612.698
688.727
740.959
818.783
668.301
732.374
770.407
561.324
643.072
715.883
828.716
716.246
701.225
610.959
808.41
737.872
750.781
669.585
652.357
778.413
735.995
431.585
589.66
608.888
450.849
725.69
583.741
794.376
730.932
696.375
589.078
781.001
671.601
571.137
513.039
667.654
565.841
395.74
583.109
474.369
648.895
459.18
637.666
532.456
350.151
677.668
416.43
437.26
353.65
510.27
531.034
599.641
298.678
366.627
426.875
288.931
313.149
296.571
288.258
434.003
339.776
505.193
290.781
330.986
302.375
288.774
308.144
323.147
442.669
475.671
319.981
613.217
436.816
384.069
339.245
498.197
322.539
293.828
290.473
288.31
288.35
341.312
290.904
327.976
498.581
382.281
294.268
400.122
288.84
296.254
354.199
537.278
404.59
296.899
289.202
290.229
318.098
307.944
287.987
289.379
288.752
288.871
292.432
356.485
291.79
287.973
288.139
288.759
295.044
289.021
316.247
290.311
287.947
288.016
288.467
289.747
288.27
296.307
288.952
287.935
287.968
288.145
294.48
287.98
289.28
287.983
289.441
288.23
287.938
296.508
344.666
459.265
338.463
288.22
289.406
298.77
297.071
288.227
288.093
287.958
291.863
288.327
288.644
298.856
335.207
291.7
290.218
287.962
288.093
288.406
394.423
289.061
288.627
296.219
291.706
327.79
313.016
584.418
295.752
290.438
304.871
361.853
323.998
449.996
288.293
289.921
296.84
289.321
287.938
287.983
288.227
528.269
317.596
368.354
289.65
307.297
343.439
564.036
606.208
299.516
441.993
290.982
345.361
296.039
288.315
288.265
288.131
287.958
288.693
288.376
299.074
293.126
330.076
288.577
289.6
288.061
308.019
289.379
291.758
289.262
289.823
296.386
288.275
287.938
287.981
288.004
292.972
288.26
289.412
287.972
288.13
287.986
287.94
361.687
290.455
325.484
288.124
290.798
289.194
288.013
323.202
292.252
404.423
299.885
288.007
288.264
290.879
288.223
287.954
288.611
288.131
287.929
288.012
287.934
290.073
362.233
355.232
293.694
288.114
288.093
294.378
501.724
288.929
322.751
289.513
341.992
292.416
288.049
292.161
293.441
330.82
289.681
288.152
288.084
287.946
287.926
287.926
287.926
287.926
287.926
287.926
287.926
351.983
288.315
288.049
288.581
290.171
300.639
291.671
290.038
287.979
289.247
287.953
288.557
288.323
287.943
441.856
288.516
289.277
292.226
294.985
308.756
334.749
293.701
288.234
289.317
287.976
288.145
287.982
287.938
289.529
322.365
340.636
292.315
288.006
288.052
290.694
451.139
290.763
309.029
288.872
295.425
288.519
288.004
290.734
291.073
335.087
287.939
288.148
291.61
288.124
287.935
289.442
288.083
290.823
314.798
289.449
288.083
289.646
303.75
288.657
287.982
287.932
289.114
288.051
287.931
288.007
289.757
288.98
305.254
288.682
287.974
288.032
288.003
289.57
287.977
288.683
288.982
304.085
288.03
287.984
289.28
288.32
287.927
287.943
287.956
288.101
288.527
292.732
288.709
287.93
288.018
287.958
310.135
288.902
288.007
292.565
290.911
288.556
321.588
327.79
288.38
295.85
288.009
289.209
288.162
287.941
306.484
288.158
296.375
287.968
289.364
288.559
287.945
288.176
288.551
296
290.614
287.933
288.007
288.127
287.94
288.005
288.276
288.003
287.926
287.929
287.943
294.034
296.5
395.086
292.551
287.939
288.207
288.135
293.07
288.871
303.083
288.408
287.936
288.081
287.959
288.316
288.287
291.42
287.941
288.071
287.943
287.928
288.715
288.622
288.131
288.019
287.958
287.952
287.93
287.93
287.935
287.98
289.357
288.158
288.029
287.942
287.927
287.934
288.091
288.397
291.196
288.077
287.949
295.582
287.943
288.53
287.963
289.259
288.035
287.929
296.189
287.97
287.955
288.135
288.956
288.149
289.559
288.864
290.017
320.169
290.528
287.931
288.086
288
288.205
288.062
289.862
287.932
288.01
287.938
287.927
288.016
287.944
289.028
287.935
287.973
287.93
287.927
287.964
287.951
287.931
288.049
288.003
289.883
288.535
1335.26
288.412
940.799
287.928
514.991
936.424
471.207
862.12
708.416
713.115
863.397
474.817
1211.01
998.675
772.37
1349.09
983.114
1208.76
763.788
937.914
920.5
917.752
925.002
923.123
884.261
884.953
937.058
918.05
916.8
922.131
922.11
883.435
882.277
288.06
373.974
818.543
819.893
377.209
518.964
288.069
982.954
577.584
655.039
984.672
574.845
665.002
288.455
897.272
861.887
896.078
838.218
780.611
784.247
835.935
862.21
898.875
896.621
838.86
782.824
838.301
784.818
1343.27
1336.2
1343.31
1331
1346.41
1343.81
1333.71
288.03
315.445
526.871
537.154
288.038
317.101
287.928
849.59
715.043
853.156
784.205
623.896
630.803
779.589
716.368
853.175
854.169
785.123
627.828
782.983
631.906
1340.45
1352.44
1345.87
1327.79
1340.36
1326.24
1341.12
1303.76
1208.34
1301.97
1265.85
1165.91
1164.52
1268.18
1207.08
1305.8
1302.1
1262.62
1158.73
1259.96
1161.94
886.476
1116.5
1186.89
1197.75
924.129
897.188
1215.02
932.91
1201.91
990.344
819.024
974.218
994.184
1115.17
979.372
822.926
891.314
916.47
921.139
984.905
948.934
981.998
952.366
906.845
926.505
935.774
990.278
968.216
1000.95
957.917
927.903
957.414
960.612
1013.54
1052.54
1010.2
1054.64
942.294
965.255
974.088
1019.65
1067.57
1031.2
1058.81
991.762
991.685
991.713
1021.75
1049.33
1022.66
1049.34
999.602
997.442
993.379
1022.27
1054.79
1050.55
1025.18
973.799
957.164
957.714
986.487
957.535
987.439
956.658
961.937
975.557
958.769
987.311
960.084
990.057
957.576
1082.15
1039.14
1224.79
1190.53
1078.89
1228.29
1041.98
1089.46
1199.3
1062.23
1250.15
1103.29
1236.35
1048.75
1128.81
1243.84
1140.88
1196.58
1125.55
1245.25
1141.6
1135.61
1197.37
1259.17
1151.56
1147.99
1249.99
1144.44
1037.06
1090.22
1038.4
1113.97
1038.84
1088.91
1038.04
1036.68
1113
1091.96
1037.85
1088.77
1038.96
1037.59
982.198
933.852
922.353
824.304
982.676
936.265
924.114
982.446
825.334
935.346
924.879
983.952
936.527
924.819
820.165
759.207
763.826
713.263
718.749
626.1
618.437
820.482
761.384
764.404
715.795
719.414
627.028
621.698
719.776
643.121
551.769
480.071
559.295
649.696
714.311
720.579
481.233
555.22
646.182
717.411
560.308
650.506
1192.33
1214.17
973.207
999.02
974.459
1211.86
1194.04
1187.15
993.645
1199.27
958.498
1179.61
969.252
1206.53
1116.59
985.109
1115.28
1039.1
1040.64
856.243
850.877
1113.99
982.148
1113.43
1034.52
1038.99
855.963
850.616
1128.79
1024.41
900.427
779.096
903.811
1026.2
1129.35
1124.4
775.778
888.003
1014.7
1116.75
899.327
1022.88
819.521
663.299
825.061
648.094
447.706
458.775
638.817
825.682
660.752
822.212
649.451
454.623
643.404
461.232
341.931
660.301
524.453
667.546
496.57
349.198
487.024
554.699
382.492
562.908
448.042
303.691
306.423
438.358
383.704
558.15
563.922
449.37
304.693
442.167
306.859
525.754
663.476
668.439
497.863
344.831
490.926
350.301
535.47
443.977
453.094
340.997
347.938
308.224
305.399
532.202
448.268
454.451
344.562
349.306
308.7
306.556
857.229
587.834
862.931
639.774
360.423
369.033
630.005
586.391
852.599
861.151
640.135
362.346
631.626
369.628
374.031
319.933
382.11
294.224
289.174
289.396
293.335
320.616
377.275
383.241
294.362
289.255
293.67
289.431
290.904
327.986
289.581
288.084
289.884
291.444
322.503
328.835
288.088
289.693
291.108
324.589
289.933
291.532
411.147
288.513
293.645
302.132
403.381
294.308
303.61
409.23
293.27
300.924
288.496
294.16
303.114
398.059
288.051
290.711
291.03
288.86
287.962
288.76
287.966
757.605
600.352
288.044
499.327
843.798
596.304
523.909
288.051
842.825
786.709
842.713
790.646
762.452
654.605
647.508
842.841
760.153
788.989
791.267
763.229
655.64
650.91
399.165
391.441
592.81
304.889
453.719
462.425
307.344
676.301
343.465
519.851
529.193
683.264
508.309
350.537
394.755
601.452
400.458
463.788
305.885
457.545
307.781
530.552
679.628
684.245
509.689
346.36
503.265
351.691
859.85
679.818
864.298
880.428
859.258
859.917
864.736
683.08
857.335
889.333
855.491
886.852
877.114
877.755
880.839
855.931
880.859
890.346
886.856
877.003
877.457
880.996
847.405
875.96
856.869
872.299
858.444
861.173
846.666
886.976
862.637
884.608
860.233
837.368
862.689
837.51
856.682
875.949
872.026
858.215
848.041
861.214
846.752
862.643
887.517
884.506
859.989
838.172
862.8
837.624
794.807
844.619
785.491
686.848
845.265
789.316
798.414
844.669
687.776
796.896
787.512
845.883
789.846
798.975
289.491
324.223
290.783
329.358
288.063
291.266
289.741
330.246
288.066
289.59
290.973
326.306
291.349
289.785
287.96
288.707
290.498
288.048
290.942
288.838
287.965
287.936
287.979
288.155
288.194
287.929
287.937
287.988
288.2
287.929
287.936
287.983
288.169
287.938
287.99
288.248
287.928
287.928
287.965
287.974
287.932
287.926
287.934
288.108
287.968
288.038
287.927
287.931
287.952
288.108
287.927
287.93
287.927
287.947
287.933
287.965
287.937
287.978
288.23
287.984
287.926
287.928
287.935
288.007
288.009
288.296
287.941
287.927
287.929
287.929
288.032
287.927
287.956
287.927
287.958
287.935
287.926
288.535
288.911
307.796
289.797
287.929
287.983
288.018
288.011
288.886
291.09
288.164
287.928
287.933
288.001
290.365
289.188
314.773
288.77
287.93
288
287.968
287.984
287.971
287.935
287.936
287.928
287.927
287.926
288.087
288.422
293.903
288.373
287.927
287.939
287.965
287.983
287.927
287.931
287.926
287.95
287.928
287.939
288.666
287.931
287.939
287.928
287.949
287.981
288.107
288.276
287.939
287.927
287.957
287.937
288.318
287.954
287.984
288.025
289.861
288.169
287.926
287.933
287.939
287.997
288.09
289.158
287.963
287.926
287.931
287.928
288.102
287.93
287.946
287.927
287.933
287.927
287.926
288.022
287.927
287.927
287.926
287.93
287.933
287.947
288.192
287.931
287.927
287.939
287.935
288.095
287.947
287.946
287.96
288.237
287.927
287.938
287.927
287.926
287.927
287.939
288.149
287.927
287.926
287.927
287.939
287.935
287.932
288.064
287.926
287.926
287.926
287.936
287.926
287.927
287.926
287.935
287.932
288.084
287.962
287.933
287.938
288.083
287.935
287.926
287.926
287.926
287.94
287.926
287.926
287.926
287.926
287.928
287.929
287.929
287.933
288.015
287.966
287.926
287.927
287.929
287.931
287.952
288.127
287.943
287.926
287.928
287.926
287.926
287.926
287.926
287.93
287.926
288.003
287.934
287.929
287.957
287.927
287.926
287.926
287.926
287.928
287.932
287.926
287.926
287.929
287.926
287.983
287.929
288.067
287.926
287.926
287.926
287.935
287.93
287.933
287.99
287.926
287.935
287.926
287.932
287.927
287.926
288
287.927
287.935
287.926
287.929
287.926
287.926
287.941
287.926
287.928
287.926
287.926
287.926
287.926
287.928
287.926
287.934
287.928
287.926
287.926
287.926
287.926
287.928
287.934
287.928
287.926
287.926
287.926
287.941
287.926
287.926
287.926
287.926
287.931
287.927
287.927
287.929
287.964
287.933
287.926
287.926
287.926
287.929
287.928
287.959
287.927
287.926
287.926
287.926
287.933
287.926
287.927
287.926
287.927
287.926
287.926
287.951
287.926
287.926
287.926
287.927
287.928
287.927
287.926
287.932
287.927
287.926
287.926
287.926
287.926
287.926
288.152
287.959
287.963
287.926
287.926
288.215
287.926
292.837
287.93
287.926
287.926
287.926
287.926
287.926
287.926
287.926
287.932
287.926
287.926
287.926
288.104
287.926
287.926
287.926
287.926
294.449
287.926
287.926
287.926
287.926
287.926
287.926
287.926
287.926
287.926
287.926
287.926
287.926
287.926
287.926
287.926
287.926
287.926
287.926
287.926
287.926
287.926
287.926
287.926
287.926
287.926
287.926
287.926
287.926
287.926
287.955
725.684
450.876
714.021
288.054
446.734
287.955
287.926
287.926
287.956
293.582
287.926
287.932
287.926
291.845
287.926
287.937
353.513
287.926
287.934
287.926
294.943
287.926
287.926
287.987
287.926
287.926
287.926
287.926
287.931
288.839
319.054
287.926
287.932
287.926
690.56
730.709
696.96
386.559
411.292
419.763
378.411
726.316
679.873
692.851
384.668
406.053
374.335
417.441
595.232
460.785
604.395
327.477
295.628
296.6
323.228
458.841
587.393
601.24
326.748
295.386
321.783
296.464
350.341
291.9
358.155
292.6
292.52
288.174
288.137
359.364
292.17
292.108
292.716
292.634
288.18
288.151
287.926
287.926
287.926
287.926
287.926
287.926
287.926
295.093
288.636
288.713
288.172
288.197
287.956
287.953
294.105
288.159
288.596
288.695
288.192
287.956
287.952
288.536
288.15
288.412
287.952
287.938
287.947
287.935
288.625
288.152
293.251
294.158
288.75
288.192
287.962
294.299
288.671
288.77
288.166
288.198
287.963
287.958
288.02
288.081
288.277
287.935
287.93
287.941
287.932
288
319.398
290.446
323.634
290.852
288.971
288.011
323.317
290.527
290.879
288.833
288.963
288.012
288.002
288.04
287.953
288.011
287.927
287.93
287.929
287.927
288.059
288.011
291.04
291.452
288.076
288.022
293.437
287.926
287.926
287.926
287.929
287.926
287.926
287.926
291.376
288.073
292.593
288.008
290.894
288.021
293.311
287.926
287.926
287.926
287.926
287.926
287.926
287.926
287.926
287.926
287.926
287.926
287.926
287.926
287.926
287.926
287.926
287.926
287.926
287.926
287.926
287.926
287.939
287.926
287.926
287.926
288.201
287.971
287.926
287.926
287.926
287.926
287.926
287.926
287.926
287.926
287.926
287.926
287.926
287.926
287.926
287.926
287.926
287.926
287.926
287.926
287.926
287.926
287.926
287.926
287.926
287.926
287.926
287.926
287.926
287.926
287.926
287.929
287.926
287.926
287.926
287.928
287.926
287.926
287.926
287.926
287.927
287.926
287.926
287.926
287.926
287.926
287.926
287.926
287.926
287.926
287.926
287.926
287.926
287.926
287.926
287.926
287.926
287.926
287.926
287.926
287.926
287.926
287.926
287.926
287.926
287.926
287.94
287.926
287.926
287.926
287.926
287.926
287.926
287.926
287.926
288.477
287.926
287.926
287.926
288.355
287.926
287.926