/*--------------------------------*- C++ -*----------------------------------*\
  =========                 |
  \\      /  F ield         | OpenFOAM: The Open Source CFD Toolbox
   \\    /   O peration     | Website:  https://openfoam.org
    \\  /    A nd           | Version:  9
     \\/     M anipulation  |
\*---------------------------------------------------------------------------*/
FoamFile
{
    format      ascii;
    class       volVectorField;
    location    "0.0014";
    object      U;
}
// * * * * * * * * * * * * * * * * * * * * * * * * * * * * * * * * * * * * * //

dimensions      [0 1 -1 0 0 0 0];

internalField   nonuniform List<vector> 
12360
(
(808.881 -238.97 41.7989)
(13.9265 -4.5897 4.10723)
(525.767 -272.303 165.47)
(1.98432 -0.563679 0.631452)
(528.216 -281.218 212.312)
(95.6071 -34.0076 31.8071)
(0.182425 -0.0590868 0.0545218)
(679.532 -172.949 31.9668)
(128.496 -33.6224 62.4621)
(493.083 -150.385 213.989)
(0.0319862 -0.00696442 0.00606153)
(134.262 -45.5304 97.7036)
(4.13247 -283.607 11.9334)
(25.3403 -121.362 4.59686)
(19.8449 -842.408 43.7976)
(171.386 -838.869 44.4557)
(318.874 -779.979 42.7077)
(260.069 -432.805 20.3957)
(571.101 -385.233 28.2028)
(0.0284848 -4.67848 1.61278)
(0.153933 -1.12646 0.351856)
(11.6379 -728.937 347.232)
(150.264 -701.208 348.327)
(219.482 -538.019 284.617)
(8.88492 -19.8678 8.0213)
(121.637 -78.0431 61.5047)
(7.26388 -32.9123 10.8475)
(0.168431 -0.569237 0.176014)
(0.000301718 -0.000931548 0.000299066)
(0.917575 -0.589218 0.310093)
(0.000218715 -0.000157763 0.000167612)
(694.585 -363.01 38.3344)
(3.25143 -0.995242 0.828728)
(541.917 -304.735 189.875)
(0.453103 -0.122143 0.130796)
(510.719 -296.855 207.447)
(0.593208 -0.198887 0.178207)
(0.0340491 -0.0114213 0.00958806)
(750.055 -304.595 40.3296)
(654.862 -286.538 78.6932)
(669.486 -252.421 71.265)
(701.978 -320.227 267.234)
(740.082 -339.485 43.5297)
(788.468 -243.635 42.467)
(694.325 -220.562 208.559)
(483.245 -94.6611 221.396)
(518.921 -163.445 234.98)
(461.634 -138.037 150.227)
(104.543 -33.2545 45.0187)
(564.16 -68.7401 182.966)
(518.175 -70.1813 232.194)
(278.473 -36.3136 122.145)
(133.326 -846.084 44.1836)
(29.996 -901.734 39.6424)
(141.625 -886.192 38.1314)
(14.3831 -779.322 274.058)
(124.412 -777.877 284.934)
(17.8682 -688.461 105.48)
(123.29 -688.146 113.026)
(543.461 -271.619 264.762)
(505.354 -210.981 143.501)
(487.948 -197.771 241.819)
(659.634 -304.033 328.53)
(212.043 -103.775 109.468)
(691.1 -218.699 289.692)
(608.911 -201.148 304.386)
(285.946 -805.146 43.8559)
(176.332 -871.259 39.124)
(277.723 -793.562 41.5424)
(161.433 -768.021 289.636)
(258.443 -705.488 286.699)
(154.564 -678.002 121.388)
(246.245 -644.284 167.926)
(116.705 -716.234 349.401)
(14.6483 -604.922 160.818)
(112.887 -613.146 169.525)
(4.08347 -299.834 138.035)
(38.2484 -211.819 101.717)
(12.4352 -606.048 261.259)
(109.607 -611.89 266.563)
(524.496 -216.551 211.126)
(51.816 -24.3744 19.0541)
(1.01923 -0.352183 0.285502)
(411.953 -222.46 184.394)
(507.936 -193.136 231.769)
(540.62 -194.355 187.72)
(46.1554 -15.91 18.2749)
(780.477 -272.577 40.8335)
(749.315 -266.738 32.3492)
(771.926 -232.114 27.9409)
(806.065 -245.523 42.8276)
(780.606 -242.003 41.6123)
(753.888 -274.821 47.9485)
(777.354 -277.37 42.5406)
(351.679 -93.1475 146.533)
(807.633 -208.863 43.1853)
(781.176 -167.046 170.292)
(838.864 -101.879 42.3952)
(787.879 -88.2781 38.3005)
(752.427 -89.3914 220.541)
(554.779 -61.1626 220.652)
(219.981 -610.249 319.384)
(143.586 -611.593 178.087)
(238.215 -619.983 230.556)
(35.5369 -149.997 73.5731)
(4.54905 -14.7881 7.64525)
(142.722 -607.894 268.605)
(228.849 -570.006 272.25)
(625.199 -347.476 109.699)
(686.996 -347.778 273.872)
(737.36 -371.421 42.7758)
(655.903 -421.408 34.7989)
(510.502 -318.938 213.036)
(631.764 -441.341 42.2846)
(597.464 -409.255 223.453)
(69.5664 -899.342 38.8808)
(26.8124 -874.102 23.6507)
(66.7847 -874.506 24.1057)
(65.3785 -861.652 43.7649)
(27.7433 -880.942 41.8073)
(24.6696 -859.738 42.8364)
(67.9727 -881.766 41.657)
(328.559 -599.843 29.9999)
(309.002 -762.444 42.3664)
(399.251 -690.345 43.8666)
(272.813 -662.442 273.687)
(165.666 -298.463 130.93)
(276.415 -639.168 191.843)
(377.68 -663.086 262.244)
(106.255 -894.833 38.3671)
(140.829 -862.391 29.302)
(104.631 -871.501 25.7946)
(103.849 -858.868 46.9063)
(140.035 -869.785 40.246)
(140.716 -848.312 53.1233)
(104.661 -878.625 40.965)
(724.33 -301.694 37.3527)
(720.458 -334.842 40.0101)
(697.176 -334.831 44.7181)
(725.058 -306.652 57.7048)
(722.882 -335.132 40.9823)
(698.903 -336.603 72.2521)
(749.786 -307.162 41.4625)
(684.124 -218.195 66.9657)
(567.919 -230.223 96.0032)
(572.283 -199.724 93.1288)
(615.518 -210.183 112.417)
(710.503 -229.93 84.5253)
(691.486 -262.102 94.59)
(608.932 -240.05 124.173)
(480.74 -67.9218 224.213)
(489.353 -68.3331 208.551)
(493.938 -95.8562 206.896)
(559.261 -73.208 221.231)
(563.783 -104.267 219.296)
(566.433 -73.5409 206.554)
(566.079 -105.32 204.805)
(175.74 -847.243 35.4318)
(210.761 -849.639 40.9206)
(210.157 -825.968 43.5769)
(175.264 -853.875 40.4399)
(176.379 -831.388 62.2987)
(210.917 -809.546 73.9645)
(210.168 -831.004 41.3115)
(0.577681 -2.03679 0.634524)
(141.422 -579.667 218.449)
(205.589 -501.604 188.718)
(0.131879 -0.739064 0.205619)
(0.00919578 -0.0348132 0.00861766)
(105.952 -422.793 180.995)
(75.1529 -171.221 75.395)
(22.3308 -803.229 72.7137)
(55.828 -693.677 105.317)
(62.2328 -806.588 72.6084)
(61.0748 -802.573 99.6229)
(16.8534 -708.015 143.32)
(20.8613 -798.39 98.8345)
(54.8535 -713.475 144.348)
(485.947 -121.935 217.435)
(510.894 -155.96 201.793)
(500.407 -124.805 204.316)
(569.06 -169.93 213.299)
(567.793 -136.649 216.327)
(561.608 -137.956 201.793)
(552.21 -170.523 197.58)
(497.46 -159.739 266.82)
(24.3147 -6.6599 10.0283)
(0.03352 -0.00720029 0.017033)
(522.982 -70.7643 277.244)
(121.371 -16.4015 60.4967)
(295.04 -40.1214 219.373)
(0.250794 -0.0245586 0.132415)
(134.78 -795.741 78.9636)
(90.8315 -694.477 107.386)
(99.6713 -805.325 74.4281)
(98.7444 -801.42 103.477)
(122.996 -708.636 158.661)
(134.038 -791.042 111.044)
(89.9945 -714.585 149.227)
(171.399 -75.7187 7.04416)
(679.968 -309.912 273.458)
(766.154 -346.285 42.2906)
(597.476 -180.706 27.5327)
(241.466 -76.1013 100.901)
(794.821 -244.074 43.4914)
(770.316 -236.989 187.533)
(773.48 -243.566 94.0852)
(798.763 -246.497 41.8613)
(774.632 -244.598 62.2252)
(748.984 -276.265 73.6716)
(768.92 -276.425 43.0864)
(757.206 -275.581 103.847)
(771.8 -276.796 41.7692)
(485.056 -199.921 212.496)
(500.848 -182.391 143.054)
(473.556 -170.92 214.417)
(559.222 -195.455 163.226)
(548.402 -189.434 234.758)
(565.08 -225.642 175.39)
(564.928 -221.959 246.334)
(245.06 -823.484 41.4663)
(277.328 -768.59 66.9252)
(244.087 -798.623 54.1238)
(244.59 -785.874 88.0745)
(278.031 -779.07 43.5498)
(277.897 -764.684 101.997)
(244.229 -804.362 42.2885)
(568.77 -311.445 288.289)
(634.068 -318.907 324.966)
(83.9431 -41.855 45.4956)
(326.158 -207.078 174.859)
(607.388 -411.635 298.956)
(424.685 -289.937 251.043)
(0.565994 -0.227531 0.299821)
(639.627 -318.733 91.2074)
(565.484 -290.874 119.235)
(565.697 -260.85 104.162)
(672.065 -292.427 108.413)
(603.688 -297.88 164.836)
(604.323 -269.339 141.467)
(655.312 -320.195 126.482)
(505.112 -204.498 234.045)
(472.033 -168.1 240.306)
(486.533 -172.829 234.067)
(573.694 -197.904 245.08)
(561.47 -190.704 258.454)
(580.227 -226.365 269.126)
(576.188 -232.2 250.885)
(168.336 -780.034 85.9046)
(185.557 -666.19 132.731)
(201.467 -760.25 95.7885)
(155.207 -699.78 171.654)
(167.797 -774.895 121.81)
(201.121 -756.39 135.537)
(187.696 -691.474 187.805)
(722.013 -154.777 321.1)
(0.144055 -0.025765 0.0474005)
(433.995 -100.896 176.97)
(682.118 -78.7114 331.742)
(323.684 -36.8855 165.522)
(518.803 -60.2358 202.259)
(0.929006 -0.0756777 0.301355)
(670.733 -365.943 58.7536)
(670.906 -390.245 39.5661)
(650.88 -393.177 78.5516)
(697.85 -363.086 41.7195)
(679.662 -363.77 90.6148)
(668.617 -389.639 105.543)
(677.167 -390.702 42.4755)
(502.869 -68.9897 208.885)
(521.737 -100.071 233.699)
(508.868 -97.7755 208.751)
(536.096 -71.3015 239.655)
(558.443 -73.0256 215.79)
(553.102 -104.807 214.278)
(527.489 -101.859 236.759)
(49.772 -610.942 161.455)
(12.8873 -580.885 244.342)
(46.1296 -587.002 245.82)
(14.2667 -661.781 212.722)
(50.2201 -667.632 214.606)
(46.9304 -666.842 300.669)
(12.4118 -662.173 298.309)
(30.1522 -183.998 7.47637)
(18.2057 -861.771 44.2175)
(133.474 -856.48 44.0491)
(0.266546 -30.4237 10.0544)
(1.83042 -14.5911 4.36866)
(12.8152 -764.651 296.641)
(119.977 -745.757 293.727)
(62.3445 -842.66 81.5189)
(58.7669 -848.18 43.9033)
(22.6671 -847.745 41.6428)
(19.1813 -847.577 114.672)
(58.7808 -853.281 115.834)
(21.7945 -838.144 80.3636)
(61.5865 -852.103 41.8605)
(49.5511 -96.6812 47.6021)
(271.251 -630.243 258.802)
(366.49 -638.475 334.091)
(1.41004 -4.51604 2.31764)
(0.0150357 -0.0497774 0.0247331)
(241.977 -542.079 268.763)
(141.981 -243.093 146.188)
(726.952 -306.269 88.5262)
(724.36 -336.333 42.8552)
(743.572 -339.51 117.571)
(751.306 -308.264 43.4097)
(746.099 -307.23 111.381)
(711.354 -334.962 102.696)
(747.176 -307.031 42.3865)
(733.582 -232.412 154.106)
(650.67 -215.292 152.906)
(720.155 -232.945 115.122)
(701.63 -263.239 129.621)
(697.666 -253.625 228.062)
(723.537 -263.854 165.345)
(646.082 -245.514 171.643)
(100.792 -842.57 85.5125)
(96.105 -850.034 43.9138)
(134.312 -844.209 42.1974)
(135.878 -851.186 122.006)
(97.4421 -855.303 118.491)
(137.825 -834.833 92.3351)
(98.1844 -851.664 41.8376)
(264.993 -713.089 124.187)
(216.092 -654.202 147.963)
(233.732 -736.956 108.483)
(233.799 -738.284 151.197)
(253.145 -684.48 225.284)
(265.99 -723.443 165.737)
(220.192 -685.634 206.156)
(82.0178 -614.116 164.071)
(108.232 -595.841 253.201)
(77.384 -592.027 248.599)
(116.517 -671.91 230.146)
(83.8118 -671.297 220.361)
(80.676 -669.677 305.577)
(114.316 -669.725 312.964)
(12.3884 -591.406 273.632)
(44.8695 -610.505 262.986)
(44.9296 -597.322 275.602)
(44.8081 -654.209 310.148)
(11.2742 -621.407 269.34)
(11.3612 -651.838 308.681)
(43.3143 -622.346 270.012)
(507.301 -181.566 212.251)
(522.146 -189.846 199.061)
(525.942 -224.476 195.984)
(563.592 -203.058 210.827)
(536.968 -199.482 191.485)
(549.715 -231.379 206.206)
(515.953 -221.874 181.753)
(522.523 -161.304 208.418)
(522.883 -131.429 235.038)
(515.748 -128.634 208.447)
(543.005 -136.495 211.304)
(493.979 -155.736 221.581)
(528.167 -165.855 206.245)
(513.881 -130.95 231.453)
(107.982 -608.283 281.99)
(77.1665 -612.894 264.629)
(76.3204 -603.085 278.175)
(78.5942 -652.985 312.414)
(108.521 -609.189 268.492)
(112.318 -647.698 315.419)
(76.1034 -618.446 269.922)
(832.254 -103.231 93.6365)
(832.558 -137.528 42.4893)
(825.602 -139.622 98.4603)
(849.889 -137.893 123.233)
(849.44 -100.878 43.5252)
(854.588 -100.514 120.936)
(846.451 -137.253 43.541)
(308.654 -739.46 82.4961)
(339.698 -733.625 43.4506)
(338.708 -716.244 100.455)
(311.529 -757.933 44.3774)
(310.489 -747.469 112.266)
(343.022 -737.074 118.602)
(343.307 -739.307 44.5359)
(513.517 -240.955 150.382)
(525.004 -267.268 232.706)
(501.765 -232.22 217.442)
(589.348 -288.823 220.845)
(575.002 -256.849 194.652)
(586.108 -256.837 266.327)
(605.228 -292.113 293.655)
(297.502 -164.538 158.013)
(1.5546 -0.610989 0.944222)
(0.000454574 -0.000123825 0.000218832)
(67.3418 -25.8841 47.3961)
(478.871 -183.038 256.513)
(9.75229 -2.84794 3.61074)
(0.0118758 -0.00275985 0.00594008)
(262.586 -65.7498 85.0339)
(6.96786 -1.68842 2.23366)
(0.000972913 -0.000212718 0.000302522)
(373.597 -45.5202 116.907)
(0.221851 -0.0179021 0.0450898)
(41.2756 -5.02217 16.1325)
(0.00573158 -0.000348798 0.00185457)
(2.59658 -10.0781 0.248453)
(172.424 -841.432 43.6362)
(270.456 -755.987 39.0211)
(1.2928 -8.27308 2.32971)
(0.104934 -0.503189 0.112439)
(152.883 -722.92 288.698)
(201.798 -565.323 233.17)
(170.99 -831.208 42.9134)
(174.214 -843.004 125.81)
(174.076 -822.33 100.685)
(210.019 -807.831 109.203)
(210.276 -830.37 44.6434)
(212.683 -833.261 129.058)
(208.039 -814.852 43.799)
(319.354 -217.115 138.779)
(624.103 -466.525 41.8424)
(616.744 -448.31 248.031)
(602.104 -522.745 35.0339)
(16.8068 -11.2976 0.47951)
(490.745 -423.51 218.982)
(0.94538 -0.556834 0.234918)
(12.5979 -5.2917 4.46035)
(0.19956 -0.0691477 0.0524616)
(306.883 -184.922 139.703)
(70.5885 -48.5646 26.6479)
(4.64264 -2.67983 1.51987)
(0.0517124 -0.0211988 0.0197975)
(0.000635898 -0.000284128 0.000156507)
(601.702 -75.5409 212.659)
(545.509 -98.2292 176.421)
(594.359 -108.913 209.732)
(494.831 -61.0894 158.733)
(570.282 -73.0002 196.359)
(560.738 -104.993 192.693)
(466.941 -85.6094 149.731)
(139.844 -601.535 260.348)
(174.665 -611.668 190.625)
(172.553 -610.431 271.84)
(149.407 -672.743 244.019)
(183.15 -675.444 262.129)
(148.236 -667.704 322.495)
(181.885 -662.483 333.327)
(567.212 -319.437 141.971)
(572.233 -347.378 170.474)
(614.516 -372.792 132.021)
(608.794 -326.549 191.646)
(644.59 -346.125 146.273)
(641.13 -372.224 162.54)
(619.575 -357.023 216.107)
(2.58102 -4.95096 0.115433)
(431.345 -686.947 43.0646)
(464.464 -609.523 33.0428)
(63.4813 -113.625 46.905)
(0.113824 -0.253465 0.0560278)
(410.045 -657.366 274.698)
(330.471 -439.42 193.28)
(687.124 -291.907 146.065)
(652.33 -306.523 215.891)
(723.057 -328.7 187.361)
(702.936 -287.329 249.584)
(720.567 -295.632 176.3)
(646.094 -275.658 193.402)
(678.677 -320.049 160.931)
(58.5056 -797.602 145.281)
(17.0925 -817.147 189.806)
(51.1186 -782.956 275.717)
(15.6361 -734.971 205.269)
(55.7357 -822.941 190.961)
(18.9396 -791.914 144.172)
(53.1536 -740.842 206.982)
(512.476 -232.101 248.983)
(548.088 -279.555 251.021)
(529.815 -241.065 239.414)
(592.772 -262.099 285.354)
(553.697 -280.158 261.621)
(568.789 -260.67 257.425)
(592.936 -291.399 303.724)
(804.417 -209.947 110.128)
(821.411 -173.157 42.881)
(815.348 -174.953 104.141)
(841.395 -175.098 125.527)
(829.548 -210.933 43.4274)
(828.954 -211.788 127.559)
(839.344 -173.911 43.5833)
(597.864 -266.315 306.335)
(18.5751 -7.20857 9.19362)
(0.00151139 -0.000426569 0.000520192)
(62.3717 -17.7128 28.1086)
(693.799 -218.638 330.329)
(0.0552976 -0.0108049 0.0185143)
(486.466 -156.797 259.156)
(0.00162601 -0.00515132 0.00170585)
(199.499 -431.886 167.299)
(27.0558 -50.526 23.6856)
(0.00251978 -0.00933546 0.0027439)
(6.71138e-05 -0.000182783 4.29008e-05)
(33.527 -71.3891 29.6177)
(0.271131 -0.664902 0.185052)
(565.636 -171.464 198.482)
(513.532 -122.821 165.859)
(582.207 -141.45 205.105)
(544.58 -134.814 185.653)
(352.079 -109.536 114.287)
(518.863 -159.136 174.583)
(421.171 -103.418 135.387)
(95.6931 -798.603 150.048)
(130.917 -820.053 200.08)
(87.5582 -782.927 279.697)
(122.786 -740.956 222.924)
(93.2943 -824.796 194.547)
(131.356 -791.554 158.339)
(88.4254 -743.353 212.97)
(624.158 -206.867 213.607)
(655.835 -212.694 328.194)
(632.377 -207.817 286.098)
(688.272 -251.284 310.059)
(633.023 -239.182 234.986)
(638.248 -241.231 304.535)
(640.169 -238.767 334.259)
(793.633 -96.938 156.256)
(751.654 -124.134 229.721)
(788.309 -132.257 162.592)
(819.303 -132.112 200.21)
(782.037 -89.1668 279.747)
(824.564 -95.0865 196.851)
(773.871 -125.33 282.552)
(141.008 -614.237 287.302)
(175.537 -600.283 270.713)
(175.196 -618.907 295.653)
(138.667 -594.138 265.204)
(145.29 -638.933 319.313)
(176.347 -626.78 324.018)
(163.738 -569.568 259.2)
(649.804 -416.683 41.562)
(631.699 -441.162 109.189)
(638.439 -416.907 98.3646)
(662.502 -416.433 112.03)
(658.518 -444.907 41.9396)
(667.572 -446.749 116.004)
(661.343 -417.17 42.524)
(294.652 -691.952 143.155)
(307.498 -640.749 216.026)
(323.68 -677.314 161.838)
(287.392 -689.57 246.84)
(297.979 -713.772 177.57)
(331.475 -713.316 188.055)
(323.024 -694.741 267.932)
(809.663 -210.538 41.9964)
(689.015 -184.681 268.888)
(695.877 -187.817 192.154)
(857.072 -174.166 46.0593)
(699.01 -185.269 64.4631)
(888.458 -111.769 54.9602)
(856.397 -107.803 42.7478)
(735.79 -92.8627 62.9974)
(710.341 -89.4294 158.436)
(499.348 -154.994 147.635)
(563.986 -162.062 230.542)
(463.008 -141.861 241.59)
(504.599 -101.004 161.335)
(682.382 -83.985 230.202)
(459.338 -91.7989 249.067)
(619.693 -74.6914 247.44)
(874.189 -142.649 49.8236)
(835.894 -104.552 18.8766)
(824.399 -136.166 19.5027)
(885.84 -110.384 44.7261)
(849.799 -106.343 24.4846)
(838.471 -141.133 26.5393)
(872.381 -145.237 42.7487)
(834.46 -205.768 43.5198)
(792.241 -199 24.3475)
(809.95 -167.289 21.3349)
(823.317 -174.845 30.6859)
(832.545 -212.529 42.7003)
(803.736 -208.302 35.8829)
(855.371 -179.568 42.5477)
(725.737 -123.298 62.4113)
(595.432 -111.21 97.8361)
(602.83 -82.1391 101.586)
(645.369 -87.9778 96.9917)
(765.396 -98.1689 65.2956)
(755.742 -131.603 67.2865)
(639.102 -119.209 97.6072)
(464.777 -93.8036 229.767)
(508.148 -73.8202 167.035)
(465.513 -68.0846 233.944)
(560.794 -78.5293 154.358)
(525.674 -72.8861 229.706)
(559.203 -107.814 153.622)
(527.573 -100.991 228.686)
(712.754 -153.675 62.8816)
(579.348 -169.806 93.6657)
(587.033 -140.325 95.3944)
(742.696 -164.217 71.1234)
(623.493 -180.021 105.183)
(727.806 -197.122 76.9117)
(631.293 -149.678 100.328)
(469.935 -92.9279 246.41)
(459.408 -66.5909 252.63)
(468.776 -67.0862 249.346)
(539.207 -71.8903 243.701)
(523.964 -71.211 251.192)
(527.519 -99.235 250.922)
(544.611 -101.162 242.719)
(876.23 -111.103 44.9241)
(837.502 -105.959 57.9527)
(850.528 -106.916 36.1645)
(839.102 -142.944 39.7821)
(845.801 -142.839 41.8159)
(826.819 -142.324 63.8527)
(863.62 -146.653 43.7389)
(500.732 -128.127 154.401)
(466.592 -144.778 219.579)
(464.052 -119.464 225.509)
(556.782 -166.027 156.759)
(557.013 -136.971 153.985)
(530.611 -129.523 228.059)
(537.262 -158.726 229.235)
(822.429 -177.668 45.4976)
(792.087 -210.677 82.789)
(823.97 -214.527 43.0231)
(829.879 -177.172 41.8169)
(800.107 -211.458 52.7665)
(811.042 -177.052 72.2364)
(846.35 -181.29 43.7406)
(475.885 -144.959 237.662)
(459.321 -116.795 244.596)
(471.14 -118.784 242.168)
(532.739 -127.94 250.782)
(563.009 -163.738 242.307)
(544.21 -157.964 252.665)
(552.138 -131.614 241.923)
(783.815 -99.2224 112.881)
(681.505 -89.7852 115.951)
(783.229 -100.017 83.0313)
(772.737 -134.81 87.3656)
(705.899 -122.584 166.658)
(774.231 -134.077 120.046)
(675.259 -122.13 120.573)
(757.767 -168.279 94.1146)
(746.778 -200.406 141.864)
(658.479 -184.575 138.688)
(700.251 -155.141 178.08)
(739.781 -201.185 103.341)
(761.006 -167.569 129.993)
(667.011 -153.482 128.049)
(616.869 -81.4691 174.801)
(678.92 -80.626 301.014)
(602.555 -77.2767 251.344)
(684.129 -117.171 238.95)
(616.698 -112.573 179.281)
(607.334 -108.504 255.019)
(677.237 -114.612 306.134)
(656.821 -78.1344 295.777)
(620.35 -76.4118 251.722)
(614.649 -76.4422 268.922)
(619.161 -108.594 271.347)
(609.698 -107.602 244.279)
(650.626 -112.229 297.675)
(618.331 -109.69 252.166)
(618.994 -174.997 198.034)
(686.107 -150.603 251.773)
(616.619 -143.645 186.633)
(613.88 -140.628 261.252)
(666.036 -181.991 320.759)
(623.07 -173.791 271.383)
(672.813 -148.61 313.098)
(623.467 -141.842 275.606)
(627.337 -175.756 302.654)
(602.917 -176.198 252.174)
(592.413 -137.834 238.651)
(625.317 -175.995 282.337)
(640.808 -145.273 300.005)
(612.568 -143.294 252.26)
(534.064 -252.689 211.42)
(498.043 -271.559 182.571)
(516.989 -253.546 191.317)
(495.328 -256.687 186.067)
(529.33 -251.489 198.411)
(481.969 -230.956 166.087)
(417.528 -221.061 142.904)
(52.7263 -22.44 1.76499)
(632.359 -311.631 257.382)
(736.621 -369.647 40.5201)
(0.293401 -0.101752 0.00481559)
(0.0152372 -0.00474819 0.00293667)
(496.512 -310.519 23.4026)
(190.476 -117.503 81.2325)
(245.945 -794.872 116.278)
(248.718 -820.285 44.4649)
(280.533 -785.073 44.7653)
(286.278 -800.592 132.215)
(250.292 -820.744 131.335)
(282.059 -786.879 121.977)
(244.634 -798.305 44.3712)
(168.81 -812.046 205.55)
(157.495 -738.169 235.609)
(166.464 -780.975 168.205)
(201.922 -771.139 178.023)
(197.854 -753.371 292.426)
(206.621 -802.111 209.53)
(193.308 -737.019 250.628)
(522.986 -194.377 207.833)
(489.378 -216.097 224.538)
(513.377 -224.441 204.476)
(464.789 -172.407 205.903)
(507.422 -190.142 196.896)
(476.528 -204.115 181.839)
(414.637 -176.682 182.523)
(706.112 -364.81 43.0319)
(742.044 -372.067 122.607)
(701.416 -363.365 111.19)
(701.345 -393.792 116.231)
(728.688 -402.388 41.3696)
(728.084 -401.131 124.067)
(695.47 -393.44 42.8848)
(518.96 -101.197 276.123)
(500.231 -68.2485 307.914)
(491.61 -97.2379 302.508)
(501.364 -66.6374 263.171)
(488.748 -94.3092 255.82)
(433.714 -56.7133 255.817)
(407.929 -78.341 240.122)
(621.78 -209.235 291.285)
(588.434 -205.275 251.421)
(519.428 -176.601 219.286)
(613.083 -238.099 301.24)
(449.514 -175.943 200.3)
(579.54 -218.016 303.24)
(568.562 -227.848 249.098)
(775.309 -202.035 178.691)
(749.839 -159.171 241.551)
(747.288 -194.44 255.024)
(809.564 -168.99 203.687)
(743.649 -194.911 283.651)
(794.56 -205.197 206.621)
(761.03 -161.146 284.275)
(206.09 -614.529 208.167)
(240.655 -629.461 309.973)
(206.463 -620.919 288.683)
(251.858 -681.549 309.644)
(217.502 -679.169 284.667)
(214.205 -654.319 343.013)
(242.467 -641.441 350.299)
(369.674 -709.178 43.8455)
(399.193 -692.327 117.867)
(368.486 -700.632 112.918)
(377.289 -735.348 123.727)
(410.78 -725.612 42.8416)
(411.192 -728.488 126.471)
(375.998 -730.531 44.223)
(170.779 -564.126 212.35)
(134.889 -541.684 188.067)
(158.449 -516.373 177.091)
(123.689 -515.311 180.53)
(138.616 -465.296 164.981)
(103.132 -416.735 136.479)
(107.992 -346.914 114.939)
(796.395 -245.057 116.004)
(787.018 -279.302 43.6725)
(789.947 -279.984 121.858)
(815.5 -247.323 43.0298)
(810.559 -247.333 128.767)
(786.692 -279.571 128.882)
(793.619 -281.198 42.1904)
(554.132 -304.505 258.989)
(561.858 -337.809 222.308)
(608.701 -321.808 253.585)
(581.861 -342.929 294.543)
(613.342 -323.899 321.054)
(628.062 -356.852 290.503)
(607.721 -347.209 338.427)
(407.812 -51.2239 149.272)
(482.532 -61.8468 209.816)
(534.247 -68.7857 202.143)
(520.396 -97.8957 196.224)
(232.975 -45.4822 102.745)
(369.68 -69.4935 136.348)
(461.654 -86.7023 200.45)
(582.235 -376.629 199.589)
(611.184 -423.117 167.562)
(609.956 -396.893 153.152)
(645.067 -400.691 173.77)
(645.133 -427.359 261.524)
(658.057 -435.319 184.454)
(637.58 -391.468 240.421)
(2.76067 -0.980212 0.829238)
(0.0474758 -0.0145985 0.0117844)
(0.000498515 -0.000156414 8.32036e-05)
(0.000437421 -0.000131867 8.80821e-05)
(0.01161 -0.00195502 0.00202455)
(2.55457 -0.67627 0.756479)
(0.000582353 -9.27096e-05 0.00014256)
(237.591 -764.689 187.409)
(276.358 -762.326 213.833)
(231.083 -733.41 291.463)
(264.822 -730.347 279.732)
(243.241 -785.793 212.817)
(273.397 -760.284 196.472)
(229.399 -735.577 266.497)
(382.671 -138.021 128.123)
(257.709 -96.8724 84.6396)
(478.828 -174.034 158.938)
(275.114 -115.996 96.3928)
(499.007 -205.447 173.244)
(412.839 -174.1 136.556)
(146.544 -63.3083 48.5174)
(836.455 -135.006 130.775)
(767.646 -122.329 37.1643)
(853.824 -98.2325 43.0426)
(771.526 -86.036 123.794)
(748.32 -118.976 120.894)
(847.748 -97.0924 130.844)
(843.58 -135.527 42.7325)
(238.959 -610.894 317.946)
(204.907 -587.709 272.357)
(208.745 -617.584 306.716)
(203.525 -610.876 327.577)
(182.653 -468.577 231.127)
(223.193 -586.294 328.19)
(180.014 -530.615 249.036)
(665.006 -339.42 240.478)
(719.947 -361.441 195.977)
(677.688 -349.184 172.754)
(686.59 -381.769 183.806)
(659.137 -363.316 269.498)
(699.391 -386.204 200.054)
(672.721 -373.716 261.872)
(385.865 -674.498 184.977)
(340.838 -650.648 238.94)
(353.387 -670.149 175.099)
(366.752 -714.964 197.806)
(376.985 -663.497 278.37)
(398.212 -701.894 204.126)
(356.439 -687.543 279.902)
(510.667 -131.664 272.722)
(456.698 -145.492 277.19)
(478.129 -124.019 293.033)
(435.362 -135.59 224.51)
(468.477 -118.3 243.226)
(364.856 -92.9797 215.138)
(299.395 -96.2819 178.275)
(56.5447 -865.978 44.2985)
(17.1535 -861.643 132.602)
(55.4043 -864.523 133.024)
(50.4167 -813.468 131.302)
(15.7229 -823.302 41.2422)
(14.9415 -813.533 131.263)
(51.5218 -824.394 41.2509)
(317.017 -778.21 44.6751)
(316.744 -772.53 131.643)
(318.175 -780.678 127.128)
(352.581 -768.465 129.662)
(341.959 -742.113 40.3747)
(337.173 -731.274 127.619)
(352.395 -769.237 43.9282)
(0.226254 -2.06077 0.6717)
(9.32908 -669.81 338.871)
(101.041 -635.684 324.941)
(1.26651e-05 -0.00356419 0.00118512)
(0.000248943 -0.00178559 0.000610868)
(0.360537 -37.9014 17.6705)
(2.69501 -18.1134 8.43178)
(46.3786 -730.407 347.736)
(13.4299 -724.794 295.019)
(49.511 -729.449 297.724)
(44.7914 -686.506 347.13)
(8.92087 -646.23 352.289)
(39.5621 -644.951 352.004)
(10.8739 -684.874 345.925)
(497.601 -123.284 186.46)
(368.794 -114.521 161.129)
(231.347 -73.8553 86.8611)
(172.147 -44.8924 75.951)
(461.98 -141.786 172.062)
(311.565 -78.868 116.053)
(425.801 -105.64 184.912)
(655.853 -305.484 294.729)
(677.88 -281.028 322.994)
(645.366 -272.289 263.403)
(635.218 -271.158 322.496)
(587.982 -267.858 332.794)
(618.953 -258.384 336.876)
(625.679 -295.348 334.878)
(81.5724 -726.389 348.777)
(119.596 -728.209 313.738)
(84.697 -731.095 304.119)
(79.0154 -683.789 349.172)
(100.864 -621.181 346.743)
(70.711 -636.947 350.575)
(113.041 -675.864 351.33)
(762.004 -344.572 126.999)
(780.695 -314.051 43.285)
(781.832 -313.956 125.668)
(753.497 -304.484 126.68)
(721.189 -325.025 37.6421)
(709.357 -318.105 120.834)
(763.455 -308.25 40.5625)
(741.81 -229.108 268.019)
(729.777 -262.424 276.486)
(764.237 -271.186 195.512)
(720.347 -224.599 280.215)
(774.219 -239.276 208.112)
(747.365 -267.753 206.873)
(685.24 -245.143 272.034)
(94.881 -864.983 44.2391)
(134.265 -852.024 133.643)
(94.5697 -861.881 133.491)
(87.4704 -805.384 130.449)
(126.039 -800.847 39.8513)
(124.075 -786.897 128.342)
(88.9891 -817.739 40.8352)
(272.983 -630.447 331.482)
(305.938 -643.259 291.704)
(300.186 -623.45 346.754)
(284.879 -676.16 329.646)
(265.413 -622.135 353.603)
(312.249 -661.497 338.719)
(279.171 -595.734 351.416)
(631.146 -467.834 112.96)
(635.697 -497.398 40.7018)
(643.566 -501.638 117.023)
(667.071 -477.212 40.2679)
(671.984 -479.482 119.352)
(652.061 -493.071 118.48)
(652.645 -494.849 37.9996)
(817.327 -171.393 130.396)
(647.215 -164.978 105.974)
(801.499 -206.471 40.8666)
(733.535 -151.83 35.092)
(791.344 -204.924 128.655)
(709.03 -146.709 115.252)
(825.832 -171.993 42.042)
(603.402 -439.796 320.169)
(75.7136 -55.8573 50.791)
(0.0697074 -0.0290633 0.0364897)
(120.625 -102.421 77.1223)
(0.128074 -0.0721746 0.0382666)
(0.606552 -0.438889 0.414053)
(0.000191595 -0.000121695 9.20024e-05)
(465.2 -253.006 181.666)
(462.099 -227.861 209.256)
(494.358 -245.221 196.832)
(423.286 -203.21 159.893)
(193.206 -106.4 87.324)
(323.982 -158.46 144.453)
(322.688 -174.872 123.293)
(704.88 -426.927 120.462)
(700.658 -421.13 39.0247)
(647.892 -413.811 113.034)
(690.792 -453.036 39.8151)
(691.793 -451.586 121.227)
(697.056 -417.803 121.721)
(698.077 -424.908 41.7427)
(193.999 -540.987 202.59)
(172.255 -410.007 138.813)
(172.973 -476.41 161.465)
(118.644 -284.075 109.346)
(139.264 -388.997 142.565)
(94.8069 -252.649 85.0397)
(61.3304 -142.612 48.6299)
(549.336 -309.038 266.139)
(537.37 -326.036 276.637)
(574.849 -341.63 313.126)
(527.855 -286.259 261.976)
(583.088 -311.812 318.837)
(563.103 -322.274 326.587)
(465.822 -269.897 247.56)
(735.975 -85.2239 308.451)
(730.529 -120.116 314.748)
(673.505 -112.433 332.553)
(717.307 -81.4724 335.757)
(706.113 -115.262 334.452)
(621.527 -69.0522 325.251)
(601.87 -97.557 318.88)
(0.0133698 -0.0660548 0.0181372)
(126.089 -601.278 309.996)
(130.173 -351.963 188.231)
(0.000120066 -0.00101896 0.000324494)
(4.38244e-05 -0.000233572 8.25656e-05)
(1.90115 -10.2644 4.75515)
(0.158284 -0.644887 0.300307)
(154.565 -721.868 325.022)
(180.558 -680.965 345.056)
(189.436 -712.281 334.569)
(127.533 -597.191 339.127)
(145.756 -663.858 353.12)
(175.966 -648.079 353.777)
(148.131 -561.013 324.706)
(0.0143937 -0.0335747 0.00926221)
(380.765 -614.478 330.937)
(184.69 -245.648 136.042)
(0.00259811 -0.00820298 0.00400607)
(0.000119396 -0.000247536 0.000122008)
(52.0542 -88.6823 55.6368)
(0.111377 -0.214989 0.129688)
(598.884 -260.792 311.069)
(474.401 -230.966 228.553)
(449.201 -207.984 260.643)
(344.621 -153.012 165.815)
(531.252 -222.544 292.12)
(535.685 -238.292 243.067)
(577.094 -274.414 315.945)
(41.2556 -638.272 324.172)
(6.76821 -522.806 283.966)
(18.4881 -288.237 133.617)
(8.68918 -553.312 238.046)
(31.4003 -515.95 281.105)
(9.71461 -638.607 323.776)
(35.7145 -548.74 236.88)
(123.371 -494.229 184.327)
(113.989 -364.862 157.371)
(140.983 -458.119 169.897)
(44.4607 -168.615 73.3252)
(78.1751 -305.702 113.033)
(72.1239 -224.941 83.8239)
(32.2546 -101.176 42.9299)
(15.4013 -824.573 216.895)
(48.0409 -765.358 296.342)
(52.4454 -826.91 217.377)
(45.9499 -755.223 209.81)
(9.43846 -650.942 260.048)
(12.7233 -757.092 210.552)
(38.2099 -644.524 257.308)
(173.279 -835.673 133.685)
(210.149 -820.529 42.82)
(210.01 -813.238 133.198)
(159.791 -773.417 38.1097)
(156.553 -756.9 124.269)
(181.659 -711.393 117.422)
(187.131 -733.419 35.5513)
(433.687 -695.47 121.792)
(464.675 -685.514 40.984)
(464.36 -689.055 123.382)
(435.842 -704.153 40.5455)
(433.265 -701.652 125.255)
(435.817 -657.889 118.17)
(442.179 -664.012 36.7592)
(465.033 -273.344 166.989)
(475.069 -293.694 196.4)
(421.948 -237.675 164.933)
(386.5 -246.105 139.688)
(297.33 -175.703 104.558)
(288.249 -177.673 122.62)
(138.089 -87.1036 50.3285)
(73.4188 -632.2 324.347)
(76.9864 -461.095 259.096)
(31.3683 -259.285 122.042)
(87.7013 -503.623 223.977)
(55.8924 -496.426 273.445)
(104.576 -619.057 323.447)
(63.1789 -533.239 232.656)
(793.714 -128.635 211.798)
(509.644 -81.842 205.041)
(697.667 -76.8634 192.803)
(738.358 -83.3119 283.551)
(665.171 -105.231 185.807)
(807.75 -92.0666 212.39)
(720.29 -116.236 279.125)
(301.8 -729.755 211.146)
(297.88 -715.206 286.428)
(308.525 -753.794 203.943)
(341.065 -735.65 208.825)
(269.894 -595.673 247.957)
(313.507 -682.964 202.448)
(322.47 -689.807 284.276)
(727.918 -331.014 203.925)
(709.248 -290.402 278.426)
(751.578 -304.011 201.54)
(708.526 -286.647 201.821)
(549.496 -242.39 223.951)
(633.973 -252.717 254.285)
(656.499 -291.037 190.086)
(586.184 -372.732 259.132)
(585.578 -398.048 343.655)
(593.877 -376.242 327.637)
(614.102 -406.132 323.4)
(631.305 -388.358 317.966)
(588.893 -361.911 343.996)
(555.137 -360.853 336.079)