# vtk DataFile Version 2.0
sampleSurface
ASCII
DATASET POLYDATA
POINTS 454 float
0 -4.6 0.5 0 -5 0.5 0 -5 0 0 -4.6
0 0 -4.2 0.5 0 -4.2 0 0 -3.8 0.5
0 -3.8 0 0 -3.4 0.5 0 -3.4 0 0
-3 0.5 0 -3 0 0 -2.6 0.5 0 -2.6
0 0 -2.2 0.5 0 -2.2 0 0 -1.8 0.5
0 -1.8 0 0 -1.4 0.5 0 -1.4 0 0
-1 0.5 0 -1 0 0 -0.6 0.5 0 -0.6
0 0 -0.2 0.5 0 -0.2 0 0 0.2 0
0 0.2 0 -8.67362e-18 0.2 0.25 0 0.2 0.5 0
0.2 0.5 0 0.4 0 -3.08149e-33 0.4 0.25 0 0.275
0.25 0 0.6 0 0 0.6 0 0 0.8 0
0 0.8 0.25 0 0.8 0.25 0 1 0 0
1 0 0 1 0 0 1.4 0 0 1.4
0 0 1.4 0 0 1.8 0 0 1.8 0
0 2 0 0 2 0.25 7.70372e-34 1.90909 0.25 0
2.2 0 0 2.4 0.25 0 2.4 0.25 0 2.2
0.25 0 2.2 0 0 2.6 0.25 0 2.6 0
0 2.8 0 0 2.8 0.125 0 2.8 0.25 0
4 0 0 4 0.25 0 3.8 0.25 0 3.8
0.125 0 3.8 0 0 4.6 0.5 0 4.2 0.5
0 4.2 0.25 0 4.2 0 0 4.6 0 0
5 0 0 5 0.5 0 -4.6 1 0 -5
1 0 -4.2 1 0 -3.8 1 0 -3.4 1
0 -3 1 0 -2.6 1 0 -2.2 1 0
-1.8 1 0 -1.4 1 0 -1 1 0 -0.6
1 0 -0.2 1 0 0.2 1 0 0.6 1
0 0.4 0.5 0 0.6 0.5 0 1 1 0
0.8 0.5 0 1 0.5 0 1.4 1 0 1
0.5 0 1.2 0.5 0 1.4 0.5 0 1.4 0.5
0 1.8 1 0 1.4 0.5 0 1.6 0.5 0
1.8 0.5 0 1.8 0.5 0 2.2 0.75 0 2.2
1 0 2 0.5 0 2.2 0.5 0 2.4 0.5
0 2.4 0.75 0 2.8 0.5 0 2.8 0.625 0
2.8 0.75 0 2.6 0.75 0 2.6 0.5 0 4
0.5 0 4 0.75 0 3.8 0.75 0 3.8 0.625
0 3.8 0.5 0 4.6 1 0 4.2 1 0
4.2 0.75 0 5 1 0 -4.6 1.5 0 -5
1.5 0 -4.2 1.5 0 -3.8 1.5 0 -3.4 1.5
0 -3 1.5 0 -2.6 1.5 0 -2.2 1.5 0
-1.8 1.5 0 -1.4 1.5 0 -1 1.5 0 -0.6
1.5 0 -0.2 1.5 0 0.2 1.5 0 0.6 1.5
0 1 1.5 0 1.4 1.5 0 1.8 1.5 0
2.2 1.25 0 2.2 1.5 0 2.4 1 0 2.4
1.125 0 2.2 1.25 0 2.8 1 0 2.8 1
0 2.6 1.25 0 2.6 1.25 0 2.6 1 0
4 1 0 4 1.25 0 3.8 1.25 0 3.8
1.125 0 3.8 1 0 4.6 1.5 0 4.2 1.5
0 4.2 1.25 0 5 1.5 0 -4.6 2 0
-5 2 0 -4.2 2 0 -3.8 2 0 -3.4
2 0 -3 2 0 -2.6 2 0 -2.2 2
0 -1.8 2 0 -1.4 2 0 -1 2 0
-0.6 2 0 -0.2 2 0 0.2 2 0 0.6
2 0 1 2 0 1.4 2 0 1.8 2
0 2.2 2 0 2.6 1.75 0 2.6 2 0
2.4 1.5 0 2.6 1.5 0 2.8 1.5 0 2.8
1.75 0 3.2 1.5 0 3.2 1.5 0 3 1.75
0 3 1.75 0 3 1.5 0 3.6 1.5 0
3.6 1.75 0 3.4 1.75 0 3.4 1.5 0 4.2
2 0 3.8 2 0 3.8 1.75 0 3.8 1.5
0 4 1.5 0 4.6 2 0 5 2 0
-4.6 2.5 0 -5 2.5 0 -4.2 2.5 0 -3.8
2.5 0 -3.4 2.5 0 -3 2.5 0 -2.6 2.5
0 -2.2 2.5 0 -1.8 2.5 0 -1.4 2.5 0
-1 2.5 0 -0.6 2.5 0 -0.2 2.5 0 0.2
2.5 0 0.6 2.5 0 1 2.5 0 1.4 2.5
0 1.8 2.5 0 2.2 2.5 0 2.6 2.5 0
3 2.5 0 2.8 2 0 3 2 0 3.4
2.5 0 3.2 2 0 3.4 2 0 3.8 2.5
0 3.6 2 0 4.2 2.5 0 4.6 2.5 0
5 2.5 0 -4.6 3 0 -5 3 0 -4.2
3 0 -3.8 3 0 -3.4 3 0 -3 3
0 -2.6 3 0 -2.2 3 0 -1.8 3 0
-1.4 3 0 -1 3 0 -0.6 3 0 -0.2
3 0 0.2 3 0 0.6 3 0 1 3
0 1.4 3 0 1.8 3 0 2.2 3 0
2.6 3 0 3 3 0 3.4 3 0 3.8
3 0 4.2 3 0 4.6 3 0 5 3
0 -4.6 3.5 0 -5 3.5 0 -4.2 3.5 0
-3.8 3.5 0 -3.4 3.5 0 -3 3.5 0 -2.6
3.5 0 -2.2 3.5 0 -1.8 3.5 0 -1.4 3.5
0 -1 3.5 0 -0.6 3.5 0 -0.2 3.5 0
0.2 3.5 0 0.6 3.5 0 1 3.5 0 1.4
3.5 0 1.8 3.5 0 2.2 3.5 0 2.6 3.5
0 3 3.5 0 3.4 3.5 0 3.8 3.5 0
4.2 3.5 0 4.6 3.5 0 5 3.5 0 -4.6
4 0 -5 4 0 -4.2 4 0 -3.8 4
0 -3.4 4 0 -3 4 0 -2.6 4 0
-2.2 4 0 -1.8 4 0 -1.4 4 0 -1
4 0 -0.6 4 0 -0.2 4 0 0.2 4
0 0.6 4 0 1 4 0 1.4 4 0
1.8 4 0 2.2 4 0 2.6 4 0 3
4 0 3.4 4 0 3.8 4 0 4.2 4
0 4.6 4 0 5 4 0 -4.6 4.5 0
-5 4.5 0 -4.2 4.5 0 -3.8 4.5 0 -3.4
4.5 0 -3 4.5 0 -2.6 4.5 0 -2.2 4.5
0 -1.8 4.5 0 -1.4 4.5 0 -1 4.5 0
-0.6 4.5 0 -0.2 4.5 0 0.2 4.5 0 0.6
4.5 0 1 4.5 0 1.4 4.5 0 1.8 4.5
0 2.2 4.5 0 2.6 4.5 0 3 4.5 0
3.4 4.5 0 3.8 4.5 0 4.2 4.5 0 4.6
4.5 0 5 4.5 0 -4.6 5 0 -5 5
0 -4.2 5 0 -3.8 5 0 -3.4 5 0
-3 5 0 -2.6 5 0 -2.2 5 0 -1.8
5 0 -1.4 5 0 -1 5 0 -0.6 5
0 -0.2 5 0 0.2 5 0 0.6 5 0
1 5 0 1.4 5 0 1.8 5 0 2.2
5 0 2.6 5 0 3 5 0 3.4 5
0 3.8 5 0 4.2 5 0 4.6 5 0
5 5 0 2.8 0.375 0 3.8 0.375 0 2.8
0.875 0 3.8 0.875 0 3.2 1.25 0 3 1.25
0 3.1 1.25 0 3.3 1.25 0 3.4 1.25 0
3.6 1.25 0 3.5 1.25 0 3.7 1.25 0 2.8
1.25 0 2.8 1.125 0 2.8 1.375 0 3 1.25
0 2.9 1.25 0 3.1 1.125 0 3.2 1.125 0
3.1 1 0 3 1.125 0 3 1 0 3.2
1 0 3.5 1.125 0 3.6 1.125 0 3.5 1
0 3.4 1.125 0 3.4 1 0 3.6 1 0
2.9 0.125 0 2.9 0.25 0 3 0.125 0 2.9
0 0 3 0 0 3 0.25 0 2.9 0.375
0 3 0.375 0 3 0.5 0 2.9 0.5 0
3.7 0.125 0 3.7 0.25 0 3.6 0.25 0 3.6
0.125 0 3.7 0 0 3.6 0 0 3.7 0.375
0 3.6 0.375 0 3.7 0.5 0 3.6 0.5 0
2.9 0.625 0 2.9 0.75 0 3 0.625 0 3
0.75 0 2.9 0.875 0 3 0.875 0 2.9 1
0 3.7 0.625 0 3.7 0.75 0 3.6 0.75 0
3.6 0.625 0 3.7 0.875 0 3.6 0.875 0 3.7
1 0 3.3 1.125 0 3.3 1 0 2.4 0
0 2.6 0 0 3.2 1.75 0 3.4 1.75 0
3.2 2 0 3.7 1.125 0 2.9 1 0 3
1.125 0 2.9 1.125 0 2.4 1.25 0 2.6 1.25
0 2.4 1.375 4.13442e-18 1.2 0.25 -8.67362e-18 1 0.25 0
1.2 0 0 1.4 0 0 1.4 0.25 0 1
0.5 0 1.4 0.5 -7.22801e-18 1.6 0.25 0 1.6 0
0 1.8 0 0 1.8 0.25 0 1.8 0.5 0
0.6 0.25 0 0.8 0.25 0 0.6 0.5 0 0.525
0.25 
POLYGONS 380 1939
4 0 1 2 3 4 4 0 3 5 4
6 4 5 7 4 8 6 7 9 4
10 8 9 11 4 12 10 11 13 4
14 12 13 15 4 16 14 15 17 4
18 16 17 19 4 20 18 19 21 4
22 20 21 23 4 24 22 23 25 7
26 27 28 29 30 24 25 5 27 26
31 32 33 5 34 35 36 37 38 3
39 40 41 3 42 43 44 5 45 46
47 48 49 5 50 51 52 53 54 5
55 56 57 58 59 5 60 61 62 63
64 5 65 66 67 68 69 4 65 69
70 71 4 72 73 1 0 4 74 72
0 4 4 75 74 4 6 4 76 75
6 8 4 77 76 8 10 4 78 77
10 12 4 79 78 12 14 4 80 79
14 16 4 81 80 16 18 4 82 81
18 20 4 83 82 20 22 4 84 83
22 24 4 85 84 24 30 5 86 85
30 87 88 5 89 86 88 90 91 7
92 89 91 93 94 95 96 7 97 92
96 98 99 100 101 6 102 103 97 101
104 105 4 106 107 102 105 5 108 109
110 111 112 5 113 114 115 116 117 5
118 119 120 66 65 4 118 65 71 121
4 122 123 73 72 4 124 122 72 74
4 125 124 74 75 4 126 125 75 76
4 127 126 76 77 4 128 127 77 78
4 129 128 78 79 4 130 129 79 80
4 131 130 80 81 4 132 131 81 82
4 133 132 82 83 4 134 133 83 84
4 135 134 84 85 4 136 135 85 86
4 137 136 86 89 4 138 137 89 92
4 139 138 92 97 5 140 141 139 97
103 5 142 143 144 140 103 5 145 146
147 148 149 5 150 151 152 153 154 5
155 156 157 119 118 4 155 118 121 158
4 159 160 123 122 4 161 159 122 124
4 162 161 124 125 4 163 162 125 126
4 164 163 126 127 4 165 164 127 128
4 166 165 128 129 4 167 166 129 130
4 168 167 130 131 4 169 168 131 132
4 170 169 132 133 4 171 170 133 134
4 172 171 134 135 4 173 172 135 136
4 174 173 136 137 4 175 174 137 138
4 176 175 138 139 4 177 176 139 141
6 178 179 177 141 180 181 4 182 183
178 181 5 184 185 186 187 188 4 189
190 191 192 6 193 194 195 196 197 156
4 198 193 156 155 4 198 155 158 199
4 200 201 160 159 4 202 200 159 161
4 203 202 161 162 4 204 203 162 163
4 205 204 163 164 4 206 205 164 165
4 207 206 165 166 4 208 207 166 167
4 209 208 167 168 4 210 209 168 169
4 211 210 169 170 4 212 211 170 171
4 213 212 171 172 4 214 213 172 173
4 215 214 173 174 4 216 215 174 175
4 217 216 175 176 4 218 217 176 177
4 219 218 177 179 5 220 219 179 221
222 5 223 220 222 224 225 5 226 223
225 227 194 4 228 226 194 193 4 229
228 193 198 4 229 198 199 230 4 231
232 201 200 4 233 231 200 202 4 234
233 202 203 4 235 234 203 204 4 236
235 204 205 4 237 236 205 206 4 238
237 206 207 4 239 238 207 208 4 240
239 208 209 4 241 240 209 210 4 242
241 210 211 4 243 242 211 212 4 244
243 212 213 4 245 244 213 214 4 246
245 214 215 4 247 246 215 216 4 248
247 216 217 4 249 248 217 218 4 250
249 218 219 4 251 250 219 220 4 252
251 220 223 4 253 252 223 226 4 254
253 226 228 4 255 254 228 229 4 255
229 230 256 4 257 258 232 231 4 259
257 231 233 4 260 259 233 234 4 261
260 234 235 4 262 261 235 236 4 263
262 236 237 4 264 263 237 238 4 265
264 238 239 4 266 265 239 240 4 267
266 240 241 4 268 267 241 242 4 269
268 242 243 4 270 269 243 244 4 271
270 244 245 4 272 271 245 246 4 273
272 246 247 4 274 273 247 248 4 275
274 248 249 4 276 275 249 250 4 277
276 250 251 4 278 277 251 252 4 279
278 252 253 4 280 279 253 254 4 281
280 254 255 4 281 255 256 282 4 283
284 258 257 4 285 283 257 259 4 286
285 259 260 4 287 286 260 261 4 288
287 261 262 4 289 288 262 263 4 290
289 263 264 4 291 290 264 265 4 292
291 265 266 4 293 292 266 267 4 294
293 267 268 4 295 294 268 269 4 296
295 269 270 4 297 296 270 271 4 298
297 271 272 4 299 298 272 273 4 300
299 273 274 4 301 300 274 275 4 302
301 275 276 4 303 302 276 277 4 304
303 277 278 4 305 304 278 279 4 306
305 279 280 4 307 306 280 281 4 307
281 282 308 4 309 310 284 283 4 311
309 283 285 4 312 311 285 286 4 313
312 286 287 4 314 313 287 288 4 315
314 288 289 4 316 315 289 290 4 317
316 290 291 4 318 317 291 292 4 319
318 292 293 4 320 319 293 294 4 321
320 294 295 4 322 321 295 296 4 323
322 296 297 4 324 323 297 298 4 325
324 298 299 4 326 325 299 300 4 327
326 300 301 4 328 327 301 302 4 329
328 302 303 4 330 329 303 304 4 331
330 304 305 4 332 331 305 306 4 333
332 306 307 4 333 307 308 334 4 335
336 310 309 4 337 335 309 311 4 338
337 311 312 4 339 338 312 313 4 340
339 313 314 4 341 340 314 315 4 342
341 315 316 4 343 342 316 317 4 344
343 317 318 4 345 344 318 319 4 346
345 319 320 4 347 346 320 321 4 348
347 321 322 4 349 348 322 323 4 350
349 323 324 4 351 350 324 325 4 352
351 325 326 4 353 352 326 327 4 354
353 327 328 4 355 354 328 329 4 356
355 329 330 4 357 356 330 331 4 358
357 331 332 4 359 358 332 333 4 360
359 333 334 5 59 361 108 112 55 4
67 61 60 68 5 61 113 117 362 62
4 113 61 67 66 5 110 363 145 149
111 4 120 114 113 66 5 114 150 154
364 115 4 150 114 120 119 5 365 184
188 366 367 5 192 184 365 368 369 5
370 189 192 369 371 5 196 189 370 372
152 4 373 147 146 374 5 147 375 182
181 148 3 373 375 147 5 375 376 366
188 182 4 377 376 375 373 4 378 379
365 367 4 380 378 381 382 4 383 379
378 380 4 366 381 378 367 4 384 385
370 371 4 386 384 387 388 4 389 385
384 386 4 369 387 384 371 4 390 391
59 58 4 392 390 393 394 4 395 391
390 392 4 57 393 390 58 4 396 361
59 391 4 397 398 399 396 4 395 397
396 391 4 399 108 361 396 4 400 401
402 403 4 63 400 404 64 4 62 401
400 63 4 405 404 400 403 4 406 407
402 401 4 362 117 408 406 4 362 406
401 62 4 408 409 407 406 4 410 411
110 109 4 410 399 398 412 4 108 399
410 109 4 413 411 410 412 4 414 363
110 411 4 415 382 416 414 4 413 415
414 411 4 416 145 363 414 4 417 418
419 420 4 417 408 117 116 4 420 409
408 417 4 115 418 417 116 4 421 422
419 418 4 364 154 423 421 4 364 421
418 115 4 423 389 422 421 4 424 368
365 379 4 424 425 388 387 4 383 425
424 379 4 368 424 387 369 3 51 50
426 5 427 56 55 52 51 3 426 427
51 4 52 106 105 53 4 106 52 55
112 4 111 107 106 112 4 107 142 103
102 4 142 107 111 149 4 157 151 150
119 4 151 197 196 152 4 157 156 197
151 3 185 428 186 5 429 185 184 192
191 3 429 428 185 5 186 430 224 222
187 3 428 430 186 5 430 429 191 225
224 3 428 429 430 4 195 190 189 196
4 190 227 225 191 4 195 194 227 190
4 385 431 372 370 4 423 154 153 431
4 389 423 431 385 4 152 372 431 153
5 432 416 382 381 433 4 432 146 145
416 4 376 433 381 366 3 434 432 433
4 434 374 146 432 4 377 434 433 376
4 373 374 434 377 3 143 435 144 5
436 143 142 149 148 3 436 435 143 5
144 437 180 141 140 3 435 437 144 5
437 436 148 181 180 3 435 436 437 4
187 183 182 188 4 183 221 179 178 4
222 221 183 187 5 438 439 40 39 440
3 42 441 43 5 442 438 440 441 42
3 443 93 91 5 94 93 443 439 438
3 95 444 96 5 442 444 95 94 438
5 445 442 42 44 446 3 45 447 46
5 448 445 446 447 45 3 444 98 96
5 99 98 444 442 445 3 100 449 101
5 448 449 100 99 445 3 49 448 45
4 53 48 47 54 5 449 49 48 104
101 3 448 49 449 4 105 104 48 53
3 38 450 34 5 40 451 37 36 41
3 439 451 40 5 452 38 37 90 88
3 452 450 38 5 443 91 90 37 451
3 439 443 451 3 33 28 27 5 34
453 32 31 35 3 450 453 34 5 29
33 32 87 30 3 28 33 29 5 452
88 87 32 453 3 450 452 453 
POINT_DATA 454
FIELD attributes 1
p 1 454 float
101298 101298 101298 101298 101298 101298 101298 101298 101298 101298 101298
101298 101298 101298 101298 101298 101298 101298 101298 101298 101298
101298 101298 101298 101298 101298 101298 101298 101298 101298 101298
101298 101298 101298 101298 101298 101298 101298 101298 101298 101298
101298 101298 101298 101298 101298 101298 101298 101298 101298 101298
101298 101298 101298 101298 101298 101298 101298 101298 101298 101298
101298 101298 101298 101298 101298 101298 101298 101298 101298 101298
101298 101298 101298 101298 101298 101298 101298 101298 101298 101298
101298 101298 101298 101298 101298 101298 101298 101298 101298 101298
101298 101298 101298 101298 101298 101298 101298 101298 101298 101298
101298 101298 101298 101298 101298 101298 101298 101298 101298 101298
101298 101298 101298 101298 101298 101298 101298 101298 101298 101298
101298 101298 101298 101298 101298 101298 101298 101298 101298 101298
101298 101298 101298 101298 101298 101298 101298 101298 101298 101298
101298 101298 101298 101298 101298 101298 101298 101298 101298 101298
101298 101298 101298 101298 101298 101298 101298 101298 101298 101298
101298 101298 101298 101298 101298 101298 101298 101298 101298 101298
101298 101298 101298 101298 101298 101298 101298 101298 101298 101298
101298 101298 101298 101298 101298 101298 101298 101298 101298 101298
101298 101298 101298 101298 101298 101298 101298 101298 101298 101298
101298 101298 101298 101298 101298 101298 101298 101298 101298 101298
101298 101298 101298 101298 101298 101298 101298 101298 101298 101298
101298 101298 101298 101298 101298 101298 101298 101298 101298 101298
101298 101298 101298 101298 101298 101298 101298 101298 101298 101298
101298 101298 101298 101298 101298 101298 101298 101298 101298 101298
101298 101298 101298 101298 101298 101298 101298 101298 101298 101298
101298 101298 101298 101298 101298 101298 101298 101298 101298 101298
101298 101298 101298 101298 101298 101298 101298 101298 101298 101298
101298 101298 101298 101298 101298 101298 101298 101298 101298 101298
101298 101298 101298 101298 101298 101298 101298 101298 101298 101298
101298 101298 101298 101298 101298 101298 101298 101298 101298 101298
101298 101298 101298 101298 101298 101298 101298 101298 101298 101298
101298 101298 101298 101298 101298 101298 101298 101298 101298 101298
101298 101298 101298 101298 101298 101298 101298 101298 101298 101298
101298 101298 101298 101298 101298 101298 101298 101298 101298 101298
101298 101298 101298 101298 101298 101298 101298 101298 101298 101298
101298 101298 101298 101298 101298 101298 101298 101298 101298 101298
101298 101298 101298 101298 101298 101298 101298 101298 101298 101298
101298 101298 101298 101298 101298 101298 101298 101298 101298 101298
101298 101298 101298 101298 101298 101298 101298 101298 101298 101298
101298 101298 101298 101298 101298 101298 101298 101298 101298 101298
101298 101298 101298 101298 101298 101298 101298 101298 101298 101298
101298 101298 101298 101298 101298 101298 101298 101298 101298 101298
101298 101298 101298 101298 101298 101298 101298 101298 101298 101298
101298 101298 101298 101298 101298 101298 101298 101298 101298 101298
101298 101298 101298 
