# vtk DataFile Version 2.0
sampleSurface
ASCII
DATASET POLYDATA
POINTS 1462 float
-4.6 0 0 -5 0 0 -5 0 0.5 -4.6 0
0.5 -4.2 0 0 -4.2 0 0.5 -3.8 0 0
-3.8 0 0.5 -3.4 0 0 -3.4 0 0.5 -3
0 0 -3 0 0.5 -2.6 0 0 -2.6 0
0.5 -2.2 0 0 -2.2 0 0.5 -1.8 0 0
-1.8 0 0.5 -1.4 0 0 -1.4 0 0.5 -1
0 0 -1 0 0.5 -0.6 0 0 -0.6 0
0.5 -0.2 0 0 -0.2 0 0.5 0.2 0 0
0.2 0 0 0.2 0 0.5 0.2 0 0.5 0.2
0 0.25 0.4 0 0 0.352381 1.92593e-34 0.25 0.4 1.807e-18
0.25 -5 0 1 -4.6 0 1 -4.2 0 1
-3.8 0 1 -3.4 0 1 -3 0 1 -2.6
0 1 -2.2 0 1 -1.8 0 1 -1.4 0
1 -1 0 1 -0.6 0 1 -0.2 0 1
0.2 0 0.5 0.2 0 1 0.2 0 1 0.2
0 0.75 0.285906 0 0.75 0.4 7.67977e-18 0.75 0.4 0
0.5 0.6 0 0.5 0.6 0 0.5 0.640764 -1.92593e-34 0.625
0.662745 3.85186e-34 0.75 0.8 -1.54074e-33 0.75 0.8 1.91542e-19 0.625 0.8
0 0.5 -5 0 1.5 -4.6 0 1.5 -4.2 0
1.5 -3.8 0 1.5 -3.4 0 1.5 -3 0 1.5
-2.6 0 1.5 -2.2 0 1.5 -1.8 0 1.5 -1.4
0 1.5 -1 0 1.5 -0.6 0 1.5 -0.2 0
1.5 0.2 0 1.5 0.6 0 1 0.6 0 1
0.4 5.42101e-18 1 0.6 0 1.5 0.6 0 1.5 0.6
0 1.25 0.703226 -3.85186e-34 1.25 0.8 5.42101e-18 1.25 0.8 0
1 1.2 -3.08149e-33 1.25 1.2 1.65973e-18 1.125 1.2 0 1
1.1 4.06576e-18 1 1 0 1 1 0 1 1.03694
-3.85186e-34 1.125 1.0499 -3.85186e-34 1.25 -5 0 2 -4.6 0
2 -4.2 0 2 -3.8 0 2 -3.4 0 2
-3 0 2 -2.6 0 2 -2.2 0 2 -1.8
0 2 -1.4 0 2 -1 0 2 -0.6 0
2 -0.2 0 2 0.2 0 2 0.6 0 2
1 0 1.5 1 0 1.5 0.8 9.93852e-18 1.5 1
0 2 1 0 2 1 0 1.75 1.09377 -3.85186e-34
1.75 1.2 6.55039e-18 1.75 1.2 0 1.5 1.4 0 1.5
1.5 -3.85186e-34 1.55495 1.6 7.70372e-34 1.56667 1.6 0 1.5 1.5
3.61401e-18 1.5 1.4 0 1.5 4.8 0 1.5 4.7 9.03502e-19
1.5 4.6 0 1.5 4.6 0 1.5 4.7 0 1.52049
4.8 0 1.52778 -5 0 2.5 -4.6 0 2.5 -4.2
0 2.5 -3.8 0 2.5 -3.4 0 2.5 -3 0
2.5 -2.6 0 2.5 -2.2 0 2.5 -1.8 0 2.5
-1.4 0 2.5 -1 0 2.5 -0.6 0 2.5 -0.2
0 2.5 0.2 0 2.5 0.6 0 2.5 1 0
2.5 1.4 0 2 1.4 0 2 1.2 8.13152e-18 2
1.4 0 2.5 1.4 0 2.5 1.4 0 2.25 1.6
0 2.25 1.6 0 2.25 1.6 0 2 1.8 0
2 1.9 0 2.07505 2 1.92593e-34 2.09877 2 0 2
1.9 3.61401e-18 2 1.8 0 2 4.4 0 2 4.3
1.807e-18 2 4.2 0 2 4.2 0 2 4.23019 -3.85186e-34
2.125 4.23333 -1.54074e-33 2.25 4.4 6.7076e-18 2.25 5 0 2.5
5 0 2 4.8 0 2 4.6 0 2 4.6
0 2 4.6 -5.78241e-18 2.25 4.6 0 2.5 4.6 0
2.5 -5 0 3 -4.6 0 3 -4.2 0 3
-3.8 0 3 -3.4 0 3 -3 0 3 -2.6
0 3 -2.2 0 3 -1.8 0 3 -1.4 0
3 -1 0 3 -0.6 0 3 -0.2 0 3
0.2 0 3 0.6 0 3 1 0 3 1.4
0 3 1.8 0 3 1.8 0 2.5 1.6 0
2.5 2.2 0 2.5 2.2 0 2.5 2 7.22801e-18 2.5
2.2 0 3 2.2 0 3 2.2 0 2.75 2.32308
-3.85186e-34 2.75 2.4 3.61401e-18 2.75 2.4 0 2.5 2.6 0
2.5 2.6 0 2.5 2.70756 -3.85186e-34 2.75 2.8 4.96926e-18 2.75
2.8 -1.54074e-33 2.5 3 0 2.5 3 0 2.5 3
0 2.5 3.4 0 2.5 3.4 0 2.5 3.48889 -3.85186e-34
2.75 3.6 7.22801e-18 2.75 3.6 0 2.5 3.8 0 2.5
3.8 0 2.5 3.85714 -1.54074e-33 2.75 4 -7.74843e-18 2.75 4
0 2.5 4.6 0 3 4.4 3.61401e-18 2.5 4.2 0
2.5 4.2 0 2.5 4.2 0 2.75 4.2 0 3
4.2 0 3 5 0 3 -5 0 3.5 -4.6
0 3.5 -4.2 0 3.5 -3.8 0 3.5 -3.4 0
3.5 -3 0 3.5 -2.6 0 3.5 -2.2 0 3.5
-1.8 0 3.5 -1.4 0 3.5 -1 0 3.5 -0.6
0 3.5 -0.2 0 3.5 0.2 0 3.5 0.6 0
3.5 1 0 3.5 1.4 0 3.5 1.8 0 3.5
2.2 0 3.5 2.6 0 3.5 2.6 0 3 2.4
4.51751e-18 3 3 0 3.5 3 0 3 3 0
3 2.8 0 3 2.6 0 3 3.4 0 3.5
3.4 0 3 3.4 0 3 3.2 0 3 3
0 3 3.8 0 3.5 3.8 0 3 3.6 0
3 4.2 0 3.5 4 1.807e-18 3 4.6 0 3.5
5 0 3.5 -5 0 4 -4.6 0 4 -4.2
0 4 -3.8 0 4 -3.4 0 4 -3 0
4 -2.6 0 4 -2.2 0 4 -1.8 0 4
-1.4 0 4 -1 0 4 -0.6 0 4 -0.2
0 4 0.2 0 4 0.6 0 4 1 0
4 1.4 0 4 1.8 0 4 2.2 0 4
2.6 0 4 3 0 4 3.4 0 4 3.8
0 4 4.2 0 4 4.6 0 4 5 0
4 -5 0 4.5 -4.6 0 4.5 -4.2 0 4.5
-3.8 0 4.5 -3.4 0 4.5 -3 0 4.5 -2.6
0 4.5 -2.2 0 4.5 -1.8 0 4.5 -1.4 0
4.5 -1 0 4.5 -0.6 0 4.5 -0.2 0 4.5
0.2 0 4.5 0.6 0 4.5 1 0 4.5 1.4
0 4.5 1.8 0 4.5 2.2 0 4.5 2.6 0
4.5 3 0 4.5 3.4 0 4.5 3.8 0 4.5
4.2 0 4.5 4.6 0 4.5 5 0 4.5 -5
0 5 -4.6 0 5 -4.2 0 5 -3.8 0
5 -3.4 0 5 -3 0 5 -2.6 0 5
-2.2 0 5 -1.8 0 5 -1.4 0 5 -1
0 5 -0.6 0 5 -0.2 0 5 0.2 0
5 0.6 0 5 1 0 5 1.4 0 5
1.8 0 5 2.2 0 5 2.6 0 5 3
0 5 3.4 0 5 3.8 0 5 4.2 0
5 4.6 0 5 5 0 5 3.1 7.70372e-34 0.125
3.1 1.66064e-18 0.25 3.2 0 0.25 3.2 0 0.125 3
-2.89121e-18 0.125 3.1 -3.61401e-18 0 3 0 0 3 0
0 3 7.70372e-34 0.25 3.2 1.54074e-33 0 3.3 1.66064e-18 0.25
3.3 7.70372e-34 0.125 3.4 -2.89121e-18 0.125 3.4 0 0 3.4
0 0 3.3 0 0 3.4 7.70372e-34 0.25 3.1 1.54074e-33
0.375 3.2 -1.91542e-19 0.375 3 -2.89121e-18 0.375 3 0 0.5
3 0 0.5 3.1 0 0.5 3.2 0 0.5 3.3
0 0.375 3.4 -2.89121e-18 0.375 3.3 -4.74338e-18 0.5 3.4 0
0.5 3.4 0 0.5 2.96279 0 0.125 2.95152 0 0.25
2.96168 0 0.375 3.1 0 0.625 3 0 0.5 3
-2.89121e-18 0.625 3.2 -4.51751e-18 0.625 3.1 -2.66533e-18 0.75 3.18551 -4.81482e-35
0.75 3.2 1.92593e-34 0.738636 3 7.70372e-34 0.75 3.3 0 0.625
3.4 -2.89121e-18 0.625 3.4 0 0.5 3.21449 -4.81482e-35 0.75 3.3
0 0.75 3.4 7.70372e-34 0.75 2.96139 -3.85186e-34 0.625 2.95105 -7.70372e-34
0.75 3.5 0 0.125 3.5 0 0 3.5 -4.69821e-18 0.25
3.6 0 0.25 3.6 0 0.125 3.6 0 0 2.6
0 0.125 2.63721 0 0.125 2.6 0 0 2.64848 0
0.25 2.6 7.70372e-34 0.25 3.5 0 0.375 3.5 0 0.418831
3.57297 0 0.375 3.6 -4.81482e-34 0.361111 2.63832 0 0.375 2.6
3.85186e-34 0.375 2.6 0 0.5 2.6 3.85186e-34 0.625 2.63861 0
0.625 2.6 0 0.5 2.64895 -7.70372e-34 0.75 2.6 7.70372e-34 0.75
3.7 -4.69821e-18 0.25 3.7 0 0.125 3.8 -2.89121e-18 0.125 3.8
0 0 3.7 0 0 3.8 7.70372e-34 0.25 3.5 0
0.625 3.5 4.81482e-35 0.609649 3.5 -2.89121e-18 0.75 3.51228 4.81482e-35 0.625
3.6 0 0.75 3.1 0 0.875 3.2 -4.51751e-18 0.875 3.2
1.92593e-34 0.761364 3 -2.89121e-18 0.875 3 0 1 3 0
1 3.1 0 1 3.2 0 1 2.5 0 0.125
2.5 9.62965e-35 0.108696 2.5 -4.69821e-18 0.25 2.47692 -4.81482e-35 0.125 2.4
3.85186e-34 0.166667 2.4 0 0.25 3 0 0 3.4 0
0 2.9 0 0.125 2.9 3.61401e-18 0 2.9 6.14381e-18 0.25
2.8 0 0.125 2.8 0 0.25 2.8 -1.54074e-33 0 3.3
0 0.875 3.4 -2.89121e-18 0.875 3.3 -4.74338e-18 1 3.4 0
1 3.4 0 1 2.96139 -3.85186e-34 0.875 3.7 0 0.375
3.62703 -4.81482e-35 0.375 3.8 -2.89121e-18 0.375 3.7 -9.62965e-35 0.418831 3.8
0 0.5 3.5 0 0 3.6 0 0 3 0
0.5 2.5 0 0.375 2.5 -9.62965e-35 0.418831 2.4 3.37038e-34 0.361111
2.42703 4.81482e-35 0.375 2.7 6.14381e-18 0.25 2.7 0 0.125 2.7
3.61401e-18 0 2.6 0 0 3.4 0 0.5 2.9 0
0.375 2.9 3.16226e-18 0.5 2.8 1.09504e-18 0.375 2.8 -1.54074e-33 0.5
2.63861 -3.85186e-34 0.875 2.6 0 0.875 2.6 0 1 3.7
0 0.609649 3.7 0 0.625 3.8 -2.89121e-18 0.625 3.8 0
0.5 3.68772 0 0.625 3.6 0 0.75 3.7 0 0.75
3.8 7.70372e-34 0.75 3.5 0 0.875 3.5 -4.81482e-35 0.890351 3.51228
-4.81482e-35 0.875 2.56306 0 0.625 2.55683 -3.85186e-34 0.75 3.9 0
0.125 3.9 0 0 3.9 -4.69821e-18 0.25 4 0 0.25
4 0 0.125 4 0 0 3.2 0 0.75 2.3
0 0.125 2.3 -4.69821e-18 0.25 2.32308 4.81482e-35 0.125 2.2 -2.89121e-18
0.125 2.3 0 0.108696 2.2 0 0 2.2 7.70372e-34 0.25
2.7 0 0.375 2.6 0 0.5 2.7 3.16226e-18 0.5 2.9
0 0.625 2.8 9.82106e-19 0.625 2.9 6.03087e-18 0.75 2.8 0
0.75 3.7 0 0 3.8 0 0 3.5 0 0.5
3.6 0 0.375 3.6 0 0.5 3.6 0 0.625 3.6
0 0.75 3.7 0 0.875 3.68772 4.81482e-35 0.875 3.8 -2.89121e-18
0.875 3.7 4.81482e-35 0.890351 3.8 0 1 2.5 0 0
2.4 0 0.125 2.4 -1.54074e-33 0 2.3 0 0.375 2.37297
-4.81482e-35 0.375 2.2 -2.89121e-18 0.375 2.2 0 0.5 2.3 0
0.418831 3.9 0 0.375 3.9 -9.62965e-35 0.459677 4 -9.03502e-19 0.375
4 -9.62965e-35 0.416667 2.9 -1.92593e-34 1.06272 2.9 0 1.125 3
-2.89121e-18 1.125 3 0 1 2.8 -3.38813e-18 1.125 2.8 -3.85186e-34
1.0814 2.8 0 1.25 2.9 0 1.25 3 7.70372e-34 1.25
3.1 0 1.125 3.2 -4.51751e-18 1.125 3.1 -2.66533e-18 1.25 3.18551
-3.37038e-34 1.25 3.2 2.88889e-34 1.23864 3.3 0 1.125 3.4 -2.89121e-18
1.125 3.4 0 1 3.21449 -3.37038e-34 1.25 3.3 0 1.25
3.4 7.70372e-34 1.25 2.7 0 0.625 2.7 6.03087e-18 0.75 2.56306
0 0.875 3.86275 -3.85186e-34 0.625 3.86957 7.70372e-34 0.75 3 0
1 3.4 0 1 2.9 0 0.875 2.9 3.16226e-18 1
2.8 9.82106e-19 0.875 2.8 -1.54074e-33 1 3.7 0 0.5 3.8
0 0.5 2.5 0 0.5 2.4 0 0.375 2.4 0
0.5 2.2 3.85186e-34 0.625 2.23694 3.85186e-34 0.625 2.2 0 0.5
2.24317 -3.85186e-34 0.75 2.2 7.70372e-34 0.75 4.1 -4.69821e-18 0.25 4.1
0 0.125 4.2 -2.89121e-18 0.125 4.2 0 0 4.1 0
0 4.2 7.70372e-34 0.25 2.7 0 1.125 2.7 -1.92593e-34 1.06272
2.6 0 1 2.6 -2.89121e-18 1.125 2.7 1.66064e-18 1.25 2.6
7.70372e-34 1.25 3.44076 1.92593e-34 1.125 3.44848 -7.70372e-34 1.25 2.1 0
0.125 2.1 1.92593e-34 0.0787402 2.1 3.24176e-18 0.25 2 -1.35525e-18 0.125
2 0 0.25 2 1.92593e-34 0.105263 3.9 0 0 4
0 0 2.3 0 0 2.2 0 0 2.7 0
0.875 2.6 0 1 2.7 3.16226e-18 1 3.5 0 1
3.6 0 0.875 3.6 0 1 2.5 0 0.625 2.5
-3.49023e-18 0.75 2.4 1.65973e-18 0.625 2.4 0 0.75 3.86275 1.92593e-34
0.875 3.75924 3.85186e-34 1.125 3.8 -3.85186e-34 1.125 3.8 0 1
3.75152 -7.70372e-34 1.25 3.8 7.70372e-34 1.25 2.23694 -3.85186e-34 0.875 2.2
0 0.875 2.2 0 1 4.1 0 0.375 4.2 -2.89121e-18
0.375 4.1 9.62965e-35 0.459677 4.2 0 0.5 2.1 0 0.375
2.1 0 0.42126 2 0 0.375 2 1.92593e-34 0.394737 2.54349
-3.85186e-34 1.125 2.52748 0 1.25 2.3 0 0.5 2.2 0
0.5 3.9 0 0.5 4 0 0.5 3.1 0 1.375
3.2 -4.51751e-18 1.375 3.2 2.88889e-34 1.26136 3 -2.89121e-18 1.375 3
0 1.5 3 0 1.5 3.1 0 1.5 3.2 0
1.5 4.13725 -1.92593e-34 0.625 4.2 3.85186e-34 0.625 4.2 0 0.5
4.2 7.70372e-34 0.75 4.13043 7.70372e-34 0.75 4.24848 1.92593e-34 0.125 4.24848
3.85186e-34 0.25 3.7 0 1 3.8 0 1 2.5 0
0.875 2.5 2.25875e-18 1 2.4 1.65973e-18 0.875 2.4 0 1
4.1 0 0 4.2 0 0 2.9 1.54074e-33 1.375 2.8
0 1.375 2.9 -4.51751e-18 1.5 3 0 1.5 2.8 0
1.5 3.3 0 1.375 3.4 -2.89121e-18 1.375 3.3 -4.74338e-18 1.5
3.4 0 1.5 3.4 0 1.5 1.9 0 0.125 1.9
3.24176e-18 0.25 1.8 -2.89121e-18 0.125 1.9 0 0.0787402 1.8 0
0 1.8 7.70372e-34 0.25 2.10448 -2.16667e-34 0.625 2.1 -2.16667e-34 0.62987
2.1 3.85186e-34 0.75 2 9.62965e-35 0.722222 2 0 0.75 3.9
-1.92593e-34 0.625 3.9 2.52981e-18 0.75 4 6.32451e-18 0.625 4 0
0.75 3.2 0 1.25 3.44076 3.85186e-34 1.375 2.1 0 0
2 0 0 2.3 0 0.625 2.3 -3.49023e-18 0.75 3.5
0 1.125 3.6 1.91542e-19 1.125 3.5 6.14381e-18 1.25 3.6 0
1.25 2.7 0 1.375 2.6 -2.89121e-18 1.375 2.6 0 1.5
2.6 0 1.5 2.7 0 1.5 4.2 -3.85186e-34 0.875 4.13725
1.92593e-34 0.875 4.2 0 1 2.2 -3.85186e-34 1.125 2.25651 0
1.125 2.2 0 1 2.2 7.70372e-34 1.25 2.27252 0 1.25
4.24211 0 0.375 3.9 1.54074e-33 1.125 3.9 -4.81482e-34 1.01543 4
1.16371e-18 1.125 4 1.92593e-34 1.01923 3.9 -2.631e-18 1.25 4 0
1.25 4.1 0 0.5 4.2 0 0.5 1.9 0 0.375
1.8 -2.89121e-18 0.375 1.8 0 0.5 1.9 0 0.42126 2.10448
4.81482e-35 0.875 2.1 -1.20371e-34 0.87013 2 9.62965e-35 0.777778 3.9 9.03502e-19
[...]
POINT_DATA 1462
FIELD attributes 1
p 1 1462 float
101298 101298 101298 101298 101298 101298 101298 101298 101298 101298 101298
101298 101298 101298 101298 101298 101298 101298 101298 101298 101298
101298 101298 101298 101298 101298 101298 101298 101298 101298 101298
101298 101298 101298 101298 101298 101298 101298 101298 101298 101298
101298 101298 101298 101298 101298 101298 101298 101298 101298 101298
101298 101298 101298 101298 101298 101298 101298 101298 101298 101299
101298 101298 101298 101298 101298 101298 101298 101298 101298 101298
101298 101298 101298 101298 101298 101298 101298 101298 101298 101298
101298 101298 101298 101298 101299 101308 101298 101298 101298 101298
101298 101298 101298 101298 101298 101298 101298 101298 101298 101298
101298 101298 101298 101298 101298 101298 101298 101298 101298 101298
101298 101298 101298 101298 101298 101298 101300 101329 101361 101301
101298 101298 101308 101529 101529 101306 101298 101298 101298 101298
101298 101298 101298 101298 101298 101298 101298 101298 101298 101298
101298 101298 101298 101298 101298 101298 101298 101298 101298 101298
101298 101298 101298 101298 101299 101300 101298 101298 101298 101299
101306 101306 101298 101298 101298 101298 101298 101298 101298 101298
101298 101298 101298 101298 101298 101298 101298 101298 101298 101298
101298 101298 101298 101298 101298 101298 101298 101298 101298 101298
101298 101298 101298 101298 101298 101298 101298 101298 101298 101298
101298 101298 101298 101298 101298 101298 101298 101298 101298 101298
101298 101298 101298 101298 101298 101298 101298 101298 101298 101298
101298 101298 101298 101298 101298 101298 101298 101298 101298 101298
101298 101298 101298 101298 101298 101298 101298 101298 101298 101298
101298 101298 101298 101298 101298 101298 101298 101298 101298 101298
101298 101298 101298 101298 101298 101298 101298 101298 101298 101298
101298 101298 101298 101298 101298 101298 101298 101298 101298 101298
101298 101298 101298 101298 101298 101298 101298 101298 101298 101298
101298 101298 101298 101298 101298 101298 101298 101298 101298 101298
101298 101298 101298 101298 101298 101298 101298 101298 101298 101298
101298 101298 101298 101298 101298 101298 101298 101298 101298 101298
101298 101298 101298 101298 101298 101298 101298 101298 101298 101298
101298 101298 101298 101298 101298 101298 101298 101298 101298 101298
101298 101298 101298 101298 101298 101298 101298 101298 101298 101298
101298 101298 101298 101298 101298 276724 186119 186315 275682 279427
349526 350811 350811 190920 348452 193210 276929 282264 350670 350670
347585 207544 191112 193370 197584 252866 252866 244218 248058 206865
233886 267393 305244 305244 281402 195176 203203 306157 252866 317226
310549 371353 374823 369514 383877 333372 376860 305244 378753 398474
441952 327250 397856 293274 359097 231913 270544 313298 375588 326028
318559 394576 254771 271667 277562 307531 323294 332489 314028 336255
437811 530765 499481 437811 565058 604288 327016 347163 400470 454474
405201 401889 441342 431725 505531 451503 585166 449111 452594 382428
461705 555772 555772 544582 547455 357539 366140 323358 368683 401890
394005 350811 350670 284733 355468 199699 293100 214204 363345 473780
513243 565370 597745 597745 472577 420958 362050 513035 459052 621038
359097 375588 252866 413370 452946 493525 480939 236819 305955 375747
394576 305244 212246 273793 237997 310172 637329 664447 724517 605808
616477 707536 621038 605130 585166 672549 759916 569526 578590 577999
564677 641781 476840 527755 491424 587946 574291 624116 375411 475563
481610 459471 567551 483378 625777 579614 278256 437811 364586 343187
386710 412435 458968 405201 454474 363030 340232 439885 524077 585166
714730 705371 795001 720945 841265 423481 405833 468663 603596 532352
695178 790352 640699 605493 673415 690901 722683 629433 678323 658429
555772 709232 677348 831413 802155 784409 649545 652129 776871 778895
767682 667014 693820 597745 781185 792675 817949 449744 524143 692181
761888 821704 555772 597745 489862 580190 534496 617830 529595 621038
526235 505965 620404 888591 856085 790352 922146 965857 686246 685640
805772 855290 736018 790935 750514 708890 724517 802484 873417 930315
709399 836200 677505 699080 681450 799826 787860 809027 527755 624116
535485 625777 594216 724517 666967 643334 638525 699830 622566 691137
714288 777336 851064 890334 922318 841265 1.01595e+06 1.05628e+06 980550 1.02312e+06
1.09376e+06 773849 869081 843523 993675 779890 814812 869864 887110 839675
983858 709407 790352 705759 786247 968320 970360 796612 974674 1.19678e+06
1.19678e+06 1.19453e+06 1.19593e+06 1.05893e+06 1.15605e+06 993675 1.28057e+06 1.14906e+06 870792 851241
765338 841265 739524 789706 818180 866729 736018 855290 991404 1.02107e+06
1.20622e+06 1.19678e+06 1.22436e+06 982260 1.00639e+06 1.20223e+06 1.21663e+06 1.21663e+06 935777 909738
1.09495e+06 955818 1.1387e+06 1.06013e+06 989929 998763 1.09951e+06 1.25014e+06 1.28239e+06 794159
848736 886320 952852 779238 1.02168e+06 735804 858097 800596 864605 732038
781650 855592 906726 1.06441e+06 1.12088e+06 1.26912e+06 1.26912e+06 1.24773e+06 1.34542e+06 1.22275e+06
1.37828e+06 1.19388e+06 1.11929e+06 1.09376e+06 1.29652e+06 1.22647e+06 919894 1.02175e+06 945051 1.14447e+06
1.06869e+06 1.15522e+06 1.2578e+06 876701 993675 981071 1.12529e+06 1.31212e+06 1.03241e+06 1.17239e+06
1.17628e+06 1.30389e+06 934249 884352 997230 1.05491e+06 1.22393e+06 1.19657e+06 1.28238e+06 874255
979089 1.15792e+06 1.3691e+06 1.46388e+06 1.46987e+06 1.47419e+06 1.36506e+06 939875 982751 915316
1.09626e+06 1.0685e+06 1.12699e+06 907876 1.09376e+06 964654 843857 973087 868295 953262
1.00415e+06 1.09568e+06 1.58217e+06 1.34317e+06 1.31212e+06 1.33914e+06 1.51606e+06 1.7534e+06 1.21876e+06 1.35907e+06
1.19872e+06 1.2174e+06 989929 1.1387e+06 1.21756e+06 1.2798e+06 1.38161e+06 1.37828e+06 1.32842e+06 1.29922e+06
1.00126e+06 1.09153e+06 994679 1.13726e+06 1.28226e+06 1.2403e+06 1.30254e+06 1.13774e+06 1.40705e+06 1.26945e+06
1.19678e+06 1.2643e+06 1.26944e+06 999566 997702 1.02212e+06 987063 1.26502e+06 1.25688e+06 1.21663e+06
995001 980928 946998 1.23266e+06 1.25567e+06 1.24141e+06 957167 905931 1.27557e+06 1.33801e+06
1.19678e+06 1.21663e+06 1.11981e+06 1.31212e+06 1.1502e+06 989761 1.14443e+06 1.35859e+06 1.6143e+06 1.50267e+06
1.85713e+06 1.21362e+06 1.26912e+06 1.16092e+06 829420 724762 1.24075e+06 1.23949e+06 1.20784e+06 1.23735e+06
890643 807315 1.06189e+06 1.19993e+06 1.26912e+06 1.14991e+06 1.20879e+06 1.37828e+06 1.23876e+06 1.04391e+06
1.09476e+06 1.26417e+06 1.28679e+06 1.27822e+06 989750 1.58512e+06 1.59305e+06 1.70244e+06 1.44727e+06 1.17939e+06
1.25649e+06 1.37915e+06 1.42946e+06 2.04624e+06 1.87475e+06 2.06013e+06 1.79155e+06 2.03724e+06 1.23303e+06 1.1447e+06
1.03678e+06 1.28238e+06 693323 551710 1.61776e+06 1.63663e+06 1.15681e+06 1.2838e+06 1.28238e+06 1.2491e+06
1.2684e+06 1.46987e+06 1.28685e+06 1.89245e+06 1.91068e+06 1.85713e+06 1.60626e+06 1.67679e+06 1.31206e+06 1.2806e+06
1.2432e+06 1.48646e+06 1.46648e+06 1.50622e+06 1.06969e+06 1.16993e+06 1.00392e+06 930106 593127 445872
1.70723e+06 1.83417e+06 1.33197e+06 1.36378e+06 1.51605e+06 1.61832e+06 1.73951e+06 1.18643e+06 1.27657e+06 1.25052e+06
1.24995e+06 1.37463e+06 1.23706e+06 1.34919e+06 1.61746e+06 1.85713e+06 1.2338e+06 1.02682e+06 927984 590963
1.31738e+06 1.56665e+06 1.57801e+06 1.84177e+06 1.94482e+06 2.03464e+06 1.83227e+06 1.04841e+06 1.22536e+06 1.44727e+06
603634 974984 1.20348e+06 1.74684e+06 1.33046e+06 1.33996e+06 1.41387e+06 1.25699e+06 1.6413e+06 874534
1.18371e+06 660518 1.02645e+06 398330 259733 997387 1.29337e+06 989750 1.16215e+06 1.58792e+06
1.44727e+06 1.53514e+06 1.23439e+06 1.10777e+06 1.49404e+06 1.54956e+06 1.6565e+06 1.43095e+06 1.08826e+06 1.2185e+06
608006 500734 498064 951994 489169 168166 168166 172081 171051 741058
945090 989750 519948 304429 192804 2.1881e+06 2.19127e+06 2.07479e+06 1.57657e+06 1.75124e+06
1.73943e+06 1.74799e+06 2.06013e+06 1.73317e+06 1.7347e+06 1.75846e+06 2.02429e+06 1.97798e+06 2.05021e+06 101298
101299 101327 101317 101314 101298 101313 101326 101329 101299 101298
101298 101298 101304 101305 481463 448387 165252 154486 154486 460271
318601 413149 332528 398212 234182 334349 224428 1.85485e+06 1.73526e+06 1.80248e+06
1.52397e+06 1.67192e+06 101298 101298 101298 101302 101298 101298 101301 101304
101393 101301 351428 282077 115055 246718 1.84011e+06 1.8695e+06 1.96896e+06 1.70806e+06
1.27118e+06 1.52608e+06 1.83227e+06 1.0369e+06 615650 404803 299006 608006 150781 211279
935320 1.64825e+06 1.88409e+06 1.08956e+06 1.06749e+06 1.53537e+06 510814 1.35632e+06 1.09331e+06 1.11001e+06
722443 1.8503e+06 1.81784e+06 1.87394e+06 1.83227e+06 1.9961e+06 264010 197344 167668 105441
820587 428211 239136 590963 160739 113551 1.84062e+06 1.84739e+06 607965 806724
274523 257003 334553 128444 1.34425e+06 992391 101299 101298 101298 101298
101298 101303 101302 101298 884912 590963 437033 266229 125075 1.9173e+06
1.86696e+06 1.90152e+06 1.62043e+06 1.12157e+06 1.30754e+06 593786 214674 162431 158613 145815
313878 373468 277150 127615 104904 152294 1.15326e+06 733251 893086 447247
548641 278720 203792 128133 101298 101298 101298 101298 101298 101298
101298 1.51968e+06 1.09889e+06 608006 1.57635e+06 1.09194e+06 1.15108e+06 595773 406993 226080
114178 144499 108469 114000 103852 2.25466e+06 2.20583e+06 1.85387e+06 1.57657e+06 1.94612e+06
101298 101312 101325 101301 101298 1.78288e+06 1.94454e+06 1.80248e+06 2.00203e+06 121702
105805 101402 112059 966140 742641 1.57657e+06 301266 917099 335981 213799
979442 357039 1.79692e+06 1.2212e+06 168166 154486 158651 144414 106044 121846
101529 915303 467043 220263 593786 182273 109052 103631 168166 103449
103579 101353 101352 101349 103308 102850 154486 101345 101336 103231
101341 129505 204832 103965 102347 106357 101388 195503 108202 101298
101298 101298 101298 101298 101298 101298 101298 128496 115055 139912
124500 1.47608e+06 978438 593786 682518 351181 317793 695126 361108 156818
1.8012e+06 1.26553e+06 1.11216e+06 575106 473227 370491 134126 104383 131474 119662
102840 102501 113439 129596 125075 102146 129042 101628 101322 102560
101298 101298 101299 101317 101299 101298 551792 125075 227148 103585
101607 101666 101306 120479 167803 114178 101938 102428 101335 101619
101805 115055 101306 101298 101298 101298 101298 101298 101298 101298
101298 112299 105441 106853 103155 173201 102036 101933 102463 101866
101480 101393 105441 101300 994078 1.08182e+06 335981 599213 114178 235711
240703 114377 107924 102439 101316 101614 623881 223692 218021 110217
174403 101514 109620 110226 104785 104548 101434 101363 101298 101298
101298 101300 101298 101298 102562 101597 101434 104482 104383 101303
101438 101298 101298 101298 101298 101298 101298 101298 101298 101298
101801 101402 418503 104383 186374 101467 101359 101304 101376 101307
101327 102164 101305 101402 101299 101969 101920 101854 135509 104424
102517 101298 163325 106326 101490 101300 101305 101402 101342 102110
101300 101300 102319 101858 102712 101352 101300 101331 103033 102483
101339 101557 101327 101300 101316 101301 101298 101708 101352 101306
101327 101299 101305 112205 101443 101487 101974 101298 101298 101298
101298 101298 101298 101298 101298 101298 101298 101298 101298 101298
101298 101299 101299 101299 101298 101299 101299 101299 101335 101299
101298 101298 101298 101298 101298 101298 101298 108197 101507 101298
101298 101298 101667 101316 101315 101386 101298 101552 111421 101667
101564 101301 101298 101427 101341 101301 101299 101389 101301 101298
101305 101298 101379 101353 101298 101298 101298 101298 101298 101471
101298 101298 101298 101298 101298 101298 101309 101298 101328 101298
101298 101315 101298 101298 101298 101301 101301 101304 101298 101298
101299 
