/*--------------------------------*- C++ -*----------------------------------*\
  =========                 |
  \\      /  F ield         | OpenFOAM: The Open Source CFD Toolbox
   \\    /   O peration     | Website:  https://openfoam.org
    \\  /    A nd           | Version:  9
     \\/     M anipulation  |
\*---------------------------------------------------------------------------*/
FoamFile
{
    format      ascii;
    class       volScalarField;
    location    "0.00075";
    object      rho.air;
}
// * * * * * * * * * * * * * * * * * * * * * * * * * * * * * * * * * * * * * //

dimensions      [1 -3 0 0 0 0 0];

internalField   nonuniform List<scalar> 
7054
(
1.35107
1.225
1.22502
1.225
1.25012
1.72125
1.65256
1.25483
1.22593
1.22503
1.22612
1.22503
1.26222
1.22508
1.22511
1.22501
1.225
1.22502
1.225
1.225
1.225
1.225
1.225
1.225
1.225
1.225
1.225
1.225
1.225
1.225
1.225
1.225
1.225
1.225
1.225
1.225
1.225
1.225
1.225
1.225
1.225
1.225
1.225
1.225
1.225
1.225
1.225
1.225
1.225
1.225
1.225
1.225
1.225
1.225
1.23321
2.84239
1.22502
1.22572
2.89064
2.94361
1.27423
1.33887
2.71978
1.66863
1.61983
1.24709
1.22561
1.24382
2.41576
2.72265
2.3391
1.89509
2.72204
2.01067
1.98479
1.29603
2.22912
1.32116
2.24279
2.82074
1.53924
2.24455
2.75129
2.09109
1.39419
2.29956
2.67173
2.93123
2.62439
2.91948
2.63683
2.93947
2.6257
2.31505
2.94701
2.7826
2.90727
2.68495
2.94222
2.51894
1.63918
1.79298
2.45724
2.71967
2.79999
2.77424
2.77597
2.52188
1.94237
2.54982
2.77444
2.82496
2.80645
2.76978
1.23514
1.23678
1.3547
1.51954
2.4026
2.34952
1.4835
1.24161
1.39003
1.53052
1.38541
2.40776
2.60629
1.51312
1.3083
1.22877
1.23202
2.02353
1.33036
2.22883
1.41096
0.826898
2.36726
2.47947
2.12352
1.23634
2.456
2.0973
2.14487
1.90484
2.17749
2.81406
3.18969
0.30052
0.20215
0.628171
0.154616
0.658826
0.113307
0.608217
0.184305
0.810556
0.610165
2.13683
1.85225
2.12331
1.33883
2.26586
1.83987
2.30242
1.2078
2.08844
1.81725
1.05983
1.79289
2.20734
1.13378
1.92595
1.64737
2.23037
2.43755
1.47564
2.46816
1.37247
2.26478
2.47402
2.06792
1.79357
1.36032
2.13745
1.21112
2.03708
2.17219
2.7309
1.67272
2.37412
2.60001
2.4226
2.15479
2.69466
2.91072
3.02611
2.97191
2.76019
2.69505
2.93911
2.66325
0.178957
0.255739
0.222219
0.91739
0.956311
0.542317
0.546327
0.127111
0.152016
0.174606
0.740563
0.469721
0.635772
0.417602
0.27975
0.338192
0.266876
0.860456
0.509756
0.855635
0.481462
0.284559
0.70989
0.28005
0.185937
0.20664
0.562605
0.533484
0.588704
0.239701
0.209715
0.133924
0.150922
0.503789
0.449449
0.126992
0.208364
0.162273
0.753513
0.648651
0.572905
0.448407
0.479026
0.488632
0.25891
0.213699
0.277388
0.458781
0.443875
0.731658
0.229885
0.312807
0.22328
0.152573
0.606265
0.480464
0.0611887
0.026255
0.824017
1.13959
0.136093
0.0564874
0.0956541
0.0821235
0.0359045
0.0246644
0.0256662
0.010153
0.0524866
0.0578029
0.0152829
0.0344865
0.00664696
0.00752562
0.0158057
0.0262486
0.0234282
0.0244817
0.00446249
0.00459321
0.00509939
0.00518012
0.0327445
0.0645127
0.0362186
0.0131985
0.0123467
0.0070164
0.00694992
0.18321
0.185581
0.0986414
0.131336
0.0490961
0.133271
0.0515947
0.047909
0.107184
0.0661931
0.0327316
0.0194264
0.010487
0.0202524
0.0468365
0.0293534
0.00888498
0.0445123
0.0276863
0.00556275
0.00622336
0.107839
0.206905
0.19015
0.149829
0.072227
0.138629
0.0583352
0.0143661
0.10345
0.0623226
0.0651838
0.0386628
0.0149913
0.00835449
0.102807
0.022713
0.0927856
0.0771493
0.241003
0.263832
0.0888902
0.0364826
0.203337
0.136828
0.172873
0.409292
0.31577
0.117535
0.586662
1.10963
0.557742
0.633386
0.252283
0.656693
0.271991
0.593524
0.328507
0.331676
0.977236
0.819949
1.34456
1.23242
1.4118
2.21449
1.30696
2.27682
2.11283
1.26728
1.16202
2.14825
2.47921
1.45829
2.11221
2.40671
1.33189
1.16882
1.36917
0.40973
0.770188
1.21657
0.652385
0.714762
0.320098
0.917566
1.39765
1.61194
1.42983
1.62135
0.829843
0.89935
1.29627
2.23782
1.43588
2.05234
2.15275
1.31647
1.16715
0.681094
0.493561
0.381931
0.992482
1.44078
0.857815
1.27951
1.33182
1.95388
1.17348
2.12576
2.75071
2.63582
1.94125
1.08944
1.80752
1.05769
2.5766
1.89394
2.57809
1.86184
1.74766
2.74867
2.23628
2.40503
2.71258
1.63077
2.11171
2.73887
2.29135
2.91913
2.85575
2.52249
2.91768
2.64939
1.46635
1.26672
1.49076
1.23547
1.2264
1.22624
1.2344
1.24251
1.25329
1.41626
1.2295
1.22552
1.22591
1.23218
0.0169161
0.0698423
1.25164
0.0289829
0.777044
0.185144
0.373464
2.09129
0.919511
2.83627
2.92584
1.29765
2.59731
1.31144
1.50681
1.22506
1.22501
0.0150341
0.0561502
0.0653918
0.0633703
0.0728342
0.191013
0.220823
0.0177858
0.0996422
0.0644886
0.110059
0.0728265
0.202898
0.261545
0.215493
0.500717
0.44444
0.887984
0.816378
0.44533
0.499424
0.176404
0.344641
0.184052
0.366387
0.199229
0.592347
0.383309
0.49444
0.837921
0.436093
0.255437
0.196026
0.437399
0.495757
0.698645
1.00765
0.595509
1.07534
0.63388
0.939523
1.49192
0.643693
1.38408
1.02376
0.578286
0.374481
0.91906
0.644455
2.6007
2.07341
2.89494
2.51528
1.68408
1.79348
2.31441
1.37487
1.99325
2.76565
1.45291
0.915207
1.37191
2.08386
3.02166
3.10001
2.83936
3.02343
2.88211
2.26751
2.83251
2.60506
2.9313
3.00261
2.46952
2.94133
3.08291
2.86989
2.30591
2.17632
1.66358
2.84854
2.69923
2.7961
2.84623
1.225
1.225
1.22501
1.57282
1.225
1.225
1.23484
3.04693
1.94963
2.22245
1.79953
2.79537
2.97056
3.09809
1.714
2.32818
1.56246
1.23668
1.31452
2.34306
2.81817
1.25549
1.23076
1.28799
1.87206
1.39934
2.68729
2.18979
1.225
1.225
1.225
1.225
1.225
1.225
1.225
1.225
1.225
1.225
1.225
1.225
1.225
1.225
1.225
1.225
1.225
1.225
1.225
1.225
1.225
1.22501
1.225
1.225
1.225
1.225
1.225
1.22503
1.225
1.225
1.225
1.225
1.225
1.225
1.225
1.225
1.225
1.225
1.225
1.225
1.225
1.225
1.225
1.225
1.225
1.225
1.225
1.225
1.225
1.225
1.225
1.225
1.225
1.225
1.225
1.225
1.225
1.225
1.225
1.225
1.225
1.225
1.225
1.225
1.225
1.225
1.225
1.225
1.225
1.225
1.225
1.225
1.225
1.225
1.225
1.225
1.225
1.225
1.225
1.225
1.225
1.225
1.225
1.225
1.225
1.225
1.225
1.225
1.225
1.225
1.225
1.225
1.225
1.225
1.225
1.225
1.225
1.225
1.225
1.225
1.225
1.225
1.225
1.225
1.225
1.225
1.225
1.225
1.225
1.225
1.225
1.225
1.225
1.225
1.225
1.225
1.225
1.225
1.225
1.225
1.225
1.225
1.225
1.225
1.225
1.225
1.225
1.225
1.225
1.225
1.225
1.225
1.225
1.225
1.225
1.225
1.225
1.225
1.225
1.225
1.225
1.225
1.225
1.225
1.225
1.225
1.225
1.225
1.225
1.225
1.225
1.225
1.225
1.225
1.225
1.225
1.225
1.225
1.225
1.225
1.225
1.225
1.225
1.225
1.225
1.225
1.225
1.225
1.225
1.225
1.225
1.225
1.225
1.225
1.225
1.225
1.225
1.225
1.225
1.225
1.225
1.225
1.225
1.225
1.225
1.225
1.225
1.225
1.225
1.225
1.225
1.225
1.225
1.225
1.225
1.225
1.225
1.225
1.225
1.225
1.225
1.225
1.225
1.225
1.225
1.225
1.225
1.225
1.225
1.225
1.225
1.225
1.225
1.225
1.225
1.225
1.225
1.225
1.225
1.225
1.225
1.225
1.225
1.225
1.225
1.225
1.225
1.225
1.225
1.225
1.225
1.225
1.225
1.225
1.225
1.225
1.225
1.225
1.225
1.225
1.225
1.225
1.225
1.225
1.225
1.225
1.225
1.225
1.225
1.225
1.225
1.225
1.225
1.225
1.225
1.225
1.225
1.225
1.225
1.225
1.225
1.225
1.225
1.225
1.225
1.225
1.225
1.225
1.225
1.225
1.225
1.225
1.225
1.225
1.225
1.225
1.225
1.225
1.225
1.225
1.225
1.225
1.225
1.225
1.225
1.225
1.225
1.225
1.225
1.225
1.225
1.225
1.225
1.225
1.225
1.225
1.225
1.225
1.22865
1.22502
1.22501
1.225
1.225
1.225
1.225
1.225
1.225
1.225
1.225
1.225
1.225
1.225
1.225
1.225
1.2254
1.25222
1.22513
1.2262
1.23521
1.22504
1.22621
1.22505
1.22516
1.22523
1.225
1.22666
1.225
1.22501
1.225
1.2251
1.225
1.22501
1.225
1.22508
1.225
1.225
1.22501
1.22503
1.225
1.22505
1.225
1.225
1.225
1.22501
1.225
1.225
1.225
1.225
1.225
1.225
1.225
1.225
1.225
1.225
1.225
1.225
1.225
1.225
1.225
1.225
1.225
1.225
1.225
1.225
1.225
1.225
1.225
1.225
1.225
1.225
1.225
1.225
1.225
1.225
1.225
1.225
1.225
1.225
1.225
1.225
1.225
1.225
1.225
1.225
1.225
1.225
1.225
1.225
1.225
1.225
1.225
1.225
1.225
1.225
1.225
1.225
1.225
1.225
1.225
1.225
1.225
1.225
1.225
1.225
1.225
1.225
1.225
1.225
1.225
1.225
1.225
1.225
1.225
1.225
1.225
1.225
1.225
1.225
1.225
1.225
1.225
1.225
1.225
1.225
1.225
1.225
1.225
1.225
1.225
1.225
1.225
1.225
1.225
1.225
1.225
1.225
1.225
1.225
1.225
1.225
1.225
1.225
1.225
1.225
1.225
1.225
1.225
1.225
1.225
1.225
1.225
1.225
1.225
1.225
1.225
1.225
1.225
1.225
1.225
1.225
1.225
1.225
1.225
1.225
1.225
1.225
1.225
1.225
1.225
1.225
1.225
1.225
1.225
1.225
1.225
1.225
1.225
1.225
1.225
1.225
1.225
1.225
1.225
1.225
1.225
1.225
1.225
1.225
1.225
1.225
1.225
1.225
1.225
1.225
1.225
1.225
1.225
1.225
1.225
1.225
1.225
1.225
1.225
1.225
1.225
1.225
1.225
1.225
1.225
1.225
1.225
1.225
1.225
1.225
1.225
1.225
1.225
1.225
1.225
1.225
1.225
1.225
1.225
1.225
1.225
1.225
1.225
1.225
1.225
1.225
1.225
1.225
1.225
1.225
1.225
1.225
1.225
1.225
1.225
1.225
1.225
1.225
1.225
1.225
1.225
1.225
1.225
1.225
1.225
1.225
1.225
1.225
1.225
1.225
1.225
1.225
1.225
1.225
1.225
1.225
1.225
1.225
1.225
1.225
1.225
1.225
1.225
1.225
1.225
1.225
1.225
1.225
1.225
1.225
1.225
1.225
1.225
1.225
1.225
1.225
1.225
1.225
1.225
1.225
1.225
1.225
1.225
1.225
1.225
1.225
1.225
1.225
1.225
1.225
1.225
1.225
1.225
1.225
1.225
1.225
1.225
1.225
1.225
1.225
1.225
1.225
1.225
1.225
1.225
1.225
1.225
1.225
1.225
1.225
1.225
1.225
1.225
1.225
1.225
1.225
1.225
1.225
1.225
1.225
1.225
1.225
1.225
1.225
1.225
1.225
1.225
1.225
1.225
1.225
1.225
1.225
1.225
1.225
1.225
1.225
1.225
1.225
1.225
1.225
1.225
1.225
1.225
1.225
1.225
1.225
1.225
1.225
1.225
1.225
1.225
1.225
1.225
1.225
1.225
1.225
1.225
1.225
1.225
1.225
1.225
1.225
1.225
1.225
1.225
1.225
1.225
1.225
1.225
1.225
1.225
1.225
1.225
1.225
1.225
1.225
1.225
1.225
1.225
1.225
1.225
1.225
1.225
1.225
1.225
1.225
1.225
1.225
1.225
1.225
1.225
1.225
1.225
1.225
1.225
1.225
1.225
1.225
1.225
1.225
1.225
1.225
1.225
1.225
1.225
1.225
1.225
1.225
1.225
1.225
1.225
1.225
1.225
1.225
1.225
1.225
1.225
1.225
1.225
1.225
1.225
1.225
1.225
1.225
1.225
1.225
1.225
1.225
1.225
1.225
1.225
1.225
1.225
1.225
1.225
1.225
1.225
1.225
1.225
1.225
1.225
1.225
1.225
1.225
1.225
1.225
1.225
1.225
1.225
1.225
1.225
1.225
1.225
1.225
1.225
1.225
1.225
1.225
1.225
1.225
1.225
1.225
1.225
1.225
1.225
1.225
1.22501
1.225
1.225
1.225
1.225
1.225
1.225
1.225
1.225
1.22567
1.22504
1.225
1.225
1.225
1.225
1.225
1.225
1.225
1.225
1.225
1.225
1.225
1.225
1.225
1.225
1.225
1.225
1.225
1.225
1.225
1.22504
1.22607
1.22587
1.22606
1.25347
1.24853
1.22628
1.225
1.225
1.225
1.22504
1.225
1.22504
1.225
1.225
1.225
1.225
1.225
1.225
1.225
1.225
1.225
1.225
1.225
1.225
1.225
1.225
1.225
1.22501
1.225
1.225
1.22503
1.22503
1.225
1.225
1.225
1.225
1.225
1.225
1.225
1.225
1.225
1.225
1.225
1.225
1.225
1.225
1.225
1.225
1.225
1.225
1.225
1.225
1.225
1.225
1.225
1.225
1.225
1.225
1.225
1.225
1.225
1.225
1.225
1.225
1.225
1.225
1.225
1.225
1.225
1.225
1.225
1.225
1.225
1.225
1.225
1.225
1.225
1.225
2.12578
1.29133
1.225
1.22803
1.225
1.42945
2.77319
2.82784
1.24804
1.225
1.225
1.22506
1.225
1.22569
1.22504
1.225
1.225
1.225
1.71759
1.4719
2.60675
2.65058
2.79115
1.92791
0.186757
0.237605
0.353449
0.823681
0.133272
0.138838
0.934878
0.470377
1.0066
0.273351
1.01467
3.0027
1.225
1.225
1.225
1.225
1.225
1.225
1.225
1.225
1.225
1.225
1.225
1.225
1.225
1.225
1.225
1.225
1.225
1.225
1.225
1.225
1.225
1.225
1.225
1.225
1.225
1.225
1.225
1.225
1.225
1.225
1.225
1.225
1.225
1.225
1.225
1.225
1.225
1.225
1.225
1.225
1.225
1.225
1.225
1.225
1.225
1.225
1.225
1.225
1.225
1.2252
1.22508
1.225
1.225
1.225
1.225
1.225
1.225
1.225
1.225
1.225
1.225
1.225
1.225
1.225
1.225
1.225
1.225
1.225
1.225
1.225
1.225
1.225
1.225
1.225
1.225
1.225
1.225
1.225
1.225
1.225
1.225
1.225
1.225
1.225
1.225
1.225
1.225
1.225
1.22528
1.225
1.225
1.225
1.225
1.22604
1.225
1.22501
1.225
1.225
1.225
1.225
1.225
1.225
1.225
1.225
1.22564
1.22501
1.22509
1.22521
1.225
1.22501
1.225
1.225
1.225
1.225
1.225
1.225
1.225
1.225
1.225
1.225
1.225
1.225
1.225
1.225
1.225
1.225
1.225
1.225
1.225
1.225
1.225
1.225
1.225
1.22501
1.22602
1.22502
1.22534
1.22533
1.22501
1.22502
1.225
1.225
1.225
1.225
1.225
1.225
1.225
1.225
1.225
1.22501
1.225
1.225
1.22503
1.225
1.225
1.225
1.22504
1.225
1.225
1.22504
1.225
1.225
1.225
1.225
1.225
1.225
1.225
1.225
1.225
1.225
1.225
1.225
1.225
1.225
1.225
1.225
1.225
1.225
1.225
1.225
1.225
1.225
1.225
1.225
1.225
1.225
1.225
1.225
1.225
1.225
1.225
1.225
1.225
1.225
1.225
1.225
1.225
1.225
1.225
1.225
1.225
1.225
1.225
1.225
1.225
1.225
1.225
1.225
1.225
1.225
1.225
1.225
1.225
1.225
1.225
1.225
1.225
1.225
1.225
1.225
1.225
1.225
1.225
1.225
1.225
1.225
1.225
1.225
1.225
1.225
1.225
1.225
1.225
1.225
1.225
1.225
1.225
1.225
1.225
1.225
1.225
1.225
1.225
1.225
1.225
1.225
1.225
1.225
1.225
1.225
1.225
1.225
1.225
1.225
1.225
1.225
1.225
1.225
1.225
1.225
1.225
1.225
1.225
1.225
1.225
1.225
3.0935
2.70744
1.44017
1.33382
1.25032
1.2359
1.24389
1.22554
1.22521
1.22501
1.225
1.225
1.225
3.13056
1.55403
1.25856
2.15516
1.22522
1.22509
1.22502
1.22501
1.225
2.77259
2.96738
2.75167
3.01195
2.0932
1.42654
2.12388
1.40421
1.27177
1.29918
1.28681
1.28362
1.25988
1.26841
1.22524
1.52495
1.8367
1.25875
1.23749
1.52873
1.23731
1.85714
1.27907
1.22682
1.23273
1.2252
1.28213
1.22672
1.23192
1.22685
1.22794
1.22507
1.22507
1.22746
1.22731
1.22506
1.22633
1.22505
1.22586
1.22502
1.22665
1.22504
1.22571
1.22505
1.22528
1.22501
1.225
1.22524
1.22506
1.225
1.22501
1.225
1.225
1.225
1.22501
1.225
1.225
1.225
1.225
1.225
1.225
1.225
1.225
1.225
1.225
1.225
1.225
1.225
1.225
1.225
1.225
1.225
1.225
1.225
1.225
1.225
1.225
1.225
1.225
1.225
1.225
1.225
1.225
1.225
1.225
1.225
1.225
1.225
1.225
1.225
1.225
1.225
1.225
1.225
1.225
1.225
1.225
1.225
1.225
1.225
1.225
1.225
1.225
1.225
1.225
1.225
1.225
1.225
1.225
1.225
1.225
1.225
1.225
1.225
1.225
1.225
1.225
1.225
1.225
1.225
1.225
1.225
1.225
1.225
1.225
1.2368
1.22917
1.22554
1.23252
1.225
1.225
1.225
1.225
1.225
1.2251
1.225
1.225
1.225
1.225
1.225
1.225
1.225
1.225
1.225
1.225
1.225
1.225
1.225
1.225
1.225
1.225
1.225
1.225
1.225
1.22502
1.22501
1.225
1.225
1.225
1.225
1.225
1.225
1.225
1.225
1.225
1.225
1.225
1.225
1.225
1.225
1.225
1.225
1.225
1.225
1.225
1.225
1.225
1.225
1.225
1.225
1.225
1.225
1.225
1.225
1.225
1.225
1.225
1.225
1.225
1.225
1.225
1.225
1.225
1.225
1.225
1.225
1.225
1.225
1.225
1.225
1.225
1.225
1.225
1.225
1.225
1.225
1.225
1.225
1.225
1.225
1.225
1.225
1.225
1.225
1.225
1.225
1.225
1.225
1.225
1.225
1.225
1.225
1.225
1.225
1.225
1.225
1.225
1.225
1.225
1.225
1.225
1.225
1.225
1.225
1.225
1.225
1.225
1.225
1.225
1.225
1.225
1.225
1.225
1.225
1.225
1.225
1.225
1.225
1.225
1.225
1.225
1.225
1.225
1.225
1.225
1.225
1.225
1.225
1.225
1.225
1.225
1.225
1.225
1.225
1.225
1.225
1.225
1.225
1.225
1.225
1.225
1.225
1.225
1.225
1.225
1.225
1.225
1.225
1.225
1.225
1.225
1.225
1.225
1.225
1.225
1.225
1.225
1.225
1.225
1.225
1.225
1.225
1.225
1.225
1.225
1.225
1.22501
1.225
1.225
1.225
1.225
1.225
1.225
1.225
1.225
1.225
1.225
1.225
1.225
1.225
1.225
1.225
1.225
1.225
1.225
1.225
1.225
1.225
1.225
1.225
1.225
1.225
1.225
1.225
1.225
1.225
1.225
1.225
1.225
1.225
1.225
1.225
1.225
1.225
1.225
1.225
1.225
1.225
1.225
1.225
1.225
1.225
1.225
1.225
1.225
1.225
1.225
1.225
1.225
1.225
1.225
1.225
1.225
1.225
1.225
1.225
1.225
1.225
1.225
1.225
1.225
1.225
1.225
1.225
1.225
1.225
1.225
1.225
1.225
1.225
1.225
1.225
1.225
1.225
1.225
1.225
1.225
1.225
1.225
1.225
1.225
1.225
1.225
1.225
1.225
1.225
1.225
1.225
1.225
1.225
1.225
1.225
1.225
1.225
1.225
1.225
1.225
1.225
1.225
1.225
1.225
1.225
1.225
1.225
1.225
1.225
1.225
1.225
1.225
1.225
1.225
1.225
1.225
1.225
1.225
1.225
1.225
1.225
1.225
1.225
1.225
1.225
1.225
1.225
1.225
1.225
1.225
1.225
1.225
1.225
1.225
1.225
1.225
1.225
1.225
1.225
1.225
1.225
1.225
1.225
1.225
1.225
1.225
1.225
1.225
1.225
1.225
1.225
1.225
1.225
1.225
1.22503
1.225
1.22503
1.22501
1.225
1.225
1.225
1.225
1.225
1.225
1.225
1.225
1.225
1.225
1.225
1.225
1.225
1.225
1.225
1.225
1.225
1.225
1.225
1.225
1.225
1.225
1.225
1.225
1.225
1.225
1.225
1.225
1.225
1.225
1.225
1.225
1.225
1.225
1.225
1.225
1.225
1.225
1.225
1.225
1.225
1.225
1.225
1.225
1.225
1.225
1.225
1.225
1.225
1.225
1.225
1.225
1.225
1.225
1.225
1.225
1.225
1.225
1.225
1.225
1.225
1.225
1.225
1.225
1.225
1.225
1.225
1.225
1.225
1.225
1.225
1.225
1.225
1.225
1.225
1.225
1.225
1.225
1.225
1.225
1.225
1.225
1.225
1.225
1.225
1.225
1.225
1.225
1.225
1.225
1.225
1.225
1.225
1.225
1.225
1.225
1.225
1.225
1.225
1.225
1.225
1.225
1.225
1.225
1.225
1.225
1.225
1.225
1.225
1.225
1.225
1.225
1.225
1.225
1.225
1.225
1.225
1.225
1.225
1.225
1.225
1.225
1.225
1.225
1.225
1.225
1.225
1.225
1.225
1.225
1.225
1.225
1.225
1.225
1.225
1.225
1.225
1.225
1.225
1.225
1.225
1.225
1.225
1.225
1.225
1.225
1.225
1.225
1.225
1.225
1.225
1.225
1.225
1.225
1.225
1.225
1.225
1.225
1.225
1.225
1.225
1.225
1.225
1.225
1.225
1.225
1.225
1.225
1.225
1.225
1.225
1.225
1.225
1.225
1.225
1.225
1.225
1.225
1.225
1.225
1.225
1.225
1.225
1.225
1.225
1.225
1.225
1.225
1.225
1.225
1.225
1.225
1.225
1.225
1.225
1.225
1.225
1.225
1.225
1.225
1.225
1.225
1.225
1.225
1.225
1.225
1.225
1.225
1.225
1.225
1.225
1.225
1.225
1.225
1.225
1.225
1.225
1.225
1.225
1.225
1.225
1.225
1.225
1.225
1.225
1.225
1.225
1.225
1.225
1.225
1.225
1.225
1.225
1.225
1.225
1.225
1.225
1.225
1.225
1.225
1.225
1.225
1.225
1.225
1.225
1.225
1.225
1.225
1.225
1.225
1.225
1.225
1.225
1.225
1.225
1.225
1.225
1.225
1.225
1.225
1.225
1.225
1.225
1.225
1.225
1.225
1.225
1.225
1.225
1.225
1.225
1.225
1.225
1.225
1.225
1.225
1.225
1.225
1.225
1.225
1.225
1.225
1.225
1.225
1.225
1.225
1.225
1.225
1.225
1.225
1.225
1.225
1.225
1.225
1.225
1.225
1.225
1.225
1.225
1.225
1.225
1.225
1.225
1.225
1.225
1.225
1.225
1.225
1.225
1.225
1.225
1.225
1.225
1.225
1.225
1.225
1.225
1.225
1.225
1.225
1.225
1.225
1.225
1.225
1.225
1.225
1.225
1.225
1.225
1.225
1.225
1.225
1.225
1.225
1.225
1.225
1.225
1.225
1.225
1.225
1.225
1.225
1.225
1.225
1.225
1.225
1.225
1.225
1.225
1.225
1.225
1.225
1.225
1.225
1.225
1.225
1.225
1.225
1.225
1.225
1.225
1.225
1.225
1.225
1.225
1.225
1.225
1.225
1.225
1.225
1.225
1.225
1.225
1.225
1.225
1.225
1.225
1.225
1.225
1.225
1.225
1.225
1.225
1.225
1.225
1.225
1.225
1.225
1.225
1.225
1.225
1.225
1.225
1.225
1.225
1.225
1.225
1.225
1.225
1.225
1.225
1.225
1.225
1.225
1.225
1.225
1.225
1.225
1.225
1.225
1.225
1.225
1.225
1.225
1.225
1.225
1.225
1.225
1.225
1.225
1.225
1.225
1.225
1.225
1.225
1.225
1.225
1.225
1.225
1.225
1.225
1.225
1.225
1.225
1.225
1.225
1.225
1.225
1.225
1.225
1.225
1.225
1.225
1.225
1.225
1.225
1.225
1.225
1.225
1.225
1.225
1.225
1.225
1.225
1.225
1.225
1.225
1.225
1.225
1.225
1.225
1.225
1.225
1.225
1.225
1.225
1.225
1.225
1.225
1.225
1.225
1.225
1.225
1.225
1.225
1.225
1.225
1.225
1.225
1.225
1.225
1.225
1.225
1.225
1.225
1.225
1.225
1.225
1.225
1.225
1.225
1.225
1.225
1.225
1.225
1.225
1.225
1.225
1.225
1.225
1.225
1.225
1.225
1.225
1.225
1.225
1.225
1.225
1.225
1.225
1.225
1.225
1.225
1.225
1.225
1.225
1.225
1.225
1.225
1.225
1.225
1.225
1.225
1.225
1.225
1.225
1.225
1.225
1.225
1.225
1.225
1.225
1.225
1.225
1.225
1.225
1.225
1.225
1.225
1.225
1.225
1.225
1.225
1.225
1.225
1.225
1.225
1.225
1.225
1.225
1.225
1.225
1.225
1.225
1.225
1.225
1.225
1.225
1.225
1.225
1.225
1.225
1.225
1.225
1.225
1.225
1.225
1.225
1.225
1.225
1.225
1.225
1.225
1.225
1.225
1.225
1.225
1.225
1.225
1.225
1.225
1.225
1.225
1.225
1.225
1.225
1.225
1.225
1.225
1.225
1.225
1.225
1.225
1.225
1.225
1.225
1.225
1.225
1.225
1.225
1.225
1.225
1.225
1.225
1.225
1.225
1.225
1.225
1.225
1.225
1.225
1.225
1.225
1.225
1.225
1.225
1.225
1.225
1.225
1.225
1.225
1.225
1.225
1.225
1.225
1.225
1.225
1.225
1.225
1.225
1.225
1.225
1.225
1.225
1.225
1.225
1.225
1.225
1.225
1.225
1.225
1.225
1.225
1.225
1.225
1.225
1.225
1.225
1.225
1.225
1.225
1.225
1.225
1.225
1.225
1.225
1.225
1.225
1.225
1.225
1.225
1.225
1.225
1.225
1.225
1.225
1.225
1.225
1.225
1.225
1.225
1.225
1.225
1.225
1.225
1.225
1.225
1.225
1.225
1.225
1.225
1.225
1.225
1.225
1.225
1.225
1.225
1.225
1.225
1.225
1.225
1.225
1.225
1.225
1.225
1.225
1.225
1.225
1.225
1.225
1.225
1.225
1.225
1.225
1.225
1.225
1.225
1.225
1.225
1.225
1.225
1.225
1.225
1.225
1.225
1.225
1.225
1.225
1.225
1.225
1.225
1.225
1.225
1.225
1.225
1.225
1.225
1.225
1.225
1.225
1.225
1.225
1.225
1.225
1.225
1.225
1.225
1.225
1.225
1.225
1.225
1.225
1.225
1.225
1.225
1.225
1.225
1.225
1.225
1.225
1.225
1.225
1.225
1.225
1.225
1.225
1.225
1.225
1.225
1.225
1.225
1.225
1.225
1.225
1.225
1.225
1.225
1.225
1.225
1.225
1.225
1.225
1.225
1.225
1.225
1.225
1.225
1.225
1.225
1.225
1.225
1.225
1.225
1.225
1.225
1.225
1.225
1.225
1.225
1.225
1.225
1.225
1.225
1.225
1.225
1.225
1.225
1.225
1.225
1.225
1.225
1.225
1.225
1.225
1.225
1.225
1.225
1.225
1.225
1.225
1.225
1.225
1.225
1.225
1.225
1.225
1.225
1.225
1.225
1.225
1.225
1.225
1.225
1.225
1.225
1.225
1.225
1.225
1.225
1.225
1.225
1.225
1.225
1.225
1.225
1.225
1.225
1.225
1.225
1.225
1.225
1.225
1.225
1.225
1.225
1.225
1.225
1.225
1.225
1.225
1.225
1.225
1.225
1.225
1.225
1.225
1.225
1.225
1.225
1.225
1.225
1.225
1.225
1.225
1.225
1.225
1.225
1.225
1.225
1.225
1.225
1.225
1.225
1.225
1.225
1.225
1.225
1.225
1.225
1.225
1.225
1.225
1.225
1.225
1.225
1.225
1.225
1.225
1.225
1.225
1.225
1.225
1.225
1.225
1.225
1.225
1.225
1.225
1.225
1.225
1.225
1.225
1.225
1.225
1.225
1.225
1.225
1.225
1.225
1.225
1.225
1.225
1.225
1.225
1.225
1.225
1.225
1.225
1.225
1.225
1.225
1.225
1.225
1.225
1.225
1.225
1.225
1.225
1.225
2.26635
1.22807
1.22528
1.225
1.225
1.225
1.24794
1.225
1.22501
1.22518
1.225
1.225
1.71689
1.22502
1.225
1.225
1.22501
1.225
1.225
1.22974
1.225
1.225
1.225
1.225
1.225
1.225
1.225
1.22505
1.225
1.225
1.225
1.225
1.225
1.225
1.225
1.225
1.225
1.225
1.225
1.225
1.225
1.225
1.225
1.225
1.225
1.225
1.225
1.225
1.225
1.225
1.225
1.225
1.28724
1.57631
1.36599
1.22559
1.23804
1.22957
1.22683
1.225
1.225
1.225
1.225
1.225
1.225
1.225
1.2277
1.24563
1.2267
1.22506
1.22504
1.22554
1.225
1.225
1.225
1.225
1.225
1.225
1.225
1.225
1.22503
1.22523
1.22535
1.225
1.22501
1.225
1.22501
1.225
1.225
1.225
1.225
1.225
1.225
1.225
1.22501
1.22508
1.22516
1.225
1.225
1.225
1.225
1.225
1.225
1.225
1.225
1.225
1.225
1.225
1.225
1.225
1.22502
1.225
1.225
1.225
1.225
1.225
1.225
1.225
1.225
1.225
1.225
1.225
1.225
1.225
1.225
1.225
1.225
1.225
1.225
1.225
1.225
1.225
1.225
1.225
1.225
1.225
1.225
1.225
1.225
1.225
1.225
1.225
1.225
1.225
1.225
1.225
1.225
1.225
1.225
1.225
1.225
1.225
1.225
1.225
1.225
1.225
1.225
1.225
1.225
1.225
1.225
1.225
1.225
1.225
1.225
1.225
1.225
1.225
1.225
1.225
1.225
1.225
1.225
1.225
1.225
1.225
1.225
1.225
1.225
1.225
1.225
1.225
1.225
1.225
1.22501
1.22533
1.225
1.225
1.22511
1.225
1.22504
1.225
1.225
1.225
1.225
1.22501
1.225
1.225
1.225
1.225
1.225
1.225
1.225
1.225
1.225
1.225
1.225
1.225
1.225
1.225
1.225
1.225
1.225
1.225
1.225
1.225
1.225
1.225
1.225
1.225
1.225
1.225
1.225
1.225
1.225
1.225
1.225
1.225
1.225
1.225
1.225
1.225
1.225
1.225
1.225
1.225
1.225
1.225
1.225
1.225
1.225
1.225
1.225
1.225
1.225
1.225
1.225
1.225
1.225
1.225
1.225
1.225
1.225
1.225
1.225
1.225
1.225
1.225
1.225
1.225
1.225
1.225
1.225
1.225
1.225
1.225
1.225
1.225
1.225
1.225
1.225
1.225
1.225
1.225
1.225
1.225
1.225
1.225
1.225
1.225
1.225
1.225
1.225
1.225
1.225
1.225
1.225
1.225
1.225
1.225
1.225
1.225
1.225
1.225
1.225
1.225
1.225
1.225
1.225
1.225
1.225
1.225
1.225
1.225
1.225
1.225
1.225
1.225
1.225
1.225
1.225
1.225
1.225
1.225
1.225
1.225
1.225
1.225
1.225
1.225
1.225
1.225
1.225
1.225
1.225
1.225
1.225
1.225
1.225
1.225
1.225
1.225
1.225
1.225
1.225
1.225
1.225
1.225
1.225
1.225
1.225
1.225
1.225
1.225
1.225
1.225
1.225
1.225
1.225
1.225
1.225
1.225
1.225
1.225
1.225
1.225
1.225
1.225
1.225
1.225
1.225
1.225
1.225
1.225
1.225
1.225
1.225
1.225
1.225
1.225
1.225
1.225
1.225
1.225
1.225
1.225
1.225
1.225
1.225
1.225
1.225
1.225
1.225
1.225
1.225
1.225
1.225
1.225
1.225
1.225
1.225
1.225
1.225
1.225
1.225
1.225
1.225
1.225
1.225
1.225
1.225
1.225
1.225
1.225
1.225
1.225
1.225
1.225
1.225
1.225
1.225
1.225
1.2257
1.22524
2.05589
1.68075
1.22514
1.225
1.26445
1.22534
1.225
1.225
1.22616
1.23249
1.2367
1.24626
1.51678
1.2606
1.41539
1.22547
1.22766
1.23016
1.23953
1.29644
1.35823
1.2325
1.22501
1.22507
1.22581
1.22541
1.2498
1.22734
1.22977
1.22501
1.225
1.225
1.22504
1.22503
1.22551
1.225
1.225
1.225
1.225
1.225
1.225
1.225
1.225
1.225
1.225
1.26849
1.22511
1.225
1.225
3.0356
3.26796
2.16691
2.59819
1.91031
1.225
1.225
1.225
1.225
1.225
1.225
1.225
1.225
1.225
1.225
1.225
1.225
1.225
1.225
1.225
1.225
1.225
1.225
1.225
1.225
1.225
1.225
1.225
1.225
1.225
1.225
1.225
1.225
1.225
1.225
1.225
1.225
2.70179
1.96888
1.33741
1.24337
1.90326
2.39534
2.36122
2.74771
2.64028
2.74603
1.24005
1.40972
1.37943
2.39902
1.5982
2.47331
1.54915
1.34195
3.0477
3.20919
2.04434
1.37822
1.67453
1.27753
1.22514
1.22562
3.16154
2.9409
3.0913
3.1745
2.63752
2.6746
2.11131
1.97117
1.89683
1.61636
1.84789
1.77833
1.25016
1.24552
1.26921
1.44072
1.40202
1.22666
1.23414
1.23252
1.227
1.22551
1.23269
1.23132
1.2252
1.22502
1.22501
0.171376
0.320115
0.0642929
0.137726
0.338815
0.0455032
0.119892
0.119319
0.300656
0.260433
0.0335645
0.0937533
0.0291918
0.0796206
0.184733
0.169916
0.202913
0.292232
0.265645
0.0985652
0.146998
0.190588
0.271679
0.34303
0.133985
0.055299
0.0343456
0.0903235
0.421866
0.974772
0.459278
1.11718
0.626019
1.34398
0.734206
0.846301
0.413626
0.362339
1.30935
1.20913
0.69496
0.620368
1.225
0.55835
0.121653
0.319444
0.50087
0.776761
0.430443
0.236419
0.339657
0.55866
0.605589
0.4454
0.705393
0.800137
0.466408
0.377924
0.842285
0.957618
1.17746
1.29016
0.617439
0.707139
1.61933
0.547113
0.956805
1.97913
1.23648
1.2806
0.749252
0.668879
1.23503
1.7173
1.58619
2.09286
0.924155
1.31776
1.58449
1.22546
1.23351
1.225
1.22547
1.37124
1.32146
2.36184
2.73492
1.77188
3.08866
2.7112
1.84891
2.22379
1.73252
2.4494
1.62113
2.70945
2.89781
2.16626
2.03156
1.00347
2.32975
1.14956
3.65728
1.41486
3.11498
2.03058
2.94852
1.41367
2.74314
2.79356
1.30314
2.03601
2.91963
1.91928
2.18604
3.64486
3.08286
3.36092
2.87468
2.70062
2.79703
1.25924
1.23586
2.86829
2.55129
3.17547
3.25842
3.70211
3.6223
3.25243
3.05063
2.8859
2.9235
2.51027
2.71009
2.10955
2.41979
1.54014
1.61183
1.22795
1.22618
1.26574
1.22509
0.520896
0.223587
1.04228
0.351559
0.590049
1.51173
0.572665
1.79208
1.62132
0.651605
2.52705
2.99333
1.22563
1.225
1.23437
1.225
1.225
1.22677
1.225
1.225
1.225
1.225
1.225
1.225
1.225
1.22501
1.225
1.225
1.225
1.225
1.225
1.225
1.225
1.22506
1.22506
1.225
1.23011
2.93773
1.24104
1.22531
3.09979
1.22682
1.225
1.22514
1.225
1.225
1.225
1.225
1.225
1.225
1.225
1.225
1.225
1.225
1.225
1.225
1.225
1.225
1.225
1.225
1.225
1.78697
1.232
3.21486
3.07644
2.33219
2.97606
2.58247
3.66642
3.35987
3.36037
4.0547
1.31798
1.7369
1.27988
2.56606
2.16934
3.16362
1.43517
4.35315
2.96722
3.24635
4.27865
4.01392
3.46258
3.55368
2.968
1.67945
2.88748
1.91278
2.5684
1.55823
2.13797
2.38779
1.41243
1.23811
1.73605
1.28955
1.35477
1.22642
1.24139
0.270209
0.607479
0.280943
0.470489
0.807321
0.978972
0.547839
0.509221
0.247613
0.212645
0.95646
0.876942
0.516592
0.458052
0.239418
0.481385
0.00599965
0.432545
2.55214
1.23034
1.225
1.225
1.225
1.22501
1.225
1.22501
1.22501
1.22534
1.22523
1.22525
1.23166
1.22501
0.0362208
0.00696218
0.00391108
0.0740775
0.108203
0.00035833
0.000489278
0.000526562
0.000570156
0.000353923
0.000521216
0.000567125
0.00117225
0.00119124
0.207331
0.642459
0.44232
0.0184765
0.368392
0.0849926
0.000867744
0.000784216
0.000380796
0.000865726
0.000574712
0.000631546
0.00133851
0.00201028
0.0209393
0.00574779
0.0182529
0.0013798
0.00135138
0.00405407
0.00438678
0.00371107
0.0143098
0.0163093
0.00114889
0.00114658
0.00370714
0.00392277
0.00168872
0.00248566
0.002113
0.00579554
0.00550783
0.0081026
0.021091
0.0123452
0.00698056
0.0218474
0.002507
0.00157366
0.00477679
0.00784458
0.00435371
0.0270952
0.0167283
0.00191082
0.00130288
0.00434347
0.00694491
0.0627399
0.0559912
0.0657721
0.222616
0.190174
0.0149638
0.0170704
0.0646112
0.168795
0.0652836
0.0051197
0.0187435
0.0184544
0.0647582
2.37052
1.63899
2.45478
1.4507
2.62744
0.618246
0.309321
0.0714723
0.0990432
0.0640674
0.201279
0.259458
0.0175925
0.0285893
0.0849122
0.107385
0.0329882
0.0079417
0.0216898
0.0306315
0.076283
0.0154949
0.148292
0.034244
0.176924
0.0436077
0.0932494
0.284754
0.448866
0.246261
0.526309
0.901967
0.736105
0.444987
0.523017
0.193149
0.678773
0.360405
0.263549
0.0846135
0.194786
0.447401
0.197946
0.345083
0.183617
0.382336
0.59346
0.0694076
0.177087
0.521196
0.335928
0.333913
0.235328
0.201071
0.329952
0.332894
0.283457
0.516832
0.452498
0.505173
0.578771
0.840898
0.911126
0.35199
0.25891
0.227187
0.384268
0.390825
0.527336
0.577791
0.807489
0.608153
0.283035
0.34685
0.120988
0.220697
0.498323
0.43553
0.498737
0.812196
0.659245
0.992126
1.10283
1.31948
1.69273
0.755113
1.42172
2.12062
0.920735
1.19794
1.46946
2.13745
2.0401
1.33106
0.90353
0.829064
1.45376
1.36412
0.915494
1.82667
1.10467
1.30697
1.99618
2.44531
1.58998
1.68142
1.07576
0.987744
2.40974
1.56516
2.26768
1.46843
0.966586
0.417581
0.675521
0.75843
1.08573
1.11952
1.52223
1.09596
1.50652
0.945183
1.01354
0.597942
0.378078
0.710342
2.30916
2.03707
1.17811
0.772744
0.978134
1.50784
1.76374
0.876753
1.60708
2.02586
1.21504
0.88773
1.24885
1.62446
0.69934
0.801884
1.18373
0.494575
0.537257
0.732212
0.842367
1.94635
1.26023
0.852079
1.32905
0.789778
1.29786
1.37605
0.920585
1.07637
0.656784
0.799548
0.925801
1.20361
1.42509
1.73377
0.953408
1.04008
2.17336
1.4061
2.26726
1.50025
1.63159
2.45077
1.81467
2.52
1.94751
2.14485
2.58136
2.0386
1.12729
1.3259
0.922186
1.05875
1.48728
1.74516
2.61369
2.06653
1.96181
2.36551
1.58206
2.43734
1.70685
2.43296
1.67213
1.63737
2.20919
1.45268
2.86338
2.18841
2.58179
2.95163
2.72301
2.10635
1.77611
2.901
2.46307
2.68796
2.69355
1.96556
2.38932
1.59017
2.38938
2.89545
3.43932
3.00917
2.80226
3.06211
2.22687
2.83425
2.11515
2.76915
2.31999
1.04388
2.05405
1.56993
1.63369
2.13429
1.74486
2.04079
1.28517
2.54141
1.78699
2.88234
2.30182
2.63684
2.63766
2.61331
2.39025
2.67407
2.06713
2.40383
1.83332
2.33559
2.90047
2.5262
1.69635
1.2757
2.10387
1.97977
1.41728
1.67843
1.07479
1.26952
1.54989
1.83465
3.12467
2.37217
3.0193
1.79697
2.55478
3.15037
2.22761
2.39861
1.41085
1.67411