/*--------------------------------*- C++ -*----------------------------------*\
  =========                 |
  \\      /  F ield         | OpenFOAM: The Open Source CFD Toolbox
   \\    /   O peration     | Website:  https://openfoam.org
    \\  /    A nd           | Version:  9
     \\/     M anipulation  |
\*---------------------------------------------------------------------------*/
FoamFile
{
    format      ascii;
    class       volScalarField;
    location    "0.0029";
    object      rho.air;
}
// * * * * * * * * * * * * * * * * * * * * * * * * * * * * * * * * * * * * * //

dimensions      [1 -3 0 0 0 0 0];

internalField   nonuniform List<scalar> 
24908
(
1.758
1.22502
1.22501
1.225
1.225
1.22505
1.225
1.225
1.22591
0.775582
1.61853
2.2458
2.0438
1.22933
1.23249
1.53317
1.26333
1.22705
1.22868
1.58417
1.27554
1.31207
0.896775
1.40622
0.965724
1.12579
1.35147
0.98953
2.43136
0.831697
0.711182
0.754958
1.00214
0.906983
0.959564
0.937153
1.28613
1.23383
1.23595
1.26898
1.23756
1.27218
1.28538
1.36012
1.40471
1.31167
1.50915
1.35455
1.43126
1.27751
0.970828
0.806245
0.865896
1.07867
1.1017
1.02402
1.16724
1.24396
1.76215
1.91264
1.71309
1.88093
1.7967
1.79988
2.30292
1.394
1.6497
2.03907
1.28448
1.98286
1.68697
1.63562
1.36247
1.2857
1.56042
1.26195
1.58178
1.03024
1.63449
1.11813
2.1445
0.988685
1.45186
1.41508
1.13127
2.25733
1.22512
1.225
1.22501
1.22739
1.30969
1.23639
1.22519
1.225
1.225
1.22501
1.22501
1.225
1.22501
1.225
1.225
1.225
1.225
1.225
1.225
1.225
1.225
1.225
1.225
1.225
1.225
1.225
1.225
1.225
1.225
1.225
1.225
1.225
1.225
1.225
1.225
1.225
1.225
1.225
1.225
1.225
1.225
1.225
1.27256
1.39199
1.22504
1.225
1.22501
1.22634
1.26869
1.22846
1.22505
1.225
1.225
1.225
1.225
1.225
1.225
1.225
1.225
1.225
1.225
1.225
1.225
1.225
1.225
1.225
1.225
1.225
1.225
1.225
1.225
1.225
1.225
1.225
1.225
1.225
1.225
1.225
1.225
1.225
1.225
1.225
1.225
1.225
1.225
1.225
1.93358
1.22783
1.225
1.225
1.22526
1.23191
1.22511
1.225
1.225
1.225
1.225
1.225
1.225
1.225
1.225
1.225
1.225
1.225
1.225
1.225
1.225
1.225
1.225
1.225
1.225
1.225
1.225
1.225
1.225
1.225
1.225
1.225
1.225
1.225
1.225
1.225
1.225
1.225
1.225
1.225
1.225
1.225
1.225
1.9624
1.22501
1.2251
1.225
1.22502
1.22516
1.225
1.22502
1.225
1.225
1.225
1.225
1.225
1.225
1.225
1.225
1.225
1.225
1.225
1.225
1.225
1.225
1.225
1.225
1.225
1.225
1.225
1.225
1.225
1.225
1.225
1.225
1.225
1.225
1.225
1.225
1.225
1.225
1.225
1.225
1.225
1.225
1.225
1.55359
2.16866
1.34401
1.22502
1.225
2.07393
1.36109
1.22642
1.22501
1.225
1.225
1.22658
1.22502
1.225
1.225
1.225
1.225
1.225
1.225
1.225
1.225
1.225
1.225
1.225
1.225
1.225
1.225
1.225
1.225
1.225
1.225
1.225
1.225
1.225
1.225
1.225
1.225
1.225
1.225
1.225
1.225
1.225
1.225
1.225
1.225
1.225
1.225
1.45935
1.6958
1.22561
1.225
1.225
1.225
1.22508
1.26778
1.22505
1.225
1.225
1.225
1.22501
1.225
1.225
1.225
1.225
1.225
1.225
1.225
1.225
1.225
1.225
1.225
1.225
1.225
1.225
1.225
1.225
1.225
1.225
1.225
1.225
1.225
1.225
1.225
1.225
1.225
1.225
1.225
1.225
1.225
1.225
1.225
1.225
1.225
1.225
1.225
1.22505
1.22503
1.225
1.225
1.225
1.225
1.22501
1.22501
1.225
1.225
1.225
1.225
1.225
1.225
1.225
1.225
1.225
1.225
1.225
1.225
1.225
1.225
1.225
1.225
1.225
1.225
1.225
1.225
1.225
1.225
1.225
1.225
1.225
1.225
1.225
1.225
1.225
1.225
1.225
1.225
1.225
1.225
1.225
1.225
1.225
1.225
1.225
1.225
1.225
1.225
1.225
1.225
1.225
1.225
1.225
1.225
1.225
1.225
1.225
1.225
1.225
1.225
1.225
1.225
1.225
1.225
1.225
1.225
1.225
1.225
1.225
1.225
1.225
1.225
1.225
1.225
1.225
1.225
1.225
1.225
1.225
1.225
1.225
1.225
1.225
1.225
1.225
1.225
1.225
1.225
1.225
1.225
1.225
1.225
1.225
1.225
1.225
1.225
1.225
1.225
1.225
1.225
1.225
1.225
1.225
1.225
1.225
1.225
1.225
1.225
1.225
1.225
1.225
1.225
1.225
1.225
1.225
1.225
1.225
1.225
1.225
1.225
1.225
1.225
1.225
1.225
1.225
1.225
1.225
1.225
1.225
1.225
1.225
1.225
1.225
1.225
1.225
1.225
1.225
1.225
1.225
1.225
1.225
1.225
1.225
1.225
1.225
1.225
1.225
1.225
1.225
1.225
1.225
1.225
1.225
1.225
1.225
1.225
1.225
1.225
1.225
1.225
1.225
1.225
1.225
1.225
1.225
1.225
1.225
1.225
1.225
1.225
1.225
1.225
1.225
1.225
1.225
1.225
1.225
1.225
1.225
1.225
1.225
1.225
1.225
1.225
1.225
1.225
1.225
1.225
1.225
1.225
1.22509
1.225
1.22506
1.225
1.225
1.225
1.225
1.225
1.225
1.22647
1.225
1.22607
1.11247
1.23452
1.56239
1.13822
1.23211
1.50115
1.45159
1.66203
1.56617
1.16536
1.49655
1.58614
1.43388
1.22501
1.22521
1.22501
1.22509
1.22501
1.22516
1.22501
1.225
1.225
1.225
1.225
1.225
1.225
1.225
1.22539
1.225
1.22501
1.22501
1.22526
1.225
1.22501
1.28651
1.22505
1.22511
1.2267
1.2674
1.22504
1.22508
1.22504
1.225
1.225
1.225
1.225
1.225
1.225
1.225
1.22586
1.225
1.22531
1.21782
1.23083
1.46119
1.34125
1.22727
1.31425
2.06031
1.5365
1.36749
1.62173
2.39992
1.33999
1.24579
1.225
1.22507
1.225
1.225
1.22502
1.225
1.225
1.225
1.225
1.225
1.225
1.225
1.225
1.22518
1.225
1.22501
1.225
1.22505
1.225
1.225
1.25821
1.22505
1.22506
1.22545
1.23568
1.22503
1.22503
1.225
1.22508
1.225
1.225
1.22503
1.225
1.225
1.22519
1.225
1.22502
1.63436
1.22644
1.27904
1.82726
1.2252
1.23218
2.4229
1.29099
1.23319
2.19747
1.59604
1.23122
1.2252
1.225
1.22501
1.225
1.22503
1.22502
1.225
1.225
1.225
1.225
1.22501
1.225
1.225
1.225
1.22501
1.225
1.225
1.225
1.22501
1.225
1.225
1.23131
1.22501
1.22502
1.22504
1.2257
1.22501
1.22501
1.22575
1.45924
1.22532
1.22501
1.3814
1.23671
1.225
1.22501
1.22857
1.22509
1.83695
1.22508
1.22783
1.31284
1.22503
1.22506
1.30891
1.2271
1.22504
1.30366
1.22521
1.22503
1.22501
1.2261
1.22515
1.22515
1.3923
1.22861
1.23013
1.22503
1.22501
1.225
1.26635
1.2266
1.22509
1.22502
1.225
1.225
1.225
1.22544
1.22501
1.225
1.225
1.22524
1.225
1.225
1.225
1.22501
1.225
1.225
1.96803
1.70793
1.27024
1.94941
2.35191
1.86404
1.24198
1.87906
1.23878
1.22539
2.20035
1.36563
1.22847
1.22503
1.22899
1.22513
1.22501
1.23191
1.22505
1.22501
1.22501
1.48018
2.5087
2.0142
1.80455
1.22919
1.54756
2.07991
1.22521
1.225
1.20138
2.19652
1.22844
1.22501
1.225
1.225
2.48348
2.38319
1.22501
1.225
1.225
1.225
1.2584
1.22516
1.225
1.225
1.225
1.225
1.225
1.225
1.225
1.225
1.225
1.225
1.225
1.225
1.225
1.225
1.225
1.225
0.539748
0.553432
0.938526
0.619354
0.975562
0.959363
0.793
0.998056
0.604683
0.699925
1.31792
0.718596
1.0806
1.58967
0.833431
1.34469
1.06171
1.31357
1.34572
1.72596
1.02395
1.70524
1.26931
2.41631
1.16804
1.99554
1.46146
1.7489
2.14858
1.75861
2.67889
2.31345
1.88975
2.45673
1.57623
1.84275
1.22716
1.00968
1.0683
1.22177
1.5487
1.31338
1.84688
1.31629
2.22487
1.96083
1.9942
2.19479
2.03215
2.32432
2.48698
1.98698
2.48602
1.86653
1.26904
2.5318
1.32294
1.29341
1.22552
1.53121
1.26048
1.9386
2.07665
1.7597
1.36017
1.54816
2.05657
1.83941
1.96495
1.92928
2.1116
2.00307
1.93365
1.5908
1.80531
1.53877
1.91779
1.26487
1.36749
1.28304
1.22875
1.2412
1.23116
1.23682
1.22501
1.22507
1.22502
1.22509
1.22507
1.22502
1.22501
1.225
1.225
1.225
1.225
1.225
1.225
1.225
1.22501
1.22507
1.22504
1.22501
1.22506
1.22502
1.22501
1.225
1.225
1.225
1.225
1.225
1.225
1.225
1.225
1.225
1.225
1.225
1.225
1.225
1.225
1.225
1.225
1.225
1.225
1.225
1.225
1.225
1.225
1.225
1.225
1.225
1.225
1.225
1.225
1.225
1.225
1.225
1.225
1.225
1.225
1.225
1.22504
1.22501
1.22503
1.225
1.22501
1.22503
1.22504
1.22533
1.22752
1.22521
1.2264
1.2274
1.2252
1.22535
1.22504
1.225
1.225
1.22502
1.225
1.22502
1.22503
1.2253
1.22626
1.22689
1.22515
1.22718
1.22518
1.22525
1.11891
1.18043
1.18949
1.67034
1.67828
1.68488
1.66742
1.31569
1.24144
1.27775
1.23406
1.24075
1.27535
1.31873
1.21071
1.17147
1.24823
1.68095
1.73072
1.70215
1.69901
1.3111
1.23322
1.23796
1.26544
1.23957
1.27111
1.30461
1.225
1.22503
1.22501
1.22501
1.22501
1.225
1.225
1.225
1.225
1.225
1.225
1.225
1.225
1.225
1.225
1.225
1.225
1.225
1.225
1.225
1.225
1.225
1.225
1.225
1.225
1.225
1.225
1.225
1.225
1.225
1.225
1.225
1.225
1.225
1.225
1.225
1.225
1.225
1.225
1.225
1.225
1.225
1.225
1.225
1.225
1.225
1.225
1.22502
1.225
1.22502
1.225
1.22502
1.225
1.22501
1.22515
1.22654
1.22512
1.22565
1.2252
1.22619
1.22508
1.22501
1.225
1.225
1.225
1.225
1.22501
1.22501
1.2251
1.22547
1.22558
1.22504
1.22586
1.22506
1.22507
1.30084
1.27557
1.36675
1.73871
1.76715
1.72048
1.80534
1.28564
1.23601
1.25882
1.22952
1.29609
1.23388
1.2518
1.44462
1.53457
1.41405
1.74712
1.85222
1.83647
1.74038
1.27389
1.2283
1.22979
1.23906
1.23174
1.24502
1.2619
1.225
1.225
1.225
1.225
1.225
1.225
1.225
1.22503
1.22501
1.22512
1.22519
1.22501
1.22502
1.22526
1.225
1.225
1.225
1.225
1.225
1.225
1.225
1.225
1.225
1.225
1.225
1.225
1.225
1.225
1.225
1.225
1.22505
1.22501
1.225
1.225
1.22502
1.225
1.225
1.225
1.225
1.225
1.225
1.22501
1.225
1.225
1.225
1.225
1.225
1.225
1.225
1.22502
1.22536
1.22502
1.22511
1.22504
1.22521
1.22501
1.225
1.225
1.225
1.225
1.225
1.225
1.225
1.22501
1.22505
1.22505
1.225
1.22511
1.22501
1.225
1.73951
1.49304
1.57842
1.67013
1.8469
1.71517
1.81404
1.24136
1.22815
1.23422
1.22584
1.25076
1.2269
1.23056
1.86798
1.6486
1.68145
1.60307
1.615
1.74317
1.51036
1.23427
1.22544
1.2255
1.22648
1.22603
1.22804
1.22968
1.23999
1.22616
1.22655
1.2314
1.2272
1.23412
1.23694
1.29595
1.27139
1.40338
1.51552
1.27823
1.30058
1.39527
1.22721
1.22554
1.22512
1.22799
1.22521
1.22986
1.2262
1.22582
1.22502
1.22504
1.22513
1.22507
1.22526
1.22543
1.24465
1.24949
1.39957
1.30745
1.26059
1.23593
1.36478
1.23381
1.22632
1.26044
1.2593
1.22816
1.2291
1.30707
1.22502
1.22501
1.225
1.22504
1.225
1.22508
1.22501
1.22501
1.22502
1.225
1.225
1.225
1.22501
1.225
1.22529
1.22539
1.2366
1.22606
1.22597
1.22511
1.22858
1.22508
1.22501
1.22535
1.22531
1.22503
1.22503
1.22611
1.72098
1.57281
1.65594
1.3094
1.45826
1.4033
1.32333
1.22587
1.22522
1.22565
1.22503
1.22715
1.22508
1.22524
1.5057
1.31761
1.43922
1.25564
1.23352
1.25725
1.23502
1.2253
1.22501
1.22512
1.22502
1.22503
1.22507
1.22511
2.11554
1.76323
1.93281
2.11766
1.97695
2.01959
2.09145
1.55422
1.742
1.52242
1.34572
1.26776
1.34401
1.26198
1.04094
0.652914
0.732305
1.22517
0.930892
1.56154
1.69216
1.01018
1.70668
1.09932
1.8543
1.42855
2.18606
2.19737
1.38184
2.22593
1.56531
2.36832
1.99238
0.542745
0.687318
0.69247
0.333654
0.476848
0.479187
0.333359
0.704047
0.574078
0.727205
0.337387
0.498807
0.484931
0.346828
0.762241
0.646479
0.81082
0.377057
0.519012
0.360151
0.546073
0.874837
0.957007
0.766772
0.398299
0.625417
0.580905
0.42583
1.18848
0.850756
0.948889
0.514968
0.68271
0.462925
0.758896
0.523779
1.18963
1.3125
0.852934
1.17829
0.75769
0.586756
1.5392
1.07354
1.23486
0.591913
1.01384
0.865366
0.702106
1.91058
1.60951
1.4366
1.03399
1.21125
0.84277
1.46468
1.93194
1.60898
1.68118
1.29452
2.05502
1.78776
1.62065
1.10643
0.785059
0.852015
0.832988
0.649769
0.586113
0.922588
1.16225
0.916471
1.54268
0.821531
1.37914
1.29383
1.36491
0.939599
1.0587
1.13379
0.721772
0.799706
1.02395
1.77472
1.21415
1.40992
1.25676
0.998976
0.889349
1.41102
1.69963
1.82769
1.2747
2.10433
1.18465
1.97981
1.84668
2.15346
1.61735
1.80013
1.77713
1.13527
1.2804
1.59326
2.09916
1.89238
1.85747
1.94841
1.54887
1.41485
2.08432
1.57257
1.72421
1.57335
2.12745
1.68681
1.8135
2.15203
0.783813
1.46159
0.982395
1.63858
0.669149
1.63381
1.16548
0.97088
1.85826
2.09343
1.86963
1.83542
1.4513
1.28583
1.38982
1.10893
1.2197
1.66351
1.4807
1.75186
1.56161
1.22501
1.2275
1.12313
1.22501
1.22501
1.22501
1.22565
1.22528
1.22981
1.54725
1.52696
0.850374
0.977515
1.05494
1.78611
2.01408
1.22503
1.22502
1.225
1.22501
1.22501
1.225
1.22501
1.225
1.225
1.22501
1.225
1.225
1.22501
1.225
1.22501
1.22501
1.22506
1.22508
1.22586
1.22536
1.22511
1.22504
1.2255
1.24774
1.23089
1.22788
1.25541
1.22874
1.25854
1.24487
1.31688
1.3706
1.34709
1.54452
1.33913
1.33404
1.37624
0.925356
0.72719
0.675257
0.756823
0.492896
0.534713
0.691996
1.27128
1.19784
0.935174
1.15084
1.0157
1.32141
1.39926
1.225
1.22501
1.22649
1.22501
1.225
1.225
1.225
1.74271
1.24051
1.37197
1.83254
1.24039
1.88334
1.22549
1.23005
1.22522
1.22502
1.35146
1.22669
1.22513
1.22501
1.22504
1.22501
1.225
1.22533
1.22501
1.225
1.225
1.225
1.225
1.225
1.225
1.225
1.225
1.225
2.24636
2.21756
2.39544
2.16864
1.79508
2.25162
1.2338
2.28635
1.22887
2.41664
1.57741
1.22902
1.22684
1.22501
1.6828
1.22501
1.24439
1.22571
1.22501
1.22502
1.225
1.22571
1.22501
1.225
1.225
1.225
1.225
1.225
1.62372
1.77483
1.41527
1.55083
1.77246
1.40762
1.6271
1.62088
1.5308
1.77298
1.37449
1.7724
1.39392
1.61665
1.58709
1.76966
1.35052
1.41266
1.60699
1.75509
1.32421
1.55333
1.36048
1.65797
1.27559
1.72029
1.29829
1.50511
1.37879
1.56894
1.25788
1.25555
1.44477
1.46334
1.24489
1.31678
1.24077
1.28988
1.23025
1.36106
1.23582
1.27125
1.23362
1.25298
1.22725
1.22594
1.24626
1.23515
1.22584
1.228
1.22525
1.22574
1.22508
1.228
1.22527
1.22588
2.02825
1.84457
1.5328
1.89827
1.85724
2.00186
1.69714
1.93523
1.55674
1.361
1.28576
1.76478
1.66099
1.43088
1.26831
1.35092
1.22906
1.24163
1.26346
1.38119
1.22933
1.23703
1.22927
1.22624
1.2253
1.23755
1.22851
1.22611
1.24664
1.23809
1.26368
1.22612
1.2269
1.2287
1.22533
1.22531
1.22648
1.22504
1.22509
1.22553
1.22605
1.22502
1.22509
1.22515
1.22502
1.225
1.2253
1.22503
1.22501
1.22501
1.22508
1.24143
2.44102
1.26162
1.25078
1.22501
1.33601
2.30566
2.44468
1.53124
1.50033
2.13456
2.16514
1.92175
1.24526
2.48241
1.89601
2.70228
2.6467
2.2676
2.33697
1.22502
1.38697
2.7108
1.87356
1.3357
1.22949
1.23154
1.22504
1.225
1.39424
1.22534
1.22518
1.225
2.40283
2.29182
2.3712
2.63058
1.97368
2.55203
2.30474
1.44187
1.36424
1.5431
1.9786
2.08436
2.01967
1.62898
1.82103
1.7967
1.68974
1.78948
1.77867
1.95778
1.92835
1.87554
1.69039
1.7637
1.58818
1.70558
1.54616
1.47534
1.26066
1.22512
1.22503
1.2818
1.24478
1.22508
1.22502
1.23781
1.22505
1.22501
1.23757
1.22662
1.22502
1.22501
1.22562
1.22501
1.22501
1.22554
1.22502
1.22501
1.225
1.22501
1.225
1.225
1.225
1.225
1.225
1.225
1.225
1.225
1.225
1.225
1.225
1.225
1.225
1.22509
1.225
1.225
1.225
1.225
1.225
1.225
1.225
1.225
1.225
1.22509
1.22503
1.22501
1.225
1.225
1.22597
1.225
1.225
1.225
1.225
1.225
1.225
1.225
1.225
1.225
1.225
1.225
1.225
1.225
1.225
1.225
1.225
1.225
1.225
1.225
1.225
1.225
1.225
0.307025
0.42161
0.694702
2.0273
0.610596
0.924547
1.56449
0.613166
0.572283
1.72393
0.679413
3.0568
3.30994
0.749687
1.1356
2.54509
0.715537
0.671094
1.71436
1.68567
1.43627
3.47359
2.48557
1.3652
1.97964
2.18374
1.11801
1.15454
2.78184
2.07707
1.38612
2.81142
2.49697
1.22547
1.41695
2.28655
2.97312
1.23274
1.43259
1.77342
2.45267
2.40177
1.61942
1.225
1.33555
2.22786
3.9493
3.04576
1.225
0.979365
2.39524
1.22541
1.22501
1.225
2.09184
3.42573
1.225
1.225
1.225
1.22536
1.225
1.225
1.225
2.54956
1.27068
1.225
1.225
1.225
1.22529
1.225
1.225
1.225
1.225
0.581503
0.639872
0.812271
0.6283
0.70019
0.631638
0.903286
0.684872
0.754314
0.576519
0.63329
0.584802
0.666623
0.626636
0.759066
0.693017
0.971826
0.685418
0.954677
0.661464
0.986905
0.863452
0.77944
1.23507
1.10558
1.27673
1.42417
1.28287
1.61357
1.8074
1.16885
1.35912
2.04074
2.56399
1.68355
1.66728
1.08408
1.28697
1.5803
0.963269
1.59623
1.27306
1.30407
1.11627
1.33961
1.11354
1.59196
2.0492
1.42404
1.79248
1.94279
3.0816
1.77686
2.24567
2.8254
1.85824
1.97676
3.42051
3.76129
2.32391
2.45145
1.31228
1.11244
1.57737
1.76705
1.74925
2.21781
2.29036
0.868554
1.26337
1.395
0.641874
0.623138
0.652073
0.99733
0.736868
0.799967
1.16614
1.55279
1.02701
1.07719
0.73724
0.785563
0.802063
1.11575
1.26588
1.25662
1.55401
1.56897
1.71446
1.74057
1.95517
1.92484
1.80885
1.13123
1.63278
1.78289
2.1143
1.4749
2.01567
3.65509
1.81922
2.16669
3.38926
3.67647
2.24811
2.58078
3.58867
2.45709
2.64695
2.87968
1.24584
2.76629
1.38904
1.10473
1.0852
0.576087
0.591822
0.586368
0.607112
0.637961
0.602805
0.694873
0.629096
0.661924
0.638555
0.639065
0.672591
0.684267
0.710592
0.653124
0.689381
0.716997
0.654998
0.686691
0.744981
0.586696
0.601749
0.63701
0.692553
0.665012
0.29207
0.604016
0.592386
0.434845
0.570606
0.419941
0.302941
0.693964
0.766827
0.773129
0.859165
1.00018
0.873216
0.757055
0.846686
0.338873
0.627233
0.456224
0.711639
0.31842
0.677908
0.485224
0.875897
0.991554
0.886719
1.21555
1.15463
1.03265
1.26223
1.05881
1.3317
1.17892
1.25938
1.14428
1.28329
1.39158
1.14796
1.23734
1.41343
1.38392
1.43462
1.70248
1.50664
1.51817
1.33836
1.55561
1.53519
1.24752
1.20755
1.33222
1.33319
1.44031
1.37214
1.73398
1.50758
1.82654
1.70478
1.63722
1.54076
1.9186
1.02459
1.23454
1.16808
1.144
1.39202
1.23684
1.40242
1.49471
1.32638
0.473983
0.937265
0.620922
1.07357
0.432167
1.05351
0.683307
1.42719
1.56886
1.40884
1.26196
1.28853
1.18949
1.41668
1.17
1.40159
1.28121
1.20059
1.13346
1.25529
1.2139
1.27925
1.3459
1.5116
1.64167
1.41562
1.51114
1.35596
1.44846
1.72794
1.42098
1.55117
1.55942
1.57083
1.55833
1.70478
1.89804
1.88186
1.67861
1.96657
1.72726
2.05938
1.8444
1.88584
1.67442
1.84992
1.96059
1.69451
1.83866
2.06341
2.07287
2.12818
2.43398
2.12076
2.24242
1.99518
2.26914
2.24936
2.00877
1.86126
2.03252
2.09125
2.18636
2.02058
2.40818
2.19183
2.54063
2.39539
2.35929
2.18576
2.63567
1.19552
1.42381
1.28304
1.25405
1.20395
1.50901
1.41065
1.34943
1.67065
1.95751
1.84788
1.67529
1.91996
1.84079
2.10797
2.07717
1.99059
2.11536
2.34105
2.1093
0.745993
0.771936
0.581722
0.96176
0.518794
0.855379
0.83225
1.24386
0.287821
0.551116
0.410447
0.593684
0.560114
0.41395
0.285679
0.364386
0.778979
0.833257
0.56711
0.746218
0.52195
0.395522
0.579415
0.53228
0.786348
0.554109
0.64626
0.56323
0.88907
1.63928
0.895718
1.06961
1.02927
1.80643
0.921877
1.09956
1.96607
1.00836
1.42065
1.73088
2.59767
1.17918
1.70262
1.26905
1.13567
1.14538
1.40348
1.27234
1.45156
2.51034
1.4104
1.90758
2.36633
3.27345
2.1495
2.93828
2.81527
1.40113
1.82376
2.70227
3.36723
1.5324
2.43335
2.26063
1.38517
2.15361
2.35606
3.22131
1.93339
3.50085
3.71141
2.47269
3.39195
3.38514
3.08713
4.06384
4.20785
3.37485
1.96369
2.70209
3.58206
1.38954
2.58634
1.79962
0.745849
0.766022
0.811288
0.801582
0.828183
0.838145
0.885502
0.907701
1.0764
1.05906
0.936698
0.935215
1.14994
1.00024
0.90094
0.855387
0.993814
1.21621
1.68127
1.01351
1.61397
1.23662
2.68765
1.2898
1.22749
1.22501
1.26765
1.22502
1.85586
2.18492
1.32264
1.225
1.225
0.144757
0.19396
0.291115
0.388931
0.421314
0.381597
1.1672
0.339509
0.509414
0.34137
0.522641
0.53448
0.845594
0.598167
0.889544
0.623789
0.992583
0.888483
1.49145
0.807533
1.00612
2.19525
2.13433
1.19933
2.25331
2.52759
1.22504
1.225
1.225
1.225
1.225
1.28122
1.225
1.225
1.225
1.225
1.225
1.225
1.225
1.225
1.225
1.225
1.225
1.225
1.225
1.225
1.225
1.225
1.225
1.225
1.225
1.225
1.225
1.225
0.315094
0.370555
0.295925
0.334092
0.433352
0.551717
0.41944
0.462205
0.573389
0.482093
0.372145
0.435058
0.483738
0.474236
0.484337
0.468838
0.726857
0.72098
0.687565
0.533265
0.862716
1.06177
0.7797
0.485709
0.721248
0.778857
0.932556
0.824086
0.855868
1.04315
1.18184
0.889715
0.824726
1.1888
0.474105
0.430511
0.484064
0.397085
0.459923
0.587316
0.601566
0.655447
0.703762
0.803712
0.95772
1.01061
1.09122
1.08584
1.15502
1.31581
0.330178
0.365469
0.32618
0.378871
0.373762
0.334284
0.322049
0.308434
0.346801
0.31212
0.342714
0.348147
0.397139
0.428472
0.388313
0.391997
0.352442
0.383916
0.474405
0.413044
0.472323
0.428245
0.421838
0.481879
0.464881
0.529809
0.527449
0.537591
0.519629
0.492277
0.446134
0.476696
0.534444
0.440004
0.499119
0.528923
0.54693
0.587882
0.553806
0.58287
0.327536
0.380792
0.335759
0.348408
0.313538
0.398972
0.389918
0.354031
0.52757
0.538049
0.448154
0.535643
0.500991
0.587092
0.554033
0.45303
0.395427
0.390941
0.458024
0.499474
0.480175
0.438612
0.551119
0.434277
0.547964
0.503758
0.523883
0.610432
0.528561
0.605668
0.574477
0.629298
0.719958
0.6647
0.627291
0.57802
0.661433
0.654043
0.529135
0.586353
0.600998
0.582301
0.598919
0.655233
0.71211
0.640746
0.637581
0.711783
0.741898
0.68294
0.78173
0.84209
0.682508
0.740119
0.848808
0.804707
0.905573
0.799149
0.920399
0.44004
0.55225
0.505279
0.612172
0.530169
0.630024
0.665881
0.579228
0.639753
0.70992
0.682912
0.840459
0.739489
0.900361
0.796064
0.790248
0.701222
0.695246
0.799362
0.859833
0.823114
0.76159
0.937211
0.757237
0.934828
0.866936
0.885986
0.996334
0.899876
0.978212
0.965289
1.05776
1.17061
1.08619
1.05149
0.976673
1.07001
1.1116
0.894291
0.960462
1.01202
0.973514
1.01772
1.09297
0.763417
0.939068
0.870615
1.00243
0.906298
1.06172
1.09411
0.983313
1.13614
1.08248
1.06239
1.15619
0.263748
0.257106
0.292751
0.23217
0.385063
0.287464
0.324832
0.387826
0.370988
0.481938
0.419544
0.517119
0.453979
0.513357
0.467233
0.339589
0.473096
0.475809
0.725925
0.472038
0.732556
0.633104
0.520772
0.78576
0.803448
1.09588
0.895692
0.925863
0.79819
0.615046
0.926414
0.708133
1.01011
0.747744
1.02124
1.0202
1.19031
0.959085
1.22193
1.11704
1.50704
1.09731
1.41263
0.769236
2.05526
2.60791
1.2351
1.23052
1.22501
1.225
1.225
1.225
0.919395
0.625007
0.723847
0.735099
0.86937
0.671013
0.521502
0.552248
0.545254
0.376142
0.399543
0.508627
0.783478
0.588034
0.628898
0.587716
0.457684
0.426794
0.636231
1.08582
1.0727
1.07371
0.688946
1.01643
0.609229
0.619465
0.418689
0.672119
0.689399
0.464669
0.76518
0.277199
0.252408
0.355965
0.644878
0.985181
0.251462
0.308176
0.309763
0.354179
0.557314
0.5593
0.642114
0.910728
0.91564
0.906344
0.889025
1.00112
0.987478
0.983037
0.890453
0.984756
0.287672
0.260457
0.295722
0.415532
0.73761
1.03964
1.03752
0.939867
1.32487
0.291182
0.248511
0.286509
0.259428
0.256507
0.294555
0.283087
0.275767
0.304364
0.272491
0.277011
0.349756
0.413434
0.408278
0.480136
0.551993
0.475031
0.481975
0.635713
0.733104
0.723856
0.825157
0.893613
0.811615
0.831219
0.826369
0.873612
0.799176
0.936315
0.787365
0.921061
0.836942
0.8558
0.968182
1.00662
0.876037
0.958429
0.860683
0.895963
0.964583
1.04243
1.02369
0.800288
0.932901
0.833826
0.95491
0.872317
0.84834
0.204927
0.220774
0.228546
0.272375
0.221609
0.2739
0.301842
0.315059
0.420578
0.505668
0.316893
0.507736
0.56633
0.584624
0.780755
0.828412
0.587245
0.832441
0.198676
0.218005
0.194012
0.228529
0.225786
0.201367
0.19126
0.211012
0.243099
0.268851
0.239435
0.240062
0.213886
0.236216
0.194853
0.229486
0.202294
0.244217
0.240833
0.214919
0.325022
0.310865
0.278257
0.370464
0.274369
0.365498
0.329705
0.384122
0.433332
0.500383
0.456487
0.428269
0.388985
0.451419
0.28005
0.372629
0.331822
0.435264
0.458559
0.390961
0.599451
0.57859
0.529675
0.66862
0.524137
0.660339
0.606621
0.672592
0.752812
0.813696
0.748438
0.740936
0.682572
0.736528
0.532139
0.672642
0.610116
0.758155
0.751662
0.686927
0.836583
0.509139
0.379561
0.623674
0.346306
0.567067
0.555411
0.30577
0.597814
0.433124
0.338816
0.472197
0.705254
0.459936
0.556144
0.654585
0.495289
0.579981
0.678066
0.767505
0.956212
0.360766
0.326027
0.388818
0.332212
0.390692
0.359049
0.425284
0.399797
0.476989
0.436626
0.469277
0.432822
0.475458
0.517524
0.204194
0.176822
0.188253
0.235676
0.206061
0.218179
0.225307
0.30279
0.171362
0.375334
0.482408
0.336432
0.256936
0.401379
0.213038
0.220753
0.212863
0.193633
0.177923
0.18584
0.186028
0.408928
0.379267
0.454087
0.33532
0.403425
0.372872
0.445087
0.530024
0.581054
0.521022
0.509002
0.460156
0.50455
0.555054
0.464696
0.514167
0.550761
0.504218
0.556435
0.538873
0.595013
0.221234
0.274489
0.27942
0.266371
0.311733
0.254204
0.31757
0.265693
0.224055
0.232643
0.210027
0.219291
0.251733
0.242508
0.235181
0.258855
0.264095
0.206228
0.226274
0.199513
0.231663
0.629403
0.63272
0.684002
0.55243
0.595886
0.600046
0.645268
0.339268
0.409476
0.407163
0.455021
0.381518
0.381985
0.456262
1.5513
0.944769
1.0586
0.600171
1.04972
0.763545
1.13167
0.475074
0.541039
0.544737
0.527856
0.596188
0.527299
0.60219
0.268266
0.235287
0.289834
0.277577
0.248282
0.301193
0.257501
0.25244
0.242758
0.289338
0.284382
0.327686
0.277549
0.322799
0.524615
0.617566
0.585062
0.614787
0.573589
0.631499
0.668252
0.268646
0.276926
0.285353
0.235163
0.243384
0.251263
0.243192
0.163373
0.183173
0.20272
0.150668
0.169934
0.212591
0.192742
0.356926
0.464395
0.423865
0.421311
0.390797
0.463981
0.505837
0.409892
0.550225
0.702117
0.611389
1.09214
0.78244
0.498705
0.608956
0.653087
0.669716
0.733343
0.655563
0.669796
0.712494
0.305952
0.357314
0.36035
0.315538
0.319659
0.264845
0.26949
0.53568
0.521331
0.475886
0.520626
0.632131
0.574639
0.567682
0.301293
0.330735
0.3394
0.286026
0.312268
0.321804
0.276784
0.301351
0.318614
0.348886
0.39524
0.287
0.336284
0.356413
0.423218
0.491494
0.495041
0.441695
0.37491
0.445873
0.378701
0.722707
0.78301
0.735011
0.674885
0.63729
0.688608
0.729294
0.302919
0.260716
0.267403
0.29434
0.299438
0.332541
0.337615
0.339105
0.403993
0.401908
0.382152
0.449156
0.451974
0.381974
0.419921
0.550368
0.501353
0.445872
0.409869
0.488769
0.534599
0.277421
0.273872
0.294596
0.220682
0.239552
0.254543
0.235487
1.36859
1.03145
0.779575
1.26512
0.857406
1.0901
1.37724
0.469653
0.544632
0.544118
0.601706
0.521692
0.524932
0.602819
0.65144
0.572244
0.641863
0.582954
0.512258
0.591419
0.517982
0.632071
0.638842
0.574052
0.553951
0.672643
0.60957
0.608767
0.564522
0.684546
0.610763
0.710772
0.607664
0.653831
0.737483
1.35405
1.52968
1.31625
0.78425
1.3406
0.953319
1.82934
0.215925
0.345722
0.257561
0.318359
0.223578
0.268229
0.362644
0.366696
0.317575
0.322043
0.305513
0.332325
0.33392
0.354411
0.410252
0.364354
0.368054
0.313935
0.403386
0.351414
0.362625
0.504988
0.424349
0.470633
0.556452
0.425941
0.505339
0.557088
0.619371
0.682567
0.693679
0.681927
0.761129
0.749073
0.677668
0.729818
0.7604
0.788914
0.796808
0.826295
0.770227
0.860509
0.828595
0.694136
0.748902
0.727714
0.657067
0.705685
0.783001
0.6546
0.669416
0.706418
0.674954
0.715609
0.766068
0.786961
0.3054
0.313722
0.323316
0.345496
0.35707
0.353944
0.365438
0.58411
0.642302
0.657321
0.734841
0.582686
0.644232
0.665243
0.322548
0.428966
0.344634
0.377615
0.292629
0.308862
0.399853
0.344892
0.401418
0.403456
0.449037
0.383352
0.386337
0.447937
0.797957
0.728316
0.714347
0.709978
0.723655
0.649893
0.661648
0.809832
0.830279
0.888677
0.712075
0.758777
0.77376
0.833941
0.446417
0.53892
0.52278
0.195699
0.422241
0.513562
0.362883
0.708103
0.771271
0.65258
0.695863
0.85574
0.791818
0.742643
0.404475
0.348429
0.452353
0.433496
0.37654
0.370605
0.471146
0.866203
0.895589
0.807377
0.721239
0.81829
0.738892
0.782057
0.158304
0.193276
0.178634
0.222474
0.213081
0.234917
0.201805
0.341871
0.416475
0.375328
0.373228
0.42255
0.384574
0.378556
0.414044
0.379916
0.423351
0.397091
0.348776
0.358707
0.38677
0.517927
0.451358
0.552659
0.446335
0.482802
0.58631
0.60713
0.470538
0.544503
0.547237
0.520595
0.601001
0.520043
0.602266
0.426734
0.551391
0.498952
0.502251
0.47219
0.426434
0.554888
0.833794
0.812079
0.765074
0.913592
0.837862
0.818436
0.888442
0.891526
0.858021
0.804184
0.752945
0.898347
0.838575
0.799961
0.855624
0.895564
0.843399
0.985596
0.879723
0.921844
0.939673
0.318014
0.297168
0.314762
0.269024
0.26436
0.285005
0.2494
0.616643
0.718123
0.641192
0.832962
0.717263
0.723743
0.828485
0.536286
0.600922
0.652874
0.480624
0.582777
0.514556
0.633699
0.714393
0.629499
0.704116
0.780928
0.685249
0.689845
0.77098
0.405817
0.499759
0.449716
0.428738
0.444648
0.389575
0.486603
0.636683
0.664142
0.577239
0.581272
0.735934
0.641444
0.666351
0.889631
0.838562
0.856674
0.804413
0.760736
0.774436
0.816275
0.34121
0.255005
0.235115
0.279353
0.40481
0.294132
0.381012
0.371965
0.437014
0.423443
0.400414
0.34395
0.359098
0.387647
0.936676
1.0546
0.972748
0.875989
0.906932
0.844527
0.946529
1.10669
0.908487
0.93255
0.775372
0.786162
0.900479
0.894513
0.462371
0.436143
0.402892
0.397633
0.445304
0.411674
0.452952
0.665736
0.550613
0.515337
0.609036
0.559781
0.662717
0.610777
0.496907
0.427695
0.476457
0.548272
0.430161
0.497013
0.546925
0.915706
0.829667
0.751437
0.837722
0.825682
0.827629
0.748067
1.39627
0.945261
1.36389
0.967863
0.974179
1.3977
1.85129
0.387825
0.455339
0.365617
0.32428
0.444224
0.341248
0.421256
0.871669
0.695782
0.765327
0.750404
0.672799
0.744764
0.845898
0.787906
0.85528
0.857438
0.940322
0.925678
1.04485
1.02309
1.31679
1.47736
2.17646
1.79279
2.34046
2.32581
1.31086
1.71556
2.31733
1.72659
1.74928
1.61035
1.33184
2.28151
0.922516
0.854183
1.03476
0.769303
0.850672
0.902457
1.00865
0.787374
0.943358
0.80763
1.08734
0.901446
0.903239
1.06936
0.876179
0.797961
0.782229
0.960079
0.937519
0.871914
0.855387
0.929675
0.8985
0.872724
0.988081
1.06199
1.02635
0.957252
1.07341
0.951655
0.917699
0.871749
0.967008
0.823547
0.919928
0.481865
0.419631
0.511285
0.469865
0.467559
0.431113
0.521269
0.432778
0.474994
0.548257
0.438609
0.484298
0.403942
0.508765
1.03159
0.916053
0.99167
0.975903
0.857022
0.937397
1.08537
0.967761
0.930012
1.0616
0.818854
0.887237
0.938582
1.03102
1.47049
0.872759
0.883736
1.21609
0.685319
0.654169
1.22257
0.573112
0.631535
0.661412
0.72217
0.574234
0.628055
0.660409
0.470068
0.520737
0.509729
0.459855
0.469731
0.437552
0.426689
0.570243
0.605828
0.662568
0.665103
0.518656
0.565808
0.609216
0.890453
0.897332
0.777524
0.706574
0.811962
0.775582
0.708765
1.11807
1.00604
1.0903
1.00107
0.921623
0.901097
0.978716
0.493641
0.562313
0.518642
0.749197
0.665434
0.671172
0.742768
0.219551
0.231363
0.254615
0.238174
0.263871
0.288392
0.26391
2.16262
1.84427
1.27863
1.81611
1.3277
2.14934
1.80488
0.995776
0.917369
1.03588
0.957291
1.06496
1.01845
1.16392
0.935973
1.02032
0.931638
1.27588
1.15256
1.1287
1.25294
0.775524
0.861622
0.854682
0.901356
0.898156
0.998346
0.998161
1.63503
1.61801
1.41633
1.37043
1.58401
2.4503
2.01031
1.09006
1.24622
1.14219
1.09847
0.970458
1.01792
1.04742
0.995153
0.949633
0.937861
0.892056
0.844732
0.89418
0.851844
0.762447
0.573313
0.706286
0.586153
0.548873
0.688528
0.749454
0.342978
0.376568
0.397844
0.283763
0.305868
0.336395
0.313444
0.99727
1.01504
0.970223
1.09939
1.12949
1.0018
0.909852
0.98469
0.92295
0.945212
1.04226
1.11847
1.01626
1.09268
0.540881
0.57386
0.563169
0.516385
0.486423
0.496242
0.506268
0.929667
0.827077
0.852551
0.752121
0.824501
0.754063
0.845061
0.546713
0.575958
0.600046
0.547758
0.496103
0.469354
0.529673
1.00633
1.16203
1.27856
1.0417
0.959373
1.13099
1.24917
0.288423
0.439374
0.317807
0.483131
0.339368
0.357334
0.489978
0.655026
0.574009
0.525317
0.601574
0.578098
0.658229
0.599043
0.774262
0.781972
0.651125
0.722416
0.591309
0.604426
0.717507
1.5535
1.27071
1.32521
1.31258
1.07378
1.04628
1.26497
1.08994
1.16705
0.958889