/*--------------------------------*- C++ -*----------------------------------*\
  =========                 |
  \\      /  F ield         | OpenFOAM: The Open Source CFD Toolbox
   \\    /   O peration     | Website:  https://openfoam.org
    \\  /    A nd           | Version:  9
     \\/     M anipulation  |
\*---------------------------------------------------------------------------*/
FoamFile
{
    format      ascii;
    class       volScalarField;
    location    "0.0032";
    object      impulseMax;
}
// * * * * * * * * * * * * * * * * * * * * * * * * * * * * * * * * * * * * * //

dimensions      [1 -1 -1 0 0 0 0];

internalField   nonuniform List<scalar> 
27819
(
1516.65
3314.95
327.86
1473.84
350.729
1086.03
1957.47
524.693
970.623
1786.06
805.818
329.365
652.697
1132.74
650.298
3682.36
2779.25
3119.53
1670.16
1293.96
1467.49
1199.84
1037.8
1137.64
1189.11
1665.39
2111.98
1500.2
1096.24
1650.87
1760.62
882.818
1205.98
623.83
1095.17
797.218
1345.87
699.985
2248.39
2019.78
2531.57
544.623
530.503
916.546
713.621
596.321
485.883
811.165
521.627
667.939
474.862
724.623
469.201
753.153
522.498
1193.99
1262.82
1345.19
559.811
495.297
710.141
650.07
538.085
522.587
698.837
325.432
368.346
384.423
303.641
301.971
404.17
423.19
378.754
410.676
341.729
422.157
315.069
576.286
466.644
338.736
318.073
372.797
364.887
307.499
397.191
402.665
806.845
1521.39
661.361
1546.44
693.062
858.311
1563.04
331.32
389.584
441.725
350.381
417.282
368.269
416.316
194.355
0.00272804
0.000590053
1.24442e-05
1.24185e-06
0.0472894
7.20099e-05
5.23663e-06
0.232408
121.869
27.1458
107.492
81.3663
4.04694
0.872174
28.6901
3.92364
0.478812
0.667195
27.0139
5.96511
9.69393
122.808
84.8797
119.569
117.946
100.629
224.047
99.5727
122.593
74.3969
76.5355
105.614
78.7128
80.2349
105.201
5.0121
0.981824
1.21844
4.35304
1.33842
4.11945
5.52509
11.712
13.7724
18.459
30.3017
10.641
15.6761
18.4851
122.345
78.5845
80.4432
105.543
82.1369
81.4357
104.832
3.84501
35.3548
45.6901
32.8981
69.5747
58.8967
72.7955
87.8408
134.767
115.285
127.568
138.125
127.232
70.0491
53.2393
62.9664
85.8949
54.7202
63.0364
71.9469
199.032
161.365
180.368
142.446
218.207
203.742
213.073
91.8082
131.58
0.0464366
9.69502e-05
0.00138416
0.497764
13.8489
9.40266
0.0751944
5.58272e-05
7.57113e-05
0.000914048
0.00457242
0.000626572
0.00504501
8.19793e-06
4.45221e-06
1.36319e-05
8.0116e-06
1.50532e-06
2.4731e-05
1.72556e-06
2.8125e-07
7.32036e-07
3.72699e-07
7.95413e-08
2.67507e-06
1.66553e-07
1.81967e-08
3.54484e-08
1.71788e-08
3.7076e-09
1.80469e-07
1.28962e-08
1.13753e-09
1.52203e-09
7.28669e-10
1.52764e-10
1.07413e-08
8.22439e-10
6.56802e-11
5.51183e-11
2.61015e-11
5.31921e-12
91.9684
53.0354
0.0115496
4.54031e-05
0.00078068
0.312969
9.89996
4.56285
0.0309459
1.78052e-05
3.95814e-05
0.000573686
0.0020595
0.000151115
0.00127878
3.29814e-06
2.07105e-06
7.39354e-06
3.60116e-06
6.95195e-07
1.02926e-05
6.69189e-07
1.30784e-07
3.9381e-07
1.80193e-07
3.82648e-08
9.76996e-07
6.90773e-08
8.25583e-09
1.83135e-08
8.41552e-09
1.77581e-09
7.37847e-08
5.54897e-09
5.06028e-10
7.45814e-10
3.48244e-10
7.18167e-11
4.59566e-09
3.59138e-10
2.89139e-11
2.57782e-11
1.20501e-11
2.44242e-12
98.7824
13.6736
8.99633e-05
0.000215533
0.083701
2.79861
0.344873
0.00173558
1.22404e-05
1.05233e-05
0.00017411
0.000224078
1.75396e-05
5.72017e-05
1.76554e-06
5.74525e-07
2.57145e-06
1.04482e-06
2.6413e-07
3.15112e-06
2.23464e-07
3.51904e-08
1.22132e-07
5.22552e-08
1.16681e-08
2.69006e-07
1.95291e-08
2.07474e-09
4.86689e-09
2.19955e-09
4.59129e-10
1.88857e-08
1.4349e-09
1.22271e-10
1.70794e-10
7.99795e-11
1.65121e-11
1.11889e-09
8.81199e-11
6.87093e-12
5.2319e-12
2.42471e-12
5.0289e-13
63.7618
0.0716344
0.0318362
0.000924286
0.00659784
0.147521
0.0027541
0.00232329
0.000284889
1.86697e-05
1.73514e-05
1.78863e-05
9.2704e-07
4.01282e-05
6.29536e-06
1.04079e-06
6.18896e-07
2.32279e-07
4.16805e-08
2.67671e-06
3.94792e-07
4.88846e-08
2.08224e-08
8.27054e-09
1.62983e-09
1.57865e-07
2.27418e-08
2.36731e-09
6.94058e-10
2.65422e-10
5.72109e-11
9.09378e-09
1.205e-09
1.13792e-10
2.33288e-11
8.0825e-12
1.83572e-12
4.63121e-10
5.6402e-11
4.96766e-12
7.2226e-13
2.08577e-13
3.7835e-14
107.979
78.4724
28.2799
0.248013
9.57047e-05
62.6103
16.1631
0.748036
0.00832688
0.000653616
2.79979e-06
0.812211
0.0115667
0.000133982
3.55648e-06
3.95647e-07
8.37342e-08
0.000147687
1.10416e-05
1.58779e-06
1.54361e-07
1.66561e-08
3.26092e-09
3.02545e-06
5.81337e-07
8.2182e-08
6.87773e-09
6.83154e-10
1.23148e-10
1.75708e-07
3.04871e-08
3.83615e-09
3.03877e-10
2.73816e-11
4.37709e-12
9.12636e-09
1.50618e-09
1.70083e-10
1.31202e-11
1.05416e-12
1.28542e-13
4.17926e-10
6.55843e-11
6.84692e-12
4.89793e-13
2.26767e-14
0
146.964
54.8319
1.73193
0.00228299
6.60552e-05
1.74022e-06
0.0998587
17.3799
0.136196
0.000136182
1.26104e-06
1.11489e-07
0.0105958
0.00425775
2.13315e-05
7.68827e-07
6.18706e-08
5.52786e-09
5.61684e-05
2.80771e-06
4.80135e-07
4.06148e-08
2.98208e-09
2.56065e-10
1.14028e-06
1.75603e-07
2.50314e-08
2.0131e-09
1.39901e-10
1.11161e-11
6.08526e-08
9.97841e-09
1.24724e-09
9.69395e-11
6.39569e-12
4.41529e-13
3.08057e-09
5.16024e-10
5.91215e-11
4.4769e-12
2.57569e-13
5.57823e-15
1.40946e-10
2.30968e-11
2.47104e-12
1.53765e-13
1.21266e-16
0
0.086101
0.0520077
0.000226254
7.78128e-06
8.27669e-07
6.5675e-08
0.0136839
0.0518002
5.79334e-05
1.08882e-06
7.60476e-08
5.34439e-09
6.33592e-05
1.4068e-05
9.7127e-07
7.27422e-08
4.90787e-09
3.33701e-10
2.55049e-06
4.59542e-07
5.34577e-08
4.23831e-09
2.83288e-10
1.83753e-11
1.54183e-07
2.51275e-08
2.89714e-09
2.31318e-10
1.52236e-11
9.18105e-13
8.46006e-09
1.35146e-09
1.50249e-10
1.18831e-11
7.34993e-13
2.72848e-14
4.34208e-10
6.8236e-11
7.29548e-12
5.41089e-13
1.75836e-14
0
1.98856e-11
3.01358e-12
2.7588e-13
7.03343e-15
0
0
0.000148117
4.13306e-05
4.35204e-06
4.53074e-07
3.75798e-08
2.65876e-09
2.97449e-05
1.0332e-05
7.45312e-07
5.69775e-08
3.97429e-09
2.55619e-10
2.85571e-06
5.0265e-07
5.50292e-08
4.40768e-09
3.00732e-10
1.85742e-11
2.02869e-07
3.22576e-08
3.60631e-09
2.92529e-10
1.96672e-11
1.12765e-12
1.278e-08
1.97526e-09
2.16423e-10
1.74305e-11
1.12874e-12
4.57173e-14
7.30131e-10
1.11178e-10
1.18729e-11
9.19317e-13
4.05028e-14
0
3.86689e-11
5.73042e-12
5.66191e-13
2.71636e-14
0
0
1.75593e-12
2.20098e-13
7.88229e-15
0
0
0
5.68384e-06
1.50463e-06
2.29341e-07
2.08374e-08
1.68671e-09
1.13747e-10
1.36456e-06
2.73013e-07
3.20879e-08
2.69348e-09
1.92994e-10
1.19885e-11
1.52999e-07
2.49928e-08
2.81399e-09
2.34072e-10
1.6267e-11
9.35809e-13
1.2055e-08
1.86887e-09
2.05536e-10
1.69238e-11
1.1165e-12
4.57173e-14
8.09522e-10
1.22274e-10
1.31313e-11
1.04046e-12
4.81426e-14
0
4.85566e-11
7.14596e-12
7.19228e-13
3.55309e-14
0
0
2.60504e-12
3.32633e-13
1.75836e-14
0
0
0
8.88879e-14
1.69772e-15
0
0
0
0
3.92282e-07
6.65878e-08
9.06061e-09
8.81655e-10
7.1389e-11
4.73471e-12
6.30226e-08
1.11138e-08
1.32403e-09
1.16435e-10
8.56526e-12
5.04103e-13
7.13213e-09
1.13348e-09
1.27792e-10
1.08607e-11
7.44816e-13
2.42532e-14
5.97132e-10
9.11349e-11
9.94369e-12
7.96111e-13
3.45608e-14
0
4.22545e-11
6.21488e-12
6.29249e-13
3.11654e-14
0
0
2.57642e-12
3.32633e-13
1.75836e-14
0
0
0
1.08776e-13
3.39545e-15
0
0
0
0
0
0
0
0
0
0
0.0348519
0.00018522
0.019734
0.000179208
4.43171e-05
0.000146779
3.94372e-05
0.000105538
0.000979658
0.259509
0.000722128
0.202865
45.6337
1.43322
25.0748
46.1815
1.16192
22.7231
124.562
32.166
38.1884
91.6485
123.143
29.1128
32.6918
0.000783242
0.0753844
0.000847543
0.0357405
0.000652872
0.0630096
0.000695302
0.000106694
0.000104473
3.98741e-05
7.76209e-05
9.34809e-05
8.25403e-05
3.25772e-05
0.093825
0.000224097
0.00195908
0.00103624
0.069588
0.000188981
0.00154948
10.1695
0.00425326
0.0357343
0.378006
8.33921
0.00347882
0.0246628
0.0131928
0.000108285
5.46451e-05
2.52049e-05
8.14402e-05
1.39906e-05
2.92314e-05
0.000567652
0.171912
0.000214854
0.0767821
48.2776
1.00957
21.2155
49.811
0.496092
14.1094
125.341
27.1464
29.1362
105.723
110.097
17.9754
14.3496
0.000431816
0.0324536
0.00049025
0.0002316
0.00559001
0.000240579
5.81513e-05
4.57862e-05
1.96496e-05
2.68855e-05
3.38238e-05
2.29327e-05
1.11048e-05
0.0559958
0.000123125
0.00117852
0.000442775
0.0214606
6.89625e-05
0.000675597
7.24219
0.00313564
0.0190519
0.128161
3.27074
0.00181073
0.00631767
6.72395e-05
0.0180366
2.71892e-05
1.93426e-05
0.00892853
0.000579492
0.000129122
0.0520832
0.00021822
0.00968543
73.6074
0.347824
11.0404
66.6569
0.0731892
2.73489
101.799
14.0402
9.0968
85.7279
61.6961
3.3199
0.62616
0.000320542
0.00238583
0.000159731
0.00583951
0.00453939
0.000790465
3.33039e-05
2.85167e-05
9.01436e-06
0.00247112
0.000306849
0.000247589
5.96133e-05
0.0127525
3.23497e-05
0.000325422
0.00015614
0.00199945
2.62164e-05
0.000139763
2.11775
0.00126867
0.00375326
0.0148733
0.326571
0.000780143
0.00102516
0.136335
17.1918
0.0714243
0.00554017
13.3562
3.15646
0.0018791
0.00473275
1.39769
0.0624675
52.9723
0.0354981
1.268
21.664
0.0250235
0.0607469
43.213
1.43557
0.170813
32.445
2.00524
0.0453173
0.00151471
0.271653
0.0399862
0.0582949
13.8289
0.934707
1.39129
0.00241385
0.00172382
0.000599688
6.58957
0.674341
0.0374495
0.00217441
0.000589586
0.00013712
5.22812e-05
0.231573
0.00826872
0.000806847
0.000192005
0.143229
0.000263741
0.000497606
0.00295195
0.00589032
0.000108161
0.000150392
95.9214
31.9401
10.7967
119.476
100.582
46.6879
11.2559
54.027
5.30588
0.241676
74.1055
40.7405
4.0754
0.0623037
6.44741
0.0869796
0.0183152
12.2599
0.26227
0.0152701
0.000458347
250.504
142.726
93.5696
218.195
18.0232
315.283
265.709
2.45948
0.0127082
242.069
76.2827
7.34286
0.0142788
0.0117497
1.21252e-05
153.805
89.3725
0.00720755
0.000435347
5.51153e-06
2.83206e-07
16.9641
0.247292
1.54426e-05
1.94828e-06
1.75925e-07
1.33561e-08
0.000804874
1.47118e-05
7.95909e-07
9.37733e-08
8.65904e-09
6.32529e-10
1.04555e-06
2.70108e-07
3.78332e-08
4.22413e-09
3.9047e-10
2.85697e-11
32.5127
33.0862
240.91
155.926
200.646
239.56
185.397
199.684
36.2366
39.9119
257.034
157.196
196.986
240.84
155.938
186.353
90.1535
299.453
87.2184
232.498
151.376
172.327
271.371
193.046
147.148
162.248
281.428
79.5243
207.34
52.1383
173.359
101.324
80.7939
177.253
86.5041
68.674
13.2755
130.248
177.319
124.415
115.287
249.873
223.477
168.444
127.827
281.807
102.283
84.3457
212.365
187.774
105.12
74.1356
173.597
60.9008
28.6289
159.935
54.6669
37.7087
2.68357
133.759
116.232
57.9427
90.44
102.476
79.9659
77.3519
82.1053
74.8422
69.997
88.723
66.9395
62.1126
53.621
38.0659
43.6744
32.408
50.838
18.1962
22.9727
15.7426
3.32666
6.52974
3.24699
7.67296
0.00328815
0.0309738
0.0044774
0.0320263
0.0282749
0.00416748
0.0035599
0.000454823
8.97055e-05
0.000692798
0.000180183
8.59358e-05
0.000653352
0.00048726
0.00274941
0.0264697
0.016853
0.0027553
0.02308
0.00354008
0.00208182
0.000385082
0.000194352
7.00031e-05
0.000448655
8.28381e-05
0.000546306
0.000302511
9.66974e-06
1.94211e-05
2.15741e-05
4.37142e-05
1.89656e-05
2.08388e-05
1.00602e-05
2.52866e-05
0.000179995
3.30683e-05
0.000139861
0.000170967
3.19921e-05
2.65582e-05
9.01518e-06
4.19641e-05
1.62431e-05
1.6635e-05
1.84816e-05
1.92571e-05
7.56943e-06
2.22336e-05
0.00012406
0.00012822
2.48336e-05
0.000152239
2.76984e-05
1.87063e-05
0.00887487
0.00134573
0.00662063
0.000938201
0.00128074
0.00630215
0.00929547
0.0605712
0.377527
0.0421025
0.248864
0.363333
0.0402408
0.0632264
0.00810804
0.000838121
0.000979187
0.00484687
0.00114892
0.00566011
0.00702068
0.0557033
0.229365
0.304436
0.0319899
0.338442
0.0367731
0.0490655
45.6215
74.1377
74.1506
49.4632
62.455
62.277
49.6821
7.43365
1.94075
6.15518
1.38097
1.87913
5.9861
7.57231
74.3926
47.1916
75.0226
49.3534
61.7951
62.0595
49.2206
7.22572
1.28823
1.63952
5.28565
1.77855
5.69455
6.92251
0.000901466
0.0110538
0.00194423
0.00143313
0.00128982
0.000143787
4.66944e-05
0.000330972
6.98315e-05
0.000215238
3.03176e-05
0.000246521
8.8222e-05
5.91362e-05
1.93006e-05
0.000114012
2.22219e-05
0.000152896
6.24233e-05
3.62662e-06
1.08681e-05
1.22352e-05
1.87331e-05
5.44586e-06
7.30273e-06
8.66489e-06
1.04412e-05
0.000100323
1.77816e-05
6.24773e-05
1.41508e-05
7.48203e-05
1.44643e-05
2.58255e-06
1.34062e-05
5.70369e-06
6.83616e-06
5.38886e-06
5.8507e-06
2.6279e-06
6.91967e-06
4.24051e-05
3.37965e-05
7.63282e-06
5.14697e-05
9.45891e-06
4.93017e-06
0.00447207
0.000787071
0.00397206
0.000442768
0.00573643
0.00059859
0.00306212
0.0331098
0.263451
0.0264585
0.138778
0.0413019
0.218555
0.0208032
0.00328553
0.000308074
0.000285565
0.00150935
0.000425268
0.00221498
0.00227569
0.0251619
0.106345
0.129054
0.0108366
0.172506
0.0154639
0.0180308
75.6083
49.2274
75.9865
48.1236
61.2655
48.877
60.287
5.98963
1.46769
4.76422
0.83963
6.51495
1.2684
4.13788
75.9103
75.1997
49.966
46.7088
55.9993
58.5978
44.4457
5.33952
0.663811
0.82909
2.68732
1.05095
3.43
4.5762
0.000725199
4.75017e-05
0.000144763
0.000302576
0.000112688
0.000355142
0.00061844
0.00585171
0.0023209
0.0243909
0.0338953
0.00304796
0.00445647
0.0438098
6.46053e-05
1.88271e-05
1.26949e-05
0.000129821
7.73656e-06
0.000155472
5.86026e-05
2.57104e-05
2.14936e-05
6.80027e-06
2.03435e-05
5.16919e-06
2.08095e-05
2.38503e-05
0.000625842
0.00106455
0.0123238
0.0039401
0.00143637
0.000498611
0.00576208
0.000241012
8.51959e-05
0.000886808
0.00160965
9.58955e-05
0.000185111
0.00237228
0.0008709
0.000175825
0.000958224
8.18896e-05
0.00146512
0.000104203
0.000558115
0.00748879
0.0904997
0.00708662
0.0325472
0.0120893
0.0590739
0.00428373
0.000480198
6.73316e-05
0.000341032
0.000211168
8.35791e-05
0.000303417
0.000336142
0.00423313
0.0188758
0.0188917
0.00120078
0.0350921
0.0023653
0.0021871
70.8583
49.5811
48.4533
37.1188
52.3407
41.2487
47.526
2.84207
0.617108
1.97021
0.226552
3.72897
0.42869
1.33615
60.7488
46.3116
42.8941
32.0971
34.3509
41.4938
26.3333
1.98108
0.13515
0.157248
0.464153
0.273436
0.828015
1.23845
1.68231
0.176669
0.238536
0.916207
0.295233
1.0971
1.4868
6.49005
5.04167
14.6737
20.7516
4.96318
7.1414
16.2136
0.380599
0.0984397
0.0340488
0.523316
0.0503518
0.668397
0.271918
0.196049
0.00937228
0.0144543
0.0517642
0.0230771
0.0895347
0.126272
2.33428
3.26096
12.7203
9.47817
3.53057
1.90575
10.4143
1.41576
0.444528
5.37254
5.93571
0.757864
0.985154
7.90216
0.0125439
0.00336618
0.000715805
0.019061
0.00128355
0.0354815
0.00627749
0.00479621
0.00911299
0.000754873
0.00257649
0.00135574
0.00533458
0.00235804
0.137729
0.175561
3.09016
0.527453
0.348476
0.0618825
1.4421
0.0485461
0.00782771
0.198234
0.181311
0.0192153
0.0205025
0.558689
43.3717
31.6037
37.9879
13.9071
26.4465
20.1187
18.3103
0.325056
0.0802412
0.233842
0.015548
0.681935
0.0365803
0.104517
32.4042
17.0202
24.1057
8.34635
5.11629
10.7933
4.28963
0.138289
0.00791359
0.0809594
0.0224996
0.0200177
0.0425757
0.0743728
88.073
73.6644
68.7082
73.5898
54.252
63.1818
62.989
40.6695
43.5316
32.7891
25.8086
12.6892
21.6288
15.3176
171.218
121.234
118.188
269.05
174.73
150.957
304.911
106.333
246.81
102.722
236.667
156.883
121.97
244.819
93.1317
199.924
91.4479
182.701
129.406
32.4537
84.2892
84.5533
40.6033
101.38
101.36
40.8057
85.0706
34.4637
86.3807
40.8431
102.9
101.546
41.7073
87.8156
38.129
89.1136
44.0218
104.568
42.8286
106.216
90.04
90.4405
41.5227
45.2052
108.38
107.555
46.2293
89.1384
42.9881
44.3985
47.615
108.657
47.0153
108.266
86.2069
314.799
368.911
148.067
387.747
151.104
84.7112
84.1573
45.7553
46.5836
48.1182
105.286
107.179
48.5887
72.6672
44.9082
46.4949
49.3643
102.315
49.0382
97.8378
63.2758
37.8504
41.7134
49.8903
84.5521
91.7232
52.0137
127.722
73.1437
74.2745
143.866
76.6499
76.6072
142.437
167.037
110.424
255.758
114.513
263.036
162.285
120.277
74.9098
74.8208
137.334
76.535
76.1235
140.302
109.341
73.8881
71.9471
133.514
74.0781
75.2846
128.874
144.476
294.043
96.7411
214.041
99.6321
225.762
137.42
94.0126
68.7972
64.5621
117.057
72.4949
70.2189
123.4
73.0897
59.2032
52.6378
109.858
64.0814
67.3339
101.773
48.7564
45.9528
39.8243
84.8543
61.2679
60.6622
93.0479
81.3095
347.389
143.855
260.822
83.1515
322.67
138.025
79.0706
236.264
258.926
121.917
292.963
130.232
79.3666
112.545
82.4284
81.6241
78.1792
80.3715
93.9072
97.9767
0.00187666
0.364209
133.856
0.00241257
0.00348656
0.00148408
0.09565
0.05478
0.597032
26.5629
21.0916
133.073
157.176
121.118
67.2126
83.4923
0.00809747
0.00659619
0.000530964
0.00445612
0.00189658
0.000525028
0.00359758
0.000814198
0.000321354
0.00144985
0.00124999
0.000432448
0.00244451
0.000324387
0.00275592
0.0012694
0.0105243
0.0141265
0.116636
0.0588201
0.0176593
0.00827828
0.0738911
2.40432
0.690417
0.388939
3.23976
0.464263
3.23233
2.2643
7.98341
11.644
18.0973
23.9074
9.38025
9.39476
17.352
132.01
71.8141
70.4139
144.762
76.859
76.613
145.247
103.363
82.2306
81.7665
119.079
82.4471
81.6697
101.094
0.000401365
0.054911
5.34324
0.0103391
0.000351139
0.000240594
7.64252e-05
33.6769
5.94701
16.9156
39.0963
3.99532
44.9916
0.359751
2.17945
0.101053
0.0040957
23.923
1.80971
0.11172
0.00251492
0.0253927
0.00140092
0.000388434
0.457981
0.00609173
0.000832004
0.000222342
0.00148623
0.000107709
4.05311e-05
0.00143408
0.000141639
5.00339e-05
1.12404e-05
100.607
71.1365
114.889
72.8182
133.494
88.5903
9.55049
115.552
7.33016
91.4537
39.4931
5.16003
3.07351
0.0290286
57.5065
0.0117681
22.2741
1.30003
0.0130442
0.00570004
0.000262216
2.83182
0.0275678
0.000164159
0.00280528
0.000218726
0.000148805
2.52446e-05
28.8271
42.4219
16.3072
24.6187
42.0052
15.9859
29.1233
28.4083
23.8418
40.4828
14.6495
41.3756
15.4398
27.8283
25.8255
39.2096
13.5893
19.2794
27.0019
37.4493
12.2331
24.1796
16.8958
32.0006
8.67221
35.0719
10.5765
22.0096
16.1671
28.2227
6.63894
7.90715
19.3229
23.7665
4.65439
12.6528
5.02211
13.4854
1.63685
18.7581
2.93067
9.02455
2.97004
8.42843
0.812271
0.521982
5.65364
4.31195
0.362317
1.26949
0.190145
0.596854
0.0520543
1.73562
0.142102
0.492357
56.5998
50.0888
25.0095
43.4829
43.847
64.9494
34.582
46.877
28.0678
17.7259
15.7972
36.4049
36.2571
25.085
15.2546
19.4279
2.0707
7.95907
11.5225
25.3929
3.01432
7.34142
2.19684
0.706625
0.292986
5.56287
2.7846
0.942613
13.5473
11.3383
14.3275
1.44818
2.02288
2.48918
0.648847
0.333924
0.814775
0.0368607
0.0934888
0.353766
0.940542
0.0314342
0.135098
0.197716
0.0260451
0.00505514
0.265315
0.0581016
0.0121637
0.00189335
0.536487
25.0843
119.517
49.4448
40.5066
0.178559
169.048
133.348
94.0727
179.274
228.117
178.807
182.661
163.324
19.9173
117.473
209.785
157.937
126.278
85.5945
87.3671
0.0701191
49.3023
122.718
81.0871
42.271
9.35736
15.2658
0.249921
0.000259429
59.4187
1.78491
0.633619
0.0069478
117.418
207.261
121.166
137.892
112.204
161.78
104.18
41.8976
38.5445
41.3816
77.9132
80.8807
73.4862
66.2493
76.7178
43.3708
58.4714
38.1103
54.962
51.3265
71.6468
63.2377
80.4418
47.6612
60.8257
50.9306
83.0992
62.2678
14.2198
0.0462
0.0230215
11.3899
10.5478
0.0310293
0.0134579
8.42924
0.0233486
0.00914423
4.4143
2.21438
0.0069022
0.0017815
1.06845
0.00376168
0.000921066
0.368995
0.0515381
0.000736465
0.000230444
0.0137071
0.000271309
0.000116781
0.00411557
0.000262991
8.51964e-05
2.75886e-05
5.47813e-05
1.59058e-05
3.91053e-06
3.53987e-05
6.12134e-06
2.33098e-06
4.79029e-07
0.08387
6.13515e-05
0.000277181
1.27756e-05
4.30002e-05
3.31237e-06
1.5094e-05
1.03727e-06
9.91522e-06
6.27018e-07
0.0512231
0.0164851
0.00369329
0.000191886
0.000144054
0.596031
2.85469e-05
3.35183e-06
2.10401e-07
6.72323e-05
9.82999e-06
6.92916e-07
3.61866e-08
4.72633e-05
1.04768e-05
1.03744e-06
5.90235e-08
3.2911e-09
6.13642e-06
7.71533e-07
5.64858e-08
3.71254e-09
2.23841e-10
2.73677e-07
3.26657e-08
2.73315e-09
1.95799e-10
1.23723e-11
498.338
589.502
474.499
342.384
648.337
510.87
275.374
737.608
210.985
413.991
545.459
307.478
270.094
621.759
491.168
157.514
698.726
208.107
360.052
349.119
475.234
319.302
152.357
580.859
452.381
106.812
621.414
282.825
297.372
213.5
421.919
390.009
149.47
4.37189
577.324
491.176
346.119
25.1261
614.241
509.158
130.463
133.526
91.325
0.000538103
378.404
395.873
334.02
187.41
0.0239042
339.675
93.4384
0.450991
0.0013317
1.70109e-05
268.09
208.207
0.0113884
0.0205191
2.03536e-05
0.420512
0.000132478
2.41132e-05
2.14749e-06
100.458
23.4064
3.85629e-05
5.10256e-06
6.99834e-07
0.426074
6.80878e-05
6.7906e-06
5.96502e-07
4.22196e-08
767.273
747.48
549.427
720.397
488.142
640.578
536.263
701.37
475.301
795.744
768.092
387.278
713.098
377.698
234.167
735.564
685.921
752.53
691.465
371.521
643.076
348.72
204.318
601.87
662.679
631.199
613.003
655.691
574.909
493.228
622.046
473.843
521.258
421.705
540.762
427.945
667.729
655.73
580.77
339.079
542.317
581.312
633.651
455.879
504.574
481.224
468.547
513.573
615.155
539.818
436.552
404.047
458.605
402.931
388.979
507.318
370.094
378.915
274.358
376.719
294.584
638.216
508.274
474.483
545.472
458.701
407.128
381.262
344.223
247.623
323.864
677.177
736.173
675.985
528.766
690.4
465.966
592.212
505.51
643.813
429.194
642.352
682.052
626.446
570.375
597.973
549.449
591.732
569.19
548.52
469.068
472.056
434.532
365.667
394.986
384.28
303.206
324.333
319.481
264.873
359.828
375.005
342.736
257.903
194.534
253.373
223.074
228.244
302.386
241.588
163.066
58.6631
189.135
69.014
334.988
274.185
750.331
766.32
749.222
757.391
730.649
740.326
665.668
709.471
661.407
719.417
708.224
660.751
666.956
657.826
710.773
691.154
644.948
700.178
652.971
649.251
793.575
781.578
725.38
655.742
666.455
90.6985
382.733
470.471
157.25
477.218
157.344
90.4105
719.927
721.999
708.62
705.86
676.608
694.616
734.539
713.95
89.8296
462.022
157.263
364.828
90.123
452.5
157.255
663.433
590.096
608.889
659.599
653.823
698.495
636.496
687.5
626.869
670.07
656.798
694.167
643.85
630.831
681.763
667.064
620.559
627.453
607.231
562.106
603.991
596.018
638.365
592.361
550.209
616.24
571.828
597.947
574.632
590.51
549.48
523.102
570.969
529.767
495.675
561.484
524.119
493.589
703.375
641.557
673.948
695.931
631.201
668.794
612.717
606.89
641.606
87.5944
418.233
155.077
327.871
88.7068
404.049
153.341
571.905
499.442
526.109
581.174
618.596
644.251
586.296
626.455
574.212
594.701
535.223
485.588
477.298
543.702
483.864
532.465
532.234
474.146
473.922
526.145
539.485
480.371
542.014
603.992
592.366
570.941
582.399
561.519
550.315
516.355
526.446
567.214
501.067
555.311
488.892
526.731
497.982
519.705
464.191
443.797
515.167
501.931
448.355
474.185
456.937
401.786
424.566
448.244
480.53
426.367
427.129
496.068
464.165
470.085
461.653
460.079
429.296
389.235
427.861
375.645
343.029
420.926
389.665
345.664
661.277
590.198
608.99
497.88
563.288
534.256
487.369
548.997
569.478
505.82
528.053
516.884
441.782
498.274
459.071
424.834
479.432
428.667
348.41
393.91
180.348
349.243
123.771
278.776
126.304
282.969
177.614
330.119
91.5947
483.206
159.123
387.408
483.314
158.505
92.4658
89.74
357.158
430.832
156.297
442.234
157
89.445
505.64
613.371
535.748
562.334
495.17
603.463
521.09
393.472
366.703
329.153
497.874
381.318
361.458
324.778
373.951
348.43
286.597
466.958
337.681
331.193
265.709
490.863
548.565
462.158
461.372
517.88
508.243
394.576
517.244
477.301
413.64
349.558
498.929
422.889
318.848
342.599
256.361
378.187
246.532
327.98
214.345
405.168
507.634
488.909
355.581
318.339
416.477
389.995
287.012
475.122
393.749
294.334
191.721
372.725
273.506
217.16
253.073
193.633
234.508
101.462
206.054
102.904
680.962
635.422
678.048
639.18
670.075
623.731
627.92
662.845
638.113
591.804
656.036
609.219
595.485
613.171
471.317
563.062
512.235
493.815
429.273
548.263
487.235
56.8847
141.094
63.0451
29.47
0.123492
53.2532
0.328748
171.681
143.398
22.994
0.000121604
1.13645e-05
662.115
726.491
697.873
765.161
960.239
573.355
455.031
644.07
613.968
786.238
720.033
887.965
419.372
546.5
523.297
667.421
677.513
772.385
373.133
486.645
547.928
247.741
270.761
265.186
73.7688
165.91
0.0290347
6.49588e-05
1.89378e-05
2.04668e-06
1.41951e-07
22.5123
0.000110425
9.33496e-06
1.21443e-06
1.12195e-07
8.10105e-09
0.00172442
4.30863e-05
2.94422e-06
3.79073e-07
3.30175e-08
2.39016e-09
2.36224e-06
4.45259e-07
5.64579e-08
5.39403e-09
4.07287e-10
3.962e-06
1.023e-06
1.45102e-07
1.74264e-08
1.61579e-09
1.19958e-10
852.37
925.116
812.435
793.239
895.704
679.401
884.932
736.842
670.122
858.167
1021.93
965.45
912.241
740.16
879.298
730.315
679.62
821.818
647.857
844.368
693.646
613.512
789.822
937.41
845.661
805.715
684.572
792.896
582.788
652.7
677.286
762.557
808.958
682.37
902.769
953.502
897.853
1047.87
1012.53
842.376
862.31
820.457
887.998
838.35
737.844
735.254
704.673
681.252
625.541
298.816
912.616
882.286
966.039
922.916
882.373
963.611
912.14
931.671
973.937
991.122
918.287
900.971
910.129
861.038
934.512
871.817
949.5
889.307
820.36
851.741
845.611
882.713
851.515
843.839
820.844
786.447
807.152
805.851
787.202
811.031
870.936
831.818
822.361
841.954
833.258
800.772
777.123
786.751
796.4
766.255
1087.48
1013.44
1077.39
1083.67
1116.69
991.109
1022.52
1051.81
848.95
845.603
934.296
863
881.491
815.965
831.624
886.729
955.481
902.848
934.473
862.067
848.69
916.654
862.213
876.016
834.821
896.309
868.156
879.223
909.114
842.762
844.807
843.889
797.785
851.772
817.889
875.438
823.158
774.674
819.573
810.727
829.858
788.06
805.557
796.53
742.149
774.831
754.358
760.461
758.874
811.797
769.815
757.123
788.778
778.463
740.953
727.744
722.9
743.406
710.236
990.527
907.485
957.48
934.063
975.291
877.554
887.973
924.102
798.313
778.569
835.143
768.112
795.549
730.256
755.518
764.987
842.299
808.236
797.606
755.812
771.441
820.405
757.821
793.126
738.448
781.514
718.263
698.89
748.737
672.437
714.062
718.692
660.636
691.78
700.757
738.011
670.506
690.148
746.192
731.34
730.319
718.569
716.567
700.974
847.339
768.261
802.944
734.211
786.712
725.528
709.553
756.727
583.206
649.787
627.979
599.538
711.344
794.043
780.516
709.445
649.335
769.314
755.638
616.601
740.734
641.806
639.422
585.672
704.62
630.121
623.73
736.597
701.252
589.251
553.858
641.892
635.398
566.67
685.083
585
546.078
510.564
580.752
568.049
530.508
588.485
587.584
518.468
472.775
551.401
563.997
560.119
434.249
504.654
514.34
409.334
385.396
445.158
433.166
316.069
198.219
125.338
4.15805
2.67597
0.00082532
0.000307873
2.19934e-05
2.41602e-05
285.364
131.512
133.213
203.748
199.789
132.472
66.4265
67.1755
146.419
79.849
78.9269
146.623
133.452
68.021
69.0829
146.079
77.3635
78.0742
145.659
547.785
535.899
576.568
291.285
260.133
186.459
362.527
132.492
183.283
355.453
129.194
287.026
880.019
1234.14
1109.79
930.549
698.54
1057.67
1015.57
1148.98
994.39
907.004
984.018
860.384
703.37
754.524
549.032
654.142
469.109
486.124
653.426
713.205
518.762
1158.03
1219.85
1146.12
1071.77
872.429
641.76
387.523
335.591
311.024
944.959
980.729
1010.4
1053.99
980.865
1007.39
944.523
1035.77
948.396
964.802
1186.24
930.024
972.137
910.454
944.193
854.857
886.772
1030.53
812.269
808.669
762.343
755.497
667.763
713.196
812.996
576.784
619.771
653.939
605.585
615.653
579.159
607.735
534.181
551.687
487.149
491.25
535.202
555.881
487.798
624.801
603.387
582.033
726.173
654.563
667.467
588.593
529.76
601.756
867.661
1107.39
848.063
1059.26
1315.88
1219.03
799.573
1034.78
733.789
930.591
1176.53
1035.63
665.862
874.463
583.401
703.57
971.394
771.588
1061.79
1020.37
1159.98
1102.77
1020.16
1154.3
1061.92
1038.52
1082.37
979.231
1104.54
1000.52
1131.39
1010.88
1404.77
1298.63
1383.77
1260.78
1293.99
1341.2
950.222
957.272
1076.8
1008.6
983.899
931.8
1044.81
908.031
975.368
858.716
947.116
899.535
1002.79
857.526
1248.42
1134.57
1201.44
1089.03
1084.94
1149.9
745.338
807.62
880.955
814.482
799.576
753.925
814.728
697.45
756.864
660.669
701.193
704.975
754.385
654.884
1007.08
902.115
926.826
833.781
786.063
852.845
231.847
193.313
136.242
295.55
140.391
299.734
189.844
595.79
498.682
518.528
626.403
571.819
536.925
607.152
463.826
474.862
490.182
533.314
507.376
513.655
457.553
566.861
604.041
576.415
590.025
563.638
598.611
573.384
538.864
528.303
548.663
510.605
535.281
545.815
521.332
737.23
699.827
711.039
735.953
710.868
713.975
732.71
590.772
587.106
541.065
573.101
606.569
688.194
624.026
875.793
939.02
936.033
967.967
880.291
893.148
961.723
600.608
621.441
597.717
613.706
587.152
608.668
584.379
549.381
545.989
571.029
537.991
559.052
557.363
532.75
503.572
513.571
500.556
491.748
502.526
476.649
487.765
685.589
664.1
688.107
704.707
659.366
682.703
682.916
796.764
803.192
810.511
760.934
770.391
763.787
760.364
915.545
823.768
892.374
942.148
837.787
865.224
914.022
520.141
525.947
510.565
523.03
510.211
513.615
498.893
667.649
618.395
641.935
638
638.501
660.979
615.3
349.422
401.789
381.257
447.944
390.769
476.831
420.506
612.419
564.82
585.635
610.458
562.941
588.382
584.531
730.578
715.921
725.089
703.404
712.053
719.114
732.886
781.697
741.393
759.738
719.695
749.323
733.778
712.727
477.809
474.105
488.215
448.583
462.826
473.958
459.623
833.546
835.352
880.233
852.025
856.437
909.48
908.258
651.902
671.093
660.035
641.729
631.276
639.748
650.828
582.317
549.326
557.3
582.671
591.252
567.247
559.366
563.27
518.535
491.247
553.016
494.856
529.425
597.81
564.321
532.354
548.201
541.842
541.372
560.976
524.352
868.285
769.721
839.052
775.695
850.849
811.949
887.257
524.339
504.68
530.852
541.457
509.887
534.867
515.784
779.963
762.702
760.312
753.299
742
737.824
754.333
699.551
673.488
655.378
669.576
679.457
691.308
677.538
803.041
698.468
765.625
696.485
734.19
765.106
807.93
493.289
481.875
496.41
483.801
497.87
485.031
470.655
862.633
830.573
888.961
809.538
869.998
794.149
846.69
698.065
672.377
710.738
725.856
702.227
666.432
689.563
614.996
585.031
592.551
593.78
601.824
578.786
571.124
667.771
676.997
656.77
679.516
668.035
647.914
659.222
432.461
405.3
467.013
474.393
506.423
445.797
443.511
679.525
612.877
648.641
646.715
674.681
638.367
611.549
685.654
725.587
636.489
635.569
663.921
683.526
722.188
560.835
542.307
567.261
553.388
522.538
546.879
528.168
482.606
486.417
493.893
454.327
464.634
476.057
466.159
246.364
222.108
278.076
316.996
246.624
311.17
228.018
621.379
600.182
630.057
577.993
605.831
614.911
587.662
679.19
677.116
709.478
687.97
667.003
701.473
687.628
722.518
739.395
737.332
725.012
693.784
713.124
704.724
631.549
631.847
644.487
602.001
653.372
609.9
622.779
621.357
569.221
597.832
620.164
595.703
564.84
586.229
532.734
503.813
516.503
525.427
494.209
509.419
508.693
493.117
519.835