/*--------------------------------*- C++ -*----------------------------------*\
  =========                 |
  \\      /  F ield         | OpenFOAM: The Open Source CFD Toolbox
   \\    /   O peration     | Website:  https://openfoam.org
    \\  /    A nd           | Version:  9
     \\/     M anipulation  |
\*---------------------------------------------------------------------------*/
FoamFile
{
    format      ascii;
    class       volScalarField;
    location    "0.0032";
    object      p;
}
// * * * * * * * * * * * * * * * * * * * * * * * * * * * * * * * * * * * * * //

dimensions      [1 -1 -2 0 0 0 0];

internalField   nonuniform List<scalar> 
27819
(
50885.7
29259.4
57449.7
31725.5
84404
45853.1
40141.1
52140.1
42271.3
30614.2
44351.9
68093.1
57953.9
40372.4
65657.2
18917.1
29457.1
19250.8
23417.4
33778.4
26816.1
46928.2
53006.4
56449.7
42770.4
47180.7
32482.3
40426.7
47477.6
32920.5
42347.8
43669.7
41049.4
50300.5
35601.3
48409.2
33833.6
45619.7
29891.7
21291.1
19963.5
53481.5
53317.7
38523
47632.3
48785.3
57555.3
43139.2
59594.4
52018.3
69853.7
57308.7
62933.5
49370.5
67310
36467.1
38530.4
31742.2
86778.5
78475.1
66670.2
74944.5
76439.3
88653.3
77097.3
61991.2
61908.6
57478.7
60299.6
64590
58228.6
53615
55220.6
52588.7
54481.2
54341
57311.2
48571.9
50556
75684.7
77642.5
74743.7
67525.6
70297.2
64372
72148.8
51141.7
53929.8
54394.7
51491.2
51930.4
47840.4
47472
86663.5
83760.2
91459.1
97436.9
81241.7
93673.6
94561
204028
101332
101303
101298
101298
101962
101299
101298
103467
102240
176976
194535
178272
152907
106304
133719
120108
105825
106469
144908
132151
146386
111288
124710
113061
122524
128980
132470
291537
106079
93313.3
95950.2
110267
103955
106473
106730
117751
106630
107954
120145
108170
116499
122233
121127
134982
110189
129431
122416
133971
107219
117460
99739.2
104291
115189
114283
110071
121125
130219
169656
190805
188604
158489
148267
148629
223372
149618
156554
182439
142419
180760
137258
132519
115715
118768
125420
110856
129336
135002
165929
139084
199337
131162
151980
155674
129818
226365
101827
101299
101309
105432
176939
195040
102117
101298
101298
101305
101355
101309
101368
101298
101298
101298
101298
101298
101298
101298
101298
101298
101298
101298
101298
101298
101298
101298
101298
101298
101298
101298
101298
101298
101298
101298
101298
101298
101298
101298
101298
101298
139333
363416
101426
101298
101304
104107
168429
160512
101657
101298
101298
101302
101326
101301
101319
101298
101298
101298
101298
101298
101298
101298
101298
101298
101298
101298
101298
101298
101298
101298
101298
101298
101298
101298
101298
101298
101298
101298
101298
101298
101298
101298
101298
101298
191910
270847
101299
101300
102145
131081
107128
101322
101298
101298
101299
101301
101298
101299
101298
101298
101298
101298
101298
101298
101298
101298
101298
101298
101298
101298
101298
101298
101298
101298
101298
101298
101298
101298
101298
101298
101298
101298
101298
101298
101298
101298
101298
271287
102914
101602
101306
101376
103256
101356
101316
101300
101298
101298
101298
101298
101298
101298
101298
101298
101298
101298
101298
101298
101298
101298
101298
101298
101298
101298
101298
101298
101298
101298
101298
101298
101298
101298
101298
101298
101298
101298
101298
101298
101298
101298
156093
219556
252725
106637
101299
198211
172660
110141
101415
101312
101298
110878
101442
101299
101298
101298
101298
101299
101298
101298
101298
101298
101298
101298
101298
101298
101298
101298
101298
101298
101298
101298
101298
101298
101298
101298
101298
101298
101298
101298
101298
101298
101298
101298
101298
101298
101298
162835
306564
131254
101342
101299
101298
102820
220765
103526
101301
101298
101298
101462
101369
101298
101298
101298
101298
101299
101298
101298
101298
101298
101298
101298
101298
101298
101298
101298
101298
101298
101298
101298
101298
101298
101298
101298
101298
101298
101298
101298
101298
101298
101298
101298
101298
101298
101298
102675
102152
101300
101298
101298
101298
101521
102182
101299
101298
101298
101298
101299
101298
101298
101298
101298
101298
101298
101298
101298
101298
101298
101298
101298
101298
101298
101298
101298
101298
101298
101298
101298
101298
101298
101298
101298
101298
101298
101298
101298
101298
101298
101298
101298
101298
101298
101298
101299
101298
101298
101298
101298
101298
101298
101298
101298
101298
101298
101298
101298
101298
101298
101298
101298
101298
101298
101298
101298
101298
101298
101298
101298
101298
101298
101298
101298
101298
101298
101298
101298
101298
101298
101298
101298
101298
101298
101298
101298
101298
101298
101298
101298
101298
101298
101298
101298
101298
101298
101298
101298
101298
101298
101298
101298
101298
101298
101298
101298
101298
101298
101298
101298
101298
101298
101298
101298
101298
101298
101298
101298
101298
101298
101298
101298
101298
101298
101298
101298
101298
101298
101298
101298
101298
101298
101298
101298
101298
101298
101298
101298
101298
101298
101298
101298
101298
101298
101298
101298
101298
101298
101298
101298
101298
101298
101298
101298
101298
101298
101298
101298
101298
101298
101298
101298
101298
101298
101298
101298
101298
101298
101298
101298
101298
101298
101298
101298
101298
101298
101298
101298
101298
101298
101298
101298
101298
101298
101298
101298
101298
101298
101298
101727
101299
101533
101299
101298
101299
101298
101299
101307
103262
101305
102899
121258
110912
179008
123722
109508
180469
165894
195914
249155
132650
169775
198262
249543
101302
102106
101302
101704
101301
101981
101301
101299
101299
101298
101299
101299
101299
101298
102140
101300
101311
101304
101946
101300
101307
159905
101324
101672
104589
155473
101318
101559
101453
101299
101298
101298
101299
101298
101298
101303
102693
101300
101997
128474
108690
180983
134267
105461
176655
210293
199138
248283
169288
247386
194557
222146
101301
101663
101302
101300
101363
101300
101298
101298
101298
101298
101298
101298
101298
101839
101299
101308
101302
101524
101299
101303
152117
101315
101503
102550
132192
101306
101364
101299
101451
101298
101298
101379
101305
101299
101792
101301
101405
162813
104370
170555
190582
102065
130012
268221
187471
197408
228755
346823
137585
111965
101300
101327
101299
101355
101352
101306
101298
101298
101298
101332
101301
101300
101299
101446
101298
101301
101299
101323
101298
101299
123092
101304
101337
101461
105051
101302
101304
102327
147999
101892
101360
148126
126339
101321
101353
114987
102087
221030
101692
115755
225359
101623
102129
346196
119077
104387
289266
141161
101981
101325
103677
101664
101895
150505
110035
114216
101319
101306
101302
139715
108740
101719
101317
101306
101299
101299
104032
101408
101305
101300
103024
101300
101301
101341
101381
101299
101300
178974
178133
171910
189050
223280
234301
203130
259288
149500
104364
282478
309178
154813
102349
184256
102410
101575
237140
106378
101561
101302
202821
343542
398242
242216
311144
159305
229299
151869
101590
150589
307576
201934
101577
101561
101298
231519
324832
101424
101306
101298
101298
238829
105171
101298
101298
101298
101298
101312
101298
101298
101298
101298
101298
101298
101298
101298
101298
101298
101298
84598.1
85682.9
147390
110922
151306
151310
131705
155337
87369.2
89656
188692
122920
165458
220742
134152
193324
130166
183307
144744
236793
150160
221922
178575
305378
160364
239760
200312
174033
250875
258320
336256
246580
369106
297310
452658
313986
274273
127516
132573
142214
159054
145200
185588
151386
211381
213736
182977
222981
201626
239023
256885
326422
277352
273166
296615
285836
411825
332157
151082
166355
138869
173570
187432
166440
132641
140204
184545
151582
168722
166622
243219
182137
204914
247392
224362
228334
242924
234514
222598
207658
143983
162710
137861
178718
101337
101709
101346
101690
101670
101342
101340
101303
101299
101304
101299
101299
101304
101303
101330
101619
101512
101326
101598
101335
101321
101302
101299
101299
101302
101299
101303
101301
101298
101298
101298
101298
101298
101298
101298
101298
101300
101298
101299
101300
101298
101298
101298
101298
101298
101298
101298
101298
101298
101298
101299
101299
101298
101300
101298
101298
101374
101310
101356
101307
101310
101354
101377
101769
103886
101646
103193
103804
101633
101787
101369
101306
101307
101341
101309
101348
101360
101737
103069
103473
101573
103665
101609
101693
122080
127293
128402
156073
150398
152234
154807
126316
112436
132187
110635
112173
131815
126306
130026
125980
132721
158733
159990
155311
162547
126390
110160
111122
130295
111736
131214
126400
101307
101435
101317
101314
101310
101299
101298
101301
101299
101300
101298
101300
101299
101298
101298
101299
101298
101299
101299
101298
101298
101298
101298
101298
101298
101298
101298
101299
101298
101299
101298
101299
101298
101298
101298
101298
101298
101298
101298
101298
101298
101298
101298
101298
101299
101298
101298
101340
101306
101335
101302
101350
101304
101327
101581
103237
101531
102464
101639
102966
101487
101330
101301
101301
101313
101302
101320
101321
101521
102226
102374
101404
102671
101443
101465
135924
131430
140023
173370
166076
167414
173765
125996
110345
128952
107710
126340
109404
127033
145361
152702
137607
180630
192084
182646
188525
125276
106609
107181
120975
108324
124392
124069
101305
101298
101299
101301
101299
101301
101304
101346
101319
101493
101563
101325
101336
101623
101299
101298
101298
101299
101298
101300
101299
101298
101298
101298
101298
101298
101298
101298
101304
101308
101406
101337
101312
101303
101353
101301
101299
101308
101316
101299
101300
101323
101307
101300
101308
101299
101313
101299
101304
101374
102095
101370
101623
101415
101850
101343
101304
101299
101302
101301
101299
101302
101302
101343
101494
101499
101312
101649
101324
101323
175895
143848
152944
199448
201333
194922
209465
119768
105981
116983
103413
122302
104806
112849
206493
164534
177666
201644
218510
216318
200162
116228
102635
102825
105925
103736
109020
111923
110193
102526
102954
107279
103207
107767
110184
122487
126104
124744
145996
120859
130747
121032
103988
102041
101611
105083
101720
105557
103518
102888
101397
101445
101838
101515
102136
102464
113684
120250
128156
144968
117628
114349
130221
110195
105492
128789
137410
107161
109301
130556
101449
101338
101307
101516
101314
101680
101376
101359
101401
101307
101330
101315
101364
101329
102802
103188
123585
107294
104540
102036
115000
101887
101401
103720
103523
101540
101559
107673
231762
198236
189734
181178
214992
193808
203568
104768
102142
103772
101481
107888
101712
102471
234762
198756
202209
163078
154092
182772
143374
102881
101400
102294
101593
101542
101806
102219
196244
149461
162644
207308
210782
190157
228881
262930
222569
229237
238062
193811
217958
214318
114373
68022.9
73184.1
131367
106703
157809
177192
94669.1
171684
103376
188265
144858
227271
245011
128624
243561
141752
263053
203355
85048.5
110303
111565
63913.9
93270.8
94420.9
63451.8
112524
86560.2
114227
64527.1
97230.2
95464.2
65607.1
116033
88322.2
118281
68018.3
99258.6
66722.6
101716
121248
125178
91608.9
69504.8
108228
104698
71135.9
136478
94361.7
98584.5
74371.1
112149
72840.1
116570
66260.3
166873
182903
114686
166535
105837
70885.9
156470
104973
113625
75921.3
128928
122120
78692.4
197676
144923
126464
92466.7
138082
83596.3
151858
225247
204815
168748
108483
212761
174710
138437
134676
98407.6
102248
110387
78647.5
75854
116146
123207
86562.4
156575
79380
143165
133229
150156
106294
110625
130441
81989.7
86252.3
122712
169850
115739
122962
139501
98590.9
92128.8
149384
171212
196239
120040
225469
111415
206343
185936
199926
132713
144911
171271
104816
112045
159621
248317
162366
183862
185588
131793
120508
203861
294290
210233
238091
262730
148070
176255
228935
84202
200075
125796
217506
76819.1
216840
139308
92098.6
233413
242812
182301
228703
155721
109581
147004
120171
126033
139505
130784
153674
143616
101316
103750
131283
101323
101334
101312
101953
101728
104909
138226
150853
114529
124950
124222
147374
177337
101390
101377
101303
101348
101319
101302
101339
101305
101301
101310
101311
101302
101319
101301
101321
101308
101380
101406
102061
101728
101428
101364
101810
112587
105225
103802
117200
104103
114804
113746
123038
134975
113651
142645
123040
133643
117365
120789
94779.1
91362.8
105248
71229.4
73385.1
100704
127793
118978
109275
131360
114579
124308
135187
101303
102408
180582
101469
101302
101300
101299
181203
154867
175633
186625
134392
219051
105940
124911
102455
101345
221395
126684
102822
101330
101636
101313
101300
108126
101399
101306
101299
101323
101299
101298
101322
101299
101299
101298
198127
272867
226005
297466
183907
207859
204680
210746
198734
261894
251436
168079
146985
101812
317942
101527
289188
122059
101534
101395
101299
150878
101856
101299
101349
101300
101300
101298
160531
174147
160342
179260
175188
160325
159905
161669
179785
179675
160504
177058
160424
163206
167323
182803
160325
180941
165067
186257
159535
169600
179754
192921
153850
189803
157607
171292
170855
194894
147524
160398
171871
195057
138552
166828
146196
182949
117613
191611
127854
158570
129923
167341
109855
107460
145771
144251
105308
115391
103699
108926
101958
121787
102982
107160
202015
166777
183129
197141
179514
186151
205235
214460
196713
182100
198185
190237
221219
206957
207031
195142
124826
173326
181278
221039
137914
174406
127354
109996
105365
154919
136897
113971
215835
213020
206660
122485
129039
131425
111522
106029
111277
101787
102638
105683
114101
101765
103344
104152
101664
101382
104769
102240
101488
101337
112224
307640
377805
441122
405867
105212
157652
214813
286670
173987
173418
199641
209287
201149
276303
243344
201471
271903
296036
342563
313215
102638
346889
340158
384345
342966
224332
271755
106356
101301
404634
134459
112561
101435
273828
256966
245727
324002
182626
290152
326130
290640
301447
264978
305855
279249
221464
347502
153159
161411
139768
170337
152624
185995
168524
159961
141211
151576
129642
141428
132037
121860
206872
101817
101622
172155
193381
101651
101490
183234
101570
101432
143344
132708
101379
101323
117400
101343
101310
105885
102210
101304
101299
101550
101300
101299
101362
101301
101299
101298
101299
101298
101298
101298
101298
101298
101298
102437
101299
101300
101298
101298
101298
101298
101298
101298
101298
101939
101514
101351
101299
101299
108593
101298
101298
101298
101299
101298
101298
101298
101298
101298
101298
101298
101298
101298
101298
101298
101298
101298
101298
101298
101298
101298
101298
218776
175572
229112
316233
153809
180161
202152
126379
102997
274418
183027
389923
443545
163410
197534
348947
136554
113715
283322
335710
215344
442611
652386
200249
250504
408497
174519
164205
406518
379519
221045
296246
685418
202660
186748
262188
332791
351553
185405
249712
443151
659471
643473
101304
171509
239004
364250
523198
101856
109106
341698
107723
101315
101298
232642
384420
101527
101766
101298
107452
101299
101298
101298
331155
300919
101298
101298
101298
107871
101299
101298
101298
101298
132177
137940
171499
133294
121486
155395
181939
139961
128418
128071
133818
104871
132516
110463
127767
141751
164508
137521
160193
114134
161254
131706
123479
185291
176682
178314
194448
175940
227984
238918
181572
190532
245103
295847
237064
228981
172353
175938
225372
140997
230320
170751
167821
151709
168342
129657
175022
241814
186005
245843
223321
299622
195117
269970
318235
257440
269189
330982
417503
288816
292968
166930
129016
173029
243481
192436
262000
273777
100577
150596
143840
126385
128279
128443
188441
144166
133122
188103
222105
168615
156172
137305
142843
143415
174424
190939
190584
207241
190800
214189
250747
265277
267859
209000
126517
168452
207814
229428
163808
196276
326873
186472
229153
333626
505499
213926
256758
473202
272693
298817
553605
531436
309116
440530
118959
121085
135670
133653
137101
134959
141536
138457
143099
138186
130998
135256
140131
133253
140767
144950
136801
145253
138200
141801
134952
148591
129669
130919
129633
132900
129940
51172.7
107807
108604
80861.3
106120
79120.4
52411.5
145425
147619
151038
154768
167515
157893
143633
150752
55190.1
112175
82874.7
118874
53774.8
116906
85191.6
150874
161384
151161
181003
179546
166921
191629
168049
194337
180483
179614
163914
175977
194205
163736
180237
193311
195667
209170
229715
212393
211416
196090
211391
211976
188169
182569
197441
194835
204366
199311
231971
216274
243629
240301
223240
218745
253764
165655
187815
179649
164083
195154
180693
205916
213208
196015
62899.2
140088
94527.7
152584
60387.1
152127
99309.3
209957
230286
209481
159081
169380
151973
173323
153567
176218
156407
146581
136716
142686
142705
150523
162045
174889
184394
157742
179885
157751
166359
216914
186831
206347
192745
206129
195338
214704
239878
247780
227335
259085
226760
263451
237967
223238
194709
204862
218553
200224
217543
228101
247908
265851
280870
244502
273569
242350
253502
295905
263771
261792
272911
275564
281632
279951
313346
281761
306489
298878
295473
291662
327216
150891
171003
154053
141687
138835
171003
156214
153681
228149
256765
237757
191135
214919
214720
260757
239393
239171
271056
282763
275829
94500.6
93139.2
63584.2
112123
59831.2
104282
100174
130450
50687.7
103080
77446
106543
104761
78380.6
50089
56669.5
124557
130415
90815.6
122795
87787.7
58379.9
214274
166062
183955
179341
218730
167434
194342
220922
140547
156833
190786
232162
143632
160785
239270
151420
192138
233206
275384
164116
224212
196590
173309
187076
204358
180012
195420
313134
206944
253807
267598
393869
246781
313591
294633
184508
240862
307848
373621
201762
310896
264373
189722
243603
295591
386862
234098
319459
520491
265527
340454
464914
661081
357144
479292
414225
260216
341583
449586
558060
315632
466107
149714
142686
150378
153455
156211
149207
160585
158271
174996
168786
164258
157731
180832
169440
230310
180460
201375
204419
267504
187277
236937
533689
397586
473546
439441
104551
446837
108575
264835
238077
236533
101299
101298
149507
84768.2
128119
118114
114443
141111
212126
90018.3
130687
83007.7
122226
118844
193891
108931
152004
99173.6
155323
141498
250099
150630
135261
367966
243002
152727
275026
229888
101705
101298
101298
101298
101298
259782
101299
101298
101298
101298
101298
101324
101298
101298
101298
101298
101298
101298
101298
101298
101298
101298
101298
101298
101298
101298
101298
101298
96991.7
105949
89075.1
98506.7
107842
146518
115015
120254
147843
117406
105754
107569
116832
111487
109563
88195.4
123129
121476
154057
119461
146884
174915
133450
109255
121217
133219
138848
128748
124976
149638
159440
141557
128550
159077
121454
114650
122110
90137.7
92595
127524
122635
132142
105844
113854
154420
152101
166610
136723
139399
159819
96540
106238
96397.7
105897
106202
96344.2
96562.6
87993.7
88983.6
87864.8
89167
97213.6
106548
108183
98183.5
106870
97032.3
98412.8
124494
115635
122797
115136
115763
123237
124094
131550
128545
129536
130623
125345
115824
118020
126216
116470
124102
127339
132595
133210
130587
135116
96271.1
105693
96252.9
88854.2
87804.6
106280
97987.9
96899.9
126210
127388
115236
125033
122889
131009
128383
92987.8
90327
90512.3
92823.6
102501
109851
99651.2
112596
99859.4
112779
102347
95626.5
100121
95413.3
100441
105370
115926
121648
110282
116064
105217
110521
133957
120023
128713
123089
129799
123468
133076
143213
136419
138312
141440
138790
127164
133596
145495
127380
138143
146038
149056
156153
147585
157548
99414.5
112328
102083
99716.7
95106.1
115672
109926
104924
134196
139452
126832
144791
137336
154497
145827
114996
106328
106762
114387
126157
128892
116959
138275
117255
138420
125735
124078
131582
123231
132700
136136
148987
160164
144763
149286
135473
145790
166558
141509
154814
152008
155071
151861
166630
116576
138145
125339
130714
122605
148835
144100
135000
144197
137950
139482
141765
117586
89641.6
99296.2
85065.5
117661
90263.9
99821.4
162909
119903
155321
128608
165613
121724
156447
119548
84065.4
112811
96110
132252
91077.6
124629
168771
123706
166854
144188
186956
151288
172334
139798
102988
141212
128202
173378
121114
151938
158887
203585
144564
175053
202123
241648
159971
192530
151425
208825
294716
145789
133060
101303
101300
101298
101298
136850
96040.5
103568
110505
120807
99212.6
81943.7
83248.8
90049.6
66110.4
66776
87807.4
108756
85402.2
88196
93079.5
69385
67855
96664.4
129586
133106
125832
91349.1
131327
85309.4
80640.1
53942.3
89566
86545.7
56620.6
97419
87537.1
78147.7
81594.1
96166.9
124087
78226.1
80440.5
80368.6
81747.4
90914.3
90525.6
96668.3
119460
118545
123166
113701
130630
118099
125306
112490
117628
86974.6
78418.1
87045.9
83935.7
103400
126567
143994
112336
166775
87317.4
78312.6
87090.5
78523
78735.3
87121.4
87207.5
79285.5
80582.6
79407.5
79230.1
81913.7
84118.3
84283.5
86526
91260
86768.5
86239.3
97160.2
103964
104673
111905
120672
112878
111255
108414
115194
103000
117058
104453
119223
106312
110493
117940
124547
107699
121205
107390
113713
126810
128792
131064
101845
114959
104364
114357
107432
104090
70863.8
69957.8
72234.1
72599.8
69877.6
72573.6
74959.4
73905.8
80038.9
82543.6
73807.8
82205.4
90368.3
87864.2
114154
108327
87395.5
107387
63605.1
70063.9
62439.1
70680.2
70855.6
63483.3
62526.1
64253
71400.5
72695.2
65428.8
71492.8
64194
65474.5
62361.4
70586.1
63421.9
71354.8
65438.2
64157.4
68984.1
74044.3
66772.1
76158.3
66868.6
76297.5
68874.4
71344.1
78470.3
82877.8
74918.1
78707.6
71132.6
75209
66730.4
76027.9
68782
78229.9
74650.7
70956.1
86381.8
88358.2
79842.1
94401.3
80281.2
95141.4
85702.6
92987.6
101496
109584
98103.5
102514
92019.3
99318.2
79445.5
93838.9
85184.1
100824
97179.3
91350.5
117245
78520
51818.2
85928.5
50200
81099.4
81645.1
108842
152370
117941
93337.7
99197.5
136009
123144
157923
159580
133988
112286
131999
143737
178206
109943
102438
103871
119311
120529
112319
113814
112680
112820
107176
128641
123420
117162
122878
84696.4
88070.5
87821.7
94026
97601.8
97327.6
94207.3
149923
181035
183533
169453
166695
132230
132361
71686.2
71165.8
70330
63837.1
63157.8
64232.6
62743.9
95559
102713
104807
97417.2
99176.7
106946
108654
105137
114528
108429
108714
102812
112348
118307
124788
119912
129158
135463
130074
144678
139482
87927.8
88328.9
85767.6
94302.2
97560.5
97291.5
94836.4
89652.7
80431.4
80784.8
82236.9
82361.6
91465
91575.1
71739.6
73462.7
72954.4
64428.1
66053.5
64796.7
65656.6
121508
121827
131206
115882
125160
125621
135062
87438.5
92505.2
89927.9
99017.5
99263.1
96524
101684
263167
209159
226968
171770
219639
155802
210220
93298.6
101946
98996.2
102443
111194
105286
108291
103842
107422
114175
117411
107197
114113
103978
81347
82894.6
82482.3
83858.8
91326.2
91980.9
92807.3
145190
152701
140180
168631
155875
150718
163488
88312.9
88462.2
87736.9
79249.6
79770.3
79132.8
78588.2
148715
142949
142230
159545
158787
152707
153319
130101
143293
131758
133768
122797
124509
135956
152223
187696
165483
172646
191819
148251
134409
105769
117969
114627
124380
118378
115244
127635
74369.7
77331.4
76656.1
69892.1
69293.9
67596.5
67114
147009
140186
134984
128212
146113
140102
134057
99181.2
109426
109332
101163
111484
111418
101296
104050
117337
107321
114821
107097
114324
104515
79221.7
84582.9
83554.7
76782.3
72560.6
75817.5
71804.9
143610
153991
141953
148022
135938
146074
158491
88354.2
80322.1
79711.3
81529.7
80920.4
90275.3
89578.4
85523.5
87953.2
86506
92925.8
95385.4
96942.4
94473.9
112632
125527
114781
127834
117075
118942
130018
143110
131951
142919
137168
136677
147432
147838
225008
209748
173461
201998
156344
192659
210877
89422.7
96452.2
94529.3
103745
98379.8
100105
105728
96304.3
89204.1
97739
88973.7
82230.4
87496.8
81072.4
129587
124792
118564
122818
140547
134204
128919
147062
153732
141406
169101
156307
150989
163589
177080
230449
194675
135403
164551
151500
203059
148544
143064
141933
160695
158742
152693
154295
135957
139148
124780
127996
139107
124781
135889
111025
110008
100827
101650
112668
111916
102399
108846
109105
116687
122202
106266
111577
119459
100850
111536
109102
110364
119095
121429
112480
124552
139267
135101
134682
149756
138185
145796
153575
132267
141826
148345
136425
146043
158282
166297
186658
180930
182650
177540
198100
193038
97875.1
97824.3
96988.5
107885
106844
107801
106796
112342
125999
121284
129199
115230
123053
118332
131809
143979
143035
137187
136373
147397
148656
82308
85438.2
84696
93451.5
91764.9
90972.9
94246.7
111734
104094
105921
103959
101430
96443.7
94537.8
168267
166887
180548
160963
174573
172046
186838
226086
229992
236207
192687
196126
183388
179633
180399
180574
167492
162433
189035
175392
175500
136426
128063
140253
125719
139409
125077
137320
149496
146020
134801
128627
136454
125434
138091
170051
180704
169400
163738
175920
175483
164273
97666
109773
108545
99688.6
108845
107516
98911.7
130654
119876
130708
133220
122086
122098
133131
155004
145163
148020
163495
157030
167136
160607
87325.5
93047
91979.2
96193.4
102241
97104.8
101170
102498
115494
105024
106670
114475
104111
117230
127754
131179
118298
139025
128875
131490
142182
165039
165397
152870
157356
183598
170042
170241
161966
155821
145615
168502
161917
157135
174448
166758
154581
154477
158772
171092
170801
159102
159479
159017
152712
179755
172648
165957
172832
146389
137163
149639
139177
141883
151115
154534
105808
98020
107170
116010
108714
107579
117260
120612
132882
131538
133885
123498
122650
134951
118767
113742
108121
109921
126611
120576
115754
127562
121331
118039
116334
110541
107206
112069
171852
180533
169349
163959
178726
175777
166178
162790
159210
158991
147458
150684
150744
147308
160672
169227
156927
145417
161051
148942
157109
233498
212213
219368
202351
196453
214837
209580
126335
128339
116685
118086
128426
116746
126064
143102
142627
127770
133633
139652
145930
130846
103006
101247
110502
114217
100385
103818
113363
143228
131752
120625
129779
131971
133756
122707
152574
131439
155353
141788
134763
156384
195426
167365
156324
154900
159028
173760
171280
160788
161540
141535
154412
153190
146535
159727
166811
167157
183579
177495
188777
181655
199973
192856
166935
185851
229297
186054
262444
238861
155642
384631
303912
292834
343866
267552
228303
275135
160818
160194
170303
145339
153647
154808
163810
194917
204541
190222
226629
211171
206650
221978
122772
114393
116055
134593
136447
125389
126791
149984
136529
140835
148610
157563
162858
152663
211271
195408
204369
181418
195418
189151
202990
127254
118893
130932
119033
129333
117528
129089
163753
160189
162063
148168
152578
151328
149445
193090
179165
194426
199068
184612
200835
216686
170118
166574
180951
161442
171855
175608
186706
272603
236596
247338
235325
215543
187142
209478
105908
117434
112235
122221
106819
116576
111193
155077
151126
150719
140986
141150
144330
144166
135180
126736
138814
140749
125494
137227
128542
157159
153842
147218
137676
141011
150310
134657
163418
150893
165860
153980
140076
142419
153701
175219
182420
169401
193512
179887
173801
187699
192887
188236
188126
205186
206268
201965
201254
287385
241534
204520
218823
182410
244592
222883
186112
173684
177128
166141
180336
187799
193017
195652
204237
189840
228744
213264
206277
221927
140102
142905
147995
144964
149601
158165
153124
219090
253602
201309
185644
201057
287273
220546
187570
197338
182635
182264
174139
169406
188207
138535
126609
132706
126785
121198
119398
115424
177394
159112
163025
177247
163771
167993
182295
179698
193062
193444
183876
183667
197645
197194
165378
161557
161991
175795
171630
158182
148420
139652
132825
129706
142301
148502
145083
152698
145746
141738
140556
134626
137565
137883
133940
139664
130246
126942
119034
129391
117967
128031
152377
158498
154629
143835
142130
145195
146632
178603
193829
209071
198656
184211
199990
215601
192713
191928
188384
209783
206241
202262
206097
135379
133291
121000
125280
131497
136986
124236
173370
170000
165247
156152
155317
152165
159166
268298
243815
249504
246380
229442
224294
241445
181694
181411
170225
174034
163162
174232
186480
175431
171084
170756
183082
188202
188764
182230
201943
195249
186813
179881
204231
194930
187766
180417
198148
194306
187577
184239
198247
202197
44128.3
44195.4
44210.7
40632
44139.3
39525.7
45519.1
45541.3
40579.8
39373.8
39600.9
45512.5
40542.9
58603.2
46156.2
47499.9
47533.8
48979.7
48994.8
56514
56056.3
49026.1
55976.4
59626.4
60025.6
59865.2
41259.5
46226.6
47452.3
42577.1
46177.2
41303.8
42532
46249.6
42614.5
41326.3
45882.1
48958.4
44110.2
50734.7
44060.1
50767.9
45892.4
48199.4
53055
56178.6
51047
53125.3
48194.7
51111.4
44153.3
50717.6
45910.9
53041.3
51010.5
48204.6
59021.7
60236.7
54722.2
64373.5
54855.5
64778.7
58715
54620.4
64070
58480.6
54591.2
64896.6
104316
45797.1
46393.2
49509.8
84804.2
97875
119203
111805
55988.5
52964.5
49644.7
49518.7
61808.3
60389.2
54461
54411.7
94551.3
92927.4
157516
113278
201723
49558.3
51647.5
52928
52958.7
54384.1
55568.6
50922.5
56877
60296.4
62177.4
56983.9
49568.7
55639.8
50937.7
50973.3
56911.9
55692.5
57640.5
51651
52889.7
58888.1
51624.7
57626.6
58884.9
51657
58913.8
57608.8
62308.2
54377.2
60295
60337.7
62230.5
72127.5
65732.2
91267.2
83321.7
113829
62322.6
61708
61573.6
65966.1
85739.5
80345.9
79601.9
84325.4
101261
89769.6
89931.8
56141.2
72257.4
70336.3
77368.5
92111.8
85635.4
94571.7
97004.4
144388
134166
56175.4
56236.1
64658.4
58461
61888.4
67995
64469.9
68233.9
58387.8
67795.7
64341.7
78430.1
66256.5
72572.7
70717.3
72943.3
71227.2
77823.3
84296.1
75647.4
81425.5
88732.7
76431.7
83391.1
89911.6
75110.4
87911.3
82788.9
98491.6
85721.2
93167.7
87372.3
94616.7
89450.4
96392.9
100701
88741.7
95021.7
98257.6
91755.4
97630.4
103907
86038.2
98192
94621.8
75629
51512.9
71795.7
53882.1
76392.2
52113.8
73086.5
57428.3
81396.9
55247.3
75909.5
63366.1
87638.1
82760
71439.9
85402.7
100187
94191
94071
118868
111303
106752
120534
140098
132504
147925
171971
146273
77823
72882.4
72227.1
82909.9
76416.8
75485
63162.3
68755
73849.1
66255.7
69412.5
62615.8
67117.1
68295.2
65674
62228.2
73965.5
77753.6
69414.5
79222.8
70670.8
81272.5
72005.6
68555.9
77614.8
70545.1
90298.6
82192.8
82559.7
75303.4
97465.2
77590.7
112289
118943
76414.3
80709.5
87018.4
75505.7
83652.7
73588.1
79907.2
78348.4
76020.1