/*--------------------------------*- C++ -*----------------------------------*\
  =========                 |
  \\      /  F ield         | OpenFOAM: The Open Source CFD Toolbox
   \\    /   O peration     | Website:  https://openfoam.org
    \\  /    A nd           | Version:  9
     \\/     M anipulation  |
\*---------------------------------------------------------------------------*/
FoamFile
{
    format      ascii;
    class       volScalarField;
    location    "0.0032";
    object      rho;
}
// * * * * * * * * * * * * * * * * * * * * * * * * * * * * * * * * * * * * * //

dimensions      [1 -3 0 0 0 0 0];

internalField   nonuniform List<scalar> 
27819
(
0.143256
0.0966206
0.162424
0.113266
0.247094
0.160573
0.123057
0.148462
0.135013
0.105938
0.144828
0.195758
0.186303
0.143869
0.207573
0.065106
0.0976191
0.0662648
0.0826167
0.121758
0.0944901
0.158196
0.182003
0.188057
0.123253
0.137877
0.0984711
0.124362
0.139242
0.100005
0.121692
0.127145
0.127991
0.151855
0.11106
0.143618
0.103816
0.134793
0.100506
0.0744876
0.0691196
0.159975
0.16296
0.121726
0.156381
0.145702
0.175953
0.136427
0.177713
0.169653
0.210107
0.178237
0.19106
0.155146
0.199807
0.131398
0.132191
0.110748
0.25957
0.234151
0.205305
0.233445
0.226706
0.263763
0.236879
0.176905
0.180289
0.166961
0.169342
0.183104
0.168727
0.154585
0.152158
0.145806
0.152317
0.156484
0.159225
0.137122
0.144295
0.21923
0.223363
0.217564
0.196688
0.200885
0.186965
0.209997
0.144403
0.147624
0.149033
0.141765
0.143106
0.133949
0.13264
0.251086
0.244095
0.271966
0.285447
0.237962
0.279878
0.277367
1.45576
1.22529
1.22504
1.225
1.225
1.23059
1.225
1.225
1.24356
0.65792
1.7872
1.60699
1.60117
1.61528
1.26785
1.39624
1.38165
1.26334
1.26906
1.52412
1.47936
1.58794
0.74464
1.10851
0.808041
0.914021
1.07626
0.807993
2.31103
0.696375
0.629614
0.660182
0.842741
0.818309
0.852341
0.80091
1.35787
1.27135
1.28222
1.38136
1.28506
1.34913
1.39728
1.34527
1.47027
1.18084
1.3541
1.36093
1.45865
1.14748
0.801458
0.699372
0.745982
0.895538
0.945112
0.895346
0.9578
1.46211
1.72237
1.83529
1.85234
1.50096
1.46034
1.41282
1.87515
1.11356
1.26988
1.46038
1.03814
1.43771
1.30431
1.31989
1.10388
1.04438
1.25317
1.05188
1.22808
0.841745
1.2614
0.92045
1.55025
0.821349
1.12635
1.10404
0.766628
1.27042
1.22952
1.22501
1.22509
1.26044
1.80115
1.90405
1.232
1.225
1.225
1.22506
1.22549
1.2251
1.2256
1.225
1.225
1.225
1.225
1.225
1.225
1.225
1.225
1.225
1.225
1.225
1.225
1.225
1.225
1.225
1.225
1.225
1.225
1.225
1.225
1.225
1.225
1.225
1.225
1.225
1.225
1.225
1.225
1.225
0.82135
2.49852
1.2261
1.225
1.22506
1.24915
1.7498
1.67281
1.22808
1.225
1.225
1.22503
1.22524
1.22503
1.22518
1.225
1.225
1.225
1.225
1.225
1.225
1.225
1.225
1.225
1.225
1.225
1.225
1.225
1.225
1.225
1.225
1.225
1.225
1.225
1.225
1.225
1.225
1.225
1.225
1.225
1.225
1.225
1.225
1.225
1.12858
2.26043
1.22501
1.22502
1.23228
1.47196
1.2724
1.22521
1.225
1.225
1.22501
1.22502
1.225
1.225
1.225
1.225
1.225
1.225
1.225
1.225
1.225
1.225
1.225
1.225
1.225
1.225
1.225
1.225
1.225
1.225
1.225
1.225
1.225
1.225
1.225
1.225
1.225
1.225
1.225
1.225
1.225
1.225
1.225
1.84881
1.23812
1.22762
1.22507
1.22567
1.24158
1.22549
1.22516
1.22502
1.225
1.225
1.225
1.225
1.225
1.225
1.225
1.225
1.225
1.225
1.225
1.225
1.225
1.225
1.225
1.225
1.225
1.225
1.225
1.225
1.225
1.225
1.225
1.225
1.225
1.225
1.225
1.225
1.225
1.225
1.225
1.225
1.225
1.225
1.19095
1.72132
2.08433
1.26739
1.22501
1.80317
1.76158
1.29861
1.226
1.22512
1.225
1.30399
1.22624
1.22501
1.225
1.225
1.225
1.22501
1.225
1.225
1.225
1.225
1.225
1.225
1.225
1.225
1.225
1.225
1.225
1.225
1.225
1.225
1.225
1.225
1.225
1.225
1.225
1.225
1.225
1.225
1.225
1.225
1.225
1.225
1.225
1.225
1.225
1.16674
2.39905
1.45068
1.22538
1.22501
1.225
1.23782
2.06362
1.24357
1.22503
1.225
1.225
1.2264
1.22561
1.225
1.225
1.225
1.225
1.225
1.225
1.225
1.225
1.225
1.225
1.225
1.225
1.225
1.225
1.225
1.225
1.225
1.225
1.225
1.225
1.225
1.225
1.225
1.225
1.225
1.225
1.225
1.225
1.225
1.225
1.225
1.225
1.225
1.225
1.23654
1.23214
1.22502
1.225
1.225
1.225
1.22691
1.23244
1.22501
1.225
1.225
1.225
1.22501
1.225
1.225
1.225
1.225
1.225
1.225
1.225
1.225
1.225
1.225
1.225
1.225
1.225
1.225
1.225
1.225
1.225
1.225
1.225
1.225
1.225
1.225
1.225
1.225
1.225
1.225
1.225
1.225
1.225
1.225
1.225
1.225
1.225
1.225
1.225
1.22501
1.225
1.225
1.225
1.225
1.225
1.225
1.225
1.225
1.225
1.225
1.225
1.225
1.225
1.225
1.225
1.225
1.225
1.225
1.225
1.225
1.225
1.225
1.225
1.225
1.225
1.225
1.225
1.225
1.225
1.225
1.225
1.225
1.225
1.225
1.225
1.225
1.225
1.225
1.225
1.225
1.225
1.225
1.225
1.225
1.225
1.225
1.225
1.225
1.225
1.225
1.225
1.225
1.225
1.225
1.225
1.225
1.225
1.225
1.225
1.225
1.225
1.225
1.225
1.225
1.225
1.225
1.225
1.225
1.225
1.225
1.225
1.225
1.225
1.225
1.225
1.225
1.225
1.225
1.225
1.225
1.225
1.225
1.225
1.225
1.225
1.225
1.225
1.225
1.225
1.225
1.225
1.225
1.225
1.225
1.225
1.225
1.225
1.225
1.225
1.225
1.225
1.225
1.225
1.225
1.225
1.225
1.225
1.225
1.225
1.225
1.225
1.225
1.225
1.225
1.225
1.225
1.225
1.225
1.225
1.225
1.225
1.225
1.225
1.225
1.225
1.225
1.225
1.225
1.225
1.225
1.225
1.225
1.225
1.225
1.225
1.225
1.225
1.225
1.225
1.225
1.225
1.225
1.225
1.22866
1.22501
1.22701
1.22501
1.225
1.22501
1.225
1.22501
1.22508
1.2417
1.22506
1.23863
0.899669
1.3049
1.76553
0.912468
1.29335
1.78336
0.885743
1.83386
2.10724
0.779329
0.902362
1.86151
2.13341
1.22503
1.23191
1.22503
1.22848
1.22503
1.23085
1.22503
1.22501
1.22501
1.225
1.22501
1.22501
1.22501
1.225
1.23225
1.22502
1.22511
1.22505
1.23058
1.22501
1.22508
1.69171
1.22523
1.22822
1.25328
1.6609
1.22517
1.22725
1.22633
1.22501
1.225
1.225
1.22501
1.225
1.225
1.22505
1.23689
1.22502
1.23098
0.945243
1.28661
1.79296
0.9938
1.26001
1.78859
1.15028
1.87721
2.14438
0.95561
1.44368
1.88779
2.05382
1.22503
1.22813
1.22503
1.22501
1.22556
1.22501
1.225
1.225
1.225
1.225
1.225
1.225
1.225
1.22967
1.22501
1.22508
1.22503
1.22695
1.22501
1.22505
1.6366
1.22514
1.22676
1.23576
1.48278
1.22507
1.22557
1.22501
1.22631
1.225
1.225
1.22569
1.22506
1.22501
1.22923
1.22502
1.22592
1.09887
1.25095
1.75556
1.31666
1.23156
1.46301
1.60601
1.85626
1.91247
1.42485
2.2885
1.52057
1.3103
1.22502
1.22525
1.22501
1.22549
1.22546
1.22507
1.225
1.225
1.225
1.22529
1.22502
1.22502
1.225
1.22628
1.225
1.22502
1.22501
1.22522
1.225
1.22501
1.40871
1.22505
1.22534
1.22641
1.25677
1.22503
1.22506
1.23375
1.54792
1.23006
1.22553
1.5605
1.42063
1.2252
1.22547
1.33474
1.2317
1.61645
1.22837
1.34601
1.94174
1.22777
1.23204
2.41883
1.37219
1.25033
2.21305
1.51661
1.23077
1.22523
1.24532
1.22815
1.23013
1.59446
1.29916
1.33414
1.22518
1.22507
1.22503
1.52544
1.28772
1.22862
1.22516
1.22507
1.22501
1.22501
1.24827
1.22594
1.22506
1.22502
1.23968
1.22502
1.22503
1.22537
1.22571
1.22501
1.22501
1.40992
1.73955
1.75658
1.42936
1.71831
2.06378
1.96304
2.01856
1.60271
1.25079
2.14228
2.36316
1.63517
1.2338
1.79776
1.23442
1.22736
2.08846
1.26526
1.22722
1.22504
1.0136
1.94648
2.32727
1.22107
2.3113
1.07497
1.40894
1.58414
1.2274
0.94859
2.35789
1.91481
1.22733
1.22717
1.225
1.83059
2.48794
1.22606
1.22507
1.225
1.225
2.13288
1.25608
1.225
1.225
1.225
1.225
1.22512
1.225
1.225
1.225
1.225
1.225
1.225
1.225
1.225
1.225
1.225
1.225
0.484499
0.488693
0.659476
0.480106
0.68033
0.673559
0.576398
0.6944
0.500924
0.52754
0.904553
0.542829
0.743786
1.09141
0.615148
0.902665
0.706914
0.955941
0.829573
1.17026
0.718212
1.06597
0.915409
1.50179
0.784288
1.17145
1.05539
1.06024
1.37616
1.7834
1.67006
1.41516
2.21351
1.51855
2.517
1.99727
2.26403
0.829471
0.837978
0.973929
1.13856
0.954991
1.2827
1.00395
1.54182
1.36384
1.33789
1.60739
1.39715
1.61252
1.87611
2.29885
1.53543
1.92707
2.23585
1.77031
2.56493
2.40718
1.57551
1.20792
1.01284
1.63096
1.58009
1.29423
1.07118
1.15876
1.56469
1.33791
1.48609
1.41318
1.8927
1.51998
1.69061
2.10241
1.95179
2.00994
2.03967
2.03779
1.933
1.88804
1.55147
1.68592
1.51129
1.78841
1.22533
1.22848
1.22541
1.22834
1.22816
1.22538
1.22536
1.22504
1.22501
1.22505
1.22501
1.22501
1.22505
1.22504
1.22527
1.22774
1.22683
1.22524
1.22755
1.22532
1.2252
1.22503
1.22501
1.22501
1.22503
1.22501
1.22504
1.22503
1.225
1.225
1.225
1.225
1.225
1.225
1.225
1.225
1.22502
1.225
1.22501
1.22501
1.225
1.225
1.225
1.225
1.225
1.225
1.225
1.225
1.225
1.225
1.22501
1.22501
1.225
1.22501
1.225
1.225
1.22565
1.22511
1.2255
1.22507
1.2251
1.22548
1.22568
1.22903
1.24674
1.22799
1.24112
1.24605
1.22787
1.22918
1.22561
1.22507
1.22508
1.22537
1.22509
1.22543
1.22554
1.22876
1.24007
1.24329
1.22737
1.24489
1.22767
1.22838
0.90332
0.847166
0.851628
1.34689
1.22428
1.23432
1.33928
1.40397
1.31396
1.47161
1.30262
1.31184
1.46875
1.40377
0.860122
0.926794
0.875958
1.36479
1.28625
1.25387
1.3925
1.40493
1.29871
1.30351
1.45727
1.30838
1.46422
1.40566
1.22508
1.22617
1.22516
1.22513
1.2251
1.22501
1.225
1.22502
1.225
1.22502
1.225
1.22502
1.22501
1.225
1.225
1.22501
1.225
1.22501
1.22501
1.225
1.225
1.225
1.225
1.225
1.225
1.225
1.225
1.22501
1.225
1.22501
1.225
1.22501
1.225
1.225
1.225
1.225
1.225
1.225
1.225
1.225
1.225
1.225
1.225
1.225
1.225
1.225
1.225
1.22536
1.22507
1.22532
1.22504
1.22545
1.22505
1.22525
1.22743
1.24132
1.227
1.23494
1.22793
1.23905
1.22662
1.22527
1.22503
1.22503
1.22513
1.22504
1.22519
1.2252
1.22692
1.23292
1.23411
1.22591
1.2366
1.22625
1.22643
0.898117
0.968979
0.928545
1.47589
1.33103
1.4295
1.38927
1.40452
1.29735
1.44702
1.27854
1.40613
1.2899
1.43228
0.968885
1.02363
1.02381
1.53409
1.53529
1.45833
1.60068
1.40056
1.26947
1.27265
1.38515
1.2814
1.41184
1.3936
1.22506
1.225
1.22501
1.22502
1.22501
1.22503
1.22505
1.22542
1.22518
1.22667
1.22727
1.22523
1.22533
1.22779
1.22501
1.225
1.225
1.22501
1.225
1.22501
1.22501
1.225
1.225
1.225
1.225
1.225
1.225
1.225
1.22506
1.22509
1.22592
1.22534
1.22512
1.22504
1.22547
1.22502
1.22501
1.22509
1.22515
1.22501
1.22502
1.22521
1.22508
1.22502
1.22509
1.22501
1.22513
1.22501
1.22505
1.22566
1.23177
1.22562
1.22779
1.22601
1.22971
1.22539
1.22505
1.22501
1.22504
1.22502
1.22501
1.22503
1.22504
1.22539
1.22668
1.22673
1.22512
1.228
1.22523
1.22521
1.19828
1.0747
1.1489
1.72189
1.61854
1.6636
1.70448
1.36686
1.2634
1.35346
1.24293
1.38303
1.25402
1.32029
1.45916
1.24823
1.37162
1.77309
1.86305
1.79406
1.80654
1.34212
1.23638
1.23787
1.26386
1.24534
1.28925
1.31018
1.29972
1.23541
1.23906
1.27471
1.24123
1.27926
1.29897
1.3778
1.4184
1.33681
1.5213
1.37002
1.4515
1.29709
1.24719
1.2313
1.22768
1.25656
1.22859
1.26024
1.24362
1.2382
1.22585
1.22626
1.22959
1.22685
1.23204
1.23485
1.31853
1.3746
1.3749
1.54786
1.34761
1.3294
1.40123
1.29296
1.25973
1.41329
1.49943
1.2714
1.29008
1.4144
1.22628
1.22534
1.22508
1.22686
1.22514
1.22823
1.22567
1.22553
1.22589
1.22508
1.22528
1.22515
1.22557
1.22527
1.23741
1.24086
1.38736
1.27429
1.25127
1.23125
1.32894
1.22995
1.22588
1.24499
1.24365
1.22706
1.22722
1.27564
1.77316
1.63774
1.50662
1.77153
1.90164
1.8113
1.88864
1.25419
1.23218
1.24598
1.22658
1.2792
1.22854
1.23502
1.89808
1.80867
1.75456
1.68239
1.62623
1.8026
1.55383
1.23844
1.22588
1.23335
1.22752
1.22708
1.22934
1.23272
1.5496
1.25548
1.37053
1.74656
1.83181
1.6628
1.91863
2.08223
1.8328
1.91535
2.0917
1.87176
1.9851
1.99154
0.777234
0.500428
0.547047
0.880797
0.711864
1.08702
1.18276
0.71365
1.17481
0.773081
1.28159
1.00437
1.369
1.43374
0.892575
1.51177
0.936467
1.55441
1.28076
0.485649
0.558305
0.562399
0.299729
0.401477
0.404839
0.298188
0.56687
0.493753
0.575493
0.302766
0.417932
0.409205
0.309083
0.587889
0.511802
0.606165
0.330532
0.430711
0.31805
0.448784
0.631447
0.664711
0.549522
0.346659
0.502217
0.47273
0.366321
0.76035
0.579214
0.621117
0.412018
0.536365
0.388687
0.575155
0.394326
0.859556
0.953142
0.6161
0.850605
0.559708
0.431634
0.924154
0.680114
0.758386
0.43761
0.675416
0.620592
0.470949
1.24699
1.02276
0.868651
0.593818
0.746582
0.518974
0.848222
1.48206
1.53663
1.22972
0.71638
1.26756
1.00775
0.92697
0.899109
0.681552
0.72921
0.6845
0.542225
0.506229
0.740983
0.848081
0.653958
1.07056
0.5982
0.971999
0.92352
1.05321
0.780389
0.834996
0.873112
0.582457
0.628101
0.803632
1.23296
0.895116
0.967658
0.949651
0.740572
0.682372
1.02985
1.15942
1.28532
0.863242
1.46318
0.821663
1.38222
1.22171
1.46005
1.05438
1.15272
1.19061
0.797943
0.85735
1.1096
1.76217
1.27593
1.41879
1.27562
0.982538
0.916908
1.3686
2.08605
1.60261
1.79797
1.65716
1.06833
1.21495
1.48764
0.528618
1.06004
0.682013
1.15843
0.475332
1.16896
0.761725
0.588823
1.26296
1.35714
1.02298
1.26129
0.862591
0.701234
1.09738
0.922038
0.992364
1.22491
1.13605
1.29356
1.19358
1.22516
1.24585
0.906435
1.22522
1.22531
1.22512
1.23062
1.22869
1.25578
1.44053
1.5829
0.708473
0.783989
0.865489
1.39766
1.56214
1.22579
1.22568
1.22505
1.22543
1.22518
1.22504
1.22536
1.22506
1.22503
1.22511
1.22511
1.22503
1.22518
1.22503
1.2252
1.22509
1.2257
1.22593
1.23155
1.22868
1.22612
1.22557
1.22939
1.31911
1.25882
1.24627
1.35793
1.24898
1.33653
1.32938
1.37634
1.47473
1.21873
1.48472
1.37098
1.46925
1.25837
0.765842
0.637844
0.598176
0.634063
0.445655
0.474008
0.589587
1.02807
1.00105
0.798801
0.935935
0.8575
1.06374
1.10615
1.22505
1.23414
1.77331
1.22645
1.22504
1.22501
1.22501
1.79626
1.64472
1.79097
1.80644
1.49666
1.9914
1.26375
1.41911
1.2349
1.2254
2.05944
1.42748
1.2379
1.22527
1.22789
1.22513
1.22502
1.2811
1.22586
1.22507
1.22501
1.22521
1.22501
1.225
1.22521
1.22501
1.225
1.225
1.64079
2.19973
1.78535
2.31103
1.37492
1.73326
1.96379
1.6225
1.90464
2.00952
2.17721
1.72542
1.57255
1.22935
2.40133
1.22693
2.35436
1.38855
1.227
1.22583
1.22501
1.58038
1.22964
1.22501
1.22544
1.22501
1.22502
1.225
1.57108
1.58495
1.66787
1.76801
1.59212
1.66815
1.56657
1.58033
1.77421
1.63085
1.67273
1.60741
1.67012
1.59396
1.63349
1.66096
1.67421
1.80007
1.61134
1.69615
1.67198
1.65801
1.80048
1.77499
1.63911
1.73515
1.66218
1.68126
1.71141
1.81095
1.59541
1.6904
1.70017
1.83891
1.52858
1.70272
1.58844
1.81571
1.36154
1.84545
1.44473
1.66093
1.4607
1.72854
1.29719
1.27668
1.57747
1.56804
1.25894
1.34352
1.24526
1.28801
1.23061
1.39346
1.23932
1.27396
1.80551
1.56349
1.79358
1.84541
1.67407
1.66774
1.92586
1.91858
1.84268
1.80726
1.93453
1.77021
1.99566
1.96516
1.98158
1.86905
1.41564
1.7803
1.80928
2.03391
1.51945
1.78071
1.4363
1.29716
1.25896
1.64009
1.50876
1.32956
1.95632
1.95138
1.89937
1.39077
1.44161
1.46293
1.30638
1.26386
1.30761
1.22916
1.2363
1.26133
1.32939
1.22896
1.242
1.24866
1.22811
1.22572
1.25384
1.23289
1.22662
1.22533
1.30904
2.3183
2.06149
2.68288
2.58544
1.25513
1.06776
1.67545
2.20219
1.19568
1.15204
1.55045
1.58904
1.43687
2.32685
1.81242
1.40967
2.02134
2.26212
2.56819
2.27236
1.23595
2.5102
2.43623
2.63482
2.59681
1.99337
2.24939
1.26489
1.22502
2.59855
1.45067
1.30782
1.22614
1.59616
1.45359
1.38635
1.82017
1.08915
1.65252
1.88659
2.08463
2.18695
1.95339
1.90717
1.69634
1.41626
2.17629
1.38383
1.58209
1.33218
1.66522
1.44292
1.74322
1.51775
1.50998
1.27375
1.49238
1.24077
1.40104
1.18401
1.16601
1.9793
1.22945
1.22776
1.77316
1.89898
1.22803
1.22665
1.83366
1.22733
1.22614
1.56788
1.47205
1.2257
1.22521
1.35399
1.22539
1.2251
1.26362
1.23266
1.22505
1.22501
1.22714
1.22502
1.22501
1.22554
1.22502
1.22501
1.225
1.22501
1.225
1.225
1.225
1.225
1.225
1.225
1.2347
1.22501
1.22502
1.225
1.225
1.225
1.225
1.225
1.225
1.225
1.23047
1.22686
1.22545
1.22501
1.22501
1.28521
1.225
1.225
1.225
1.225
1.225
1.225
1.225
1.225
1.225
1.225
1.225
1.225
1.225
1.225
1.225
1.225
1.225
1.225
1.225
1.225
1.225
1.225
0.655693
0.550896
0.705248
1.1618
0.523453
0.665654
1.05397
0.471697
0.437893
1.22427
0.643647
1.9373
2.3313
0.603975
0.779417
1.98323
0.539854
0.50134
1.29259
1.60254
1.06295
2.58641
3.8115
1.00555
1.3362
2.32435
0.815456
0.82984
2.15876
2.31484
1.0466
1.68287
4.23222
1.82738
1.06198
1.62745
2.06781
2.42116
1.06898
1.31988
3.01179
4.19334
4.17427
1.22505
0.968389
1.4398
2.3647
2.90016
1.22949
0.725334
2.61869
1.27748
1.22515
1.225
1.45133
2.58838
1.22688
1.22878
1.225
1.27521
1.22501
1.225
1.225
2.54368
2.5634
1.225
1.225
1.225
1.27668
1.225
1.225
1.225
1.225
0.469069
0.507068
0.615856
0.487515
0.503141
0.534998
0.670316
0.525914
0.536876
0.460915
0.498441
0.4339
0.507682
0.460877
0.551767
0.541691
0.733725
0.532275
0.717736
0.483893
0.722927
0.618718
0.573629
0.928403
0.827992
0.968382
1.06365
0.979034
1.20578
1.23825
0.851553
0.959518
1.47308
1.81948
1.24379
1.21961
0.808523
0.979667
1.17805
0.688315
1.18415
0.968054
0.978801
0.849846
0.990016
0.826359
1.12317
1.4703
1.06908
1.34223
1.3188
1.92496
1.24416
1.63334
1.99581
1.38685
1.47208
2.13608
2.53623
1.69894
1.65024
0.97956
0.822988
1.11099
1.31432
1.22396
1.56421
1.5848
0.658151
0.95746
0.973584
0.479653
0.478405
0.486724
0.721714
0.559639
0.566284
0.871439
1.05996
0.753595
0.745217
0.543483
0.586907
0.586747
0.805622
0.925215
0.910831
1.16661
1.14462
1.25547
1.29058
1.44693
1.41379
1.22118
0.824398
1.12505
1.22916
1.37345
1.04207
1.36928
2.13003
1.2446
1.49955
2.17633
3.27451
1.50203
1.76234
2.76469
1.68735
1.71374
3.45986
3.14127
1.94555
2.63356
0.800027
0.798325
0.473612
0.474791
0.479244
0.484811
0.512499
0.489517
0.52668
0.494621
0.495912
0.494408
0.501464
0.503548
0.518836
0.537436
0.50445
0.535318
0.533435
0.512159
0.513377
0.560071
0.466933
0.476675
0.487629
0.514199
0.495834
0.240913
0.446436
0.44202
0.348215
0.427541
0.338714
0.248285
0.548533
0.592225
0.60078
0.655422
0.752089
0.667376
0.582215
0.642959
0.272404
0.465028
0.362051
0.517285
0.258685
0.498947
0.380988
0.64717
0.716845
0.643995
0.917012
0.855795
0.79034
0.940044
0.806169
0.979479
0.896193
0.959126
0.882978
0.978335
1.06029
0.88361
0.950845
1.06691
1.03748
1.06834
1.26069
1.13874
1.11756
1.01452
1.16192
1.08457
0.900231
0.859004
0.967808
0.940897
1.03493
0.978684
1.24478
1.10066
1.34317
1.25358
1.18634
1.1125
1.40852
0.783303
0.917706
0.888226
0.883581
1.06064
0.949265
1.04268
1.13274
1.00671
0.362546
0.67276
0.4708
0.769509
0.334773
0.756215
0.511996
1.04992
1.15952
1.03029
0.945546
0.975447
0.895084
1.04501
0.890358
1.04229
0.950447
0.893835
0.843302
0.915202
0.895558
0.934669
0.988074
1.09097
1.15387
1.0138
1.09499
0.988601
1.03763
1.26836
1.06794
1.16503
1.14722
1.17135
1.14864
1.25672
1.39699
1.40003
1.26042
1.46315
1.28385
1.52792
1.36758
1.34856
1.20289
1.28368
1.37587
1.21505
1.32362
1.42675
1.49117
1.55768
1.73398
1.51207
1.63431
1.44817
1.57998
1.70334
1.49393
1.39291
1.51257
1.56285
1.63049
1.51966
1.82682
1.61237
1.86036
1.69952
1.74951
1.62049
1.93369
0.895749
1.04303
0.949045
0.910401
0.88727
1.0824
1.00605
0.97978
1.25523
1.43784
1.36122
1.19289
1.34516
1.31196
1.51956
1.46652
1.42821
1.53339
1.5689
1.50214
0.599323
0.598126
0.457772
0.724716
0.419556
0.659616
0.652533
0.882184
0.237854
0.41479
0.331398
0.439654
0.420434
0.334631
0.235529
0.289622
0.561726
0.602082
0.435251
0.544256
0.405348
0.310447
0.659329
0.539812
0.632033
0.591678
0.683111
0.55214
0.689106
0.994822
0.617614
0.721055
0.723299
1.08061
0.631119
0.737493
1.17216
0.682113
0.958963
1.14927
1.60743
0.794991
1.1911
0.966393
0.874677
0.908426
1.04769
0.972993
1.08117
1.66452
1.04761
1.31068
1.4928
2.29635
1.49528
1.94837
1.75605
0.990562
1.27616
1.89519
2.20175
1.10087
1.5798
1.43542
1.04625
1.4836
1.45868
2.13175
1.31835
2.02637
3.15884
1.66166
2.1658
2.67232
4.06778
2.30496
2.97222
2.36833
1.3876
1.73046
2.59948
3.04866
1.65286
2.52047
0.571743
0.565052
0.609049
0.596186
0.625907
0.612342
0.650988
0.673011
0.788168
0.758144
0.697085
0.676032
0.82106
0.724695
0.78239
0.701886
0.746297
0.938721
1.2086
0.798138
1.12076
3.02702
2.1389
2.7304
2.75861
1.24856
2.6773
1.27834
1.89223
1.87358
2.15365
1.22501
1.225
0.484704
0.301581
0.422662
0.396819
0.391543
0.524286
0.88011
0.345303
0.490407
0.318138
0.456237
0.451513
0.7607
0.518167
0.731746
0.505387
0.767288
0.700263
1.07643
0.698213
0.779264
1.98419
1.45114
0.947301
2.27505
1.82158
1.22845
1.225
1.225
1.225
1.225
2.26003
1.22501
1.225
1.225
1.225
1.225
1.22522
1.225
1.225
1.225
1.225
1.225
1.225
1.225
1.225
1.225
1.225
1.225
1.225
1.225
1.225
1.225
1.225
0.333374
0.362789
0.314317
0.342974
0.38901
0.493756
0.392484
0.424148
0.504686
0.421872
0.362631
0.389055
0.421211
0.419264
0.41801
0.395104
0.584378
0.579245
0.568251
0.452112
0.678752
0.810531
0.622344
0.418196
0.579714
0.621811
0.729548
0.651395
0.681151
0.811458
0.90176
0.700447
0.652101
0.903103
0.417958
0.394226
0.421824
0.351972
0.391537
0.48376
0.497133
0.531102
0.557455
0.62523
0.74518
0.788666
0.84229
0.817029
0.862324
0.98311
0.334171
0.362844
0.332736
0.364509
0.364468
0.334225
0.332712
0.31196
0.326331
0.312158
0.325627
0.3409
0.372095
0.388327
0.35676
0.371834
0.341248
0.35599
0.425376
0.393059
0.420542
0.394869
0.39532
0.423832
0.42227
0.453092
0.445954
0.450585
0.448632
0.43443
0.403178
0.421701
0.453715
0.403505
0.433042
0.454576
0.46277
0.482283
0.460309
0.48453
0.33265
0.364386
0.334262
0.326581
0.312288
0.371921
0.356923
0.341312
0.441402
0.446495
0.402309
0.451645
0.430815
0.477965
0.456045
0.387832
0.351402
0.349639
0.390627
0.423593
0.416744
0.384174
0.461949
0.382499
0.460323
0.426073
0.434495
0.494601
0.43759
0.491618
0.473251
0.514856
0.578078
0.53635
0.513384
0.475899
0.533871
0.534103
0.451648
0.485744
0.497485
0.486511
0.497314
0.5327
0.568882
0.516216
0.518964
0.565066
0.593754
0.553482
0.623323
0.663546
0.553861
0.590817
0.668469
0.631479
0.700595
0.625316
0.711014
0.38461
0.462408
0.426784
0.495252
0.438472
0.515377
0.536989
0.476676
0.511614
0.560669
0.553024
0.660609
0.588596
0.694189
0.620218
0.621465
0.556966
0.55394
0.624655
0.6742
0.65
0.603321
0.732135
0.60058
0.730041
0.677388
0.690303
0.759629
0.693747
0.755701
0.750662
0.817368
0.898472
0.828751
0.814566
0.754262
0.824725
0.853583
0.701551
0.74805
0.788469
0.754936
0.789716
0.84487
0.603984
0.733251
0.678285
0.759808
0.694355
0.818809
0.829722
0.75532
0.859139
0.817171
0.812379
0.864322
0.39419
0.312248
0.339987
0.304229
0.41629
0.318024
0.346714
0.517161
0.400402
0.505983
0.450243
0.555345
0.427796
0.517143
0.452245
0.321343
0.424192
0.425348
0.615364
0.405166
0.591967
0.605187
0.461953
0.656127
0.670921
0.863659
0.715372
0.741873
0.669052
0.510391
0.733908
0.611152
0.827767
0.618153
0.806641
0.798674
0.939534
0.766757
0.945881
0.892074
1.10162
0.848099
1.03879
0.677791
1.51045
2.33102
1.56245
1.46747
1.22504
1.22502
1.225
1.225
0.77074
0.542538
0.612015
0.62365
0.714891
0.57349
0.484991
0.505373
0.486397
0.36718
0.38191
0.461886
0.657197
0.531384
0.562591
0.516074
0.420981
0.399674
0.55046
0.811371
0.809492
0.803198
0.553016
0.796118
0.511924
0.497666
0.357154
0.55247
0.544799
0.385945
0.602675
0.305109
0.277245
0.320866
0.512453
0.743781
0.277449
0.298001
0.298294
0.320282
0.454017
0.45473
0.512068
0.693536
0.693203
0.708022
0.675762
0.76482
0.74496
0.74439
0.674668
0.742364
0.303908
0.279297
0.305595
0.357331
0.57386
0.783332
0.792248
0.710032
0.985772
0.305873
0.277751
0.304088
0.279526
0.280044
0.30564
0.30422
0.285362
0.297416
0.285374
0.285395
0.318664
0.356315
0.353576
0.400306
0.45092
0.397161
0.401267
0.509144
0.573518
0.570773
0.635145
0.690555
0.632498
0.635451
0.640333
0.672904
0.610422
0.711875
0.608813
0.708542
0.641782
0.661459
0.73322
0.761058
0.670448
0.732424
0.6602
0.686928
0.740401
0.785642
0.781069
0.609007
0.709197
0.638752
0.724933
0.668573
0.651894
0.257001
0.252902
0.263477
0.271994
0.252638
0.272291
0.289231
0.29145
0.358838
0.414851
0.292054
0.415672
0.462093
0.468806
0.623096
0.630777
0.469192
0.629932
0.23464
0.253383
0.230489
0.255834
0.256399
0.234114
0.23098
0.238785
0.260949
0.271514
0.248189
0.261068
0.238641
0.247789
0.230205
0.25559
0.233902
0.260906
0.248481
0.238579
0.291457
0.290053
0.264987
0.323942
0.263792
0.321412
0.293736
0.328536
0.36469
0.41184
0.377774
0.361725
0.331285
0.374902
0.265586
0.32499
0.294727
0.36572
0.378707
0.332375
0.475965
0.466123
0.427678
0.524341
0.425162
0.522161
0.477814
0.525129
0.579081
0.628885
0.571492
0.577315
0.526338
0.570433
0.428167
0.52447
0.477867
0.578978
0.570293
0.525906
0.684598
0.446598
0.333126
0.50937
0.31319
0.470862
0.476901
0.420497
0.619098
0.491145
0.358986
0.436056
0.617678
0.466448
0.615989
0.649233
0.549788
0.519184
0.604825
0.662811
0.804655
0.44559
0.395406
0.426054
0.456364
0.483002
0.430978
0.464309
0.467542
0.486309
0.45673
0.528648
0.50553
0.495214
0.524336
0.3017
0.312907
0.312388
0.328179
0.339383
0.33906
0.328094
0.518022
0.563839
0.598784
0.563521
0.525005
0.434494
0.462607
0.259835
0.257607
0.254599
0.235772
0.234353
0.237797
0.232162
0.394902
0.393369
0.43286
0.375507
0.409232
0.410246
0.447375
0.479248
0.521495
0.476602
0.483549
0.446514
0.486498
0.523435
0.517963
0.516529
0.551401
0.555283
0.554418
0.587572
0.589576
0.313948
0.322089
0.312785
0.331441
0.351861
0.3413
0.342052
0.313183
0.285876
0.287467
0.292562
0.293384
0.319486
0.319033
0.261753
0.272427
0.271439
0.239433
0.24862
0.240976
0.247758
0.561204
0.561984
0.604468
0.518122
0.556471
0.558057
0.596656
0.334632
0.381746
0.370199
0.40777
0.379265
0.367892
0.419741
1.05115
0.809621
0.860633
0.65019
0.864272
0.684168
0.911407
0.414303
0.473026
0.465243
0.455637
0.516525
0.466578
0.509665
0.355899
0.366438
0.383712
0.394882
0.366592
0.384805
0.355371
0.291351
0.296746
0.30122
0.305942
0.329734
0.323705
0.334796
0.583129
0.621664
0.587238
0.655101
0.621407
0.626002
0.661274
0.307642
0.309084
0.306831
0.281378
0.283562
0.281232
0.278821
0.485097
0.465406
0.46543
0.510376
0.510952
0.492455
0.491861
0.491132
0.558894
0.521104
0.502944
0.467325
0.50356
0.543427
0.555669
0.644445
0.67214
0.614066
0.866986
0.672536
0.504176
0.514776
0.56416
0.565209
0.614056
0.563334
0.561594
0.610401
0.288928
0.319004
0.319132
0.288487
0.289201
0.262748
0.262741
0.590074
0.57119
0.546464
0.536799
0.615101
0.581194
0.567044
0.340868
0.36941
0.370608
0.347239
0.375445
0.376636
0.346546
0.360171
0.399739
0.383348
0.406319
0.369969
0.390368
0.373306
0.359074
0.408677
0.40912
0.371229
0.324841
0.372117
0.325801
0.646871
0.691784
0.648722
0.633868
0.596143
0.636743
0.675202
0.312449
0.287873
0.286031
0.298406
0.2973
0.326663
0.325457
0.326862
0.361334
0.355305
0.353303
0.391189
0.398153
0.35938
0.4293
0.514667
0.472866
0.483611
0.44661
0.487596
0.528907
0.462802
0.43531
0.464253
0.448676
0.449017
0.47695
0.47601
0.969847
0.836511
0.707382
0.961404
0.723514
0.88153
1.02223
0.398768
0.4575
0.451839
0.495221
0.438368
0.4457
0.50176
0.519704
0.463415
0.517589
0.472646
0.421444
0.47401
0.42262
0.566579
0.567431
0.520215
0.529131
0.616201
0.574445
0.567366
0.598848
0.64857
0.59819
0.684011
0.632094
0.634423
0.686478
1.02668
1.4087
0.979316
0.674912
1.01601
0.781792
1.34913
0.493649
0.496748
0.472541
0.545289
0.519688
0.500795
0.526462
0.445946
0.452106
0.413098
0.423916
0.453971
0.414739
0.443781
0.39336
0.377472
0.360456
0.352444
0.398794
0.382989
0.365781
0.447524
0.414987
0.440459
0.501729
0.403199
0.459744
0.489577
0.507067
0.56485
0.564725
0.554057
0.615816
0.615411
0.557674
0.615242
0.657201
0.664494
0.666082
0.706372
0.658614
0.717871
0.708413
0.609475
0.652938
0.654465
0.603149
0.64258
0.695708
0.654881
0.691616
0.69213
0.692084
0.696936
0.739079
0.74005
0.335617
0.336773
0.334753
0.365507
0.363508
0.36678
0.364963
0.499526
0.556978
0.563907
0.609447
0.510402
0.546201
0.557631
0.441605
0.49619
0.472338
0.478188
0.455364
0.484913
0.510131
0.317464
0.351809
0.351338
0.385927
0.349536
0.348494
0.386977
0.626847
0.575033
0.57195
0.568256
0.56976
0.52214
0.523759
0.718329
0.73113
0.769841
0.668139
0.702481
0.711557
0.751175
0.676046
0.695643
0.701092
0.5922
0.627122
0.597953
0.557602
0.702137
0.720874
0.666702
0.671919
0.766787
0.72617
0.708713
0.454528
0.430503
0.484926
0.440604
0.462333
0.421781
0.476036
0.721236
0.730522
0.668508
0.613227
0.670065
0.613012
0.662058
0.5368
0.565224
0.537568
0.520228
0.547975
0.549092
0.519321
0.341195
0.389875
0.373875
0.357167
0.388346
0.37218
0.355844
0.432789
0.402013
0.434859
0.439681
0.405705
0.407414
0.437492
0.596368
0.537156
0.583436
0.585586
0.570253
0.634031
0.62333
0.39469
0.448608
0.448494
0.432656
0.491147
0.433926
0.48998
0.387656
0.470351
0.42954
0.437272
0.431125
0.394153
0.47895
0.675274
0.669815
0.621335
0.735472
0.676833
0.671916
0.727118
0.7563
0.743163
0.69839
0.683803
0.782746
0.739227
0.723878
0.734282
0.747816
0.709002
0.809559
0.750035
0.765795
0.790614
0.522698
0.492076
0.494069
0.505668
0.533826
0.535427
0.504278
0.636366
0.668617
0.628456
0.73123
0.684533
0.677974
0.727479
0.541495
0.557573
0.600666
0.519995
0.570589
0.555249
0.612271
0.567824
0.506449
0.565291
0.618371
0.551554
0.551687
0.616123
0.409859
0.463645
0.443736
0.448471
0.433259
0.414977
0.469083
0.525885
0.541787
0.480678
0.488965
0.600784
0.535173
0.549406
0.705507
0.667389
0.671018
0.642213
0.607964
0.60875
0.641721
0.572029
0.572554
0.54582
0.529171
0.585835
0.557812
0.55609
0.514335
0.51115
0.508153
0.47806
0.482546
0.484993
0.475406
0.77381
0.848287
0.788993
0.72304
0.761965
0.711877
0.777924
0.865368
0.795448
0.802671
0.742853
0.739145
0.796734
0.794965
0.427928
0.428866
0.394428
0.398464
0.431062
0.396397
0.42523
0.577627
0.528948
0.478856
0.545004
0.518046
0.58886
0.533156
0.422627
0.383361
0.416755
0.464215
0.381739
0.424587
0.460864
0.734344
0.660805
0.604939
0.671731
0.671389
0.666481
0.609398
1.06892
0.787338
1.04159
0.792133
0.795943
1.08496
1.35079
0.535559
0.529789
0.503683
0.514809
0.573363
0.545123
0.541608
0.732014
0.615247
0.665759
0.670272
0.622445
0.672534
0.729378
0.706375
0.746024
0.747593
0.776684
0.774319
0.824515
0.823726
1.01597
1.15531
1.80784
1.30449
2.03895
1.83421
0.990355
1.84915
1.43218
1.22043
1.64781
1.112
1.01592
1.41353
0.763567
0.723347
0.821217
0.672083
0.719191
0.755671
0.814593
0.743967
0.814191
0.748638
0.871241
0.797579
0.799695
0.875138
0.687103
0.629159
0.624746
0.750855
0.743089
0.686088
0.68096
0.758416
0.72372
0.716863
0.789188
0.838265
0.825538
0.778499
0.875891
0.805452
0.797061
0.756839
0.816565
0.744432
0.801813
0.437007
0.406452
0.459615
0.422306
0.440062
0.404514
0.456761
0.528231
0.522333
0.548401
0.488066
0.519934
0.494935
0.51193
0.853605
0.78582
0.831952
0.82963
0.763753
0.811461
0.88893
0.792845
0.773634
0.851893
0.713115
0.757921
0.781249
0.83394
1.07598
0.785376
0.785952
0.922553
0.707363
0.650533
0.943964
0.472614
0.518745
0.536261
0.579774
0.475224
0.514513
0.533566