/*--------------------------------*- C++ -*----------------------------------*\
  =========                 |
  \\      /  F ield         | OpenFOAM: The Open Source CFD Toolbox
   \\    /   O peration     | Website:  https://openfoam.org
    \\  /    A nd           | Version:  9
     \\/     M anipulation  |
\*---------------------------------------------------------------------------*/
FoamFile
{
    format      ascii;
    class       volScalarField;
    location    "0.0032";
    object      rho.air;
}
// * * * * * * * * * * * * * * * * * * * * * * * * * * * * * * * * * * * * * //

dimensions      [1 -3 0 0 0 0 0];

internalField   nonuniform List<scalar> 
27819
(
0.0564716
0.0377901
0.0782993
0.0590023
0.154527
0.106978
0.0468549
0.0628777
0.0620638
0.0492364
0.0745972
0.105154
0.119261
0.09313
0.137779
0.0276291
0.0388711
0.0284991
0.0427742
0.0702873
0.0526199
0.105308
0.125211
0.132506
0.0529726
0.0525411
0.0416293
0.0483465
0.0542442
0.0428675
0.051587
0.0568671
0.0530117
0.069768
0.0530983
0.0596331
0.0463692
0.0643485
0.0423542
0.0356666
0.0309429
0.0877568
0.083146
0.0628801
0.0888419
0.0748171
0.0981497
0.0756512
0.10301
0.103588
0.131736
0.111185
0.113987
0.0914037
0.12209
0.0814529
0.0827742
0.0655536
0.181341
0.153799
0.136126
0.161503
0.147363
0.183048
0.166681
0.0900533
0.0977232
0.0837068
0.0823506
0.0949765
0.0899831
0.0776559
0.0646634
0.063697
0.0695345
0.0719071
0.0719491
0.0612499
0.0680775
0.125681
0.129584
0.13154
0.113177
0.110052
0.104966
0.124448
0.0579982
0.0595368
0.0609367
0.0597183
0.0608701
0.0578652
0.0566014
0.157403
0.156684
0.188592
0.197063
0.151445
0.193812
0.191691
1.44779
1.22529
1.22504
1.225
1.225
1.23059
1.225
1.225
1.24356
0.655708
1.78718
1.60674
1.601
1.61527
1.26785
1.39619
1.38165
1.26334
1.26906
1.52409
1.47935
1.58793
0.743106
1.10821
0.806418
0.912972
1.07575
0.802575
2.3106
0.694527
0.628031
0.658856
0.841795
0.817464
0.851649
0.799754
1.35787
1.27135
1.28222
1.38136
1.28506
1.34912
1.39728
1.34524
1.47026
1.18077
1.35403
1.36091
1.45863
1.14739
0.8002
0.698268
0.745074
0.894771
0.944664
0.894785
0.95719
1.46211
1.72232
1.83523
1.85232
1.50084
1.46024
1.41267
1.87501
1.11232
1.2693
1.45981
1.03651
1.43719
1.30416
1.31979
1.10368
1.044
1.25304
1.05163
1.22789
0.837212
1.25981
0.916452
1.54959
0.815298
1.1233
1.10102
0.765317
1.26937
1.22952
1.22501
1.22509
1.26044
1.80112
1.90403
1.232
1.225
1.225
1.22506
1.22549
1.2251
1.2256
1.225
1.225
1.225
1.225
1.225
1.225
1.225
1.225
1.225
1.225
1.225
1.225
1.225
1.225
1.225
1.225
1.225
1.225
1.225
1.225
1.225
1.225
1.225
1.225
1.225
1.225
1.225
1.225
1.225
0.819995
2.4984
1.2261
1.225
1.22506
1.24915
1.74977
1.67281
1.22808
1.225
1.225
1.22503
1.22524
1.22503
1.22518
1.225
1.225
1.225
1.225
1.225
1.225
1.225
1.225
1.225
1.225
1.225
1.225
1.225
1.225
1.225
1.225
1.225
1.225
1.225
1.225
1.225
1.225
1.225
1.225
1.225
1.225
1.225
1.225
1.225
1.12766
2.26041
1.22501
1.22502
1.23228
1.47196
1.2724
1.22521
1.225
1.225
1.22501
1.22502
1.225
1.225
1.225
1.225
1.225
1.225
1.225
1.225
1.225
1.225
1.225
1.225
1.225
1.225
1.225
1.225
1.225
1.225
1.225
1.225
1.225
1.225
1.225
1.225
1.225
1.225
1.225
1.225
1.225
1.225
1.225
1.84862
1.23812
1.22762
1.22507
1.22567
1.24158
1.22549
1.22516
1.22502
1.225
1.225
1.225
1.225
1.225
1.225
1.225
1.225
1.225
1.225
1.225
1.225
1.225
1.225
1.225
1.225
1.225
1.225
1.225
1.225
1.225
1.225
1.225
1.225
1.225
1.225
1.225
1.225
1.225
1.225
1.225
1.225
1.225
1.225
1.1906
1.72121
2.0843
1.26739
1.22501
1.80309
1.76157
1.29861
1.226
1.22512
1.225
1.30399
1.22624
1.22501
1.225
1.225
1.225
1.22501
1.225
1.225
1.225
1.225
1.225
1.225
1.225
1.225
1.225
1.225
1.225
1.225
1.225
1.225
1.225
1.225
1.225
1.225
1.225
1.225
1.225
1.225
1.225
1.225
1.225
1.225
1.225
1.225
1.225
1.16541
2.39901
1.45068
1.22538
1.22501
1.225
1.23782
2.06361
1.24357
1.22503
1.225
1.225
1.2264
1.22561
1.225
1.225
1.225
1.225
1.225
1.225
1.225
1.225
1.225
1.225
1.225
1.225
1.225
1.225
1.225
1.225
1.225
1.225
1.225
1.225
1.225
1.225
1.225
1.225
1.225
1.225
1.225
1.225
1.225
1.225
1.225
1.225
1.225
1.225
1.23654
1.23214
1.22502
1.225
1.225
1.225
1.22691
1.23244
1.22501
1.225
1.225
1.225
1.22501
1.225
1.225
1.225
1.225
1.225
1.225
1.225
1.225
1.225
1.225
1.225
1.225
1.225
1.225
1.225
1.225
1.225
1.225
1.225
1.225
1.225
1.225
1.225
1.225
1.225
1.225
1.225
1.225
1.225
1.225
1.225
1.225
1.225
1.225
1.225
1.22501
1.225
1.225
1.225
1.225
1.225
1.225
1.225
1.225
1.225
1.225
1.225
1.225
1.225
1.225
1.225
1.225
1.225
1.225
1.225
1.225
1.225
1.225
1.225
1.225
1.225
1.225
1.225
1.225
1.225
1.225
1.225
1.225
1.225
1.225
1.225
1.225
1.225
1.225
1.225
1.225
1.225
1.225
1.225
1.225
1.225
1.225
1.225
1.225
1.225
1.225
1.225
1.225
1.225
1.225
1.225
1.225
1.225
1.225
1.225
1.225
1.225
1.225
1.225
1.225
1.225
1.225
1.225
1.225
1.225
1.225
1.225
1.225
1.225
1.225
1.225
1.225
1.225
1.225
1.225
1.225
1.225
1.225
1.225
1.225
1.225
1.225
1.225
1.225
1.225
1.225
1.225
1.225
1.225
1.225
1.225
1.225
1.225
1.225
1.225
1.225
1.225
1.225
1.225
1.225
1.225
1.225
1.225
1.225
1.225
1.225
1.225
1.225
1.225
1.225
1.225
1.225
1.225
1.225
1.225
1.225
1.225
1.225
1.225
1.225
1.225
1.225
1.225
1.225
1.225
1.225
1.225
1.225
1.225
1.225
1.225
1.225
1.225
1.225
1.225
1.225
1.225
1.225
1.225
1.22866
1.22501
1.22701
1.22501
1.225
1.22501
1.225
1.22501
1.22508
1.2417
1.22506
1.23863
0.899071
1.3049
1.76544
0.911857
1.29335
1.78327
0.883811
1.83374
2.10713
0.777986
0.900378
1.86139
2.13331
1.22503
1.23191
1.22503
1.22848
1.22503
1.23085
1.22503
1.22501
1.22501
1.225
1.22501
1.22501
1.22501
1.225
1.23225
1.22502
1.22511
1.22505
1.23058
1.22501
1.22508
1.69169
1.22523
1.22822
1.25328
1.66087
1.22517
1.22725
1.22633
1.22501
1.225
1.225
1.22501
1.225
1.225
1.22505
1.23689
1.22502
1.23098
0.944617
1.28661
1.79288
0.993262
1.26001
1.78855
1.14871
1.8771
2.14429
0.954144
1.44289
1.88773
2.05379
1.22503
1.22813
1.22503
1.22501
1.22556
1.22501
1.225
1.225
1.225
1.225
1.225
1.225
1.225
1.22967
1.22501
1.22508
1.22503
1.22695
1.22501
1.22505
1.63658
1.22514
1.22676
1.23576
1.48278
1.22507
1.22557
1.22501
1.22631
1.225
1.225
1.22569
1.22506
1.22501
1.22923
1.22502
1.22592
1.09832
1.25095
1.75554
1.31633
1.23156
1.46301
1.60549
1.85622
1.91245
1.42438
2.28838
1.52057
1.3103
1.22502
1.22525
1.22501
1.22549
1.22546
1.22507
1.225
1.225
1.225
1.22529
1.22502
1.22502
1.225
1.22628
1.225
1.22502
1.22501
1.22522
1.225
1.22501
1.4087
1.22505
1.22534
1.22641
1.25677
1.22503
1.22506
1.23375
1.5479
1.23006
1.22553
1.56049
1.42062
1.2252
1.22547
1.33474
1.2317
1.61627
1.22837
1.34601
1.9417
1.22777
1.23204
2.41877
1.37219
1.25033
2.21299
1.51661
1.23077
1.22523
1.24532
1.22815
1.23013
1.59445
1.29916
1.33414
1.22518
1.22507
1.22503
1.52543
1.28772
1.22862
1.22516
1.22507
1.22501
1.22501
1.24827
1.22594
1.22506
1.22502
1.23968
1.22502
1.22503
1.22537
1.22571
1.22501
1.22501
1.40973
1.73952
1.75657
1.42893
1.71812
2.06374
1.96304
2.01848
1.6027
1.25079
2.1422
2.36313
1.63517
1.2338
1.79775
1.23442
1.22736
2.08846
1.26526
1.22722
1.22504
1.00815
1.9457
2.32707
1.21904
2.31128
1.07307
1.40766
1.58414
1.2274
0.944393
2.35781
1.9148
1.22733
1.22717
1.225
1.82997
2.4878
1.22606
1.22507
1.225
1.225
2.13286
1.25608
1.225
1.225
1.225
1.225
1.22512
1.225
1.225
1.225
1.225
1.225
1.225
1.225
1.225
1.225
1.225
1.225
0.482806
0.486968
0.650578
0.472759
0.673397
0.664456
0.568699
0.687268
0.499194
0.526085
0.897761
0.53646
0.73701
1.08815
0.610511
0.898451
0.705384
0.952444
0.828673
1.16766
0.715108
1.0634
0.911776
1.50056
0.781803
1.16952
1.05247
1.05977
1.37501
1.78329
1.66923
1.41459
2.21334
1.51759
2.51688
1.9971
2.26401
0.828111
0.835279
0.973099
1.13809
0.952229
1.28146
1.00225
1.5414
1.36246
1.33761
1.60721
1.39619
1.61191
1.87591
2.29876
1.53474
1.92696
2.23582
1.7699
2.56486
2.40714
1.57551
1.20705
1.01221
1.6309
1.57992
1.29397
1.07092
1.15857
1.56458
1.33779
1.486
1.41303
1.89261
1.51989
1.69053
2.10237
1.95175
2.0099
2.03962
2.03777
1.93297
1.88802
1.55147
1.68592
1.51129
1.78841
1.22533
1.22848
1.22541
1.22834
1.22816
1.22538
1.22536
1.22504
1.22501
1.22505
1.22501
1.22501
1.22505
1.22504
1.22527
1.22774
1.22683
1.22524
1.22755
1.22532
1.2252
1.22503
1.22501
1.22501
1.22503
1.22501
1.22504
1.22503
1.225
1.225
1.225
1.225
1.225
1.225
1.225
1.225
1.22502
1.225
1.22501
1.22501
1.225
1.225
1.225
1.225
1.225
1.225
1.225
1.225
1.225
1.225
1.22501
1.22501
1.225
1.22501
1.225
1.225
1.22565
1.22511
1.2255
1.22507
1.2251
1.22548
1.22568
1.22903
1.24674
1.22799
1.24112
1.24605
1.22787
1.22918
1.22561
1.22507
1.22508
1.22537
1.22509
1.22543
1.22554
1.22876
1.24007
1.24329
1.22737
1.24489
1.22767
1.22838
0.902717
0.846259
0.850712
1.34661
1.2239
1.23394
1.33901
1.40393
1.31395
1.47159
1.30262
1.31183
1.46874
1.40374
0.859194
0.926169
0.875012
1.3645
1.28584
1.25348
1.3922
1.4049
1.29871
1.3035
1.45726
1.30837
1.46421
1.40562
1.22508
1.22617
1.22516
1.22513
1.2251
1.22501
1.225
1.22502
1.225
1.22502
1.225
1.22502
1.22501
1.225
1.225
1.22501
1.225
1.22501
1.22501
1.225
1.225
1.225
1.225
1.225
1.225
1.225
1.225
1.22501
1.225
1.22501
1.225
1.22501
1.225
1.225
1.225
1.225
1.225
1.225
1.225
1.225
1.225
1.225
1.225
1.225
1.225
1.225
1.225
1.22536
1.22507
1.22532
1.22504
1.22545
1.22505
1.22525
1.22743
1.24132
1.227
1.23494
1.22793
1.23905
1.22662
1.22527
1.22503
1.22503
1.22513
1.22504
1.22519
1.2252
1.22692
1.23292
1.23411
1.22591
1.2366
1.22625
1.22643
0.897175
0.96838
0.92765
1.4756
1.33063
1.4292
1.38888
1.4045
1.29734
1.44701
1.27854
1.4061
1.28989
1.43227
0.968081
1.02294
1.02335
1.53383
1.53499
1.45797
1.60046
1.40054
1.26947
1.27265
1.38515
1.28139
1.41184
1.39359
1.22506
1.225
1.22501
1.22502
1.22501
1.22503
1.22505
1.22542
1.22518
1.22667
1.22727
1.22523
1.22533
1.22779
1.22501
1.225
1.225
1.22501
1.225
1.22501
1.22501
1.225
1.225
1.225
1.225
1.225
1.225
1.225
1.22506
1.22509
1.22592
1.22534
1.22512
1.22504
1.22547
1.22502
1.22501
1.22509
1.22515
1.22501
1.22502
1.22521
1.22508
1.22502
1.22509
1.22501
1.22513
1.22501
1.22505
1.22566
1.23177
1.22562
1.22779
1.22601
1.22971
1.22539
1.22505
1.22501
1.22504
1.22502
1.22501
1.22503
1.22504
1.22539
1.22668
1.22673
1.22512
1.228
1.22523
1.22521
1.19784
1.07433
1.1486
1.72175
1.6183
1.66342
1.7043
1.36685
1.2634
1.35346
1.24293
1.38302
1.25402
1.32028
1.45891
1.248
1.37144
1.77299
1.86296
1.79392
1.80646
1.34212
1.23638
1.23787
1.26386
1.24534
1.28925
1.31018
1.29972
1.23541
1.23906
1.27471
1.24123
1.27926
1.29897
1.37779
1.4184
1.33679
1.52128
1.37001
1.4515
1.29706
1.24719
1.2313
1.22768
1.25656
1.22859
1.26024
1.24362
1.2382
1.22585
1.22626
1.22959
1.22685
1.23204
1.23485
1.31853
1.3746
1.37488
1.54786
1.34761
1.3294
1.40122
1.29296
1.25973
1.41328
1.49943
1.2714
1.29008
1.41439
1.22628
1.22534
1.22508
1.22686
1.22514
1.22823
1.22567
1.22553
1.22589
1.22508
1.22528
1.22515
1.22557
1.22527
1.23741
1.24086
1.38736
1.27429
1.25127
1.23125
1.32894
1.22995
1.22588
1.24499
1.24365
1.22706
1.22722
1.27564
1.77304
1.63766
1.50649
1.7715
1.90158
1.81125
1.8886
1.25419
1.23218
1.24598
1.22658
1.2792
1.22854
1.23502
1.89801
1.80865
1.75451
1.68238
1.62623
1.80258
1.55383
1.23844
1.22588
1.23335
1.22752
1.22708
1.22934
1.23272
1.54946
1.25534
1.37042
1.74647
1.83175
1.66273
1.91857
2.08218
1.83273
1.9153
2.09167
1.87174
1.98507
1.99153
0.775311
0.49839
0.545367
0.878201
0.709481
1.08612
1.18107
0.712632
1.17344
0.772178
1.28044
1.00332
1.36854
1.43259
0.891963
1.51104
0.935954
1.55379
1.28019
0.48394
0.555735
0.559795
0.295077
0.395143
0.398424
0.293583
0.564236
0.492004
0.572821
0.29809
0.411553
0.402758
0.304455
0.585249
0.51017
0.603678
0.326628
0.424671
0.31368
0.443361
0.629227
0.662826
0.548289
0.34332
0.498293
0.468059
0.363538
0.759157
0.578217
0.620341
0.410193
0.533129
0.386411
0.572537
0.392051
0.85543
0.94908
0.61369
0.845871
0.556805
0.429738
0.923497
0.679526
0.757952
0.43617
0.673792
0.618506
0.469837
1.24667
1.02255
0.868338
0.593234
0.745367
0.518144
0.847369
1.48186
1.53654
1.22958
0.716002
1.26723
1.0072
0.926733
0.898036
0.680563
0.728432
0.682008
0.540684
0.504328
0.738964
0.846533
0.652784
1.06888
0.596808
0.969914
0.92226
1.05257
0.779789
0.83454
0.87184
0.581225
0.627124
0.802021
1.2326
0.894772
0.967395
0.948646
0.739944
0.681593
1.02905
1.15864
1.28379
0.862528
1.46234
0.820857
1.38124
1.22104
1.45983
1.05418
1.15255
1.19007
0.797429
0.856924
1.10896
1.76203
1.27579
1.41867
1.27517
0.982241
0.916551
1.36823
2.08597
1.60251
1.7979
1.65694
1.0681
1.21476
1.48735
0.527376
1.05659
0.680045
1.15608
0.473771
1.16612
0.760188
0.587911
1.26122
1.35558
1.02225
1.25909
0.861486
0.700604
1.09691
0.921585
0.992016
1.22475
1.13585
1.29336
1.1933
1.22516
1.24584
0.905088
1.22522
1.22531
1.22512
1.23062
1.22869
1.25578
1.44049
1.58288
0.706411
0.781447
0.864474
1.39754
1.56199
1.22579
1.22568
1.22505
1.22543
1.22518
1.22504
1.22536
1.22506
1.22503
1.22511
1.22511
1.22503
1.22518
1.22503
1.2252
1.22509
1.2257
1.22593
1.23155
1.22868
1.22612
1.22557
1.22939
1.31911
1.25882
1.24627
1.35792
1.24898
1.33652
1.32938
1.37633
1.47472
1.21868
1.48469
1.37097
1.46924
1.25832
0.764153
0.63661
0.596666
0.631036
0.442895
0.471701
0.585961
1.02759
1.0007
0.798067
0.935132
0.856918
1.06347
1.10579
1.22505
1.23414
1.7733
1.22645
1.22504
1.22501
1.22501
1.79623
1.64471
1.79096
1.80641
1.49666
1.99136
1.26375
1.41911
1.2349
1.2254
2.05943
1.42748
1.2379
1.22527
1.22789
1.22513
1.22502
1.2811
1.22586
1.22507
1.22501
1.22521
1.22501
1.225
1.22521
1.22501
1.225
1.225
1.6406
2.19966
1.78509
2.31096
1.37424
1.73313
1.96378
1.62221
1.90464
2.00941
2.17719
1.72542
1.57255
1.22935
2.40129
1.22693
2.35435
1.38855
1.227
1.22583
1.22501
1.58038
1.22964
1.22501
1.22544
1.22501
1.22502
1.225
1.57094
1.58475
1.66782
1.76792
1.59192
1.6681
1.56644
1.5802
1.77412
1.63064
1.67268
1.6072
1.67007
1.59383
1.63336
1.66075
1.67416
1.8
1.61121
1.69596
1.67194
1.6579
1.80042
1.77485
1.63909
1.73498
1.66215
1.68117
1.71136
1.81085
1.5954
1.69038
1.7001
1.83884
1.52858
1.70269
1.58843
1.81568
1.36154
1.8454
1.44472
1.66091
1.46069
1.72852
1.29719
1.27668
1.57746
1.56804
1.25894
1.34351
1.24526
1.28801
1.23061
1.39346
1.23932
1.27396
1.80546
1.56344
1.79356
1.84537
1.67403
1.66767
1.92583
1.91854
1.84266
1.80725
1.93452
1.77018
1.99563
1.96514
1.98157
1.86903
1.41564
1.78029
1.80928
2.03389
1.51945
1.7807
1.4363
1.29716
1.25896
1.64009
1.50876
1.32956
1.95631
1.95136
1.89935
1.39077
1.44161
1.46293
1.30638
1.26386
1.30761
1.22916
1.2363
1.26133
1.32939
1.22896
1.242
1.24866
1.22811
1.22572
1.25384
1.23289
1.22662
1.22533
1.30904
2.31827
2.06123
2.68283
2.58539
1.25513
1.06559
1.67499
2.20206
1.19397
1.14948
1.54939
1.58807
1.43598
2.32684
1.81218
1.40827
2.02094
2.26185
2.56807
2.27225
1.23595
2.51016
2.43604
2.63473
2.59677
1.99336
2.24938
1.26489
1.22502
2.59849
1.45067
1.30782
1.22614
1.59581
1.45265
1.38588
1.81981
1.08862
1.65201
1.88634
2.08456
2.1869
1.95332
1.90701
1.69614
1.41606
2.17618
1.38371
1.58204
1.33209
1.66519
1.44285
1.74317
1.51766
1.5099
1.27358
1.49232
1.24066
1.40097
1.18378
1.16586
1.97927
1.22945
1.22776
1.77313
1.89896
1.22803
1.22665
1.83364
1.22733
1.22614
1.56787
1.47205
1.2257
1.22521
1.35399
1.22539
1.2251
1.26362
1.23266
1.22505
1.22501
1.22714
1.22502
1.22501
1.22554
1.22502
1.22501
1.225
1.22501
1.225
1.225
1.225
1.225
1.225
1.225
1.2347
1.22501
1.22502
1.225
1.225
1.225
1.225
1.225
1.225
1.225
1.23047
1.22686
1.22545
1.22501
1.22501
1.28521
1.225
1.225
1.225
1.225
1.225
1.225
1.225
1.225
1.225
1.225
1.225
1.225
1.225
1.225
1.225
1.225
1.225
1.225
1.225
1.225
1.225
1.225
0.229941
0.373191
0.524257
1.11645
0.462419
0.62409
1.04827
0.440537
0.427041
1.19723
0.554115
1.93103
2.32769
0.566547
0.751879
1.98242
0.51787
0.492892
1.25902
1.58286
1.04068
2.58265
3.81094
0.99431
1.331
2.32413
0.806373
0.825503
2.15015
2.31034
1.02177
1.67403
4.23176
1.82737
1.05514
1.62419
2.06652
2.42114
1.06352
1.31506
3.01108
4.19292
4.17406
1.22505
0.959695
1.43586
2.36385
2.89989
1.22949
0.721639
2.61842
1.27748
1.22515
1.225
1.44785
2.58759
1.22688
1.22878
1.225
1.27521
1.22501
1.225
1.225
2.54351
2.56338
1.225
1.225
1.225
1.27668
1.225
1.225
1.225
1.225
0.42991
0.475493
0.568157
0.454366
0.483837
0.478355
0.630001
0.497729
0.518879
0.423896
0.468395
0.418471
0.481085
0.446219
0.541282
0.516443
0.721716
0.508181
0.706215
0.470875
0.711967
0.611573
0.567854
0.916185
0.818147
0.959974
1.05598
0.97238
1.19987
1.2314
0.842186
0.953344
1.46863
1.81709
1.23823
1.21536
0.799007
0.973189
1.1721
0.68247
1.17843
0.960353
0.972858
0.839271
0.983208
0.821096
1.11978
1.46613
1.06345
1.33734
1.31379
1.92323
1.24117
1.63112
1.99413
1.38227
1.46924
2.13485
2.53567
1.6969
1.64867
0.973872
0.817973
1.10771
1.30935
1.22101
1.56181
1.58248
0.653761
0.953912
0.971389
0.453328
0.447324
0.460305
0.690061
0.536416
0.550605
0.856238
1.04984
0.742162
0.737364
0.523611
0.56956
0.570746
0.797109
0.917494
0.903613
1.1613
1.14012
1.25113
1.28599
1.44298
1.40999
1.21561
0.819885
1.12244
1.22398
1.3693
1.03801
1.36786
2.12882
1.24242
1.49795
2.17503
3.27418
1.50098
1.76172
2.76433
1.68606
1.71276
3.45964
3.14123
1.94513
2.63348
0.796935
0.79512
0.4297
0.436087
0.435929
0.448485
0.477654
0.449069
0.493921
0.456816
0.468284
0.461372
0.463875
0.475822
0.486118
0.505895
0.472898
0.503803
0.508848
0.476486
0.486494
0.531587
0.430287
0.442218
0.457913
0.490756
0.470202
0.2325
0.430984
0.42506
0.338406
0.409381
0.32852
0.240263
0.520931
0.572761
0.579648
0.640348
0.739241
0.651104
0.563599
0.628537
0.266372
0.450264
0.353167
0.506397
0.251522
0.486781
0.373387
0.633545
0.706572
0.631278
0.908075
0.845426
0.780155
0.931784
0.795392
0.97098
0.887606
0.951256
0.875232
0.971207
1.05386
0.875359
0.943298
1.06024
1.03003
1.06133
1.25496
1.13253
1.11056
1.0072
1.15571
1.07742
0.890457
0.85032
0.959976
0.931939
1.02702
0.971453
1.23906
1.09404
1.33798
1.24848
1.17991
1.10644
1.40399
0.773384
0.909623
0.879799
0.876016
1.05429
0.941835
1.03572
1.12654
0.999461
0.359808
0.666167
0.466544
0.764632
0.331458
0.750671
0.508492
1.04327
1.15414
1.02407
0.939265
0.968834
0.888723
1.03998
0.88321
1.03659
0.944959
0.887675
0.837017
0.910674
0.89027
0.929232
0.98263
1.08679
1.14992
1.00989
1.09019
0.983926
1.03298
1.26375
1.06183
1.15964
1.14253
1.16574
1.1435
1.25231
1.39289
1.3954
1.25525
1.45925
1.27874
1.52428
1.36341
1.34491
1.19909
1.28037
1.37319
1.21086
1.32012
1.42399
1.48801
1.55468
1.73202
1.50963
1.63158
1.44492
1.57766
1.70064
1.48983
1.3887
1.50893
1.55932
1.62734
1.51629
1.82481
1.60958
1.85869
1.69764
1.74717
1.61791
1.93225
0.889693
1.03825
0.943864
0.906096
0.882304
1.07842
1.00232
0.975384
1.25006
1.43382
1.35704
1.18921
1.34245
1.30849
1.5164
1.46397
1.4249
1.53028
1.5667
1.49915
0.59578
0.592954
0.455312
0.720818
0.416616
0.654949
0.649607
0.879594
0.229351
0.39644
0.321258
0.42405
0.401941
0.324382
0.227101
0.284687
0.552904
0.594106
0.430079
0.53444
0.399054
0.306417
0.469093
0.433264
0.563411
0.467586
0.512483
0.456041
0.633215
0.978081
0.603051
0.709341
0.687894
1.06683
0.61653
0.725689
1.16221
0.670291
0.952073
1.14141
1.60518
0.787864
1.18818
0.941389
0.857155
0.882072
1.02709
0.959436
1.06952
1.65436
1.03296
1.30285
1.48186
2.29129
1.49036
1.94596
1.75453
0.986352
1.27389
1.89339
2.20116
1.09743
1.57861
1.42317
1.03638
1.47879
1.44284
2.12512
1.31155
2.02422
3.15651
1.65805
2.16415
2.66817
4.06695
2.30358
2.97171
2.3679
1.38571
1.72959
2.59906
3.04856
1.65185
2.52032
0.546077
0.544251
0.590778
0.572453
0.605875
0.595644
0.632232
0.658709
0.775941
0.747537
0.681547
0.662814
0.809721
0.710164
0.682325
0.66081
0.703606
0.908327
1.18522
0.769369
1.10863
3.02697
2.13859
2.73033
2.75858
1.24856
2.67725
1.27834
1.88986
1.87249
2.15361
1.22501
1.225
0.161345
0.173733
0.260891
0.318707
0.333981
0.356225
0.80921
0.281235
0.419595
0.275871
0.417932
0.422299
0.636055
0.486048
0.699693
0.489817
0.755173
0.689896
1.03624
0.664451
0.769946
1.97699
1.44648
0.942351
2.27489
1.82083
1.22845
1.225
1.225
1.225
1.225
2.26
1.22501
1.225
1.225
1.225
1.225
1.22522
1.225
1.225
1.225
1.225
1.225
1.225
1.225
1.225
1.225
1.225
1.225
1.225
1.225
1.225
1.225
1.225
0.25883
0.299015
0.242304
0.272653
0.346134
0.428686
0.333616
0.371566
0.445177
0.38109
0.299881
0.347009
0.381332
0.380551
0.38717
0.373066
0.567104
0.566189
0.530362
0.422227
0.663838
0.794497
0.609452
0.388001
0.56698
0.60922
0.718509
0.640615
0.668435
0.801714
0.894833
0.689834
0.641601
0.896423
0.366906
0.338511
0.372073
0.319597
0.368841
0.455855
0.475926
0.510497
0.546462
0.615696
0.734994
0.779867
0.833645
0.810455
0.856594
0.978022
0.266919
0.296277
0.265433
0.303039
0.300278
0.269375
0.262983
0.250039
0.279527
0.252395
0.27681
0.281245
0.317619
0.343362
0.311961
0.314851
0.283891
0.309154
0.370335
0.330898
0.367806
0.33793
0.335209
0.372533
0.36562
0.403845
0.400079
0.405605
0.398323
0.384637
0.352273
0.378689
0.415532
0.349767
0.386536
0.413864
0.41754
0.447248
0.418838
0.446579
0.266211
0.303922
0.270262
0.280594
0.253323
0.318415
0.312945
0.284824
0.397524
0.4034
0.352536
0.41455
0.3857
0.444267
0.416261
0.363486
0.318343
0.314984
0.367431
0.399888
0.384339
0.352345
0.439835
0.349106
0.437059
0.403506
0.416492
0.481056
0.420485
0.477269
0.455595
0.498342
0.564221
0.523094
0.495953
0.459146
0.519807
0.51162
0.420141
0.457049
0.47579
0.456011
0.474421
0.511544
0.546944
0.489068
0.489734
0.544625
0.576717
0.537183
0.609635
0.650862
0.536609
0.57481
0.654966
0.614738
0.688195
0.609695
0.697766
0.353439
0.440773
0.404704
0.482051
0.421755
0.499239
0.524072
0.460307
0.485443
0.540916
0.537099
0.648258
0.573013
0.682178
0.605111
0.610851
0.545651
0.541857
0.614809
0.663982
0.638499
0.592319
0.72293
0.588819
0.720162
0.667912
0.680771
0.75183
0.685001
0.747089
0.741604
0.809384
0.890887
0.821451
0.805927
0.745953
0.816658
0.844301
0.690273
0.737618
0.779465
0.743877
0.780141
0.836051
0.593291
0.7243
0.669102
0.752333
0.685922
0.811068
0.822719
0.747301
0.852196
0.810261
0.804627
0.858248
0.236263
0.217417
0.245809
0.19873
0.323268
0.237528
0.267478
0.346198
0.308523
0.399217
0.35323
0.438935
0.367724
0.422181
0.384752
0.274976
0.380773
0.386871
0.578677
0.377047
0.57195
0.520775
0.418403
0.615851
0.634354
0.831298
0.69232
0.712783
0.636074
0.489119
0.718837
0.579246
0.798515
0.598619
0.793043
0.779889
0.910751
0.751942
0.934358
0.857111
1.07438
0.833989
1.02807
0.62052
1.5067
2.33018
1.56244
1.46747
1.22504
1.22502
1.225
1.225
0.758353
0.538484
0.609075
0.615865
0.709398
0.570031
0.482019
0.502835
0.480552
0.362035
0.377464
0.455103
0.654719
0.529226
0.560773
0.511049
0.417719
0.395854
0.54617
0.805341
0.80253
0.797519
0.546596
0.790727
0.50692
0.490688
0.353074
0.548235
0.538764
0.382467
0.597167
0.228847
0.207069
0.286882
0.501036
0.736536
0.206581
0.249006
0.250097
0.285579
0.440057
0.44111
0.500331
0.685109
0.685107
0.697836
0.667361
0.755768
0.738874
0.736796
0.666622
0.736532
0.235048
0.211177
0.239101
0.333713
0.563844
0.776898
0.780484
0.704416
0.979409
0.236406
0.204846
0.234459
0.210687
0.209103
0.238386
0.232405
0.22358
0.24645
0.221548
0.224362
0.282324
0.332174
0.32825
0.382659
0.436179
0.378618
0.384016
0.496658
0.563191
0.55969
0.625844
0.681312
0.622416
0.626464
0.630868
0.663657
0.601131
0.704236
0.598701
0.69999
0.633222
0.652679
0.726343
0.753864
0.663456
0.724582
0.652396
0.67878
0.73195
0.778843
0.773367
0.600069
0.701935
0.630574
0.718424
0.661827
0.644467
0.172888
0.181803
0.188832
0.220626
0.182194
0.221676
0.244705
0.25456
0.335998
0.400312
0.255898
0.40147
0.446158
0.456515
0.60972
0.621599
0.457214
0.621083
0.163133
0.180315
0.16006
0.186194
0.184764
0.164525
0.158634
0.172594
0.197569
0.218257
0.194438
0.195768
0.174246
0.192279
0.16041
0.186618
0.164937
0.19822
0.195407
0.174813
0.262632
0.251495
0.225362
0.298394
0.222511
0.294622
0.266212
0.307927
0.346226
0.396541
0.362432
0.342345
0.311623
0.358814
0.22668
0.299997
0.267791
0.347665
0.363702
0.313145
0.463628
0.453117
0.414681
0.51341
0.411489
0.510507
0.466152
0.513653
0.569101
0.618914
0.561466
0.566585
0.515566
0.559651
0.415472
0.513842
0.466495
0.569305
0.560589
0.515431
0.678014
0.439774
0.328366
0.501961
0.30766
0.462378
0.471037
0.287098
0.495509
0.388226
0.285485
0.389004
0.570051
0.384812
0.487205
0.527886
0.437388
0.477847
0.561912
0.618718
0.762415
0.332107
0.29009
0.33959
0.312464
0.359758
0.319263
0.371416
0.363526
0.411775
0.379366
0.417077
0.392
0.412065
0.444426
0.179629
0.162813
0.170018
0.205329
0.186951
0.194972
0.198922
0.295246
0.182767
0.327033
0.419113
0.313016
0.239466
0.345937
0.177552
0.181957
0.177428
0.160339
0.151136
0.155841
0.155775
0.338968
0.318612
0.374774
0.288923
0.34098
0.320374
0.375071
0.436244
0.47652
0.427225
0.427786
0.387116
0.423333
0.464444
0.411743
0.440902
0.472142
0.441496
0.474097
0.468422
0.506202
0.192854
0.231539
0.232423
0.226382
0.262049
0.220073
0.263105
0.22195
0.190951
0.195628
0.183141
0.188191
0.214316
0.20911
0.19282
0.211505
0.215006
0.169756
0.185695
0.165724
0.189218
0.519617
0.519099
0.561778
0.463055
0.499789
0.500229
0.537705
0.277697
0.334297
0.328864
0.366587
0.315339
0.311951
0.371574
0.98583
0.686952
0.759581
0.512996
0.790007
0.637378
0.868469
0.381831
0.438797
0.437189
0.422751
0.481192
0.426886
0.481115
0.232199
0.211527
0.252063
0.245793
0.220381
0.259836
0.22508
0.209628
0.204355
0.236566
0.234156
0.266938
0.232209
0.264707
0.462835
0.531941
0.503112
0.521843
0.495319
0.538202
0.568562
0.223905
0.228175
0.233005
0.19711
0.201654
0.206132
0.201701
0.177013
0.189507
0.204793
0.169266
0.184228
0.216638
0.201695
0.335573
0.415551
0.387415
0.374157
0.347549
0.403925
0.437102
0.375037
0.440343
0.550549
0.508962
0.82604
0.624823
0.417581
0.488997
0.532607
0.540404
0.589349
0.530485
0.535575
0.578518
0.247778
0.287752
0.29041
0.255103
0.258389
0.215547
0.218898
0.460249
0.452249
0.423882
0.447926
0.527322
0.487503
0.482593
0.250525
0.276246
0.281297
0.242198
0.26537
0.271593
0.236515
0.255036
0.274752
0.292755
0.32676
0.247532
0.284269
0.294671
0.338225
0.390347
0.392554
0.352228
0.300748
0.354805
0.303699
0.602102
0.646776
0.605136
0.571117
0.536689
0.57545
0.611054
0.246544
0.214364
0.218403
0.239582
0.243046
0.26981
0.27327
0.275629
0.324653
0.322435
0.308584
0.359193
0.362096
0.309598
0.351726
0.450538
0.411911
0.382381
0.351629
0.410751
0.447456
0.260141
0.251448
0.272351
0.215594
0.229482
0.246
0.232121
0.914058
0.732712
0.593077
0.929214
0.680443
0.843084
0.99349
0.374048
0.433859
0.431461
0.47498
0.413958
0.417661
0.478028
0.506815
0.449197
0.502934
0.457505
0.405023
0.46052
0.407809
0.512881
0.520831
0.468524
0.462371
0.5525
0.504611
0.50563
0.479343
0.562758
0.514336
0.562014
0.508871
0.548361
0.599883
1.0105
1.39913
0.95462
0.650733
1.00646
0.764412
1.34455
0.222699
0.319656
0.249196
0.305155
0.229503
0.26136
0.335235
0.316449
0.285508
0.279625
0.270901
0.29583
0.287873
0.307911
0.332896
0.299325
0.299101
0.261652
0.329858
0.292398
0.296697
0.405784
0.349895
0.383342
0.450008
0.347194
0.410044
0.446741
0.489063
0.544742
0.54799
0.536266
0.599464
0.595597
0.536444
0.590687
0.624439
0.639741
0.641968
0.674058
0.626771
0.693884
0.665906
0.56558
0.609834
0.59363
0.543289
0.582282
0.635403
0.55928
0.546428
0.590369
0.552211
0.599216
0.594434
0.637167
0.253129
0.257345
0.262842
0.284888
0.291553
0.289231
0.295607
0.465976
0.514648
0.527692
0.580347
0.469334
0.51195
0.528678
0.287163
0.371518
0.30928
0.335595
0.270124
0.287523
0.356469
0.278551
0.3221
0.324137
0.359731
0.308976
0.311288
0.358254
0.615482
0.563002
0.558053
0.554223
0.55765
0.507683
0.511061
0.669404
0.684553
0.721591
0.601781
0.632222
0.644354
0.680709
0.355739
0.415213
0.349579
0.191247
0.34407
0.442792
0.334508
0.568824
0.597138
0.538355
0.58225
0.675925
0.637486
0.615093
0.343277
0.301431
0.382488
0.358902
0.327617
0.313659
0.391031
0.690364
0.707175
0.644268
0.580042
0.644472
0.587025
0.630354
0.176081
0.19723
0.190553
0.227156
0.22308
0.237265
0.212653
0.277318
0.336134
0.305332
0.302029
0.339754
0.310604
0.305542
0.34246
0.313865
0.348012
0.333889
0.295494
0.302138
0.326991
0.445341
0.398835
0.470972
0.393697
0.42196
0.479278
0.505928
0.374682
0.430703
0.432437
0.413164
0.473515
0.412331
0.474276
0.343899
0.438633
0.397881
0.401258
0.381743
0.344988
0.442486
0.659778
0.650505
0.605353
0.720756
0.661434
0.652951
0.708639
0.714202
0.698863
0.654949
0.621751
0.7205
0.67816
0.659593
0.699474
0.72233
0.683898
0.78543
0.717089
0.74176
0.75698
0.301004
0.280441
0.292661
0.261407
0.263057
0.2764
0.247737
0.503306
0.579838
0.531306
0.622365
0.556577
0.580424
0.642886
0.44918
0.490293
0.530446
0.411664
0.484756
0.439326
0.522508
0.555444
0.492687
0.551062
0.606442
0.536296
0.538294
0.602318
0.332613
0.403477
0.367186
0.35646
0.363627
0.323996
0.397921
0.501445
0.521637
0.456327
0.460736
0.57701
0.506632
0.525586
0.692952
0.654456
0.660266
0.62878
0.594268
0.597178
0.630643
0.314991
0.242445
0.235516
0.271939
0.363336
0.282064
0.349341
0.335859
0.375224
0.366687
0.34543
0.310288
0.320742
0.336781
0.744046
0.827279
0.767089
0.699794
0.730769
0.680699
0.75517
0.744021
0.686368
0.662656
0.593621
0.631456
0.655702
0.688858
0.36603
0.353923
0.326052
0.323253
0.35871
0.330367
0.361372
0.531816
0.454103
0.419757
0.491074
0.456273
0.532724
0.488908
0.397038
0.343951
0.381705
0.436179
0.345778
0.396371
0.43563
0.715938
0.643743
0.587439
0.655917
0.652128
0.645919
0.588379
1.06441
0.778949
1.03586
0.781299
0.788472
1.08138
1.34733
0.350905
0.395727
0.330358
0.303406
0.394091
0.318497
0.375681
0.685485
0.56012
0.610014
0.606011
0.550334
0.599592
0.666969
0.622171
0.635814
0.665294
0.680228
0.698007
0.736013
0.752475
0.998212
1.14284
1.80506
1.2985
2.0368
1.83067
0.978684
1.8326
1.41028
1.176
1.62725
1.05704
0.978503
1.39623
0.717722
0.674183
0.783505
0.629827
0.68307
0.720949
0.786076
0.607148
0.721896
0.651132
0.757518
0.662234
0.699203
0.78412
0.676431
0.617726
0.611384
0.740835
0.731081
0.675206
0.668162
0.739212
0.708597
0.697631
0.775029
0.824605
0.807645
0.76034
0.824656
0.75178
0.719391
0.705468
0.766451
0.669962
0.728136
0.381282
0.339809
0.408028
0.37537
0.375505
0.345615
0.411601
0.379008
0.402804
0.454482
0.372878
0.410903
0.353336
0.422742
0.811064
0.740528
0.785547
0.766211
0.697188
0.742553
0.824707
0.752306
0.733157
0.815051
0.653315
0.700177
0.725423
0.781997
1.02587
0.658732
0.619943