/*--------------------------------*- C++ -*----------------------------------*\
  =========                 |
  \\      /  F ield         | OpenFOAM: The Open Source CFD Toolbox
   \\    /   O peration     | Website:  https://openfoam.org
    \\  /    A nd           | Version:  9
     \\/     M anipulation  |
\*---------------------------------------------------------------------------*/
FoamFile
{
    format      ascii;
    class       volScalarField;
    location    "0.0032";
    object      rho.c4;
}
// * * * * * * * * * * * * * * * * * * * * * * * * * * * * * * * * * * * * * //

dimensions      [1 -3 0 0 0 0 0];

internalField   nonuniform List<scalar> 
27819
(
0.263696
0.178062
0.292979
0.203892
0.454016
0.274686
0.22831
0.271312
0.246823
0.193193
0.26121
0.355859
0.32066
0.246838
0.354687
0.120257
0.17976
0.122242
0.149508
0.214849
0.169699
0.277504
0.308828
0.325293
0.226973
0.255847
0.182012
0.23039
0.257811
0.184582
0.224464
0.233159
0.236085
0.276785
0.202719
0.264357
0.190845
0.245506
0.184571
0.135966
0.127038
0.287628
0.293398
0.220324
0.277034
0.263414
0.31217
0.245163
0.319134
0.295221
0.364622
0.316792
0.334473
0.277279
0.359051
0.227681
0.234422
0.197706
0.45376
0.402497
0.361206
0.393404
0.404865
0.44425
0.410246
0.319263
0.321178
0.300484
0.304123
0.327294
0.304533
0.279704
0.27647
0.264564
0.275539
0.284031
0.288034
0.250449
0.262313
0.402211
0.400871
0.384394
0.348157
0.359288
0.338538
0.382316
0.265223
0.26932
0.271548
0.258087
0.260253
0.245422
0.243353
0.448359
0.427542
0.482981
0.495871
0.431811
0.504192
0.473508
3.86232
0.0180684
7.17817e-05
4.73265e-11
2.22045e-16
69.775
1.34152e-07
3.7083e-11
36.9319
2.11269
21.5794
9.82089
8.82965
72.7353
22.0182
7.73159
18.8184
12.6352
32.7424
10.5345
24.09
27.6595
2.71059
4.89644
2.88367
3.7594
4.6388
3.29261
18.1356
2.37945
1.90391
2.12094
2.96722
2.53629
2.8337
2.62704
11.6821
20.1528
19.0304
16.1996
17.3693
13.7997
13.7601
7.16569
10.9947
5.58866
6.51415
8.53669
9.20426
4.79292
3.10906
2.38937
2.71028
3.39018
3.63436
3.20035
3.89946
34.0969
14.6604
14.8396
21.3064
8.31862
8.15892
6.93663
12.1194
5.35148
6.33829
7.61827
4.6123
8.22608
6.57981
6.74285
4.71492
4.23827
5.71631
4.10855
5.58401
3.57112
5.87535
3.79751
9.64606
3.13114
4.29279
4.69457
3.56297
7.72065
6.52919
0.00730534
0.392985
18.9992
20.2203
41.88
7.40456
0.00077536
1.3791e-05
0.0330539
7.66397
0.0247721
13.0941
6.14995e-09
1.64008e-10
1.45588e-10
3.45378e-11
2.69874e-16
2.65143e-08
1.65737e-13
2.22045e-16
2.22045e-16
2.22045e-16
2.22045e-16
6.29895e-13
2.22045e-16
2.22045e-16
2.22045e-16
2.22045e-16
2.22045e-16
2.22045e-16
2.22045e-16
2.22045e-16
2.22045e-16
2.22045e-16
2.22045e-16
2.22045e-16
2.22045e-16
2.22045e-16
2.22045e-16
2.22045e-16
2.22045e-16
3.97164
25.1685
9.37928
0.000122141
0.0787361
19.9097
22.1296
45.5119
9.17727
2.04402e-05
6.02601e-06
0.00778999
2.74579
0.00119304
2.13167
1.914e-11
4.779e-12
1.8351e-11
2.66633e-12
2.22045e-16
1.38773e-09
4.50631e-16
2.22045e-16
2.22045e-16
2.22045e-16
2.22045e-16
1.71421e-15
2.22045e-16
2.22045e-16
2.22045e-16
2.22045e-16
2.22045e-16
2.22045e-16
2.22045e-16
2.22045e-16
2.22045e-16
2.22045e-16
2.22045e-16
2.22045e-16
2.22045e-16
2.22045e-16
2.22045e-16
2.22045e-16
2.22045e-16
7.76002
62.526
7.48703e-08
7.80548e-05
31.3353
35.4066
72.1249
4.76516
1.37054e-11
7.86343e-10
2.35279e-05
0.000997732
1.01752e-10
1.05148e-06
1.71289e-15
2.22045e-16
2.10889e-14
2.22045e-16
2.22045e-16
5.966e-14
2.22045e-16
2.22045e-16
2.22045e-16
2.22045e-16
2.22045e-16
2.22045e-16
2.22045e-16
2.22045e-16
2.22045e-16
2.22045e-16
2.22045e-16
2.22045e-16
2.22045e-16
2.22045e-16
2.22045e-16
2.22045e-16
2.22045e-16
2.22045e-16
2.22045e-16
2.22045e-16
2.22045e-16
2.22045e-16
2.22045e-16
20.6528
143.935
19.1704
0.000539482
7.25499
81.3408
0.770221
0.000200176
2.89294e-07
6.28825e-11
1.02742e-09
1.71478e-11
2.22045e-16
7.94114e-11
3.94339e-15
2.22045e-16
2.22045e-16
2.22045e-16
2.22045e-16
2.22045e-16
2.22045e-16
2.22045e-16
2.22045e-16
2.22045e-16
2.22045e-16
2.22045e-16
2.22045e-16
2.22045e-16
2.22045e-16
2.22045e-16
2.22045e-16
2.22045e-16
2.22045e-16
2.22045e-16
2.22045e-16
2.22045e-16
2.22045e-16
2.22045e-16
2.22045e-16
2.22045e-16
2.22045e-16
2.22045e-16
2.22045e-16
6.39397
13.4595
45.5846
198.805
5.22964e-07
14.1204
33.7052
76.2928
7.41012
0.0084269
7.40719e-13
62.5428
1.85622
1.24193e-08
1.23037e-15
2.22045e-16
2.22045e-16
6.08352e-09
5.34656e-15
2.22045e-16
2.22045e-16
2.22045e-16
2.22045e-16
2.22045e-16
2.22045e-16
2.22045e-16
2.22045e-16
2.22045e-16
2.22045e-16
2.22045e-16
2.22045e-16
2.22045e-16
2.22045e-16
2.22045e-16
2.22045e-16
2.22045e-16
2.22045e-16
2.22045e-16
2.22045e-16
2.22045e-16
2.22045e-16
2.22045e-16
2.22045e-16
2.22045e-16
2.22045e-16
2.22045e-16
2.22045e-16
6.29607
43.617
142.59
0.0366828
4.46359e-08
5.49771e-15
94.7384
59.8565
125.179
1.3789e-06
2.22045e-16
2.22045e-16
1.63873
0.0750276
2.7415e-14
2.22045e-16
2.22045e-16
2.22045e-16
7.99766e-11
2.22045e-16
2.22045e-16
2.22045e-16
2.22045e-16
2.22045e-16
2.22045e-16
2.22045e-16
2.22045e-16
2.22045e-16
2.22045e-16
2.22045e-16
2.22045e-16
2.22045e-16
2.22045e-16
2.22045e-16
2.22045e-16
2.22045e-16
2.22045e-16
2.22045e-16
2.22045e-16
2.22045e-16
2.22045e-16
2.22045e-16
2.22045e-16
2.22045e-16
2.22045e-16
2.22045e-16
2.22045e-16
2.22045e-16
104.697
63.1757
1.17379e-07
9.3804e-15
2.22045e-16
2.22045e-16
5.2946
40.6942
6.35124e-12
2.22045e-16
2.22045e-16
2.22045e-16
7.43716e-11
4.69003e-14
2.22045e-16
2.22045e-16
2.22045e-16
2.22045e-16
2.22045e-16
2.22045e-16
2.22045e-16
2.22045e-16
2.22045e-16
2.22045e-16
2.22045e-16
2.22045e-16
2.22045e-16
2.22045e-16
2.22045e-16
2.22045e-16
2.22045e-16
2.22045e-16
2.22045e-16
2.22045e-16
2.22045e-16
2.22045e-16
2.22045e-16
2.22045e-16
2.22045e-16
2.22045e-16
2.22045e-16
2.22045e-16
2.22045e-16
2.22045e-16
2.22045e-16
2.22045e-16
2.22045e-16
2.22045e-16
1.27271e-06
1.58485e-11
2.50295e-15
2.22045e-16
2.22045e-16
2.22045e-16
3.08587e-12
1.60582e-14
2.22045e-16
2.22045e-16
2.22045e-16
2.22045e-16
2.22045e-16
2.22045e-16
2.22045e-16
2.22045e-16
2.22045e-16
2.22045e-16
2.22045e-16
2.22045e-16
2.22045e-16
2.22045e-16
2.22045e-16
2.22045e-16
2.22045e-16
2.22045e-16
2.22045e-16
2.22045e-16
2.22045e-16
2.22045e-16
2.22045e-16
2.22045e-16
2.22045e-16
2.22045e-16
2.22045e-16
2.22045e-16
2.22045e-16
2.22045e-16
2.22045e-16
2.22045e-16
2.22045e-16
2.22045e-16
2.22045e-16
2.22045e-16
2.22045e-16
2.22045e-16
2.22045e-16
2.22045e-16
4.68754e-13
2.22045e-16
2.22045e-16
2.22045e-16
2.22045e-16
2.22045e-16
2.22045e-16
2.22045e-16
2.22045e-16
2.22045e-16
2.22045e-16
2.22045e-16
2.22045e-16
2.22045e-16
2.22045e-16
2.22045e-16
2.22045e-16
2.22045e-16
2.22045e-16
2.22045e-16
2.22045e-16
2.22045e-16
2.22045e-16
2.22045e-16
2.22045e-16
2.22045e-16
2.22045e-16
2.22045e-16
2.22045e-16
2.22045e-16
2.22045e-16
2.22045e-16
2.22045e-16
2.22045e-16
2.22045e-16
2.22045e-16
2.22045e-16
2.22045e-16
2.22045e-16
2.22045e-16
2.22045e-16
2.22045e-16
2.22045e-16
2.22045e-16
2.22045e-16
2.22045e-16
2.22045e-16
2.22045e-16
2.22045e-16
2.22045e-16
2.22045e-16
2.22045e-16
2.22045e-16
2.22045e-16
2.22045e-16
2.22045e-16
2.22045e-16
2.22045e-16
2.22045e-16
2.22045e-16
2.22045e-16
2.22045e-16
2.22045e-16
2.22045e-16
2.22045e-16
2.22045e-16
2.22045e-16
2.22045e-16
2.22045e-16
2.22045e-16
2.22045e-16
2.22045e-16
2.22045e-16
2.22045e-16
2.22045e-16
2.22045e-16
2.22045e-16
2.22045e-16
2.22045e-16
2.22045e-16
2.22045e-16
2.22045e-16
2.22045e-16
2.22045e-16
2.22045e-16
2.22045e-16
2.22045e-16
2.22045e-16
2.22045e-16
2.22045e-16
2.22045e-16
2.22045e-16
2.22045e-16
2.22045e-16
2.22045e-16
2.22045e-16
6.95105
0.0235944
7.50391
0.0156216
1.30428e-05
2.44027e-05
6.75639e-06
8.47423e-06
0.107247
18.0866
0.0470612
18.3723
2.7691
14.6004
12.083
2.82094
15.0038
12.7899
5.08112
12.0119
18.0199
3.63419
5.18097
12.7349
19.3025
1.12137
6.53772
0.926847
6.70497
0.815255
6.68953
0.594021
0.000153815
0.00575464
5.99832e-07
0.00352244
4.54206e-05
0.00266138
1.79985e-07
21.2827
0.000526468
0.371205
0.0670452
21.3364
0.000188589
0.148238
19.5555
1.57777
36.3485
19.1988
20.2184
0.988569
35.4056
8.35893
0.000917077
1.3441e-05
7.69272e-08
2.88417e-06
4.46562e-10
2.52294e-09
0.0239339
19.1335
0.00018118
26.2563
3.08083
15.7195
13.6013
3.7048
21.8712
19.6937
6.93685
13.5571
20.8989
5.72196
9.5886
19.85
33.2573
0.368411
8.16122
0.516689
0.0111992
12.9653
0.0138643
5.92044e-06
0.000328818
3.98228e-09
1.14771e-06
1.41327e-07
1.10707e-06
2.02502e-11
22.007
2.6571e-05
0.179107
0.00649167
30.4286
7.84199e-07
0.0145089
21.1624
0.843367
35.7532
26.9504
28.4272
0.124729
8.89515
1.37351e-07
14.5472
3.23357e-12
5.28859e-11
4.08214
0.000428894
8.87723e-06
30.7747
2.94219e-06
20.1154
5.86376
25.7909
23.6579
8.93421
48.072
46.29
11.3787
24.2147
42.3319
11.8221
26.5088
50.8704
92.2822
0.000312509
9.36407
7.02453e-05
0.127334
0.13458
0.000101684
6.80143e-10
2.04957e-09
6.69226e-15
0.0647263
9.27501e-06
3.06986e-07
2.73914e-10
28.3271
3.03797e-09
0.000174192
2.07998e-06
0.219237
3.87686e-11
4.18215e-06
33.0323
0.0358472
3.00534
28.3745
58.627
0.00979594
0.00322039
40.1229
17.4403
46.3039
1.69373
22.1105
47.1866
0.0482986
4.79686
59.0166
101.605
15.3567
61.9592
59.0973
46.7237
56.8346
120.251
40.7304
66.5083
113.918
47.9822
166.224
134.637
0.0242296
42.9599
18.6206
31.2663
23.5666
45.9822
49.4264
0.00829069
0.00142106
1.03505e-05
36.3626
63.5043
17.0582
0.00256242
0.00747611
5.2428e-08
4.4247e-08
73.7622
6.41436
0.000163474
3.4477e-06
72.5465
0.000323822
0.000346776
0.242346
5.48336
8.3162e-07
4.39785e-06
8.75422
19.6998
45.4604
9.55854
13.717
25.8823
72.2586
23.7822
58.7944
100.607
23.7758
50.1819
95.1799
108.648
133.168
117.006
36.4556
106.932
222.065
12.9322
4.38753e-06
4.66606
10.6181
23.7977
14.2336
95.0957
6.49962
13.8685
187.719
25.2265
4.15835
32.9274
126.764
12.508
17.9263
6.93559e-13
11.5333
36.2722
2.34508
0.000579388
5.49694e-14
2.22045e-16
76.9883
125.113
3.9707e-13
3.08477e-15
2.22045e-16
2.22045e-16
0.0201076
3.04838e-13
2.22045e-16
2.22045e-16
2.22045e-16
2.22045e-16
2.22045e-16
2.22045e-16
2.22045e-16
2.22045e-16
2.22045e-16
2.22045e-16
2.03015
2.07446
3.55549
2.69658
3.87106
3.67054
3.31029
3.99348
2.26974
2.75044
4.47608
3.4545
4.47739
6.7345
4.58991
6.59416
4.86733
9.19827
6.87437
8.2481
6.50999
9.53158
8.10357
16.5127
7.87938
11.6866
11.1148
10.552
18.5829
27.3427
21.0875
16.0102
26.9767
22.6528
55.1323
30.2301
127.031
3.77716
3.94106
5.07637
6.86438
4.60888
7.54899
5.38831
11.3664
11.4582
9.53196
14.7187
9.00699
13.4193
17.2389
31.6843
23.8584
26.0783
82.1721
20.9117
88.0755
65.1014
205.83
6.92896
4.76572
11.9514
10.5464
7.44118
5.26812
6.07606
10.0506
7.35699
8.97346
8.28154
17.6934
10.9813
14.5778
30.6915
20.2923
27.8129
22.3582
66.13
38.7969
54.7339
104.042
69.2944
89.7483
78.7787
7.47064
7.61321
7.02978
6.95514
7.58929
7.06441
7.45238
0.795303
0.000777955
1.41873
0.022655
0.000605022
1.27301
0.903102
7.60732
7.07428
7.99896
7.79548
7.65531
7.25248
8.06935
0.540966
0.0165127
6.05103e-05
0.467281
0.000285055
0.90242
0.236098
2.97356e-12
2.15906e-08
7.73606e-07
1.24273e-05
1.5314e-08
5.49367e-07
4.4681e-12
5.67546e-09
0.000396308
5.69545e-09
2.19385e-05
0.000358071
4.97202e-09
6.50505e-09
3.60875e-12
7.28378e-06
9.7755e-10
1.43932e-07
6.08018e-09
8.77669e-07
4.80705e-13
3.70838e-09
1.55338e-05
0.000135826
3.20373e-09
0.000262423
3.67593e-09
1.5466e-09
25.6693
0.894734
13.5144
0.0985619
0.841086
13.099
25.7324
21.3078
16.688
22.303
18.0627
16.6814
22.2444
21.3659
24.8104
0.0740223
0.462752
9.79123
0.702962
11.7805
21.4388
21.2875
18.1009
17.0715
22.3459
16.7587
22.1935
21.4855
2.77978
3.20771
3.22527
4.32804
4.39986
4.43017
4.30462
8.96361
12.375
12.5369
14.5983
12.3968
12.5662
8.92079
3.2703
2.9143
3.3786
4.4137
4.69877
4.51531
4.59383
9.11821
14.6899
12.8762
13.0816
12.5298
12.7163
9.44876
2.03057
8.67605
7.64051
5.56465
2.98771
0.00295687
2.87263e-06
0.0914416
9.92069e-05
0.0293286
1.23424e-07
0.00882686
0.000192441
1.34807e-05
3.68543e-10
4.29467e-05
2.63405e-09
0.000646743
2.91792e-06
1.94373e-15
1.93535e-11
1.4208e-08
1.91431e-08
4.26959e-14
4.24991e-13
1.36853e-09
4.66376e-11
4.2785e-05
1.75167e-10
6.24306e-07
3.56575e-10
9.03924e-06
4.06373e-11
2.22045e-16
4.58552e-10
1.575e-15
5.01292e-12
4.37573e-15
4.95122e-11
2.22045e-16
3.22319e-12
5.84401e-08
1.03316e-07
2.11968e-13
1.30026e-06
1.29813e-12
1.03122e-13
11.6957
0.194912
7.31827
0.00853767
16.8068
0.0611543
4.5352
23.7759
17.837
23.0715
20.6203
22.2193
19.2796
24.7161
6.96333
0.00186734
0.0033892
0.613452
0.0172874
2.21135
3.33357
26.2911
22.9805
24.7438
28.486
21.5469
27.4071
29.5809
3.57141
3.34027
3.87991
5.41612
5.023
4.91464
5.53722
11.0614
13.5807
13.8035
17.0188
10.0594
14.7989
15.0265
4.33252
4.9699
4.20045
6.13633
7.34821
6.28837
7.1402
12.5445
19.0278
19.2571
19.3438
16.648
16.8414
14.6261
0.00222278
4.34597e-10
7.53131e-07
5.30275e-06
1.19223e-07
6.04226e-05
0.000248608
2.946
0.0476112
29.5492
37.1129
0.329417
0.812531
38.6129
1.63533e-08
2.66522e-12
5.49157e-13
9.2912e-08
6.87978e-15
1.36728e-06
4.32591e-10
5.14562e-11
3.16171e-09
4.72877e-16
1.0102e-12
1.10533e-15
4.73984e-11
1.37452e-12
0.00126343
0.00335975
10.7286
0.370694
0.0228784
5.92548e-05
2.72523
1.61045e-05
3.92665e-09
0.0084323
0.0159874
2.07695e-07
7.47048e-07
0.155092
0.0970011
0.000317418
0.064174
3.77752e-07
1.02546
1.17453e-05
0.00792915
18.6948
29.0586
14.5116
36.9203
34.5684
34.8993
5.61674
0.0108092
5.57405e-09
0.00017953
7.25082e-06
4.23198e-07
0.000440278
0.000562528
7.41205
46.8212
52.9259
0.0686553
42.3751
1.3354
1.80673
7.1299
4.91978
5.97533
10.5758
8.85361
8.5454
11.0244
21.6727
22.8734
22.7703
31.154
17.5504
27.8538
27.5117
11.5379
7.5182
9.7642
13.5196
18.8062
14.1838
17.8175
27.4084
38.3612
43.8005
42.8711
34.6518
34.0324
35.2627
23.2756
37.6212
34.5548
32.1069
32.1033
28.0066
26.899
15.1228
23.7527
11.807
13.9621
18.5778
19.4135
9.55471
41.4592
43.9577
37.0635
38.4819
50.8624
33.9739
45.8889
50.5597
8.28215
10.37
66.7336
29.6216
60.1611
54.1125
29.1914
29.2449
14.9116
28.4597
23.1229
36.2535
19.2866
37.2678
54.7482
34.0682
36.8769
47.6445
44.8342
25.4716
20.8771
1.15166
0.00141778
21.8993
0.0371058
67.5314
3.74484
4.30377
24.6666
0.00355595
0.241022
0.0877449
6.71331
0.11791
73.5757
66.0007
45.4801
72.046
60.0004
80.6446
59.3298
87.8023
6.09058
89.5405
85.7349
51.6929
39.0246
74.1203
21.1863
18.2376
13.0806
33.5876
25.7439
24.1402
36.3136
60.3498
56.1706
54.7489
40.5907
45.8949
72.4333
70.3137
30.6465
41.2196
26.746
48.0211
76.5759
52.5179
69.718
79.9092
8.04427
107.672
54.4679
67.897
91.6551
109.038
10.6133
7.11623
8.62451
12.6762
15.0425
11.4017
16.5972
32.491
19.8062
27.3362
42.4632
51.7067
38.172
58.4813
4.17493
2.60268
3.05117
4.37628
3.57853
8.30263
7.84641
5.11695
7.20298
6.20372
8.67468
6.86984
19.0145
16.7563
11.0801
15.7662
13.6615
19.4279
15.0906
2.04129
2.63963
2.66565
1.63853
2.20468
2.23078
1.62397
2.7109
2.14598
2.81053
1.67241
2.38031
2.27839
1.74612
2.98133
2.46619
3.25303
2.05789
2.55309
1.86834
2.824
3.64788
4.18098
3.13212
2.32804
3.73383
3.21393
2.68518
5.74271
3.6202
4.24401
3.67007
4.38981
3.13065
5.20032
4.18769
7.55881
8.98531
6.97198
7.44311
5.74473
5.06257
8.39072
5.07117
6.20053
4.32739
7.45654
6.20574
5.15451
13.7744
10.3682
7.84095
7.68404
9.03858
6.23004
11.1082
18.8515
21.9394
14.5852
9.78755
18.5892
14.0268
13.3455
4.37487
2.94845
3.37246
3.05803
2.59054
2.25344
3.5368
4.88732
4.26153
6.0514
3.59104
5.13146
5.75886
5.89572
3.87128
4.45747
4.77688
2.99015
3.46717
4.10351
8.04029
5.15356
6.01873
5.58672
4.77231
4.05796
6.5643
10.0775
9.49678
9.12102
12.8976
7.51302
10.5484
12.271
11.61
7.14287
8.68604
9.27519
5.62169
6.69386
7.75707
19.2564
11.0345
14.5946
11.26
9.99768
8.09987
13.8857
37.0574
20.1807
28.8328
23.3301
12.6509
16.7865
17.5933
7.50408
10.7171
8.50534
13.3032
6.14712
12.6176
10.4014
9.10454
15.6777
16.7715
16.077
14.5344
12.736
11.4525
5.51346
4.01971
4.59452
6.23716
5.3941
7.01484
6.02259
4.51204
30.4338
4.11351
8.34908
11.0646
2.10063
31.3721
34.748
25.5555
9.30005
15.5463
2.84416
3.40366
3.57869
7.8802
9.62662
9.34628
9.36596
0.517299
9.99021
6.13221
0.0968475
9.76456
0.832348
0.0319145
0.0250831
1.44473
0.00435978
0.503355
0.00158997
0.578878
0.0073362
9.06756
12.4841
30.007
35.259
21.5114
4.28769
34.2402
19.4874
23.4698
29.7553
19.1132
27.4181
16.3833
22.6198
12.4303
13.2128
6.59066
11.3295
10.2674
15.9644
7.873
3.27125
2.58873
2.28307
2.65537
1.73121
1.96942
2.31789
4.49902
4.13598
3.08475
4.12694
3.5187
4.7142
5.19921
5.58831e-06
158.111
133.596
15.0688
4.34895e-06
1.28086e-06
1.86971e-08
20.3045
54.8872
32.9049
19.5692
49.08
23.7024
78.4362
65.2814
69.5315
0.054488
43.6685
95.111
87.2608
0.00524927
38.8904
0.000933235
7.52633e-06
107.267
0.760736
8.66139e-06
6.71465e-07
0.0575441
2.27448e-08
3.03505e-10
0.00641382
3.34449e-07
9.64746e-11
7.53086e-13
11.0962
24.1794
13.5852
31.0868
8.73104
13.072
102.406
12.2131
123.816
18.9667
35.9114
100.846
121.809
15.5265
38.175
5.58063
87.4516
118.878
6.2566
0.0790783
2.39651e-08
158.518
55.6691
8.55605e-07
0.0513254
1.64807e-06
1.11185e-06
1.29155e-11
7.21353
7.13063
12.2213
12.137
7.17449
12.2707
7.17079
7.35601
12.3473
7.61257
12.8805
7.31829
12.4633
7.64646
9.00477
8.13578
13.6617
14.9257
8.16804
8.97055
14.9534
10.2301
16.893
11.9413
19.4991
10.1958
16.8592
11.9516
17.9416
14.4708
23.1257
29.1791
14.4021
18.2061
28.034
22.9897
36.5456
31.4594
43.2674
23.6454
34.5895
30.0373
52.5204
42.4243
54.7563
76.0472
39.6154
57.1965
70.0077
70.4643
96.8706
103.377
112.188
77.1811
89.1614
95.1872
15.4689
11.4724
25.7449
19.5362
14.7112
12.0696
25.8112
20.4593
26.3568
34.1797
47.5061
19.4529
27.7344
34.8247
53.6288
36.1057
72.5098
63.6337
49.1013
38.5472
79.9599
71.5388
79.4467
86.2028
110.469
64.0091
89.5108
95.0228
79.4848
99.7424
67.7306
140.34
115.798
104.463
165.96
132.913
97.7943
81.386
126.776
119.086
108.997
65.8863
162.326
138.662
52.7813
1.94284
131.973
167.567
14.0242
0.0417418
233.499
86.411
40.171
94.1062
114.919
268.623
5.45128
11.6758
24.2991
6.62805
5.6473
8.43013
9.51772
9.29517
93.5501
15.255
7.91258
16.2566
22.1226
41.9714
26.489
135.073
54.7924
27.8836
51.6756
83.2235
150.85
117.429
231.246
6.68722e-07
75.241
222.879
192.054
5.49333
26.4654
19.8799
23.8782
32.8391
18.0973
25.2009
35.9457
45.6743
56.9554
37.3248
34.3394
29.0206
22.3902
48.9036
7.94652
12.2084
7.5709
15.3537
9.19851
15.1071
9.66704
9.61793
6.67921
9.87317
6.37442
8.09318
5.69502
5.45481
31.0313
41.0674
59.3663
21.0528
32.4176
40.0005
35.5613
34.3124
40.3657
21.0051
30.1222
48.0725
12.0806
0.372947
57.46
4.04372
0.0164458
65.3881
101.787
0.00119846
1.95761e-05
28.7945
5.47681e-06
4.53764e-06
2.53104
3.12839e-06
9.5505e-07
6.85565e-11
2.78835e-08
1.18363e-11
1.56375e-15
3.93296e-11
2.00125e-14
2.22045e-16
2.22045e-16
16.2898
5.34381e-06
0.00113801
2.73663e-08
2.81209e-08
5.94702e-14
7.1368e-11
2.22045e-16
1.03572e-14
2.22045e-16
12.3699
14.2608
2.64373
1.12521e-05
1.18775e-08
53.5754
5.6543e-11
2.22045e-16
2.22045e-16
2.08235e-10
1.04382e-13
2.22045e-16
2.22045e-16
1.17105e-10
8.64156e-14
2.22045e-16
2.22045e-16
2.22045e-16
1.30264e-12
2.22045e-16
2.22045e-16
2.22045e-16
2.22045e-16
2.22045e-16
2.22045e-16
2.22045e-16
2.22045e-16
2.22045e-16
1.55128
1.83805
2.525
3.31122
2.21098
2.96139
4.32382
2.1763
2.46128
3.87239
2.3724
6.08152
7.28631
2.86144
3.42922
9.89182
2.81637
3.19977
2.97762
4.72581
3.58097
11.4054
40.5686
5.25978
6.3301
23.6498
5.81663
6.61857
5.44453
6.50685
3.20333
4.66269
30.372
180.189
5.46464
7.9535
17.0898
92.6256
6.38975
11.1452
18.0347
28.2274
43.9596
5.7509e-05
3.84671
6.10617
13.2261
53.4764
59.3782
3.34981
22.3043
88.3775
0.00136214
1.98387e-14
6.22067
15.4879
13.7011
43.7085
8.12724e-12
90.8652
6.51398e-09
5.80129e-13
2.22045e-16
32.8413
88.9124
1.08079e-12
2.22045e-16
2.22045e-16
122.958
1.50326e-10
6.00232e-15
2.22045e-16
2.22045e-16
2.0362
2.36215
2.78327
2.22557
2.49467
2.30816
3.06503
2.55615
2.74841
2.00996
2.3313
2.26239
2.49219
2.49294
3.09343
2.6982
4.68818
2.66207
4.63979
2.72438
4.79367
4.23706
4.28687
4.89173
5.65288
5.50795
6.14361
6.0064
8.93757
6.06478
5.89937
7.02642
7.38014
11.6112
9.79641
10.2774
5.61638
6.10726
9.04658
5.09918
9.80843
4.82336
5.32222
3.32673
4.42152
3.54632
5.75729
6.84163
6.29308
9.84334
5.58193
8.79005
6.83697
11.8228
14.0482
11.0781
14.2779
10.8786
26.6554
14.1139
18.652
5.37347
3.63236
5.9344
9.99607
7.06664
12.1407
14.4641
2.86541
4.367
5.43905
2.34666
2.21906
2.39143
3.31782
2.88962
3.00068
4.5385
4.98388
4.88692
4.60027
2.95317
3.30661
3.41664
5.8871
7.02989
7.1475
7.58955
6.59389
7.87882
12.06
12.3281
13.7742
5.0839
3.59057
5.75747
5.08044
5.85263
4.61457
7.4304
10.3036
6.80234
9.81131
11.0009
27.7809
8.83821
13.25
35.9557
14.7006
21.2694
41.5828
154.28
21.4238
85.7627
3.92194
3.74542
2.02618
2.07427
2.06379
2.16309
2.35569
2.15419
2.46783
2.22042
2.36563
2.2693
2.26369
2.41281
2.42008
2.55644
2.35864
2.55458
2.68645
2.35431
2.49896
2.74994
2.04906
2.13583
2.30355
2.64958
2.47323
1.44985
2.36012
2.37236
2.06365
2.23418
1.96242
1.52503
2.69391
3.20441
3.19492
3.8666
4.6283
3.84052
3.16551
3.82096
1.84036
2.6123
2.23419
3.07924
1.6497
2.98343
2.49785
3.96054
4.86119
4.04593
5.99656
5.53677
5.27128
6.73523
5.1353
6.53563
6.23536
6.05839
5.5718
5.72241
6.98856
5.32875
6.39077
6.56912
6.79765
7.86795
8.46064
7.98728
7.54139
7.17388
7.48025
7.2589
5.84128
5.98855
7.08725
6.0263
6.96475
7.25743
8.69629
8.41762
9.40245
10.4199
8.18744
8.75218
10.2485
5.29738
6.7329
6.29975
5.6639
7.15183
6.51463
7.91651
8.16294
7.29231
3.48961
5.04941
3.99347
6.19683
2.92507
6.13071
4.77295
8.39274
10.3164
8.63817
4.51888
5.15149
4.50456
5.47896
4.40469
5.29592
4.63245
3.94798
3.52359
4.1567
4.03989
4.10644
4.61595
5.60774
5.59639
4.88151
5.40412
4.75117
4.79056
7.23478
5.99293
7.40952
6.49683
6.94747
6.18856
7.70176
8.45971
9.24493
8.61675
10.5403
8.02662
9.90463
9.06789
7.44264
6.64733
6.55296
8.18412
6.3306
7.91105
7.7248
8.79564
11.1121
11.1504
9.84466
10.4626
9.40985
9.21295
13.2837
10.5064
12.1178
12.124
11.7937
11.4852
13.6678
14.8423
13.0094
13.6256
16.6526
12.432
15.0752
16.7495
4.52843
5.52914
4.65976
4.26572
4.06047
5.67741
5.01736
4.78586
8.81447
10.7318
9.27003
6.77224
8.47888
8.11108
11.33
10.1659
9.62611
13.3219
17.0382
15.3414
2.64879
2.45613
2.22346
3.21365
1.90552
2.76493
3.07438
4.60222
1.41729
2.13379
1.89249
2.29945
2.17023
1.9177
1.39884
2.11025
3.57385
4.18066
3.36531
3.50003
2.87097
2.46864
2.34854
2.06456
2.7317
2.12306
2.44796
2.16363
3.00939
3.52612
2.97615
3.31484
3.20624
3.76323
3.06045
3.40694
3.99958
3.37466
4.23344
5.11984
6.28795
4.21632
6.47712
3.24042
3.69076
2.864
3.21237
3.78205
4.15398
6.04832
4.37815
5.8671
4.35239
8.67186
6.46221
11.0298
8.22687
7.00103
8.04995
13.3946
23.7414
8.68817
16.916
3.97114
4.29483
5.92577
4.23738
5.81041
5.09302
7.95903
12.154
6.93135
13.212
7.53486
20.2915
9.84133
26.0222
34.5051
15.0795
21.9465
37.1463
121.11
24.1708
55.4745
2.8929
3.00138
3.38904
3.07576
3.39862
3.47637
3.56362
4.05113
4.87119
4.95023
4.05745
4.11961
5.01624
4.20298
2.79794
3.05443
3.26442
3.26002
4.0883
3.45429
4.84275
206.057
42.1798
91.1416
244.56
410.305
111.601
289.913
7.45418
8.55417
47.1264
1.14747e-06
6.86734e-10
1.02394
0.72876
1.18216
1.35045
1.44181
1.33225
2.24153
1.04656
1.74186
1.03767
1.87424
1.99081
1.80282
1.91219
2.53895
2.2284
4.43655
4.36427
3.1834
2.43216
3.22696
6.70009
5.7036
4.0071
25.5762
10.37
44.1484
1.00849e-09
2.92587e-13
2.22045e-16
2.22045e-16
69.3885
1.17029e-07
2.95731e-12
2.22045e-16
2.22045e-16
2.22045e-16
0.135135
1.24977e-10
2.22045e-16
2.22045e-16
2.22045e-16
2.22045e-16
3.56618e-15
2.22045e-16
2.22045e-16
2.22045e-16
2.22045e-16
4.81884e-14
2.22045e-16
2.22045e-16
2.22045e-16
2.22045e-16
2.22045e-16
1.04315
1.24699
0.9444
1.08922
1.47876
1.99134
1.43647
1.60141
2.08689
1.69963
1.25302
1.48847
1.70821
1.6326
1.7305
1.53195
2.90324
3.19039
2.63567
1.98004
3.79975
4.26678
3.61138
1.74343
3.2202
3.64336
4.00094
3.7923
2.92254
4.37035
5.11988
4.31437
3.83166
5.17664
1.63635
1.46489
1.66537
1.29558
1.58807
2.23906
2.41826
2.70198
2.84226
3.22159
4.87231
5.0648
5.72729
3.82618
3.94366
4.18475
1.07715
1.23038
1.07523
1.26477
1.24748
1.09037
1.06244
0.978159
1.09911
0.9901
1.08275
1.13332
1.33166
1.45442
1.27683
1.31209
1.14901
1.25651
1.64222
1.41675
1.63628
1.45827
1.43773
1.66283
1.61686
1.85121
1.83677
1.86953
1.81933
1.72347
1.53314
1.6728
1.92915
1.51092
1.74511
1.90423
1.93803
2.15107
1.95615
2.13259
1.07974
1.27117
1.09552
1.10615
0.995083
1.33879
1.28516
1.15519
1.82727
1.86185
1.53962
1.93169
1.7469
2.14038
1.94714
1.53555
1.2849
1.26018
1.57226
1.792
1.69826
1.49655
2.1137
1.46754
2.06985
1.83339
1.89594
2.38356
1.94355
2.32852
2.21163
2.6059
3.11436
2.77562
2.54824
2.26547
2.7101
2.65825
1.94692
2.23594
2.40326
2.20721
2.3608
2.69399
2.94053
2.47745
2.4592
2.96419
3.23745
2.9508
3.52764
4.01739
2.89403
3.28773
3.9341
3.55617
4.37595
3.59527
4.30386
1.50863
2.1314
1.85044
2.40575
1.96356
2.62889
2.80118
2.28728
2.46382
2.95258
2.97194
4.04053
3.30031
4.37563
3.58653
3.13927
2.81993
2.76004
3.20067
3.65688
3.68932
3.28811
4.34986
3.20957
4.21652
3.7472
3.43036
3.68748
3.48999
3.62916
4.00828
4.80102
4.95114
4.34896
4.64328
4.10445
4.252
5.41545
4.18444
4.82485
4.99306
4.6805
4.80647
5.64526
3.31732
4.40019
3.77922
3.69864
3.50723
4.85862
4.37634
4.13594
3.85708
3.81736
3.75535
3.93115
1.05209
0.868999
0.998569
0.7849
1.31293
0.928318
1.0685
1.66643
1.31018
1.85467
1.47451
1.96455
1.56861
1.95472
1.56256
1.02976
1.61263
1.50797
2.26282
1.51723
2.77641
2.22884
1.84593
2.86242
2.4278
3.01769
3.13346
3.24804
2.3764
2.09739
3.41261
2.19548
2.71414
2.50524
3.628
3.40273
3.01139
2.99456
3.94787
3.0178
3.51742
3.20159
4.04522
1.94833
4.76553
12.1377
43.0583
46.6302
0.00764756
0.000397791
6.99266e-08
1.67884e-08
2.625
1.71553
2.1774
2.18952
2.82403
1.92253
1.46111
1.61388
1.59092
1.10226
1.22083
1.42431
2.48281
1.7997
2.02207
1.79332
1.53105
1.36211
2.03377
3.44428
3.38002
3.45519
2.06968
3.28238
1.99621
1.81916
1.42368
2.29268
2.11093
1.64139
2.38765
0.902574
0.801448
1.10713
2.41307
3.23949
0.799378
0.945183
0.950938
1.09829
2.02359
2.04299
2.39522
3.11969
3.12432
2.7667
2.74177
2.96669
3.02131
3.23671
2.74103
3.08844
0.929242
0.814623
0.943265
1.35087
2.72859
3.34972
2.96657
2.85993
4.05199
0.930357
0.792564
0.926267
0.812462
0.806032
0.939677
0.916934
0.854486
0.932326
0.845621
0.858077
1.07833
1.33705
1.30641
1.64895
1.9774
1.60847
1.66664
2.34826
2.71365
2.67018
2.95274
3.08318
2.91437
2.9636
2.3874
2.71438
2.31607
2.84259
2.29796
2.80835
2.40821
2.46768
2.93311
3.02228
2.57252
2.89141
2.49093
2.58885
3.19612
3.34417
3.29366
2.31349
2.84303
2.40481
2.93603
2.62462
2.48791
0.666893
0.691948
0.711228
0.81362
0.693322
0.818199
0.88919
0.93776
1.293
1.70289
0.944946
1.71965
1.89398
2.01909
2.51599
2.63452
2.03392
2.63572
0.611122
0.686937
0.601445
0.705634
0.700681
0.61532
0.597264
0.637244
0.739793
0.803584
0.701702
0.732991
0.642728
0.693866
0.602455
0.707197
0.616618
0.742381
0.70532
0.644707
0.937962
0.922162
0.801244
1.13215
0.789265
1.1076
0.95706
1.13946
1.38879
1.66453
1.42572
1.35574
1.1657
1.39435
0.806958
1.14362
0.966076
1.40382
1.43976
1.17796
1.89656
1.98131
1.69339
2.28797
1.66237
2.2556
1.92224
2.07527
2.48961
2.61047
2.22047
2.46332
2.09487
2.20376
1.70591
2.29915
1.931
2.49653
2.2198
2.09916
2.60693
1.53965
1.24485
1.79957
1.09692
1.56933
1.74819
1.07746
1.50703
1.29296
1.06152
1.4842
2.04553
1.53249
1.58529
1.55499
1.41697
1.78495
2.02472
2.12225
2.42466
1.18867
1.08387
1.24065
1.17525
1.27182
1.20476
1.35081
1.24845
1.42245
1.34907
1.35087
1.31587
1.43542
1.49024
0.740465
0.7193
0.731569
0.849311
0.820646
0.835731
0.835723
1.25913
1.24748
1.45921
1.84141
1.56115
1.13872
1.43657
0.680487
0.692034
0.678318
0.603574
0.579358
0.593085
0.589781
1.27295
1.21533
1.44376
1.07653
1.26724
1.21612
1.41047
1.65837
1.79745
1.64789
1.54997
1.43185
1.55367
1.64667
1.34544
1.48952
1.57231
1.39863
1.54764
1.46853
1.62586
0.779821
0.880698
0.878796
0.902175
1.0128
0.89281
1.01382
0.881343
0.754433
0.767012
0.740844
0.752667
0.86452
0.852004
0.722914
0.778196
0.790676
0.628782
0.672985
0.618443
0.683541
1.90465
1.90282
2.00916
1.64112
1.74
1.72209
1.81202
1.03561
1.26658
1.25557
1.4581
1.2087
1.20232
1.45605
2.74374
1.93366
2.36283
1.67743
2.55726
2.2468
2.70934
1.51492
1.73747
1.78754
1.74434
1.9253
1.70943
2.02181
0.970415
0.9316
1.08336
1.07435
0.950271
1.1039
0.953554
0.805813
0.794067
0.889242
0.88164
1.0291
0.91414
1.01924
1.49922
1.7579
1.66424
1.63559
1.54992
1.71606
1.80929
0.886064
0.898987
0.916057
0.76842
0.781816
0.795357
0.781632
1.04532
1.05831
1.08308
1.09766
1.11744
1.17252
1.14821
1.25952
1.41801
1.34616
1.41431
1.31605
1.44718
1.53401
1.39847
1.62955
1.61962
2.06989
2.70709
2.1752
1.68223
2.01593
2.05987
2.20193
2.40588
2.07692
2.23532
2.20803
0.903859
1.06069
1.08013
0.899786
0.916117
0.762398
0.774774
1.46682
1.42068
1.38671
1.51553
1.64124
1.59714
1.56047
1.01245
1.14533
1.162
0.990958
1.11443
1.13286
0.975943
1.03289
1.15208
1.15774
1.33055
1.01749
1.1768
1.165
1.31923
1.58801
1.62194
1.33183
1.08805
1.35921
1.10992
2.14077
2.23816
2.12284
1.94954
1.84512
1.91287
2.01615
0.961759
0.819173
0.833063
0.900982
0.916129
1.04354
1.06235
1.03027
1.24655
1.24245
1.20046
1.45779
1.45775
1.19939
1.37463
1.76632
1.61023
1.48403
1.35506
1.54129
1.65848
1.26295
1.16548
1.29172
1.09687
1.12363
1.23172
1.20419
2.42272
1.96456
1.67932
2.88351
2.25081
2.54822
2.83813
1.51947
1.82112
1.8491
2.1512
1.78308
1.76624
2.09331
2.21268
1.93662
2.16251
1.83151
1.59541
1.86451
1.62654
1.93677
1.9234
1.79795
1.66219
1.82891
1.76396
1.73632
1.46665
1.69206
1.61285
1.62261
1.53461
1.68819
1.7648
2.84036
4.17506
2.87727
2.1886
3.07717
2.68364
4.74225
1.12237
1.32891
1.17004
1.32252
1.19023
1.25811
1.41304
1.40907
1.32269
1.22564
1.20768
1.35101
1.2497
1.38193
1.36947
1.22777
1.1889
1.04981
1.34888
1.20184
1.1751
1.67347
1.38216
1.58181
1.84383
1.38544
1.65121
1.89501
2.16616
2.32709
2.43679
2.48824
2.7701
2.59544
2.37127
2.35572
2.32169
2.49047
2.55164
2.46233
2.33592
2.68745
2.20837
2.01125
2.10595
1.88792
1.80113
1.88423
1.96614
1.85202
1.78834
1.95813
1.73242
1.90678
1.85809
2.02457
1.02108
1.03486
1.05738
1.17588
1.20527
1.19179
1.22154
1.97566
2.08617
2.09847
2.45971
1.90327
2.20123
2.24627
1.2567
1.57626