/*--------------------------------*- C++ -*----------------------------------*\
  =========                 |
  \\      /  F ield         | OpenFOAM: The Open Source CFD Toolbox
   \\    /   O peration     | Website:  https://openfoam.org
    \\  /    A nd           | Version:  9
     \\/     M anipulation  |
\*---------------------------------------------------------------------------*/
FoamFile
{
    format      ascii;
    class       volScalarField;
    location    "0.0016";
    object      impulse;
}
// * * * * * * * * * * * * * * * * * * * * * * * * * * * * * * * * * * * * * //

dimensions      [1 -1 -1 0 0 0 0];

internalField   nonuniform List<scalar> 
12651
(
0.000811088
1.99644e-10
2.13771e-10
5.54428e-12
1.21266e-13
6.33874e-09
1.30054e-10
2.69647e-12
1.0681e-10
0.0595996
2.3308e-10
1.53181e-09
3.92593e-09
7.41898e-09
1.30685e-11
3.38257e-09
1.40544e-10
5.9401e-10
2.54081e-11
6.83588e-10
8.04015e-10
2.78664e-11
0.00151865
2.93511e-07
0.000330301
1.21407e-05
5.39717e-07
0.000670018
2.03159e-07
0.0113194
0.146254
0.0348092
0.000535454
0.00783782
0.00167111
0.00303781
3.31519e-10
1.95917e-12
3.3666e-11
1.64754e-11
1.3028e-11
3.08341e-11
8.30883e-11
1.13945e-08
1.55389e-10
3.24925e-08
3.60897e-08
1.03579e-09
1.63746e-09
3.39486e-07
0.000142677
0.00592512
0.000641736
6.71905e-05
2.47159e-05
0.000248595
6.43608e-06
1.13432e-10
6.88554e-09
5.18394e-09
5.27041e-10
1.63504e-08
7.04337e-09
1.6576e-07
1.43995e-08
8.09165e-07
3.20975e-08
2.85572e-07
7.18082e-06
3.10088e-08
3.26522e-08
3.4067e-08
9.02064e-07
2.86902e-06
3.59789e-07
9.51904e-06
1.35205e-07
4.5538e-05
3.96363e-06
2.95114e-05
5.30715e-07
0.00140719
2.91879e-05
4.80533e-06
1.59546e-10
2.1361e-12
3.36909e-09
4.80686e-12
9.82254e-15
0
4.98403e-14
2.83762e-14
1.54481e-09
3.47183e-11
6.68418e-13
6.18456e-15
0
0
1.0509e-10
2.86515e-12
5.91778e-14
0
0
0
3.07567e-12
7.80953e-14
0
0
0
0
6.94854e-14
0
0
0
0
0
0
0
0
0
0
0
0
0
0
0
0
0
5.6362e-12
3.25478e-13
4.63981e-10
6.67448e-13
0
0
9.70128e-16
9.70128e-16
3.28077e-10
6.2053e-12
1.00772e-13
0
0
0
1.84082e-11
4.46501e-13
4.48684e-15
0
0
0
4.9137e-13
8.24609e-15
0
0
0
0
6.4271e-15
0
0
0
0
0
0
0
0
0
0
0
0
0
0
0
0
0
1.33756e-13
5.29932e-14
6.58474e-14
0
0
0
0
3.15321e-11
5.65463e-13
4.72937e-15
0
0
0
1.7301e-12
3.27418e-14
0
0
0
0
3.37119e-14
0
0
0
0
0
0
0
0
0
0
0
0
0
0
0
0
0
0
0
0
0
0
0
5.94203e-15
2.54659e-15
7.27596e-16
0
0
0
0
1.85731e-12
2.07365e-14
0
0
0
0
8.14907e-14
0
0
0
0
0
0
0
0
0
0
0
0
0
0
0
0
0
0
0
0
0
0
0
0
0
0
0
0
0
1.07554e-09
3.98722e-12
4.82639e-14
0
0
9.68974e-10
1.99483e-13
0
0
0
0
1.23946e-12
9.58001e-15
0
0
0
0
2.66785e-14
0
0
0
0
0
0
0
0
0
0
0
0
0
0
0
0
0
0
0
0
0
0
0
0
0
0
0
0
0
5.83936e-08
1.01085e-10
5.00064e-12
1.69166e-13
2.54659e-15
0
5.96335e-11
8.84756e-13
1.15203e-14
0
0
0
1.44537e-12
2.07365e-14
0
0
0
0
2.70423e-14
0
0
0
0
0
0
0
0
0
0
0
0
0
0
0
0
0
0
0
0
0
0
0
0
0
0
0
0
0
2.87935e-10
1.72817e-11
8.17454e-13
2.26767e-14
0
0
8.39197e-12
4.54747e-13
1.26117e-14
0
0
0
2.26525e-13
4.72937e-15
0
0
0
0
9.70128e-16
0
0
0
0
0
0
0
0
0
0
0
0
0
0
0
0
0
0
0
0
0
0
0
0
0
0
0
0
0
1.18459e-11
7.18865e-13
2.67998e-14
0
0
0
3.91204e-13
1.6856e-14
0
0
0
0
4.72937e-15
0
0
0
0
0
0
0
0
0
0
0
0
0
0
0
0
0
0
0
0
0
0
0
0
0
0
0
0
0
0
0
0
0
0
0
3.59917e-13
1.41881e-14
0
0
0
0
6.18456e-15
0
0
0
0
0
0
0
0
0
0
0
0
0
0
0
0
0
0
0
0
0
0
0
0
0
0
0
0
0
0
0
0
0
0
0
0
0
0
0
0
0
2.54659e-15
0
0
0
0
0
0
0
0
0
0
0
0
0
0
0
0
0
0
0
0
0
0
0
0
0
0
0
0
0
0
0
0
0
0
0
0
0
0
0
0
0
0
0
0
0
0
0
9.86256e-10
7.71045e-12
4.28735e-10
6.06172e-12
8.83544e-13
5.09317e-15
5.93476e-13
7.51849e-15
0
0
0
0
1.33279e-09
0
1.18113e-13
3.2647e-10
0
4.46259e-14
1.10449e-11
2.93561e-12
3.43668e-13
4.95019e-11
3.79562e-12
1.01718e-12
1.42973e-13
1.31355e-10
1.10989e-09
1.15424e-10
1.57558e-09
6.0856e-11
6.21267e-10
8.51196e-11
2.03242e-13
6.08913e-12
1.62703e-12
2.29071e-12
1.12535e-13
4.85076e-12
1.2642e-12
0
7.71252e-14
2.19491e-14
7.27596e-16
0
6.43922e-14
1.57646e-14
7.27596e-16
0
0
0
0
0
0
1.44707e-10
2.04867e-12
5.26052e-13
1.86386e-13
0
4.54747e-14
0
0
0
0
0
9.9928e-12
0
4.72937e-15
5.60006e-13
0
0
5.68737e-13
1.25753e-13
2.14641e-14
7.30264e-13
1.31089e-13
1.37031e-14
3.51671e-15
1.85254e-11
1.56766e-10
1.85788e-11
5.54028e-12
6.43049e-11
6.36828e-12
2.54659e-14
9.09252e-13
2.68725e-13
1.92207e-13
4.36557e-15
4.3583e-13
8.47649e-14
0
8.24609e-15
9.70128e-16
0
0
2.54659e-15
0
0
0
0
0
0
0
0
1.95845e-13
4.82639e-14
1.30967e-14
0
7.27596e-16
0
0
0
0
0
9.13133e-14
0
0
2.0979e-14
0
0
3.94114e-14
9.70128e-16
0
4.30494e-14
1.43094e-14
0
0
2.27349e-12
1.84341e-11
1.79837e-12
6.35191e-13
7.11916e-12
6.16759e-13
0
8.03993e-14
1.96451e-14
1.61284e-14
0
3.62585e-14
4.72937e-15
0
0
0
0
0
0
0
0
0
0
0
0
0
0
7.88229e-15
2.53567e-13
0
0
3.56522e-14
0
0
0
0
0
2.54659e-15
0
0
0
0
0
3.63798e-16
0
0
1.21266e-16
0
0
0
1.46004e-13
1.05877e-12
9.03431e-14
2.7297e-13
7.7877e-13
3.69861e-14
0
9.70128e-16
0
5.3357e-15
0
0
0
0
0
0
0
0
0
0
0
0
0
0
0
0
0
7.07452e-11
6.71692e-13
4.48684e-15
1.91823e-09
1.09996e-10
7.55689e-11
4.49412e-12
3.832e-13
0
0
7.22745e-12
8.99187e-13
3.08501e-13
2.99527e-14
0
0
0
9.5315e-14
1.00651e-14
1.21266e-16
0
1.53408e-10
1.5809e-11
2.87534e-12
9.74881e-12
4.30858e-13
7.0532e-08
3.56305e-10
1.26117e-14
4.0139e-14
2.10315e-05
1.80041e-09
9.50168e-11
3.79417e-12
5.15502e-13
6.18456e-15
1.12829e-08
6.86045e-10
3.05149e-11
1.14172e-12
2.58296e-14
0
3.18885e-10
1.98537e-11
9.30352e-13
2.6921e-14
0
0
8.464e-12
5.19382e-13
1.3218e-14
0
0
0
1.90994e-13
4.72937e-15
0
0
0
0
5.82998e-08
1.49651e-08
1.4088e-08
9.88586e-09
3.74642e-10
4.00233e-09
2.6787e-09
1.0378e-10
3.77705e-10
1.11457e-11
4.41872e-10
2.69197e-10
1.38549e-11
6.99058e-11
2.66364e-11
3.04996e-12
1.51849e-12
9.95891e-10
3.85141e-13
2.15974e-11
4.6115e-12
1.03028e-12
4.46875e-11
7.64e-12
1.54687e-12
4.58628e-13
2.37857e-10
8.97368e-14
3.4494e-11
1.37031e-14
2.93597e-12
3.36513e-13
1.39698e-13
3.32135e-12
1.06047e-12
1.25753e-13
5.42059e-14
8.35724e-07
1.08006e-06
1.30838e-08
9.17387e-10
8.37132e-07
5.21608e-08
4.5296e-08
2.52417e-09
2.45029e-09
4.82745e-11
4.15372e-12
3.01367e-09
3.46404e-10
1.53618e-10
1.86939e-11
4.86419e-11
5.59764e-13
3.49246e-14
3.95835e-11
6.99523e-12
2.13404e-12
3.61494e-13
4.17621e-08
4.78517e-08
1.003e-10
1.47282e-09
4.02398e-10
1.23634e-09
2.8177e-10
5.99888e-11
8.58659e-11
2.02631e-11
1.89397e-10
1.45058e-12
2.89401e-12
8.82574e-13
2.54052e-13
2.24099e-13
6.6575e-14
8.2473e-13
1.74623e-14
3.21355e-14
8.36735e-15
4.85064e-16
0
0
5.94203e-15
2.61457e-11
1.27125e-10
3.08434e-10
9.60474e-10
1.17607e-10
2.67971e-10
2.97789e-11
3.32717e-12
7.3087e-13
3.20029e-11
6.70577e-12
6.31432e-13
2.91052e-11
3.74748e-12
1.58552e-11
4.64907e-10
4.7815e-11
9.10385e-11
6.26441e-11
1.70754e-10
9.00909e-12
1.97275e-12
6.54133e-12
4.50139e-13
1.07861e-11
5.38542e-13
1.63796e-11
1.17846e-12
7.39722e-15
8.7554e-14
1.93177e-13
8.33218e-13
7.99143e-14
1.72925e-13
1.27329e-14
0
0
1.97664e-14
2.54659e-15
0
9.70128e-15
0
4.48684e-15
6.02085e-13
4.95978e-14
8.9373e-14
5.6995e-14
1.20781e-13
3.03165e-15
0
1.69772e-15
0
9.58001e-15
0
1.3218e-14
0
0
0
0
0
0
0
0
0
0
0
0
0
0
0
0
0
0
0
0
0
0
0
0
0
0
0
0
0
8.67063e-10
2.48777e-10
1.63744e-10
1.98548e-11
1.21268e-11
9.51016e-12
3.04219e-11
8.73115e-15
0
2.42532e-16
0
0
1.21266e-16
1.43094e-14
6.40738e-11
8.04857e-11
2.62427e-11
7.3606e-12
1.88629e-12
3.70734e-12
2.02308e-12
2.91038e-15
0
0
0
0
0
1.21266e-16
2.3351e-12
1.85149e-11
5.05149e-11
4.50115e-12
2.35506e-11
3.05105e-13
1.66619e-13
4.87004e-12
7.02979e-13
5.40846e-13
5.74801e-14
3.01297e-12
1.55584e-13
5.74801e-13
2.92251e-14
9.13739e-13
3.80775e-14
1.4752e-12
9.34961e-14
0
1.66134e-14
5.55398e-14
8.90092e-14
7.27596e-16
4.72937e-15
2.08577e-14
0
0
1.69772e-15
0
0
0
0
0
4.05028e-14
3.63798e-16
3.51671e-15
7.27596e-16
9.21621e-15
0
0
0
0
0
0
0
0
0
0
0
0
0
0
0
0
0
0
0
0
0
0
0
0
0
0
0
0
0
0
0
0
0
0
0
0
4.76903e-12
2.72582e-12
2.28453e-12
1.17022e-13
4.57294e-13
3.41485e-13
1.85537e-13
0
0
0
0
0
0
0
5.37087e-13
3.02559e-13
2.76365e-13
2.83762e-14
2.51021e-14
6.41497e-14
1.17628e-14
0
0
0
0
0
0
0
3.28631e-14
9.58001e-15
5.68252e-13
8.01568e-14
5.14168e-14
2.06152e-15
3.92174e-13
1.3218e-14
5.73588e-14
4.85064e-16
8.87667e-14
9.70128e-16
1.66741e-13
4.72937e-15
0
0
1.21266e-15
6.30583e-15
0
0
0
0
0
0
0
0
0
0
0
1.69772e-15
0
0
0
0
0
0
0
0
0
0
0
0
0
0
0
0
0
0
0
0
0
0
0
0
0
0
0
0
0
0
0
0
0
0
0
0
0
0
0
0
5.52973e-14
7.96717e-14
4.24431e-14
1.21266e-16
8.97368e-15
2.54659e-15
2.06152e-15
0
0
0
0
0
0
0
1.60071e-14
1.28542e-14
7.39722e-15
0
0
9.70128e-16
0
0
0
0
0
0
0
0
1.16415e-14
0
3.12866e-14
1.33393e-15
9.70128e-16
1.21266e-16
1.97664e-14
3.95206e-13
1.49157e-14
1.02009e-12
1.59707e-12
3.54097e-14
8.7554e-14
1.30087e-11
0
0
0
0
0
0
0
0
0
0
0
0
0
0
0
3.63798e-16
1.57403e-13
6.79089e-15
3.27418e-15
0
3.43183e-14
0
0
1.21266e-16
0
0
0
4.12304e-15
0
0
0
0
0
0
0
0
0
0
0
0
0
0
0
0
0
0
0
0
0
0
0
0
0
0
0
0
3.63798e-16
0
1.69772e-15
0
0
0
0
0
0
0
0
0
0
0
0
0
0
0
0
0
0
0
0
0
0
0
0
0
2.33957e-11
5.38422e-11
1.49886e-11
1.20668e-11
1.09418e-12
4.13384e-12
3.7014e-12
1.95238e-13
2.4423e-13
1.17507e-13
9.26472e-14
4.72937e-15
1.70985e-14
2.94676e-14
5.64823e-07
5.1919e-06
7.33194e-07
5.17984e-06
1.34417e-06
2.54337e-09
3.75767e-08
6.24613e-09
7.09827e-08
2.50894e-09
3.84107e-08
6.31943e-09
1.89963e-11
2.13523e-10
4.46588e-11
3.59261e-10
2.15513e-11
1.90919e-10
4.49495e-11
3.84121e-08
8.37356e-09
5.5038e-09
1.67091e-06
2.77993e-07
1.84885e-07
2.49521e-06
2.16562e-09
3.61177e-09
7.25515e-10
6.74047e-07
2.26287e-08
7.43431e-08
1.65269e-07
1.11026e-10
7.06432e-11
4.55847e-11
2.27417e-09
3.12447e-09
1.77722e-08
9.53722e-10
9.08064e-12
5.36602e-12
5.32685e-12
2.45712e-10
8.46986e-11
1.48061e-10
1.00074e-10
9.17862e-13
1.41408e-12
8.71417e-13
1.48973e-11
2.23825e-11
2.27913e-11
1.29223e-11
7.75894e-11
9.83202e-10
9.63351e-10
6.1842e-11
1.11551e-09
7.3967e-11
6.04078e-11
2.97829e-13
3.32269e-13
2.32709e-13
5.23166e-12
3.79344e-12
4.87113e-12
3.82109e-12
5.12955e-14
3.45608e-14
6.73026e-14
7.40935e-13
1.14863e-12
1.17398e-12
7.30506e-13
1.47944e-14
1.27329e-14
8.97368e-15
1.83718e-13
1.96693e-13
1.6383e-13
2.37803e-13
9.89448e-08
3.79549e-06
2.3318e-07
1.3785e-05
4.56036e-06
8.24088e-05
9.62276e-07
1.28672e-07
4.8459e-08
7.51785e-07
1.16409e-07
1.35867e-06
4.95749e-08
5.13352e-09
1.93247e-08
4.10054e-09
4.87833e-08
3.1006e-07
5.64355e-08
1.24279e-07
3.0966e-10
7.39332e-10
2.23457e-10
1.01235e-08
3.28388e-09
9.57642e-09
3.34499e-09
3.84959e-10
4.1377e-09
2.08585e-10
2.42577e-09
3.94064e-10
4.12658e-09
2.05631e-10
1.57443e-11
3.89164e-11
1.21322e-11
1.71972e-10
5.02035e-10
1.71111e-10
4.93051e-10
1.84433e-12
3.00824e-12
1.48999e-12
3.34775e-11
1.75729e-11
3.46111e-11
1.70968e-11
1.9633e-13
4.39104e-13
1.69894e-13
1.72828e-12
4.63418e-12
2.00065e-12
4.59683e-12
1.2252e-11
2.34491e-10
1.76001e-11
2.07435e-10
1.68839e-11
2.00347e-10
1.24089e-11
2.82877e-12
2.66911e-11
3.68657e-11
2.70011e-12
3.72433e-11
2.42362e-12
2.94337e-12
7.37476e-09
1.69514e-07
1.19355e-08
6.65161e-10
7.69861e-09
1.1039e-09
5.16558e-09
6.07479e-11
4.57646e-12
1.00185e-06
4.02554e-11
1.45003e-10
1.78254e-11
3.87675e-12
1.80189e-11
1.23036e-12
2.70784e-10
1.32323e-11
0.000218034
2.28286e-05
1.01604e-05
3.04685e-09
3.14391e-08
1.27938e-10
1.36031e-11
1.37564e-12
4.5274e-11
4.35478e-12
7.59658e-12
5.59739e-12
1.59029e-11
7.55851e-13
3.0365e-13
2.14398e-12
6.3524e-12
1.38179e-11
5.26537e-13
1.58325e-12
3.31189e-12
1.494e-13
5.32576e-12
4.18489e-13
8.12846e-13
6.28764e-13
1.88544e-12
6.14818e-14
1.87962e-13
1.99725e-13
4.00299e-13
1.41784e-12
3.24993e-14
2.49662e-12
2.51263e-13
5.72133e-12
1.24878e-11
2.56653e-09
2.04623e-11
8.1063e-11
1.20611e-12
1.87752e-10
1.3471e-05
6.8237e-05
0.00119358
0.000246364
0.0309782
0.00160225
0.00437331
4.90577e-07
1.81298e-06
4.64656e-05
6.96649e-07
2.84548e-06
1.18982e-07
6.2576e-08
0
0
0
0
0
0
0
1.56024e-10
3.14501e-11
6.61518e-12
4.79946e-12
2.41441e-13
5.09387e-11
2.82574e-12
7.27596e-15
9.94381e-15
0
2.76826e-12
1.81171e-13
1.38607e-13
2.44957e-14
0
0
0
8.36735e-15
0
0
0
0
0
0
0
0
0
0
2.77002e-09
1.52971e-10
2.75422e-09
4.25675e-10
4.02342e-09
1.72771e-10
3.02066e-11
2.96522e-10
3.87222e-11
6.28786e-11
1.42223e-11
2.7668e-12
5.84854e-12
2.16011e-12
6.36477e-12
1.85525e-12
1.85185e-12
2.98436e-13
6.41497e-14
2.74182e-13
8.08844e-14
1.63224e-13
3.80775e-14
3.75924e-14
2.54659e-15
0
2.18279e-15
0
4.6263e-13
5.62917e-13
1.83112e-14
9.68915e-14
4.78152e-13
1.23691e-14
6.97279e-13
1.7147e-13
5.00828e-14
1.18477e-13
1.33393e-15
1.91115e-13
4.24431e-15
5.45697e-14
2.30405e-15
2.43745e-14
0
3.63798e-16
1.07927e-14
9.70128e-15
0
0
0
1.21266e-16
0
1.33393e-15
0
0
0
0
0
0
0
0
0
0
0
0
0
0
0
0
0
0
0
0
0
0
0
0
0
0
0
0
0
0
7.03161e-12
5.63814e-12
1.57161e-13
7.59549e-12
1.42221e-12
1.7243e-11
1.86931e-12
1.11504e-12
7.84591e-14
3.08016e-14
1.08654e-13
2.83035e-13
4.62145e-13
3.56158e-13
3.0559e-14
1.12777e-14
0
2.06152e-14
2.54659e-15
7.72464e-14
4.85064e-15
4.72937e-15
0
0
0
0
9.70128e-16
1.21266e-16
0
1.69772e-15
1.21266e-16
0
0
0
0
0
0
0
0
0
0
0
0
0
0
0
0
0
0
4.9719e-15
5.20231e-14
9.32535e-14
2.68871e-12
4.19095e-13
8.4195e-13
1.51461e-13
1.11765e-06
4.31754e-08
5.73671e-09
6.36914e-08
8.39463e-07
5.00018e-07
6.18279e-08
5.00585e-09
8.1536e-10
1.32432e-09
6.21889e-08
2.46861e-08
2.94758e-08
1.78889e-08
1.20673e-10
4.36136e-11
4.37868e-11
2.02361e-09
1.02335e-09
1.73439e-09
1.0316e-09
3.48688e-12
1.16997e-12
1.20332e-12
6.09874e-11
2.81817e-11
6.25012e-11
2.87513e-11
4.37564e-12
5.94292e-11
4.36715e-12
4.51021e-11
6.05687e-12
3.45515e-11
4.084e-12
2.31618e-14
6.18456e-14
4.24431e-14
4.47108e-13
3.70953e-13
5.60976e-13
3.62343e-13
3.78055e-10
1.91464e-11
3.38827e-10
4.54444e-12
3.67784e-11
7.15615e-11
1.22025e-10
6.89292e-10
4.02594e-09
2.18719e-10
4.75762e-09
2.63873e-09
2.37815e-08
6.73593e-08
7.39722e-15
0
0
1.83112e-14
2.54659e-15
0
0
0
0
0
0
0
0
0
0
0
0
0
0
0
0
0
0
0
0
0
0
0
0
0
0
0
0
0
0
8.25622e-11
2.11221e-12
3.79562e-14
0
1.39412e-11
3.22446e-13
2.18279e-15
0
1.31052e-12
2.0979e-14
0
0
6.80302e-14
0
0
0
2.95889e-14
0
0
0
2.69363e-09
5.15973e-10
5.32031e-11
2.99685e-12
2.44994e-12
7.46276e-11
1.38122e-12
1.98876e-14
0
0
0
5.16532e-12
1.07563e-13
0
0
0
0
6.67072e-12
1.75593e-13
4.85064e-16
0
0
0
0
1.86022e-13
9.70128e-16
0
0
0
0
0
1.21266e-16
0
0
0
0
0
0
31.3585
95.46
0.0150691
1.94539e-07
20.3661
0.000117602
7.64686e-09
4.85167
8.36273e-07
3.58772e-05
28.4828
1.81642e-07
1.27829e-08
0.770594
1.00223e-06
7.34092e-10
0.0825307
1.69319e-08
0.0239201
4.2658e-05
0.00577645
1.12277e-07
2.83546e-09
2.40867e-05
2.8699e-08
1.29664e-10
1.779e-06
1.45949e-10
4.28689e-05
7.85767e-06
0.353492
9.723e-06
1.04949e-08
3.82105e-10
0.00184753
5.91386e-07
2.00123e-09
1.97697e-11
7.65728e-06
1.36176e-09
5.30365e-07
5.94679e-08
1.93231e-09
5.76662e-11
0.0130783
3.59645e-06
1.40225e-08
3.65798e-10
2.60346e-12
0.000104182
1.00419e-07
3.50821e-09
1.20892e-10
3.55685e-12
2.51864e-06
1.37986e-08
3.8148e-10
1.07106e-11
2.65815e-13
3.31184e-09
1.35552e-10
4.84724e-12
1.38971e-13
1.31874e-08
4.5842e-10
1.51361e-11
4.60811e-13
3.75924e-15
3.13828e-10
1.312e-11
4.74756e-13
7.88229e-15
0
26.2375
5.23422
0.00360922
1.80804
6.17572e-05
12.198
0.00024381
0.163946
1.50133e-05
44.5212
12.3011
8.23346e-05
0.461898
7.37352e-06
2.02266e-07
1.11571
0.000609055
3.26468
0.00167637
1.44444e-06
3.96914e-05
3.17479e-08
1.02789e-09
0.0008865
2.88602e-05
0.00186323
0.000105571
0.000201275
2.5738e-07
7.24362e-07
9.9159e-07
3.72239e-08
3.31991e-06
1.41814e-07
4.29228e-08
7.8363e-09
7.1215e-05
0.000111731
2.37923e-08
5.1255e-09
3.62687e-09
0.0349988
0.000714892
2.28304
0.0137043
0.00782908
2.75756e-06
1.3132e-05
3.80748e-05
9.96001e-08
4.15109e-05
2.02317e-06
4.88957e-07
5.48384e-09
2.73786e-08
1.4865e-08
1.64984e-09
8.73097e-08
4.0619e-09
9.66928e-10
2.42297e-10
0.000171888
0.00151967
3.39081e-07
8.41438e-09
4.89948e-08
5.54247e-10
1.1265e-10
0.00195182
1.24533e-05
7.36826e-07
0.141304
3.58372
0.0984986
4.26841e-05
0.0297457
7.67152e-06
0.00050102
4.15085e-06
1.66092e-05
4.18241e-07
0.00191045
0.00929787
0.000213799
4.94076e-08
8.19382e-08
4.78039e-09
4.13825e-07
9.69366e-07
9.91976e-08
3.20281e-10
6.73834e-10
1.43255e-10
7.13643e-05
0.000644164
7.29987e-06
6.28508e-05
4.10479e-06
9.63458e-06
6.0158e-07
2.12726e-07
3.26099e-07
1.77322e-08
2.53553e-07
5.23608e-08
3.19632e-08
4.55941e-09
4.72616e-09
1.23233e-09
2.48435e-10
7.65619e-09
1.80786e-09
5.60142e-10
1.12456e-10
9.5041e-06
1.13643e-05
25.268
21.5386
20.2427
13.1946
4.00178
11.6136
0.0565622
1.99515
0.0543291
1.28503
1.38507
0.0377937
0.0826409
0.0234161
0.576693
0.159257
0.0043966
0.597048
0.0163194
0.00592642
38.0791
25.8865
1.67608
0.0110179
0.041842
2.69825e-05
2.39483e-05
0.000252218
6.69366e-07
0.000977468
2.27665e-06
6.83907e-06
0.75083
0.135775
0.0889752
0.0106344
0.000497969
0.00734016
0.400738
0.0305396
9.89289e-08
4.32115e-05
9.82386e-08
6.08371e-07
8.86854e-07
5.14224e-06
2.46088e-08
0.000708163
9.50946e-07
1.63194e-05
8.34238e-05
4.01663e-05
0.00098065
2.05208e-06
0.000791178
1.02368e-05
4.16325e-05
0.000305105
0.00164197
0.00134305
1.15891e-05
0.00571095
7.07581e-05
7.93102e-05
1.87506e-05
4.43369e-07
3.39112e-06
9.88349e-07
4.33645e-06
3.54064e-06
7.47697e-06
5.30283e-07
2.92106e-06
9.62711e-08
1.86762e-07
8.88241e-07
1.51989e-06
3.7392e-08
2.55368e-07
6.30815e-08
5.48453e-07
9.67061e-09
6.40341e-07
1.88076e-08
1.31642e-07
0.00284636
2.66568e-06
9.69425e-05
0.00336247
4.28311e-06
0.000106257
1.24006e-07
2.0509e-07
3.28998e-06
2.50631e-10
6.15609e-09
3.72073e-10
3.19742e-09
3.58922e-10
4.2746e-09
2.12235e-10
8.27351e-09
7.82565e-10
1.58298e-09
0.0165233
0.00545043
0.0129849
0.000114506
0.10001
0.000892729
0.00208457
0.0374656
0.0639172
0.000464713
0.00464261
0.00373513
0.00208077
1.54131e-05
2.08814e-05
2.71868e-05
0.000119856
0.000261749
0.000213863
7.61229e-06
0.000286998
2.61304e-06
6.63151e-06
1.9761e-05
5.04364e-05
8.98383e-07
2.10332e-06
1.21246e-06
3.04344e-07
4.84961e-08
2.63969e-06
5.80138e-07
1.91852e-07
4.21887e-06
1.17819e-06
4.84813e-06
1.4832e-07
9.25487e-06
3.49971e-07
2.22157e-06
5.66232e-07
1.28539e-08
6.67514e-08
2.15627e-08
1.65799e-07
5.53306e-08
2.78443e-07
2.29816e-08
1.47285e-07
3.85922e-09
7.83621e-09
4.47849e-08
8.35191e-08
1.77303e-09
7.50239e-09
1.84366e-09
1.10468e-08
2.82369e-10
1.85907e-08
5.56543e-10
2.93255e-09
0.00384337
1.86162e-05
0.000391969
7.48855e-05
0.000865364
2.17509e-06
3.93484e-06
4.14067e-05
3.66265e-08
4.01119e-09
1.71782e-08
1.47441e-07
1.18886e-08
2.88244e-08
1.05735e-09
1.978e-09
4.86609e-09
1.70661e-10
4.17298e-11
4.59265e-11
0.000209915
0.0381872
8.79499e-05
0.000116811
0.00170986
0.0019216
1.26809e-05
1.33138e-06
6.53661e-05
0.00338616
8.0862e-06
5.67981e-05
0.00233761
5.5278e-06
9.5113e-05
6.74351e-09
4.84897e-08
5.46855e-08
1.57667e-09
4.03663e-07
2.77899e-09
1.99051e-09
0.391359
57.1199
0.0145246
54.5583
0.114861
42.919
0.000970628
6.87508e-07
3.70755e-06
1.18462e-07
1.03341e-05
2.81756e-07
1.27676e-06
4.22718e-08
4.48879e-08
3.32189e-07
7.68067e-09
1.40237e-07
1.33535e-08
1.49983e-08
1.11463e-09
0.126112
0.290989
7.24573
0.0978267
0.176565
0.00901628
8.03117e-06
0.0005919
1.82662e-06
7.61831e-05
2.02591e-06
1.2427e-05
5.50321e-07
7.92471e-09
1.95826e-09
3.97718e-10
1.14173e-08
2.72314e-09
6.52234e-10
1.34369e-10
0.000316173
0.0468035
3.76739e-05
0.000314559
2.84605e-05
0.000138483
7.95111e-06
5.0019e-07
2.81968e-06
1.24939e-07
1.62046e-06
1.65919e-07
3.51893e-07
2.55358e-08
1.0575e-09
1.37132e-10
5.58591e-11
1.06558e-09
3.73569e-10
5.99374e-11
2.0213e-11
0.0276803
0.000767571
0.00350318
0.000998951
0.00319981
9.4105e-05
0.000129466
0.000276252
2.19491e-05
6.23589e-07
0.000271136
7.34804e-06
2.81468e-06
1.21912e-05
0.00514173
1.29164
0.000176223
0.0651404
2.62202e-05
0.105704
5.73207e-06
1.31609e-10
3.61564e-11
7.68899e-12
2.15979e-10
5.12284e-11
1.37092e-11
2.85266e-12
2.84029e-05
1.51606e-06
2.45357e-08
6.33947e-10
1.41713e-11
384.425
482.079
342.237
271.258
421.47
338.612
12.278
408.649
256.087
425.592
175.844
238.59
77.1559
237.338
64.7932
179.961
0.0846631
3.73897
0.250686
142.759
16.5962
5.82895e-05
1.72301e-05
0.000217398
6.41743e-08
2.1033e-07
1.8713e-09
1.00471e-10
4.29197e-12
1.42124e-13
0
5.07921e-09
4.88511e-11
2.66264e-12
1.06229e-13
0
0
1.12894e-10
7.44039e-12
3.35907e-13
6.0633e-15
0
0
1.10534e-12
4.70512e-14
0
0
0
2.50438e-12
1.55827e-13
7.27596e-16
0
0
0
462.142
470.013
454.534
380.701
376.091
67.8406
348.896
209.853
52.4978
252.231
568.187
448.231
305.043
235.785
315.085
298.134
79.3163
69.6822
12.7411
193.208
1.22903
0.0120329
15.1996
376.46
104.174
31.0117
3.10066
15.9869
84.9244
0.649765
0.00389916
1.09293
33.4955
0.00291992
267.883
399.595
249.963
636.422
559.212
119.963
164.962
66.232
209.008
93.7667
0.11232
0.123827
0.00353449
0.0842799
0.00856236
0.000254183
509.021
426.146
575.926
453.34
412.01
560.058
522.015
571.541
589.011
629.422
533.485
481.615
422.097
340.804
488.665
383.211
530.358
442.149
187.719
318.093
218.256
331.302
303.083
202.977
201.771
85.3403
102.461
91.89
95.8871
159.513
298.899
228.722
134.286
273.121
174.158
119.624
64.6165
45.549
71.6235
38.0722
700.442
545.589
677.389
702.913
758.189
504.918
580.616
636.201
136.549
124.362
360.102
172.331
217.173
69.792
101.06
424.462
538.851
485.646
474.63
320.95
283.62
432.942
238.16
391.039
207.617
359.405
336.462
270.622
386.308
223.445
225.993
151.669
47.2434
159.943
121.818
264.921
125.314
29.2628
170.455
87.928
126.402
72.7481
103.372
42.185
2.453
20.3097
14.3013
4.61093
5.15717
60.8247
7.34777
0.826832
41.8216
10.4045
0.342114
0.203779
0.0225542
0.406915
0.0128783
511.473
290.852
427.835
341.78
463.762
197.078
211.78
326.585
36.6266
11.2746
90.5915
2.73969
22.2242
0.0706639
1.30591
44.8427
151.49
116.512
56.6005
8.69756
7.75191
67.0863
0.972602
44.9863
0.618602
12.9688
16.9737
1.19126
9.94009
6.53271
1.79622
0.037464
0.0252955
0.0716033
0.105817
0.755188
0.45283
0.00161182
0.439299
0.0336341
0.03665
0.0187981
0.0326256
0.00123975
104.262
3.5081
29.5187
1.41342
21.5494
0.0985022
0.0695743
2.34654
0.294326
0.222339
1.73282
0.0366194
388.424
464.432
403.257
455.525
328.527
421.199
362.592
161.95
283.669
119.371
284.661
116.647
229.814
101.348
300.674
390.58
250.676
321.438
168.538
303.388
104.303
81.2003
199.894
16.903
111.346
1.44739
26.6606
2.50063
118.897
211.44
25.3493
184.893
34.7598
154.551
10.6929
5.22991
5.60021
56.469
0.870926
15.1916
0.0958841
8.3611
0.0373129
77.4443
7.1535e-05
1.80784e-06
1.70021e-07
3.5188e-08
4.49012e-09
9.80536e-10
1.02975e-10
2.44209e-11
0.580196
1.11309
0.0324439
0.100539
0.0015455
0.225672
2.43157
0.665268
4.11807
21.3797
9.7462
13.9767
0.00315891
0.132161
0.0162676
0.662007
0.400595
2.72495
0.0659469
0.0783094
0.641005
0.0188872
0.522587
0.0008559
0.0812729
10.2065
0.880901
0.00403515
0.755194
0.0373414
0.0329343
546.718
946.635
755.557
336.412
1.81276
769.212
683.234
819.622
635.489
389.497
480.883
256.187
13.5306
16.4825
49.7472
24.6853
5.83299
0.124597
3.34486
22.344
0.0322794
825.029
920.849
800.881
683.892
192.737
0.194076
2.56516
0.00969589
0.00151267
598.601
695.606
675
753.715
683.799
659.3
610.917
723.567
617.619
655.688
875.773
571.052
577.797
514.319
500.585
325.398
435.998
596.228
204.205
134.588
107.781
49.8961
32.4931
56.5448
77.7833
62.7035
48.8741
77.04
7.56331
92.8996
25.681
38.165
33.4496
1.21458
1.02969
1.78605
8.045
12.2839
10.4902
15.6993
0.598403
4.54068
89.7334
4.24974
36.8535
0.431094
0.711895
8.32649
626.843
859.743
585.963
772.669
1067.64
933.958
488.901
726.063
347.311
498.837
871.263
615.564
216.342
366.381
129.005
58.0607
471.818
72.4782
844.297
776.936
948.111
844.355
765.654
932.826
854.535
811.293
813.287
695.219
857.659
735.311
900.042
767.169
1190.9
1039.96
1160.95
991.958
1047.44
1109.02
661.11
649.095
811.405
671.552
719.644
592.893
757.163
585.265
600.085
414.051
588.352
517.746
686.002
486.504
985.325
803.254
918.505
722.169
736.274
840.7
260.63
291.172
462.637
231.9
368.555
182.61
330.206
177.949
124.219
74.875
131.349
111.959
214.908
126.388
597.715
312.864
439.53
171.227
171.327
290.897
0.0177366
8.49113
8.13597
5.81123
26.4462
26.3907
1.25885
443.885
214.778
308.986
419.609
329.456
184.214
313.12
202.153
169.358
245.913
248.883
196.962
135.85
47.6006
399.38
437.62
393.808
413.015
374.984
406.825
369.159
350.835
302.264
344.821
282.013
327.699
321.871
275.582
483.289
489.337
493.109
447.96
461.47
460.942
450.812
323.906
220.108
166.471
133.618
178.893
357.172
297.916
621.576
686.113
695.11
752.763
677.051
677.598
757.517
378.769
388.571
352.576
429.464
386.845
398.605
361.587
284.31
258.214
306.288
293.793
337.436
314.594
267.508
275.182
268.272
239.205
244.643
237.698
214.155
207.206
467.474
436.578
423.936
419.811
402.973
433.148
390.114
454.379
519.824
513.908
489.06
486.842
441.135
447.122
652.975
540.585
609.433
718.46
596.871
642.884
672.389
220.006
218.28
187.083
259.357
230.483
228.809
198.161
396.982
369.759
359.959
331.346
377.034
364.138
342.64
1.0349
52.4999
41.8015
181.817
33.5833
155.954
11.0162
312.968
274.577
264.524
286.653
248.177
297.138
237.037
408.359
428.296
371.996
381.212
423.843
363.89
414.243
478.967
454.896
435.441
417.995
381.339
411.008
378.81
222.442
195.734
215.92
167.78
189.396
182.512
160.755
499.781
487.224
533.275
567.575
557.927
612.855
624.512
377.603
378.333
370.991
334.815
326.251
319.337
328.17
377.826
306.913
343.953
332.173
371.544
337.829
300.249
295.627
130.886
164.58
97.4692
3.24272
128.588
269.255
224.916
208.125
194.698
158.416
206.447
193.041
173.908
559.067
423.95
495.439
479.641
558.645
547.078
623.069
263.962
251.928
299.718
293.45
207.028
256.795
245.194
391.318
341.45
330.183
393.692
354.202
345.052
401.75
382.051
356.282
367.602
313.811
396.514
340.479
353.976
411.686
274.25
318.08
319.429
398.651
383.162
476.678
176.958
139.493
162.163
187.317
207.378
173.464
151.391
503.178
523.203
581.421
478.645
539.281
411.063
461.018
386.618
350.129
344.802
342.465
305.206
318.286
350.513
352.927
280.867
320.191
323.627
363.159
329.86
291.543
305.863
348.649
296.634
369.176
361.263
309.355
318.388
1.82544
33.3995
116.386
0.30849
80.9527
13.6343
0.252199
293.835
253.676
241.594
207.126
259.497
273.963
223.634
164.415
229.391
177.578
211.6
254.586
217.895
290.755
236.11
226.609
275.982
285.518
196.928
247.516
236.755
210.825
160.909
203.549
132.15
177.565
169.875
123.497
0.110762
0.00260718
1.13394
34.9224
0.0156386
5.89575
0.000141965
352.443
317.569
346.062
277.352
304.241
297.56
270.703
263.246
290.63
324.573
333.329
281.297
315.406
272.551
279.403
306.817
329.114
367.657
296.874
322.818
339.382
295.712
340.924
286.145
268.141
327.127
308.931
252.937
196.009
179.23
160.999
157.811
117.792
140.01
177.261
170.985
164.62
149.829
131.598
124.727
148.378
106.982
97.8305
182.533
146.97
149.799
194.139
159.704
112.062
175.304
159.04
152.121
144.576
137.162
117.189
109.269
425.352
411.26
447.649
346.831
371.158
333.055
356.737
251.568
222.402
214.635
149.707
264.784
205.776
200.187
325.33
249.972
275.891
308.858
336.988
288.034
261.558
487.162
365.32
422.724
343.99
360.207
407.891
307.038
102.374
128.229
151.831
164.99
144.308
185.254
172.291
131.029
114.591
85.6999
166.722
142.868
127.213
98.7484
1.71283
0.511862
1.2704
154.133
100.764
69.1877
112.149
125.576
102.761
150.504
142.645
69.4097
94.3916
117.564
244.018
311.158
235.924
268.986
261.264
294.428
219.185
81.0175
62.473
112.933
168.548
99.2818
151.753
131.445
280.073
211.304
271.049
263.807
212.415
203.583
272.943
417.866
271.842
305.802
340.146
288.105
327.981
375.731
227.743
273.89
218.692
242.309
304.387
294.973
251.403
262.965
288.972
255.666
248.284
241.238
210.735
202.495
341.113
234.033
251.484
266.365
189.323
249.659
183.402
296.954
213.588
262.438
280.05
269.325
311.754
234.777
110.055
131.824
134.475
64.1036
88.3533
111.514
86.4686
70.1296
93.5928
118.919
132.154
59.4056
83.4361
106.898
116.302
98.5468
126.617
53.614
99.2239
81.2788
70.4303
187.637
249.677
240.615
253.633
201.564
192.763
262.738
217.403
155.42
209.056
104.638
158.812
149.714
95.8103
219.887
234.096
177.774
280.193
246.089
231.837
191.563
113.74
171.158
139.22
64.0961
134.47
112.317
91.9359
254.315
175.613
200.536
223.834
250.613
275.142
199.269
161.852
160.143
216.354
235.662
128.059
185.642
182.234
75.6979
104.433
76.8042
119.14
144.35
119.849
91.7066
225.743
192.667
251.314
244.234
158.571
184.971
218.603
170.692
142.088
150.773
206.091
233.849
224.831
215.059
54.9648
21.9607
38.9114
84.2088
77.8986
102.844
60.4112
48.395
84.3756
92.2398
129.962
122.229
83.8857
76.0593
178.536
203.928
277.791
259.81
194.252
264.685
189.682
141.477
205.236
240.427
219.435
187.488
161.05
201.749
262.933
296.088
240.695
191.566
324.308
250.183
181.902
43.3339
56.0045
107.681
68.204
91.4933
77.9144
131.413
0.000297808
0.0243818
0.00124441
0.449135
0.0146239
4.30413e-05
5.71985e-05
160.395
196.021
221.617
234.309
147.595
174.19
208.729
71.2878
184.345
123.414
143.389
198.07
137.857
84.5357
107.25
79.5021
71.1313
60.7731
53.035
32.0344
26.1466
0.144145
0.0184177
2.33507e-05
0.000485
2.15065e-05
3.50104e-05
0.02665
0.00032045
0.000809442
0.0976629
0.00107696
0.332846
0.906114
0.000810808
29.8234
54.4747
15.3115
64.1719
42.2998
21.0305
9.17211
99.1612
45.7029
91.1956
29.006
70.0715
62.5892
23.7258
58.068
81.6985
109.968
21.2837
41.6343
38.2663
63.2615
78.2072
84.4031
107.052
41.3845
20.36
36.3888
61.5225
24.3751
61.7461
74.1226
98.8435
53.8529
111.879
65.9173
156.41
237.626
148.689
203.587
175.15
238.802
125.29
143.546
123.782
97.015
187.606
180.354
206.131
161.514
27.5165
68.0038
41.8603
37.1608
80.7329
53.0117
17.4402
32.5431
47.7488
12.1015
95.3192
60.3639
43.3711
19.1653
0.177948
8.91906e-07
3.39888e-06
6.21249e-08
5.87117e-07
1.9726e-08
9.86942e-08
3.11616e-09
2.34551e-05
2.80022e-07
8.72811e-09
2.56323e-10
2.31089
14.1904
0.00079214
0.19295
0.00176647
7.32229e-05
0.0471435
9.82832
0.000813805
0.0122398
0.0657898
0.469914
19.5723
40.0088
0.156499
189.613
135.689
135.213
56.6107
195.867
116.045
116.449
127.938
94.2404
102.507
167.524
158.618
184.103
192.99
141.194
156.334
94.9488
119.27
221.82
166.226
180.749
56.6821
41.4376
87.9845
167.724
92.4024
106.658
148.272
3.73395
24.9119
10.9127
23.3606
42.8648
63.7896
42.2404
193.985
122.582
186.154
85.4543
148.936
140.251
77.7152
145.614
146.002
137.524
86.7283
79.1533
71.8488
79.1782
0.000676018
0.00292229