/*--------------------------------*- C++ -*----------------------------------*\
  =========                 |
  \\      /  F ield         | OpenFOAM: The Open Source CFD Toolbox
   \\    /   O peration     | Website:  https://openfoam.org
    \\  /    A nd           | Version:  9
     \\/     M anipulation  |
\*---------------------------------------------------------------------------*/
FoamFile
{
    format      ascii;
    class       volScalarField;
    location    "0.0011";
    object      overpressure;
}
// * * * * * * * * * * * * * * * * * * * * * * * * * * * * * * * * * * * * * //

dimensions      [1 -1 -2 0 0 0 0];

internalField   nonuniform List<scalar> 
9469
(
1.18423e+06
489570
464.821
3822.34
43.3642
0.024376
0.209057
8079.64
263492
34.1772
0.450316
991075
623.336
50050.9
34953.5
651988
52.5908
0.607696
1.18459e+06
1.20093e+06
1.1546e+06
1.10279e+06
1.02111e+06
730912
846928
1195.73
1.57032
36.9913
0.874362
1784.31
0.0547942
0.0268625
149439
115183
46317.8
24060
7908.76
5409.52
1776.6
1.1888e+06
691954
1.04383e+06
405035
829752
451194
106812
4.93614
0.0181678
0.536649
0.0704573
0.136128
0.00839575
0.00197829
1.03947e+06
522429
944118
306600
78142.1
42134.6
422809
561321
27061.6
435393
123198
6315.27
3426.75
195088
25184.3
1216.5
8174.71
143.967
974.765
314.668
44.8906
50286.8
1783.79
10719.2
306.712
1911.19
410.978
66.0008
60941.5
163980
46252.3
8157.87
2077.27
5898.48
261.712
275855
250686
712300
108811
904.107
9267.08
11082.4
925.563
10.9091
302.399
7.69543
207.49
65.7047
2.42052
24114.8
6164.37
191470
28966.6
75.0383
730.985
2948.35
280.474
310.486
1955.8
72.1679
1.59439
10.2132
11.3444
13012.1
627.795
2066.24
27.539
1082.61
335.485
24299.2
4700.09
125.288
540.765
44.1977
163.576
18.4392
4.59259
20974.6
74.0648
864.978
49.8204
598.187
26.7603
2.26086
146.67
47.3699
17.256
14.5509
5.3336
1.77953
0.571752
2940
7.43188
23.4023
5.9603
238.119
73.1435
288.706
11.0596
2.42255
69.6334
15.122
0.120809
0.586939
2.38765
1331.5
1.92854
64.2758
4.48467
164.938
7.87708
0.245189
5.23149
1.33088
36.4336
11.4296
0.0827187
1.62524
0.43503
32.7614
0.509789
3.18061
0.233539
1.17478
0.155835
0.0600897
10.9134
4.20568
51.8625
1.77042
0.110148
0.216667
0.459203
352.43
928175
923882
7641.84
669308
157456
468085
1.08587e+06
167408
161.067
863935
1.18081e+06
703138
1.0912e+06
1.1055e+06
637132
829414
779433
263035
638460
735958
1.01905e+06
712132
12722.2
619479
3615.91
638543
591029
352376
5390.14
66.1644
528176
497643
557134
567695
627756
658204
600998
692255
1.16972e+06
972488
927659
1.24879e+06
845512
106011
664286
614079
588240
826293
692076
722612
882181
593177
580303
534836
699505
701320
753835
644437
694708
789799
722819
969537
949135
1.01114e+06
1.04903e+06
711008
640881
588010
686185
805762
826654
683196
1.10497e+06
486856
2419.6
80889.7
1.15593e+06
5848.56
4.51838
688589
911695
744801
786474
928624
968793
732644
609859
588207
569733
629673
596852
612126
555158
0.196781
550730
3539.17
10817.6
608185
934.116
0.575579
757652
691142
647782
764254
1.0498e+06
820767
957626
484695
969.561
11.4051
350.737
31615.8
1.73872
0.0412277
894170
1.00982e+06
886886
1.0556e+06
1.19269e+06
1.04614e+06
1.13227e+06
637527
711846
760832
775544
824330
915220
875476
1.01266e+06
1.04225e+06
822861
868566
1.18946e+06
1.0678e+06
1.09983e+06
843439
1.00753e+06
1.11018e+06
873400
918428
1.03726e+06
792403
689404
859232
791076
814831
551358
746440
642470
170.589
0.0447233
0.107358
491019
1509.81
120724
30.7386
141751
1.07628e+06
1.22977e+06
318.193
421457
3.37479
11000.6
746542
1.04075e+06
817575
1.14094e+06
899657
1.00749e+06
1.21287e+06
1.15456e+06
742986
1.00833e+06
973734
1.02066e+06
614570
1.17476e+06
642284
631527
645837
445593
554418
472196
335918
932828
1.17084e+06
1.17365e+06
1.19857e+06
1.01614e+06
1.12727e+06
1.15515e+06
413492
573088
740453
670731
150210
277849
496375
590402
638096
633688
410539
542772
467620
298312
806881
958972
845619
1.03108e+06
1.13141e+06
1.15142e+06
998617
1.16702e+06
974577
1.00983e+06
1.10884e+06
1.19471e+06
1.15336e+06
1.08583e+06
1.13553e+06
1.2214e+06
1.09836e+06
1.20734e+06
965377
1.1568e+06
797621
865502
545685
778368
393060
606585
364826
172238
481914
81687.3
386678
82291.2
394023
282814
29853.4
892234
910048
1.11488e+06
225832
751448
433258
1.1662e+06
1.16281e+06
1.05503e+06
915241
1.13088e+06
1.14318e+06
1.21516e+06
1.22959e+06
618281
422486
298692
281737
405523
65401.8
74679.3
554545
56904.8
37960
203857
371237
133011
374019
512798
603004
499234
348578
46941.5
183345
156203
1.16935e+06
1.20691e+06
1.10817e+06
1.18509e+06
742609
1.06418e+06
1.14835e+06
587357
189239
304742
245200
368080
47825.8
27832.6
1.1843e+06
1.10169e+06
1.20027e+06
729425
1.01992e+06
1.15387e+06
1.18401e+06
571261
422525
272342
301335
153727
88623.9
31834.9
1.10404e+06
1.21108e+06
1.21427e+06
1.22206e+06
1.20745e+06
1.0819e+06
1.15426e+06
2.19191
7561.37
939230
0.205979
593.801
0.0615915
0.421672
24017.2
114862
263292
149581
1775.44
46277.4
7920.8
398969
121137
216983
119275
58083.6
13000
5001.6
20931.5
84930.9
247186
139207
1174.72
7055.16
30931.5
1.18817e+06
403142
690367
449485
828128
1.04274e+06
989803
1.23698e+06
745668
987112
748312
1.01688e+06
510216
183563
1.19598e+06
1.04794e+06
1.22688e+06
906353
1.16797e+06
901935
474201
357091
31187.7
146627
8146.38
50982.5
7351.89
1176.5
1.00054e+06
69922.5
527421
212821
796709
252044
13102.5
319306
253833
575798
113508
3349.3
14821.1
31170.2
815525
1.21412e+06
1.16034e+06
699448
279540
183801
820437
7383.69
60886.9
158111
33002.1
357.327
1196.61
9274.27
265649
4848.78
10022.3
42276.4
18606.3
1487.79
356.888
50477
308.291
1788.92
411.5
10734
1918.48
8121
9197.35
135626
121024
5463.71
428.718
364.049
6375.03
193197
10076.9
91744.9
1243.1
11814.3
3923.1
391.87
1.03849e+06
305388
943075
521315
77717.2
41890
650875
10062.1
590.515
16767.3
1708.93
33.5993
58.7713
982.678
56608.7
6411.8
92593.9
3855.24
135.582
250.41
2154.92
811.039
26666
23080.2
2407.35
96.3132
2802.16
82.8411
25044
313.938
8154.03
143.064
3799.17
1212.16
44.7161
536703
638597
1.02542e+06
409841
4632.6
48634.4
83410.9
274693
108123
710998
249765
898.525
9211.8
34742.2
360935
539704
353324
65677.2
25795.4
60314.8
2331.73
45789.5
162955
487730
60341.7
259.349
2055.17
8088.71
5021.85
66.0548
2001.56
15.4082
458.156
171.163
5.64399
25680.5
515.31
9202.26
57.9186
955.255
341.29
19.6851
3676.6
2330.11
23265.6
885.304
13.046
87.61
136.84
40374
580.336
295.376
3416.23
1485.98
121.834
22.2529
104334
11677.5
5525.93
165.856
2912.38
6243.13
172787
4649.49
43.7586
124.278
18.2226
161.697
535.605
1184.97
310.745
71.9591
1954.58
279.981
1.57836
10.1489
43.3379
208755
1114.03
17057
2977.65
664049
611628
453239
635798
7169.22
275310
55.8827
101913
1495.09
643544
621609
653856
394153
544207
447101
539072
596428
597497
630175
632087
489410
577672
466489
556412
602104
628346
625313
521252
606582
561106
640869
624779
614523
586293
12.466
673837
286671
325021
120.629
922.96
1.05455
633690
676214
680579
605234
505194
493678
611466
657107
643417
671864
592809
424481
468137
570402
266530
545579
541304
466628
147647
138310
474313
607393
670011
668663
563638
609559
531829
442703
512711
244929
530954
447899
89060.6
118157
415395
670224
598954
672781
356872
531694
469283
259065
158818
481296
430768
55780
364920
289039
26435.7
624686
638732
477373
515788
335488
302841
133144
589153
520432
651223
373934
52275.9
236260
144590
50431.3
243920
354601
188267
3301.44
10070.3
89182.8
329584
6317.79
150994
44477.4
138670
39523.8
341995
301137
19195
79573.1
4763.35
113684
30067.5
253451
10127
43605.2
187080
112648
616.073
4576.54
18137
528395
102098
325060
28091.5
146790
28096.2
3733.59
474176
61211.1
213444
11456.3
97306.1
20768.5
2082.91
33830.8
119469
4827.93
838.669
25556.7
5379.87
177.995
49399.9
479.831
208.791
1730.86
1664.62
14407.9
6231.05
478601
443058
495889
251503
320797
521127
380614
369119
256394
283520
288961
416403
420399
457345
453548
479735
279679
312146
265958
298234
428924
465202
374652
322683
328332
500315
544749
547375
497068
354328
567201
412427
392475
338271
507379
553961
494800
553926
554034
564504
470583
564829
468614
559153
446894
567834
488525
555166
564760
460519
572756
431056
363672
573275
571320
573420
427723
396692
572196
559221
571880
348142
566668
416522
31.5428
384.136
11424.4
8493.13
90545.7
3231.36
288.63
3.80789
29.3007
910.353
205.778
6189.6
910.438
29.2985
115.094
383.85
3548.01
682.41
2.21232
68.1953
22.0948
5.23497
628.72
20.5938
50.3407
0.415311
1.66003
12.0969
138.543
594.824
2641.55
95.4648
1.22777
21.9562
5.31046
121926
283.608
4936.04
232.352
4223.43
163.797
9.4696
197.133
0.491226
15.7476
7.89996
13.3555
230.815
6.73917
17.101
47.1149
462.058
146.139
0.546586
5.30843
14.49
23719.4
125.703
35.0582
60.3634
620.067
1321.2
2309.7
20822.6
26.559
858.599
49.5205
1773.75
73.6329
2.24783
137.439
2.60505
4.92348
0.343235
9.14099
4.69065
76.2777
0.0519344
0.317452
9.42529
0.405248
3.27626
12.4578
104.522
32.7604
0.213538
0.492348
0.135505
1.15894
3.1969
4.94841
1.15304
2.09549
33.6819
11.8521
0.0611607
0.429723
0.741549
37.3383
13.3456
232.18
8.30228
0.197964
0.591793
1.51745
6.79061
3.35992
120.622
5.12303
0.0251072
0.169208
0.314287
10.8767
1.73155
51.564
4.16656
0.0725761
0.180201
0.84749
683868
700145
78042.4
667613
176958
694301
376936
325437
289475
373095
296175
380512
384365
516747
508169
307806
422397
417399
394362
398656
537256
573584
516398
667040
508063
675321
684566
676436
673859
695563
534629
542899
686334
676669
685431
668022
572871
674212
536888
684141
636322
662930
698288
696657
597679
562876
693863
623776
652456
705877
686546
159658
513027
494178
495967
694350
477345
673613
395673
378527
124750
458959
440473
648893
916328
658344
255390
83738.2
561284
1.47054
949330
0.139701
11890.5
28.3656
1.08583e+06
835792
798410
361922
1709.39
1.13362e+06
888172
611879
881957
1.14101e+06
617189
930941
1.01017e+06
438390
5665.99
422545
5567.2
1.08298e+06
655346
1.15115e+06
632137
953641
732400
1.09914e+06
1.10091e+06
471585
3958.18
1.09882e+06
641821
496729
1.17444e+06
77510.4
309.753
758673
998514
1.23e+06
475285
1.15485e+06
845754
1.20819e+06
517874
2508.75
34.9992
2482.83
34.4551
580272
254107
1.14927e+06
4362.45
235899
792196
1.15481e+06
989746
276090
23.2513
564577
212785
30679
393933
131.942
1.58796
677639
608405
673821
810572
756735
815309
750415
682904
610207
675884
812561
761433
821262
752137
1.01796e+06
31462.9
783269
22.3495
60631.7
1.28424e+06
220564
695739
655575
715398
781683
839138
868375
815099
618420
639720
689911
668953
718432
800596
761876
749125
915111
747662
901374
1.1124e+06
903899
1.11463e+06
700672
136.989
439371
0.107829
8.00836
104874
1199.2
9358.37
0.477567
253.135
374701
1.16644e+06
24996.9
82.5449
757459
919628
750488
904669
1.12403e+06
1.11793e+06
914692
688261
786247
744480
911295
928309
968494
863524
1.07626e+06
1.07563e+06
1.01195e+06
1.14108e+06
1.14795e+06
926691
915773
1.00661e+06
1.07729e+06
1.00992e+06
1.14184e+06
1.14779e+06
923108
907068
770408
990452
791206
1.13817e+06
934772
966955
1.15948e+06
811742
664410
815782
628037
445684
616025
458380
804279
663227
812319
624769
443751
457925
607422
658568
869510
729546
940084
764902
854821
1.0891e+06
1.04118e+06
868150
822380
1.01208e+06
1.1897e+06
1.0674e+06
1.18059e+06
1.00844e+06
1.12497e+06
1.0135e+06
1.1339e+06
877275
1.11936e+06
826799
794268
617587
777057
411056
571700
510622
352995
843271
873233
918285
1.00739e+06
1.03709e+06
1.11017e+06
1.0912e+06
821193
814.427
8.16254
979567
180791
998920
1.28988e+06
999181
1.12835e+06
966177
1.13699e+06
1.00236e+06
1.13323e+06
960853
1.00099e+06
1.13865e+06
1.13569e+06
972047
1.13561e+06
1.00944e+06
962112
806850
1.03099e+06
845654
958877
1.13142e+06
1.15144e+06
927555
731926
875046
772234
906491
1.02974e+06
1.06053e+06
877654
1.02796e+06
1.13281e+06
1.18892e+06
1.18615e+06
1.16875e+06
1.26802e+06
1.11471e+06
1.13687e+06
995910
1.02939e+06
1.06075e+06
1.16173e+06
1.1299e+06
1.03251e+06
580975
588155
527169
344941
358690
251216
235387
587942
518269
527549
344665
358973
251517
234991
936915
742605
987973
659381
903711
744038
454430
573221
671600
741031
414464
150533
279045
263109
1.1539e+06
974218
1.00835e+06
1.02178e+06
1.08649e+06
744328
616385
932439
1.19862e+06
1.01583e+06
1.17156e+06
1.12712e+06
1.17385e+06
1.1067e+06
534735
496132
454445
310627
250602
198153
142982
1.10886e+06
974476
1.00974e+06
1.16731e+06
1.1954e+06
1.15418e+06
1.16997e+06
1.08839e+06
1.15358e+06
1.10063e+06
905592
1.08782e+06
1.11155e+06
1.16196e+06
1.10138e+06
1.15226e+06
1.13596e+06
1.02589e+06
1.14192e+06
1.09862e+06
1.08047e+06
1.16261e+06
1.13077e+06
915125
1.05485e+06
1.14393e+06
1.2489e+06
1.21532e+06
1.02404e+06
944577
818784
987086
1.27208e+06
1.16318e+06
1.23334e+06
1.08601e+06
1.14603e+06
1.11353e+06
1.13603e+06
757531
1.04677e+06
1.12409e+06
1.09128e+06
903486
1.10458e+06
1.15695e+06
1.11325e+06
1.16278e+06
1.098e+06
653559
618328
536872
520762
427978
307674
176678
1.10398e+06
1.22231e+06
1.08254e+06
1.21116e+06
1.21438e+06
1.20778e+06
1.07621e+06
481628
282333
385982
82235.1
167026
81203.9
29721.6
1.03019e+06
1.195e+06
1.18436e+06
1.19984e+06
1.20634e+06
1.19813e+06
1.24068e+06
423624
273257
437124
120834
22698.3
26630.1
108833
1.15692e+06
638454
998503
854192
1.1593e+06
973649
1.07894e+06
423629
273251
437577
120911
22361
108215
26571.6
1.18525e+06
1.20741e+06
1.10801e+06
1.17009e+06
744535
1.06544e+06
974088
1.18005e+06
895701
1.16041e+06
1.1239e+06
803125
693173
1.17736e+06
555792
204726
372876
57207.7
133992
38394.8
12818.3
893217
1.11564e+06
752963
911643
435394
738014
227657
4241.16
0.522817
0.115632
2.61294
9036.53
1.12877e+06
21623.6
173534
0.176361
88.9205
0.0198504
0.109535
8.11332
0.523528
932330
459028
946651
538010
77908.4
519743
86538.4
452981
924466
943825
532131
71524.7
83778.4
504304
391177
151351
334418
15159.1
82506.3
48779.6
8215.51
1.27147e+06
1.02081e+06
1.19386e+06
1.06177e+06
1.23992e+06
915709
524642
885034
50595.3
272400
446819
818362
356798
28426.7
233044
113409
13574
6449.36
217510
15411
124452
230843
6424.38
12958.2
112157
15163.6
124219
211336
1.19598e+06
907397
902805
1.04853e+06
1.22713e+06
1.23015e+06
1.16857e+06
1.23718e+06
512007
987844
749725
1.1565e+06
746958
184687
589018
166623
382299
88199.6
272362
58909.3
9031.05
1.13654e+06
1.13064e+06
1.16809e+06
1.25403e+06
1.2485e+06
1.092e+06
736986
9145.18
86817.6
171207
115192
2176.99
5171.37
53083.9
167699
563672
714925
241826
4868.82
124315
12898.1
59119.9
2905.73
67033.2
23999.5
833.808
969.62
20585
2904.46
58720.7
67084.8
24018.9
826.214
969.759
20422.8
1.00467e+06
887251
158592
532705
777928
418185
1.08863e+06
870064
674911
1.11872e+06
1.01052e+06
108343
432456
672922
84192.4
138604
246087
20723.8
1165.38
7011.64
3577.43
114489
320565
577267
255192
3377.3
81459
14961.2
557573
535554
862730
412205
14387.1
85184.6
151709
0.529524
0.00875484
0.0211326
0.250037
0.311795
7404.55
3.75777
41895.7
927.251
23113.1
570.736
14118.7
7867.39
311.362
58430.7
914.239
7972.91
762.485
20706.7
2249.95
23369.7
400156
37379.4
259405
5125.7
66621.2
21718
1567.46
193949
3938.56
92049.7
1250.48
31809.9
10115.7
393.31
253749
1.00181e+06
529450
214415
489075
70739.3
13253.3
700252
1.21442e+06
1.16068e+06
815972
280022
184221
928569
871465
1.24776e+06
1.2091e+06
871605
387983
273593
979695
814410
144985
41846.2
24390.6
514581
187485
401692
33393.1
61370.4
159408
7469.62
360.568
1210.91
2440.82
397.816
3530.25
9991.86
3495.04
41.8264
1136.46
130.405
354528
540648
940099
362150
2345.1
66003.2
25982.9
370050
1454.64
43302.8
6534.33
172673
11175.3
365.358
633446
676899
746110
154775
118342
178092
7771.68
410674
639304
1.02593e+06
537229
4647.1
142035
48790.3
6077.74
909.119
205.318
40.9663
239.586
1064.67
5246.76
6076.77
40.8576
202.926
895.418
239.41
5195.02
1062.11
603652
769074
1.11241e+06
603827
8110
180905
86004
17337.7
22813.1
9669.72
1624.93
915.681
720.772
66.5738
137.586
607.312
3607
1930.64
12.1251
72.4996
324.295
887.31
3680.01
23321.7
2335.72
13.0443
351.132
87.792
17937.6
8271.29
107004
4947.87
48.8525
343.2
725.79
2258.59
213.993
5987.34
1397.51
18.4281
48.9618
496.341
40687.7
297.439
122.564
583.581
3436.75
7694.25
1497.84
128745
932.344
1187.32
8243.11
6141.32
348
51.7052
8784.65
1407.03
48129.9
2450.42
13.3847
435.912
76.6681
249069
19801.9
422.633
26015.8
13599
10452.8
359457
802.488
4.95933
42.8942
9.68049
268.076
29.7705
133.989
108.641
206.881
2817.4
866.135
2.38894
62.0831
33.0594
2275.73
321.531
402.146
118.698
95.447
17.6354
5.16582
511979
843609
619849
497113
524092
795886
865925
89074.1
622500
341599
11601.6
744958
297461
370188
423421
264708
735181
506067
659872
407568
310182
410478
830399
279529
662240
759847
311008
384503
600822
881336
338065
473153
665171
410286
317201
683333
1.04768e+06
464503
345546
555083
555196
276367
393529
544556
380232
614736
530162
283784
408289
297320
612165
342527
532916
421889
415326
360443
455067
513191
510921
460909
369413
416709
360652
453988
511221
456852
510517
357463
402005
350919
464500
514992
513893
465598
403821
361522
353028
464763
515396
465667
514161
271582
264869
288643
372221
336764
379368
330508
292833
262579
287289
370560
330947
374076
328595
280880
274511
302433
409059
371944
367836
412453
310973
273822
303120
408932
370040
411594
367079
428493
435085
401749
517214
469477
480739
525971
282587
297453
328816
347864
391038
407327
362766
362221
415321
370132
517189
468069
478919
527640
674739
875376
1.2129e+06
644376
956765
365976
509050
1.15743e+06
173269
696096
642873
1.13126e+06
516192
389481
289420
299985
326839
378984
417567
430482
393404
315606
374985
349686
428977
408134
457501
382207
448559
441064
419861
496252
574395
519231
544385
431917
419627
387789
505442
599846
554333
553704
271922
291178
286638
361588
357148
376140
382134
359180
288231
273418
270655
285400
356185
375479
469445
578018
419389
505795
571390
475841
413822
665572
1176.86
617802
155664
554602
385892
611470
572362
413963
470689
467692
503724
569257
411733
316618
377881
345155
457662
466640
505416
420017
295162
299663
313569
370479
387499
394511
416679
542668
645633
613898
737766
640360
610254
547625
608694
638881
541753
540772
734576
638006
608533
594325
832910
646495
833957
824768
642335
599053
589290
429827
487627
504861
542154
605304
445510
596887
836676
643729
594014
832107
824453
641587
406812
400526
446665
441677
494615
539794
482963
655143
621909
556253
569185
785756
670006
637454
313547
367354
335084
463932
416921
451497
503377
855181
657006
611844
640765
906454
894448
680267
480480
384329
669681
382569
517404
476353
539.64
541611
745816
507663
659177
742517
501111
547964
506638
748257
546554
541614
660382
744107
500987
467710
553593
502756
616074
550609
590185
669342
537973
439263
363.424
576.081
84304.9
673543
167837
527860
567386
658061
497483
627470
556963
467796
757092
521716
562470
591709
675856
778153
548088
327811
386321
321918
431581
544283
438867
537263
391789
437870
325484
385808
321016
431338
537660
470974
585269
545412
666152
631265
752882
759476
427937
456371
499375
538718
583328
696552
634499
497729
620352
491582
521110
613623
615431
525981
554494
444085
495698
591033
592728
648979
532810
587944
825453
722380
702727
691736
613894
663914
526765
621872
497424
621344
491642
521533
615946
338780
433720
356463
561825
454818
483233
591416
511536
627938
536285
613283
538297
559953
611267
640375
686295
826588
638410
805543
710315
588121
693880
968155
1.01018e+06
788720
948121
722050
778216
699457
534805
593137
637196
701317
753831
580365
417615
454094
533765
494126
569464
613875
631306
473076
425299
383183
525639
665764
579247
629954
598524
607765
546155
637716
825521
694944
738061
819839
676517
655818
917967
1.03729e+06
1.08594e+06
884733
629770
610027
570104
588692
554916
596681
619714
764107
757194
647716
691166
1.0491e+06
820635
828896
583807
614976
566402
653394
620465
586730
655355
654449
615053
587797
584405
566090
620443
655855
692365
711924
915162
775500
760937
824334
637622
769346
561159
608813
829875
742629
925173
721270
1.05511e+06
885522
892674
1.01773e+06
1.19222e+06
1.04635e+06
1.00841e+06
516632
676978
509039
668486
675207
684920
677918
508964
668340
676142
667722
674545
684361
676267
604819
654213
596691
614561
484459
584111
653608
815196
689302
790349
858805
552077
747301
712288
573859
674795
684817
698620
684115
662483
635577
556631
669030
594084
653678
671512
651357
587820
489581
680914
579030
674393
634233
660853
626713
746591
1.04026e+06
1.00725e+06
1.14061e+06
817579
899459
923333
645939
472097
631597
446031
642544
591183
336056
622096
696099
707072
663198
685828
583952
494780
633910
409373
466985
589793
542120
638435
637655
1.10434e+06
1.22102e+06
799030
1.20748e+06
1.09853e+06
966172
1.13447e+06
865755
366596
546683
394165
779253
607958
669926
676691
693729
661288
618633
309263
492841
509567
162622
688291
494523
694862
513058
498350
177473
638030
401221
646661
482338
124241
466599
138229
401015
636965
646457
481831
122027
464058
137615
493412
686430
694180
512143
158577
494934
176086
423316
273034
571786
485044
31954.8
301842
154009
618260
271684
583103
91255.7
424644
358322
52831.3
348156
498690
602803
512717
46811.1
183213
352029
673232
377232
648239
123659
457657
394246
77237.4
178037
420906
521074
259314
7443.14
22318.1
142882
283535
516717
600543
298067
12098.6
176569
35289.4
436521
538305
427754
394907
250292
669794
585650
591700
380942
379050
231803
232635
462714
667824
161390
450546
337166
463174
436425
318723
540743
248404
479002
652026
511027
238894
486281
600264
236077
171697
167665
227817
223379
294648
299965
238146
168463
173926
229993
224225
295469
302070
183958
196559
240286
254901
263359
314018
332011
637970
689211
7605.6
593979
271048
355580
659033
500029
297633
332188
321687
489325
360251
525518
594146
511066
661239
9021.1
617737
619992
722589
76941.5
643109
514746
624549
5378.92
668523
188139
214269
303623
312639
275574
284350
356903
391358
399097
555701
354513
520512
399093
555724
589079
459992
405247
320618
454564
315532
399191
586902
373541
296427
289800
377350
517640
384753
508953
516131
382684
294393
372976
288999
376653
508710
455395
316376
322781
400030
594100
407798
587493
378374
585448
441513
481044
412414
565686
606043
308173
417986
325830
538262
399173
422933
574511
334816
506978
353326
609834
423280
449210
635947
310383
340270
349558
388336
398737
441599
519943
264920
194018
494103
421252
578940
277749
313322
578814
172449
189881
236139
212014
254746
260514
281821
224212
285999
244106
343137
296163
318567
366647
224936
306130
250200
356305
295137
324417
391069
416622
450964
334762
463736
342366
367081
502949
337073
406179
316067
380273
402898
504202
544672
528702
326985
392966
444793
343356
284350
363919
389074
462153
564381
424312
571121
569675
571847
631219
613956
454228
569263
533752
385849
417443
514779
530191
457923
593683
617391
617093
621421
454162
384213
350424
459450
679475
516036
625070
547440
418597
379775
488280
696882
546306
668386
457904
593631
530135
585569
617061
621363
617357
665635
532353
629391
524969
472406
382733
424895
724162
733779
1611.95
3823.47
640947
9.88507
2172.77
359719
585381
570996
457766
471465
631704
734187
261205
396407
337123
563067
572112
563049
535796
687330
694833
541336
534747
677138
696189
686361
535285
676435
687018
694790
543669
695890
685968
216075
278051
365503
569435
544560
558350
515822
433176
683622
511165
720489
597255
687738
717744
475285
705568
557136
707502
622798
698845
678450
640640
381950
467775
585865
463588
630948
716304
694438
697016
563780
598453
623124
706140
700226
651150
671416
556944
653200
665706
668922
587400
471936
649387
506097
726908
643964
663245
690270
578275
673730
643059
576659
618927
576643
487746
680912
626916
660821
634080
674565
611192
489298
607296
669850
653738
531662
609484
563575
442560
161421
531498
481189
140470
466180
388359
69868.8
69843.9
250228
140431
531470
388343
481173
466166
643953
571521
699475
672305
689865
712041
696166
720983
710853
696256
752440
756861
743948
629430
736436
706990
659960
736801
419186
698456
588434
729232
729208
625427
740646
488146
712073
648007
693774
509662
618517
676524
309227
617754
492586
710735
705706
592139
700822
529985
650629
686764
190804
188267
527182
532629
168928
175268
525603
523310
180665
359557
351254
186569
176777
346358
354528
185476
177357
175011
343194
353764
344597
351885
171497
167856
168831
339864
339992
340354
340844
348593
349491
174663
170572
171308
343425
344038
526619
526322
526712
524789
523189
530845
525606
523508
523913
526787
524205
526440
523013
525243
530317
521933
520050
522972
531261
528824
524149
524053
533856
536181
531469
523595
534441
524759
-89701.7
200794
287350
-89315.3
191016
-60696.4
277762
-90864.2
201780
331314
164285
231512
-34451.1
341362
211009
230179
299279
-85280.1
220989
361253
77604.7
260766
49507.8
168311
156435
-11195.4
284374
196145
385195
101037
-93180.4
-92046.7
-94892.2
-37240.5
-55744.5
-68160.8
-53756.1
303315
301077
119329
6645.79
60957.9
-69734.4
197951
-46421.1
-60949.7
-94043.6
-92291.3
-95091.7
-57694.4
-69743.2
-93154.4
-92297
-94844.6
-67703.7
-33958.3
-54111.1
-50552.3
-40550.5
-90780.8
-93999.9
-92594.8
-95038.4
-69169.5
-52541.4
314711
33429.8
79781.2
260640
74080.9
391415
181151
-12353.7
-33192.1
-90070
-63251.8
-73394.1
16781.3
46319.3
52684.1
-67737.5
15113.5
-41847.7
10722.5
73951.4
92153.5
78748.3
112867
180549
172670
93059.1
134533
189225
-13066.4
-83711.5
-89928.7
-60393.4
-73588.7
11274.7
28846.2
516685
407672
486425
360289
424433
465283
488768
109916
263553
74953
38889.8
241190
71077.2
216921
231476
93301
56014.1
258343
69731.6
34033.6
212065
276743
415539
564571
308849
212846
417871
179427
308673
620259
508181
402042
151210
297218
99408.6
-72800.9
-18852.7
-78533.7
-30618.5
-7655.99
61958.6
76389.8
-77790.4
-16219.7
-29592.9
10302.2
-5842.65
62596.8
76123
-3577.97
46304.3
-24892.5
87764.6
186630
123991
147546
20950.5
112098
52250.1
214446
146347
145907
203469
32305.6
205571
77864.8
178648
60795.5
186512
55328.2
190966
49549
71872.7
28493.5
177621
183147
52388.1
-12231
37685.9
-27819.4
75974
127116
128957
84863.2
-54546.3
4402.38
-20129.4
43155.5
72439.6
95194.5
116611
251965
139804
100604
156983
320032
201075
274146
278433
321957
162324
343393
220521
199391
309138
183813
146980
115042
165972
216090
199185
199984
232077
503820
716312
296190
109611
445078
210199
208316
89592.7
105322
139664
224391
240986
142005
200028
237851
231925
194597
245749
259983
210621
116296
192228
99858.7
145835
219598
214448
155552
112983
60567.8
48251.3
120754
173071
128007
169171
121297
113444
47878.6
121103
175514
130309
170051
116342
191674
101060
145423
215951
152402
212992
27687.3
103217
77855.5
134709
108770
134703
153848
177534
232573
232502
260210
254455
297988
302016
115711
201513
167287
229381
192348
237519
273764
215663
239999
252913
376949
389369
399565
412657
202606
337313
272567
319463
245500
233343
294622
133036
145022
100022
184786
142024
153201
196315
183279
233204
219261
235709
232137
264868
257080
100521
138382
146361
158814
168035
210052
196884
287045
563469
538043
229040
205947
534310
457335
496186
206654
373305
201874
224592
368368
389088
393513
201445
229921
224683
368963
366280
387904
391387
178508
237990
282251
192239
204435
258312
168210
223893
263295
244099
309522
252887
283869
225291
362791
302647
270443
246959
367129
288938
338798
135002
221868
155353
227053
165400
175430
237293
432270
248549
270609
292860
457582
270625
432247
254652
282731
250822
416779
456816
420756
453478
288925
420280
256352
283479
251459
416199
453460
290223
254117
254207
298986
309805
337230
280249
274590
250196
216597
291400
391886
357536
327897
129415
143329
162988
161970
182019
199511
218855
328724
279776
279996
342731
401853
387696
349373
183573
251662
297056
233641
246473
189186
228301
182452
296199
231215
248800
186033
245235
227283
236331
194123
172631
190130
282047
212211
255023
159751
136070
117268
167158
238535
188202
213590
298285
428883
265952
312211
279724
443037
479772
265007
338312
282116
314168
337519
372709
289680
335917
397414
326147
364910
461003
431427
377474
309217
359971
270953
319273
458558
358660
416624
248894
180774
192512
263067
301753
327848
244218
322977
223015
239026
286743
346506
379532
265097
66037.7
-21255.6
305340
216235
157294
150166
125645
-21649
-74554.7
-78369.4
-26061.7
20166.3
-11830
31397.2
-30543.5
29919.4
-76124.3
-19608.6
-78648.5
-26024
19752.2
-32179.6
149905
149253
63625.4
92086
166398
96324.3
166247
69982.2
100409
173630
151829
65133.2
93561.6
168852
111292
133025
255565
280819
128706
238942
101997
253155
296462
120169
110280
277299
238128
98383.6
138879
186064
217178
214802
146507
209511
186030
192901
221183
222397
140249
216868
210844
188350
260807
243422
197808
208317
332143
274532
257518
525497
321711
489314
332253
297680
463158
500035
162592
246473
197018
271202
218578
257012
311136
515355
506394
545137
536308
517713
509254
544319
519555
510963
519684
510539
534276
543262
543186
505954
537076
545154
499042
511777
541643
550009
350720
355683
464690
372516
393328
414236
320060
183643
251104
202332
298779
244518
264293
318151
224207
318698
244215
343055
264813
286015
366666
225239
356702
324695
306435
250461
295471
278089
405520
478135
515114
509373
447415
470030
426117
380366
492091
599502
530037
459621
418825
492783
502130
548392
466802
486362
556140
562959
556129
347641
386027
553919
410985
423315
452443
318836
490968
554058
465204
494480
469287
554211
564650
495037
470897
468831
564677
554089
553907
564953
460730
564942
555239
447050
478771
559182
567927
286710
289191
238416
302256
431625
358342
361477
364114
343592
284527
327079
528850
421349
393109
-97516.9
-97419.8
-97970
-97954.8
-97476.1
-98186.8
-98144.1
-98167.7
-97877.6
-97415.6
-97905.2
-97952.5
-97409.5
-97421.3
-97975.9
-97513.4
-97898.9
-97874.4
-97951.3
-97413.3
-97415.5
-97974.3
107290
-98387.1
-98047.4
-97997.3
-97912.1
-97954.8
-97887.2
-97973
-98030.3
-97968.2
-98048.2
-97907.2
-97996.3
-97885.5
-97972.6
-98031.1
-98131.1
-97519.8
-98173.7
-97415
-98043.1
-98015.7
-97387.8
-98041.4
-97517.1
-97411.5
-97481.6
-98130.4
-98016.5
-97394.1
-59242.7
144107
-87579.5
-91467.7
16407.7
32556.3
-52608.2
-98279.4
-97799.4
-96882.8
-97553.1
-98435.8
-96750.9