/*--------------------------------*- C++ -*----------------------------------*\
  =========                 |
  \\      /  F ield         | OpenFOAM: The Open Source CFD Toolbox
   \\    /   O peration     | Website:  https://openfoam.org
    \\  /    A nd           | Version:  9
     \\/     M anipulation  |
\*---------------------------------------------------------------------------*/
FoamFile
{
    format      ascii;
    class       surfaceScalarField;
    location    "0.0011";
    object      phi;
}
// * * * * * * * * * * * * * * * * * * * * * * * * * * * * * * * * * * * * * //

dimensions      [0 3 -1 0 0 0 0];

internalField   nonuniform List<scalar> 
27078
(
1.36808
6.85068
11.136
-6.54684
-11.3795
-3.38207
1.12316
2.27758
2.14666
-3.60806
-7.19765
-0.0136906
-0.00256231
0.000944026
0.00157801
0.00285565
-0.0675342
-0.0961347
0.00889258
0.0235012
-0.022767
-0.410755
0.000125749
-0.000499432
-0.000911145
0.00026608
-0.00708658
7.75114e-05
2.38594e-07
-1.21943e-06
-1.44675e-07
-2.70462e-07
1.34745e-07
-3.34211e-05
-3.60091e-06
4.15522e-07
-6.32411e-07
8.11956e-07
-0.121063
0.0300758
0.0484522
-0.127116
-0.714542
0.0189365
0.828646
1.54912
1.62227
-2.12214
-0.91622
-6.46629
-0.00596668
6.41612e-05
0.000101534
-0.000410015
-0.000146701
-7.10595e-05
-6.40772e-06
1.75746e-06
-4.00345e-06
1.03724e-06
-3.47099
4.75629
7.35393
-9.19967
-5.08991
0.00109756
-0.114843
-0.0102253
0.00156973
-0.0118579
-2.65167
0.0550844
0.155109
-0.955899
0.0650273
-0.882047
-0.49054
0.147051
-1.82017
-5.98547
0.55164
3.03972
-8.8023
-0.00178935
-0.0116551
3.81029e-05
9.80552e-07
-1.8054e-05
-0.000131847
-6.88058e-06
6.61832
10.7275
2.66113
-11.0283
-6.37787
1.30039
10.0741
6.79775
-10.9993
9.55734
2.46103
6.48117
-10.6867
1.1772
5.80105
9.31307
-6.06172
5.41141
2.18024
8.55898
-5.79034
-0.806239
1.59169
3.92185
4.62903
4.58892
5.82722
-0.0114568
0.00415925
0.00722573
-0.161244
-0.0352093
2.36084e-06
-0.000270122
-3.70234e-05
-1.22469e-05
1.04206e-05
4.83411e-06
-0.0072805
7.8845e-05
8.39044e-05
-0.000593694
-3.78043e-05
-9.65866e-06
6.5833e-06
-0.000126635
1.31785e-06
-0.0650095
0.0041577
0.00902176
-0.227239
-1.24239e-06
-7.89273e-06
2.59888e-07
3.11099e-07
-1.40921e-05
-1.3415e-06
-2.11415e-06
-4.12862e-06
-2.06732e-06
-3.65444e-07
-5.09899e-07
-8.67931e-07
-2.51299e-06
-1.44981e-07
-5.60375e-07
-2.8101e-07
0.788386
0.73654
0.517045
-1.5291
-5.00957
0.347163
0.550966
0.56054
-0.525975
-4.28548
0.239804
0.172247
0.126172
-2.28875
0.0652644
0.105241
0.138132
-0.388098
-0.145872
0.0307662
0.0204625
0.0491134
-0.128248
0.013391
0.0190498
0.0340987
-0.0316762
0.00568453
0.00387389
0.0112863
6.02812
9.60796
-10.4326
-5.98025
-3.01226
3.83209
2.09768
3.4304
-8.31891
7.99424
5.50991
-9.89949
-2.45335
1.76889
0.893107
1.60311
-3.45871
4.17003
5.631
-5.02325
1.20517
2.04344
1.84402
0.18998
0.306683
0.399371
-5.24382e-05
1.51486e-05
3.106e-05
-0.000818668
6.69331e-06
2.34526e-07
-2.26162e-06
-1.01709e-05
-1.57992e-06
-8.43318e-07
-3.63561e-07
-3.12515e-07
-1.14543e-06
-1.50869e-07
-3.30694e-07
-1.6222e-07
-1.28082e-07
1.39184e-07
-0.000104836
-1.39278e-05
4.13048e-06
7.84467e-07
1.82422e-06
-5.08823e-07
1.86458e-06
-2.47784e-06
-1.22512e-05
-1.21185e-06
-8.15753e-07
-2.46293e-06
-1.00974e-05
-8.6822e-06
-5.71514e-05
-1.7038e-06
-3.55693e-07
-2.57752e-07
4.45636e-07
-1.45946e-05
-4.7991e-06
-7.65979e-07
2.26918e-06
5.46345e-08
-6.80222e-07
-1.69109e-06
-9.46658e-07
-5.93381e-07
-2.95932e-07
-3.78002e-07
-2.81233e-07
-2.84559e-07
1.51476e-08
1.04252
7.993
-10.3067
-5.45214
2.21391
1.15322
-8.25011
7.01139
1.95711
-9.94026
1.05492
-0.372822
0.719327
1.12381
0.0818387
-1.84849
0.315994
0.0859675
0.185456
1.66763
0.500779
2.76699
-4.37696
-1.87381
0.085061
0.0580009
-0.543768
2.06904
1.0316
-3.90193
0.486379
-0.198958
0.277604
0.374704
0.00655359
-0.721441
0.0191198
0.0058043
0.00992421
0.620611
0.0663818
0.138821
-0.151871
-1.59473
-0.0297142
0.00751101
0.00252799
0.00407398
-0.16583
0.0494303
0.0206346
-0.723142
-0.00313938
0.000276883
0.000440129
0.000901904
-0.000718984
0.00211938
0.00617954
-0.00532677
0.000935622
0.000606959
0.00198903
7.8849e-05
0.000131833
0.000280257
0.207293
0.257005
-0.696052
-2.43205
-0.0246002
0.0110563
0.00558239
-0.230511
0.00380631
0.063107
0.038273
-0.889027
-0.00390517
0.000903272
0.00192935
-0.00403885
0.000594958
0.00627267
0.0120488
-0.0279471
0.000769632
0.00119888
0.00261182
0.000175374
0.000414469
0.000121869
0.188047
0.248094
0.132565
-2.39589
-1.09257
0.308133
0.559401
0.498789
-4.57145
0.101157
0.137368
0.193805
-0.837755
0.0393585
0.0213455
0.0249202
-0.638977
0.00580431
0.00541624
0.0107445
-0.0407446
0.0141514
0.0173105
0.0300696
0.00067705
0.000685635
0.00137969
-2.02381
0.931721
0.525977
-6.03203
-3.68861
0.841735
-5.89088
3.96431
-8.73042
0.318686
0.18985
0.412541
-0.0150033
-0.0344734
0.0015811
0.00493673
0.0478648
0.0212869
0.0557885
0.00202333
0.00312088
-0.0134071
-0.00484976
-0.00194087
3.00154e-05
1.70554e-05
-0.000124701
0.000907963
0.000586793
-0.00401928
-0.00133743
1.39785e-05
2.0689e-05
-3.19428e-05
0.000413131
0.000593542
-0.00100042
0.000420737
0.000120197
0.000176291
3.86325e-06
6.32259e-06
-0.374459
0.0722481
0.0472883
-0.456272
-0.695621
0.0176753
-0.124227
0.600845
-2.40106
0.136395
0.0497634
0.0896617
-0.00105059
-0.0163454
0.000180168
0.000119824
0.00195718
0.0083292
0.00545701
-0.00637581
0.00173462
0.000867404
-0.0432249
-0.00395811
0.00192348
-0.0475421
0.00059993
0.012117
-0.250125
0.000201992
0.000123062
0.000452021
-1.63481e-05
-3.0205e-05
4.76204e-06
1.02379e-05
2.83554e-06
2.8695e-05
6.35814e-05
7.07216e-05
1.99107e-05
0.0422065
0.0684679
-0.0260925
0.0258696
0.000535175
-0.119435
0.00190899
-0.0796166
-0.00615194
-0.000918486
3.53572e-05
0.00169527
0.000489582
0.0154705
0.0257258
-0.461919
-0.11807
-0.00128774
0.000747691
0.000246242
0.00041914
-0.0195238
0.00294561
0.00164523
-0.0741939
-0.000379579
0.000137207
8.13491e-05
-0.0011333
0.000462084
-0.00366589
0.000929495
4.21222e-05
5.14752e-05
0.000103343
8.14118e-06
1.49672e-05
2.81918e-05
0.0480101
0.0927315
-1.29448
-0.00250243
0.000375289
0.000192414
-0.0110157
0.00434291
0.00230803
-0.109834
-0.00168087
0.000107132
0.000268494
0.00137662
0.00321033
6.96883e-05
6.71436e-05
0.00014139
5.48114e-06
1.22339e-05
0.000471059
0.000897405
0.000260482
-0.0234209
8.67031e-05
0.000287196
-0.0074335
0.00015758
3.09984e-05
5.3529e-05
8.86178e-05
2.23341e-05
-0.00234576
4.73336e-05
1.6418e-05
8.04233e-06
3.28134e-05
3.13768e-06
6.05764e-06
1.13794e-05
9.4122e-07
2.30248e-06
4.22924e-06
0.00875173
0.0164603
0.00451867
-9.24729e-05
-0.00164089
1.14134e-05
-0.000312129
-0.000776767
3.59122e-05
-0.00135765
-0.000186706
0.000481731
-0.000118844
2.90092e-05
-0.000127129
1.87417e-05
-0.000442217
1.00193e-05
-2.31937e-05
0.000196941
-0.000856337
9.70147e-05
2.46912e-05
3.82096e-05
-1.53272e-06
-1.57961e-05
4.47706e-07
4.03269e-07
1.73975e-06
5.83162e-06
4.08792e-06
0.00312687
0.00354405
-0.0254007
-0.000351379
4.35212e-06
-2.93283e-05
4.41629e-06
0.000154267
-0.00109416
0.00015874
-0.000917641
9.08325e-06
1.02134e-05
0.000364624
0.000413147
4.32218e-05
1.88855e-05
1.87301e-05
5.59152e-07
6.87488e-07
-0.000101412
9.19891e-06
-2.28317e-05
-0.000232187
2.80011e-06
-4.59205e-06
6.76636e-05
-0.000167431
3.0488e-05
7.29521e-05
1.86952e-05
-1.07576e-05
-1.25292e-06
1.9742e-07
5.00635e-07
2.51916e-06
4.42745e-06
7.77359e-07
0.000100955
0.000199722
-0.00533666
-5.94493e-06
3.91405e-06
-7.75383e-05
1.18286e-06
2.00605e-05
-0.00052148
-3.05755e-06
1.11244e-06
8.64202e-07
3.92836e-06
5.20648e-07
5.07049e-07
-0.000116865
6.51007e-05
-0.00171391
2.00742e-05
-0.000153987
2.36998e-05
-0.0006211
0.000277708
-0.0077095
6.02654e-06
5.09075e-06
-7.69844e-07
-2.48087e-06
2.69799e-07
7.46059e-07
0.00107369
-0.0437361
-0.00155716
0.00137029
-0.0122091
0.839032
-7.7371
5.9953
-9.01411
-4.49471
-2.10649
5.1418
9.76785
3.06274
-8.68517
-0.302021
-0.0875993
0.0307357
0.041618
-0.612035
0.0180769
-4.10126
-1.5375
4.14433
6.77107
1.42056
-7.40866
-2.04145
-1.40875
0.731509
0.688727
-4.60758
0.416
0.881002
3.62818
14.4462
-14.4394
-2.80454
-3.71009
-9.57302
3.28809
2.76766
-2.32852
-0.697961
-5.68062
0.560559
0.833712
-1.02622
-0.020137
-0.00680596
0.000721237
-0.00224078
0.000624503
-13.8712
1.07682
3.57373
-2.88434
-3.37825
-10.8325
3.17666
-2.59945
-2.67561
-1.5962
9.26474
2.33188
3.25926
-8.36574
5.45633
-4.87751
1.34698
-12.6121
3.71728
4.1905
-4.02299
-3.58033
-10.0936
5.53496
-4.89854
-0.823611
12.3015
1.08426
-12.3275
-3.86569
-1.80269
9.56791
2.68744
-8.46744
-2.47646
-2.411
8.57249
2.22557
3.05997
-7.22362
-0.90418
-6.88966
1.25675
-1.33867
-1.79957
-2.66677
8.08675
1.75865
3.27993
-7.81618
2.93468
-3.15977
-8.40135
2.31768
4.31095
-3.71696
-2.77476
8.29738
2.33962
-7.95764
-3.80241
-1.63044
7.45316
1.56681
-7.59681
0.0313951
0.0474165
-0.25378
-0.0916088
-1.05164
2.41675
-1.97047
-2.73602
7.71319
3.25602
-7.74416
-0.0520844
-0.410514
0.0130161
0.00826234
-0.0312385
2.76707
-2.70495
7.24499
3.10382
-7.51145
3.66525
-1.77647
-3.58379
6.5338
2.04293
-7.31144
-2.11476
-2.70175
2.19086
-6.24468
1.47431
0.0189797
-0.10503
-0.549431
0.0133374
0.000176284
-0.000906168
-0.0110871
-0.000770867
0.000122371
3.41622
13.3723
1.05013
-13.2191
-2.62561
0.840369
14.1631
4.43146
-14.1933
13.0749
1.01937
4.18943
-13.0226
0.820901
3.72858
14.3248
-2.96621
3.5635
1.09623
13.3369
-2.8529
-0.812181
1.15057
4.24399
12.9903
4.4615
13.9676
-0.817982
6.08854
11.7853
1.21756
-11.8823
1.37139
-12.1387
5.88745
3.34922
-3.46501
-9.58135
4.103
7.59705
-7.24787
1.23662
10.9999
-10.928
4.01685
6.48994
-6.30963
-3.72342
9.26629
-9.32446
4.57936
-5.79361
-10.0689
0.804772
0.188678
0.304367
-1.75862
-3.81355
-1.1997
-1.62504
9.2628
2.2861
-8.43373
-2.11739
-3.03205
11.0101
3.72776
-10.6199
11.2301
-10.7709
-2.33851
-1.86007
2.95882
2.66109
10.3106
-2.36999
3.26312
11.5471
-2.61613
1.99137
3.89689
11.3465
2.83317
3.56779
10.3576
-0.825899
12.7346
1.02653
-12.7197
-5.17416
13.2809
5.84721
-13.388
13.7728
-13.8263
4.8794
-0.809622
1.25027
12.568
0.839456
-5.15103
5.75707
12.8381
1.43812
5.45492
12.1141
13.4509
-2.33029
8.54776
2.24862
-7.06845
-1.95505
-2.48092
8.62122
3.02039
-7.25476
8.41936
-7.22208
-1.98341
2.72045
2.83117
9.50887
-2.24336
2.84995
2.27943
8.91674
-2.25191
-2.87488
2.26391
3.41559
8.75725
3.44147
9.38394
-2.57412
8.34763
3.21235
-7.65286
1.87695
8.49963
-7.33291
-1.99579
8.31263
1.84026
-7.7643
-2.0744
-1.69794
2.78575
1.66784
8.21593
-2.2349
2.84697
8.57529
-2.26469
1.62322
3.3524
8.2646
1.58427
3.21137
7.76929
-3.12371
4.71851
8.14036
2.42539
-8.07166
-7.45318
1.22322
2.15643
0.00527008
-0.018713
-0.306205
0.00808419
0.19197
-1.91129
-0.55171
0.356408
-3.19848
5.47557
-5.51447
3.76484
7.76615
-8.3741
0.0171507
-0.136036
-0.556335
0.0140326
7.92162e-06
1.44316e-05
-0.000135486
-0.000740968
-4.17193e-05
0.813477
3.68945
-2.96512
-13.1106
3.52028
1.98828
-2.84834
3.5449
1.37747
-2.86665
12.7751
-0.881392
1.53826
4.20022
1.17593
-13.5001
4.24485
2.24019
4.16974
4.37449
-2.7079
7.98497
3.29088
-7.83796
-2.01011
7.99518
2.45987
-7.86629
-2.15055
8.13612
-7.84572
-2.1238
1.93078
2.70999
7.88677
-2.19776
2.56786
2.24963
7.34817
-2.13111
1.80381
3.06398
7.35531
2.81861
2.04369
6.63571
4.42351e-07
-1.10047e-05
-2.136e-05
-6.51489e-07
1.58511
-1.24167
3.75425
4.76051
-5.50928
-4.96051
0.0118165
-0.250619
-0.0194363
0.0134816
-0.22457
0.00739417
-0.59946
0.0404666
-0.526756
-0.390271
4.44368
5.30292
0.827092
-5.68684
-5.14592
0.000520322
-0.106891
0.00379606
-0.0314749
3.20085e-07
-6.85741e-05
-3.27275e-05
-1.63905
9.36705
2.449
-8.36417
-4.39478
10.5887
5.00422
-10.2023
10.7911
-10.4153
4.50154
2.21145
11.1728
-2.56647
-4.19638
3.36295
4.81625
10.186
5.06798
11.0758
3.07609
10.3371
-1.55196
3.29155
4.83127
1.67335
-6.87061
-0.138127
0.00210771
0.00312324
-0.0019257
-0.000123827
3.03188e-05
2.02901e-05
-0.0132223
-0.00453108
0.00203754
-0.0482832
0.000665551
0.00123745
-0.90217
0.0793792
0.158556
-1.66729
0.126055
-5.28445e-05
-0.000284985
3.04372e-06
5.72663e-06
-8.3222e-07
-3.43029e-06
-3.91826e-07
2.0763e-07
4.11473e-07
-2.53534
8.49356
2.24733
-7.54782
-3.64036
8.92722
4.32419
-7.82213
8.84341
-7.43648
3.87466
-3.07675
2.26268
8.48618
3.29496
-4.01107
4.46529
9.00163
2.2536
4.13427
8.07266
9.17043
6.45288
12.6462
-12.8759
0.870032
11.9328
6.91526
-12.2964
11.2789
1.49375
6.54965
-11.4068
0.992345
6.2523
12.3216
5.97007
1.73079
11.72
-1.15012
2.12023
6.45308
11.4348
6.65688
11.8582
-11.9393
3.39166
-2.74585
-2.51755
3.17415
3.25215
-2.54842
3.3392
-2.7001
11.7787
2.78954
3.9656
-3.50995
-10.5636
3.79122
3.67193
4.01087
3.41728
3.77533
4.81824
12.4285
-0.995033
1.76291
1.27342
-13.0655
-12.087
-4.78277
2.62593
5.31752
1.11991
-5.00289
5.5522
2.06852
5.38936
2.47609
-1.72585
7.87846
1.67426
-7.79876
-3.81491
7.87773
4.2569
-7.83995
8.10543
-7.8378
3.67126
1.5166
7.76382
-1.399
-3.43005
1.24115
3.32791
5.8039
3.75079
6.9226
1.44361
7.12433
-0.0225288
0.000539039
0.000643726
-0.00590464
-9.5955e-07
-3.10791e-07
-1.1143e-06
-5.25807e-06
-9.42326e-06
3.32622e-07
1.80081
2.96622
4.10098
-5.2957
-4.766
-0.11942
0.00511146
0.00573445
-0.110842
-1.34141
0.338961
0.483983
-2.79933
-2.66471
-0.000411628
-0.00287742
0.000113138
-0.00247148
0.236579
-1.38453
-3.07176
0.449103
-3.86883
1.32931
8.00888
10.6322
-10.5565
3.98058
-3.69874
6.46939
8.59066
-9.09719
-0.0571961
-0.0191442
0.000255269
-7.9858
0.371897
1.84063
5.07425e-06
-0.000656665
-4.18191e-05
-0.000182653
0.0211308
-0.927243
-0.188494
0.0342036
5.54712
10.4259
-10.0311
-2.57254
9.75155
3.48439
5.79305
-9.01154
10.3793
6.04471
-9.87518
-3.04573
5.34828
3.6533
9.8865
5.61473
10.9746
3.56387
6.18869
10.6801
3.90689
5.70826
9.7194
3.12814
2.98396
-2.41697
-8.6815
2.25682
1.69982
-1.99877
2.84183
2.13968
-2.32817
8.19017
-3.20496
2.08712
3.19959
3.20581
-9.33061
3.06023
1.44847
2.25686
3.48451
-3.74248
7.09611
3.93888
-7.47408
-1.90841
7.26317
2.28249
-7.48375
7.64825
-7.70228
-3.18061
1.30074
2.86352
4.2788
1.60616
6.46395
2.77108
1.72943
5.0114
1.21666
2.09895
2.28732
4.57498
11.547
3.11537
-3.57289
-10.3518
3.80554
-11.1972
-4.56879
4.99091
-3.48084
-4.32199
3.82332
4.76531
5.15714
3.62777
-7.694
1.69603
-1.62992
-1.44588
2.38201
1.37076
-2.03654
2.60549
-2.1948
6.74488
1.31941
2.83359
-0.633307
-5.25428
0.410613
0.787798
1.35647
1.18696
2.49928
-2.51478
6.30085
2.75108
-7.31162
2.82895
-2.93543
6.95537
-7.54778
3.12578
-2.10087
7.65908
-7.74154
-2.17124
-2.38934
1.75881
3.60295
1.9583
-1.63366
2.28734
6.33636
-1.96872
2.0407
2.37427
4.78818
1.50338
1.79923
1.24674
1.07558
11.4191
-11.5762
-6.96676
10.7534
2.31638
7.44658
-10.4565
10.9743
1.90076
-10.8534
6.95088
-1.28997
2.50146
11.0278
1.35738
-7.09704
10.9984
7.46181
2.65857
10.686
7.26506
11.3777
-11.6857
5.68808
2.66159
1.25607
6.0614
5.927
2.42677
11.3588
-1.34886
2.63382
6.37326
1.3306
-11.7621
6.05567
2.57297
5.78392
6.54222
4.92948
8.83499
-8.29881
3.48892
8.66285
5.34475
-8.57788
7.78595
2.50664
4.86183
-7.97829
3.46231
4.77231
8.72811
4.17224
2.26476
7.32297
3.65178
4.85748
8.19233
2.05193
3.78061
5.64759
4.43978
7.4254
-7.64991
-1.43862
5.08291
1.17295
3.66501
-7.00039
6.51196
4.32303
-7.47931
-1.19854
2.50482
0.909973
2.87677
3.35356
4.88495
0.785996
1.97515
1.83118
0.427965
0.829545
0.791572
1.50143
2.16301
-1.89358
-3.76843
0.37225
0.257718
-0.617171
1.79771
1.5128
-1.66166
-3.76582
0.24809
0.388374
1.23298
2.1254
1.86434
1.53336
1.07768
0.128843
0.0844142
3.36091
7.34086
-3.33283
2.01949
2.95928
-8.9598
3.46293
-3.86864
4.06368
-5.68067
-1.85781
0.451247
0.983844
1.80954
3.20117
1.01461
-3.16897
9.47616
3.79232
-9.33994
-6.57914
10.0969
7.17065
-9.835
10.385
-9.76638
6.59592
3.72211
10.4323
-3.61546
-5.84701
8.31584
3.80963
5.73022
9.89848
6.75924
9.19776
3.99805
5.35026
4.50968
-5.66884
-5.12682
0.266755
2.27607
3.43024
-4.63769
0.188548
2.13571
1.22734
-4.21917
1.96004
0.435993
1.11937
-4.14302
2.04911
0.590124
3.22176
-4.61286
-0.0522663
0.129416
0.286474
0.222523
0.325059
0.248873
2.73504
4.75011
1.12401
-0.325384
-2.85751
0.144826
-2.09655
-0.629299
0.142412
-0.805939
-2.15896
0.522706
1.14511
2.00349
0.911764
-3.29224
5.24828
3.14497
-6.96633
2.51277
6.59829
-7.35544
4.81631
-6.90476
2.34541
1.99344
1.44872
2.43998
-0.635823
-0.769831
0.167061
0.231048
0.110463
0.970277
0.88981
0.717202
0.432643
-10.9889
5.18228
-3.65468
5.02434
3.92175
5.65671
10.492
3.62975
5.97517
-3.142
-8.8293
3.44867
2.40855
5.01565
5.08396
3.82797
4.21856
5.12538
-5.63162
-5.09007
-0.624388
0.944048
0.668533
0.628385
-3.4461
-0.865289
1.15018
1.00047
2.01208
-4.17881
1.57944
0.903364
-3.9068
1.584
2.74734
-4.46697
0.144681
0.167681
0.213008
0.101851
0.103301
0.126955
10.7244
6.61268
-1.36803
2.66096
1.17638
-11.1331
1.29992
-6.84505
6.79127
-5.40346
-9.55289
1.58908
3.91156
2.1783
2.45996
6.47434
3.81738
6.14224
-7.20249
1.174
3.52789
2.94257
-6.62705
0.80892
1.67701
1.58899
1.7665
1.02988
1.88642
-6.03839
0.773115
0.504256
0.721635
0.244697
0.342005
0.408962
0.0830374
0.121074
0.165286
7.81555
10.414
2.60586
-10.3355
1.3472
10.1798
8.15033
-10.291
9.89462
2.64468
7.91753
-10.0479
1.34159
7.5407
10.3054
7.27976
2.60215
9.93836
-1.18293
2.20334
6.5577
8.24621
6.98847
8.79978
-0.000150843
-3.28917e-05
1.3556e-05
-0.000263026
3.33451e-06
-0.356398
0.0176973
0.032939
-0.540521
3.20294
4.85099
6.22374
-7.89017
-3.49559e-05
-1.00209e-05
4.62218e-07
-0.0921532
0.00136657
0.00166726
-1.54827e-06
-3.89438e-07
-8.73924e-07
2.29548e-07
-6.41397e-05
-4.49614e-06
1.8527e-06
6.36232e-07
-1.62026
0.0651129
-1.5486
0.345846
0.558462
0.826488
0.789182
0.737282
0.517609
-0.239614
-0.0307716
0.00387661
0.00568187
0.126133
0.172103
0.0205254
2.98835
1.81748
1.77438
-4.90374
-4.46604
0.518517
0.531267
0.377268
-2.69565
0.901438
0.69041
1.04965
-3.61742
0.342883
0.531504
0.495083
-2.67056
0.242901
0.246698
0.194723
-1.67376
0.0514417
0.0514468
0.0598182
0.0190891
0.020785
0.0226183
-1.47706
0.0855969
-0.193695
-1.01413
0.367109
0.21807
-0.61218
1.16126
-1.25983
0.676081
0.468163
0.699767
-0.0162461
-0.166131
0.00407322
0.00248828
0.0281358
0.128174
0.0762511
9.60262
6.02198
3.47004
-2.44896
-7.34277
0.887835
-3.01
-4.74875
3.42041
2.09126
-4.1599
-7.9865
2.03302
5.50236
3.37876
3.67963
8.41015
-8.5272
-4.73854
4.65058
2.0287
3.8459
-7.37946
6.94024
2.52535
-7.85272
-4.66113
2.34921
3.74139
4.55765
3.44359
7.1913
2.50222
1.25148
2.38377
0.340154
0.597124
0.635208
7.36611
9.80309
-9.82191
-3.4788
7.13371
5.81669
3.47831
-8.57683
9.01405
7.25836
-9.5274
-3.31938
4.7987
6.02196
3.00712
6.5047
8.72729
2.55513
5.07801
5.88238
2.0258
1.81449
1.04134
2.24537
2.33787
-6.28716
-0.446234
0.154698
0.113773
-1.65593
0.0717683
0.641353
0.591691
-4.47557
-0.118858
0.028696
0.047577
0.0187545
0.185094
0.249969
0.0160098
0.0267962
0.0431526
0.00386876
0.00708378
0.0024075
3.30793
4.04342
-2.8504
0.236845
0.148183
2.4724
1.28175
-5.40394
0.408409
0.830129
2.6166
3.59957
0.963525
0.47346
1.08329
0.0330116
0.0402489
-1.16846
1.74218
0.731416
-6.09764
-3.34468
1.01896
1.05941
-5.4517
3.91278
-7.00011
0.397993
0.250962
0.45847
-0.0361875
-0.121091
0.00754547
0.0125628
0.0193694
0.0520531
0.0735598
0.0747349
0.159954
-7.37486
4.91354
1.64984
-8.63973
1.2515
9.05807
-9.91636
8.61854
2.35961
-9.66506
3.73182
-0.713596
1.45674
3.69635
0.253874
-4.67535
0.930791
0.398475
0.609275
4.98413
-0.678638
0.0247048
-0.372228
0.23205
0.15046
0.723198
0.162619
0.0800057
0.116727
-0.00288277
-0.0548112
0.000711088
0.00112239
0.0036198
0.0225338
0.0348862
1.44551
0.890107
-4.17069
-3.89719
-0.0790441
0.020825
-0.210955
-0.173647
0.0367649
0.0459443
-0.510382
0.136419
0.182132
-1.32649
0.0813793
-0.641253
0.0705167
0.005319
0.00624292
0.00656625
0.00149847
0.00155503
0.207958
0.257825
0.121533
-0.00392103
-0.048676
0.000597778
-0.0246382
-0.0301973
0.00559957
0.0038165
-0.0631854
-0.00628729
0.00119963
0.0383249
0.0190303
-0.529107
0.034754
0.0192548
-0.466355
0.0914796
0.405553
-2.89179
0.361431
0.227869
-2.72859
0.0262192
-0.00423604
0.0111063
0.0228792
0.000237166
-0.0306316
0.00179062
0.000660213
0.00152135
0.0265249
0.551981
0.904197
-5.11242
-0.345448
0.0557253
0.0237898
-0.767942
0.0400908
0.404265
0.256623
-3.44742
-0.0463524
0.00264369
0.00739139
0.00462772
0.0297935
0.0671482
0.014419
0.00845133
0.0233329
0.000721951
0.00233728
0.00138946
1.04151
5.97808
-6.99906
1.04988
0.71657
5.4441
1.95546
2.20733
-0.550619
1.15121
2.45341
0.0814313
-3.03262
0.24477
0.0854411
0.137373
3.32435
-0.0510618
0.0452736
0.0370097
-0.352034
-0.0701243
0.00235822
-0.00143255
-0.020295
0.0766424
-0.0466383
-0.534619
0.0077724
0.004774
-0.00460442
0.00748434
-0.000143053
-0.00445689
9.3367e-05
0.000130903
-0.000135615
0.000230816
0.00314262
0.00423186
-0.276672
0.180937
0.2062
-1.62745
-0.397789
0.0244211
-0.353015
0.280266
-2.35173
0.0183026
0.0113066
0.0161984
-0.000653613
-0.010098
0.000393889
0.000556819
0.00104013
0.00707484
0.00904597
-0.0939347
0.00328711
-0.0275567
0.0184774
0.12224
-0.831694
0.105995
-0.710741
-0.00173555
0.010947
0.0106439
-0.0127091
4.76842e-05
0.000379657
0.0124141
0.000326791
0.065992
0.0956408
-0.0493135
0.000933864
0.000604451
0.0296456
0.0206041
-0.0233606
0.000275285
0.000437284
0.0088329
0.0136079
0.00748361
0.00252213
0.00406081
7.80016e-05
0.000131489
-6.09438
2.08894
-7.32822
-2.85784
2.82875
1.76553
-7.44742
6.97506
-8.97004
1.42834
1.008
1.46999
-0.0785926
-0.252858
0.00840682
0.0222271
0.190636
0.145301
0.30047
-2.01994
0.87738
0.52327
-3.94298
0.31664
3.67939
0.838605
0.488395
0.776144
-0.0149107
-0.146313
0.00271581
0.00157107
0.0301375
0.109321
0.064654
1.56746
1.37084
0.709714
-5.944
1.23628
2.26444
2.53815
-6.81832
0.710897
1.4349
1.28889
0.241337
0.140607
0.204739
-2.24329
0.0820724
0.0621084
0.109138
0.124725
0.184105
0.226248
0.00625102
0.00727397
0.0109571
-2.13549
0.100257
-2.26745
0.306419
0.495322
1.11773
0.245933
0.186199
0.13145
-0.00573818
-0.0390412
0.000671056
0.000678805
0.0053599
0.0211756
0.0246877
0.0192177
0.0217794
-0.187939
-0.00903882
0.000244486
-0.00233416
0.000205197
0.00831383
-0.0793494
0.00737952
-0.00206685
4.46414e-05
5.96041e-05
0.0015042
0.00192784
0.000764061
0.000549319
0.000702352
1.63154e-05
2.20099e-05
0.100206
0.0885497
-0.969713
-0.044407
0.00194317
0.00170141
-0.0405771
0.0341426
0.0358341
-0.473023
-0.004436
0.000172192
0.00023503
0.00321472
0.00400328
0.00156466
0.00111711
0.00141981
5.82479e-05
7.902e-05
-0.0517092
0.0211606
-0.36873
0.00783702
-0.0886636
0.013449
-0.261455
0.00874625
0.119514
-1.38891
0.00305535
0.0016582
0.00532577
-0.000144389
-0.000437271
7.72306e-05
2.25934e-05
4.33022e-05
0.0005207
0.000297478
0.000818128
0.000251742
0.141545
0.173984
-1.84946
-0.00810065
0.00320307
0.00228587
-0.0718575
0.0012353
-0.00346198
0.00107512
0.00170348
0.000606416
0.0164588
0.0118933
-0.319185
0.00487164
0.00765247
0.000286382
0.00038919
0.000617308
8.27858e-05
0.000125806
4.28988e-05
0.389384
0.323085
-0.169325
0.219808
0.011942
-0.525747
0.00546865
-0.598087
-0.00985591
-0.0315832
0.000222945
0.00469878
0.0105764
0.0254537
0.0152913
0.0113296
-0.000376498
-0.00716061
7.96151e-05
-0.00127496
-0.00412129
0.000244519
0.000416185
-0.0004562
-0.00291688
5.05637e-05
0.00162925
0.00253729
-0.00395636
0.000912104
0.000600175
-0.0121046
0.00020125
0.00637314
0.00173052
0.000498609
0.000866792
-1.62712e-05
-0.000265494
4.58767e-06
2.79661e-06
2.83837e-05
0.000125826
7.75233e-05
-4.69236
-0.587256
1.50598
0.70534
-2.2007
-0.127501
-0.0203366
0.00390342
0.00385436
-0.0214369
-0.242852
-0.989208
0.0739825
0.0809233
-0.371681
0.0101936
-0.0858472
-0.278947
-0.0140365
1.84735
-5.49442
-1.39179
4.99596
-5.23786
1.73823
-5.85942
-1.28337
4.49638
5.81794
-4.04984
4.38111
-0.449274
5.93033
0.863309
-3.81098
-4.96795
-5.08535
-0.463254
5.53206
5.62364
0.924697
-5.49626
0.00457218
-0.527467
-0.202465
0.167091
-5.16672
2.0176
-2.44479
0.000171003
-0.00171074
-0.000709979
-0.00781345
0.000195719
-0.687484
-3.17336
0.601379
0.511691
-1.48556
-0.0439505
-0.162685
0.00532572
-5.40555
2.22751
4.71062
-5.14597
-5.75682
2.19099
4.45915
5.65059
-4.09226
3.62578
-3.18453
4.7145
5.31117
-4.3162
-5.27888
-4.51237
-2.53283
1.65421
2.14359
-4.36186
-0.459726
5.77104
0.897469
-5.36856
4.28882
5.88194
-3.72345
-4.85306
5.74868
5.0082
-5.29512
0.411951
4.42991
5.93724
-3.91789
4.48327
0.839897
5.96379
-3.97801
-0.410416
0.84799
4.78717
5.62855
4.75569
5.62737
4.50288
-1.28506
1.72335
-3.89386
-5.14176
-1.34752
5.67641
1.81575
5.15493
-5.41767
4.43762
5.91887
-3.8569
-5.05639
5.71824
5.13175
-5.40066
4.49956
5.92196
-4.00827
1.29613
4.76187
5.55191
1.73593
4.69276
5.39185
4.59118
2.18926
-3.95113
-5.29273
2.31419
5.60205
5.19726
-5.41838
4.6899
5.60633
2.67186
-4.04844
-5.31918
5.4637
2.80635
5.13523
-5.38548
4.37495
2.59891
5.40055
-4.11918
2.13231
4.57277
5.14481
2.43162
4.36297
4.76908
-0.000389701
-0.00174639
3.40628e-05
4.56275
3.89749
4.98573
-4.37523
-5.11099
-3.6763
-2.78856
1.68047
0.966396
1.63304
-3.94872
-3.5579
1.95754
1.17309
-4.08622
-3.2552
1.99444
-0.0158454
0.000546346
-0.00310609
-0.00310625
0.000396251
0.000396257
0.00363604
-0.045789
-0.0312109
-0.0800816
0.00332749
-0.000132163
4.83841e-06
-2.80241e-05
-4.21416e-05
3.44877e-06
5.54544
5.59845
-5.44827
-0.444789
5.25273
0.915664
-5.3707
5.25644
-5.35184
4.79775
-0.380878
0.805432
5.03999
0.318006
-4.796
3.71567
0.682311
3.56025
5.07296
-1.40016
5.48312
1.88935
-5.45728
5.52367
5.58367
-5.49717
5.16699
-5.29817
4.71764
1.22776
4.89638
-1.02292
-4.54466
1.28266
2.56351
3.17051
1.60392
4.61437
-5.13901
1.96047
0.383489
-2.43492
0.325264
3.76626
-3.57979
3.78337
0.703204
-3.61549
3.85836
-0.29365
0.636554
3.60555
0.092873
-3.98979
1.00039
0.232229
0.914731
3.63046
4.74872
5.50549
-4.18386
-5.32758
-3.22921
4.89373
3.5049
4.83187
-5.07217
5.23469
5.02437
-5.27323
-2.89303
3.91533
3.03113
4.4728
-3.95329
4.21518
5.03754
-4.08096
2.58721
3.97805
4.0683
2.46551
3.26843
2.69548
-1.08949
3.64523
1.44227
-3.58167
-5.0012
1.79621
-2.359
3.74454
-3.61288
3.51859
0.970225
3.48333
-0.330133
-2.95251
0.337839
0.50672
0.73741
1.24719
3.22846
2.36547
5.3153
-5.36331
-5.25869
4.24125
2.48478
-4.9942
5.06486
2.77619
-5.20327
-4.23829
1.38044
1.62742
1.89759
4.09296
3.70678
2.04335
3.13545
1.21124
0.956918
-4.12308
1.08495
-1.92287
1.73184
3.46382
-3.51463
3.13676
1.90325
-3.3799
-2.09874
0.240486
0.258012
1.40801
2.79103
1.3138
1.36156
2.09294
0.117562
0.115576
3.58441
4.37873
4.46798
-4.93907
4.25939
4.48477
3.95846
-4.24885
-4.9549
2.88992
3.34459
3.22551
-3.70058
3.12264
3.25543
-4.62643
2.21472
2.12361
1.41716
-3.18921
1.79741
2.00042
1.19919
0.652327
0.565884
0.40054
-3.04558
4.05051
3.11968
-4.87952
-4.99933
3.2552
-4.74257
4.70484
-5.07799
1.90196
2.76329
1.73986
-1.43186
-0.716602
0.222017
0.174696
1.30019
0.822453
0.444438
-1.90777
0.24137
-0.907064
-1.84896
1.64225
1.41855
-2.634
2.55554
-3.12264
0.682686
1.00834
1.18932
-0.0460113
-0.300224
0.0137315
0.0126101
0.0423149
0.443191
0.385047
2.57215
1.66502
-0.215436
0.483333
-0.478653
-0.179313
0.0122586
0.0987858
-2.68746
0.0295637
-1.77792
0.244695
0.076016
2.29005
1.42435
0.72091
-0.0900058
-1.06908
0.0708498
-0.327702
-1.82412
0.298846
-0.387195
-0.135951
0.849614
-0.684377
0.0419137
-1.18512
0.179394
0.797136
0.37611
0.516568
0.540708
-0.0186117
-0.0741628
0.00218691
0.0188295
0.0778687
3.55804
3.28682
-4.65154
-3.95866
-1.95763
0.285869
0.38028
-2.43177
0.380258
1.17326
1.99484
-4.08641
-0.720211
0.107795
0.101052
-0.652217
0.110818
0.72031
0.445789
-2.12366
0.107806
0.110836
0.101066
0.0139748
0.0139748
3.49493
2.60722
-4.54063
-1.10592
0.185213
0.218331
-1.70889
0.63823
-3.53026
-0.391447
0.0418094
0.0453149
0.443932
0.297689
0.0846594
0.0781856
0.0774051
0.00701705
0.00887644
-0.637808
0.135598
0.135599
-0.717049
0.392879
0.634886
-1.78994
0.0186724
-0.105274
-0.0992386
0.00291151
0.00295837
0.11105
0.10456
0.0240531
0.0198713
0.0209116
0.00054352
0.000585771
0.179983
0.223913
0.205957
-0.00644382
-0.0597217
0.00173083
-0.00630925
-0.0276442
0.000751706
-0.0603627
-0.0259138
0.00614091
0.0643016
0.0261413
-6.16525
2.00697
-0.846422
1.15605
-1.70618
5.10008
2.64301
-5.42397
-1.12442
6.20367
1.52423
-2.21341
0.216352
-6.16456
1.95126
-1.6124
5.31679
0.400679
2.53226
5.03153
-3.9499
-2.21051
-2.37289
-5.44538
-0.746065
0.967713
1.96678
-3.08645
-5.87338
3.5449
-1.20224
6.14072
1.6216
-0.430476
-3.35802
5.91468
0.825165
-4.67218
-2.44119
0.211109
-5.67291
2.93372
2.57134
5.17639
0.728745
-4.07684
-2.22392
0.402617
5.3765
2.89032
-4.16014
5.53521
0.755114
2.95242
-4.29998
0.369279
2.52723
6.13098
-2.13558
2.57741
0.739481
6.19579
-2.16831
-0.3818
0.768624
3.01601
6.20589
2.95409
6.14987
-5.74128
-1.16467
6.18806
1.57163
2.59257
-1.079
1.46431
-4.38134
-2.18853
-1.12653
3.00174
1.52005
-4.54322
2.58473
5.30114
-4.23457
-2.20709
5.65013
2.98206
-4.41461
2.61173
6.21122
-2.19268
3.05863
6.21172
-3.28025
5.83739
-4.53867
0.414903
5.68501
-4.33145
5.78037
0.792204
-4.48707
3.47187
-0.39061
0.791721
6.12481
0.404255
-3.40899
6.07032
0.817337
6.12066
6.09024
3.41725
-1.17942
1.57192
-4.69224
-5.93569
-1.24214
6.05234
1.67983
-1.22801
1.63624
-4.86485
-3.39398
5.93949
-4.77939
5.83043
-4.59843
3.50699
6.145
6.11088
-6.21199
1.98703
0.519492
-1.65253
5.32539
0.298048
2.3761
-1.94219
2.42589
0.660568
-1.98889
-0.317469
6.14115
0.691245
2.86891
-6.10123
0.227597
2.24092
4.95704
2.81911
0.52877
2.27042
4.92661
2.50559
-1.0449
1.43554
-2.07587
-6.06186
-0.851183
2.25295
1.14959
4.49834
-1.08513
2.92568
1.48365
-6.20534
2.00135
-1.67989
5.25734
2.4627
-2.03018
6.12382
2.89818
2.27208
4.78931
3.28364
-0.332544
5.98202
0.713176
-5.95497
0.228557
4.16398
-5.67904
-2.45898
0.474309
2.84122
0.335424
-3.23735
0.719586
0.518141
4.08085
-5.83987
-0.821844
1.09531
3.415
3.30827
-1.11239
1.5118
-1.1214
1.51281
3.30185
5.94238
-5.60404
-2.43719
2.56669
3.84214
-0.00141187
-0.000935906
0.000104398
-0.041975
-0.0115291
0.00164896
0.00133005
-0.331671
-0.575995
0.0439068
-0.338956
0.0319156
-0.461775
0.258303
-2.28168
0.0125749
0.0137351
0.00123337
-8.73372e-05
-8.73102e-05
1.16771e-05
1.16704e-05
-0.0041658
-0.000652757
-0.000543681
9.16743e-05
-0.0236621
-0.0198693
0.00323997
-0.0276133
0.000652768
-0.00385482
0.0236632
-0.135607
0.00416616
0.0032402
9.16634e-05
-0.015971
0.000343805
-0.0138517
0.00117957
0.0125694
0.00251505