/*--------------------------------*- C++ -*----------------------------------*\
  =========                 |
  \\      /  F ield         | OpenFOAM: The Open Source CFD Toolbox
   \\    /   O peration     | Website:  https://openfoam.org
    \\  /    A nd           | Version:  9
     \\/     M anipulation  |
\*---------------------------------------------------------------------------*/
FoamFile
{
    format      ascii;
    class       volScalarField;
    location    "0.00205";
    object      alpha.c4;
}
// * * * * * * * * * * * * * * * * * * * * * * * * * * * * * * * * * * * * * //

dimensions      [0 0 0 0 0 0 0];

internalField   nonuniform List<scalar> 
16817
(
0.00234516
0.00226629
0.00256069
0.00221333
0.00247071
0.000917687
0.000688106
0.000870422
0.000769654
2.43999e-07
9.4166e-10
3.93907e-12
0.0347089
0.01168
0.0275209
0.0128688
0.00855278
0.00144209
0.00500321
0.00102237
0.000582551
3.12512e-05
4.10447e-05
2.22347e-06
3.41295e-05
0.000243026
0.0596015
0.0257847
0.0827073
0.022473
0.081389
0.0175852
0.0617239
0.0455859
0.0157415
0.0102157
0.0391251
0.0130472
0.0484901
0.0362675
0.0216835
0.00784169
0.0309055
0.0056868
0.0289572
0.00539497
0.0222891
0.0141316
0.00316693
0.00144817
0.00708701
0.00308056
0.013777
0.00757244
0.00147894
0.000601146
0.00314718
0.000220861
0.00345073
0.000232606
0.00133013
0.000605582
7.69452e-05
5.45358e-05
0.000215048
8.57055e-05
0.00053915
0.000279794
0.000231033
4.84887e-06
4.8165e-05
0.00029003
0.000173364
0.000105653
4.17766e-05
0.00029746
0.000214905
7.4496e-05
0.104702
0.0388384
0.0354097
0.0145721
0.0215497
0.00241034
0.00585141
9.5863e-05
5.2514e-05
2.30836e-07
0.0608992
0.0800501
0.0728033
0.0386831
0.0413934
0.0287158
0.0238339
0.0236793
0.0246364
0.0275687
0.0249706
0.00775555
0.00623741
0.00899268
0.0036115
0.00221619
0.00600651
0.00147117
0.011813
0.00137216
3.19759e-05
0.000113241
0.000304375
3.85656e-06
0.0204204
0.00212543
0.000539985
1.08239e-06
0.00126536
1.49652e-05
2.10871e-08
7.72528e-08
1.06668e-06
1.30238e-09
0.0193187
0.0384677
0.0199224
0.0378421
0.0374084
0.0195413
0.0197588
0.00364868
0.0142384
0.00693853
0.0085574
0.00676904
0.00828218
0.00379827
0.000258016
0.002102
0.000698382
0.0014667
0.000584394
0.00117056
0.000348623
6.1922e-07
4.68261e-05
8.66878e-06
2.62988e-05
3.68789e-06
1.08361e-05
1.73502e-06
0.000130592
8.80286e-06
3.30748e-05
5.25259e-06
3.80698e-07
8.52451e-07
4.40788e-10
3.97056e-06
9.1044e-08
0.0798572
0.0842584
0.0601348
0.0590783
0.081716
0.0582801
0.0823935
0.0705657
0.0518807
0.0556477
0.037884
0.0725715
0.0510502
0.053651
0.016649
0.0328894
0.0234369
0.0118938
0.0324656
0.0168627
0.0116994
0.0231942
0.0370285
0.0240154
0.0152245
0.0354832
0.0242062
0.0147971
0.0168615
0.0103499
0.014464
0.00733248
0.0176814
0.00998178
0.0135275
0.00200226
0.00538603
0.00333264
0.00123743
0.00512398
0.00214153
0.00110635
0.00873267
0.0124688
0.00544842
0.00442293
0.0111885
0.0105775
0.00370614
0.00566517
0.00277506
0.00477081
0.000843503
0.00800989
0.00203861
0.00271
8.17945e-05
0.000759976
0.000176829
3.72092e-05
0.000531117
0.000131512
1.93578e-05
0.00422305
0.0233178
0.00766126
0.00957008
0.00867588
0.0110344
0.00363341
0.00165547
0.00312836
0.00359646
0.00139191
0.00201913
0.00454338
0.00254129
0.000745501
0.00530147
0.00168771
0.000929801
0.000731308
0.000229944
0.000590965
0.000301657
0.000350465
0.00217767
0.000282393
0.000185253
0.00101405
0.000888946
8.45874e-05
0.000112406
5.72265e-05
0.000115434
4.45751e-06
0.000340499
2.18289e-05
3.08036e-05
9.11432e-08
6.17062e-06
2.75468e-07
3.98508e-08
2.00492e-06
2.9531e-07
1.11834e-08
7.51823e-05
1.49193e-05
2.06555e-06
0.000107239
4.21026e-06
2.98419e-05
1.84207e-05
5.74758e-10
1.0603e-12
2.02789e-10
3.63393e-07
2.85637e-11
2.08206e-10
8.08529e-13
6.14319e-06
3.11193e-06
3.08403e-05
4.76387e-07
3.85349e-07
5.76899e-06
4.4772e-08
7.91986e-15
4.78712e-06
5.034e-12
0.242188
0.186699
0.15086
0.118459
0.116335
0.0576487
0.0419092
0.00476988
0.0294454
0.00305769
0.001281
0.000356732
0.00256271
0.00223048
0.000430171
0.00035074
0.240382
0.303732
0.215398
0.238353
0.300004
0.210828
0.244462
0.224643
0.220535
0.252899
0.161544
0.283752
0.193449
0.194386
0.13376
0.219548
0.12801
0.128452
0.160219
0.196533
0.105691
0.115022
0.120115
0.173584
0.0857961
0.183296
0.0936079
0.100415
0.0708647
0.162374
0.0773944
0.108855
0.0869498
0.144578
0.0647684
0.0502227
0.0889401
0.0760792
0.0258842
0.115395
0.045965
0.0289787
0.0061991
0.0402225
0.0120957
0.0137239
0.0138606
0.0191436
0.0053558
0.00275896
0.00649074
0.00450128
0.00102256
0.00920906
0.00236102
0.00128788
0.0391169
0.0702876
0.0478155
0.0199195
0.0789554
0.0348038
0.0227895
0.0196864
0.00969024
0.00917504
0.00551421
0.0176271
0.0110849
0.010305
0.000594498
0.00252614
0.000413208
0.000551666
0.000862561
0.00137955
0.000198837
0.00458224
0.00266356
0.00096976
0.00534552
0.00223363
0.00264923
0.00119144
0.000244056
3.867e-09
3.24075e-09
6.07078e-06
0.000256939
0.000117493
9.75143e-05
0.000489755
1.49212e-10
8.62274e-05
1.24892e-11
4.4199e-07
2.67305e-13
3.83023e-10
2.61285e-15
1.45044e-07
4.31977e-14
1.05064e-17
2.62946e-16
0.0023649
0.0012409
0.00123263
0.000971544
7.47715e-05
3.50564e-08
2.5802e-05
1.88171e-08
0.000621397
0.000219129
3.85141e-05
2.81248e-06
9.64847e-06
2.20044e-09
1.09985e-05
8.70892e-07
7.49547e-08
9.81125e-09
1.30355e-08
1.93402e-10
3.92569e-11
4.99652e-12
4.98544e-07
1.02762e-11
6.63253e-10
1.09544e-12
0.000222877
1.2749e-07
8.89609e-07
0.000204405
0.000156429
6.61336e-08
4.04572e-07
2.26416e-05
7.26325e-09
3.04465e-08
2.16836e-06
1.00787e-07
1.19326e-08
7.31826e-10
1.03115e-09
3.87327e-10
2.08953e-12
2.23379e-09
1.69787e-11
3.79418e-12
6.69656e-13
3.79856e-12
1.43772e-13
1.5172e-13
1.09422e-12
3.97007e-13
4.9659e-15
1.18873e-14
2.23863e-11
4.57637e-12
1.44557e-12
2.99516e-12
4.4454e-13
0.00767605
0.00781237
0.00245523
0.00229348
0.00765145
0.00237587
0.00785776
0.00652051
0.00190391
0.00442407
0.00126557
0.00651638
0.00196482
0.00440719
8.84347e-07
4.13756e-06
1.49269e-05
6.87041e-05
3.69976e-06
1.33367e-05
1.00385e-06
5.78039e-07
4.99623e-05
1.17796e-06
4.17018e-06
2.51988e-06
9.03102e-06
2.5245e-07
0.00116222
0.00241094
0.000632806
0.000271777
0.00237997
0.00120013
0.000271646
0.000565415
0.000108473
0.000297561
3.36723e-05
0.000603885
0.000103868
0.000262006
1.9696e-08
3.9382e-07
1.36513e-06
2.94822e-06
7.77176e-08
1.07444e-07
3.63202e-07
2.89479e-05
0.000126777
8.32953e-06
2.39879e-06
0.000100267
4.25668e-05
1.47483e-06
5.89972e-06
4.33289e-07
2.09022e-06
3.33402e-08
1.05205e-05
2.21943e-07
9.65184e-07
2.36107e-08
3.8394e-07
5.2328e-09
2.1624e-09
1.52587e-07
6.59996e-08
8.11376e-10
3.33195e-09
3.18353e-10
1.27668e-09
1.40723e-11
1.0099e-08
1.13852e-10
4.02716e-10
7.84532e-09
1.14389e-06
1.51201e-08
9.69388e-08
3.63992e-08
2.38663e-07
3.22293e-09
2.22526e-10
4.03481e-10
2.24647e-11
2.71737e-12
9.26096e-10
9.5909e-11
5.94879e-12
0.000596749
5.94496e-05
0.000462535
0.000565128
5.37402e-05
7.48159e-05
8.28293e-05
0.00010276
5.9581e-06
3.00124e-05
3.39789e-05
1.58417e-06
1.85751e-06
7.65485e-06
3.25131e-07
1.35324e-08
7.78169e-08
4.74063e-08
2.265e-09
1.37927e-09
9.67535e-09
1.67655e-10
1.11762e-11
6.24933e-11
2.65525e-11
2.08429e-12
1.29897e-12
5.30687e-12
2.27427e-08
4.87181e-09
1.56998e-08
9.13931e-10
5.55616e-10
7.84253e-11
1.94557e-09
4.21882e-14
6.67068e-16
1.23735e-15
8.81725e-15
3.77354e-15
2.0732e-16
1.34745e-16
1.70763e-12
7.67628e-14
1.07296e-13
3.83402e-15
0.00035807
0.000248665
1.78525e-05
0.000438336
3.73732e-05
5.17905e-05
2.42771e-05
8.88516e-06
1.94556e-06
7.49997e-08
9.20128e-06
3.67423e-07
3.77123e-07
6.41106e-08
1.30727e-08
1.04998e-09
7.45908e-11
6.85627e-09
3.748e-10
1.94561e-10
3.59164e-11
8.94755e-12
5.02956e-13
3.93597e-14
3.72611e-12
2.58494e-13
1.67745e-13
5.39397e-14
1.51947e-10
1.32921e-12
6.24122e-13
3.34563e-11
1.81967e-11
3.06184e-12
2.62263e-13
7.2243e-10
4.96647e-12
1.6672e-12
7.52354e-11
3.11794e-10
2.2235e-12
7.60328e-13
2.37172e-11
5.77227e-13
2.24201e-13
1.84439e-12
1.17858e-12
1.01546e-13
3.2927e-14
1.56121e-13
7.47331e-15
4.00968e-15
5.4615e-14
2.01789e-14
9.12236e-16
7.83459e-16
2.95658e-15
4.90924e-17
7.64811e-17
1.09259e-16
3.27486e-16
3.28756e-18
1.57773e-17
5.2245e-14
5.24012e-15
9.47069e-17
1.23639e-18
3.02452e-14
6.65494e-11
3.69986e-11
4.35722e-08
6.05171e-13
4.72567e-10
3.30307e-08
5.40543e-12
1.44021e-12
3.64948e-11
6.10461e-13
1.61318e-09
5.90551e-06
0.000242221
5.41176e-05
5.81628e-06
3.42187e-08
5.18261e-12
4.33562e-13
1.81277e-15
5.16223e-14
2.5228e-12
1.29262e-13
1.68379e-08
1.13427e-07
4.05533e-12
3.23337e-06
6.88423e-09
4.86552e-08
2.78406e-12
4.15404e-10
3.26638e-09
2.82627e-12
4.18403e-09
9.05308e-12
6.52261e-11
3.01946e-13
8.92476e-13
4.85003e-13
3.62293e-14
2.55821e-12
1.42863e-13
8.24458e-14
6.62248e-15
2.4909e-14
1.68369e-14
1.11494e-15
4.92079e-14
4.22614e-15
2.55053e-15
3.44857e-16
1.62063e-15
7.27954e-13
2.73945e-13
3.26282e-14
1.00086e-14
1.85525e-14
1.2334e-15
2.43207e-14
1.0136e-14
4.51559e-15
1.60376e-16
1.14856e-19
6.87492e-16
7.96537e-18
6.89095e-17
7.97709e-19
1.39018e-18
1.77689e-20
2.11273e-20
3.05773e-22
1.27911e-21
1.44394e-23
3.08655e-18
3.54897e-20
4.05023e-22
4.70986e-24
5.12232e-13
1.46524e-13
1.42103e-14
2.41931e-15
1.23653e-15
2.73328e-17
4.75471e-19
7.03263e-21
9.49752e-23
1.24943e-24
0.17274
0.0810584
0.0853941
0.143285
0.151505
0.0598972
0.107236
0.114113
0.0566517
2.70597e-17
8.96905e-17
1.54581e-18
1.83632e-17
2.98071e-19
1.24135e-18
1.52581e-20
3.6693e-20
4.75738e-22
3.633e-21
3.93976e-23
3.85811e-15
8.03471e-16
1.00585e-16
2.60629e-18
3.23333e-19
0.00510646
1.2981e-13
1.92276e-14
5.12401e-12
5.32189e-09
1.27329e-13
3.23528e-10
3.26573e-13
3.90388e-14
3.4842e-15
4.04127e-16
0.0122516
0.0104882
0.00103456
0.000143056
8.02632e-06
2.92304e-07
1.90637e-10
2.08355e-12
1.2067e-13
3.03142e-14
5.48828e-05
1.60648e-06
6.54807e-05
2.17596e-05
1.82531e-05
2.05852e-05
1.55292e-05
3.29992e-06
4.26392e-06
0.218247
0.176148
0.0876635
0.0390082
0.168786
0.0392875
0.0279334
0.0802602
0.0505222
0.0579132
0.0465908
0.0495531
0.0320454
0.0214328
0.0394746
0.0363648
0.0242633
0.0186117
0.0434828
0.0293342
0.0187245
0.0346443
0.0226813
0.0145435
0.0135639
0.0124788
0.0161957
0.00993343
0.0124429
0.0285847
0.0173943
0.0408874
0.0130442
0.0292011
0.0169071
0.00717202
0.0106958
0.00822143
0.00949595
0.197348
0.0893583
0.0475644
0.0242437
0.000440704
0.165927
0.130872
0.117209
0.0849787
0.0465887
0.05459
0.0554764
0.0408891
0.0381134
0.00253418
0.111505
0.188145
0.116663
0.193207
0.184649
0.113684
0.114315
0.0350807
0.0886417
0.0517626
0.0621427
0.0516972
0.0636604
0.0343866
0.0216859
0.0525742
0.0206556
0.0496994
0.0224438
0.0544203
0.0201119
0.00438622
0.0241868
0.00900605
0.0113388
0.00898322
0.0114187
0.00435321
3.18303e-05
3.99559e-07
0.108114
0.177133
0.10673
0.163089
0.174169
0.104038
0.11081
0.0872583
0.0901346
0.087511
0.0898767
0.0863436
0.0872053
0.0845566
0.0889767
0.0995155
0.171464
0.127574
0.0773894
0.164953
0.101104
0.0766679
0.096654
0.147466
0.12302
0.0722979
0.15672
0.0930175
0.074894
0.0781417
0.0608717
0.0783494
0.0607619
0.0772229
0.0582952
0.0754197
0.0599411
0.0351388
0.0873504
0.0497516
0.0642019
0.0510293
0.064566
0.0347802
0.0260752
0.0405462
0.0405988
0.0256963
0.0258912
0.038974
0.0400866
0.0253831
0.0268734
0.0497843
0.0513648
0.0218708
0.0534412
0.0254677
0.0236409
0.0274997
0.0560792
0.054397
0.0245071
0.0558789
0.0274708
0.0244971
0.0186149
0.0142986
0.0179135
0.015144
0.0186639
0.0151903
0.0184788
0.0153194
0.0223462
0.0555792
0.0231995
0.0560324
0.0232998
0.0568707
0.0220272
0.0116892
0.0124599
0.013258
0.0110642
0.011754
0.0132592
0.0134195
0.0115042
0.019852
0.049282
0.0420429
0.0149684
0.0527215
0.0187923
0.0152986
0.0200979
0.0519342
0.0416157
0.0139476
0.0540134
0.0193884
0.0150847
0.00967942
0.00673243
0.00931934
0.00682452
0.00961191
0.0060863
0.00918673
0.00665465
0.00174385
0.00376857
0.00376079
0.00173288
0.0021035
0.00533712
0.00263229
0.000943921
0.00546963
0.00205444
0.00097868
0.000776467
0.000315071
0.000761428
0.000325366
4.80551e-06
0.000112491
1.63529e-05
1.74481e-05
0.000118149
5.24402e-06
3.41431e-05
0.516428
0.487386
0.410335
0.326874
0.294889
0.321027
0.392316
0.237806
0.209132
0.200118
0.088545
0.0499649
0.0103323
0.480341
0.374389
0.25886
0.445968
0.199078
0.158652
0.126526
0.12908
0.0782302
0.403543
0.384795
0.381465
0.406527
0.391247
0.342641
0.367496
0.36821
0.316003
0.316773
0.340214
0.297881
0.299079
0.285471
0.223197
0.369086
0.340775
0.282693
0.255608
0.337432
0.27899
0.372837
0.350253
0.236512
0.288286
0.21288
0.320629
0.256602
0.313062
0.23924
0.252989
0.165308
0.133376
0.269617
0.230043
0.135408
0.227027
0.125583
0.217179
0.127488
0.220623
0.126415
0.223525
0.209144
0.21235
0.130907
0.127375
0.219674
0.199904
0.131193
0.183497
0.111865
0.12361
0.0865519
0.17174
0.118585
0.135957
5.30331e-13
1.3007e-15
3.20477e-15
9.30231e-17
5.37634e-16
1.35699e-13
2.18799e-13
1.79895e-14
1.60966e-14
3.68123e-16
3.98122e-16
1.32682e-16
1.39953e-17
4.78397e-18
2.56054e-19
3.46265e-16
5.42112e-18
1.44016e-17
0.0462396
0.164422
0.00484996
2.49626e-05
3.38274e-08
5.95332e-13
5.97082e-13
5.56381e-15
9.64718e-16
0.0164812
0.0532569
0.00205377
3.74364e-06
3.73897e-09
5.50109e-14
2.93693e-15
5.84838e-16
7.76713e-17
0.00117286
0.0119107
9.65064e-05
2.83151e-09
3.97914e-12
7.41744e-16
9.51901e-19
8.16025e-18
1.29182e-18
5.42742e-05
0.00533321
2.12155e-07
1.38343e-13
1.22289e-16
1.43885e-18
7.1229e-20
6.34937e-20
1.71678e-20
1.32225e-10
0.000119946
3.84783e-12
3.01554e-08
7.86117e-17
5.42667e-15
3.83005e-20
5.88324e-18
9.09756e-14
1.15038e-07
4.09218e-16
7.95939e-13
5.81524e-19
5.28215e-17
0.404233
0.328319
0.350494
0.397672
0.137549
0.0189714
0.0379179
0.0744839
0.0162233
0.2018
0.0915739
0.131792
0.000608103
0.00424631
0.000517097
9.28539e-07
4.4325e-08
5.44225e-10
1.74723e-05
3.31056e-07
2.74239e-08
1.36369e-10
2.38532e-10
3.2838e-11
7.36531e-12
1.05678e-08
4.86949e-11
9.39222e-12
3.56907e-12
0.187845
0.0902131
0.0426594
0.00770917
0.00486697
0.0097736
0.00222965
0.0136733
0.000213621
0.00053411
3.76892e-05
1.27253e-07
3.17538e-09
4.65009e-11
1.98558e-07
1.4403e-09
1.4417e-11
6.40761e-13
1.37444e-11
3.24564e-12
1.55525e-12
3.40404e-11
1.21144e-13
5.89125e-13
1.54567e-13
0.0713669
0.0613676
0.124932
0.00805539
0.00115427
0.000375505
0.00486437
0.000360171
0.0084723
0.0356071
2.58112e-06
8.64853e-06
2.62545e-08
1.77824e-10
1.88277e-13
4.55333e-13
1.38789e-11
8.70485e-14
1.30807e-13
3.94046e-14
1.89575e-14
3.44926e-14
8.72585e-15
1.84499e-15
8.7454e-17
8.19779e-16
3.05626e-16
0.0170176
0.0785874
0.00409517
0.00916794
0.0029817
5.19062e-05
4.05673e-06
0.000290018
3.49227e-08
0.0220886
0.000519082
0.00217477
2.02175e-10
1.30642e-09
4.67657e-14
5.78371e-15
2.32119e-15
4.58263e-16
3.98229e-16
5.68631e-17
2.81069e-17
4.29618e-18
1.49321e-17
1.12378e-17
9.27292e-18
2.10817e-16
1.0546e-14
4.96574e-19
4.74099e-18
9.08338e-09
5.59807e-15
7.41215e-14
5.18309e-14
1.95407e-12
3.55995e-15
2.15522e-14
8.6598e-07
2.76062e-13
1.26648e-11
6.95296e-12
3.33135e-10
1.59044e-13
8.47513e-13
0.00190592
3.20614e-08
0.000525945
1.82382e-09
2.17266e-06
4.69607e-14
1.42225e-11
1.17933e-16
1.83102e-14
1.62715e-17
0.0193198
0.0168539
0.00758491
0.00019917
0.000571303
0.00155903
0.00653893
0.000158645
0.000478959
0.00755409
0.000812446
0.00302334
4.69427e-06
0.00018633
6.25304e-05
0.000695099
2.16779e-06
2.73632e-05
0.000115882
7.85598e-06
1.91013e-05
4.83659e-10
1.1884e-06
7.81388e-09
2.5847e-07
2.30797e-11
5.15035e-09
1.50689e-07
1.41833e-09
6.39431e-10
1.70816e-13
1.68709e-11
1.89719e-13
3.85769e-12
1.42513e-14
2.28056e-13
0.102321
0.188348
0.0921756
0.15682
0.181247
0.0884108
0.10605
0.0047472
0.0103468
0.0100715
0.00477411
0.0105105
0.0102357
0.00487444
2.76044e-10
1.09555e-09
8.72377e-09
3.02711e-08
9.6826e-10
7.71519e-09
3.15527e-10
0.0226518
0.0668443
0.0323408
0.0296198
0.0397049
0.0388083
0.0178419
0.00437335
0.00110188
0.00239791
0.00111341
0.00444299
0.00206623
0.00244038
6.34034e-12
1.01537e-10
8.16618e-10
9.97341e-10
2.56146e-11
2.56811e-11
2.06017e-10
0.00813229
0.0186349
0.00586409
0.0111846
0.00884827
0.0184214
0.00512294
3.34804e-05
0.000295669
0.000126454
4.14126e-05
0.000323206
0.00010754
0.000151913
3.68567e-15
8.70429e-14
6.78801e-13
3.62266e-13
2.02914e-14
7.79138e-15
6.28926e-14
0.00197124
0.00994263
0.00232184
0.00263165
0.00412642
0.00479461
0.00111149
7.28773e-09
2.04972e-06
1.11836e-07
2.74309e-08
4.79983e-06
3.14427e-07
7.64756e-07
3.07478e-19
2.60241e-18
2.09514e-17
8.98503e-18
1.52999e-18
4.16897e-19
2.21253e-18
3.06232e-13
4.26191e-06
1.06609e-10
3.04598e-05
3.47407e-07
6.31894e-07
5.3263e-11
0.000348707
9.73556e-07
2.33686e-05
1.81067e-06
2.30056e-05
1.95107e-10
2.15139e-07
4.26832e-10
1.05483e-07
6.50287e-10
4.05339e-09
2.45809e-09
1.56713e-08
1.0724e-10
1.49955e-18
7.29867e-19
5.66619e-17
1.41281e-15
9.84332e-19
4.83247e-16
9.8485e-18
7.52109e-14
7.5599e-18
6.25316e-17
3.77864e-15
2.59253e-14
5.99341e-17
3.9217e-16
0.0598098
0.112095
0.0769973
0.130371
0.105996
0.0735296
0.0627337
0.0183631
0.0307485
0.0295833
0.0352516
0.0200584
0.0194262
0.0366836
0.0445402
0.0569767
0.0547598
0.0463919
0.0507441
0.108631
0.0604005
0.0442986
0.0881043
0.062484
0.0360097
0.0257696
0.012267
0.0190657
0.0306084
0.0129949
0.0171854
0.0224651
0.0385763
0.0346657
0.047498
0.0281511
0.111532
0.201702
0.117241
0.197158
0.195819
0.114133
0.114991
0.0757153
0.0679626
0.0654912
0.078326
0.0831781
0.0892518
0.0866373
0.085814
0.0888217
0.131965
0.1108
0.054263
0.155278
0.0757771
0.0648839
0.0981729
0.174264
0.126385
0.0769936
0.171068
0.101307
0.0734302
0.0667407
0.0421586
0.0571791
0.05009
0.0740154
0.059987
0.0774918
0.0566202
0.000593327
0.00188676
0.00185137
0.00181909
0.000568738
0.000555622
0.00185194
0.00897374
0.00324673
0.00686648
0.00427119
0.00697929
0.00912352
0.00326416
0.00164802
0.000372379
0.00123567
0.00162046
0.000352719
0.000486325
0.00121648
3.38659e-06
1.85519e-05
2.11051e-07
8.43986e-07
1.73176e-05
1.88617e-07
3.72574e-06
2.45956e-06
6.17726e-07
8.01182e-06
6.46149e-08
1.35099e-05
1.31365e-07
1.29124e-06
1.24064e-11
4.05307e-11
8.51374e-11
2.04386e-10
3.52012e-11
7.16496e-11
1.44427e-11
1.81257e-10
2.11984e-08
3.07067e-10
2.46334e-09
6.53914e-10
5.22432e-09
8.14161e-11
7.67054e-12
1.24422e-10
9.76544e-12
1.68398e-11
2.25649e-11
4.30578e-11
3.41459e-12
0.0114847
0.0345496
0.0260986
0.0231569
0.0212591
0.0185478
0.0141521
0.0117254
0.00422551
0.00639416
0.00738858
0.00813865
0.0136373
0.00445312
0.00913435
0.0208255
0.0169384
0.0112555
0.00647995
0.0138277
0.00729336
0.00535732
0.0107703
0.0081266
0.00412413
0.00344718
0.00194958
0.00119884
0.0040382
0.00129869
0.00236555
0.00238113
0.00503572
0.00392459
0.00629482
0.00304678
0.0176633
0.0256354
0.0312168
0.0140755
0.0141619
0.018392
0.02014
0.00731989
0.0254248
0.0105824
0.0104016
0.010612
0.00528488
0.00810116
0.00732816
0.000752292
9.86472e-05
0.000379618
0.000378651
0.000203897
0.000743649
9.51477e-05
0.00122856
0.000239312
0.000615401
0.000545579
0.00064281
0.001259
0.000251317
1.13378e-05
0.000167794
6.62747e-05
0.000170376
1.16933e-05
3.69137e-05
6.9773e-05
1.33075e-07
3.48556e-06
2.24636e-08
3.65933e-08
4.81012e-07
1.14323e-06
5.88081e-09
2.96467e-08
8.38261e-09
5.70729e-08
1.95236e-10
2.91082e-07
1.25499e-09
4.94641e-09
3.1006e-13
2.98933e-12
4.7586e-12
3.35218e-12
1.01653e-12
7.39625e-13
1.22174e-12
1.24101e-12
2.15817e-10
7.81343e-13
6.10484e-12
5.26455e-12
4.15067e-11
1.96527e-13
5.21883e-14
6.87814e-13
2.07308e-14
5.61144e-14
1.41696e-13
2.33666e-13
1.1262e-14
0.00234853
0.00571823
0.00406538
0.00717331
0.0029902
0.00483872
0.00336826
0.000677485
0.000653867
0.000340445
0.00100973
0.000740302
0.00152344
0.000419156
0.00143598
0.00274228
0.0020359
0.00204936
0.00184627
0.00629601
0.00293642
0.00214255
0.00401284
0.00281368
0.00131414
0.000155341
0.000153737
5.38263e-05
0.000641051
9.51673e-05
0.000218081
0.000347316
0.000996063
0.00102383
0.0015233
0.000616544
0.0048311
0.00390716
0.00575718
0.00310178
0.00749941
0.0103767
0.0154594
0.00364629
0.0180128
0.00452611
0.00630606
0.0117618
0.0412108
0.025768
0.0132638
0.0293744
0.0160287
0.00995658
0.00401986
0.00175713
0.0024529
0.00301457
0.00613385
0.00606635
0.00812941
0.00466381
3.48154e-07
2.18019e-05
5.2848e-06
6.72814e-06
2.89682e-06
2.47837e-05
4.71656e-07
4.48559e-05
1.18653e-05
1.36172e-06
1.26438e-05
2.0515e-05
6.30401e-05
2.61055e-06
1.49426e-09
7.71684e-07
5.75946e-08
1.23199e-06
3.32088e-09
4.59213e-08
1.24225e-07
5.57428e-11
7.65918e-09
2.26074e-11
1.67107e-11
5.97766e-10
7.52879e-10
2.08072e-12
3.86022e-12
1.27816e-12
4.01609e-12
1.14767e-14
5.85644e-11
1.48076e-13
2.57945e-13
3.18876e-16
2.3754e-15
7.08523e-15
3.01926e-15
1.31632e-15
2.48797e-16
1.90741e-15
1.87372e-16
2.7289e-14
3.9743e-17
3.54565e-16
5.75194e-16
4.43847e-15
4.60002e-17
3.05582e-17
4.93864e-16
3.25894e-18
5.76848e-17
2.54083e-17
1.98327e-16
8.27024e-18
0.000345752
0.00174297
0.00131081
0.00149343
0.000754661
0.000864901
0.000625129
1.44199e-05
2.80703e-06
1.42119e-05
5.07809e-05
3.13922e-05
0.000148978
8.08508e-06
0.000119864
0.000551437
0.000306252
0.000230166
0.000137178
0.000687601
0.000155994
9.48958e-05
0.000388279
0.000259445
4.7399e-05
5.08398e-07
3.31833e-06
3.86548e-07
1.45697e-05
2.20362e-07
1.64322e-06
3.26612e-06
3.96843e-05
2.48469e-05
8.1505e-05
1.11556e-05
0.00308315
0.0165145
0.00830922
0.0102961
0.00647148
0.00779379
0.00396996
0.000768607
0.000995842
0.00176408
0.000426221
0.00121314
0.003479
0.00273439
0.00157272
0.000837295
0.00120499
0.0009418
0.000177472
0.00216085
0.000466973
0.000331313
0.00134854
0.00471171
0.00156408
0.00080178
0.00350248
0.00181046
0.000564678
0.000291635
5.00977e-05
0.000155874
9.96263e-05
0.000487315
0.000264492
0.000667083
0.000180104
5.31535e-12
8.2761e-11
3.24966e-09
6.94931e-10
2.27223e-10
9.32024e-09
1.65521e-11
1.72681e-08
4.04402e-11
5.35292e-10
2.24349e-09
6.9464e-09
8.18413e-08
1.76251e-10
1.16796e-12
1.50294e-11
4.03715e-13
5.4834e-11
1.03578e-13
1.30858e-12
4.28591e-12
1.21588e-15
2.67685e-13
6.73196e-16
4.20086e-16
1.63309e-14
1.93631e-14
6.62785e-17
9.52356e-17
3.44585e-17
1.35063e-16
3.42197e-18
1.54362e-15
4.15942e-18
8.5985e-18
3.50479e-19
4.74326e-19
5.8894e-18
5.11297e-18
8.02656e-19
9.29713e-19
2.13071e-18
1.45929e-18
4.10869e-18
8.65951e-16
1.19646e-17
1.37495e-17
4.89396e-19
4.97418e-17
5.61743e-18
1.69355e-16
3.36192e-15
6.00482e-16
5.35734e-17
1.76682e-17
1.95283e-16
7.65144e-12
2.34877e-09
1.86177e-10
1.147e-09
4.89444e-11
2.91754e-10
2.95972e-11
1.85441e-13
3.71907e-12
2.03134e-14
1.77191e-14
9.98798e-13
7.24836e-13
5.38229e-15
1.63354e-09
3.48195e-07
2.48969e-08
1.62534e-07
8.93519e-09
5.81675e-08
4.83117e-09
1.08535e-11
1.34187e-11
1.1071e-12
7.01702e-14
5.26758e-11
2.63941e-12
2.63956e-13
4.14882e-11
5.72927e-10
4.22083e-12
3.11495e-12
1.97363e-10
1.2611e-10
1.03366e-12
6.78213e-09
1.18127e-11
3.97762e-14
4.46178e-10
6.37695e-14
3.34044e-15
7.16202e-13
2.74089e-17
5.23748e-17
5.6731e-16
7.40307e-19
3.85902e-19
1.37955e-06
1.48617e-13
1.18045e-17
1.61839e-12
1.17458e-16
2.77649e-10
1.52259e-09
1.43673e-10
4.3539e-11
4.4126e-12
1.69549e-07
5.63108e-12
2.4073e-10
3.19786e-08
4.61694e-13
2.56813e-11
3.2979e-15
1.56291e-10
1.65338e-14
8.34917e-13
2.6706e-11
5.16812e-16
2.6015e-14
2.11816e-14
6.8631e-14
2.94973e-17
6.53215e-16
2.3995e-11
6.63542e-10
1.32164e-12
4.32699e-08
1.77154e-07
2.14286e-09
5.88528e-09
1.55842e-07
1.84208e-09
4.97598e-08
8.30509e-10
1.37226e-08
1.29515e-10
1.09588e-10
3.38444e-09
3.50856e-09
3.33415e-11
9.06138e-13
2.59314e-11
2.04905e-13
1.14227e-13
5.34569e-12
4.21978e-12
5.52842e-14
6.85706e-16
2.07855e-14
1.70021e-16
9.5879e-17
4.05683e-15
3.31531e-15
4.97428e-17
1.05922e-08
1.51709e-06
4.38538e-08
2.8511e-07
5.0247e-08
3.25636e-07
8.95171e-09
2.4566e-13
1.97107e-16
1.90371e-16
3.3245e-14
2.65837e-14
6.92957e-16
5.77921e-16
2.73311e-08
3.69956e-09
4.42963e-08
4.49153e-10
1.016e-07
1.12921e-09
1.13276e-08
1.80221e-10
2.39076e-11
1.52744e-10
1.48285e-12
7.90875e-10
6.59532e-12
3.32154e-11
4.42075e-09
7.68276e-07
5.22115e-09
1.71002e-08
2.5446e-08
8.47714e-08
8.50239e-10
2.39694e-11
9.26985e-10
3.00842e-09
5.43904e-09
1.41942e-10
1.53807e-10
4.98006e-10
1.37444e-13
1.89806e-14
1.21524e-13
1.67868e-15
7.00423e-13
5.68516e-15
2.50608e-14
3.62179e-12
9.09071e-10
4.42463e-12
1.25482e-11
2.56123e-11
7.24171e-11
6.50716e-13
1.78753e-14
7.55795e-13
2.1074e-12
4.30907e-12
1.06156e-13
1.20906e-13
3.4293e-13
1.40207e-16
3.62799e-16
2.68024e-14
1.24119e-15
9.2484e-16
4.1751e-17
1.61248e-15
2.41845e-15
6.1072e-13
2.35671e-14
5.61816e-15
1.7385e-14
4.74906e-14
1.61401e-15
2.90745e-10
1.05021e-09
2.91172e-11
6.04136e-12
1.24152e-09
2.39572e-10
7.50004e-12
5.60805e-06
9.9141e-08
3.84256e-08
2.11683e-06
9.74359e-09
2.07943e-07
7.05014e-07
1.26017e-05
2.64194e-06
1.28443e-07
2.76483e-05
4.46841e-07
5.15957e-06
1.92109e-06
3.18328e-06
8.91059e-05
1.19577e-05
6.41454e-06
5.53921e-05
1.41448e-06
1.25896e-05
2.31164e-05
0.000158231
0.000152143
1.53034e-05
0.000126626
0.000121383
1.65432e-05
2.62941e-13
2.61556e-11
1.56837e-11
2.22499e-11
2.64996e-13
6.59855e-12
1.75899e-13
3.17118e-14
1.41614e-14
2.96494e-13
9.3451e-13
2.87712e-14
5.72794e-13
1.75809e-14
1.0096e-06
4.07746e-05
1.51583e-05
7.3953e-07
3.26759e-05
2.57588e-06
1.24881e-05
6.97635e-13
1.42065e-14
5.49392e-13
2.54122e-12
6.56262e-14
2.38457e-13
5.62023e-15
7.30371e-14
5.16438e-16
1.24681e-14
1.57278e-13
4.09921e-15
1.38253e-14
4.25164e-16
2.19437e-10
1.15563e-07
9.7694e-09
3.13822e-10
1.29301e-07
3.30743e-09
1.36742e-08
3.04905e-14
5.8081e-17
2.56621e-15
2.72525e-14
4.75325e-16
8.06273e-16
1.99726e-17
2.55453e-17
2.61912e-17
7.75224e-16
1.2516e-15
2.6467e-17
3.69073e-17
9.02035e-19
8.50442e-15
5.02797e-14
2.00157e-12
8.2354e-15
5.0119e-12
1.11479e-13
3.62309e-13
6.85841e-19
1.99594e-18
4.22247e-17
1.17094e-17
3.18943e-19
1.53961e-19
1.74797e-20
2.25463e-21
2.76865e-20
7.4598e-19
7.0195e-19
1.89155e-20
1.46167e-20
1.23412e-21
6.90409e-11
1.42899e-13
2.21796e-12
1.07883e-12
5.5198e-10
1.41561e-11
3.748e-11
2.20174e-14
1.18332e-16
1.76512e-15
4.52774e-16
6.50298e-15
3.71791e-16
1.16353e-16
1.11534e-14
3.94099e-12
1.47794e-13
7.71588e-10
2.01449e-12
7.74553e-13
4.1369e-14
2.73742e-10
5.06281e-13
9.2164e-11
2.90662e-09
7.54978e-12
2.70996e-12
2.92217e-13
4.209e-17
1.02219e-14
3.05888e-16
4.57372e-14
1.57161e-15
1.98486e-15
7.97532e-17
4.06142e-14
4.78949e-14
1.6216e-15
3.54278e-13
1.11512e-14
1.23519e-14
4.50647e-16
0.000126741
9.67549e-06
8.30726e-05
1.15782e-05
6.5838e-05
0.000100576
6.48089e-06
2.79243e-08
4.34461e-06
8.94216e-07
1.62729e-07
8.45218e-07
3.73961e-06
2.69444e-08
8.03759e-13
6.2373e-10
3.52791e-11
2.43347e-11
7.48509e-11
1.08538e-09
1.66661e-12
1.56362e-15
1.08416e-14
7.77593e-16
6.55074e-16
2.33643e-15
2.87401e-14
6.70137e-17
1.1396e-15
3.01255e-15
6.68444e-14
2.91396e-14
8.42128e-15
3.48051e-13
1.05899e-15
1.8933e-08
2.18482e-05
1.48483e-05
4.21569e-06
1.1088e-10
2.62297e-06
4.57736e-11
5.58797e-12
2.6984e-06
1.04005e-07
2.24115e-07
2.91148e-12
3.34541e-09
1.16945e-13
2.1148e-14
9.42637e-10
2.74697e-12
1.40901e-11
5.25059e-14
1.13073e-13
2.78376e-15
5.92587e-15
1.65298e-15
6.74898e-14
6.70305e-15
1.819e-16
3.86159e-16
2.22299e-17
6.24447e-16
1.06003e-13
1.0475e-14
2.04707e-14
7.45349e-16
1.4055e-15
7.05766e-17
6.72493e-19
5.93346e-18
2.94161e-16
2.7967e-17
1.22812e-18
2.5291e-18
5.92369e-19
1.92656e-09
4.41506e-08
1.94898e-08
4.55445e-07
1.19219e-09
3.22692e-08
2.65135e-09
3.15288e-17
1.22437e-16
2.00792e-16
6.03752e-18
3.62238e-17
6.29388e-18
9.82969e-18
3.9552e-16
2.82194e-17
4.62317e-16
8.40277e-18
1.61108e-16
1.61962e-17
4.55675e-17
3.08127e-15
5.42492e-15
2.60958e-13
8.49034e-14
1.79236e-15
2.51761e-14
1.82145e-15
6.03436e-13
2.85449e-13
5.61769e-12
7.36247e-11
3.56563e-12
4.06341e-11
1.91106e-12
2.0365e-12
1.18178e-14
2.43547e-13
1.51251e-11
6.0274e-13
3.10135e-12
9.60086e-14
6.83562e-16
7.38318e-16
2.42267e-14
4.12548e-13
7.4544e-15
1.68485e-14
3.26361e-16
3.54769e-20
8.23861e-19
2.00027e-17
5.63956e-16
1.06577e-17
1.52248e-17
3.6363e-19
5.75621e-15
1.08875e-14
5.09384e-13
6.3216e-13
1.38123e-14
1.87301e-13
6.7217e-15
9.89641e-14
9.04289e-14
3.87039e-15
4.99684e-13
8.28634e-15
7.9723e-14
1.1368e-14
1.51526e-13
5.70518e-15
6.3136e-15
1.98818e-15
0.430219
0.197706
0.135217
0.0460886
0.00764449
1.76584e-06
0.279492
0.103537
0.219736
0.166725
0.0803439
0.119797
0.453194
0.0551139
0.0314193
0.0688969
0.0277425
0.00779099
0.0172775
0.15251
0.0328285
0.00315735
0.0146324
0.0245313
0.00172084
0.00843747
0.109611
0.230448
0.00967345
0.000641399
0.00523236
0.000149269
0.000661288
0.165303
0.0267728
1.24237e-11
0.0651951
0.0502053
0.0338227
0.0265427
0.0166817
0.00335707
0.00450906
0.000868318
0.00110162
0.000522541
0.00021713
4.89401e-05
0.000167889
2.96042e-05
4.67746e-06
1.65945e-07
0.295066
0.340898
0.324435
0.243122
0.303541
0.288097
0.257473
0.0975636
0.113666
0.106998
0.156879
0.14161
0.133504
0.166387
0.236022
0.277425
0.20096
0.203047
0.172902
0.243598
0.14059
0.0876609
0.0583553
0.0541049
0.129353
0.0746297
0.110167
0.0873797
0.0980374
0.0732673
0.123383
0.0442229
0.103406
0.0807163
0.0595517
0.0152778
0.029716
0.0148012
0.0249068
0.0417315
0.0483807
0.0217201
0.0356536
0.0401026
0.0499392
0.0278216
0.0306497
0.0392101
0.0211092
0.00459316
0.00770749
0.00457893
0.0140618
0.00812408
0.0122664
0.00940114
0.0220698
0.0242708
0.0356693
0.0160885
0.0266841
0.018071
0.0240471
0.00235368
0.0031114
0.00226134
0.0058085
0.00617704
0.00720229
0.00494753
0.0296707
0.0161039
0.0197145
0.0140233
0.0168975
0.0211847
0.0111226
0.00113243
0.00160853
0.00103029
0.00457115
0.00268408
0.00384141
0.00326555
0.01679
0.00656037
0.0111034
0.00433817
0.0111774
0.00746926
0.0062941
0.000321649
0.000566213
0.000272207
0.00107433
0.00159667
0.00200019
0.000828066
6.5657e-05
0.000119083
4.68619e-05
0.000543241
0.000175488
0.000397935
0.00026375
0.0613413
0.0645895
0.0607066
0.0493876
0.0322725
0.0332656
0.00746541
0.0176407
0.00824604
0.00174817
0.00385616
0.00199049
0.000765011
0.00118236
0.000776817
0.000320644
0.000508517
0.000300954
7.58582e-05
0.000151847
6.54352e-05
1.07877e-05
2.40731e-05
7.52408e-06
0.00159516
0.00212472
0.000291912
0.210515
0.275583
0.177728
0.208338
0.261821
0.167804
0.222806
0.175028
0.173929