/*--------------------------------*- C++ -*----------------------------------*\
  =========                 |
  \\      /  F ield         | OpenFOAM: The Open Source CFD Toolbox
   \\    /   O peration     | Website:  https://openfoam.org
    \\  /    A nd           | Version:  9
     \\/     M anipulation  |
\*---------------------------------------------------------------------------*/
FoamFile
{
    format      ascii;
    class       volScalarField;
    location    "0.00205";
    object      T;
}
// * * * * * * * * * * * * * * * * * * * * * * * * * * * * * * * * * * * * * //

dimensions      [0 0 0 1 0 0 0];

internalField   nonuniform List<scalar> 
16817
(
588.408
601.786
599.871
529.09
543.65
538.946
483.291
500.918
522.256
294.715
288.062
287.927
774.068
516.478
752.559
588.726
472.896
385.163
469.007
394.697
367.816
347.083
356.069
312.531
374.775
497.001
896.326
670.922
1039.59
662.507
1060.71
561.69
914.612
740.715
576.551
457.755
717.152
493.68
805.58
623.636
518.438
432.658
643.14
438.107
557.091
409.768
580.071
485.393
408.74
368.246
484.26
387.62
527.966
452.895
399.402
353.125
448.983
354.082
422.778
341.543
423.237
387.9
344.377
348.996
406.84
335.679
407.461
395.425
571.434
370.753
468.516
487.293
422.866
426.369
394.563
458.689
456.02
436.435
1180.07
862.489
1025.05
751.073
836.838
571.25
652.228
414.274
441.1
301.696
926.516
1097.36
1147.8
896
987.024
922.008
811.148
897.466
844.715
885.093
895.995
672.325
627.947
763.065
590.741
645.096
658.216
521.34
733.121
584.497
374.12
472.914
460.096
321.651
806.126
570.032
522.344
303.204
490.616
390.937
289.099
290.357
309.588
288.076
869.4
989.013
774.27
861.006
987.95
777.113
866.939
682.337
851.719
672.001
680.047
744.106
767.345
619.552
491.159
625.078
510.273
546.765
547.691
584.024
469.441
297.482
401.251
326.524
376.556
315.992
355.618
304.779
501.145
389.57
481.958
382.73
306.049
312.339
288.003
362.831
293.084
1109.5
1142.17
1030.7
926.359
1141.74
1030.98
1109.49
1098.46
917
1106.38
989.452
1131.68
1019.31
1068.84
850.163
845.836
925.05
724.724
968.728
760.49
806.754
929.409
1056.05
926.943
773.15
1011.15
979.609
842.3
850.004
708.85
855.63
712.4
905.519
764.491
792.605
632.512
623.074
655.961
544.818
698.907
577.992
591.758
720.672
830.703
683.917
651.689
756.902
811.777
658.391
672.177
632.033
725.438
551.494
780.078
616.572
607.666
420.492
509.445
459.8
363.314
527.245
415.547
356.604
686.112
857.079
722.864
706.647
766
746.464
648.367
738.63
766.488
814.733
693.362
626.73
627.212
596.971
545.765
658.985
591.347
579.579
676.348
576.703
633.169
618.915
488.614
652.316
485.548
471.833
540.331
585.422
434.791
447.455
431.923
482.658
344.984
532.45
391.09
404.949
290.815
341.142
296.288
289.668
318.417
294.024
288.63
481.668
422.336
336.935
515.855
369.886
448.987
414.994
288.049
287.926
287.976
305.799
287.937
287.975
287.926
356.183
343.998
423.058
302.803
302.247
364.158
290.711
287.926
373.831
287.928
1309.56
1256.92
1212.29
1037.52
994.836
817.08
829.233
614.447
739.736
556.45
541.962
529.37
619.851
579.654
575.822
557.808
1457.22
1453.16
1328.55
1303.8
1428.06
1317.79
1481.28
1409.8
1285.21
1322.17
1241.1
1380.27
1289.74
1345.08
1128.2
1260.2
1165.9
1151.12
1249.77
1189.49
1073.66
997.747
1087.65
999.901
918.316
1099.16
987.856
878.836
704.003
912.194
855.771
947.175
779.485
841.77
789.454
648.699
885.61
750.238
652.348
790.675
719.741
599.478
498.359
702.484
587.503
658.74
546.841
636.665
534.135
467.879
595.475
539.147
483.96
575.365
499.364
459.219
821.855
854.319
866.675
742.449
886.793
791.377
775.832
744.706
667.784
663.24
637.653
719.348
695.101
686.697
527.917
568.121
489.087
530.497
509.843
566.762
488.091
623.68
598.239
556.579
644.347
598.659
613.83
574.849
559.832
288.398
288.355
386.314
570.764
531.684
517.147
410.965
287.933
371.99
287.927
292.238
287.926
287.953
287.926
294.053
287.926
287.926
287.926
520.844
535.643
495.73
526.314
322.339
288.232
311.594
288.123
473.065
476.252
376.018
325.295
304.5
287.985
332.763
302.513
288.999
288.328
288.292
287.953
287.935
287.928
304.961
287.93
288.054
287.926
430.107
288.785
293.546
388.904
417.199
288.469
291.106
363.809
288.085
288.597
302.718
290.74
288.222
287.982
288.002
287.948
287.926
288.007
287.929
287.926
287.926
287.927
287.926
287.926
287.926
287.926
287.926
287.926
287.934
287.928
287.926
287.928
287.926
702.576
644.074
548.613
520.643
647.112
548.562
699.484
690.633
512.827
613.278
520.135
637.931
539.433
660.396
290.192
292.615
305.009
320.724
292.213
303.58
290.452
289.696
317.221
290.508
296.929
291.476
300.705
289.1
577.094
577.188
496.319
447.272
618.561
540.994
469.958
540.547
415.521
473.036
390.12
508.167
436.845
500.287
288.22
289.522
293.243
297.505
288.575
288.736
290.52
376.944
427.402
335.417
301.738
444.217
372.891
300.057
319.619
291.568
299.843
288.619
324.109
290.668
296.415
288.738
292.213
288.137
288.05
290.531
289.457
287.991
288.157
287.963
288.054
287.93
288.414
287.944
287.982
288.704
324.496
289.072
292.976
290.424
299.498
288.288
287.975
287.998
287.934
287.927
288.071
287.951
287.929
440.501
338.517
408.646
438.789
335.276
358.761
362.827
398.03
306.962
350.874
371.032
297.356
301.34
317.456
292.144
288.241
288.989
288.83
288.002
287.989
288.22
287.942
287.928
287.934
287.931
287.926
287.926
287.927
289.38
288.383
289.166
288.05
288.023
287.948
288.186
287.926
287.926
287.926
287.926
287.926
287.926
287.926
287.927
287.926
287.926
287.926
401.506
417.583
318.379
431.344
328.408
349.611
335.149
325.582
305.055
289.115
336.541
291.723
292.634
289.192
288.195
287.979
287.932
288.126
287.946
287.94
287.93
287.928
287.926
287.926
287.927
287.926
287.926
287.926
287.959
287.926
287.926
287.936
287.933
287.928
287.926
287.956
287.926
287.926
287.93
287.942
287.926
287.926
287.929
287.926
287.926
287.926
287.926
287.926
287.926
287.926
287.926
287.926
287.926
287.926
287.926
287.926
287.926
287.926
287.926
287.926
287.926
287.926
287.926
287.926
287.926
287.926
287.926
287.926
287.946
287.936
289.906
287.926
288.006
290.499
287.929
287.927
287.937
287.926
288.159
383.341
575.956
486.849
317.718
288.989
287.927
287.926
287.926
287.926
287.927
287.926
288.306
289.358
287.926
308.037
288.117
288.69
287.926
287.956
288.068
287.926
288.17
287.928
287.935
287.926
287.926
287.926
287.926
287.926
287.926
287.926
287.926
287.926
287.926
287.926
287.926
287.926
287.926
287.926
287.926
287.926
287.926
287.926
287.926
287.926
287.926
287.926
287.926
287.926
287.926
287.926
287.926
287.926
287.926
287.926
287.926
287.926
287.926
287.926
287.926
287.926
287.926
287.926
287.926
287.926
287.926
287.926
287.926
287.926
287.926
287.926
287.926
287.926
287.926
287.926
898.4
870.913
876.989
904.291
907.317
857.214
898.632
900.836
853.712
287.926
287.926
287.926
287.926
287.926
287.926
287.926
287.926
287.926
287.926
287.926
287.926
287.926
287.926
287.926
287.926
683.305
287.926
287.926
287.934
290.27
287.926
288.193
287.927
287.926
287.926
287.926
1122.16
1113.2
834.887
691.77
512.61
320.664
288.053
287.931
287.926
287.926
522.747
408.856
482.09
448.181
478.449
449.4
474.489
399.714
385.889
1090.29
1012.35
1261.21
1127.39
938.155
1111.25
1195.84
1267.84
1242.47
1217.2
1247.23
1226.19
1189.49
1169.94
1217.02
1219.76
1166.14
1136.72
1165.18
1130.85
1089.96
1172.48
1130.59
1094.94
1113.93
1074.69
1109.98
1080.69
1064.58
1112.52
1072.21
1105.67
1074.75
1107.89
1058.64
1085.99
1067.57
1074.7
1077.08
1273.85
1257.95
1102.99
937.75
568.073
1234.27
1278.63
1222.07
1189.42
1118.45
1032.92
1004.35
1032.84
896.478
626.788
1268.87
1268.32
1276.16
1278.17
1273.04
1281.86
1263.82
1156.28
1246.64
1236.93
1209.78
1218.59
1196.42
1179.22
993.392
1086.7
1055.69
1092.76
1019.78
1071.87
1035.57
718.107
902.888
849.299
805.551
808.802
778.519
745.563
475.936
310.01
1240.68
1252.54
1200.54
1238.49
1257.14
1204.44
1236.09
1245.95
1252.18
1257.04
1241.64
1213.86
1184.7
1187.45
1210.4
1265.56
1279.45
1270.05
1268.8
1273.25
1279.27
1253.61
1236.14
1233.97
1248.12
1179.7
1255.01
1198.28
1220.84
1242.35
1244.74
1254.72
1229.68
1208.36
1159.45
1180.45
1191.2
1112.97
1220.59
1135.6
1135.48
1180.19
1168.77
1066.84
1130.33
1213.23
1193.04
1157.43
1078.82
1111.79
1148
1038.37
1091.09
1155.74
1104.69
1075.98
1141.48
1117.96
1045.27
1043.9
1077.45
1075.49
946.508
1113.98
997.366
994.191
1065.07
1058.83
1097.63
1021.95
1010.32
922.389
967.212
966.607
937.096
1051.87
917.045
981.636
964.47
1032.89
888.454
1003.39
1047.07
1005.88
1050.15
948.025
905.844
951.733
899.866
954.605
1077.6
1001.34
941.4
1051.82
1000.93
894.696
899.963
952.813
952.966
797.057
1008.29
851.268
844.086
985.754
987.113
1035.99
937.98
930.702
836.543
881.194
886.072
777.094
902.441
860.91
806.606
652.638
696.963
614.304
617.574
680.111
671.31
603.387
710.215
667.319
731.101
651.319
391.187
552.328
450.655
443.384
540.996
389.517
469.937
910.406
922.706
871.512
816.61
822.154
1224.95
1162.63
1101.94
1019.32
943.496
978.187
909.243
716.529
1025.34
899.547
1267.55
968.274
1246.03
1224.38
1096.47
1065.78
903.274
1279.26
1400.73
1383.54
1292.83
1237.29
1281.59
1333.99
1191.26
1091.99
1225.63
1146.97
1153.46
1026.47
1071.61
924.544
1245.86
1316.28
1241.92
1266.17
1303.33
1242.04
1253.45
1222.86
1257.17
1243.04
1233.33
1274.06
1236.17
1197.96
1147.23
1214.05
1222.23
1184.69
1176.34
1174.58
1189.77
1103.26
1135.78
1056.39
1112.05
1120.06
1145.02
1051.8
954.755
989.861
1089.47
1028.67
999.597
934.693
1059.91
926.431
970.382
882.219
940.322
901.401
1007
912.313
287.926
287.926
287.926
287.926
287.926
287.926
287.926
287.926
287.926
287.926
287.926
287.926
287.926
287.926
287.926
287.926
287.926
287.926
1187.9
1266.21
924.789
428.145
288.618
287.926
287.926
287.926
287.926
1167.64
1284.38
900.776
361.207
288.139
287.926
287.926
287.926
287.926
906.6
1091.42
754.037
288.808
287.928
287.926
287.926
287.926
287.926
566.91
878.97
325.896
287.926
287.926
287.926
287.926
287.926
287.926
288.077
566.61
287.935
292.913
287.926
287.926
287.926
287.926
287.926
296.617
287.926
287.926
287.926
287.926
1130.84
1214.71
1123.72
1149.39
1274.45
966.695
1193.31
1300.46
975.84
1271.48
1294.34
1278.16
718.94
929.858
713.512
295.412
289.977
287.985
410.036
292.374
289.37
287.948
287.932
287.933
287.926
288.282
287.928
287.929
287.926
1136.44
1082.47
1284.07
969.678
1066.17
1094.89
927.634
1115.06
665.79
833.201
590.883
290.845
288.319
287.937
303.654
288.149
287.937
287.926
287.927
287.927
287.926
287.938
287.926
287.926
287.926
976.373
924.737
926.083
1065.96
941.357
718.176
927.163
842.033
990.953
1051.01
441.711
577.806
294.682
287.98
287.926
287.926
287.942
287.926
287.926
287.926
287.926
287.926
287.926
287.926
287.926
287.926
287.926
868.411
932.956
728.967
729.543
814.768
637.376
459.439
630.905
298.843
957.284
636.22
636.347
288.067
288.681
287.926
287.926
287.926
287.926
287.926
287.926
287.926
287.926
287.926
287.926
287.926
287.926
287.926
287.926
287.926
290.452
287.926
287.926
287.926
287.929
287.926
287.926
327.813
287.926
287.932
287.932
288.013
287.926
287.926
889.133
289.706
793.615
288.203
455.523
287.926
287.945
287.926
287.926
287.926
1136.65
1134.94
1042.67
720.456
728.957
876.177
1041.92
704.24
720.912
1091.75
889.534
985.321
443.187
672.569
669.859
881.36
438.861
590.32
714.142
487.729
680.339
288.249
407.708
291.315
353.355
287.957
290.32
309.644
288.744
288.322
287.926
287.948
287.926
287.934
287.926
287.926
1280.08
1265.66
1261.99
1271.2
1269.32
1266.8
1274.46
930.807
926.499
934.357
780.863
744.949
751.947
775.748
287.953
287.987
288.264
288.552
287.98
288.228
287.956
1196.53
1277.94
1235.35
1234.64
1247.08
1234.58
1186.24
937.892
869.653
914.473
750.699
770.424
770.265
759.938
287.928
287.941
288.01
288.032
287.932
287.933
287.964
1064.07
1107.97
1061.11
1082.21
1073.98
1102.63
1048.18
688.157
820.297
782.203
635.527
717.462
679.279
706.646
287.926
287.926
287.926
287.926
287.926
287.926
287.926
787.416
931.324
886.529
753.994
905.234
794.381
771.548
290.376
448.543
310.689
294.112
483.724
327.337
368.584
287.926
287.926
287.926
287.926
287.926
287.926
287.926
287.927
482.993
288.057
559.187
339.016
358.568
287.971
572.546
367.392
468.689
389.844
472.963
288.023
302.642
288.059
298.567
288.15
288.962
288.44
290.352
287.981
287.926
287.926
287.926
287.926
287.926
287.926
287.926
287.926
287.926
287.926
287.926
287.926
287.926
287.926
1235.15
1289.02
1243.79
1280
1293.62
1247.59
1231.77
972.284
1096.12
1101.42
1137.48
874.694
877.082
1137.04
1193.06
1187
1191.81
1190.36
1234.51
1290.79
1303.9
1240.03
1301.15
1248.06
1224.58
1104.04
977.164
1100.66
1129.7
868.319
874.867
1112.45
1190.01
1184.8
1192.63
1175.97
1284.87
1267.89
1277.33
1274.89
1271.02
1283.22
1279.29
1248.74
1219.44
1224.6
1243.74
1256.15
1249.9
1254.77
1251.52
1280.55
1282.29
1286.88
1261.01
1277.32
1268.11
1272.77
1283.41
1277.28
1280
1271.13
1275.49
1280.85
1274.19
1249.11
1219.01
1225.86
1241.11
1255.48
1244.89
1253.45
1246.67
720.53
846.27
852.155
744.876
659.528
661.073
738.806
942.105
921.161
945.97
783.265
769.126
760.787
781.39
849.912
694.264
836.835
746.769
641.874
656.362
741.406
315.431
352.691
291.443
294.852
350.485
291.108
317.526
311.131
293.804
337.149
289.676
345.508
290.467
305.215
287.928
287.931
287.929
287.931
287.931
287.929
287.929
287.946
288.432
287.954
288.079
287.968
288.159
287.938
287.928
287.929
287.928
287.927
287.929
287.928
287.927
1148.26
1280.33
1213.29
1226.24
1196.84
1217.98
1163.92
1082.59
952
1048.25
1043.7
853.888
1082.85
835.765
1099.81
1160.59
1145.55
1118.55
1091.65
1152.59
1080.21
1060.86
1141.53
1107.45
1042.43
1008.09
971.827
899.564
1005.86
812.583
819.853
980.926
1053.59
1049.55
1074.77
1025.97
1167.46
1195.67
1215.63
1151.8
1138.33
1167.04
1128.07
1086.73
1174.93
1129.84
1096.27
1113.64
1075.55
1104.03
1081.91
811.687
632.406
777.709
703.484
619.572
726.559
591.062
881.52
796.027
847.209
727.533
724.232
740.935
704.83
529.587
737.673
693.501
674.286
497.087
552.67
639.425
293.717
325.572
288.948
289.527
298.942
312.129
288.421
290.329
288.622
292.221
287.982
300.139
288.116
288.669
287.926
287.927
287.926
287.926
287.926
287.926
287.926
287.927
287.967
287.926
287.929
287.928
287.94
287.926
287.926
287.926
287.926
287.926
287.926
287.926
287.926
983.673
1044.24
1029.87
1047.49
1007.58
1014.71
1011.7
903.788
870.914
846.028
966.399
804.921
973.673
803.823
1028.7
1047.57
1020.82
1057.88
948.519
1007.83
874.547
928.766
962.616
982.295
889.5
749.204
795.759
703.185
942.891
734.13
790.661
879.554
1031.72
1032.48
1064.89
994.621
1088.03
1072.78
1076.92
1083.51
1041.85
1057.86
1036.62
973.003
1088.27
1023.58
992.078
1043.14
1093.15
1053.02
977.982
1095.17
1031.82
993.685
1093.95
1061.58
1091.82
1063.52
1088.32
1029.96
1072.35
1055
339.111
629.735
524.687
503.348
421.966
588.662
338.921
711.31
596.591
425.458
557.844
592.26
669.711
436.183
288.601
385.113
301.065
388.744
288.968
296.257
306.327
287.958
288.976
287.939
287.935
288.103
288.117
287.928
287.93
287.927
287.929
287.926
287.953
287.926
287.926
287.926
287.926
287.926
287.926
287.926
287.926
287.926
287.926
287.926
287.926
287.926
287.926
287.926
287.926
287.926
287.926
287.926
287.926
287.926
287.926
287.926
700.329
768.556
842.803
713.932
799.435
681.915
739.406
535.59
449.373
579.385
652.82
634.108
772.95
526.822
781.208
947.564
903.062
828.857
624.272
659.442
609.436
599.4
636.309
655.808
574.361
361.043
445.846
345.599
554.101
332.912
423.021
464.044
668.492
613.141
714.151
566.901
786.6
956.399
886.076
822.717
905.088
820.372
771.049
858.157
975.911
978.309
854.776
850.004
941.854
968.367
831.58
686.545
677.235
640.093
604.439
694.674
672.147
612.783
690.942
707.968
641.319
623.615
707.016
684.363
622.324
744.587
633.855
734.978
650.326
747.271
669.721
741.567
665.984
287.934
287.993
289.181
288.265
288.057
290.34
287.944
293.132
287.974
288.254
288.897
290.675
305.273
288.075
287.929
287.946
287.927
287.979
287.926
287.929
287.934
287.926
287.926
287.926
287.926
287.926
287.926
287.926
287.926
287.926
287.926
287.926
287.926
287.926
287.926
287.926
287.926
287.926
287.926
287.926
287.926
287.926
287.926
287.926
287.926
287.926
287.926
287.926
287.926
287.926
287.926
287.926
287.926
287.926
287.926
287.926
287.938
289.009
288.036
288.426
287.976
288.145
287.952
287.926
287.931
287.926
287.926
287.928
287.927
287.926
288.248
310.602
290.256
298.943
289.12
293.57
288.575
287.933
287.936
287.927
287.926
287.951
287.929
287.926
287.944
288.044
287.929
287.928
287.985
287.963
287.927
287.985
287.926
287.926
287.939
287.926
287.926
287.926
287.926
287.926
287.926
287.926
287.926
338.561
287.926
287.926
287.927
287.926
287.935
287.951
287.931
287.928
287.926
289.329
287.926
287.939
288.303
287.926
287.928
287.926
287.932
287.926
287.926
287.928
287.926
287.926
287.926
287.926
287.926
287.926
287.935
288.064
287.927
288.19
288.474
287.958
287.978
288.417
287.954
288.225
287.954
288.072
287.932
287.931
287.993
287.993
287.928
287.926
287.927
287.926
287.926
287.926
287.926
287.926
287.926
287.926
287.926
287.926
287.926
287.926
287.926
289.021
338.546
291.286
303.928
291.532
304.995
288.904
287.926
287.926
287.926
287.926
287.926
287.926
287.926
288.126
287.965
288.188
287.938
288.314
287.946
288.052
287.935
287.927
287.933
287.926
287.95
287.926
287.928
288.033
292.178
288.027
288.242
288.25
288.943
287.957
287.927
287.952
288.008
288.016
287.933
287.932
287.945
287.926
287.926
287.926
287.926
287.926
287.926
287.926
287.926
287.948
287.926
287.927
287.927
287.93
287.926
287.926
287.926
287.926
287.926
287.926
287.926
287.926
287.926
287.926
287.926
287.926
287.926
287.926
287.926
287.926
287.926
287.926
287.926
287.926
287.926
287.926
287.992
288.103
287.937
287.929
288.125
287.983
287.93
478.825
311.704
296.972
439.043
291.731
332.124
365.681
499.95
398.043
305.936
519.509
323.951
420.884
393.026
377.962
551.235
444.747
427.244
540.899
352.324
449.566
422.913
564.385
562.179
376.672
511.76
509.158
381.002
287.926
287.934
287.931
287.931
287.926
287.928
287.926
287.926
287.926
287.926
287.926
287.926
287.926
287.926
329.562
504.05
467.555
313.036
457.892
333.153
427.507
287.926
287.926
287.926
287.927
287.926
287.926
287.926
287.926
287.926
287.926
287.926
287.926
287.926
287.926
288.058
305.313
290.694
288.075
302.908
288.742
290.901
287.926
287.926
287.926
287.926
287.926
287.926
287.926
287.926
287.926
287.926
287.926
287.926
287.926
287.926
287.926
287.926
287.929
287.926
287.932
287.926
287.927
287.926
287.926
287.926
287.926
287.926
287.926
287.926
287.926
287.926
287.926
287.926
287.926
287.926
287.926
288.011
287.926
287.931
287.929
288.332
287.949
287.978
287.926
287.926
287.926
287.926
287.926
287.926
287.926
287.926
287.934
287.926
288.265
287.929
287.927
287.926
288.001
287.926
287.956
288.693
287.933
287.929
287.926
287.926
287.926
287.926
287.926
287.926
287.926
287.926
287.926
287.926
287.926
287.926
287.926
287.926
287.926
552.003
388.895
531.824
367.056
482.196
499.799
351.982
292.344
418.699
355.357
298.623
340.211
387.529
291.408
287.927
288.253
287.96
287.947
287.979
288.346
287.928
287.926
287.926
287.926
287.926
287.926
287.926
287.926
287.926
287.926
287.926
287.926
287.926
287.927
287.926
289.122
444.524
422.61
404.491
287.964
378.285
287.944
287.932
358.425
298.515
308.158
287.928
288.99
287.926
287.926
288.365
287.931
287.944
287.926
287.926
287.926
287.926
287.926
287.926
287.926
287.926
287.926
287.926
287.926
287.926
287.926
287.926
287.926
287.926
287.926
287.926
287.926
287.926
287.926
287.926
287.926
287.926
289.116
302.682
294.891
364.275
288.738
299.608
289.607
287.926
287.926
287.926
287.926
287.926
287.926
287.926
287.926
287.926
287.926
287.926
287.926
287.926
287.926
287.926
287.926
287.926
287.926
287.926
287.926
287.926
287.926
287.926
287.926
287.929
287.926
287.928
287.926
287.926
287.926
287.926
287.927
287.926
287.926
287.926
287.926
287.926
287.926
287.926
287.926
287.926
287.926
287.926
287.926
287.926
287.926
287.926
287.926
287.926
287.926
287.926
287.926
287.926
287.926
287.926
287.926
287.926
287.926
287.926
287.926
287.926
287.926
287.926
287.926
287.926
287.926
287.926
916.238
916.509
842.358
920.038
690.624
339.574
1005
1333.11
1219.44
1036.5
1349.3
1277.43
875.158
984.045
1337.11
1287.73
878.555
1050.58
1107.57
816.593
872.82
709.019
1050.4
885.165
577.782
837.745
888.276
867.403
822.362
530.511
769.396
487.763
647.199
891.315
802.968
287.95
1387.1
1388.59
1275.54
1267.75
1358.29
974.758
1090.69
846.423
608.891
526.465
609.898
479.287
468.119
416.36
383.875
308.33
1002.43
957.462
958.187
1103.83
1045.62
1051.31
1096.37
1338.49
1337.51
1345.22
1219.6
1291.84
1298.1
1208.67
1015.7
965.836
985.236
1122.33
1092.87
1066.13
1151.78
1363.12
1376.37
1354.81
1243.08
1334.73
1314.83
1275.79
1037.34
952.864
991.678
1069.62
1093.81
1146.95
1030.31
1220.36
1322.78
1235.97
1186.65
1321.18
1269.07
1251.44
916.23
870.116
899.372
974.152
893.613
946.475
910.821
866.915
1120.34
1003.16
1058.56
1059.87
1153.2
925.308
873.297
868.83
864.469
856.015
869.383
875.081
860.364
619.212
886.904
770.364
711.201
974.16
795.396
877.146
882.878
865.916
874.817
845.998
851.966
857.262
832.041
554.458
682.595
633.403
668.551
716.615
785.126
642.507
870.429
773.785
835.037
753.011
833.703
803.505
787.002
506.347
598.437
567.259
584.046
667.825
615.804
630.709
476.423
540.798
518.964
558.218
583.55
603.609
543.406
1389.47
1460.16
1461.57
1460.49
1445.31
1372.49
1192.94
1311.79
1197.88
754.607
1056.15
903.345
552.972
754.566
650.513
499.463
594.77
555.511
439.761
517.516
481.663
398.152
449.811
418.189
617.002
624.325
574.953
1212.05
1161.17
1270.25
1224.45
1166.72
1274.89
1203.61
1236.44
1244.93
1217.68
1323.25
1184.61
1295.1
1271.56
1201.98
1231.2
1320.83
1244.32
1274.9
1179.22
1261.78
1084.52
1172.64
987.432
1095.47
1083.47
1175.8
972.097
830.293
915.132
1025.03
985.388
884.662
867.646
945.536
802.379
911.302
822.956
796.177
843.698
867.361
778.827
705.938
792.605
733.879
715.979
747.947
749.282
686.661
667.843
676.873
667.636
626.095
706.524
652.716
287.928
288.052
287.926
287.926
287.926
287.926
287.926
287.926
287.926
287.926
287.926
287.926
287.926
287.926
287.926
287.926
287.926
287.926
287.926
287.926
287.926
287.926
287.926
287.926
287.926
287.926
287.926
287.926
287.926
287.926
287.926
287.926
287.926
287.926
287.926
287.926
287.926
287.926
287.926
287.926
287.926
287.926
287.926
287.926
287.926
287.926
287.926
287.926
287.926
287.926
287.926
287.926
287.926
287.926
287.926
287.926
287.926
287.926
287.926
287.926
287.926
287.926
287.926
287.926
287.926
287.926
287.926
287.926
287.926
287.926
287.926
287.926
287.926
287.926
287.926
287.926
287.926
287.926
287.926
287.926
287.926
287.926
287.926
287.926
287.926
287.926
287.926
287.926
287.926
287.926
287.926
287.926
287.926
287.926
287.926
287.926
287.926
287.926
287.926
287.926
287.926
287.926
287.926
287.926
287.926
287.926
287.926
287.934
560.535
288.074
714.796
811.227
648.351
506.198
631.909
522.239
587.556
303.151
519.012
509.732
497.904
534.918
548.582
589.542
574.793
541.837
762.28
682.802
718.367
705.984
691.854
734.781
670.112
643.162
692.226
630.332
551.953
328.396
287.926
288.002
420.06
289.485
314.267
287.936
637.165
680.115
636.126
622.144
606.696
656.696
621.797
629.258
507.795
503.643
462.499
564.666
571.433
565.842
540.87
598.722
638.547
609.927
603.898
612.293
620.912
580.412
421.318
290.566
293.298
415.158
392.807
348.984
326.04
287.929
639.23
548.918
911.59
1296.2
1211.07
1066.18
861.603
992.417
949.536
883.687
917.41
1274.53
1344.01
1317.04
1242.78
1136.02
1170.41
1108.04
1057.97
1015.23
961.835
1022.24
979.918
1008.07
972.301
945.964
969.52
953.708
932.183
968.767
943.687
942.851
920.894
931.373
933.876
922.857
912.687
914.782
1035.1
1175.66
1158.11
1159.78
1149.83
1208.82
1217.31
936.917
998.123
962.305
1053.33
1007.05
1045.44
1100.24
997.283
1112.66
1058.87
1121.2
1084.55
1139.36
1178.54
903.504
943.884
949.762
1102.18
1092.14
1052.86
1045.34
869.618
896.757
941.118
925.415
989.171
936.486
911.847
288.169
287.932
287.939
294.726
289.884
289.742
288.061
296.388
289.455
288.735
287.926
287.926
287.926
287.926
1450.39
1398.05
1393.36
1459.32
1416.3
1313
1370.09
1332.39
972.951
1208.29
1184.25
1061.74
746.056
724.972
890.114
592.885
496.585
613.692
532.186
551.888
462.314
460.415
505.693
424.074
359.48
416.427
388.015
380.526
336.288
322.877
350.195
320.107
287.926
287.926
287.926
287.926
287.926
287.926
287.926
287.926
287.926
287.926
287.926
287.926
287.926
287.926
287.926
287.926
287.926
305.845
333.282
295.031
287.926
287.926
287.926
287.926
287.926
287.926
287.926
287.926
287.926
287.926
287.926
287.926
287.926
287.926
287.926
287.926
899.099
882.303
860.074
1066.68
1026.83
1035.8
1003.05
839.867
835.499
955.831
811.179
1000.48
977.284
942.431
866.819
873.216
878.559
878.169
910.742
906.188
913.284
812.573
864.648
904.451
794.56
795.185
895.991
857.996
1183.43
1177.92
1224.39
1230.44
1231.05
1199.75
1205.91
897.43
890.211
911.991
1022.96
1020.24
1022.1
1023.66
908.55
913.5
862.502
1009.93
1002.35
1026.48
1040.22
835.938
855.326
849.579
821.705
805.331
844.847
853.345
1220.96
1143.63
1221.95
1228.19
1229.76
1161.35
1180.73
1169.33
1164.65
1213.48
1146.41
1141.59
1199.09
1197.98
850.542
834.291
897.44
993.603
964.13
1044.61
1003.49
1123.54
1125.59
1215.4
1186.58
1221.97
1189.92
1144.6
819.302
852.698
867.878
913.913
872.975
936.232
889.222
1064.94
1087.34
1040.5
1145.56
1116.59
1147.54
1118.08
1209.25
1128.76
1127.32
1210.48
1115.16
1205.77
1197.68
1127.97
1194.75
1133.91
1135.38
1198.1
1188.62
1189.86
908.964
913.883
898.171
877.279
885.616
908.686
911.421
1109.51
1208.13
1108.38
1097.74
1194.36
1211.89
1185.79
1055.94
1064.27
1019.55
1126.54
1156.45
1148.23
1120.19
825.534
869.149
854.855
861.552
870.772
873.855
876.732
976.399
993.036
954.334
1077.3
1099.15
1099.44
1075.93
1127.17
1216.89
1143.96
1213.4
1166.73
1242.64
1197.17
889.977
850.435
869.882
863.844
841.651
869.93
890.781
1192.58
915.865
442.472
289.525
747.287
662.179
1165.9
598.625
447.975
568.45
412.135
304.03
341.337
293.919
1035.86
593.229
1158.42
739.218
588.011
1148.12
1049.33
988.966
711.822
535.619
1031.9
569.007
1109.87
894.522
634.694
496.887
917.34
535.366
766.89
463.486
781.492
543.578
485.531
414.947
560.835
438.521
651.328
495.947
424.635
384.62
505.383
371.893
461.753
348.641
459.423
382.224
331.078
299.6
366.313
317.16
411.828
344.98
305.523
292.852
331.965
290.304
320.526
290.105
310.127
288.252
287.96
296.294
288.809
288.405
291.547
288.856
297.34
292.141
527.651
287.929
287.926
287.926
287.926
287.926
287.926
780.612
659.801
295.551
287.952
287.926
379.651
761.312
368.809
327.986
568.658
289.069
288.136
288.223
287.929
287.927
287.928
287.926
287.926
287.926
287.928
406.267
311.231
389.466
301.106
301.641
288.235
291.105
287.946
287.938
287.927
287.972
287.926
287.929
287.926
287.926
287.926
287.926
287.926
287.926
287.926
287.926
287.926
287.926
287.926
287.926
287.926
287.926
287.926
287.926
287.926
287.926
287.926
287.926
287.926
287.926
287.926
287.926
287.926
287.926
287.926
287.926
287.926
287.926
287.926
287.926
287.926
287.926
287.926
287.926
287.926
287.926
287.926
287.926
287.926
287.926
287.926
287.926
287.926
287.926
287.926
287.926
287.926
287.926
287.926
287.926
287.926
287.926
287.926
287.926
287.926
287.926
287.926
287.926
287.926
287.926
287.926
287.926
287.926
287.926
287.926
287.926
287.926
287.926
287.926
287.926
287.926
287.926
287.926
287.926
287.926
287.926
287.926
287.926
287.926
287.926
287.926
287.926
287.926
287.926
287.926
287.926
287.926
287.926
287.926
287.926
287.926
287.926
287.926
287.926
287.926
287.926
287.926
287.926
287.926
287.926
287.926
287.933
287.926
287.926
287.942
287.926
287.926
287.926
287.926
287.926
287.926
287.926
287.926
287.926
287.926
287.926
287.926
287.926
287.926
287.926
287.926
287.926
287.926
287.926
287.926
287.926
287.926
287.926
287.926
287.926
287.926
287.926
287.926
287.926
287.926
287.926
287.926
287.926
287.926
287.926
287.926
287.926
287.926
287.926
287.926
287.926
287.926
287.926
287.926
287.926
287.926
287.926
287.926
287.926
287.926
287.926
287.926
287.926
287.926
287.926
287.926
287.926
287.926
287.926
1178.33
1227.03
1228.87
1146.42
1147.66
1212
1209.72
969.469
974.369
942.192
1083.44
1085.36
1110.38
1105.17
865.42
906.101
890.011
886.073
901.953
883.44
889.868
907.091
899.995
914.819
914.068
901.889
881.365
886.268
1125.78
1210.45
1230.96
1185.94
1160.06
1258.44
1227.75
1028.27
1131.04
1166.17
1093.64
1018.18
1171.32
1124.78
1171.14
1218.92
1196.81
1136.66
1192.35
1107.86
1157.51
930.584
927.661
925.38
932.839
991.808
1040.22
1033.95
942.409
1073.61
1107.71
956.632
916.138
1086.7
1037.93
905.756
912.933
910.343
915.971
896.586
916.34
916.76
921.457
925.578
996.243
1045.14
1042.18
926.462
988.667
1098.71
1152.42
1086.51
1051.5
1096.86
1015.94
970.357
915.095
890.171
913.149
904.702
857.838
917.681
888.303
950.283
1020.41
974.454
940.61
887.474
889.894
833.261
287.926
288.024
287.926
287.926
287.926
287.926
287.926
287.926
287.926
287.926
287.926
287.926
287.926
287.926
287.926
287.926
287.926
287.926
287.926
287.926
287.926
287.926
287.926
287.926
287.926
287.926
287.926
287.926
287.926
287.926
287.926
287.926
287.926
287.926
1033.47
888.534
1063.31
1037.07
1350.49
950.366
1277.18
1017.93
932.456
1262.82
1373.33
1299
973.53
791.896
1151.39
885.008
1224.75
1200.7
902.909
563.366
382.276
305.663
672.218
325.742
585.344
317.677
343.388
909.711
388.284
862.712
357.296
837.92
379.398
526.895
312.09
414.132
292.411
333.301
722.613
344.077
455.555
300.082
525.784
291.171
389.706
289.875
333.366
288.215
290.126
420.101
288.63
338.718
288.37
289.354
288.048
322.637
288.086
287.945
287.942
408.033
558.631
463.611
662.76
550.577
459.979
410.368
352.518
318.173
374.988
324.693
317.513
373.467
353.26
400.869
634.828
492.274
430.688
528.775
448.89
390.118
349.89
321.935
312.597
361.586
315.683
368.8
345.833
368.765
452.79
410.004
477.01
378.763
423.464
391.825
333.73
308.011
353.056
305.045
340.673
301.782
343.461
358.752
441.221
387.544
359.009
403.874
375.889
345.832
323.421
297.637
291.423
315.907
295.491
331.218
310.147
314.903
370.67
339.821
366.842
329.837
352.358
321.741
293.501
289.53
302.221
288.851
299.059
288.748
294.688
305.047