/*--------------------------------*- C++ -*----------------------------------*\
  =========                 |
  \\      /  F ield         | OpenFOAM: The Open Source CFD Toolbox
   \\    /   O peration     | Website:  https://openfoam.org
    \\  /    A nd           | Version:  9
     \\/     M anipulation  |
\*---------------------------------------------------------------------------*/
FoamFile
{
    format      ascii;
    class       volScalarField;
    location    "0.0027";
    object      rho.air;
}
// * * * * * * * * * * * * * * * * * * * * * * * * * * * * * * * * * * * * * //

dimensions      [1 -3 0 0 0 0 0];

internalField   nonuniform List<scalar> 
24629
(
0.31688
0.323521
0.62977
0.610187
1.1683
0.970608
1.57512
0.496567
0.182964
0.381259
0.301482
0.484319
0.47023
0.61217
0.493675
0.176232
0.297811
0.505388
0.630258
0.387419
0.4752
0.208768
0.218283
0.243432
0.222629
0.247737
0.286493
0.262672
0.488632
0.800303
0.973418
0.683351
0.716315
0.900039
1.12721
0.740834
0.504294
0.585562
1.03105
1.18198
0.794189
0.931992
0.203576
0.211554
0.238355
0.214185
0.241311
0.281354
0.255507
0.278391
0.410225
0.310065
0.416387
0.31448
0.348305
0.445778
0.277773
0.415357
0.309201
0.422182
0.313071
0.347733
0.451654
0.257775
0.323815
0.281634
0.328963
0.354901
0.375369
0.306749
0.345922
0.269214
0.293103
0.336283
0.372962
0.393502
0.314019
0.252126
0.321354
0.277551
0.326041
0.353278
0.375102
0.302041
1.06122
1.09458
1.48177
1.12541
1.33255
1.40184
1.50246
0.587886
0.516913
0.526694
0.619899
0.633729
0.554171
0.664328
1.3991
0.876765
1.04816
1.60748
1.70376
1.15858
1.47515
0.401646
0.454229
0.354976
0.391953
0.530444
0.442722
0.48522
0.439442
0.379634
0.343452
0.384685
0.509876
0.424648
0.476431
1.1756
1.07598
1.10475
0.88979
1.13588
1.34734
1.24124
1.60902
0.260374
0.341721
0.28666
0.332719
0.371621
0.394021
0.308313
0.380053
0.444294
0.343031
0.385561
0.517338
0.427257
0.483052
0.612188
0.531144
0.542749
0.642401
0.659651
0.569617
0.689105
0.811596
0.899215
0.806395
0.736294
0.814402
0.894444
0.988351
0.403071
0.460655
0.353923
0.39319
0.542159
0.448041
0.493141
0.383
0.426225
0.415352
0.50044
0.433592
0.444556
0.362585
0.712571
0.673604
0.752343
0.821661
0.730343
0.768628
0.869231
0.65107
0.573893
0.54468
0.614281
0.582574
0.695216
0.729359
0.566429
0.732259
0.681214
0.641106
0.594767
0.711706
0.764666
0.557703
0.701865
0.6719
0.628853
0.597797
0.719061
0.751571
0.432211
0.568177
0.538935
0.556085
0.47689
0.487895
0.518582
0.383171
0.430605
0.418002
0.510937
0.450091
0.4375
0.360981
0.706037
0.839301
0.742903
0.868427
0.765993
0.802718
0.913273
0.583497
0.763161
0.708944
0.662472
0.612565
0.739518
0.796897
0.885201
0.895902
0.824769
0.909991
0.999367
0.969339
1.07388
1.84881
1.6842
1.24178
1.83248
1.66284
1.67657
2.0111
0.436186
0.55251
0.583097
0.5676
0.497452
0.483664
0.528318
0.989248
0.971621
0.893112
1.18128
1.0653
0.978971
1.0868
1.22337
0.990556
1.09554
0.982992
0.889876
0.98996
1.09496
1.00561
0.909042
1.02473
1.13194
1.25478
1.00145
1.10834
0.849313
0.792088
0.751824
0.807151
0.968586
0.848056
0.917858
0.960099
0.93372
0.969266
1.03113
1.07475
1.02454
1.14329
0.675793
0.661018
0.625683
0.744473
0.843098
0.782105
0.80093
1.062
1.16659
0.972552
1.20688
1.09574
1.18803
1.3192
0.853809
0.89505
0.790121
0.827974
1.0213
0.892314
0.94258
0.81738
0.885088
0.780056
0.839698
1.00681
0.878178
0.959319
0.698728
0.679438
0.644105
0.772269
0.876126
0.833875
0.808906
0.897225
0.946773
0.829188
0.866268
1.07801
0.936332
0.992239
1.05141
1.26121
1.13758
1.32914
1.19183
1.27641
1.43221
1.00935
1.04721
0.946351
1.0926
1.02977
1.14873
1.22555
1.30527
1.20344
1.08111
1.34047
1.44736
1.30451
1.20272
1.20025
1.24632
1.10547
1.37255
1.47747
1.31819
1.21679
1.12952
1.14606
1.04347
1.15702
1.25357
1.27071
1.37548
1.39985
1.37635
1.55461
1.25729
1.39427
1.11127
1.23085
0.867116
1.07142
0.981733
1.04336
0.910535
0.933979
0.991308
0.999612
1.22455
1.10946
1.15371
1.0584
1.18193
1.29603
0.990252
1.17238
1.10154
1.13924
1.08086
1.21159
1.28193
1.06579
1.3178
1.19389
1.22443
1.12074
1.25992
1.3837
0.904767
1.02527
1.1276
1.08889
0.978306
0.946566
1.03928
1.25394
1.15658
1.28153
1.28123
1.5498
1.37529
1.43439
1.225
1.225
1.225
1.225
1.225
1.225
1.225
1.22503
1.225
1.225
1.225
1.225
1.225
1.225
1.23195
1.22501
1.225
1.225
1.225
1.225
1.225
2.73378
1.37349
1.22532
1.225
1.225
1.225
1.225
1.72745
2.64815
2.7221
1.23144
1.22501
1.225
1.225
0.699539
1.1963
2.03456
2.94613
1.2452
1.225
1.225
0.563075
0.98585
1.84757
2.95072
1.23344
1.225
0.529971
0.978931
1.99167
2.80441
1.22553
0.651297
1.48767
2.84015
1.22659
1.225
1.225
1.225
1.225
1.225
1.225
1.225
1.225
1.225
1.225
1.225
1.225
1.225
1.225
1.22506
1.225
1.225
1.225
1.225
1.225
1.225
2.27586
1.24664
1.22504
1.225
1.225
1.225
1.225
2.05465
2.83402
2.1168
1.22578
1.225
1.225
1.225
0.963326
1.43324
2.3307
2.8366
1.2275
1.225
1.225
0.792308
1.19166
2.09476
2.86073
1.22605
1.225
0.953933
1.1795
2.26819
2.31763
1.22507
0.891852
1.7474
1.93232
1.22502
1.225
1.225
1.225
1.225
1.225
1.225
1.225
1.225
1.225
1.225
1.225
1.225
1.225
1.225
1.225
1.225
1.225
1.225
1.225
1.225
1.225
1.24251
1.22512
1.225
1.225
1.225
1.225
1.225
2.86078
2.54074
1.23542
1.22501
1.225
1.225
1.225
1.71648
2.34616
2.92922
1.34201
1.22501
1.225
1.225
1.47502
1.86516
2.86353
1.36771
1.22501
1.225
1.52388
1.47624
2.91768
1.24316
1.225
1.62154
1.74733
1.22578
1.225
1.225
1.225
1.225
1.225
1.225
1.225
1.225
1.225
1.225
1.225
1.225
1.225
1.225
1.225
1.225
1.225
1.225
1.225
1.225
1.225
1.225
1.22501
1.225
1.225
1.225
1.225
1.225
1.225
1.41348
1.22672
1.22501
1.225
1.225
1.225
1.225
2.18123
2.7669
1.30263
1.22503
1.225
1.225
1.225
1.82808
2.0061
2.41265
1.5577
1.22504
1.225
1.225
1.5451
2.2079
2.55082
1.34633
1.22501
1.225
1.55472
1.95714
2.99277
1.225
1.225
1.225
1.225
1.225
1.225
1.225
1.225
1.225
1.225
1.225
1.225
1.225
1.225
1.225
1.225
1.225
1.225
1.225
1.225
1.225
1.225
1.225
1.225
1.225
1.225
1.225
1.225
1.225
1.225
1.22501
1.225
1.225
1.225
1.225
1.225
1.225
1.37257
1.2265
1.22501
1.225
1.225
1.225
1.225
2.63924
2.48183
1.24913
1.22502
1.225
1.225
1.225
1.52719
2.02741
2.3609
1.25667
1.22501
1.225
1.225
2.11777
2.65811
1.22501
1.225
1.225
1.225
1.225
1.225
1.225
1.225
1.225
1.225
1.225
1.225
1.225
1.225
1.225
1.225
1.225
1.225
1.225
1.225
1.225
1.225
1.225
1.225
1.225
1.225
1.225
1.225
1.225
1.225
1.225
1.225
1.225
1.225
1.225
1.225
1.225
1.225
1.22501
1.225
1.225
1.225
1.225
1.225
1.225
1.57849
1.22709
1.22501
1.225
1.225
1.225
1.225
1.97522
2.3838
2.14462
1.22501
1.225
1.225
1.225
2.53265
2.46051
1.50697
1.225
1.225
1.225
1.225
1.225
1.225
1.225
1.225
1.225
1.225
1.225
1.225
1.225
1.225
1.225
1.225
1.225
1.225
1.225
1.225
1.225
1.225
1.225
1.225
1.225
1.225
1.225
1.225
1.225
1.225
1.225
1.225
1.225
1.225
1.225
1.225
1.225
1.225
1.225
1.225
1.225
1.225
1.225
1.225
1.225
1.22501
1.225
1.225
1.225
1.225
1.225
1.225
1.30955
1.22561
1.225
1.225
1.225
1.225
1.225
2.40776
1.27279
1.22501
1.225
1.225
1.225
1.225
1.225
1.225
1.225
1.225
1.225
1.225
1.225
1.225
1.225
1.225
1.225
1.225
1.225
1.225
1.225
1.225
1.225
1.225
1.225
1.225
1.225
1.225
1.225
1.225
1.225
1.225
1.225
1.225
1.225
1.225
1.225
1.225
1.225
1.225
1.225
1.225
1.225
1.225
1.225
1.225
1.225
1.225
1.225
1.225
1.225
1.225
1.225
1.225
1.22501
1.225
1.225
1.225
1.225
1.225
1.225
1.225
1.225
1.225
1.225
1.225
1.225
1.225
1.225
1.225
1.225
1.225
1.225
1.225
1.225
1.225
1.225
1.225
1.225
1.225
1.225
1.225
1.225
1.225
1.225
1.225
1.225
1.225
1.225
1.225
1.225
1.225
1.225
1.225
1.225
1.225
1.225
1.225
1.225
1.225
1.225
1.225
1.225
1.225
1.225
1.225
1.225
1.225
1.225
1.225
1.225
1.225
1.225
1.225
1.225
1.225
1.225
1.225
1.225
1.225
1.225
1.225
1.225
1.225
1.225
1.225
1.225
1.225
1.225
1.225
1.225
1.225
1.225
1.225
1.225
1.225
1.225
1.225
1.225
1.225
1.225
1.225
1.225
1.225
1.225
1.225
1.225
1.225
1.225
1.225
1.225
1.225
1.225
1.225
1.225
1.225
1.225
1.225
1.225
1.225
1.225
1.225
1.225
1.225
1.225
1.225
1.225
1.225
1.225
1.225
1.225
1.225
1.225
1.225
1.225
1.225
1.225
1.225
1.225
1.225
1.225
1.225
1.225
1.225
1.225
1.225
1.225
1.225
1.225
1.225
1.225
0.84801
0.348231
0.5313
0.686597
0.952301
0.509242
0.647618
0.826167
0.370352
0.549427
0.645011
0.926036
0.504259
0.665519
0.779361
0.386356
0.545534
0.565328
0.95695
0.683293
1.06657
1.04125
0.38598
0.584618
0.840444
1.1658
0.5593
0.711703
0.349588
0.402928
0.407721
0.421339
0.425977
0.482109
0.466231
1.0517
0.61694
0.746875
1.24455
1.52335
0.980759
1.16341
0.719648
0.743365
1.02114
0.765847
1.156
1.47766
1.1021
0.369658
0.403334
0.422423
0.408971
0.428332
0.486355
0.469616
0.660235
1.25806
1.05798
0.785653
1.17207
1.22432
1.66435
0.419751
0.543071
0.547829
0.46504
0.469455
0.520664
0.592443
0.421095
0.547757
0.467061
0.555849
0.473615
0.526116
0.600763
0.406999
0.440751
0.459099
0.459318
0.477593
0.536114
0.519601
1.28374
0.684077
0.907441
1.50419
1.81002
1.17363
1.29161
1.2418
1.78252
1.61006
1.6103
1.88667
1.8216
2.75103
1.29535
1.74998
1.99648
1.70313
1.8297
1.93283
2.8358
1.55527
1.61879
1.09032
2.06957
2.52433
1.46138
1.70983
0.456428
0.584338
0.502788
0.604814
0.521972
0.575731
0.651665
0.408415
0.447205
0.466903
0.469435
0.489401
0.555256
0.537703
1.94338
1.40751
1.66539
2.5245
2.94033
1.663
1.94194
1.5858
0.609265
0.964621
1.09049
1.70244
0.716316
1.06595
0.462421
0.543875
0.478377
0.546176
0.609487
0.62185
0.532386
0.463819
0.545464
0.480245
0.551364
0.614117
0.626864
0.536829
0.463478
0.60267
0.515433
0.627493
0.538855
0.59937
0.680915
0.606962
0.645185
0.650889
0.761931
0.76912
0.693565
0.815325
1.67555
0.641345
1.09963
1.08095
1.795
0.686076
1.20799
0.473372
0.563472
0.489304
0.552505
0.624834
0.637283
0.53868
0.735093
0.653243
0.664251
0.773891
0.788794
0.705575
0.83208
1.78576
0.666482
1.01746
1.317
1.91545
0.715053
1.12453
0.479476
0.578264
0.496498
0.562173
0.642161
0.655569
0.547267
0.578525
0.588834
0.517076
0.580686
0.71573
0.653337
0.646977
0.598129
0.600066
0.527745
0.587017
0.732132
0.668941
0.653634
0.499571
0.579689
0.51591
0.601628
0.66481
0.67779
0.586974
0.666241
0.545221
0.561809
0.629991
0.736275
0.749829
0.615179
1.6204
0.78797
0.838822
1.16885
2.10692
1.2813
2.2739
0.615305
0.613123
0.537027
0.59826
0.755879
0.689224
0.667891
0.580415
0.592828
0.519457
0.586778
0.722778
0.659044
0.655071
0.78946
0.695179
0.719208
0.825402
0.855264
0.761291
0.897106
0.629228
0.614725
0.554775
0.637422
0.776442
0.71054
0.707607
0.512698
0.599998
0.530095
0.628387
0.698499
0.712534
0.612801
2.41093
0.868636
1.28789
1.89101
2.57445
1.00991
1.41592
0.571249
0.715662
0.588921
0.66565
0.79483
0.809674
0.649757
1.2063
1.31373
1.66868
1.41433
1.68229
2.49864
1.59906
0.704569
0.680079
0.602448
0.666941
0.856218
0.785141
0.739207
0.638328
0.652516
0.572936
0.668229
0.820719
0.748956
0.744133
0.825308
0.722216
0.750776
0.863631
0.898742
0.798811
0.945634
1.81143
0.812321
1.16352
1.66491
2.32857
1.24422
1.62593
0.835769
1.01342
1.0239
0.885491
0.894331
0.947782
1.08658
1.90758
0.979245
1.31347
1.64495
2.46458
1.2986
1.8007
1.7195
1.35558
1.32284
1.9091
2.61011
1.58264
1.58994
0.856879
1.03378
0.90157
1.0575
0.920838
0.969949
1.1145
0.68961
0.8676
0.810703
0.811215
0.745233
0.8695
0.936505
0.702345
0.893548
0.826017
0.829078
0.752585
0.878028
0.956617
1.37706
1.11251
1.23217
1.2589
1.3964
1.40039
1.55594
1.18414
1.22393
1.18003
1.28196
1.32782
1.32351
1.43372
2.04006
1.02685
1.22844
1.95759
2.65914
1.36652
1.71001
0.7206
0.926988
0.851097
0.85767
0.770882
0.901595
0.991181
1.41817
1.72068
1.84349
1.39262
1.86988
1.78678
2.85409
0.637909
0.735369
0.71675
0.859408
0.747503
0.728603
0.624838
0.626847
0.70577
0.715114
0.837103
0.71719
0.726554
0.614513
0.758464
0.717592
0.634111
0.707052
0.929644
0.849922
0.785884
0.695564
0.872251
0.819076
0.82007
0.755902
0.883481
0.947548
0.621764
0.706256
0.702874
0.71789
0.714354
0.830588
0.819542
0.923152
1.1075
0.96428
1.15123
1.00106
1.04744
1.20527
0.735855
0.916556
0.866761
0.877713
0.812639
0.947602
1.01132
1.16647
1.28952
1.43088
1.3379
1.48618
1.47256
1.63388
0.654023
0.731888
0.743472
0.757154
0.768975
0.88009
0.868916
0.793158
1.03723
0.934526
0.965182
0.847639
0.987435
1.10837
2.35849
1.17676
1.54306
1.39025
2.42772
1.89001
2.86901
2.03953
1.45013
1.67221
2.72694
2.95654
1.88995
2.08954
0.670713
0.889067
0.84266
0.821422
0.778679
0.759045
0.735726
0.658323
0.865568
0.806975
0.816955
0.746631
0.756107
0.720855
0.709281
0.836893
0.79177
0.968719
0.803882
0.849338
0.696008
0.6535
0.808971
0.804361
0.747794
0.743908
0.85925
0.919923
0.680203
0.762722
0.775177
0.799329
0.812124
0.931537
0.919582
1.37106
1.54391
1.6481
1.45764
1.3715
1.23066
1.32048
0.960235
0.766638
0.820771
0.930106
0.857218
1.00232
1.0733
1.61542
1.49227
1.2868
1.43707
1.56711
1.66239
1.79829
0.75037
0.835181
0.773339
0.86273
0.799397
0.909144
0.971729
1.3678
1.53411
1.63565
1.44414
1.31211
1.22487
1.35982
1.01591
1.1235
0.972961
1.2279
1.05993
1.11019
1.28453
0.783903
0.873504
0.807382
0.914881
0.845791
0.963204
1.03107
1.18229
1.28082
1.44817
1.37002
1.21495
1.11893
1.25574
1.51103
1.69578
1.78796
1.48995
1.56728
1.33924
1.41897
0.743138
0.95051
0.999565
0.900725
0.835243
0.882062
0.811286
0.754478
0.907749
0.846616
1.05409
0.921423
0.859814
0.740053
1.00733
1.08035
0.942381
1.0093
1.24119
1.08242
1.15811
1.19193
0.960785
1.03793
1.01935
1.26817
1.10564
1.16992
1.30624
1.15944
1.07569
1.14708
1.29171
1.23305
1.39278
1.69203
1.44186
1.55391
1.28961
1.39516
1.41387
1.52527
1.79025
1.50112
1.68439
1.51856
1.62485
1.45431
1.34798
1.54706
1.51247
1.40157
1.36955
1.26512
1.40081
1.51185
2.70022
1.13752
1.53853
2.71988
2.88485
1.6967
2.09307
0.839324
1.12166
0.992571
1.05056
0.903581
1.055
1.20699
1.41624
1.29253
1.39769
1.57868
1.44598
1.55718
1.6948
2.24985
2.0579
1.67094
1.92572
2.80217
2.55466
1.65517
2.50693
1.75656
2.07801
2.04337
2.51727
2.81293
1.4768
0.9422
0.918452
0.834947
0.965017
1.18414
1.07469
1.04779
1.14391
1.08034
0.993991
1.04957
1.31896
1.14768
1.20759
1.01329
1.09406
0.953355
1.02728
1.25812
1.09614
1.18055
0.901072
0.911915
0.816684
0.942554
1.14864
1.02695
1.03896
1.45611
1.50211
1.34967
1.62807
1.52152
1.68659
1.79271
0.801819
0.89468
0.907485
0.968437
0.981653
1.1141
1.10142
0.938161
0.90418
0.898543
1.03126
1.02442
1.01523
1.14284
1.24555
1.20049
1.10839
1.17226
1.32245
1.26731
1.43429
1.52739
1.34715
1.23766
1.45321
1.28358
1.17788
1.32789
1.53129
1.54571
1.40226
1.36782
1.24709
1.38076
1.50895
1.72926
1.39078
1.55397
1.71075
1.5537
1.7297
1.9092
1.86932
2.07232
2.19933
2.87644
2.91856
2.30386
2.93577
1.65837
1.51772
1.41463
1.60972
1.71031
1.76102
1.86261
1.93043
2.41116
1.8935
2.2821
2.16502
2.27119
1.27708
0.79276
1.08963
1.03714
0.968487
0.959219
0.895395
0.868212
1.16168
1.06534
1.01065
1.10192
1.34058
1.16857
1.26714
0.849114
0.931796
0.961743
1.06103
1.09409
1.07047
1.2024
2.88108
1.1847
1.86026
2.1856
2.92131
1.29409
1.99009
0.828816
0.997019
0.840007
0.978539
1.15401
1.16556
0.967503
2.85394
1.14704
1.92191
1.97561
2.90812
1.25279
2.05537
0.842397
0.989872
0.853395
1.01645
1.17136
1.18286
1.00541
2.19657
2.93458
2.06479
2.9501
2.05027
2.31969
2.92833
2.80179
1.7559
2.05414
2.23447
1.29624
2.3668
2.54719
2.38925
2.51913
1.6741
1.85526
1.25368
2.47991
2.23977
1.42812
1.79336
1.58697
1.74782
1.57281
1.75124
1.95236
1.58434
1.57376
1.42727
1.75173
1.61236
1.79149
1.95258
1.3792
1.67705
1.49197
1.66915
1.48616
1.60385
1.79763
1.30196
1.57765
1.41062
1.62586
1.45443
1.56996
1.75386
0.818831
0.97553
0.829782
0.971835
1.13654
1.14796
0.960878
0.913487
1.01414
0.941922
1.09454
1.01799
1.14829
1.22263
1.34627
1.47719
1.25682
1.19662
1.3077
1.37113
1.55145
1.05709
1.003
0.915924
1.05389
1.31162
1.13934
1.19826
1.22863
1.06379
1.11996
1.16934
1.42646
1.24173
1.3495
1.56291
1.7932
1.69386
1.89051
1.79105
1.93247
2.03934
0.878123
1.02884
0.889777
1.07453
1.23148
1.24352
1.06285
0.883731
0.987774
1.00194
1.09321
1.10772
1.25154
1.23751
0.888999
0.97634
1.02209
1.11291
1.16373
1.13768
1.27837
2.93287
1.33877
2.38971
2.13254
2.91056
1.45102
2.55742
1.35316
1.47218
1.66637
1.6475
1.45561
1.57423
1.7876
2.37404
2.36782
2.47739
2.76817
2.99367
2.94322
1.53403
1.38576
1.09222
1.20524
1.1482
1.46184
1.27722
1.3207
1.66923
1.53557
1.74421
1.93628
1.86899
1.8535
2.08402
1.53563
1.73783
1.8592
1.85565
1.70819
1.93834
2.08228
1.02628
0.930811
0.869083
1.00735
1.26164
1.19538
1.07025
1.00398
0.918464
0.858238
1.00037
1.24211
1.17731
1.06247
0.906785
1.11127
0.918213
1.05669
1.2669
1.27901
1.04542
1.01842
0.943346
0.882059
1.04525
1.27793
1.21234
1.1088
1.14123
1.01239
0.947953
1.08592
1.37648
1.30905
1.15085
0.925715
1.12496
1.04193
1.2369
1.14936
1.29146
1.37756
1.70174
1.5913
1.63804
1.86321
1.75336
1.54585
1.41032
2.88997
1.46749
2.14736
2.75562
2.79309
1.59356
2.31519
0.973219
1.2089
0.98555
1.13419
1.37202
1.38503
1.12212
2.44324
2.99231
2.97477
2.07361
1.28654
2.83848
2.91562
1.71281
1.93741
2.04918
2.1733
1.90879
2.04296
2.31507
1.15659
1.08129
0.98292
1.13242
1.43554
1.31087
1.22898
1.05867
0.985444
0.920238
1.1052
1.34299
1.27419
1.17313
1.51842
1.33852
1.27962
1.40355
1.59594
1.468
1.66926
2.60262
1.41493
1.82205
2.81882
2.87836
1.81467
2.7499
1.894
1.84232
2.73012
2.01389
2.78164
2.78228
2.93517
1.11701
1.34352
1.40984
1.37491
1.23311
1.2024
1.283
1.08929
1.30286
1.34537
1.36077
1.17751
1.19107
1.24909
1.24266
1.09048
1.01893
1.16615
1.49096
1.41786
1.23687
1.02099
1.18097
1.03316
1.26724
1.42748
1.4407
1.25456
1.22575
1.48599
1.38407
1.41107
1.31601
1.48841
1.59668
1.25142
1.35534
1.53379
1.44187
1.32981
1.50445
1.63107
1.08471
1.35251
1.34269
1.18313
1.17492
1.29707
1.47182
1.24275
1.49709
1.4052
1.43148
1.34336
1.52138
1.62054
1.73988
1.53167
1.40066
1.69252
1.49262
1.62419
1.84967
1.02765
1.12599
1.21228
1.27259
1.36444
1.33801
1.48693
0.144607
0.295525
0.466049
0.57631
0.788525
1.02271
1.11339
0.250214
0.0750947
0.143942
0.354097
0.43877
0.254768
0.343531
0.0966326
0.0940731
0.117967
0.0948046
0.118727
0.14287
0.117134
0.547952
0.350735
0.444277
0.722826
0.862046
0.530233
0.671968
0.160179
0.28465
0.186243
0.287953
0.187707
0.214722
0.317143
0.962652
0.56924
0.729824
1.01093
1.31736
0.704517
0.91937
0.461598
0.175191
0.297942
0.469688
0.588951
0.372872
0.466543
0.116965
0.170577
0.142664
0.170341
0.174398
0.201183
0.143585
0.117797
0.171493
0.143534
0.170613
0.174838
0.202
0.143787
0.245953
0.321035
0.216199
0.244176
0.381899
0.27528
0.349492
0.242191
0.314175
0.213597
0.242925
0.374549
0.272529
0.345954
0.429131
0.382392
0.389201
0.46426
0.474019
0.419551
0.507588
0.485008
0.575709
0.525574
0.589638
0.537767
0.577537
0.636751
0.201208
0.209962
0.209446
0.275242
0.236449
0.235634
0.174227
0.20176
0.209883
0.211046
0.235783
0.236685
0.274728
0.250338
0.60953
0.618392
0.63357
0.662046
0.678561
0.687196
0.737575
0.690282
0.474852
0.676658
0.91048
1.08278
0.775475
0.890087
0.413402
0.533217
0.498643
0.478998
0.449527
0.540907
0.574194
0.427624
0.565411
0.519344
0.494053
0.456829
0.551741
0.596818
0.273527
0.339858
0.409865
0.405919
0.306371
0.304642
0.377687
0.272242
0.403356
0.402461
0.303879
0.304015
0.33763
0.43311
1.4733
0.766673
1.00322
1.2898
1.87066
1.01561
1.32055
0.653511
0.766138
0.710471
0.787642
0.728998
0.793672
0.858746
0.249692
0.318659
0.274369
0.317804
0.345671
0.366755
0.294976
0.648542
0.65425
0.592511
0.63092
0.769108
0.68581
0.7016
0.60651
0.623022
0.565906
0.616659
0.732607
0.656175
0.684383
0.25189
0.320479
0.276059
0.318492
0.346443
0.367364
0.295836
0.521213
0.513238
0.485474
0.584014
0.657526
0.627591
0.615558
0.568017
0.507665
0.504991
0.607041
0.602895
0.536505
0.640071
1.22891
0.938964
1.11276
1.43024
1.78326
1.12552
1.25023
0.67196
0.786649
0.720873
0.803463
0.744034
0.802522
0.873203
0.376591
0.435022
0.338107
0.374969
0.503984
0.417522
0.466374
0.376501
0.433156
0.338322
0.374971
0.501472
0.417039
0.465286
0.706831
0.853738
0.759598
0.84667
0.763801
0.824959
0.92379
0.249115
0.51223
0.742739
0.0746262
0.149169
0.347512
0.144716
0.254287
0.342514
0.435251
0.0955819
0.0954778
0.0944792
0.117966
0.118713
0.144045
0.118852
0.34131
0.450993
0.623733
0.441554
0.538413
0.665582
0.836274
0.156983
0.281793
0.280753
0.184438
0.184938
0.213317
0.312594
0.549734
0.802352
0.947569
0.706333
1.03021
1.00845
1.12535
0.120232
0.174938
0.145132
0.173276
0.18012
0.206081
0.147248
0.117869
0.17119
0.143295
0.172083
0.17641
0.20277
0.145808
0.416556
0.377546
0.374955
0.453853
0.457859
0.409681
0.493595
0.314474
0.245335
0.21436
0.243573
0.376848
0.27559
0.344509
0.311882
0.242032
0.212845
0.242484
0.37271
0.272618
0.34287
0.469449
0.565493
0.559957
0.51228
0.517275
0.559332
0.614577
0.204167
0.215082
0.212756
0.278276
0.23818
0.240341
0.178011
0.588503
0.606936
0.601152
0.643446
0.649431
0.662154
0.709894
0.413927
0.543253
0.499974
0.480839
0.445033
0.534583
0.576751
0.408156
0.529299
0.491187
0.473678
0.441797
0.529739
0.566251
0.273711
0.405877
0.340205
0.403297
0.305019
0.306983
0.374042
0.678176
0.749697
0.689893
0.696209
0.630221
0.762556
0.822614
0.686304
0.567376
0.61943
0.608269
0.735193
0.659252
0.673207
0.61122
0.601381
0.556284
0.601981
0.719606
0.645795
0.666003
0.509757
0.505675
0.475721
0.569279
0.642251
0.603752
0.609626
0.720276
0.671968
0.744882
0.805196
0.730404
0.786623
0.873915
0.778287
0.722375
0.658684
0.787787
0.722585
0.778296
0.854908
0.833438
0.847307
0.859028
0.921326
0.952373
0.936873
1.03839
1.03212
0.937931
0.865221
0.835179
0.773767
0.847846
0.918074
0.926621
0.908467
0.839032
0.81861
0.758861
0.838848
0.908039
0.669061
0.761251
0.815075
0.795773
0.723432
0.707719
0.748446
0.925883
0.888396
0.818831
0.892099
1.10461
1.00734
0.970485
0.848455
0.837105
0.774999
0.866356
1.03349
0.947838
0.940161
0.366095
0.400759
0.400721
0.477738
0.419517
0.419217
0.345197
0.722691
0.691203
0.648112
0.782185
0.696646
0.73827
0.833934
0.776383
0.784901
0.740696
0.692216
0.699598
0.649696
0.724016
0.540759
0.688434
0.646642
0.608726
0.570297
0.679419
0.723374
0.638514
0.535658
0.568934
0.603648
0.567763
0.675371
0.715472
0.416263
0.516618
0.54304
0.541523
0.463682
0.463128
0.50141
0.904449
0.881412
0.822149
0.89486
1.06833
0.995682
0.968125
0.859502
0.856951
0.791628
0.865159
0.948858
0.92936
1.02846
0.939484
0.931535
0.857722
0.950323
0.867413
0.792535
0.859907
1.11013
0.911284
1.00779
1.13437
1.02771
1.13899
1.25747
0.933235
1.10211
1.01377
1.14042
1.04914
1.14195
1.23832
0.972616
1.24219
1.08186
1.22034
1.06411
1.18263
1.35905
0.830891
0.783611
0.73603
0.782199
0.947927
0.830626
0.888659
1.02629
1.01498
0.932066
1.13975
1.0381
1.1357
1.25788
1.25827
1.13683
1.02648
1.03866
1.13928
0.931959
1.0143
0.973023
1.18417
1.20762
1.16728
1.09418
1.06101
1.06332
0.646416
0.64373
0.604277
0.716764
0.81198
0.764408
0.760413
0.799773
0.844618
0.746978
0.787761
0.961706
0.841464
0.895654
1.02378
0.998184
0.925629
1.06883
0.996788
1.11149
1.19866
0.942029
1.14222
1.04368
1.08572
1.00515
1.12161
1.21892
1.34126
1.29208
1.17012
1.29957
1.63776
1.49132
1.43446
1.19104
1.46454
1.36237
1.29761
1.58399
1.4822
1.39922
1.20304
1.108
1.21895
1.25003
1.48123
1.37596
1.35148
0.832588
0.944229
1.01838
1.01165
0.88919
0.883833
0.950582
1.3848
1.23935
1.1297
1.2383
1.51421
1.34458
1.38407
1.27566
1.28059
1.15422
1.25076
1.5444
1.3691
1.39958
1.15358
1.14518
1.07229
1.203
1.38828
1.30025
1.28973
1.42003
1.76792
1.71861
1.66399
1.61718
1.55983
1.52365
1.3501
1.56964
1.66097
1.64568
1.46632
1.45363
1.52127
1.8034
1.5834
1.88437
1.98797
1.73461
1.64828
1.49956
2.94496
1.35448
2.18138
2.68507
2.68397
1.821
2.76833
1.76322
2.20225
2.8516
1.91476
2.97058
2.49507
2.87419
1.60877
1.41855
1.30221
1.50168
1.37528
1.55861
1.70108
1.30514
1.35145
1.16621
1.2301
1.58882
1.38928
1.41962
1.01312
1.29307
1.14002
1.3435
1.16018
1.28988
1.47575
1.13186
1.38892
1.21596
1.42996
1.25285
1.36159
1.54121
1.5763
1.49385
1.32083
1.52339
1.44159
1.63203
1.72292
2.94478
1.39996
2.11154
2.85934
2.52852
1.88034
2.70757
1.02777
1.3252
1.15732
1.3654
1.16924
1.30038
1.50026
1.03988
1.31014
1.16913
1.38071
1.20914
1.34177
1.51439
1.97741
1.67573
1.86697
1.86805
2.197
2.06479
1.97876
1.13593
1.21208
1.06554
1.29989
1.54416
1.47282
1.37219
1.12758
1.30111
1.14105
1.41551
1.58522
1.59952
1.40162
1.82179
1.60223
1.5174
1.67234
1.90871
1.75904
2.01368
1.55521
1.72728
1.83321
1.71035
1.89657
1.85113
2.0387
1.70944
1.89435
2.03686
1.72437
1.84882
1.55353
1.66963
1.50242
1.84632
1.65185
1.81392
2.04589
1.84606
1.6514
1.50165
1.20162
1.21489
1.37256
1.66842
1.68301
1.35925
2.86259
1.83314
1.98673
2.57385
2.45293
2.70275
2.04471
1.21664
1.55318
1.47811
1.48448
1.30272
1.36661
1.39475
1.71721
2.04508
1.93307
1.88993
2.25086
2.11296
2.00074
1.88663
1.71274
1.8165
1.92746
2.24465
2.10917
2.03767
1.76173
1.81572
1.9769
1.73617
2.13208
1.94851
1.88846
1.86555
1.66765
1.53201
1.70009
2.09471
1.85091
1.90612
1.53877
1.32939
1.25094
1.40712
1.80247
1.72051
1.48343
1.08799
1.36502
1.22414
1.45114
1.28031
1.42048
1.59097
1.1889
1.45783
1.27605
1.51956
1.33233
1.44587
1.6332
1.30093
1.25138
1.37003
1.41223
1.538
1.50942
1.67606
1.88432
1.61323
1.73186
1.8081
1.96933
1.94237
2.12578
1.15848
1.34911
1.36158
1.36865
1.38116
1.60932
1.5955
2.87756
1.55954
2.68485
2.82328
1.96116
2.0639
2.91226
1.33705
1.26004
1.17889
1.45404
1.72141
1.63773
1.5385
1.11406
1.45176
1.24948
1.48251
1.25347
1.3887
1.62007
1.47329
1.59181
1.40216
1.62326
1.54011
1.7499
1.84132
1.19642
1.38124
1.39391
1.4258
1.43874
1.65931
1.64518
2.09334
1.86468
1.69767
1.90459
1.70865
1.53006
1.66625
2.66812
1.71544
2.47005
2.81892
1.47466
2.2976
2.89736
1.20227
1.58283
1.3483
1.60618
1.34811
1.49249
1.75545
1.43194
1.57576
1.786
1.65774
1.50243
1.70146
1.87693
2.30025
2.84264
2.6534
2.11708
2.91322
2.96285
1.64499
1.79433
1.92523
1.98386
2.16423
2.23678
2.11849
2.4127
1.93056
2.07818
2.19961
1.99059
2.40785
2.25461
2.10386
2.11478
1.99853
1.83918
2.08843
2.42113
2.26206
2.21441
1.15005
1.35467
1.34456
1.59963
1.3672
1.35701
1.13859
1.22283
1.40493
1.45889
1.68977
1.41764
1.47194
1.2111
1.72153
1.92006
1.89101
2.09475
2.11876
2.03714
2.3037
1.60556
1.75282
1.94108
1.77117
2.08403
2.10928
2.30678
1.18782
1.45964
1.39218
1.47949
1.41179
1.64162
1.71167
1.30778
1.61215
1.68924
1.59607
1.49064
1.40327
1.49997
1.71971
2.03348
1.8679
1.92004
2.30186
2.11728
2.09427
1.80087
2.13058
1.99528
2.00687
2.41939
2.16701
2.24132
1.8263
1.82019
1.62561
1.75162
2.25395
1.97474
1.97199
1.17956
1.63207
1.46637
1.45534
1.39809
1.3877
1.24483
1.30642
1.56766
1.48806
1.80092
1.58164
1.50144
1.29395
1.35192
1.63713
1.44581
1.73869
1.542
1.66108
1.8578
1.2461
1.5321
1.39021
1.65674
1.48547
1.63201
1.80347
1.98544
1.64823
1.72739
2.11143
1.82275
1.90827
2.21993
1.22662
1.49422
1.42508
1.54027
1.47023
1.69274
1.76548
1.89262
1.99812
1.88405
2.03647
2.16313
2.16088
2.35075
1.81007
1.87141
1.9869
2.03502
2.15889
2.23479
2.38561
1.35141
1.53051
1.54413
1.62062
1.63487
1.85307
1.83759
1.69684
2.17487
2.77214
2.5197
1.40194
2.37167
2.83257
1.37808
1.74261
1.39245
1.55968
1.92105
1.93854
1.54521
2.064
2.16902
2.30292
2.18356
2.64863
2.47316
2.33822
2.36135
2.16932
2.05129
2.20707
2.70606
2.54018
2.34967
1.25249
1.72301
1.51646
1.57169
1.44837
1.50292
1.31891
1.52698
1.54416
1.42004
1.60661
1.87927
1.72528
1.74413
1.91595
1.77623
1.5641
1.68482
2.06751
1.80868
1.91845
1.81665
1.73726
1.98197
1.70333
2.1178
1.84838
1.9405
1.60038
1.56126
1.46039
1.65375
1.93857
1.80885
1.76462
1.8079
1.69584
1.93301
1.72468
2.10607
1.83759
1.96912
1.60139
1.53577
1.52421
1.72247
1.66289
1.73575
1.87336
2.79601
1.92945
2.37149
2.17545
1.28756
2.93748
2.95902
1.54627
1.96072
1.76188
1.80529
1.62032
1.84421
2.06208
2.18674
2.08007
2.19097
2.34511
2.4833
2.32782
2.6626
1.33789
1.83713
1.68885
1.60485
1.61503
1.53352
1.40837
1.78867
1.5259
1.43442
1.60128
2.1011
1.99006
1.6924
1.48468
1.49044
1.3136
1.45763
1.83836
1.65879
1.63594
1.44886
1.46753
1.2935
1.44578
1.80917
1.63198
1.62296
1.67223
2.10309
1.82871
1.76875
2.23751
1.93479
2.02508
1.38217
1.64578
1.57577
1.74081
1.66808
1.88955
1.96792
1.45041
1.91167
1.60506
1.93237
1.60251
1.75601
2.10689
2.80996
2.13803
2.74686
2.7949
1.74013
2.8778
1.24535
1.6697
1.5753
1.62027
1.77857
1.73704
1.82889
1.95673
1.467
1.5022
1.32537
1.50048
1.85076
1.67187
1.68001
1.52723
1.57075
1.38732
1.58584
1.94247
1.75477
1.77206
2.04417
1.92815
1.69108
1.85282
2.26509
1.95819
2.12981
1.38462
1.69532
1.5429
1.85299
1.66932
1.83631
2.02584
1.48948
1.80402
1.59754
1.95018
1.73092
1.86875
2.09456
1.48113
1.66654
1.68122
1.78912
1.80448
2.03752
2.01998
1.48705
1.56413
1.58446
1.69838
1.71941
1.82018
1.96106
1.55575
1.65343
1.72127
1.8697
1.83901
1.94919
2.08188
1.5495
1.87083
1.73231
2.12502
1.74724
1.88667
1.53562
1.61551
1.59503
1.41218
1.54971
1.96954
1.78221
1.73153
1.75406
1.6795
1.58362
1.79137
2.11663
1.89656
1.98423
1.53706
1.60173
1.64977
1.73987
1.79097
1.8792
2.02783
1.88653
2.09684
2.2724
2.34887
2.09815
2.27346
2.53258
2.59082
2.8287
1.43471
2.79908
1.30903
1.22524
1.27796
2.29762
1.92098
2.06835
2.40125
2.16356
2.35125
2.56601
1.58381
2.01531
2.1731
1.86082
1.78311
1.92719
1.65939
1.57226
1.56013
1.34698
1.48011
1.95281
1.70826
1.69476
1.62245
1.67929
1.42318
1.55852
2.05524
1.759
1.81865
1.75745
1.71198
1.52025
1.66172
2.14144
1.93189
1.85313
2.20714
1.90581
1.81248
2.00323
2.49119
2.11275
2.34393
1.51618
1.79545
1.71713
1.93086
1.84429
2.08401
2.18245
1.41897
2.15985
2.95243
2.90195
1.28637
2.31768
2.92465
1.58278
1.86287
1.59656
1.86802
2.15534
2.17214
1.85271
2.30451
2.48329
2.47766
2.64318
2.82643
2.62166
2.93871
2.07532
2.46396
2.49236
2.28737
2.31398
2.554
2.74866
2.65168
1.34014
2.8242
1.2424
1.22514
2.46628
1.29686
2.47659
2.41882
1.28514
1.23215
1.22506
1.87278
1.23658
1.89998
2.37045
2.4298
2.36672
2.15772
2.08131
2.15933
1.74752
2.15083
1.94396
2.42699
2.1696
1.96081
1.73246
1.80576
1.71713
1.51937
1.66292
2.20917
1.95914
1.8631
2.124
2.0441
2.39401
1.9372
2.54398
2.15483
2.24378
1.75066
1.69928
1.56032
1.80448
2.19069
1.97855
2.00467
1.82311
2.01165
2.29182
2.31747
2.03409
2.26387
2.49346
2.17096
2.40775
2.35719
2.12196
2.07232
2.30096
2.57049
1.60577
1.8757
1.61971
1.90944
2.18793
2.20528
1.89389
2.24944
2.43892
2.22354
2.57718
2.36278
2.52813
2.64033
1.70058
1.75605
1.85591
1.90015
2.00807
2.09287
2.2638
2.26257
2.49308
2.29155
2.03229
2.31651
2.05731
1.82214
1.32725
2.28864
2.88839
2.91493
1.25793
2.46175