/*--------------------------------*- C++ -*----------------------------------*\
  =========                 |
  \\      /  F ield         | OpenFOAM: The Open Source CFD Toolbox
   \\    /   O peration     | Website:  https://openfoam.org
    \\  /    A nd           | Version:  9
     \\/     M anipulation  |
\*---------------------------------------------------------------------------*/
FoamFile
{
    format      ascii;
    class       volScalarField;
    location    "0.00015";
    object      alpha.c4;
}
// * * * * * * * * * * * * * * * * * * * * * * * * * * * * * * * * * * * * * //

dimensions      [0 0 0 0 0 0 0];

internalField   nonuniform List<scalar> 
4077
(
3.90234e-47
2.56165e-44
2.24795e-49
5.561e-49
3.10359e-49
1.47956e-46
2.64632e-46
3.79612e-47
2.1612e-46
8.17267e-42
2.26536e-39
5.01823e-44
8.87602e-44
4.72441e-44
7.39807e-44
1.56758e-41
1.56586e-41
2.45802e-41
2.50004e-41
2.05838e-39
2.59672e-39
5.78741e-53
4.82114e-50
5.31508e-54
3.54155e-51
6.08012e-58
6.47289e-60
5.23113e-59
5.18629e-61
3.98528e-53
1.06415e-54
2.33279e-54
1.32529e-50
1.838e-55
4.22183e-54
8.78318e-52
8.90741e-50
3.59767e-51
3.60319e-51
3.54693e-51
7.66305e-60
6.50144e-60
2.40756e-59
5.39496e-62
2.65845e-59
5.6422e-62
7.22665e-60
7.63482e-61
2.31088e-60
5.4423e-63
4.9663e-61
8.78595e-61
1.90498e-60
4.57403e-63
2.74689e-51
5.00521e-52
4.97875e-52
2.24833e-49
1.13394e-48
1.23424e-48
3.31103e-49
2.51335e-53
3.99302e-53
2.5162e-53
1.10744e-55
2.97268e-55
9.2646e-56
3.305e-55
1.87588e-50
1.3262e-50
1.87851e-50
1.02206e-60
1.10366e-60
6.56793e-62
3.75858e-59
3.76034e-59
1.03051e-60
4.15395e-59
4.00733e-59
1.10073e-60
2.05986e-60
5.58646e-64
1.39844e-62
4.12597e-61
7.20556e-61
1.27645e-62
1.19295e-61
1.74883e-63
5.96795e-64
1.59783e-62
4.45864e-61
7.81252e-61
1.85572e-63
1.4649e-62
1.29391e-61
8.10571e-65
1.01765e-63
2.2043e-62
4.86041e-62
1.00291e-64
7.23006e-64
2.06586e-62
5.57179e-64
7.26957e-61
1.39964e-62
4.12336e-61
1.27161e-62
1.1918e-61
1.74694e-63
5.68691e-64
8.74915e-61
1.27788e-62
4.29787e-61
1.20905e-62
1.25081e-61
1.77003e-63
1.37075e-56
5.31289e-54
5.20482e-54
5.209e-54
3.02922e-56
2.10509e-56
2.17203e-56
2.95245e-56
4.42191e-46
3.89934e-48
4.47593e-46
4.42568e-46
4.47979e-46
3.9384e-46
3.87253e-44
5.85183e-48
3.90036e-48
5.85866e-48
1.28612e-48
1.15003e-46
3.8896e-44
1.30191e-48
1.28718e-48
1.30301e-48
1.16758e-46
4.03501e-46
3.15945e-55
7.5831e-52
2.1337e-52
2.20448e-52
7.69042e-52
2.72424e-54
3.61201e-55
1.304e-43
1.27841e-45
1.32609e-43
1.30521e-43
1.32737e-43
1.19539e-43
8.94178e-42
1.90706e-45
1.27868e-45
1.90928e-45
9.40992e-42
1.32232e-43
8.04782e-55
7.19397e-61
2.03561e-60
5.08346e-59
1.44221e-58
1.17392e-58
1.02616e-58
5.55385e-61
3.88264e-59
1.34827e-58
1.77385e-63
3.51003e-63
4.83288e-61
7.76531e-61
3.99017e-63
4.85173e-61
1.75019e-63
4.07186e-63
2.08756e-60
1.0823e-62
1.11953e-60
1.12214e-62
1.11974e-60
4.06723e-63
1.31614e-63
2.77038e-63
3.67679e-61
5.45875e-61
1.33634e-63
2.7176e-63
3.65943e-61
2.01585e-61
1.06403e-56
1.59201e-61
8.79558e-57
1.19483e-62
4.24583e-58
6.208e-60
1.12803e-57
2.2364e-54
1.16757e-65
1.87023e-65
1.8068e-63
2.32482e-63
6.46881e-64
1.56431e-61
1.25786e-63
4.96311e-62
5.41566e-59
2.58044e-61
1.70828e-59
9.25566e-66
1.70767e-65
1.42137e-63
2.13319e-63
2.03957e-60
5.19462e-64
1.28077e-61
1.14438e-63
4.03942e-62
4.45447e-59
2.36651e-61
1.09669e-58
1.39768e-59
6.81417e-59
6.42394e-67
2.55549e-65
1.06226e-64
1.12477e-61
3.94519e-64
3.22579e-65
5.29973e-63
1.06055e-63
1.73199e-63
4.16964e-60
1.9899e-60
6.17526e-60
2.5673e-62
6.28313e-61
1.95337e-60
5.23366e-63
4.59352e-58
5.8108e-62
3.71027e-57
5.44309e-61
4.39654e-62
3.32886e-58
1.13021e-59
7.24408e-60
1.24764e-59
3.77307e-57
1.1193e-57
2.64895e-57
1.88247e-49
2.59435e-46
1.03158e-51
1.36395e-55
7.60467e-49
4.38331e-51
1.06005e-54
1.14052e-49
1.81274e-68
5.79414e-68
5.50943e-66
7.42457e-66
3.16797e-68
5.53134e-66
1.80359e-68
3.50197e-68
1.86914e-65
8.73811e-68
1.07347e-65
8.71027e-68
1.07374e-65
3.4989e-68
1.91141e-65
6.19915e-66
3.55524e-63
5.28596e-64
2.00066e-66
3.55753e-63
1.96391e-65
3.61015e-65
2.32264e-63
8.08493e-66
6.37468e-63
8.05062e-66
6.37754e-63
3.62069e-65
1.45082e-68
4.58137e-68
4.4292e-66
6.18395e-66
1.45723e-68
2.72412e-68
4.43173e-66
3.19102e-68
1.70912e-65
8.0517e-68
9.76623e-66
7.99562e-68
9.77576e-66
3.18097e-68
1.46647e-65
4.86361e-66
2.7443e-63
4.76762e-64
1.49147e-65
1.82723e-66
2.72271e-63
2.06727e-65
2.13358e-63
7.32819e-66
3.74605e-63
7.34416e-66
4.03887e-63
1.85961e-65
1.94774e-63
2.22327e-60
1.1137e-62
4.42801e-61
1.24658e-62
5.22872e-61
1.6503e-63
9.60833e-70
3.63906e-69
2.82637e-67
6.07717e-67
1.06358e-69
2.96188e-69
2.83035e-67
3.26682e-68
9.9728e-66
2.67973e-67
2.36203e-65
3.79582e-68
9.42756e-66
1.95976e-67
1.20626e-66
3.89862e-67
2.40486e-64
1.00834e-64
1.34344e-66
3.27613e-67
2.26358e-64
1.25594e-64
7.12629e-64
3.83407e-62
5.73085e-62
1.41999e-64
2.66422e-64
3.70954e-62
6.97882e-67
1.70949e-64
3.76298e-66
4.24733e-64
5.55179e-67
1.99194e-64
6.82775e-66
9.01183e-63
6.16844e-65
5.01887e-63
1.96063e-62
4.30608e-65
1.42427e-62
1.78057e-62
3.04323e-60
4.74439e-60
1.38435e-57
3.95636e-58
4.54978e-60
4.37136e-60
9.87293e-58
5.71093e-61
8.79815e-64
6.00542e-62
2.00796e-61
1.89564e-63
2.33102e-61
3.0551e-61
1.86239e-58
4.64413e-59
2.46167e-56
1.18876e-56
7.72429e-59
7.77544e-59
5.82527e-56
1.5688e-47
3.257e-47
5.21664e-50
2.73888e-48
1.0021e-47
3.93432e-47
2.35383e-48
6.58178e-51
2.79839e-52
3.09318e-53
2.15775e-50
2.3468e-53
1.68053e-50
7.17161e-51
8.17211e-56
5.41036e-57
6.83419e-55
1.32539e-54
6.57851e-52
4.01379e-52
6.50076e-53
4.0454e-55
1.21718e-55
3.82255e-53
3.10769e-55
7.40281e-53
3.6958e-53
3.00408e-51
7.59285e-54
3.45792e-54
3.00787e-52
1.75635e-53
1.56414e-51
9.93943e-52
9.56256e-65
1.0907e-59
7.79501e-65
8.97743e-60
3.10985e-66
3.99371e-61
1.60452e-62
2.64946e-60
3.0947e-69
8.15285e-67
2.74747e-67
2.71507e-67
5.23229e-62
3.2104e-65
1.63972e-62
6.39189e-69
2.48661e-69
6.61154e-67
2.22525e-67
5.30531e-67
2.20457e-67
4.2858e-62
2.62527e-65
1.33999e-62
2.38568e-70
1.72885e-68
2.49665e-68
9.00908e-67
2.11519e-68
9.42939e-67
1.76958e-63
6.02918e-65
5.71062e-64
2.58444e-66
1.42909e-64
2.43117e-64
1.43054e-62
6.88892e-72
3.09976e-69
1.56053e-71
2.20242e-69
1.56982e-71
2.20499e-69
6.86247e-72
2.76996e-69
2.64598e-69
8.33267e-67
8.13819e-67
2.63108e-69
8.31899e-67
2.76903e-69
1.12955e-69
2.75149e-67
8.99554e-70
3.09639e-67
9.03845e-70
3.10061e-67
1.12462e-69
3.90716e-72
3.54544e-71
4.25671e-69
3.31645e-69
1.30629e-71
2.60621e-71
1.21805e-69
1.54919e-72
1.1786e-69
1.21639e-71
1.76789e-69
8.45356e-72
4.79425e-70
5.4091e-72
2.23559e-69
2.13058e-69
6.75607e-67
6.61025e-67
2.2299e-69
2.12917e-69
6.75484e-67
9.39202e-70
2.24224e-67
7.16445e-70
2.54266e-67
7.33966e-70
2.56039e-67
9.19813e-70
2.46488e-73
1.28512e-72
1.62105e-70
1.40059e-70
4.9634e-73
9.85306e-73
6.41209e-71
2.38626e-71
8.4024e-69
3.04945e-70
1.30177e-68
2.97598e-71
7.63377e-69
1.08421e-70
8.83055e-71
7.8895e-71
2.59132e-68
2.50097e-68
8.62565e-71
7.72124e-71
2.66824e-68
2.05645e-69
2.25821e-67
8.29786e-69
1.03503e-66
7.96759e-70
5.44658e-67
1.77415e-68
7.76248e-66
8.89213e-68
2.06905e-66
1.36136e-65
2.71568e-68
2.81364e-65
6.89082e-66
1.54986e-63
2.05042e-66
1.62509e-64
4.62433e-64
5.05179e-66
5.68895e-64
8.29931e-64
5.36045e-60
3.36565e-57
1.76497e-54
9.6805e-52
4.88869e-49
1.37504e-46
5.76102e-44
1.13389e-62
6.71541e-60
3.55615e-57
1.78593e-54
7.85841e-52
2.77624e-49
1.17349e-46
2.03239e-65
1.18207e-62
6.23438e-60
3.02371e-57
1.31067e-54
5.1674e-52
2.13211e-49
3.2437e-68
1.88977e-65
1.00352e-62
4.87535e-60
2.15916e-57
8.94176e-55
3.60113e-52
8.04351e-65
5.08618e-62
2.67788e-59
1.29293e-56
5.67027e-54
2.30148e-51
9.62327e-49
3.13048e-67
2.11463e-64
1.37388e-61
6.63891e-59
2.90529e-56
1.15227e-53
4.39594e-51
1.53541e-67
9.30689e-65
4.98296e-62
2.42917e-59
1.08195e-56
4.51112e-54
1.821e-51
7.08711e-70
4.55855e-67
2.6348e-64
1.2905e-61
5.73857e-59
2.32855e-56
8.62691e-54
2.54543e-70
1.53365e-67
8.3346e-65
4.13469e-62
1.88224e-59
7.96641e-57
3.136e-54
1.27961e-72
8.04913e-70
4.54023e-67
2.26778e-64
1.02969e-61
4.25016e-59
1.57743e-56
1.89307e-57
1.47986e-54
6.44591e-52
3.2561e-49
5.02906e-56
2.1201e-53
1.10088e-58
5.60835e-56
1.95549e-61
9.19214e-59
2.89122e-64
1.21567e-61
3.70825e-67
1.40602e-64
4.1398e-56
1.75212e-53
9.01755e-59
4.62212e-56
1.59511e-61
7.54248e-59
2.34868e-64
9.93069e-62
2.9998e-67
1.14352e-64
2.05397e-57
9.07498e-55
4.18903e-60
2.22968e-57
6.61896e-63
3.02505e-60
8.64585e-66
3.35416e-63
9.90397e-69
3.35599e-66
3.28817e-57
1.42792e-54
7.78655e-60
3.15846e-57
1.61264e-62
6.43296e-60
2.91119e-65
1.12569e-62
4.61097e-68
1.71201e-65
8.13264e-55
4.01718e-52
1.89447e-57
8.55534e-55
3.78475e-60
1.6213e-57
6.58174e-63
2.65283e-60
1.00707e-65
3.8018e-63
1.21596e-52
4.83363e-50
2.37042e-55
1.00541e-52
4.18926e-58
1.7144e-55
6.61667e-61
2.53517e-58
9.40153e-64
3.37014e-61
2.83445e-49
7.424e-47
4.50752e-52
1.24085e-49
6.96522e-55
1.98184e-52
1.0294e-57
2.97625e-55
1.43879e-60
4.17983e-58
1.89161e-63
5.48894e-61
1.13096e-48
2.9795e-46
2.66123e-51
7.05349e-49
5.38017e-54
1.44583e-51
9.77937e-57
2.66121e-54
1.62112e-59
4.44836e-57
2.46497e-62
6.7954e-60
3.45477e-65
9.54601e-63
2.63114e-51
6.9354e-49
7.13128e-54
1.86601e-51
1.63176e-56
4.27417e-54
3.26628e-59
8.59759e-57
5.82959e-62
1.54304e-59
9.38491e-65
2.49676e-62
1.37572e-67
3.67638e-65
5.35301e-54
1.38661e-51
1.5707e-56
4.03706e-54
3.8663e-59
9.92267e-57
8.22134e-62
2.11586e-59
1.54024e-64
3.98307e-62
2.57762e-67
6.70274e-65
3.89817e-70
1.01952e-67
3.70466e-63
1.66703e-65
3.83803e-66
2.52691e-68
4.08295e-71
9.59084e-71
9.69118e-68
8.86673e-65
7.1141e-62
6.27127e-59
3.69559e-69
3.10082e-71
6.08773e-74
3.02794e-73
2.94548e-70
2.63662e-67
2.17177e-64
1.67116e-61
3.32346e-72
3.31564e-74
7.53074e-77
7.35193e-76
6.94498e-73
6.01143e-70
4.72246e-67
3.30607e-64
2.8048e-75
3.19205e-77
8.15552e-80
1.44637e-78
1.32557e-75
1.1037e-72
8.22274e-70
5.34317e-67
2.23209e-78
2.8192e-80
7.96866e-83
2.39513e-81
2.13083e-78
1.70846e-75
1.21229e-72
7.40018e-70
2.45523e-63
1.12589e-65
2.49406e-66
1.66012e-68
2.67891e-71
7.72907e-71
7.84416e-68
7.20586e-65
5.80267e-62
5.13711e-59
2.36724e-69
2.00627e-71
3.95736e-74
2.42642e-73
2.37052e-70
2.13073e-67
1.76231e-64
1.36213e-61
2.11007e-72
2.12791e-74
4.87617e-77
5.86107e-76
5.56143e-73
4.83504e-70
3.81517e-67
2.68328e-64
1.77317e-75
2.04139e-77
5.28065e-80
1.14741e-78
1.05648e-75
8.83725e-73
6.61456e-70
4.31873e-67
1.40979e-78
1.80188e-80
5.17503e-83
1.89086e-81
1.69034e-78
1.3618e-75
9.7098e-73
5.95622e-70
9.32406e-59
2.93712e-60
1.03114e-61
1.5797e-63
1.07227e-64
5.17352e-67
4.65522e-70
1.05571e-67
7.23278e-70
1.14227e-72
2.88996e-72
2.8989e-69
3.05485e-66
2.57784e-63
2.40999e-60
9.78277e-71
8.44892e-73
1.64844e-75
9.07785e-75
9.13698e-72
8.6976e-69
7.4894e-66
6.05185e-63
8.54808e-74
8.73455e-76
1.98733e-78
2.14535e-77
2.08554e-74
1.87315e-71
1.52057e-68
1.09828e-65
7.05944e-77
8.20534e-79
2.10926e-81
4.05394e-80
3.78945e-77
3.22873e-74
2.45401e-71
1.61492e-68
5.52573e-80
7.114e-82
2.02811e-84
6.42074e-83
5.77856e-80
4.69109e-77
3.35587e-74
2.0419e-71
6.81443e-60
1.96694e-61
2.94088e-63
6.55163e-63
9.08314e-65
3.93829e-69
5.288e-71
6.02685e-66
2.66135e-68
8.4067e-71
2.118e-68
5.32671e-69
3.36344e-71
2.95998e-73
8.92585e-71
5.62367e-68
2.23168e-65
1.11883e-62
5.82009e-60
4.49022e-72
3.60181e-74
4.54618e-76
1.96872e-73
1.14922e-70
5.72755e-68
3.05774e-65
1.58607e-62
3.60763e-75
3.44647e-77
7.05289e-79
3.71466e-76
2.21451e-73
1.2218e-70
6.68657e-68
3.44002e-65
2.76243e-78
3.01867e-80
1.06001e-81
6.28483e-79
3.87906e-76
2.25032e-73
1.24681e-70
6.37144e-68
2.01814e-81
2.45477e-83
1.50958e-84
9.65251e-82
6.13535e-79
3.65659e-76
2.03761e-73
1.03305e-70
1.49309e-58
1.07304e-56
1.35087e-61
4.26591e-63
2.58967e-63
9.10375e-61
1.27428e-64
1.81358e-66
5.45515e-68
2.65245e-65
1.17382e-67
1.28725e-68
2.82421e-68
1.64857e-65
9.32599e-63
3.86365e-60
1.95929e-57
1.03633e-70
1.56512e-71
5.5932e-71
3.3123e-68
1.81479e-65
8.67327e-63
4.30415e-60
1.90792e-57
8.71024e-74
1.61911e-74
9.90523e-74
6.00057e-71
3.36698e-68
1.74352e-65
8.8472e-63
4.16555e-60
6.9664e-77
1.50189e-77
1.60672e-76
1.00315e-73
5.84185e-71
3.19177e-68
1.66856e-65
8.159e-63
5.3028e-80
1.28224e-80
2.41187e-79
1.55483e-76
9.38682e-74
5.3284e-71
2.8552e-68
1.42415e-65
3.84694e-83
1.02577e-83
3.36588e-82
2.23536e-79
1.39086e-76
8.11e-74
4.41654e-71
2.21902e-68
5.86903e-60
3.46004e-57
7.27791e-54
3.04826e-51
1.10381e-62
3.90791e-60
1.26873e-59
7.9624e-57
1.88626e-65
3.86621e-63
2.9071e-63
1.12064e-60
9.17182e-58
3.32411e-55
1.1216e-52
2.14234e-68
3.50935e-66
5.41857e-66
2.75963e-63
1.62732e-60
6.90639e-58
3.14183e-55
2.00785e-71
3.00773e-69
9.06035e-69
5.05219e-66
2.80626e-63
1.32848e-60
6.47743e-58
3.13151e-55
1.75989e-74
2.46036e-72
1.43894e-71
8.42438e-69
4.70406e-66
2.39345e-63
1.19886e-60
5.65151e-58
1.44857e-77
1.92139e-75
2.15248e-74
1.30844e-71
7.50087e-69
4.00587e-66
2.04631e-63
9.69042e-61
1.12417e-80
1.43736e-78
3.02683e-77
1.9023e-74
1.1236e-71
6.20745e-69
3.22039e-66
1.53489e-63
8.2624e-84
1.03621e-81
4.00184e-80
2.59062e-77
1.57189e-74
8.89382e-72
4.66425e-69
2.22325e-66
3.30046e-62
2.38563e-59
1.17469e-56
5.58629e-54
2.49989e-51
9.75914e-49
8.81171e-65
5.51388e-62
2.48805e-59
1.19686e-56
5.27208e-54
2.16207e-51
8.88119e-49
1.73563e-67
9.80732e-65
4.50261e-62
2.19717e-59
9.85559e-57
4.14737e-54
1.66634e-51
2.84852e-70
1.55705e-67
7.4975e-65
3.73204e-62
1.70966e-59
7.27546e-57
2.85798e-54
9.93328e-52
4.16322e-73
2.29875e-70
1.1677e-67
5.93673e-65
2.76913e-62
1.18463e-59
4.5819e-57
1.55237e-54
5.61054e-76
3.1898e-73
1.70061e-70
8.82285e-68
4.17944e-65
1.7976e-62
6.91636e-60
2.33625e-57
7.07788e-79
4.16817e-76
2.31397e-73
1.2231e-70
5.87764e-68
2.54826e-65
9.84594e-63
3.36111e-60
8.40996e-82
5.12611e-79
2.94246e-76
1.58247e-73
7.71385e-71
3.38167e-68
1.32134e-65
4.5888e-63
9.44619e-85
5.94196e-82
3.50491e-79
1.91608e-76
9.47805e-74
4.21244e-71
1.6715e-68
5.91926e-66
8.47818e-70
5.7678e-67
3.75221e-64
1.84295e-61
8.23947e-59
3.36951e-56
1.2579e-53
3.97861e-51
1.82973e-72
1.25096e-69
8.101e-67
4.06072e-64
1.85334e-61
7.69259e-59
2.86685e-56
9.27745e-54
3.36756e-75
2.32299e-72
1.50644e-69
7.70931e-67
3.58394e-64
1.50523e-61
5.63386e-59
1.84664e-56
5.47795e-78
3.82261e-75
2.49295e-72
1.30116e-69
6.1523e-67
2.61592e-64
9.885e-62
3.29035e-59
8.03672e-81
5.67908e-78
3.73343e-75
1.98492e-72
9.53994e-70
4.11294e-67
1.57588e-64
5.34391e-62
1.07685e-83
7.70776e-81
5.11329e-78
2.76634e-75
1.35127e-72
5.91616e-70
2.30502e-67
7.97452e-65
1.33791e-86
9.7677e-84
6.46042e-81
3.55379e-78
1.7643e-75
7.85302e-73
3.11574e-70
1.0996e-67
2.25141e-72
1.47578e-69
8.66063e-67
4.30875e-64
1.94362e-61
7.93633e-59
2.89912e-56
9.15453e-54
5.54571e-75
3.6723e-72
2.17424e-69
1.10244e-66
5.05945e-64
2.09028e-61
7.67726e-59
2.46848e-56
1.13483e-77
7.58783e-75
4.53832e-72
2.3462e-69
1.09576e-66
4.59062e-64
1.7064e-61
5.5842e-59
2.0081e-80
1.35694e-77
8.21148e-75
4.32579e-72
2.05568e-69
8.7464e-67
3.30191e-64
1.10095e-61
3.14988e-83
2.15266e-80
1.31918e-77
7.07587e-75
3.42092e-72
1.47989e-69
5.68582e-67
1.93326e-64
4.45242e-86
3.07852e-83
1.91118e-80
1.04299e-77
5.12916e-75
2.25762e-72
8.83642e-70
3.06381e-67
5.75085e-89
4.02458e-86
2.52754e-83
1.4024e-80
7.01377e-78
3.14181e-75
1.25297e-72
4.42681e-70
4.46782e-75
2.86927e-72
1.64669e-69
8.33553e-67
3.81723e-64
1.57357e-61
5.76904e-59
1.85255e-56
1.19773e-77
7.79763e-75
4.53712e-72
2.33512e-69
1.08437e-66
4.51262e-64
1.66545e-61
5.4119e-59
2.63222e-80
1.7348e-77
1.02354e-74
5.36154e-72
2.53025e-69
1.06796e-66
3.99643e-64
1.3197e-61
4.94088e-83
3.29668e-80
1.9732e-77
1.05204e-74
5.04977e-72
2.1665e-69
8.24539e-67
2.77155e-64
8.13635e-86
5.4972e-83
3.33853e-80
1.81109e-77
8.84377e-75
3.86056e-72
1.49619e-69
5.12197e-67
1.19721e-88
8.1913e-86
5.04715e-83
2.78436e-80
1.38303e-77
6.14473e-75
2.42575e-72
8.45517e-70
1.5972e-91
1.10657e-88
6.91399e-86
3.8765e-83
1.95799e-80
8.85269e-78
3.55865e-75
1.26203e-72
5.08173e-61
2.20601e-60
1.30048e-60
1.57716e-61
2.93651e-63
3.88423e-62
2.78269e-65
1.78615e-72
4.52707e-59
4.35326e-61
1.04397e-61
3.28995e-62
2.53136e-64
1.70946e-61
8.58856e-62
1.03026e-62
1.7352e-64
2.25829e-66
1.46467e-73
2.33037e-63
1.48795e-66
2.04648e-69
3.93302e-73
3.56779e-68
4.54323e-66
9.67586e-71
2.28771e-70
3.71722e-68
1.02502e-66
8.23622e-69
5.33163e-68
5.65382e-61
8.49544e-60
2.18368e-57
5.87273e-57
2.34756e-58
4.06006e-57
2.07077e-52
3.05555e-51
4.63154e-55
7.64353e-54
1.96522e-59
1.26058e-65
1.49926e-63
1.17784e-57
1.78717e-56
2.39523e-60
4.02391e-59
5.14903e-68
8.79233e-71
6.72263e-70
3.27649e-72
1.04179e-66
3.14615e-65
9.51143e-64
2.73541e-63
3.45475e-66
2.53502e-65
2.73912e-64
7.09576e-72
9.68468e-71
5.72186e-73
2.60611e-69
5.05807e-70
5.02671e-71
7.12949e-71
1.70138e-53
1.4805e-53
1.53445e-53
1.63505e-53
3.85333e-62
1.00122e-66
7.3106e-67
4.25294e-60
1.37416e-59
8.01281e-63
3.03147e-62
9.0653e-60
1.0312e-60
1.07342e-62
1.32683e-59
3.05801e-62
2.04921e-59
2.5531e-60
2.16238e-65
3.91238e-62
3.48704e-64
3.34727e-63
3.62467e-64
5.21093e-63
1.3951e-65
8.59593e-70
1.82489e-72
2.10589e-72
3.39731e-70
2.77416e-72
3.47236e-70
6.56713e-70
9.98747e-61
1.41127e-61
3.29735e-60
1.01432e-62
1.95108e-60
4.11835e-63
2.12006e-60
4.3994e-71
3.11327e-73
2.72412e-71
1.49598e-73
1.00431e-70
2.01543e-73
2.30847e-71
7.41061e-67
1.28538e-63
4.67173e-65
1.88243e-64
1.86992e-65
1.96774e-64
1.03351e-66
3.79342e-71
1.01436e-71
1.0481e-68
4.73507e-70
2.7657e-71
2.02541e-71
3.11044e-69
4.35328e-72
5.76439e-75
4.05773e-73
1.31117e-72
1.12919e-74
1.62295e-72
1.96668e-72
1.78154e-69
3.82271e-70
2.67185e-67
1.16932e-67
6.73425e-70
6.17649e-70
6.93171e-67
1.12783e-68
2.23016e-68
1.41816e-65
7.22647e-67
3.8136e-68
9.80515e-69
4.50727e-66
4.60125e-58
1.69648e-57
1.37046e-60
5.51658e-59
3.5229e-58
1.57358e-57
1.40501e-59
7.3531e-56
5.97303e-56
2.57001e-58
1.1374e-57
6.305e-56
6.78271e-56
2.76061e-57
3.84185e-55
7.75042e-55
9.63514e-58
7.03656e-56
2.2967e-55
8.726e-55
1.9968e-56
4.15722e-59
4.26346e-60
5.42047e-61
4.68833e-58
1.37807e-61
2.12348e-58
1.48126e-58
8.06011e-53
1.35673e-52
5.6109e-53
1.72047e-52
5.42677e-63
4.79664e-64
3.53099e-61
9.98898e-65
1.52433e-61
1.10404e-61
2.82554e-62
2.74327e-57
8.63411e-59
3.31218e-60
8.32723e-63
2.11153e-66
1.60615e-68
1.89736e-57
7.41284e-59
2.24525e-60
2.03991e-62
2.11227e-66
1.07117e-68
1.01471e-67
8.62404e-60
1.02775e-61
7.12037e-59
7.60923e-60
1.00366e-61
1.04829e-63
1.02247e-63
4.34542e-68
1.56155e-70
2.0521e-66
3.85632e-68
1.47856e-70
8.13692e-60
1.0812e-61
3.44975e-59
3.80835e-60
9.53963e-62
1.08202e-63
9.52361e-64
7.14904e-71
3.98196e-68
1.24817e-70
1.83413e-66
3.26826e-69
1.95813e-68
8.85166e-71
5.3472e-63
5.31429e-65
4.36853e-72
1.77017e-70
2.10432e-69
5.98493e-72
2.80468e-68
7.07767e-71
1.94229e-70
1.32574e-68
9.49725e-71
1.30406e-68
5.84007e-68
2.52013e-69
1.2843e-71
7.93636e-70
3.45119e-72
3.65802e-69
8.04451e-72
6.31597e-70
4.59668e-58
5.65726e-58
1.74258e-60
2.69292e-59
7.29393e-60
4.17191e-59
5.04192e-62
6.44134e-64
1.13991e-64
3.30203e-62
1.03716e-61
6.49968e-63
1.55789e-62
1.50455e-63
4.19957e-64
5.01321e-62
8.6781e-65
7.65165e-62
2.86046e-62
8.84034e-63
3.43008e-67
1.39805e-68
4.37131e-68
2.47517e-65
8.0305e-65
1.02436e-65
1.31432e-65
6.62643e-64
5.9738e-66
2.9812e-65
9.12807e-63
1.06356e-61
4.13803e-63
8.28338e-63
6.2443e-54
1.58488e-54
1.55175e-54
5.05222e-57
2.30182e-56
5.1728e-57
3.05067e-56
1.80458e-51
8.53206e-52
2.07019e-51
3.86008e-54
1.04653e-53
2.8746e-54
1.33004e-53
6.09872e-59
4.49809e-62
1.45249e-61
1.29686e-59
8.37784e-59
1.14784e-61
3.53892e-61
2.97176e-56
1.58381e-59
7.3933e-59
7.47246e-57
3.965e-56
5.20459e-59
1.77539e-58
4.79881e-65
1.00569e-67
2.52426e-67
2.76957e-65
4.04557e-65
9.92118e-68
1.94518e-67
1.39105e-68
5.59543e-66
8.1858e-69
2.18647e-66
3.09197e-68
3.14652e-66
7.25843e-69
9.62661e-69
1.49153e-66
2.14071e-66
5.03592e-69
2.171e-66
4.92892e-69
1.22905e-68
1.35426e-58
8.18048e-59
3.57487e-61
5.03144e-60
8.52279e-59
1.3049e-58
1.27338e-59
5.20785e-62
1.01544e-64
4.23727e-65
4.35638e-63
2.56659e-64
2.34261e-62
1.45518e-62
4.43849e-61
4.96084e-63
2.58359e-64
3.64404e-61
1.71282e-63
9.4543e-61
8.85752e-62
2.61952e-66
4.92695e-68
7.27216e-67
1.56938e-64
1.39222e-65
8.30103e-65
1.58489e-65
3.77622e-66
1.67155e-67
2.2917e-64
1.18626e-66
6.82994e-64
3.12425e-64
5.93281e-65
8.19782e-66
2.74462e-63
4.06904e-66
1.05006e-63
1.55327e-63
4.03696e-66
1.71372e-65
8.08482e-66
1.02418e-63
2.71643e-63
3.96907e-66
1.52646e-63
3.93507e-66
1.70161e-65
8.46476e-66
2.87795e-63
4.14202e-66
1.08359e-63
1.778e-65
1.6181e-63
4.10472e-66
7.82552e-66
9.56863e-64
2.68143e-63
3.63051e-66
1.47406e-63
3.62945e-66
1.66328e-65
5.03723e-65
1.28832e-64
1.82137e-67
7.48792e-67
1.42002e-64
2.17833e-67
9.77187e-67
6.47058e-72
5.32752e-71
6.63634e-68
8.23494e-69
9.55498e-66
1.05069e-62
6.3803e-72
5.34298e-71
6.6311e-68
6.67583e-69
7.78541e-66
8.60298e-63
3.00345e-73
2.25196e-72
2.6524e-69
3.32366e-67
3.74931e-64
3.28736e-65
5.39379e-63
1.70289e-55
6.10541e-53
3.36324e-57
5.32906e-57
5.49767e-46
1.48249e-51
6.59869e-49
8.25618e-71
8.04129e-71
3.13744e-73
2.95264e-75
3.05382e-73
3.56597e-75
4.09369e-73
3.93144e-72
3.88385e-73
4.72338e-72
5.35527e-70
7.91863e-69
4.98234e-70
3.81567e-69
3.6918e-69
2.39276e-73
2.71301e-71
8.68531e-71
6.26092e-72
3.32923e-73
2.54404e-71
8.35288e-71
2.97148e-70
3.27677e-68
1.06627e-67
5.06134e-71
4.15607e-70
3.07603e-68
1.02453e-67
6.52516e-67
3.81716e-65
1.42551e-64
6.1644e-68
3.5773e-65
7.77585e-65
8.21632e-71
3.11216e-73
2.86204e-75
2.70442e-73
2.23011e-75
4.08779e-73
4.9233e-72
2.33825e-73
2.94731e-72
5.34517e-70
3.0188e-70
3.78151e-69
2.28344e-73
2.69957e-71
8.04112e-71
5.48859e-72
2.13794e-73
1.53797e-71
5.7376e-71
4.28857e-70
3.2867e-68
9.90566e-68
3.07067e-71
2.65803e-70
1.87541e-68
7.06655e-68
3.83722e-65
1.16339e-64
3.7642e-68
2.19124e-65
6.32544e-65
1.62309e-74
1.26408e-76
1.66412e-74
2.0594e-73
2.84307e-72
4.62395e-71
2.0566e-71
9.18293e-70
1.11435e-74
3.84223e-73
3.17262e-72
1.95593e-71
1.33957e-69
3.91833e-69
1.38667e-70
3.02763e-69
1.36956e-69
2.38527e-69
1.58878e-66
4.59143e-66
4.82656e-68
5.47039e-67
2.6084e-66
8.07754e-69
2.69222e-63
2.03037e-67
2.32211e-62
6.41719e-61
9.1938e-60
9.01999e-67
1.46973e-67
6.06765e-64
3.4963e-65
2.87672e-65
6.75282e-65
2.26942e-62
1.49721e-61
3.25619e-63
1.22137e-62
8.99954e-60
1.27183e-60
1.61463e-54
1.12256e-48
6.53778e-51
3.73056e-53
5.45129e-52
9.18442e-47
2.09494e-49
1.03334e-48
2.93997e-54
7.27367e-60
1.96269e-58
4.62497e-52
2.59447e-51
9.84376e-55
6.21358e-54
2.74134e-57
1.57259e-49
3.55194e-52
2.80951e-48
1.96655e-48
2.02848e-48
2.2105e-48
8.8047e-57
8.81657e-61
1.51345e-53
3.37012e-56
3.85792e-54
2.17797e-55
4.23284e-57
6.14391e-54
1.33504e-56
1.1711e-53
1.09955e-54
1.3796e-51
7.94087e-53
1.55066e-54
2.11067e-51
5.11599e-54
4.05365e-51
3.8525e-52
2.96287e-68
2.04657e-70
1.49186e-68
8.07718e-71
1.00652e-70
1.4552e-68
6.10368e-68
2.92192e-68
7.87117e-71
2.03312e-70
1.46179e-68
9.92679e-71
1.42446e-68
6.06024e-68
1.00853e-75
6.46809e-73
1.45555e-74
3.00956e-73
3.22158e-73
1.24069e-74
1.97824e-75
7.95206e-78
1.64862e-77
1.79564e-75
2.95397e-75
1.64843e-77
1.79158e-75
1.06893e-77
9.94355e-76
2.94281e-73
6.42617e-73
1.39015e-74
3.17768e-73
1.20296e-74
1.96418e-75
9.77317e-78
3.56626e-75
1.76665e-77
2.47092e-75
1.76638e-77
2.46613e-75
1.25277e-77
1.2434e-75
1.20088e-75
4.16149e-73
4.09308e-73
1.20035e-75
4.16101e-73
1.24377e-75
6.78816e-75
2.31887e-74
2.28586e-72
3.9333e-72
2.31992e-74
2.28829e-72
6.76727e-75
1.19511e-75
3.88391e-73
1.13784e-75
3.97765e-73
1.13793e-75
3.97757e-73
1.1952e-75
9.38041e-75
4.72068e-72
2.49113e-74
3.19093e-72
2.48887e-74
3.18827e-72
9.40321e-75
1.74965e-72
1.648e-72
5.51805e-70
5.35417e-70
1.64706e-72
5.51645e-70
1.75126e-72
1.62849e-71
4.43078e-71
5.27712e-69
7.90156e-69
4.39273e-71
5.26905e-69
1.63636e-71
1.58338e-72
4.98239e-70
1.53539e-72
5.05138e-70
1.53545e-72
5.0516e-70
1.58309e-72
3.02707e-68
2.091e-70
1.50485e-68
8.0417e-71
6.26874e-68
1.02187e-70
1.46555e-68
1.01948e-75
6.59074e-73
1.45738e-74
2.98212e-73
2.01435e-75
3.26104e-73
1.22293e-74
7.7113e-78
1.60719e-77
1.71169e-75
2.85726e-75
1.05555e-77
1.59936e-77
1.70315e-75
9.51649e-76
2.66743e-73
6.10325e-73
1.06991e-74
3.03627e-73
1.14454e-74
1.85294e-75
7.18143e-78
2.23911e-75
1.0716e-77
1.58307e-75
1.08702e-77
1.58947e-75
9.66543e-78
1.24868e-75
1.19386e-75
4.1841e-73
4.08382e-73
1.25259e-75
1.19031e-75
4.17996e-73
9.62281e-75
2.60657e-74
3.2838e-72
4.91707e-72
9.64993e-75
2.61533e-74
3.28075e-72
7.2297e-76
2.34785e-73
6.77712e-76
2.39733e-73
6.86633e-76
2.40737e-73
7.13392e-76
5.97906e-75
2.96267e-72
1.50828e-74
2.0259e-72
1.5436e-74
2.03359e-72
5.90788e-75
1.66694e-72
1.64207e-72
5.47588e-70
5.33958e-70
1.72531e-72
1.63682e-72
5.37875e-70
9.46107e-73
3.03189e-70
9.20091e-73
3.07334e-70
9.32903e-73
3.04749e-70
9.56216e-73
7.68434e-77
4.22383e-74
2.3272e-75
1.27646e-74
1.37927e-76
2.43841e-74
2.29273e-75
4.7351e-79
7.00775e-79
8.63369e-77
1.62858e-76
6.54432e-79
9.5062e-79
9.08851e-77
6.1938e-77
4.92417e-77
1.7054e-74
1.8613e-74
5.18594e-77
5.87047e-77
1.90954e-74
4.86378e-76
1.07075e-75
1.45063e-73
2.54538e-73
4.319e-76
1.2553e-75
1.57326e-73
3.40477e-75
1.06062e-72
2.53259e-74
3.02488e-72
3.19922e-75
1.08207e-72
5.81936e-74
2.27456e-74
2.38593e-71
8.32457e-73
4.14395e-71
7.41398e-74
7.22476e-72
5.85522e-73
6.45451e-74
6.39375e-74
2.10456e-71
2.02858e-71
6.71179e-74
5.94862e-74
2.10287e-71
1.4697e-72
1.83058e-70
1.24662e-71
1.17073e-69
5.99201e-73
4.12165e-70
2.51455e-71
7.11985e-68
2.77938e-70
7.33599e-69
4.49551e-68
1.97858e-70
9.73033e-68
2.71338e-68
2.76015e-65
1.33051e-65
1.26391e-62
8.37208e-64
3.60055e-65
7.54884e-66
1.02028e-62
2.94927e-66
3.89309e-69
2.87596e-67
8.98816e-67
8.63028e-69
1.24802e-66
1.48498e-66
1.07963e-63
2.28131e-64
1.61676e-61
7.80765e-62
4.59488e-64
4.34377e-64
3.77191e-61
2.80898e-63
3.61502e-63
3.09769e-60
1.49011e-61
9.57526e-63
1.76489e-63
9.72596e-61
5.24218e-61
1.11619e-61
6.57028e-59
3.85239e-59
1.97436e-61
2.172e-61
1.69165e-58
1.57788e-52
2.71609e-52
4.41125e-55
5.79834e-53
6.50893e-53
3.37721e-52
5.44426e-53
1.4032e-50
8.49735e-51
4.39764e-53
5.50512e-52
8.91255e-51
1.13206e-50
1.85652e-51
4.02085e-50
9.41213e-50
1.07244e-52
1.00773e-50
2.29803e-50
1.07604e-49
2.73477e-51
6.21306e-54
5.52592e-55
9.30862e-56
7.27233e-53
2.26129e-56
3.29503e-53
2.3275e-53
2.51604e-50
4.47715e-50
1.57012e-50
5.6926e-50
2.78764e-57
4.42051e-58
3.79871e-55
3.87759e-58
3.41193e-55
1.26287e-55
1.21789e-55
1.33896e-46
5.43102e-44
2.87824e-70
9.69862e-68
1.1531e-65
4.30466e-58
7.54577e-59
1.27485e-48
1.78937e-53
7.87322e-75
5.03899e-74
2.09415e-73
1.91512e-72
1.21122e-72
3.43966e-72
1.29478e-71
7.56323e-70
1.58237e-64
1.44159e-69
4.162e-68
7.2332e-65
5.62889e-66
9.83389e-56
2.6534e-49
5.94756e-52
7.93394e-51
5.55049e-51
5.71993e-51
7.2164e-51
1.95825e-59
1.27595e-54
2.5226e-57
2.59089e-77
7.1253e-75
6.44611e-75
2.0448e-75
8.484e-75
4.22656e-76
4.94032e-77
1.07526e-77
1.65143e-74
7.84883e-76
2.10124e-74
6.83447e-77
3.78862e-75
2.03598e-76
2.67239e-71
2.7259e-73
3.45266e-72
7.21663e-71
6.94131e-74
9.6498e-71
3.3574e-71
7.48889e-69
7.71799e-72
7.81547e-70
3.065e-69
2.09315e-71
2.3363e-69
3.5857e-69
2.8611e-66
9.33792e-67
3.55258e-64
1.78167e-64
9.36493e-67
1.09738e-66
1.0283e-63
3.85554e-53
2.32108e-53
1.1687e-55
1.53842e-54
2.43191e-53
3.28602e-53
5.29618e-54
5.63748e-58
1.06502e-59
1.61932e-56
3.78448e-59
3.26927e-56
2.94527e-57
1.0653e-56
1.34073e-57
2.12417e-60
1.30252e-59
8.81105e-59
6.28361e-60
1.64489e-56
1.45709e-57
7.90857e-58
1.25186e-54
4.72517e-55
5.49946e-46
1.36559e-46
3.16839e-46
5.26768e-49
7.17673e-49
2.41889e-48
3.02898e-48
1.17794e-53
3.42071e-54
1.58852e-51
7.8893e-51
2.041e-53
8.54717e-51
3.49079e-53
1.54897e-51
6.67177e-49
3.33615e-51
2.24801e-57
2.37358e-56
5.45616e-59
2.52577e-59
1.26161e-58
1.23498e-56
7.91846e-57
7.50128e-56
9.53967e-58
4.66622e-59
5.35474e-56
3.23635e-58
1.62828e-55
1.42098e-56
9.0287e-54
2.10706e-56
1.14585e-56
8.047e-55
5.22386e-56
4.56647e-54
3.12307e-54
2.69298e-58
8.3667e-59
2.65466e-61
3.60464e-60
7.31687e-58
4.23625e-60
7.9945e-58
6.27026e-60
1.98275e-62
3.95028e-61
5.10511e-62
3.61451e-63
1.57709e-59
2.25704e-60
1.47573e-48
5.80687e-51
4.82923e-51
3.61974e-49
3.57093e-49
1.24232e-51
1.25032e-51
8.44872e-56
3.53072e-56
1.37029e-53
3.2962e-54
7.29508e-57
3.35347e-54
2.46135e-56
6.04957e-62
3.47589e-61
6.28297e-59
5.63106e-62
1.28168e-61
1.92652e-59
3.04955e-59
5.25548e-64
1.0595e-66
1.39754e-65
8.38679e-64
7.2062e-66
1.61869e-64
3.23655e-67
6.12148e-67
2.99464e-65
5.41695e-68
4.84771e-65
3.85153e-67
9.24617e-66
1.68292e-68
2.55956e-67
5.88894e-67
1.73178e-68
2.63326e-65
4.21993e-65
7.84097e-66
1.16111e-65
9.44631e-63
2.01554e-65
1.77371e-65
3.76329e-62
2.90384e-64
3.52622e-62
2.80106e-64
4.07904e-63
8.76519e-63
1.84706e-65
8.66538e-66
2.34158e-64
3.00853e-62
2.80602e-64
5.95312e-50
2.09595e-47
1.75859e-46
4.39414e-44
1.70107e-52
4.04761e-46
6.13352e-49
2.06352e-43
3.85825e-46
1.28828e-50
2.73066e-44
6.77476e-47
9.12526e-46
6.33507e-46
6.58857e-46
7.63293e-46
4.74548e-48
2.84611e-48
1.53986e-50
1.76366e-49
3.01976e-48
3.79534e-48
6.17122e-49
7.68124e-48
1.50667e-47
5.36198e-48
1.93582e-47
2.14566e-41
1.11859e-53
1.08464e-54
1.79026e-43
6.12911e-44
5.949e-44
2.31895e-46
5.24822e-46
2.35247e-46
5.28593e-46
1.2983e-48
3.30796e-51
1.45952e-48
1.13595e-50
2.51906e-47
5.76122e-45
2.68483e-52
1.52906e-49
8.90679e-50
3.61125e-46
2.49079e-56
4.93114e-51
9.74995e-54
8.39706e-51
1.90839e-56
3.78853e-51
8.1039e-54
7.04842e-51
1.99481e-57
3.67039e-52
4.29914e-55
3.94812e-52
6.79549e-57
3.26718e-54
4.60678e-55
2.20489e-52
2.35682e-51
4.99585e-49
6.19282e-59
3.63467e-55
2.38891e-58
5.14935e-55
5.63137e-53
5.30444e-53
1.14161e-53
4.40593e-56
4.33433e-55
5.74833e-56
2.65177e-53
4.19809e-56
5.37818e-55
1.47725e-52
3.80333e-50
4.63081e-51
1.57876e-52
4.16614e-50
4.91695e-59
2.7489e-55
2.59552e-58
4.83331e-55
4.26816e-53
4.98102e-53
5.4578e-50
8.74173e-54
4.43736e-56
3.60076e-55
5.38817e-56
2.49139e-53
2.67119e-56
4.86981e-55
1.25902e-52
3.37667e-50
4.35201e-51
1.76926e-48
1.42096e-52
3.75275e-50
1.94743e-59
2.65485e-56
3.13277e-60
2.89853e-57
4.04916e-54
5.27132e-51
3.57445e-55
4.12993e-52
8.86713e-55
2.20913e-57
2.76728e-56
3.40684e-58
1.80658e-55
7.02954e-58
8.4094e-57