/*--------------------------------*- C++ -*----------------------------------*\
  =========                 |
  \\      /  F ield         | OpenFOAM: The Open Source CFD Toolbox
   \\    /   O peration     | Website:  https://openfoam.org
    \\  /    A nd           | Version:  9
     \\/     M anipulation  |
\*---------------------------------------------------------------------------*/
FoamFile
{
    format      ascii;
    class       volVectorField;
    location    "0.00015";
    object      rhoU;
}
// * * * * * * * * * * * * * * * * * * * * * * * * * * * * * * * * * * * * * //

dimensions      [1 -2 -1 0 0 0 0];

internalField   nonuniform List<vector> 
4077
(
(0 1.57358e-15 -9.31216e-16)
(0 1.48276e-21 3.41061e-15)
(0 3.34225e-19 -1.37196e-21)
(0 -1.30873e-14 -2.56447e-15)
(0 -1.66454e-16 0)
(0 -2.78755e-16 6.41459e-17)
(7.92375e-16 -1.30974e-14 -2.59923e-15)
(0 -1.67711e-16 0)
(0 -1.51762e-16 0)
(-3.81701e-18 -1.90052e-29 3.41061e-15)
(1.34805e-35 -9.2062e-23 3.05282e-15)
(-7.12099e-16 -1.30974e-14 1.06847e-18)
(0 -1.33761e-14 6.82121e-15)
(4.72167e-22 -1.67711e-16 0)
(-2.66939e-26 -1.67711e-16 0)
(1.69729e-40 -1.29859e-14 6.82121e-15)
(-3.30344e-17 -1.6771e-16 -6.82121e-15)
(1.1585e-18 -2.72058e-18 0)
(1.3996e-17 -1.6771e-16 0)
(1.37512e-20 -1.31559e-14 1.51932e-17)
(5.11497e-37 -2.40481e-18 7.1005e-17)
(0 0 8.60163e-24)
(1.3706e-16 -3.20332e-15 1.71548e-21)
(0 0 1.65942e-15)
(0 0 -6.30254e-15)
(-2.72158e-15 0 6.45785e-15)
(0 0 1.50716e-16)
(-2.70061e-15 0 -5.79517e-15)
(0 0 -1.29215e-14)
(0 0 -2.53892e-14)
(1.21891e-14 0 6.82121e-15)
(0 1.28079e-14 7.12764e-15)
(2.2819e-24 0 -2.37747e-14)
(0 0 -2.0603e-15)
(-7.54534e-16 0 -4.47314e-24)
(0 -1.07966e-14 0)
(0 0 7.31495e-16)
(0 0 -2.31038e-14)
(0 0 9.47463e-15)
(0 0 1.01838e-15)
(0 0 0)
(0 0 8.241e-15)
(0 0 0)
(0 0 7.33889e-16)
(0 0 0)
(0 0 0)
(0 0 -1.235e-14)
(0 0 0)
(0 0 -4.06164e-15)
(0 0 0)
(0 0 1.36424e-14)
(0 0 -4.70885e-16)
(0 0 2.46107e-15)
(0 0 0)
(0 6.56822e-15 -1.87457e-15)
(0 -1.27462e-14 1.38331e-14)
(0 -1.0148e-16 0)
(0 -1.60467e-16 0)
(0 -1.36424e-14 5.44038e-16)
(1.31108e-14 6.55508e-15 -1.93606e-15)
(0 -5.04352e-15 4.58781e-15)
(0 0 -2.1976e-14)
(0 0 8.24415e-15)
(0 0 7.71276e-15)
(0 0 1.27475e-14)
(0 0 1.84561e-14)
(0 0 -1.88608e-14)
(0 0 -1.53274e-14)
(0 0 -2.45737e-14)
(9.46221e-23 0 9.4159e-15)
(0 0 8.77174e-15)
(0 0 -4.35196e-16)
(0 0 -5.94699e-16)
(0 0 -5.80048e-16)
(-7.02877e-16 0 6.53384e-15)
(-7.18175e-16 0 6.25599e-16)
(0 0 1.19959e-15)
(-7.17929e-16 0 -6.30641e-16)
(-7.17934e-16 0 6.73197e-16)
(0 0 1.20206e-15)
(-1.00593e-15 0 -5.69826e-16)
(0 0 0)
(0 0 0)
(0 0 1.94563e-14)
(0 0 5.89082e-16)
(0 0 -1.23916e-14)
(0 0 -1.41476e-14)
(0 0 0)
(0 0 0)
(0 0 0)
(0 0 1.60095e-14)
(0 0 5.70009e-16)
(0 0 1.12772e-18)
(0 0 -1.23916e-14)
(0 0 -1.76248e-14)
(0 0 0)
(0 0 0)
(0 0 1.86776e-14)
(0 0 9.53081e-16)
(0 0 2.27299e-16)
(0 0 -1.27153e-14)
(0 0 -2.68288e-15)
(0 0 0)
(0 0 1.02756e-16)
(0 0 1.16057e-14)
(0 0 -2.09071e-15)
(0 0 0)
(0 0 2.6534e-15)
(0 0 1.09839e-15)
(0 0 0)
(0 0 1.02949e-16)
(0 0 1.16049e-14)
(0 0 -2.04798e-15)
(0 0 0)
(0 0 2.66571e-15)
(0 0 1.0847e-15)
(-6.68948e-16 0 -4.12008e-15)
(0 0 5.55301e-16)
(0 0 2.46452e-14)
(0 0 7.45047e-15)
(0 0 2.24907e-15)
(0 0 -3.01135e-14)
(0 0 -2.71928e-15)
(0 0 1.11396e-14)
(-1.25021e-15 0 -2.3119e-14)
(0 0 -2.36585e-14)
(-1.20251e-15 0 -2.2539e-14)
(0 0 1.00109e-14)
(0 0 1.06046e-14)
(-1.93918e-29 5.59482e-15 3.41061e-15)
(0 4.88679e-15 -3.41061e-15)
(0 0 -2.40893e-14)
(0 0 1.00109e-14)
(0 0 9.61521e-15)
(-1.26797e-15 0 -2.39742e-14)
(2.2037e-20 -1.36424e-14 7.31495e-16)
(-8.0739e-16 -1.31369e-14 0)
(-1.35012e-15 0 -6.47976e-15)
(-1.26771e-15 0 9.33592e-15)
(-1.35817e-15 0 4.65838e-16)
(-1.17794e-14 6.55506e-15 2.60965e-16)
(-2.66747e-26 -1.31369e-14 0)
(-6.09211e-18 0 -5.19613e-23)
(-2.01913e-18 -5.1345e-18 0)
(-8.96939e-19 8.23521e-20 0)
(-7.6424e-22 0 1.8789e-20)
(-3.0647e-19 0 1.07105e-18)
(-1.22817e-17 0 6.435e-17)
(-6.40787e-20 0 4.31493e-19)
(-4.65599e-18 0 -2.27763e-14)
(1.14417e-15 0 -4.28991e-15)
(1.54717e-32 0 -2.24837e-14)
(2.91217e-24 0 1.16828e-16)
(0 0 2.60217e-16)
(3.67484e-17 -6.20909e-15 3.19813e-15)
(5.40425e-17 4.88751e-15 -3.39671e-15)
(1.06829e-15 0 -1.98779e-14)
(1.50239e-46 0 0)
(1.99595e-21 0 1.16828e-16)
(9.67071e-33 -1.31429e-14 2.48884e-18)
(7.9358e-16 0 8.32668e-16)
(2.35953e-20 1.68973e-15 -1.30378e-16)
(0 0 1.33999e-14)
(0 0 -3.47565e-15)
(0 6.82121e-15 -6.59664e-17)
(0 -8.77747e-38 0)
(0 6.82121e-15 6.20149e-15)
(0 -1.38621e-35 -2.50006e-16)
(0 0 2.01627e-14)
(0 6.82121e-15 -6.81592e-15)
(0 -1.30935e-32 0)
(0 0 0)
(0 0 -1.54023e-14)
(0 0 -1.24596e-14)
(0 0 -2.16589e-14)
(0 0 0)
(0 0 0)
(0 0 1.44122e-14)
(0 0 0)
(0 0 4.11357e-15)
(0 0 -1.98251e-14)
(0 0 -1.42329e-14)
(0 0 1.98251e-14)
(0 0 2.06545e-14)
(0 0 0)
(1.28409e-37 0 -1.58963e-14)
(0 0 0)
(0 0 0)
(0 0 -1.48859e-14)
(0 0 0)
(0 0 1.21955e-14)
(5.89503e-36 0 0)
(0 6.82121e-15 0)
(0 0 -6.82115e-15)
(0 6.82121e-15 0)
(0 0 0)
(0 6.82121e-15 2.99906e-17)
(0 0 9.71559e-19)
(0 6.56804e-15 -3.96509e-16)
(0 0 1.92313e-16)
(0 6.56226e-15 -3.50223e-16)
(0 0 0)
(0 0 0)
(0 0 0)
(0 0 0)
(0 6.82121e-15 0)
(0 0 0)
(0 6.82121e-15 -1.23391e-17)
(0 0 4.0958e-16)
(0 -1.45597e-35 0)
(0 6.82121e-15 -1.88566e-19)
(0 -2.92229e-33 0)
(0 0 0)
(0 0 0)
(0 0 0)
(0 0 0)
(0 0 -3.60887e-15)
(0 6.82121e-15 0)
(0 0 0)
(0 6.82121e-15 1.61519e-20)
(0 0 0)
(0 -6.9874e-31 0)
(0 6.82121e-15 4.01904e-16)
(0 6.82121e-15 6.63632e-15)
(0 -1.24225e-28 0)
(0 -1.73597e-30 0)
(0 0 0)
(0 0 0)
(0 0 0)
(0 0 0)
(0 0 -9.52186e-17)
(0 6.82121e-15 0)
(0 0 0)
(0 6.82121e-15 1.72629e-20)
(0 0 0)
(1.8135e-25 6.62222e-15 -2.92009e-17)
(0 -2.41617e-26 0)
(0 -1.91326e-28 0)
(0 6.56226e-15 2.07991e-16)
(0 -3.3006e-24 0)
(2.26226e-25 0 2.31137e-16)
(0 0 0)
(0 0 0)
(0 0 0)
(0 0 -9.37665e-17)
(0 6.82121e-15 0)
(0 0 0)
(0 6.81683e-15 0)
(0 0 0)
(0 -4.72194e-22 0)
(3.37889e-23 0 -4.01162e-16)
(0 6.56226e-15 3.69921e-16)
(0 -4.4953e-20 0)
(2.85515e-21 0 3.97606e-16)
(0 0 0)
(-5.05827e-17 -4.85459e-16 6.43015e-15)
(0 0 0)
(0 0 0)
(0 -1.06496e-14 6.58444e-15)
(-1.21891e-14 1.29692e-14 1.18715e-14)
(0 0 0)
(1.30769e-14 -1.2297e-14 1.0216e-14)
(0 0 0)
(0 0 0)
(0 0 0)
(0 0 0)
(0 0 0)
(0 0 0)
(0 0 0)
(0 0 0)
(0 0 0)
(0 0 0)
(0 0 0)
(0 0 0)
(0 0 0)
(0 0 0)
(0 0 0)
(0 0 0)
(0 0 0)
(0 0 0)
(0 0 0)
(0 0 0)
(0 0 0)
(0 0 0)
(0 0 0)
(0 0 0)
(0 0 0)
(0 0 0)
(0 0 0)
(0 0 0)
(0 0 0)
(0 0 0)
(0 0 0)
(0 0 0)
(0 0 0)
(0 0 0)
(0 0 0)
(0 0 0)
(0 0 2.51818e-18)
(0 0 0)
(0 0 0)
(0 0 0)
(0 0 0)
(0 0 0)
(0 0 0)
(0 0 0)
(0 0 0)
(0 0 0)
(0 0 0)
(0 0 0)
(0 0 0)
(0 0 3.00422e-15)
(0 0 1.00803e-16)
(0 0 0)
(0 0 0)
(0 0 0)
(0 0 3.0642e-15)
(0 0 0)
(1.46754e-35 0 2.26025e-14)
(0 0 3.1032e-15)
(0 0 -2.41692e-14)
(6.20404e-32 0 -1.40094e-14)
(0 0 0)
(6.59138e-34 0 2.33819e-14)
(1.17596e-33 0 0)
(0 0 0)
(0 0 0)
(0 0 0)
(0 0 0)
(0 0 0)
(0 0 0)
(0 0 0)
(0 0 0)
(0 0 2.50983e-18)
(0 0 0)
(0 0 0)
(0 0 0)
(0 0 0)
(0 0 0)
(0 0 0)
(0 0 0)
(0 0 2.39102e-15)
(0 0 0)
(0 0 -1.96903e-15)
(0 0 0)
(0 0 0)
(9.91182e-30 0 2.32038e-14)
(0 0 0)
(5.39184e-30 0 1.44122e-14)
(0 0 2.57829e-14)
(7.91688e-32 0 -1.53451e-14)
(0 0 0)
(4.15169e-28 0 -1.16828e-16)
(0 0 1.79278e-15)
(0 0 8.01822e-17)
(0 0 0)
(0 0 -2.47306e-15)
(0 0 0)
(0 0 1.8455e-15)
(0 0 0)
(0 0 0)
(0 0 0)
(0 0 0)
(0 0 0)
(0 0 0)
(0 0 0)
(0 0 0)
(0 0 0)
(0 0 2.88464e-18)
(0 0 0)
(0 0 0)
(0 0 0)
(0 0 0)
(0 0 0)
(0 0 2.66457e-15)
(0 0 0)
(0 0 2.27161e-15)
(0 0 0)
(0 0 -1.98353e-15)
(0 0 0)
(0 0 -2.31784e-15)
(0 0 0)
(0 0 1.03086e-16)
(0 0 0)
(0 0 -2.34753e-15)
(0 0 0)
(0 0 2.71879e-15)
(0 0 0)
(0 0 1.77263e-15)
(0 0 0)
(0 0 0)
(0 0 1.31648e-19)
(0 0 -7.43096e-16)
(0 0 5.6843e-21)
(0 0 2.46787e-18)
(0 0 -1.38519e-14)
(0 0 0)
(0 0 0)
(0 0 4.72957e-21)
(0 0 2.35451e-14)
(0 0 6.2783e-20)
(0 0 7.62034e-23)
(0 6.49806e-15 0)
(0 0 0)
(0 -3.99625e-18 0)
(3.4389e-19 0 0)
(0 1.12942e-14 8.91788e-21)
(0 -2.02321e-16 -5.90852e-20)
(0 0 -1.14549e-23)
(0 0 0)
(0 0 0)
(0 0 -1.80855e-20)
(0 0 0)
(0 0 -6.00595e-22)
(0 0 -2.9547e-22)
(0 0 8.38336e-17)
(0 0 0)
(0 0 2.72122e-15)
(0 0 -1.15968e-18)
(0 0 -1.71851e-15)
(0 0 -2.35865e-20)
(0 0 -4.47996e-17)
(0 6.82121e-15 0)
(0 1.06516e-16 6.82121e-15)
(0 6.82121e-15 0)
(0 1.06516e-16 0)
(0 6.82121e-15 0)
(0 1.06516e-16 0)
(0 6.82121e-15 0)
(0 -1.7053e-15 0)
(0 0 0)
(0 0 0)
(0 0 0)
(0 0 -1.22983e-14)
(0 0 0)
(0 6.82121e-15 -7.16199e-16)
(0 0 0)
(0 0 0)
(0 0 0)
(0 0 0)
(0 0 0)
(0 0 0)
(0 0 0)
(0 0 0)
(0 6.82121e-15 0)
(0 0 0)
(0 0 0)
(0 0 0)
(0 0 0)
(0 0 0)
(0 0 0)
(0 0 0)
(0 0 0)
(0 6.82121e-15 0)
(0 0 0)
(0 0 0)
(0 0 0)
(0 3.36592e-16 0)
(0 0 0)
(0 0 0)
(0 0 0)
(0 0 0)
(0 0 0)
(0 0 0)
(0 0 0)
(0 0 0)
(0 0 0)
(0 0 0)
(0 0 0)
(0 0 0)
(0 0 0)
(0 0 0)
(0 0 0)
(0 0 0)
(0 0 0)
(0 0 0)
(0 0 0)
(0 0 0)
(0 0 0)
(0 0 0)
(0 0 0)
(0 0 0)
(0 0 0)
(0 0 0)
(0 0 0)
(0 0 0)
(0 0 0)
(0 0 0)
(0 0 0)
(0 0 0)
(0 0 0)
(0 0 0)
(0 0 0)
(0 0 0)
(0 0 0)
(0 0 0)
(0 0 0)
(0 0 0)
(0 0 0)
(0 0 0)
(0 0 0)
(0 0 0)
(0 0 0)
(0 0 0)
(0 0 0)
(0 0 0)
(0 0 0)
(0 0 0)
(0 0 0)
(0 0 0)
(0 0 0)
(0 0 0)
(0 0 0)
(0 0 0)
(0 0 0)
(0 0 0)
(0 0 0)
(0 0 0)
(0 0 0)
(0 0 0)
(0 0 0)
(0 0 0)
(0 0 0)
(0 0 0)
(0 0 0)
(0 0 0)
(0 0 0)
(0 0 0)
(0 0 0)
(0 0 0)
(0 0 0)
(0 0 0)
(0 0 0)
(0 0 0)
(0 0 0)
(0 0 0)
(0 0 0)
(0 0 0)
(0 0 0)
(0 0 0)
(0 0 0)
(0 0 0)
(0 0 0)
(0 0 0)
(0 0 0)
(0 0 0)
(0 0 0)
(0 0 0)
(0 0 0)
(0 0 0)
(0 0 -3.88102e-20)
(-1.75502e-18 0 -1.90551e-18)
(0 0 -2.65927e-17)
(0 0 -1.05214e-16)
(-1.26306e-26 -7.29307e-17 0)
(5.45227e-44 -7.60057e-17 0)
(0 -7.42391e-17 6.58739e-15)
(0 0 0)
(0 0 0)
(0 0 0)
(0 0 0)
(0 0 2.12709e-16)
(0 0 -2.12709e-16)
(-2.70122e-25 -8.78201e-23 0)
(0 0 0)
(0 0 0)
(0 0 0)
(0 0 0)
(0 0 0)
(0 0 0)
(0 0 0)
(0 0 0)
(0 0 0)
(0 0 0)
(0 0 0)
(0 0 0)
(0 0 0)
(0 0 0)
(0 0 0)
(0 0 0)
(0 -1.67126e-16 0)
(0 0 0)
(0 -7.63616e-32 6.77174e-15)
(0 -2.16229e-20 -6.77174e-15)
(-3.19072e-21 -6.77061e-18 0)
(0 0 0)
(0 0 0)
(0 0 0)
(0 0 0)
(0 0 6.60818e-15)
(0 0 -6.60818e-15)
(-2.70126e-25 0 0)
(0 0 0)
(0 0 0)
(0 0 0)
(0 0 0)
(0 0 0)
(0 0 0)
(0 0 0)
(0 0 0)
(0 0 0)
(0 0 0)
(0 0 0)
(0 0 0)
(0 0 0)
(0 0 0)
(0 0 0)
(0 0 0)
(0 0 0)
(0 0 0)
(0 0 0)
(0 0 0)
(0 0 0)
(0 0 0)
(0 0 0)
(0 0 0)
(0 0 0)
(0 0 0)
(0 0 0)
(0 0 0)
(0 0 -1.20456e-18)
(-1.06182e-16 3.9574e-16 -1.09352e-16)
(0 -2.817e-15 -2.99727e-15)
(0 -3.21274e-15 3.09688e-15)
(0 0 -1.68045e-17)
(0 0 1.49521e-26)
(0 0 6.82121e-15)
(0 1.68343e-27 4.94658e-23)
(0 0 0)
(0 -9.89365e-23 0)
(0 0 0)
(0 0 -1.04309e-16)
(0 0 0)
(0 0 0)
(0 0 0)
(0 0 -2.04182e-20)
(0 0 0)
(0 1.02426e-25 -9.16106e-36)
(0 0 0)
(0 -9.89451e-23 -9.08348e-36)
(0 0 0)
(0 0 0)
(0 0 0)
(0 0 0)
(0 0 3.69749e-23)
(0 0 -5.22869e-23)
(0 0 0)
(0 8.21321e-24 -2.53727e-27)
(0 0 0)
(0 -9.96332e-23 -9.11954e-36)
(0 0 0)
(0 0 0)
(0 0 0)
(0 0 0)
(0 0 1.97608e-16)
(0 0 4.00185e-18)
(0 0 0)
(0 1.57745e-22 1.17661e-27)
(0 0 0)
(0 -1.1116e-22 0)
(0 0 0)
(0 0 0)
(0 0 0)
(0 0 0)
(2.11321e-25 0 -1.27834e-16)
(0 0 1.83103e-18)
(0 0 0)
(0 1.00664e-22 -5.54547e-23)
(0 0 0)
(0 -1.03116e-22 0)
(0 0 0)
(0 0 1.04309e-16)
(0 0 0)
(0 0 0)
(1.9735e-22 0 1.69356e-18)
(0 0 -2.12197e-18)
(0 0 0)
(0 -1.0444e-22 5.48798e-23)
(0 0 0)
(0 0 -1.19091e-22)
(0 0 0)
(0 0 -1.05068e-16)
(0 0 0)
(0 0 -1.21478e-22)
(4.13871e-18 0 2.06621e-16)
(0 1.0376e-24 -2.07661e-18)
(0 0 0)
(0 0 0)
(0 0 0)
(0 -3.74308e-24 0)
(0 0 0)
(0 0 0)
(0 0 0)
(0 0 0)
(0 0 0)
(0 0 0)
(3.28597e-18 0 0)
(0 0 0)
(0 0 0)
(0 0 0)
(0 0 0)
(0 0 0)
(0 0 0)
(0 0 0)
(0 0 0)
(0 0 0)
(0 0 0)
(0 0 0)
(0 0 0)
(0 0 0)
(0 0 0)
(0 0 0)
(0 0 0)
(0 0 0)
(0 0 0)
(0 0 0)
(0 0 0)
(0 0 0)
(0 0 0)
(0 0 0)
(0 0 0)
(0 0 0)
(0 0 0)
(0 0 0)
(0 0 0)
(0 0 0)
(0 0 0)
(0 0 0)
(0 0 0)
(0 0 0)
(0 0 0)
(0 0 0)
(0 0 0)
(0 0 0)
(0 0 0)
(0 0 0)
(0 0 0)
(0 0 0)
(0 0 0)
(1.28472e-26 3.41061e-15 0)
(0 0 0)
(0 0 0)
(0 0 0)
(0 0 6.82121e-15)
(1.4755e-31 0 6.82121e-15)
(0 0 0)
(0 0 6.82121e-15)
(-8.18019e-35 0 0)
(0 0 0)
(0 0 0)
(0 0 0)
(0 0 0)
(0 0 6.82121e-15)
(0 0 -5.84546e-15)
(0 0 6.82121e-15)
(0 0 6.82121e-15)
(0 0 0)
(0 0 0)
(0 0 0)
(0 0 0)
(0 0 0)
(0 0 0)
(0 0 0)
(0 0 0)
(0 0 0)
(0 0 0)
(0 0 0)
(0 0 0)
(0 0 0)
(0 0 0)
(0 0 0)
(0 0 0)
(0 0 0)
(0 0 0)
(0 0 0)
(0 0 0)
(0 0 0)
(0 0 0)
(0 0 0)
(0 0 0)
(0 0 -1.03412e-16)
(-2.61345e-22 3.41061e-15 4.39707e-18)
(0 0 0)
(0 0 0)
(0 0 7.27398e-22)
(0 0 0)
(2.37661e-29 0 0)
(0 0 0)
(0 0 0)
(-3.54199e-32 0 0)
(0 0 0)
(0 0 0)
(0 0 0)
(0 0 0)
(0 0 0)
(0 0 0)
(0 0 0)
(0 0 0)
(0 0 0)
(0 0 0)
(0 0 0)
(0 0 0)
(0 0 0)
(0 0 0)
(0 0 0)
(0 0 0)
(0 0 0)
(0 0 0)
(0 0 0)
(0 0 0)
(0 0 0)
(0 0 0)
(0 0 0)
(0 0 0)
(0 0 0)
(0 0 0)
(0 0 0)
(0 0 0)
(0 0 0)
(0 0 0)
(0 0 0)
(0 0 0)
(0 0 0)
(1.7113e-34 0 -1.02816e-17)
(0 0 3.28245e-15)
(0 0 6.82121e-15)
(0 0 0)
(-6.17016e-20 3.41061e-15 0)
(0 3.41061e-15 -2.02483e-16)
(0 0 0)
(0 0 0)
(0 0 0)
(0 0 -2.0477e-16)
(8.10556e-27 0 0)
(0 0 0)
(0 0 0)
(-1.48825e-29 0 0)
(0 0 0)
(0 0 0)
(0 0 0)
(0 0 0)
(0 0 0)
(0 0 0)
(0 0 0)
(0 0 0)
(0 0 0)
(0 0 0)
(0 0 0)
(0 0 0)
(0 0 0)
(0 0 0)
(0 0 0)
(0 0 0)
(0 0 0)
(0 0 0)
(0 0 0)
(0 0 0)
(0 0 0)
(0 0 0)
(0 0 0)
(0 0 0)
(0 0 0)
(0 0 0)
(0 0 0)
(0 0 0)
(0 0 0)
(0 0 0)
(0 0 0)
(0 0 0)
(0 0 -1.98365e-18)
(-1.16151e-26 0 -4.64041e-18)
(0 0 0)
(0 0 -3.08212e-17)
(0 0 6.82121e-15)
(0 9.60595e-15 1.27246e-14)
(0 6.82121e-15 1.28079e-14)
(0 0 0)
(0 3.41061e-15 0)
(0 3.41061e-15 0)
(0 3.41061e-15 6.60818e-15)
(0 0 0)
(0 0 0)
(0 0 0)
(0 0 0)
(9.00365e-25 0 0)
(0 0 0)
(0 0 0)
(-2.47269e-27 0 0)
(0 0 0)
(0 0 0)
(0 0 0)
(0 0 0)
(0 0 0)
(0 0 0)
(0 0 0)
(0 0 0)
(0 0 0)
(0 0 0)
(0 0 0)
(0 0 0)
(0 0 0)
(0 0 0)
(0 0 0)
(0 0 0)
(0 0 0)
(0 0 0)
(0 0 0)
(0 0 0)
(0 0 0)
(0 0 0)
(0 0 0)
(0 0 0)
(0 0 0)
(0 0 0)
(0 0 0)
(0 0 0)
(0 0 0)
(0 0 0)
(0 0 0)
(0 0 0)
(0 0 -5.13355e-24)
(-1.28079e-14 0 -2.43218e-22)
(0 0 -1.47933e-18)
(0 0 0)
(0 0 0)
(0 0 0)
(0 0 -4.78539e-17)
(0 0 6.82121e-15)
(0 9.60595e-15 1.26979e-14)
(0 6.82121e-15 1.301e-14)
(0 0 0)
(0 3.41061e-15 -2.04152e-18)
(0 3.41061e-15 -4.05495e-18)
(0 3.41061e-15 -3.92958e-18)
(1.21287e-19 3.41061e-15 0)
(0 3.41061e-15 3.418e-21)
(0 3.41061e-15 9.78357e-20)
(0 0 0)
(0 0 0)
(0 0 0)
(0 0 0)
(0 0 0)
(0 0 0)
(0 0 0)
(1.50445e-25 0 0)
(0 0 0)
(0 0 0)
(0 0 0)
(0 0 0)
(0 0 0)
(0 0 0)
(0 0 0)
(0 0 0)
(0 0 0)
(0 0 0)
(0 0 0)
(0 0 0)
(0 0 0)
(0 0 0)
(0 0 0)
(0 0 0)
(0 0 0)
(0 0 0)
(0 0 0)
(0 0 0)
(0 0 0)
(0 0 0)
(0 0 0)
(0 0 0)
(0 0 0)
(0 0 0)
(0 0 0)
(0 0 0)
(0 0 0)
(0 0 0)
(0 0 0)
(0 0 0)
(0 0 0)
(-3.41061e-15 0 -8.30432e-16)
(0 0 -1.98034e-18)
(0 0 0)
(0 0 0)
(0 3.22621e-18 6.6606e-15)
(0 0 0)
(0 0 0)
(0 0 -3.41061e-15)
(0 0 0)
(0 -3.41061e-15 -1.66173e-15)
(0 3.41061e-15 1.65204e-15)
(2.96341e-18 3.41061e-15 3.31566e-15)
(0 3.41061e-15 3.30417e-15)
(0 3.17125e-15 3.09702e-15)
(0 0 0)
(0 0 0)
(0 6.65006e-15 0)
(0 0 -6.82121e-15)
(0 0 0)
(0 0 -6.82121e-15)
(0 7.5853e-36 -3.20421e-18)
(0 0 0)
(0 0 0)
(0 0 0)
(0 0 0)
(0 0 0)
(0 0 0)
(0 0 0)
(9.84178e-23 0 -1.57862e-18)
(0 0 0)
(0 0 0)
(0 0 0)
(0 0 0)
(0 0 0)
(0 0 0)
(0 0 0)
(0 0 0)
(0 0 0)
(0 0 0)
(0 0 0)
(0 0 0)
(0 0 0)
(0 0 0)
(0 0 0)
(0 0 0)
(0 0 0)
(0 0 0)
(0 0 0)
(0 0 0)
(0 0 0)
(0 0 0)
(0 0 0)
(0 0 0)
(0 0 0)
(0 0 0)
(0 0 0)
(0 0 0)
(0 0 0)
(0 0 0)
(0 0 0)
(0 0 0)
(0 0 -5.98993e-18)
(0 0 -2.19787e-16)
(0 -6.65006e-15 -8.52651e-16)
(0 0 -3.41061e-15)
(0 -1.7119e-29 -4.26326e-15)
(0 -1.72075e-18 2.5676e-15)
(0 0 -1.91558e-16)
(0 0 -6.19945e-15)
(0 0 -5.11591e-15)
(0 0 -3.41061e-15)
(0 -2.97794e-26 -5.96856e-15)
(0 -3.60504e-24 8.52651e-16)
(-6.79201e-15 4.12524e-17 8.38987e-16)
(0 0 0)
(0 0 0)
(0 6.65006e-15 0)
(0 0 -6.82121e-15)
(0 0 0)
(0 0 -6.82121e-15)
(0 2.85424e-19 1.04418e-16)
(0 0 0)
(0 0 0)
(0 0 0)
(0 0 0)
(0 0 0)
(0 0 0)
(0 0 0)
(-1.4408e-18 0 6.81993e-15)
(0 0 0)
(0 0 0)
(0 0 0)
(0 0 0)
(0 0 0)
(0 0 0)
(0 0 0)
(0 0 0)
(0 0 0)
(0 0 0)
(0 0 0)
(0 0 0)
(0 0 0)
(0 0 0)
(0 0 0)
(0 0 0)
(0 0 0)
(0 0 0)
(0 0 0)
(0 0 0)
(0 0 0)
(0 0 0)
(0 0 0)
(0 0 0)
(0 0 0)
(0 0 0)
(0 0 0)
(0 0 0)
(0 0 0)
(0 0 0)
(0 0 0)
(0 0 0)
(0 0 0)
(0 0 0)
(0 0 0)
(0 0 0)
(0 0 0)
(0 0 0)
(0 0 0)
(0 0 0)
(0 0 0)
(0 0 0)
(0 0 0)
(0 0 0)
(0 0 0)
(0 0 0)
(0 0 0)
(-2.62501e-18 3.19051e-21 0)
(0 0 0)
(0 0 0)
(0 0 0)
(0 0 0)
(0 0 0)
(0 0 0)
(0 0 0)
(0 0 0)
(0 0 0)
(0 0 0)
(0 0 0)
(0 0 0)
(0 0 0)
(0 0 0)
(0 0 0)
(0 0 0)
(0 0 0)
(0 0 0)
(0 0 0)
(0 0 0)
(0 0 0)
(0 0 0)
(0 0 0)
(0 0 0)
(0 0 0)
(0 0 0)
(0 0 0)
(0 0 0)
(0 0 0)
(0 0 0)
(0 0 0)
(0 0 0)
(0 0 0)
(0 0 0)
(0 0 0)
(0 0 0)
(0 0 0)
(0 0 0)
(0 0 0)
(0 0 0)
(0 0 0)
(0 0 0)
(0 0 0)
(0 0 0)
(0 0 0)
(0 0 0)
(0 0 0)
(0 0 0)
(0 0 0)
(0 0 0)
(0 0 0)
(0 0 0)
(0 0 0)
(0 0 0)
(0 0 0)
(0 0 0)
(0 0 0)
(0 0 0)
(0 0 0)
(0 0 0)
(0 0 0)
(0 0 0)
(0 0 0)
(0 0 0)
(0 0 0)
(0 0 0)
(0 0 0)
(0 0 0)
(0 0 0)
(0 0 0)
(0 0 0)
(0 0 0)
(0 0 0)
(0 0 0)
(0 0 0)
(0 0 0)
(0 0 0)
(0 0 0)
(0 0 0)
(0 0 0)
(0 0 0)
(0 0 0)
(0 0 0)
(0 0 0)
(0 0 0)
(0 0 0)
(0 0 0)
(0 0 0)
(0 0 0)
(0 0 0)
(0 0 0)
(0 0 0)
(0 0 0)
(0 0 0)
(0 0 0)
(0 0 0)
(0 0 0)
(0 0 0)
(0 0 0)
(0 0 0)
(0 0 0)
(0 0 0)
(0 0 0)
(0 0 0)
(0 0 0)
(0 0 0)
(0 0 0)
(0 0 0)
(0 0 0)
(0 0 0)
(0 0 0)
(0 0 0)
(0 0 0)
(0 0 0)
(0 0 0)
(0 0 0)
(0 0 0)
(0 0 0)
(0 0 0)
(0 0 0)
(0 0 0)
(0 0 0)
(0 0 0)
(0 0 0)
(0 0 0)
(0 0 0)
(0 0 0)
(0 0 0)
(0 0 0)
(0 0 0)
(0 0 0)
(0 0 0)
(0 0 0)
(0 0 0)
(0 0 0)
(0 0 0)
(0 0 0)
(0 0 0)
(0 0 0)
(0 0 0)
(0 0 0)
(0 0 0)
(0 0 0)
(0 0 0)
(0 0 0)
(0 0 0)
(0 0 0)
(0 0 0)
(0 0 0)
(0 0 0)
(0 0 0)
(0 0 0)
(0 0 0)
(0 0 0)
(0 0 0)
(0 0 0)
(0 0 0)
(0 0 0)
(0 0 0)
(0 0 0)
(0 0 -4.15671e-16)
(5.04014e-31 0 -1.51731e-17)
(-6.82121e-15 0 -4.14844e-16)
(0 0 -3.43152e-16)
(-6.40418e-15 0 6.13296e-15)
(0 0 1.32821e-15)
(0 0 0)
(0 0 0)
(-2.70061e-15 0 6.16075e-15)
(0 0 -2.37358e-17)
(-6.82121e-15 0 -3.00173e-17)
(0 0 0)
(-6.41969e-15 0 -5.18122e-15)
(6.68912e-26 0 -2.70135e-18)
(-6.82121e-15 0 0)
(0 0 -3.66853e-16)
(-6.40436e-15 0 5.69146e-15)
(0 0 1.82421e-14)
(0 0 0)
(0 0 -9.75929e-17)
(0 0 -1.58329e-14)
(0 0 0)
(0 0 0)
(0 0 0)
(0 0 0)
(0 0 0)
(0 0 0)
(0 6.82121e-15 -1.07846e-14)
(0 6.82121e-15 -8.34489e-16)
(0 0 0)
(0 0 0)
(0 0 -1.36424e-14)
(0 0 0)
(0 0 8.52651e-15)
(0 0 6.82121e-15)
(0 0 0)
(0 0 0)
(0 0 1.02893e-14)
(0 7.78267e-16 9.50943e-15)
(0 0 6.82121e-15)
(0 1.08805e-14 0)
(0 0 -1.69102e-14)
(0 0 0)
(0 0 0)
(0 -7.54652e-16 6.82121e-15)
(0 -1.16102e-14 3.24592e-16)
(0 3.29522e-21 1.02318e-14)
(-1.36424e-14 1.16102e-14 1.02318e-14)
(0 9.60595e-15 0)
(0 6.82121e-15 -7.38397e-16)
(0 0 0)
(0 0 -2.23081e-17)
(0 0 0)
(0 0 0)
(0 0 1.59969e-14)
(0 0 0)
(0 0 8.0558e-19)
(0 0 -1.34446e-14)
(0 0 -1.76248e-14)
(0 6.82121e-15 9.17266e-20)
(0 0 0)
(0 0 0)
(0 6.48866e-15 -1.1408e-14)
(0 6.82121e-15 0)
(0 0 0)
(0 0 0)
(0 0 -5.72171e-17)
(0 0 0)
(0 0 0)
(0 0 -6.66049e-22)
(0 0 -1.4193e-15)
(0 0 1.82812e-14)
(0 0 0)
(0 -1.21891e-14 8.52651e-15)
(0 -1.234e-14 0)
(0 1.23603e-14 8.52651e-15)
(0 1.23402e-14 1.02318e-14)
(0 0 -1.84416e-15)
(0 0 0)
(0 0 0)
(0 0 3.29029e-16)
(0 0 0)
(0 0 9.54518e-17)
(0 0 2.15637e-15)
(0 0 0)
(0 0 -2.35328e-15)
(0 0 1.21538e-14)
(0 0 1.0964e-16)
(0 0 0)
(0 0 -2.40815e-14)
(0 0 1.32716e-15)
(0 0 0)
(0 0 -1.0556e-16)
(0 0 0)
(0 0 0)
(0 0 0)
(0 0 0)
(0 0 0)
(0 0 1.23892e-14)
(0 0 2.95886e-18)
(0 0 -9.33544e-16)
(0 0 0)
(0 0 0)
(0 0 0)
(0 0 -1.23902e-14)
(0 0 0)
(0 0 0)
(0 0 2.90876e-17)
(0 0 0)
(0 0 1.08118e-18)
(0 0 0)
(0 0 0)
(0 0 0)
(0 0 1.03196e-16)
(0 0 0)
(0 0 -2.34328e-15)
(0 0 0)
(0 0 2.69508e-15)
(0 0 0)
(0 0 0)
(0 0 0)
(0 0 0)
(0 0 0)
(0 0 0)
(0 0 0)
(0 0 0)
(0 0 0)
(0 0 0)
(0 0 0)
(0 0 0)
(0 0 0)
(0 0 0)
(0 0 0)
(0 0 0)
(0 0 0)
(0 0 0)
(0 0 0)
(0 0 0)
(0 0 0)
(0 0 0)
(0 0 0)
(0 0 0)
(0 0 0)
(0 0 0)
(0 0 0)
(0 0 0)
(0 0 0)
(0 0 1.36932e-15)
(0 0 0)
(0 0 0)
(0 0 3.43677e-16)
(0 0 0)
(0 0 -2.49846e-18)
(0 0 2.25493e-15)
(0 0 2.05704e-18)
(0 0 0)
(0 0 0)
(0 0 1.71979e-17)
(0 0 0)
(0 0 8.08812e-19)
(0 0 1.07564e-17)
(0 0 -3.45337e-16)
(0 0 0)
(0 0 0)
(0 0 2.04192e-15)
(0 0 0)
(0 0 -2.80311e-15)
(0 0 3.41754e-16)
(0 0 -1.50894e-14)
(0 0 0)
(0 0 0)
(0 0 1.66459e-14)
(0 0 2.32038e-14)
(0 0 2.26398e-15)
(0 0 2.00268e-15)
(0 0 -2.76606e-15)
(0 0 1.60929e-14)
(0 0 0)
(0 0 -2.07995e-14)
(0 0 -1.53272e-14)
(0 0 -1.59208e-14)
(0 0 4.19208e-15)
(0 0 -1.932e-15)
(0 0 1.80712e-14)
(0 0 1.79807e-14)
(0 0 4.26896e-15)
(0 0 0)
(0 0 0)
(0 0 3.41061e-15)
(0 0 0)
(0 9.43099e-15 1.36424e-14)
(0 3.41061e-15 0)
(0 0 -1.00068e-16)
(0 0 0)
(0 0 -3.26389e-15)
(0 0 -6.82121e-15)
(0 9.43099e-15 1.19664e-14)
(0 3.41061e-15 6.01855e-20)
(0 6.41024e-15 -6.70286e-16)
(0 0 0)
(-6.40397e-15 0 0)
(0 0 0)
(0 0 0)
(-6.40397e-15 0 5.69543e-15)
(0 0 1.71466e-14)
(0 0 -1.60844e-14)
(0 0 0)
(0 0 0)
(0 6.48565e-15 -1.13883e-14)
(0 0 0)
(0 0 0)
(0 0 -3.12859e-18)
(-6.40397e-15 0 -5.19443e-15)
(0 0 2.35055e-17)
(0 0 3.88379e-16)
(-6.40416e-15 0 6.49389e-15)
(0 0 1.83846e-14)
(0 0 -1.52097e-14)
(0 0 0)
(0 0 1.70988e-17)
(0 0 0)
(0 6.40397e-15 -1.06898e-14)
(0 6.82121e-15 -7.36535e-16)
(0 0 0)
(0 0 0)
(-6.41991e-15 0 -6.73191e-15)
(0 0 1.80088e-14)
(0 0 0)
(0 6.82121e-15 7.70636e-16)
(0 0 9.94117e-19)
(0 0 3.12752e-17)
(0 0 0)
(0 0 0)
(0 0 0)
(0 0 0)
(0 0 0)
(0 0 0)
(0 0 0)
(0 0 1.51129e-19)
(0 0 0)
(0 0 6.07823e-18)
(0 0 5.51843e-17)
(0 0 8.69427e-17)
(0 0 1.52925e-18)
(0 0 3.57249e-18)
(-1.56447e-16 0 -5.96756e-21)
(-5.11346e-18 0 0)
(-3.57614e-25 0 0)
(-6.82121e-15 0 1.27681e-16)
(0 0 -2.30363e-19)
(0 0 -5.5386e-21)
(-6.82121e-15 0 3.48693e-17)
(0 0 0)
(-6.41958e-15 0 -5.60928e-15)
(0 0 -7.16051e-18)
(0 0 -1.93426e-19)
(0 0 -3.49208e-16)
(0 0 -1.35032e-17)
(0 0 1.12671e-14)
(0 0 2.25415e-14)
(0 0 -1.22902e-15)
(0 0 0)
(0 0 -1.61441e-16)
(0 0 -2.208e-15)
(0 0 -1.83165e-14)
(0 6.82121e-15 0)
(0 0 0)
(0 0 0)
(0 0 -1.03144e-14)
(0 0 -1.26872e-15)
(0 0 -6.51314e-16)
(0 0 -9.78135e-17)
(0 6.82121e-15 0)
(0 0 0)
(0 0 0)
(0 0 -1.02406e-14)
(0 8.34489e-16 -6.25707e-16)
(0 0 -6.6031e-16)
(0 0 -5.55905e-17)
(0 0 -3.50586e-16)
(0 0 -1.58728e-17)
(0 0 0)
(0 0 0)
(0 0 3.92e-16)
(0 0 -3.68928e-16)
(0 0 -5.68662e-15)
(0 0 0)
(0 0 -4.8187e-28)
(0 0 -1.29759e-29)
(0 0 0)
(0 0 0)
(0 0 -5.53948e-26)
(0 0 -1.33163e-27)
(0 0 6.82121e-15)
(0 6.0932e-16 0)
(0 1.04058e-17 0)
(0 0 2.32445e-20)
(0 0 -1.6783e-22)
(0 0 2.48316e-20)
(0 0 4.58531e-22)
(0 0 0)
(0 1.58765e-19 0)
(0 4.1084e-21 0)
(0 0 -6.03374e-24)
(0 0 -1.3577e-25)
(0 0 -6.89241e-26)
(0 0 -1.7718e-27)
(0 0 0)
(0 0 0)
(0 0 0)
(0 0 0)
(0 0 0)
(0 0 0)
(0 0 0)
(0 0 0)
(0 0 9.34935e-16)
(0 0 1.95891e-15)
(0 0 -1.55644e-14)
(0 0 7.22516e-17)
(0 0 0)
(0 0 0)
(0 0 0)
(0 0 1.77212e-14)
(0 0 -1.42171e-14)
(0 0 -3.9574e-16)
(0 0 1.92751e-14)
(0 0 0)
(0 0 0)
(0 0 1.0996e-14)
(0 0 -6.3014e-15)
(0 0 0)
(0 0 9.26154e-15)
(0 0 -2.69623e-16)
(0 0 1.22647e-15)
(0 0 1.22647e-15)
(0 0 0)
(0 0 0)
(0 0 0)
(0 0 0)
(0 0 0)
(0 0 0)
(0 0 0)
(0 0 0)
(0 0 0)
(0 0 0)
(0 0 0)
(0 0 0)
(0 0 0)
(0 0 0)
(0 0 1.92872e-14)
(0 0 2.01793e-15)
(0 0 0)
(0 0 -2.5876e-15)
(0 0 -1.55021e-14)
(0 0 -1.94556e-14)
(0 0 -2.45965e-15)
(0 0 0)
(0 0 0)
(0 0 0)
(0 0 0)
(0 0 0)
(0 0 0)
(0 0 0)
(0 0 0)
(0 0 3.36209e-15)
(0 0 1.9787e-15)
(0 0 -1.61778e-14)
(0 0 0)
(0 0 0)
(0 0 0)
(0 0 0)
(0 0 1.71108e-14)
(0 0 -1.58774e-14)
(0 0 -3.93637e-16)
(0 0 1.84836e-14)
(0 0 0)
(0 0 0)
(0 0 0)
(0 0 1.01503e-15)
(0 0 1.88152e-15)
(0 0 -1.50518e-14)
(0 0 8.50542e-17)
(0 0 0)
(0 0 0)
(0 0 0)
(0 0 1.8073e-14)
(0 0 -1.471e-14)
(0 0 0)
(0 0 1.88793e-14)
(0 0 0)
(0 0 0)
(0 0 -1.97869e-14)
(0 0 -1.90695e-14)
(0 0 0)
(0 0 0)
(0 0 1.83069e-14)
(0 0 1.84516e-16)
(0 0 2.54785e-15)
(0 6.82121e-15 1.09639e-14)
(1.95918e-37 6.82121e-15 1.09639e-14)
(0 6.82121e-15 0)
(0 3.41061e-15 6.82121e-15)
(4.27304e-30 3.41061e-15 6.82121e-15)
(0 3.41061e-15 6.82121e-15)
(0 6.82121e-15 1.301e-14)
(1.36839e-32 6.82121e-15 1.301e-14)
(0 6.82121e-15 0)
(0 3.41061e-15 0)
(7.53301e-28 3.41061e-15 0)
(0 3.41061e-15 0)
(0 6.82121e-15 1.36424e-14)
(2.58665e-28 6.82121e-15 1.301e-14)
(0 6.82121e-15 0)
(2.92588e-25 3.41061e-15 0)
(0 3.41061e-15 0)
(0 6.82121e-15 0)
(0 3.41061e-15 0)
(0 0 0)
(0 0 0)
(0 3.27003e-16 1.81481e-19)
(0 6.82121e-15 0)
(0 0 -9.9786e-20)
(0 0 6.40397e-15)
(0 0 0)
(0 0 0)
(0 0 0)
(0 0 0)
(0 0 0)
(0 0 0)
(0 0 0)
(0 0 0)
(0 0 0)
(0 0 0)
(0 0 0)
(0 0 0)
(0 0 0)
(0 0 0)
(0 6.82121e-15 0)
(0 6.82121e-15 0)
(0 6.82121e-15 0)
(0 0 0)
(0 0 0)
(0 6.82121e-15 -1.07541e-14)
(0 6.82121e-15 0)
(0 0 0)
(0 0 0)
(0 6.82121e-15 0)
(1.08862e-35 0 0)
(0 0 0)
(1.22086e-35 6.82121e-15 -1.07541e-14)
(0 6.82121e-15 0)
(1.29515e-33 0 0)
(0 0 0)
(0 6.82121e-15 0)
(0 0 0)
(0 0 0)
(0 6.82121e-15 0)
(0 0 0)
(0 0 0)
(0 0 0)
(0 0 0)
(0 0 0)
(0 0 0)
(0 0 0)
(0 0 0)
(0 0 0)
(0 0 0)
(0 0 0)
(0 0 0)
(0 0 0)
(0 6.82121e-15 0)
(0 6.82121e-15 0)
(0 0 0)
(0 0 0)
(0 6.82121e-15 -1.13349e-14)
(0 6.82121e-15 0)
(0 0 0)
(0 0 0)
(0 6.82121e-15 0)
(3.49407e-31 0 0)
(0 0 0)
(1.07368e-30 6.82121e-15 -1.06847e-14)
(0 6.82121e-15 0)
(8.51796e-29 0 0)
(0 0 0)
(0 0 0)
(0 0 0)
(0 6.82121e-15 0)
(0 0 0)
(0 0 0)
(0 0 0)
(0 0 0)
(0 0 0)
(0 0 0)
(0 0 0)
(0 0 0)
(0 0 0)
(0 0 0)
(0 6.82121e-15 0)
(0 0 0)
(0 0 0)
(0 6.82121e-15 0)
(1.85633e-26 0 0)
(0 0 0)
(0 6.82121e-15 0)
(0 6.82121e-15 0)
(3.56753e-24 0 0)
(0 0 0)
(0 0 0)
(0 0 0)
(0 6.82121e-15 0)
(0 0 0)
(0 0 0)
(0 0 0)
(0 0 0)
(0 0 0)
(0 0 0)
(0 0 0)
(0 0 0)
(0 6.82121e-15 0)
(0 0 0)
(0 6.5118e-15 0)
(0 0 0)
(0 0 0)
(0 0 0)
(0 6.8157e-15 0)
(0 6.82121e-15 0)
(0 0 0)
(0 0 0)
(0 6.82121e-15 0)
(0 0 0)
(0 0 0)
(0 1.39807e-15 6.82121e-15)
(0 1.08805e-14 0)
(0 0 0)
(0 0 0)
(-1.36424e-14 1.1201e-14 1.25632e-14)
(0 -1.234e-14 6.82121e-15)
(0 1.28079e-14 3.43349e-15)
(0 0 0)
(0 0 0)
(0 0 0)
(0 1.09104e-14 0)
(0 0 6.82121e-15)
(0 6.71822e-16 1.02318e-14)
(-1.16102e-14 -3.80876e-19 1.02318e-14)
(0 0 0)
(6.85664e-16 0 0)
(1.0966e-14 -1.23596e-14 1.02318e-14)
(0 -3.92028e-17 -1.04781e-16)
(0 0 0)
(0 -4.66866e-18 0)
(0 0 -1.4048e-15)
(0 0 1.6327e-14)
(0 0 0)
(0 -1.16102e-14 4.94675e-16)
(0 1.16102e-14 8.16352e-15)
(0 0 5.8434e-17)
(0 0 0)
(0 0 0)
(0 0 -1.67032e-15)
(0 0 0)
(0 0 -6.76914e-17)
(0 0 1.68256e-15)
(0 0 -3.44311e-19)
(0 0 0)
(0 0 0)
(0 0 -8.61378e-17)
(0 0 0)
(0 0 -1.12399e-17)
(0 0 -2.2774e-18)
(0 0 0)
(0 0 0)
(0 0 0)
(0 0 0)
(0 0 0)
(0 0 0)
(0 0 0)
(0 0 0)
(0 0 0)
(0 0 0)
(0 0 0)
(0 0 0)
(0 0 0)
(0 0 0)
(0 0 0)
(0 0 0)
(0 0 0)
(0 0 0)
(0 0 0)
(0 0 0)
(0 0 0)
(0 0 0)
(0 0 0)
(0 0 0)
(0 0 0)
(0 0 0)
(0 0 0)
(0 0 0)
(0 0 0)
(0 0 0)
(0 0 0)
(0 0 0)
(0 0 0)
(0 0 0)
(0 0 0)
(0 0 0)
(0 0 0)
(0 0 0)
(0 0 0)
(0 0 0)
(0 0 0)
(0 0 0)
(0 0 0)
(0 0 0)
(0 0 0)
(0 0 0)
(0 0 0)
(0 0 0)
(0 0 0)
(0 0 0)
(0 0 0)
(0 0 0)
(0 0 0)
(0 0 0)
(0 0 0)
(0 0 0)
(0 0 0)
(0 0 0)
(0 0 0)
(0 0 0)
(0 0 0)
(0 0 0)
(0 0 0)
(0 0 0)
(0 0 0)
(0 0 0)
(0 0 0)
(0 0 0)
(0 0 0)
(0 0 0)
(0 0 0)
(0 0 0)
(0 0 0)
(0 0 0)
(0 0 0)
(0 0 0)
(0 0 0)
(0 0 0)
(0 0 0)
(0 0 0)
(0 0 0)
(0 0 0)
(0 0 0)
(0 0 0)
(0 0 0)
(0 0 0)
(0 0 0)
(0 0 0)
(0 0 0)
(0 0 0)
(0 0 0)
(0 0 0)
(0 0 0)
(0 0 0)
(0 0 0)
(0 0 0)
(0 0 0)
(0 0 0)
(0 0 0)
(0 0 0)
(0 0 0)
(0 0 0)
(0 0 0)
(0 0 0)
(0 0 0)
(0 0 0)
(0 0 0)
(0 0 0)
(0 0 0)
(0 0 0)
(0 0 0)
(0 0 0)
(0 0 0)
(0 0 0)
(0 0 0)
(0 0 0)
(0 0 0)
(0 0 0)
(0 0 0)
(0 0 0)
(0 0 0)
(0 0 0)
(0 0 0)
(0 0 0)
(0 0 0)
(0 0 0)
(0 0 0)
(0 0 0)
(0 0 0)
(0 0 0)
(0 0 0)
(0 0 0)
(0 0 0)
(0 0 0)
(0 0 0)
(0 0 0)
(0 0 0)
(0 0 0)
(0 0 0)
(0 0 0)
(0 0 0)
(0 0 0)
(0 0 0)
(0 0 0)
(0 0 0)
(0 0 0)
(0 0 0)
(0 0 0)
(0 0 0)
(0 0 0)
(0 0 0)
(0 0 0)
(0 0 0)
(0 0 0)
(0 0 0)
(0 0 0)
(0 0 0)
(0 0 0)
(0 0 0)
(0 0 0)
(0 0 0)
(0 0 0)
(0 0 0)
(0 0 0)
(0 0 0)
(0 0 0)
(0 0 0)
(0 0 0)
(0 0 0)
(0 0 0)
(0 0 0)
(0 0 0)
(0 0 0)
(0 0 0)
(0 0 0)
(0 0 0)
(0 0 0)
(0 0 0)
(0 0 0)
(0 0 0)
(0 0 0)
(0 0 0)
(0 0 0)
(0 0 0)
(0 0 0)
(0 0 0)
(0 0 0)
(0 0 0)
(0 0 0)
(0 0 0)
(0 0 0)
(0 0 0)
(0 0 0)
(0 0 0)
(0 0 0)
(0 0 0)
(0 0 0)
(0 0 0)
(8.49621e-28 0 0)
(3.84189e-27 0 0)
(0 0 0)
(0 0 0)
(3.94332e-29 0 0)
(0 0 0)
(0 0 0)
(0 0 0)
(0 0 0)
(0 0 0)
(0 0 0)
(0 0 0)
(0 0 0)
(0 0 0)
(0 0 0)
(0 0 0)
(0 0 0)
(0 0 0)
(0 0 0)
(0 0 0)
(0 0 0)
(0 0 0)
(0 0 0)
(0 0 0)
(0 0 0)
(0 0 0)
(0 0 0)
(0 0 0)
(0 0 0)
(0 0 0)
(0 0 0)
(0 0 0)
(0 0 0)
(0 0 0)
(0 0 0)
(0 0 0)
(0 0 0)
(0 0 0)
(0 0 0)
(0 0 0)
(0 0 0)
(0 0 0)
(0 0 0)
(0 0 0)
(0 0 0)
(0 0 0)
(0 0 0)
(0 0 0)
(0 0 0)
(0 0 0)
(0 0 0)
(0 0 0)
(0 0 0)
(0 0 0)
(0 0 0)
(0 0 0)
(0 0 0)
(0 0 0)
(0 0 0)
(0 0 0)
(0 0 0)
(0 0 0)
(0 0 0)
(0 0 0)
(0 0 0)
(0 0 0)
(0 0 0)
(0 0 0)
(0 0 1.06651e-15)
(0 0 0)
(0 0 0)
(0 0 -1.65115e-15)
(0 0 0)
(0 0 -2.45204e-16)
(0 0 -2.16879e-16)
(0 0 1.34816e-15)
(0 0 -1.4654e-14)
(0 0 0)
(0 0 2.18057e-15)
(0 0 0)
(0 0 2.12056e-14)
(0 0 1.94576e-16)
(0 0 -1.0219e-14)
(0 0 0)
(0 0 0)
(0 0 -3.73169e-16)
(0 0 1.36424e-14)
(0 0 -5.12857e-15)
(0 0 -1.14006e-17)
(0 0 2.31522e-22)
(0 0 0)
(0 0 0)
(0 0 -1.46725e-18)
(0 0 0)
(0 0 -1.19161e-20)
(0 0 -1.21406e-20)
(0 0 -2.79835e-15)
(0 0 1.41944e-14)
(0 0 0)
(0 0 -2.33819e-14)
(0 0 2.12215e-15)
(0 0 -1.57334e-14)
(0 0 -1.60585e-14)
(0 0 1.80954e-14)
(0 0 -3.74808e-15)
(0 0 1.53557e-14)
(0 0 -1.54015e-14)
(-1.84015e-23 -3.21274e-15 3.29964e-15)
(7.36551e-41 -3.21272e-15 3.08903e-15)
(0 3.41061e-15 -6.43199e-15)
(1.65872e-20 6.82121e-15 0)
(9.78628e-23 3.41061e-15 0)
(2.49901e-21 0 0)
(0 8.28806e-16 0)
(0 0 -2.52868e-16)
(0 0 -6.40397e-15)
(0 0 0)
(0 0 0)
(0 6.82121e-15 -1.13918e-14)
(0 6.82121e-15 0)
(0 0 -1.07887e-15)
(0 0 -3.91737e-16)
(0 0 0)
(0 0 0)
(5.63516e-19 0 0)
(0 6.82121e-15 0)
(5.93921e-22 0 0)
(8.13804e-19 6.82121e-15 -1.36424e-14)
(3.51615e-20 0 0)
(1.00942e-23 0 0)
(8.52091e-19 1.26493e-14 1.02893e-14)
(2.6473e-17 -1.234e-14 0)
(0 0 9.43272e-16)
(7.71144e-27 0 0)
(0 0 0)
(4.08967e-25 0 -5.3635e-15)
(0 0 0)
(6.49018e-16 0 4.46934e-15)
(1.10003e-14 0 1.02318e-14)
(0 0 0)
(0 0 -1.26283e-15)
(0 0 0)
(0 0 0)
(0 0 0)
(0 0 0)
(0 0 0)
(0 0 0)
(0 0 0)
(0 0 0)
(0 0 0)
(0 0 0)
(0 0 0)
(0 0 0)
(0 0 0)
(0 0 0)
(0 0 0)
(0 0 0)
(0 0 0)
(0 0 0)
(0 0 0)
(6.23376e-25 0 0)
(9.24284e-26 0 0)
(4.17339e-25 0 0)
(0 0 0)
(4.79352e-27 0 0)
(8.86352e-24 0 0)
(1.64523e-23 0 0)
(3.97648e-23 0 0)
(0 0 0)
(5.70297e-20 0 0)
(3.93486e-20 0 0)
(7.72319e-22 0 0)
(1.36849e-21 0 0)
(6.75268e-22 0 0)
(0 0 1.07673e-14)
(3.31987e-25 0 0)
(0 0 0)
(8.21856e-22 0 0)
(0 0 -1.34446e-14)
(3.04762e-23 0 0)
(0 0 0)
(0 0 0)
(1.06606e-19 0 0)
(4.6338e-20 0 0)
(0 0 0)
(0 0 0)
(2.1732e-18 0 0)
(0 0 0)
(0 0 2.62646e-20)
(0 0 0)
(0 6.42133e-15 0)
(0 6.82121e-15 0)
(0 0 0)
(0 7.99759e-16 2.31017e-17)
(0 0 1.03165e-18)
(0 0 0)
(0 1.28079e-14 5.56652e-16)
(0 0 2.31018e-17)
(0 -5.7783e-16 0)
(0 0 -6.57086e-18)
(0 0 2.27756e-17)
(0 -1.39634e-24 -3.78737e-16)
(0 0 3.91598e-16)
(0 -3.73724e-21 0)
(0 -1.71305e-22 -2.36045e-21)
(0 -1.77121e-21 2.49309e-25)
(0 -2.32506e-19 2.00316e-17)
(0 0 3.50297e-16)
(0 0 0)
(0 -1.63772e-17 0)
(0 0 -1.72303e-21)
(0 2.75867e-33 3.20227e-23)