/*--------------------------------*- C++ -*----------------------------------*\
  =========                 |
  \\      /  F ield         | OpenFOAM: The Open Source CFD Toolbox
   \\    /   O peration     | Website:  https://openfoam.org
    \\  /    A nd           | Version:  9
     \\/     M anipulation  |
\*---------------------------------------------------------------------------*/
FoamFile
{
    format      ascii;
    class       volScalarField;
    location    "0.00055";
    object      overpressure;
}
// * * * * * * * * * * * * * * * * * * * * * * * * * * * * * * * * * * * * * //

dimensions      [1 -1 -2 0 0 0 0];

internalField   nonuniform List<scalar> 
5975
(
0
0
0
0
0
0
0
0
0
0
0
0
0
0
0
0
0
0
0
0
0
0
0
0
0
0
0
0.208225
6.45435e-05
0.000466603
2.22919e-06
0.00869593
0.32578
0.245178
0.00918508
0.000487662
0.00021154
0.000419688
0.000300778
0.0672731
0.00173833
0.00319556
0.00154516
7.58801e-05
0.00047268
2.78844e-05
0.000142926
3.18103e-05
5.85429e-06
6.02876e-06
8.87377e-05
8.26549e-09
3.37604e-09
9.02219e-09
4.25222e-07
4.49014e-07
3.52738e-08
2.18279e-09
1.78406e-08
8.70205e-09
2.25034e-06
4.55475e-09
3.88536e-09
7.79983e-09
5.47006e-08
2.30022e-07
1.40004e-07
1.08455e-07
5.54428e-09
3.84171e-09
2.25453e-07
3.67407e-07
5.17466e-08
2.12865e-07
1.25653e-06
1.46346e-06
1.98052e-07
2.73852e-07
8.27422e-08
0
0
0
0
0
0
0
0
0
0
0
0
0
0
0
0
0
0
0
0
0
0
0
0
0
0
0
0
0
0
0
0
0
0
0
0
0
0
0
5.82077e-11
1.89175e-10
1.45519e-11
0
0
0
0
0
0
0
2.91038e-11
8.73115e-11
7.27596e-11
0
0
0
0
1.06788e-05
2.21189e-09
1.13068e-08
1.64437e-09
3.01225e-09
3.31784e-09
3.86935e-08
8.91014e-08
9.62609e-08
6.10016e-08
0.838482
0.000166243
7.40566e-05
1.13048e-06
6.42161e-07
0.0208351
0.002003
0.00100293
0.00135857
0.000867239
4.17474e-05
2.23083e-05
9.82283e-07
7.66063e-05
2.51962e-06
4.84328e-05
2.66751e-06
2.50409e-05
1.77372e-06
1.57245e-06
0.000140751
6.16572e-06
0.000102305
4.38825e-06
4.75502e-05
3.35963e-06
0
0
0
0
0
0
0
0
0
0
0
0
0
0
0
0
0
0
0
0
0
0
0
0
0
0
0
0
0
0
0
0
0
0
0
0
0
0
0
0
0
0
0
0
0
0
0
0
0
0
0
0
0
0
0
0
0
0
0
0
0
0
0
0
0
0
0
0
0
0
0
0
0
0
0
0
0
0
0
0
0
0
0
0
0
0
0
0
0
0
0
0
0
0
0
0
0
0
0
0
0
0
0
0
0
0
0
0
0
0
0
0
0
0
0
0
0
0
0
0
0
0
0
0
0
0
0
0
0
0
0
0
0
0
0
0
0
0
0
0
0
0
0
0
0
0
0
0
0
0
0
0
0
0
0
0
0
0
0
0
0
0
0
0
0
0
0
0
0
0
0
0
0
0
0
0
0
0
0
0
0
0
0
0
0
0
0
0
0
0
0
0
0
0
0
0
0
0
0
0
0
0
0
0
0
0
0
0
0
0
0
0
0.0176086
13.174
0.00226619
0.00266054
56.3817
498.256
0.0310364
0.11996
10.0046
0.324518
0.246909
0.00933139
0.00283609
0.00760247
39819.5
7278.42
12.2859
2.59419
9034.13
284172
326506
1.07637e+06
161043
1.03178e+06
138059
1.07469e+06
13.3243
493.735
59.2276
0.00728151
0.000559822
9.67533
0.325526
0.235099
261.293
16853.7
365.139
11.1422
12766.6
346.392
8.20268
5.23891
0.24018
0.139758
0.00392779
6.99201
0.174944
0.103897
0.00776902
0.000158904
0.00534983
6990.77
1.02076e+06
325518
160376
276523
133676
8986.17
1693.25
704622
91493.2
4260.81
195159
913289
89346.5
11.2506
348.809
16973.9
273.584
13380.6
384.918
8.64707
3209.03
170.005
3.25024
130.78
46.4907
2533.55
2.48059
1.62604
73.2448
2850.04
151.238
7555.13
206.397
4.58353
0.570393
1.46228
28.8397
30.9736
683.208
78.0228
1579.88
48.2921
3.27972
59.5863
3228.27
170.985
136.24
2634.17
0.0190164
0.0192102
0.150239
0.251837
7.01384
5.46105
0.195741
0.0186725
0.0570337
0.134942
0.0574723
1.75953
5.13984
0.136554
0.066213
0.0114267
0.013093
1.09677
0.0436895
2.9626
0.104515
6.74336e-08
2.11003e-09
6.8394e-10
0
0
0
0.000147024
4.89353e-06
2.41984e-07
0.000133863
0.00180299
0.00122806
0.000106049
0.000356116
0.000229866
0.000101629
2.87781e+06
185062
9025.65
3.67689e+06
1.51693e+06
1.50796e+06
1.38439e+06
122852
1.12278e+06
755866
40.3874
482.897
3.05053e+06
1.86973e+06
2.00542e+06
867428
1.43907e+06
731342
1.41022e+06
1.11592e+06
1.50237e+06
1.61064e+06
124511
377749
453524
1.27509e+06
555725
1.34692e+06
478147
1.24055e+06
527778
1.53399e+06
3.20025e+06
2.51635e+06
2.68587e+06
2.42158e+06
1.65849e+06
2.34249e+06
813316
1.97151e+06
1.38516e+06
588169
1.81604e+06
903705
512168
361560
1.28521e+06
1.03496e+06
240419
1.18524e+06
424535
199887
4499.22
681009
60071.5
233689
46020.8
194255
5859.34
232.135
14489
368.989
11.113
11110.6
305.75
8.38602
1.23318e+06
1.12313e+06
757660
1.38528e+06
1.7621e+06
1.45179e+06
1.82361e+06
694797
643014
597322
1.20145e+06
1.26678e+06
1.20993e+06
1.26466e+06
3.04422e+06
3.06002e+06
1.79945e+06
3.31606e+06
3.26194e+06
2.31126e+06
2.32887e+06
1.60649e+06
1.60456e+06
1.24461e+06
1.0421e+06
1.40529e+06
1.54498e+06
1.91891e+06
1.39513e+06
1.06082e+06
1.05299e+06
880524
862349
1.36737e+06
1.34356e+06
881963
1.05873e+06
804845
1.45363e+06
1.3128e+06
1.46537e+06
1.35096e+06
3.19991e+06
2.44106e+06
2.12606e+06
1.98422e+06
3.03652e+06
3.23352e+06
2.38081e+06
1.40447e+06
1.15368e+06
1.33854e+06
1.2144e+06
1.00521e+06
1.46102e+06
1.40151e+06
714730
374198
1.54527e+06
1.23042e+06
1.58804e+06
519607
1.19586e+06
648669
237117
182388
373358
101290
499444
409874
64506.3
173882
-20472.5
-7557.26
97854.8
155727
135602
110790
-34527.2
-30035
-26561.2
-20970.2
301229
493632
271435
91015
106785
2285.05
12060.8
2.66318e+06
2.68341e+06
1.11623e+06
2.24855e+06
585461
2.24618e+06
640126
385603
981200
688554
373046
159329
36839.9
186089
541294
288805
66921.4
467232
230072
-11676.3
4356.67
1.35623e+06
2.71314e+06
2.67043e+06
2.34268e+06
976534
2.28059e+06
760356
193334
892079
692279
652003
428972
181683
54924.6
931742
313499
864687
798687
1.33837e+06
1.38409e+06
867602
510251
1.20608e+06
1.05322e+06
1.17343e+06
1.56567e+06
1.46582e+06
999867
1.64784e+06
1.27744e+06
1.64654e+06
1.63932e+06
1.37172e+06
1.63482e+06
1.41355e+06
1.61259e+06
1.42297e+06
1.38627e+06
1.47538e+06
1.45372e+06
1.14873e+06
1.09152e+06
993081
172163
959172
345295
325228
1.17172e+06
1.13643e+06
402242
199268
1.07512e+06
640412
371997
1.26815e+06
1.70105e+06
890194
1.58536e+06
1.58292e+06
1.10795e+06
1.63538e+06
1.61216e+06
1.48879e+06
2.17108e+06
1.77391e+06
1.02513e+06
2.09911e+06
1.32699e+06
3.02193e+06
2.3027e+06
880743
48135.8
681603
250986
124067
905531
1.07078e+06
1.58551e+06
1.55205e+06
1.48795e+06
1.23137e+06
688344
1.38344e+06
945300
895635
263162
1.12764e+06
101224
3084.13
8558.31
230682
1.25853e+06
430239
1.30837e+06
20369.9
399901
15750.3
344283
0.0102999
3.27846e-05
1.0059e-06
0.00133308
0.000793317
8.95609e-05
3.82619e-05
0.000897072
6.59661e-05
0.00311931
3.15538e-06
1.25941e-06
3.15474e-06
427.411
1.49477e+06
0.000955116
0.000246638
5.21104e-08
6.24639
1.47735e-06
1.5618e-05
3.98286e-08
1.25146e-09
5.74666e-05
2.584e-05
3.61305e-05
2.29338e-08
1.81026e-08
1.05501e-08
0.0324011
0.00289529
0.000803779
0.160466
0.00823991
0.000495634
0.000489145
0.00720902
2.83728e-05
2.68047e-05
0.000640135
0.00922056
0.00159185
1.46456e-05
3.18475e-05
6.7697e-07
5.87301e-07
1.87944e-05
1.80178e-05
3.99174e-07
9.76826e-07
5.18048e-08
1.08883e-06
2.06055e-08
1.37166e-06
3.13012e-08
7.76359e-07
1.76078e-09
5.67525e-10
8.73115e-10
428454
217.777
97.7965
84.6898
4455.93
0.41175
6.05932
0.0429744
0.0129065
0.0072778
0.00212596
0.000166146
2.75361e+06
6.49596e+06
-24914.3
1.99445e+06
376471
861693
997997
3.64766e+06
3.53456e+06
399463
158848
1.39713e+06
1.52557e+06
5.20804e+06
2.1775e+06
1.23355e+06
120104
1.21617e+06
1.38416e+06
7038.01
196555
1.42803e+06
1.3348e+06
1.14826e+06
1.44083e+06
698427
731325
1.43874e+06
1.1679e+06
1.63659e+06
1.51723e+06
20158
2416.49
288702
487.088
53.1521
32897.7
58.1298
0.476112
0.000914975
1.42953
4.65257e-05
6.57987e+06
4.54877e+06
4.5476e+06
1.9327e+06
1.92501e+06
1.86364e+06
761363
242548
190507
1.87315e+06
3.09527e+06
3.70595e+06
2.46754e+06
1.7855e+06
2.51883e+06
3.16889e+06
2.02826e+06
3.36144e+06
3.66757e+06
2.51455e+06
2.21986e+06
2.53482e+06
3.26501e+06
1.19922e+06
1.7975e+06
741719
1.44361e+06
1.10135e+06
1.84202e+06
843638
1.38761e+06
1.93062e+06
1.26808e+06
1.50772e+06
1.63419e+06
1.90088e+06
1.02973e+06
6.12752e+06
3.35255e+06
4.13752e+06
2.99733e+06
2.09912e+06
2.92734e+06
1.85227e+06
1.76239e+06
2.52905e+06
724323
586291
1.26805e+06
1.22131e+06
680125
634455
1.26663e+06
883437
1.08391e+06
1.34281e+06
1.35325e+06
856107
1.08173e+06
1.32558e+06
874839
1.30725e+06
1.05225e+06
1.42935e+06
794804
1.33621e+06
1.11693e+06
1.01292e+06
1.35938e+06
1.35938e+06
1.41359e+06
1.18126e+06
1.37148e+06
1.22856e+06
1.63433e+06
1.12065e+06
1.5794e+06
1.78152e+06
1.33623e+06
1.70101e+06
986449
1.06489e+06
1.41365e+06
1.60458e+06
1.38678e+06
1.40361e+06
1.13888e+06
1.4272e+06
1.61108e+06
1.06853e+06
1.57124e+06
1.55036e+06
1.32684e+06
620580
1.49586e+06
1.46619e+06
903697
1.24313e+06
396712
428456
14881.2
1.30602e+06
331129
366478
1.09387e+06
79955.5
101180
7511.7
832295
208926
240796
548356
33152.4
102525
14570.5
354.795
10606.2
1610.05
171.744
5225.4
134.36
2270.53
181.562
1.29158
6716.2
45.3751
4.03278
2.66264
0.0272316
0.0202113
0.00209167
0.894805
0.0854517
0.0542748
4.63102
0.0341146
0.111675
0.000781592
8.42867e-05
0.0025251
1.3439e+06
3.8016e+06
3.97552e+06
7761.29
0.00246248
346305
1.49906e+06
3.36746
628735
55.5595
0.00012057
978405
1.18964e+06
0.0102566
83321.5
2.79465
1.15361e-05
9074.97
28.5633
0.299959
1.87835e-05
3.38144e+06
3.33879e+06
1.69844e+06
429331
1.75638e+06
1.39654e+06
50747.9
37197
425050
8.63492
1.64995e+06
15745.2
2288.4
0.0903777
0.157915
0.00299478
173812
666860
1051.29
0.12693
49.745
0.00231413
9.78643e-05
1.138e+06
1.28795e+06
53474.4
454056
1.15073e+06
1.15158e+06
18264.9
5259.46
2466.29
0.106302
1.42541e+06
4853.34
833.747
0.0318115
0.00362974
2.86043
0.00119325
1148.91
320489
364.101
0.00278391
17.3803
0.000821287
4.87427e-05
1.64477e+06
849824
3198.95
1.31946e+06
31778.9
508.733
0.359146
25.6378
141.541
0.00502342
1353.24
0.0139644
0.0169869
0.000140726
0.0002515
0.00824285
2.30254e-05
60.3876
11.1925
0.00759152
0.000138745
0.000396482
5.70172e-06
7.36851e-07
613.528
12.6483
0.00955916
0.0236754
0.0136341
0.000278141
8.83125e-05
0.00967638
0.000571322
1.54205e-05
0.00477919
0.000315603
1.64292e-05
4.98709e-07
0.0002296
1.58686e-05
3.0627e-06
5.44591e-07
5.66375e-07
1.40863e-08
2.54272e+06
2.32074e+06
1.23552e+06
233.933
1169.49
38.5068
0.000531289
192736
624106
200220
2.2702
62.8924
2.59218
0.000132846
3.55573e-05
11317.8
7139.33
934.191
0.105439
0.21867
0.00822685
4.60468e-06
6.60287e-06
3.9647e-06
0.0392314
0.00714473
0.000967409
8.04436e-06
6.98803e-06
5.23975e-06
2.64121e+06
3.46075e+06
3.05996e+06
2.4432e+06
2.43916e+06
2.22474e+06
3.53385e+06
2.62222e+06
3.10355e+06
2.63167e+06
741784
2.17725e+06
1.71565e+06
3.44933e+06
2.09589e+06
1.82116e+06
1.52498e+06
1.0667e+06
1.91628e+06
1.50133e+06
1.64381e+06
1.89901e+06
143565
714106
453437
1.19373e+06
805232
1.38635e+06
162007
2.20742e+06
18256.4
82575.9
1.12588e+06
2648.89
682839
4360.98
575.023
423.578
1.47711
88.1727
66.5021
31034.5
11675.5
6461.49
102347
86.0307
280920
212.899
3839.02
315.108
0.161184
3.55058
2.89986
7.74237
6.14278
120.511
9.85988
0.0300281
1.67149
0.00431239
0.102106
0.18166
1.09951e+06
27736.6
350959
1.08674e+06
188922
389097
2618.68
17526.9
45650.6
5.89773
0.0244454
1.04133
111.977
1.97995
3.94545
0.00340352
0.0697764
0.120509
0.000115307
1.41661e+06
1.33976e+06
1.00615e+06
1.25892e+06
1.47163e+06
1.30034e+06
997326
1.26171e+06
687867
447889
59358.8
1.28058e+06
706239
462414
1.42391e+06
1.23369e+06
1.46596e+06
765296
1.35603e+06
946292
1.43301e+06
1.23561e+06
46162.1
461509
241560
655843
406669
1.12099e+06
4653.9
104765
95.5134
2793.97
4082.35
116849
109.413
153.635
4.05993
3.31879
0.122388
133.277
4.6956
3.82336
3700.16
2152.45
40989.9
31.6738
96235.4
83.3509
1465.73
118.912
0.0889577
1.30226
1.03728
3.52387
2.84196
45.7399
0.00951049
0.120439
0.00409231
0.138205
0.000637048
0.00580014
0.00291531
0.0368585
0.000287506
0.0999347
0.000380908
0.00370026
18748.5
1281.5
20388.8
530902
65879.7
156032
955.315
6001.69
15147.9
0.082035
0.00317096
0.0938399
46.7447
0.678742
1.89464
0.00226453
0.0229764
0.0668315
9.78165e-05
1.70996e-05
2.17474e-05
747108
1.51296e+06
373317
281027
1.29077e+06
1.21938e+06
51615.7
204512
155482
54139.2
250.813
752107
13330.7
4392.4
114740
16938.4
23032.4
69.0849
450141
2286.47
3288.54
10004.4
11.3215
16.7771
5.97684
567.059
192.83
282.125
19.3883
7256.43
5.15951
11.1126
249.794
560.464
0.400632
0.579557
0.205633
0.162111
0.000691383
7.49544
0.0185171
0.0128519
0.867923
0.504845
0.757378
0.00117079
24.5321
0.0190398
0.0326377
0.0285103
0.000198179
0.00233754
0.000235046
0.00306693
0.00081483
0.00345275
0.00170287
0.00650012
9.92395e-05
0.00012603
0.00191516
9.75057e-05
0.000560232
3.44947e-05
0.000631546
8.61757e-06
0.000691044
2.10612e-05
0.000213784
985.212
4.82105
80.9491
336.393
1.46514
44.3998
0.224466
0.124658
3.77841
0.00347047
3.32217e-05
0.000302862
0.010285
5.32939e-05
0.00043913
1.01207e-05
1.28197e-05
2.96444e-05
1.52727e-06
2.89729e-07
7.31947e-07
1.4994
506.963
1.72032
0.280796
72.6172
10.3924
0.0386451
0.139523
0.407588
0.15106
0.000442768
6.55517
0.0107744
0.00366503
0.0302225
0.00594363
0.00524712
0.000123847
0.203315
0.000914501
0.00170412
0.00400018
0.000101457
0.00198746
9.36712e-05
0.00175505
0.000167041
0.0017767
0.00177104
0.0203869
0.000154318
0.000136717
0.00241955
0.00204576
0.000117326
0.000688252
0.000351231
4.09174e-05
5.796e-06
0.000784025
0.000207516
2.75532e-05
0.000445763
2.52524e-05
0.000416252
9.1094e-06
0.000489317
1.90481e-05
0.000226202
4.22238e-05
6.5632e-07
1.80062e-05
9.63046e-07
2.07299e-05
2.21451e-06
2.37884e-05
0.00338318
2.20745e-05
0.000104168
0.000169803
7.5718e-06
3.08932e-05
4.65267e-06
3.71218e-06
7.46229e-06
1.9252e-06
1.77577e-07
9.93954e-07
1.11594e-06
2.91489e-07
6.91638e-07
2.0169e-08
3.29455e-08
8.26112e-08
-18852.7
136075
109959
-33963.2
-29401.9
187390
157015
62080.9
89965.3
-7720.43
170810
-20471.9
477585
230693
347434
167860
36210.8
657229
978336
664263
380786
100291
6280.99
17619.6
546370
513424
315057
278296
104074
67834.3
469685
231469
-10861.5
296554
549754
1.11581e+06
2.305e+06
586973
2.37977e+06
642562
1.20359e+06
2.83392e+06
61429.7
389697
200309
915302
680071
445767
708725
2.67821e+06
2.5147e+06
767516
1.66578e+06
3.08707e+06
1.38529e+06
2.94511e+06
313868
867277
1.38674e+06
798662
939457
871126
1.3381e+06
321232
691751
691164
842674
840664
1.15156e+06
1.19703e+06
693034
1.19223e+06
858998
1.01713e+06
1.37287e+06
1.79588e+06
1.39082e+06
1.09449e+06
69.9721
1.22087e+06
492405
3.72128
82359.8
6.48013
518500
1.19039e+06
1.22623e+06
1.57528e+06
1.47404e+06
1.0673e+06
1.01028e+06
669296
787769
1.12704e+06
944342
1.21684e+06
968928
1.37521e+06
2.84863e+06
3.04998e+06
1.76837e+06
1.99952e+06
3.2493e+06
2.35649e+06
3.45675e+06
1.33972e+06
1.7313e+06
2.1725e+06
2.24333e+06
1.5611e+06
2.11696e+06
1.69892e+06
1.08493e+06
1.52366e+06
1.43381e+06
1.42637e+06
1.44233e+06
1.50536e+06
1.39682e+06
1.64232e+06
1.36951e+06
1.62815e+06
1.27588e+06
1.41323e+06
1.64445e+06
1.21809e+06
1.40467e+06
1.41756e+06
1.64133e+06
1.54664e+06
1.27067e+06
1.59087e+06
1.63516e+06
1.57838e+06
1.46155e+06
1.47394e+06
1.32041e+06
1.32403e+06
1.38615e+06
1.5367e+06
1.5711e+06
1.46633e+06
1.5491e+06
1.3574e+06
1.1775e+06
906086
622125
2.27604e+06
3.76129e+06
2.71965e+06
3.67195e+06
2.79287e+06
2.81625e+06
3.66606e+06
1.59321e+06
1.55544e+06
834129
1.62482e+06
1.60017e+06
1.49427e+06
1.07937e+06
163513
914566
842653
1.4602e+06
147906
929209
857376
1.13894e+06
1.59925e+06
1.03629e+06
1.3646e+06
1.52683e+06
1.70058e+06
408784
1.66955e+06
1.36042e+06
472240
941670
920363
1.62271e+06
133747
390900
2.23568e+06
977130
892225
1.56107e+06
1.44335e+06
146880
140528
1.45613e+06
726090
636439
898035
821365
65447.9
1.51267e+06
1.29282e+06
750362
376044
52322.7
851626
282705
1.37016e+06
3.43711e+06
3.33711e+06
2.92826e+06
2.55031e+06
2.43362e+06
2.47869e+06
2.65459e-05
0.0131731
2.55658e-05
1.06581e-06
0.0382566
4.74429e-05
0.0193021
1.2556e-05
1.82392e-06
6.03031e-07
0.00175099
4.92163e-06
1.76209e-07
0.00143542
2.38553e-05
0.000789037
8.38169e-05
0.000780773
8.79128e-05
0.001207
9.56512e-07
4.69007e-06
4.57306e-06
0.00124721
0.00105816
0.000118273
2.18534e-05
0.00235492
0.000559996
8.89268e-05
0.0010528
1.50263e-05
0.000276402
4.77933e-05
0.000286393
5.76899e-05
0.000663603
6.01955e-06
9.70336e-07
5.06797e-06
7.4126e-07
2.5925e-06
3.00618e-06
0.000270552
0.000131037
1.24421e-05
4.30884e-06
0.000224525
0.000128365
1.26729e-05
5.57542e-07
1.30967e-07
4.53132e-07
0.0472842
0.0559265
4.43828e-06
997371
0.573267
2666.78
0.084533
1164.49
0.068216
959.098
0.0043107
1.54058
0.0775452
0.000155132
0.00202064
6.21949e-05
0.0246339
6735.63
0.00210576
0.0610948
0.0182248
0.0522037
0.0209667
654435
1374.55
74933.5
3825.32
886189
179928
81115.8
241311
833663
101724
7538.72
209192
80439
2434.12
271337
20609.9
6984.52
1976.48
100468
32762.7
614.438
320272
792.041
42599.6
24368.9
2318.25
531349
116167
254.166
55024
3250.34
756033
206674
13500.3
157356
909.342
343391
270646
567670
11728.4
41800.3
28468.1
337151
562519
343329
750.836
1.27789e+06
28573.3
12764.3
2542.93
111.619
2867.3
4170.61
107595
4738.74
119406
350274
337.813
18263.2
52.6428
92187.1
2859.57
1570.44
360.336
4988.84
135.389
15636.7
164602
432074
4946.21
149.456
5992.74
5954.1
165790
5219.66
181989
172.518
2317.36
452248
23247.9
3327.74
116034
17115.1
514.004
18481.2
2692.54
84116.7
686812
163929
2.2125e+06
1.13346e+06
6648.52
88.3197
2367.07
11903.8
286278
3931.72
105381
2197.52
847.039
32.0629
3753.68
98008.6
41611.5
1481.46
843121
218570
5152.14
217744
2.56088e+06
1.45038e+06
841715
17.4333
931.768
11264.5
211.08
1514.06
7088.12
132.585
1953.97
4828.68
76114.5
51.8229
159064
134.197
1946.6
173140
27931.6
336582
2255.96
379.976
37957.7
6570.67
46172.9
1069.8
17757.3
44.7077
757.592
22.3929
361.818
18920.7
1291.97
20487.9
25.0542
395.441
27.7094
427.488
6004.46
364.337
114.13
15165.7
19.9127
308.188
7.16437
0
0
0
0
0
0
0
0
0
0
0
0
0
0
3.67778e-06
4.63915e-08
1.4843e-09
5.52973e-10
0
0
0
0
0
8.06322e-08
8.36267e-05
1.47376e-06
2.17115e-08
1.16561e-08
1.89175e-10
8.73115e-11
0
0
0
1.51391e-06
1.41154e-09
4.07454e-10
9.8953e-10
1.00408e-09
1.29512e-09
6.03031e-08
3.75439e-08
4.39613e-08
3.97995e-08
0
7.27596e-11
0
0
0
0
0
2.91038e-11
0
7.13044e-10
2.77942e-09
2.91038e-10
4.94765e-10
8.73115e-10
6.67933e-09
2.52767e-08
1.66183e-08
1.851e-08
8.73115e-11
6.8394e-10
0
1.16415e-10
1.45519e-11
1.01863e-10
2.91038e-11
2.08092e-09
2.37196e-09
3.71074e-09
1.00408e-09
0
0
0
7.27596e-11
3.34694e-10
1.74623e-10
2.03727e-10
0.0122367
0.000100623
1.44337e-05
3.36498e-07
3.31462e-06
1.48633e-07
3.08064e-08
1.37079e-08
6.67933e-09
4.33647e-09
0.0015316
0.000164044
5.04631e-05
0.000138975
2.78236e-05
4.05729e-06
1.02494e-06
7.19329e-06
4.71719e-06
3.57133e-07
3.69121e-06
2.50862e-06
1.96742e-07
1.30807e-07
3.01225e-09
2.79324e-07
1.15106e-08
2.30182e-07
7.74162e-09
9.75415e-08
7.04313e-09
9.31323e-10
3.45754e-08
8.73115e-10
1.31695e-08
1.5134e-09
2.59752e-08
7.13044e-10
1.7714e-07
1.27607e-05
6.35715e-07
1.08273e-05
4.77114e-07
4.56636e-06
4.77856e-07
5.60249e-08
3.62725e-06
9.01928e-08
1.55478e-06
1.18118e-07
1.40068e-06
3.79223e-08
0
0
0
0
0
0
0
0
0
0
0
0
0
0
0
0
0
0
0
0
0
0
0
0
0
0
0
0
0
0
0
0
0
0
0
0
0
0
0
0
0
0
0
0
0
0
0
0
0
0
0
0
0
0
0
0
0
0
0
0
0
0
0
0
0
0
0
0
0
0
0
0
0
0
0
0
0
0
0
0
0
0
0
0
0
0
0
0
0
0
0
0
0
0
0
0
0
0
0
0
0
0
0
0
0
0
0
0
0
0
0
0
0
0
0
0
1.30967e-10
0
0
0
0
0
0
0
0
0
0
0
0
0
0
0
0
0
0
0
0
0
0
0
0
0
0
0
0
0
0
0
0
0
0
0
0
0
0
0
0
0
0
0
0
0
0
0
0
0
0
0
0
0
0
0
0
0
0
0
0
0
0
0
0
0
0
0
0
0
0
0
0
0
0
0
0
0
0
0
0
0
0
0
0
0
0
0
0
0
0
0
0
0
0
0
0
0
0
0
0
0
0
0
0
0
0
0
0
0
0
0
0
0
0
0
0
0
0
0
0
0
0
0
0
0
0
0
0
0
0
0
0
0
0
0
0
0
0
0
0
0
0
0
0
0
0
0
0
0
0
0
0
0
0
0
0
0
0
0
0
0
0
0
0
0
0
0
0
0
0
0
0
0
0
1.89175e-10
1.74623e-10
1.30967e-10
0
0
0
0
0
0
0
0
0
0
0
0
0
0
0
0
0
0
0
0
0
0
0
0
0
0
0
0
0
0
0
0
0
0
0
0
0
0
0
0
0
0
0
0
0
0
0
0
0
0
0
0
0
0
0
0
0
0
0
0
0
0
0
0
0
0
0
0
0
0
0
0
0
0
0
0
0
0
0
0
0
0
0
0
0
0
0
0
0
0
0
0
0
0
0
0
0
0
0
0
0
0
0
0
0
0
0
0
0
0
0
0
0
0
0
0
0
0
0
0
0
0
0
0
0
0
0
0
0
0
0
0
0
0
0
0
0
0
0
0
0
0
0
0
0
0
0
0
0
0
0
0
0
0
0
0
0
0
0
0
0
0
0
0
0
0
0
0
0
0
0
0
0
0
0
0
0
0
0
0
0
0
0
0
0
0
0
0
0
0
0
0
0
0
0
0
0
0
0
0
0
0
0
0
0
0
0
0
0
0
0
0
0
0
0
0
0
0
0
0
0
0
0
0
0
0
0
0
0
0
0
0
0
0
0
0
0
0
0
0
0
0
0
0
0
0
0
0
0
0
0
0
0
0
0
0
0
0
0
0
0
0
0
0
0
0
0
0
0
0
0
0
0
0
0
0
0
0
0
0
0
0
0
0
0
0
0
0
0
0
0
0
0
0
0
0
0
0
0
0
0
0
0
0
0
0
0
0
0
0
0
0
0
0
0
0
0
0
0
0
0
0
0
0
0
0
0
0
0
0
0
0
0
0
0
0
0
0
0
0
0
0
0
0
0
0
0
0
0
0
0
0
0
0
0
0
0
0
0
0
0
0
0
0
0
0
0
0
0
0
0
0
0
0
0
0
0
0
0
0
0
0
0
0
0
0
0
0
0
0
0
0
0
0
0
0
0
0
0
0
0
0
0
0
0
0
0
0
0
0
0
0
0
0
0
0
0
0
0
0
0
0
0
0
0
0
0
0
0
0
0
0
0
0
0
0
0
0
0
0
0
0
0
0
0
0
0
0
0
0
0
0
0
0
0
0
0
0
0
0
0
0
0
0
0
0
0
0
0
0
0
0
0
0
0
0
0
0
0
0
0
0
0
0
0
0
0
0
0
0
0
0
0
0
0
0
0
0
0
0
0
0
0
0
0
0
0
0
0
0
0
0
0
0
0
0
0
0
0
0
0
0
0
0
0
0
0
0
0
0
0
0
0
0
0
0
0
0
0
0
0
0
0
0
0
0
0
0
0
0
0
0
0
0
0
0
0
0
0
0
0
0
0
0
0
0
0
0
0
0
0
0
0
0
0
0
0
0
0
0
0
0
0
0
0
0
0
0
0
0
0
0
0
0
0
0
0
0
0
0
0
0
0
0
0
0
0
0
0
0
0
0
0
0
0
0
0
0
0
0
0
0
0
0
0
0
0
0
0
0
0
0
0
0
0
0
0
0
0
0
0
0
0
0
0
0
0
0
0
0
0
0
0
0
0
0
0
0
0
0
0
0
0
0
0
0
0
0
0
0
0
0
0
0
0
0
0
0
0
0
0
0
0
0
0
0
0
0
0
0
0
0
0
0
0
0
0
0
0
0
0
0
0
0
0
0
0
0
0
0
0
0
0
0
0
0
0
0
0
0
0
0
0
0
0
0
0
0
0
0
0
0
0
0
0
0
0
0
0
0
0
0
0
0
0
0
0
0
0
0
0
0
0
0
0
0
0
0
0
0
0
0
0
0
0
0
0
0
0
0
0
0
0
0
0
0
0
0
0
0
0
0
0
0
0
0
0
0
0
0
0
0
0
0
0
0
0
0
0
0
0
0
0
0
0
0
0
0
0
0
0
0
0
0
0
0
0
0
0
0
0
0
0
0
0
0
0
0
0
0
0
0
0
0
0
0
0
0
0
0
0
0
0
0
0
0
0
0
0
0
0
0
0
0
0
0
0
0
0
0
0
0
0
0
0
0
0
0
0
0
0
0
0
0
0
0
0
0
0
0
0
0
0
0
0
0
0
0
0
0
0
0
0
0
0
0
0
0
0
0
0
0
0
0
0
0
0
0
0
0
0
0
0
0
0
0
0
0
0
0
0
0
0
0
0
0
0
0
0
0
0
0
0
0
0
0
0
0
0
0
0
0
0
0
0
0
0
0
0
0
0
0
0
0
0
0
0
0
0
0
0
0
0
0
0
0
0
0
0
0
0
0
0
0
0
0
0
0
0
0
0
0
0
0
0
0
0
0
0
0
0
0
0
0
0
0
0
0
0
0
0
0
0
0
0
0
0
0
0
0
0
0
0
0
0
0
0
0
0
0
0
0
0
0
0
0
0
0
0
0
0
0
0
0
0
0
0
0
0
0
0
0
0
0
0
0
0
0
0
0
0
0
0
0
0
0
0
0
0
0
0
0
0
0
0
0
0
0
0
0
0
0
0
0
0
0
0
0
0
0
0
0
0
0
0
0
0
0
0
0
0
0
0
0
0
0
0
0
0
0
0
0
0
0
0
0
0
0
0
0
0
0
0
0
0
0
0
0
0
0
0
0
0
0
0
0
0
0
0
0
0
0
0
0
0
0
0
0
0
0
0
0
0
0
0
0
0
0
0
0
0
0
0
0
0
0
0
0
0
0
0
0
0
0
0
0
0
0
0
0
0
0
0
0
0
0
0
0
0
0
0
0
0
0
0
0
0
0
0
0
0
0
0
0
0
0
0
0
0
0
0
0
0
0
0
0
0
0
0
0
0
0
0
0
0
0
0
0
0
0
0
0
0
0
0
0
0
0
0
0
0
0
0
0
0
0
0
0
0
0
0
0
0
0
0
0
0
0
0
0
0
0
0
0
0
0
0
0
0
0
0
0
0
0
0
0
0
0
0
0
0
0
0
0
0
0
0
0
0
0
0
0
0
0
0
0
0
0
0
0
0
0
0
0
0
0
0
0
0
0
0
0
0
0
0
0
0
0
0
0
0
0
0
0
0
0
0
0
0
0
0
0
0
0
0
0
0
0
0
0
0
0
0
0
0
0
0
0
0
0
0
0
0
0
0
0
0
0
0
0
0
0
0
0
0
0
0
0
0
0
0
0
0
0
0
0
0
0
0
0
0
0
0
0
0
0
0
0
0
0
0
0
0
0
0
0
0
0
0
0
0
0
0
0
0
0
0
0
0
0
0
0
0
0
0
0
0
0
0
0
0
0
0
0
0
0
0
0
0
0
0
0
0
0
0
0
0
0
0
0
0
0
0
0
0
0
0
0
0
0
0
0
0
0
0
0
0
0
0
0
0
0
0
0
0
0
0
0
0
0
0
0
0
0
0
0
0
0
0
0
0
0
0
0
0
0
0
0
0
0
0
0
0
0
0
0
0
0
0
0
0
0
0
0
0
0
0
0
0
0
0
0
0
0
0
0
0
0
0
0
0
0
0
0
0
0
0
0
0
0
0
0
0
0
0
0
0
0
0
0
0
0
0
0
0
0
0
0
0
0
0
0
0
0
0
0
0
0
0
0
0
0
0
0
0
0
0
0
0
0
0
0
0
0
0
0
0
0
0
0
0
0
0
0
0
0
0
0
0
0
0
0
0
0
0
0
0
0
0
0
0
0
0
0
0
0
0
0
0
0
0
0
0
0
0
0
0
0
0
0
0
0
0
0
0
0
0
0
0
0
0
0
0
0
0
0
0
0
0
0
0
0
0
0
0
0
0
0
0
0
0
0
0
0
0
0
0
0
0
0
0
0
0
0
0
0
0
0
0
0
0
0
0
0
0
0
0
0
0
0
0
0
0
0
0
0
0
0
0
0
0
0
0
0
0
0
0
0
0
0
0
0
0
0
0
0
0
0
0
0
0
0
0
0
0
0
0
0
0
0
0
0
0
0
0
0
0
0
0
0
0
0
0
0
0
0
0
0
0
0
0
0
0
0
0
0
0
0
0
0
0
0
0
0
0
0
0
0
0
0
0
0
0
0
0
0
0
0
0
0
0
0
0
0
0
0
0
0
0
0
0
0
0
0
0
0
0
0
0
0
0
0
0
9.22882e-08
5.39876e-09
0
0
0
0
0
0
0
1.05836e-07
6.25732e-09
0
0
0
0
0
0
0
1.64492e-06
1.218e-08
7.567e-10
0
0
0
0
0
0
0
4.58385e-08
5.52973e-10
4.00178e-09
0
0
0
0
0
0
0
0
0
8.73115e-11
0
0
0
4.22006e-10
0
0
0
0
0
0
0
0
0
0
0
0
0
0
0
0
0
0
0
0
0
0
0
0
0
0
0
0
0
0
0
0
0
0
0
0
0
0
0
0
0
0
0
0
0
0
0
0
0
0
0
0
0
0
0
0
0
0
0
0
0
0
0
0
0
0
0
0
0
2.91038e-11
0
1.89175e-10
1.45519e-11
0
0
0
0
0
0
0
0
0
0
0
0
0
0
0
0
0
0
0
0
0
0
0
0
0
0
0
0
0
0
0
0
0
0
0
0
0
0
0
0
0
0
0
0
0
0
0
0
2.32831e-10
0
0
4.07454e-10
1.89175e-10
0
0
0
0
0
0
0
0
0
0
0
0
0
0
0
0
0
0
0
0
0
0
0
0
0
0
0
0
0
0
0
0
0
0
0
0
0
0
0
0
0
0
0
0
0
0
0
0
0
0
0
0
0
0
0
0
0
0
0
0
0
0
0
0
0
0
0
0
0
0
0
0
0
0
0
0
0
0
0
0
0
0
0
0
0
0
0
0
0
0
0
0
0
0
0
0
0
0
0
0
0
0
0
0
0
0
0
0
0
0
0
0
0
0
0
0
0
0
0
0
0
0
0
0
0
0
0
0
0
0
0
0
0
0
0
0
0
0
0
0
0
0
0
0
0
0
0
0
0
0
0
0
0
0
0
0
0
0
0
0
0
0
0
0
0
0
0
0
0
0
0
0
0
0
0
0
0
0
0
0
0
0
0
0
0
0
0
0
0
0
0
0
0
0
0
0
0
0
0
0
0
0
0
0
0
0
0
0
0
0
0
0
0
0
0
0
0
0
0
0
0
0
0
0
0
3.52156e-09
1.01863e-10
5.82077e-11
4.87489e-09
3.52156e-09
8.73115e-11
5.82077e-11
0
0
0
0
0
0
0
0
0
0
0
0
0
0
2.79688e-08
4.65661e-10
4.22006e-08
9.1095e-09
9.02219e-10
1.30967e-10
2.76486e-10
0
0
4.22006e-10
1.60071e-10
0
0
0
0
0
0
0
0
0
1.44064e-09
7.27596e-11
0
3.49246e-09
1.33878e-09
8.73115e-11
0
0
0
0
0
0
0
0
0
0
0
0
0
0
0
0
0
0
0
0
0
0
0
0
0
0
0
0
0
3.87081e-09
1.30967e-10
5.82077e-11
5.38421e-09
3.63798e-09
1.01863e-10
2.91038e-11
0
0
0
0
0
0
0
1.16415e-10
0
1.30967e-10
1.01863e-10
1.01863e-10
5.63159e-09
4.99131e-09
5.70435e-09
5.06407e-09
3.62343e-09
0
0
0
0
0.00892505
4.41387e-06
0.000147877
4.81887e-07
5.96629e-10
0
0.000161564
5.71157e-06
8.35935e-05
6.14164e-07
4.33385e-07
7.85803e-10
0
0.000118436
1.00795e-05
7.49278e-08
4.10218e-08
2.91038e-11
0
2.93965e-06
2.3855e-07
3.34694e-10
8.22183e-09
4.36557e-11
8.73115e-11
0
0
0
0
0
0
0
0
0
0
0
0
0
0
0
0
0
0
0
0
0
0
0
0
0
0
0
0
0
0
1.8772e-08
0
3.5009e-07
1.9616e-08
0
2.91038e-11
0
5.09317e-10
1.45519e-11
0
0
0
0
2.59315e-08
0
1.77111e-07
1.30967e-08
0
4.36557e-11
0
3.92902e-10
1.45519e-11
0
0
0
0
2.2701e-09
0
3.62343e-09
3.92902e-10
0
0
0
0
0
0
0
0
0
0
0
0
0
0
0
0
0
0
0
1.89175e-10
1.45519e-09
3.63798e-10
1.45519e-11
0
4.94765e-10
1.45519e-11
1.25146e-09
1.84373e-08
2.47383e-10
4.94765e-10
7.13044e-09
1.70257e-09
0
3.34694e-10
4.36557e-11
3.7835e-10
4.36557e-11
1.45519e-09
1.45519e-11
0
0
0
2.91038e-11
0
0
0
0
0
0
0
0
0
0
1.45519e-11
0
0
0
0
0
0
0
0
0
0
0
0
0
0
0
0
0
0
0
0
0
1.92231e-08
3.34694e-10
8.61473e-09
6.40284e-10
2.21189e-09
4.65661e-10
4.36557e-11
0
2.00816e-09
5.67525e-10
4.36557e-11
1.01281e-08
1.30967e-10
3.0559e-10
4.55475e-09
1.13505e-09
0
2.47383e-10
0
4.80213e-10
1.45519e-11
9.8953e-10
2.91038e-11
0
0
0
0
4.36557e-11
0
0
0
0
0
0
0
0
0
1.45519e-11
0
0
0
0
0
0
0
0
0
0
0
0
0
0
0
0
0
0
0
0
0
5.52973e-10
0
5.67525e-10
0
1.16415e-10
2.91038e-11
0
0
1.30967e-10
1.45519e-11
0
2.47383e-10
0
0
2.32831e-10
0
0
0
0
0
0
0
0
0
0
0
0
0
0
0
0
0
0
0
0
0
0
0
0
0
0
6.5231e-06
8.1094e-06
3.31042e-07
7.97126e-05
6.05504e-06
4.57063e-06
2.83762e-07
8.54925e-08
1.89466e-08
2.40107e-09
3.48286e-07
6.33008e-08
1.39553e-08
1.8772e-09
9.27834e-06
5.14271e-06
4.28467e-07
4.3854e-05
7.71816e-06
2.36675e-06
2.87138e-07
1.17783e-07
2.27883e-08
3.15777e-09
4.92044e-07
7.89296e-08
1.55997e-08
2.03727e-09
2.43586e-06
3.90923e-07
5.03933e-08
1.95364e-06
7.39412e-07
6.77101e-08
1.36642e-08
2.11003e-09
1.16823e-07
9.25502e-09
2.77942e-09
2.52403e-07
1.09285e-07
7.97445e-09
2.51748e-09
2.046e-07
1.8772e-09
1.45519e-11
0
0
0
0
0
0
4.07454e-09
0
0
0
0
0
0
0
0
0
0
0
0
0
0
0
0
0
0
0
0
0
0
0
0
0
0
0
0
0
0
2.91038e-11
0
0
5.82077e-11
0
0
1.45519e-11
0
1.45519e-11
5.03598e-07
0
0
0
0
5.23869e-10
5.52973e-10
0
6.8394e-10
2.47383e-10
0
7.27596e-11
0
0
1.03028e-08
0
3.33239e-09
0
0
0
0
0
0
0
0
0
0
1.04774e-08
1.74623e-10
8.49832e-09
1.38825e-08
1.56724e-08
1.01863e-10
7.42148e-10
2.57714e-08
3.34694e-10
4.83124e-09
7.27596e-10
1.3446e-08
1.90921e-08
0
1.63855e-08
9.31323e-10
2.20898e-08
5.09317e-10
5.89353e-09
1.31695e-08
0
2.05182e-09
4.36557e-11
1.20781e-09
0
1.30967e-10
3.20142e-10
0
7.567e-10
2.91038e-10
0
0
7.71252e-10
1.89175e-10
0
4.22006e-10
0
1.01863e-10
0
2.18279e-10
0
3.34694e-10
0
0
0
0
0
0
0
0
0
5443.77
5.43396
0.00101875
6.59202e-08
94.5775
0.0065195
0.000569009
1.15906e-07
2.4896
8.50677e-05
6.20746e-05
2.58355e-07
2.82991e-07
3.82031e-05
2.08583e-06
1.04483e-08
0.000548106
1.89189e-05
1.57725e-06
1.11759e-08
2.32831e-10
7.8755e-08
3.34694e-10
2.31446e-05
2.64753e-06
1.37225e-08
8.54849e-06
4.10364e-09
3.7835e-10
1.16415e-10
2.73576e-06
1.92085e-09
1.20606e-07
4.36557e-11
2.91038e-11
0
1.19908e-08
1.0326e-07
3.09665e-08
1.55414e-08
3.43862e-08
5.51638e-05
5.47764e-05
4.74087e-07
3.45988e-06
0.000107336
1.31932e-06
1.76104e-05
2.48585e-06
4.47719e-07
4.71919e-08
1.00699e-08
4.07643e-07
6.95145e-08
1.85407e-06
2.96467e-05
1.95799e-06
3.28898e-05
3.23809e-07
4.6325e-05
9.24687e-07
8.66126e-06
1.55933e-06
1.04774e-08
3.20142e-07
4.65079e-08
2.91489e-07
6.76373e-08
1.22227e-06
1.22236e-09
2.47383e-10
1.97906e-09
8.77626e-08
1.25583e-08
2.99478e-08
3.34694e-10
1.61526e-09
2.45927e-09
3.24178e-05
4.82342e-05
4.10801e-07
1.02108e-05
1.05992e-06
1.91956e-06
4.30417e-07
5.62577e-08
1.2471e-08
1.5463e-06
3.61702e-07
8.14034e-08
7.567e-07
5.16593e-09
1.20417e-07
1.80735e-08
1.33019e-07
3.63361e-08
4.35277e-07
1.89175e-09
3.92902e-10
2.92493e-09
2.03727e-10
6.69388e-10
1.44064e-09
1.44166e-07
6.7681e-08
4.49654e-09
9.60426e-10
1.42711e-07
3.34694e-08
4.38013e-09
1.21945e-08
1.01863e-10
1.57161e-09
1.60071e-10
2.88128e-09
5.23869e-10
5.00586e-09
1.45519e-10
0
1.16415e-10
0
0
0
7.24679e-05
1.13214e-08
1.63782e-07
0
1.59343e-08
0.000272776
1.00296e-06
5.06989e-08
2.5265e-07
5.14097e-06
8.16362e-09
2.32831e-10
5.23869e-10
1.4159e-08
4.36557e-11
0
9.24047e-08
1.13505e-09
7.39237e-09
1.16415e-09
0
0
0
5.52973e-10
8.84756e-09
2.47383e-10
2.10428e-06
4.66289e-05
1.63907e-05
1.44215e-06
1.73636e-05
1.96567e-07
5.90371e-07
4.97969e-06
6.98492e-08
7.6252e-09
2.05619e-08
1.21517e-06
4.83468e-06
3.44444e-08
2.01326e-07
9.86969e-07
4.74388e-06
3.79368e-08
2.59315e-07
2.26137e-08
2.70811e-07
1.92085e-09
4.87955e-07
7.58155e-09
7.35163e-08
8.29459e-10
2.91038e-11
2.18279e-10
3.59432e-09
1.30385e-08
8.73115e-11
3.49246e-10
2.82307e-09
1.04919e-08
5.82077e-11
1.22236e-09
4.36557e-11
9.31323e-10
0
1.65892e-09
1.45519e-11
3.63798e-10
0
0
0
0.0196223
0.018003
0.000579143
0.7852
0.00339114
0.0141085
0.000217705
0.540756
0.00342976
0.0137909
0.000233535
0.407345
0.00172167
0.000105156
0.00100621
0.0422945
0.00074897
1.99926e-05
0.0011838
2.52446e-05
1.70257e-06
3.2122e-06
4.56475e-05
3.95409e-06
1.77024e-07
4.96962e-06
3.56755e-06
1.16561e-07
0.000202665
1.0553e-07
3.20142e-09
7.51604e-06
1.20053e-08
3.49246e-10
3.16927e-05
3.83487e-07
3.34975e-06
6.44999e-07
8.37221e-06
1.6078e-06
1.5127e-05
1.33587e-08
2.43454e-08
6.01576e-08
6.86588e-07
4.15574e-07
4.86762e-08
9.16771e-09
9.76026e-07
3.717e-07
2.72557e-08
2.03727e-09
2.32831e-10
8.44011e-10
3.20593e-07
4.80213e-10
0
7.13044e-10
1.45519e-10