/*--------------------------------*- C++ -*----------------------------------*\
  =========                 |
  \\      /  F ield         | OpenFOAM: The Open Source CFD Toolbox
   \\    /   O peration     | Website:  https://openfoam.org
    \\  /    A nd           | Version:  9
     \\/     M anipulation  |
\*---------------------------------------------------------------------------*/
FoamFile
{
    format      ascii;
    class       volVectorField;
    location    "0.00055";
    object      U;
}
// * * * * * * * * * * * * * * * * * * * * * * * * * * * * * * * * * * * * * //

dimensions      [0 1 -1 0 0 0 0];

internalField   nonuniform List<vector> 
5975
(
(1.77021e-20 5.28058e-18 2.32376e-19)
(1.62864e-22 0 2.339e-21)
(4.74913e-25 0 0)
(2.38803e-18 2.02638e-16 2.4317e-16)
(1.40402e-20 0 6.58851e-19)
(5.18542e-23 0 0)
(0 -1.266e-26 3.65134e-30)
(0 0 0)
(0 0 0)
(0 0 0)
(0 0 0)
(0 0 0)
(0 0 1.24995e-32)
(0 0 0)
(0 0 0)
(0 0 0)
(0 0 0)
(0 0 0)
(0 0 0)
(0 0 0)
(0 0 0)
(0 0 0)
(0 0 0)
(0 0 0)
(1.83719e-15 6.01265e-14 8.11875e-14)
(1.57069e-22 1.43812e-18 2.40305e-16)
(4.57227e-25 3.05447e-21 0)
(-5.0827e-05 0.000197657 0.00046688)
(-1.71542e-08 1.05832e-07 1.18533e-07)
(6.44937e-08 9.55113e-07 8.05724e-07)
(-4.37052e-11 4.23546e-09 4.26044e-09)
(3.00237e-06 1.72182e-05 1.29722e-05)
(-5.99814e-06 0.000671677 0.000452724)
(-2.99788e-05 0.000506826 0.000339138)
(1.48471e-07 1.79425e-05 1.36341e-05)
(2.42376e-07 9.60672e-07 7.23187e-07)
(1.93662e-08 4.87173e-07 1.60702e-07)
(2.01389e-08 8.67553e-07 5.12359e-07)
(1.82337e-07 6.55726e-07 3.42799e-07)
(-8.11141e-06 7.3854e-05 0.000147629)
(-4.74149e-07 2.89511e-06 3.3263e-06)
(-1.29817e-07 4.8878e-06 6.40981e-06)
(-4.48941e-08 1.39206e-06 3.51733e-06)
(9.19179e-10 9.65351e-08 1.64365e-07)
(-9.09074e-08 9.56733e-07 8.33531e-07)
(4.79761e-09 6.11635e-08 3.98929e-08)
(5.09432e-09 3.17759e-07 1.96043e-07)
(3.65635e-09 6.67455e-08 4.99603e-08)
(3.5182e-10 1.33191e-08 5.26752e-09)
(4.24936e-09 1.23671e-08 8.68722e-09)
(-1.36569e-08 1.92344e-07 1.28697e-07)
(6.12994e-13 1.99998e-11 4.98085e-12)
(2.52314e-13 6.79999e-12 6.63012e-12)
(6.49493e-13 2.18144e-11 5.58777e-12)
(4.93929e-11 1.01362e-09 5.3732e-10)
(5.44912e-11 1.06299e-09 5.7259e-10)
(1.22777e-12 8.2471e-11 3.92402e-11)
(4.47538e-13 5.84281e-12 -4.9377e-14)
(2.64411e-12 4.25268e-11 1.81438e-11)
(5.25232e-12 1.82631e-11 4.69147e-12)
(-2.85268e-10 3.35843e-09 4.31227e-09)
(6.71808e-13 1.09885e-11 8.25242e-13)
(8.21637e-13 9.74532e-12 6.4096e-13)
(3.95327e-12 1.83637e-11 2.54551e-12)
(1.27173e-11 1.30102e-10 2.75217e-11)
(1.44546e-10 5.43372e-10 1.24068e-10)
(2.17668e-11 3.35746e-10 4.18539e-11)
(2.13694e-11 2.56987e-10 5.16024e-11)
(5.56472e-14 1.34772e-11 3.5213e-12)
(1.14681e-13 9.26784e-12 2.83143e-12)
(5.83857e-13 5.32955e-10 3.41959e-10)
(8.26013e-12 8.74957e-10 4.76261e-10)
(2.20119e-11 1.12586e-10 5.18725e-11)
(2.78578e-10 3.24516e-10 3.95161e-10)
(2.14617e-10 2.85277e-09 1.43499e-09)
(2.62982e-10 3.18047e-09 1.8722e-09)
(2.40488e-11 4.50042e-10 1.40858e-10)
(2.1684e-10 5.6028e-10 3.52246e-10)
(1.70311e-10 1.33457e-10 1.54679e-10)
(4.48571e-17 0 -2.112e-16)
(-1.75883e-14 2.7237e-14 6.11479e-15)
(-1.53451e-15 0 -7.04325e-16)
(1.43191e-14 8.23402e-14 1.15482e-14)
(1.24926e-14 8.16643e-14 1.03839e-14)
(-9.02108e-17 -5.91289e-17 -5.67115e-17)
(1.92268e-16 0 -3.49258e-15)
(2.84744e-17 3.38608e-15 1.41875e-14)
(-2.14344e-17 4.67591e-18 4.75623e-17)
(0 0 4.24996e-20)
(0 0 0)
(2.2531e-19 -2.07717e-22 3.07078e-16)
(1.2157e-23 0 5.98852e-16)
(0 0 1.85052e-15)
(0 0 0)
(0 0 0)
(0 0 0)
(0 5.38433e-21 7.61022e-24)
(0 0 7.91522e-26)
(0 0 0)
(0 0 0)
(0 0 0)
(0 0 0)
(0 0 0)
(0 0 1.08654e-27)
(0 0 4.23528e-30)
(0 0 0)
(0 0 0)
(0 0 0)
(0 0 0)
(0 0 0)
(0 0 0)
(0 0 0)
(0 0 0)
(0 0 0)
(0 0 0)
(0 0 0)
(0 0 0)
(8.43065e-15 5.53519e-14 -5.8443e-15)
(5.25484e-15 1.79115e-13 -1.0586e-14)
(2.95404e-14 5.07761e-13 7.78323e-14)
(1.61142e-14 1.20338e-13 1.87564e-14)
(1.83549e-15 2.22733e-14 -2.73398e-15)
(1.91538e-15 3.5465e-14 8.51379e-16)
(1.15985e-14 6.43673e-14 1.42384e-15)
(0 2.40706e-15 -8.16032e-15)
(0 -2.00057e-16 1.64874e-14)
(0 -6.55807e-17 3.29942e-16)
(0 1.90822e-15 -1.27218e-14)
(-2.90923e-16 1.54163e-13 -1.18548e-14)
(1.14189e-14 2.22137e-13 8.21992e-15)
(3.45499e-15 2.5447e-13 1.13947e-14)
(0 1.68373e-14 -1.223e-14)
(0 4.24209e-15 7.03734e-15)
(0 3.21231e-15 1.56486e-15)
(0 1.8981e-14 -1.16581e-14)
(9.7616e-10 1.36014e-08 2.26949e-08)
(2.16499e-13 5.71333e-12 2.68322e-14)
(1.83801e-12 2.71508e-11 1.06331e-11)
(3.37605e-14 4.34204e-12 -1.41181e-15)
(4.83915e-13 7.37089e-12 4.45902e-13)
(2.00612e-13 8.11041e-12 6.11854e-13)
(-1.55012e-12 9.24989e-11 2.13293e-11)
(1.53642e-11 2.15646e-10 2.52848e-11)
(6.31789e-12 2.32689e-10 3.03595e-11)
(5.42351e-12 1.46429e-10 2.40825e-11)
(0.000104936 0.000763208 0.00189576)
(6.02236e-08 3.7866e-07 1.95053e-07)
(1.68229e-08 1.79207e-07 6.95822e-08)
(2.28767e-10 2.26364e-09 2.01097e-09)
(1.01996e-10 1.30008e-09 1.11396e-09)
(6.21581e-06 2.03887e-05 4.65179e-05)
(3.39588e-07 3.59804e-06 3.76098e-06)
(2.18454e-07 2.01846e-06 1.76521e-06)
(8.45445e-08 1.19513e-06 3.07944e-06)
(2.26299e-07 7.20942e-07 1.98492e-06)
(4.68788e-09 6.97322e-08 8.58874e-08)
(5.91207e-09 3.86768e-08 4.52135e-08)
(-5.32928e-11 2.31946e-09 8.1768e-10)
(1.06808e-08 1.83019e-07 7.46486e-08)
(4.87306e-10 6.13216e-09 1.26607e-09)
(9.28871e-09 1.12938e-07 4.65151e-08)
(2.45111e-10 6.48825e-09 1.40595e-09)
(-6.79607e-10 5.70266e-08 2.97657e-08)
(1.92023e-10 4.23624e-09 1.0883e-09)
(3.69413e-10 3.69973e-09 1.24031e-09)
(2.59729e-08 3.32422e-07 1.39747e-07)
(3.4777e-09 1.46061e-08 4.6762e-09)
(1.41422e-08 2.38339e-07 1.07931e-07)
(7.2705e-10 1.05699e-08 2.21273e-09)
(1.49651e-08 1.07613e-07 5.58132e-08)
(8.06307e-10 7.89121e-09 2.27195e-09)
(0 2.04172e-14 -1.2628e-14)
(2.83573e-15 -3.06474e-15 9.14077e-16)
(0 2.04172e-14 -1.48555e-14)
(2.83573e-15 -3.11613e-15 1.3415e-18)
(2.83573e-15 -3.13303e-15 2.96976e-17)
(2.79485e-15 -7.25487e-20 1.36215e-14)
(0 0 0)
(0 0 -7.52193e-15)
(0 2.74432e-34 1.5604e-21)
(0 2.04172e-14 1.23369e-14)
(0 4.17118e-33 8.34987e-20)
(0 0 0)
(0 0 -1.35642e-14)
(0 3.14449e-31 -7.0334e-28)
(0 2.04132e-14 1.23145e-15)
(0 8.68926e-30 -6.59627e-27)
(0 1.57688e-28 1.03855e-16)
(0 7.95293e-29 2.6424e-15)
(0 3.42676e-25 -6.17473e-17)
(0 0 -1.17635e-14)
(0 0 0)
(0 0 0)
(0 0 0)
(0 0 2.17783e-14)
(0 0 2.05458e-14)
(0 0 0)
(0 0 1.58466e-14)
(0 0 1.99013e-14)
(0 0 1.40026e-14)
(0 0 1.35216e-14)
(0 0 -6.23706e-15)
(0 0 -6.77537e-15)
(0 0 -8.75803e-15)
(0 0 -8.55029e-15)
(0 0 -1.33412e-14)
(0 0 -1.3588e-14)
(0 0 0)
(0 0 1.81733e-14)
(0 0 1.39624e-14)
(0 0 1.41362e-14)
(0 0 1.09105e-14)
(0 0 1.40629e-14)
(0 0 9.51301e-15)
(0 0 0)
(0 0 -1.13739e-14)
(0 0 -1.13599e-14)
(0 0 -1.37816e-14)
(6.01658e-19 0 4.84228e-17)
(0 0 6.12548e-23)
(0 0 0)
(0 0 0)
(2.41824e-19 0 2.99782e-21)
(0 0 2.44621e-28)
(0 0 5.75405e-30)
(0 0 0)
(0 0 1.05764e-20)
(0 0 -4.57453e-28)
(0 0 -1.07053e-29)
(0 0 0)
(0 0 8.64856e-16)
(0 0 2.62931e-18)
(0 0 1.81128e-19)
(0 0 0)
(0 2.0395e-14 3.79089e-16)
(1.35415e-24 1.86238e-14 -1.34268e-14)
(0 0 -8.69325e-17)
(0 0 -8.14526e-15)
(0 2.03984e-14 1.37249e-14)
(0 0 0)
(0 0 -8.75335e-15)
(0 0 -1.42266e-14)
(0 0 -6.27067e-17)
(0 0 0)
(0 0 1.39129e-14)
(0 0 1.33599e-14)
(0 0 1.99249e-14)
(0 0 1.49097e-14)
(0 0 1.95591e-14)
(0 0 1.38501e-14)
(0 0 1.22322e-14)
(0 0 -1.11417e-14)
(0 0 -7.07872e-15)
(0 0 -9.75713e-15)
(0 0 -1.82597e-14)
(0 0 -1.41166e-14)
(0 0 -1.51394e-14)
(0 0 0)
(0 0 9.6026e-15)
(0 0 1.37835e-14)
(0 0 -4.66579e-15)
(3.82672e-15 -9.72765e-18 -1.43683e-14)
(0 0 -3.7038e-19)
(0 0 -2.95696e-18)
(0 0 -4.58059e-19)
(0 0 -1.07081e-20)
(0 0 1.97309e-15)
(0 0 0)
(0 0 1.02513e-16)
(0 2.04172e-14 1.15861e-15)
(0 1.39122e-32 2.81193e-16)
(0 2.04172e-14 -1.89395e-15)
(0 3.41631e-31 3.61534e-19)
(0 0 0)
(0 0 0)
(0 2.04172e-14 2.64288e-15)
(0 1.06248e-29 -7.63846e-27)
(0 2.04172e-14 -2.9181e-15)
(0 3.32132e-28 -2.25503e-26)
(0 0 0)
(0 0 6.34182e-18)
(0 2.04168e-14 4.10399e-15)
(0 3.37263e-27 -1.49452e-20)
(0 2.0416e-14 -9.41903e-16)
(0 -1.8245e-26 8.90615e-19)
(0 0 -3.88201e-16)
(0 0 0)
(0 0 0)
(0 0 0)
(0 0 0)
(0 0 4.10247e-16)
(0 0 0)
(0 0 4.16943e-16)
(0 0 -6.21725e-17)
(0 0 0)
(0 0 4.16943e-16)
(0 0 0)
(0 0 -4.16943e-16)
(0 0 -4.16943e-16)
(0 0 -4.16943e-16)
(0 0 0)
(0 0 -4.16943e-16)
(0 0 0)
(0 0 5.04777e-17)
(0 0 0)
(0 0 4.07368e-16)
(0 0 4.16943e-16)
(0 0 -9.56077e-17)
(0 0 0)
(0 0 0)
(0 0 0)
(0 0 -4.16943e-16)
(0 0 -4.16943e-16)
(0 0 -4.16901e-16)
(0 0 0)
(0 0 -7.84241e-18)
(0 0 0)
(0 0 1.00668e-16)
(0 0 0)
(0 0 9.09833e-16)
(0 0 4.16896e-16)
(0 0 -9.31342e-17)
(0 0 0)
(0 0 4.16901e-16)
(0 0 0)
(0 0 -4.16896e-16)
(0 0 -4.16901e-16)
(3.82273e-21 -6.2015e-26 -2.71302e-16)
(7.03538e-17 0 1.0116e-15)
(0 0 0)
(0 0 -1.696e-14)
(0 0 0)
(0 2.04129e-14 1.10505e-15)
(0 5.93984e-24 2.27991e-16)
(8.12232e-23 1.09586e-14 -2.49998e-15)
(0 2.04172e-14 -1.80173e-15)
(0 5.61514e-23 -7.86758e-17)
(0 0 -3.61265e-15)
(0 0 0)
(1.43316e-14 0 6.62072e-15)
(-2.90343e-14 1.92554e-14 1.83582e-14)
(0 0 -1.97501e-15)
(0 0 0)
(0 0 -4.16896e-16)
(0 0 0)
(0 0 1.01586e-16)
(0 0 0)
(0 0 1.24111e-17)
(0 0 9.0984e-15)
(0 0 1.05297e-14)
(0 0 4.7148e-15)
(0 0 2.751e-15)
(0 0 -1.34492e-14)
(0 0 -6.5081e-15)
(0 0 -1.86638e-14)
(0 0 0)
(0 0 0)
(0 0 0)
(0 0 0)
(0 0 0)
(0 0 0)
(0 0 0)
(6.71247e-17 3.01452e-18 -8.11751e-16)
(1.22086e-19 3.11529e-18 -1.17924e-16)
(3.8278e-21 2.03934e-14 -3.12237e-15)
(0 2.04172e-14 3.09746e-15)
(1.22086e-19 3.13565e-15 -1.28039e-16)
(0 3.23603e-15 -2.28732e-15)
(0 0 2.21717e-14)
(0 0 -2.38973e-14)
(0 0 -2.45028e-14)
(0 0 -1.24025e-15)
(0 0 -1.00208e-14)
(0 0 1.14454e-16)
(0 0 -1.16458e-16)
(0 0 4.97362e-16)
(0 0 7.75891e-17)
(0 0 -2.73261e-15)
(0 0 1.888e-15)
(0 0 4.00978e-15)
(0 0 3.43896e-16)
(0 0 4.77948e-17)
(0 -2.7966e-25 -5.63924e-16)
(-3.60217e-06 3.51068e-05 2.68254e-05)
(-0.000278213 0.0260379 0.0199433)
(-5.31078e-07 3.97228e-06 4.0781e-06)
(5.91853e-07 6.04668e-06 3.39123e-06)
(-0.0198077 0.090155 0.105394)
(-0.0126295 0.906132 0.805605)
(-9.73514e-06 4.35102e-05 6.31762e-05)
(-1.67167e-05 0.000163206 0.000248337)
(-0.00140903 0.0198862 0.0150757)
(-4.43038e-06 0.000601161 0.000541396)
(-3.12801e-05 0.000460666 0.00040946)
(1.98604e-07 1.74694e-05 1.52877e-05)
(-3.38932e-07 6.49368e-06 3.55793e-06)
(-7.75512e-07 1.45336e-05 1.21907e-05)
(-16.0009 44.1319 53.9703)
(-1.17559 9.75055 12.7212)
(-0.00391552 0.0126183 0.0271247)
(-0.000321758 0.00299344 0.0056251)
(-0.282759 11.9731 15.5056)
(-34.1381 238.469 227.144)
(-8.66702 263.79 251.284)
(-21.8335 585.163 592.223)
(-4.64773 141.147 163.451)
(-81.9109 570.999 575.305)
(-18.2504 124.49 144.981)
(25.7617 585.076 591.902)
(0.000322716 0.0247468 0.0201312)
(0.0160298 0.899483 0.797881)
(0.00139335 0.0586573 0.132513)
(4.57195e-06 1.13648e-05 1.33587e-05)
(7.04382e-07 1.01701e-06 7.32729e-07)
(0.00154769 0.0180583 0.0144915)
(9.35393e-06 0.000561097 0.000544435)
(3.51656e-05 0.000406959 0.000390283)
(0.043824 0.406154 0.496939)
(0.679039 24.7029 23.8058)
(0.0646201 0.672221 0.588199)
(0.000290232 0.0190829 0.0201727)
(2.44751 19.2235 18.5671)
(0.010438 0.53413 0.659234)
(0.00126917 0.0141651 0.0147667)
(0.000764318 0.00750549 0.0105975)
(1.12647e-05 0.000383247 0.000458234)
(5.43382e-06 0.000187967 0.000288615)
(9.02048e-07 6.17105e-06 7.06491e-06)
(0.000154504 0.00991186 0.0141923)
(2.47779e-05 0.000281178 0.000331486)
(1.53081e-05 0.00014164 0.000213055)
(1.01957e-06 1.25651e-05 1.35833e-05)
(5.92679e-08 2.52616e-07 2.22865e-07)
(7.75004e-07 8.59915e-06 9.37989e-06)
(1.2733 9.3782 12.2511)
(89.681 567.482 571.301)
(10.2771 263.192 250.545)
(5.49408 140.554 162.862)
(37.3382 233.508 222.15)
(19.8484 121.137 141.297)
(0.337813 11.9151 15.435)
(-0.677194 2.38454 3.16578)
(-165.176 434.969 430.849)
(-35.7191 99.2337 95.4949)
(-1.26828 5.7997 7.69488)
(-47.1511 178.79 171.195)
(-135.535 523.113 523.012)
(-23.484 87.5282 103.363)
(-0.000208073 0.0192422 0.0203716)
(-0.00845647 0.537015 0.663611)
(-0.558385 24.8387 23.9659)
(-0.0404448 0.424126 0.520818)
(-2.26857 20.0455 19.408)
(-0.0598876 0.706331 0.621968)
(-0.0011785 0.0148945 0.0156048)
(0.108157 3.6225 6.51467)
(0.00457529 0.212413 0.359411)
(7.49094e-05 0.00371093 0.00705708)
(0.0201204 0.16459 0.276369)
(0.00647962 0.0463619 0.10398)
(0.42388 2.87449 5.20049)
(0.00033693 0.00286505 0.00537478)
(-0.000527859 0.00286886 0.00283156)
(-0.0265477 0.138409 0.115269)
(-1.19606 4.6802 4.50529)
(-0.0403476 0.236766 0.286415)
(-2.3547 11.7858 11.4457)
(-0.0572528 0.383248 0.330508)
(-0.00111698 0.00796812 0.00815801)
(-0.000179189 0.000688967 0.00121417)
(-0.00031556 0.00171555 0.003147)
(-0.00639284 0.029112 0.0641896)
(-0.0102722 0.0403064 0.0643627)
(-0.251842 0.796473 1.44117)
(-0.0194051 0.0991168 0.163957)
(-0.434235 1.81377 3.28866)
(-0.00595214 0.0481868 0.107993)
(-4.88515e-05 0.00374495 0.00711763)
(-0.00112945 0.0590541 0.133211)
(-0.0902029 3.64604 6.54558)
(-0.00375934 0.213526 0.3612)
(-0.0185114 0.171254 0.287929)
(-0.391025 2.99082 5.39614)
(-2.37297e-06 3.09389e-05 3.60853e-05)
(3.11217e-06 3.12993e-05 3.66871e-05)
(1.25015e-06 0.000202499 0.000311255)
(-2.28233e-06 0.000402108 0.000480692)
(-0.000135616 0.00992894 0.0142434)
(-0.000701177 0.00779526 0.0110623)
(-2.64216e-05 0.00031561 0.00037191)
(-1.38119e-07 3.72608e-05 2.84868e-05)
(-1.80778e-05 0.000118523 7.77307e-05)
(-2.20277e-05 0.000278923 0.00018656)
(-1.90853e-05 0.000108521 9.32155e-05)
(-0.00056295 0.00353322 0.00254676)
(-0.00127459 0.010258 0.00761697)
(-2.36484e-05 0.000257102 0.000223279)
(-1.1996e-05 9.12126e-05 0.000135778)
(-2.64535e-06 1.82168e-05 2.18655e-05)
(-3.63291e-06 2.09002e-05 2.49175e-05)
(-0.000338405 0.00162531 0.00216258)
(-1.47529e-05 7.20917e-05 8.07802e-05)
(-0.000691188 0.00428737 0.00593866)
(-2.02172e-05 0.000168646 0.000197664)
(5.10287e-12 3.38274e-11 1.60283e-10)
(1.42078e-13 2.36834e-12 5.09595e-12)
(4.1003e-14 3.24673e-13 1.64239e-12)
(3.97738e-16 1.71723e-14 4.30034e-14)
(7.33076e-18 1.19321e-15 1.41205e-14)
(1.42535e-27 0 3.31567e-19)
(9.36157e-09 1.05283e-07 3.47599e-07)
(4.86775e-10 2.77791e-09 1.16155e-08)
(1.80422e-11 2.81427e-10 5.5433e-10)
(2.52362e-08 9.99074e-08 3.15134e-07)
(1.07006e-07 1.04506e-06 4.26194e-06)
(2.63966e-07 7.06106e-07 2.89551e-06)
(9.34676e-09 8.77918e-08 2.46039e-07)
(2.406e-08 2.52741e-07 8.31424e-07)
(4.5867e-08 1.81254e-07 5.322e-07)
(1.80033e-08 8.53e-08 2.34809e-07)
(-434.127 1484.41 5.63042)
(-76.1972 225.893 3.90085)
(-4.12209 18.6385 5.0686)
(-135.538 1554.51 -25.0539)
(-305.491 973.013 98.8772)
(-68.1175 963.955 5.11385)
(-68.7086 936.846 26.4189)
(-52.3847 164.256 30.2196)
(-42.8756 802.694 270.768)
(-24.8354 589.304 271.65)
(-0.0141142 0.0916383 0.0351775)
(-0.0128543 0.999286 0.620557)
(-474.701 1635.9 -50.8614)
(-167.146 1545.08 167.47)
(-372.042 1216.87 76.2425)
(-126.333 1357.71 5.39272)
(-343.096 1042.87 39.0767)
(-140.837 1384.56 197.236)
(-346.107 1043.48 230.247)
(-158.81 1253.96 413.384)
(-316.583 900.708 554.975)
(-144.574 1014.54 627.838)
(-48.0249 136.854 108.493)
(-44.0188 315.085 254.555)
(-62.9884 451.564 36.9585)
(-132.674 935.149 25.4713)
(-22.6881 496.78 8.77297)
(-67.405 944.346 100.651)
(-65.8977 464.148 8.4617)
(-131.996 942.12 94.2611)
(-21.8344 484.957 40.9952)
(-120.498 1019.12 180.693)
(-200.222 1595.15 -20.9802)
(-61.067 1305.31 7.80698)
(-103.247 1383.42 174.755)
(-173.779 1412.16 174.063)
(-44.7016 1036.17 179.859)
(-153.641 1297.33 9.66347)
(-83.3852 656.034 67.6365)
(-75.3895 1119.89 71.2381)
(-132.728 968.238 8.46082)
(-23.3743 518.681 4.72049)
(-145.324 1131.36 76.2541)
(-29.2334 682.736 65.9039)
(-67.3798 485.925 6.20546)
(-51.4417 380.513 75.7895)
(-58.4507 904.42 196.712)
(-103.012 791.586 259.644)
(-10.0036 267.925 87.8467)
(-122.515 902.532 186.866)
(-17.5683 414.593 84.1657)
(-30.8334 237.208 76.5703)
(-0.809029 9.71227 3.32526)
(-72.1775 561.518 256.516)
(-2.49386 91.3369 34.0358)
(-7.43864 248.879 135.675)
(-8.21305 74.1472 26.5675)
(-28.4903 217.843 116.698)
(-0.197621 12.4278 4.38283)
(-0.0360735 0.525503 0.214809)
(-0.497978 26.3821 14.3117)
(-0.0583271 0.769749 0.472012)
(-0.00022586 0.024209 0.0130113)
(-2.00836 20.9162 11.0725)
(-0.00775032 0.68947 0.285977)
(-0.0011564 0.0183134 0.0097568)
(-139.058 1402.75 60.4275)
(-41.4518 1430.4 56.2638)
(-44.4347 1402.11 -4.75893)
(-35.6653 1244.64 5.20985)
(-35.7517 1347.39 47.4937)
(-149.353 1220.26 10.468)
(-153.919 1336.69 53.2883)
(-132.422 1374.2 71.0658)
(-55.0237 1421.24 200.79)
(-51.5546 1420.81 71.1869)
(-38.4216 1239.15 43.6722)
(-152.353 1212.94 43.7218)
(-41.4369 1251.59 150.915)
(-156.289 1228.06 147.91)
(-199.436 1716.89 -98.9007)
(-59.111 1726.6 -112.063)
(-47.2811 1557.87 164.784)
(-56.0415 1684.19 -59.7557)
(-196.664 1692.07 -52.3889)
(-45.9006 1533.9 148.962)
(-172.616 1538.09 152.68)
(-347.674 1286.06 64.4563)
(-346.816 1072.08 17.4883)
(-324.452 1192 21.0895)
(-215.136 1279.14 13.7136)
(-240.934 1351.37 59.9118)
(-250.811 1152.34 14.0085)
(-264.577 1285.56 61.5949)
(-347.113 1061.37 119.206)
(-325.351 1186.98 55.4839)
(-336.192 1210.68 164.044)
(-227.538 1304.63 183.95)
(-216.307 1286.01 64.8159)
(-251.013 1135.56 42.2242)
(-255.263 1154.34 135.854)
(-150.903 1336.16 304.237)
(-54.0927 1270.8 413.241)
(-55.4373 1363.12 306.845)
(-42.3729 1125.51 383.855)
(-42.3832 1207.98 264.667)
(-152.25 1113.66 381.286)
(-157.392 1189.76 263.073)
(-475.823 1608.9 -25.5636)
(-423.781 1448.13 168.079)
(-412.062 1473.82 165.619)
(-287.843 1517.6 167.693)
(-339.309 1689.1 -76.6594)
(-339.681 1663.34 -40.5569)
(-298.978 1505.56 158.712)
(-330.274 977.268 336.772)
(-353.411 1191.45 274.123)
(-363.44 1136.94 394.353)
(-258.959 1203.18 405.387)
(-245.956 1272.73 292.69)
(-248.07 1060.07 364.72)
(-256.67 1128.04 251.379)
(-296.508 1098.11 529.749)
(-139.528 1307.08 585.199)
(-297.74 791.9 712.401)
(-98.6864 699.937 599.509)
(-379.454 1437.92 182.768)
(-261.754 1300.52 220.817)
(-161.281 1531.43 168.139)
(-244.882 1255.3 11.0963)
(-132.733 1580.23 -35.2394)
(-149.916 1609.72 253.92)
(-251.198 1256.64 465.257)
(-163.835 1579.05 593.693)
(-127.559 1507.67 38.1225)
(-48.0338 1565.99 8.13095)
(-63.2224 1719.75 -128.373)
(-53.1012 1643.92 -50.0368)
(-66.3574 1792.65 -83.978)
(-192.023 1756.33 -74.6672)
(-182.357 1674.66 -102.078)
(-149.867 1626.18 87.3427)
(-62.0147 1663.18 253.609)
(-61.3785 1684.79 83.3367)
(-71.5306 1819.1 86.0903)
(-71.1117 1803.12 278.6)
(-201.996 1786.33 87.6765)
(-199.882 1771.77 277.516)
(-199.434 1479.43 245.616)
(-251.764 1290.54 84.7333)
(-199.878 1490.82 90.1704)
(-368.061 1557.29 91.0812)
(-355.818 1542.62 272.686)
(-318.639 1721.9 89.7091)
(-312.356 1707.04 278.028)
(-195.191 1659.49 -215.248)
(-67.4037 1673.97 -243.823)
(-53.5785 1553.34 155.411)
(-71.3996 1575.92 -446.55)
(-65.1432 1578.48 -20.0071)
(-195.752 1555.76 -401.638)
(-174.72 1539.1 27.3896)
(-177.584 1436.91 -14.4648)
(-296.477 1290.69 71.4429)
(-198.852 1404.01 63.0528)
(-311.569 1406.54 21.606)
(-331.03 1494.23 -38.3645)
(-298.681 1680.78 -64.6108)
(-273.626 1576.71 -47.9493)
(-137.307 1345 442.861)
(-137.012 1516.08 381.176)
(-65.1937 1629.95 615.322)
(-58.0945 1389.34 453.252)
(-59.6134 1571.05 389.71)
(-68.8592 1756.66 457.98)
(-188.077 1722.6 454.018)
(-270.319 1493.48 177.188)
(-450.695 1594.23 -120.665)
(-323.883 1635.49 -171.461)
(-427.766 1494.57 -244.395)
(-363.887 1404 157.592)
(-312.342 1528.91 -331.347)
(-271.6 1476.55 94.1385)
(-212.956 1453.81 540.293)
(-317.257 1173.49 410.331)
(-213.015 1259.76 425.551)
(-279.4 1253.24 325.593)
(-191.541 1393.28 358.119)
(-297.674 1444.41 416.416)
(-277.783 1636.54 447.517)
(-152.605 1200.92 543.605)
(-59.7349 1358.23 605.905)
(-56.0529 1215.42 539.435)
(-55.8045 1121.83 666.138)
(-50.7472 1107.25 681.975)
(-154.476 1104.74 685.502)
(-148.872 1110.56 671.805)
(-199.713 1202.82 551.519)
(-342.318 1104.68 532.401)
(-246.494 1157.17 540.404)
(-332.452 1029.09 667.107)
(-353.225 1024.82 659.591)
(-253.669 1074.5 678.067)
(-237.189 1074.6 670.048)
(-141.621 959.225 733.127)
(-26.7391 714.36 614.461)
(-42.8113 963.391 738.229)
(-39.1977 863.293 793.733)
(-49.2187 1013.07 806.564)
(-131.362 862.354 788.938)
(-150.773 1012.85 809.278)
(-43.2811 1023.03 632.416)
(-157.633 1156.87 548.15)
(-50.1147 1166.35 546.948)
(-37.5512 996.193 470.957)
(-135.358 983.528 464.96)
(-26.3535 763.145 449.733)
(-99.5848 737.379 433.868)
(-251.575 749.27 18.239)
(-71.0213 213.87 15.281)
(-249.106 746.703 64.4626)
(-88.7228 365.544 6.54005)
(-84.3921 351.715 27.5826)
(-201.32 866.809 22.6586)
(-200.333 870.864 81.5626)
(-129.643 397.394 56.7394)
(-81.7188 242.83 6.10023)
(-261.491 788.67 14.9189)
(-124.44 558.283 66.6683)
(-93.2884 387.047 6.98212)
(-204.936 904.232 11.9519)
(-230.648 1076.84 86.491)
(-200.819 549.11 462.175)
(-346.552 952.15 767.366)
(-316.762 870.07 657.273)
(-162.445 647.643 550.518)
(-234.71 925.902 704.98)
(-219.942 837.026 760.973)
(-248.863 989.389 796.299)
(-380.921 1282.2 202.172)
(-315.124 1079.8 23.7175)
(-232.875 768.538 168.442)
(-243.366 1223.17 15.9855)
(-189.656 928.52 179.018)
(-313.536 1559.03 -10.0236)
(-277.542 1369.37 185.37)
(-233.037 699.052 138.058)
(-21.836 77.2897 21.2252)
(-190.724 567.838 187.098)
(-68.1455 286.024 56.1181)
(-37.1561 164.205 50.6545)
(-163.644 708.612 232.257)
(-189.966 830.158 167.704)
(-238.426 972.33 601.821)
(-356.03 1053.65 517.297)
(-259.06 1114.82 538.38)
(-282.572 833.331 391.869)
(-182.375 521.591 303.841)
(-220.645 928.526 438.853)
(-158.599 658.071 386.359)
(-209.16 586.259 416.796)
(-61.9109 240.684 193.267)
(-171.811 700.995 502.982)
(-41.2797 124.815 79.726)
(-1.32508 5.78722 3.96063)
(-2.74572 15.0145 10.7489)
(-57.8472 232.871 155.025)
(-105.581 763.251 549.87)
(-11.1311 345.228 280.163)
(-28.6386 781.374 564.739)
(-0.681391 32.4734 24.1415)
(-10.8058 348.524 237.496)
(-2.77008 26.0093 19.1033)
(-43.1448 313.932 213.001)
(2.10551e-05 1.41066e-05 3.57003e-07)
(2.93652e-08 7.52396e-08 -7.80177e-10)
(6.8429e-10 2.18496e-09 -3.99329e-11)
(2.20439e-06 2.60693e-06 7.42703e-08)
(1.13443e-06 1.77774e-06 -1.57779e-09)
(1.31991e-07 1.76061e-07 4.88695e-10)
(3.36599e-08 8.82397e-08 9.0123e-10)
(1.25124e-06 2.05391e-06 4.80279e-08)
(8.2781e-08 1.42878e-07 -4.22012e-09)
(5.69668e-06 5.29218e-06 9.47696e-08)
(3.55629e-09 6.2521e-09 -3.09022e-11)
(8.51271e-10 2.72551e-09 -2.45507e-11)
(3.10702e-09 6.48337e-09 -3.4618e-10)
(0.833751 0.57885 0.0272347)
(1108.82 273.064 534.95)
(1.75979e-06 4.07504e-07 1.64979e-06)
(4.45999e-07 3.56937e-07 3.19458e-07)
(4.52104e-11 1.06366e-10 4.74147e-11)
(0.012247 0.00893749 0.00181879)
(1.61843e-09 3.09775e-09 1.74936e-09)
(2.89264e-08 1.59375e-08 2.60366e-08)
(5.15016e-11 8.87467e-11 2.32974e-11)
(1.26067e-12 2.7771e-12 2.54614e-13)
(7.97437e-08 1.05566e-07 1.47591e-09)
(2.53752e-08 5.08063e-08 3.21975e-10)
(2.33446e-08 7.58287e-08 -1.13622e-09)
(1.26627e-11 4.8283e-11 1.93307e-11)
(1.4121e-11 3.84602e-11 8.30364e-12)
(5.07799e-12 2.30838e-11 4.34451e-12)
(5.78583e-05 5.49206e-05 9.20971e-06)
(4.84463e-06 5.18658e-06 1.12734e-07)
(1.1657e-06 1.54367e-06 1.19065e-07)
(0.000294934 0.000265474 7.57011e-06)
(1.23833e-05 1.62584e-05 2.52436e-07)
(4.64811e-07 1.11599e-06 -3.74963e-08)
(4.7406e-07 1.08662e-06 -2.45029e-08)
(1.03898e-05 1.4749e-05 -5.26176e-07)
(1.83782e-08 5.93964e-08 -1.75859e-09)
(1.76093e-08 5.60183e-08 -1.84573e-09)
(6.01827e-07 1.44534e-06 -2.63212e-08)
(1.33352e-05 1.90642e-05 -4.68158e-07)
(2.14439e-06 3.47227e-06 6.68213e-07)
(1.75388e-08 3.33437e-08 1.29008e-08)
(4.58889e-08 6.1468e-08 4.26164e-08)
(5.26743e-10 1.50086e-09 6.51794e-10)
(5.65121e-10 1.30634e-09 3.5255e-10)
(2.28159e-08 4.05159e-08 2.07776e-08)
(2.38981e-08 3.89512e-08 1.60253e-08)
(2.82484e-10 9.2235e-10 2.20202e-10)
(1.27833e-09 2.11268e-09 1.34003e-09)
(5.81282e-11 1.12181e-10 4.79777e-11)
(1.73966e-09 2.32584e-09 1.28213e-09)
(1.74641e-11 4.8011e-11 1.18353e-11)
(2.10375e-09 2.77817e-09 1.82622e-09)
(2.40937e-11 6.9812e-11 3.17401e-11)
(1.06095e-09 1.75257e-09 9.22676e-10)
(1.60448e-12 3.72548e-12 1.23055e-12)
(3.61016e-13 1.33741e-12 6.23215e-14)
(4.78678e-13 1.96708e-12 6.97042e-13)
(334.294 256.762 20.5773)
(0.435277 0.284678 0.073462)
(0.197028 0.134948 -0.00384745)
(0.172723 0.114399 0.0129078)
(8.94298 3.77563 3.2251)
(0.000850822 0.000519969 0.00022411)
(0.0126312 0.00418741 0.00722977)
(8.72428e-05 5.42951e-05 3.29757e-05)
(2.42233e-05 8.92755e-06 1.97257e-05)
(1.36443e-05 7.44495e-06 1.03866e-05)
(3.70123e-06 1.79319e-06 3.60041e-06)
(2.90232e-07 1.47762e-07 2.79401e-07)
(56.0391 1694.8 -263.585)
(7.26843 1311.73 -8.06251)
(208.417 1782.91 89.8761)
(20.1044 769.048 27.5099)
(143.566 1308.27 592.252)
(19.9061 505.435 279.45)
(380.141 1430.45 76.634)
(82.1245 1609.75 -71.1377)
(527.276 1538.77 -43.9579)
(70.5013 1581.87 -7.4841)
(349.078 1505.56 -61.453)
(75.6763 1226.25 3.43172)
(374.676 1054.31 -2.46496)
(521.699 1168.19 11.2509)
(21.9814 796.353 7.86281)
(287.14 587.77 5.52428)
(350.453 1528.41 279.425)
(73.3723 1213.97 43.7682)
(362.919 1031.44 25.3452)
(193.261 1716.99 457.143)
(291.793 1426.84 422.981)
(61.9048 1134.5 378.81)
(340.437 966.042 323.219)
(273.297 560.124 10.3165)
(23.2293 670.826 282.982)
(194.966 450.34 176.323)
(300.135 1095.83 534.47)
(51.9977 1012.14 468.65)
(288.04 803.152 372.868)
(46.215 865.192 794.64)
(309.209 779.513 699.555)
(0.854237 32.1918 23.8881)
(1.09784 4.59547 3.09502)
(104.816 259.859 126.749)
(0.0153588 0.951739 0.624358)
(0.0201753 0.107156 0.0641756)
(14.2294 37.213 46.0569)
(0.0222618 0.110385 0.0908343)
(0.000161723 0.000583728 0.00100892)
(3.53912e-07 1.77894e-06 1.27361e-06)
(0.000489017 0.00270932 0.00204798)
(1.34786e-08 9.11117e-08 3.77298e-08)
(224.911 1274.01 -4.59201)
(16.9743 1170.35 197.342)
(207.953 1130.9 202.055)
(156.35 724.973 24.4868)
(19.4776 779.085 100.331)
(151.185 735.571 92.6223)
(86.0215 468.165 256.533)
(8.70092 230.201 136.392)
(32.2221 194.883 112.411)
(195.503 1564.04 144.588)
(80.0246 1719.4 -113.944)
(233.198 1601.62 -68.4942)
(81.2345 1473.86 142.995)
(79.591 1571.9 153.391)
(213.103 1467.12 140.265)
(220.068 1714.83 -111.379)
(320.578 1533.78 134.745)
(518.56 1648.07 -85.9693)
(383.357 1580.97 -58.69)
(472.654 1403.49 147.921)
(455.779 1483.01 130.103)
(343.234 1444.74 139.868)
(367.172 1695.94 -103.258)
(172.032 1435.95 35.7135)
(80.4384 1317.33 43.504)
(69.787 1431 -8.3252)
(177.737 1201.11 0.888162)
(75.6687 1462.95 46.8204)
(192.708 1301.63 40.0394)
(150.19 1387.1 -9.43024)
(275.443 1373.87 26.2925)
(411.629 1192.53 48.8034)
(360.498 1197.21 -4.17133)
(278.302 1144.12 -1.47195)
(392.506 1293.95 24.9995)
(303.06 1260.08 40.1436)
(242.909 1298.54 -7.30239)
(394.338 1226.5 2.99446)
(451.619 989.014 217.768)
(353.263 1075.4 209.35)
(23.4695 937.338 86.1575)
(161.92 754.081 7.00815)
(180.981 896.657 88.9264)
(346.056 725.476 87.4619)
(251.635 686.972 6.32746)
(291.002 830.913 90.0148)
(147.253 1399.37 197.424)
(64.5013 1444.42 72.9717)
(172.325 1186.84 39.1144)
(70.0439 1226.92 148.896)
(144.592 1397.39 67.3363)
(62.0981 1439.59 203.718)
(170.25 1203.23 142.063)
(239.751 1312.08 181.602)
(353.38 1190.33 43.0154)
(269.98 1125.8 33.0781)
(360.774 1051.82 106.81)
(234.673 1300.78 56.7276)
(356.206 1209.78 158.055)
(267.916 1145.41 127.475)
(159.281 1344.95 307.096)
(67.0814 1199.65 261.286)
(65.1358 1276.5 414.698)
(164.942 1115.46 373.369)
(64.2557 1373.8 309.832)
(170.373 1180.83 257.431)
(170.419 1258.02 414.682)
(258.497 1277.26 294.409)
(358.938 1036.15 219.118)
(381.672 1128.65 390.854)
(260.128 1058.96 355.252)
(372.003 1189.66 272.398)
(268.321 1125.46 243.5)
(273.503 1203.82 405.399)
(242.554 658.15 18.1194)
(267.185 567.314 52.3168)
(236.04 667.763 74.893)
(21.091 751.158 202.529)
(122.618 634.326 268.962)
(142.767 710.881 192.573)
(246.226 541.822 129.725)
(182.385 564.29 232.118)
(219.349 645.389 167.094)
(157.174 1012.32 624.695)
(61.269 1169.73 547.371)
(147.878 990.721 458.931)
(33.8394 762.131 445.723)
(170.368 1156.83 547.455)
(52.8327 1024.51 631.841)
(109.447 726.665 424.34)
(251.117 963.268 593.846)
(370.665 1040.67 509.222)
(231.685 924.41 427.998)
(180.023 481.954 280.068)
(273.326 1109.24 534.978)
(326.619 881.385 539.765)
(165.122 635.059 371.134)
(115.899 757.714 544.499)
(13.5128 345.321 235.607)
(13.5103 344.316 278.984)
(2.97108 24.7448 18.0673)
(35.0379 781.32 563.615)
(47.0935 303.684 205.848)
(48.3082 308.217 248.35)
(180.8 685.461 489.796)
(35.7357 103.616 65.1278)
(43.1016 116.868 92.0429)
(2.59912 13.3205 9.44506)
(211.261 555.436 392.101)
(57.5342 215.195 142.264)
(62.6605 225.24 180.086)
(118.289 387.068 203.966)
(15.9094 50.8011 24.3225)
(32.6388 123.141 66.8977)
(0.608178 24.9807 14.3958)
(0.0642575 0.698682 0.4503)
(2.1956 18.8929 10.5146)
(0.72065 3.26314 1.55643)
(0.0514272 0.342436 0.2133)
(1.8131 9.92956 5.12398)
(0.0388681 0.211153 0.253901)
(1.01159 3.77057 3.60283)
(0.0543532 0.338552 0.289326)
(0.000439171 0.00228839 0.00223481)
(2.26569 10.571 10.2156)
(0.0168845 0.0729838 0.0844488)
(0.00106777 0.00703592 0.00714475)
(0.000677546 0.00387607 0.00531789)
(8.68898e-06 4.52624e-05 4.94867e-05)
(8.36084e-06 3.12224e-05 3.85391e-05)
(2.96048e-07 3.56909e-06 3.52864e-06)
(0.000295121 0.00133691 0.00175324)
(2.08605e-05 0.00013922 0.000159452)
(8.96357e-06 7.72525e-05 0.000108993)
(0.00124192 0.00870274 0.00680674)
(1.09821e-05 6.02515e-05 5.43561e-05)
(2.80396e-05 0.000195031 0.000182279)
(2.46127e-07 1.30358e-06 1.29203e-06)
(1.24206e-08 1.48781e-07 1.04507e-07)
(5.89714e-07 4.12189e-06 4.35281e-06)
(496.013 1350.87 107.835)
(1143.56 1304.94 11.7291)
(598.399 1068.27 21.79)
(7.53249 13.4865 0.523291)
(3.79101e-06 4.54671e-06 1.07947e-07)
(350.341 1253.33 244.2)
(679.814 752.511 0.39966)
(0.00656389 0.00500749 -0.000140729)
(239.155 415.3 2.56321)
(0.0650544 0.11278 -0.00209838)
(1.49275e-07 2.22377e-07 -5.49484e-09)
(407.874 1013.17 523.485)
(568.296 636.132 323.926)
(1.95447e-05 1.58806e-05 5.38357e-06)
(45.888 105.85 44.1514)
(0.00291788 0.00582779 0.000988892)
(1.15748e-08 2.25726e-08 5.15734e-09)
(5.07315 11.3308 15.3201)
(0.0322132 0.0442508 0.0469236)
(0.000110082 0.00057473 0.000419551)
(1.34782e-08 3.63277e-08 1.82083e-08)
(901.157 1410.74 -107.728)
(654.221 1480.18 -22.8226)
(616.116 847.786 41.1598)
(352.866 1221.11 -26.5933)
(681.11 1057.43 39.656)