/*--------------------------------*- C++ -*----------------------------------*\
  =========                 |
  \\      /  F ield         | OpenFOAM: The Open Source CFD Toolbox
   \\    /   O peration     | Website:  https://openfoam.org
    \\  /    A nd           | Version:  9
     \\/     M anipulation  |
\*---------------------------------------------------------------------------*/
FoamFile
{
    format      ascii;
    class       volScalarField;
    location    "0.00345";
    object      overpressure;
}
// * * * * * * * * * * * * * * * * * * * * * * * * * * * * * * * * * * * * * //

dimensions      [1 -1 -2 0 0 0 0];

internalField   nonuniform List<scalar> 
31491
(
37996.1
43369.2
74032.3
56982.4
157666
136430
30583.1
31191.4
29489.9
18365.9
17722.1
22682.1
16887.5
33108.9
24185.5
20171.3
57694.2
46052.2
34324.1
24829.6
17782.4
12274.9
12105.6
13424.3
7862.63
8654.75
14270.8
17978.3
12689.3
12326.7
10677.2
9578.85
15205
16344.8
19038.9
14344.1
13301
12096.5
13955.8
17855.6
19844.5
23462.5
29091.7
23293.1
27072
26166.5
19501.1
20391.1
143243
132279
50884.4
29843.1
63611.4
32451.3
68646.4
11327.8
24416.1
18712.4
19697.1
12224
17829
25468.9
21865.4
18129.1
15931.6
19225.2
16321.3
22365.2
25443.4
24290.3
29955.2
23807.6
29431.7
28083.9
21349.2
22571.9
14708.4
20985.2
13313.8
18982.7
28716.3
20487.1
26863.1
34637.6
68561.1
38110.9
36456.1
27519.2
36075.9
21774.5
26633.2
22486.2
29141.7
38728.4
28013.1
37873.6
37368.6
27854.1
26297.8
45149.6
61446.5
58151.6
40245.4
36459.1
53915
35864.7
26966.8
23128.4
26720
26604.2
28185
30076
29224.2
27223.8
22791.2
24647.3
21724.5
23432.4
30048.7
31039.8
36687.9
58646.3
56521
49333
51628.9
36342.3
37663.2
29987.1
25449.5
40798.4
29338.5
40840.8
32708.6
26963.2
24958
27404.9
28922.3
32406.4
35817.7
35353.3
32167
20962.9
21456.3
27339.6
30785.9
25909.8
30474.4
26154.2
28421.3
24329.1
23599.9
25847.1
27038.3
32044.1
33212.6
39171.2
30539.7
28696.2
27158.7
25646.3
33348
34750.7
25965.9
20927.9
20801.1
26856.4
26675.2
30844.8
31346.2
31359.8
37056.4
33079.6
42777.7
41526.8
38988.6
35622.5
32529.2
30412.9
28763.7
43172.5
37833.4
41058.1
36203.1
27241.3
21496.3
22673.8
33146.8
28427.2
27060
32044.2
31021.9
36086.6
30939.7
38492.5
39220.5
34411.6
34615.8
31889
36995.6
31309.7
40302
41523.5
35338.2
36188.2
44869.1
42986.7
34573.7
41237.1
39249.2
32930.4
37259.5
26394.3
25098
31587
31247.8
24220.5
26375.2
33590
60178.7
159011
147727
43273.4
81874.9
36862.4
76611.6
16495.4
27471.3
18747.1
31057.3
22424.7
24850.2
33908.4
30784.5
35227.9
28269.5
29075.6
39987.5
32348.7
36493
30157.9
23156.7
38321.7
39557.7
30943.6
24140.2
32079.8
24813.2
30632.2
21511.6
27802.9
41192.8
31307.9
37282.6
34285.5
32519.1
41206.3
25371.8
35611.2
27002.4
33596.9
146166
36967
72218.4
61885.7
25467.5
31027
17810.1
67587.1
68582.9
19935.7
21608.5
23898
30408.8
32791
34696
37244.4
29881.4
43956.9
38970.1
22470
26640
35622.7
40310.8
25973.7
33748.3
28466.3
45308.3
39593.6
42395.5
48449.8
12561.6
-6859.9
2582.1
7158.3
-8676.1
6558.28
17456.7
5719.02
6414.54
28223.9
2791.76
14203.8
8843.91
-7271.63
19427.2
7284.84
-9588.43
-3955.4
-4880.65
-9946.3
-9557.59
-6276.29
-5613.2
-9616.47
-3639.97
-4522.75
-7126.29
-8438.65
-4564.22
-3380.67
-5681.07
-2572.92
-5681.98
-1245.01
-3990.78
-1993.86
-282.409
961.22
6444.35
661.806
2725.44
-1990.21
-1262.28
3488.74
6731.39
1705.07
1085.03
-291.869
5510.73
823.063
4420.44
-5454.62
3451.01
-4474.68
5823.4
-1895.52
-1016.27
6654.02
-1408.52
-3763.27
526.391
473.407
-1953.81
1816.19
4332.63
4464.11
-2153.09
-3383.35
2.90006
9057.76
1223.35
7707.49
7798.12
2487.36
3630.22
6887.78
2192.79
3929.6
8665.85
-698.603
9206.43
1074.74
10751.8
2739.44
4610.57
12820.8
13770.3
9507.33
2042.71
2871.35
14690.5
7261.6
10367
10412.5
7452.4
5271.54
6089.18
13658.5
8709.11
10908.3
3880.06
9614.8
12944.5
15891
5135.79
8301.65
11489.4
5714.34
11498.7
3202.74
6864.07
18220.7
9543.78
15292.4
-10466.5
51873
-17924.1
78776.7
121599
85106.4
2222.13
66064.4
16715.2
83249.1
61671.7
71030.4
63185.4
67706
89169.4
79628.4
83725.3
11824.7
-9375.65
13828.3
-12574.3
37499.1
11368.1
37927.5
-16511.7
19113.4
122037
14305.5
5730.24
47676
4211.7
75290.1
44130.5
81585
63857.3
92125.1
78749.1
55955.2
59042
47104.7
59371.8
64439.2
73653.5
73158.2
57757.6
98403.1
125353
108082
116567
97538.1
100022
112221
2108.23
8183.3
48641.2
-9883.05
10707.7
17221.4
-825.048
29802
19283.7
48262.8
59752.7
9442.3
27626.4
37666.9
115127
89896.7
107295
89979.5
47592.5
57581.5
89210.1
152396
102133
124991
75129.6
53765.6
70511.3
22260.4
-9266.86
-1885.32
-10626.9
-12050.8
-562.066
-2999.1
-1932.14
-7683.5
-13209.6
-13536.7
-3971.23
1151.55
-4503.16
-4353.45
47589.7
16269.2
13486.6
19171.6
18894.8
5523.29
11884
76580.7
104216
89846.4
86168.7
66344.9
65848
90848.2
63198.6
11655.8
24857.3
4965.61
12337.2
5920.44
6130.41
86476.4
19931.9
35626.3
20750
37801.4
11758.3
12246.2
-18794.2
20985.2
-5889.68
-16912.1
4707.59
-6996.43
-15829.7
64750
36509.1
13708.8
25112.2
28480.6
40410.9
58183.9
4826.64
11948.3
5461.34
4424.98
12391.3
5204.18
12240.5
-10184.3
-10950.9
-11793.9
-2794.61
-1038.18
-1630.57
-2215.82
38562.8
9204.03
-19989
14525.6
20231
1981.05
10679.2
11217.4
2814.67
-31571.6
-15659.5
33093.8
30259
23141.9
23034
49097.6
24938.5
30659.6
40121.7
20962.8
36522.5
-29275.8
-1054.09
-6379.03
49513.5
13093.7
8308.85
358.055
12147.8
5957.95
13610.3
24354.8
30529.9
11274.2
21979.6
24935.4
35559.9
34069.9
39550.2
28732.7
34906.4
42280.2
46633.3
38951.4
40557
45167.6
14012.3
11963.7
5059.5
16898.7
9682.71
11171.3
15170.1
17276.3
-21423.6
2602.54
6518.86
5105.69
26573.8
-23595.7
35630.5
46669.5
45252.4
29844.9
39331.1
44026.8
41118.2
10676.3
-23802.5
2911.03
-719.779
-27457.2
-31387
3063.89
19569.7
27623.2
25665.9
34731.4
22767.5
29044.5
32160.7
15108.3
19750.1
13482.5
18294.7
27947.5
29271.5
19734.8
23728.1
23048.6
25822.5
29395.6
34527.4
34543.9
26199.2
49698
47631.6
45245.7
42537.2
39925.6
40828.2
44113.7
-44787.9
-38549
-17690.9
-42309.4
-34325.7
-21078.3
20727.8
10421.7
10723
13158.1
10836.9
6939.36
10656.5
11010.9
37384.2
24894.9
26615.7
33781.4
23186.9
23703.2
36352.2
21629.2
16643.1
34056.9
-17157.5
12091
23962.2
-2507.04
10246.4
27720.4
7221.36
-12299.8
28577.4
-20300.5
13277.1
47618.4
55921.5
44230.4
49430.1
38247.9
42252.5
53620.6
-3010.04
-6772.6
-27663.9
-32655.7
-32637.2
-1174.28
-3984.55
33019
22238.3
29302.6
25368.6
31524.9
24450.9
32636.1
32587.9
26124
36322.6
36227.3
27759.4
33332.5
28944.2
19111.3
9596.48
16808
21260.1
26766.1
25390.2
16310.9
-17412.6
-46444.2
-42684.5
-36647.7
-31959.3
-46744.2
-39246.2
-5164.06
-26941.2
1611.29
11447.1
-23399.9
-17307.2
859.128
59467.8
33601.7
46436.5
36714.6
29572.4
13685.8
49609.9
30067.9
46414.4
35846
35596.3
36223.5
25635.4
46762.5
1762.43
-10997.9
-24527.1
-4837.52
-18874
-30171.3
-20235.8
-46767.8
-37411.3
-39077.8
-43213.4
-45100.9
-38249.9
-36386.7
-43985
-36441.5
-36515.2
-42588.4
-45013.5
-38602.7
-36716.5
23519
20189.1
-15329.5
7786.94
-5069.85
9905.78
36131.7
-28963.4
-19784.7
-29842.1
-30210.1
-19759.1
-28346.5
-21512.5
-29112.2
-17668.2
-27485.6
-30916.3
-21624.4
-29502
-22543
-60682.9
8396.07
-45151.6
2868.66
25638.9
-11007.1
-17198.2
27915.8
-1944.49
51368.8
24186.1
-12734.3
43508.6
-18217.1
8001.86
-9055.09
-2621.44
-335.134
-20579.7
-26089.8
-26487.4
-22362.9
-11544.8
-6043.65
-19745.7
-14713.3
-24070.8
-24509.6
-22635.3
-17086.5
-21004.6
-13445.7
16613.1
-2138.2
-8116.06
15415.8
2226.49
8782.84
24823.7
12022.1
-9222.68
-2376
2106.91
-8926.18
-2361.98
10391.1
-58423.8
23360.7
-44201.1
46102.1
23871.1
51691.6
8188.94
-52172.4
-62842
-59821.2
-7393.85
50406.1
-31877.6
-33873.4
2396.64
-7535
-20386
-14063.7
-18231.2
-8347
-4294.83
2573.47
-14415.6
-23098.2
3688.05
-5613.36
18206.5
-14852.7
-17277.2
-7257.96
-13118.9
-2339.96
-13692.8
-8736.98
-2176.14
-13655.2
11721.9
392.863
9002.11
9056.88
23325.5
-7505.89
4984.57
34978.9
15708.8
16763.7
39884.1
25451.4
34312
22850.8
25026.8
8383.55
7468.04
33865.7
13885.1
24152.8
4263.05
-465.471
-5610.55
1752.63
16104
6218.93
13461.7
20762.5
18590
10818.8
18761.9
39709.3
28851.6
31611.1
21720.3
10259.4
21086.1
44692.3
34191.9
36577.4
1376.22
-10108.4
2898.73
-10265.4
-6185.76
-16250.6
-10933
-1897.74
-2173.09
-5687.72
877.591
34031.2
31637.6
28226.4
-17030.3
5751.94
-15955.5
-16714.5
-6945.25
-12009.4
-38795.5
-39200.9
6787.92
16953.9
17109.7
-12402.3
662.217
5430.83
21651.5
27702.7
34764.9
12219.6
24992.9
4212.68
-27389.4
-7857.82
28142.6
45367.5
47373.1
45856.7
36212.5
38720.9
39754.9
30742.7
60283.2
45118.1
46428.9
34506.3
40689.4
50545.6
-47330.8
-38307.7
1443.88
-13280.6
-62353.7
-53305.8
-52109.4
5667.59
41739.1
39205.7
22768.1
-32951.7
11665.1
-25734.3
-60719.3
-44675.7
-40232.2
-59773.3
-64466.9
-62976.8
-60884.6
-25832
-46988.9
-33328.8
-57370.9
-57765.4
-53942.3
-60886.7
-7727.08
-55105.5
-28023.5
-53635.4
-52881
-59255.6
-42528.4
-13623.7
69176.6
42054.6
22082.9
-9673
-33163.9
44554
49354.2
47232.4
42025.6
38475.7
43005.4
30731.2
49785.3
-8567.47
-44528.3
-25316.7
-52224.8
-51955.2
-58123.2
-41286.3
-28182.5
-61225.4
-55086.4
-56245.9
-55587.4
-38708.7
-56615.1
-62809.5
-59177.9
-62943
-61353.7
-61792.7
-63378.5
-61103.9
2712.81
-50631.7
-33312.4
1190.24
-46353.5
-16577.4
24577.4
-59307.5
-53286.1
-56708.1
-53995.8
-58631.9
-58632.1
-53017.7
110657
88555.6
126371
73598.1
13979.4
30721
59022.7
33157.4
16120.5
16705.3
65328.6
24364.5
23721.7
12265
34814.9
20949.9
21618.7
30377.9
103650
-18496.9
55405.5
-45802
81281.8
-14801.4
51267
38415.2
69482.8
49045.7
50723.6
36484.3
45620.5
63570.4
66740
101836
131569
99539.4
106297
83095.5
116107
41066.3
43124.2
33079.9
54448.5
44204.4
39449.1
50200.1
24286.6
13438.7
22421.6
25296.2
22951.8
31266.3
33840.8
78300.3
69090.5
58423.2
54329.4
85554.5
73633
65069.1
34697.9
29498.4
34379.3
44716.3
33909.3
50200.9
41120
85392.7
59554.1
70297.9
48054
66755.6
21363.6
50068.2
43997.2
31452.6
41882.2
40216.7
54179.3
42790.1
51278.2
54992.4
53603.3
68800.4
63736.3
80789.4
67825.7
78975.2
117395
98852.9
97321.4
98158.8
82049.3
72744.6
92983.6
137798
47078
158006
-8358.66
11231.9
69898.5
75198.3
507.22
-27270
22939.2
-42824.9
-22316.7
7588.21
-28068.3
16038.6
8871.07
39820.2
-41184.8
-21155.3
6343.85
-25093
54046.4
78298.4
64963.9
49566.7
63669.9
52216
65528.5
82007.6
115918
100805
79099.1
95742.3
94989.9
117593
69188.5
57477.8
54449.9
69224.3
65483.2
81937.4
87348.8
100992
82889.1
83020.8
112723
94876.1
95203.5
115986
137142
152544
141870
116380
113107
132835
127369
81361.5
59110.5
32018
38382.3
11561.4
-8729.62
64168.1
-45727
-46789
-42779.5
-27030.9
-37751.5
-36173
-37044.9
77179.1
31262.6
59100.2
33633.5
15131.7
-5134.65
56889.1
152192
129472
109617
112437
152569
135537
135406
95671.4
81269.8
80931.2
98991.8
100312
113466
99691.6
115644
92143.9
85757.5
100334
130551
107683
124041
85585
125286
80859.2
28053.7
85562.8
92896.7
31277.2
96123.4
32795.9
77074.9
84372.9
112125
88569.6
41843.9
-6757.27
-12586.8
-28467.7
-12211.3
-24906.9
-25258.5
14264.6
161949
169275
157864
148614
145196
131800
116860
118752
139650
132256
113352
129478
117786
139781
-1271.02
118.022
31765.6
37464.1
-304.003
5187.64
7749.39
-41092.3
-40533.9
-42989.4
-36623.7
-32768.1
-34803.1
-34657.7
114214
137803
74128.1
84058.5
17890.8
25821.4
57508.8
116648
87752.2
121192
86010.2
29860.3
38928.2
66330.5
-28968.6
-18909.7
-25585.9
-19434.4
-27179.9
-27392.6
-20678.2
32244.7
11832.7
5331.91
13919.4
8606.71
10988.8
22941.1
74041.5
49829.2
137198
133058
15353.3
158833
96023.7
11582.2
124068
126508
137005
140542
138435
138579
139358
127011
149310
148980
151607
135812
132717
112681
140439
143349
145748
141330
141633
138160
128347
119033
46022.2
108801
70535.2
118974
106231
38950
127565
129071
146444
122005
53726.4
87026
100010
-8444.66
61995.8
91547.1
82032.3
-12744.5
41859.8
6200.43
63325.2
112715
118039
99512.6
13714.3
84174.2
26784.8
3838.1
12820.9
7432.54
3458.94
12424
4206.69
11507.6
14326.2
14205.4
12179.7
7732.54
11873.1
8697.08
11214.9
-8511.85
-12592.8
21963.1
64918.4
-5067.42
41516.7
-2292.73
-13013.6
-5656.02
-9729.29
-5740.18
-9818.05
-2291.19
-13086.9
-8023.97
-13380.4
429.716
-2426.25
-6491.05
3332.96
-11597.6
5088.68
12961.9
6511.11
13459.1
5744.54
5806.65
12803.7
-2217.97
-6225.38
1580.47
-882.15
-4546.2
4230.64
-9067.74
16320.9
32866.4
138337
83568.3
21281.1
58935.2
15913.6
-2276.49
21431.2
20097.4
17216.2
2198.85
20128.7
26317.3
22618
-1829.83
128857
125952
107159
131258
108838
113137
79373.2
102997
33382.3
69658.6
30330.8
67441.8
40437.7
23150.4
17214.1
20184.4
17798.4
17848
15094.6
18971.3
18764
106148
56375.2
79009.1
68195.1
88450.4
53223
40605.2
98568.3
6066.24
59377.8
21067.4
75099.5
37553
7194.73
16315.4
18253.3
18431.9
15220.6
15072.5
18670.5
18606.8
30943.7
23869.5
43078.4
29548.7
24361.1
22613
27235.2
-1414.94
11932.1
23973.4
19536.5
4315.47
15398.3
4781.98
18898.5
21262.6
19611.9
24561.2
21695.7
22058.2
24966.4
9360.76
-947.945
8966.02
4368.5
14247.2
13995.8
4684.33
18634.2
43680.7
53941.8
28849.4
17585.5
27886.7
12209
20875.4
22880.2
10427.3
16499.7
19074.3
23924.5
10929.4
22099.8
20156.7
21809.6
21962.1
25473.4
22005.4
25134
10015.6
345.547
9236.4
13927.5
6961.21
14344.6
5497.29
15622.3
22714
15623.5
10194
18672.4
18446.1
10228.1
23244.1
22717.4
16104.3
18339.5
11985.1
18720
10775.8
11280.8
14768.4
6718.26
8684.52
21850.7
13371
17000
11081.9
19040.7
22868.3
24772.7
13962.4
15944.9
19682.3
-36979
-39192.4
-22455.1
-38816.1
-25052.5
-26063.6
-20413
-19818.4
-32923.4
-33321.1
-26165.6
-24962.7
-37088.1
-17216.4
-20086.4
-32933.9
-29906.3
-38040.9
-36600.6
-37247.1
-33205.9
-34053.2
-33131
-32539.2
-33605.2
-6485.05
-14537.4
614.164
-14744.8
-26917.4
-9594.72
-38345.4
-37468.2
-37301.5
-34681.7
-34374.8
-33274
-33319.2
-29235.8
-25704.1
-29956.2
-28881.4
-23916
-24508.8
-28313.4
-35121.5
-33334
-35631.3
-31477.7
-28789.1
-29185.1
-30995
-39608.7
-37481.3
-37612.7
-34958.1
-35421.2
-33290.2
-33443.8
-39012.4
-34954.4
-36846.8
-33347.6
-34987.7
-32800.5
-31174.9
-30418.3
-26007.4
-30271.5
-29099.5
-24621.5
-29031.5
-24777.7
-35621.9
-33353.3
-35597.4
-31574.2
-29215.7
-29366.9
-31491.9
-28392.7
-31645.9
-30224.8
-26556.4
-25387
-28175.7
-23419.2
-27160.8
-22153.2
-20407.2
-24396.8
-24872.8
-22701.8
-26679.9
-35411.5
-32712.7
-35348
-28852.3
-31268.6
-31191.4
-28571.6
-27371
-22734.2
-20770.1
-24882.9
-25181.8
-27185.9
-22986.3
-30624.7
-26480.9
-31048.4
-24493.4
-28974.8
-29069.6
-24492
-21862.8
-13131.3
-20262.1
-12297.2
-19280.6
-17512.4
-10689.4
-26162.2
-29306
-30700.9
-28498.8
-22699.1
-27092.8
-23938.2
-32603.1
-31704.2
-34448.5
-30392.2
-25992.3
-27628.8
-28764
-29462.3
-22150.8
-24519.4
-23223.2
-25882.8
-21241
-18718.8
-26509.2
-18247.1
-22003.8
-20217.4
-24371.7
-19923
-16047.7
-22487
-24576
-26974.5
-26829.6
-19581.5
-24194
-22237.5
-12894.2
-9618.25
-16292
-14370.3
-4500.47
-7821.7
-10815.2
-11538.2
-16347.3
-18478.2
-15534.9
-6671.5
-13203.4
-8862.32
-26067.4
-20151.5
-18611.8
-21776.9
-23274.9
-24619.3
-21460.3
-17683.2
-19174.8
-21967.3
-17599.9
-10675.9
-14903.3
-13564.5
-35042.1
12289.5
-40621.3
18978.6
-24690.2
18942.7
34851.8
16922.8
15915.6
16858.8
29062.5
32476.3
21977.8
24886.8
20109.6
17785.3
10775
-4659.42
28370.2
15432.1
-26544
28351.3
10291.8
31841.8
-8842.27
-12053
-27122.7
-11407.5
18195.4
24382.1
20178.1
15275.3
13321.3
18513.2
21978.1
15235.9
14679.7
16586.9
9665.05
11192.3
14928.1
12702.1
14660.5
24997.5
20144.6
16023.6
14830.6
21201.7
23743.2
-39615
-24129.4
-26943.6
26823.4
18254.9
19557.3
4943.19
-27469.4
-27222.8
-39235.9
-26488.4
7492.19
-13139.5
-42097.4
8472.89
6570.5
12691.8
9783.9
12264.8
16140.2
10046.5
17956.4
23655.8
20534.2
21074.7
23561.9
24765.6
18885.2
29339.7
25765.2
24795
24685.8
27009.3
26555.6
28765.9
27239.5
-3141.23
17037.6
21070.1
19867.4
28441.4
5438.81
-35619.2
-8399.88
-16053.2
-14059.4
-27478.2
-39339.5
-20684.3
-4411.01
-19274.2
3816.1
10434.4
-19511.5
-9672.17
974.003
6136.27
15124.9
10011.3
9975.16
7527.02
13162.2
9220.76
13638.8
9472.89
11042.2
16607.6
18517.8
20059.7
14771.5
18356.7
5164.95
-174.842
21564.3
20108.4
2619.99
7354.34
15357.5
14823.4
13182.4
19625
25010.8
22528.4
22385.6
-6047.87
-23937
-3116.69
-22684.2
-2936.82
-2309.33
-21528.9
20867.7
16382.3
16915.6
23890.4
27860.9
28065.2
24903.8
15845.1
-24755
-8636.97
9941.97
17936.6
-4946.31
-18878.4
42029.3
67687.7
55444.2
16301.9
-3277.71
-4372.66
14414.1
23685.1
25618.9
29939.4
25968.7
27131
26936.8
21883.8
20877.2
13876.2
15633.2
20651.8
21958.1
25867.8
15507.3
-32861.8
-37654.5
-43587.3
-4947.69
-23498.6
-38258.9
-31360.7
-41406.2
-43393.6
-44917.4
-37284.7
-34414.8
-40489.4
-39628.9
-36919
-21958.8
-26976.3
-23449.4
-31634.4
-33117.2
-19113.1
26656.5
32727
31503.9
29690.2
29646.4
28626.5
30123.9
22468.1
25190.5
16528.9
25778.5
18632.2
13604.3
19792.8
13251.9
17907.4
11830.9
19795.3
15221.5
11954.6
16659.9
16967.1
14711.7
7067.5
-11933.2
22885.3
-620.22
7852
25219
34272.5
18788.9
24231.5
29622.6
31049.8
12660.3
25523.2
24043.3
22643.9
5556.22
12115
8354.77
9787.03
-34474.1
-39773.3
-35767.3
-34390.2
-31744
-36592.6
-31717.7
9826.34
-18297.7
2548.63
1097.43
-12068.4
-17630.5
6165.36
-38068.9
-38105.7
-32550.3
-28711
-35494.1
-34212.2
-33780.5
-41525.4
-41578.6
-43333.8
-38988.1
-36290.8
-37275.6
-36873.2
8245.09
-17392.1
2174.67
966.957
-14206.3
5381.44
-17964.7
23511.7
14387
20647.1
-1467.59
-8873.08
1640.72
-13534.8
-20038
-28008.2
-25150.8
-13437.4
-29193
-16766.6
-16262.4
-41142.9
-41384.8
-43244.5
-39241.8
-35536
-37157.4
-37700.4
-7258.08
1801.97
-14848.4
-32848.3
-19659
-27465.4
-25300.7
23152.5
25194.8
19332.7
14932.1
22074.6
18353.2
19533.2
-19774.6
-31995.8
-26981.3
-35756.7
-31191
-30824.3
-35545.4
34015.1
34104.1
51823.9
41937.7
26975.6
42601.7
33710.4
-37701.8
-30309.9
-32312.7
-32324.4
-34489
-29556.8
-27430.7
-27970.3
-19909.6
-27534.5
-18895
-25837.8
-25275.4
-17935.2
-24899.6
-31253.2
-26139.3
-24986
-30236
-21156.5
-29382.7
-31770.1
-25047.5
-28574
-29168.5
-33050.9
-28647.3
-25163.1
17082.1
2551.07
23345.2
-5760.37
11960.8
17282.5
1033.49
2743.66
7694.3
-12772.7
-10702.3
5453.72
-15365.2
6242.99
-34506.2
-31910
-28350.5
-27588.7
-32884.4
-29929.1
-32207.5
-34991
-28387.6
-31531
-29462.9
-32900.8
-30506.6
-33723.3
-23578.5
-17850.4
-25467.1
-23147.1
-13984.1
-21141.9
-15878.5
-28680.6
-26964.1
-30903.9
-26359
-20451.5
-24134.1
-22748.5
32457.1
26610.4
25295.9
41643.8
40107.9
31041.1
31155
-20341.8
-16659.7
-23275.1
-22643.6
-12820.7
-19567.4
-15615.9
60455
50267
48285.6
58852.8
50857.3
39580.9
42533.8
10941.3
-4791.21
10722.9
15179.1
3161.33
14447.3
1816.21
26953.9
8647.99
26976.3
21182.6
14993.9
7920.93
23323.8
-55022.3
-50475.6
-46346.3
-38451.7
-43616
19233.5
45122.1
668.318
4533.57
-56421.5
-44878.7
-42610.2
-22335
-35776.6
-46141.7
-46378.5
36195.9
-37926.8
-1947.87
-996.943
26199.4
-10829.5
-38168.7
-52756.9
-56798.7
-59619.4
-35595.5
-52650
-56718.4
-53600.1
42039.6
27361.5
16493.1
33059.8
31179.6
3710.95
12789.7
-52722.6
-53563.5
-57802.3
-50049.1
-53738
-55518.5
-52255.1
-50204.4
-16806.4
-29269.9
-33223
-44966.6
-47617
-24649.7
-56206.9
-58170.3
-58317.4
-54954.1
-52818.3
-52931.2
-54518.3
-52659.3
-53686.5
-42326.7
-42125.7
-51332.1
-49307.5
-50290.7
23441.5
18421.1
22332
-1703.41
3860.47
-2199.02
5677.73
-1792.6
15413
18687.3
-13094.6
-30582.7
-11826.8
-35256.5
-30724.2
-41789.9
-48702.1
-52961.1
-43788.7
-49190.2
-48564.8
-54293.1
-52565
-56371.6
-53514.2
-48274.3
-51437.3
-50288.7
-47107.6
-49100
-51331.2
-52457.1
-46777.2
-48926.7
-49771.8
-32936.7
-41924.3
-40585
-24650.9
-44160.2
-30403.5
-26247.4
-39738.4
-47525.6
-41866.3
-42350.9
-45641.8
-36311.2
-46448
-51349
-48977.2
-45589.6
-46190.7
-49402.7
-50530.6
-47471.3
-50382.9
-45632.6
-44848.7
-44719.9
-48277.6
-46966.2
-47683.3
-55391.2
-53289.3
1575.71
-57192.1
-51071
-53682.3
-48685.7
-47897.1
-47613.5
-48842.4
-50419.1
-60392.5
-57749.1
-51845.9
-57606.6
-49089
-44415.9
-56950.7
-58312.5
-61625.4
-61152.9
-58493.4
-56737.5
-58030.9
-31781.2
-45910.9
-29213.6
-19150.7
-45139.8
-39931
-17899.2
-62549.1
-60637.5
-63637.6
-62480.4
-61433.2
-58899.4
-59318.3
-53350.1
-57989.8
-59168.5
-52964.2
-58300.5
-56432.6
-51872.6
-53933.5
-42155.8
-51988.4
-51191.7
-56122
-55973.9
-54055.9
-44428.6
-46402.7
-37512.6
-45542.5
-36257.7
-45412.3
-37295.4
-59664.3
-56247.1
-58156.3
-56499.4
-55068.8
-54733.4
-57083.7
-55600.5
-54219.5
-56997.1
-56169
-53544.5
-54673.8
-54737.1
-52234.9
-50957.8
-54584.2
-53455.2
-50987.9
-49813.8
-54590.6
-46153.2
-49473.6
-51475.8
-53084.4
-47876.7
-49305
-51702.7
-57078
-60409.7
-59483.4
-57023.7
-55361.2
-57667.3
-54717.9
-54366.3
-53637.9
-57226.6
-56009.8
-52549
-56064.7
-52775.8
-51813.5
-54697.9
-56642.6
-54642.7
-48711
-52577.4
-50358.4
-55753.7
-49803.6
-53047.5
-54103.3
-48125.4
-51317.1
-50234.5
-15705
-27230.4
-16161.5
-13747.9
-25406.3
-28003
-18077.5
-44396
-36688
-36932.8
-43177.3
-44319.9
-36581.7
-35877.3
-44484.7
-37423.6
-38278.7
-43004.7
-44460.2
-36993.7
-36090
-53227
-51064.2
-48348.7
-48714.5
-49566.6
-52053.9
-52172.7
-53325.1
-52188.9
-50310.8
-48600.6
-49755.8
-51952.9
-53870.7
-54183
-52428.1
-51058.5
-48839.3
-54542.7
-50980.7
-51973.8
-52271.1
-46749.2
-46345.1
-47356.2
-49462.3
-50169.6
-48570.4
-20412.2
-29394.4
-19759.4
-28457.8
-19278.6
-27945.1
-19353.3
-17953.3
-28068.8
-27674.3
-27896.2
-18905.3
-27529.1
-18935.4
-41754
-41512.8
-43149.5
-35938.3
-33585.2
-34860.1
-34930.1
-27643.4
-18550.7
-18546.8
-26019.2
-26945.5
-26981.5
-18940.6
-54005.5
-48580.8
-19109.3
-51134.2
-40580.5
-42792.7
-36820.3
-45907.8
-37134.4
-46652.6
-54595.3
-43323.6
-40535.3
-36809.8
-46646
-33510.8
-42223.4
-43190.6
-36647.6
-17693.7
-30281.1
-38093.7
-15635.5
-17978.7
-52697.9
-47721.9
-50876.1
-51977.9
-49241.3
-48680.5
-47494.7
-53225.5
-50427.6
-52191.1
-51954.3
-49758.8
-48621.3
-48833.6
-54193
-51090.6
-52413.5
-51960.7
-50972.6
-48822
-49067.5
-52273.4
-46339.3
-46741.5
-50159.9
-49450
-47343.4
-44405.2
-44132.9
-41926
-45629.9
-45117.3
-40395.1
-41264.5
-43976.4
-48836.4
-46928.1
-49887.4
-46926.1
-43404.8
-44208.4
-45893.8
-36029.6
-41520
-41747.8
-34930.5
-34885.8
-39917.8
-33571.3
-46662.3
-42210.9
-46051.5
-44982.5
-41426.8
-41203.6
-45205.3
-49706.2
-46579.7
-49653.9
-46583
-43882
-43844
-46636.2
-47314
-43626.7
-47437.4
-45354.2
-41545
-45425.4
-41593.4
-43638.8
-42773.5
-46265.2
-44151.7
-38446.8
-40634.6
-41613.7
-49756.5
-46373.3
-49378.8
-46367
-43744.9
-46635.4
-43502.4
-44660.2
-44971.3
-47769.6
-44967.3
-39698.2
-42202.4
-42220.2
-27777.9
-18631.8
-18554.6
-26989.8
-27003.7
-26008.9
-17895
-43436.3
-38997.8
-40327.4
-37251.4
-40916.4
-39631.8
-42592.1
-39304.6
-31006
-33188.3
-34787.7
-37561.1
-31676.4
-29324.7
-40110.8
-32088
-33697.9
-35903.7
-38090.5
-32085.9
-30229.6
-43147.7
-39525.7
-37117.4
-40672.6
-40643.1
-39462.3
-43208.8
-42986.2
-39398
-40448.7
-36613.5
-43162.6
-40232.8
-39291
-41778
-36145.2
-35512.9
-36777.8
-39032.3
-38256.4
-39356.9
-25757.5
-24036.9
-16351.9
-24550.1
-15167.6
-22622.9
-16753.8
-17034
-24882.8
-26141
-24880.3
-15790.9
-23373.1
-17030.5
-32708.3
-33277.2
-35589.6
-29973.4
-25229.8
-27922.7
-27448.4
-14155.3
-12091.5
-13802.9
-23180.9
-19102.9
-21446.7
-21038.1
-20377.2
-14951.3
-11429.4
-10492.5
-18258.4
-17156.7
-13435.4
48599.8
55675.5
47798.3
36191.3
36818.9
34997
39110
-5943.78
-8114.19
18574.9
15256.4
17148.3
-6875.02
-12909.7
12380.5
-11768.6
-4549.26
-11348.3
-3179.4
-10063.4
-3203.13
-1739.16
-9751.98
-20.1741
-1337.46
-6360.77
-8116.14
32.4164
1536.87
-9308.68
-5385.53
-7996.66
999.298
-1330.3
135.667
2643.57
3959.56
13594
5350
13905.1
5300.95
6699.36
15070.4
8789.84
18201.6
10264
18981
22347.1
17965.6
22404.3
14550
6726.49
7658.11
8120.97
17289.7
9334.76
16215.4
-4060.28
-3197.66
-1212.84
2007.97
6518.19
3710.58
4652.11
19986.7
18420.4
15834.7
7094.94
9436.51
8553.83
11102.4
-12200
-2176.34
-5587.11
-3283.37
-9634.54
-5758.82
-8423.91
20008
11654.4
21712
23491.4
14668.8
10161
12922.5
30955.5
45184.2
43886
35906.8
37124.8
50842.8
52317.7
36540.9
38129.3
29097.2
31700.2
49290.2
41163.7
39324.1
40716.1
34942.2
31447.4
52187.3
56534
49788.4
45769.2
34417.7
49220.3
46924
40907.2
38760.3
54276
56822.3
134831
121339
87148.1
114268
99853.1
136213
148199
75805.1
64902.3
71616.6
45171
48053.4
50398
53583.1
39806.6
55536.5
52088.1
43555.3
46733.1
59969.1
63766.2
34845.9
46624.7
53149.7
48906.3
38561.7
44742.6
42674.3
55707
78564
87028.7
73101.5
80911.8
51561.2
57396.7
52394.6
42876
44222
68526.8
58981
60641.1
70417.6
47303.7
59602.3
64367.2
54944.2
50519.1
68256.1
73600.5
95233.5
63734.4
89813.2
84594
79815.9
56530.5
60026.4
54394.9
48350.9
46010.4
62836.6
76195.1
65671.6
72937.4
123738
109453
128756
157771
154946
73734.4
30083.2
61967.5
89655.2
87373.9
99896.2
70683.9
72566.9
102663
96895
65802.5
92770.9
75099.4
111201
78379.5
106402
51259.3
64041.8
54764.6
80255.4
69184.6
73474.6
85213.2
77743.5
101909
109833
69107.1
97218.5
90341.6
64205.5
68629.1
63749.8
58906.2
78619.8
98334.6
84720.3
91188
145328
72169.3
109460
156229
158442
17313.2
77776.6
108463
72230
102148
117135
82501.1
87538
123995
88146.9
116005
124589
93609.1
139523
100847
131570
110513
94246.2
104445
135297
139503
142474
145769
94166.6
115337
81220.6
83415.7
135245
118457
96764
125511
106495
117648
147490
143645
148892
151799
86386.8
105010
138997
127581
90246.9
122562
100324
129025
152907
122635
116298
148328
150781
154526
110827
133392
95067.2
100949
151975
139701
117909
152470
126034
151473
138812
141028
154644
155162
12569.3
27271.9
15314.2
4630.12
26592.2
17376.1
36975.3
30210.3
8798.24
5545.99
1386.69
3313.35
6605.35
7296.08
10749.4
16886.3
8345.83
12570.4
14731.7
10397.2
14731.7
19269.1
18679.2
13471.8
10182.2
16938.4
11821.6
15457.6
20766.5
8656.96
21073.9
12094.1
21660.1
12704.9
16396.5
25649.9
-6228.61
5468.64
13049.3
16492.4
14656
10479.7
18609.3
17416.8
15006.4
12404.2
7896.78
14511.8
8811.65
11706.5
11970.2
13282.1
15461.6
14694.7
13037.8
10615.2
13043.6
14883.6
17271.5
18291.9
18994.3
18760.6
15386.8
15228.3
18576
1618.23
-743.711
-9015.43
-4563.95
4372.57
5738.25
-2235.31
20379.4
17365.8
16776.4
18136.7
16288.8
15899.8
19113.7
3872.8
584.899
7809.63
-3041.08
4485.25
7802.44
580.025
303.811
13912.1
9283.98
9995.13
6955.95
14322
2184.35
11843.2
9082.07
15478.5
7632.07
4630.91
13693.4
11482.6
5290.7
-6831.29
21623.5
9473.14
20090.1
7750.04
5271.35
12878.8
967.702
-5601.92
-4845.74
2034.88
-3355.55
2850.28
4260.26
-10081.3
4715.48
-9336.23
13077.9
973.165
-8974.79
10202.9
12346.5
-1829.97
-9924.65
-9947.92
-9556.98
-1958.33
-1705.31
-1643.33
16093.4
-10804.8
20000.8
13425.8
-9808.26
10760.9
-9889.09
4584.18
-5123.16
21073.8
-2897.31
-7969.97
4016.72
3118.49
114.574
-9460.56
-1567.05
-10082
-9722.63
-513.355
-1097.37
-1396.12
17038
13657
11888.4
8251.56
8702.02
5843.17
11812
-8079.24
-1714.5
-9992.32
-9561.09
-392.781
-1463.58
-1945.82
5875.06
13288.9
6139.18
5513.37
12634.8
5636.72
12309.6
5049.11
10978.6
4438.25
4634.3
10927.2
4367.15
11073.8
-9837.23
-9941.58
-9563.23
-1655.17
-1654.75
-1633.91
-1962.47
11400.3
4595.79
11167
11986.8
5143.56
5161.73
11891.2
-8718.82
-7404.5
-8333.52
-378.221
-1242.1
-905.174
308.066
-9650.92
-1811.18
-7982.51
-1242.34
-8978.38
-1239.55
-376.997
11156.6
11884.8
5147.06
4825.36
11975.2
5175.06
11436.9
12858.2
14160.2
14811.2
6942.59
5860.18
6135.58
7552.05
2862.97
-4660.44
-6556.67
-7838.72
-6219.59
-206.665
1360.83
11454.9
12342.5
13464.8
6590.59
5626.53
4892.94
5627.37
17126.2
16023.9
8455.7
18489.9
10512.7
11928.1
20040
8334.03
-2372.03
621.535
2587.51
-638.376
7024.81
10380.6
-2300.74
3428.48
-4139.76
529.846
-1607.62
6011.95
8218.26
17794.4
8614.97
15994.1
13843.2
15290.9
8100
6843.82
20935.6
10911.7
18727.9
13777.3
24760
16164
22095.2
4925.38
3861.46
1396.81
9135.25
15843.1
11723.6
12854.9
13174.7
25525.7
16518
14982.6
28008.5
23629.7
18721.8
17368.9
23490.3
19046.1
7633.35
27173.1
21618.7
27662.3
23548.6
16779
18609.1
15910
18158.6
16294.3
19125.7
20380
27646.9
26246.3
22581.5
20858.8
20231.1
22567
23805.3
11846.5
9084.22
4633.92
13695.9
11494.3
15486.1
17419.6
25133.2
22392.5
19766.3
19557.7
17938.4
19761.8
22391.3
24060.7
28555.5
32661.9
24984.5
29766.5
22116.4
25795.3
20118.2
15220
19205.3
11162.5
15222.6
16583.5
20120.2
24391.2
26284.7
21622.8
16507.2
13891.7
19775.3
21618.1
24730.1
21435
29326.9
34747.7
31054.9
17258.9
26167.1
32441.9
28964.4
23791.8
28992.4
24940
19810.5
24252.4
21775.3
17330.9
22660
19640.8
30155.5
24396.5
25162.1
20642.6
16079.3
25342.5
20642.3
35358.8
25461
30210.3
17364.9
22675.4
32214.2
21308.4
36754.6
26861
30866.4
45686.4
70749
30833.5
56549.7
84226.8
62959.8
40295.7
43360.8
43778.4
35556.9
37898.5
34796.4
34745.3
37047.6
47395
56956.6
47510.6
28423.8
30259.9
25238.4
26553.2
31951.7
30209.4
36823.1
30977.1
37473.3
28424.7
34328.2
32543.5
39558.9
43060.2
30491.4
24563.6
29373.4
31436.5
27213.2
37119.5
33319.1
45694.8
39838
32298.6
48771.3
39924.7
34606.9
42378.3
34264.4
34835
30634.7
40189.7
41376.8
44078
36936.4
41022
43377
37475.1
57028.6
52509.4
45570.2
49531.1
40011.1
43926.7
36911.2
40736.5
47300.4
50398.4
43402.6
27167.7
24451.4
20964.2
22684.8
26715
29097
33348
48711.7
51716.2
43927.1
59019.9
54267.2
46816.4
51074.2
33421.9
35198.8
28599.4
36593.9
31340.9
38227.1
43782.1
43576.9
92062.8
67123.1
37966.3
54870.1
48442
112937
113690
33649
33021.7
28973.3
48250.3
42907.7
47501.1
53218.7
30889.7
41135.9
47623.4
35704.1
41867.8
31616.3
25807.1
37883.3
41466.3
33977.5
44113
36218.3
40719.8
48915.9
57409.4
128466
104645
107462
80408.3
157204
161083
38557.7
33095.9
28669.9
45678.9
35387.2
40064.7
50800
47975.4
50699
42536.3
45898
60773.4
51808.2
54448.9
42869.8
42868.8
37637.5
58906.8
52819.3
58909.4
65501.5
49993.9
45029.6
38972.6
67422.4
61569.6
54434.8
59779.3
54965.1
48796.6
38118.3
45377.9
63359.2
51380.6
56668.5
51223.5
53732.5
42879.5
47837.1
69034.2
59304.5
56523.9
62233.8
48825.4
55705.9
82408.1
74296.4
65977.6
73222.5
60534.3
85103.4
94277.8
92862.4
66156
73294.4
103120
52006.4
76496.2
69918.5
60055.5
65959.1
79916.6
87358.9
53488.8
69597.8
76063.9
72984.2
59906.2
65673.4
62610.2
102302
80598.4
72759
80603.2
125800
89303.9
113698
63606.3
93415.7
84229
80769.1
72781.4
96233.6
106941
84279.2
129415
119186
74931.1
105594
81805.5
115523
69380.1
87897
75950.9
106901
91975.6
100639
117419
101371
149046
139833
89991.2
138214
99794.4
126708
95620.7
142867
133771
146974
109732
120359
153265
154721