/*--------------------------------*- C++ -*----------------------------------*\
  =========                 |
  \\      /  F ield         | OpenFOAM: The Open Source CFD Toolbox
   \\    /   O peration     | Website:  https://openfoam.org
    \\  /    A nd           | Version:  9
     \\/     M anipulation  |
\*---------------------------------------------------------------------------*/
FoamFile
{
    format      ascii;
    class       volScalarField;
    location    "0.00345";
    object      rhoE;
}
// * * * * * * * * * * * * * * * * * * * * * * * * * * * * * * * * * * * * * //

dimensions      [1 -1 -2 0 0 0 0];

internalField   nonuniform List<scalar> 
31491
(
358707
375523
466222
415464
731501
664732
338040
340629
335392
304495
303231
316955
300936
344929
319784
308966
417194
383244
349486
322878
303489
288972
288431
291551
276790
278816
293743
303696
289454
288790
283929
281148
296140
299110
306082
293269
290761
287565
292412
303100
308421
318736
334446
318399
328923
326517
308049
310383
686540
651036
397880
337505
435786
344696
450631
285914
321995
306212
308862
288268
303445
324866
313472
303182
297345
306531
298694
315256
323713
320573
336464
319455
335266
331600
312880
316140
294803
312324
291116
306507
333794
310562
328665
348654
469671
370151
354950
334978
354770
324666
330987
318453
334282
359984
330556
358200
359077
333314
326070
396827
444106
429770
379295
364981
414474
361117
341996
326370
334368
338410
340237
343759
339875
333577
321378
325371
321329
324486
340347
341426
363516
431905
422114
396975
405418
360762
363046
342442
326846
373830
336878
372366
348617
330097
329580
338336
340480
348756
355933
355730
346808
313174
315201
334138
342419
326183
340570
327445
333350
321953
321448
326794
328743
342906
345227
362990
339688
336334
331274
329186
348610
351140
325719
311590
311959
329016
329761
340494
340879
341848
357734
346819
375643
373027
364376
355640
343812
337464
334075
372648
357852
367378
354092
329104
312588
315434
344530
331211
327734
342030
339962
354354
340243
362413
363693
351601
351325
341441
356075
340269
365982
368744
352426
353981
377286
372348
348360
367265
361818
343998
356330
326085
322628
340730
340280
320601
326492
346813
424852
736366
701141
375452
490696
357123
474616
299578
330217
305662
340339
315845
322520
348365
338208
350868
331216
333959
364946
343117
354996
337798
318193
361285
364746
340307
320851
343447
322335
339067
313218
330722
369110
340549
357932
349185
344256
369361
324166
353285
328638
347633
696711
357355
461308
430347
324817
340549
303801
447386
450678
309542
314200
320498
338980
345690
351142
358400
337221
377673
363309
316492
328124
353735
367180
326336
348219
333288
381667
365181
373215
390725
288198
242428
263416
275177
236606
274297
302577
271434
272913
332268
262644
293520
278775
239307
307924
275373
235159
248582
246049
232557
233495
241165
242817
234795
248475
246717
239172
236187
245358
248092
242414
250492
242303
253165
246026
251221
255188
260344
273896
259454
263494
251623
253452
265427
274420
261491
260316
255826
270413
258473
267739
243001
265688
245518
271713
251714
253971
273887
252033
246531
257152
256710
250765
260286
266646
268274
251176
248233
256518
280072
259504
276600
276422
262950
265367
273809
261707
265921
278297
254590
280284
258827
284457
263202
267856
289895
292752
281356
261621
263754
295196
275112
283617
282642
274703
269236
271358
291395
278152
284110
266306
281175
290371
298377
269462
277785
286546
270534
286283
264098
273625
304483
280660
296514
240882
486159
221594
580860
695977
542885
291300
491832
318120
521686
531763
555822
533535
540060
607562
578154
582727
293229
238355
295380
241563
384231
298308
375940
220731
318850
640278
302106
273243
403428
276566
549700
419574
534288
507321
596504
546651
450502
515380
461548
507241
514769
552093
541190
484599
634992
697033
657891
665297
622716
620976
640438
279018
300022
413113
246349
300156
323039
268830
389551
342147
451878
479874
308682
362757
406147
644149
551820
634527
569601
410534
447641
550676
776000
597848
657090
481815
426812
480174
330506
246587
261334
238400
237487
267498
259563
259477
255785
234658
235279
263251
278209
257808
256786
406166
311362
305626
322752
324914
283545
298245
536265
613082
587957
566730
477276
494009
561023
444390
296290
334041
279634
302675
282102
279726
522559
320873
365390
325407
376284
298867
297913
217224
334896
255016
221995
283935
248709
222557
482475
380369
315696
343742
359452
403342
448584
276620
296286
281086
276900
293459
276208
295590
237788
236911
236322
258498
258986
258758
258586
546769
395746
217541
387684
433709
394423
387284
373377
364535
206727
266571
499260
486255
475334
445554
574701
437667
479785
455707
418972
460599
209869
305817
268880
445808
425778
402364
380872
430036
397495
415287
462406
493841
429862
459284
479658
526377
503034
531584
502780
515713
548460
583048
547663
540534
560252
403210
401039
387929
412439
398569
395537
400296
436396
267823
371825
375000
363412
457241
252346
512209
556528
562044
468280
515901
544426
522839
375550
248627
359742
339015
224535
218639
342497
417619
437173
433037
455971
418194
439522
442794
409536
440045
412049
422167
458225
469741
420171
454696
448512
465536
470641
497100
502859
463232
591117
568307
570529
543250
523006
526651
549888
157237
167000
217681
165899
194033
219607
339472
379624
394137
394532
387468
361347
380806
380219
517218
460742
467429
501863
453809
455694
512445
403477
355097
436526
250677
364811
396791
290425
379452
448343
364781
280275
456891
257881
385206
491482
512700
480674
495099
464142
469752
500861
324752
300506
223830
205599
210894
326616
313499
495189
447253
474674
453840
482903
455407
493967
476990
448365
497566
504669
458112
485486
469845
408087
364009
392984
404864
427985
415291
380467
238152
157403
168416
181587
195579
154158
172465
299687
218703
325173
350873
224230
243542
313697
505069
401946
469503
431870
379435
335242
467719
428587
481316
452500
442915
433880
405336
473424
288914
245927
211902
265947
229364
195204
220218
154265
174902
172842
158959
156221
172644
175216
162917
180219
181484
161271
156705
172194
175415
384147
365019
245215
311306
276392
337418
419170
195517
220572
195658
192372
215917
194821
213935
198866
229916
204569
191348
213350
193427
212476
147270
471416
170019
393479
591269
397317
372044
518181
391765
608896
467843
365345
516068
343998
391618
361758
357130
324511
348121
334514
325603
334042
375646
403612
348640
360947
333997
327497
326174
339552
334508
354906
528353
436213
398023
493337
432334
469083
550941
423747
364120
389635
382697
356738
379924
409083
147445
447719
203483
678893
503796
586400
390788
142605
135534
135786
365723
516017
237149
203423
411568
384840
346026
342901
341254
369002
367653
441479
368470
345391
442183
387035
493892
365083
338376
360466
346545
387028
353048
363014
377390
357902
442655
410383
448973
433296
491934
384033
475673
643968
526211
513020
630553
553146
606245
466362
462666
423965
409572
464832
415568
450025
383992
374333
362020
387256
416226
395036
413500
503607
474715
454960
497705
574386
523724
561844
501559
431070
472557
566894
546147
545149
413021
343913
397671
360655
363781
296083
327270
366876
391490
350499
384913
508005
529346
484942
299424
403254
312108
311457
333680
317335
209615
217142
395515
392978
405930
296136
353816
379233
431310
461963
435715
381292
408165
357546
235121
283718
544443
616232
604455
584308
573465
565397
600754
576563
706245
636255
610818
577356
569076
622917
193463
222528
364536
311543
140694
173560
174702
391194
534846
544489
454248
234913
401939
264200
136227
197692
204306
138935
127975
126693
141633
267177
178549
230568
145962
147800
163573
131765
282343
146934
231813
151106
146384
132488
177120
309941
676349
542685
455035
323659
241029
549319
611394
568519
578038
531447
528814
482281
578185
286852
178225
245430
155001
147806
134561
180575
256879
142118
164057
156954
164800
219007
158455
126790
131348
130049
134239
127425
131127
128691
371582
181109
240446
362071
196220
297686
454392
131927
142494
133612
140038
131475
130842
145594
649500
605568
692895
568970
418062
450247
546410
451280
408807
370815
500717
450021
440065
405428
472493
430956
427182
451406
579244
223735
455732
157136
555642
253933
432404
489920
563530
510870
503635
474961
491528
530996
566108
645298
750410
692800
679637
550117
633381
479655
493555
463961
525154
495543
473333
503402
428112
404151
425455
436855
433029
450485
456467
580366
562006
532312
509896
579416
550864
537848
439092
437270
461304
484120
417470
477942
466556
593398
499924
560608
468202
514786
363610
442210
481404
448592
477460
472174
509377
478493
502254
533485
519413
582978
545782
616696
567524
597029
642155
597223
618180
589984
550433
500356
550945
666439
393554
755758
248405
293156
482495
485477
286736
214993
365918
170580
228528
306688
206932
354548
318433
419590
174205
232458
305253
214829
504601
547859
528124
458644
510358
494244
533862
603595
693392
622407
579944
652328
632202
675437
561753
520751
515210
553155
544623
596435
607550
681342
619606
634594
733604
668959
653213
724324
694028
738243
742365
638880
602875
686829
640834
523506
437666
368495
387047
304725
254743
453027
160223
156966
170317
209550
176560
183420
180824
515848
378917
469372
377225
317406
265621
437636
824940
776218
703928
691966
791120
735566
770289
596118
574502
578141
633863
598640
648528
628306
692403
623916
614667
655166
731724
667608
730085
500960
634598
492336
344831
507197
523362
350770
566493
362561
489859
521318
610733
518793
384725
260127
240777
199322
241898
210851
209765
312531
767919
836110
797827
735366
725469
651945
606474
696009
723508
714210
633468
696459
679304
759703
268024
272130
355841
368383
267206
282594
290105
162348
163972
159523
174725
180654
177243
177944
593070
663803
467020
495842
313817
335203
422137
618279
526480
635391
508206
348813
374482
451147
193561
216210
198159
215666
195816
195817
214178
352929
296392
279542
302945
289507
296708
327799
508587
410610
797735
761817
317467
839530
560648
299468
775093
765037
814197
802127
792317
784434
772777
710958
839074
770595
815216
766630
729377
636061
759647
753586
790030
738778
767933
740806
683473
696371
413683
651969
492271
684391
628848
387242
675431
687142
766256
667139
424917
534635
576957
248612
469078
580363
534008
234767
396510
288185
460841
624594
662308
588352
303437
522548
345269
281609
303924
292648
276758
296799
277418
295716
303962
299125
295466
284448
291221
284344
291774
241245
232770
331849
465454
251477
386839
261596
227530
249036
241310
248835
233910
255299
227362
240799
228911
268988
258071
242869
271109
231382
277306
293934
277385
296474
276423
278004
295786
251133
241780
263624
259256
246287
271010
235952
303461
354889
728991
520634
325512
441309
300229
255668
316771
311865
300732
261908
318678
341295
318064
255274
686790
672586
603717
684569
603441
613207
502407
588833
364151
477152
353860
466772
382889
330877
311845
322535
314831
311991
303599
315795
311818
598210
433697
507236
463029
528807
419301
379457
563146
279573
437431
318709
482314
369939
280704
305924
307684
310302
299002
300574
309048
307199
355931
335002
393793
348774
329579
326853
339689
259026
297878
333118
318239
271480
305079
273714
317160
318408
315279
327532
321281
319386
326238
288179
255949
284386
270246
299535
296544
269715
310366
383895
415811
342939
306006
338294
292657
319747
321983
286482
302604
313176
326278
288721
316560
313907
317442
317000
324619
315695
324911
283665
258003
283009
294611
273913
294560
270788
297584
319868
298485
284692
310043
307530
283665
317779
317155
298195
305802
286907
305858
284264
285519
295215
273462
278522
314563
291047
301220
284827
306380
317319
322643
292536
297959
308535
214028
172880
200560
182790
243052
209081
216483
248729
218718
188545
199997
195019
168622
211892
210452
182215
182734
207276
212802
206956
223319
216767
216550
222774
176197
239973
222486
256080
217638
189412
231751
196492
183140
196160
191128
204965
204606
191549
232982
236228
226352
226315
243320
236301
232913
214794
212733
208909
218343
228246
221915
224628
166842
174720
169865
181470
175522
183328
178633
165540
172464
169282
176517
173982
177901
180566
199905
223022
213751
213464
209933
200475
222835
185113
200867
197721
206051
197090
209081
193567
188489
179716
183321
191748
194773
187179
198489
228065
245239
241383
238301
231443
238122
234722
177821
179045
173879
190895
186469
182776
188082
214959
212449
227737
206482
217991
202694
224545
190475
194784
184824
202210
192450
188095
198255
204369
224680
207047
227033
209676
212914
229877
193273
185310
183229
187329
199585
189593
197595
177073
179508
173861
182661
191481
188523
185474
184024
200791
195762
197727
191902
203001
208561
191436
210662
202166
205170
195645
206301
215247
205677
200290
195716
192372
208485
197892
202743
223868
232850
216173
219943
244089
236322
228196
227664
214971
210472
216973
238459
222126
233598
192310
205152
209271
201156
198414
194812
202863
210798
207103
200792
211320
227621
217470
220823
222461
394103
172134
405004
196346
379488
402822
404236
421308
423299
450437
439254
437032
431334
389026
418016
381760
277354
408572
382358
220059
391421
368421
422997
253794
251604
214750
253400
424616
445808
434027
408531
404750
422129
430948
418701
415698
422520
393043
398491
410781
402956
401439
441568
416329
405841
396089
414882
431144
184141
248961
210266
436584
373107
423474
345533
199263
190855
164969
203741
320524
269807
166956
367755
355868
383160
367582
381558
390375
363332
425529
442589
434948
432078
438667
442184
424319
458923
445076
448305
442375
432686
442736
450732
440764
306415
393690
402939
391917
439197
330710
172794
236502
220438
232391
199353
172463
219512
305645
247238
340062
358555
239131
274497
320295
348335
379462
355494
362731
349055
368175
349030
398501
387848
393187
412472
415933
421044
406231
417727
365791
344006
426636
419477
349391
369387
402842
401677
399377
421312
430875
427320
426788
294340
221365
298678
226133
301841
298882
226937
404469
401552
397437
418641
433615
426318
429352
399762
237698
304231
356803
401699
311832
251468
447763
482078
427872
310061
266791
271259
309537
437235
440816
452041
443328
445641
445659
431076
397736
375692
387147
400279
390319
410655
376234
200985
188103
165162
290905
225187
177084
202616
171897
159223
157680
178395
189269
167427
167409
213439
267711
248043
256370
230742
222589
274017
444522
453082
449933
435845
450458
444983
449693
398431
393463
371386
397670
380793
357807
371560
368149
370915
358176
376833
369315
353007
361243
375643
354678
319043
259313
388650
299590
338573
411840
446905
364398
400960
420067
442328
349970
429058
431199
423771
355071
377419
360105
373667
184203
167036
180649
179962
190212
173833
185510
330239
235537
312049
305082
250077
236098
316272
200808
192420
221323
229733
192515
209149
201478
164339
172894
162411
171481
180917
173134
182781
327899
239404
314396
305658
242784
313880
235151
409980
366016
405623
318682
273577
324257
263581
264151
239553
241416
286271
231913
271327
280244
162133
161656
159134
167521
172725
170428
169438
265863
307484
247247
189152
229080
201071
216444
381778
389529
377244
356909
365686
360705
365241
225093
190984
207700
177938
185965
188853
176394
414071
415918
466984
428093
386441
430878
396525
169583
185325
182362
179647
176283
187975
191218
200723
216416
197083
223039
205161
201596
220232
237992
201258
226658
220056
217753
245965
210761
189812
204746
197220
190018
181547
192080
199587
347260
287525
358858
265649
328511
337019
281183
306630
311478
244774
251774
309512
240530
312670
180941
189940
192086
202338
182369
190700
192590
176591
189363
181355
187313
179513
186295
178006
201759
218264
199210
203768
224444
206609
221998
187504
192628
183994
194792
206475
198300
202683
403835
371431
375098
412168
415830
381921
374849
216443
227476
210539
207058
230613
213523
224894
477630
423290
433150
449340
441004
400842
395797
315548
265932
320545
326362
281014
318911
280660
349474
299534
359763
339095
308827
295163
335985
153926
144389
195147
214040
176129
426313
541311
336596
368369
141729
163608
158150
245628
217663
157636
163788
499508
214325
346545
342241
454512
310929
209239
155901
147052
132086
212948
152480
137130
152740
529814
461622
420885
486268
479773
370112
404593
149933
140609
132466
150804
144041
136100
141689
180897
296510
251912
236321
197768
187088
267491
136124
139907
133128
139261
148257
141924
146712
168906
161289
204500
201853
161004
176229
167654
446034
422456
441715
346796
365041
340921
375387
333683
403571
421109
298456
224053
298184
213981
223891
178068
160938
144717
173994
161925
154138
137177
141158
134094
139010
147709
142127
144611
158097
151370
148500
141901
152092
149088
146115
234503
205290
204527
261815
195723
239893
259350
205933
168400
192559
183614
184289
213124
175254
146176
155539
156082
163287
148559
154467
153926
144828
152365
154654
154849
147989
151538
149151
166356
145176
279402
147673
184886
171425
181477
188477
184902
161070
144723
130766
138121
143063
134996
152123
153694
162951
151271
143286
142574
156042
159353
148754
197399
156604
194958
219494
159114
163534
216620
127782
136687
130666
131513
128441
132003
137120
141948
132683
132545
143377
132377
134303
143346
173388
213369
180044
182455
165332
164788
172762
166314
158191
179896
160709
183290
158122
177754
144081
157710
154608
156976
150140
159486
147945
163582
171198
160861
161850
169921
164568
168083
173481
166014
159026
166641
162013
174734
155219
196407
188211
179362
172024
188532
181808
178500
134048
134301
130751
134203
141312
138351
137527
140774
149324
142793
136635
148931
142648
142344
143773
136302
133974
136458
146832
139414
144883
135674
145846
140187
137688
148106
142452
145014
236895
205130
232320
238048
209718
200565
224874
158369
176830
178768
159189
158555
177076
176564
157800
174780
175044
159491
158047
175917
175949
169170
175937
184642
179040
178592
170762
174430
163788
154936
160333
172128
171656
164999
153633
138802
146127
149796
147673
143515
144498
142041
140098
149766
150672
148333
145021
143305
147158
216771
196969
220861
196757
217087
195806
219137
225120
197736
201314
198152
217764
196847
220044
160817
161355
159289
176437
178490
177104
176942
196485
216770
216719
196781
196262
196151
217755
153265
147144
217348
177839
205062
174921
209541
188230
180976
163942
143366
164663
161593
174260
155836
174920
157515
159194
170069
217274
182080
166556
219465
216390
170865
186717
176488
170971
179655
179137
185259
164080
160025
154937
165003
171638
172085
161109
138774
149713
146171
142077
144521
147719
152186
140100
150689
149783
143329
145054
148364
153717
196013
197831
188723
187907
203359
197345
194340
180989
182229
175316
182244
193926
188209
188281
176206
161338
160830
176939
177040
163564
178520
167335
188191
179799
179913
175326
187949
168022
158614
175104
168917
175103
168486
180118
163992
156876
158714
151213
154297
166593
159040
161735
155562
157894
151037
154452
165230
161466
158944
150351
151768
146325
151786
160883
155868
157009
153168
152463
147329
152473
162261
157670
157523
196156
216573
216702
196130
196116
196803
216626
190617
205375
201213
203998
195700
199642
196501
165066
183357
179491
173228
167808
181654
186096
163172
180687
178277
170572
166563
180690
183925
182180
177407
193310
174263
186333
189783
170350
158281
169752
167069
170783
162383
163386
165690
158687
169578
171321
168099
164001
165846
163057
197491
200261
219182
198883
220677
202330
217997
217261
198075
196468
198079
219083
200495
217269
177137
175808
171312
184537
194062
188447
189562
222064
226283
222934
200950
208953
204125
205102
209553
220037
229816
233298
212727
216508
227004
419868
434207
424789
384727
370196
374902
381263
245962
240280
307417
298398
305829
250471
239473
299368
237083
260349
242332
258546
240229
262456
261007
238618
260463
259599
243603
241577
261986
263443
246123
249467
244235
269666
265649
264521
269540
280416
298677
279149
301814
282348
281429
301431
294849
312914
295880
328653
326906
321378
330195
298420
279324
279440
281942
303103
282954
301961
248441
251820
254772
265971
274516
268116
271696
312307
310644
305343
285291
289499
284990
290321
224636
249378
240350
246520
230532
240786
233605
309723
288233
315028
318496
295426
286281
292548
340573
381544
377865
354706
358102
398030
402249
355556
360423
334454
341741
392623
369086
363482
368075
351564
341667
401575
414307
394574
382934
350205
393046
386465
368747
362666
407855
415244
659429
604508
495651
592678
547033
654960
696472
472513
439650
459860
381467
389805
396659
405925
365508
411396
401342
376326
385481
424477
435708
350621
384506
403868
391437
361200
379376
373091
412098
480862
506888
464281
488063
399985
417090
402205
374674
378477
450292
421880
426701
455883
387097
423355
437496
409368
396450
449122
465214
532450
435909
515573
499406
484784
414616
424884
407936
390245
383531
433088
473136
441454
463351
612728
565779
639880
731131
723775
455165
331509
430976
515337
508353
547315
457032
462624
555846
537667
442198
524914
470164
582604
480059
567462
398662
436282
408876
485459
451933
464827
500641
478079
553267
578277
451941
538667
517186
437262
449967
435380
421039
480434
541385
499124
519104
693957
450503
565633
721723
732455
297583
467194
573863
461367
553986
601548
492627
508135
623666
510057
597941
625634
527005
674234
549727
648287
580668
529666
561425
661385
675374
685195
695834
529140
596187
489050
495694
660550
606076
537165
628992
567878
603545
701242
688999
705615
714328
504719
562748
672650
635371
516583
619179
548181
640499
717571
619683
599246
703932
711387
721999
581045
654235
531562
549994
714804
674785
603613
716355
631136
713570
672941
680121
721879
723070
288039
328170
295496
267169
327682
302147
356557
337833
278060
269613
258916
263919
272482
274341
283476
299638
276843
288041
294166
282521
294165
306505
304563
290488
281782
300221
286388
296154
310657
278262
312322
287446
313952
289108
299104
325041
241763
270698
300730
303871
298455
283873
306310
301544
303949
296039
284853
299865
284623
293009
291445
296267
299397
298542
292792
287598
292803
296669
308332
307761
311707
309263
301366
299003
307102
263708
259572
236059
246217
271338
273247
251077
310126
302556
302060
305980
301779
299515
307451
265618
257592
277576
248930
269801
277553
257576
257874
294546
283101
283596
273893
294488
261861
286068
279038
296834
275133
267646
291914
286630
270698
241717
313011
281464
307188
274444
269386
288951
261218
243503
245754
262693
248341
265175
267662
239395
274211
237881
291611
259754
237095
282474
289523
259115
237937
237695
237086
256941
257879
256376
314808
240683
321471
298611
242224
291439
239867
272288
259393
325658
264204
249500
279869
278757
268327
246315
263204
239748
242732
267755
263297
260806
312734
302394
296573
288752
291144
280840
294634
248997
261214
239481
242842
266647
261843
258619
280584
299754
282844
278329
294057
277274
294433
278378
290362
274955
275445
288719
273051
290591
238148
237710
237072
259542
256346
258049
256929
290163
272322
288201
290677
274096
272708
289220
237825
239954
239071
258785
257736
257075
259148
236791
255843
238385
256077
237086
256085
257210
288170
289200
272667
274473
290635
274164
290242
292120
294843
295568
276805
274907
274300
277168
263834
244875
240953
238760
241825
257676
260800
287955
289514
291781
274431
272810
271891
272814
301158
299135
279923
305129
284573
287271
308449
277907
251182
258075
262193
254538
274167
282346
250125
265349
246221
256729
251924
271367
276470
302184
279031
297966
292825
296030
277616
275134
310150
284415
304763
291405
320067
297154
313357
267579
264777
258994
278929
295600
285150
288194
290914
323082
299167
294775
329153
317669
304221
302567
318380
305388
275138
327317
313117
328650
317569
302070
306314
299550
306047
301805
307491
310131
329209
325917
316721
311779
310971
316278
319013
286077
279046
267658
291922
286666
296860
301553
322152
315059
308701
307831
304411
308691
315057
319259
331253
342367
321834
334652
314512
324003
308492
294907
305544
284224
294913
299244
308498
320369
325189
312212
298422
291632
308077
312648
319275
310879
332125
346662
336949
300151
323976
341716
332294
317984
332306
321180
307210
319525
312964
300859
315427
307534
336727
320633
322782
310737
298235
324182
310735
352404
324082
337832
301764
316375
343494
312580
356378
328004
339682
380765
456322
338240
412346
496859
432759
365044
375327
376107
349678
356849
348732
348850
354620
384689
412335
382514
331617
336650
323400
326251
340837
335847
354192
337370
355576
330815
347080
341763
361515
371099
336751
320375
333846
339233
327528
354955
344534
379271
362900
341842
387601
362071
347611
369621
346862
348643
336936
363384
367205
374232
354644
364581
371275
355091
410631
397943
378313
389297
363472
374814
354787
365309
383924
392567
372611
328014
320416
310855
315994
327150
333875
345833
388310
397128
374589
417138
403530
382142
394188
345445
350541
331920
354986
340103
359706
375663
376315
522304
445984
360185
409181
390425
587889
590678
347878
346093
334649
390100
374633
387924
404595
339292
368916
387657
353385
371022
341352
325050
358260
368621
347182
376805
354063
366928
390728
416616
637719
561686
569547
485560
723840
741903
361535
345556
333091
382040
352092
365451
396923
387245
395287
371567
381863
425516
399057
406895
374282
374281
359248
421358
403431
421364
440968
394915
380506
363069
446673
429199
408151
423918
409098
391074
359843
380769
433889
398233
414113
397896
405517
373597
387954
450874
421897
413448
430900
391531
411621
492109
467390
442377
464171
426331
500927
529480
525046
443085
464604
557143
400770
474019
454139
424419
441957
484410
507279
404459
452255
472032
462696
423355
440797
431441
554579
486903
462987
486916
629737
513805
590701
434962
526094
497666
486640
462431
534837
568439
498149
641401
608233
469547
564904
490581
596520
452198
508514
472003
568308
521559
548607
601497
551510
705683
675429
515913
670185
546616
632664
533365
685350
655528
698780
577628
611502
719069
722397
651248
719502
698878
689080
724128
724655
536040
523417
495462
581718
684721
622492
640901
665349
678646
642050
718093
725929
724870
723105
659413
600362
713300
572753
727085
695118
629930
679330
724453
708654
717988
725565
723912
721097
596609
730261
711052
649851
742601
689616
734358
718894
707253
725937
721443
724934
715375
705130
690154
632500
728387
667721
743128
738812
717849
719756
686746
720843
677194
720804
720121
663905
704693
726289
709452
709628
722036
721534
706556
728936
721353
715263
720081
693923
717121
701605
719106
673423
720817
717711
620052
645582
712816
726818
732352
730965
682068
712002
703557
664387
702377
742153
750365
738636
730260
743486
738732
708901
648508
718051
714767
577245
701890
629601
602338
707402
709654
545588
690822
686264
530749
587090
698096
703741
679262
483577
669005
510239
733585
729323
733349
690160
602430
638906
669255
708991
674802
540988
567914
691099
603755
699415
361107
368350
263787
427234
354706
601202
458589
819501
511172
284956
299615
288197
306424
331062
347087
385118
353903
326973
326301
398312
333703
415688
337454
275479
278693
266232
277005
280190
288959
293061
318179
353395
320443
378705
361299
404416
487304
271518
292914
278382
294415
286449
300381
309561
412646
345014
330749
426955
363456
487748
406595
292307
307124
301919
315789
301917
307121
322261
291242
311699
295335
318799
303429
308645
325391
324921
316278
315458
323535
325436
337041
334471
313763
314093
328335
326911
324904
338159
341639
253694
210098
210780
206228
244476
278439
243114
237972
208529
234701
264634
218725
251973
288419
227189
259439
292789
263958
246573
254032
246700
264809
257426
257609
265155
205700
230331
244607
223847
221433
259545
267629
212467
199153
208070
216765
220270
209178
217753
232775
219974
232892
229013
243181
243649
230740
248479
284964
234961
271690
239219
274444
314926
256091
251794
248611
259612
270391
262736
267265
276399
280673
268809
268989
288396
280790
276648
202192
215786
211628
217210
212778
221662
226264
222852
237655
221151
244695
229950
230163
246178
205405
212618
220822
209109
216730
223761
220828
222893
238357
234918
245998
238615
249691
234036
225004
239357
228805
233391
220497
228889
241571
240053
266075
254276
255064
254755
267104
242325
228548
240846
224615
233921
253863
238358
249745
271076
290280
281536
285830
274137
282905
278699
204157
210636
208777
217453
215935
220881
222824
216410
219970
213958
233233
227918
226007
232319
220329
215855
222178
225436
231289
227848
237044
257725
258790
250847
274032
261596
270053
245985
253326
249401
238468
240691
268082
252708
256281
232267
241961
228870
248579
235735
233440
246950
229433
237626
224509
233054
251706
238151
246060
232837
253364
237843
258564
243265
249055
264375
216625
221038
214351
226798
237116
233884
229318
258854
446166
208987
440450
422880
452913
406307
412534
458584
441964
488463
445671
431350
412882
402257
289765
413259
415888
289076
219550
250935
291474
442032
378050
459857
384621
407354
392472
396281
254688
260133
259027
265735
410086
428815
433345
421501
424414
446578
442874
201260
238809
241931
215269
330207
340859
238746
451453
459646
455491
465783
467876
467773
462732
412291
438783
437140
423294
424652
448097
447592
457757
455383
458032
465778
443753
460453
462432
414062
440647
434820
422459
423832
447944
441913
409573
401359
419458
413104
419932
425935
408460
434241
380703
364084
447742
439259
367506
383828
454578
436991
439339
460065
472277
473942
457291
365553
331499
396514
400342
294823
337443
371060
451103
373365
425940
415422
453592
428783
377752
413710
281733
328781
381254
416664
332663
288555
382531
387799
370266
404029
390402
398358
376704
251240
292196
278414
285649
269254
261392
298554
476602
487881
477948
484470
476065
488007
474871
451272
434729
437706
459261
464591
470624
456168
337592
247333
318937
262932
341176
318865
248296
473636
470329
444822
469182
464985
481640
466583
235891
229230
253900
262042
229303
245603
238363
453683
448547
443993
370678
390174
373603
386979
239676
196021
199793
223994
249577
210698
206513
280178
240286
212576
336726
289418
250157
223329
389973
366371
365952