/*--------------------------------*- C++ -*----------------------------------*\
  =========                 |
  \\      /  F ield         | OpenFOAM: The Open Source CFD Toolbox
   \\    /   O peration     | Website:  https://openfoam.org
    \\  /    A nd           | Version:  9
     \\/     M anipulation  |
\*---------------------------------------------------------------------------*/
FoamFile
{
    format      ascii;
    class       volScalarField;
    location    "0.0008";
    object      impulseMax;
}
// * * * * * * * * * * * * * * * * * * * * * * * * * * * * * * * * * * * * * //

dimensions      [1 -1 -1 0 0 0 0];

internalField   nonuniform List<scalar> 
7318
(
0.0372208
22.5811
0.0685814
107.316
0.000886784
5.81828
35.9731
0.00239746
105.497
86.9817
85.0934
30.1699
29.2914
19.2521
20.0581
13.5893
91.5953
71.1281
100.076
79.6832
26.663
17.0291
37.9129
63.2781
61.305
9.79493
3.54202
3.17562
10.4677
47.6711
1.43921
24.3407
31.3186
56.0029
8.15552
2.39201
0.0638106
2.26519
2.13144
0.974373
0.029845
1.05029
0.0274655
1.30442
0.0149732
0.549781
0.0521436
1.78168
0.790954
0.0219563
0.337564
0.00997875
0.00210566
0.0948034
0.0835797
0.371573
0.00899639
0.00432249
0.170043
0.0357043
0.262602
0.00152726
0.060969
0.00687077
139.963
0.22803
108.541
0.121065
147.61
0.128163
123.928
0.305147
147.829
143.935
143.469
55.7971
55.9685
52.8534
53.2017
145.653
132.914
139.913
50.3223
54.2917
50.284
45.4874
122.299
136.135
135.007
46.8672
39.6831
38.7817
47.6048
122.397
117.01
130.353
43.8659
31.1738
35.816
38.9533
0.30424
7.69252
7.71328
6.88054
0.267356
6.99894
0.259708
6.23474
0.176206
5.08313
0.279093
7.25324
6.22594
0.22767
5.40231
0.120452
3.88681
0.200378
3.70443
5.5934
0.190837
3.73881
0.0729772
2.41574
4.7384
0.0999494
3.17166
0.161744
227.028
200.532
272.78
298.667
295.38
229.271
261.816
215.534
264.896
251.409
248.674
257.916
260.37
270.974
267.817
284.584
272.782
259.827
277.724
267.368
277.734
287.481
297.915
278.32
281.2
284.322
295.957
298.596
281.146
313.173
304.249
288.285
290.602
307.49
303.132
298.617
229.937
263.988
265.849
271.464
228.307
269.276
228.564
274.596
229.803
270.084
274.586
222.481
226.994
277.062
276.141
214.061
276.763
224.35
277.041
274.624
223.808
277.292
213.732
271.102
209.074
275.528
220.479
276.585
4.40188e-05
38.7005
2.0619e-06
7.3806e-06
0.134813
0.179213
0.00117886
8.55805e-06
4.92667
41.6434
0.0012458
6.08371
9.55475e-06
0.084596
4.98679e-06
0.0400512
0.109647
7.81554e-06
0.0440037
5.27915e-06
1.32661e-06
12.5667
0.244957
32.3515
0.000828147
3.89094
6.88999e-06
0.00354023
1.61878e-06
0.00147847
0.0320561
5.11897e-06
0.0142355
3.57343e-06
2.5859e-06
2.59618e-05
7.23289e-07
0.188042
5.0333e-06
4.37076e-05
7.41369e-07
0.000554773
9.10173e-06
4.28847e-07
15.7084
0.00230813
0.324166
8.38048
0.000154363
2.45204e-06
3.05525e-06
0.00682524
0.000409335
4.63492
5.23003e-05
7.00451e-05
6.63197e-07
1.54524e-06
2.87463e-05
0.00261299
12.0284
0.411275
137.307
0.187373
6.7916e-06
0.000274156
9.99402e-07
0.000594845
3.90982e-06
1.46241e-06
2.14377e-07
2.76689e-05
2.93425e-05
4.93467e-07
3.32094
14.6001
2.94315
0.658506
0.584165
0.0746978
0.0854047
0.0814565
4.01237e-05
0.999609
2.19266e-05
7.82104e-07
5.296e-06
4.62725e-07
12.036
1.22711
2.15303
0.258516
0.43245
0.0531625
0.0296706
42.4238
21.7282
24.4667
1.22666
2.82349
0.98191
3.44969
38.9637
24.3233
22.4253
1.21731
2.913
1.05056
3.34103
22.5801
17.909
11.7316
1.99905
0.706801
0.356344
0.998235
1.84412
0.536355
0.122646
0.18164
0.0437928
0.0129168
0.00427755
106.864
59.8438
39.2902
53.7999
34.3471
4.44749
10.3712
3.05379e-05
6.96424e-06
0.0252751
4.46439e-06
1.46631e-07
3.13022e-07
2.86326e-08
5.96449
0.392709
0.497351
0.148312
0.00930985
0.116717
0.0118551
5.40395
0.518952
0.454033
0.152212
0.0107544
0.131604
0.0123312
5.08945
2.01022
5.86434
0.137549
0.113761
0.0399834
0.379369
0.105944
0.0559887
0.0700883
0.0020428
0.00232705
0.00162266
0.00294025
0.0960359
0.062235
0.0719596
0.00209455
0.00263099
0.00303484
0.00179608
2.10801
0.158438
0.308774
0.00723303
0.0882844
0.0439779
0.00362772
0.100321
0.497412
0.00806536
0.0449289
0.0116266
0.00103862
0.000187771
0.0233528
0.0199325
0.281145
0.00694943
0.000586207
0.000500675
0.00803224
54.4737
0.764603
11.8839
0.552051
9.56643
0.480175
0.0193483
0.00441305
0.0128697
0.210538
0.0153811
0.00520365
0.000391822
0.00032824
0.0494722
0.0275155
0.0223205
0.00144567
0.000636723
0.00116206
0.000788659
0.0244665
0.0507167
0.02823
0.00148098
0.000698052
0.00127466
0.000809215
0.0204256
0.0643127
0.0412756
0.00173526
0.00117386
0.000855769
0.000573895
0.214303
0.0135389
0.0156529
0.00463029
0.00529258
0.000398221
0.0003451
0.105805
0.0133837
0.19623
0.00479972
0.000171731
0.00033548
0.00254488
0.000362278
0.0165644
0.0147086
0.00182195
5.19234e-05
0.00208477
4.55249e-05
0.0753628
0.0093488
0.00328277
0.00495107
0.00181574
0.000238752
0.000129172
0.83108
0.0176099
0.061041
0.0165159
0.000392644
0.00482566
0.0013661
0.00797663
0.0290067
0.0162593
0.000457896
0.000830286
0.000402701
0.0002234
0.00639909
0.000264797
0.0108467
0.00129032
1.87631e-05
0.00071504
3.25351e-05
0.134427
11.1957
4.89592
0.141692
0.0107121
0.00344083
0.435195
7.36584
0.0609408
2.93987
0.108843
0.00676989
0.00217757
0.333736
0.1608
0.00316637
0.0063382
0.00249515
0.00500322
0.000207198
0.000103864
0.270698
0.0374363
0.0105276
0.0282323
0.00827405
0.00107536
0.000337971
0.0250061
0.0593407
0.00039868
0.00147958
0.0198272
0.000503975
0.0744185
0.0248814
0.00144071
0.0621246
0.000434733
0.0214693
0.000502611
0.0721537
0.0413155
0.000288081
0.0143321
0.00714001
0.000402159
0.000141446
0.020157
0.0430368
0.000744824
0.01318
6.69404e-05
0.00102665
0.00031475
2.20208e-05
0.0104422
0.0321818
0.00197883
0.000248754
0.000770142
5.13072e-05
1.74539e-05
0.0123164
0.00218988
0.00773943
9.8203e-05
0.000325199
0.000215321
6.70926e-05
0.0029482
2.53569e-05
0.00102966
8.62432e-06
0.000305977
9.97677e-05
3.86646e-06
0.0026914
1.61076e-05
0.00220566
0.000148816
0.00077592
5.25091e-05
0.00757842
0.000774451
0.00530781
0.00287346
0.000149971
2.90946e-05
4.83603e-05
8.38991e-05
0.0217705
0.0123188
0.543666
0.0129123
1.84576e-05
0.000317817
0.00057547
0.0124958
0.0057385
0.297835
0.00998751
1.19685e-05
0.000204291
0.000453243
0.00449286
0.000956046
0.000755182
0.000137175
0.000171431
3.33548e-05
9.20334e-06
0.00303075
4.96065e-05
0.000217709
1.01005e-05
0.00236877
6.29194e-05
0.000278529
0.00311177
1.05591e-05
5.6305e-05
0.000251214
0.00268923
6.46901e-05
0.000289034
3.76855e-05
0.000166711
0.00178534
0.000880986
4.77415e-06
1.9841e-05
8.31798e-05
2.15988e-06
6.87083e-06
0.000266041
2.41723e-05
1.06434e-06
5.0706e-06
1.52792e-06
0.000493003
0.000161411
0.00299771
7.37858e-05
5.67876e-06
8.91277e-06
1.63804e-05
0.00313596
0.000255919
0.000209505
2.87271e-06
6.72274e-05
8.18306e-05
0.00977068
0.000327633
2.88105e-06
9.40136e-06
1.90599e-06
9.42659e-05
7.38416e-06
3.07638e-05
4.87043e-06
9.83388e-06
0.000105023
5.30946e-06
0.000123809
1.13198e-05
2.64377e-06
0.000723065
9.3412e-06
4.15632e-05
4.93015e-05
0.000876248
2.9861e-05
9.81888e-06
5.38861e-06
0.00011009
0.000125846
1.14906e-05
2.64991e-06
1.02623e-05
2.68633e-06
5.01487e-05
0.000761982
0.000891999
3.03559e-05
9.80927e-06
1.00088e-05
2.72053e-05
0.000164831
1.6087e-05
3.00448e-06
6.99657e-06
1.41015e-05
0.000190729
6.40909e-06
5.81939e-05
6.31349e-05
7.08065e-06
7.72579e-06
4.70068e-05
7.91956e-05
7.29577e-06
5.98826e-05
8.13245e-06
7.0996e-05
7.4452e-06
8.18161e-05
5.16849e-05
7.68821e-06
0.000110579
3.64736e-06
2.56615e-06
6.07317e-06
9.69992e-06
5.87922e-05
4.77883e-06
7.59517e-05
3.17216e-06
4.23779e-05
2.3176e-06
7.34147e-06
4.92478e-06
2.23299e-06
0.000499677
1.80344e-05
0.000254131
8.06748e-06
1.91797e-05
1.33648e-05
7.65991e-06
1.77504e-05
0.00118255
0.000363487
7.27466e-06
4.06027e-05
1.75567e-05
6.7142e-06
0.000731063
1.0394e-05
0.00023756
4.74484e-06
3.19831e-05
1.34373e-05
4.36316e-06
0.000439535
4.09829e-06
3.82747e-06
1.55506e-05
1.87657e-05
3.42743e-06
2.87009e-06
3.89492e-05
5.36681e-06
1.8986e-05
5.11021e-06
3.18463e-05
5.53582e-06
2.26853e-05
4.00535e-05
5.37947e-06
5.68025e-06
2.06792e-05
3.48272e-05
5.81244e-06
2.34103e-05
4.40595e-05
4.8728e-06
3.16086e-05
4.59569e-06
2.32008e-05
1.6969e-05
4.4393e-06
0.00010989
1.2483e-05
0.00021667
1.22493e-05
5.66802e-06
5.86651e-06
8.85787e-06
0.00028546
1.44175e-06
1.15782e-06
1.37649e-06
6.8934e-06
8.22627e-06
1.46941e-05
7.16754e-05
7.19113e-06
0.000141972
9.01969e-06
3.5039e-06
3.63763e-06
6.16733e-06
3.75897e-06
1.24459e-05
2.04139e-05
1.12636e-05
3.40497e-06
3.53771e-06
7.54156e-06
1.90984e-06
2.68361e-06
2.0925e-05
7.30901e-06
1.50109e-06
1.85822e-06
1.63209e-06
5.92185e-06
1.67012e-06
1.58845e-05
2.22753e-06
1.32346e-06
1.6045e-06
1.36133e-06
5.64286e-06
8.01667e-06
8.63766e-05
6.58076e-06
4.71562e-06
5.23679e-06
4.88047e-06
698.633
305.153
316.188
255.326
280.065
86.8094
118.329
48.36
170.54
355.646
781.312
364.768
349.026
136.641
519.416
170.213
295.07
317.249
294.803
253.288
280.879
277.586
256.965
366.752
464.709
466.043
331.956
422.628
329.577
419.966
314.584
280.079
290.448
243.775
251.544
267.91
228.035
287.058
276.743
285.071
236.693
226.651
241.034
221.95
451.367
364.578
462.325
305.003
320.533
410.045
393.288
767.02
583.335
579.043
647.515
515.532
509.76
635.932
548.892
738.157
567.219
496.35
578.088
476.248
611.515
266.487
268.658
278.672
226.771
195.712
210.965
211.653
182.249
209.682
114.148
99.6323
95.2591
204.874
187.381
263.565
166.113
258.558
350.951
259.439
346.805
254.082
170.058
173.711
103.264
69.3187
84.804
192.666
151.136
87.7317
73.9266
153.809
165.441
70.1465
83.6777
148.782
229.062
154.624
247.634
334.849
222.435
241.835
316.396
397.412
336.838
431.949
426.076
389.966
331.239
510.197
412.555
461.368
297.838
373.144
317.981
392.524
489.618
153.879
120.556
59.5336
61.3518
73.8803
136.209
137.619
481.072
200.989
260.934
651.337
339.826
183.837
28.2157
317.862
112.958
288.755
142.957
236.639
6.74594
66.2427
1.15382
112.786
432.735
318.503
408.829
283.554
370.912
343.455
256.425
264.006
265.924
241.891
228.955
205.667
176.437
200.294
524.063
598.539
493.735
537.208
450.066
418.953
490.36
248.795
212.314
225.558
173.7
188.958
160.583
145.179
419.61
541.248
459.134
382.283
385.487
339.37
439.216
237.302
174.555
212.915
139.964
121.565
97.531
164.539
347.462
293.02
380.924
310.013
180.886
268.79
222.64
426.124
270.638
366.165
333.471
279.93
236.217
385.038
203.819
196.177
291.494
260.005
85.1294
163.478
172.441
158.244
181.452
195.898
125.563
71.5708
85.2293
110.41
148.671
50.737
126.179
96.4974
43.4028
31.1781
118.058
42.3546
97.995
32.9019
84.692
17.6383
24.7517
71.2222
294.064
288.09
146.767
235.143
194.673
247.418
339.023
221.354
94.5884
84.4573
55.5324
125.381
175.841
135.363
64.1803
47.3294
21.7562
3.45885
13.8939
33.0847
82.9672
54.4172
18.6865
2.2475
6.29808
10.1781
26.2629
43.1597
304.769
325.781
275.936
630.273
586.26
827.12
377.936
925.056
353.653
313.012
298.524
282.226
329.288
309.802
298.683
310.276
274.111
334.833
329.374
287.218
370.69
361.073
292.458
281.296
272.907
272.294
275.387
283.036
285.315
277.895
286.912
380.52
352.53
393.136
328.908
426.489
306.964
1327.32
1339.23
577.113
618.159
1218.27
611.157
1202.2
310.809
296.865
295.21
310.835
295.469
297.922
313.569
289.171
290.535
280.05
292.038
298.432
286.116
301.043
318.656
310.983
303.001
303.603
324.862
310.712
318.877
605.278
1252.94
1299.17
631.207
1112.25
646.692
1166.46
285.545
300.103
288.576
292.406
316.087
304.108
291.028
314.663
424.797
360.886
459.268
467.153
413.449
323.441
445.607
363.405
481.738
371.07
476.765
470.227
341.599
634.993
1075.37
908.163
624.172
623.958
630.537
1057.47
299.827
319.162
324.378
307.611
307.966
302.695
309.486
313.6
303.679
298.743
302.065
310.414
305.972
316.824
639.897
966.05
607.06
874.03
618.922
641.538
1019.69
307.712
322.126
302.117
307.377
306.528
313.522
321.038
338.555
348.555
326.619
343.923
288.475
308.122
187.807
217.87
323.991
335.218
337.959
325.358
328.219
337.583
339.803
332.051
349.139
342.825
338.11
333.003
341.918
340.735
336.456
346.246
335.974
311.346
335.845
335.525
308.932
326.405
306.223
327.917
292.572
326.291
325.529
289.432
332.556
348.298
325.218
332.143
291.318
324.398
302.294
323.827
300.149
328.182
321.385
268.533
281.475
311.901
271.283
263.614
307.719
305.166
213.44
259.948
267.764
298.211
246.364
237.053
203.555
251.035
286.417
259.411
301.927
293.374
56.2415
75.7741
0.273335
9.72842
120.018
139.162
299.641
245.202
266.397
242.115
263.125
195.313
199.161
282.975
221.979
234.378
242.323
255.06
186.176
171.625
36.4633
164.771
112.541
73.1797
161.49
109.207
34.4347
75.0962
216.34
151.141
146.624
212.276
135.134
71.5254
139.772
66.6664
153.191
100.861
22.2656
87.4317
29.5713
187.372
136.297
202.663
125.547
50.5833
63.226
110.342
58.8133
0.926577
18.1212
55.9655
0.790499
16.5185
8.7798
49.0994
4.03915
0.531485
8.20408
12.9396
38.6074
6.69008
415.311
333.823
330.795
908.246
655.055
579.425
320.094
771.108
375.025
335.624
367.833
310.146
263.793
326.064
208.045
283.824
420.052
365.042
467.621
360.267
464.95
495.794
389.677
305.464
326.236
323.377
318.537
313.38
326.82
342.722
320.247
342.412
330.13
331.632
319.712
327.27
331.765
1186.16
1100.89
672.899
1041.13
657.042
655.61
959.929
400.11
519.669
506.143
505.987
395.553
496.724
401.916
343.41
353.529
338.606
330.147
347.231
354.285
320.479
382.886
475.535
488.818
491.443
361.53
459.072
388.533
335.022
301.018
317.057
315.946
312.283
286.588
340.372
657.586
1005.52
674.498
639.17
791.671
610.728
875.752
900.512
586.909
634.267
615.65
710.022
559.818
829.572
346.226
337.377
340.083
323.732
301.259
308.404
320.818
317.365
291.12
315.564
308.434
263.639
273.326
303.772
479.297
362.975
409.71
342.795
436.619
458.881
379.128
304.255
311.11
291.134
238.849
265.98
330.505
285.37
588.169
682.39
490.547
646.159
527.626
554.664
756.665
291.809
259.336
221.256
238.672
249.987
269.481
283.739
0.135506
4.3314e-06
0.786059
91.0731
15.2082
0.000626728
0.358605
126.444
15.8498
0.316938
0.000674209
1.81657e-05
0.00947924
53.0941
116.08
12.0064
0.103125
0.000418648
27.6606
124.4
50.4734
129.865
96.1289
54.3877
30.6748
130.476
92.8339
96.6964
51.976
54.8516
31.0355
28.7277
8.11994e-07
0.00710335
2.08269e-05
9.47616e-05
0.00320953
0.000382564
1.00561e-05
0.00349693
0.000173495
1.01756e-06
0.0209394
4.45472e-06
0.000267811
0.380527
99.727
83.1995
68.1175
44.674
33.6471
23.2468
15.5237
78.0604
28.9883
49.0543
9.4195
20.8571
7.82959
2.60512
0.797261
50.049
8.11968
17.3547
54.1457
9.57142
1.00584
17.5914
51.3613
54.5823
9.74518
0.857305
8.5791
1.03108
49.1602
1.77141
0.000690005
15.3426
3.20821e-05
0.067241
0.012485
0.0365406
90.8029
106.547
25.8838
0.00102273
37.8997
0.00241185
121.302
219.454
93.2866
28.1011
20.4013
0.0956278
0.000605979
0.016307
49.0543
79.8704
0.0210653
17.9727
0.000490644
0.00050609
104.228
86.5215
84.5078
29.8049
28.6124
19.0098
19.9043
218.987
420.724
218.218
127.337
54.3875
3.80937
0.00597198
12.6789
154.406
97.3138
10.2473
4.23526
0.000398129
4.70511e-05
98.921
71.5209
79.5055
22.0964
25.978
16.918
13.7199
193.875
192.137
152.084
164.572
123.118
119.639
90.7103
65.9491
60.6605
17.2886
46.9824
11.8085
9.82816
5.76972
0.580743
2.95376
76.3922
1.53794
6.39983e-05
1.46306e-05
1.38341e-06
63.0866
36.2964
61.2897
9.82314
3.55703
3.24943
10.4462
161.329
89.2964
129.907
52.4403
88.6157
58.8151
28.9495
373.806
359.042
320.157
328.942
289.077
230.806
267.526
48.9836
32.2469
56.5856
8.3495
1.63412
2.54685
6.17999
150.142
66.3474
120.577
31.4192
75.708
50.6626
16.0288
305.527
164.2
252.804
132.285
218.955
161.263
81.4591
76.8763
9.19747
52.2312
7.83506
48.8253
28.9207
2.6229
30.5132
16.0319
31.3573
2.32637
6.36581
2.46204
0.672897
126.5
100.087
74.5016
75.0626
54.6501
19.9696
33.5497
112.071
51.2514
63.1296
35.085
45.2758
14.8896
9.7737
0.0615773
2.22002
2.04932
0.959154
0.0295598
1.03974
0.0271608
38.7783
9.98937
26.7359
0.824999
3.79594
1.75936
0.325597
0.0503645
1.26337
1.70542
0.787725
0.0155434
0.0220693
0.563452
184.879
293.085
257.676
164.139
123.723
93.8837
198.703
231.07
95.4384
193.53
133.44
70.944
47.3883
167.67
48.2877
34.9633
21.6581
16.3157
8.25415
4.29136
0.912733
1.76059
5.15097e-05
50.1202
488.331
0.137797
147.316
326.843
131.043
10.868
483.376
248.815
130.787
11.9786
196.246
2.88407
0.772573
200.265
149.516
3.23941
0.847145
8.91958
362.512
161.47
462.488
236.794
118.731
9.25249
113.517
0.0545773
72.3769
188.117
138.876
2.26524
0.567017
177.732
203.812
184.6
97.4689
105.851
112.278
91.6556
243.453
251.582
335.118
239.496
149.36
156.852
231.346
253.145
331.999
336.772
240.711
153.817
235.766
158.105
204.865
180.785
185.383
97.998
109.065
113.055
93.9776
405.316
497.678
414.116
316.11
366.055
374.35
307.71
493.759
407.848
414.578
316.342
363.578
310.035
371.667
153.679
165.44
169.875
87.2295
70.6618
83.6619
73.8405
0.0684723
38.8585
0.925213
26.2579
0.505069
318.539
124.963
0.0350084
1.86702e-05
0.0113572
0.00461165
79.0181
0.00176416
43.9023
163.012
153.045
169.206
86.7629
68.8855
73.3651
81.7039
319.78
218.058
301.157
142.307
223.326
203.871
124.538
168.963
169.08
150.305
98.4266
83.801
68.455
82.2258
393.775
434.947
373.65
346.566
296.377
275.99
322.879
154.276
122.041
136.833
62.2438
74.208
59.9414
49.3002
315.3
401.358
347.57
248.983
256.11
215.216
292.775
95.6949
144.019
125.384
49.9265
40.2358
30.5687
62.2009
244.438
192.81
276.096
177.875
74.8859
146.024
101.49
85.271
99.4349
113.484
42.6953
18.0887
24.9826
33.6435
207.776
247.254
94.982
137.149
100.856
254.623
200.336
135.897
61.8246
44.9372
12.6751
49.1418
66.8647
129.172
207.611
135.634
246.229
96.2705
202.045
100.522
252.661
136.609
13.0444
64.9402
46.8912
132.437
49.5693
67.7544
28.5944
32.5506
1.89646
3.51214
36.0257
2.33722
25.6576
28.9182
3.62726
34.4865
2.10436
36.543
26.9886
2.39775
23.692
15.3586
1.36154
0.949112
1.66452
17.3416
21.2491
23.9623
0.974132
16.2059
1.49603
22.3007
1.70672
17.5835
231.639
86.1464
189.188
169.472
99.8694
70.4963
209.785
276.394
269.398
230.718
213.113
174.88
129.291
164.191
205.936
85.607
161.437
47.2581
109.709
71.7961
22.7412
57.0956
40.1652
121.656
104.789
5.65396
30.1123
45.0998
28.6857
1.43232
21.9644
14.8834
1.17687
20.2808
0.722601
63.4249
44.3336
32.579
19.6915
13.5957
3.35564
5.84856
54.8
19.0258
26.4488
6.47716
10.289
2.27485
1.18686
143.199
31.2894
145.934
75.9954
111.578
51.2875
181.116
12.6469
0.998134
17.7954
11.6035
0.283828
0.495982
7.84893
239.187
266.249
116.025
130.878
114.973
130.749
10.6027
6.46692
262.433
242.278
238.084
206.787
201.935
171.133
176.022
253.409
213.278
228.409
174.79
191.27
160.107
143.001
148.674
74.4267
204.955
143.782
200.265
125.916
70.2646
173.139
132.963
189.689
114.897
47.4772
97.8945
61.0625
125.82
55.2081
51.7574
31.9254
97.8832
93.262
29.1581
98.4311
33.0145
44.0949
83.1128
15.5164
23.3604
67.8265
56.7304
1.24003
19.5209
52.9319
1.00611
9.18622
17.3952
5.14519
13.6311
0.518507
3.4363
0.831989
0.0852035
0.0192774
9.40376
0.290609
8.07801
2.28622
0.0638374
2.83231
0.0805571
8.60386
0.368296
9.5795
2.9056
0.0695649
2.47581
0.0828243
43.6513
7.09812
32.2485
0.540401
6.11489
3.24307
0.250833
49.5753
38.5447
85.6712
26.5268
0.836294
8.68606
5.20025
0.023372
0.826004
0.454266
0.00930184
0.345322
0.171423
0.00441431
9.67744
2.53365
0.374357
12.0518
0.0744055
0.514477
2.7147
0.461509
0.0819245
0.279468
7.84973
4.63613
2.84687
11.5126
18.7845
0.786387
2.53654
82.9793
16.8399
58.3354
30.7978
59.654
153.408
120.836
214.423
178.303
81.7679
111.088
0.61792
13.0835
0.281852
3.42204
7.75173
32.9811
44.7086
3.52186
0.210978
6.33167
0.0443046
1.62007
0.767936
0.0207117
9.83197
2.5935
28.5689
12.0235
2.69148
0.508427
0.0733027
118.912
104.351
188.836
100.064
8.33733
44.8412
36.5378
1.24151
3.26664
19.944
8.70913
0.0236974
0.314751
0.871109
0.909966
0.142361
5.36329
3.90415
14.5996
0.577253
0.0981974
125.268
45.479
9.07955
74.1514
1.34078
15.7891
21.6402
0.0286535
1.03895
0.191425
0.106305
3.56101
5.78783
1.94015
9.36074
4.12372
14.365
106.125
76.9254
43.3315
65.4936
0.340629
0.00997991
0.00216972
0.0953946
0.0860117
0.371445
0.00911211
5.13736
48.28
29.809
3.04769
0.610309
7.81413
0.179426
18.2839
0.413123
1.01136
1.3118
0.095417
3.43783
0.0361106
11.8898
65.2339
18.0452
47.7212
112.997
36.9165
6.73171
8.39809
2.95816
19.404
1.16914
0.0213945
0.297345
0.0856531
3.28667
16.2465
23.0427
1.88762
0.0540598
0.107651
0.970088
4.80487e-07
3.43204e-06
0.0182274
5.39206e-08
7.36217e-07
6.97513e-07
5.9971e-06
0.272893
0.00476004
0.0408917
0.00165021
0.0656188
0.00719664
0.184968
72.7724
41.3655
25.7031
1.3488
13.6073
24.6506
100.596
7.22033
0.130565
0.257263
0.794513
0.0111989
0.0223351
0.401985
2.75402
0.0309547
0.180324
6.41364
33.9955
14.2587
1.39966
0.080463
1.27043
2.97679
16.6031
10.0205
0.399934
0.84463
0.352375
0.0360239
1.3355
0.269202
0.00182785
0.0706748
0.0071892
0.059073
0.000395077
0.00145351
0.00506488
0.194969
0.062682
0.00153796
19.4462
0.238571
3.42905
0.0861987
1.25864
0.0998063
0.00661506
0.617361
0.191811
0.0660521
3.3143
7.915
16.8307
30.1103
0.133137
0.40792
4.31345
0.0224316
0.797567
7.26396
0.259284
0.0026538
0.0293332
0.0172987
1.12431
0.630799
0.0987956
0.180934
2.24927
0.0226776
0.00837334
0.00448673
0.0607533
0.31736
0.166144
0.00256209
0.0204575
0.102599
0.0438281
0.00019236
0.00800246
0.00107398
8.17284
0.107406
2.0806
0.0168505
0.314683
0.0586911
0.00303174
0.0412893
0.00783611
0.29613
0.0034791
0.130826
0.0243089
0.000639412
0.000879672
0.0325811
0.0116058
0.00599433
0.218283
0.415539
0.0647801
101.209
0.10625
0.00771283
3.84686e-06
0.291597
0.000352803
0.000297172
0.258564
64.3914
36.7612
41.3508
15.4145
17.6429
6.40019
1.20675
7.37684
30.0673
3.27234
0.32834
3.81567
0.1337
0.0106623
4.06339
0.0180417
0.746513
0.00537027
0.21195
0.0330453
0.000850603
6.77172
0.0363959
1.22768
0.0094616
0.287937
0.042158
0.0013368
0.0225206
0.290012
0.00795475
0.365359
0.000794519
0.0100595
0.0285
0.374938
0.000813982
0.0242393
0.0086
0.313157
0.0103195
0.0292091
0.0151726
0.00539883
0.199403
0.0927572
0.000187417
0.00245055
0.00691812
0.016685
0.00334302
0.145428
0.0249882
1.08108
0.140061
0.003219
0.0416683
0.131782
1.55792
0.000631795
0.0240184
0.292652
0.00771329
0.151572
2.14093
0.302499
0.00408878
0.0573629
0.00795673
0.000561523
30.5395
0.279907
0.104004
0.133606
2.31548
5.70755
4.13114
0.03741
0.420873
0.0897025
0.000867657
0.00985658
0.00206339
0.000168824
0.0101847
0.00186708
0.0715522
0.000353717
0.0134642
0.00189564
4.98947e-05
0.00692406
0.000408718
0.00406621
0.0195788
0.371897
3.34335
0.190747
0.0126896
7.87946e-05
0.000302792
4.65844e-05
0.00199694
0.00044757
1.19433e-05
0.00337934
8.25097e-05
1.30159e-05
0.0140568
5.41422e-05
0.00230291
0.000335713
0.0914715
0.0159059
0.00688066
0.000144576
0.275351
0.00249323
0.0051077
0.0310693
0.000572467
0.00020668
6.49605e-05
0.00786362
0.000809486
0.00229852
0.0553892
0.00155648
0.000769144
9.18351e-05
0.0015475
0.00312532
0.0277116
0.000663644
0.587831
0.0196487
0.027798
0.000913715
0.000955319
3.82877e-05
0.000195869
1.02171e-05
0.000305834
0.00218909
9.77569e-05
0.0899512
0.0036872
0.0100494
1.2839e-05
0.000293695
0.000139779
0.00375326
0.129922
0.00444612
0.0108313
0.0141408
0.222869
0.00612495
2.82621e-05
0.000314473
0.000407118
0.00230788
0.000856861
0.033075
0.00262588
6.83881e-06
6.9649e-05
0.000180077
0.000530588
2.88607e-05
0.000292754
0.000944523
0.00197558
0.0109446
0.0213982
0.000193547
1.02464e-05
9.64025e-05
0.000307378
0.00360578
0.000616244
0.00718901
0.000946445
6.00179e-06
3.56576e-05
0.00142058
0.013249
0.00030376
2.54385e-05
0.00216139
7.02002e-05
0.00253654
9.45513e-06
0.0316949
0.000823424
6.17561e-05
0.000470594
0.000230708
0.00867449
0.00157546
4.37714e-06
4.50356e-05
8.60821e-05
1761.56
745.696
2019.88
9883.44
1937.39
1749.84
980.214
679.788
931.881
658.239
1824.53
1745.83
701.919
782.965
1839.39
1307.96
639.012
1434.41
794.353
772.427
3539.34
995.225
1127.46
1916.25
1118.77
2987.23
1653.75
988.92
2011.49
1747.6
2146.46
1749.02
151208
4967.05
9883.26
892.654
1080.35
2054.11
1175.85
1148.49
3004.66
1971.43
2042.52
681.694
1831.46
824.828
948.193
1749.51
711.463
1852.17
2030.74
2607.18
9371.2
1986.09
130776
4329.33
8059.27
1109.92
814.584
1520.69
1321.22
784.193
797.022
4144.93
7340.1
5533.16
5069.45
25870.1
15925.1
24699.6
4568.85
3304.44
1384.3
1467.29
1367.16
1982.58
1747.14
1971.05
1070.48
934.793
1841.47
1167.66
852.086
1713.09
1259.89
1067.17
933.135
1885.87
1209.54
1256.7
1753.26
834.697
957.406
708.925
735.239
1101.42
1095.13
1123.41
677.556
1470.09
3020.26
3112.57
2039.05
1539.06
2087.36
1550.39
923.733
1262.63
1039.5
912.634
867.473
1243.37
952.194
923.191
907.666
1247.81
1034.81
945.883
1238.79
868.068
1169.34
2991.72
1066.3
2986.8
1118.89
1126.42
2931.89
914.771
1636.81
1604.27
986.74
921.108
1317.28
920.647
4485.97
2715.85
3434.54
1660.68
2369.34
1987.69
4984.99
5434.43
4123.49
4122.67
1883.7
2509.29
7042.1
2509.67
4484.82
3427.74
2703.55
1655.99
4979.92
1984.65
2366.51
26802.4
88685.7
80112.3
88685.3
32624.8
32625.8
45798.1
5874.93
3242.35
3223.6
15999.4
11788.7
2996.18
11794.7
7340
5070.23
5532.38
25869.9
4568.55
15924.8
24699.6
2522.36
1189.92
1250
1189
1837.07
1634.23
1836.09
1022.06
1175.42
944.154
1442.06
924.18
982.432
1329.4
1012.94
1146.92
1406.56
912.145
964.403
915.106
1312.57
1221.92
3004.63
1096.19
3001.54
1144.82
1140.27
2948.72
965.924
1619.23
1575
989.453
1013.96
986.598
1652.69
4402.94
1749.32
3305.87
2662.36
3044.4
6670.95
2561.77
5049.91
2041.32
3916.08
3896.58
3351.16
3366.42
11312.5
12618
6202.18
8035.03
27404.2
4328.84
13592.2
15231.8
4350.3
1704.63
2541.46
3151
6623.8
2534.52
3022.84
16542.1
93195.5
49046.2
72351.3
49349.5
49936.3
81675.6
9751.59
4287.53
4170.05
24003.7
9333.2
8912.6
3070.27
12997.4
8142.18
6732.31
36606.1
11519.4
4328.1
14409.6
1263.47
1408.19
1049.04
2353.19
916.805
1846.72
1322.79
1216.44
1289.54
963.36
2051.06
1250.61
892.984
1757.09
1119.87
777.142
767.842
1237.57
1079.53
717.775
1116.32
1518
3040.84
2811.91
1924.05
1808.84
2734.97
1867.92
319.829
324.61
327.019
311.079
182.684
200.303
95.9124
152.168
314.244
325.389
328.274
306.852
308.628
309.625
309.551
319.62
335.421
332.012
309.646
309.947
307.476
302.251
340.599
345.836
326.964
343.037
332.817
314.771
339.536
330.944
327.605
335.403
337.809
329.731
332.519
333.368
330.16
348.99
354.6
346.929
349.343
341.015
341.034
349.534
318.025
324.11
320.735
332.017
326.662
329.83
328.7
324.604
326.376
328.911
334.925
333.351
336.054
332.027
324.248
331.596
340.772
338.404
342.427
335.217
346.249
333.139
344.654
336.282
341.165
348.042
341.303
348.577
337.56
345.048
339.387
336.032
342.207
338.993
334.496
342.827
353.303
346.594
349.65
346.867
343.791
349.769
332.589
323.74
333.788
297.889
277.78
275.353
299.267
271.774
197.851
270.67
257.159
179.765
177.25
259.058
333.593
312.294
330.677
293.17
258.737
268.923
284.927
259.721
191.959
266.813
251.706
160.987
170.95
242.854
313.036
294.746
283.913
227.539
264.877
221.909
198.977
214.516
260.878
247.712
251.639
257.293
260.548
270.663
267.024
272.197
272.523
259.776
277.149
267.238
277.075
286.367
298.103
281.199
277.571
283.875
295.277
298.158
280.412
304.278
298.132
288.087
289.695
306.73
302.369
297.349
263.083
226.832
264.867
269.985
226.724
268.176
225.715
272.058
225.579
268.382
272.536
218.161
223.292
274.408
274.693
275.942
223.023
212.393
275.974
273.611
221.45
275.478
270.224
210.727
207.373
274.437
217.675
274.584
327.236
299.803
336.332
320.513
347.075
361.115
265.745
289.246
341.26
275.803
283.674
304.587
353.822
355.204
299.734
357.128
355.034
328.243
313.967
297.738
316.111
360.196
323.983
342.996
344.888
319.44
351.462
352.487
316.171
261.153
243.573
248.563
249.846
256.468
277.005
272.049
345.923
358.704
353.185
361.555
339.243
329.296
358.572
274.448
275.256
258.89
303.758
287.024
269
288.456
303.171
285.238
281.313
313.026
309.579
297.255
293.224
310.414
305.535
293.655
321.644
332.392
319.862
307.235
1637.64
361.776
1644.95
404.944
1837.87
1708.34
1121.1
460.142
502.252
382.856
414.946
564.867
396.382
546.146
516.901
836.479
1865.29
977.801
695.893
1761.72
736.407
1758.54
1367.22
1528.31
3696.06
692.613
797.884
821.022
820.942
550.691
738.686
465.915
598.305
944.428
552.396
594.592
1229.62
1324.27
2125.26
1004.42
1314.02
917.673
1785.95
1256.49
1406.74
2361.57
1062.47
916.538
1342.14
1838.2
1521.27
2992.4
3071.33
2034.37
1711.51
1847.71
2671.67
1102.82
1180.61
770.933
778.323
1125.64
724.43
1132.04
377.787
339.575
359.425
397.951
386.867
443.203
442.576
585.782
1737
627.24
1788.59
706.059
632.55
1741.3
1636.52
549.657
554.18
603.568
1692.26
620.066
1697.97
1649.84
549.416
549.301
1675.65
560.936
580.215
1696.4
1593.15
313.51
342.706
1594.78
341.506
603.26
292.867
553.122
269.75
316.06
342.583
354.803
299.971
282.05
329.473
314.728
349.245
316.197
325.816
316.186
291.397
319.268
286.048
328.404
330.565
337.091
300.904
293.813
287.481
303.806
341.456
312.752
314.527
335.646
297.51
324.324
290.981
314.177
328.543
330.351
299.429
313.331
307.006
292.296
1586.9
523.574
522.011
519.807
1541.1
514.884
1546.52
344.474
341.824
343.181
318.209
326.85
318.424
328.516
270.924
315.517
312.9
308.965
276.142
309.063
272.912
282.263
271.331
272.662
287.021
278.407
275.123
288.579
1600.87
550.391
535.549
1539.55
559.868
537.322
1548.57
346.98
346.207
350.87
331.543
343.968
325.203
336.815
278.188
352.856
329.979
338.819
290.868
320.907
279.591
1423.89
1429.98
544.92
530.41
1493.32
524.133
1493.98
289.385
289.532
278.526
292.231
304.506
294.502
281.684
312.85
298.425
297.447
304.532
317.611
304.232
319.326
573.973
1374.78
1407.13
1469.42
577.655
550.063
1487.92
321.391
314.717
305.447
321.507
335.66
312.262
327.126
338.965
408.292
383.581
368.142
1522.55
461.095
707.61
436.915
502.185
380.202
406.66
572.9
389.559
511.742
546
4360.58
1160.7
1446.13
707.028
815.257
820.191
847.03
583.736
945.608
459.167
555.217
757.3
562.488
594.285
857.824
476.614
487.162
557.223
444.823
604.519
435.504
1274.1
2349.08
1420.02
1052.68
1330.37
925.401
1871.57
1581.58
3081.66
3021.75
2024.14
1886.54
1880.11
2779.22
1290.04
2295.16
1406.95
1059.88
1367.33
965.685
1895.09
1136.63
1260.08
783.488
821.533
1146.43
1196.31
737.202
357.288
353.722
371.804
384.229
394.649
442.897
440.822
488.358
573.731