/*--------------------------------*- C++ -*----------------------------------*\
  =========                 |
  \\      /  F ield         | OpenFOAM: The Open Source CFD Toolbox
   \\    /   O peration     | Website:  https://openfoam.org
    \\  /    A nd           | Version:  9
     \\/     M anipulation  |
\*---------------------------------------------------------------------------*/
FoamFile
{
    format      ascii;
    class       surfaceScalarField;
    location    "0.00015";
    object      phi;
}
// * * * * * * * * * * * * * * * * * * * * * * * * * * * * * * * * * * * * * //

dimensions      [0 3 -1 0 0 0 0];

internalField   nonuniform List<scalar> 
11820
(
-0.06134
-0.00739589
-0.000954302
0.00088456
-0.0847181
-0.000881922
-0.0124555
0.00138069
14.4917
0.457696
6.16242
-5.3682
-5.41455
-5.42616
-5.40312
-1.59498
-1.8143
-1.64801
-1.84051
21.9841
-17.3879
-19.9586
-6.97605
12.6461
-10.5853
-3.98625
1.34111
-2.0563
3.57593
0.0255749
0.0409379
0.780661
0.793711
-2.67967
0.282776
30.8494
6.57025
-5.35082
-5.30363
-5.3332
-5.30345
-1.67261
-1.78104
-1.65538
-1.80495
13.8005
0.0172152
-0.106271
3.2316
3.80021
-30.7047
-23.7498
22.7012
6.00334
-6.03087
-0.0621781
0.643233
-21.5897
5.91723
20.9119
-11.5914
-14.9058
-14.8663
12.411
0.0221764
0.797526
0.811939
4.4783
-16.2666
8.54751
-14.0303
9.77532
-9.55097
11.4763
0.0880371
3.54347
0.835851
0.750674
-2.64827
-19.3931
6.05754
-21.314
0.486131
24.4168
15.7016
6.52514
0.110085
-1.69056
-1.79231
-1.80714
-1.66834
-5.46597
-5.50851
-5.46952
-5.4791
31.839
-20.6541
20.519
-6.85259
-14.2906
13.8661
15.0716
22.3187
-3.54121
-1.77807
-1.73229
-1.81993
-1.68153
-1.78831
-1.71885
-1.80182
-1.69347
-3.57958
-3.58823
-3.51663
14.0305
6.95371
-0.174385
-5.38199
-5.39599
-5.39314
-5.38464
-1.67149
-1.80096
-1.70019
-1.86084
14.6967
3.27151
-0.0236567
0.851324
-2.51282
-2.64493
3.49445
30.3112
13.9729
7.15411
-5.26194
-5.26806
-5.2672
-5.2218
-1.71701
-1.83234
-1.70061
-1.85013
14.6883
7.09126
-5.19863
-5.34106
-5.32241
-5.32703
-1.70506
-1.89037
-1.73367
-1.91957
-0.0291977
3.57791
0.905196
0.841375
-2.69461
-21.9409
-6.40098
-6.20517
13.8046
13.8242
23.0803
-18.1823
-20.4022
-5.92182
12.8222
3.5775
3.47749
-2.41489
-2.35176
-2.38582
3.4664
31.2049
15.7369
-22.122
-6.83396
-6.22216
14.3312
-29.4254
19.3493
-5.6042
-6.07468
7.67164
-14.0459
19.9014
-6.67862
-0.21376
32.6752
7.16775
-6.93303
-14.4237
-5.76204
21.5834
10.8607
0.265982
-0.0349615
-1.21978
0.101744
-3.45469
-6.92988
32.4636
-6.16051
13.3583
13.4267
7.61799
0.277214
2.63852
-3.25714
-26.1396
4.55706
14.0506
0.0475212
6.70282
-1.62761
-1.72035
-1.76121
-1.60413
-5.3594
-5.33261
-5.33406
-5.33555
31.0522
14.2142
-15.6433
-6.64038
19.5829
-23.1096
28.1887
0.096257
13.914
6.47644
-5.4933
-5.4664
-5.50507
-5.45971
-1.80584
-1.65226
-1.78459
-1.71225
23.7528
0.0549103
-0.0749609
0.742347
0.830372
-6.34257
7.68027
-0.225854
-15.2947
20.8755
7.02103
-22.8209
29.7779
0.0579309
-0.021212
0.836414
0.774669
-2.67056
3.56754
-3.28198
-0.0120437
0.887924
4.22909
-2.74079
3.60911
0.857587
0.789486
-2.66716
6.61834
-5.45315
-5.43279
-5.47233
-5.41685
-1.82552
-1.67436
-1.73283
-1.81299
22.4673
-19.1485
-20.5372
-6.42621
19.1716
0.00355603
3.37095
-2.53422
0.812283
-2.50431
3.35182
31.0323
-0.0417567
6.77298
-5.36417
-5.33777
-5.34133
-5.33554
-1.61922
-1.73084
-1.60481
-1.75885
14.0333
-3.56956
22.2929
14.1096
-3.54366
-3.53763
-3.44401
-1.81196
-1.80429
-1.84195
-1.73141
-1.7891
-1.77964
-1.70082
-1.82021
14.0853
27.9991
-15.558
-23.1167
19.1789
-6.672
14.1581
33.2578
6.55577
-6.78434
-11.3154
1.57761
-5.97369
-1.5335
20.5033
-15.9177
-6.08896
-0.0977044
6.76251
-6.54412
33.7101
13.6935
8.09711
-0.157146
-3.69725
2.53656
-26.3527
5.75297
-13.5599
15.9446
28.1385
-6.522
12.9714
1.16322
-3.21792
-1.20952
0.605377
-10.461
0.987047
-1.69771
0.034939
-0.0427712
-0.00742195
-13.3463
-2.38993
-8.97652
2.44555
-0.164099
-0.0117864
-0.00186668
-23.4723
-5.98911
22.0774
-5.90974
13.0434
12.7416
-19.2252
-16.1999
13.4651
-5.57812
9.28863
-12.8826
1.75473
1.42752
-1.41681
-0.0222861
2.136
-2.48639
-1.14094
0.167205
-0.198461
0.149824
0.0879614
0.844647
0.764239
4.44942
-12.8492
-15.6495
-19.2977
16.3091
20.5583
-14.4152
-7.20574
-23.6511
21.8118
14.5429
28.7709
-7.3685
-2.97656
-5.20944
0.735133
0.210026
-24.3009
4.46094
-15.9375
14.0947
0.695383
-12.4381
-23.1808
4.53428
0.554902
0.0390591
6.81119
-35.3075
5.86262
7.566
-21.755
21.5493
6.97501
-21.2405
20.817
0.91832
0.855121
4.47284
5.0893
-12.3353
-22.6892
-1.6039
-3.43517
-2.51378
6.91771
6.49251
-34.9999
4.10391
-22.5606
-15.0934
0.00771611
6.86513
-22.154
22.7827
29.499
-14.9031
17.1273
-22.4484
19.2316
24.5608
23.0543
-22.0923
6.34874
21.2397
-24.2507
4.54466
-16.0554
14.0616
-4.09987
-5.75732
-3.46567
0.414254
0.562097
6.5816
-35.4321
6.11686
-4.38038
-12.4655
-20.6519
6.7685
6.80058
5.91322
21.0138
17.2777
-12.8557
-1.00774
0.0425605
-0.254415
0.0225744
-0.170547
0.0263608
-1.04719
0.0144514
0.0247351
-0.0662398
-1.13319e-07
-1.84305e-06
-4.24192e-07
4.93888e-08
-0.00206136
-0.0146615
-0.00745654
0.000192119
0.000106976
-0.86087
-0.0507901
-0.643625
0.0211662
0.0393722
-2.90768e-06
-0.000533632
-7.31202e-05
1.10807e-06
-3.26694
3.64365
0.00527323
-2.74251
0.849944
4.1897
3.61738
-3.27513
0.0936306
4.18371
-2.74458
0.781059
-21.9368
-6.38365
13.8183
13.8358
0.00383426
0.0947111
0.895494
-5.70568
0.830718
-3.33974
-0.0412738
0.0798981
0.817651
0.900459
4.20802
13.9486
-3.57306
13.9253
-1.74232
-1.76945
-1.67589
-1.75639
-1.69039
-1.71676
-1.70537
-1.62878
-3.53029
-3.53087
-3.42516
14.5887
0.199876
-5.3833
-5.43253
-5.43599
-5.42222
-1.55082
-1.78128
-1.61148
-1.79239
22.4781
7.15672
21.2458
-3.5165
-3.64896
-0.551978
-3.6346
-3.5624
-3.63799
-3.65762
-3.6471
-3.61121
-7.07986
-21.9967
-15.5176
13.7849
25.9975
-20.416
-6.98711
-14.0723
13.6631
-19.1036
-20.8192
-0.650367
23.6172
-15.7762
-0.524734
28.2609
-14.9302
-13.9472
14.3683
-14.6714
-0.617211
3.5004
3.28942
-0.00516036
-2.51037
-2.63788
0.814293
3.37097
0.00358286
3.35144
-2.50509
-2.53313
0.811529
3.50875
3.27277
0.0169589
-2.493
-2.65559
0.787881
0.025005
0.00417328
0.00681158
0.857585
0.833685
0.787155
0.0211032
3.51756
0.0207059
0.805763
0.801439
-2.62122
3.32635
-0.0102513
0.0138056
0.851585
0.874309
-2.49816
3.51311
3.50599
3.57015
-2.43284
-2.37502
-2.4208
-3.50368
3.46832
-0.0252547
-2.56478
4.42098
0.909779
0.0440122
-3.35931
4.26021
-2.61529
0.824424
-6.6687
-22.1169
15.7195
31.1101
0.0131641
-0.0526428
7.62563
0.826561
-6.30334
0.752992
0.0299346
-3.55837
-0.0396187
0.803794
0.869014
4.45648
15.0897
-0.137467
31.6936
-5.45298
-5.47191
-5.45286
-5.44307
-1.65424
-1.74416
-1.63371
-1.76779
-3.50142
14.7237
-1.7747
-1.71191
-1.67488
-1.78774
-1.71303
-1.66954
-1.74929
-1.61977
-3.55807
-3.5498
-3.47929
-22.7005
-4.42068
4.66572
-0.0325357
8.72324
12.6402
-4.41799
4.67283
12.6454
-0.0137095
-5.99599
21.9958
-23.4154
12.9604
6.0351
23.3804
-6.18573
0.0149647
-6.25221
-6.25302
-6.29992
0.0446032
-23.7519
-0.0774145
12.9355
0.0598989
12.558
0.0933331
8.16747
11.642
-22.5162
-6.23511
18.1824
-15.7317
13.7477
27.2802
6.36044
22.572
-3.50663
0.554245
-3.60044
-3.63461
-3.58412
-3.55745
-3.61536
-3.63474
-21.2238
20.4282
13.4284
-19.3856
5.88533
0.68279
23.9466
-14.91
14.2118
-15.6843
0.540527
28.5954
12.8258
23.1021
-22.122
-6.77666
-6.52973
14.4618
15.5536
31.2461
0.00809244
3.41287
-2.59903
0.852615
4.29174
3.48638
-2.58067
0.861727
4.43155
0.0315741
7.64353
-6.34513
0.726877
0.733713
13.842
14.7079
-3.55987
-3.56235
-3.48947
-1.73461
-1.69494
-1.64212
-1.7787
-1.7421
-1.68135
-1.64551
-1.75771
-0.0432672
14.0565
31.0329
-5.36459
-5.33961
-5.33648
-5.3438
-1.61817
-1.73017
-1.60428
-1.75653
15.0707
31.7581
-5.46579
-5.47918
-5.45713
-5.4606
-1.66803
-1.73848
-1.78373
-1.63163
3.50798
0.0254685
-2.6379
-2.50045
0.805768
0.124809
3.50015
-2.50944
-2.64725
0.739115
3.33954
3.35814
-2.48864
-2.51797
0.821612
0.000808294
0.058974
0.85277
0.830903
0.823955
-0.031482
0.0748599
0.828468
0.901594
-2.51422
3.59052
0.0265762
0.834327
0.794379
-2.67529
3.46615
3.47717
-2.41471
-2.38604
-2.35147
6.48728
-22.8701
0.212
28.9788
-18.1943
-20.6865
23.414
-22.7014
-15.7139
13.8159
27.5889
6.62161
21.6216
-3.50807
0.126334
-3.64283
-3.63006
-3.59715
-3.62489
-3.5593
-3.6367
-21.2325
-6.13817
13.4603
-14.8928
14.2756
0.384959
-6.84613
-22.1734
31.3366
14.0406
-1.6292
-1.74681
-1.7696
-1.61321
-5.34859
-5.32774
-5.33164
-5.32556
31.0414
0.0468051
-0.0300538
0.807828
0.739636
-6.39918
7.70417
0.00903303
4.45159
-2.5803
0.875959
-0.00830776
3.42124
4.27524
-2.6176
0.861347
0.0288096
-0.026028
4.51242
0.848982
0.811121
13.8013
-3.51452
-3.51214
-3.44446
-1.74317
-1.67683
-1.64338
-1.75555
-1.73309
-1.69158
-1.63407
-1.76911
22.6959
-6.90389
-14.285
14.5528
-17.5521
-6.91142
12.8796
22.6126
-6.90742
-15.5632
13.9792
26.6052
-19.092
-21.2075
24.0906
-22.8302
-15.7778
28.6121
21.3663
-3.5296
-3.65261
-3.58409
-3.63959
-3.66304
-3.69314
-3.63965
-3.64414
-14.6425
-6.75074
-7.10212
14.5613
30.5664
-1.72893
-1.80866
-1.8414
-1.69549
-5.48944
-5.50646
-5.47218
-5.49373
31.5811
0.836993
0.823455
-6.34309
7.71046
-3.3939
-0.0567354
0.917396
4.28546
-2.64093
3.43107
-0.21731
-1.67909
-1.79748
-1.81986
-1.67538
-5.37561
-5.32919
-5.34586
-5.33647
14.1347
30.5178
-3.49537
0.903983
4.42498
-2.59389
-3.5858
-0.0573298
4.48938
0.869681
0.886201
-0.00577403
4.21164
0.874951
-2.72972
3.65184
-21.5751
-6.94934
14.2707
-3.61009
-1.79546
-1.82506
-1.82327
-1.73213
-1.79716
-1.82295
-1.81623
-1.7282
-3.5693
-3.56775
-3.45941
14.2379
-3.27098
0.876202
-2.73552
4.21099
0.00965364
0.894935
-5.61871
0.883729
-3.32597
0.0428288
0.838792
0.843154
4.18848
-5.30312
-5.39428
-5.38197
-5.3929
-1.64745
-1.82323
-1.65844
-1.86913
-2.46821
-2.394
-2.4664
3.54149
-0.0264965
0.865879
0.856479
-2.68649
3.58569
-0.0757251
0.888494
-2.57653
-2.5774
3.39396
0.853063
-2.6461
-2.51215
-0.000778527
-0.0130385
0.863899
0.81788
0.863727
0.0302032
0.855844
0.858297
-2.509
-0.0579441
0.856539
0.866013
-2.6864
-3.51583
-0.0992111
4.42775
-2.5889
0.982205
-6.99272
-21.6714
30.1288
14.4203
-3.35368
3.39513
4.24947
-2.62374
0.912314
-0.108272
7.63614
0.884452
0.779739
-6.3271
-0.541006
31.4139
-5.40293
-5.46961
-5.40138
-5.44106
-1.71868
-1.78404
-1.67267
-1.82685
-3.57818
-0.0877987
0.855322
0.918026
4.4728
-3.45759
13.7751
-1.82037
-1.75968
-1.84199
-1.71812
-1.76955
-1.73092
-1.67573
-1.81546
-3.51087
-3.48556
-3.42436
-3.27004
-0.0950152
-2.78529
0.962256
4.19485
-21.2603
-7.10641
14.1156
-3.27203
3.6518
4.20201
-2.7886
0.96103
-0.0916909
0.987438
-5.57776
0.986494
-3.31923
-0.0775985
0.955373
0.956051
4.17464
-3.55944
13.9946
-1.84815
-1.85867
-1.87019
-1.76573
-1.84759
-1.85599
-1.7646
-1.86803
-3.52049
-3.52031
-3.42052
-0.425065
-5.21084
-5.34279
-5.32895
-5.3248
-1.70117
-1.88783
-1.73062
-1.91574
-0.123363
-2.68893
-2.51091
0.95079
-0.0550522
3.35421
-2.54572
-2.54584
0.884848
3.51676
-2.5112
-2.68947
0.948594
-0.0585882
-0.00460376
0.920203
0.820536
0.920769
-0.0729454
0.959811
0.958783
-2.50375
-0.0878444
-0.0290603
0.841161
0.904652
-2.69505
3.45618
-2.44663
-2.38394
-2.4509
13.9375
-3.53373
-3.53327
-3.42772
-1.73753
-1.77089
-1.75996
-1.67739
-1.6924
-1.71816
-1.70771
-1.62857
13.9071
-5.43762
-5.4358
-5.4391
-5.42762
-1.58806
-1.74891
-1.67948
-1.76543
14.5839
-3.26776
0.850277
4.19195
-2.74373
3.64517
3.62034
-3.27533
0.780103
-2.74732
4.18607
0.829735
-5.70497
0.901403
-3.34067
0.820007
0.904495
4.21226
14.4628
-5.36869
-5.41288
-5.40227
-5.4256
-1.59602
-1.81174
-1.64812
-1.83725
-22.5014
-6.24676
27.2719
13.7476
-21.2252
-5.96081
13.4288
-6.35984
-14.9233
14.2095
22.5703
21.5839
-3.50762
-3.6367
-3.60253
-3.58665
-3.56014
-3.61544
-3.63732
-19.3854
-20.8917
23.9336
-15.7058
28.5908
0.806959
-2.50152
-2.63843
3.50812
3.35798
0.821812
-2.51691
-2.48933
3.33934
-0.0211319
0.834216
0.79457
-2.6751
3.59026
3.49917
0.740089
-2.64612
-2.50964
-0.0251147
0.824132
0.830402
0.852671
0.829976
0.9013
-2.51595
3.54315
-0.0256792
0.75049
0.836252
-2.64789
-3.53147
-3.52548
-3.45916
-1.73395
-1.69645
-1.77173
-1.63887
-1.69445
-1.63115
-1.70776
-1.60114
13.7495
30.9987
-5.34211
-5.32318
-5.31882
-5.32247
-1.57715
-1.70224
-1.70807
-1.57154
13.9382
-0.00934083
0.867496
4.28132
-2.58507
3.39875
0.806034
4.41624
-2.58335
7.62628
-0.0308777
0.691571
0.788273
-6.31825
31.6519
-5.44783
-5.45642
-5.43651
-5.43769
-1.68406
-1.77026
-1.66064
-1.79279
-0.0229039
0.764441
0.844924
4.44928
-33.6689
-6.90828
6.80065
-0.5653
12.0854
32.9621
-6.47028
7.00144
-0.180661
32.0067
-6.93555
31.2071
13.2829
7.17927
35.0079
-0.537014
-0.0850542
-7.58145
-7.62874
-7.56194
-0.564562
13.7312
-0.553409
-0.0415487
34.9335
11.0036
-6.28105
33.6835
13.5203
5.96427
-34.0452
-6.80746
12.107
33.3847
7.07602
35.3049
-0.0136679
-7.60949
-7.61553
-7.6077
6.72384
-5.85287
0.124519
33.1249
13.179
11.3956
31.0652
12.4574
13.7261
0.0533029
35.2676
0.693858
0.750345
-6.32465
7.66201
-6.51284
-22.0607
14.5158
31.3038
15.273
0.19723
-1.66812
-1.76194
-1.78563
-1.64982
-5.4644
-5.4792
-5.44968
-5.4629
31.8067
3.51088
0.0170349
4.43453
-2.60473
0.869996
3.42992
4.27847
-2.62779
0.847089
0.0272063
4.42923
0.814515
0.809018
14.7489
13.8597
-3.55339
-3.55017
-3.47813
-1.75555
-1.69326
-1.66373
-1.76678
-1.72803
-1.69008
-1.63798
-1.76773
20.8469
-22.7214
29.6776
-6.35178
-20.6908
12.7844
19.6483
22.8193
-21.2968
0.213945
21.0439
24.2228
22.2927
6.67563
-3.60069
0.147577
-3.62248
-3.55979
-3.63543
-3.64585
-3.6326
-3.64318
-6.36404
-22.0444
-13.7323
13.6332
22.6938
-13.9423
0.144268
23.3039
-14.0924
14.5164
0.0125008
-2.72403
4.23926
0.872827
0.0300066
3.60439
4.22303
-2.73344
0.850541
-6.54645
-22.2977
13.7473
23.4768
-0.00731986
0.00671295
0.823065
-6.06775
0.813959
6.17624
-0.00435826
0.0159055
0.847557
0.870373
4.15535
-0.0274872
-5.48136
-5.47926
-5.46184
-5.50348
-1.77887
-1.65029
-1.78016
-1.70587
23.7787
14.1127
-3.54351
-3.5378
-3.4441
-1.81196
-1.80462
-1.73219
-1.84192
-1.78804
-1.77932
-1.70043
-1.81855
6.82146
-1.67033
-1.76166
-1.78682
-1.64449
-5.46518
-5.49049
-5.46969
-5.45595
31.9372
-3.36467
4.2582
0.826756
-2.62563
3.41595
6.69308
-1.68425
-1.80344
-1.82455
-1.67577
-5.34777
-5.30718
-5.32237
-5.3136
14.1347
30.8349
-22.1835
15.8851
14.6392
31.2042
14.8662
-3.49462
-1.71886
-1.67842
-1.76495
-1.62085
-1.78162
-1.71897
-1.80293
-1.67725
-3.54335
-3.5443
-3.47401
13.9324
3.50101
-3.50254
4.43645
0.904555
-2.5929
-3.56769
4.47448
0.854546
0.794101
6.68053
-21.3123
21.0671
24.2887
19.4112
-23.0988
14.2564
27.8915
-20.549
19.4391
12.6961
22.5539
22.1607
-6.90373
-14.0949
14.6473
-6.58114
-13.6785
22.7886
13.6849
22.4376
-3.60911
-3.61546
-3.55574
-3.63104
-3.62963
-3.66102
-3.6369
-13.8692
23.4894
-2.54281
0.775379
-2.54155
3.36446
0.00677653
-2.49814
0.820104
-2.63985
3.50078
3.57557
-2.36597
-2.4249
-2.4246
3.49448
3.28282
0.820552
-2.49812
-2.64206
-0.00428565
0.859422
0.859545
0.789101
0.835843
0.77449
-2.67068
3.29633
0.0100769
0.853204
0.854352
-2.47893
22.5343
-1.78969
-1.80195
-1.83827
-1.70934
-3.54121
-3.54121
-3.4463
-1.78909
-1.8015
-1.83805
-1.70816
14.0872
-6.46089
-6.46251
23.7633
13.6785
0.0280454
-5.53318
-5.50687
-5.50791
-5.53194
-1.78455
-1.63837
-1.79196
-1.6874
24.0916
13.8772
0.888807
-2.74074
4.23075
0.00640416
0.807555
-6.03207
0.807742
6.18922
0.00383952
0.862176
0.863077
4.11479
-5.53531
-5.50927
-5.53464
-5.51007
-1.78469
-1.63724
-1.79049
-1.68672
24.0948
3.25091
-0.019047
-2.4785
-2.65794
0.847142
-2.52873
-2.52903
0.797764
3.25035
-2.47797
-2.65639
0.844115
-0.00692625
0.858645
0.858458
0.812663
-0.0409284
0.789636
0.857825
-2.66719
3.33508
-0.0133852
0.883266
0.882063
-2.51331
3.53509
-2.43818
-2.34529
-2.44068
3.62124
-0.0318876
-2.75519
4.19464
0.914866
4.19294
-2.75399
0.912913
-6.61205
-22.21
13.7695
-0.00907836
0.840774
-6.06405
0.839069
-0.0156863
0.887356
0.886336
4.15846
13.997
-0.100201
-5.45576
-5.43517
-5.41937
-5.4745
-1.82718
-1.67404
-1.73374
-1.81189
14.1608
-3.50201
-3.50154
-3.40534
-1.83419
-1.82699
-1.74642
-1.8675
-1.83411
-1.82637
-1.74635
-1.86788
22.7926
22.0663
6.85474
-0.149086
-3.57653
-3.52016
-3.59553
-3.66991
-3.65367
-3.66076
-6.81331
-23.0307
27.7893
-6.51246
-21.8577
22.4529
-20.3311
-21.2944
-0.091071
23.9299
20.4768
-0.12827
29.4114
-0.134038
23.0391
0.801173
0.805837
-2.62129
3.5176
3.5118
-2.37443
-2.43216
-2.42286
3.50483
3.29001
-2.51061
0.816176
-2.63861
3.50107
3.5085
3.27264
0.787006
-2.49313
-2.65501
0.833685
0.857488
0.787055
3.57601
0.780873
0.793788
-2.67984
3.32669
0.851766
0.874024
-2.49828
4.28958
0.852394
-2.60076
3.41252
-22.1153
-6.53026
31.2472
14.4441
14.7069
-3.55997
-3.56194
-3.48926
-1.7349
-1.69527
-1.77879
-1.64201
-1.74343
-1.6817
-1.64657
-1.75855
13.8327
3.48717
0.860618
-2.58041
4.43132
7.64714
0.727074
-6.3456
0.734655
0.796687
0.810868
4.47827
15.0706
31.7635
-5.4666
-5.48033
-5.46147
-5.45832
-1.66868
-1.73865
-1.6319
-1.78396
0.872526
4.24092
-2.72409
3.60038
-6.54564
-6.47601
13.7513
13.7294
23.776
-5.48146
-5.47919
-5.46154
-5.5038
-1.77987
-1.64959
-1.78018
-1.70549
13.9429
3.60465
0.849483
-2.73354
4.22266
6.17438
0.811352
-6.0656
0.82217
0.847667
0.87011
4.15585
13.9232
23.7516
-5.49202
-5.46675
-5.50552
-5.45915
-1.80592
-1.65334
-1.78577
-1.71302
21.8901
-6.66664
14.4721
-20.6572
-6.33737
22.612
12.6879
-6.33592
22.514
13.5932
22.7301
22.0916
-3.54601
-3.59002
-3.61213
-3.63998
-3.64715
-3.64419
-20.3367
-21.2478
23.9471
20.4855
29.4676
23.0508
-6.6064
-34.1321
6.46261
-0.0890408
12.3168
33.4707
-6.36727
6.5473
32.5909
-6.6467
32.3428
13.5444
35.182
6.8103
-0.229912
-7.5898
-7.63746
-7.61513
-0.224277
35.1233
-0.121821
13.8802
11.3895
30.8545
32.5349
-6.55841
13.7219
-6.59191
6.39578
-34.2928
12.3155
33.6424
35.4323
6.83424
-7.63239
-7.66881
-7.64636
-6.13062
6.73998
33.1442
13.3039
35.3927
11.505
31.1118
12.685
13.8529
22.7475
-6.1016
-0.0223466
12.8845
4.76219
-4.52908
-0.0391852
8.94051
-4.63571
8.27734
11.8001
8.31016
-22.6711
-4.54803
8.70328
12.59
6.09566
23.1739
-6.21135
-6.23552
-6.27634
-0.0766795
12.8713
12.2848
-0.136822
-22.114
-6.22288
-6.83345
14.3302
31.2053
0.0997006
-2.58323
0.80573
4.41615
3.39916
-2.58654
0.867164
4.27966
7.62827
0.107329
-6.31842
0.788875
0.691786
13.7487
-3.52547
-3.53114
-3.45908
-1.69439
-1.63141
-1.70834
-1.60061
-1.73385
-1.69639
-1.63845
-1.77162
31.6522
0.543671
-5.44862
-5.4566
-5.43871
-5.43763
-1.68347
-1.77024
-1.79232
-1.66028
13.9268
30.9972
-5.34111
-5.32139
-5.32158
-5.31648
-1.57717
-1.70342
-1.57178
-1.70988
-22.0874
22.8825
29.5635
-23.5746
-7.17855
21.9005
14.5356
28.6383
6.86718
22.1093
-0.00714757
-3.49182
-3.46631
-3.4797
-3.44263
-3.46458
-3.45497
-22.8275
6.99873
0.0298909
24.8843
24.9017
16.2188
0.0194163
29.5259
12.3904
23.6703
23.7767
-34.0437
5.97599
0.573245
12.099
-6.16905
32.4654
-6.93268
13.436
13.3546
7.0757
6.28945
0.53755
-0.0217621
-7.61842
-7.61141
-7.61054
6.72918
-33.6901
0.117735
13.1554
0.572771
13.7167
12.458
11.3919
0.0968898
13.5182
-23.4839
20.483
-7.55767
-14.3597
14.1099
26.8434
-23.3761
20.5829
14.1335
7.25417
21.7739
-3.3956
-3.47399
-3.43607
-3.44268
-3.43721
-3.47254
-3.44124
7.30061
-21.4964
23.5742
-13.7333
15.9475
11.6582
21.819
-13.9694
28.3565
-22.0795
-7.08855
17.3669
-15.5091
13.7462
25.9867
-20.4071
19.9719
13.6241
7.15858
22.4757
-3.5214
-3.64759
-3.65993
-3.61416
-3.56786
-3.63975
-3.64291
-19.0957
6.9759
23.5818
-14.9394
14.3277
-15.7799
28.2514
12.6123
21.9643
-21.7023
-6.99661
-7.15904
30.1382
-2.62447
0.913299
4.24967
-2.5899
0.983382
4.42863
7.63833
-6.32759
0.780608
0.883117
-3.48529
-3.50816
-3.42261
-1.76852
-1.73275
-1.67594
-1.81577
-1.81931
-1.7595
-1.719
-1.84088
31.4111
-5.40299
-5.46962
-5.44072
-5.40113
-1.72017
-1.78506
-1.67315
-1.82834
30.3117
-5.26089
-5.26584
-5.21996
-5.2665
-1.71946
-1.83457
-1.85226
-1.70208
6.82111
-33.6592
12.074
7.00561
-32.677
12.6353
-31.1999
12.1206
10.98
-6.955
-7.17485
13.6641
13.2709
7.18889
6.94195
-7.63053
-7.58394
-7.56397
13.7238
13.4386
-23.484
21.9722
28.6972
-23.6041
-6.86263
21.8986
14.6833
28.6791
6.7752
22.1267
-3.47285
-3.48226
-3.49198
-3.48907
-3.4785
-3.48839
-22.844
6.77811
24.8308
24.8429
15.6867
29.4984
12.4712
23.7363
23.6828
-23.1136
-6.65582
19.1896
14.1702
28.0018
6.66143
22.7259
-3.54578
-3.58863
-3.61155
-3.6473
-3.63961
-3.64322
-21.8935
20.6502
13.5954
22.5173
-20.3403
6.33474
23.9419
20.4913
14.477
29.4632
12.6957
22.6098
19.2361
-34.2954
6.38161
12.3165
-6.76312
-6.54981
32.5345
13.7366
13.5642
6.53458
6.82868
-7.62849
-7.66437
-7.64194
-33.7042
6.73731
13.3438
13.7074
13.8536
12.7075
11.516
2.67345
-0.803461
-0.798469
1.67127
1.6648
-1.76444
0.826267
-2.6403
3.51865
0.0142655
1.6307
0.809084
-2.68399
3.57261
0.039044
1.64164
0.800857
0.795943
0.0306323
0.0400549
-1.77461
3.56371
1.65242
1.66602
0.0114437
1.6886
-1.74981
0.0368488
1.66956
-1.77631
-4.43441
-0.824773
-0.778636
1.51451
1.54615
5.23517
0.799174
4.40165
0.0137916
1.69577
0.796038
4.45466
1.72639
0.758659
0.802578
0.0228769
5.38234
1.69939
1.71019
0.0113331
1.56701
5.26648
1.60494
5.3216
-0.819133
-0.763575
2.65032
1.66179
1.64723
-1.75778
-2.66114
0.759297
0.105178
3.54319
1.66389
-2.61674
0.843516
3.49406
1.61265
0.781262
0.846074
0.0771283
-1.7514
1.67855
-1.73304
0.0948896
1.69428
-1.77064
3.53094
1.65953
1.60385
2.62919
2.54158
-0.879392
1.78289
-1.70045
-1.74404
-2.53223
-2.67335
3.20953
1.5507
3.42847
0.854525
-2.67992
-1.679
-0.0169098
3.60737
0.863287
-2.5411
3.37185
-1.76037
-0.00267794
1.72415
-1.71198
3.52953
3.34107
1.77047
-1.78171
-1.70078
-1.77516
-0.00517104
-0.931333
-0.856009
2.66679
1.76121
1.69715
-1.80521
-2.64843
0.884594
-0.0398887
3.50226
1.72042
-2.69349
0.947414
3.56742
1.67046
0.846213
0.919244
-0.0274428
-1.81028
1.69837
-1.81022
-0.0405186
1.77667
-1.79142
3.5244
1.74697
1.71189
2.60532
2.54512
2.63237
-1.72118
-1.71304
-1.6802
-2.51492
-2.62434
-1.504
3.5143
-2.60313
-2.57361
-1.47925
3.5126
-2.64916
-2.51692
-1.4584
-1.66326
-1.65208
3.44463
-1.727
-1.68753
-1.6563
-1.62446
6.15699
-0.854145
-0.901365
-5.21945
0.745981
-6.29145
-0.0439618
7.69405
0.685803
-6.20118
0.0510835
7.6386
0.912952
0.84008
0.0565884
-0.0544853
-5.38062
7.6573
0.0441652
-5.25403
-0.0300457
-5.31647
2.66383
-0.758428
-0.838046
1.71161
1.64122
-1.75768
0.786378
-2.62447
0.062198
1.6868
3.50347
0.85065
-2.6738
1.63492
-0.0130417
3.56676
0.84613
0.781419
0.0493823
-1.76769
-0.00895943
1.68673
1.641
3.55216
0.0652936
1.73379
-1.7381
1.66103
-1.76717
-0.0109977
2.51451
-4.29134
-0.859978
-1.57364
4.19275
-2.70354
-3.207
3.62982
0.638164
-2.65309
-0.0123818
3.66164
0.903479
4.28788
-3.38222
-1.79379
-0.00188319
3.63788
-3.34233
-1.74028
-1.69812
0.00564227
-0.87149
-0.784854
2.66998
1.73125
1.65155
-1.77857
-2.61534
0.80706
1.68478
-2.69151
0.880519
1.63403
0.797894
0.872654
-1.76857
1.66959
-1.79571
1.73558
-1.7417
1.69776
1.64513
2.54993
-0.826104
2.57313
-1.69672
1.71311
-1.67125
0.800276
-2.57953
0.0077753
-1.66208
3.49447
-2.52905
-2.50578
1.47637
3.27343
3.25723
-2.61582
0.802148
0.00785455
-1.63101
3.51722
-1.67003
1.65096
3.44349
0.0101511
-1.72748
-1.68864
1.65462
-1.65277
3.45764
-0.846966
-4.39883
-0.724123
1.55236
1.48297
5.2081
0.738531
4.42603
0.109235
1.74174
4.37928
0.814461
1.67295
0.720167
0.839482
0.103245
5.35609
1.5458
5.251
1.70653
1.65273
0.13002
1.62729
5.29235
-4.38179
-0.941175
-0.880285
1.61999
1.57848
5.16176
0.851843
4.36921
1.77609
0.932203
4.44283
1.75527
0.847887
0.89611
5.36683
1.77483
1.74201
1.63393
5.29659
1.65925
5.21973
-4.25881
2.42731
-0.86043
-1.55531
0.89564
4.26243
-1.76977
-3.35931
-0.00156876
-2.66648
4.15542
-3.18765
0.678078
-2.59421
0.021315
-1.69632
-3.31664
-1.70587
-0.00663735
2.45141
-4.25667
-0.779654
-1.61429
0.597507
-2.6003
0.11629
0.823256
4.25221
-1.80517
-3.36791
0.100645
4.15897
-2.68942
-3.19329
-1.74162
-3.32078
-1.75671
0.100655
-0.749812
-0.663476
5.71334
-5.24078
-5.68477
0.754306
0.12625
0.735752
0.822932
-5.0997
-0.0509242
0.0727632
-5.71311
0.826276
0.0555295
-5.13064
0.00249973
-5.10791
0.113002
-4.25523
-0.930157
-0.838299
0.867008
4.19922
-3.32026
-0.0155254
0.783695
4.19788
-3.33103
0.101738
0.879503
0.97813
-0.0617358
0.077442
-3.35825
-0.0370086
0.0968475
2.58616
2.51634
-0.855226
-1.66487
-1.69842
1.74643
0.817213
-2.66662
-1.65649
3.60998
0.00528399
0.847204
-2.53691
-1.74323
3.3884
-0.00756632
-2.52231
-2.62835
1.50561
3.38592
3.22017
-1.669
1.68991
3.49985
-1.74487
1.74082
3.33864
-1.68648
-1.74911
0.000394623
2.57322
-0.826224
2.54992
-1.69641
1.71317
0.802022
-2.61589
3.51743
0.00774209
-2.57938
0.799497
-1.66226
0.00767569
3.49397
-2.50832
-2.52687
1.47623
3.27184
3.25896
1.65449
3.45807
-1.72753
0.0101401
-1.67038
1.65021
3.44285
2.61677
2.51455
-0.832092
-1.73564
1.7204
0.801584
-2.69246
3.62339
0.0285566
0.819864
-2.52184
-1.7686
3.37414
0.0221894
-2.51272
-2.65111
1.48068
3.39831
3.21009
1.67182
3.51772
-1.77357
1.71075
3.33509
-1.78174
0.0263653
-0.821747
-0.852408
-0.828301
1.72679
1.69376
0.815567
0.791046
0.0322903
0.0250275
0.846703
0.816976
1.72689
0.0079252
0.00175804
0.82833
0.860979
1.65575
-0.000468219
0.0271462
1.70243
0.00924109
1.73427
1.68148
0.002763
1.66229
0.0265487
-0.802799
2.63307
-0.816554
0.824754
-2.64216
3.53993
0.0149742
-2.59102
0.823989
0.0134494
3.47827
0.832076
0.815273
0.0156125
0.00858403
0.0116332
3.52939
0.0122177
2.54257
-0.853857
-0.824527
0.883578
-2.51779
3.33852
-0.0146512
0.851511
-2.50564
3.33374
0.0180203
0.842154
0.870462
-0.011291
0.0167058
3.38605
-0.011179
0.0165155
2.66492
2.64597
2.56545
-2.53417
-2.66201
-2.62017
-2.63376
-2.53406
-2.68072
-4.44738
2.40198
-0.856336
-1.5231
0.911257
4.52933
-1.71354
-3.61237
-0.0221176
0.665107
-2.46163
-0.0314331
-2.56899
4.26825
-3.38743
-1.68759
-3.49878
-1.59612
-0.0278615
2.44438
-0.778267
-4.38152
-1.58094
0.56306
-2.50582
0.0574433
4.39301
0.837828
-1.74058
0.0481403
-3.48433
4.15307
-2.64867
-3.26748
-1.62497
0.0436194
-1.74508
-3.44778
-0.849065
-0.909526
6.14418
-5.20893
-6.18796
0.679425
0.0355732
0.907105
0.849559
-5.35214
0.0267337
-0.0410334
-6.23658
0.748849
-0.0412639
-5.23356
0.0303361
-5.28145
-0.0333425
-0.807859
-4.40659
-0.861551
0.865818
4.43431
-3.56632
-0.038702
4.36839
0.775549
0.0425898
-3.48615
0.83998
0.798401
0.0250075
-0.0416468
0.0422265
-3.54416
-0.0367163
-4.39999
-0.803423
2.42898
0.860965
4.43481
0.0134297
-2.63419
4.16552
-2.48723
0.60413
0.0029061
0.00747901
-4.46646
2.42872
-0.798971
0.865153
4.54979
-2.59816
4.27377
0.598721
-2.47072
-0.869926
6.16686
-0.840006
0.828249
0.844516
0.0249128
-6.21979
0.710173
0.00487215
0.663565
-6.28427
0.0144285
2.50431
2.56406
-0.849821
-1.68297
-1.65651
1.72074
0.844025
-2.52066
-1.74476
0.00339947
0.807187
-2.67475
-1.65539
3.61089
0.0172012
-2.59805
-2.4964
1.50381
3.36123
-1.71011
1.72661
-1.66016
1.66279
3.47181
-1.7599
-1.67713
0.00545958
2.50967
-0.782083
2.58521
-1.71977
1.68061
-2.67084
0.740206
0.111286
3.59147
0.772142
-2.53517
-1.77661
0.105391
-2.61869
-2.49647
1.4586
3.3724
-1.75028
1.68806
-1.7767
0.101552
1.62407
3.4818
-0.837619
2.52083
2.54796
-1.67802
1.71309
-2.59457
0.813618
3.49719
-2.57146
0.81028
-1.64852
3.4863
-2.50144
-2.45892
1.47906
3.2207
3.24924
-1.70792
-1.64864
1.65201
3.4105
1.65621
3.43104
-0.831163
-0.868668
-0.817068
1.68453
1.72734
0.803812
0.843369
0.067053
0.847239
0.879503
1.68187
-0.0231143
0.0445843
0.844773
0.823139
1.7555
0.00248514
1.71388
1.66862
1.77144
-0.0105781
1.68812
0.0656047
2.52937
-0.863272
-0.792007
0.886126
-2.50044
-0.0224506
0.804014
-2.51714
0.0952317
0.834113
0.886043
-0.0192917
0.06154
-0.0152606
0.0841791
-0.817167
2.63078
-0.810863
0.813924
-2.68061
3.58029
0.0279135
-2.61283
0.841002
3.50697
0.820679
0.833053
0.0196529
3.53008
0.0198724
2.54501
2.60552
2.63253
-2.62482
-2.51493
-2.64907
-2.51691
-2.60326
-2.57324
6.15748
-0.845239
-0.890339
-5.21879
0.675157
-6.30448
0.0322553
7.70156
0.736018
-6.24542
-0.0210375
7.67394
0.897167
0.836268
-5.42867
0.0358575
-0.0333478
7.67699
-5.33826
0.0251812
-5.27822
-0.0180168
-4.43202
2.41702
-0.801194
-1.54458
0.626201
-2.47979
0.0212144
0.8667
4.54915
-1.74274
0.0235783
-2.58791
4.2557
-1.71026
-1.62395
0.0283456
-4.36534
-0.808271
2.42584
-1.52015
-2.50482
0.601934
-0.00846418
0.868941
4.42279
-1.71135
-0.00929695
-2.63124
4.13482
-1.69905
-1.58233
-0.0108657
-4.41498
-0.783322
-0.836892
0.840257
0.76842
0.0369939
-0.0314791
0.79635
4.47417
0.026912
0.80954
4.40559
-0.0133237
0.0426612
-0.0146503
6.16607
-0.896331
-0.930684
-5.26599
0.742699
-6.27252
7.70727
0.78028
-6.21111
7.65709
0.921398
0.907259
-5.38445
7.6507
-5.30489
-5.27546
2.46647
-4.42489
-0.874399
-1.57518
4.17446
-2.67624
-3.30245
3.49566
0.681986
-2.52396
-0.0485334
3.49389
0.924852
4.44774
-1.76668
-3.55225
-0.0576437
3.51238
-1.76671
-3.49549
-1.63566
-0.0530846
-0.85435
2.44792
-4.47037
-1.57483
4.30339
-2.61527
-3.42898
-2.49077
0.670827
4.52984
0.914466
-1.7696
-3.60527
-1.64297
-1.75852
-3.52802
-0.856461
-4.48536
-0.882199
0.877213
0.838278
-0.0661089
0.866954
4.43161
-3.55478
-0.0592027
4.45449
0.863262
-3.56782
-3.60389
-0.0639515
2.50352
-4.27466
-0.871623
-1.61794
0.726985
-2.5752
-0.0211709
3.64262
4.17154
-2.71683
3.69243
0.913814
4.28426
-1.77521
0.00120009
3.6491
-1.74673
-1.68968
0.00717903
-0.876074
2.49427
-4.27193
-1.61264
4.17082
-2.72117
-3.20971
4.28471
0.912903
-1.78035
-3.37149
-2.57432
0.72693
-1.68908
-1.74861
-3.34163
-0.786021
-0.780891
5.63006
-5.25443
-5.69353
0.904334
-0.0460573
0.742613
0.750285
-5.0755
0.0557832
-5.68945
0.916146
-5.1419
-5.14147
0.000996182
-0.881426
-4.2679
-0.883699
0.851683
4.19594
-3.32831
0.0175984
4.19604
0.850578
-3.3279
0.872872
0.87221
0.0624678
-3.37087
0.0351012
2.69741
2.6979
2.5919
-1.77136
-1.78485
-2.56058
-2.70828
3.58726
-2.65411
-2.65196
-1.52476
3.57914
-2.55973
-2.70999
-1.55189
-1.71247
3.51577
-1.71258
-1.72357
-1.76978
2.69606
-0.86073
-0.865905
1.74168
-1.78018
0.882325
-2.67094
-0.0285077
3.56699
0.89488
-2.67047
1.71684
3.55474
0.86081
0.870489
-1.78077
-0.0197103
1.73593
3.60326
-1.76348
-0.0204521
1.77473
-1.7731
2.61714
2.61805
-0.896883
-1.74083
-2.58146
-2.58403
3.30481
0.884268
-2.65994
-0.069579
3.55142
0.884711
-2.66042
-1.71689
-0.0696629
3.49429
-1.73488
-1.77448
-0.0692731
-0.880752
2.62715
2.54104
-1.74213
-1.70074
-2.53258
-2.67285
-2.54004
0.862471
-1.76243
-2.6765
0.85489
-1.67879
-1.77081