/*--------------------------------*- C++ -*----------------------------------*\
  =========                 |
  \\      /  F ield         | OpenFOAM: The Open Source CFD Toolbox
   \\    /   O peration     | Website:  https://openfoam.org
    \\  /    A nd           | Version:  9
     \\/     M anipulation  |
\*---------------------------------------------------------------------------*/
FoamFile
{
    format      ascii;
    class       surfaceScalarField;
    location    "0.0028";
    object      phi;
}
// * * * * * * * * * * * * * * * * * * * * * * * * * * * * * * * * * * * * * //

dimensions      [0 3 -1 0 0 0 0];

internalField   nonuniform List<scalar> 
68269
(
-0.0666292
-1.05009
0.110434
0.358615
1.02271
-0.260764
1.0052
0.287053
-0.933346
-1.01112
0.925482
-0.0363838
0.437407
0.0396132
-0.419652
-1.29468
-1.08194
-0.252497
1.06691
0.341254
-0.184317
0.111115
-1.45949
-0.373295
1.03348
0.417781
0.13596
-1.35483
-1.22868
-0.010827
-0.234044
1.08885
-0.677214
-2.04846
0.497817
1.02421
-0.0476813
1.70504
-0.563001
-1.33818
-1.9019
0.405601
1.96646
3.06888
0.574025
2.09601
-2.93718
-1.79349
-0.52661
1.74092
-1.86755
0.289243
-2.74651
-0.20539
1.69937
-1.48315
-4.5628
0.724637
-0.485452
4.12377
2.96278
2.53188
1.62799
-1.31161
-1.33835
-4.16079
3.965
-2.83473
4.8292
-0.848067
3.89675
-5.09388
1.08953
4.60164
-1.34621
3.33845
-4.83398
1.60799
-1.2511
-4.10177
1.96224
4.02019
2.30673
1.39003
2.85816
-2.6265
-0.588639
-4.42887
4.42252
-2.03613
4.65842
-1.87386
2.57488
-4.79735
2.14042
4.83483
-2.3871
1.69374
-4.99674
2.56418
-0.320753
-4.54007
2.92462
4.61741
1.02842
1.18659
-2.20224
0.299824
-3.68467
2.77288
-0.310325
4.66794
-0.884048
-2.25826
-5.17491
2.21675
1.45502
3.36751
-0.309142
-1.97171
-4.00475
1.25894
1.18194
0.152424
-2.41143
0.209047
1.61908
0.189562
-0.275354
-0.929279
-1.09777
0.267075
0.911011
1.21291
-0.571057
4.38818
1.2682
0.857632
-4.42219
-4.44817
0.603111
-0.374415
4.00139
-1.29339
0.689009
-4.635
-0.463858
2.6292
-1.44123
-4.44679
1.00741
4.05441
-4.47544
-0.349232
0.889208
3.90096
0.96997
-4.53644
2.51704
4.26453
1.25771
1.18115
-4.3065
-1.3945
-4.29296
3.97574
2.69691
-1.20047
-4.11064
1.51987
3.77028
-1.28948
-1.24762
1.63385
-4.30957
2.31124
3.79837
-4.41255
2.41894
1.52634
-4.16472
-1.905
3.97903
1.09119
2.32079
-4.09514
-3.99459
1.86915
3.83825
-1.20477
1.99798
-4.27393
2.14059
-1.11077
-4.13855
2.30474
4.08238
-4.08344
2.24814
3.91879
2.37907
-4.31301
1.9013
4.06267
0.875252
2.7643
-4.15853
-0.862632
-4.2418
4.2162
1.71812
-2.61858
-4.21317
2.97395
4.38441
-2.76777
-0.660794
3.10718
-4.53612
1.32539
4.08539
-4.40997
1.61995
3.18071
-4.23953
-3.59377
4.28889
0.0859597
3.79177
-4.16882
-4.24931
3.13908
4.59244
-0.437781
3.30894
-4.60615
1.05535
0.0646491
-4.48831
2.75281
4.54484
0.558829
-4.26154
3.08782
4.54532
3.40628
-4.57214
0.752089
4.22782
-0.230903
3.73751
-4.01951
0.29972
-4.29742
3.94868
-0.0183802
-2.61196
-3.73353
1.27418
2.72644
-3.27483
0.312384
2.68857
-4.04531
-0.10705
4.00084
-4.38247
0.400143
3.08033
-3.89651
-2.17037
-1.02326
-0.461777
2.12535
0.549632
1.39548
-2.15468
2.14786
-1.73613
-0.370624
2.2823
0.467215
-0.608155
-0.492257
-1.86848
0.71438
0.872813
1.90893
-1.16502
1.12411
0.504981
-1.74372
-2.19423
0.149607
1.44447
0.548153
1.33793
-3.33465
0.0699566
-0.681386
-1.23964
1.16941
0.108421
0.943396
-3.12835
1.08128
0.0336703
-1.9524
0.386594
0.714942
2.15529
-6.06948
-0.216611
-2.22844
6.29662
0.430477
-1.67724
2.35127
-1.16599
0.0808802
1.37599
-5.92476
-0.79151
-1.10053
6.26987
0.785779
-0.379788
-1.87242
2.38628
-0.682039
0.435257
0.745891
-5.3548
-1.12467
-0.454754
5.82841
1.36351
-0.650949
-2.40826
2.32935
0.760105
0.789617
-1.91493
-5.30565
0.390322
0.158387
5.86374
2.27265
-1.36654
-2.70832
2.3292
1.80069
1.61841
-0.575811
-2.64666
1.08451
-2.84047
2.15144
1.44483
0.00635315
-2.58976
2.79199
-2.05868
0.10134
2.11717
-2.32763
5.74543
0.15652
-6.53163
-5.03868
5.75955
0.197289
5.0713
1.81888
-6.14619
-0.639803
-1.76152
6.40731
0.761092
1.75979
0.610504
-0.546085
-2.16844
5.73948
5.06351
4.86278
-0.359798
-5.49096
0.529664
-4.8992
3.46066
-5.2569
0.124544
4.43628
-2.83426
-0.294503
2.38572
-0.92062
3.40845
-0.251971
0.371822
4.25406
-2.79809
-2.08085
5.6836
0.614919
5.35813
-4.85346
-0.694582
-5.75052
4.93911
0.809982
1.04344
-5.54972
-0.822732
-0.749087
5.96083
0.935392
2.31986
0.695724
-0.602206
-1.99462
5.2706
4.93469
-3.69989
-1.01489
3.7876
-5.43229
1.16158
3.16997
-4.49494
-0.455885
0.508727
3.75128
-2.65556
-0.547983
2.36032
0.421378
2.8622
-3.77124
-0.560452
0.647453
3.24142
-2.47801
-1.96252
5.13775
0.858751
4.7224
-2.82485
-1.33795
3.01699
-5.30169
1.53134
0.461546
-5.33572
-1.63019
-0.0489322
5.87837
2.59286
1.60001
-1.31013
-1.98439
4.94165
2.71785
-2.44811
-1.47565
-3.81015
1.66803
3.60876
-2.99356
-0.891967
2.82458
-2.33886
1.02637
2.53235
-1.14906
2.32539
1.50795
-1.17729
2.73455
-2.22614
1.3528
2.56929
-4.25414
-0.89194
2.61333
0.923548
-2.23001
4.87081
-3.7764
-4.05753
-0.468822
0.734374
4.5097
4.22843
-2.11893
4.82326
1.97651
2.62981
-2.12657
-1.82283
-3.66232
1.83623
3.69676
-0.189378
-3.25882
3.43544
0.58627
-5.10935
4.92565
2.87778
-2.56458
-2.0624
3.52858
2.62422
2.57124
-1.97284
-1.74538
-3.16719
1.33464
3.1769
-1.54508
2.92159
-2.35835
1.61727
2.98146
-1.652
1.86114
2.70404
1.42011
-1.58274
2.71694
-2.36862
1.26167
2.64608
-0.297961
0.139643
-0.0210491
0.0222907
0.298168
-0.517253
0.0863013
0.292118
-2.17369
1.79157
0.0187534
-0.150628
-0.966542
2.34383
-1.13842
-1.70912
0.17081
-2.17403
0.182102
1.78516
0.0171643
-0.949015
0.287328
-0.541504
-0.236336
-0.718039
-0.277131
0.335045
0.671639
-0.0346148
0.533588
0.407734
-0.365651
-2.12546
1.82757
0.112505
0.277124
-0.168275
-0.548032
2.38993
-0.348371
-2.03982
0.479591
-0.144998
0.517491
-0.210268
-2.21931
0.452204
1.85573
0.382466
-0.278367
-0.666429
-1.55232
-0.827636
0.787743
1.47624
0.619836
1.35674
0.786354
-0.638773
-2.53609
1.87643
0.728009
0.6753
-0.580975
0.591347
2.31131
1.04268
-2.47265
0.95731
-0.554331
1.29158
0.48345
-2.60527
0.960237
1.88338
0.784508
0.833613
-1.257
-2.5747
-1.01788
1.34991
2.75898
1.01314
2.25666
1.63974
-1.3825
-2.832
2.00878
0.951112
1.17951
-1.04705
1.74548
2.33433
2.14149
-2.79927
1.70481
-1.09261
2.26162
0.87209
-2.91457
1.71545
2.01716
1.24278
2.2365
1.95859
-4.52201
-0.73862
2.90423
-2.58781
4.17186
-2.35509
-2.70862
3.27285
2.7354
3.333
-0.797017
-1.71382
1.86849
-3.7593
1.0768
2.40445
2.44111
2.02441
-3.08612
1.15075
-2.137
-1.16081
-2.83254
2.97107
1.08658
-1.05876
2.05878
1.62608
-2.47236
-2.68709
2.5333
-1.75447
2.36684
2.3764
-2.33014
-0.881459
-2.19678
0.696469
2.04463
-1.80797
-0.821486
-0.81458
2.03695
0.821863
0.831502
-1.97881
1.25961
2.61982
-1.70039
1.66326
-7.13705
3.95133
-0.190047
0.395247
-3.91839
6.5335
0.185174
7.17351
-6.98244
-2.12318
0.159175
-3.92862
4.97783
-2.35483
5.70687
0.347413
0.382759
-6.92697
0.356527
4.95707
-3.88831
-7.16942
3.85252
0.58065
-3.80012
6.58662
-2.28097
5.73697
1.70866
-0.580333
7.16412
0.67061
-6.91156
-0.548746
-3.64213
2.09838
0.617789
4.95696
-6.94239
-2.04389
2.12808
4.98053
0.672836
-3.53719
6.59889
-0.318539
0.096609
0.0837515
0.328434
-0.454491
2.37188
-1.0802
-0.302122
0.405419
1.81452
-0.0891315
-0.0107891
-0.739574
1.80843
-0.886806
0.411385
-0.344919
-0.685419
-6.89871
3.19697
0.666565
-2.96333
6.40997
7.06456
0.674699
-6.77236
-1.5811
-3.41168
0.611307
4.89419
-2.03983
5.58095
0.583487
-3.23865
6.54147
0.636611
-6.57103
0.583221
4.80598
-6.68522
3.02398
0.699746
-2.74134
6.22097
-2.01559
5.42582
2.19702
-0.648744
6.47968
0.741574
-6.11213
-0.600216
-2.88346
2.45289
0.698992
4.56354
-6.33329
-1.20184
2.34308
4.69153
0.822672
-2.55791
6.06775
-0.9357
-0.442793
0.445367
0.856314
0.141462
2.38011
0.0382632
-0.52532
1.15061
1.8833
-0.486099
0.595248
0.330351
1.87805
0.0352801
1.05407
0.315891
-1.01832
-6.19957
2.66735
1.24828
-2.14124
5.8228
6.31553
0.906662
-5.93933
-0.898371
-2.76863
0.876624
4.41918
-1.92165
5.04698
1.06365
-2.39158
5.92138
1.11338
-5.82351
1.09715
4.29911
-6.10019
2.57345
1.50483
-1.9014
5.75817
-1.93271
4.97955
2.52338
-1.34647
6.00872
1.6139
-5.71566
-1.36145
-2.49324
2.74866
1.67198
4.13482
-5.74544
-0.591078
2.67732
4.20902
1.79102
-1.71697
5.70424
-1.7624
-0.866725
0.929956
1.66504
0.6981
2.3083
1.2783
-1.15839
1.99121
1.97986
-0.909494
0.908854
1.36664
1.91481
1.07055
1.89325
0.778297
-2.27742
1.34635
4.40951
-0.714959
2.81214
-3.46816
-1.22212
2.60024
1.58496
-3.49514
-2.17928
-4.42628
2.20316
-0.539357
-1.84135
-4.27976
-1.02443
3.13042
1.14023
4.9577
-0.654364
-3.49726
-1.92087
3.17019
1.80055
-3.4897
-0.595462
2.71939
5.32229
-1.90774
4.84645
2.48606
-3.56259
-4.87669
1.94314
5.65319
-1.60105
-1.54867
-3.59404
2.48491
5.64705
1.26541
4.35166
3.59442
-0.661291
-3.4405
-4.27234
-0.915454
1.09614
4.90565
-3.86512
-0.870722
1.36358
-3.37953
4.44944
-3.43258
-4.09854
-0.110277
4.70463
4.01489
1.7518
-3.50859
-0.510339
5.16198
-0.387312
-3.27674
4.29578
4.6511
3.52373
-3.45783
-3.36589
-4.1515
4.80882
4.02734
5.40391
4.38396
-3.22196
-2.14646
-5.78186
2.43055
2.54294
-1.47922
5.46952
5.88209
1.98326
-2.44595
2.05555
4.00113
-2.11653
4.67903
2.36697
-1.58758
5.5766
2.52008
-0.343673
2.35817
3.87802
-5.46132
2.46704
2.85373
-1.49228
5.08124
-2.17051
4.23552
2.83379
-3.19143
4.78541
3.61538
-0.75446
-2.43688
-2.54434
2.9679
2.21869
3.0974
-0.425423
2.94019
3.58651
2.91414
-1.70916
4.40799
-2.86798
-0.979845
1.29681
2.82482
1.10052
2.17766
2.47382
-1.67533
2.98498
1.41789
1.79505
-1.11417
0.913798
2.47411
0.829492
1.9271
2.40745
2.8101
1.09619
1.1557
-3.75715
4.02184
4.0288
-1.0237
-2.62103
3.80899
3.62527
-2.51361
-2.31137
-2.95773
2.19371
3.54484
2.4898
4.50413
-3.09884
-0.802118
-3.10331
3.81157
-2.23228
3.03319
2.78112
-2.51045
3.99999
2.87278
-2.04432
3.3309
0.0343248
-3.05847
-2.29574
3.10576
0.159583
2.23774
0.213322
-2.81575
1.71999
-2.17469
2.30341
-0.025637
-2.92123
0.357388
-2.4298
2.94827
-0.178154
2.47298
-0.521422
0.608651
-2.50207
1.83179
2.73688
2.8893
-0.392812
-1.92101
0.600519
-3.04058
1.82524
-3.00248
3.02062
-2.15653
-0.20053
2.23177
0.356966
0.923679
0.585757
-0.119314
-1.52782
0.227208
-2.27202
-3.83333
2.6497
-1.8777
3.40307
-2.6024
2.57639
2.41975
3.21148
3.39472
-1.72535
1.827
3.14833
2.61607
-2.84042
2.04127
3.32454
1.95488
-2.0458
2.48472
3.0689
2.16716
1.4579
0.000118511
9.4208e-05
3.42547e-05
-0.000691477
-1.84486e-05
-0.00084191
-2.03619
-1.91782
0.264036
2.21583
2.33756
-0.178751
1.88891
-1.82615
-0.0581886
-2.80667
0.15793
1.69064
-1.21894
4.38456
0.176087
-4.03105
2.01277
0.58567
-0.442889
-1.11944
4.45023
-4.1076
1.7132
-0.985304
4.42271
0.733749
-4.10603
1.42402
1.31336
-1.06307
-0.74209
4.18841
-3.88212
0.936213
-0.695853
4.20502
1.63998
-3.88724
0.851731
2.88722
-2.45029
-0.106764
4.59468
-4.20412
0.269997
4.38431
0.314212
-3.9106
3.16979
-2.71853
4.11087
4.53341
-4.32764
0.707868
-3.89492
0.178425
4.7222
3.36441
-0.0515809
4.23829
-4.21606
0.472854
4.15566
-0.247065
-3.66803
0.785169
3.66785
3.87715
0.00594463
-0.92845
-1.211
0.518019
-1.31514
1.2369
-1.41397
-0.57344
-4.70785
2.04274
0.483038
4.1244
0.50084
-3.51576
4.40689
-0.229523
1.79517
-2.08316
1.06877
-1.01986
-2.4959
1.9682
1.20663
-1.92529
-0.986119
-1.60139
1.96188
0.859921
-4.16199
1.213
-0.122106
0.163155
4.32931
0.126479
4.14043
-3.35591
0.153734
-1.17348
2.44164
4.53275
-1.27602
4.41834
0.306383
-4.02626
2.06942
0.170086
-3.3687
0.250083
2.50361
4.56394
4.30043
-4.19245
1.19474
0.216441
4.38879
-1.23704
4.43644
-4.05306
1.96896
-0.24709
4.228
0.375632
-3.39358
-0.349258
-1.12132
0.472178
2.28862
4.65467
-3.38561
2.45783
4.61135
0.316118
4.45829
-0.51902
-4.15387
1.03275
0.791032
4.22224
0.577621
-3.39679
-1.06706
0.654283
2.0858
-0.858853
4.33333
0.879784
-4.0193
1.18417
0.809845
-3.36201
0.87767
1.90291
-4.05828
1.0265
1.10715
-0.77666
4.23943
-3.92369
1.02835
-1.072
3.99761
1.37063
-3.32091
-1.14981
-1.02543
1.47453
1.67914
-3.3226
1.77498
1.45339
-1.84311
-4.02203
0.868873
2.28313
3.9895
1.72582
-3.35282
-0.989002
1.84922
1.55722
-0.549992
4.28352
2.0282
-3.93202
0.722531
2.14595
-3.40245
2.26389
1.38484
-4.08507
0.618452
2.75686
-0.331367
4.42309
-4.03844
0.535673
-2.61704
4.17335
3.12621
-3.58894
-2.69959
-0.43854
3.12504
0.935651
-3.48339
1.17643
3.2472
-3.73067
-4.10899
-0.123448
4.22961
4.22807
3.69245
-3.71355
-0.189607
3.50027
0.666261
0.439218
4.72266
3.88743
-4.51218
-0.351479
4.3101
-3.82168
3.79829
0.36823
-3.96195
-0.335928
4.2961
0.521586
4.48895
-4.45064
-0.39298
-4.62152
3.80651
-3.4867
4.57416
-3.86475
0.380579
3.68058
0.0319456
-3.78399
4.04296
-3.40324
3.50994
-1.80092
4.0234
1.71774
-3.13341
-3.40054
3.62687
0.36848
-3.0849
1.5419
3.004
-3.40318
-2.5435
0.654715
-4.02033
3.72009
1.47998
-2.88759
-3.01752
4.23955
0.620074
3.56833
-3.47204
3.48608
-1.81363
4.63211
-3.15361
1.75598
0.822495
-4.05393
-4.76705
-3.31041
4.83815
0.626686
-4.20989
1.49331
4.61731
-3.41105
0.725443
-3.5258
4.83052
-3.03043
1.47228
-2.90002
-2.77615
0.219611
-0.117876
3.50919
4.12354
-3.33203
1.03305
0.83134
2.92033
0.0844353
-0.00788693
2.82025
-2.97353
2.57423
0.534806
1.08309
-2.91788
0.0999164
2.25782
1.20419
-3.20646
4.69734
0.697258
0.932576
4.65213
-3.14611
-0.727744
-0.00758513
-2.89887
0.42757
3.65196
4.74218
-2.89801
0.995934
-2.77929
0.034304
3.479
-0.211763
-2.55025
0.198396
3.97014
-2.67856
0.128522
4.16349
-1.96657
0.137516
-1.61644
-0.160675
2.1141
1.69694
2.41891
-2.71781
-2.05073
-0.0965728
0.239053
0.385498
2.60125
-2.73853
-2.38076
-0.226912
-2.02911
2.21914
-1.80347
0.0822384
2.18246
0.0250266
-1.98753
-0.137692
-1.2516
2.06633
0.176049
1.48248
-2.24707
-0.522578
2.33277
1.68596
0.500051
-2.10202
-0.468623
1.25997
2.18626
0.466884
-1.15013
0.976556
-0.77263
1.37786
0.0644624
0.372683
0.0205288
-1.44688
-0.331774
0.486565
-1.31222
1.06911
-0.160052
-0.653296
1.59414
0.235375
0.18025
-0.0938154
0.0831075
-0.992062
-0.175579
0.190684
-1.88657
-0.47849
-0.420329
2.21496
0.618803
1.1652
0.0121332
-0.0184354
0.00790393
-0.106225
-0.00819407
0.0138726
-2.40536
-0.820908
-0.223944
1.91684
0.719844
0.651089
0.000859914
-0.0103875
-0.00240739
0.000676477
0.00118992
-0.000158262
-1.32254
1.39208
3.09091
1.40047
-0.0878407
-0.840395
-0.0699155
0.132797
0.0610555
0.0796918
3.39586e-06
5.42646e-06
8.80454e-06
-9.89799e-06
-1.25931e-05
-3.08807e-05
-2.94463e-05
-3.06458e-05
-2.33514e-05
1.51592e-05
3.28651e-05
2.01654e-05
-4.45042e-05
-0.00010682
-5.75219e-05
-0.00019898
-2.30186e-05
-4.02945e-05
-1.9519e-05
-1.47237e-05
-1.14945e-05
-2.02966e-05
-9.91593e-06
-8.93775e-06
-0.31943
-0.516757
0.0538999
0.107467
2.69096
-0.0910478
-3.14165
0.418506
0.0841783
0.158167
1.27265
-0.0986253
-0.505988
-0.386325
2.65584
-3.08985
0.191369
0.345426
0.156492
1.00759
0.822719
0.056135
-1.12486
0.051115
1.12589
-1.29735
1.30445
0.179209
-1.04291
-0.130468
1.08166
0.9211
-1.11574
-0.105546
1.09224
0.156373
-1.27776
1.2682
-0.606818
-0.302971
0.249817
2.49187
-0.276162
-2.75251
0.378433
0.0471442
0.446096
0.465408
1.64977
-0.394023
-1.00446
-0.0131389
2.50368
-0.586538
-2.50042
-0.495959
0.699403
0.926014
1.11435
0.96952
0.232549
-1.04328
-0.199208
0.954523
0.231234
-1.2815
1.12316
-1.13868
0.0759629
0.563688
-2.60172
2.60186
-0.770636
-0.879042
0.908909
1.35009
1.00685
2.46381
-0.919032
-2.09474
0.178706
1.84384
-2.80779
3.00857
-1.08775
-1.13091
1.32983
-2.37022
0.169282
1.00326
1.85623
-2.99307
2.8461
-1.37022
-1.40747
1.33274
1.13016
0.294827
-0.571636
-2.13248
0.172168
1.26592
-2.43899
1.51103
-1.07641
-1.17317
0.705752
-1.45485
3.16438
1.80318
0.257221
-2.07663
-0.277592
0.149873
0.944988
-3.41349
3.46287
-1.97599
1.03176
-0.844761
1.87436
-0.496174
-3.08611
-0.955632
1.87104
0.64396
1.00164
0.139964
-0.0970252
2.53436
0.215008
0.28311
0.0695255
-1.92949
-0.765651
1.91582
0.554025
-2.51286
0.109526
2.71796
-0.103338
-0.109405
-0.701602
1.52849
0.230561
2.5326
0.162582
0.326299
-0.136708
0.204776
-1.95902
-0.75479
1.91576
0.620012
-2.62965
-0.201513
2.75171
0.299964
-0.16125
-0.316381
0.414503
2.48428
-0.0651009
0.531874
-0.269578
0.323664
-1.98276
-0.723292
1.80149
0.742544
-2.71271
-0.398732
2.76995
0.507317
-0.268843
-0.375627
-0.465532
2.08506
1.16136
-0.619839
2.80171
-0.50138
0.756469
0.950008
-2.07249
-0.408264
0.474135
2.03163
-0.727323
1.20029
0.916367
-2.82353
-0.612152
2.76651
0.720879
-0.417627
-2.87371
-0.968255
2.96017
-0.744609
1.14632
1.29683
-2.18711
0.990014
-0.527739
0.554036
1.75247
-0.63842
0.519487
-0.588938
-2.40157
0.476182
-0.320855
0.937948
-0.814758
-0.254399
2.28283
0.847162
1.30804
-3.00494
-1.18386
2.66022
-0.937885
1.16286
-1.8705
0.499244
-0.522519
0.385062
0.729964
-0.296947
0.103528
-0.237712
-0.751808
0.0676921
-0.0922754
0.109409
0.628198
-2.15402
-0.912557
0.630822
-0.586409
0.417536
-0.524982
0.073441
-0.16855
0.0519921
0.0832018
-0.0211205
0.00543901
-0.0145883
0.00307401
-0.0548298
-0.00847126
0.00617291
-0.206342
0.0249466
0.188735
0.0581951
0.0491032
-0.31713
-0.116707
0.0485658
-0.125631
0.0310821
-0.0648467
0.00545366
-0.0149708
0.00403751
0.00830599
0.0004874
0.00011986
7.03312e-05
-0.000171966
-0.000737205
-0.000175908
4.54208e-05
-0.870961
2.29408
-2.00691
0.694405
1.85927
-2.10807
0.314058
0.247139
0.292365
-1.41468
0.26117
-0.38631
-0.821932
0.173377
-1.06801
-2.95019
1.13133
-1.16705
1.14262
2.35817
0.113898
-0.205471
-0.233831
-0.765261
0.105211
0.0692753
0.670656
0.9389
-0.0258463
0.018095
-0.872651
0.0404118
-0.690857
0.0492637
-0.915211
1.58904
-0.69863
-0.34629
-0.501817
0.049317
1.19239
0.0371906
0.0418521
1.62502
-0.67554
-0.893576
0.616944
0.974871
0.0652818
-0.80533
-0.396925
-0.462906
1.21878
-0.0892922
-0.511618
0.15081
-0.0884486
-1.03468
0.143362
1.68392
-0.498654
1.6473
-0.617535
0.118346
-0.667376
-0.423215
-1.18119
-0.0396642
0.0761154
0.998477
0.534174
0.0410704
0.410331
0.774275
0.0574765
1.16763
-1.14647
0.938916
1.02545
0.857569
0.089843
-0.994939
0.0730823
0.775736
0.101206
-1.16158
0.980137
1.00041
0.518649
-0.43505
-1.19788
0.113059
0.989979
0.549188
1.04761
0.880953
-1.01285
-0.106808
0.451865
0.145546
0.781137
-0.14838
1.22463
0.202038
-1.21797
1.06523
0.777911
-1.18355
1.01521
0.15387
0.975121
0.563689
-0.217947
0.228902
1.18307
0.322889
-0.302808
-0.382335
0.2569
-1.08831
0.234345
1.70803
-0.374849
-0.75105
-0.202325
0.325207
1.39675
-0.505569
0.357943
0.318215
1.78123
-0.220149
0.0785169
1.29124
0.432668
-0.113627
-0.89084
-0.109682
1.47433
-0.451742
0.0529959
0.533531
-0.40645
-1.41085
0.50005
2.05156
0.06951
1.8919
-0.0719133
0.533182
0.0457822
-0.189512
-0.479129
-1.27075
0.889127
0.214201
0.535449
0.467928
0.183118
0.775499
1.25041
0.259971
-1.24969
1.11321
1.14846
1.03622
-1.09617
0.285049
0.944657
0.564652
0.752749
0.212078
-1.27667
0.317844
1.15452
-0.632388
-0.276132
1.74836
0.748251
0.313374
0.169855
0.616481
-1.54855
0.617735
2.29671
0.202925
-1.27106
0.150592
0.719272
2.16986
0.18279
0.712964
0.7914
2.62292
0.322372
-0.391399
2.07988
0.890453
0.45452
-1.6753
0.192353
2.38439
-0.830361
0.495286
0.988665
-1.02024
-2.5246
1.1235
2.80686
0.461473
2.80614
0.410058
1.07436
0.566531
-1.20054
-0.45249
2.82538
1.19682
0.638566
0.536298
1.10418
-2.77657
1.12394
2.78585
0.477864
-2.42718
0.16201
0.88293
2.16851
0.656659
1.08661
1.01596
2.54462
0.523342
-0.380132
2.66413
1.05385
0.726253
-2.31528
0.145914
1.68647
-0.869043
0.38756
0.507482
-0.737822
-2.34891
1.12759
0.437585
0.384524
1.91789
0.473869
0.746432
0.782411
-1.11034
-3.76214
0.964768
3.3086
-0.854613
1.19935
3.44226
2.22291
-1.50446
-0.693936
0.923364
2.67798
0.730021
-1.45518
3.48014
1.4089
1.63327
2.80968
-0.750949
-1.4444
1.97143
3.06229
1.0472
1.06267
-0.428594
0.706742
2.59376
-0.591269
0.721385
-0.471729
0.36872
0.454337
-2.21037
0.147917
-0.27494
1.13256
-2.34038
-0.417533
0.447564
0.938099
0.253072
-0.489012
0.760369
0.633469
-0.339113
1.2637
0.287908
0.0710159
1.86605
-0.600866
0.0691069
-0.800385
1.56331
-0.763447
1.43254
0.0640582
1.93001
0.0718301
-0.568257
-0.795009
0.114236
1.6357
-0.0801992
0.131564
-0.39597
2.18512
-0.416671
2.10473
0.258868
2.07319
-0.177863
-0.325679
0.296333
-0.765559
-0.224975
1.88968
-0.582397
1.71737
0.30009
2.20064
0.341328
-0.198215
-0.7408
0.373942
1.99649
-0.345858
0.442808
-0.200459
2.50087
-0.260331
-0.273247
2.40239
0.762579
2.7364
-0.577804
0.151479
0.64258
-0.629216
-0.561021
1.25682
-0.368878
2.25924
0.764322
1.12539
2.77732
0.948163
0.221318
-0.545815
0.694857
1.16564
2.12905
-0.81445
0.884862
0.130241
2.66609
-0.691289
0.0465408
2.72489
0.91527
2.36169
-1.018
0.412834
0.330185
-0.133069
-0.587958
0.392598
-0.0741173
1.15314
0.493549
0.419455
1.4153
0.649286
0.348823
-0.0136747
0.114917
0.15109
0.184773
-0.472513
0.159201
0.0611551
0.244491
-0.785658
0.195985
0.820422
3.11682
1.31519
1.86805
0.892217
0.836101
2.71587
3.25303
1.49577
1.41118
0.973607
2.78153
1.45797
1.26521
2.87146
1.08068
-3.07758
2.67193
0.980204
1.54836
1.24835
1.86925
-0.0366026
0.00378045
-0.00869439
0.00435508
-0.0146154
0.00257577
-0.00102488
-0.0177146
-0.00154241
0.000953983
0.00207082
0.00119243
3.22865e-05
3.63414e-05
-2.3809e-05
-0.000107254
-2.81363e-05
1.83697e-05
-0.0234848
0.0129212
-0.0262329
0.0107666
0.00676361
-0.00401457
0.000218968
0.000323518
0.000432029
-0.000782738
-0.00119877
-0.000221677
6.03458e-05
-0.00135348
0.000170505
-0.000218462
0.000107756
9.90555e-06
1.52018e-05
-8.27813e-05
5.64696e-05
-2.12461e-05
-2.75081e-05
-1.72839
2.27464
0.549479
-0.376945
1.4056
-0.079112
-0.846524
-0.473785
0.133566
0.0898323
0.0822541
-0.0395143
0.0972941
-0.613049
0.0714273
0.149277
0.000121934
0.000209302
0.000126512
-0.0017044
-0.000160168
-0.000841731
-0.742863
1.46535
-0.123912
2.01041
-0.42223
-0.166011
-0.780859
1.79093
1.95536
-0.518801
-0.78944
1.69266
0.193858
-0.370596
2.22894
-0.326235
2.3147
-0.517423
1.89953
1.13184
-0.443616
2.59354
0.0510573
-0.463751
-0.684026
1.28927
2.12303
2.38671
-0.0700177
-0.715281
1.29403
0.559509
-0.121505
2.58145
-0.041733
2.65158
-0.317017
2.36799
1.03907
-1.0069
2.71676
0.359745
-0.694279
-0.318534
0.706846
1.31707
2.83929
0.296223
-0.47211
0.978377
0.897461
0.211865
2.40224
0.259994
1.80426
0.0273478
0.422466
0.190927
-0.289123
0.186962
0.0997545
0.111176
-0.0324451
0.00227083
0.0106713
0.0125245
0.0269008
0.49126
0.175734
0.00484821
0.0455953
0.0454028
0.0261893
0.0761647
0.0129193
0.0149571
0.0261297
0.579516
0.472567
-2.03019
0.288708
0.434977
0.551238
-2.07451
0.438015
0.28197
0.554522
0.615946
0.903425
0.877447
0.612609
1.57646
1.00354
0.611199
0.324691
0.202254
0.299133
-2.68466
0.609467
0.0839021
2.18384
-0.224008
0.00989769
0.000669939
-0.0819615
-0.010159
0.0115225
0.0117815
0.00111457
-0.14236
-0.00350301
0.0180413
0.312338
-0.0593325
-1.34162
0.0856737
-0.285781
0.362705
-2.68781
0.602446
-0.178055
2.06284
0.26378
-0.245233
0.00717016
-0.00210926
0.00840428
0.00265179
-0.0613961
-0.00706246
0.00846983
-0.00347917
0.0125986
0.00417871
-0.104009
-0.00275425
-2.5703
0.524277
-0.326399
1.60015
0.363529
-0.261589
0.00309411
-0.00233262
0.00167907
-0.0291181
-0.00267489
0.00370466
0.00353694
-0.00344054
0.00226875
-0.0440265
-0.00141017
0.0049473
0.0618582
-0.0602278
0.0361662
-0.407324
-0.0593507
0.0671436
0.0769517
-0.102027
-0.647639
0.0545254
-0.0329555
0.0974247
0.0007047
-0.000986423
0.00100303
0.000526105
-0.00876728
-0.000552523
0.000825189
-0.00120751
0.00110164
0.000569207
-0.0110571
-0.000472243
-0.0236729
0.0125912
-0.134271
0.00846205
-0.00809651
0.0151743
9.71776e-05
-0.000182796
0.000112857
-0.00158624
-3.85583e-05
0.000218373
8.83675e-05
-0.000177624
0.000190923
9.7829e-05
-0.00151343
-7.81526e-05
0.00121685
-0.00281728
-0.0141609
0.000880839
-0.00051242
0.00153941
0.00095332
-0.00252228
-0.0119542
0.000614594
-0.00111246
0.00116999
1.63813e-05
1.52482e-05
2.93666e-05
-2.21021e-05
-0.000111608
4.55807e-08
1.19473e-05
1.33748e-05
2.09871e-05
-1.5892e-05
-7.42161e-05
-1.00179e-05
9.85411e-05
-0.000131825
5.01393e-05
-0.000659406
4.21804e-05
-7.10701e-05
1.62274e-06
2.34897e-05
4.89405e-05
1.50982e-05
-7.04752e-05
-0.000168115
-7.56767e-05
-0.000207389
-2.5802e-05
-1.69029e-05
-2.99055e-05
1.89156e-05
3.78584e-05
1.79777e-05
-4.53723e-05
-5.99854e-05
-0.00016299
-1.83051e-05
-1.36901e-05
-2.43524e-05
3.79761e-05
-0.000968314
-0.000173716
6.05046e-05
0.0001384
1.41715e-05
1.38113e-05
1.92303e-05
6.70989e-05
-2.76931e-05
-2.59982e-05
1.87981e-06
1.71701e-05
2.72436e-06
4.73481e-06
-2.69569e-05
-3.3037e-05
-3.26314e-05
-2.53649e-05
1.43732e-05
3.44562e-06
4.63151e-06
-3.4617e-05
-2.66259e-05
-2.82698e-05
-3.00712e-05
0.000105932
3.42021e-05
1.22787e-05
4.31908e-06
-0.00029775
-0.000241317
-0.000223985
-0.000324777
4.04869e-05
1.36777e-05
-1.73405e-05
1.50059e-05
-2.35852e-06
-8.74786e-05
-0.000106482
-7.53514e-05
-6.63354e-05
1.9004e-06
3.05843e-06
9.00866e-07
-3.27978e-06
-1.68764e-05
2.77931e-07
1.75375e-06
5.03463e-06
1.82093e-06
-3.17411e-07
-5.5968e-06
-4.68019e-06
-1.69179e-06
-0.0725954
0.00553798
0.00995921
-0.0932911
-0.00644314
0.0125148
-3.02689
2.01522
-0.468262
-1.95556
3.03738
0.537427
2.70122
1.26133
-0.720203
-2.91415
-1.42526
0.83421
1.18606
-0.544414
-2.43768
-1.15424
0.801744
2.89037
0.49066
0.318727
-0.279596
-1.99488
-1.17332
0.272199
0.866157
-3.0977
-1.13632
-0.895376
1.41327
3.13008
-2.34225
0.663273
-1.0519
-0.542873
2.86655
1.51649
2.72002
-0.763639
-2.99921
-1.55179
0.859783
1.5068
1.72647
0.635098
-0.90922
-2.88989
-0.810356
0.847514
0.578968
1.81058
3.03378
-1.75977
-0.571798
0.339984
0.605282
-2.52963
0.8966
-1.174
-0.43396
2.25088
0.453905
-0.355081
-1.89316
-2.75678
-2.05141
2.14559
0.256746
-1.73447
-0.139571
2.17683
-1.99954
0.353596
-1.03004
-0.255322
1.97823
1.39596
-0.614315
-1.87133
-0.512353
0.913837
1.90661
0.199846
-2.56793
-0.120161
-0.883658
2.4864
1.43412
0.616787
-2.34368
-0.507367
-1.17819
2.53806
1.76016
-2.69687
-1.82587
-1.10102
2.57335
1.98576
1.1341
-1.28035
0.257139
-0.585602
0.230084
0.145417
-2.85578e-05
2.97686e-05
1.0511e-05
-6.78618e-05
-4.66413e-05
-5.0092e-05
-4.40751e-05
-4.90257e-05
-0.0690992
0.0738109
-0.266594
0.0493872
0.0451906
0.971997
-0.648894
1.70904
-1.26927
0.629581
0.0322816
-0.303545
0.0380395
-0.0645787
-0.115487
0.0217833
-2.12512
0.123205
-2.01668
2.41181
2.54988
-2.54621
0.113884
2.70118
1.03902
-0.0498517
-2.15156
-1.41566
0.136221
1.01658
1.08331
-2.52206
-0.913293
0.307927
2.4583
1.46325
-2.2008
-0.247423
2.55605
0.377372
-2.14306
2.4194
-2.64492
-0.214684
2.72154
0.321057
1.11417
0.219001
-0.198858
-1.87048
-1.23195
0.644699
0.566891
-2.30167
-0.505957
0.633136
-2.30605
2.39063
2.44446
-2.71504
-0.427656
2.75131
0.537904
1.23587
0.343989
0.18393
-1.55685
-1.0342
0.37625
-2.32813
0.765118
-1.31865
2.67727
1.9777
-2.27989
-0.739702
2.30637
0.811478
-2.27811
2.26024
-2.77264
-0.647654
2.65619
0.737581
1.32033
-0.109358
0.0481703
-0.505001
-0.366752
0.0705566
0.0786685
-2.08704
-0.842283
0.772703
-2.12203
1.59231
1.62798
-0.501563
-1.98728
0.31087
0.474591
0.464718
0.00692836
-0.0169493
0.00486201
-0.0679639
-0.0366006
0.00825009
-2.78124
1.44366
-1.1969
2.10478
1.04662
-0.235805
0.0436748
-0.125955
-0.258407
0.0425565
0.0258068
-0.105593
-0.336398
0.023991
0.0404991
0.0435984
5.3996e-05
9.27038e-05
0.000112074
-0.000236025
-0.000795311
-0.000448224
-0.00837546
-0.00466964
-0.0094545
0.00137613
0.00141054
0.000807565
-0.00494889
0.00100006
-0.0187426
0.00173345
0.0019984
5.10064e-05
4.82915e-05
2.81063e-05
-0.000175404
-0.000122447
-0.091408
0.0114945
-0.0316954
0.0128737
0.00800371
-0.000446745
8.60088e-05
0.000109224
-0.000165791
-0.000430436
3.93727e-05
3.62889e-05
5.49856e-05
4.26188e-05
-7.01769e-05
-0.000232041
5.03824e-05
5.92949e-05
-6.56837e-05
-9.03097e-05
-0.000309391
-0.000106278
-3.61871e-05
-5.87303e-05
-0.000152062
-6.82535e-05
-2.28819e-05
-4.15177e-05
-3.85179e-05
-9.11611e-05
7.14101e-05
0.000124152
-0.000995115
-0.000419733
7.44769e-05
-0.661436
1.64543
-1.3372
0.690447
0.98037
0.203582
-0.486759
0.283229
-0.405364
0.192476
-0.00766787
0.0048692
-0.0141788
-0.0429042
0.0038242
0.00257516
0.00163699
0.00199716
-0.0332933
-0.00669695
0.00327337
-0.0056263
0.00773465
0.00789338
-0.132012
-0.0406058
0.0149686
-0.0153879
0.000411952
-0.00789381
0.000356169
0.000775976
-0.00101717
-0.0172838
-0.000632565
0.00191389
0.000713129
-0.00683799
9.88734e-05
-4.20668e-05
-0.00061804
3.1243e-05
-0.000207459
2.13265e-05
-1.03098e-05
-4.41225e-05
-2.13409e-05
1.11655e-05
4.91962e-06
-5.49921e-06
-2.98604e-05
2.04919e-06
-9.25585e-06
7.18692e-07
3.43754e-07
3.26998e-07
4.25679e-08
-1.68276e-06
-2.41321e-06
-5.37411e-06
-3.32436e-06
1.59747e-05
4.106e-06
4.61171e-06
-1.17152e-06
-7.74086e-05
-0.000105369
-7.40861e-05
1.77033e-07
2.39148e-07
1.97112e-08
5.38753e-06
1.77572e-06
1.79207e-06
-6.61137e-07
-2.11024e-05
-3.44445e-05
-1.81352e-05
9.65491e-08
9.49672e-08
5.0791e-10
1.11971e-06
4.11449e-07
4.09298e-07
5.04428e-08
-6.11277e-06
-2.7056e-06
-5.31076e-06
1.93261e-08
1.88063e-08
3.56782e-09
2.03705e-07
7.07413e-08
4.81106e-08
1.93227e-08
2.84583e-09
1.3451e-09
9.6118e-10
3.76997e-08
1.31646e-08
7.0049e-09
9.73024e-10
4.57455e-10
1.55026e-10
2.23558e-10
4.19751e-06
1.8144e-06
-6.05093e-07
2.55811e-06
-2.01855e-05
-6.87343e-06
-1.17952e-05
-5.67188e-05
-1.19116e-06
-5.83633e-06
-1.42373e-06
-2.11625e-06
-5.46976e-07
-3.99165e-07
1.88174e-07
6.47206e-08
-7.58889e-08
9.22353e-08
8.28432e-09
2.48945e-09
-1.08772e-09
3.19507e-09
8.92513e-11
2.36184e-11
8.53149e-11
0.0338401
-0.0130841
-0.194562
0.0147433
-0.212112
0.0107912
-0.0109299
-0.0687929
0.00615974
-0.0773301
-0.0026177
0.000718875
0.00110142
-0.0100599
-2.29492e-05
3.54468e-05
1.98945e-05
-5.40526e-05
-0.000158746
-5.22746e-05
-3.22801e-05
-5.89595e-05
-1.16132e-05
-2.30865e-05
-3.54035e-05
-5.37734e-05
-0.000140408
-0.021454
0.00109902
0.00228492
-0.00194098
0.00123522
4.28597e-06
9.52034e-06
-4.85611e-06
-1.53485e-05
-1.54621e-05
-2.07096e-05
-2.10279e-05
1.40493e-06
5.38778e-07
-1.25085e-07
2.28417e-07
2.42959e-07
-2.09618e-06
-2.69741e-06
-2.64663e-06
-2.40386e-06
2.35936e-08
-4.39333e-09
8.90365e-09
9.87085e-09
1.02442e-09
-4.95746e-11
3.567e-10
3.61631e-10
2.089e-12
1.32196e-11
1.07434e-11
-1.58899
-3.20958
1.6914
3.75982
-2.86575
3.0193
-1.35406
-4.27823
-2.0898
3.57272
4.78306
-4.14985
-2.4244
-1.44375
4.61643
3.22024
-1.34083
-2.0049
-3.63223
3.67222
-2.2923
-3.52629
-1.4284
3.38333
-3.75611
2.22609
-2.28148
4.43074