/*--------------------------------*- C++ -*----------------------------------*\
  =========                 |
  \\      /  F ield         | OpenFOAM: The Open Source CFD Toolbox
   \\    /   O peration     | Website:  https://openfoam.org
    \\  /    A nd           | Version:  9
     \\/     M anipulation  |
\*---------------------------------------------------------------------------*/
FoamFile
{
    format      ascii;
    class       volScalarField;
    location    "0.0011";
    object      impulseMax;
}
// * * * * * * * * * * * * * * * * * * * * * * * * * * * * * * * * * * * * * //

dimensions      [1 -1 -1 0 0 0 0];

internalField   nonuniform List<scalar> 
9443
(
505.6
411.363
381.127
320.686
274.858
78.9003
196.196
116.916
59.9972
5.31439e-06
4.94531e-07
0.311662
0.000213254
4.01447
389.353
539.134
411.318
331.15
307.141
215.702
191.64
339.258
196.732
217.687
141.832
119.954
33.5845
20.9597
361.092
486.292
375.517
289.988
207.691
174.292
97.1699
308.679
167.125
208.246
104.081
41.4493
13.5408
0.606992
148.443
185.902
137.457
22.7131
12.7151
0.818446
0.268685
512.842
533.016
508.115
444.707
467.319
449.001
462.179
484.637
521.364
498.534
435.909
439.896
422.931
452.998
137.586
75.8684
20.9849
7.49817
0.245052
0.119335
0.00269401
408.011
473.754
469.785
409.38
357.463
413.4
353.989
336.506
281.371
278.39
223.856
288.576
285.608
226.904
243.695
214.487
240.532
180.668
157.275
183.937
153.895
329.82
261.842
271.572
216.813
268.165
278.637
205.881
400.146
447.544
460.622
400.679
335.007
387.899
346.279
467.098
463.841
446.274
423.079
406.024
385.442
402.655
331.753
170.051
43.6288
267.561
66.7909
3.40067
169.214
222.637
207.494
233.351
173.298
134.84
161.657
146.533
174.767
192.874
171.364
135.483
132.117
112.578
109.216
430.782
410.696
358.608
319.883
371.211
350.866
300.734
438.784
394.872
422.116
361.25
351.029
333.246
378.677
378.517
399.665
327.223
312.434
308.465
382.564
395.423
249.068
293.551
233.06
253.662
190.551
170.412
234.753
181.915
189.948
162.721
118.677
145.527
124.76
98.3112
164.188
153.01
175.057
113.478
124.878
102.067
90.9353
155.856
21.9847
0.217331
102.345
0.12364
0.000288045
5.0472
370.392
375.522
319.329
287.721
300.422
357.911
387.432
343.325
292.356
275.523
212.126
271.615
347.277
288.725
387.457
338.254
313.972
327.04
250.1
299.814
277.559
359.353
270.274
341.208
320.37
267.663
247.945
338.917
364.501
347.598
330.579
319.503
301.465
265.619
283.59
212.982
187.506
251.71
145.371
182.282
211.061
115.942
7.73189
0.0482133
0.000107491
2.03488
0.000514035
5.25639e-06
0.0195799
60.9884
0.0116881
0.0285589
45.5065
2.25153e-05
1.18493e-05
0.109614
335.081
268.792
250.856
204.206
263.51
322.643
280.854
153.254
221.027
138.807
81.3207
217.794
78.7574
156.363
160.022
140.635
117.853
97.8876
78.5702
76.0345
58.1921
145.833
198.367
131.597
62.4591
210.288
72.4742
133.921
110.59
89.8459
48.5606
31.63
46.3556
113.641
86.8676
295.204
284.521
240.252
188.554
220.683
265.564
314.053
138.897
110.369
139.198
99.8725
50.2859
72.4612
74.8599
113.632
144.864
110.068
53.3543
85.281
82.055
50.5986
89.2844
67.8864
94.1766
35.3534
56.9689
39.1687
21.4149
103.519
69.7836
33.2338
27.345
41.2041
92.1577
80.2335
252.306
233.457
306.001
285.22
152.335
211.227
231.204
102.619
91.1194
125.933
75.2043
36.2738
64.7497
44.8123
0.0058519
5.14723
35.2491
9.54959e-06
4.60546e-06
0.0493469
0.00120784
285.553
252.539
299.051
217.962
268.865
233.555
180.729
181.733
49.4753
117.381
96.764
84.752
160.379
35.0159
56.0919
23.4642
76.8723
58.6453
6.84442
13.6436
40.2655
71.649
21.0666
68.8277
12.4688
52.4887
49.8966
11.2821
53.163
17.6067
62.6735
44.3795
5.87255
8.91498
36.1205
309.964
250.651
292.821
224.952
195.556
178.424
242.555
260.35
175.347
152.589
126.305
184.256
231.128
205.547
110.18
57.8354
90.4522
25.9645
51.3185
36.1567
15.4479
250.153
151.622
231.324
192.081
127.885
111.001
210.455
222.676
187.264
119.091
148.837
84.215
112.16
53.2631
106.657
47.68
71.9058
27.2558
44.9961
21.189
9.95897
73.5071
106.152
63.2533
9.57375
134.868
20.9293
49.7301
40.9881
3.32372
27.4753
3.02328
26.0162
15.5746
1.12263
214.056
220.229
262.289
192.692
94.206
145.771
138.789
41.705
32.6764
16.6944
19.2764
8.08294
4.82684
1.69907
39.2631
10.9424
1.74943
2.45929
5.94423
21.2143
24.2653
44.4273
38.7506
67.8633
21.1941
1.97917
9.11584
6.85411
140.978
116.797
197.159
157.932
38.0883
79.1082
103.635
58.6676
24.6424
14.4568
23.0791
13.3886
2.05597
2.33185
53.5089
7.98589
14.8331
19.7144
11.1295
1.52609
0.921123
12.8389
4.46149
31.7313
29.6133
0.694641
3.88927
11.5632
25.2288
5.90189
1.62155
0.481737
2.82564
18.9943
9.06503
0.026745
2.47239e-05
0.000556956
5.93014e-07
4.8999e-05
1.02717e-05
0.00169633
147.672
83.9236
115.413
33.8865
69.9594
99.8499
165.11
23.8953
4.70918
9.3731
4.61758
2.14254
0.450523
0.179141
0.000110919
1.15219e-05
1.24835
2.20917e-06
0.000229968
6.64087e-06
3.86457e-07
5.57689
1.01169
14.7627
6.9667
0.0774333
0.324112
2.05027
146.319
44.9643
80.8349
40.2144
74.6986
26.302
8.19862
2.99789
0.722726
12.0029
5.87515
0.0415016
0.260549
1.10696
75.837
2.91433
27.8491
8.10137
46.4529
11.2471
0.574814
114.388
16.7064
15.4433
32.3831
43.8333
70.0835
65.9343
21.0885
14.1276
39.1332
6.09718
0.217222
0.882269
1.9139
23.1136
1.55297
7.79947
0.376751
2.40486
0.380536
0.0581341
3.12003
0.367567
7.98043
1.76919
0.0198323
0.0634366
0.531685
13.1195
0.195531
0.405838
1.60961
0.72212
0.0561853
0.0141352
11.8404
0.626554
5.13885
0.0793496
0.717859
0.222128
0.023563
4.55292
0.269526
4.03634
0.161967
0.0119732
0.0103622
0.185816
1.99549
0.0743686
0.0173943
0.0116717
0.0748132
0.468513
0.316404
1.27003
0.0148973
0.399293
0.00766267
0.206546
0.0637896
0.00230011
0.0189606
0.34476
0.553271
0.0533817
0.00107425
0.0319721
0.0018043
0.832584
0.0252976
0.736181
0.0726574
0.00280185
0.0827939
0.00246321
0.192318
1.83294
3.03139
0.117209
0.00416893
0.00735663
0.0681974
0.381093
0.140684
0.53315
0.04328
0.0174567
0.0126397
0.00145141
1.69264
6.12255
21.7195
2.66529
0.0113377
0.090354
0.364294
0.19441
0.137086
1.30691
0.0487922
0.000723656
0.00506823
0.00717264
0.176376
0.002371
0.0727073
0.000515517
0.0154974
0.00604453
0.00020132
0.866346
0.0178
0.32732
0.00187955
0.0317591
0.0119023
0.000683627
0.212186
0.0421535
0.0827024
0.0131027
0.00720333
0.00289746
0.000468889
0.258234
0.00102812
0.00260775
0.00797327
0.00887575
0.0306732
0.0724135
0.0139987
0.00331238
0.0917007
0.014124
7.99757e-05
0.000505585
0.00210375
0.000979093
0.00292045
0.0270801
0.00816044
3.44376e-05
0.000294552
0.00085626
130.841
135.041
0.140231
10.3853
0.0169482
136.221
0.941101
19.6808
0.00174659
208.826
59.5733
146.202
194.471
10.8593
0.102151
0.233684
86.2727
16.3015
183.729
13.3248
7.57751
0.00223795
0.0532712
24.1363
73.4632
54.4424
0.752059
0.141415
0.00492105
21.6803
16.837
0.00131166
181.261
206.751
178.818
139.069
136.87
105.99
108.304
202.005
164.828
173.418
123.869
131.863
100.774
92.4121
169.311
152.701
112.529
136.671
97.7141
80.8304
66.371
128.44
150.971
92.9746
116.639
79.7266
49.9164
32.8521
104.389
101.69
143.507
71.6361
40.3599
38.576
73.8453
63.991
93.6022
138.041
96.5441
66.3211
34.7277
32.8577
138.532
94.714
97.0151
64.9314
66.7105
35.0344
33.5804
128.167
95.7392
137.591
66.691
28.4751
34.591
58.869
15.4742
66.3446
64.6409
40.6448
6.41656
42.188
5.94414
122.116
89.3422
60.6292
80.7149
53.6833
30.1839
24.9048
54.2782
13.6267
60.6527
37.1162
3.55533
31.5871
4.93972
114.987
57.9325
98.0978
20.9015
48.4441
36.2411
12.9855
93.9031
109.801
68.8808
33.2578
44.3321
18.2758
11.3431
45.6122
4.42533
35.1744
2.13101
24.4811
16.5945
1.02704
0.703219
2.02799
23.9147
9.22663
0.134702
3.83582
0.408065
56.0365
40.886
78.0252
23.5034
2.13058
6.30114
12.0564
0.895274
3.84907
15.2638
1.00988
16.4013
4.30703
0.159345
52.0994
1.41154
19.0882
20.6988
54.6248
11.4234
1.63874
1.03031
15.7258
16.5966
4.38555
0.147459
4.02486
0.162566
20.9502
53.0427
55.0166
11.5918
1.49218
1.67595
10.7711
19.2406
5.92371
0.208887
1.4985
5.39589
20.3996
1.347
16.7116
0.689491
0.160221
2.90541
4.31561
12.9732
1.04902
13.7115
0.512004
10.6858
0.115569
3.2461
2.2083
0.0758196
48.4852
12.6633
41.3122
1.1281
8.97938
6.45768
0.701825
0.379321
1.57748
8.67099
4.72733
0.0228558
0.684467
0.174706
3.94189
0.294372
7.17449
1.223
0.0184135
0.552457
0.0411006
3.93174
7.99168
32.0272
3.82072
0.147084
1.75068
0.356731
112.329
0.00718296
90.6584
8.20774
40.1872
45.6911
40.6951
5.97772
64.3361
42.475
55.8856
258.002
265.72
217.606
21.9947
229.809
29.1388
63.9915
232.966
252.04
87.5051
208.337
28.6353
17.1408
264.69
257.31
256.183
210.83
209.272
197.434
199.065
262.066
248.358
253.152
200.478
205.856
193.742
187.921
243.861
241.437
192.977
232.06
182.982
179.691
168.539
245.601
228.159
244.272
182.005
164.134
162.162
183.783
235.185
224.063
240.744
177.917
150.389
157.592
171.501
218.812
203.464
219.644
152.788
169.839
153.845
135.124
63.0022
137.798
136.102
123.265
54.2256
124.934
52.9897
227.209
195.68
216.332
140.019
162.312
149.771
126.113
60.2582
126.896
132.556
119.603
45.9496
50.2804
113.748
182.827
200.398
131.475
177.014
157.292
105.828
85.9105
49.9459
119.114
108.94
40.0498
105.52
94.5925
32.6921
158.762
113.273
183.598
179.285
201.982
133.482
108.498
107.17
42.2826
28.1038
89.2196
87.4871
108.853
41.1267
103.331
34.3413
76.9674
25.7314
83.4677
38.5189
97.1348
79.6301
15.3235
23.5844
33.5357
95.8711
80.6619
24.1786
28.7121
67.8587
88.3377
76.7522
11.7296
56.2793
21.9179
104.252
64.2103
133.791
89.5275
160.772
133.092
63.5621
113.392
148.113
126.404
47.2639
76.8029
57.7455
31.262
60.7829
7.65341
13.7825
6.04225
40.8437
27.6322
2.70883
46.4057
7.90062
2.91073
62.5169
6.6647
42.8153
14.5878
65.4792
5.95834
19.8987
71.7753
100.531
37.9999
16.5245
235.774
4.25149
170.729
153.521
79.3105
171.867
4.43191
238.632
36.3259
223.895
166.993
132.502
3.72527
14.6637
73.8456
34.3692
231.006
218.63
171.821
212.884
166.321
150.927
144.546
221.094
173.789
237.594
238.914
222.842
175.585
155.621
239.338
222.132
223.269
175.102
176.12
156.135
154.777
213.895
192.613
204.416
146.675
158.126
135.15
122.308
97.2957
127.967
199.22
173.418
201.456
130.325
99.7775
173.899
200.29
201.902
130.809
98.3631
129.124
100.223
196.097
159.091
189.24
93.7956
124.788
117.609
86.3075
98.8425
23.2744
35.4416
36.5814
100.542
81.0942
24.305
36.9304
100.153
101.075
81.5505
23.9207
80.4378
24.5672
147.714
165.657
179.252
107.283
62.5266
93.5852
75.8012
97.1265
30.988
91.9198
22.1096
77.1635
71.5962
19.0787
20.3286
26.2399
84.2381
63.573
10.4371
53.1695
15.0334
34.5841
57.1795
12.0395
58.9611
4.65949
12.821
36.1842
59.3344
4.73808
35.2911
12.441
58.0958
12.9891
36.4761
32.3706
11.059
54.7998
49.2946
2.71892
8.89808
27.6837
32.392
3.7379
0.832128
41.7019
1.66052
6.28859
21.5466
15.5297
29.9129
3.18534
0.903917
0.225385
15.2073
0.872578
22.1922
1.75223
0.347673
12.4827
0.119858
0.634883
3.45714
0.22236
1.39871
0.0454463
5.17971
0.0323487
0.190194
0.998162
1.95741
0.0195301
0.00801322
0.0701033
0.244714
0.597294
0.0651766
0.0122649
0.03921
18.272
20.1829
1.4378
0.000565319
0.0442301
0.149565
10.4376
0.000219903
0.136457
15.0144
53.9576
0.0548482
0.000185345
4.64655
72.258
38.9118
101.757
66.8904
40.8309
17.2855
6.17626
22.7277
38.4706
74.9053
21.6067
11.104
5.50671
1.87769
1.2216
6.86288
42.9546
4.66811
18.4535
1.24551
0.167214
34.1678
2.70814
15.5082
0.492814
4.26877
0.919802
0.0920996
2.55557
33.0021
9.82313
0.866675
3.95299
0.447491
0.0861754
5.44623
0.20182
0.0467669
0.0351346
1.08244
0.233202
0.00755597
0.359843
11.8687
1.38176
0.0477566
0.610467
0.171774
0.012412
1.65563
0.0171744
0.525435
0.00672513
0.206537
0.0612983
0.0019517
0.496193
0.0491003
0.00165665
0.569982
0.0019183
0.0569915
0.0194574
0.582322
0.00195832
0.0178496
0.0518775
0.0582439
0.522978
0.0198583
0.0137033
0.0390844
0.40318
0.259764
0.000806797
0.024197
0.00871682
0.540108
4.12122
0.396163
0.145319
0.00148705
0.0131742
0.0176993
0.0587441
0.000163844
0.00191016
0.137628
0.000402306
0.0121656
0.00452584
0.075363
1.13695
0.198961
0.0381466
0.000436641
0.00262172
0.00671934
0.266804
0.00124473
0.00866148
0.0400113
0.000174022
0.00534418
0.0012708
0.0161201
0.00478724
0.000521147
0.029745
0.000102945
0.0029808
0.000952832
0.0279578
0.00434258
0.0008936
0.0145678
9.55417e-05
0.000467968
0.00278117
5.85445e-06
9.99742e-08
1.18206e-06
9.52985e-07
1.22771e-07
9.10695e-08
6.53082e-08
0.00639655
0.000774231
0.0240212
0.00188039
2.17825e-05
0.000476236
6.68378e-05
0.0235277
0.00509649
0.0985049
0.0035428
6.16321e-05
0.000207838
0.000864119
1.87581e-05
0.000648779
5.61304e-05
0.000414832
0.0015893
0.0202465
0.00558224
0.00569685
0.000434473
0.00022549
2.05459e-05
0.000377047
0.00653323
0.000197631
0.000140581
0.00387836
0.0511679
0.000286143
0.0038404
0.000139073
1.85135e-05
0.00410184
8.5207e-05
1.57075e-05
0.000153851
0.000267647
0.00237692
0.000142803
0.000913564
6.4246e-05
0.00155987
0.0001668
0.0028302
0.000106511
1.51668e-05
2.08318e-05
0.0044864
0.000141124
0.000406566
1.64235e-05
5.00446e-05
5.06919e-06
0.00095851
0.00291262
0.0279328
0.000174037
0.00163561
6.84528e-05
1.66398e-05
5.1488e-05
5.34283e-06
2.13295e-05
1.73039e-05
0.000146375
0.000424935
0.00464319
0.00175602
1.0491e-05
1.39861e-05
2.94362e-05
6.362e-05
0.000182682
0.000256561
0.000236778
4.75994e-05
0.00137839
7.35291e-06
9.92076e-05
1.92964e-05
4.55012e-06
0.00455006
4.24028e-05
0.000696353
1.84278e-05
0.000173106
3.42229e-05
1.0643e-05
1.06171e-05
4.27406e-05
4.17659e-06
1.78317e-05
6.67578e-06
8.93135e-05
0.00123957
4.23164e-05
7.14577e-05
0.00108846
0.000407316
8.11443e-06
3.06784e-05
2.04231e-05
214.947
17.5257
0.00477082
362.014
301.121
446.195
285.899
111.749
192.949
32.8918
160.342
150.231
309.353
125.963
6.40945
9.697
0.00381175
432.925
402.146
388.223
397.582
383.11
337.3
352.681
50.9859
23.8578
135.176
16.9575
0.00130298
0.00293844
0.00023695
401.92
320.622
359.348
313.813
353.562
309.281
269.248
285.494
354.199
339.168
286.902
246.467
230.605
302.699
344.623
269.445
328.747
281.509
235.567
219.224
297.624
195.079
109.732
146.846
101.849
137.887
85.8812
54.4326
247.608
268.532
203.767
260.337
194.597
211.049
141.645
272.225
258.086
311.6
259.32
152.953
201.765
216.173
258.376
240.382
300.043
253.414
138.39
189.052
208.784
111.124
85.6927
78.766
57.4982
63.6476
36.868
21.8993
228.534
182.731
176.804
97.2415
160.794
166.801
244.527
84.1411
214.979
145.907
89.2522
151.338
84.8871
35.6175
197.543
63.1535
127.93
75.7136
142.945
77.3702
26.3815
83.4998
17.1441
14.1141
35.0551
40.0113
8.96454
1.72006
57.5839
37.9776
89.7021
38.2626
1.90435
8.13635
17.5346
199.306
87.9122
69.2724
81.7332
129.758
136.168
149.947
45.8778
24.1176
74.5175
33.0773
1.0605
4.879
14.4623
846.939
410.844
366.729
335.737
330.644
358.882
378.13
245.276
322.158
485.158
928.488
438.284
575.808
432.42
707.993
454.604
332.175
379.789
341.922
365.214
407.974
412.756
361.277
452.613
553.721
564.068
486.112
578.963
491.467
582.436
397.181
365.114
354.94
365.799
408.209
413.654
361.601
325.014
334.458
331.859
338.442
325.772
336.767
325.437
584.309
471.201
576.763
486.308
492.316
581.796
574.751
913.639
694.14
693.627
810.739
667.362
664.261
799.049
681.19
885.218
689.163
656.078
744.529
643.268
775.641
344.357
337.325
339.855
336.918
314.33
331.408
321.711
354.491
405.033
375.431
324.837
321.668
403.996
355.614
484.168
451.635
525.818
564.636
483.09
563.193
522.392
348.312
387.67
368.134
303.817
314.055
397.489
338.584
289.519
265.005
301.951
320.521
261.907
286.598
299.486
465.223
443.331
476.066
555.788
500.149
513.314
543.778
618.056
571.926
624.61
620.18
610.675
567.113
698.807
610.263
654.426
542.632
595.583
556.945
595.916
679.51
314.604
283.818
269.588
255.158
279.528
305.616
293.172
654.874
389.358
466.609
802.401
485.698
469.093
367.287
552.432
419.5
411.359
290.089
328.098
304.307
348.134
172.072
293.805
582.329
479.035
573.371
475.257
562.545
547.845
464.286
366.076
404.226
360.263
397.842
352.575
341.451
387.337
667.45
754.121
648.774
707.936
625.66
604.876
668.057
340.347
316.869
331.566
303.401
321.355
309.741
290.351
602.066
704.16
626.878
581.255
587.76
555.051
627.181
396.188
342.327
352.113
329.393
369.689
316.087
378.246
547.916
472.438
561.825
531.347
443.557
511.435
454.343
624.965
524.56
577.588
556.046
526.432
503.246
592.98
452.405
483.72
528.405
510.837
404.966
464.49
439.88
310.035
304.066
321.08
296.994
258.813
282.4
275.728
376.456
291.747
326.388
313.294
335.985
278.19
365.722
256.846
271.736
232.311
280.37
216.167
241.343
257.317
531.934
527.105
452.207
498.381
479.03
505.404
560.003
490.653
410.574
416.846
387.886
442.218
467.174
426.645
299.329
342.534
321.74
243.74
262.45
284.071
354.939
264.897
220.64
199.921
196.472
222.643
246.372
240.404
304.769
325.781
275.936
658.131
606.81
964.431
440.322
1061.92
362.985
313.012
298.524
282.226
371.366
312.318
338.476
319.022
274.111
334.833
329.374
287.218
370.69
361.073
292.458
281.296
272.907
272.294
275.387
283.036
285.315
277.895
286.912
380.52
352.53
393.136
328.908
427.703
306.964
1433.37
1444.25
596.581
649.678
1334.24
640.802
1318.78
310.809
296.865
295.21
310.835
295.469
297.922
313.569
289.171
290.535
280.05
292.038
298.432
286.116
301.043
318.656
310.983
303.001
303.603
324.862
310.712
318.877
628.322
1365.62
1407.77
667.213
1233.49
690.727
1285.03
285.545
301.411
288.576
292.406
321.403
307.291
291.028
314.663
428.581
376.436
490.231
505.1
415.266
323.441
456.133
370.781
558.811
404.261
530.392
497.512
341.765
685.8
1201.7
1044.65
698.92
702.296
678.485
1183.97
299.827
320.603
340.541
337.151
317.602
302.695
310.009
313.6
306.162
298.743
302.065
323.101
310.779
316.824
697.387
1095.39
705.178
1010.76
705.224
709.302
1147.4
307.712
327.646
331.301
329.524
318.013
314.749
321.765
338.555
351.866
326.619
344.242
345.703
334.382
314.675
328.64
323.991
335.218
337.959
325.358
328.219
337.977
340.964
332.051
349.197
342.825
338.91
333.003
345.906
352.586
352.741
347.178
356.007
360.171
349.711
353.196
361.792
328.252
338.907
331.416
347.451
342.624
346.421
349.151
361.267
358.511
366.742
358.84
358.969
364.873
361.903
343.127
344.121
336.422
352.495
343.538
348.497
356.938
350.095
345.021
356.135
358.086
326.671
344.201
349.352
358.448
339.689
332.76
321.968
340.149
355.002
345.912
356.474
357.443
250.036
262.252
155.644
211.454
289.571
299.521
357.604
337.155
348.371
336.423
347.72
320.232
321.797
354.845
328.449
333.577
338.883
344.587
316.244
309.981
240.072
304.268
285.41
260.54
302.925
283.637
237.974
271.256
329.381
303.685
301.596
327.849
297.625
268.957
293.441
256.488
299.29
279.371
225.923
272.649
233.286
316.768
296.82
323.541
293.05
256.223
263.939
286.007
260.679
174.527
229.635
258.552
171.635
227.133
208.998
253.706
195.11
165.449
213.184
221.684
246.165
203.604
472.188
333.823
330.795
1036.26
691.291
733.382
481.493
909.902
471.513
365.18
408.777
310.146
405.471
401.501
315.937
342.484
420.052
365.042
474.209
361.057
478.352
537.148
412.027
305.464
326.236
323.377
318.537
313.38
330.99
351.261
320.247
342.412
330.13
332.397
319.712
332.196
342.218
1303.54
1222.17
722.579
1165.16
713.535
727.851
1086.5
414.834
588.806
540.086
580.444
490.978
600.14
464.982
370.973
357.972
340.396
362.831
424.267
400.51
382.164
419.573
579.524
543.136
576.701
482.937
585.782
463.724
355.178
359.3
328.053
357.922
412.883
368.727
396.969
743.265
1130.04
741.196
729.168
924.945
719.344
1005.21
1031.14
698.74
715.99
713.891
851.537
686.291
962.351
352.449
361.965
342.414
353.23
356.663
362.898
355.337
337.397
344.955
327.174
346.784
337.498
346.749
347.496
591.229
490.095
575.016
482.902
582.372
592.764
484.359
373.494
418.663
410.39
362.125
366.999
416.426
375.984
703.419
823.379
646.451
792.518
668.586
686.667
892.56
353.483
338.31
331.525
327.29
339.838
349.742
346.208
4.98696
175.251
15.4508
79.8655
241.384
278.987
215.012
114.84
44.4621
85.3816
61.7312
0.058335
126.51
6.85917
36.109
150.76
269.428
262.587
253.359
237.423
227.556
218.877
209.022
256.795
225.074
240.815
197.118
214.141
195.3
177.577
396.605
200.223
94.146
224.008
53.307
276.712
318.526
273.792
221.882
212.552
137.166
66.8686
487.576
609.663
458.435
438.405
390.44
330.365
239.952
339.407
383.112
273.736
266.571
197.059
175.475
33.9699
306.224
307.904
290.017
295.375
276.471
276.843
262.891
177.305
200.608
258.218
175.679
40.6039
21.0389
0.516607
292.411
263.946
280.939
241.981
260.532
246.152
226.478
574.196
567.635
543.375
550.106
526.499
495.825
513.592
293.907
260.314
281.014
236.554
259.717
245.266
221.39
529.084
444.992
504.403
429.243
487.538
459.677
409.403
254.945
195.798
239.851
193.666
239.091
223.543
176.058
330.487
374.731
316.339
359.668
301.49
284.848
345.665
296.842
254.008
279.964
239.195
264.838
243.267
215.935
473.343
527.478
510.093
462.047
438.673
424.626
476.938
493.97
422.649
476.58
445.048
405.656
390.023
460.301
243.698
236.126
220.526
219.753
203.471
195.249
175.887
304.141
102.213
386.117
223.97
337.505
576.813
434.702
659.196
469.412
436.103
335.257
362.442
122.515
258.275
395.478
294.921
269.396
146.87
255.798
379.944
306.6
362.335
286.599
546.1
421.337
184.535
19.8556
106.269
170.892
350.965
70.2429
240.945
546.158
459.059
534.639
436.088
503.273
490.487
425.402
348.574
385.581
338.992
363.836
313.164
302.757
354.281
598.435
634.143
583.756
576.694
544.303
529.729
557.46
315.358
285.566
306.339
256.477
279.736
269.737
246.558
545.229
606.302
565.961
512.023
510.833
491.213
535.46
312.73
373.89
326.46
289.935
330.509
275.57
343.137
503.493
447.036
520.206
474.537
397.972
455.576
412.625
280.373
273.142
294.275
256.776
216.843
240.964
233.328
503.662
420.361
484.417
470.542
423.095
407.238
488.345
521.912
514.835
496.061
484.254
467.513
441.116
456.274
483.668
405.215
460.399
380.733
433.333
408.02
360.116
391.451
387.508
449.483
436.434
323.687
374.654
380.555
323.231
211.079
268.336
258.433
258.514
313.779
199.848
297.85
338.054
281.731
315.805
259.145
239.645
298.02
264.505
220.838
245.766
196.83
221.794
198.453
172.21
453.213
369.911
448.305
406.399
432.579
390.435
469.911
208.226
171.283
232.799
222.049
135.394
159.641
197.51
328.816
336.691
284.504
288.789
276.936
286.733
204.581
194.509
337.654
333.398
332
318.271
316.251
303.543
306.195
335.256
318.803
327.029
301.594
310.462
297.343
288.368
300.057
265.544
320.747
297.644
318.43
286.031
262.873
304.59
292.405
312.877
280.077
248.468
271.327
257.13
283.629
245.582
242.325
227.186
270.563
267.464
223.954
267.339
225.815
235.686
261.032
207.386
217.38
251.609
250.376
174.658
224.609
247.325
171.119
201.277
221.515
241.807
205.68
232.725
163.76
195.337
185.185
152.844
247.058
243.774
265.506
227.726
180.399
206.957
202.873
200.846
175.206
149.849
204.754
127.428
154.115
182.237
243.462
163.658
184.12
245.137
285.882
228.39
301.442
357.901
288.727
308.211
419.746
349.408
399.616
366.562
394.69
450.535
436.767
483.088
467.757
411.961
426.484
163.889
215.168
152.678
184.097
205.493
231.631
241.04
176.479
126.029
187.225
103.267
165.53
154.534
92.2983
201.721
176.295
223.091
206.089
183.389
155.489
128.642
440.075
424.278
474.361
428.144
351.87
392.94
383.713
169.697
192.118
218.92
202.819
117.259
151.022
174.792
440.532
388.739
342.679
410.97
313.528
357.674
365.654
98.8717
163.22
143.37
119.309
182.574
207.311
188.46
335.046
318.099
345.808
424.078
408.771
381.857
397.308
277.946
360.68
299.557
264.116
298
325.767
235.472
326.986
220.265
282.658
245.058
254.875
306.79
189.581
349.367
404.451
360.493
385.062
433.797
380.049
335.604
203.977
192.505
220.126
170.879
117.592
152.171
137.466
230.527
230.166
258.048
216.87
148.618
182.835
186.922
0.0989353
10.6522
145.136
5.65539e-05
0.185849
0.156247
21.7614
410.126
386.684
370.023
313.869
353.879
371.479
424.888
224.319
141.912
172.039
197.565
106.374
137.749
167.532
313.754
237.333
265.175
328.883
376.348
350.133
304.533
248.153
241.681
301.949
322.287
263.539
215.619
276.128
141.938
99.2961
161.413
139.163
59.3787
119.378
77.3835
225.296
172.36
199.731
152.759
182.279
152.078
118.744
286.808
268.957
251.664
318.676
335.009
351.902
367.721
141.956
167.471
197.058
135.407
196.045
223.311
170.022
108.993
199.845
138.358
266.646
207.559
181.515
242.998
182.979
126.084
100.347
93.3483
127.851
158.711
152.969
209.736
155.531
191.134
124.054
163.983
141.684
100.393
119.267
96.4513
154.826
84.7189
144.464
121.602
63.5521
50.521
110.622
97.5736
75.2249
139.295
165.127
136.876
282.417
143.837
123.56
4.97436
179.553
81.0301
62.0024
167.89
265.397
247.796
251.025
229.222
232.032
213.582
192.64
220.513
244.874
206.835
181.745
209.262
166.595
133.955
203.268
119.542
182.25
98.9465
163.587
138.831
74.702
213.628
142.044
192.2
117.93
171.284
146.23
90.7789
102.357
75.7296
138.214
126.934
36.1465
65.4645
91.1508
120.074
145.074
176.353
64.317
122.487
155.854
97.4667
153.437
184.076
159.694
93.6652
128.91
101.249
67.1376
378.018
299.908
279.508
284.306
323.036
341.234
335.529
90.3006
58.0224
118.136
40.0864
95.5221
68.9416
22.013
220.633
168.007
204.925
242.814
288.771
321.077
275.998
216.037
243.715
219.219
106.752
279.721
150.707
176.452
111.264
58.002
36.7575
25.9324
91.4704
52.0377
76.0264
163.472
87.4557
68.6495
57.9807
98.1787
120.948
130.195
95.2325
191.197
147.117
154.199
102.722
104.228
55.3
60.8265
25.5815
75.7745
91.1991
49.2055
156.012
109.018
132.483
33.6584
76.0307
61.5553
110.75
165.672
115.596
129.35
136.894
168.639
114.884
42.777
73.4607
80.229
94.6767
70.1483
129.076
94.5135
18.2777
40.6877
61.453
137.805
47.9008
77.775
112.987
178.171
149.562
213.622
43.1115
10.0032
27.4245
47.7086
78.9491
69.6526
104.16
95.0525
41.185
95.2319
18.3908
129.952
70.8636
40.7965
66.2751
50.1167
106.683
83.9114
10.7184
33.1072
46.6432
1838.69
745.696
2080.2
9883.44
1999.59
1821.48
980.214
679.788
943.465
665.815
1895.53
1817.72
710.312
793.221
1904.48
1307.96
639.012
1434.41
794.353
772.427
3539.34
995.225
1128.88
1982.59
1120.01
3043.53
1655.88
1003.63
2071.88
1747.6
2146.46
1749.02
151208
4967.05
9883.26
892.654
1094.91
2111.6
1178.24
1149.98
3060.2
1973.8
2101.58
689.036
1897.64
834.905
959.653
1819.45
719.685
1915.6
2030.74
2607.18
9371.2
1986.09
130776
4329.33
8059.27
1109.92
814.584
1520.69
1321.22
784.193
797.022
4144.93
7340.1
5533.16
5069.45
25870.1
15925.1
24699.6
4568.85
3304.44
1384.3
1467.29
1367.16
1982.58
1747.14
1971.05
1070.48
934.793
1841.47
1167.66
852.086
1713.09
1259.89
1067.17
933.135
1885.87
1209.54
1256.7
1753.26
834.697
957.406
708.925
735.239
1101.42
1095.13
1123.41
677.556
1470.09
3020.26
3112.57
2039.05
1539.06
2087.36
1550.39
952.095
1264.26
1041.56
938.16
894.382
1245.88
979.583
951.57
933.163
1249.37
1036.8
973.274
1241.3
894.941
1218.63
3051.64
1113.78
3046.68
1166.72
1174.24
2996
944.534
1636.81
1604.27
1020
951.68
1317.28
951.207
4485.97
2715.85
3434.54
1660.68
2369.34
1987.69
4984.99
5434.43
4123.49
4122.67
1883.7
2509.29
7042.1
2509.67
4484.82
3427.74
2703.55
1655.99
4979.92
1984.65
2366.51
26802.4
88685.7
80112.3
88685.3
32624.8
32625.8
45798.1
5874.93
3242.35
3223.6
15999.4
11788.7
2996.18
11794.7
7340
5070.23
5532.38
25869.9
4568.55
15924.8
24699.6
2522.36
1189.92
1250
1189
1837.07
1634.23
1836.09
1049.96
1178.4
969.178
1444.78
950.429
1009.45
1332.82
1041.04
1149.38
1408.34
937.569
991.687
941.724
1315.45
1270.02
3063.18
1143.33
3060.57
1191.67
1187.73
3011.31
995.37
1619.78
1575.11
1022.54
1044.21
1017.01
1652.69
4402.94
1749.32
3305.87
2662.36
3044.4
6670.95
2561.77
5049.91
2041.32
3916.08
3896.58
3351.16
3366.42
11312.5
12618
6202.18
8035.03
27404.2
4328.84
13592.2
15231.8
4350.3
1704.63
2541.46
3151
6623.8
2534.52
3022.84
16542.1
93195.5
49046.2
72351.3
49349.5
49936.3
81675.6
9751.59
4287.53
4170.05
24003.7
9333.2
8912.6
3070.27
12997.4
8142.18
6732.31
36606.1
11519.4
4328.1
14409.6
1263.47
1408.19
1049.04
2353.19
916.805
1846.72
1322.79
1216.44
1289.54
963.36
2051.06
1250.61
892.984
1757.09
1119.87
777.142
767.842
1237.57
1079.53
717.775
1116.32
1518
3040.84
2811.91
1924.05
1808.84
2734.97
1867.92
356.468
348.802
327.022
311.079
299.647
302.718
268.899
291.895
314.244
325.405
328.441
311.611
314.686
329.643
326.799
319.62
339.637
333.072
326.153
319.332
333.953
340.153
340.599
358.301
326.964
344.221
332.817
314.771
339.536
330.944
327.605
335.403
337.809
329.731
332.519
333.368
330.16
348.99
354.6
346.929
349.343
341.015
341.034
349.534
318.025
324.11
320.735
332.017
326.662
329.83
328.7
324.604
326.376
328.911
334.925
333.351
336.054
332.027
324.248
331.596
340.772
338.404
342.427
335.217
346.249
333.139
344.654
336.282
341.165
348.042
341.303
348.577
337.56
347.159
339.387
336.032
342.207
338.993
334.496
342.827
353.345
351.638
350.302
346.867
343.791
349.769
337.793
351.812
340.661
342.721
344.405
344.99
340.294
317.118
302.711
319.419
326.788
299.705
299.333
325.694
344.837
360.422
351.038
345.214
341.553
344.294
346.704
325.155
301.686
322.382
327.302
293.813
297.362
326.779
313.036
294.746
283.913
285.672
264.877
295.699
301.849
301.654
260.878
247.712
251.639
257.293
260.548
270.663
267.024
272.197
272.523
259.776
277.149
267.238
277.075
286.421
298.103
281.199
277.571
283.875
295.777
299.037
280.412
304.278
298.132
288.087
289.822
312.069
304.428
298.39
270.722
287.431
273.505
281.634
290.772
278.387
292.598
287.666
291.173
279.298
287.395
299.185
295.722
295.329
292.601
302.824
297.002
302.24
305.77
289.446
298.389
297.922
317.084
301.574
302.48
310.673
300.287
305.604
327.236
299.803
336.332
320.513
347.075
361.115
265.745
289.246
341.26
275.803
283.674
304.587
353.822
355.204
299.734
357.128
355.034
328.243
313.967
297.738
316.111
360.196
323.983
342.996
344.888
319.44
351.462
352.487
316.171
261.153
243.573
248.563
249.846
256.468
277.005
272.049
345.923
358.704
353.185
361.555
339.243
329.296
358.572
274.448
275.256
258.89
303.758
287.024
269
288.456
303.171
285.238
281.313
313.026
309.579
297.255
293.224
310.414
305.535
293.655
321.644
332.392
319.862
307.235
1718.92
361.776
1721.79
404.944
1902.86
1784.57
1121.1
460.142
502.252
382.856
414.946
564.867
396.382
546.146
516.901
846.52
1925.54
989.206
703.258
1827.34
744.547
1827.92
1367.22
1528.31
3696.06
692.613
797.884
821.022
820.942
550.691
738.686
465.915
598.305
944.428
552.396
594.592
1229.62
1324.27
2125.26
1004.42
1314.02
917.673
1785.95
1256.49
1406.74
2361.57
1062.47
916.538
1342.14
1838.2
1521.27