/*--------------------------------*- C++ -*----------------------------------*\
  =========                 |
  \\      /  F ield         | OpenFOAM: The Open Source CFD Toolbox
   \\    /   O peration     | Website:  https://openfoam.org
    \\  /    A nd           | Version:  9
     \\/     M anipulation  |
\*---------------------------------------------------------------------------*/
FoamFile
{
    format      ascii;
    class       volScalarField;
    location    "0.0011";
    object      p;
}
// * * * * * * * * * * * * * * * * * * * * * * * * * * * * * * * * * * * * * //

dimensions      [1 -1 -2 0 0 0 0];

internalField   nonuniform List<scalar> 
9443
(
538049
673805
729970
773454
936776
804563
592477
748055
705775
101298
101298
112210
101306
231103
726457
513991
710419
852491
907495
1.21732e+06
1.23431e+06
743136
648515
601965
1.24948e+06
1.21957e+06
560019
464400
770449
560625
746595
950224
1.14452e+06
1.25301e+06
1.21094e+06
807255
880454
735135
1.1926e+06
898957
382455
121749
685127
612936
699321
460584
358659
128089
110174
569927
516253
572923
674530
605829
671390
608225
597021
523604
582007
683586
634195
697720
617222
690344
741505
494798
280401
109323
105404
101397
710618
642823
643835
741045
836886
740116
837491
745304
695286
698203
931863
934185
938686
926022
642850
607663
647777
849326
761277
845227
763213
753693
735474
709637
951264
986617
954493
987425
714869
658136
648406
746674
863386
758192
845228
618541
590510
647740
659602
719186
749455
693493
820593
1.21265e+06
934228
978478
1.09622e+06
253159
1.30413e+06
689426
621922
661317
861624
781785
883796
770046
622205
598402
627744
722210
722905
716932
715952
674222
698130
776988
892850
776534
803252
936157
628081
728005
683972
788493
790776
837589
737347
779799
710435
858900
912710
917532
775917
713985
781514
859926
854432
1.03646e+06
1.03677e+06
1.0955e+06
1.10389e+06
688552
801107
738551
793425
912938
939058
794435
641025
662637
638221
732810
726775
715982
714293
1.17445e+06
677200
111978
1.27383e+06
105611
101309
262797
790462
748937
876894
956006
931605
807625
726827
851429
1.01808e+06
1.00391e+06
1.21498e+06
1.0065e+06
849900
1.01922e+06
730017
819971
878356
839944
1.0814e+06
889083
997852
780509
992728
833980
871462
1.00554e+06
1.04191e+06
822006
779648
796546
838870
856790
897249
973393
940918
954940
1.07223e+06
1.0397e+06
1.14644e+06
1.25031e+06
1.18137e+06
1.1586e+06
312086
102966
101302
172779
101317
101298
102074
719820
101694
102241
659281
101299
101298
105294
859258
1.05652e+06
1.04307e+06
1.22024e+06
1.01883e+06
874973
1.03075e+06
1.11125e+06
1.17787e+06
1.24248e+06
1.0274e+06
1.17835e+06
1.01642e+06
1.11318e+06
672532
711127
719887
734774
721330
701378
664701
1.11365e+06
1.20721e+06
1.23316e+06
951246
1.18758e+06
992758
1.11992e+06
912565
765649
728917
547140
716875
916620
759546
920834
945633
1.07216e+06
1.16469e+06
1.10105e+06
984676
876203
790124
823821
956490
941584
691760
895548
765685
756853
688905
755763
667762
721811
716487
656688
756054
709294
735591
582227
673764
593613
475892
906737
726875
635090
517262
687702
895273
748129
1.09706e+06
1.08019e+06
900262
938102
1.26627e+06
1.12865e+06
1.15044e+06
756534
755599
716263
706414
590206
686738
632742
101501
256383
605163
101298
101298
103123
101345
957180
1.06289e+06
882781
1.17971e+06
956521
1.05172e+06
1.26725e+06
1.23199e+06
882020
1.11935e+06
1.09512e+06
1.13934e+06
1.25337e+06
774151
687534
549882
867308
809597
276056
426642
620340
689601
446586
682370
353229
628832
619406
337028
639736
414429
667464
598005
249484
301922
559256
877384
1.00553e+06
908541
1.07718e+06
1.16855e+06
1.19148e+06
1.04636e+06
992691
1.26076e+06
1.23204e+06
1.2598e+06
1.1834e+06
1.06713e+06
1.20789e+06
734596
700093
740731
521879
648561
581764
421085
1.03224e+06
1.21846e+06
1.06547e+06
1.15571e+06
1.23967e+06
1.21394e+06
1.13062e+06
1.1606e+06
1.26783e+06
1.20762e+06
1.28657e+06
1.10618e+06
1.26423e+06
977514
991834
710998
942470
560989
784880
584218
355972
1.03193e+06
1.22402e+06
1.04712e+06
411965
1.2565e+06
615453
918305
591622
197611
513420
190118
496657
403303
137870
1.19427e+06
1.09166e+06
966859
1.17051e+06
1.24766e+06
1.26311e+06
1.30673e+06
624477
586374
433785
470430
306614
242325
160107
711380
359281
165694
178603
281202
553785
514066
640368
621447
714205
476912
169860
326078
286741
1.28569e+06
1.23985e+06
1.15503e+06
1.23555e+06
892636
1.15347e+06
1.24858e+06
711154
524359
400667
509973
386230
168553
176527
692452
301914
419363
476771
353597
152383
132628
375235
222647
538988
525188
124037
210322
356907
494098
259626
153388
117069
185752
441185
317801
102365
101299
101320
101298
101300
101298
101367
1.2289e+06
1.16121e+06
1.24207e+06
835964
1.09621e+06
1.2109e+06
1.22027e+06
522060
236300
337418
241839
172207
116785
107639
101302
101298
147245
101298
101307
101298
101298
252124
134255
397456
277979
103972
111855
168342
1.317e+06
954890
1.1383e+06
937047
1.15828e+06
740515
404143
194660
124907
359988
257748
102759
109857
139289
1.13465e+06
222804
731328
399289
966117
465203
127510
1.25334e+06
600684
576087
851113
943955
1.13224e+06
1.11475e+06
526204
503128
790777
310295
109460
139412
169504
508783
158126
311165
114895
181583
114883
103500
200191
115343
341036
170704
102015
103872
120159
400787
108284
116208
158904
126473
103366
101829
382014
124341
254225
104247
126842
109249
102184
237687
110767
225021
106935
101731
101674
107732
167245
104000
101907
101717
103900
117318
112247
144127
101822
114883
101573
108422
103596
101383
101929
112532
119196
103134
101336
102408
101361
128197
102134
125080
103785
101395
104127
101384
108146
164428
199011
105434
101452
101567
103741
115757
106476
121629
103031
101974
101788
101357
181589
349856
691871
218615
101852
105609
118731
108671
106504
149130
103131
101327
101495
101579
107196
101382
103830
101317
101847
101518
101305
132104
101968
113100
101368
102450
101740
101324
109351
102872
104481
101818
101578
101411
101317
111959
101343
101397
101606
101673
102637
104000
101818
101420
104580
101817
101301
101317
101379
101335
101409
102281
101602
101299
101309
101331
754854
750656
105720
341612
101861
751204
129554
476795
101359
548079
671158
734982
584888
313522
104596
108518
765956
375716
614078
366732
266766
101378
103052
529016
748366
697327
123996
105780
101478
501397
444320
101344
640135
552922
643866
697546
697637
730604
733194
564784
672594
654246
708221
700885
728034
724489
650785
698479
717131
730466
721243
714795
690481
739518
693588
768282
759718
710120
642294
562474
782228
778119
736121
706528
606454
596509
712484
686699
774480
750549
779835
694158
574435
562288
750809
776866
780904
690010
695604
576503
567312
753621
773427
742144
694801
533732
573570
674215
367215
645932
641010
567465
248829
574850
240408
762572
770335
677604
759930
656168
544759
505912
613300
347062
630678
550081
194678
520107
221947
766345
709483
770980
472419
638983
582367
382581
769740
770268
738533
564174
620468
445449
358346
584195
211801
537742
162702
473792
404785
132394
122778
160104
468286
309894
105602
209330
113787
704807
640047
755506
496711
172685
271601
371133
128180
208702
389534
131545
402513
218983
106289
687431
148500
469886
487360
698345
357921
155770
132159
395109
404746
220775
105940
212752
106388
490103
691992
700267
360579
151124
156982
348004
432236
252817
107776
145941
242171
443174
141592
406637
122263
106337
187204
219468
363060
132880
371256
116831
331032
104988
194976
169211
103764
672698
388957
638823
139332
318868
272610
125168
112901
151698
301262
228614
102063
123728
106785
211176
110295
275039
140685
101916
119356
102652
224775
312207
584269
215479
106535
160294
113569
709660
101548
766631
292793
640423
579993
602246
253621
595334
528094
572590
379805
352317
509544
421375
475567
468994
631780
456180
399125
714932
536504
499161
381412
356180
384198
388538
518417
522526
558540
555079
365097
412058
397786
545570
531266
566273
579820
423921
432408
565081
459661
589905
598639
622607
423491
480319
428084
600853
646013
647587
598352
453262
491446
437917
607205
663933
653005
619148
499583
546297
496780
653050
619543
651020
682376
591779
655662
655594
664848
570039
665968
565873
476089
573326
508194
679953
636967
659901
699063
584658
658639
656488
664307
541973
556849
665365
608024
557029
688873
627237
675865
715461
713030
554614
661825
665339
519001
667107
666866
484447
671397
709190
605242
619348
551328
686025
714792
672260
530593
462609
673708
670616
674188
525463
670434
493879
657089
447409
665258
513729
669204
656256
362455
430167
488132
666440
657853
434519
463698
642802
665526
654738
323691
616413
419497
766447
681308
727350
714903
665510
728875
679393
763148
701913
743553
630825
704948
664864
551763
624823
266716
346286
240467
561408
492225
176034
583122
270719
180678
629759
251379
570804
355437
731593
266299
465285
745075
767826
589183
429328
450471
208134
666153
662171
658222
665385
211787
441665
502148
486347
674096
739907
197702
382330
649337
492357
464767
508430
620199
525163
630120
665431
674202
500735
616716
444034
438594
495151
614373
660894
437692
498427
494275
615010
613539
660548
661436
516556
584547
550249
665641
645486
687526
703293
727074
706870
576899
662516
571620
707451
730802
662207
574972
570881
707664
729019
707405
731618
585403
689627
603394
724824
709026
713612
718653
669184
428775
497368
502878
671343
661887
436016
504698
670577
671821
662898
433872
660749
437949
712334
662666
629459
719019
679638
719211
706118
668203
474932
665876
420665
655329
646871
396884
406424
447628
660890
632150
306414
605828
359783
535270
619251
327066
624987
216106
336529
544166
626322
217663
539590
332228
622649
338596
545888
523016
315022
612672
595183
176222
285700
494216
521312
197781
126454
566445
150248
244938
449370
392052
506195
186438
128843
108264
388204
127872
453797
152775
111912
355351
105147
120630
200473
108770
146814
102808
237764
102383
107230
134138
163068
101959
101575
103768
109437
121114
103452
101786
102707
475908
468211
148030
101320
103069
106405
362707
101307
105976
434120
696884
103111
101305
244397
746172
594417
767914
735591
643922
438434
270894
516025
626906
750043
479287
356374
254689
165001
144343
284944
654422
247991
478039
145154
107420
605559
194756
440868
118722
228522
133875
104726
190252
597884
351993
132017
220841
117103
104509
243364
107579
102850
102475
136904
109128
101561
114529
381830
151092
103056
122543
107459
101766
154221
101880
118687
101532
108192
103460
101368
117292
102979
101356
119683
101365
103249
101943
120094
101366
101891
103076
103293
118176
101956
101757
102643
114344
109796
101327
102140
101595
121894
233876
116330
106641
101358
101809
101983
103345
101304
101366
105944
101313
101730
101456
104203
143208
108861
102723
101315
101400
101560
110249
101344
101599
102735
101304
101500
101345
101879
101467
101317
102366
101302
101411
101333
102302
101452
101331
101824
101301
101315
101403
101298
101298
101298
101298
101298
101298
101298
101534
101326
102152
101368
101299
101316
101300
102199
101495
105011
101433
101300
101306
101331
101299
101322
101300
101314
101357
102018
101504
101502
101314
101306
101299
101312
101531
101305
101304
101459
103351
101310
101458
101304
101298
101446
101301
101298
101304
101308
101385
101303
101335
101300
101362
101305
101415
101302
101298
101299
101468
101303
101314
101299
101300
101298
101337
101419
102412
101305
101365
101300
101298
101300
101298
101299
101299
101304
101315
101474
101366
101298
101298
101299
101300
101305
101308
101307
101300
101351
101298
101302
101299
101298
101479
101299
101326
101298
101305
101299
101298
101298
101300
101298
101299
101298
101301
101345
101299
101301
101339
101313
101298
101299
101299
1.21198e+06
522136
101499
751509
893824
617252
931513
1.26919e+06
1.26953e+06
892502
849281
1.37497e+06
863075
1.33565e+06
374732
375268
101459
674117
695361
747019
703940
754187
827885
789785
745269
553083
816901
468417
101350
101420
101307
696997
853613
771818
869963
781234
864054
1.0047e+06
920473
786332
824982
918395
1.03009e+06
1.06087e+06
891730
805353
956617
841520
928982
1.06521e+06
1.09703e+06
903474
901295
951058
1.11272e+06
932881
1.11043e+06
1.09686e+06
824879
912438
1.03847e+06
1.15483e+06
1.06617e+06
1.17723e+06
1.27239e+06
1.31205e+06
996366
978727
860179
975480
1.35272e+06
1.15935e+06
1.20711e+06
1.04007e+06
1.02741e+06
880757
990337
1.34403e+06
1.19514e+06
1.22994e+06
809554
838204
818189
743242
769588
664919
530532
1.06785e+06
1.21583e+06
1.22605e+06
1.2389e+06
1.24136e+06
1.23386e+06
1.03696e+06
1.22036e+06
1.26527e+06
1.31679e+06
1.27685e+06
1.37562e+06
1.2241e+06
909521
1.29479e+06
1.09834e+06
1.29089e+06
1.20833e+06
1.36501e+06
1.18512e+06
782996
810189
492576
446204
642271
678969
352695
168773
844229
853559
1.11323e+06
857849
177247
397526
522725
1.16699e+06
1.26691e+06
1.16743e+06
1.23872e+06
1.29371e+06
1.29545e+06
1.35197e+06
763461
676949
1.04027e+06
798397
143524
294945
470079
295861
323757
176118
249492
156178
629978
615522
493438
404146
338836
288019
203552
452319
620925
364948
612159
139835
210912
171837
342202
364706
388613
317769
234422
213243
230558
382384
341125
406839
357592
265925
281067
224491
364693
428989
411770
386083
133151
178694
161470
306480
279739
287371
292006
306039
283594
264082
447376
430789
382804
407959
288098
240859
248458
317024
311720
319357
318461
288312
290450
265112
333378
332448
351237
323630
256515
213812
206629
327529
324745
347928
308519
462621
505086
616788
565862
566868
511790
454017
518302
612926
556076
462835
524995
471480
558925
467734
520764
619197
581599
569838
514709
477567
510087
468177
374892
412077
471136
512790
380623
532721
614595
529137
482658
570355
563450
493614
430981
472890
389620
395123
433321
476372
367058
405198
384221
498445
440259
484747
419202
373559
419313
400545
532088
477920
517883
431304
388260
366050
462648
471957
306098
377580
578077
739097
471456
635627
356761
368011
273230
815883
652911
720037
449918
347451
402293
380916
461038
430224
452891
480780
320092
382046
347713
443696
405087
430347
467471
312063
320093
336251
345092
370248
392531
363206
289149
297509
315536
340553
364483
390769
365472
393829
339225
362120
421295
421826
458658
388282
417301
427877
383677
468244
555474
517196
505404
447232
432821
411741
480456
550431
513489
510954
399805
518735
436985
461508
498780
548190
422626
542704
582663
506501
524732
661010
603521
564577
393025
327784
348700
429741
446622
480459
401151
536313
606010
495199
525156
690971
647991
566670
558053
419070
520208
482173
564147
601347
448264
495137
492150
631928
534900
586556
538517
453292
550769
637054
672185
695733
633555
585463
597455
569442
667097
744325
808968
711976
630927
611327
527810
547198
767744
630280
668860
588838
489368
13109.3
3236.4
11238.8
143311
133820
273975
196706
267912
70909.7
2688.25
3076.65
2772.99
172938
45511
143496
50379.5
11089.2
48893.1
48039.3
13444
58156.1
56086.7
14127
2817.22
3685.39
3705.96
4324.11
3173.74
3250.5
4548.68
11742
54955.1
50735.5
63069.9
23053.4
73811.7
16215.4
225734
224417
132244
147876
237618
145852
238233
2696.18
2669.91
2712.43
3362.05
3072.51
3165.71
3626.49
2769.2
4240.63
3756.21
3811.86
9859.65
5550.12
6641.95
2781.61
2968.69
2688.98
3755.16
8797.09
6485.79
4702.69
137231
233602
228593
152897
244718
161572
240686
9253.73
33008.2
6391.46
8081.78
63846.6
47262.6
11575.4
23015.7
80307.1
89510.1
121856
133087
75474.8
26813.2
92712.5
76079
201442
133875
159303
118782
38707.8
167536
250484
268129
193806
198066
165074
251260
14486.2
53808.3
108595
139538
83388
20648.8
38921.4
8944.55
33399.7
6427.65
8100.79
67010.7
46875.4
11911.7
174490
258158
229648
270059
209394
187522
253977
14438.8
50134.4
128591
98142.2
79030.2
37154.3
22155.9
4700.16
32451
3110.24
15398.6
177852
95097.9
294026
270258
3004.26
4580.51
5239.84
5175.98
6251.64
15812.6
21341.1
3406.32
14366.7
7216.71
21786.8
9627.73
35893.3
65744.1
70976.4
19910.2
80427.8
148709
65347.8
76754.1
159287
23330.9
111333
31438.6
163573
71426.4
84987.2
177163
101397
59631.7
135874
98640.3
195727
134508
177450
87391.6
140725
52541.3
109385
215273
195616
146674
214108
221829
149332
161709
274136
229083
220428
179017
242878
250516
282247
239535
198528
230894
160217
184507
425720
395549
730409
555838
352807
332942
168996
234620
218119
239861
223281
284800
281005
202006
261039
248785
246044
233684
293240
306118
460705
306293
355652
399616
310174
359911
465857
395728
268806
324461
328905
272786
337213
401112
331750
409725
318535
369447
497671
384252
477946
294604
338417
281952
346782
429140
412256
361361
416681
688111
500326
421851
693321
506604
561545
432851
600205
706952
543550
520479
449889
575664
190254
5153.35
17472.7
266778
152883
325695
400063
281042
270410
129877
173214
4408.17
382571
252959
300844
196401
64411.3
35712.1
85479.7
48240.8
97230.1
142571
118030
6465.82
20553.9
13888.4
30062.5
21178.6
72992.8
95927.7
4195.58
16457.4
12522.9
26161.6
19660
65918.3
75220.6
240065
246594
167850
250262
175215
196188
258262
100872
194517
129993
204219
273893
263980
204025
138463
80745.5
60111.3
152192
249911
186242
216506
148203
254381
165092
222978
325519
305326
228767
124356
215384
96977.5
176091
304985
269337
210921
219969
255483
189644
226225
281184
258668
268176
264185
256516
207903
237436
291600
285931
272824
60717.7
124594
53692.3
137170
190440
195641
141398
100134
196934
89167.1
158957
235581
244164
162484
278683
335215
383950
361105
346444
324664
292176
235512
312128
339751
350366
308116
269963
281681
268609
299692
342218
306305
313079
298601
284186
213344
243438
318622
265037
279009
255389
207783
246096
628727
423773
723027
443996
384852
513379
730949
636703
778128
756554
103518
772621
288249
586805
700481
397059
400585
415138
472172
488876
496757
518250
415945
467374
436783
559968
516834
551231
599453
673077
669560
834612
480685
764078
364497
272721
375620
483073
515932
727313
744479
549753
400918
516845
627153
682413
833913
1.10559e+06
738381
516314
417522
717147
636478
1.31819e+06
664399
295685
288637
336412
311905
362323
354312
381509
663913
542439
411438
632496
649572
510712
121335
325747
382721
343388
440032
396876
416470
460141
434428
442693
484537
461990
505661
560271
509427
323380
402818
348639
453207
393412
421750
485310
487783
564926
530765
594903
552563
597847
642119
413653
561108
442667
550033
434036
465435
599543
480582
576846
544579
613942
579115
661758
683399
447617
476454
511817
502798
542420
623387
580804
604665
491516
541856
620758
629629
685881
565632
538947
681801
589939
646452
684403
737210
591986
429234
467864
494780
485955
518977
575017
610141
884606
1.23528e+06
725929
1.12677e+06
832090
444085
577350
392083
533996
646402
882102
575051
918730
449029
521631
392582
976379
764845
993075
753132
895730
767944
920354
476349
611884
1.11511e+06
555361
854334
1.25563e+06
619636
867587
488969
488484
540054
501454
626514
576357
585358
635497
476733
528744
486472
627232
577717
589192
638890
418972
401802
433452
462460
504494
519316
476302
426746
404009
438265
481145
522650
536010
495721
479897
418694
453182
541927
526596
572494
497982
532161
544240
503277
612452
700918
652912
662150
538688
552916
517293
599947
680531
622754
652934
485537
421161
455479
560800
563144
602576
520954
549430
709155
606830
621833
665345
724176
565827
515336
514898
558494
561356
610092
652924
601244
566450
652577
601277
716590
653577
690873
761400
736566
772862
668621
679712
902714
785231
750345
764946
955869
716784
743113
1.00964e+06
785768
988071
574941
675820
634716
754913
716194
814330
828371
529574
545726
589203
627262
668769
765825
715145
643915
777157
619360
691861
672571
746700
589544
622370
852294
664092
690854
775810
871527
647439
254293
201947
355235
346280
381037
371750
532100
554849
217312
246490
253508
292689
299036
317078
314095
235544
272277
261811
319307
307169
323277
334982
328328
397196
283525
332270
287100
349871
402146
305567
341182
294407
358198
429633
372330
412777
374534
457288
460277
476420
386479
389337
481267
393705
486406
468925
397288
515852
493693
411864
422003
638306
486702
426556
645673
538886
492874
440792
537529
458353
670513
558998
586044
698059
420323
437105
381226
458170
604342
507459
532174
543029
626216
704482
511004
723323
662328
578803
1.06065e+06
1.08587e+06
1.03297e+06
788995
875875
860530
820769
804849
983162
935665
697257
806027
721382
773016
702073
607300
661123
558513
607441
700395
647094
663042
506838
691147
582467
531116
454370
436957
636424
724643
612460
719127
641834
662911
718198
541922
623114
483411
511970
578623
661719
723408
632622
613740
578084
650812
773452
711771
699182
622965
567943
480330
519344
762073
673575
622427
628299
718265
795925
679022
870029
771766
738921
788611
732836
896722
787193
685289
734354
796889
819153
863906
815893
655820
708317
750607
699649
742037
646726
626930
778968
897115
774028
952634
737233
947193
915025
843347
1.04724e+06
830285
1.11125e+06
787015
691735
754725
698592
642904
734969
819337
522682
574332
484168
625951
768628
676653
734072
708180
551555
592257
745366
865426
934693
705813
105406
384510
783934
101299
109010
107781
554836
706650
722926
753094
867205
798382
770975
651597
676145
811707
894877
810010
861996
1.01129e+06
761630
869252
1.13171e+06
1.04845e+06
851358
752814
792251
913413
1.06771e+06
848502
840843
746403
720157
953594
931324
707337
734355
669425
690607
671175
720909
706504
468385
642105
535228
707935
583491
694172
802110
922600
968119
1.00146e+06
857152
817094
800038
752467
805133
757886
633750
998830
808700
676163
888831
1.12897e+06
1.19847e+06
1.12832e+06
956574
959060
1.07154e+06
1.0638e+06
577139
766966
760948
776598
726328
658419
695125
541809
702378
568807
820258
699534
732731
802077
770215
757799
671707
779023
743321
757625
721952
687078
816484
917132
760196
783128
871044
940938
369697
753616
821578
261477
648949
830127
763692
682572
405947
447902
437628
491118
480179
536341
603376
508081
449857
552344
632621
538469
701869
811564
570573
798168
641527
806810
715636
787352
785097
527062
769248
593280
820055
687204
773215
826972
762972
712827
703336
720313
594442
693846
762036
767121
739870
629887
725676
757711
671024
759722
701336
579838
660677
783050
729977
765541
750450
736565
906333
968199
912799
834642
801895
811765
755398
677275
745033
600793
738665
713920
483204
1.09088e+06
1.28229e+06
1.21659e+06
1.1052e+06
905168
841752
996524
1.02265e+06
1.1227e+06
1.19987e+06
1.23788e+06
956703
1.23364e+06
1.21182e+06
739352
706542
589296
525581
746622
656293
748183
980162
890440
819268
938601
1.04194e+06
1.0933e+06
876526
852768
598083
770868
747424
859338
856295
775734
758160
567764
815598
808119
711668
735729
833834
806800
645888
814376
776304
828468
693741
835544
779827
776241
644095
791704
697016
785586
808985
797970
739653
743331
783780
480920
642059
751798
1.27656e+06
928215
1.06675e+06
1.18553e+06
1.27767e+06
1.16524e+06
1.18245e+06
755790
354832
557988
704980
797279
916494
969483
803222
647753
787626
484346
746143
745140
654558
773005
696795
812072
776960
370232
596851
686753
182939
9173.35
152915
6005.46
154769
173575
79965
43722.8
112428
111673
169751
173174
112461
115327
159948
78593.6
42104.4
5185.95
4912.51
47018.8
4722.37
52849.8
102564
161750
102751
151390
106464
115123
152860
85525.3
4740.55
85647.3
12123.9
93203.1
6019.5
79110.1
113687
148057
101454
102413
150299
106268
150521
110447
161745
113710
111883
170104
111869
157186
85775.8
5038.46
6569.47
85570.4
12285.3
93081.7
6064.39
54482.8
9835
5524.61
78869.7
4956.4
47637.8
4751.02
28844.5
5562.82
25528.2
7905.98
31632.1
6846.62
23329.5
57639.4
82604.7
45747
82467.8
51916
85373.4
51423
40554.6
74249.8
49836.3
79072.3
74415.7
47938.8
42736.8
15088.8
5350.1
4991.8
15585
5100.27
16701.9
14592.9
13634.4
5094.23
13135.6
4613.18
4903.92
13811.8
12963.5
14486.6
18613.5
4726.8
4387.49
4536.23
17758.9
14970.3
123734
104720
102671
121070
122704
105070
121756
123824
121215
104843
102817
121877
105159
122847
145809
151652
145502
151692
144554
144551
154424
123448
105703
105756
125378
123013
105357
122945
62079.7
89389.3
58489.4
84570.7
55928.1
88361.3
64323
23397.4
4920.52
4922.9
16223.2
19238.6
5448.97
19225.1
62086.3
58521.5
89473.7
84655.3
64356.4
88413.7
55925.9
34418.1
10626.7
38560.8
10621.6
36791
36787.3
9149.63
67390.2
92426.1
92464.4
69816.4
69014.8
91361.4
69005.5
28844.9
25563.6
5569.48
7898.58
23356.5
31618.2
6844.83
56242.6
82018.7
43690.9
82033.1
49972.3
84897.6
49961.9
122150
101711
119357
103915
120959
120297
104346
122718
102280
104454
120552
121202
121955
104440
143684
149924
144679
150646
142913
143819
152354
122577
105211
105475
124965
122155
122554
104862
62991.7
84963.8
59594.1
89180
57477.9
64995
88411
25110.4
18168.7
5305.47
5215.03
21407.9
20924.3
5811.03
30271.4
27465.8
6069.71
8410.43
25444.2
32812.1
7304.58
62617.7
84719.5
89328.2
58713.3
64515.9
88309.1
56647.2
35141.1
11019
38792.2
10723.9
37443.8
37023.2
9477.28
67709.7
92154.2
92316.7
69863.9
69255.1
69124.6
91149.2
29709.2
5789.17
25802.8
7956.89
31866.1
24332.7
7102.99
16456.2
17188.3
5675.39
5298.2
16159.6
18215.3
5374.54
41562
79333.5
74581.2
50229.9
43124.5
75052.3
48821
14265.3
5225.33
13435.6
4650.37
14142.8
13568.4
5028.75
15321.7
4879.98
18934
4413.78
15284.5
18764.7
4649.7
117670
88042.7
12026.1
6506.98
273808
240631
375573
311844
6992.72
12734.6
14411.5
34213.3
37894.3
75309.1
69169.2
8330.38
31918.5
19348.1
67129.7
47509.1
89583.5
114648
2802.23
64208.7
2709.11
21145.8
3480
3002.48
2954.46
2982.77
3003.91
3066.31
3034.38
2942.18
2932.81
2895.04
2914.19
2908.58
2933.65
2987.18
2921.13
2924.83
2853.1
2704.41
3040.23
2627.74
2648.48
2558.96
3590.04
3733.74
2568.24
2736.39
2942.79
2935.04
2646.68
2858.55
2999.97
2684.86
3168.01
2585.43
2539.79
2598.71
5661.91
4164.45
2826.64
2650.54
2763.96
2900.45
2611.84
4124.57
3247.23
2682.85
3056.34
25609
4694.25
6283.52
5341.75
7146.42
2965.02
3316.55
13506
38382.8
18082.9
7202.2
9712.06
4212.71
35908
96696.9
42173.6
131230
183076
190771
121330
123731
246285
131563
183356
275991
281452
175782
56062.4
148413
81235.6
149026
221151
203891
174686
173747
257294
148434
198769
305344
291896
218876
6634.01
4599.25
4179.23
143912
3690.94
176123
243179
207022
3634.94
3570.97
3598.81
8906.73
9197.24
10223.3
9684.18
3878.36
3822.42
3666.17
11938.2
9905.22
11528.1
14676.9
4817.97
4008.91
3898.29
13159.7
18948.1
20751.3
12163.2
5363.71
4893.38
4280.12
15677.3
35465.4
25278.3
21303.2
45862.4
148474
47794.1
53619.7
156371
50767.1
161985
61632.4
158572
52247.6
60007.4
191991
173623
72364.3
66464.8
86182.6
178014
212939
91916.3
62363.4
183953
75532.9
127463
215170
225360
104727
196062
93434.1
3091.48
2731.65
3052.09
2994.87
3320.56
3225.7
2667.41
2664.18
3325.96
3242.22
3226.36
3197.92
3289.61
3284.41
3213.99
3267.21
3302.67
3147.37
3177
3205.83
3176.14
3264.59
3115.46
3181.34
3167.45
3161.32
3239.49
3231.44
3176.26
2677.55
2710.51
2698.33
3065.04
3043
3005.22
3029.57
2996.01
3080.63
3134.92
3171.06
3096.14
3136.15
3209.6
2657.54
2652.38
2674.31
2911.41
2968.44
3012.81
2972.31
2757.81
2659.25
2659.94
2782.79
2828.44
2938.44
2966.94
2834.28
2772.58
2676.98
2708.97
2613.5
2784.48
2886.56
193549
38203
184718
9739.47
159370
183288
55193.9
38280.3
40414.6
9542.8
40016.3
9861.12
39196.4
41981.6
9661.03
112974
150931
110570
109550
161268
109944
168621
79500.7
5596.45
5102.44
44850.2
5252.67
49436.7
10321.2
40513.1
46038
9221.28
9617.84
10599.6
40989.4
9789.54
43186.4
80003.3
52012.7
75439.5
45202.8
75763.3
50249.3
17256.7
17630.9
5432.14
5789.62
16742.1
5542.5
18951.1
16858.3
21129.9
5120.48
4667.36
17380.8
4854.5
20289
15704.5
4927.75
15095.5
5498.16
15854.8
15040.2
5277.7
38390.5
9276.37
9327.6
37839
9098.18
38715.3
9338.12
104884
177807
107275
167348
111065
107001
175150
180253
106446
106731
106475
171070
107212
176920
188751
107281
106290
188520
105175
105129
182115
198631
3829.06
39261.4
191827
39305.1
130923
10905
124385
10641.9
3896.85
3211.44
3012.15
2735.79
3024.53
2627.39
2862.15
39802.9
9564.42
9745.37
40381.1
9689.66
40537.9
9586.02
3926.78
3255.64
3283.83
3124.59
3836.06
3790.54
3167.66
38989.7
9446.6
9418.06
41542.7
9748.79
40595.4
9581.64
3857.31
3153.02
3209.76
3712.07
3000.41
3064.01
3746.67
188569
108692
108706
112355
195963
111944
198426
3239.49
3177.71
3147.69
3070.5
3021.19
3111.1
2984.58
10605.2
44991.3
44564.6
42486.7
9925.57
42309.1
9923.31
3050.02
3857.81
3877.8
3010.78
3755.58
3740.93
3026.4
194856
110626
109015
204465
115895
113433
201002
3098.67
3166.61
3093.05
2945.19
2903.05
3009.82
2939.16
10729.5
47609.7
45954.2
44424.4
10466.6
43146.8
10080.4
214758
213183
123234
117603
203755
116835
205692
2954.32
3588.52
3788.26
3780.98
2982.72
2996.08
3750.42
2901.2
2928.58
2957.1
2957.33
2919.86
2976.8
2916.22
126889
221596
217485
212175
122580
119341
208330
2752.03
2648.3
2855.53
2910.13
2877.55
2935.4
2909.19
3869.17
3905.69
3301.51
3168.32
3620.7
3901.44
3544.89
3386.07
3399.93
3899.49
3348.67
3795.62
3324.71
3888.99
3424.39
3495.48
3570.52
3574.35
3491.35
3570.24
3874.92
3496.03
3926.59
3919.25
3396.9
3455.2
3521.6
3448.53
3937.16
3528.36
3451
3447.18
3477.35
3406.85
3486.8
3402.48
3467.79
3587.69
3487.01
3651.78
3612.24
3315.56
3570.6
3645.05
3541.4
3494.33
3446.86
3529.1
3516.43
3589.27
3553.75
3571.69
3574.19
3495.3
3550.04
3380.24
3619.93
3496.9
3442.7
3570.3
3314.63
3542.5
3429.52
3257.83
3883.27
3250.26
3293.17
3854.97
3321.04
3368.29
3896.76
3446.36
3506.88
3324.76
3379
3425.81
3438.46
3372.88
3325.36
3267.03
3249.85
3390.58
3343.43
3412.4
3329.89
3218.99
3268.7
3219.31
3305.6
3251.64
3355.73
3299.7
222396
263838
349277
228211
352989
268367
316201
239981
289942
337821
362028
277125
325438
255145
219843
811725
294308
585904
449187
787830
476053
761413
373163
238737
276952
262209
283252
298268
324270
348566
623295
331564
665153
484187
854806
716372
628477
263360
361007
344708
310651
326270
379373
416375
350465
481874
375322
527019
405306
432658
567845
312489
399802
336447
452796
381934
408740
484194
374784
401717
384232
431152
450692
461689
523593
445828
526049
407042
468591
694383
517973
623808
403411
433498
366991
442589
594500
527844
486046
10752.3
271604
257425
177450
264988
278296
60001.3
322857
272754
401592
3486.13
524663
690087
261182
281872
18696.8
231903
419225
35350.8
204221
79598.3
3138.85
74699.3
4462.24
2806.96
230856