/*--------------------------------*- C++ -*----------------------------------*\
  =========                 |
  \\      /  F ield         | OpenFOAM: The Open Source CFD Toolbox
   \\    /   O peration     | Website:  https://openfoam.org
    \\  /    A nd           | Version:  9
     \\/     M anipulation  |
\*---------------------------------------------------------------------------*/
FoamFile
{
    format      ascii;
    class       volScalarField;
    location    "0.0011";
    object      rho;
}
// * * * * * * * * * * * * * * * * * * * * * * * * * * * * * * * * * * * * * //

dimensions      [1 -3 0 0 0 0 0];

internalField   nonuniform List<scalar> 
9443
(
1.18472
1.33737
1.41314
2.00973
2.45847
3.0213
1.79511
2.53084
2.90197
1.225
1.225
1.29397
1.22506
1.84933
1.73806
1.16186
1.72761
1.67564
1.77
2.87333
2.9339
1.94757
1.93425
1.79513
3.47151
3.47897
2.74374
2.57174
1.62112
1.21041
1.77004
1.85804
2.41739
3.02017
3.30777
2.09706
2.67149
2.14585
3.51124
3.33467
2.3728
1.34963
2.19723
1.85554
2.26234
2.53622
2.28492
1.38238
1.28225
1.27851
1.16191
1.27931
1.42316
1.29284
1.42223
1.29307
1.30247
1.16872
1.28768
1.43179
1.32123
1.44589
1.30195
2.2266
2.78183
2.67647
2.03879
1.27788
1.25303
1.22579
1.72366
1.47645
1.47347
1.61463
1.98169
1.61705
1.9797
1.94832
1.9475
1.95132
2.59868
2.4235
2.42985
2.586
1.87112
1.80809
1.88088
2.51185
2.36357
2.5
2.37243
1.96422
2.05079
1.97966
2.65303
2.54743
2.46557
2.76722
1.72503
1.47514
1.47259
1.61808
2.02589
1.62912
1.99164
1.32377
1.24343
1.35338
1.35051
1.4676
1.50179
1.38976
1.72648
2.71786
3.15875
1.96202
3.30234
1.79395
3.15023
2.00052
1.84873
1.91733
2.55766
2.49355
2.65615
2.41014
1.92244
1.81028
1.93914
2.34338
2.3519
2.44983
2.45785
1.48437
1.50731
1.8323
2.08909
1.6514
1.69369
2.19087
1.28466
1.44542
1.39198
1.55509
1.5253
1.63974
1.44496
1.57242
1.4377
1.68427
1.81997
1.82637
1.56965
1.44007
2.18433
2.24229
2.40328
2.68503
2.9424
3.17747
2.88087
2.07711
2.37063
2.2815
2.62336
2.81327
3.01552
2.78147
1.98765
2.08174
1.94658
2.47044
2.38926
2.49486
2.57033
3.49864
2.96421
1.28269
3.6433
1.25445
1.22509
1.99546
1.58592
1.48701
1.71386
1.90214
1.85156
1.6103
1.45637
1.80674
2.37835
2.1443
2.86812
2.1477
1.80696
2.37765
1.55043
1.9344
2.07888
1.76621
2.54968
1.88043
2.34223
1.53237
1.98755
1.65107
1.7173
1.98916
2.11731
1.59693
1.5236
1.52508
1.63816
1.64975
1.76931
1.96818
1.84776
2.71825
3.10805
2.7457
3.43654
3.35365
3.11845
3.64492
2.16829
1.23714
1.22503
1.60938
1.22516
1.225
1.23078
2.86033
1.228
1.23191
2.83296
1.225
1.225
1.25214
1.81799
2.45508
2.22991
2.88397
2.17256
1.84582
2.39901
3.26467
3.06941
3.45885
3.53263
3.06884
3.51452
3.26516
2.09041
2.28535
2.42305
2.59107
2.72582
2.66659
2.74875
3.29483
3.16374
3.45751
3.48101
3.09545
3.49635
3.37329
3.01798
2.76118
3.09604
2.7173
3.07597
3.01873
2.75743
1.82119
1.85145
2.17463
2.53691
2.29943
1.98056
1.69643
2.5386
2.81403
3.02214
3.21832
2.98253
3.35481
2.91824
2.57566
2.21252
2.58292
2.79952
2.66
2.66016
2.78655
2.76505
2.80377
2.64159
2.81076
2.81858
2.76964
2.62632
3.04212
2.8105
2.98604
2.66806
3.04343
3.10176
2.77169
2.55368
2.32932
1.89765
1.98533
3.12934
2.47561
2.69575
2.62071
2.69493
2.36107
2.68016
2.75107
2.72078
2.77425
1.22657
1.9539
2.80203
1.225
1.225
1.23802
1.22537
2.27108
2.52274
1.87594
2.80136
2.05186
2.30351
3.05756
3.27043
3.43743
3.48401
3.5828
3.52499
3.39951
3.31255
2.85491
2.84381
3.17713
3.22469
2.03025
2.53588
2.85999
2.69482
2.50045
2.69026
2.26889
2.70308
2.69377
2.21495
2.72091
2.42728
2.6992
2.68546
1.91973
2.10192
2.66821
1.69739
2.07591
1.80789
2.26985
2.54879
2.66677
2.14279
2.12304
3.0547
2.89795
3.23745
2.66847
2.32361
2.86632
2.50686
2.84309
2.67121
2.67755
2.75837
2.74832
2.48339
2.08203
2.82077
2.21312
2.52262
3.02577
3.06999
2.39671
3.07873
3.38582
3.75582
3.53645
3.73463
3.62563
3.66527
3.3394
3.0875
3.50801
2.8771
3.35555
3.02221
2.34217
3.62462
3.58831
3.48512
2.43926
3.51784
3.00867
3.56019
2.72889
1.71904
2.66437
1.68239
2.60427
2.42632
1.43671
2.83948
2.42112
2.09269
2.64428
3.37436
3.01028
3.27026
2.84792
2.87028
2.55954
2.64432
2.15665
1.91889
1.54959
3.1867
2.33752
1.56125
1.6318
2.04644
2.91785
2.7376
2.84097
2.83773
2.79892
2.61427
1.59086
2.21343
2.07002
3.22861
3.10994
2.58782
2.89509
3.15124
3.2122
3.3382
2.84941
2.70075
2.40578
2.66683
2.36007
1.5762
1.61338
2.84105
2.09946
2.46782
2.59912
2.2631
1.50079
1.40396
2.3424
1.81476
2.66634
2.63979
1.36034
1.76204
2.2825
2.58994
1.95709
1.51067
1.32209
1.65729
2.49508
2.1583
1.23275
1.22501
1.22518
1.225
1.22502
1.225
1.22554
2.88194
3.2156
3.14059
3.01912
3.17657
3.16319
2.78041
2.69986
1.86242
2.2337
1.89384
1.59518
1.31973
1.26651
1.22504
1.225
1.47895
1.225
1.22507
1.225
1.225
1.95247
1.41864
2.43377
2.04246
1.24389
1.2934
1.58872
3.58522
3.63716
3.81332
3.36987
3.59402
3.28154
2.37385
1.69912
1.36639
2.29599
1.95831
1.23565
1.28057
1.44115
3.57359
1.76496
3.27379
2.27018
3.41986
2.58953
1.36174
3.15999
2.65763
2.64134
3.11257
3.12977
3.2506
3.33543
2.84281
2.80015
3.43978
2.1547
1.27811
1.43034
1.59004
2.70572
1.53483
2.17002
1.31006
1.64753
1.31028
1.24062
1.73127
1.30991
2.27413
1.58129
1.23042
1.24274
1.34046
2.43401
1.27045
1.31707
1.53618
1.37292
1.23958
1.22897
2.42617
1.36465
1.96358
1.24576
1.3787
1.2774
1.23162
1.87682
1.28532
1.82293
1.26213
1.22828
1.22785
1.26708
1.57998
1.24386
1.22957
1.22822
1.24334
1.32435
1.29493
1.46993
1.22901
1.31106
1.22715
1.27242
1.24143
1.22568
1.2297
1.29513
1.33244
1.23798
1.22531
1.23307
1.2255
1.38086
1.23116
1.36407
1.24227
1.22577
1.24452
1.22568
1.26969
1.56032
1.71371
1.25284
1.2262
1.22707
1.24205
1.31394
1.25915
1.34645
1.23728
1.23
1.22867
1.22547
1.56222
2.11338
2.97896
1.73687
1.2289
1.25164
1.31851
1.27327
1.25989
1.49202
1.23812
1.22524
1.22654
1.22717
1.26364
1.22567
1.24259
1.22515
1.22911
1.2267
1.22506
1.40282
1.23
1.29918
1.22556
1.23337
1.22834
1.22521
1.27691
1.23616
1.2468
1.2289
1.22714
1.22588
1.22515
1.29059
1.22536
1.22579
1.22739
1.22783
1.23447
1.24405
1.22895
1.22596
1.24767
1.22894
1.22502
1.22516
1.22565
1.2253
1.22588
1.23234
1.22736
1.22501
1.22509
1.22527
2.49356
2.47734
1.25437
2.22171
1.22921
2.47486
1.38707
2.59701
1.22549
1.72902
2.74882
2.38673
1.8219
2.10616
1.24746
1.27154
2.75546
2.28445
1.9137
2.30331
1.9593
1.22564
1.23746
2.72727
2.81189
2.84991
1.35794
1.25491
1.2264
2.65473
2.51992
1.22537
2.02652
1.73728
2.03361
2.31396
2.31477
2.55369
2.55583
1.76498
2.12682
2.06286
2.38031
2.33238
2.56687
2.60537
2.04539
2.23151
2.46111
2.38179
2.56602
2.66443
2.72462
2.45207
2.22364
2.73992
2.5645
2.67303
2.75698
2.72239
2.70527
2.70119
2.39069
2.72312
2.75047
2.73369
2.72991
2.73422
2.74395
2.47527
2.74849
2.74289
2.71478
2.69306
2.47519
2.74426
2.74978
2.73716
2.74533
2.71948
2.70135
2.48231
2.71528
2.41795
2.72421
2.66056
2.70643
2.73643
2.25801
2.61202
2.60607
2.62756
1.89783
2.63968
1.86444
2.54489
2.75114
2.73226
2.78009
2.73553
2.66757
2.61254
2.61173
2.20124
2.6041
2.60787
1.68681
2.57924
1.7943
2.58158
2.85402
2.69905
2.56695
2.74638
2.72678
2.35912
2.72464
2.62661
2.82123
2.7039
2.73488
2.50423
2.28242
2.61871
1.76096
2.60325
1.54974
2.52173
2.39222
1.40406
1.35417
1.54164
2.52569
2.12527
1.25385
1.75699
1.3028
2.87143
2.84803
2.8081
2.62569
1.59861
2.00088
2.33506
1.37984
1.74319
2.34039
1.39757
2.37939
1.78629
1.25793
2.84272
1.48061
2.5806
2.62404
2.85648
2.2762
1.51615
1.40098
2.35696
2.38685
1.79434
1.25574
1.75987
1.25857
2.63166
2.84736
2.85983
2.2859
1.49325
1.52236
2.24234
2.44708
1.91908
1.26697
1.47056
1.87634
2.4763
1.44845
2.38571
1.34932
1.25823
1.65671
1.78837
2.27373
1.40464
2.29053
1.31921
2.17552
1.24984
1.68646
1.57641
1.2421
2.83239
2.37705
2.8146
1.43595
2.14802
1.99123
1.36446
1.29745
1.49862
2.08835
1.83013
1.23067
1.35797
1.26117
1.75865
1.28207
1.99539
1.44379
1.22961
1.33375
1.23474
1.82092
2.14342
2.77148
1.77594
1.25963
1.53861
1.30111
2.44728
1.22692
2.75086
2.06531
2.85921
2.62164
2.75407
1.93234
2.50199
2.48963
2.49488
1.28089
1.22175
1.59512
2.36458
1.51836
2.45609
2.58269
1.4465
1.31979
2.63076
1.66718
2.57435
2.28664
1.23017
1.2889
1.29736
1.72365
1.73203
1.81746
1.81182
1.24977
1.34668
1.31642
1.78116
1.74989
1.83297
1.86635
1.37168
1.39049
1.82736
1.4535
1.89404
1.91874
1.99426
1.38106
1.52642
1.38936
1.93808
2.09688
2.09897
1.935
1.44441
1.55017
1.40961
1.95221
2.15638
2.11474
1.98685
1.55987
1.69009
1.54831
2.11459
1.98642
2.10209
2.25338
2.49859
2.2575
2.25796
2.31605
2.51322
2.31775
2.50767
1.4989
1.77558
1.58119
2.2298
2.04712
2.13866
2.33952
2.49485
2.28098
2.26334
2.32113
2.49357
2.49965
2.34264
1.89294
1.72867
2.29154
1.96558
2.15637
2.50469
2.63901
2.49648
2.31439
2.36527
2.483
2.38311
2.44226
2.45515
2.13495
2.43855
1.88067
1.93003
1.70419
2.26915
2.48132
2.40365
2.50963
2.44102
2.51769
2.51385
2.40596
2.5003
2.40969
2.46308
2.53624
2.41128
2.51708
2.48393
2.43441
2.51851
2.24997
2.38432
2.45968
2.43634
2.51282
2.39151
2.43007
2.57072
2.47695
2.53227
2.14179
2.60733
2.36429
2.66804
2.73718
2.39539
2.61767
2.11326
2.40395
2.73801
2.59515
2.26448
2.47604
2.75048
2.68429
2.74834
2.70633
2.59334
1.96737
2.20701
1.87186
2.61681
2.564
1.61426
2.62273
1.9813
1.63511
2.58878
1.91223
2.62219
2.23126
2.85669
1.9813
2.57662
2.84244
2.69362
2.74419
2.4927
1.46408
1.7394
2.13631
2.1853
2.54646
2.13162
1.75479
1.44851
2.48365
1.54178
2.15334
2.4342
1.69745
2.33177
2.54587
2.46596
1.49361
1.62123
2.02004
1.66014
2.04577
2.18842
2.22131
1.61159
2.02201
1.45798
1.44625
1.60043
2.01888
2.18315
1.44304
1.60264
1.59749
2.01279
2.01539
2.18107
2.17901
1.61599
1.82399
1.72512
2.17476
2.09543
2.28379
2.37939
2.60469
2.39426
1.83803
2.12959
1.82802
2.3939
2.60793
2.12843
1.83041
1.82571
2.39345
2.60481
2.39131
2.60891
1.85202
2.2073
1.90095
2.61145
2.40244
2.44009
2.63887
2.45593
2.38241
2.47613
2.48711
2.45758
2.55069
2.40197
2.49084
2.4519
2.45663
2.55168
2.39505
2.54679
2.40758
2.30027
2.10079
1.98214
2.50677
2.72983
2.59389
2.68396
2.45226
2.44388
2.46887
2.36454
2.54547
2.55881
2.31671
2.33974
2.4084
2.50112
2.58454
2.08959
2.61088
2.23444
2.59573
2.61473
2.14493
2.62222
1.77326
2.17695
2.61227
2.6246
1.78035
2.60349
2.16209
2.61836
2.18459
2.61642
2.57966
2.10873
2.61249
2.61284
1.60725
2.01812
2.54367
2.58521
1.70356
1.37249
2.61046
1.49166
1.88166
2.47512
2.37395
2.58307
1.66056
1.38751
1.27043
2.36324
1.38229
2.4969
1.50685
1.29177
2.26841
1.25099
1.34208
1.71899
1.27288
1.47714
1.23573
1.87121
1.23292
1.26389
1.41333
1.55381
1.22994
1.22713
1.2422
1.27726
1.34427
1.24014
1.22866
1.23507
2.62795
2.58349
1.48308
1.22518
1.23754
1.25877
2.32571
1.22507
1.2561
2.52628
2.86584
1.23786
1.22506
1.90289
2.84187
2.75024
2.68593
2.85752
2.86388
2.51766
1.99961
2.69796
2.83134
2.81601
2.58828
2.28621
1.93376
1.5619
1.46288
2.05053
2.86844
1.91715
2.63404
1.46707
1.26493
2.83267
1.6984
2.54752
1.33053
1.83682
1.41063
1.24826
1.67707
2.82011
2.28733
1.40077
1.80388
1.32135
1.24683
1.89348
1.26607
1.236
1.23355
1.42785
1.27503
1.22701
1.3072
2.37225
1.49697
1.23747
1.35131
1.26534
1.22852
1.51167
1.22936
1.33058
1.2268
1.26965
1.24015
1.22556
1.32155
1.23692
1.22546
1.3349
1.22553
1.23873
1.2298
1.3373
1.22554
1.22943
1.23756
1.23903
1.32643
1.2299
1.22846
1.23465
1.30504
1.27894
1.22523
1.23118
1.22727
1.34797
1.86183
1.31734
1.2602
1.22548
1.22882
1.23006
1.23938
1.22505
1.22554
1.25586
1.22512
1.22826
1.22623
1.24494
1.45793
1.27384
1.23513
1.22514
1.2258
1.227
1.28174
1.22537
1.2273
1.23527
1.22505
1.22656
1.22537
1.22931
1.22631
1.22515
1.23273
1.22503
1.22589
1.22528
1.23227
1.2262
1.22526
1.22892
1.22503
1.22514
1.22583
1.225
1.225
1.225
1.225
1.225
1.225
1.225
1.22682
1.22523
1.23128
1.22556
1.22501
1.22515
1.22502
1.2316
1.22653
1.25038
1.22606
1.22502
1.22506
1.22527
1.225
1.22519
1.22502
1.22513
1.22547
1.23033
1.2266
1.22658
1.22513
1.22507
1.225
1.22511
1.2268
1.22506
1.22505
1.22625
1.23941
1.2251
1.22624
1.22505
1.225
1.22616
1.22502
1.225
1.22505
1.22508
1.22569
1.22504
1.2253
1.22502
1.22551
1.22506
1.22592
1.22503
1.225
1.22501
1.22632
1.22504
1.22513
1.225
1.22502
1.225
1.22531
1.22594
1.23308
1.22506
1.22553
1.22502
1.225
1.22502
1.225
1.22501
1.225
1.22505
1.22514
1.22636
1.22554
1.225
1.225
1.22501
1.22502
1.22506
1.22508
1.22508
1.22501
1.22542
1.225
1.22503
1.22501
1.225
1.2264
1.22501
1.22523
1.225
1.22506
1.22501
1.225
1.225
1.22501
1.225
1.22501
1.225
1.22503
1.22538
1.22501
1.22502
1.22533
1.22513
1.225
1.22501
1.225
2.8548
2.85387
1.22657
1.79614
1.75781
1.21732
1.84459
3.2403
3.01467
3.17346
2.6792
3.61102
2.28948
3.63774
2.17688
2.41424
1.22626
1.32901
1.33701
1.45073
1.35204
1.46466
1.61869
1.51037
3.03842
2.84243
2.67213
2.66228
1.22542
1.22596
1.22508
1.46944
2.02956
1.62276
2.06884
1.64256
1.83689
2.3783
1.86129
1.50368
1.61274
1.85389
2.13914
2.25569
1.7508
1.54167
1.95006
1.64891
1.88025
2.22744
2.34925
1.77748
2.72605
3.18215
3.41908
3.19345
3.46244
3.7351
3.31954
2.62477
2.72386
3.29285
2.7993
3.37419
3.28998
3.82014
2.35894
2.13616
1.82859
2.12588
3.2647
2.60866
2.84015
2.46373
2.25706
1.87778
2.16318
3.30797
2.71101
2.90011
2.76061
3.02477
3.0328
3.00191
3.00932
3.04667
2.79967
2.27194
2.72334
2.76614
3.2522
2.86226
2.82217
2.15436
3.87301
3.26523
3.80994
3.6364
3.60532
3.87341
3.53094
3.37586
3.79101
3.84647
3.60503
3.61853
3.85301
3.32101
2.93485
2.71647
2.59772
2.94832
2.99202
2.32091
1.58656
3.33282
3.56741
3.73881
3.57472
1.62243
2.43872
2.85677
2.62825
3.41238
3.32334
3.40706
3.14699
3.11748
3.27396
3.25362
3.24568
3.70626
3.48222
1.46034
2.07781
2.71311
0.775898
1.06286
0.724373
0.857165
0.614541
1.66638
1.66156
1.46511
1.24874
1.09549
0.775535
0.825649
1.05512
1.54072
0.91985
1.56064
0.58733
0.81483
0.67489
1.08332
1.14895
1.19827
1.02418
0.899584
0.759224
0.798223
1.17923
1.01379
1.223
1.04105
0.943517
0.947366
0.809002
1.13963
1.26129
1.2408
1.18454
0.558945
0.675841
0.637204
0.998605
0.930049
0.94952
0.961435
0.943161
1.00362
0.868328
1.26087
1.25497
1.07909
1.10837
0.773732
0.712606
0.727264
0.829873
0.854873
0.867078
0.830232
0.798518
0.77332
0.758127
0.889241
0.845672
0.915497
0.835593
0.881138
0.768516
0.755714
1.05293
1.03761
1.09829
1.00308
1.37319
1.44078
1.6584
1.61051
1.60726
1.45065
1.35756
1.40595
1.55601
1.35306
1.21158
1.41315
1.22175
1.35298
1.37722
1.4395
1.65493
1.63264
1.60945
1.44645
1.38578
1.50294
1.4062
1.17242
1.26249
1.4101
1.50482
1.18167
1.39175
1.54755
1.4084
1.23252
1.34729
1.35156
1.23545
1.03379
1.13319
0.996797
1.00312
1.03422
1.13515
0.920652
1.0158
0.940925
1.15731
1.04119
1.14338
1.03242
0.92785
1.27291
1.21512
1.54783
1.4251
1.51426
1.29065
1.19423
0.884532
1.24242
1.19338
0.787941
1.13565
1.2025
1.7561
1.0784
1.54727
1.10682
1.09276
0.907852
2.1567
1.70774
2.23269
1.32333
1.00258
1.13725
1.03627
1.25113
1.12447
1.13644
1.25056
1.02731
1.12468
1.06841
1.26355
1.21004
1.24491
1.28372
0.836355
0.808974
0.873208
0.862496
0.940855
0.969755
0.889657
0.952358
0.949282
0.997158
1.0615
1.12334
1.16682
1.10461
0.955391
0.840425
0.910615
1.00731
0.977907
1.05545
0.928235
1.16497
1.21532
1.12618
1.31888
1.45441
1.4413
1.34576
1.09278
1.15144
1.06011
1.15655
1.33662
1.18885
1.27785
0.961431
1.17816
1.05217
1.08014
1.11159
1.20952
0.992879
1.38091
1.3463
1.23487
1.24071
1.58137
1.35813
1.39507
1.15243
1.00374
1.05632
1.25031
1.31186
1.38431
1.18447
1.44794
1.69184
1.40963
1.4696
1.79709
1.80905
1.49501
1.61805
1.25078
1.5425
1.39616
1.68176
1.74817
1.32201
1.11985
1.08331
1.30279
1.1539
1.25134
1.17081
1.03421
1.2605
1.51907
1.44064
1.65071
1.38849
1.29833
1.44053
1.58477
1.74623
1.94492
2.30593
2.00439
1.77126
1.5934
1.52332
1.64397
2.29271
1.90624
1.96438
1.71999
1.44598
0.160849
0.0761091
0.149991
0.523562
0.508712
0.737571
0.815605
0.745398
0.439322
0.0695932
0.0745934
0.0712288
0.725731
0.315711
0.596021
0.303756
0.149411
0.307467
0.305262
0.163204
0.334323
0.328036
0.167468
0.0722186
0.0854871
0.0860764
0.0914552
0.075683
0.0762131
0.0938411
0.152601
0.323907
0.311778
0.34934
0.22352
0.383476
0.180861
0.70273
0.701963
0.506245
0.532808
0.715852
0.529838
0.714687
0.0700713
0.069717
0.070711
0.077172
0.0739351
0.0746413
0.0798472
0.0707262
0.0908955
0.0861129
0.0823065
0.140583
0.104324
0.106152
0.070462
0.0728685
0.0694499
0.0809509
0.124231
0.104417
0.0899911
0.513879
0.707593
0.704221
0.540641
0.713468
0.554377
0.714278
0.136244
0.242364
0.10489
0.11933
0.388681
0.299834
0.154636
0.222301
0.402127
0.508127
0.525558
0.557378
0.38695
0.244518
0.440953
0.462141
0.731844
0.653446
0.628599
0.519191
0.304003
0.566198
0.726153
0.743049
0.616337
0.624031
0.562492
0.725171
0.159738
0.352335
0.542255
0.594626
0.425027
0.206303
0.269893
0.12419
0.240491
0.104397
0.118259
0.363094
0.293848
0.14279
0.577755
0.721746
0.682044
0.739899
0.644679
0.600117
0.724278
0.156381
0.311987
0.556866
0.463311
0.404149
0.260467
0.192791
0.090085
0.238923
0.0744547
0.155652
0.677985
0.443566
0.935961
0.890718
0.0733244
0.0880531
0.0938898
0.0935268
0.102684
0.158629
0.186845
0.0774728
0.154939
0.111426
0.194497
0.128413
0.254436
0.368716
0.366812
0.178159
0.399918
0.587286
0.351015
0.389762
0.618363
0.196356
0.493176
0.233076
0.626333
0.371043
0.415808
0.663767
0.46906
0.349305
0.572413
0.461755
0.716643
0.569022
0.670857
0.438282
0.577914
0.316153
0.491692
0.760766
0.712961
0.598391
0.755411
0.773051
0.588566
0.624177
0.898146
0.79138
0.771695
0.672576
0.821967
0.837184
0.914863
0.81667
0.721098
0.798156
0.619755
0.690693
1.3252
1.25886
2.31485
1.74133
1.08018
1.05097
0.64567
0.818519
0.768569
0.831748
0.781974
0.936362
0.929159
0.735999
0.880729
0.854275
0.834326
0.80867
0.954337
0.979995
1.44568
1.00657
1.12465
1.26546
1.01378
1.13192
1.45461
1.22014
0.890905
1.02107
1.02918
0.898626
1.0585
1.23038
1.05914
1.2869
1.03161
1.15227
1.53547
1.186
1.48236
0.942845
1.0495
0.918572
1.07904
1.30049
1.2564
1.11104
1.29482
2.17731
1.56091
1.30413
2.18887
1.57355
1.75236
1.32956
1.86186
2.22992
1.67811
1.60921
1.37501
1.78839
0.789611
0.0943573
0.18991
0.709609
0.539041
0.81132
1.08282
0.741284
0.967268
0.571259
0.724866
0.0880551
1.08339
0.913265
0.93304
0.732685
0.354469
0.29092
0.423119
0.35007
0.457849
0.588061
0.606907
0.11209
0.201848
0.153896
0.248276
0.188689
0.394495
0.503671
0.0854877
0.167549
0.145832
0.215972
0.180746
0.368574
0.407344
0.710638
0.708783
0.564023
0.71127
0.576718
0.612121
0.709553
0.549418
0.713708
0.555509
0.735331
0.935723
0.843251
0.824514
0.598937
0.453036
0.3526
0.636144
0.874007
0.758643
0.780739
0.695061
0.841668
0.645528
0.776379
1.03999
0.925198
0.882027
0.59445
0.793467
0.473887
0.697452
0.997639
0.908643
0.818683
0.652928
0.706945
0.60041
0.665489
0.72789
0.723139
0.711972
0.718462
0.730054
0.635555
0.688956
0.754434
0.78159
0.721891
0.358012
0.554897
0.328302
0.588527
0.706427
0.723452
0.600678
0.481864
0.739202
0.445209
0.644155
0.818187
0.84461
0.652443
0.873365
1.0037
1.007
1.0567
0.972762
0.930411
0.97443
0.827952
0.965325
1.0291
1.04319
0.972058
0.920935
0.906608
0.744796
0.762081
0.870617
0.778171
0.825929
0.795356
0.736088
0.768518
0.812041
0.978966
0.867266
0.906017
0.845513
0.750141
1.932
1.97794
2.48344
2.70926
1.32351
1.19141
1.58216
2.45239
2.77944
2.87218
2.96532
1.24071
2.56833
2.07082
2.80498
2.24258
1.2141
1.22037
1.25366
1.42388
1.46907
1.50063
1.56473
1.25206
1.40143
1.30869
1.69684
1.5527
1.67408
1.849
1.6162
2.07842
2.92123
1.46702
3.06008
1.0802
0.891853
1.12719
1.44452
1.54506
2.36211
2.89324
1.12927
0.938913
1.26248
1.25875
1.62968
1.60136
2.62036
1.96832
1.35876
1.22534
2.04697
1.95532
3.48929
3.11796
0.93139
0.915917
1.03843
0.957767
1.08884
1.07091
1.13286
2.10151
1.70287
1.21334
1.98523
2.90287
2.77512
1.34634
0.989628
1.12736
1.02534
1.30301
1.17282
1.23046
1.37716
1.01135
0.9981
1.0771
1.03208
1.11438
1.18038
1.08989
0.992687
1.19903
1.04498
1.36183
1.1728
1.25305
1.47363
1.13809
1.35641
1.19192
1.42413
1.23502
1.29862
1.53758
1.23288
1.6987
1.31238
1.66633
1.28987
1.38915
1.84825
1.34459
1.51638
1.52813
1.61066
1.62491
1.88594
1.81407
1.29247
1.41226
1.48499
1.49883
1.57713
1.84984
1.77562
1.22862
1.05949
1.14803
1.25703
1.23866
1.35026
1.15594
1.13825
1.36408
1.23105
1.30203
1.33314
1.44359
1.19945
1.27314
1.40182
1.49561
1.47802
1.59554
1.78843
1.93154
1.71309
3.65712
1.42352
2.97061
1.75416
1.01727
1.40201
0.966711
1.39675
1.33806
2.07581
1.5074
2.96587
1.33032
1.45782
1.22293
2.53371
2.39425
2.16166
1.46555
2.14987
1.48127
1.97076
1.0564
1.45692
3.26587
2.94357
2.94952
3.43364
1.60878
3.28926
1.44737
1.22171
1.38198
1.22304
1.55301
1.35455
1.35092
1.54946
1.40609
1.44985
1.41096
1.67009
1.63359
1.65359
1.68133
1.03653
0.971698
1.04713
1.07755
1.16827
1.17829
1.08792
1.30426
1.23924
1.31764
1.44586
1.53569
1.56434
1.48045
1.09343
0.98768
1.06504
1.19865
1.13904
1.22966
1.10887
1.48624
1.4577
1.43019
1.70839
1.81909
1.82171
1.72476
1.24187
1.37888
1.22782
1.35484
1.60998
1.37238
1.56477
1.40803
1.26736
1.34344
1.62819
1.67984
1.75187
1.54928
1.20369
1.46179
1.31781
1.328
1.35559
1.47344
1.21704
1.13447
1.1019
1.18507
1.17655
1.27047
1.31988
1.21986
1.26819
1.54599
1.31115
1.69086
1.40853
1.46645
1.80888
1.76041
1.65884
1.49227
1.49497
2.11707
1.67187
1.77771
1.99434
2.67634
2.00237
2.07284
2.62061
2.0419
2.78155
1.5976
1.76673
1.78113
1.97347
2.01624
2.32255
2.19565
1.52911
1.64012
1.72134
1.89663
1.9637
2.28785
2.2166
1.34716
1.53471
1.26995
1.38369
1.37471
1.49642
1.23999
1.85531
2.5397
1.92965
2.00694
2.47027
2.62792
1.93332
0.856506
0.726022
1.08116
1.06889
1.16259
1.14778
1.62944
1.69488
0.765819
0.834908
0.85185
0.955479
0.969562
1.00299
0.99895
0.812939
0.888809
0.870428
1.0097
0.987363
1.01333
1.03365
1.02612
1.20805
0.921195
1.03301
0.927422
1.07459
1.21818
0.960779
1.05161
0.941505
1.0916
1.28964
1.12222
1.24415
1.15081
1.37549
1.38081
1.43563
1.17305
1.1772
1.44676
1.18789
1.45274
1.40273
1.19441
1.55003
1.48124
1.22948
1.27464
2.00654
1.49359
1.28419
2.0278
1.64686
1.50868
1.33656
1.65741
1.38536
2.11937
1.71739
1.80528
2.22375
1.24851
1.30773
1.12733
1.37538
1.91256
1.55922
1.64716
1.65831
1.93662
2.25808
1.54975
2.40975
2.10459
1.79984
2.76724
3.17834
2.94964
2.20509
2.29037
2.42228
2.13455
1.70132
2.3133
2.19356
1.50817
1.89619
1.53672
1.81983
1.35071
1.20927
1.31516
1.15154
1.24429
1.38184
1.27346
2.08685
1.54905
2.19733
1.7879
1.62696
1.36159
1.31099
1.94283
2.37691
1.85949
2.49336
1.99385
2.08149
2.56421
1.65571
1.9265
1.44855
1.55579
1.80004
2.10016
2.4033
1.35003
1.47254
1.25944
1.38573
1.84819
1.49875
1.67689
1.9382
1.75547
1.44619
1.58378
2.56484
2.14916
1.9539
1.35742
1.51734
1.89748
1.44075
2.07505
1.62212
1.7687
2.75122
2.2611
2.77345
2.59481
2.06641
2.1444
2.35963
1.56985
1.69348
1.59651
1.30828
1.4136
1.471
1.36106
2.1321
1.7167
1.78208
2.24731
2.38371
2.06657
2.74884
1.95513
2.73161
2.43563
2.43678
2.78203
2.21774
3.23989
1.66144
1.46353
1.81241
1.66653
1.37528
1.54979
1.96186
1.59939
1.78282
1.46623
1.95033
2.58183
2.15784
2.38376
2.1301
1.67515
1.74925
2.25125
2.76804
2.84702
2.20305
1.25291
2.40688
2.55574
1.22501
1.27531
1.26783
2.85197
1.38764
1.38592
1.44168
1.7085
1.55284
1.49751
1.27642
2.01456
2.62209
2.73691
2.45519
2.9757
3.2139
2.39981
1.84036
2.70153
2.48293
2.01329
1.5882
1.6689
2.17485
2.85357
2.45432
2.25445
1.98215
2.05698
2.75535
2.4905
2.26719
2.57181
2.07833
2.22129
2.74321
2.41507
2.65921
1.4219
2.0645
1.67567
2.29277
1.84238
2.25287
2.69959
1.83911
1.93128
2.05941
1.68202
1.56351
1.55699
1.44067
2.60033
2.38784
1.94695
3.18854
2.45278
2.01485
2.72384
3.62467
3.20919
3.42924
2.52259
2.73681
3.12381
2.82975
1.79667
2.55431
2.68029
2.7638
2.41051
2.10607
2.23266
1.67231
2.26587
1.78583
2.73739
2.23395
2.39868
2.80939
2.61068
2.71101
2.15777
2.88517
2.41984
2.55903
2.89206
2.95423
2.78544
3.15969
2.88728
2.51266
2.64862
2.9863
1.11
2.42969
2.72902
1.97835
2.07331
2.9975
2.97559
2.1678
1.21265
1.35376
1.31767
1.50329
1.46599
1.66118
1.89742
1.58106
1.36242
1.72852
2.02422
1.68521
2.24452
2.6635
1.77159
2.66309
2.01876
2.79592
2.26896
2.55709
2.91584
1.6315
2.49856
1.86974
2.7336
2.1737
2.49401
2.91812
2.64111
2.68696
2.27654
2.36944
2.75314
2.72368
2.70908
2.59463
2.40689
1.97668
2.88862
2.55316
2.15353
2.7053
2.25286
1.80782
2.11265
2.77643
2.41672
2.68426
2.90109
1.54903
2.15742
2.30433
1.95807
1.76275
1.68806
1.9391
2.74879
2.80631
2.51096
2.76809
2.63517
2.799
2.63394
2.42779
3.15941
2.93641
2.64619
1.94613
1.78514
2.38322
2.96229
2.95408
3.16931
3.85647
2.54539
3.66799
3.51812
2.51183
2.85098
2.75131
2.67796
2.675
2.76064
2.7924
3.02685
3.19412
3.16989
3.62187
3.54628
3.51983
2.88059
2.96253
1.91417
2.51345
2.43117
2.93899
2.92168
3.07312
2.96586
2.82859
2.99461
2.85886
2.95984
2.36182
2.82541
2.65535
2.96387
2.99218
3.02012
2.80629
2.22472
2.79965
2.58892
2.55708
2.0705
2.6908
2.99791
2.95088
2.95016
2.82444
2.86217
2.47572
2.79311
2.66748
2.89122
2.96154
3.59775
3.61337
3.70473
3.7485
3.45933
3.50654
3.16883
3.28814
2.33477
2.8576
3.06138
2.99124
3.45449
3.29028
2.83247
2.89463
2.79503
2.67056
2.4793
2.86474
2.90699
3.02877
2.98764
2.81724
2.8631
2.38206
2.86964
2.9655
0.716423
0.145373
0.672845
0.117493
0.658614
0.673933
0.469475
0.323118
0.543059
0.531259
0.699956
0.68762
0.531635
0.555866
0.67171
0.482759
0.322764
0.110503
0.106883
0.34985
0.104211
0.385842
0.531592
0.695407
0.532892
0.686559
0.553936
0.563829
0.67211
0.5236
0.105612
0.524644
0.16834
0.543142
0.117646
0.479984
0.545929
0.64305
0.51411
0.528496
0.680524
0.551101
0.659281
0.514516
0.661085
0.537595
0.536775
0.673479
0.525237
0.658237
0.510537
0.10847
0.122703
0.521069
0.169551
0.540618
0.117988
0.383932
0.148499
0.11334
0.481094
0.107313
0.350048
0.1044
0.312409
0.113428
0.292971
0.135042
0.328266
0.125392
0.276693
0.454218
0.488414
0.375646
0.49091
0.416941
0.50914
0.416663
0.356249
0.452291
0.421775
0.485184
0.453908
0.407131
0.372789
0.201636
0.110947
0.108675
0.206718
0.109246
0.219403
0.195989
0.190874
0.108064
0.185101
0.103651
0.107077
0.193172
0.183305
0.203795
0.242032
0.104691
0.100268
0.10274
0.233308
0.209602
0.582016
0.543605
0.534882
0.563653
0.571292
0.547449
0.574238
0.582688
0.564778
0.544493
0.535823
0.575201
0.548024
0.572273
0.66265
0.683671
0.668174
0.683532
0.660668
0.660365
0.69004
0.590298
0.551219
0.551606
0.602802
0.590851
0.550498
0.590338
0.482338
0.537214
0.468482
0.521734
0.45597
0.537745
0.487342
0.277536
0.107123
0.107176
0.218007
0.244753
0.112302
0.244606
0.482428
0.468951
0.537901
0.522416
0.487616
0.538154
0.456097
0.341445
0.157408
0.3558
0.157387
0.351165
0.351209
0.145584
0.496599
0.544066
0.544372
0.491396
0.496199
0.544482
0.496127
0.312452
0.293244
0.113517
0.135
0.276927
0.32826
0.12539
0.45629
0.500599
0.374705
0.500755
0.417717
0.519829
0.417681
0.565565
0.517011
0.546162
0.529777
0.552641
0.558857
0.533257
0.572464
0.526583
0.540011
0.559317
0.569703
0.563184
0.538005
0.647527
0.670801
0.662973
0.677421
0.647631
0.655429
0.675334
0.580194
0.542604
0.548102
0.599369
0.580835
0.586844
0.541487
0.47819
0.507791
0.462478
0.525507
0.452126
0.482754
0.525864
0.288839
0.23122
0.110893
0.11
0.259559
0.256248
0.115651
0.320367
0.304233
0.11814
0.139358
0.290155
0.333941
0.129507
0.479732
0.514602
0.534641
0.467865
0.486857
0.530021
0.454008
0.344812
0.160388
0.356724
0.157927
0.353906
0.352088
0.148232
0.49337
0.536595
0.541514
0.490156
0.492844
0.495258
0.536742
0.317369
0.115539
0.294647
0.135337
0.329459
0.283298
0.127708
0.209676
0.215981
0.113159
0.111821
0.204251
0.22885
0.111767
0.357252
0.479633
0.451387
0.421989
0.373399
0.450775
0.40641
0.194972
0.108951
0.187263
0.103973
0.19566
0.186933
0.108221
0.209885
0.106226
0.244366
0.100482
0.212121
0.240426
0.103911
0.515709
0.419695
0.145671
0.10569
0.979835
0.890557
1.1966
1.05775
0.110101
0.146101
0.155925
0.244928
0.261431
0.394376
0.370417
0.121243
0.242291
0.182225
0.374759
0.301007
0.444397
0.521463
0.0706136
0.362411
0.0706171
0.183937
0.0785919
0.0732732
0.0767804
0.0771801
0.0775335
0.0784781
0.0779582
0.0763043
0.0761587
0.0752082
0.0755877
0.0760395
0.0765989
0.0772758
0.0761193
0.0761229
0.0745554
0.0714503
0.0736491
0.0699818
0.0704591
0.0674324
0.079314
0.0808307
0.0677727
0.0713575
0.0761586
0.0758927
0.0694964
0.0709419
0.0728869
0.0704186
0.0751554
0.0690025
0.067844
0.067838
0.0979516
0.0849789
0.0709743
0.0689308
0.0723001
0.0751005
0.06845
0.0846333
0.0757521
0.0687442
0.0732588
0.207073
0.0890379
0.101201
0.0947297
0.10841
0.0722701
0.0763547
0.15016
0.264469
0.174844
0.110898
0.127527
0.0853117
0.248186
0.448647
0.273298
0.553751
0.686516
0.708706
0.522469
0.545186
0.906599
0.569741
0.705987
0.977731
0.991479
0.683263
0.326267
0.607164
0.418063
0.607745
0.791996
0.746535
0.680088
0.690145
0.937279
0.619455
0.750619
1.04766
1.01752
0.806374
0.107937
0.0893303
0.0857302
0.626397
0.080798
0.721385
0.905438
0.801078
0.0803382
0.0798337
0.0800328
0.125928
0.12794
0.135439
0.1321
0.082823
0.0820854
0.0806528
0.146278
0.13325
0.143709
0.161391
0.0914337
0.0839037
0.0828489
0.152974
0.180165
0.189377
0.147427
0.0965271
0.0924707
0.0865591
0.165996
0.254851
0.210883
0.192985
0.292821
0.640264
0.299976
0.325263
0.660814
0.314299
0.677901
0.357834
0.670186
0.318898
0.351187
0.765803
0.712395
0.398052
0.375907
0.439874
0.721176
0.818674
0.459389
0.360372
0.738943
0.408486
0.565719
0.830348
0.855136
0.49936
0.774718
0.46718
0.0792589
0.0699178
0.0787122
0.073467
0.0828229
0.0819696
0.0697467
0.0692791
0.082652
0.0814857
0.0813733
0.0810262
0.0821612
0.0823128
0.0811778
0.0825877
0.0828648
0.0806953
0.0811237
0.0813123
0.0809075
0.082316
0.0796408
0.0804935
0.0803846
0.0804998
0.0814144
0.0814661
0.0806672
0.0700524
0.0707613
0.0705052
0.0788058
0.0785541
0.0780426
0.0783677
0.0779673
0.0793871
0.0800562
0.0810415
0.0798077
0.0802656
0.0813966
0.0694563
0.0693
0.0699912
0.0767144
0.0777806
0.0782716
0.077667
0.0702306
0.0691312
0.0692758
0.0737155
0.0746676
0.0769441
0.0774314
0.0713049
0.0707147
0.0692902
0.0722129
0.070261
0.0740574
0.0760455
0.668733
0.284661
0.659312
0.14549
0.647806
0.667545
0.383788
0.290623
0.29794
0.144717
0.29239
0.146315
0.289659
0.303976
0.145145
0.529721
0.626096
0.520842
0.503356
0.632598
0.505066
0.650141
0.470161
0.113956
0.10784
0.323265
0.109132
0.348548
0.150951
0.303385
0.331747
0.143856
0.146504
0.154202
0.303617
0.147085
0.358507
0.472451
0.420008
0.44145
0.373667
0.443121
0.406657
0.2147
0.218818
0.113062
0.114044
0.207846
0.113108