/*--------------------------------*- C++ -*----------------------------------*\
  =========                 |
  \\      /  F ield         | OpenFOAM: The Open Source CFD Toolbox
   \\    /   O peration     | Website:  https://openfoam.org
    \\  /    A nd           | Version:  9
     \\/     M anipulation  |
\*---------------------------------------------------------------------------*/
FoamFile
{
    format      ascii;
    class       volScalarField;
    location    "0.0011";
    object      rho.c4;
}
// * * * * * * * * * * * * * * * * * * * * * * * * * * * * * * * * * * * * * //

dimensions      [1 -3 0 0 0 0 0];

internalField   nonuniform List<scalar> 
9443
(
3.05606
5.10213
6.23025
5.53754
9.27348
20.4894
4.40944
10.4672
22.0288
0.121646
3.40664e-05
49.4609
68.9653
70.2431
4.98002
2.83033
4.46928
6.82266
7.47534
12.39
13.9995
4.76523
5.11672
4.17435
17.8316
21.3518
19.6033
24.3635
6.77637
3.30524
5.51736
8.15994
13.2035
16.0069
31.6881
6.33425
10.0747
6.16357
25.5172
56.5881
28.7657
46.1076
6.75524
4.81132
7.41631
21.1738
25.5756
37.7329
40.8479
3.18364
2.84741
3.2059
4.21656
3.70878
4.18813
3.73324
3.46104
2.91339
3.28962
4.32436
4.03246
4.54985
3.82738
7.58485
15.5757
40.8908
29.6073
45.9232
44.4824
60.9835
4.50116
3.82407
3.84558
4.94483
5.84802
4.92213
5.88513
4.82568
4.5462
4.62182
6.97539
6.68814
6.78001
6.83898
4.24516
4.2709
4.33823
6.76809
6.49854
6.61433
6.65349
5.05302
5.43778
4.88693
7.45798
7.93997
7.14382
8.48569
4.65057
4.15342
3.94153
5.06537
6.53974
5.34185
6.08413
3.75085
3.69389
4.19925
4.39277
4.94071
5.54522
4.95611
8.0678
17.0322
55.4778
11.9725
43.7729
111.383
25.6101
5.20197
4.5529
4.62277
7.25929
8.12341
8.28926
7.12964
5.18966
4.51402
5.31659
6.91544
7.08613
8.4142
8.63426
4.51173
5.04713
6.28463
7.30094
5.81299
6.51277
8.41974
4.27368
5.74073
4.84771
6.40109
6.88
7.54549
5.77583
5.59544
4.9993
6.88039
7.45472
7.5049
5.55755
5.03561
6.36746
7.52271
7.84422
9.28922
10.2456
13.0544
11.3612
6.05466
7.67407
7.5189
9.84002
10.0545
12.8978
12.6387
5.66713
6.37353
5.4037
8.65093
7.59148
9.27319
10.6256
20.2729
76.7736
124.319
48.0708
52.4139
69.8423
68.8862
5.73518
5.46511
7.07411
8.10474
7.69299
6.03247
5.17415
6.45265
8.15329
8.76375
12.4507
8.80773
6.4238
8.20379
5.78907
7.33522
8.7682
7.48333
12.3487
8.80481
10.0212
5.96297
8.83755
6.55155
7.34836
9.22341
9.99747
6.71649
6.90872
7.66657
8.37603
8.30948
9.02941
11.0274
10.2169
10.17
13.9673
11.9228
17.5317
19.1612
14.4719
24.8212
55.6466
52.2542
45.7382
64.8231
67.04
0.028865
80.2519
20.1324
49.144
46.7119
24.2986
8.94528
2.01935
51.828
6.60838
9.19332
9.60913
12.8883
9.04217
6.97489
8.4965
11.8291
10.5606
18.0191
20.9273
10.6926
21.3243
11.6018
6.38635
7.93748
9.56839
10.5102
13.5658
13.0133
16.9677
12.6926
12.6379
18.9984
26.4009
11.2857
22.8788
14.6125
11.5036
11.0216
20.1197
20.036
20.5835
11.2406
11.2903
8.47664
9.25741
10.8052
14.4536
11.7505
10.0461
7.78546
9.85607
13.7648
14.0124
17.5231
24.7539
25.1658
17.1901
9.89299
6.92914
10.1583
18.1515
11.7079
12.0262
18.6495
14.7329
18.3258
12.8455
26.9061
18.5705
23.5045
33.4893
12.3972
14.0404
25.5134
21.4417
22.1536
14.343
12.1603
10.4009
10.6439
7.61838
8.60907
19.1905
12.3086
12.2386
10.9364
12.6018
8.43306
12.961
23.3588
14.9586
20.1529
52.7713
59.1061
29.2827
0.667732
0.124308
55.574
72.129
10.7826
13.7513
9.76983
15.7977
10.6458
13.3656
20.9941
14.9716
32.4988
17.9727
23.3588
32.036
18.5851
41.8
17.3352
30.9364
17.7251
23.1561
34.3246
38.1757
22.6703
11.9349
21.6037
12.2435
25.4952
15.0615
15.4816
25.8721
15.2425
22.9164
13.1948
16.7119
29.6183
27.1001
19.2932
9.49042
12.8843
10.24
14.0017
17.2833
18.9172
12.9328
10.0614
18.9282
18.9681
24.0957
14.8927
12.1974
14.9277
10.2412
20.4916
13.2476
28.8028
18.5268
24.4175
36.6604
11.3289
18.8133
12.2988
15.7706
23.4919
26.1927
14.4391
16.0204
22.3693
30.9017
26.3472
36.7629
37.5437
56.0943
20.7734
32.1281
32.5033
37.0654
37.9463
57.4299
52.5382
31.8079
32.4482
41.9014
69.9477
24.0522
54.6872
45.116
18.852
34.5101
24.4683
33.2944
23.6091
29.8275
37.8378
18.3448
15.8745
12.1407
17.7068
43.1917
25.147
29.2115
27.6823
34.6125
39.1613
42.5459
45.7313
52.0751
55.9762
31.7349
40.6965
54.5626
40.1557
46.5627
44.2157
30.6004
26.3141
28.5616
18.1594
33.2531
55.1246
44.4161
46.1691
25.0693
25.6225
15.4413
20.6675
62.9704
36.5789
34.9292
20.4412
33.4686
36.3534
33.8852
36.5713
45.1128
45.2352
21.5749
40.5731
39.0333
35.4505
37.7203
45.6056
47.6408
31.4072
31.8578
21.5361
22.0732
37.8471
32.0737
31.8382
23.6495
36.3819
35.1952
38.6471
33.0181
26.8649
33.3246
83.4726
11.8685
83.2743
0.000163266
25.189
0.432695
86.8099
21.6518
34.8804
28.9765
61.5393
39.079
32.3555
19.5939
37.032
45.1408
44.7782
51.8922
50.8378
51.4412
56.5096
54.6319
1.29817
68.6787
0.0711015
78.7393
0.236947
5.02374e-05
41.2477
39.8598
32.2104
37.5754
49.4392
43.3711
45.3953
32.2675
77.2011
48.5694
82.7868
55.1002
85.2661
116.283
40.7888
38.7691
31.8199
38.2602
49.3215
43.5127
46.0623
45.3784
84.3666
65.0968
98.2317
65.1045
89.1461
97.3246
29.6462
82.3216
88.9662
78.6302
55.2118
45.4011
51.3501
50.8737
80.2306
52.4336
78.3502
70.0889
92.123
63.4668
39.3759
66.8347
55.3953
62.7521
54.8722
62.8313
69.7744
50.3389
62.8752
58.9335
71.2652
58.7026
71.6178
57.6217
47.5281
64.4567
66.5278
59.2135
57.3758
62.4704
68.9204
52.0828
67.5122
58.2909
67.1799
60.6529
63.6665
70.0262
45.6436
49.3575
45.6204
48.9681
51.3258
51.3114
49.0608
45.1161
58.7163
55.2603
54.9904
49.0797
52.009
52.1898
49.1654
55.8591
52.6938
58.5984
56.3545
59.6754
62.0776
47.1908
46.298
44.3802
48.4482
52.5263
50.4475
50.5041
43.9948
46.6909
43.9076
47.9615
49.9819
48.018
50.0013
49.8261
48.5276
46.3172
49.428
53.9307
51.8403
51.4213
79.0111
74.9929
79.9854
85.3871
81.8281
80.7997
86.2164
113.086
120.455
93.1572
107.799
120.758
109.358
121.114
74.3827
73.7729
66.6644
69.7555
81.2987
75.611
76.0258
49.909
57.5444
54.81
56.2241
54.167
59.0738
61.0346
52.4451
60.5524
57.6595
57.6979
55.1707
60.1463
62.667
76.6193
71.5899
73.5438
80.0244
78.3417
75.2934
81.3758
81.8348
90.4864
64.5724
69.8316
81.1402
91.9412
64.1294
65.3353
61.575
58.9502
65.6634
29.2099
67.6912
71.5523
64.5572
68.604
62.9
66.1448
9.39932
67.9878
71.6509
9.79115
9.45837
44.6127
39.6213
48.6984
9.46857
40.1173
37.2507
52.3194
4.61128
20.5496
8.31896
5.27128
28.296
44.8354
42.6031
14.8075
25.9415
5.95503
36.667
31.2129
64.8099
48.2884
41.4368
17.6062
23.8505
40.3157
48.8864
60.3569
39.1389
38.3584
52.4865
5.98728
4.67203
6.06336
7.94289
8.02405
10.8968
10.7844
4.86448
6.88374
6.31687
9.03904
8.32495
11.3389
12.4184
6.99272
7.88535
10.3217
9.49698
12.3705
14.4057
17.652
10.9715
8.54705
16.0277
12.0247
15.549
22.8006
30.8192
12.5161
12.682
8.42615
15.8026
24.0795
24.3902
15.6225
17.8723
14.2901
9.41432
14.2346
17.8095
27.3157
27.4038
9.42135
14.3124
14.247
17.8931
17.8226
27.3443
27.4555
9.69423
13.3053
8.80447
16.5138
28.3542
25.5623
18.2683
26.0434
14.7071
14.843
20.609
32.1445
20.4032
32.1703
10.662
14.8379
18.4976
16.2976
20.2061
28.3913
30.974
16.757
26.644
15.3897
21.4192
34.3723
23.3984
32.7114
11.3312
22.2745
14.0091
33.2447
21.5493
26.8813
40.1945
15.0132
12.3114
19.1157
28.7758
23.4845
35.5988
42.2044
19.2697
35.2854
23.2354
37.3255
26.9295
32.1366
41.4993
46.0754
40.1802
28.9965
39.004
52.9301
46.9309
46.7245
25.143
29.8689
18.2697
34.8502
57.4946
48.7837
45.297
39.8297
40.531
32.0202
40.1907
32.1055
40.9248
45.015
22.9688
47.1352
37.1255
37.1336
22.8484
39.8358
47.7283
40.3399
32.151
32.1748
41.0853
44.9434
40.83
45.182
37.2038
22.9931
22.8652
39.9531
47.537
47.9436
39.8379
29.0711
38.052
42.5579
37.7506
38.0596
28.874
37.702
30.0083
39.8377
43.0152
40.7109
38.7064
32.3807
38.1449
32.7997
41.73
34.8512
45.1268
41.0963
42.6798
46.6416
23.9518
41.5059
26.58
47.6613
40.5341
42.8553
49.3344
43.0417
44.2567
36.428
41.8817
52.9861
49.1615
47.5174
43.5318
44.6888
38.5285
45.9376
54.3153
50.5648
49.8525
53.4226
46.7952
31.5155
46.9541
57.7786
52.2368
52.8968
11.0462
67.1006
16.6396
40.4057
34.0636
20.4679
28.0737
45.575
12.7496
16.9286
14.0483
2.70501
2.40483
4.2463
22.883
3.73415
20.7889
15.6347
3.74252
2.94327
14.5263
4.74432
27.2035
25.3202
2.44369
2.7186
2.76213
3.9331
3.99114
4.49983
4.44199
2.53917
3.06312
2.87148
4.3719
4.1271
4.6505
4.94419
3.2744
3.35404
4.74035
3.77167
5.27028
5.40668
6.09452
3.14178
3.78563
3.18899
5.22466
6.23868
6.30446
5.16589
3.55337
3.93982
3.31662
5.39976
7.02239
6.52529
5.76914
4.41179
5.22137
4.36966
7.20274
6.04658
7.11365
8.65188
12.9208
6.92215
7.01219
7.90474
14.4545
7.8218
14.6122
3.92715
5.48411
4.47539
7.88694
6.38568
7.32544
9.24466
13.3059
7.62037
7.22084
8.13565
15.9427
15.0336
8.6313
6.44533
5.36543
8.96755
6.75448
8.27591
11.7606
14.8819
15.219
8.24969
9.18696
17.4274
9.45311
10.706
19.6122
8.10623
10.9069
6.38031
6.54954
5.25981
8.73975
11.3187
9.2606
17.029
20.9254
11.2917
11.3883
9.17681
17.1761
9.5394
18.7714
12.6634
21.4802
11.7566
17.6509
10.1888
12.809
27.2913
23.1242
19.4317
10.608
12.6236
22.8175
20.6965
14.309
11.3188
13.0915
28.8946
16.9633
23.5687
14.6457
19.6366
10.5525
14.3173
8.02368
10.6615
19.8552
12.6612
8.91814
11.3204
24.056
16.3133
21.2408
31.9376
16.3104
33.1534
28.1931
34.5432
21.9516
27.8347
39.85
20.1895
32.8446
39.3412
15.8443
33.6352
21.0843
27.5555
23.1006
56.0715
40.9676
21.6223
15.1919
29.156
43.0785
3.5014
34.5082
6.7323
6.9678
12.7306
6.73126
34.7098
3.39215
18.8434
4.08043
6.94701
10.1297
34.9825
33.9611
13.6805
19.1333
3.72208
4.21717
5.79397
4.50584
6.12854
7.11191
7.57511
4.10181
5.69905
3.41254
3.36611
4.05578
5.65734
6.92929
3.35965
4.08453
4.05063
5.66224
5.64605
6.92167
6.93949
4.60879
5.71305
4.98964
7.61132
6.71262
8.41466
9.74036
12.2885
8.97795
5.12824
6.69064
5.08346
8.94184
12.2513
6.69252
5.11634
5.08077
8.93978
12.2918
8.96239
12.2565
5.28116
7.49521
5.66831
12.6596
9.20711
9.88772
13.699
10.2458
23.1006
18.9725
18.9078
10.201
12.6905
23.0923
18.8679
10.1691
10.1771
12.6758
23.0559
12.6755
23.0855
8.5019
7.37089
6.34012
11.1511
18.9284
13.1782
15.6787
10.3569
20.0946
10.9349
23.4097
12.9489
13.7903
24.6134
24.4894
21.856
11.9964
15.384
30.1519
17.9673
26.8503
23.2075
16.7377
28.4573
16.6831
34.7618
28.5464
23.159
16.6787
34.8708
23.2273
28.5242
16.7078
28.5908
23.1746
23.8609
28.912
17.1516
18.454
36.3305
30.3299
25.6873
24.7375
36.6714
42.892
20.9022
39.0082
32.9728
29.0312
35.5312
26.8116
39.1664
45.7318
52.8715
35.8385
45.9527
30.2528
41.1666
47.7663
37.5707
53.6424
46.7163
47.7998
63.2623
54.9284
60.1344
46.3214
60.2101
53.1764
55.3948
48.1346
59.3484
58.6584
61.8933
55.1812
55.1195
53.0275
80.5656
70.9321
51.4643
40.6943
54.7667
83.1716
85.2497
62.6483
56.3938
80.6439
63.1581
53.7313
26.1614
54.0677
69.8752
60.1482
21.4474
28.6127
14.9062
22.546
33.6195
42.2816
55.6994
42.856
31.4694
19.2898
36.5277
46.528
50.2129
58.338
66.8349
55.3103
32.8292
70.0169
51.2617
66.734
75.2834
36.5065
69.8752
53.1271
65.7726
56.7928
66.4412
73.5966
70.2511
37.4373
57.3211
66.7516
57.4484
66.3211
73.9557
45.8517
52.8188
59.9856
59.7625
54.9148
63.0078
66.8506
67.3669
49.234
60.2998
63.5493
58.4651
65.2557
69.7815
49.2878
60.1045
55.915
59.7205
56.2546
62.6831
65.617
45.9659
49.9114
51.9406
46.4623
52.3536
50.4034
49.1088
46.6529
52.5404
49.053
50.3039
50.5983
46.3359
49.2827
49.2507
50.4605
46.4818
48.0502
54.1623
52.1119
50.8638
79.9247
70.0441
78.7993
74.8281
86.064
80.5536
81.7511
56.1222
62.4466
58.85
51.4199
57.685
55.6191
54.2579
74.1989
69.2641
77.0321
72.1888
81.9819
75.9771
78.8001
63.1661
73.5834
67.1667
70.8283
80.1378
77.7389
73.4715
69.0047
66.1129
71.2781
70.2091
52.0774
75.8049
72.679
70.5234
66.5958
72.9923
69.5503
48.7103
71.7456
76.1672
0.0745675
2.86502e-07
0.00138203
0.000653483
3.00657e-07
2.84756e-07
2.82774e-07
67.1243
63.2309
60.7273
64.7626
6.27228
70.6231
39.8413
69.9871
66.2229
63.6099
65.8145
26.325
68.586
71.8061
5.2778
64.3103
33.2446
71.5443
65.8829
61.8042
67.9507
50.8574
52.9292
52.4975
7.57823
53.0112
50.8601
52.5326
74.4893
89.7127
86.03
93.4115
89.7979
73.9251
1.9418
51.3852
55.5105
4.79389
55.8226
53.5881
53.4626
53.0773
84.5392
27.5049
86.083
91.9259
88.4765
53.3128
0.865208
5.00951
77.4065
80.328
82.3651
3.11976
21.0083
0.0278288
84.169
88.2372
83.1506
91.7668
85.6576
28.7115
0.943267
21.5084
0.029746
5.11081
3.31338
80.2064
82.0671
77.2207
71.7097
0.546257
1.16166
6.78632
23.2366
77.9405
77.7673
80.0829
22.2186
73.5827
0.18873
57.5732
4.71101
0.0386828
76.2562
14.3235
82.1776
2.25639
78.4836
10.2709
0.364126
1.15898
19.9206
0.0306696
4.31439
0.143772
52.5353
74.1982
25.3348
51.1546
57.2012
62.1754
0.467886
13.7047
6.56632
21.747
71.2485
89.7961
8.79574
10.9802
5.10194
11.3612
35.4176
23.3318
98.1875
13.7282
39.8954
11.5719
43.3637
152.725
71.4091
83.8396
5.82886
6.60102
7.37186
6.67053
7.43303
9.28615
8.50773
38.1285
53.7212
14.3625
56.1955
80.3765
87.4072
91.9789
6.92041
11.237
8.62553
11.3877
8.6987
10.8846
15.0097
11.8317
8.49845
9.28466
11.7352
14.4823
15.6957
10.8923
8.67422
12.2093
9.43807
11.8473
14.9697
16.2463
11.0129
13.7891
23.1595
23.2585
23.9924
24.1198
41.8972
42.1516
13.3581
16.2723
21.2778
16.7448
22.1376
25.1105
37.0762
14.9591
14.1788
10.8856
14.037
33.0513
19.8802
21.4577
15.5135
14.7719
11.0647
14.2125
34.7508
20.7629
21.9877
16.9464
24.3391
25.3018
30.9634
29.6755
44.8278
54.4222
15.741
21.1547
21.6225
39.6528
23.8026
23.2666
14.5265
63.8052
24.8439
36.4798
64.1486
39.4681
63.4715
108.649
26.3822
70.2743
39.2313
67.7904
40.5928
65.6505
113.376
23.6238
67.018
68.2466
44.6125
42.8446
71.2356
84.9088
41.4326
73.8563
41.1795
73.8842
85.7512
110.961
71.3066
19.9656
54.6578
56.2502
56.3033
32.2276
31.3471
33.2265
44.1221
78.4352
44.0588
75.666
81.0337
107.918
71.7077
1.4119
1.90739
1.16435
1.55784
0.993521
4.19305
3.63307
3.58221
2.31366
1.97802
1.37262
1.3733
2.39425
3.91732
1.81977
3.52607
0.921905
1.32641
1.07451
1.85743
1.98413
2.11021
1.71711
1.51117
1.30658
1.38219
2.10503
1.85396
2.21456
1.91954
1.59071
1.6748
1.3374
2.06799
2.53635
2.29822
2.35227
0.88082
1.1103
1.01798
1.71081
1.61825
1.5912
1.71078
1.70498
1.72918
1.52713
2.5212
2.35685
2.03252
2.16757
1.37443
1.25195
1.28305
1.54016
1.58152
1.61238
1.54736
1.44946
1.38576
1.35147
1.67575
1.6246
1.76677
1.57422
1.55429
1.31071
1.2515
1.90529
2.11001
2.16525
1.88016
2.63053
2.77789
3.68684
3.40056
3.46241
2.85445
2.53816
2.78882
3.55998
3.03275
2.41702
2.84563
2.45992
3.05971
2.80194
3.26026
3.85336
4.01055
3.64761
3.00355
3.09339
3.10239
3.00362
2.26453
2.39586
3.06739
3.16944
2.33435
3.13122
3.67694
2.95412
2.54526
3.29149
3.13915
2.67097
2.23195
2.47866
1.97968
2.00409
2.24495
2.49866
1.83018
2.06224
1.94144
2.68608
2.29458
2.56267
2.15896
1.86862
2.56111
2.74925
3.70594
3.24358
3.35263
2.83842
2.48879
1.8897
3.66678
3.30061
1.46689
2.20662
3.81452
6.68878
2.56477
4.31153
2.19212
3.219
1.81829
8.17717
4.73838
8.22883
3.24163
1.89337
2.44369
2.08399
2.73582
2.3273
2.54163
3.05614
2.01806
2.52842
2.40197
2.84386
2.70686
3.1805
3.28621
1.56093
1.55541
1.69597
1.7066
1.88279
2.04291
1.83574
1.85822
2.15633
2.21658
2.40648
2.48327
2.93244
2.83033
2.11104
1.68931
1.86844
2.27596
2.31603
2.61709
2.02997
3.01132
3.59696
2.92395
3.82418
4.72747
4.6562
3.91173
2.65499
2.793
2.31832
2.85487
4.17488
3.30191
3.53186
2.05986
2.88981
2.30291
2.52143
2.83191
3.20861
2.24555
3.418
3.54587
2.85726
3.13995
4.88678
3.94021
3.85862
3.35028
2.6139
2.70307
3.55222
4.17056
4.37055
3.41161
3.66086
4.58147
3.52337
4.12602
5.52771
5.41804
4.24681
4.25952
3.12944
4.11719
3.82294
4.93252
5.09242
3.67016
2.85153
2.9239
4.359
3.2326
3.68302
3.33538
2.52158
3.55809
5.25946
5.28375
5.66645
4.5095
4.14631
4.46773
4.94998
6.11186
6.62513
8.56696
6.64123
6.08887
5.0484
4.63058
5.50542
8.40982
6.19099
6.37104
5.77081
4.4224
0.248338
0.118759
0.229806
0.835007
0.802094
1.28767
1.36508
1.27268
0.703163
0.108043
0.115351
0.109411
1.19339
0.491496
0.990435
0.475207
0.22853
0.475754
0.471369
0.253177
0.526824
0.515671
0.260134
0.110752
0.131036
0.131729
0.141902
0.117724
0.118668
0.145754
0.234558
0.506477
0.484388
0.553132
0.349317
0.612039
0.281581
1.12074
1.11708
0.796418
0.856707
1.16111
0.84972
1.16207
0.108651
0.107529
0.108898
0.121148
0.115457
0.116659
0.125378
0.108955
0.140273
0.13238
0.128237
0.218509
0.16219
0.165095
0.109632
0.113094
0.107408
0.126574
0.194435
0.162964
0.141229
0.813854
1.14122
1.12804
0.873922
1.17538
0.903772
1.16729
0.212129
0.372159
0.163435
0.185502
0.608804
0.463196
0.240463
0.348932
0.6481
0.816822
0.868386
0.924656
0.621739
0.384366
0.715206
0.738519
1.24845
1.06293
1.05297
0.851321
0.479676
0.932576
1.20511
1.27271
1.04249
1.05921
0.923669
1.20683
0.246486
0.553255
0.861529
0.963306
0.665159
0.32008
0.419815
0.194144
0.371118
0.163156
0.184353
0.571598
0.45612
0.22263
0.95776
1.22014
1.18226
1.27637
1.10285
1.00523
1.21257
0.242252
0.493153
0.904276
0.742552
0.63556
0.406929
0.300952
0.141104
0.376159
0.116524
0.24327
1.18563
0.711666
2.17065
1.82734
0.114681
0.138424
0.147491
0.147148
0.161461
0.248487
0.293395
0.121338
0.242526
0.174618
0.305532
0.201397
0.40154
0.591292
0.582031
0.278917
0.638653
0.982125
0.55702
0.622403
1.04569
0.307744
0.799327
0.36667
1.05521
0.591935
0.668595
1.13466
0.761083
0.556125
0.960891
0.750803
1.31671
0.959249
1.16767
0.711887
0.962901
0.501807
0.806666
1.43807
1.26446
1.02332
1.3824
1.41524
0.983808
1.05631
1.87075
1.47295
1.43276
1.17517
1.69115
1.74516
1.98069
1.58422
1.33624
1.53741
1.04521
1.20939
3.44146
3.01267
8.04815
4.82646
2.76155
2.44685
1.10027
1.54169
1.4212
1.58512
1.46445
1.98919
1.95148
1.35683
1.8321
1.6793
1.71611
1.56521
2.09069
2.2749
3.71778
2.16086
2.65194
3.05505
2.19915
2.69448
3.77265
3.08094
1.84152
2.35625
2.40324
1.88149
2.49005
3.13699
2.49319
3.18565
2.30209
2.81626
4.27241
3.04894
3.93783
2.17508
2.52995
1.98991
2.61213
3.57325
3.28778
2.8398
3.28888
6.81962
4.22282
3.34206
6.93139
4.29608
4.90037
3.49129
5.60323
7.27751
4.91751
4.50026
3.78305
5.12472
1.33471
0.14727
0.294836
1.21733
0.868397
1.60101
2.61388
1.31704
1.7012
0.968324
1.22604
0.136434
2.81222
1.6066
2.44202
1.30134
0.559516
0.455557
0.677172
0.552548
0.740007
0.969422
0.981538
0.173384
0.312319
0.237479
0.386105
0.291579
0.622283
0.803826
0.132892
0.260905
0.225944
0.338241
0.280412
0.582951
0.654215
1.15729
1.16939
0.921341
1.18531
0.951836
1.02745
1.20104
0.880643
1.20817
0.907744
1.25405
1.74124
1.51452
1.40472
0.999596
0.716104
0.552018
1.07172
1.67706
1.29408
1.4851
1.13968
1.48078
1.07901
1.34078
1.98058
1.70627
1.52224
0.961327
1.37904
0.757111
1.19165
1.95104
1.76678
1.41539
1.11407
1.18647
0.999067
1.14377
1.2925
1.28462
1.23008
1.23164
1.29198
1.08091
1.19812
1.37401
1.42543
1.26138
0.568469
0.9245
0.515434
0.989546
1.35969
1.3651
1.02937
0.785159
1.28218
0.713319
1.09793
1.61541
1.62981
1.1362
1.58475
2.11411
2.1698
2.2436
1.91827
1.81136
1.82996
1.59143
2.15625
2.30757
2.72638
2.18437
1.78183
2.02869
1.33687
1.41602
1.754
1.46619
1.57101
1.49156
1.32029
1.46519
1.82655
2.52115
1.96472
2.01217
1.86777
1.46063
52.2326
6.93383
37.2457
13.3587
3.81713
2.64187
4.47374
8.55384
20.8426
18.6826
28.0111
70.6107
12.2917
46.9003
26.6322
8.62672
2.88853
2.97884
3.24747
3.43927
3.77153
3.93335
4.32319
3.26991
4.29587
3.67668
5.17122
4.32384
4.98557
6.02625
7.06118
8.84209
21.6751
5.26279
37.7796
3.30592
1.9061
3.16489
4.55995
4.30018
8.77879
22.0642
3.97397
2.17982
3.96648
4.6365
6.27306
8.99723
16.5698
8.72699
4.48663
3.98472
7.77024
7.24081
28.6996
47.2845
2.24445
2.1561
2.4988
2.53098
2.93248
2.81071
3.28826
9.10993
6.57554
4.06167
7.53938
33.4388
49.741
78.7686
2.70695
3.66707
3.03302
4.26791
3.51336
3.91331
4.73146
2.46392
2.58854
2.96957
2.71922
3.11114
3.79723
3.2894
2.57781
3.68576
3.01812
4.07164
3.33052
3.88598
4.7692
3.13138
4.7824
3.76046
4.98151
3.91117
4.70883
5.98392
3.24368
5.16276
3.794
4.95826
3.64104
4.26429
6.01496
4.42988
5.5067
5.50495
5.76801
5.75515
7.31963
7.14606
4.17224
4.98558
5.24549
5.18435
5.464
7.0411
6.69543
4.59705
3.16173
3.66417
4.7237
5.20657
5.93109
4.09607
3.5021
5.27263
4.01857
4.94429
5.75424
6.45427
4.31377
4.46835
5.05695
5.28995
5.54878
5.89306
6.86851
7.81923
8.98945
41.1331
5.47603
12.062
7.08252
2.37734
4.02083
1.98743
3.05381
4.17931
6.56195
4.36378
12.7536
3.69369
3.11158
2.53544
7.50359
7.11981
11.6737
6.84543
10.4968
6.34472
9.59183
2.67882
4.65889
17.5759
56.6518
17.5355
20.6521
5.17426
24.8782
4.44095
2.61794
3.24445
2.75502
3.86031
3.30089
3.47776
4.12193
2.89771
3.37103
3.18689
3.99747
3.75136
4.11047
4.34058
2.15868
2.05382
2.25566
2.45016
2.71847
2.85597
2.56101
2.62937
2.78547
2.90001
3.29641
3.41458
3.75511
3.62101
2.65259
2.17575
2.41118
3.08722
3.04955
3.44468
2.75167
4.20928
3.77158
3.61138
4.67428
5.69258
5.50425
4.89029
3.28611
3.55407
2.96688
3.76607
5.15214
4.19913
4.54441
3.86277
3.15822
3.29471
4.29588
4.94683
5.11291
4.14417
3.14285
4.70229
3.54828
3.74667
4.43333
4.97026
3.3141
3.01805
3.11561
3.54398
3.49182
3.96756
4.69099
4.12359
3.7429
5.48495
4.36806
5.97244
4.80869
5.61981
7.05845
4.94232
5.47845
4.22304
4.46789
7.08854
5.80054
5.30433
5.24781
7.62705
5.00563
5.55967
8.36083
5.74774
8.6452
5.02665
6.25807
6.16057
6.81628
6.72645
8.66694
8.42843
4.65714
5.51656
5.78202
6.18663
6.37765
8.40807
8.19943
4.07541
6.06799
4.04164
4.85059
4.56981
5.41176
3.60151
4.59852
7.26524
4.67566
5.23086
8.04866
8.24399
5.13237
1.66206
1.23729
2.78805
2.47338
2.59508
2.3995
4.37078
4.75365
1.32856
1.54398
1.6057
1.79195
1.85687
2.1249
2.07637
1.47232
1.89204
1.71877
2.1958
1.98616
2.24687
2.46775
2.36331
3.04461
1.8958
2.41217
1.9424
2.52505
3.10691
2.26226
2.5449
2.0595
2.66626
3.58439
2.92767
3.27306
2.45297
3.13864
3.20003
3.568
2.7146
2.76664
3.64257
2.85387
3.73205
3.38055
2.91728
4.27459
3.85641
3.20175
3.21422
5.88446
3.99698
3.27928
6.03702
4.47379
4.0839
3.55297
4.91255
3.87435
6.68372
4.87577
5.39692
7.48255
4.30103
4.36422
3.58698
4.6202
7.35924
5.63748
5.77684
5.6961
6.50265
8.66348
5.15773
10.3396
7.66225
6.52909
9.8142
13.2241
10.4016
6.48914
7.81215
7.9633
6.56859
6.3239
9.22606
7.95248
4.86414
6.7149
5.4376
5.88572
6.13819
4.57719
5.22591
3.73167
4.26958
5.64271
4.99216
6.44907
4.31636
7.29176
5.31187
4.77731
3.79824
3.45779
5.40585
7.57826
4.85507
9.31173
5.73275
6.38225
10.5507
5.70968
6.49085
4.58108
5.18558
6.54981
7.66031
10.3241
5.59717
5.77836
4.56675
5.73494
8.98992
7.03958
7.27063
6.25907
5.55415
4.34054
5.1518
11.2435
7.75907
6.79804
4.93617
6.2947
8.04706
5.96136
9.88879
7.5875
7.58692
12.4479
7.4712
9.96215
9.70869
6.04129
6.17248
7.65993
7.4853
8.17523
6.97497
4.68209
5.26934
6.20656
5.56638
9.34551
6.84224
7.01431
9.76383
11.99
9.08306
14.022
7.56217
11.7678
10.4611
10.4815
13.9977
9.62494
17.2875
8.0063
6.24238
7.91598
6.54473
5.19014
6.66807
8.51049
5.213
5.68281
4.40572
6.32124
11.4473
7.8149
8.9603
9.16771
6.41493
6.7629
9.62031
14.461
14.5456
9.3566
88.6769
70.0175
12.8236
11.4989
91.8843
90.7564
64.9334
6.13626
6.86749
7.19687
9.745
7.92342
7.61538
5.41981
7.50251
11.6479
11.8542
10.4564
17.6325
17.8639
10.2733
8.13546
13.7484
11.0648
7.85487
6.22278
7.26248
9.43894
14.6511
10.5849
9.87981
7.74335
7.83568
11.9254
10.8472
7.87197
10.3506
6.35407
7.55469
16.7931
9.51216
12.871
5.24053
8.84996
6.62658
10.1095
7.24614
10.117
15.0319
9.7514
11.0394
11.9485
8.9133
8.18211
7.40722
6.72128
11.5833
10.2567
7.2408
17.8239
10.4778
7.51507
11.8412
25.2266
15.4661
17.7678
9.67844
10.3115
14.1645
12.5466
6.37755
12.1175
14.2261
15.3194
10.1689
8.36224
8.8042
6.50373
10.5299
7.24865
15.1499
9.73071
11.3978
18.0659
12.3092
14.9869
8.81699
18.7706
10.7665
12.802
23.1694
24.4036
13.6198
17.3184
16.9253
9.7651
10.0227
13.921
3.41775
10.3405
15.0829
72.3662
8.68271
24.7398
25.7328
8.39381
4.06195
4.42684
4.34353
5.29135
5.20369
5.76271
7.2012
6.05307
4.88981
6.54839
8.50214
6.43009
9.62859
14.0081
6.19338
13.6802
7.78862
16.2634
9.01415
11.9975
22.3544
5.68572
11.3866
7.11632
13.9244
8.40753
11.2913
19.6025
11.3166
13.1803
7.56411
8.50806
23.8691
15.0309
12.8906
12.2443
10.744
7.53917
23.1562
12.805
8.82874
14.9636
8.95694
6.4364
8.41913
15.57
10.2279
14.2976
22.3762
7.25985
11.7856
12.5063
11.4493
9.24464
8.90369
9.34101
14.592
18.3206
10.3645
23.3304
12.7733
18.2482
33.4164
14.7851
23.6044
17.6911
15.048
10.4562
8.63001
11.7004
15.271
17.8347
19.6563
43.0205
12.7453
26.7901
23.9518
10.2802
20.8295
24.4468
29.2937
13.2859
18.5387
15.8536
15.8826
25.685
28.344
47.5775
28.6096
25.8787
15.7181
21.9888
7.95558
12.5702
11.8638
20.7117
20.4002
37.3547
28.7907
49.7537
25.7929
19.2218
32.6884
10.4476
16.9799
14.0438
46.3981
25.4396
29.4567
16.4523
9.5678
16.1179
14.0569
13.2878
9.10888
15.4234
40.8512
25.4099
23.9925
17.7984
21.1695
11.727
17.6947
51.495
33.2033
27.7717
28.6651
57.4581
37.5169
31.5756
23.9603
20.6201
17.0257
37.557
52.1008
36.6386
31.8665
20.2835
32.3025
20.6296
18.0008
33.344
17.7659
51.9999
11.7889
21.2662
33.8342
27.248
30.2882
16.559
20.0871
57.9907
37.7024
33.6145
1.0737
0.208498
1.01825
0.167838
0.994469
1.01245
0.687733
0.468796
0.808183
0.785727
1.05034
1.03237
0.788127
0.823978
1.01037
0.707117
0.467403
0.157994
0.153197
0.507188
0.148938
0.558872
0.79239
1.04787
0.794411
1.05208
0.835468
0.840452
1.01702
0.767678
0.150934
0.76924
0.240397
0.805012
0.168055
0.70123
0.815734
0.974857
0.768319
0.788034
1.04313
0.831442
0.99812
0.762865
0.994297
0.798875
0.799469
1.01197
0.779318
0.990798
0.750492
0.155126
0.175358
0.764254
0.242141
0.801547
0.168558
0.557213
0.213206
0.162171
0.704936
0.15383
0.50783
0.149222
0.446797
0.162036
0.41901
0.192857
0.469596
0.17908
0.395682
0.655409
0.716733
0.541702
0.719869
0.60147
0.748455
0.600788
0.513009
0.661268
0.607615
0.709795
0.662993
0.586359
0.536878
0.288769
0.158757
0.155342
0.295914
0.156256
0.313875
0.280923
0.273538
0.154892
0.265732
0.148387
0.153284
0.276768
0.263241
0.291667
0.346204
0.149629
0.143405
0.146946
0.33371
0.299951
0.877884
0.813944
0.795658
0.848885
0.858813
0.817971
0.867729
0.878944
0.850698
0.815355
0.797121
0.869274
0.818879
0.860379
1.00708
1.04386
1.02223
1.04358
1.007
1.00647
1.05057
0.893912
0.8291
0.829735
0.917957
0.896937
0.826124
0.8961
0.695503
0.790597
0.674985
0.763979
0.656627
0.790075
0.703368
0.39685
0.15305
0.153125
0.311792
0.349987
0.160406
0.349777
0.695637
0.675659
0.791664
0.765005
0.703779
0.790695
0.656812
0.488571
0.224781
0.509624
0.224751
0.502708
0.502768
0.207895
0.717641
0.804267
0.804761
0.712546
0.718199
0.803043
0.718076
0.446857
0.419403
0.162163
0.192798
0.396018
0.469587
0.179078
0.657519
0.732574
0.539344
0.73282
0.601508
0.762571
0.601458
0.854604
0.771184
0.824405
0.794869
0.832851
0.845831
0.79848
0.864347
0.784291
0.808816
0.842554
0.861099
0.847563
0.80487
0.98502
1.0251
1.01453
1.03444
0.987998
0.999132
1.02908
0.879486
0.817065
0.82466
0.912961
0.882538
0.891011
0.813506
0.690415
0.745585
0.667458
0.775016
0.652233
0.697679
0.774211
0.413251
0.330996
0.15853
0.157233
0.371458
0.366653
0.165252
0.458433
0.435426
0.168854
0.19908
0.415242
0.477972
0.185018
0.692273
0.754503
0.787075
0.674275
0.702829
0.779683
0.654341
0.493549
0.229076
0.511006
0.225535
0.5068
0.504078
0.211715
0.713494
0.794164
0.800756
0.71094
0.713904
0.716986
0.792514
0.454043
0.165093
0.421455
0.19329
0.47135
0.405273
0.182425
0.300554
0.309517
0.162063
0.159927
0.293139
0.327649
0.159958
0.514906
0.702545
0.660203
0.608071
0.537878
0.659224
0.585811
0.279574
0.156246
0.268885
0.148868
0.280381
0.268618
0.154983
0.300518
0.151868
0.349581
0.143727
0.303596
0.344025
0.148672
0.839508
0.667896
0.223662
0.163673
1.81212
1.54368
2.86586
2.12883
0.170292
0.224695
0.239568
0.372872
0.398709
0.613403
0.573846
0.187021
0.375041
0.280208
0.580007
0.461069
0.698184
0.835869
0.109695
0.575634
0.109123
0.286478
0.122443
0.113983
0.116397
0.116811
0.11728
0.11715
0.116452
0.114944
0.114813
0.114908
0.115414
0.115626
0.114999
0.11564
0.115385
0.114984
0.11411
0.109696
0.114579
0.107502
0.108186
0.104512
0.124086
0.126431
0.104992
0.110158
0.11603
0.115733
0.107368
0.110794
0.113889
0.108725
0.116987
0.106144
0.10463
0.105279
0.152921
0.132866
0.110369
0.10674
0.110903
0.114777
0.105933
0.132416
0.118465
0.106672
0.114526
0.323093
0.139771
0.158451
0.148585
0.169562
0.112971
0.119398
0.234526
0.414492
0.271993
0.173591
0.198909
0.133378
0.384299
0.718266
0.42388
0.89533
1.17638
1.22698
0.838473
0.858635
1.5847
0.901654
1.17267
1.81225
1.85472
1.12648
0.509596
1.02353
0.665534
1.00117
1.47905
1.32777
1.16046
1.13593
1.6724
0.993516
1.27109
2.09492
1.94967
1.41563
0.166549
0.138402
0.132229
0.960164
0.124604
1.13376
1.5724
1.32203
0.123953
0.122928
0.123191
0.189249
0.191955
0.203385
0.198733
0.127612
0.126579
0.124172
0.218988
0.199629
0.215478
0.241909
0.14155
0.129678
0.128124
0.230049
0.271753
0.285627
0.222026
0.149262
0.142766
0.133715
0.249394
0.387338
0.318627
0.290263
0.434332
0.982389
0.444742
0.48565
1.02811
0.469527
1.05733
0.534855
1.03551
0.473659
0.525557
1.2286
1.12094
0.600665
0.567763
0.675075
1.14919
1.35967
0.70679
0.543808
1.18286
0.61992
0.890933
1.37636
1.44256
0.773991
1.25471
0.716786
0.119028
0.108109
0.118397
0.113903
0.121134
0.1208
0.106848
0.106497
0.120821
0.120575
0.120467
0.120346
0.120476
0.120762
0.120513
0.121333
0.121387
0.1204
0.120654
0.120569
0.120357
0.120957
0.119537
0.119265
0.119176
0.120133
0.119915
0.120057
0.120322
0.107291
0.108054
0.107688
0.118419
0.118088
0.117707
0.118147
0.11763
0.118269
0.118892
0.119985
0.119645
0.119972
0.120149
0.106484
0.106284
0.107034
0.116208
0.117455
0.117843
0.117313
0.108611
0.106355
0.106554
0.112401
0.113804
0.116606
0.117294
0.110364
0.109118
0.106706
0.110259
0.107557
0.112698
0.115408
1.01252
0.418687
0.995471
0.210705
0.975377
1.00342
0.557483
0.423097
0.433804
0.20985
0.427368
0.210742
0.423682
0.442542
0.209325
0.788075
0.944281
0.77752
0.747615
0.952792
0.751343
0.978297
0.690668
0.163072
0.154213
0.46959
0.156546
0.506718
0.216834
0.440601
0.481343
0.207714
0.21084
0.221287
0.441166
0.21172
0.517456
0.693303
0.606223
0.647431
0.539278
0.649404
0.586868
0.307918
0.313645
0.161743
0.163367
0.298406
0.161936
0.334887
0.31622
0.371822
0.155234
0.147102
0.325207
0.151412
0.359593
0.291994
0.152218
0.282128
0.158746
0.29569
0.280299
0.157712
0.419908
0.209447
0.208873
0.418791
0.207198
0.423763
0.20815
0.704719
1.00571
0.731691
0.987539
0.766804
0.725905
0.988773
0.981464
0.702043
0.704441
0.713993
0.964795