/*--------------------------------*- C++ -*----------------------------------*\
  =========                 |
  \\      /  F ield         | OpenFOAM: The Open Source CFD Toolbox
   \\    /   O peration     | Website:  https://openfoam.org
    \\  /    A nd           | Version:  9
     \\/     M anipulation  |
\*---------------------------------------------------------------------------*/
FoamFile
{
    format      ascii;
    class       volScalarField;
    location    "0.0011";
    object      T;
}
// * * * * * * * * * * * * * * * * * * * * * * * * * * * * * * * * * * * * * //

dimensions      [0 0 0 1 0 0 0];

internalField   nonuniform List<scalar> 
9443
(
1062.21
1265.81
1383.79
1157.96
1247.05
917.624
1052.42
1006.94
840.289
287.926
287.926
301.911
287.933
434.836
1159.59
1034.6
1113.58
1463.09
1514.71
1399.85
1401.61
1117.19
1072.67
1046.92
1218.72
1193.42
703.913
625.032
1377.85
1086.08
1204.73
1551.75
1578.06
1393.89
1260.04
1190.09
1109.04
1106.38
1161.92
933.964
559.143
314.046
1045.81
1062.46
1040.72
628.382
544.568
322.535
299.148
1053.13
1038.98
1058.12
1156.62
1117.03
1150.83
1122.1
1086.3
1047.46
1068.62
1169.27
1155.01
1192.37
1133.76
1042.13
916.73
642.05
477.863
297.862
292.886
288.022
1117.76
1075.25
1079.82
1208.74
1242.66
1203.96
1246
1121.98
1080.43
1085.38
1162.36
1215.75
1219.73
1159.14
1058.5
1052.18
1063.73
1108.77
1064.58
1107.02
1064.84
1134.18
1115.34
1096.06
1167.65
1242.52
1228.33
1173.06
1130.88
1116.05
1091.66
1222.02
1280.19
1249.65
1257.08
1114.62
1122.87
1159.11
1191
1233.08
1296.71
1249.07
1449.92
1514.71
1025.91
1631.24
1147.77
491.101
1418.96
1088.95
1060.94
1073.3
1109.45
1049.59
1105.12
1061.72
1059.61
1056.62
1061.67
1031.26
1029.73
991.621
987.828
1157.64
1218.6
1258.74
1313.63
1295.11
1355.63
1350.34
1179.68
1319.3
1225.84
1383.11
1446.47
1480.05
1336.05
1311.69
1259.53
1470.46
1485.15
1490.8
1304.89
1266.49
1140.21
1222.07
1162.23
1258.64
1173.47
1163.29
1271.12
1081.8
1116.33
1077.97
1022.43
1090.2
1057.96
974.66
1062.47
1057.69
1067.22
1002.58
1022.24
975.325
948.163
1148.81
793.377
303.955
1208.07
293.132
287.936
458.155
1327.06
1313.84
1486.83
1523.5
1502.98
1356.19
1283.11
1359.65
1350.96
1470.7
1400.34
1473.71
1355.29
1353.73
1295.64
1309.52
1350.93
1420.86
1406.79
1475.65
1382.64
1365.06
1549.83
1404.36
1469.19
1586.3
1571.28
1439.01
1430.1
1511.8
1532.07
1554.3
1560.24
1597.67
1618.25
1172.91
1169.1
1264.34
1137.44
1268.65
1275.18
1091.79
500.61
289.792
287.929
373.659
287.943
287.926
288.768
866.348
288.343
288.972
803.387
287.926
287.926
292.788
1371.45
1376.65
1491.98
1401.94
1481.01
1394.82
1361.93
1143.11
1267.01
1216.78
994.511
1268.48
989.377
1144.12
1064.47
1046.47
1010.03
965.606
907.595
902.012
833.52
1137.91
1271.57
1210.07
938.888
1270.83
972.804
1123.26
1022.71
942.165
809.087
694.739
801.311
1026.2
936.648
1535.76
1591.83
1599.78
1541.21
1572.21
1580.85
1524.1
1053.35
1001.81
1078.96
1002.66
801.607
920.472
901.987
1001.65
1045.37
997.94
822.688
929.052
922.599
813.089
939.532
872.803
955.031
717.554
824.603
741.84
629.013
1010.47
884.653
734.165
669.732
778.048
982.812
919.756
1394.57
1502.35
1429.42
1468.25
1372.4
1504.33
1409.17
986.088
960.525
1026.75
904.095
742.137
868.004
787.659
288.132
456.452
747.241
287.926
287.926
290.028
287.971
1383.63
1410.06
1498.75
1419.61
1509.58
1520.07
1413.44
1266.44
884.873
1094.29
1047.94
1111.32
1251.18
808.806
827.825
669.417
934.903
864.686
472.563
583.927
749.164
875.186
618.22
868.028
540.259
800.574
791.66
528.158
808.328
591.525
847.662
767.609
451.721
498.868
724.045
1605.92
1600.91
1593.25
1585.31
1556.71
1522.71
1617.74
1500.21
1401.61
1446.37
1330.85
1488.69
1514.86
1413.38
998.703
850.284
951.45
675.638
811.306
732.865
588.886
1615.11
1472.19
1586.92
1547
1406.43
1360.07
1583.38
1276.16
1279.46
1107.23
1247.51
1022.46
1202.17
923.931
1020.94
797.217
928.325
676.366
810.017
671.32
528.349
981.365
1173.83
1037.52
587.085
1221.8
709.843
892.719
748.146
399.884
667.35
393.119
660.495
577.026
334.021
1427.36
1519.92
1521.15
1501.93
1278.02
1440.46
1373.81
759.631
708.501
588.683
617.979
494.4
439.33
359.637
772.341
534.092
369.355
380.837
477.753
658.683
650.966
780.591
758.735
880.197
633.241
371.623
512.232
481.737
1364.69
1368.65
1503.07
1457.34
982.605
1240.12
1289.71
859.453
672.65
577.892
662.648
567.947
372.073
380.67
840.038
499.641
589.747
636.001
542.47
353.339
328.814
556.194
426.619
699.308
688.474
317.406
415.114
543.009
660.725
461.213
353.348
308.267
389.901
613.209
511.571
289.129
287.927
287.946
287.926
287.928
287.926
287.993
1460.51
1247.69
1363.27
961.066
1193.62
1321.24
1499.01
670.552
441.198
524.852
444.149
375.66
308.073
295.907
287.929
287.926
346.569
287.926
287.934
287.926
287.926
449.118
329.419
567.067
473.24
291.034
301.097
368.779
1263.32
910.722
1032.28
965.053
1115.37
783.703
592.161
398.591
318.221
544.558
457.706
289.56
298.686
336.431
1097.31
439.274
775.312
611.704
979.37
624.579
325.994
1365.8
785.558
758.131
949.498
1045.75
1205.58
1157.22
642.78
624.54
797.256
500.917
298.186
339.306
371.033
652.984
358.624
498.739
305.347
383.586
305.263
290.478
402.344
306.566
521.419
375.728
288.686
291.025
312.081
572.081
296.759
307.187
360.027
320.69
290.344
288.499
547.334
317.216
450.439
291.367
320.288
297.776
288.881
440.383
300.038
429.284
294.99
288.384
288.321
296.026
368.4
291.119
288.578
288.358
290.961
308.412
301.795
341.302
288.47
305.078
288.201
296.68
290.555
288.006
288.611
302.5
311.413
290.067
287.962
289.174
287.987
323.151
288.849
319.185
290.889
288.021
291.319
288.009
296.552
366.704
403.961
293.01
288.08
288.204
290.817
306.731
294.427
314.499
289.944
288.669
288.454
287.983
404.597
575.935
806.948
438.046
288.581
293.785
313.519
297.165
294.333
347.937
290.028
287.953
288.124
288.212
295.359
288.008
290.938
287.943
288.516
288.151
287.932
327.8
288.652
303.09
287.994
289.22
288.395
287.95
298.168
289.758
291.777
288.486
288.218
288.038
287.943
302.038
287.969
288.02
288.24
288.326
289.491
291.077
288.473
288.045
291.85
288.474
287.928
287.943
288.004
287.959
288.032
288.987
288.233
287.927
287.936
287.956
1021.04
1020.69
293.443
533.871
288.534
1022.63
325.079
636.49
287.984
1007.63
841.9
1034.64
1030.31
516.384
291.937
297.134
951.516
569.607
1043.06
552.979
472.863
288.004
289.958
673.217
914.35
844.132
317.833
293.487
288.108
655.038
611.555
287.97
1037.04
1012.24
1040.06
1006.12
1006.34
969.795
972.036
1019.97
1046.64
1044.04
998.776
1004.93
962.632
946.441
1051.42
1045.3
984.316
1035.3
956.729
917.128
870.828
1025.63
1047.36
963.04
1009.89
910.768
804.321
715.899
985.84
982.51
1035.04
889.044
761.301
753.603
894.005
861.6
963.612
1021.36
968.544
868.063
731.24
721.67
1021.8
966.52
969.441
864.842
869.11
732.598
725.863
1025.95
972.644
1033.42
874.837
694.252
732.454
846.89
563.338
845.115
840.879
744.174
455.493
750.189
448.012
1013.73
956.834
851.494
936.087
825.078
706.233
670.455
805.407
546.432
828.818
727.416
401.305
696.505
429.902
1008.87
857.52
977.115
638.021
802.167
738.755
563.169
966.516
997.158
899.547
721.91
782.551
616.831
545.301
767.681
418.185
713.459
365.257
650.348
586.978
328.199
315.625
361.374
642.453
506.684
293.242
414.475
304.074
848.418
777.948
925.7
656.132
375.94
472.015
552.312
323.32
416.299
577.088
327.591
586.465
426.232
294.188
833.329
349.036
631.279
643.813
842.329
545.898
357.519
328.314
581.213
587.87
427.786
293.734
420.345
294.312
645.556
837.475
843.657
547.613
352.189
358.83
538.838
612.008
457.858
296.168
345.337
448.616
619.976
340.177
590.877
315.407
294.248
393.047
426.68
554.036
329.241
562.184
308.295
528.171
292.474
402.079
373.435
290.868
818.988
568.007
783.8
337.704
515.578
475.783
319.326
302.943
352.262
501.103
434.385
288.763
317.174
294.802
417.617
299.512
478.917
339.125
288.594
311.532
289.469
429.373
506.162
729.539
421.975
294.475
362.554
303.885
983.121
288.186
957.128
492.676
776.358
762.59
757.061
456.465
804.809
726.249
779.449
838.224
812.126
986.752
615.752
958.633
658.25
837.742
937.538
862.198
930.471
1009.21
671.407
577.484
815.681
854.99
859.026
925.83
929.349
963.493
960.091
823.275
882.075
867.156
950.01
936.977
970.128
980.511
895.474
907.158
968.043
942.209
988.401
994.411
1009.27
904.967
963.378
909.348
993.012
1008.28
1010.14
990.108
932.798
972.282
917.799
997.784
1014.36
1012.64
1004.57
984.852
1025.96
984.797
1016.31
1007.02
1018.3
1012.55
801.457
950.346
950.589
949.763
772.127
950.28
768.462
958.107
1034.87
992.709
1013.03
1012.66
1017.69
1003.4
793.965
950.267
951.141
948.207
742.549
759.431
944.101
1051.02
1026.92
1006.9
1048.64
1049.58
970.042
925.234
757.239
946.574
938.36
716.45
935.787
919.797
679.02
1052.63
985.775
1052.39
1052.8
1028.63
1011.71
977.724
936.094
724.502
653.459
905.474
903.019
937.532
720.389
932.368
689.175
880.385
640.239
895.701
709.569
924.026
885.564
558.407
623.42
682.716
920.88
889.419
627.73
657.635
853.444
907.914
879.626
524.311
811.24
613.402
985.211
857.765
1031.36
934.749
1053.18
1029.9
855.124
1002.62
1041.58
1021.38
791.97
900.589
834.237
706.493
825.748
471.022
544.065
446.483
740.144
664.823
379.396
766.3
474.708
384.424
833.407
456.836
750.761
552.278
884.261
467.517
627.076
904.609
977.945
743.49
598.251
920.153
415.945
1028.87
997.407
877.149
1030.32
419.521
912.182
694.328
959.238
1034.67
1026.86
404.933
568.925
868.508
686.084
934.708
972.177
991.43
986.067
998.309
1002.09
1003.92
962.096
984.251
911.027
908.506
959.115
982.455
996.714
908.643
963.516
959.344
985.994
982.772
997.186
999.373
992.341
1031.07
1006.95
1011.74
1006.42
1002.81
993.971
947.91
989.04
1006.09
1026.66
1002.95
990.051
951.518
1026.86
1007.47
1003.11
990.6
950.515
991.211
952.26
1015.04
1037.09
1024.81
943.511
989.913
983.958
927.971
915.067
621.429
689.869
694.32
917.372
880.505
626.689
695.775
918.467
918.379
881.527
625.467
880.45
627.994
1036
1044.51
1036.42
970.317
855.834
944.44
900.042
915.812
668.763
908.724
614.566
874.41
860.566
592.462
600.783
641.08
894.332
835.823
508.875
796.766
557.775
711.41
811.084
528.659
816.145
423.593
535.888
718.538
817.155
424.941
714.999
532.718
814.422
537.287
719.667
699.874
518.105
803.809
782.217
381.337
491.339
671.579
696.79
403.727
320.704
747.293
350.48
452.23
628.732
573.418
678.442
390.58
323.24
296.704
570.378
322.017
629.88
352.813
301.622
544.103
292.649
312.901
405.734
297.52
345.957
289.677
441.947
289.14
295.395
330.381
365.22
288.642
288.212
290.859
298.315
313.657
290.453
288.45
289.547
629.23
629.336
347.422
287.947
289.989
294.319
542.209
287.934
293.757
597.203
840.525
290.03
287.932
446.792
906.13
748.414
980.875
888.849
779.324
604.866
471.223
663.843
766.514
916.442
642.345
541.712
458.023
367.665
343.474
483.318
790.628
450.075
630.584
344.415
295.678
741.352
399.076
601.425
310.652
432.843
330.381
292.118
394.81
735.227
535.036
328.095
425.944
308.547
291.848
447.022
295.845
289.735
289.251
333.762
297.996
288.2
305.035
559.249
351.308
289.966
315.699
295.69
288.427
355.054
288.552
310.54
288.165
296.689
290.475
287.994
308.97
289.88
287.981
312.107
287.99
290.213
288.627
312.617
287.992
288.568
290
290.266
310.148
288.642
288.416
289.466
305.025
298.89
287.953
288.859
288.235
314.829
437.094
307.45
294.637
287.984
288.477
288.679
290.333
287.931
287.991
293.721
287.939
288.386
288.084
291.435
341.931
297.548
289.579
287.942
288.028
288.198
299.481
287.969
288.24
289.582
287.931
288.132
287.97
288.561
288.097
287.943
289.135
287.929
288.038
287.959
289.061
288.08
287.957
288.497
287.929
287.942
288.031
287.926
287.926
287.926
287.926
287.926
287.926
287.926
288.168
287.952
288.869
287.994
287.926
287.942
287.928
288.93
288.126
292.416
288.06
287.927
287.933
287.957
287.926
287.948
287.927
287.94
287.983
288.715
288.137
288.133
287.94
287.933
287.926
287.938
288.165
287.932
287.931
288.09
290.344
287.937
288.088
287.931
287.926
288.074
287.928
287.926
287.931
287.935
288.011
287.93
287.961
287.928
287.988
287.932
288.043
287.929
287.926
287.926
288.099
287.93
287.941
287.926
287.927
287.926
287.963
288.047
289.183
287.932
287.991
287.928
287.926
287.927
287.926
287.926
287.926
287.931
287.941
288.105
287.99
287.926
287.926
287.927
287.928
287.932
287.935
287.934
287.927
287.977
287.926
287.929
287.926
287.926
288.11
287.927
287.952
287.926
287.932
287.927
287.926
287.926
287.927
287.926
287.926
287.926
287.929
287.972
287.927
287.928
287.964
287.94
287.926
287.926
287.926
1447.63
635.677
288.13
1343.45
1634.42
1287.38
1634.6
1353.78
1439.5
976.949
1080.35
1311.72
1255.34
1266.76
598.956
540.462
288.087
1349.17
1431.49
1475.73
1435.44
1477.61
1573.91
1567.77
850.404
675.757
1046.44
611.422
287.975
288.047
287.934
1396.36
1385.28
1472.91
1386.67
1474.43
1519.66
1419.58
1610.1
1568.49
1574.63
1610.46
1612.94
1584.22
1634.04
1574.88
1606.98
1577.76
1609.37
1606.53
1577.09
1634.39
1122.41
1028.8
1117.18
1006.36
1101.96
1015.09
860.504
1173.32
1289.42
1198.36
1289.69
1193.4
1322.74
1183.07
1418.94
1529.27
1519.68
1530.32
1426.44
1514.07
1448.82
1421.34
1525.88
1520.01
1528.99
1400.18
1504.61
1446.93
1008.71
956.398
931.672
857.213
884.972
756.922
658.224
1583.69
1528.34
1518.38
1317.7
1488.84
1499.96
1612.67
1090.66
1324.88
1190.16
1215.61
1314.24
1093.85
894.437
1313.39
1003.96
1157.1
1161.13
1300.05
1065.03
819.095
953.882
630.289
597.193
755.989
787.204
528.544
370.287
876.946
830.238
1028.95
832.696
380.248
566.969
635.751
1513.08
1285.57
1217.34
1259.26
1417.36
1432.09
1421.88
813.107
724.423
970.927
795.858
342.129
493.877
602.158
912.392
751.301
609.277
725.214
641.546
1046.1
998.074
995.054
855.586
752.044
893.709
607.347
999.928
1038.2
937.242
994.872
603.656
647.13
643.862
804.208
797.224
812.218
792.402
640.792
682.12
700.638
795.541
810.52
814.295
826.256
700.546
739.883
697.45
810.186
845.041
826.935
823.276
604.01
665.713
641.093
784.851
768.088
775.911
774.059
781.084
691.823
735.586
860.097
836.441
850.542
878.138
895.335
815.112
823.164
911.153
871.363
879.318
914.157
865.075
901.476
840.799
892.952
931.862
910.268
921.211
728.216
696.941
688.178
792.12
796.728
806.516
781.608
880.249
896.06
1003.21
976.389
981.801
900.808
874.748
908.106
999.452
987.463
914.415
913.97
922.742
992.288
888.259
932.032
1016.21
1019.5
993.253
909.027
911.085
960.308
951.91
846.779
862.75
958.49
966.544
853.883
941.877
1011.24
922.836
934.094
1019.07
1001.35
950.321
976.609
981.474
925.252
931.617
980.958
986.496
941.139
941.431
958.894
1009.62
988.57
995.406
955.001
948.546
872.84
890.331
1002.89
970.96
978.18
896.533
865.514
966.344
989.524
984.754
925.521
801.952
1138.93
1278.19
1017.17
1085.4
789.948
936.705
748.841
1222.82
1094.08
1080.96
939.778
828.65
849.5
872.359
891.795
907.739
942.23
939.245
772.971
836.118
813.924
878.264
854.215
910.366
934.618
889.493
937.371
912.083
943.976
928.804
949.661
957.588
757.138
790.023
797.584
828.999
836.552
893.275
886.715
962.684
949.697
935.047
976.013
999.777
1012.2
974.889
904.771
962.719
880.439
986.05
1094.03
1059.49
1011.69
967.702
909.53
916.748
985.527
1088.73
1041.8
1005.29
972.219
1031.47
972.823
997.483
1042.94
1065.05
990.405
978.284
1050.33
974.824
1010.89
1150.31
1099.24
1036.37
944.061
855.053
862.073
968.129
1026.55
1038.38
960.559
977.96
1060.65
955.478
1018.12
1149.49
1105.54
1045.48
1039.52
933.983
1028.88
1000.09
1062.13
1077.48
991.291
1032.43
1054.12
1183.62
1081.69
1114.17
1083.28
1016.11
1063.21
1192.19
1253.33
1219.3
1167.79
1135.79
1113.27
1080.5
1173.29
1194.73
1158.39
1139.26
1123.78
1118.12
1057.05
1071
1115.12
1081.96
1104.45
1092.32
1042.32
202.318
105.211
186.337
674.647
650.274
896.265
591.481
871.578
399.041
95.668
102.282
96.697
590.852
360.825
599.061
416.143
184.653
394.761
390.883
204.285
429.85
422.756
209.153
96.9356
107.148
107.055
117.192
103.853
105.612
120.128
191.193
420.049
403.545
445.608
255.604
474.179
222.243
791.822
788.509
646.129
682.688
814.78
677.568
817.711
95.3259
95.0134
95.2084
107.667
102.812
104.922
112.268
97.1769
115.772
108.332
114.725
174.127
131.88
155.338
97.7193
100.928
95.9928
114.809
175.702
154.067
129.298
659.386
811.458
799.256
694.708
838.668
714.42
825.558
168.779
343.188
151.413
168.571
410.557
396.643
186.231
256.473
490.907
435.167
567.139
583.569
479.811
271.618
516.097
406.55
668.914
505.09
618.131
560.296
315.29
723.571
842.014
874.386
764.279
770.826
718.175
845.187
226.836
380.176
499.393
586.501
492.87
249.647
360.649
179.176
349.523
152.908
170.423
462.667
400.967
207.942
737.371
869.228
813.978
883.007
787.439
761.05
854.14
230.729
400.444
577.132
529.608
490.741
356.29
286.83
129.137
338.222
103.279
246.624
648.493
536.681
810.962
777.456
101.304
128.682
138.142
136.957
150.769
248.285
284.387
108.72
230.486
160.614
278.502
186.088
351.159
442.911
484.82
278.554
503.246
634.011
465.555
491.927
643.72
296.447
564.224
336.312
652.619
480.784
509.786
665.537
539.446
424.809
589.171
531.817
675.235
585.22
657.98
494.974
605.827
413.95
553.11
697.723
680.643
605.587
711.627
719.422
634.128
646.204
782.092
724.576
716.026
660.639
736.805
745.481
790.974
731.686
678.922
722.645
649.819
667.307
949.709
918.604
1059
1029.65
901.99
870.821
656.681
730.62
715.985
733.969
719.234
794.379
790.179
681.619
751.392
738.999
739.227
725.539
802.432
820.38
982.08
814.82
891.131
923.468
818.903
896.441
987.656
955.464
777.722
861.378
867.436
782.234
876.399
961.751
843.286
932.807
826.369
906.037
1011.46
924.992
997.12
810.075
878.748
790.999
886.725
990.946
972.463
907.874
965.626
1052.85
1018.62
971.58
1055.88
1024.13
1034.46
981.358
1050.91
1059.01
1043.07
1032.4
997.258
1041.93
589.044
135.318
228.203
910.455
697.259
946.959
890.189
911.375
680.157
561.099
587.928
124.217
884.809
680.356
833.104
662.401
448.831
304.19
497.363
340.981
521.645
593.054
479.076
143.218
253.593
225.035
301.566
280.408
461.665
472.621
121.666
244.429
213.825
301.545
271.399
445.79
458.575
828.31
850.329
729.082
857.914
742.49
780.194
884.198
453.058
663.088
573.51
674.677
705.948
753.47
604.13
572.527
442.944
425.494
592.018
694.581
603.404
679.286
524.153
730.233
623.826
696.048
754.049
791.122
632.087
518.515
672.36
510.328
624.463
744.537
728.886
632.592
817.06
879.628
770.404
823.149
928.61
860.259
910.775
890.724
845.781
793.98
832.467
924.515
875.486
911.63
421.723
556.226
407.698
577.115
659.85
664.325
580.468
516.011
661.026
499.073
611.015
708.689
713.697
613.922
766.711
798.724
899.887
817.995
846.269
830.293
722.569
697.249
786.883
806.156
859.204
784.606
712.342
765.489
865.605
937.019
926.168
935.595
900.562
893.988
926.194
682.69
741.422
840.157
760.468
767.192
748.483
678.812
443.111
1058.66
592.533
913.971
988.789
864.314
1030.88
1004.24
790.893
933.206
882.991
290.508
1029.32
484.049
724.406
1053.02
888.001
915.641
939.429
971.823
992.97
1013.96
1029.62
932.145
1022.59
978.884
1054.08
1024.84
1049.21
1062.03
1292.54
1079.47
986.569
1060.31
865.556
953.751
762.174
948.429
1047.58
1040.08
1043.22
889.184
1168.05
990.264
1073.76
1222.9
1256.59
1588.9
1425.45
1221.78
1076.86
1011.51
1145.03
1080.26
1296.17
739.129
806.954
799.496
847.757
852.561
907.245
897.739
956.854
1065.59
1060.22
1021.23
1066.58
775.873
639.162
313.767
874.132
996.093
923.796
1034.72
977.609
1016.21
1054.64
999.822
1025.85
1052.79
1036.2
1064
1137.91
1092.25
864.631
998.757
924.253
1027.17
967.812
1014.74
1050.26
1029.51
1164.07
1107.43
1174.59
1117.19
1209.76
1243.44
955.331
1063.25
1006.4
1060.42
999.676
1037.44
1068.26
1042.31
1144.97
1099.32
1156.83
1110.08
1136.75
1195.09
1021.93
1057.48
1073.45
1063.96
1082.67
1100.7
1075.38
1228.44
1081.78
1128.51
1236.05
1294.32
1354.24
1177.53
1111.58
1277.67
1155.74
1251.74
1339.6
1392.93
1195.88
1046.36
1058.39
1062.29
1065.34
1065.99
1066.65
1061.62
1594.08
1165.82
1322.44
1264.25
1400.57
1013.84
1065.29
952.8
938.131
1173.73
1283.21
1055.85
1051.34
976.114
912.3
846.118
1230.1
1057.65
1508.72
1441.19
1366.09
1415.37
1488.8
1045.38
1142.74
1164.54
655.23
994.694
1247.57
1127.39
909.327
1032.69
950.992
963.108
973.515
1034.96
1024.81
1048.83
1068.37
882.476
939.285
907.295
1022.27
988.068
1015.97
1055.55
950.994
968.121
970.659
1001.28
1012.57
1032.85
1019.52
860.74
870.15
885.256
951.766
965.345
991.232
976.521
1023.97
988.417
994.4
1061.22
1077.09
1100.63
1044.52
1017.18
987.446
953.283
1058.71
1158.49
1104.63
1104.37
1041.98
1003.69
1002.14
1085.44
1183.59
1140.39
1119.03
991.791
914.851
929.604
1030.91
1053.47
1072.42
1014.53
1069.79
1213.26
1094.76
1119.01
1205.26
1246.15
1092.13
1063.4
1088.29
1118.6
1121.56
1155.72
1232.3
1185.79
1098.4
1217.04
1174.05
1247.23
1213.6
1297.49
1296.93
1161.26
1268.45
1126.94
1158.62
1306.78
1300.93
1194.11
1140.16
1163.03
1092.46
1113.19
1243.74
1165.42
1167.85
1080.45
1179.87
1123.65
1200.5
1138.89
1158.13
1224.83
1051.76
1066.07
1089.43
1077.6
1101.86
1113.29
1079.05
1155.28
1366.41
1169.85
1252.63
1209.12
1296.21
1123.83
1049.44
1102.36
1065.13
1082.11
1047.6
1098.76
1062.88
737.635
698.661
907.152
880.564
887.246
869.066
1046.51
1057.14
711.112
742.579
747.479
781.791
786.664
821.111
815.751
722.58
767.958
753.442
811.041
793.254
831.553
855.054
863.732
961.231
789.263
870.032
794.147
887.411
967.87
824.325
882.252
803.408
900.616
1000.39
926.664
979.802
875.314
973.981
980.136
1013.94
917.938
924.645
1019.61
912.801
1012.72
991.945
937.882
1044.64
1029.68
963.002
981.585
1057.44
1029.47
988.018
1059.64
1050.85
1034.3
982.63
1041.27
1001.13
1054.92
1047.07
1054.83
1052.69
1039.76
1040.59
989.916
1050.02
1061.08
1063.42
1061.28
1067.06
1070.74
1054.05
1061.97
1023.34
1057.9
1067.31
1257
1153.54
1166.8
1139.51
1225.93
1161.5
1196.71
1346.84
1364.28
1335.91
1206.31
1286.27
1270.23
1238.46
1396.97
1238.17
1293.31
1149.98
1194.67
1331.48
1278.3
1060.75
1041.79
1056.69
1063.55
1051.75
1018.2
999.512
1058.38
1021.38
1051.76
978.51
1056.08
1053.44
953.824
1061.77
1066.44
1036.98
1053.48
1063.4
1056.07
1024.69
1302.51
1235.4
1202.18
1308.69
1346.7
1400.63
1298.34
1065.32
1060.45
1040.89
1059.35
1015.2
1055.05
1063.41
1225.73
1344.8
1325.45
1322.25
1364.52
1427.27
1308.64
976.634
1075.3
1084.27
1022.84
1075.7
1101.69
1113.05
1516.37
1530.86
1450.74
1238.6
1286.44
1383.56
1335.36
1152.44
1187.79
1131.75
1152.96
1256.46
1225.01
1172.61
1206.2
1167.57
1244.65
1157.89
1267.77
1231.64
1169.18
1447.9
1351.16
1315.94
1273.04
1262.45
1379.58
1334.03
1050.1
1052.43
1026.96
1059.55
1016.05
1052.89
1041.63
1108.19
1073.9
1097.58
1108.74
1067.83
1117.13
1078.41
292.925
555.54
1050.96
287.927
297.614
295.996
675.988
1368.34
1449.95
1475.43
1585.08
1506.32
1487.7
1310.97
1106.33
1053.77
1108.02
1111.2
995.284
1077.97
1074.18
1451.38
1400.8
1386.64
1327.39
1343.88
1414.35
1359.03
1263.08
1157.16
1230.34
1208.87
1144.45
1165.98
1243
1045.57
969.963
1059.6
1041.2
842.538
1012.5
909.739
1061.89
1054.65
1061.56
1052.09
1061.3
1049.36
1021.59
1582.85
1623.3
1594.78
1563.24
1559.03
1484.44
1451.5
1052.88
1073.18
1077.92
1072.93
1109.87
1104.86
1105.18
1070.44
1261.58
1122.64
1247.06
1170.59
1163.22
1259.82
1065.47
1028.22
975.678
966.448
1026.93
1056.8
1055.08
1066.31
1054.66
1063.36
1027.56
1060.65
1042.74
983.342
1009.33
961.277
1053.89
930.529
1045.69
1014.44
862.988
803.485
1002.12
994.252
904.377
1052.76
1105.35
1073.57
959.729
1051.55
1033.98
459.842
1059.49
957.058
886.512
1061.66
1018.04
1027.9
1026.5
1053.87
1053.59
1053.94
1062.42
1059.29
1051.66
1060.77
1057.08
1059.07
1061.76
1045.36
1058.02
1025.74
1065.65
990.227
1064.4
1050.98
928.871
1053.68
1050.78
1060.14
1027.63
1064.85
1057.16
976.64
986.166
909.306
1038.37
1026.8
746.63
875.274
962.818
1010.45
1045.34
1064.37
868.156
1016.11
1053.17
965.038
1053.5
1060.5
1055.32
969.386
1027.95
979.345
893.547
1410.79
1389.79
1397.1
1520.5
1488.25
1479.65
1353.24
943.4
831.876
1008.95
750.849
960.18
879.416
636.677
1508.28
1388.35
1403.84
1405.22
1502.62
1469.26
1384.09
1172.2
1290
1289.1
1108.23
1259.77
1155.31
1180.44
1001.44
855.303
741.213
680.126
956.58
819.698
920.773
1105.41
961.639
893.025
897.464
1013.13
1069
1042.27
993.809
1054.11
1050.48
1052
1008.98
1011.25
874.909
884.537
696.968
941.467
973.735
832.659
1059.92
1015.07
1042.66
756.24
940.948
889.441
1015.57
1059.09
1026.03
1033.72
1041.25
1054.75
1011.77
806.529
920.616
947.908
973.865
892.786
1027.39
967.2
626.53
769.987
878.75
1218.85
890.312
994.476
1089.59
1264.16
1137.9
1266.46
795.968
528.297
677.224
797.041
918.019
916.677
1012.6
977.068
775.746
970.853
630.211
1028.88
898.229
780.567
882.375
807.513
990.869
936.31
540.42
721.588
802.496
639.739
159.866
567.82
129.622
587.522
644.867
429.266
341.912
519.614
528.514
607.354
630.651
531.521
521.297
595.958
410.272
329.785
118.984
116.444
339.657
114.9
346.245
483.97
581.829
483.659
549.023
480.542
512.218
568.254
411.508
113.814
411.271
182.669
431.023
129.757
415.677
522.093
575.017
494.689
486.051
549.86
482.087
570.386
539.366
612.377
531.111
523.04
632.346
535.042
597.553
422.982
117.756
135.759
413.685
183.775
432.433
130.342
358.527
167.74
123.556
413.1
117.01
343.869
115.385
234.107
124.37
220.932
148.482
244.316
138.48
213.789
321.037
426.016
308.17
423.23
315.046
422.144
312.301
288.173
413.949
299.056
410.854
413.509
298.049
290.19
189.67
122.234
116.463
191.115
118.353
193.003
188.674
181.013
119.434
179.739
112.795
116.072
181.196
179.104
180.197
194.98
114.48
110.927
111.927
192.989
181.057
531.626
482.613
481.768
537.372
537.611
481.106
529.953
531.394
536.927
482.381
481.597
529.579
481.002
537.302
549.109
552.849
542.427
553.115
545.578
545.826
558.191
522.38
479.815
479.709
518.736
519.705
479.169
519.877
325.672
418.762
315.979
408.515
310.479
413.723
333.895
213.766
116.479
116.478
188.684
199.311
123.051
199.29
325.646
315.837
418.615
408.386
333.879
413.652
310.38
255.56
171.229
274.702
171.17
265.589
265.53
159.401
343.179
427.01
426.941
358.971
351.587
422.032
351.592
234.078
221.032
124.421
148.388
213.855
244.212
138.445
311.946
413.001
295.206
412.942
302.832
411.385
302.796
539.852
493.418
546.432
491.155
547.51
537.81
490.241
535.93
487.343
484.554
539.196
531.713
541.872
486.459
553.623
556.918
543.558
554.236
550.13
547.133
562.586
527.604
485.028
481.469
519.958
524.866
521.28
484.723
333.208
421.382
325.982
426.851
321.645
340.467
423.08
220.403
199.186
121.301
120.206
209.088
207.015
127.413
239.548
228.859
130.271
153.051
222.305
249.087
143.035
330.211
414.764
420.453
317.584
335.209
419.369
315.759
258.357
174.243
275.626
172.225
268.184
266.557
162.152
346.994
431.548
428.478
360.098
355.137
352.795
426.999
237.335
127.056
222.032
149.11
245.225
217.762
141.051
198.878
201.676
127.101
120.114
200.411
201.759
121.883
294.432
416.844
416.587
301.246
292.327
419.807
304.004
185.378
121.492
181.712
113.348
183.171
183.792
117.755
185.033
116.472
196.437
111.35
182.656
197.862
113.423
571.858
527.913
207.183
153.608
734.306
713.24
880.623
795.786
158.582
218.86
232.257
354.943
368.194
484.506
474.199
171.862
330.885
266.957
454.016
400.678
510.542
555.128
98.2765
441.991
95.1286
287.481
109.728
101.522
95.9214
96.3834
96.6395
97.8236
97.4318
96.2885
96.1442
95.7473
95.9136
95.2705
95.7319
96.714
95.6625
95.8746
95.1402
94.0215
102.278
93.27
93.3804
94.038
112.059
114.384
93.9154
95.1146
96.1858
96.2435
94.4425
99.6622
101.796
94.5646
104.443
93.0365
92.8915
94.8973
143.436
121.419
98.6221
95.2977
94.9839
96.0539
94.5827
120.602
106.02
96.6779
103.199
309.181
130.528
154.1
139.694
163.728
101.476
107.469
223.762
362.71
258.159
161.144
189.536
122.277
364.206
541.808
388.447
600.397
675.694
680.751
589.269
584.281
716.634
594.117
666.394
749.532
753.072
661.044
432.011
608.997
486.638
618.897
699.528
687.698
644.672
643.689
722.706
615.137
677.25
771.258
759.472
691.181
153.496
128.18
121.463
614.416
113.732
649.744
706.015
681.632
112.615
111.374
111.987
179.336
182.429
191.61
185.906
116.661
115.972
113.224
207.567
188.835
203.864
231.389
131.251
118.945
117.093
218.528
267.357
278.657
209.388
138.532
131.92
123.162
240.178
353.55
304.839
280.946
405.938
620.593
413.167
426.563
629.304
417.618
635.904
446.106
632.01
424.782
442.168
664.237
647.642
469.959
456.503
504.821
653.024
685.996
515.569
446.567
658.856
477.304
579.109
683.444
694.135
540.045
668.999
515.691
97.4907
96.9311
96.8729
101.091
100.971
98.8897
95.1128
95.5584
101.36
99.8716
99.5067
98.959
100.76
100.4
99.2843
99.5019
100.33
97.6674
98.1557
98.9025
98.3856
99.7448
97.7905
99.1643
98.8478
98.3326
100.006
99.678
98.6066
95.0619
95.3453
95.2572
97.2052
96.8045
96.1396
96.5278
95.9196
97.2113
98.186
98.1969
97.0142
97.7906
99.0426
95.1424
95.1603
95.0726
94.6364
95.251
96.1488
95.5076
97.4228
95.5598
95.388
93.9623
94.2968
95.2178
95.5472
98.6014
97.3358
95.9548
93.3388
92.4854
93.6379
94.6047
723.222
337.788
700.601
169.122
615.581
687.415
363.261
332.494
342.41
166.531
345.095
170.541
341.136
348.642
168.364
535.361
602.929
532.404
546.599
637.853
546.47
649.11
425.807
124.482
119.95
350.457
121.914
358.192
173.152
337.323
350.656
162.081
166.157
174.122
340.982
168.446
304.754
426.552
313.273
430.56
306.043
430.866
312.61
203.643
204.176
121.79
128.645
204.024
124.189
205.431
193.58
206.216
119.595
115.093
194.025
116.316
204.757
195.52
117.52
194.733
125.876
194.856
195.374
121.494
337.584
162.954
163.834
333.022
160.846
336.071
163.921
554.788
664.987
546.147
637.511
539.73
549.331
666.527
693.355
567.143
566.668
556.563
668.369
556.505
677.636
711.054
577.028
570.263
706.888
564.939
559.154
691.133
737.202
106.997
346.148
718.943
344.083
645.203
183.891
626.503
177.858
108.174
100.248
97.0933
96.0176
98.6156
94.6126
95.9487
346.655
166.791
168.708
351.039
169.197
351.771
168.121
108.604
101.565
101.97
100.333
107.944
107.359
100.803
343.256
165.816
165.295
358.004
169.595
352.731
168.02
107.533
99.9856
100.867
105.845
98.566
99.5568
106.538
713.368
579.13
578.043
592.556
730.153
590.77
734.631
100.642
99.4331
99.031
98.8494
97.7045
99.2822
97.3114
177.051
375.456
373.091
361.556
171.755
360.705
171.685
98.8421
107.467
107.601
98.9078
106.774
106.559
99.1413
727.192
590.61
583.05
750.746
605.946
597.437
741.66
98.5494
99.5497
98.248
97.0493
95.8476
98.0761
96.63
179.994
390.461
381.07
372.467
175.918
365.119
172.86
769.41
765.985
623.238
607.898
746.822
605.457
750.624
97.8258
106.047
106.937