/*--------------------------------*- C++ -*----------------------------------*\
  =========                 |
  \\      /  F ield         | OpenFOAM: The Open Source CFD Toolbox
   \\    /   O peration     | Website:  https://openfoam.org
    \\  /    A nd           | Version:  9
     \\/     M anipulation  |
\*---------------------------------------------------------------------------*/
FoamFile
{
    format      ascii;
    class       volScalarField;
    location    "0.0008";
    object      rho.air;
}
// * * * * * * * * * * * * * * * * * * * * * * * * * * * * * * * * * * * * * //

dimensions      [1 -3 0 0 0 0 0];

internalField   nonuniform List<scalar> 
7494
(
1.22508
1.225
1.22551
1.225
1.225
1.22518
1.225
1.225
1.225
1.225
0.0577479
2.07103
0.0120171
2.66456
5.03505
5.90312
0.0075256
2.35142
0.0090265
1.66855
5.45251
4.07764
0.0372014
1.74057
0.586249
2.66434
4.22514
4.92714
1.90689
2.91111
2.38479
1.26586
4.10177
1.22794
0.56419
0.646605
1.91007
2.17053
0.627721
1.99148
0.589257
0.637688
2.54761
0.718265
2.46891
0.718411
2.34909
0.637923
4.68288
5.12361
4.73406
5.63221
5.44008
5.18615
0.424019
0.598917
2.17831
1.89214
0.529145
0.48066
1.75977
0.397591
1.70388
0.465649
1.58469
0.448303
1.6031
0.415874
5.03138
4.52944
4.20939
4.15287
3.85142
3.8964
0.635594
0.537946
1.65072
1.93579
0.479103
0.714678
1.83784
0.920002
2.26136
1.55575
2.57069
1.02764
2.15594
1.40462
4.01298
4.55917
4.37917
4.96017
4.94584
4.8341
2.77498
2.32827
2.87635
2.84821
2.16844
2.85159
2.87219
2.78416
1.936
1.61739
1.29908
2.71807
2.17373
1.7926
4.36585
2.30099
2.71737
1.30381
1.23095
1.37587
0.0253765
0.0172226
0.0069879
0.101446
0.13662
0.101553
0.0691202
0.00785067
0.0045068
0.00440986
0.0628675
0.0740012
0.0415135
0.0491397
0.00511679
0.0152997
0.00824865
0.0963886
0.0689584
0.0446346
0.0632413
0.130024
0.115797
0.0476984
0.166961
0.235465
0.141296
0.21158
0.0210155
0.109727
0.149188
0.285984
0.215973
0.112187
0.0670836
0.279797
0.540318
0.959048
0.445799
0.497121
0.207744
0.84093
1.09912
2.48373
1.66278
2.36177
0.981319
1.50234
1.76693
2.70023
2.61174
2.83562
2.80438
2.71142
2.52868
2.51803
1.24159
1.22763
1.22638
1.22504
1.25368
1.22508
1.22594
0.0225784
0.0344292
0.000622124
0.000988921
0.000329708
0.000580255
0.000314299
0.000845556
0.000516384
0.00349086
0.00309706
0.00328225
0.000488248
0.00294433
0.000566176
0.000256645
0.000336602
0.000266126
0.000294179
0.000252527
0.000300421
0.000244201
0.0732527
0.067055
0.0205338
0.0213922
0.06418
0.0196696
0.0692733
0.000434604
0.000351011
0.000268084
0.000379795
0.000311428
0.000295882
0.000254613
0.000579327
0.00151862
0.00149467
0.00103797
0.00105975
0.000461632
0.000461434
0.00241918
0.00739114
0.00418517
0.00543481
0.00169031
0.00382276
0.000785023
0.0261701
0.0993006
0.0827945
0.0901833
0.0302327
0.0241385
0.0767908
0.000642534
0.00177808
0.00120336
0.0028097
0.00170579
0.000660203
0.000504466
1.225
1.22501
1.225
1.225
1.225
1.225
1.22502
0.145838
0.196368
1.06376
0.94058
0.461453
1.16144
1.45199
1.99801
0.169639
0.414625
0.375074
0.33634
0.710051
0.376376
0.660964
0.153329
0.418193
0.367804
0.327717
0.669255
0.372763
0.625527
0.293188
0.7719
0.544456
0.69112
0.811057
0.486327
1.08514
1.006
1.59133
1.52353
0.624862
1.09286
0.674926
1.03539
0.976438
1.44083
1.47909
0.586781
1.01246
0.625122
0.972883
0.731906
1.72837
1.14705
1.0299
2.23017
1.5458
1.53455
1.13272
1.68249
2.10887
1.01301
1.17729
0.755841
1.51011
2.7301
3.08788
2.71801
1.43188
2.77658
2.08332
2.07709
0.916204
1.57565
2.74674
2.72679
1.18791
3.55203
3.14183
2.13049
2.71857
1.79392
3.11262
1.23275
5.22738
5.38967
4.17041
4.4858
2.07613
2.85715
4.20075
3.34152
1.25731
1.36868
2.25777
1.63032
2.9973
1.72473
2.00252
1.55602
2.07013
2.35985
1.31088
2.76944
3.84244
3.57845
2.20049
3.69546
3.07442
2.92767
5.33049
4.51364
5.11024
5.07642
3.62959
3.65539
3.26876
2.93535
3.63835
3.14013
3.20667
2.89657
3.06671
2.99812
2.76569
2.93976
3.01071
2.73777
1.60167
1.83874
2.72209
3.01594
2.39613
2.89054
2.99882
3.04469
2.93398
2.86687
2.79687
1.31974
1.39425
2.26001
3.03267
1.34439
2.08711
2.37309
1.22529
1.22898
1.23
1.28572
0.172859
0.170507
0.453535
0.807407
0.339049
0.189356
0.426697
0.314119
0.707711
0.390375
0.540936
0.142843
0.243516
0.241842
0.222912
0.330478
0.362458
0.226842
1.05008
1.19632
1.5544
0.517483
1.07731
0.673838
0.823906
0.531232
0.654008
0.790848
0.34638
0.462815
0.542079
0.316887
0.649484
0.785484
1.10703
1.24269
1.47753
0.910344
1.10461
2.2766
2.20045
1.50783
2.27306
3.13686
2.19891
2.93476
1.63095
1.53922
2.1538
2.12836
1.6319
2.15158
2.90395
2.09809
1.42207
1.45611
2.09885
2.7628
2.13124
2.73012
2.3574
2.07482
1.65303
2.35727
3.05157
2.86192
2.74546
3.07226
2.69668
3.08981
3.11344
2.46865
3.06575
3.07084
1.88297
1.22501
1.22531
1.225
1.50878
2.69574
2.59897
1.5642
1.23864
1.22556
1.24129
1.22547
1.52593
1.22603
1.22641
1.22509
1.225
1.22527
1.22502
1.22501
1.22501
1.225
1.225
1.22501
1.225
1.225
1.225
1.225
1.225
1.225
1.225
1.225
1.225
1.225
1.225
1.225
1.225
1.225
1.225
1.225
1.225
1.225
1.225
1.225
1.225
1.225
1.225
1.225
1.225
1.225
1.225
1.225
1.225
1.225
1.33356
3.20985
1.22531
1.23495
2.84539
2.71134
1.65985
1.9313
2.99301
2.66017
2.55142
1.46384
1.23348
1.43258
1.87685
2.30109
2.70858
2.59997
2.28818
1.43275
1.40742
0.906586
1.676
0.923988
1.69374
2.45963
1.07921
1.63811
2.35263
1.5011
0.976027
1.75408
2.93057
2.75123
2.08448
2.753
2.11846
2.70122
2.92111
2.88235
2.82375
2.33639
2.78006
2.19734
2.73604
2.90693
2.42747
2.54088
2.71597
2.83036
2.59334
2.80254
2.52146
2.72748
2.6284
2.73613
2.48944
2.79937
2.79439
2.49191
1.33283
1.34853
1.98256
2.37968
2.84876
2.83158
2.32311
1.42396
2.20405
2.44321
2.19288
2.90917
2.92774
2.41458
1.82351
1.27134
1.30367
2.74374
1.98382
2.79875
2.19668
0.541251
1.92593
2.04059
1.83604
0.864371
2.37206
2.11735
1.7285
1.69804
1.87346
2.79447
3.14263
0.204884
0.146813
0.425681
0.122448
0.472865
0.083359
0.424428
0.123475
0.5614
0.420121
1.52228
1.3015
1.77662
1.18031
1.93578
1.76893
1.95202
1.01754
1.74964
1.38499
0.845352
1.38505
1.91444
0.918271
1.48436
1.25078
1.74831
2.20748
1.30985
2.05434
1.16107
1.78658
2.05736
1.70667
1.65906
1.07386
1.76813
0.985287
1.68963
1.78655
2.39711
1.30158
1.9882
2.2153
2.02247
1.68737
2.34175
2.7804
2.71544
2.79311
2.99999
2.25075
2.74401
2.95947
0.133816
0.2442
0.232091
0.985486
0.946891
0.462355
0.443822
0.0981403
0.147425
0.183255
0.821213
0.392824
0.656837
0.332389
0.201771
0.276428
0.232949
0.755858
0.385738
0.780436
0.374822
0.186851
0.507225
0.191591
0.128097
0.138701
0.412941
0.371201
0.418738
0.164643
0.14031
0.0906186
0.105018
0.367819
0.32174
0.0897881
0.174008
0.146888
0.685593
0.628594
0.42303
0.341814
0.318308
0.32169
0.170448
0.145162
0.193401
0.314749
0.302189
0.507497
0.150545
0.205808
0.144161
0.0987226
0.423951
0.336407
0.034805
0.0142583
0.57677
0.795901
0.0928016
0.0350715
0.0692712
0.0532872
0.0240707
0.015002
0.0138474
0.00539746
0.0376649
0.0464065
0.011743
0.0267629
0.00434009
0.00471401
0.0117583
0.0164901
0.0160771
0.0179126
0.00266284
0.00266368
0.00293898
0.00291888
0.0198097
0.0413992
0.0226403
0.00737499
0.00672916
0.00396946
0.00385005
0.133686
0.139782
0.0795898
0.100256
0.0387489
0.101352
0.0399252
0.0311327
0.0691905
0.043638
0.0216204
0.0116118
0.00630545
0.0139908
0.0283843
0.0175197
0.0048513
0.0281606
0.018178
0.00315198
0.00344578
0.0756518
0.146511
0.136913
0.110984
0.0527072
0.104496
0.0440477
0.00746106
0.060833
0.0367474
0.0394668
0.0230412
0.00800163
0.00450661
0.0617533
0.0124087
0.0609577
0.0436717
0.152786
0.167339
0.0498463
0.020092
0.127806
0.0813111
0.1076
0.275266
0.205025
0.0680072
0.397627
0.771397
0.37549
0.432027
0.158975
0.452172
0.173756
0.436281
0.219778
0.250137
0.838087
0.599847
1.10396
0.902527
1.05737
1.80324
0.970114
1.86324
1.72732
0.972795
0.879097
1.56073
1.95065
1.08034
1.56783
1.91484
1.02302
0.84698
0.956252
0.275286
0.534896
0.851332
0.447004
0.496729
0.208758
0.613132
0.936511
1.10609
0.996135
1.15421
0.567551
0.625663
0.942547
1.80448
1.03741
1.66254
1.74935
0.966782
0.865648
0.465741
0.33258
0.252662
0.692608
1.01211
0.605683
0.911549
0.932681
1.37546
0.820966
1.52599
2.2702
2.11519
1.39043
0.765512
1.2815
0.758197
2.09989
1.51169
2.05272
1.36549
1.27837
2.43003
1.69709
1.98726
2.36728
1.20736
1.61037
2.28891
2.85299
2.7943
2.75547
2.8987
2.72296
2.18991
2.10396
1.55493
2.14088
1.30369
1.23869
1.23723
1.29643
1.38093
1.46313
2.02075
1.26335
1.23075
1.23427
1.28167
0.0100764
0.0389069
0.892909
0.0161
0.573548
0.124963
0.258919
1.47349
0.65911
2.222
2.94233
2.05078
2.69527
1.90672
2.32356
1.22649
1.22511
0.00861929
0.0349205
0.0421464
0.0391582
0.0465089
0.129752
0.153156
0.0098369
0.0592553
0.0382217
0.0670934
0.0435331
0.135241
0.176015
0.149321
0.369611
0.325074
0.663394
0.613243
0.325481
0.368459
0.112712
0.240249
0.118798
0.254791
0.129728
0.423436
0.268902
0.355977
0.61235
0.314815
0.170435
0.130502
0.315812
0.357209
0.497141
0.721576
0.424192
0.766612
0.450395
0.671341
1.06373
0.461976
0.993167
0.740347
0.412253
0.264567
0.659178
0.462885
2.05106
1.54908
2.4777
1.94899
1.20241
1.27826
1.67354
0.982697
1.40423
2.04133
1.03658
0.654894
0.981202
1.46888
2.86247
2.79136
3.04211
2.85954
2.43728
1.6324
2.21313
3.01543
2.60376
2.89058
1.82779
2.50862
2.87183
2.31509
2.72743
2.70742
2.50292
2.7031
2.3309
2.87501
2.64599
1.225
1.22501
1.22514
2.24136
1.225
1.22501
1.32713
3.08542
2.92016
3.05273
2.8383
3.03977
3.08525
2.80961
2.5437
2.89403
2.5613
1.3818
1.92074
2.89818
2.86707
1.56103
1.30464
1.79088
2.74085
2.27894
2.88715
2.8623
1.225
1.225
1.225
1.225
1.225
1.225
1.225
1.225
1.225
1.225
1.225
1.225
1.225
1.225
1.225
1.225
1.225
1.225
1.225
1.225
1.225
1.225
1.225
1.225
1.225
1.225
1.225
1.225
1.225
1.225
1.225
1.225
1.225
1.225
1.225
1.225
1.225
1.225
1.225
1.225
1.225
1.225
1.225
1.225
1.225
1.225
1.225
1.225
1.225
1.225
1.225
1.225
1.225
1.225
1.225
1.225
1.225
1.225
1.225
1.225
1.225
1.225
1.225
1.225
1.225
1.225
1.225
1.225
1.225
1.22503
1.225
1.225
1.225
1.225
1.225
1.225
1.225
1.225
1.225
1.225
1.225
1.225
1.225
1.225
1.225
1.225
1.225
1.225
1.225
1.225
1.225
1.225
1.225
1.225
1.225
1.225
1.225
1.225
1.225
1.225
1.225
1.225
1.225
1.225
1.225
1.225
1.225
1.225
1.225
1.225
1.225
1.225
1.225
1.225
1.225
1.225
1.225
1.225
1.225
1.225
1.225
1.225
1.225
1.225
1.225
1.225
1.225
1.225
1.225
1.225
1.225
1.225
1.225
1.225
1.225
1.225
1.225
1.225
1.225
1.225
1.225
1.225
1.225
1.225
1.225
1.225
1.225
1.225
1.225
1.225
1.225
1.225
1.225
1.225
1.225
1.225
1.225
1.225
1.225
1.225
1.225
1.225
1.225
1.225
1.225
1.225
1.225
1.225
1.225
1.225
1.225
1.225
1.225
1.225
1.225
1.225
1.225
1.225
1.225
1.225
1.225
1.225
1.225
1.225
1.225
1.225
1.225
1.225
1.225
1.225
1.225
1.225
1.225
1.225
1.225
1.225
1.225
1.225
1.225
1.225
1.225
1.225
1.225
1.225
1.225
1.225
1.225
1.225
1.225
1.225
1.225
1.225
1.225
1.225
1.225
1.225
1.225
1.225
1.225
1.225
1.225
1.225
1.225
1.225
1.225
1.225
1.225
1.225
1.225
1.225
1.225
1.225
1.225
1.225
1.225
1.225
1.225
1.225
1.225
1.225
1.225
1.225
1.225
1.225
1.225
1.225
1.225
1.225
1.225
1.225
1.225
1.225
1.225
1.225
1.225
1.225
1.225
1.225
1.225
1.225
1.225
1.225
1.225
1.225
1.225
1.225
1.225
1.225
1.225
1.225
1.225
1.225
1.225
1.225
1.225
1.225
1.225
1.225
1.225
1.225
1.27377
1.22544
1.22512
1.22503
1.22501
1.225
1.225
1.225
1.225
1.225
1.225
1.225
1.225
1.225
1.225
1.225
1.23087
1.38524
1.22728
1.24775
1.32901
1.22593
1.2364
1.22625
1.22909
1.22895
1.22502
1.25705
1.22514
1.22514
1.22503
1.22603
1.225
1.22508
1.22504
1.22572
1.225
1.22502
1.22506
1.22528
1.225
1.22551
1.225
1.22501
1.225
1.22511
1.225
1.225
1.225
1.22502
1.225
1.225
1.225
1.225
1.225
1.225
1.225
1.225
1.225
1.225
1.225
1.225
1.225
1.225
1.225
1.225
1.225
1.225
1.225
1.225
1.225
1.225
1.225
1.225
1.225
1.225
1.225
1.225
1.225
1.225
1.225
1.225
1.225
1.225
1.225
1.225
1.225
1.225
1.225
1.225
1.225
1.225
1.225
1.225
1.225
1.225
1.225
1.225
1.225
1.225
1.225
1.225
1.225
1.225
1.225
1.225
1.225
1.225
1.225
1.225
1.225
1.225
1.225
1.225
1.225
1.225
1.225
1.225
1.225
1.225
1.225
1.225
1.225
1.225
1.225
1.225
1.225
1.225
1.225
1.225
1.225
1.225
1.225
1.225
1.225
1.225
1.225
1.225
1.225
1.225
1.225
1.225
1.225
1.225
1.225
1.225
1.225
1.225
1.225
1.225
1.225
1.225
1.225
1.225
1.225
1.225
1.225
1.225
1.225
1.225
1.225
1.225
1.225
1.225
1.225
1.225
1.225
1.225
1.225
1.225
1.225
1.225
1.225
1.225
1.225
1.225
1.225
1.225
1.225
1.225
1.225
1.225
1.225
1.225
1.225
1.225
1.225
1.225
1.225
1.225
1.225
1.225
1.225
1.225
1.225
1.225
1.225
1.225
1.225
1.225
1.225
1.225
1.225
1.225
1.225
1.225
1.225
1.225
1.225
1.225
1.225
1.225
1.225
1.225
1.225
1.225
1.225
1.225
1.225
1.225
1.225
1.225
1.225
1.225
1.225
1.225
1.225
1.225
1.225
1.225
1.225
1.225
1.225
1.225
1.225
1.225
1.225
1.225
1.225
1.225
1.225
1.225
1.225
1.225
1.225
1.225
1.225
1.225
1.225
1.225
1.225
1.225
1.225
1.225
1.225
1.225
1.225
1.225
1.225
1.225
1.225
1.225
1.225
1.225
1.225
1.225
1.225
1.225
1.225
1.225
1.225
1.225
1.225
1.225
1.225
1.225
1.225
1.225
1.225
1.225
1.225
1.225
1.225
1.225
1.225
1.225
1.225
1.225
1.225
1.225
1.225
1.225
1.225
1.225
1.225
1.225
1.225
1.225
1.225
1.225
1.225
1.225
1.225
1.225
1.225
1.225
1.225
1.225
1.225
1.225
1.225
1.225
1.225
1.225
1.225
1.225
1.225
1.225
1.225
1.225
1.225
1.225
1.225
1.225
1.225
1.225
1.225
1.225
1.225
1.225
1.225
1.225
1.225
1.225
1.225
1.225
1.225
1.225
1.225
1.225
1.225
1.225
1.225
1.225
1.225
1.225
1.225
1.225
1.225
1.225
1.225
1.225
1.225
1.225
1.225
1.225
1.225
1.225
1.225
1.225
1.225
1.225
1.225
1.225
1.225
1.225
1.225
1.225
1.225
1.225
1.225
1.225
1.225
1.225
1.225
1.225
1.225
1.225
1.225
1.225
1.225
1.225
1.225
1.225
1.225
1.225
1.225
1.225
1.225
1.225
1.225
1.225
1.225
1.225
1.225
1.225
1.225
1.225
1.225
1.225
1.225
1.225
1.225
1.225
1.225
1.225
1.225
1.225
1.225
1.225
1.225
1.225
1.225
1.225
1.225
1.225
1.225
1.225
1.225
1.225
1.225
1.225
1.225
1.225
1.225
1.225
1.225
1.225
1.225
1.225
1.225
1.225
1.225
1.225
1.225
1.225
1.225
1.225
1.225
1.225
1.225
1.225
1.225
1.225
1.225
1.225
1.225
1.225
1.225
1.225
1.225
1.225
1.225
1.225
1.225
1.225
1.225
1.225
1.225
1.225
1.225
1.225
1.225
1.225
1.225
1.225
1.225
1.225
1.225
1.225
1.225
1.225
1.22506
1.225
1.225
1.225
1.225
1.225
1.225
1.225
1.225
1.23537
1.22577
1.225
1.225
1.225
1.225
1.225
1.225
1.225
1.225
1.225
1.225
1.225
1.225
1.225
1.225
1.225
1.225
1.225
1.225
1.225
1.22563
1.24091
1.23799
1.24087
1.54216
1.49316
1.2443
1.225
1.22503
1.22502
1.22563
1.22502
1.22576
1.22502
1.225
1.225
1.225
1.225
1.225
1.225
1.225
1.225
1.225
1.225
1.225
1.225
1.225
1.225
1.22514
1.22503
1.22502
1.22557
1.22547
1.225
1.22502
1.22501
1.225
1.225
1.225
1.225
1.225
1.225
1.225
1.225
1.225
1.225
1.225
1.225
1.225
1.225
1.225
1.225
1.225
1.225
1.22501
1.225
1.225
1.225
1.225
1.225
1.225
1.225
1.225
1.225
1.225
1.225
1.225
1.225
1.225
1.225
1.225
1.225
1.225
1.225
1.225
1.225
1.225
1.225
1.225
2.67786
1.69003
1.225
1.27059
1.22506
1.8958
2.33309
2.92064
1.46702
1.225
1.225
1.22569
1.22501
1.234
1.22569
1.225
1.225
1.225
1.1429
1.00631
2.15253
2.29627
2.76986
2.75256
0.123178
0.164683
0.235686
0.552887
0.0837923
0.0925623
0.6819
0.3218
0.707072
0.179765
0.712383
2.74768
1.225
1.225
1.225
1.225
1.225
1.225
1.225
1.225
1.225
1.225
1.225
1.225
1.225
1.225
1.225
1.225
1.225
1.225
1.225
1.225
1.225
1.225
1.225
1.225
1.225
1.225
1.225
1.225
1.225
1.2273
1.2259
1.225
1.225
1.22507
1.225
1.225
1.225
1.225
1.225
1.225
1.225
1.225
1.225
1.225
1.225
1.225
1.225
1.225
1.225
1.225
1.225
1.225
1.225
1.225
1.225
1.225
1.225
1.225
1.225
1.225
1.225
1.225
1.225
1.225
1.225
1.225
1.225
1.225
1.23168
1.22501
1.225
1.225
1.225
1.24116
1.22503
1.22511
1.22503
1.225
1.22501
1.225
1.225
1.225
1.225
1.22514
1.23873
1.22517
1.22764
1.2304
1.22506
1.22538
1.225
1.22502
1.225
1.22501
1.225
1.22501
1.225
1.225
1.225
1.225
1.225
1.225
1.225
1.225
1.225
1.225
1.225
1.225
1.225
1.225
1.225
1.225
1.225
1.22521
1.24458
1.22549
1.23171
1.23274
1.22518
1.22557
1.225
1.225
1.225
1.22501
1.225
1.22501
1.225
1.22501
1.22502
1.22537
1.22507
1.225
1.2258
1.22501
1.225
1.22503
1.22612
1.22511
1.225
1.22618
1.22503
1.225
1.225
1.225
1.225
1.225
1.225
1.225
1.225
1.225
1.225
1.22503
1.225
1.22502
1.225
1.22502
1.225
1.225
1.225
1.225
1.225
1.225
1.225
1.225
1.225
1.225
1.225
1.225
1.225
1.22501
1.225
1.225
1.225
1.22501
1.22501
1.225
1.22501
1.225
1.225
1.225
1.225
1.225
1.225
1.225
1.225
1.225
1.225
1.225
1.225
1.225
1.225
1.225
1.225
1.225
1.225
1.225
1.225
1.225
1.225
1.225
1.225
1.225
1.225
1.225
1.225
1.225
1.225
1.225
1.225
1.225
1.225
1.225
1.225
1.225
1.225
1.225
1.225
1.225
1.225
1.225
1.225
1.225
1.225
1.225
1.225
1.225
1.225
1.225
1.225
1.225
1.225
1.225
1.225
1.225
1.225
1.225
1.225
1.225
1.225
1.225
1.225
1.225
1.225
1.225
1.225
1.225
3.06972
3.29001
2.2801
1.85231
1.45197
1.40111
1.56652
1.23071
1.22733
1.22519
1.225
1.225
1.225
3.01883
2.30811
1.56326
3.20168
1.22913
1.22603
1.22527
1.2251
1.225
3.14948
3.01351
3.10243
3.07212
3.1382
2.45708
3.10462
2.44669
1.57783
1.75801
1.72011
1.61552
1.49359
1.5316
1.22831
2.60622
2.69818
1.64915
1.38999
2.4703
1.42257
2.8694
1.93296
1.26061
1.33822
1.2291
1.89252
1.26309
1.33712
1.24283
1.25385
1.22594
1.22571
1.2516
1.24512
1.22562
1.23762
1.2255
1.23318
1.22524
1.23959
1.22543
1.23219
1.22564
1.22813
1.22509
1.22502
1.22778
1.22574
1.22502
1.22508
1.225
1.22501
1.225
1.2251
1.225
1.22501
1.225
1.225
1.225
1.225
1.225
1.225
1.225
1.225
1.225
1.225
1.225
1.225
1.225
1.225
1.225
1.225
1.225
1.225
1.225
1.22504
1.225
1.225
1.225
1.225
1.225
1.225
1.225
1.225
1.225
1.225
1.225
1.225
1.225
1.225
1.225
1.225
1.225
1.225
1.225
1.225
1.225
1.225
1.225
1.225
1.225
1.225
1.225
1.225
1.225
1.225
1.225
1.225
1.225
1.225
1.225
1.225
1.225
1.225
1.225
1.225
1.225
1.225
1.225
1.225
1.225
1.225
1.225
1.225
1.43502
1.2999
1.24139
1.38212
1.22501
1.225
1.225
1.225
1.225
1.22757
1.225
1.22501
1.225
1.225
1.225
1.225
1.225
1.225
1.225
1.225
1.225
1.225
1.225
1.225
1.225
1.225
1.225
1.225
1.225
1.22527
1.22511
1.225
1.225
1.225
1.225
1.225
1.225
1.225
1.225
1.225
1.225
1.225
1.225
1.225
1.225
1.225
1.225
1.225
1.225
1.225
1.225
1.225
1.225
1.225
1.22502
1.225
1.225
1.225
1.225
1.225
1.225
1.225
1.225
1.225
1.225
1.225
1.225
1.225
1.225
1.225
1.225
1.225
1.225
1.225
1.225
1.225
1.225
1.225
1.225
1.225
1.225
1.225
1.225
1.225
1.225
1.225
1.225
1.225
1.225
1.225
1.225
1.225
1.225
1.225
1.225
1.225
1.225
1.225
1.225
1.225
1.225
1.225
1.225
1.225
1.225
1.225
1.225
1.225
1.225
1.225
1.225
1.225
1.225
1.225
1.225
1.225
1.225
1.225
1.225
1.225
1.225
1.225
1.225
1.225
1.225
1.225
1.225
1.225
1.225
1.225
1.225
1.225
1.225
1.225
1.225
1.225
1.225
1.225
1.225
1.225
1.225
1.225
1.225
1.225
1.225
1.225
1.225
1.225
1.225
1.225
1.225
1.225
1.225
1.225
1.225
1.225
1.225
1.225
1.225
1.225
1.225
1.225
1.225
1.225
1.225
1.225
1.225
1.225
1.225
1.225
1.225
1.2252
1.225
1.22501
1.22508
1.225
1.225
1.225
1.225
1.225
1.225
1.225
1.225
1.225
1.225
1.225
1.225
1.225
1.225
1.225
1.225
1.225
1.225
1.225
1.225
1.225
1.225
1.225
1.225
1.225
1.225
1.225
1.225
1.225
1.225
1.225
1.225
1.225
1.225
1.225
1.225
1.225
1.225
1.225
1.225
1.225
1.225
1.225
1.225
1.225
1.225
1.225
1.225
1.225
1.225
1.225
1.225
1.225
1.225
1.225
1.225
1.225
1.225
1.225
1.225
1.225
1.225
1.225
1.225
1.225
1.225
1.225
1.225
1.225
1.225
1.225
1.225
1.225
1.225
1.225
1.225
1.225
1.225
1.225
1.225
1.225
1.225
1.225
1.225
1.225
1.225
1.225
1.225
1.225
1.225
1.225
1.225
1.225
1.225
1.225
1.225
1.225
1.225
1.225
1.225
1.225
1.225
1.225
1.225
1.225
1.225
1.225
1.225
1.225
1.225
1.225
1.225
1.225
1.225
1.225
1.225
1.225
1.225
1.225
1.225
1.225
1.225
1.225
1.225
1.225
1.225
1.225
1.225
1.225
1.225
1.225
1.225
1.225
1.225
1.225
1.225
1.225
1.225
1.225
1.225
1.225
1.225
1.225
1.225
1.225
1.225
1.225
1.225
1.225
1.225
1.22501
1.22581
1.22506
1.22601
1.22531
1.22502
1.22502
1.225
1.225
1.225
1.225
1.225
1.225
1.225
1.225
1.225
1.225
1.225
1.225
1.22501
1.225
1.225
1.225
1.22514
1.225
1.225
1.22504
1.225
1.225
1.225
1.225
1.225
1.225
1.225
1.225
1.225
1.225
1.225
1.225
1.225
1.225
1.225
1.225
1.225
1.225
1.225
1.225
1.225
1.225
1.225
1.225
1.225
1.225
1.225
1.225
1.225
1.225
1.225
1.225
1.225
1.225
1.225
1.225
1.225
1.225
1.225
1.225
1.225
1.225
1.225
1.225
1.225
1.225
1.225
1.225
1.225
1.225
1.225
1.225
1.225
1.225
1.225
1.225
1.225
1.225
1.225
1.225
1.225
1.225
1.225
1.225
1.225
1.225
1.225
1.225
1.225
1.225
1.225
1.225
1.225
1.225
1.225
1.225
1.225
1.225
1.225
1.225
1.225
1.225
1.225
1.225
1.225
1.225
1.225
1.225
1.225
1.225
1.225
1.225
1.225
1.225
1.225
1.225
1.225
1.225
1.225
1.225
1.225
1.225
1.225
1.225
1.225
1.225
1.225
1.225
1.225
1.225
1.225
1.225
1.225
1.225
1.225
1.225
1.225
1.225
1.225
1.225
1.225
1.225
1.225
1.225
1.225
1.225
1.225
1.225
1.225
1.225
1.225
1.225
1.225
1.225
1.225
1.225
1.225
1.225
1.225
1.225
1.225
1.225
1.225
1.225
1.225
1.225
1.225
1.225
1.225
1.225
1.225
1.225
1.225
1.225
1.225
1.225
1.225
1.225
1.225
1.225
1.225
1.225
1.225
1.225
1.225
1.225
1.225
1.225
1.225
1.225
1.225
1.225
1.225
1.225
1.225
1.225
1.225
1.225
1.225
1.225
1.225
1.225
1.225
1.225
1.225
1.225
1.225
1.225
1.225
1.225
1.225
1.225
1.225
1.225
1.225
1.225
1.225
1.225
1.225
1.225
1.225
1.225
1.225
1.225
1.225
1.225
1.225
1.225
1.225
1.225
1.225
1.225
1.225
1.225
1.225
1.225
1.225
1.225
1.225
1.225
1.225
1.225
1.225
1.225
1.225
1.225
1.225
1.225
1.225
1.225
1.225
1.225
1.225
1.225
1.225
1.225
1.225
1.225
1.225
1.225
1.225
1.225
1.225
1.225
1.225
1.225
1.225
1.225
1.225
1.225
1.225
1.225
1.225
1.225
1.225
1.225
1.225
1.225
1.225
1.225
1.225
1.225
1.225
1.225
1.225
1.225
1.225
1.225
1.225
1.225
1.225
1.225
1.225
1.225
1.225
1.225
1.225
1.225
1.225
1.225
1.225
1.225
1.225
1.225
1.225
1.225
1.225
1.225
1.225
1.225
1.225
1.225
1.225
1.225
1.225
1.225
1.225
1.225
1.225
1.225
1.225
1.225
1.225
1.225
1.225
1.225
1.225
1.225
1.225
1.225
1.225
1.225
1.225
1.225
1.225
1.225
1.225
1.225
1.225
1.225
1.225
1.225
1.225
1.225
1.225
1.225
1.225
1.225
1.225
1.225
1.225
1.225
1.225
1.225
1.225
1.225
1.225
1.225
1.225
1.225
1.225
1.225
1.225
1.225
1.225
1.225
1.225
1.225
1.225
1.225
1.225
1.225
1.225
1.225
1.225
1.225
1.225
1.225
1.225
1.225
1.225
1.225
1.225
1.225
1.225
1.225
1.225
1.225
1.225
1.225
1.225
1.225
1.225
1.225
1.225
1.225
1.225
1.225
1.225
1.225
1.225
1.225
1.225
1.225
1.225
1.225
1.225
1.225
1.225
1.225
1.225
1.225
1.225
1.225
1.225
1.225
1.225
1.225
1.225
1.225
1.225
1.225
1.225
1.225
1.225
1.225
1.225
1.225
1.225
1.225
1.225
1.225
1.225
1.225
1.225
1.225
1.225
1.225
1.225
1.225
1.225
1.225
1.225
1.225
1.225
1.225
1.225
1.225
1.225
1.225
1.225
1.225
1.225
1.225
1.225
1.225
1.225
1.225
1.225
1.225
1.225
1.225
1.225
1.225
1.225
1.225
1.225
1.225
1.225
1.225
1.225
1.225
1.225
1.225
1.225
1.225
1.225
1.225
1.225
1.225
1.225
1.225
1.225
1.225
1.225
1.225
1.225
1.225
1.225
1.225
1.225
1.225
1.225
1.225
1.225
1.225
1.225
1.225
1.225
1.225
1.225
1.225
1.225
1.225
1.225
1.225
1.225
1.225
1.225
1.225
1.225
1.225
1.225
1.225
1.225
1.225
1.225
1.225
1.225
1.225
1.225
1.225
1.225
1.225
1.225
1.225
1.225
1.225
1.225
1.225
1.225
1.225
1.225
1.225
1.225
1.225
1.225
1.225
1.225
1.225
1.225
1.225
1.225
1.225
1.225
1.225
1.225
1.225
1.225
1.225
1.225
1.225
1.225
1.225
1.225
1.225
1.225
1.225
1.225
1.225
1.225
1.225
1.225
1.225
1.225
1.225
1.225
1.225
1.225
1.225
1.225
1.225
1.225
1.225
1.225
1.225
1.225
1.225
1.225
1.225
1.225
1.225
1.225
1.225
1.225
1.225
1.225
1.225
1.225
1.225
1.225
1.225
1.225
1.225
1.225
1.225
1.225
1.225
1.225
1.225
1.225
1.225
1.225
1.225
1.225
1.225
1.225
1.225
1.225
1.225
1.225
1.225
1.225
1.225
1.225
1.225
1.225
1.225
1.225
1.225
1.225
1.225
1.225
1.225
1.225
1.225
1.225
1.225
1.225
1.225
1.225
1.225
1.225
1.225
1.225
1.225
1.225
1.225
1.225
1.225
1.225
1.225
1.225
1.225
1.225
1.225
1.225
1.225
1.225
1.225
1.225
1.225
1.225
1.225
1.225
1.225
1.225
1.225
1.225
1.225
1.225
1.225
1.225
1.225
1.225
1.225
1.225
1.225
1.225
1.225
1.225
1.225
1.225
1.225
1.225
1.225
1.225
1.225
1.225
1.225
1.225
1.225
1.225
1.225
1.225
1.225
1.225
1.225
1.225
1.225
1.225
1.225
1.225
1.225
1.225
1.225
1.225
1.225
1.225
1.225
1.225
1.225
1.225
1.225
1.225
1.225
1.225
1.225
1.225
1.225
1.225
1.225
1.225
1.225
1.225
1.225
1.225
1.225
1.225
1.225
1.225
1.225
1.225
1.225
1.225
1.225
1.225
1.225
1.225
1.225
1.225
1.225
1.225
1.225
1.225
1.225
1.225
1.225
1.225
1.225
1.225
1.225
1.225
1.225
1.225
1.225
1.225
1.225
1.225
1.225
1.225
1.225
1.225
1.225
1.225
1.225
1.225
1.225
1.225
1.225
1.225
1.225
1.225
1.225
1.225
1.225
1.225
1.225
1.225
1.225
1.225
1.225
1.225
1.225
1.225
1.225
1.225
1.225
1.225
1.225
1.225
1.225
1.225
1.225
1.225
1.225
1.225
1.225
1.225
1.225
1.225
1.225
1.225
1.225
1.225
1.225
1.225
1.225
1.225
1.225
1.225
1.225
1.225
1.225
1.225
1.225
1.225
1.225
1.225
1.225
1.225
1.225
1.225
1.225
1.225
1.225
1.225
1.225
1.225
1.225
1.225
1.225
1.225
1.225
1.225
1.225
1.225
1.225
1.225
1.225
1.225
1.225
1.225
1.225
1.225
1.225
1.225
1.225
1.225
1.225
1.225
1.225
1.225
1.225
1.225
1.225
1.225
1.225
1.225
1.225
1.225
1.225
1.225
1.225
1.225
1.225
1.225
1.225
1.225
1.225
1.225
1.225
1.225
1.225
1.225
1.225
1.225
1.225
1.225
1.225
1.225
1.225
1.225
1.225
1.225
1.225
1.225
1.225
1.225
1.225
1.225
1.225
1.225
1.225
1.225
1.225
1.225
1.225
1.225
1.225
1.225
1.225
1.225
1.225
1.225
1.225
1.225
1.225
1.225
1.225
1.225
1.225
1.225
1.225
1.225
1.225
1.225
1.225
1.225
1.225
1.225
1.225
1.225
1.225
1.225
1.225
1.225
1.225
1.225
1.225
1.225
1.225
1.225
1.225
1.225
1.225
1.225
3.15609
1.27112
1.22916
1.225
1.225
1.225
1.82014
1.225
1.22526
1.23325
1.225
1.225
2.98029
1.22537
1.225
1.225
1.22512
1.225
1.225
1.27332
1.22508
1.225
1.225
1.225
1.225
1.225
1.22504
1.2258
1.225
1.225
1.225
1.225
1.225
1.22505
1.225
1.225
1.225
1.225
1.225
1.225
1.225
1.225
1.225
1.225
1.225
1.225
1.225
1.225
1.225
1.225
1.225
1.225
2.30247
2.8874
2.50632
1.25016
1.49898
1.34512
1.28477
1.225
1.225
1.225
1.22501
1.225
1.225
1.22502
1.33511
1.70781
1.27471
1.22832
1.22656
1.24474
1.22521
1.225
1.225
1.225
1.225
1.225
1.225
1.225
1.22584
1.22853
1.23203
1.22501
1.22521
1.22502
1.22511
1.225
1.225
1.225
1.225
1.225
1.225
1.225
1.22524
1.22623
1.22735
1.22501
1.22504
1.22507
1.225
1.225
1.225
1.225
1.225
1.225
1.225
1.225
1.22501
1.22504
1.2254
1.225
1.22501
1.225
1.225
1.225
1.225
1.225
1.225
1.225
1.225
1.225
1.22501
1.225
1.225
1.225
1.225
1.225
1.225
1.225
1.225
1.225
1.225
1.225
1.225
1.225
1.225
1.225
1.225
1.225
1.225
1.225
1.225
1.225
1.225
1.225
1.225
1.225
1.225
1.225
1.225
1.225
1.225
1.225
1.225
1.225
1.225
1.225
1.225
1.225
1.225
1.225
1.225
1.225
1.225
1.225
1.225
1.225
1.225
1.225
1.225
1.225
1.225
1.225
1.225
1.225
1.225
1.225
1.225
1.225
1.225
1.225
1.225
1.225
1.22565
1.23505
1.22504
1.22509
1.22895
1.22501
1.22676
1.22507
1.22501
1.22504
1.225
1.22553
1.225
1.225
1.225
1.22501
1.225
1.225
1.225
1.225
1.225
1.225
1.225
1.225
1.225
1.225
1.225
1.225
1.225
1.225
1.225
1.225
1.225
1.225
1.225
1.225
1.225
1.225
1.225
1.225
1.225
1.225
1.225
1.225
1.225
1.225
1.225
1.225
1.225
1.225
1.225
1.225
1.225
1.225
1.225
1.225
1.225
1.225
1.225
1.225
1.225
1.225
1.225
1.225
1.225
1.225
1.225
1.225
1.225
1.225
1.225
1.225
1.225
1.225
1.225
1.225
1.225
1.225
1.225
1.225
1.225
1.225
1.225
1.225
1.225
1.225
1.225
1.225
1.225
1.225
1.225
1.225
1.225
1.225
1.225
1.225
1.225
1.225
1.225
1.225
1.225
1.225
1.225
1.225
1.225
1.225
1.225
1.225
1.225
1.225
1.225
1.225
1.225
1.225
1.225
1.225
1.225
1.225
1.225
1.225
1.225
1.225
1.225
1.225
1.225
1.225
1.225
1.225
1.225
1.225
1.225
1.225
1.225
1.225
1.225
1.225
1.225
1.225
1.225
1.225
1.225
1.225
1.225
1.225
1.225
1.225
1.225
1.225
1.225
1.225
1.225
1.225
1.225
1.225
1.225
1.225
1.225
1.225
1.225
1.225
1.225
1.225
1.225
1.225
1.225
1.225
1.225
1.225
1.225
1.225
1.225
1.225
1.225
1.225
1.225
1.225
1.225
1.225
1.225
1.225
1.225
1.225
1.225
1.225
1.225
1.225
1.225
1.225
1.225
1.225
1.225
1.225
1.225
1.225
1.225
1.225
1.225
1.225
1.225
1.225
1.225
1.225
1.225
1.225
1.225
1.225
1.225
1.225
1.225
1.225
1.225
1.225
1.225
1.225
1.225
1.225
1.225
1.225
1.225
1.225
1.225
1.225
1.225
1.225
1.225
1.225
1.225
1.225
1.23652
1.22889
2.84992
2.50662
1.22763
1.22502
1.66442
1.23181
1.225
1.22502
1.25216
1.31652
1.40945
1.50954
2.73583
1.8297
2.27958
1.23239
1.25906
1.28608
1.41154
1.82874
2.06979
1.32582
1.22525
1.2263
1.23737
1.23299
1.51903
1.26174
1.29576
1.22532
1.225
1.22503
1.22599
1.22582
1.23508
1.22507
1.225
1.225
1.225
1.225
1.22504
1.225
1.225
1.225
1.225
1.68447
1.22698
1.225
1.225
2.44735
3.27186
3.02899
2.69942
2.64948
1.225
1.225
1.225
1.225
1.225
1.225
1.225
1.225
1.225
1.225
1.225
1.225
1.225
1.225
1.225
1.225
1.225
1.225
1.225
1.225
1.225
1.225
1.225
1.225
1.225
1.225
1.225
1.225
1.225
1.225
1.225
1.225
2.55452
2.60122
2.01848
1.42901
2.60028
2.63385
2.6743
2.74364
2.35849
2.64068
1.39581
2.15485
2.08886
2.84006
2.5188
2.82911
2.44852
1.88473
2.56483
3.29353
2.91769
1.95639
2.32246
1.65032
1.22723
1.2339
2.86011
2.37071
2.70375
3.21147
3.36935
3.3293
2.90221
2.59891
2.60557
2.30925
2.45405
2.4572
1.41521
1.38883
1.60757
2.07032
2.03488
1.24374
1.30371
1.29396
1.24683
1.23232
1.30753
1.2946
1.22776
1.2253
1.22524
0.115653
0.214967
0.0408915
0.0898576
0.239201
0.0285079
0.0787838
0.0762674
0.213743
0.18109
0.0202237
0.0608955
0.016856
0.0501506
0.12361
0.12276
0.142089
0.197577
0.175166
0.0690136
0.0993536
0.121808
0.186377
0.234109
0.0828676
0.0319175
0.0196304
0.054728
0.280858
0.70132
0.324348
0.759065
0.423405
0.980963
0.531494
0.614775
0.294131
0.25485
0.974618
0.898769
0.509981
0.45319
0.386913
0.0731651
0.212532
0.348261
0.548076
0.297942
0.15554
0.221413
0.359487
0.390519
0.291644
0.448543
0.516351
0.303728
0.259564
0.599642
0.674052
0.855823
0.924267
0.441885
0.501988
1.13208
0.380449
0.671646
1.39407
0.873765
0.903738
0.528304
0.464632
0.866161
1.21398
1.13027
1.5176
0.65445
0.933255
2.24278
1.22914
1.27565
1.22503
1.22935
1.80251
1.82178
1.69843
2.16106
1.29186
2.53864
2.00155
1.28091
1.64056
1.28718
2.02512
1.20195
2.35181
2.51216
1.64354
1.55457
0.666983
1.6737
0.814273
3.06476
1.06595
2.95516
1.47571
2.76298
1.01318
3.01612
2.09583
2.10214
1.39375
2.9712
2.74863
1.56754
3.24983
2.38464
3.2677
2.8044
2.80728
2.88714
1.72108
1.39638
2.26881
1.85536
2.59469
2.57054
3.7894
3.28675
3.62981
2.97748
3.19346
2.81958
2.93174
3.0127
2.85607
2.9358
2.56894
2.66765
1.28656