/*--------------------------------*- C++ -*----------------------------------*\
  =========                 |
  \\      /  F ield         | OpenFOAM: The Open Source CFD Toolbox
   \\    /   O peration     | Website:  https://openfoam.org
    \\  /    A nd           | Version:  9
     \\/     M anipulation  |
\*---------------------------------------------------------------------------*/
FoamFile
{
    format      ascii;
    class       volScalarField;
    location    "0.0025";
    object      p;
}
// * * * * * * * * * * * * * * * * * * * * * * * * * * * * * * * * * * * * * //

dimensions      [1 -1 -2 0 0 0 0];

internalField   nonuniform List<scalar> 
21430
(
196993
185987
209352
197650
251124
206304
261769
193558
150496
154352
175927
213637
183060
224717
221508
158450
180620
204975
232974
162037
187812
150901
158489
159298
161763
162721
171224
169742
155787
183768
221945
192562
231424
209292
265533
240003
163687
191550
236038
277080
180619
214477
159147
165225
166354
170587
171957
179303
177400
152075
163298
160493
166632
163915
172478
175703
160714
169947
167830
175597
173474
180754
183595
166980
177987
168364
180304
187456
189824
178235
188424
173573
175247
183767
194287
196852
181556
172634
182891
174306
187274
193101
195735
184822
229927
234917
295033
235544
278655
280722
305013
159940
165319
168710
169894
173367
178571
183741
292055
190555
226665
320838
342213
246432
293486
189860
179701
176483
185271
203032
198866
188869
172869
179536
169628
181825
195853
191882
185377
217413
205173
239367
205380
240542
238102
258491
272931
183319
199431
185479
192841
204163
206745
190269
184406
178560
175707
188847
201657
197699
192227
167815
172073
177840
176708
182558
186598
191880
194437
207396
196329
186042
198308
209688
219503
201449
189907
187057
194477
213345
209228
197936
192773
203412
199945
216256
202469
206078
190326
175875
165372
172784
187434
179434
190497
199122
180761
186840
175695
200527
189218
195029
207227
182672
203881
187997
207906
192793
198770
215040
181411
197355
186557
206336
196125
202116
213258
194771
213360
219536
209650
205117
208729
198833
200622
212262
206586
224161
214913
209319
198039
173033
190701
182571
197086
188570
198682
207864
193143
216027
198647
218491
202061
208347
226014
193485
194224
181999
197464
210931
209919
224128
325716
294421
213632
313812
276496
292506
352516
202818
227638
222615
216629
217901
212056
206845
208276
191799
195253
218175
203643
206510
220688
250533
223085
233786
218390
208546
223234
233821
222685
212817
230132
244408
255171
225553
236090
195896
200021
187415
202588
226152
215733
212021
204287
201153
208236
215445
223690
219768
236041
219136
215236
203571
210455
240389
223041
227170
223424
244939
210308
252140
229136
243453
268250
211866
203768
194902
206495
235102
224033
216187
204875
201979
193194
209848
233035
222070
219827
228697
222398
211722
218884
249617
237198
230455
224682
215540
205764
216427
248272
235879
226966
222943
260242
235075
272370
245043
258477
287475
220796
220009
206398
239087
223798
239142
255916
233314
235308
219774
252138
250982
233235
235253
220515
240866
223415
255937
254561
234839
237133
199891
205286
192577
206778
215223
220725
230782
280323
269688
291938
261135
272065
240676
251696
219132
249594
251854
244772
232889
237355
229807
215052
252408
230186
249178
228431
244668
268007
213201
242887
228270
247075
232698
250110
265806
228382
272123
246193
264476
240793
259772
286966
228133
262013
261934
253776
248284
240953
239668
255312
238330
261855
259797
307366
278454
286331
101298
101298
101298
101298
101298
101298
101298
101298
101298
101298
101298
101298
101298
101298
101306
101298
101298
101298
101298
101298
101298
138029
101481
101299
101298
101298
101298
101298
430040
443739
115203
101302
101298
101298
101298
266478
324919
473360
222803
101309
101298
101298
232036
293878
443259
235338
101303
101298
220788
292449
469957
123320
101299
249088
377185
198840
101300
101298
101298
101298
101298
101298
101298
101298
101298
101298
101298
101298
101298
101298
101298
101298
101298
101298
101298
101298
101298
101298
105217
101316
101298
101298
101298
101298
101298
469993
367064
102773
101299
101298
101298
101298
291742
363830
486710
118748
101299
101298
101298
252670
323349
487899
122256
101299
101298
223923
321466
490020
103725
101298
272655
439003
102305
101298
101298
101298
101298
101298
101298
101298
101298
101298
101298
101298
101298
101298
101298
101298
101298
101298
101298
101298
101298
101298
101298
101310
101298
101298
101298
101298
101298
101298
352304
105951
101303
101298
101298
101298
101298
390767
509897
261738
101348
101298
101298
101298
311369
438418
389832
101359
101298
101298
302523
329639
301036
101306
101298
344193
397211
101299
101298
101298
101298
101298
101298
101298
101298
101298
101298
101298
101298
101298
101298
101298
101298
101298
101298
101298
101298
101298
101298
101298
101298
101298
101298
101298
101298
101298
101298
101425
101299
101298
101298
101298
101298
101298
449123
488927
101330
101298
101298
101298
101298
355634
373452
494309
101446
101298
101298
101298
290668
389399
495392
101349
101298
101298
278120
385262
423618
101298
101298
101298
101298
101298
101298
101298
101298
101298
101298
101298
101298
101298
101298
101298
101298
101298
101298
101298
101298
101298
101298
101298
101298
101298
101298
101298
101298
101298
101298
101298
101298
101298
101298
101298
101298
101298
101529
101299
101298
101298
101298
101298
101298
351080
377949
101314
101298
101298
101298
101298
252706
354503
382081
101320
101298
101298
101298
368633
349026
101298
101298
101298
101298
101298
101298
101298
101298
101298
101298
101298
101298
101298
101298
101298
101298
101298
101298
101298
101298
101298
101298
101298
101298
101298
101298
101298
101298
101298
101298
101298
101298
101298
101298
101298
101298
101298
101298
101298
101298
101298
101298
101298
101298
101298
102262
101301
101298
101298
101298
101298
101298
349180
341974
106375
101298
101298
101298
101298
220470
130725
101952
101298
101298
101298
101298
101298
101298
101298
101298
101298
101298
101298
101298
101298
101298
101298
101298
101298
101298
101298
101298
101298
101298
101298
101298
101298
101298
101298
101298
101298
101298
101298
101298
101298
101298
101298
101298
101298
101298
101298
101298
101298
101298
101298
101298
101298
101298
101298
101298
101298
101298
101298
101298
101536
101299
101298
101298
101298
101298
101298
160393
101417
101298
101298
101298
101298
101298
101298
101298
101298
101298
101298
101298
101298
101298
101298
101298
101298
101298
101298
101298
101298
101298
101298
101298
101298
101298
101298
101298
101298
101298
101298
101298
101298
101298
101298
101298
101298
101298
101298
101298
101298
101298
101298
101298
101298
101298
101298
101298
101298
101298
101298
101298
101298
101298
101298
101298
101298
101298
101298
101298
101298
101298
101298
101298
101298
101298
101298
101298
101298
101298
101298
101298
101298
101298
101298
101298
101298
101298
101298
101298
101298
101298
101298
101298
101298
101298
101298
101298
101298
101298
101298
101298
101298
101298
101298
101298
101298
101298
101298
101298
101298
101298
101298
101298
101298
101298
101298
101298
101298
101298
101298
101298
101298
101298
101298
101298
101298
101298
101298
101298
101298
101298
101298
101298
101298
101298
101298
101298
101298
101298
101298
101298
101298
101298
101298
101298
101298
101298
101298
101298
101298
101298
101298
101298
101298
101298
101298
101298
101298
101298
101298
101298
101298
101298
101298
101298
101298
101298
101298
101298
101298
101298
101298
101298
101298
101298
101298
101298
101298
101298
101298
101298
101298
101298
101298
101298
101298
101298
101298
101298
101298
101298
101298
101298
101298
101298
101298
101298
101298
101298
101298
274614
189385
221756
244675
291246
197765
233743
270092
188014
225074
232747
286332
194011
237326
263242
199438
208490
228931
290552
241470
308261
305807
211581
238212
281509
325026
221173
251268
185634
196267
197557
198691
200004
211161
208698
302176
202387
241138
293881
357120
228222
278160
205246
240106
296908
244958
276762
348373
261148
191981
199073
201678
202222
204922
215080
212437
213625
290749
242212
249359
320254
288890
388077
190133
205825
207166
201431
202715
214442
219470
193842
208654
204213
211992
207504
218297
223370
202072
208075
210842
214035
216798
226176
223441
339167
226742
257670
348794
434782
272244
303394
258388
301601
273086
311570
368572
309166
396679
260885
320133
346545
313352
319940
379523
373476
258072
268661
198264
352170
299864
248195
300331
204216
218355
213596
224704
219779
229697
235227
214096
219267
221798
227623
230098
238646
236103
384402
284053
321505
398121
303449
280258
335055
382934
235204
290327
311532
414584
248520
307671
207930
223381
210380
223614
234840
237668
221019
209795
224361
212348
226555
236842
239679
223905
216908
229979
225077
238807
233626
242562
248430
198655
211245
212646
218778
220275
225900
234450
404271
241451
309072
309893
439776
248639
328152
210605
227742
213121
225071
237954
240828
222449
209092
214107
217558
221738
225355
229896
238687
433168
249911
298408
346619
464539
257353
316442
216304
234748
218994
229994
244086
247007
227300
227103
218650
213651
227353
248152
241814
233016
231524
221480
216390
228825
251499
245025
234537
217871
231666
220590
236918
246342
249346
234127
251942
230430
233121
243617
260893
264057
240800
411962
270795
279032
318989
473100
339589
477588
238679
227476
222304
233810
258048
251344
239627
228083
220566
215543
230302
250261
243859
236018
221068
224423
231125
232773
239991
242572
252537
229272
235521
223948
240902
260584
253718
247083
228094
240917
230667
248634
257369
260361
245919
464304
290416
340295
455187
447099
307469
365411
245677
269375
248247
258059
277549
280784
255277
252930
294566
378915
298593
351698
506712
328256
256347
242688
236879
247796
276374
268804
254297
245013
239923
234362
252929
272337
265027
259517
234828
236479
245870
245614
255831
256451
267569
441849
256913
319136
389243
504729
298629
379947
213659
239836
241580
228345
229934
245349
258406
465563
275866
341832
384050
495359
307864
428190
392634
283318
296242
401210
503401
314265
326947
217635
243338
231490
247637
235402
250003
263688
225033
249789
233496
256524
240401
250116
267569
228011
255071
236717
260093
242008
251860
271462
269727
240420
251698
260839
272196
280188
292118
209767
214333
205776
218395
227226
223436
238458
482114
286440
328795
476850
467240
321465
401234
234191
263487
243316
267059
247311
257629
279125
294778
345086
397529
308510
440212
380002
468576
242648
258103
254183
278198
261348
257364
239771
238598
251025
252759
273545
254144
255906
235758
274112
258660
252384
262569
293752
285790
269562
226990
250905
235579
258756
243511
253480
270019
238026
251731
250684
254864
253796
272709
269257
230562
256286
243471
265007
251379
265131
280168
236240
259882
245607
269811
255352
266458
282076
250638
266365
276848
274172
284115
291427
302892
244380
255895
259113
260500
263819
280704
277066
250533
285255
261219
286650
263087
274901
300191
496872
312184
355319
354990
475415
457269
355011
492764
302258
362735
499107
385120
395646
463508
246888
283162
273475
269234
266046
261980
253406
242766
278429
265804
267676
258696
260483
249145
255848
274640
266715
294471
270139
278184
252774
242176
266570
265426
259429
258337
277590
285471
252868
263594
266912
270790
274169
290276
286487
277421
307221
327899
294075
276441
250908
266720
271196
247384
259712
282304
268523
280788
295624
314569
297347
269556
279518
294976
308943
329913
255267
271068
263740
276072
268530
285653
293786
275723
305127
325882
291812
264947
248942
274080
257542
258995
245488
284882
268837
281856
299247
264329
279406
271734
287094
279147
295428
303920
259514
282443
304816
285343
264997
243206
260825
302794
341716
364700
302033
319585
270940
286281
260393
291320
299622
282806
274979
283186
267589
269637
290448
279727
309756
294047
283200
266551
262085
257255
244309
262411
298025
281482
277092
283042
247845
267840
264302
302567
285707
279161
274349
255907
236605
253990
272141
274375
294916
282848
242400
257515
223072
233521
238808
252592
303117
271642
296001
273735
275204
251814
253051
257375
250370
237163
229914
219968
237113
250333
427745
319717
387724
435186
196223
401211
496886
267373
305659
279418
304835
279195
292258
320046
238961
223164
233567
262143
242663
257717
283139
357811
354778
278107
331408
297490
223080
102267
333344
294425
356121
356607
155545
249035
101803
283500
278973
262098
273688
316491
296756
291834
269362
277324
255074
270784
312460
294328
286578
263306
259887
246599
266159
301151
284226
281394
275287
277284
257583
268717
310717
287785
289935
252040
271779
253240
275699
274170
296396
303552
274094
284312
287998
295906
299746
316202
312053
268001
276121
274894
288721
287376
296034
309841
259170
263024
241595
258075
277221
280604
302950
323096
296240
270086
303824
279491
254631
274963
261300
264287
238524
230206
213964
232138
252256
316777
278903
302296
328926
302247
316918
350325
363652
421505
461552
454139
333166
103712
295175
280228
259440
260785
285162
288787
307898
317686
346128
337799
340389
342993
110692
116588
101415
274489
315382
307937
296544
299312
288322
282149
271812
273161
257562
280422
315357
297330
296882
264118
280908
286237
293844
299587
304787
319140
381125
320374
446453
483763
292567
340229
474293
271158
297782
274657
294862
316204
320371
291031
406524
315107
459430
472468
330840
333893
480829
272805
296297
276327
300151
318382
322554
296209
458583
430570
420964
208866
102552
401137
322432
162288
294822
358044
110027
101433
342666
191128
338095
180504
299011
104454
101358
261590
114373
284210
328003
296344
336595
305277
320577
360384
295941
305405
284462
336773
311775
327210
359674
233271
279016
248706
278985
246192
266000
307740
220662
270581
236142
281582
242958
263262
311329
268906
294120
272336
293642
313706
317810
289845
286966
301628
293152
314231
305132
322032
332252
277800
307439
272631
257268
282657
299391
326796
302373
293385
277309
290197
336432
307249
316920
287018
270955
285828
296300
333120
312297
315205
278999
303783
297488
324067
313566
340478
356822
279687
302431
283386
308939
326897
331305
304788
293819
303408
307150
319926
323742
341875
337758
273772
289804
297923
303546
312270
315648
331472
273421
342965
475351
484339
182128
366947
461868
274678
299378
332171
328286
296514
323168
362613
423962
488091
491322
120791
331792
255106
101587
319858
274742
300858
289649
338086
316927
307144
321785
301417
336092
355688
362849
338681
391151
301036
335761
362323
339887
314467
357400
392622
302919
287530
279570
299965
335313
325804
308484
299198
285069
277209
298728
332379
323132
307207
282947
313306
286725
305751
331705
336145
301671
301379
289216
281230
305263
337589
328009
313890
318717
300090
291749
310950
353324
342254
319852
299013
322205
312726
340986
329911
349064
362935
340044
315642
337014
383833
352629
313904
284804
177647
368598
478212
407172
125099
401066
480445
295096
329213
298967
317635
349661
354282
313397
493245
427363
191513
103278
101345
362831
158062
332560
383024
414138
412842
351500
381893
443848
320219
307888
292638
306678
359513
337433
323225
307630
296689
288425
314297
348037
337295
323523
319207
291473
276822
306391
339383
322846
360623
485059
318832
422853
468228
119770
392792
480669
419175
429530
458396
486190
475283
109548
403476
288317
334313
333036
326823
313182
307802
305727
282711
327657
321624
324086
303293
305583
299334
335448
313155
304284
323321
376140
361741
333306
300048
323335
304086
336682
358694
363425
332280
273111
317892
293519
318037
294887
318235
345806
277425
301685
327030
323279
297213
321213
353384
281983
322948
321270
304383
302905
326823
347539
276188
320225
297393
321910
300051
325306
351726
350558
311712
283202
338738
303552
334870
381589
297812
313374
327262
329183
345348
347276
368923
146926
177558
150550
188280
175096
222494
245465
169015
115977
137442
149308
174785
115617
140164
114830
122421
121695
125714
124951
131840
132214
177558
116301
141240
165979
197717
131302
156768
115343
123106
122356
126160
125793
132853
133724
208484
139703
165409
223881
267015
177540
207051
208305
145929
174681
184575
219007
149581
181834
129588
137356
129203
139420
147391
147678
139464
136025
147088
135698
142652
153612
154139
142607
148522
137360
136866
143983
157063
155649
145033
138360
131343
130004
140594
150965
149009
142040
119811
123857
126897
127385
130328
134627
138202
124312
138660
131795
141521
134686
142675
149513
150321
161010
157927
170495
161948
158720
149934
146162
155935
155005
156652
155704
166354
165008
150235
147050
149958
157717
160891
157991
169111
225387
151062
191255
210762
257749
179763
207833
132164
144983
135771
152429
143139
146930
156532
138280
154236
141774
158693
146226
149985
162800
151757
171872
165595
162455
163401
160133
153393
147394
160519
159661
157997
156978
167681
170799
291084
192367
225126
230435
319185
197763
235077
163087
185573
170716
190156
174461
183096
199353
166485
179664
167849
177580
186840
189306
175548
158935
153014
146174
154710
175382
167987
161695
149761
147125
140252
151690
169047
161741
158679
164585
176784
165966
176636
184931
187311
174560
167670
164531
154967
159068
182627
172246
169060
155106
162575
161720
167062
166176
173556
178545
273743
201496
233679
285259
362020
237716
256658
155559
176545
166432
178069
167357
178724
189851
181164
172222
169205
179110
195119
191211
182559
178346
170451
167261
178190
193271
189431
181656
161635
187516
173171
184828
170519
182305
197668
112031
127933
181536
111754
139839
142773
136480
165246
139281
171134
110807
120438
119357
118755
119829
127852
128195
112712
143899
147825
140398
173935
155936
193951
110988
121634
120506
119043
120207
128417
130249
136366
179755
206073
164647
217558
220325
237887
129816
139843
129493
137623
147787
148084
137682
127615
136385
127264
136478
145512
145734
136566
116314
122353
121220
124740
125876
131083
134678
131868
140788
130156
138495
151619
149210
140589
129610
137278
127792
137328
149198
146892
139438
120870
137305
136146
129191
130367
139202
146146
146376
156288
155123
166630
155827
157019
146137
146674
145737
144574
155063
156286
154621
165397
132745
147647
136329
153066
141713
145462
157150
130433
144117
134024
150754
140548
144283
154763
147494
161036
167903
159833
157047
158212
149888
172422
183200
167536
168930
158956
178485
193380
159615
140899
152537
150303
169895
162517
157366
145459
148909
138517
149101
167334
160034
156142
163087
161902
151421
155453
178947
166365
167597
167223
156323
168355
178956
166044
177206
190752
175618
164578
153918
176331
164794
175845
187819
201411
201324
206960
210976
216808
217231
227682
224624
211334
194267
195982
180620
191224
207551
202576
205452
189416
192407
177646
189630
205620
164265
189178
185965
182658
178043
174842
171591
203934
205345
187932
197658
236361
214914
216052
190607
195304
179871
193294
223971
205228
210523
187729
197045
196105
210782
199544
198539
185359
167642
171964
160339
180618
172838
185060
193447
180019
181328
185532
172197
173492
160755
168095
174973
193998
179994
199713
186260
191934
206305
178210
173227
185579
197895
185379
191040
204435
189766
214010
206548
205621
202137
201234
193634
195933
192335
180744
192940
222672
209339
205131
188190
189273
176639
190167
202583
203756
217041
201751
204276
189529
203316
190898
177104
188664
235996
212236
222471
243908
229462
240434
255188
201869
208340
211774
213013
217094
228172
224730
224511
255905
235034
258533
236222
247098
269071
193170
198654
184753
198414
223029
212806
207584
217581
221142
203112
239738
219037
234788
257648
258047
235280
217812
219725
240263
203549
221471
209084
241999
250856
244059
227565
222298
228966
211952
211013
198240
204780
233868
219490
218522
201410
194910
186511
199302
225061
214718
208511
216588
219165
203417
235598
218897
233412
251749
205392
237847
218997
237987
219978
234739
254794
273613
265901
249938
260992
303596
284614
277124
234686
251396
254701
246969
268203
268844
243802
220716
223531
237309
241190
255041
256345
238516
213144
244714
240680
239545
229092
228066
223382
277893
253008
234117
252753
300799
273254
277679
258535
261050
237354
254544
306499
277413
280084
255021
253683
236039
252360
294333
273488
271851
261479
309276
290147
281111
286408
278917
260215
274147
322548
331456
328057
298524
296233
302094
368049
323588
393104
429250
364849
340001
303699
262278
347321
490986
464685
106255
431502
441694
391955
510394
400605
456514
281404
103847
449540
345673
314873
287226
335929
306185
333561
373055
323789
313953
294784
308757
369611
340396
329819
295594
334269
309356
345613
318677
333814
364218
290538
328738
309787
335841
315989
336988
360030
336200
314013
289673
339040
317997
349536
377257
222090
354954
488784
389296
104240
451981
459854
298226
339200
312207
349118
320041
335361
368698
299951
336824
313943
351569
325800
341787
371358
341848
294756
326566
326820
387844
369576
342118
318680
329201
309481
343225
387547
371616
355202
319598
344620
323626
366769
396381
401441
361942
371200
326715
306804
344484
397716
369715
434186
258563
288177
313904
284870
324156
318621
355923
284739
323800
355780
287758
318332
258389
277975
251016
331163
279302
316709
354430
331199
279296
382285
327798
332015
354896
414421
419299
350309
287198
444906
466070
459419
107243
433263
102967
306096
359858
357730
345880
324362
335287
325249
301072
357858
340166
331246
395143
381160
347371
330453
300227
308234
338766
393952
379981
356433
295184
307004
343503
292474
362089
341277
328029
334899
282839
256146
290530
355202
325805
341723
392599
350509
338532
362861
447358
429904
378437
307943
345696
322814
364256
336794
355400
388103
302324
341930
320632
354305
330440
352332
381610
337230
336222
358415
356722
386300
385704
419391
327506
268049
291985
305851
342348
340603
361739
319229
343087
347453
346141
350513
389645
384961
138833
387127
445761
415437
102019
495430
230926
351795
340705
329774
376124
432585
412600
394025
311456
360978
326470
370150
332398
349610
395176
326474
339007
307957
364505
341866
386451
419306
324621
348253
352671
355661
360186
401841
396940
355319
335004
290450
341900
300500
256151
282802
110681
428715
476471
127707
101471
501325
333062
325750
390214
343287
399421
348036
369313
433291
311966
347787
394915
371046
330707
368382
429497
513820
120808
475422
504720
225375
341501
101574
346826
379029
395790
414647
431764
437447
464257
332922
372631
384688
352447
402408
409366
370356
372361
354532
321983
375396
405312
411961
387376
318165
344013
342431
387591
348403
346794
314050
328025
351971
361299
409140
356381
365828
323734
330869
352533
368812
396207
402051
411329
447128
283696
316489
347082
320749
350484
350586
345925
324566
365452
353804
368997
357013
398816
416946
324589
389289
397331
371757
361163
343408
348462
330783
411060
363583
352874
447498
402529
396359
347142
438226
396637
372366
462734
413854
430575
321721
326586
274773
303537
351307
347063
348168
323510
396607
366741
364735
354866
353138
332811
340914
384530
367092
437433
389586
371817
336424
330449
379715
349972
409608
370380
401025
448198
331818
377315
349990
412276
373884
402340
446092
427651
340565
362652
467802
394302
425893
493320
330252
371989
359425
381488
367525
412208
432166
325373
347567
328574
353286
368734
358371
357950
328331
338087
346697
351329
350059
347945
337541
347522
375373
380291
396632
401613
448468
445002
102089
461113
403315
111220
101505
457445
339884
363887
433203
368686
399117
452926
454068
394075
419626
448843
479555
417224
474021
466287
451244
420857
378221
366708
399563
391965
436216
397261
333730
419783
376192
388332
363276
373469
343900
344861
347982
319496
347861
432044
381500
386501
404028
359965
321313
352071
459826
390526
404425
370282
365465
425691
356534
474438
403081
411507
360831
352046
327500
360111
455478
407975
393614
368989
355359
410236
363310
472749
400791
423357
347087
346800
344495
381000
377910
384905
430515
121592
463892
507343
102790
101330
435685
190912
342196
463973
390168
420591
362529
420295
492802
415394
420782
449775
449401
463160
479451
470400
347412
447593
418944
396935
399607
380294
359402
441155
397127
378450
410282
466794
458782
429834
360043
350835
329449
355128
437720
395972
382335
353609
346737
326238
353132
427820
389625
379419
347088
469760
396512
376513
500810
437508
443783
354296
406897
389366
432005
412156
457270
471668
369267
467392
398026
467899
402679
436541
484491
149990
477138
433329
404932
101966
158359
101311
362823
354184
364203
396535
396368
412813
460581
356670
352605
331158
362812
441392
399002
392440
368399
367070
341720
381098
471294
423346
420170
447309
404688
350340
401997
501950
443438
473700
357538
420737
383618
457157
421535
455059
479968
362024
434734
387510
474708
426872
460207
494378
373576
409223
414182
437657
441254
468454
468090
366221
383227
387573
409963
415848
444202
475453
347847
373906
392631
430188
431238
460450
499606
387182
451131
424815
472570
429381
453606
382106
387540
371451
345578
372684
477845
431351
406551
400333
378940
352433
398360
504450
437885
470159
376037
391748
404177
421971
437344
459365
485663
321680
365874
365705
382661
366042
365767
349956
269354
179344
101497
151034
101430
101300
101380
364574
330666
358784
380353
372805
361807
341360
397375
471416
474511
456486
439519
460232
416679
385037
382425
346173
364988
473787
412796
409000
396720
411966
358954
380528
488636
427488
445309
428656
403312
367273
400524
501957
472577
446886
494010
425289
390220
462062
511449
495227
508174
382999
444709
425323
464135
449706
471684
477651
101433
483469
250083
145493
101331
486097
161502
382256
447341
386879
448538
483461
482691
444526
476504
462766
491451
471207
463174
495213
448919
371987
410347
409541
418120
422109
443643
395769
116601
101404
169284
101326
101299
125966
101410
135881
122094
101395
101311
101299
104448
101319
336394
350387
336891
345957
356644
356095
354539
433236
465897
458199
461257
465042
459384
429533
446731
422890
378156
406931
492900
476381
457463
468812
471717
508126
433542
509130
500621
496570
413231
410237
374914
441653
503361
480664
485522
319037
352514
352083
350360
353988
357182
323657
373721
381281
362096
369163
359055
364771
341657
387432
450323
392256
457117
483775
482617
453920
377125
356235
362335
369630
377005
344080
302117
417173
433653
457858
466134
482614
485367
492321
357232
323746
352122
353997
350483
354833
319002
101370
484226
146526
152858
101316
478723
113845
101376
448487
278487
101368
101300
271725
108229
425000
476990
456537
471755
453723
476355
464861
285900
102917
107466
101303
101350
101316
101299
372593
410733
444506
410718
423062
418425
389974
457506
420189
387392
456563
515717
511264
491917
346167
336273
354756
337195
356775
350543
300205
353861
343243
353880
324415
346692
324383
272294
391926
462076
396765
453808
484543
483174
450196
394951
409157
430654
404375
438232
443073
376619
447465
466207
466210
467152
465394
453929
457564
101331
475814
192803
105085
101306
457161
130721
412257
473904
417163
466058
482134
479931
464097
422736
471182
427444
477584
481098
478460
477676
102136
487702
345769
103194
101300
393628
102358
468989
431689
470964
499765
500128
513896
513611
325050
102724
362269
101505
101299
200208
101630
107482
101303
103640
131524
101326
101350
101299
353183
337704
351402
320341
343237
310949
255450
393147
407119
401386
440144
428907
435529
399217
441850
456233
465238
471918
465529
464010
456854
375169
367862
375779
343615
361925
355854
302295
407862
472986
444699
493317
461605
472648
465249
353273
351578
349344
310787
343255
320258
255260
467287
474003
454846
496107
477463
474685
461809
399727
387803
437906
360226
431941
415650
297420
376558
490029
428072
484358
422115
489419
516303
462967
502729
444337
505355
450904
500529
507442
101798
502699
380085
101688
101299
347639
102930
383043
493284
503152
427110
439596
494351
516663
101424
511503
134452
101926
101299
215774
101352
346420
101954
210859
101573
101299
155725
101356
101313
284167
113504
101300
101299
101750
101306
393838
501156
502788
505341
445042
453046
463904
415279
512396
511593
509022
483060
464329
486837
489501
482440
437813
472966
476903
490071
500367
481522
475507
443652
471927
461336
489136
483556
461759
471470
422139
484484
485256
491913
498858
477381
472830
453984
495058
467399
472957
459610
459683
420576
401812
465289
484539
483310
478131
457116
413456
395731
458115
486451
484057
473189
469244
425584
406547
462537
483792
483544
476288
353024
320263
353341
289945
343813
321450
228291
488688
508572
467856
510151
487388
512976
500457
385222
496127
442874
495647
442803
505089
515749
414047
511349
462761
517100
483457
513318
505635
392141
491011
494876
448408
455148
498041
504290
454285
473592
468898
459111
463273
446985
434342
461753
467769
478693
486770
486144
479737
470323
427742
421755
365632
391989
437441
441891
403673
390766
497538
493527
490477
452146
447425
429796
511774
507518
468924
495935
481846
514681
509875
477568
448332
428308
472205
472649
477641
482235
351788
312568
347193
264470
326756
293759
199493
476167
456984
438290
479951
467923
474951
484255
454107
477402
456623
474945
461571
457153
477047
407948
511987
477211
510504
479292
517477
509271
406386
499072
462314
504419
476399
500587
498221
101304
422380
102504
107334
101300
367776
101629
101311
483049
126550
101596
101299
338593
101728
440444
496407
472590
483741
488264
496383
468310
128081
101504
282698
101310
101299
116174
101424
101303
251355
107861
101299
101299
102125
101311
372128
313697
370639
271405
345674
319147
200903
101322
102003
101299
102436
101307
101299
101299
411764
500473
500666
505201
466992
481662
457533
286240
231066
326818
222446
323581
286255
157077
496218
466088
471996
495669
488731
472880
437775
463720
472749
465223
478633
452975
448016
480070
459319
469934
469579
492715
494420
461564
431449
460147
457779
454826
429456
424204
386045
394584
510648
492123
505519
512806
503471
496173
471165
101305
468138
106352
101660
101299
273785
101390
466321
510506
501848
503371
513885
516530
476932
101300
102934
103082
156508
101322
101324
101299