/*--------------------------------*- C++ -*----------------------------------*\
  =========                 |
  \\      /  F ield         | OpenFOAM: The Open Source CFD Toolbox
   \\    /   O peration     | Website:  https://openfoam.org
    \\  /    A nd           | Version:  9
     \\/     M anipulation  |
\*---------------------------------------------------------------------------*/
FoamFile
{
    format      ascii;
    class       surfaceScalarField;
    location    "0.0025";
    object      phi;
}
// * * * * * * * * * * * * * * * * * * * * * * * * * * * * * * * * * * * * * //

dimensions      [0 3 -1 0 0 0 0];

internalField   nonuniform List<scalar> 
64054
(
-3.59741
0.159719
1.72169
3.85101
-1.52428
0.130981
-2.90011
1.88582
3.19177
-0.524634
-2.73892
0.652933
1.63511
3.07372
-1.46309
-0.423499
-2.32272
0.564419
1.7628
2.65765
-1.09287
-2.90202
1.28826
1.79278
3.24829
-1.61182
-0.998703
-1.47748
2.0954
1.19485
1.68891
-1.79049
-1.66609
1.69828
-1.86408
-2.29227
2.55567
2.06945
-0.318542
-2.38786
1.78875
2.70832
0.0274024
1.38039
2.3019
-1.9997
0.0882502
-0.0327147
1.23122
1.7395
-1.40984
-1.96423
0.0853116
2.58615
2.21736
-2.29003
-2.29541
-3.08974
0.242312
2.50973
3.29345
-1.69744
-0.253505
2.18032
0.354373
1.92994
-1.88733
0.70648
-2.18572
-0.563511
-2.78005
2.39333
3.08708
-2.13392
-3.52989
0.272064
2.34768
3.69915
0.0559609
1.07624
3.02771
-2.73724
-0.791973
-1.63025
0.11681
3.10229
1.87322
-2.83611
-0.411828
-2.87219
1.65669
3.18356
-1.47599
0.759969
-0.615827
-2.03739
-3.12164
2.23835
3.42978
0.109257
-0.0442155
1.07198
2.22756
-1.89209
-0.855013
0.373307
-0.271095
-1.52426
2.53156
1.74983
-2.24334
1.31836
2.16975
0.0279235
-1.86418
0.0307469
2.38129
1.6851
-2.07701
2.25461
0.0378461
1.61148
-1.95318
0.0462753
1.57827
2.60258
1.5231
0.0592999
2.46839
-0.0649537
0.089904
1.79564
2.5463
1.84532
2.6803
0.252084
1.23737
1.66902
-1.35412
-0.649866
-1.42169
2.00275
0.821493
1.62672
-1.69991
1.00493
-0.848611
-2.48239
1.90427
2.81744
-1.7034
-0.501925
2.19327
0.65275
1.93257
-1.89423
-2.15783
-2.75172
0.859444
2.36512
3.05924
-1.84291
-0.8079
2.34166
0.966883
2.06837
-2.05401
-2.29838
-1.17474
-2.93384
3.23006
1.34335
2.50192
-2.00732
-3.06709
0.91371
2.20683
3.38249
0.255035
1.12529
2.0694
-1.73576
-0.952447
-1.51736
0.518786
2.45182
1.73576
-2.14867
-0.928364
-2.84882
1.75985
3.19239
-1.58325
-1.24116
-2.12985
-3.22861
2.32274
3.53462
1.41978
0.777455
-0.597809
1.35818
2.16491
-1.83502
-1.1929
0.977426
-0.818283
-1.7341
2.60199
1.93631
-2.29102
1.02805
2.85868
0.0625913
-2.56106
-0.752763
0.0609398
3.03937
1.36212
-2.75622
2.88109
0.0710407
1.31072
-2.59445
0.0807441
1.32129
3.31509
-1.06218
1.28068
0.0975833
3.15034
-1.01893
-0.0988596
0.126559
1.54478
3.1541
1.56983
3.31591
1.25834
1.94039
-1.61095
-0.0736875
1.8857
0.152606
1.46568
-1.5688
2.06569
1.52615
-1.74345
-0.096141
1.43532
0.169721
2.06668
1.46942
2.26879
0.166221
2.37587
1.7219
0.254638
2.19898
1.65577
1.03631
2.53949
-2.21126
-0.783949
-0.0919837
2.32354
1.29799
0.168806
-2.00201
2.60704
1.29136
-2.28954
-0.127657
1.29029
0.206163
2.55691
-1.08163
1.27358
2.86175
-1.03606
0.202784
1.51571
2.90402
1.50025
0.295246
2.63489
0.0503907
2.47696
-2.17472
-1.88983
2.4401
0.139925
2.14314
-2.16879
2.34822
0.072895
-2.05546
2.05032
-0.0988051
0.149922
2.62105
0.134668
-2.0831
2.8606
2.30319
0.243162
2.69454
2.28213
2.77099
-2.76123
1.90475
0.189558
3.03364
0.0825376
1.74771
1.71908
0.111899
2.81965
-0.11566
0.166047
1.96913
0.159633
-2.97193
2.08739
3.24026
0.266655
2.13279
3.07531
1.97181
0.0802224
3.06592
-2.78931
-1.5905
2.9401
0.158747
1.86204
-2.68982
2.91176
0.101149
-2.63864
1.80498
-0.131941
0.184301
3.15582
0.16543
-1.80009
3.34128
2.02016
0.266946
3.15837
2.0571
3.33115
1.55296
-1.41051
2.06492
1.67525
-1.7613
-2.52928
1.18227
1.93823
2.86517
-2.52606
-1.84343
2.85395
-1.60239
1.84005
2.05596
-1.13575
-1.91394
2.44479
1.32555
2.15113
-2.15641
1.58442
-2.74173
2.45336
-1.3789
3.04214
-2.23759
-1.55231
-1.97542
2.54405
2.21125
1.78397
-2.25814
-2.7927
2.48919
1.82874
3.10908
-2.26319
1.30018
1.67882
0.415521
-1.3619
0.318986
1.82517
1.44288
-1.5177
0.333736
1.42234
1.99165
1.84979
0.47893
1.49175
-1.53947
1.47475
0.490132
2.00736
0.416525
1.62644
2.14348
0.569932
1.66902
2.17301
-3.03336
2.28754
3.35976
-1.4458
-2.08857
1.679
0.969241
1.39181
2.2151
-1.87889
-1.22205
-1.77932
1.15169
2.65658
1.98753
-2.34328
1.93716
-2.88074
1.97568
-1.72915
3.2741
-1.72061
2.09488
-3.03295
2.15942
3.45683
-1.82588
-1.45658
1.46867
2.41172
1.75308
-2.0757
-1.30307
1.84464
2.06642
-1.84749
2.83216
-1.59977
-2.50378
-2.58213
1.85589
2.87649
-0.193229
1.62326
0.280887
1.67192
2.66857
0.286817
1.90464
-0.416743
-2.51028
0.531922
1.98433
2.8273
2.06529
2.9575
0.389154
1.8286
-0.148376
2.03211
0.240375
-1.72732
-1.78742
2.30794
2.03528
-2.0199
2.18799
-1.88233
1.96283
0.265837
2.47874
-0.379503
-1.87417
0.490095
2.47666
2.09614
2.5912
2.19084
0.367282
2.33497
-1.62935
1.84275
-1.67056
1.84372
1.57819
-1.6556
-1.60538
1.55017
1.84671
1.54552
1.83661
1.77977
-1.59374
-1.59074
1.82792
-1.63026
-1.14948
-1.77115
1.44177
1.76543
1.36189
-1.81777
-1.80423
1.59363
1.80082
2.08935
-2.08695
-1.7034
1.77188
1.63307
2.32448
2.08612
1.78563
-1.7495
1.9787
-1.6551
-2.16287
2.27659
2.40058
-1.72873
-2.05449
1.70552
0.117599
1.53441
-1.31035
-3.41904
1.75407
0.268763
3.64735
-1.53302
1.5271
0.158988
-1.28341
3.39025
-0.145843
0.218388
1.7702
0.198466
-3.58054
1.92309
3.793
0.347169
1.96744
3.60952
1.74909
-1.54805
2.7424
1.8031
-2.47421
-0.167379
2.42618
0.256817
-2.12177
2.67808
-2.38118
1.75667
0.30441
2.94622
-0.416046
-1.7103
0.529209
2.82126
1.92531
2.99673
1.99194
0.408214
2.72242
1.22772
2.0304
0.412612
-1.69737
-1.072
0.326106
2.18686
1.313
-1.86704
0.359232
1.30682
2.40334
-1.1315
2.16436
1.39631
0.481479
-1.83784
1.38138
0.509102
2.37219
-1.22218
0.447912
1.49606
2.51167
1.55614
0.594734
2.50339
1.2834
-1.76404
1.75041
-1.78592
1.3092
1.77906
1.54693
-0.990322
1.26048
1.19857
-1.63254
1.08806
-1.6394
1.16309
1.3508
-1.64581
1.78198
1.36781
1.51414
-1.63276
1.78134
1.51468
1.6939
-3.15308
1.70496
3.41985
-1.50261
-0.253156
1.48547
0.350781
-1.29331
1.50186
-1.27764
3.17139
0.350502
1.72449
-0.498583
-2.93941
0.619851
1.8434
3.25008
1.90627
3.43593
0.458706
1.6797
2.20248
2.8752
-0.147526
0.250077
0.210245
-3.04341
3.27067
0.201212
-2.18246
2.39391
-2.95428
-2.33989
0.404582
2.53471
3.22829
0.337405
2.41363
0.348312
3.13541
-1.36735
1.92934
1.56556
-1.62011
0.597771
1.75799
-1.44304
1.83211
0.77369
-1.52374
-0.657001
1.5987
0.826917
2.15226
1.54504
2.08434
0.726243
1.74002
2.24896
0.887844
1.80009
2.3158
-0.403451
2.02127
0.560592
-1.71604
-1.66281
2.14902
1.89516
-1.84981
1.98506
-1.68009
-1.84328
0.624804
2.44927
2.06518
0.514353
2.29691
1.88104
0.662558
2.33698
0.766115
2.49579
2.10223
0.439487
1.59965
-2.34758
1.79614
0.703288
2.69171
1.64047
0.588123
-2.46677
0.665782
1.95674
2.79167
0.534695
1.8009
2.50385
1.83676
0.679148
1.98957
0.803208
2.83253
0.415895
2.31672
-2.00532
-1.58369
2.46878
0.665546
1.79176
-2.15344
2.31557
0.568692
-1.99241
-1.69682
0.658739
2.75692
1.9067
0.548265
2.63266
1.74825
0.690237
2.64604
0.795038
2.7836
1.95252
2.12456
2.76448
0.393862
-0.501753
-2.64157
0.629427
2.95566
-2.8795
-2.26901
2.47354
3.17503
-0.485712
-2.03711
0.611786
2.25105
2.3381
3.05828
0.506513
3.37435
2.00624
-0.175437
0.302267
0.244864
-3.55823
3.73914
0.227478
-1.96061
2.18108
-2.17171
-3.37696
0.453179
2.37173
3.62264
0.411717
3.60159
0.381728
2.22791
1.30135
2.0973
-1.76418
-1.13694
-0.652352
2.30173
0.826147
1.54091
-1.97633
2.23393
1.47696
-1.90681
-0.676334
1.50707
0.849995
2.50407
-1.3345
1.45146
2.4391
-1.28443
0.749278
1.6287
2.57045
0.913442
1.69031
2.63577
0.494351
1.47979
-1.30356
-2.72333
1.66316
0.783683
3.07131
-1.49462
1.52853
0.634196
-1.36227
-2.83915
0.748944
1.81594
3.16778
0.592869
1.66457
2.84577
1.7063
0.729212
1.84099
0.881832
3.1808
-1.45544
2.05346
1.66329
-1.75261
-0.955674
1.92105
1.16233
-1.60558
1.88216
-1.57183
1.0066
1.62914
2.20062
1.64816
1.20954
2.24393
1.06362
1.83741
2.36515
1.2626
1.85989
2.40878
-1.91337
3.013
2.20135
-2.1655
-2.67634
2.46922
-2.2613
-2.02572
-1.90308
2.32668
2.61543
2.34711
-1.66151
-1.52508
1.95876
1.85085
1.59942
-2.44334
2.03991
2.69483
-1.77695
2.8477
-2.32487
-1.68086
-2.16474
-2.16561
2.44494
1.86811
-2.13357
2.34064
-1.89215
2.45565
2.45602
2.69721
-2.72957
2.81242
2.11535
-2.59733
3.20505
1.94394
0.452687
-2.10866
-3.26123
2.31379
3.54381
-0.567736
-3.0229
0.698789
3.33415
-0.536073
-1.88066
0.662095
2.08882
3.47889
2.16142
0.568458
-1.45151
1.43246
1.70716
-1.6126
1.42357
1.49009
1.28902
-1.72846
-1.67506
1.74739
1.95854
1.58211
-1.6441
1.53572
1.59196
1.49966
1.63574
1.83677
-1.73726
-1.73359
1.78112
1.96705
1.95918
1.77735
-1.4248
1.66697
-1.62303
-1.58852
1.77981
1.82543
-1.77431
1.593
1.77484
1.42867
-1.62515
1.77842
1.67683
-1.62623
1.7807
1.83479
-1.79849
1.45678
1.79579
1.62549
1.32608
-1.64724
1.48289
1.91107
-1.65426
1.79358
-1.7806
1.68431
2.05673
-1.64901
-1.95149
1.79242
1.78631
2.20613
1.78818
1.52994
-1.63596
1.78878
1.65712
-0.721241
2.17288
0.884685
-1.87759
-1.77723
2.27134
2.00403
-1.9777
2.10119
-1.79946
1.94933
0.814785
2.41186
-0.916386
-2.0095
1.07424
2.63646
2.22805
2.57046
2.1695
0.971987
2.47768
1.41211
2.25966
1.18982
-1.91454
-1.23881
1.01377
2.3525
1.57855
-2.0252
1.04325
1.54015
2.55591
-1.36297
2.39984
1.22641
1.60108
-2.066
1.55873
1.26674
2.60606
-1.37886
1.10006
1.73014
2.68866
1.31817
1.75391
2.74006
-2.60939
0.767791
2.92521
-2.00895
0.748882
2.22177
0.64099
2.04345
2.65343
0.780784
-2.796
-2.18985
1.0152
2.39449
3.09638
0.890231
2.25499
0.909487
2.96656
1.43175
-1.50263
2.1433
1.71467
-1.8364
2.21972
1.75614
1.69059
-1.92368
1.97145
-1.65679
-1.45595
1.70256
1.72087
2.37824
1.66832
2.2968
1.50253
1.87976
2.45875
1.90632
1.74873
-2.42042
1.85548
2.76055
-0.740242
1.76026
0.900478
1.70677
2.57536
0.827715
1.90134
-0.950068
-2.63672
2.09757
1.10802
2.96126
2.04901
2.90349
1.95679
0.983397
-1.66447
2.53698
1.86861
-2.22305
-0.726304
2.45048
0.889845
-2.13122
2.38426
-2.06195
1.81932
0.839965
2.71272
-0.943515
-1.88075
1.10537
2.91611
2.08068
2.85281
2.02225
1.00005
2.77567
-2.95046
0.837199
3.2728
-1.85893
0.796997
2.06315
0.697573
2.97225
1.89572
0.831802
-2.03047
-3.0946
1.07371
2.22813
3.4059
0.980196
3.29413
0.93656
2.09571
-2.78628
1.71488
3.13253
-1.54109
-0.786242
1.64122
0.952476
-1.4653
1.58912
-1.41825
2.91058
0.875802
1.76931
-1.02746
-2.97224
1.19357
1.94156
3.30574
1.89479
3.24605
1.03723
1.8231
1.43293
2.31754
-1.96901
-1.25952
-1.48458
2.53708
1.75296
1.64973
-2.20991
2.45646
1.62113
-2.11828
-1.53788
1.59745
1.8076
2.75113
-1.42645
1.57409
2.66716
-1.39602
1.58303
1.76992
2.80128
1.84131
1.78759
-1.88501
2.39711
2.11648
-2.11085
-1.05814
2.27076
1.25067
-1.97534
2.2263
-1.93258
-2.05398
1.24288
2.69128
2.27527
1.14146
2.53031
2.08397
1.33584
2.57707
1.43531
2.31319
-1.69031
1.95029
1.61761
2.05897
-1.72244
1.84967
1.95003
1.72559
1.70275
-1.84714
2.06593
2.0608
-1.9498
2.16101
1.65491
-1.68994
2.06152
1.61748
1.95623
-1.68592
1.66713
1.59217
-1.96664
1.6842
2.21757
1.56607
1.71178
-2.07975
2.31566
1.86964
-2.18718
1.96085
2.42419
-1.69527
1.62333
1.85577
1.75999
-1.47311
1.87017
1.54271
-1.55041
1.85118
1.74784
1.74669
1.53495
1.66031
1.97025
1.75556
2.07888
1.60974
1.57855
2.06732
1.85098
2.17099
1.94684
1.66568
1.80941
-1.89639
2.11635
2.33935
-1.70777
2.19601
-1.86688
2.07965
1.78843
-1.98501
2.43116
1.81629
2.19237
1.79114
-1.93634
2.20022
-1.6643
-2.07833
1.79284
2.31793
1.78307
-1.63567
1.7848
2.10731
2.72611
0.92977
-1.05967
-2.78831
1.22294
3.09994
-2.87027
-2.24929
2.45161
3.16812
-1.04004
-2.16168
2.37368
1.20173
2.31893
3.03917
1.08716
1.07906
1.79289
-2.57394
1.95985
1.39439
2.91327
1.81028
1.28649
-2.68625
1.2836
2.1341
3.01104
1.15543
1.99676
2.73259
1.3572
2.02213
3.06375
1.49283
2.16325
1.07158
2.50219
-2.18101
-1.80616
2.7077
1.35448
2.02237
-2.38848
2.55004
1.28017
-2.22438
-1.92642
1.28463
2.1271
2.97351
1.17982
2.83056
1.95854
1.392
2.88563
2.16605
1.4952
1.14556
1.67523
-1.49356
-2.95738
1.81924
3.31497
1.52839
-1.63224
1.69678
1.37421
-1.50947
-3.02839
1.38845
1.97681
3.36443
1.22415
1.8625
3.08819
1.44901
1.89167
1.63216
2.00818
3.43914
3.04016
1.95952
0.977954
-2.08329
-3.1649
2.27842
3.47127
-1.13372
-3.10106
1.30485
3.42223
-1.08709
-2.01291
2.21087
1.25501
3.3614
2.15799
1.14113
-1.94089
2.49098
2.1802
-2.20129
1.48088
2.31774
-2.02002
2.37975
1.72245
-2.09058
2.10626
1.57031
2.62564
-1.66462
-2.12922
1.89065
2.37243
2.85571
2.34277
1.80499
2.68504
2.77664e-08
1.58191e-08
-1.15402e-07
-4.26365e-07
-3.90062e-07
-3.39597e-07
-3.49747e-07
5.09495e-09
-2.74496e-07
2.36256e-09
7.80041e-10
-5.79466e-08
3.50404e-10
9.1795e-11
-5.37482e-09
3.57083e-11
8.15703e-12
-3.78648e-10
2.65032e-12
5.54223e-13
-2.11173e-11
1.56319e-13
-1.00897e-12
7.10543e-15
-3.33881e-06
2.37723e-06
4.1232e-07
9.38708e-07
-8.45481e-06
-7.8627e-06
-5.87188e-06
-5.65149e-06
1.64203e-07
-3.15708e-06
6.50203e-08
-8.53389e-07
-2.35402e-06
-6.6153e-07
-2.10254e-07
-2.84708e-07
-1.9336e-07
-2.40335e-07
2.59267e-08
-3.80968e-07
1.15484e-08
-5.19792e-07
-3.51989e-07
-5.09804e-07
2.83813e-09
-1.40215e-07
1.10871e-09
2.41691e-10
-9.75375e-09
7.84794e-11
1.5774e-11
-5.21332e-10
4.44444e-12
-2.33769e-11
2.16716e-13
-0.000967148
-0.000101317
6.27307e-05
3.46742e-06
2.92562e-05
-5.60196e-06
1.29878e-06
3.54134e-07
-1.01128e-05
-9.32418e-06
-6.14067e-06
-6.32168e-06
-5.35675e-07
4.55981e-07
-1.9828e-06
6.20618e-08
8.85951e-08
-7.51637e-07
3.50817e-08
-4.29494e-07
-6.20761e-07
-4.21496e-07
-2.68473e-07
-2.39871e-07
-2.63696e-07
-2.18318e-07
6.99021e-09
-1.96986e-07
2.25722e-09
4.2742e-10
-1.1175e-08
1.19162e-10
-4.83006e-10
5.44986e-12
0.229896
-1.92746
0.0225225
0.200751
-0.533871
-0.00362862
0.00124592
-0.0205519
8.52944e-05
0.000732489
-9.86005e-06
5.97546e-06
-2.9491e-05
4.07547e-07
7.1899e-06
-2.32003e-06
9.47779e-07
-5.61269e-06
1.03235e-07
1.73459e-07
-1.04433e-06
6.01924e-08
-4.11809e-07
-8.45231e-07
-3.8904e-07
-3.65948e-07
-7.02123e-07
-4.00858e-07
-5.63355e-07
1.05996e-08
-1.83759e-07
2.98656e-09
-8.40276e-09
1.26583e-10
5.63004
-5.47348
0.318951
2.56864
-2.35089
-2.86394
4.64975
-5.25081
0.230685
2.75977
-0.387027
0.0860238
-0.82858
0.00765668
0.0665679
-0.0001515
3.40883e-05
-0.000352392
2.23661e-06
2.58032e-05
-7.10486e-06
1.45822e-06
-9.46311e-06
1.47437e-07
1.95771e-07
-8.22592e-07
6.27117e-08
-3.9946e-07
-1.04185e-06
-3.76147e-07
-8.52281e-07
-3.37177e-07
-7.05692e-07
-3.25145e-07
-1.20964e-07
2.59176e-09
4.60846
-4.4019
0.325673
2.26763
-2.11624
-2.70097
4.58288
-4.34184
0.305021
2.8614
-3.66171
4.95539
-4.88474
0.279662
3.73233
-2.51436
0.654153
-3.05265
0.0570838
0.635908
-0.00072738
7.80143e-05
-0.000760569
5.55667e-06
6.59368e-05
-9.4424e-06
1.58049e-06
-5.67595e-06
1.33923e-07
-3.95342e-07
4.26169e-08
-3.76604e-07
-8.1407e-07
-3.55421e-07
-7.07796e-07
-3.61706e-07
-3.51888e-07
-3.66794e-07
3.68636
-3.50417
0.283924
2.55638
-3.12361
3.89613
-3.68534
0.292123
3.30191
-4.04031
4.4629
-4.11951
0.280493
4.38392
-3.12562
0.721613
-2.70701
0.0614086
0.736992
-0.000443179
2.83491e-05
-0.000206148
2.35219e-06
3.62277e-05
-4.83588e-06
1.16777e-06
-1.81874e-06
8.6908e-08
3.04405
-2.85502
0.252668
2.91234
-2.68007
-3.59564
3.36929
-3.18523
0.287924
3.81085
-4.78731
3.84127
-3.72738
0.277894
4.89371
-1.12478
0.105083
-0.650866
0.0119171
0.129825
-4.48328e-05
3.50947e-06
-1.07491e-05
5.18792e-07
1.6486e-05
0.287431
-3.89572
2.39627
4.13498
0.305292
-4.84625
2.67631
5.37163
0.320312
0.5685
-0.366107
-3.36892
0.592904
4.31106e-06
-0.000177516
-7.9101e-06
7.49522e-06
8.06961e-09
-5.46271e-07
5.34591e-09
-3.24398e-08
1.63792e-09
-8.41182e-08
1.09041e-09
2.62439e-10
-1.38471e-08
1.57836e-10
3.06244e-11
-1.56558e-09
1.62821e-11
2.72138e-12
-1.15172e-10
1.2399e-12
1.84741e-13
-6.70042e-12
7.4607e-14
-3.33955e-13
3.55271e-15
2.27155e-07
-1.17421e-05
1.40843e-07
-2.88282e-06
-2.82761e-06
-1.35658e-06
-2.01038e-07
-5.25847e-07
-1.65641e-07
-3.10569e-07
-8.6406e-08
-2.28926e-07
-7.89158e-08
-1.37136e-07
4.23003e-08
-7.45617e-07
2.65741e-08
-2.8451e-07
-3.42064e-07
-2.03134e-07
7.25838e-09
-3.40158e-07
4.31687e-09
8.57305e-10
-4.65878e-08
4.57238e-10
7.52465e-11
-2.96343e-09
3.42837e-11
5.09459e-12
-1.57151e-10
2.0357e-12
-7.37543e-12
1.03029e-13
4.45891e-06
2.81506e-06
-0.000120529
-4.23382e-05
-3.96399e-05
-1.89381e-05
-3.11056e-06
-6.81668e-06
-2.95583e-06
-4.82378e-06
-1.63591e-06
-3.40762e-06
-1.57852e-06
-2.55198e-06
-1.10553e-06
-4.10323e-07
4.70916e-07
-1.02558e-05
2.79426e-07
2.15002e-07
-5.64531e-06
1.07439e-07
-1.24042e-06
-2.07594e-06
-5.71055e-07
-2.55587e-07
-9.34502e-07
-1.77678e-07
-3.65901e-07
-7.17977e-08
-6.90183e-08
-1.55369e-07
-7.94684e-08
2.58612e-08
-2.88279e-07
1.27573e-08
-3.49347e-07
-2.64601e-07
-3.60474e-07
2.04852e-09
-7.17054e-08
8.99256e-10
1.29319e-10
-3.48182e-09
5.07789e-11
-1.46066e-10
2.46558e-12
-0.0310287
0.0266891
-0.341077
0.0118695
0.018785
-0.0587377
-0.000298411
-9.35283e-05
0.000160136
-0.00208426
5.89196e-05
6.59777e-05
-3.95089e-06
-1.43588e-06
2.97893e-06
2.07344e-06
-4.70581e-05
-1.80918e-05
-1.06468e-05
-6.9588e-06
-9.00212e-06
-3.11167e-06
-4.80008e-06
-1.81755e-06
-1.28456e-06
-1.24803e-06
-6.93813e-07
-1.51246e-07
4.728e-07
-1.54387e-06
1.4552e-07
5.92194e-08
-3.41495e-07
2.25098e-08
-2.32067e-07
-2.46238e-07
-2.83089e-07
-2.56859e-07
-2.26123e-07
-2.49037e-07
-1.87125e-07
3.24381e-09
-6.68203e-08
1.18245e-09
-2.53574e-09
5.35323e-11
-1.23031
5.42042
-5.44498
1.49311
2.46242
-2.32243
-2.41656
-0.923796
2.83317
-4.75718
0.964929
2.00079
-0.0426767
-0.0105761
0.00944238
-0.134033
0.00411197
0.00640126
-1.85074e-05
-3.1711e-06
5.83321e-06
-3.30552e-05
2.67889e-06
9.51802e-06
-1.84962e-06
-2.01664e-07
6.43951e-07
-2.04721e-06
1.71299e-07
7.28606e-08
-2.65005e-07
2.45423e-08
-2.2866e-07
-3.35461e-07
-2.69132e-07
-2.39277e-07
-2.18013e-07
-1.95707e-07
-2.27841e-07
-3.50196e-08
1.03219e-09
-0.951119
4.35572
-4.07206
1.15684
2.09952
-1.92956
-2.63239
-1.03181
4.73341
-4.32156
1.27173
2.8442
-3.5265
-1.13483
4.72003
-4.79747
1.35317
3.54348
-0.610848
-0.126973
0.0953348
-0.827973
0.0521292
0.0855943
-6.93018e-05
-6.55628e-06
8.81829e-06
-6.9234e-05
4.23241e-06
1.42338e-05
-2.25598e-06
-1.91961e-07
7.06347e-07
-1.40821e-06
1.60677e-07
-3.85282e-07
1.62747e-08
-2.28081e-07
-2.8894e-07
-2.83039e-07
-2.20946e-07
-0.806698
-3.1872
0.978723
2.4124
3.49283
-3.04581
-0.953376
3.87714
-3.64326
1.17264
3.25141
-4.19181
-1.11158
4.33281
-4.28018
1.36473
4.24583
-0.912153
-0.148213
0.103209
-0.734427
0.0624008
0.111476
-4.47259e-05
-3.52932e-06
3.8793e-06
-1.96137e-05
2.36559e-06
1.06315e-05
-2.47562e-06
1.86854e-07
-1.82378e-06
-1.34383e-05
-8.78608e-07
-3.23838e-06
-4.58542e-07
-8.56858e-07
-2.85056e-07
-1.26335e-07
-8.7721e-08
-2.74748e-07
-9.66805e-08
-0.9089
2.30233
2.50634
1.06717
-2.22867
-3.54809
-0.943862
3.33393
-3.1294
1.16181
3.7834
-4.75768
-1.12111
3.68099
-3.6484
1.35136
4.70967
-0.203347
-0.0171556
0.0108084
-0.075372
0.00681602
0.0153298
-8.84825e-06
-3.77273e-06
3.73455e-06
1.65772e-06
-3.35726e-05
-6.13695e-06
-1.41167e-05
-6.1285e-06
-3.71266e-06
-3.22579e-06
-2.80515e-06
-0.8464
-3.66855
1.04232
2.26286
3.98317
-1.11478
-5.0808
1.40627
2.77067
5.35
0.00254432
0.00665353
-0.0128352
-0.102623
0.00458775
4.0823e-06
2.88254e-06
-3.62664e-05
-0.000129672
-3.63271e-05
-1.51918e-05
-2.23627e-06
-6.0311e-06
-4.04049e-06
-1.86536e-06
1.29879e-09
-7.09538e-08
8.93767e-10
-5.28919e-09
2.64777e-10
-1.65929e-08
1.82069e-10
4.11902e-11
-2.66305e-09
2.52882e-11
4.76064e-12
-2.57572e-10
2.50111e-12
4.12115e-13
-1.80549e-11
1.84741e-13
2.13163e-14
-1.01608e-12
1.06581e-14
-4.26326e-14
0
3.90693e-08
-5.88119e-07
2.38173e-08
-2.82966e-07
-2.21156e-07
-1.72962e-07
-1.3779e-07
7.63878e-09
-4.74438e-07
5.1726e-09
1.20657e-09
-6.77241e-08
7.36566e-10
1.39252e-10
-6.71366e-09
7.15801e-11
1.17737e-11
-4.5852e-10
5.18696e-12
7.74492e-13
-2.43361e-11
3.05533e-13
-1.11555e-12
1.42109e-14
-7.19384e-07
3.2986e-07
-7.22862e-06
3.4976e-07
-6.94049e-07
2.37626e-07
-1.14397e-05
1.69129e-07
-2.35459e-06
-1.78897e-06
-7.05368e-07
-1.84384e-07
-1.16782e-07
-7.07357e-07
-2.42528e-07
-2.09715e-07
-8.49472e-07
-1.62692e-07
-3.27266e-07
3.46765e-08
-4.53906e-07
2.11465e-08
-2.25542e-07
-2.29305e-07
-2.72073e-07
3.98914e-09
-1.44806e-07
2.02449e-09
3.2243e-10
-1.03273e-08
1.38098e-10
2.00444e-11
-5.28779e-10
7.60636e-12
-2.27161e-11
3.62377e-13
-0.000167802
0.00010903
-0.00140751
6.32727e-05
3.27753e-05
-0.000125705
-4.18301e-06
-4.60009e-06
4.68205e-06
3.29147e-06
-0.000142654
-3.45613e-05
-2.64326e-05
-1.18758e-05
-1.24125e-05
-2.60686e-06
-4.6411e-06
-1.36418e-05
-3.3683e-06
-6.30402e-06
-9.49413e-07
-5.35049e-07
4.22989e-07
-4.06197e-06
2.52798e-07
1.04174e-07
-1.43639e-06
5.5007e-08
-3.43047e-07
-4.03955e-07
-2.50589e-07
-1.66565e-07
-4.42911e-07
-1.71779e-07
-1.86254e-07
-9.48682e-08
-9.17964e-08
-1.09705e-07
-8.16963e-08
8.30356e-09
-1.88881e-07
3.58691e-09
4.92747e-10
-9.67646e-09
1.8052e-10
-3.98018e-10
8.02913e-12
-1.76255
2.35275
-4.5738
1.42943
1.32247
-1.65013
-0.0735715
-0.0989185
0.029241
-0.346988
0.019414
0.0128164
-0.00011491
-6.19865e-05
3.91462e-05
-0.000455649
1.32058e-05
2.15886e-05
-6.69618e-06
-1.94527e-06
9.99576e-07
5.19813e-07
-3.88398e-06
-2.93768e-06
-3.07418e-06
-3.78922e-06
1.79449e-07
-1.97632e-06
8.18664e-08
-3.43066e-07
-4.6884e-07
-2.51998e-07
-3.11277e-07
-1.71784e-06
-2.50533e-07
-4.03279e-07
-1.08026e-07
-9.51675e-08
-2.06875e-07
-1.08334e-07
1.05483e-08
-1.36821e-07
3.93877e-09
-5.59881e-09
1.59115e-10
-1.8479
4.80016
-4.284
2.2499
2.17278
-1.97777
2.76669
-4.30881
-2.70601
-2.7295
2.83009
4.34956
-2.28955
-1.34792
0.905163
-3.50054
0.632382
0.979416
-0.0023165
-0.000701327
0.00027542
-0.00401935
0.000122159
0.000239212
-7.72885e-06
-3.55581e-06
2.00472e-06
8.13908e-07
-4.69678e-06
-2.94628e-06
-2.74698e-06
-3.1708e-06
-6.65367e-06
-7.52232e-06
-6.34138e-06
1.67305e-07
-8.80883e-07
6.82423e-08
-3.57433e-07
-1.80858e-06
-2.52892e-07
-4.61664e-07
-2.294e-07
-2.64508e-07
-2.07768e-07
-8.92545e-08
-8.65113e-08
-1.56364e-07
-9.3408e-08
-6.01944e-08
2.65296e-09
-3.1759
3.49035
-1.57125
2.49183
1.81738
-1.91876
-3.22937
4.3712
-3.91233
3.59629
2.34753
-3.57772
-1.72136
2.44373
-3.6876
1.39199
2.41292
-0.00460586
-0.000854747
0.000288405
-0.00311205
0.000147614
0.000345079
-5.19487e-06
-1.9138e-06
1.41173e-06
-5.7947e-06
4.92587e-07
-4.47789e-06
-5.33501e-06
-4.61075e-06
-1.65894e-07
3.27178e-08
-2.6754e-07
-7.44204e-07
-2.36088e-07
-2.84515e-07
-1.43972e-07
-1.12213e-07
-1.39441e-07
-1.64872
2.71338
2.46611
-2.42394
1.87186
-1.60356
-2.6496
-3.40606
1.82269
2.85225
3.69085
-3.71203
-1.47065
1.33165
-2.62665
0.850414
1.22861
-0.000779142
-0.000101673
3.46042e-05
-0.000216739
1.99951e-05
5.42648e-05
-3.444e-06
-4.23114e-07
5.95939e-07
-6.41617e-07
1.99378e-07
2.00507
-3.61234
-1.69457
3.99797
2.30251
-1.83151
-4.22917
2.23009
2.46905
4.77009
4.76598e-06
7.61725e-06
-1.21547e-05
-4.1428e-05
3.76105e-06
3.01856e-07
-3.6305e-06
-5.9795e-07
1.96846e-07
1.68491e-10
-9.34453e-09
1.29013e-10
-7.55406e-10
3.24647e-11
-2.00842e-09
2.4599e-11
4.90985e-12
-2.83187e-10
3.37153e-12
5.54223e-13
-2.76472e-11
3.2685e-13
4.9738e-14
-1.9611e-12
2.13163e-14
0
-1.06581e-13
0
-7.10543e-15
0
4.64264e-09
-1.96273e-07
3.45918e-09
-1.87086e-08
8.87063e-10
-5.23872e-08
6.87809e-10
1.34847e-10
-6.96001e-09
9.64953e-11
1.54117e-11
-6.86413e-10
9.27614e-12
1.3145e-12
-4.72866e-11
6.60805e-13
8.52651e-14
-2.60059e-12
3.90799e-14
-1.27898e-13
0
1.36574e-07
-2.32004e-06
8.8271e-08
-7.79427e-07
-4.94547e-07
-3.26329e-07
-1.36645e-07
-9.20744e-08
-4.8444e-07
-1.83087e-07
-1.58589e-07
-1.57937e-07
-1.46463e-07
-1.80525e-07
2.47088e-08
-2.85048e-07
2.01119e-08
-2.07436e-07
-2.24892e-07
-2.81099e-07
3.6227e-09
-1.40312e-07
2.69854e-09
4.06267e-10
-1.5102e-08
2.52882e-10
3.38289e-11
-1.03346e-09
1.73053e-11
2.16005e-12
-5.4257e-11
9.59233e-13
-2.46558e-12
4.26326e-14
-2.27367e-06
1.18891e-06
-3.81401e-06
1.01002e-06
-2.87031e-06
-7.10228e-06
-4.70316e-06
-4.15639e-06
-2.47725e-06
-2.17353e-06
-1.94142e-06
-5.64156e-07
-3.95856e-07
2.63773e-07
-1.75005e-06
2.84518e-07
9.1212e-08
-1.25618e-06
6.91876e-08
-3.58434e-07
-3.188e-07
-2.41324e-07
-1.00921e-07
-1.04846e-07
-2.9107e-07
-1.15849e-07
-1.53455e-07
-2.29265e-07
-1.49576e-07
-1.33826e-07
1.01291e-08
-2.82494e-07
6.55566e-09
8.23405e-10
-1.91556e-08
4.29957e-10
5.03348e-11
-9.78602e-10
2.23395e-11
-4.21494e-11
1.01963e-12
-0.00492794
-0.0109073
0.000530985
0.000436789
-0.0015531
0.00075978
-2.51576e-05
-1.23447e-05
7.50996e-06
-6.05775e-05
6.04922e-06
7.18921e-06
-4.44002e-06
-3.16588e-06
7.43908e-07
6.10043e-07
-3.38554e-06
-3.32092e-06
-4.08004e-06
-3.97764e-06
2.23633e-07
-3.3995e-06
1.53624e-07
-6.10932e-07
-5.8514e-07
-3.67205e-07
-2.44959e-07
-1.65461e-07
-1.28964e-06
-2.38174e-07
-3.74046e-07
-1.69346e-06
-2.59307e-07
-3.87786e-07
1.77012e-08
-2.93576e-07
9.58292e-09
1.05364e-09
-1.40221e-08
4.71061e-10
-5.84485e-10
1.99414e-11
-2.42346
-3.83423
2.12492
2.46739
4.32297
-1.90093
-4.10994
-2.54998
2.65085
2.58874
4.00732
-0.00125667
-0.000811224
0.00016516
-0.00232669
0.000126557
0.00010993
-4.11905e-06
-7.78972e-06
2.81485e-06
1.94372e-06
-9.6128e-06
-5.1055e-06
-5.14602e-06
-4.4524e-06
-5.90236e-06
-4.59778e-06
-3.81508e-06
-7.38095e-06
-7.55033e-06
-7.79842e-06
3.21283e-07
-2.73327e-06
1.86289e-07
-5.89932e-07
-3.67985e-06
-3.97781e-07
-6.0454e-07
-2.91138e-07
-1.71928e-07
-1.65867e-06
-2.90324e-07
-5.04055e-07
-5.1828e-07
-3.56543e-07
1.78718e-08
-1.46504e-07
8.22767e-09
-6.15726e-09
3.30179e-10
1.98055
-2.99194
-1.7622
3.45291
2.09437
-2.86936
-2.16845
-2.058
2.45746
3.34446
2.10278
-3.59543
-3.30418
-2.70098
2.7049
3.36557
3.64396
-0.00623436
-0.00666801
0.000715987
-0.00732826
0.000706784
0.000520087
-7.66798e-06
-3.6439e-06
3.35734e-06
1.93372e-06
-5.55115e-06
-3.95026e-06
-3.85793e-06
-3.20951e-06
-1.14196e-05
-9.61019e-06
-8.31214e-06
-5.58893e-06
-4.33636e-06
-4.02567e-06
2.05982e-07
-5.4019e-07
1.04294e-07
-5.11747e-07
-2.12462e-06
-3.12246e-07
-4.58518e-07
-1.64333e-07
-1.26632e-07
-6.04068e-07
-1.65477e-07
-2.28463e-07
-2.39374e-07
-2.05723e-07
-4.68659e-08
4.18914e-09
-2.08697
2.30962
-1.80709
2.29902
1.8144
2.01147
-2.67122
-2.95155
-2.02219
2.90114
3.18173
-2.921
-3.92235
-2.68832
2.68649
2.97569
3.9268
-0.00203799
-0.00353951
0.000200918
-0.00145287
0.000283668
0.000175623
-1.21124e-05
-3.57416e-06
1.18955e-06
-2.55905e-06
5.7009e-07
-2.58223e-07
3.86409e-08
-2.79803e-07
-5.24907e-07
-3.23593e-07
-2.64419e-07
-7.39269e-08
-9.1894e-08
-1.07278e-07
-9.43935e-08
-1.8017
1.74475
-1.78807
2.56228
1.97509
-2.07683
-3.18448
2.19992
2.21804
3.74347
-4.14511
-2.62632
2.07682
1.88252
3.34363
1.15149e-06
8.69572e-07
-2.93641e-06
-9.34082e-06
5.05851e-07
2.23239e-07
-6.84284e-06
-2.17476e-06
-6.17439e-07
-1.79895e-06
-5.55783e-07
-1.7385e-07
2.00302e-11
-1.16239e-09
1.55254e-11
-9.25482e-11
3.75167e-12
-2.18613e-10
2.86704e-12
5.40012e-13
-2.91251e-11
3.76588e-13
5.68434e-14
-2.71427e-12
3.55271e-14
0
-1.91847e-13
0
0
-7.10543e-15
0
0
0
5.21894e-10
-2.56267e-08
4.05262e-10
-2.35776e-09
9.87228e-11
-5.32994e-09
7.61915e-11
1.4424e-11
-7.00737e-10
1.02567e-11
1.58451e-12
-6.42899e-11
9.73444e-13
1.27898e-13
-4.40536e-12
6.75016e-14
7.10543e-15
-2.4869e-13
3.55271e-15
-7.10543e-15
0
1.30982e-08
-5.12073e-07
9.82031e-09
-5.36933e-08
2.50818e-09
-1.2204e-07
1.99308e-09
3.63023e-10
-1.54673e-08
2.64755e-10
3.95843e-11
-1.40589e-09
2.48264e-11
3.24718e-12
-9.24274e-11
1.73372e-12
2.06057e-13
-5.03064e-12
9.59233e-14
-2.34479e-13
3.55271e-15
3.53104e-07
-5.48435e-06
2.33594e-07
-1.88545e-06
-1.28295e-06
-7.89359e-07
-3.77197e-07
-2.3386e-07
-1.74381e-06
-5.54447e-07
-3.91972e-07
-3.71215e-07
-3.25783e-07
-4.2453e-07
6.48954e-08
-5.91147e-07
5.3171e-08
-4.08572e-07
-4.09413e-07
-5.27808e-07
-1.37849e-07
-1.38237e-07
-1.65982e-07
-1.16007e-07
8.98434e-09
-2.79983e-07
6.54667e-09
9.45413e-10
-2.68167e-08
6.03023e-10
7.48628e-11
-1.71708e-09
4.02878e-11
4.66116e-12
-8.85336e-11
2.20624e-12
-4.05009e-12
1.03029e-13
-4.64475e-06
3.29072e-06
2.4878e-06
-1.70857e-05
-9.76094e-06
-8.13298e-06
-6.89082e-06
-9.40156e-06
-7.19959e-06
-5.38217e-06
-5.21507e-06
-1.437e-06
-9.90221e-07
6.13868e-07
-3.4948e-06
5.70996e-07
1.98745e-07
-1.82884e-06
1.39641e-07
-2.5959e-07
-1.74848e-07
-8.37831e-07
-2.66664e-07
-6.57648e-07
-6.32255e-07
-6.00002e-07
-3.27862e-07
-5.25835e-07
-3.26328e-07
-3.04131e-07
2.07544e-08
-4.01668e-07
1.32185e-08
1.58609e-09
-2.59852e-08
8.54278e-10
9.38485e-11
-1.29379e-09
4.40927e-11
-5.63674e-11
2.00018e-12
-0.00721414
0.00144678
-0.0170209
0.00114382
0.000784636
-0.00360324
-4.60359e-05
-2.41119e-05
1.22153e-05
-7.54598e-05
1.24297e-05
1.26119e-05
-9.70451e-06
-5.95943e-06
1.73549e-06
1.25506e-06
-4.10176e-06
-5.74873e-06
-5.77012e-06
-5.69996e-06
3.71019e-07
-2.86737e-06
2.39552e-07
-4.55835e-07
-2.71507e-07
-2.147e-06
-4.53276e-07
-7.24446e-07
-7.52574e-07
-6.2796e-07
-6.2697e-07
-2.11513e-06
-5.29641e-07
-6.49057e-07
2.8409e-08
-2.87337e-07
1.51867e-08
1.62844e-09
-1.44335e-08
7.53044e-10
-6.07969e-10
3.23332e-11
-1.94494
3.11441
-3.54555
1.75226
1.64236
-1.77508
-2.03181
-3.22919
-2.40069
2.43082
1.88547
3.1843
-0.000465249
-0.000814133
7.44972e-05
-0.000824887
6.76575e-05
7.95377e-05
-4.01604e-06
-7.81815e-06
2.9738e-06
2.02016e-06
-5.38441e-06
-4.94671e-06
-4.07338e-06
-5.13335e-06
-5.59139e-06
-5.51727e-06
-5.65783e-06
-5.78599e-06
-7.75141e-06
-7.8464e-06
3.61235e-07
-1.0517e-06
1.94182e-07
-3.66671e-07
-2.31923e-07
-1.47332e-06
-3.64957e-07
-7.49307e-07
-2.74991e-06
-6.29823e-07
-7.45151e-07
-4.57818e-07
-4.8233e-07
-4.08161e-07
2.15366e-08
-1.13308e-07
9.82195e-09
-4.81817e-09
4.09621e-10
-1.62996
-1.85199
2.42211
2.06275
1.74933
2.01534
-2.69262
-1.93947
2.86479
2.86682
-2.74601
-3.01459
1.95314
2.76199
3.02016
-0.00101785
-0.00108548
8.92508e-05
-0.000697398
8.89736e-05
0.000123235
-1.35983e-05
-8.52055e-06
2.0354e-06
-5.07042e-06
1.06891e-06
1.87966e-07
-7.17426e-07
8.87384e-08
-5.16098e-07
-1.00639e-06
-5.63119e-07
-4.91467e-07
-1.67325e-07
-1.63843e-07
-3.37669e-07
-1.59626e-07
-2.9567e-08
3.7224e-09
-1.93941
-2.98827
1.95625
-2.56449
3.14053
-3.39973
-1.93529
1.93758
1.60385
2.93704
3.59087e-06