/*--------------------------------*- C++ -*----------------------------------*\
  =========                 |
  \\      /  F ield         | OpenFOAM: The Open Source CFD Toolbox
   \\    /   O peration     | Website:  https://openfoam.org
    \\  /    A nd           | Version:  9
     \\/     M anipulation  |
\*---------------------------------------------------------------------------*/
FoamFile
{
    format      ascii;
    class       volScalarField;
    location    "0.0025";
    object      rho.c4;
}
// * * * * * * * * * * * * * * * * * * * * * * * * * * * * * * * * * * * * * //

dimensions      [1 -3 0 0 0 0 0];

internalField   nonuniform List<scalar> 
21430
(
2.22
2.27639
3.31322
3.50109
7.87433
6.08535
12.6773
2.90018
1.42826
1.99759
2.18717
3.29638
2.8669
4.02604
3.20281
1.4208
2.1598
2.79096
3.85493
1.97182
2.80257
1.48646
1.64719
1.71245
1.67401
1.73912
1.9987
1.9265
2.50463
5.13643
6.84013
4.43511
4.79153
6.85873
10.3191
4.53293
2.4376
3.3965
6.4682
9.73563
4.29635
6.68826
1.48047
1.6283
1.69479
1.65057
1.71749
1.96694
1.89394
1.65895
2.25888
1.89478
2.27122
1.9174
2.18372
2.56034
1.65475
2.21529
1.8758
2.2227
1.8945
2.14588
2.49239
1.90076
2.26854
1.97393
2.29088
2.52756
2.61013
2.21153
2.35265
1.95829
2.02994
2.31929
2.58609
2.66423
2.24137
1.87543
2.23909
1.94856
2.25186
2.48668
2.5654
2.17389
5.84648
8.01371
10.9162
8.76319
13.2015
10.5022
15.1738
3.1701
2.81358
2.8109
3.56927
3.55124
3.14536
3.97855
13.4535
4.75964
7.87564
11.7784
14.9125
6.05468
10.9907
2.52961
2.5732
2.20854
2.50375
3.24104
2.85045
2.88824
2.54913
2.46515
2.16397
2.4823
3.22065
2.80989
2.87738
6.73104
5.71508
6.29965
4.3716
6.02448
8.24266
7.60677
12.2641
1.91765
2.29091
1.99043
2.26954
2.52018
2.59086
2.19424
2.42531
2.4928
2.13284
2.43191
3.12723
2.74939
2.79455
3.04607
2.72447
2.70862
3.41999
3.37374
3.0197
3.77088
3.83874
4.38911
3.97418
3.50631
3.98614
4.57017
5.05851
2.46045
2.49744
2.16434
2.44356
3.10525
2.76252
2.79025
2.6351
2.92359
2.8967
3.37799
2.97846
3.00395
2.55457
4.40222
3.85691
4.42396
5.11714
4.37686
4.9771
5.94315
3.98939
3.50426
3.14552
3.898
3.5074
4.43206
4.91876
3.14188
4.39436
3.95695
3.89507
3.50573
4.41772
4.89436
3.04352
4.26788
3.82652
3.74599
3.36576
4.20651
4.68417
2.8283
3.61347
3.58846
3.6023
3.18176
3.20145
3.23078
2.57595
2.84554
2.83425
3.27632
2.91697
2.91011
2.50151
3.70005
4.99096
4.21899
4.93495
4.15283
4.71315
5.7219
3.00108
4.08944
3.71961
3.67209
3.33678
4.14459
4.54497
5.67753
5.1195
4.8191
5.67602
6.10895
6.71795
7.32727
24.9148
17.9814
8.14568
22.5924
16.3516
17.7979
35.8481
2.75391
3.46578
3.45661
3.47337
3.09504
3.09486
3.11468
4.94826
4.87571
4.28869
6.74562
5.68928
4.92709
5.75302
7.05128
5.32182
5.92577
5.04779
4.56241
5.31805
5.91987
5.09595
4.59525
5.39293
6.37433
7.14604
5.34358
5.95477
5.94896
5.61986
4.9919
5.61647
7.885
6.29781
6.86776
5.13686
5.6231
5.60521
6.13669
6.17149
6.63695
7.42356
4.32196
4.32169
3.89883
4.91156
6.02185
5.44221
5.43355
6.4861
7.01574
5.43017
7.11894
6.54213
7.91485
8.669
5.56122
5.9203
4.94491
5.59639
7.89487
6.26695
6.8616
5.41166
5.78968
4.79207
5.3262
7.60521
5.99257
6.61414
4.07446
4.11758
3.70791
4.61367
5.63232
5.05436
5.13091
5.15588
5.65929
4.63791
5.23643
7.4295
5.79714
6.53438
5.52987
7.31048
6.6474
7.48664
6.74465
8.19542
9.15656
7.91866
7.27938
6.70137
9.40454
7.95463
8.83543
10.7093
8.08768
6.79857
5.7407
8.15356
9.84283
8.07831
6.79075
6.8037
6.92042
5.79978
8.26745
9.99583
8.12965
6.8326
6.7261
6.73862
5.66516
6.7757
8.20383
8.15227
10.0676
9.37227
8.55312
10.6026
7.66247
8.62012
6.31616
7.07149
6.28949
9.0487
7.85108
9.02758
7.03314
7.02554
7.8964
6.72549
9.02057
7.37737
9.52444
7.98701
8.9225
10.9933
6.65311
8.88742
7.36667
9.30342
7.86496
8.9748
10.8942
6.63308
9.24856
7.50622
9.30568
7.85656
9.08528
11.2483
5.89393
7.31794
8.51155
8.60727
6.51165
6.61723
7.51565
9.54598
7.82767
8.52992
9.66241
13.3403
11.9228
10.6753
2.22045e-16
2.22045e-16
2.22045e-16
2.22045e-16
2.22045e-16
2.22045e-16
2.22045e-16
4.3967e-08
1.08206e-15
2.22045e-16
2.22045e-16
2.22045e-16
2.22045e-16
2.22045e-16
1.27184
7.22938e-09
2.83574e-12
2.22045e-16
2.22045e-16
2.22045e-16
2.22045e-16
47.3866
69.7082
2.97413e-05
8.9905e-12
2.22045e-16
2.22045e-16
2.22045e-16
8.57605
31.9256
91.43
0.00191376
6.25543e-13
2.22045e-16
2.22045e-16
3.66717
6.54924
19.3128
106.248
0.0391478
7.80407e-13
2.22045e-16
3.60847
6.37955
16.6157
108.646
0.00361101
8.36652e-12
3.65206
6.5408
19.5061
99.3674
2.31375e-05
3.85129
7.98939
60.2499
0.00202122
2.22045e-16
2.22045e-16
2.22045e-16
2.22045e-16
2.22045e-16
2.22045e-16
2.22045e-16
1.51282e-11
2.22045e-16
2.22045e-16
2.22045e-16
2.22045e-16
2.22045e-16
2.22045e-16
9.59822e-05
2.92097e-11
4.27849e-16
2.22045e-16
2.22045e-16
2.22045e-16
2.22045e-16
54.3853
1.43573
2.44276e-08
4.08647e-13
2.22045e-16
2.22045e-16
2.22045e-16
14.2313
54.2557
98.3901
7.97425e-06
2.45766e-14
2.22045e-16
2.22045e-16
5.04298
9.1996
31.9026
118.281
1.95064e-06
4.05294e-14
2.22045e-16
5.06908
8.83924
26.6145
121.936
5.20235e-07
1.0983e-13
7.863
9.0908
31.9237
107.589
3.8029e-09
5.44336
12.486
119.016
5.47107e-06
2.22045e-16
2.22045e-16
2.22045e-16
2.22045e-16
2.22045e-16
2.22045e-16
2.22045e-16
2.22045e-16
2.22045e-16
2.22045e-16
2.22045e-16
2.22045e-16
2.22045e-16
2.22045e-16
3.58065e-12
2.52922e-14
2.22045e-16
2.22045e-16
2.22045e-16
2.22045e-16
2.22045e-16
0.209401
8.91336e-07
1.27923e-13
2.22045e-16
2.22045e-16
2.22045e-16
2.22045e-16
93.2984
155.08
0.000403161
1.27646e-13
2.22045e-16
2.22045e-16
2.22045e-16
16.759
62.1959
194.273
0.483668
4.64504e-12
2.22045e-16
2.22045e-16
16.3917
32.8973
177.257
0.811496
3.9117e-13
2.22045e-16
13.1358
18.5534
201.151
0.00221335
5.03941e-14
18.0086
21.635
1.156e-05
1.73266e-12
2.22045e-16
2.22045e-16
2.22045e-16
2.22045e-16
2.22045e-16
2.22045e-16
2.22045e-16
2.22045e-16
2.22045e-16
2.22045e-16
2.22045e-16
2.22045e-16
2.22045e-16
2.22045e-16
2.22045e-16
2.22045e-16
2.22045e-16
2.22045e-16
2.22045e-16
2.22045e-16
2.22045e-16
6.1505e-11
1.59952e-14
2.22045e-16
2.22045e-16
2.22045e-16
2.22045e-16
2.22045e-16
31.827
7.91372e-07
5.53715e-14
2.22045e-16
2.22045e-16
2.22045e-16
2.22045e-16
22.518
93.6728
0.141788
2.1538e-11
2.22045e-16
2.22045e-16
2.22045e-16
13.7601
19.1136
66.0083
10.8418
2.27066e-11
2.22045e-16
2.22045e-16
10.5617
32.5736
74.6705
0.451551
8.7854e-14
2.22045e-16
10.2317
17.576
126.289
1.06614e-12
4.41932e-16
2.22045e-16
2.22045e-16
2.22045e-16
2.22045e-16
2.22045e-16
2.22045e-16
2.22045e-16
2.22045e-16
2.22045e-16
2.22045e-16
2.22045e-16
2.22045e-16
2.22045e-16
2.22045e-16
2.22045e-16
2.22045e-16
2.22045e-16
2.22045e-16
2.22045e-16
2.22045e-16
2.22045e-16
5.02323e-16
2.22045e-16
2.22045e-16
2.22045e-16
2.22045e-16
2.22045e-16
2.22045e-16
2.30084e-09
4.51999e-14
2.22045e-16
2.22045e-16
2.22045e-16
2.22045e-16
2.22045e-16
56.5552
3.5849e-06
3.51447e-13
2.22045e-16
2.22045e-16
2.22045e-16
2.22045e-16
61.61
59.2319
0.0216551
4.50041e-12
2.22045e-16
2.22045e-16
2.22045e-16
12.7825
33.8828
51.9131
0.0509187
1.59458e-13
2.22045e-16
2.22045e-16
33.6876
74.7071
2.92385e-11
1.13808e-13
2.22045e-16
2.22045e-16
2.22045e-16
2.22045e-16
2.22045e-16
2.22045e-16
2.22045e-16
2.22045e-16
2.22045e-16
2.22045e-16
2.22045e-16
2.22045e-16
2.22045e-16
2.22045e-16
2.22045e-16
2.22045e-16
2.22045e-16
2.22045e-16
2.22045e-16
2.22045e-16
2.22045e-16
2.22045e-16
2.22045e-16
2.22045e-16
2.22045e-16
2.22045e-16
2.22045e-16
2.22045e-16
2.22045e-16
1.15972e-14
2.22045e-16
2.22045e-16
2.22045e-16
2.22045e-16
2.22045e-16
2.22045e-16
7.53021e-08
7.80245e-13
2.22045e-16
2.22045e-16
2.22045e-16
2.22045e-16
2.22045e-16
113.572
1.78661e-05
2.52464e-12
2.22045e-16
2.22045e-16
2.22045e-16
2.22045e-16
30.5818
66.5301
151.63
1.77022e-12
2.22045e-16
2.22045e-16
2.22045e-16
139.324
150.433
132.654
2.01914e-13
2.22045e-16
2.22045e-16
2.22045e-16
2.22045e-16
2.22045e-16
2.22045e-16
2.22045e-16
2.22045e-16
2.22045e-16
2.22045e-16
2.22045e-16
2.22045e-16
2.22045e-16
2.22045e-16
2.22045e-16
2.22045e-16
2.22045e-16
2.22045e-16
2.22045e-16
2.22045e-16
2.22045e-16
2.22045e-16
2.22045e-16
2.22045e-16
2.22045e-16
2.22045e-16
2.22045e-16
2.22045e-16
2.22045e-16
2.22045e-16
2.22045e-16
2.22045e-16
2.22045e-16
2.22045e-16
2.22045e-16
2.22045e-16
2.22045e-16
3.56221e-14
2.22045e-16
2.22045e-16
2.22045e-16
2.22045e-16
2.22045e-16
2.22045e-16
6.0805e-08
9.46975e-13
2.22045e-16
2.22045e-16
2.22045e-16
2.22045e-16
2.22045e-16
65.1936
5.0287e-06
8.93559e-14
2.22045e-16
2.22045e-16
2.22045e-16
2.22045e-16
91.1868
21.9148
3.74895e-11
2.22045e-16
2.22045e-16
2.22045e-16
2.22045e-16
2.22045e-16
2.22045e-16
2.22045e-16
2.22045e-16
2.22045e-16
2.22045e-16
2.22045e-16
2.22045e-16
2.22045e-16
2.22045e-16
2.22045e-16
2.22045e-16
2.22045e-16
2.22045e-16
2.22045e-16
2.22045e-16
2.22045e-16
2.22045e-16
2.22045e-16
2.22045e-16
2.22045e-16
2.22045e-16
2.22045e-16
2.22045e-16
2.22045e-16
2.22045e-16
2.22045e-16
2.22045e-16
2.22045e-16
2.22045e-16
2.22045e-16
2.22045e-16
2.22045e-16
2.22045e-16
2.22045e-16
2.22045e-16
2.22045e-16
2.22045e-16
2.22045e-16
2.22045e-16
2.22045e-16
1.46126e-15
2.22045e-16
2.22045e-16
2.22045e-16
2.22045e-16
2.22045e-16
2.22045e-16
3.9715e-09
9.37545e-14
2.22045e-16
2.22045e-16
2.22045e-16
2.22045e-16
2.22045e-16
5.49938e-11
9.80123e-15
2.22045e-16
2.22045e-16
2.22045e-16
2.22045e-16
2.22045e-16
2.22045e-16
2.22045e-16
2.22045e-16
2.22045e-16
2.22045e-16
2.22045e-16
2.22045e-16
2.22045e-16
2.22045e-16
2.22045e-16
2.22045e-16
2.22045e-16
2.22045e-16
2.22045e-16
2.22045e-16
2.22045e-16
2.22045e-16
2.22045e-16
2.22045e-16
2.22045e-16
2.22045e-16
2.22045e-16
2.22045e-16
2.22045e-16
2.22045e-16
2.22045e-16
2.22045e-16
2.22045e-16
2.22045e-16
2.22045e-16
2.22045e-16
2.22045e-16
2.22045e-16
2.22045e-16
2.22045e-16
2.22045e-16
2.22045e-16
2.22045e-16
2.22045e-16
2.22045e-16
2.22045e-16
2.22045e-16
2.22045e-16
2.22045e-16
2.22045e-16
2.22045e-16
2.22045e-16
2.22045e-16
2.22045e-16
2.22045e-16
2.22045e-16
2.22045e-16
2.22045e-16
2.22045e-16
2.22045e-16
2.22045e-16
2.22045e-16
2.22045e-16
2.22045e-16
2.22045e-16
2.22045e-16
2.22045e-16
2.22045e-16
2.22045e-16
2.22045e-16
2.22045e-16
2.22045e-16
2.22045e-16
2.22045e-16
2.22045e-16
2.22045e-16
2.22045e-16
2.22045e-16
2.22045e-16
2.22045e-16
2.22045e-16
2.22045e-16
2.22045e-16
2.22045e-16
2.22045e-16
2.22045e-16
2.22045e-16
2.22045e-16
2.22045e-16
2.22045e-16
2.22045e-16
2.22045e-16
2.22045e-16
2.22045e-16
2.22045e-16
2.22045e-16
2.22045e-16
2.22045e-16
2.22045e-16
2.22045e-16
2.22045e-16
2.22045e-16
2.22045e-16
2.22045e-16
2.22045e-16
2.22045e-16
2.22045e-16
2.22045e-16
2.22045e-16
2.22045e-16
2.22045e-16
2.22045e-16
2.22045e-16
2.22045e-16
2.22045e-16
2.22045e-16
2.22045e-16
2.22045e-16
2.22045e-16
2.22045e-16
2.22045e-16
2.22045e-16
2.22045e-16
2.22045e-16
2.22045e-16
2.22045e-16
2.22045e-16
2.22045e-16
5.422
2.47791
3.63503
4.31749
6.41244
3.14257
4.39593
5.5345
2.59029
3.71723
4.42434
6.56095
3.20944
4.49505
4.61381
2.62144
3.25202
3.744
5.81939
4.51749
6.89922
5.53634
2.54354
3.60977
4.32903
6.53131
3.10141
4.30029
2.50576
2.85451
2.8734
2.93833
2.95646
3.33448
3.25165
7.53314
3.78402
5.20122
11.1434
17.4733
7.68339
11.3988
4.91354
5.24199
7.72315
5.32512
11.4818
17.8444
10.2696
2.55955
2.82649
2.90781
2.82755
2.90669
3.28077
3.20121
3.88823
10.5009
7.8844
5.34569
8.15317
11.8303
19.8749
2.79439
3.57597
3.59049
3.14857
3.16458
3.55068
3.9948
2.75006
3.51422
3.10616
3.49259
3.09821
3.48304
3.90011
2.69631
2.9538
3.03187
2.98665
3.06146
3.43101
3.35291
7.70356
3.64335
5.56338
11.3461
20.0017
8.43394
11.0778
7.61571
15.7834
12.2816
12.1084
20.0777
16.3604
84.3377
7.26501
13.5195
22.1144
11.38
13.7393
20.7234
94.4225
10.9756
13.1228
5.79021
34.5648
105.144
10.9163
18.6168
2.87588
3.62485
3.22372
3.63725
3.24807
3.63385
4.05785
2.61023
2.86007
2.92707
2.8796
2.94317
3.28679
3.22011
17.8695
8.20753
12.4978
39.1938
114.246
11.1495
18.4243
11.86
4.13084
6.47754
7.51348
14.2679
4.9519
7.64125
3.23378
3.736
3.31661
3.75603
4.15385
4.24191
3.67161
3.20797
3.71786
3.2891
3.70273
4.11109
4.19707
3.62125
2.77582
3.44397
3.0987
3.43983
3.10866
3.46479
3.82836
3.89065
4.30154
4.31581
5.42349
5.44008
4.76753
5.99948
12.8978
4.2383
6.83856
7.71535
15.7985
4.56692
8.07364
3.27261
3.80125
3.35492
3.77769
4.20699
4.29543
3.69329
4.75119
4.20557
4.16197
5.27939
5.20753
4.62442
5.78631
13.4037
4.08797
6.38535
7.72926
16.6962
4.39024
7.51436
3.19956
3.6859
3.27665
3.69191
4.08832
4.17162
3.61216
3.95984
3.9751
3.53258
3.98167
4.98407
4.48043
4.45044
4.02559
4.01122
3.56897
4.00335
5.04618
4.53571
4.47359
3.3231
3.82748
3.40349
3.85693
4.27483
4.36317
3.77444
3.93087
3.38573
3.461
3.89048
4.37141
4.45887
3.80947
9.90323
4.43767
4.76901
6.98948
18.959
8.27198
24.1974
3.8911
3.876
3.4725
3.90252
4.8708
4.39618
4.34011
3.93832
3.92605
3.49737
3.91857
4.92041
4.42965
4.36698
4.86999
4.31896
4.31525
5.41753
5.39876
4.8046
6.01949
4.04125
4.05004
3.61004
4.07777
5.11848
4.60362
4.54309
3.20952
3.68443
3.27917
3.68846
4.09562
4.175
3.61626
21.7276
4.21611
6.68971
10.9513
28.3069
4.97292
7.96534
3.24011
3.73674
3.30475
3.70273
4.15012
4.2274
3.63213
10.616
15.1472
25.8361
16.1031
24.2145
106.519
19.1943
4.14969
4.07793
3.66069
4.11001
5.22509
4.70133
4.57385
3.88449
3.83772
3.46251
3.88423
4.85496
4.39272
4.29149
4.48644
4.03679
4.01164
4.98559
4.93607
4.46579
5.51268
17.7301
5.83708
8.9974
21.1779
60.365
13.0238
21.3453
6.29017
8.96227
8.99858
7.00558
7.02792
7.81176
10.2164
19.9553
7.51555
9.56739
21.7222
70.6785
13.5152
24.7828
25.7826
13.25
15.1082
25.6912
117.506
13.7516
19.142
6.08316
8.78562
6.81713
8.70195
6.72168
7.52751
9.92618
4.74375
6.57363
5.96758
5.87992
5.27629
6.62159
7.35921
4.7826
6.68346
6.01621
5.95693
5.30336
6.65724
7.46448
8.56564
6.32798
7.08862
7.6892
8.65717
9.39777
10.6382
6.87206
7.00061
6.90774
8.3392
8.40921
8.53922
10.4665
21.3755
7.07566
8.84419
26.3562
79.1425
12.7718
21.5571
4.5776
6.30597
5.70888
5.71568
5.11074
6.37486
7.11822
13.7005
14.748
23.3984
15.7846
30.9854
26.5581
150.799
4.18104
4.67754
4.68714
5.52134
4.7683
4.77878
4.09629
4.2676
4.76283
4.79765
5.63628
4.85681
4.89193
4.17922
3.92793
3.83429
3.47856
3.89555
4.90198
4.44176
4.29785
4.67004
6.51433
5.85843
5.7929
5.15616
6.44636
7.23584
4.21801
4.70627
4.73222
4.79877
4.82557
5.55751
5.45692
6.23414
9.06378
7.00828
9.08178
6.98853
7.86248
10.4231
4.79785
6.70584
6.02107
6.04082
5.36929
6.73108
7.57435
6.46475
7.77317
8.75815
7.92457
8.95737
9.68634
11.0131
4.32669
4.83788
4.93264
4.8859
4.98136
5.75342
5.64983
4.81599
6.81938
6.0246
6.1684
5.39989
6.76574
7.74202
43.6347
7.87042
14.6898
9.85354
31.8177
27.2459
118.884
33.6556
11.5522
21.1316
70.5663
183.544
17.3708
31.6778
4.40965
5.79827
5.5525
5.57161
5.01626
5.02975
4.89238
4.50757
5.92358
5.67547
5.71735
5.11589
5.15247
5.01535
4.40638
5.01486
4.94434
5.92541
5.04034
5.11126
4.31842
4.45402
5.60072
5.63624
5.05282
5.0824
5.83991
6.46437
4.16941
4.67908
4.76874
4.69225
4.78033
5.54484
5.44688
8.84398
11.2231
14.1262
12.4181
10.0045
8.01864
9.81658
6.24667
4.49342
5.03447
5.67998
5.01222
6.20578
7.0525
10.4166
8.47071
6.78952
7.70409
9.34033
9.72732
12.0997
5.07936
5.76429
5.1944
5.82052
5.24468
6.04479
6.69682
8.91501
11.3308
14.2429
12.4395
9.84471
8.055
10.047
6.41779
7.36941
5.71643
8.40248
6.3536
7.15583
9.61761
4.85774
5.54593
5.01415
5.55254
5.02369
5.81792
6.42743
11.1689
13.261
16.3989
13.4242
11.2667
9.46479
10.8386
9.46855
12.4103
15.875
10.6643
13.3053
8.38085
10.3058
4.64762
5.97261
6.2239
5.88947
5.30602
5.3799
5.1662
4.19186
4.75913
4.71743
5.6313
4.84491
4.80415
4.11387
8.60807
10.1579
7.76824
8.67391
13.122
9.68154
11.5644
11.7363
7.83777
8.76969
8.7265
13.3656
9.83763
11.6487
13.032
11.0837
9.35221
11.0193
12.9285
13.0136
15.9008
16.8609
10.2086
13.0583
8.2351
10.2005
10.0366
12.7508
15.8853
9.96915
12.5189
10.0522
12.3888
9.87411
8.17709
12.4259
12.6306
9.97174
10.0315
8.13085
9.9615
12.6186
37.7146
5.82259
9.638
54.0825
116.628
14.1628
30.0104
4.46051
6.23209
5.49457
5.72984
5.01135
6.19551
7.11764
10.0642
8.25724
10.2215
12.7281
10.2456
13.0992
16.9258
55.6306
39.2057
16.4964
23.0406
130.862
140.75
158.205
91.3746
16.7857
39.2433
27.1248
135.067
136.856
97.9622
6.51764
6.54593
5.75095
7.17368
9.41537
8.12879
8.17044
9.83129
8.24933
7.42319
8.3431
12.8044
9.35953
11.2267
8.5286
10.0133
7.62325
8.43857
12.9377
9.51534
11.3138
6.68213
6.73525
5.91966
7.41392
9.67276
8.35887
8.43243
9.89882
9.98446
8.1986
12.4397
10.0973
12.5622
15.9354
4.52497
5.09938
5.19611
5.20424
5.30126
6.17345
6.06692
7.29916
6.58535
6.63181
8.22544
8.28949
7.60096
9.50577
10.7693
10.9641
9.30653
10.9632
13.0871
12.8777
16.1294
16.7404
12.9102
10.9647
13.7174
10.9757
9.29696
11.0453
13.2774
13.481
10.414
10.1037
8.1864
10.2009
12.8564
13.359
9.33791
11.666
14.8547
11.6832
13.3837
17.4595
19.6307
28.7869
41.3216
172.303
134.547
235.862
141.199
12.6717
10.2158
8.41933
10.5124
13.1514
13.1268
16.9847
28.8904
69.5324
23.8593
40.9739
115.284
118.906
13.161
4.40749
5.90587
5.61876
5.57426
5.08621
5.04597
4.86721
10.3679
8.80926
7.85713
8.85283
13.6925
10.0107
11.9385
5.99554
6.79397
6.86346
8.51353
8.60858
7.89412
9.91176
77.2031
7.63554
16.7051
24.3727
92.9977
8.96171
20.8533
5.43278
6.48824
5.53263
6.50417
7.62852
7.74618
6.39475
74.6041
7.7765
18.1693
20.7235
92.3737
9.13506
22.747
5.58651
6.65236
5.68896
6.73245
7.87297
7.99362
6.61999
34.0589
191.251
28.9539
149.405
226.522
37.2109
137.437
133.842
14.7932
27.361
115.502
15.9289
56.7553
140.202
58.3774
138.951
15.8641
106.283
3.52796
75.0072
117.796
9.54465
13.9863
10.8268
15.3282
11.8348
13.5938
18.1964
10.7558
11.7831
9.49351
15.2333
12.0211
13.8614
18.0583
8.63443
13.7578
10.5354
14.5135
10.8543
13.6334
19.1964
8.46191
13.9225
10.4146
14.7166
10.7632
13.5936
19.8139
5.49148
6.58841
5.5927
6.53869
7.70417
7.82411
6.42839
5.2999
6.07245
5.46791
6.20113
5.57782
6.48768
7.21655
11.1794
14.0563
11.3756
9.58804
11.5076
13.6245
17.3024
7.05298
6.9488
6.09723
7.64781
10.2918
8.72478
8.87015
9.65586
7.22352
8.16719
8.11082
12.796
9.2699
11.0551
9.01468
14.0463
11.0543
15.3254
11.6973
14.9281
20.5144
5.42666
6.49367
5.52562
6.52109
7.67975
7.79598
6.4132
4.29263
4.83123
4.91606
4.96108
5.04385
5.88741
5.79462
5.69078
6.50407
6.50734
8.10494
8.10492
7.54741
9.44373
90.691
8.39168
27.6229
24.5212
97.5618
9.94932
35.3701
11.7815
14.892
17.0258
16.8044
14.7407
18.8503
22.3814
31.0783
49.5679
43.5494
128.62
226.908
145.561
61.2068
12.2702
7.87862
8.99506
8.90983
14.2215
10.2698
12.0753
12.37
9.93929
12.8437
15.2082
16.4758
14.4013
20.2399
10.0519
13.024
16.686
14.5819
11.5315
15.4574
20.538
6.80055
6.43113
5.81221
6.81951
8.95341
8.10404
7.53743
6.90956
6.50846
5.87777
6.85717
9.04898
8.18819
7.5816
5.72696
6.95391
5.83185
6.83181
8.16709
8.29
6.71801
6.97571
6.62226
5.97813
7.05816
9.25012
8.36461
7.80726
7.28959
6.78818
6.12619
7.16117
9.62751
8.67921
7.92402
4.50671
5.70584
5.15947
5.87459
5.29458
6.19075
6.92489
17.4751
13.6705
19.7512
24.0151
18.1615
15.5767
12.1381
84.7042
8.20011
21.2014
41.2795
85.1745
9.94362
26.9593
5.48195
6.654
5.57847
6.57161
7.92135
8.0377
6.46507
44.2045
106.15
228.93
110.684
2.34542
66.1986
144.259
10.9026
14.8763
19.6887
18.8925
12.9291
16.7888
25.9619
6.59316
6.53214
5.68942
7.05952
9.73783
8.24677
8.14215
6.80356
6.41114
5.80029
6.83035
9.02293
8.15581
7.54427
14.0915
11.025
9.36128
11.1571
14.6675
13.1218
17.9666
107.976
17.7602
32.3727
176.29
335.637
32.1356
164.277
35.1097
33.236
126.214
40.9522
170.349
319.765
216.601
9.4338
12.4844
14.8391
14.8658
10.7306
10.7838
12.8639
9.76023
12.827
15.1622
15.3316
11.0392
11.148
13.2357
6.97323
6.46367
5.85096
6.88312
9.4204
8.43155
7.6095
5.92944
7.10566
6.03598
7.30337
8.7146
8.8454
7.1872
12.9373
19.382
15.8048
17.844
15.2336
19.4508
23.9152
13.1232
15.5544
20.0484
18.24
15.3712
19.6756
24.6096
9.59946
14.9303
15.03
10.8551
10.9418
12.5902
17.509
12.8791
19.4635
15.9377
17.7405
15.1017
19.67
24.1174
18.276
15.5546
12.1533
17.5572
15.1641
19.6522
24.0865
6.26084
7.18285
7.35995
9.0638
9.34814
8.60422
11.05
1.22606
2.15262
2.18328
3.4271
4.06656
7.87764
5.5798
1.8635
0.80618
1.18677
1.74438
2.49784
1.18422
1.72441
0.834965
0.905584
0.942277
0.92288
0.959463
1.08719
1.04296
3.069
1.52032
2.20283
3.73947
5.84601
2.49805
3.82151
0.953488
1.3371
1.07624
1.35146
1.09487
1.23794
1.52438
6.66443
2.68186
4.11753
5.01131
8.71813
3.24974
4.89468
3.21915
1.37641
2.16907
2.81412
3.9518
1.96271
2.85543
1.03107
1.23827
1.07536
1.24477
1.37766
1.43627
1.1932
1.06164
1.27823
1.10602
1.2581
1.39983
1.45914
1.20625
1.44324
1.53783
1.25743
1.42373
1.96243
1.63573
1.73277
1.40213
1.51643
1.22445
1.40992
1.95944
1.61449
1.72668
1.91353
1.71756
1.72381
2.17376
2.16661
1.9434
2.4557
2.2491
2.8682
2.57526
2.84655
2.55787
2.93087
3.28887
1.4442
1.61187
1.60233
1.93665
1.678
1.66819
1.3853
1.43488
1.59962
1.60306
1.66549
1.66912
1.93436
1.86019
2.8499
3.07165
3.05008
3.25004
3.23217
3.53065
3.73269
4.71077
2.48797
4.42574
6.74566
10.0905
5.12363
6.84009
1.94442
2.80161
2.46877
2.47625
2.19523
2.78406
3.14785
1.94475
2.73326
2.43932
2.44887
2.18794
2.75997
3.08355
1.62217
2.12569
2.2135
2.21634
1.86256
1.85524
1.95855
1.61263
2.2224
2.23016
1.85363
1.85723
2.12886
2.51688
9.7652
3.53819
5.3549
7.08222
17.1315
4.96892
8.15575
3.03084
3.68262
3.44363
3.6885
3.4348
3.95417
4.23729
1.85858
2.23262
1.93201
2.23314
2.47608
2.55913
2.15208
3.28318
3.25794
2.90248
3.32409
4.34513
3.7543
3.7797
3.37593
3.3062
2.94929
3.35605
4.41085
3.83684
3.80756
1.86773
2.25197
1.94254
2.24002
2.49002
2.57507
2.15748
2.74432
2.76445
2.46278
3.11939
3.87842
3.46721
3.50775
3.16757
2.78223
2.79645
3.53838
3.55945
3.11409
3.95408
12.8957
6.04208
8.71878
10.7255
22.4151
6.90518
8.41161
3.54415
4.34613
3.74044
4.81207
4.11187
4.34915
5.112
2.42474
2.50637
2.1246
2.42989
3.16049
2.75631
2.82815
2.45121
2.52788
2.13725
2.43924
3.1955
2.78017
2.8423
3.50402
4.3339
3.71428
4.78528
4.09479
4.34508
5.13067
1.16341
2.5182
3.66552
0.786186
1.22049
1.75046
1.18643
1.88114
1.7254
2.53859
0.81574
0.903203
0.893925
0.931175
0.940246
1.078
1.03365
1.50672
2.22072
3.31624
2.20912
3.14065
3.82812
5.94162
0.929061
1.33476
1.32685
1.06083
1.07007
1.22396
1.51945
2.70349
4.34721
5.40421
3.74101
7.24148
5.74597
6.89893
1.04686
1.27175
1.09103
1.25462
1.40662
1.46479
1.20333
1.02652
1.23792
1.07104
1.24342
1.38092
1.43932
1.192
1.91481
1.72078
1.71566
2.18331
2.18566
1.95359
2.48559
1.52963
1.43249
1.2371
1.41593
1.98552
1.63909
1.73862
1.51367
1.40067
1.21725
1.40534
1.96788
1.61626
1.73029
2.26331
2.8831
2.88317
2.59042
2.59157
2.96756
3.31898
1.44926
1.62668
1.61208
1.95556
1.6781
1.69233
1.39098
2.86795
3.08391
3.08487
3.25898
3.25813
3.55125
3.74213
1.95844
2.81353
2.48504
2.50546
2.21819
2.82009
3.18274
1.94958
2.81301
2.48265
2.49702
2.21419
2.8193
3.1801
1.62503
2.24832
2.14883
2.23883
1.86523
1.87758
1.97556
3.2411
3.67094
3.44241
3.44365
3.03867
3.94529
4.2
3.8272
2.96526
3.38631
3.39502
4.43722
3.87387
3.83419
3.31689
3.38736
2.96491
3.39402
4.43209
3.87096
3.83252
2.81256
2.80677
2.50303
3.18579
3.98854
3.57236
3.57629
3.74078
3.54851
4.11883
4.82311
4.12285
4.3464
5.11108
4.34217
4.11856
3.54998
4.81336
4.12052
4.34251
5.09436
4.01415
3.89304
4.04058
4.43491
4.48302
4.64693
5.17662
5.79317
4.9122
4.59148
4.21201
3.94861
4.58166
4.88644
5.37622
4.87455
4.57507
4.19599
3.94338
4.57402
4.87186
3.80243
4.86122
5.04508
5.08489
4.28337
4.33493
4.38557
4.62428
4.2544
3.9492
4.61322
5.95541
5.48526
4.96634
4.58553
4.21858
3.95187
4.60017
5.81103
5.41385
4.92722
2.56438
2.83095
2.8404
3.30136
2.91371
2.92405
2.48031
4.42432
4.39313
3.858
5.10874
4.37049
4.95151
5.90941
5.13425
5.14024
4.99071
4.40724
4.41168
3.87725
4.43797
3.09331
4.32325
3.92155
3.81993
3.45527
4.36918
4.8108
3.9764
3.13009
3.49478
3.87503
3.47829
4.4036
4.89382
2.76702
3.51448
3.53675
3.55797
3.11825
3.13301
3.17887
5.64278
5.65289
4.80456
5.12393
7.31773
6.11128
6.08492
5.09948
5.65276
4.81247
5.65341
6.05892
6.66366
7.23758
6.04284
6.68163
5.65814
6.06018
5.66888
4.81858
5.09981
5.97197
4.60486
5.11121
6.39795
5.41256
6.05276
7.17942
4.36268
5.79047
5.00932
5.88014
5.0775
5.90592
6.93441
4.69615
6.29271
5.25718
6.6334
5.48863
6.16133
7.48991
5.92695
5.60765
4.97644
5.58124
7.83361
6.26525
6.81639
6.41632
5.76533
5.38748
6.9576
6.44912
7.77404
8.45488
8.43913
7.76704
6.41338
6.4398
6.93898
5.38332
5.75668
5.44789
7.93877
7.16685
7.04785
6.57011
6.50338
5.87576
4.24519
4.27782
3.85112
4.85923
5.92011
5.34177
5.39066
5.48406
5.88442
4.91434
5.54037
7.74562
6.1606
6.7861
7.22547
7.88906
6.6671
9.31689
7.87416
8.71391
10.575
6.66582
8.81105
7.27223
9.30314
7.87327
8.74876
10.6659
7.99262
7.81849
6.50211
7.31561
11.1215
9.04644
8.81991
6.01752
8.72155
7.27147
7.09485
10.6293
8.70909
8.46529
6.82719
5.82032
6.85508
6.95529
10.0418
8.30866
8.28065
6.22186
7.70486
8.85669
8.91602
6.89899
6.96279
7.79491
10.4128
9.48209
7.74682
9.48547
13.0728
11.7325
10.4226
9.68071
8.56161
7.84237
9.55644
13.3925
11.9331
10.5317
10.9652
10.981
9.30298
10.5948
15.8224
12.9674
12.9074
8.47881
13.2561
13.2585
12.752
10.6145
10.3052
10.2778
11.7864
18.8277
17.0754
16.8209
14.888
14.7393
13.1614
19.3029
16.0753
20.8171
28.1083
21.3957
16.783
12.8069
113.362
10.8002
29.436
100.436
195.962
27.6417
112.13
26.1529
45.4719
140.413
34.3519
236.589
287.389
189.57
20.4608
15.1688
12.8864
17.8683
15.1204
19.9947
25.1602
8.17012
9.65737
7.13569
8.10074
13.2975
9.41216
11.1195
7.65684
11.2969
9.58177
10.6893
8.92281
11.1954
13.5403
9.91844
15.5416
11.2715
15.8063
11.4175
13.1995
18.5152
20.5795
16.7896
13.4253
18.9657
16.0736
21.3099
26.3665
110.833
10.6073
26.8359
122.289
185.78
28.2788
101.883
7.55834
11.0957
9.44861
10.5796
8.8677
11.1244
13.4214
7.80048
11.4294
9.7803
10.9545
9.2091
11.6046
13.9438
21.5996
12.4617
16.1738
16.2046
32.1124
22.2215
21.6368
7.03608
7.45259
6.34054
7.66962
10.4826
9.30826
8.55292
5.62849
6.79327
5.7218
7.07577
8.74362
8.88345
6.96257
19.1561
16.1173
12.7777
16.8615
20.6473
21.6889
28.1108
12.5065
16.3112
22.6229
16.042
22.148
23.2359
34.4569
16.0206
22.0828
34.3642
16.2494
23.1485
12.4783
16.4601
12.7851
25.6786
16.842
23.6135
38.5833
25.6608
16.8275
8.12607
6.25721
6.36347
7.59532
10.1734
10.34
7.47509
53.0989
11.612
14.8682
32.3696
77.9987
41.5739
78.816
10.1231
16.6439
13.8499
16.155
11.5984
11.8351
13.9154
12.822
23.4656
17.1611
16.525
34.3398
23.5059
22.225
16.4323
12.7361
16.2615
17.0051
34.1286
23.3325
23.2818
16.8826
17.8963
24.7004
17.7475
39.0516
26.8294
24.5608
26.4416
17.1613
13.124
17.8672
41.056
25.0048
28.0648
8.63316
7.48679
6.69575
8.00705
12.8029
11.0372
9.03271
7.5286
11.1213
9.41091
10.7167
8.89045
11.2175
13.7621
9.30081
14.8671
10.7028
14.9893
10.7158
12.5924
17.9308
7.26641
6.72111
6.98747
8.47966
9.01852
8.38911
11.1233
24.4238
13.0579
17.6644
17.7695
24.5132
26.657
38.801
7.89691
9.44096
9.56875
9.5627
9.69022
12.2394
12.0915
108.06
12.0168
46.696
121.875
154.111
36.8852
152.709
7.13382
6.65872
6.0035
7.47693
10.8743
9.44636
8.4736
8.00901
12.1712
10.0764
11.4992
9.36259
11.8413
14.9073
15.2711
17.2289
12.9727
18.4013
15.4833
22.1672
27.7977
7.75197
9.33787
9.46109
9.42427
9.54727
12.2918
12.1403
40.9375
26.3958
17.8188
28.0126
18.6045
13.1047
17.1231
93.1261
12.3355
35.5185
127.555
25.6914
41.6905
132.44
7.59844
11.8725
9.53695
11.4414
8.99394
11.4265
15.2692
13.887
17.0006
23.8827
20.335
16.4544
22.3322
30.3983
55.2284
210.443
77.0991
46.1615
179.592
236.509
55.0486
15.8812
20.8899
22.1781
26.4641
28.7569
30.988
42.4129
18.2287
19.578
28.3115
17.9844
41.0766
27.4331
25.2764
25.5347
18.2074
13.9167
19.8753
41.5233
27.7982
28.6501
7.77242
9.32242
9.36133
12.004
9.44772
9.48828
7.65352
8.12109
9.73995
9.99941
13.06
9.86748
10.1297
7.99961
14.9392
17.5908
19.9785
24.2812
24.8904
27.6996
37.0188
14.6031
19.9956
29.2961
20.5347
33.796
34.8077
50.1491
8.26393
11.0989
10.0062
11.2527
10.1347
12.8742
14.5731
9.29142
13.3007
15.9828
15.2904
11.0342
10.8032
12.9351
14.9861
27.7854
19.6637
17.6592
37.1541
25.0353
24.3295
15.7343
30.7469
21.939
18.9014
41.9838
26.2221
28.4049
21.302
21.8035
14.3941
19.1508
49.4088
29.9496
30.6704
8.13315
12.6191
10.9574
11.001
9.8787
9.92147
8.98628
7.88443
9.9647
9.60984
13.5723
10.1045
9.73723
7.76922
10.4837
17.398
12.176
18.7475
12.7227
15.3964
23.5701
8.34078
12.6695
10.5905
12.8888
10.3016
13.5298
17.4621
23.16
14.0313
17.8029
26.7269
19.3967
25.2417
36.6173
8.10888
10.9918
9.89496
11.1462
9.99557
12.9704
14.7905
19.6268
22.38
21.6029
30.2395
31.1887
35.0454
49.9363
21.631
23.4886
26.4875
32.8557
36.7924
40.0866
56.3395
8.51674
10.3952
10.5382
11.0409
11.1985
15.1112
14.9306
62.721
13.5341
37.9405
49.2178
65.2707
17.8018
48.1417
6.13673
8.715
6.24063
7.66354
11.1905
11.3511
7.53453
24.1311
27.055
38.3971
22.7207
53.7584
36.8425
32.1451
26.1516
23.6547
16.5553
22.4281
55.8063
36.8118
33.0667
8.49866
13.8054
11.4961
11.8923
10.3266
10.6198
9.40806
21.2287
21.5179
18.004
24.146
39.4073
30.0223
30.589
30.7036
22.1963
18.725
24.2499
44.7123
31.9356
30.7016
22.9748
25.3854
33.0207
24.6375
47.5988
33.3387
31.4488
21.2412
21.0653
17.7748
24.5213
41.1566
31.4976
30.5269
23.0357
24.5232
31.4427
25.1609
47.316
32.9184
32.9672
23.9122
21.0099
21.0626
29.8324
25.3738
29.9996
38.7521
145.425
23.0562
52.712
165.318
0.681116
115.907
229.254
13.4405
27.019
19.1877
20.4492
15.9078
23.9613
34.7045
22.3148
23.807
26.6089
31.6508
36.1374
37.9422
52.8745
8.25301
14.4275
12.1206
11.4928
10.6619
10.2239
9.15558
9.34287
7.51751
6.60891
8.1679
14.481
12.2154
9.42554
14.8413
17.4474
12.5173
14.8467
27.349
18.321
21.061
15.0787
17.6415
12.6946
14.9322
27.1135
18.392
21.128
20.378
39.1139
27.6659
26.164
55.6332
36.6466
35.4493
8.92823
12.5398
11.093
13.5727
11.855
16.0795
18.6601
9.03834
17.3135
11.8914
16.3895
11.105
15.0084
23.1538
68.8769
19.4169
73.8687
54.9187
86.5889
148.879
0.0493795
25.3242
21.9411
22.535
31.5867
27.3027
33.1782
43.4815
15.2889
18.1259
12.9911
15.5855
28.6763
19.1178
22.3149
14.9392
17.6131
12.5014
15.189
29.9717
19.2917
22.3675
35.6126
25.6355
20.5513
28.3347
56.4886
37.9199
39.4445
7.91504
12.7655
10.1823
13.7731
10.5017
14.3381
19.2367
9.71984
17.4769
11.5826
20.1641
12.7911
16.2794
26.2399
8.32594
10.5915
10.7468
11.6082
11.7745
16.3955
16.2216
13.7016
13.2798
13.5046
17.3082
17.707
18.1398
24.9651
18.0528
21.5808
22.2127
33.1648
27.7834
35.8493