/*--------------------------------*- C++ -*----------------------------------*\
  =========                 |
  \\      /  F ield         | OpenFOAM: The Open Source CFD Toolbox
   \\    /   O peration     | Website:  https://openfoam.org
    \\  /    A nd           | Version:  9
     \\/     M anipulation  |
\*---------------------------------------------------------------------------*/
FoamFile
{
    format      ascii;
    class       volScalarField;
    location    "0.0028";
    object      rho.air;
}
// * * * * * * * * * * * * * * * * * * * * * * * * * * * * * * * * * * * * * //

dimensions      [1 -3 0 0 0 0 0];

internalField   nonuniform List<scalar> 
23893
(
1.88847
1.22501
1.225
1.225
1.225
1.22501
1.225
1.225
1.22529
0.823732
1.42792
2.35745
2.13673
1.22572
1.22868
1.54352
1.24508
1.22574
1.22629
1.54286
1.24647
1.25807
0.959443
1.57539
1.04201
1.22581
1.50709
1.07287
2.25291
0.88668
0.740131
0.789489
1.07706
0.953631
1.01876
1.00084
1.2629
1.2296
1.23066
1.24932
1.23176
1.25197
1.25982
1.34212
1.35035
1.35295
1.53589
1.32487
1.38247
1.3205
1.04274
0.847918
0.916372
1.16684
1.19843
1.09854
1.274
1.23153
1.6434
1.75197
1.48607
1.97211
1.87682
1.91607
2.25101
1.54735
1.86964
2.27401
1.41499
2.25621
1.81292
1.7254
1.50036
1.43565
1.66222
1.39041
1.72002
1.11868
1.87039
1.21669
2.35588
1.07554
1.63212
1.58022
1.3349
2.46957
1.22504
1.225
1.225
1.22585
1.25207
1.22663
1.22504
1.225
1.225
1.225
1.225
1.225
1.225
1.225
1.225
1.225
1.225
1.225
1.225
1.225
1.225
1.225
1.225
1.225
1.225
1.225
1.225
1.225
1.225
1.225
1.225
1.225
1.225
1.225
1.225
1.225
1.225
1.225
1.225
1.225
1.225
1.225
1.50211
1.23933
1.22501
1.225
1.225
1.22544
1.23801
1.22543
1.22501
1.225
1.225
1.225
1.225
1.225
1.225
1.225
1.225
1.225
1.225
1.225
1.225
1.225
1.225
1.225
1.225
1.225
1.225
1.225
1.225
1.225
1.225
1.225
1.225
1.225
1.225
1.225
1.225
1.225
1.225
1.225
1.225
1.225
1.225
1.225
2.16927
1.22518
1.225
1.225
1.22508
1.22661
1.225
1.225
1.225
1.225
1.225
1.225
1.225
1.225
1.225
1.225
1.225
1.225
1.225
1.225
1.225
1.225
1.225
1.225
1.225
1.225
1.225
1.225
1.225
1.225
1.225
1.225
1.225
1.225
1.225
1.225
1.225
1.225
1.225
1.225
1.225
1.225
1.225
1.45552
1.225
1.22503
1.225
1.225
1.22502
1.225
1.22501
1.225
1.225
1.225
1.225
1.225
1.225
1.225
1.225
1.225
1.225
1.225
1.225
1.225
1.225
1.225
1.225
1.225
1.225
1.225
1.225
1.225
1.225
1.225
1.225
1.225
1.225
1.225
1.225
1.225
1.225
1.225
1.225
1.225
1.225
1.225
1.76219
2.10444
1.24864
1.225
1.225
2.01267
1.26627
1.2253
1.225
1.225
1.225
1.22533
1.22501
1.225
1.225
1.225
1.225
1.225
1.225
1.225
1.225
1.225
1.225
1.225
1.225
1.225
1.225
1.225
1.225
1.225
1.225
1.225
1.225
1.225
1.225
1.225
1.225
1.225
1.225
1.225
1.225
1.225
1.225
1.225
1.225
1.225
1.225
1.62151
1.31539
1.22506
1.225
1.225
1.225
1.22502
1.23251
1.225
1.225
1.225
1.225
1.225
1.225
1.225
1.225
1.225
1.225
1.225
1.225
1.225
1.225
1.225
1.225
1.225
1.225
1.225
1.225
1.225
1.225
1.225
1.225
1.225
1.225
1.225
1.225
1.225
1.225
1.225
1.225
1.225
1.225
1.225
1.225
1.225
1.225
1.225
1.225
1.22501
1.22501
1.225
1.225
1.225
1.225
1.225
1.225
1.225
1.225
1.225
1.225
1.225
1.225
1.225
1.225
1.225
1.225
1.225
1.225
1.225
1.225
1.225
1.225
1.225
1.225
1.225
1.225
1.225
1.225
1.225
1.225
1.225
1.225
1.225
1.225
1.225
1.225
1.225
1.225
1.225
1.225
1.225
1.225
1.225
1.225
1.225
1.225
1.225
1.225
1.225
1.225
1.225
1.225
1.225
1.225
1.225
1.225
1.225
1.225
1.225
1.225
1.225
1.225
1.225
1.225
1.225
1.225
1.225
1.225
1.225
1.225
1.225
1.225
1.225
1.225
1.225
1.225
1.225
1.225
1.225
1.225
1.225
1.225
1.225
1.225
1.225
1.225
1.225
1.225
1.225
1.225
1.225
1.225
1.225
1.225
1.225
1.225
1.225
1.225
1.225
1.225
1.225
1.225
1.225
1.225
1.225
1.225
1.225
1.225
1.225
1.225
1.225
1.225
1.225
1.225
1.225
1.225
1.225
1.225
1.225
1.225
1.225
1.225
1.225
1.225
1.225
1.225
1.225
1.225
1.225
1.225
1.225
1.225
1.225
1.225
1.225
1.225
1.225
1.225
1.225
1.225
1.225
1.225
1.225
1.225
1.225
1.225
1.225
1.225
1.225
1.225
1.225
1.225
1.225
1.225
1.225
1.225
1.225
1.225
1.225
1.225
1.225
1.225
1.225
1.225
1.225
1.225
1.225
1.225
1.225
1.225
1.225
1.225
1.225
1.225
1.225
1.225
1.225
1.225
1.225
1.225
1.225
1.225
1.225
1.225
1.225
1.225
1.225
1.225
1.225
1.225
1.22503
1.225
1.22502
1.225
1.225
1.225
1.225
1.225
1.225
1.22556
1.225
1.22539
1.23278
1.22882
1.38604
1.2606
1.22775
1.33838
1.77941
1.44337
1.30073
1.37219
1.83182
1.37721
1.26507
1.225
1.22506
1.225
1.22503
1.225
1.22504
1.225
1.225
1.225
1.225
1.225
1.225
1.225
1.225
1.22509
1.225
1.22501
1.225
1.22506
1.225
1.225
1.24605
1.22504
1.22504
1.22558
1.23917
1.22503
1.22503
1.22501
1.225
1.225
1.225
1.225
1.225
1.225
1.225
1.22531
1.225
1.2251
1.34869
1.2272
1.31343
1.47349
1.22575
1.25307
2.35087
1.34124
1.25025
1.94068
2.3411
1.25724
1.22774
1.225
1.22502
1.225
1.225
1.22501
1.225
1.225
1.225
1.225
1.225
1.225
1.225
1.225
1.22503
1.225
1.225
1.225
1.22501
1.225
1.225
1.23579
1.22502
1.22503
1.22514
1.22814
1.22501
1.22502
1.225
1.22502
1.225
1.225
1.22501
1.225
1.225
1.22506
1.225
1.225
1.78451
1.22545
1.24166
1.8385
1.22505
1.22675
2.1372
1.24243
1.22598
2.0878
1.26397
1.22621
1.22502
1.225
1.225
1.225
1.22501
1.22501
1.225
1.225
1.225
1.225
1.225
1.225
1.225
1.225
1.225
1.225
1.225
1.225
1.225
1.225
1.225
1.22677
1.225
1.22501
1.22503
1.22515
1.225
1.225
1.22525
1.36403
1.22509
1.225
1.29701
1.22798
1.225
1.225
1.22584
1.22501
1.65238
1.22502
1.22559
1.24209
1.225
1.22501
1.23175
1.22535
1.22501
1.23372
1.22501
1.22501
1.225
1.22532
1.22505
1.22502
1.30271
1.22612
1.22652
1.22501
1.22501
1.225
1.23747
1.22537
1.22503
1.22501
1.225
1.225
1.225
1.22508
1.225
1.225
1.225
1.22504
1.225
1.225
1.225
1.225
1.225
1.225
2.12805
1.50321
1.23655
2.21017
2.36671
1.46628
1.22767
1.46419
1.22826
1.22507
1.63679
1.24318
1.22548
1.22501
1.22543
1.22502
1.225
1.22574
1.22501
1.22501
1.225
1.73868
2.35087
1.37234
2.1733
1.22528
1.7914
2.41881
1.22502
1.225
1.3157
1.61472
1.22538
1.22501
1.225
1.225
2.60082
1.84965
1.225
1.225
1.225
1.225
1.23125
1.22501
1.225
1.225
1.225
1.225
1.225
1.225
1.225
1.225
1.225
1.225
1.225
1.225
1.225
1.225
1.225
1.225
0.612729
0.633712
1.08884
0.698008
1.13474
1.11496
0.915005
1.16406
0.709316
0.836394
1.53402
0.824358
1.2703
1.8818
0.975865
1.65841
1.27274
1.49413
1.60307
2.06652
1.24194
2.16426
1.44835
2.75008
1.44433
2.42343
1.6723
1.90952
2.55485
1.39733
2.70722
2.1712
1.30214
2.74256
1.25236
1.32659
1.22513
1.08852
1.17003
1.35779
1.80041
1.47983
2.13034
1.45609
2.43757
2.28419
2.20726
2.06844
2.34165
2.60154
2.32445
1.396
2.71841
1.44844
1.23018
2.64967
1.23388
1.23259
1.22504
1.72392
1.3814
1.95306
2.19964
1.976
1.54732
1.76977
2.1166
1.96537
2.0152
2.05921
1.80779
1.9302
1.70868
1.31338
1.50188
1.31832
1.53548
1.23218
1.26105
1.23851
1.22559
1.2286
1.2262
1.22711
1.225
1.22503
1.22501
1.22503
1.22502
1.22501
1.225
1.225
1.225
1.225
1.225
1.225
1.225
1.225
1.225
1.22503
1.22502
1.225
1.22502
1.22501
1.225
1.225
1.225
1.225
1.225
1.225
1.225
1.225
1.225
1.225
1.225
1.225
1.225
1.225
1.225
1.225
1.225
1.225
1.225
1.225
1.225
1.225
1.225
1.225
1.225
1.225
1.225
1.225
1.225
1.225
1.225
1.225
1.225
1.225
1.225
1.225
1.22501
1.225
1.22501
1.225
1.225
1.22501
1.22501
1.22512
1.226
1.22507
1.22553
1.22594
1.22507
1.22513
1.22501
1.225
1.225
1.22501
1.225
1.22501
1.22501
1.22511
1.22547
1.22571
1.22505
1.22584
1.22506
1.22509
1.23943
1.33792
1.34683
1.68805
1.77069
1.77264
1.68946
1.2728
1.23239
1.24734
1.22862
1.23202
1.24617
1.27498
1.36943
1.29763
1.41111
1.69025
1.79783
1.78203
1.69481
1.26928
1.22825
1.23052
1.24139
1.23138
1.24411
1.2645
1.225
1.22501
1.225
1.225
1.225
1.225
1.225
1.225
1.225
1.225
1.225
1.225
1.225
1.225
1.225
1.225
1.225
1.225
1.225
1.225
1.225
1.225
1.225
1.225
1.225
1.225
1.225
1.225
1.225
1.225
1.225
1.225
1.225
1.225
1.225
1.225
1.225
1.225
1.225
1.225
1.225
1.225
1.225
1.225
1.225
1.225
1.225
1.22501
1.225
1.225
1.225
1.22501
1.225
1.225
1.22505
1.22556
1.22504
1.22523
1.22507
1.22542
1.22503
1.225
1.225
1.225
1.225
1.225
1.225
1.225
1.22503
1.22515
1.22519
1.22501
1.22529
1.22502
1.22502
1.47095
1.40951
1.54439
1.69088
1.81359
1.69707
1.82167
1.25211
1.22952
1.23832
1.22664
1.25865
1.22848
1.23521
1.62422
1.70921
1.54224
1.67178
1.78812
1.81482
1.63794
1.24548
1.22615
1.22669
1.22998
1.22751
1.23237
1.2394
1.225
1.225
1.225
1.225
1.225
1.225
1.225
1.22501
1.225
1.22504
1.22506
1.225
1.22501
1.22509
1.225
1.225
1.225
1.225
1.225
1.225
1.225
1.225
1.225
1.225
1.225
1.225
1.225
1.225
1.225
1.225
1.22501
1.225
1.225
1.225
1.225
1.225
1.225
1.225
1.225
1.225
1.225
1.225
1.225
1.225
1.225
1.225
1.225
1.225
1.225
1.22501
1.22511
1.22501
1.22503
1.22501
1.22506
1.225
1.225
1.225
1.225
1.225
1.225
1.225
1.225
1.225
1.22501
1.22501
1.225
1.22503
1.225
1.225
1.83465
1.60068
1.64051
1.52199
1.73729
1.58871
1.64486
1.23045
1.22605
1.22811
1.22525
1.23432
1.22559
1.22676
1.78352
1.64394
1.60351
1.44024
1.39195
1.52073
1.35418
1.22791
1.22512
1.22514
1.2254
1.22531
1.22591
1.22641
1.23263
1.22543
1.22559
1.22744
1.22593
1.22907
1.23019
1.27241
1.24565
1.392
1.43926
1.2562
1.26422
1.39865
1.2257
1.22517
1.22503
1.22599
1.22506
1.22684
1.22534
1.22522
1.225
1.22501
1.22503
1.22502
1.22506
1.22511
1.2326
1.23421
1.35367
1.25455
1.24211
1.22845
1.29871
1.22769
1.22532
1.23489
1.235
1.22581
1.2261
1.25605
1.225
1.225
1.225
1.22501
1.225
1.22502
1.225
1.225
1.225
1.225
1.225
1.225
1.225
1.225
1.22506
1.22508
1.22793
1.22522
1.22523
1.22502
1.22582
1.22502
1.225
1.22507
1.22505
1.225
1.225
1.22523
1.45349
1.40171
1.51915
1.24851
1.29447
1.28557
1.24907
1.22521
1.22505
1.22516
1.225
1.22559
1.22502
1.22505
1.29528
1.24704
1.30054
1.23283
1.22647
1.23155
1.22709
1.22506
1.225
1.22502
1.225
1.22501
1.22501
1.22502
2.18168
1.94466
2.01311
2.08375
1.77838
1.9655
1.88281
1.29851
1.46842
1.32288
1.24958
1.23541
1.2555
1.23213
1.17366
0.728851
0.827168
1.39894
1.04063
1.83476
1.96565
1.1674
1.97706
1.28041
2.14306
1.65548
2.27666
2.557
1.64176
2.53443
1.83568
2.64807
2.24722
0.617418
0.787249
0.79387
0.355097
0.521349
0.523542
0.355138
0.811699
0.664661
0.84665
0.359547
0.548365
0.530683
0.371181
0.89868
0.767003
0.967691
0.412559
0.574915
0.388866
0.610784
1.05364
1.15214
0.911471
0.443707
0.718222
0.657546
0.484895
1.42431
1.00592
1.12601
0.621876
0.799703
0.541704
0.911098
0.599351
1.34715
1.48586
1.00346
1.33663
0.873812
0.682381
1.78353
1.27982
1.4615
0.730552
1.25079
1.06023
0.865029
1.89857
1.64929
1.60426
1.30441
1.49949
1.05128
1.81172
1.70332
1.40405
1.56068
1.57553
1.95183
2.03161
1.69927
1.20763
0.831958
0.923216
0.908017
0.708146
0.635817
1.01115
1.32179
1.05291
1.78559
0.937834
1.58695
1.48476
1.555
1.04934
1.2176
1.26094
0.788105
0.885256
1.12668
2.04095
1.43285
1.66453
1.43375
1.17129
1.01004
1.64674
1.98859
2.13065
1.50141
2.41229
1.39148
2.28681
2.12139
2.22368
1.8599
1.9421
2.06063
1.35205
1.51468
1.86749
1.74855
1.86171
1.67209
2.1836
1.75942
1.66537
2.18754
1.30107
1.48615
1.34715
1.74906
1.7826
1.7058
2.04353
0.974747
1.663
1.18849
1.89589
0.796862
1.87399
1.47293
1.23703
2.20255
2.4616
2.20456
2.15552
1.85402
1.60584
1.55073
1.20565
1.35192
1.84312
1.67009
1.9356
1.76286
1.22501
1.22597
1.22367
1.225
1.22501
1.225
1.22527
1.22505
1.2272
1.53309
1.43818
0.9065
1.05889
1.13841
1.89508
2.12362
1.22501
1.22501
1.225
1.22501
1.225
1.225
1.225
1.225
1.225
1.225
1.225
1.225
1.225
1.225
1.22501
1.225
1.22502
1.22503
1.22537
1.22514
1.22504
1.22502
1.2252
1.23749
1.22795
1.22621
1.24101
1.22675
1.24374
1.23464
1.28763
1.31824
1.37735
1.49759
1.3052
1.28938
1.39311
0.990384
0.763423
0.706177
0.818344
0.520357
0.572179
0.742389
1.40703
1.32692
0.996637
1.24904
1.09108
1.48909
1.57349
1.225
1.225
1.22511
1.225
1.225
1.225
1.225
1.54336
1.22859
1.27197
1.6285
1.22944
1.53515
1.22509
1.22617
1.22506
1.22502
1.25143
1.22525
1.22503
1.22501
1.22501
1.225
1.225
1.22504
1.225
1.225
1.225
1.225
1.225
1.225
1.225
1.225
1.225
1.225
2.33745
1.75279
2.4557
1.60541
2.07876
2.27469
1.22622
2.42503
1.22544
2.14715
1.29854
1.22553
1.22524
1.22501
1.29882
1.225
1.22705
1.22508
1.22501
1.225
1.225
1.22506
1.225
1.225
1.225
1.225
1.225
1.225
1.53415
1.7138
1.30812
1.37676
1.70465
1.30359
1.54154
1.52309
1.36043
1.67168
1.28513
1.69176
1.29567
1.50698
1.45093
1.63915
1.27339
1.28919
1.48349
1.59008
1.26186
1.40986
1.26876
1.4462
1.24299
1.52384
1.25158
1.36389
1.28007
1.36731
1.23621
1.23396
1.31859
1.3046
1.23133
1.25432
1.22928
1.24333
1.22645
1.26548
1.22822
1.23934
1.22722
1.2319
1.22557
1.22518
1.23106
1.22712
1.2252
1.22566
1.22504
1.22511
1.22501
1.22554
1.22505
1.22516
1.91116
1.84876
1.34337
1.65997
1.74312
2.02294
1.40446
1.62295
1.33294
1.26398
1.23862
1.52903
1.35568
1.27646
1.2337
1.25674
1.2259
1.22835
1.2345
1.25929
1.2258
1.22725
1.22591
1.22526
1.22505
1.22789
1.22561
1.22519
1.2281
1.22684
1.23244
1.22514
1.22523
1.22559
1.22503
1.22504
1.22529
1.22501
1.22501
1.22509
1.22517
1.225
1.22501
1.22502
1.225
1.225
1.22504
1.225
1.225
1.225
1.22501
1.22628
1.55808
1.22724
1.22667
1.225
1.4618
2.45575
2.12424
1.70101
1.66614
2.40684
2.44736
2.20001
1.22752
2.50585
2.15058
2.78963
2.56921
1.6184
1.69991
1.225
1.24295
2.31346
1.34067
1.24002
1.22547
1.22564
1.22501
1.225
1.24417
1.22502
1.22502
1.225
2.12021
2.64414
2.25241
2.22282
2.20098
2.64365
1.64343
1.2617
1.24679
1.30424
1.45271
1.57476
1.74033
1.28047
1.93834
1.77791
1.78523
1.68107
1.84469
1.87677
2.00708
1.94706
1.8376
1.7969
1.70221
1.77454
1.71265
1.60629
1.2315
1.22503
1.22501
1.24259
1.22827
1.22503
1.22501
1.22698
1.22502
1.22501
1.22816
1.2252
1.22501
1.225
1.22507
1.22501
1.225
1.2251
1.22501
1.225
1.225
1.225
1.225
1.225
1.225
1.225
1.225
1.225
1.225
1.225
1.225
1.225
1.225
1.225
1.225
1.22501
1.225
1.225
1.225
1.225
1.225
1.225
1.225
1.225
1.225
1.22502
1.22501
1.225
1.225
1.225
1.2252
1.225
1.225
1.225
1.225
1.225
1.225
1.225
1.225
1.225
1.225
1.225
1.225
1.225
1.225
1.225
1.225
1.225
1.225
1.225
1.225
1.225
1.225
0.368257
0.442102
0.790171
2.50301
0.673353
1.07929
1.84466
0.696857
0.651762
2.01626
0.738792
3.09485
3.11814
0.831607
1.33657
2.45578
0.810985
0.767862
1.53139
1.54828
1.6566
3.3542
1.60045
1.54163
2.31479
1.48416
1.2619
1.31439
2.38262
2.26511
1.59667
3.14461
1.69506
1.22505
1.59152
2.65464
3.60183
1.2255
1.5947
1.96828
2.45115
1.73157
1.29712
1.225
1.52996
2.69592
4.34378
1.74885
1.225
1.11085
2.21801
1.22507
1.225
1.225
2.37484
3.28898
1.225
1.225
1.225
1.22506
1.225
1.225
1.225
2.07623
1.23396
1.225
1.225
1.225
1.22504
1.225
1.225
1.225
1.225
0.650859
0.714942
0.933822
0.710486
0.815396
0.697054
1.04163
0.773064
0.880245
0.647944
0.710056
0.672285
0.756518
0.72274
0.873476
0.773102
1.08599
0.766893
1.06814
0.763846
1.11603
0.992652
0.891822
1.38771
1.23453
1.42982
1.60198
1.42112
1.78598
2.08497
1.3168
1.54068
2.33406
2.97516
1.86457
1.85189
1.21398
1.42718
1.75585
1.10225
1.77994
1.41888
1.4513
1.25272
1.51521
1.2607
1.83388
2.37326
1.58622
1.97653
2.29741
3.81035
2.04843
2.55518
3.34493
2.0487
2.23567
4.12489
3.68423
2.69841
2.84288
1.46052
1.25655
1.81262
1.95983
2.01334
2.52275
2.63206
0.976648
1.39326
1.61357
0.734758
0.707893
0.746797
1.1539
0.830892
0.933734
1.30979
1.79981
1.15734
1.24812
0.844825
0.889612
0.918474
1.26863
1.42403
1.41905
1.72741
1.76214
1.91895
1.94525
2.15731
2.14752
2.14065
1.29033
1.90107
2.06329
2.50693
1.6886
2.36325
4.29829
2.12529
2.54071
3.58052
2.47344
2.63261
2.9101
2.77925
2.84851
2.96446
1.56008
1.22591
2.92106
1.23746
1.26477
1.2285
0.641543
0.662381
0.652786
0.679283
0.709817
0.671222
0.790347
0.708552
0.755577
0.722023
0.719555
0.767803
0.778343
0.808296
0.738149
0.775236
0.818079
0.737332
0.783891
0.847044
0.659179
0.675788
0.723511
0.793815
0.761851
0.326654
0.695681
0.680092
0.491001
0.654037
0.473132
0.339455
0.771692
0.85536
0.860651
0.959429
1.12011
0.975229
0.846539
0.946538
0.381588
0.720917
0.516653
0.822069
0.357787
0.779624
0.550175
0.991214
1.13188
1.01409
1.35787
1.29541
1.14682
1.40808
1.17994
1.49335
1.30885
1.40323
1.26502
1.42565
1.54342
1.27344
1.37104
1.57557
1.54636
1.59592
1.89416
1.66908
1.6974
1.48518
1.7352
1.73482
1.40992
1.37428
1.49618
1.51891
1.62131
1.55097
1.93714
1.68136
2.0268
1.88736
1.83018
1.72355
2.12121
1.13757
1.38087
1.29677
1.26626
1.54129
1.36809
1.56278
1.65391
1.4694
0.537523
1.07264
0.704049
1.22115
0.488042
1.20014
0.778175
1.59788
1.75578
1.58165
1.41264
1.43172
1.32258
1.5924
1.29697
1.57406
1.43887
1.35253
1.28108
1.43092
1.37234
1.45691
1.52551
1.72188
1.90054
1.62249
1.72195
1.54057
1.66353
1.9396
1.58515
1.72356
1.75348
1.7532
1.75321
1.90735
2.12268
2.08653
1.85696
2.17187
1.92411
2.28586
2.04988
2.14818
1.90666
2.1522
2.2465
1.93444
2.08468
2.40105
2.34809
2.37087
2.77904
2.41384
2.50895
2.24425
2.61665
2.45835
2.21567
2.04762
2.23617
2.28844
2.4022
2.22855
2.70778
2.4399
2.92833
2.83006
2.61519
2.48975
3.07989
1.32741
1.59945
1.43747
1.4269
1.35642
1.71602
1.61513
1.52903
1.85117
2.16084
2.05336
1.90717
2.20627
2.08627
2.32567
2.37578
2.22695
2.36219
2.73501
2.41037
0.822167
0.862303
0.644356
1.08
0.571886
0.95351
0.923254
1.43496
0.32157
0.630636
0.462398
0.683011
0.641463
0.465991
0.319311
0.410883
0.898371
0.956483
0.642889
0.857946
0.591925
0.446224
0.640168
0.572583
0.8929
0.593675
0.718405
0.607673
1.0152
2.05607
1.04831
1.24916
1.20723
2.28148
1.0797
1.28196
2.4884
1.17997
1.65875
2.03385
3.26804
1.36521
1.98653
1.4453
1.27365
1.28124
1.62567
1.43391
1.65923
2.76339
1.60198
2.22031
2.79971
3.32505
2.52128
3.57544
3.4663
1.59327
2.14035
3.22293
3.44537
1.73339
2.79784
2.76385
1.5657
2.56193
2.66356
2.96096
2.29464
4.25101
3.33472
2.97672
4.12774
2.91526
2.52679
4.6328
3.60347
2.97541
2.322
2.8372
3.01226
1.23124
2.92405
1.27309
0.83769
0.873865
0.913982
0.910681
0.93103
0.955376
1.00631
1.02286
1.21621
1.20691
1.05573
1.06596
1.31215
1.13884
1.01312
0.944324
1.13936
1.37384
1.96842
1.12861
1.86945
1.22535
1.74046
1.22867
1.22509
1.225
1.22737
1.225
2.04145
2.3534
1.24826
1.225
1.225
0.136317
0.203064
0.301691
0.42054
0.459674
0.391194
1.33119
0.365943
0.548663
0.372222
0.570308
0.584978
0.97649
0.647025
0.97943
0.685279
1.10474
0.979944
1.8021
0.868027
1.1116
1.91413
2.3544
1.31685
1.88838
2.68431
1.22501
1.225
1.225
1.225
1.225
1.23606
1.225
1.225
1.225
1.225
1.225
1.225
1.225
1.225
1.225
1.225
1.225
1.225
1.225
1.225
1.225
1.225
1.225
1.225
1.225
1.225
1.225
1.225
0.341191
0.403085
0.320914
0.362577
0.473183
0.603516
0.457499
0.503272
0.627556
0.52746
0.404868
0.475032
0.529404
0.517343
0.528777
0.51422
0.801996
0.793364
0.756653
0.583442
0.956357
1.18612
0.858446
0.530338
0.793645
0.857102
1.03105
0.908954
0.933349
1.15335
1.30768
0.982106
0.909665
1.3162
0.520628
0.471268
0.532996
0.432836
0.501967
0.64571
0.658547
0.720683
0.777013
0.887411
1.05865
1.1165
1.20747
1.20324
1.2894
1.46632
0.359723
0.397082
0.354367
0.413607
0.407615
0.36459
0.349448
0.335918
0.378075
0.340224
0.373511
0.379492
0.433678
0.467592
0.42358
0.427699
0.384462
0.418614
0.520054
0.449773
0.518061
0.468645
0.460813
0.529888
0.508327
0.584267
0.583836
0.595642
0.572402
0.539675
0.488285
0.521022
0.587091
0.480856
0.548742
0.579816
0.603131
0.650369
0.613483
0.642491
0.355926
0.415708
0.366276
0.379793
0.341796
0.435683
0.425314
0.386197
0.585731
0.597978
0.49069
0.589135
0.551594
0.651331
0.615482
0.494587
0.431086
0.426251
0.499887
0.545592
0.524173
0.478374
0.602128
0.47369
0.599054
0.549955
0.574278
0.671512
0.579327
0.666037
0.630108
0.690147
0.79281
0.731309
0.688382
0.633664
0.727829
0.718315
0.578572
0.643992
0.657907
0.638683
0.655778
0.719936
0.786124
0.708068
0.702916
0.786663
0.817151
0.74976
0.862148
0.929119
0.749819
0.814813
0.938608
0.891037
1.00412
0.88459
1.02287
0.479928
0.603337
0.551616
0.673893
0.581305
0.690888
0.732979
0.635167
0.708581
0.785968
0.749557
0.927281
0.814512
0.998396
0.881952
0.86938
0.773369
0.765755
0.881445
0.947308
0.9089
0.839887
1.03445
0.834766
1.03266
0.95596
0.973231
1.09912
0.991318
1.07579
1.06251
1.16788
1.29418
1.19991
1.16118
1.07659
1.17954
1.23662
0.989844
1.06233
1.11866
1.0803
1.12803
1.20988
0.842539
1.03657
0.961096
1.10542
0.99907
1.173
1.20832
1.08488
1.26653
1.20107
1.1743
1.29381
0.273741
0.275345
0.313955
0.247347
0.411303
0.310475
0.351035
0.404256
0.398474
0.516088
0.447411
0.5513
0.492683
0.551419
0.50336
0.370015
0.515342
0.516691
0.793178
0.516551
0.807534
0.684664
0.567177
0.86355
0.882353
1.22942
0.992453
1.02662
0.872696
0.671754
1.02247
0.762822
1.11297
0.811206
1.128
1.13613
1.33333
1.05035
1.36228
1.24862
1.80066
1.22578
1.61013
0.847887
2.22332
2.55618
1.22766
1.22637
1.225
1.225
1.225
1.225
1.00048
0.660378
0.768379
0.785204
0.936897
0.710872
0.53711
0.571271
0.575673
0.387006
0.413443
0.534276
0.833216
0.610905
0.655697
0.623294
0.478487
0.443514
0.678218
1.21982
1.20135
1.20206
0.758909
1.10901
0.66287
0.684911
0.455888
0.736064
0.766238
0.509271
0.847611
0.299758
0.274026
0.387931
0.712132
1.08959
0.272824
0.33584
0.337553
0.386048
0.612878
0.615504
0.708205
1.00409
1.00949
0.998207
0.98207
1.12119
1.11005
1.08819
0.982971
1.10514
0.31243
0.283736
0.322454
0.453467
0.814982
1.15564
1.16156
1.05288
1.48442
0.316876
0.269127
0.311027
0.282449
0.278822
0.321
0.306857
0.300388
0.331584
0.296535
0.301817
0.381257
0.451191
0.445619
0.526112
0.606692
0.520484
0.528289
0.699928
0.808819
0.796156
0.909381
0.981214
0.891046
0.916741
0.911717
0.961522
0.881625
1.03859
0.865897
1.01884
0.925146
0.949345
1.08109
1.12994
0.978657
1.06779
0.956048
0.999681
1.06339
1.16128
1.13633
0.882538
1.03245
0.91995
1.06291
0.974255
0.940331
0.220018
0.239429
0.2473
0.296715
0.240519
0.298398
0.328963
0.343377
0.46091
0.555827
0.345337
0.55847
0.621762
0.644748
0.850075
0.913333
0.648433
0.918194
0.215507
0.235931
0.210388
0.248579
0.245169
0.218816
0.206939
0.22924
0.264621
0.292755
0.260723
0.261031
0.232638
0.257072
0.211524
0.249759
0.219978
0.265937
0.262294
0.23387
0.354755
0.3388
0.30329
0.404283
0.298997
0.398883
0.359893
0.420535
0.474646
0.549713
0.501464
0.46905
0.425918
0.495648
0.305251
0.406627
0.362215
0.476872
0.504044
0.428169
0.66039
0.636963
0.583973
0.738388
0.576928
0.72677
0.670547
0.739786
0.830619
0.893171
0.82552
0.813977
0.754204
0.808814
0.58743
0.744031
0.675642
0.837527
0.829924
0.760274
0.90103
0.546755
0.41045
0.683511
0.371432
0.61858
0.600422
0.307558
0.662571
0.451455
0.362357
0.509276
0.766903
0.491894
0.594281
0.736474
0.521061
0.624077
0.727311
0.836438
1.05163
0.36754
0.338267
0.406827
0.334303
0.399726
0.372188
0.445226
0.412618
0.504158
0.459596
0.495561
0.450689
0.501502
0.548844
0.215208
0.182662
0.196081
0.248951
0.213562
0.227732
0.236545
0.306668
0.176144
0.416483
0.510618
0.345542
0.261433
0.423866
0.229676
0.239004
0.2296
0.209349
0.190734
0.199947
0.200511
0.440378
0.405622
0.489302
0.354481
0.429746
0.394107
0.474319
0.570735
0.626888
0.562551
0.543984
0.491353
0.539499
0.594511
0.487412
0.544728
0.582981
0.537743
0.592161
0.578599
0.633639
0.233737
0.293855
0.301091
0.284075
0.33365
0.268762
0.342195
0.285738
0.239494
0.24978
0.222486
0.233543
0.268647
0.257429
0.255232
0.281345
0.28738
0.223553
0.245653
0.215535
0.251882
0.676477
0.682622
0.737795
0.59092
0.636694
0.643594
0.691779
0.367619
0.443534
0.443147
0.495309
0.411242
0.413864
0.494766
1.70622
1.10214
1.25879
0.654853
1.22362
0.818337
1.27737
0.518115
0.586521
0.59382
0.576133
0.647183
0.573309
0.657374
0.283603
0.244232
0.305118
0.289593
0.25928
0.318335
0.270903
0.272381
0.260463
0.314131
0.30782
0.355902
0.298104
0.349469
0.554182
0.653444
0.618264
0.676366
0.621372
0.67315
0.717079
0.289421
0.299485
0.309765
0.252925
0.262826
0.272399
0.262623
0.156114
0.177044
0.198533
0.143524
0.164418
0.208249
0.185912
0.36111
0.491342
0.439046
0.438035
0.40526
0.487296
0.534805
0.430029
0.619269
0.796951
0.659138
1.23316
0.856483
0.533588
0.661996
0.704956
0.725664
0.796722
0.710454
0.729412
0.7714
0.333461
0.390338
0.393443
0.344566
0.348966
0.288462
0.293618
0.582076
0.563003
0.504629
0.552395
0.686977
0.616291
0.607158
0.324461
0.355029
0.365754
0.305588
0.332347
0.343904
0.29431
0.321328
0.336111
0.373135
0.425194
0.303262
0.358216
0.38381
0.463684
0.539674
0.543793
0.484636
0.410588
0.489469
0.414692
0.773714
0.843268
0.792006
0.718561
0.679406
0.737212
0.781304
0.32936
0.282461
0.29049
0.320163
0.326039
0.361884
0.367773
0.368737
0.441076
0.439279
0.416424
0.491171
0.493523
0.415285
0.449048
0.594509
0.540727
0.471575
0.433289
0.521632
0.571996
0.281472
0.280652
0.30139
0.219653
0.240811
0.255548
0.233621
1.48988
1.19513
0.895994
1.46047
0.942786
1.22387
1.62127
0.514866
0.596077
0.59697
0.660856
0.572393
0.5749
0.66058
0.714933
0.629122
0.702723
0.63822
0.562122
0.649397
0.569307
0.686151
0.691434
0.621179
0.594094
0.728314
0.656819
0.654636
0.617287
0.751803
0.657344
0.808117
0.670775
0.706767
0.816206
1.45162
1.49855
1.4093
0.841894
1.51324
1.0419
2.00608
0.212149
0.354098
0.258164
0.330811
0.223538
0.269515
0.373835
0.387019
0.328352
0.338827
0.318207
0.345652
0.352655
0.372317
0.445427
0.393761
0.399751
0.337278
0.436254
0.377376
0.392462
0.549974
0.457318
0.509598
0.604607
0.461397
0.548573
0.607045
0.678825
0.742612
0.757508
0.748445
0.832871
0.816866
0.741351
0.789176
0.817351
0.851544
0.864957
0.893541
0.833372
0.933662
0.905315
0.751901
0.811967
0.791837
0.708339
0.761559
0.855529
0.698237
0.75072
0.767973
0.758537
0.779918
0.88121
0.877412
0.32949
0.339722
0.351426
0.37318
0.387134
0.383629
0.397619
0.638383
0.70107
0.715409
0.806321
0.634576
0.705307
0.727792
0.335342
0.452607
0.357592
0.393678
0.299734
0.315922
0.416972
0.376037
0.438757
0.440671
0.490742
0.418152
0.42138
0.489923
0.871909
0.79703
0.779189
0.772894
0.790944
0.708968
0.724568
0.872567
0.896957
0.96637
0.760081
0.815479
0.833913
0.910168
0.517936
0.625226
0.632653
0.213105
0.478915
0.547851
0.375624
0.803521
0.884424
0.728989
0.756878
0.969048
0.884612
0.817212
0.4297
0.366773
0.481751
0.465768
0.395604
0.39425
0.50554
0.948749
0.98317
0.880888
0.784399
0.897901
0.807101
0.850835
0.155097
0.201022
0.177615
0.219373
0.211242
0.236001
0.195954
0.372025
0.45339
0.407507
0.406269
0.460714
0.418852
0.412529
0.444925
0.409553
0.45652
0.424265
0.371219
0.383309
0.411432
0.563165
0.472274
0.591373
0.482416
0.511397
0.652442
0.661008
0.515866
0.5983
0.601518
0.571182
0.660853
0.570821
0.662428
0.464972
0.603465
0.545911
0.548577
0.513099
0.463547
0.60618
0.906351
0.879819
0.832586
0.996904
0.914491
0.890905
0.966916
0.976231
0.931648
0.872019
0.813099
0.995539
0.920708
0.867572
0.925098
0.971614
0.910248
1.07824
0.953288
1.00167
1.02509
0.323303
0.301177
0.322092
0.270303
0.263724
0.287936
0.247348
0.686768
0.795832
0.699476
0.961294
0.813072
0.803238
0.936652
0.574376
0.650406
0.708434
0.509033
0.625942
0.546705
0.684986
0.784053
0.69233
0.771306
0.858044
0.753589
0.759283
0.845909
0.438481
0.542179
0.485814
0.459703
0.48046
0.418063
0.525283
0.70017
0.730562
0.633986
0.637309
0.809709
0.704148
0.731363
0.975444
0.914851
0.938408
0.880356
0.829231
0.84784
0.897362
0.366986
0.274461
0.242539
0.283307
0.433306
0.304517
0.398378
0.384821
0.462078
0.445359
0.422736
0.35516
0.373485
0.406963
1.02863
1.16514
1.07068
0.956432
0.988713
0.919585
1.0349
1.2884
1.05729
1.10558
0.898667
0.880612
1.0702
1.03123
0.504769
0.472267
0.437508
0.431299
0.483541
0.448448
0.493163
0.726981
0.593112
0.557761
0.6625
0.60569
0.721971
0.666115
0.543401
0.46659
0.520072
0.600213
0.469349
0.543837
0.598468
1.00816
0.915797
0.8267
0.919948
0.903929
0.911511
0.820581
1.57937
1.03021
1.544
1.04935
1.05352
1.56592
2.1018
0.403876
0.480583
0.379393
0.332133
0.468645
0.351835
0.440615
0.962606
0.758385
0.838471
0.821831
0.729971
0.816931
0.940492
0.88535
0.989029
0.974901
1.09412
1.06462
1.2113
1.19148
1.40768
1.5472
2.2889
1.99025
2.38571
2.41135
1.47774
1.67595
2.42619
1.54624
1.67306
1.58492
1.56119
2.57238
1.03366
0.95442
1.15372
0.836464
0.935095
1.00599
1.13503
0.90671
1.08676
0.904189
1.28526
1.05895
1.03602
1.26432
0.958355
0.873484
0.854041
1.05304
1.02576
0.956188
0.936208
1.01314
0.978676
0.946306
1.08127
1.16991
1.12633
1.0438
1.21802
1.05275
1.03664
0.946261
1.06423
0.900224
1.02952
0.526265
0.455757
0.557067
0.512773
0.508153
0.469983
0.569893
0.455366
0.505117
0.588744
0.4657
0.515496
0.424109
0.545624
1.14475
1.00022
1.09322
1.09734
0.93968
1.04724
1.25087
1.07855
1.02797
1.19537
0.905439
0.989256
1.05803
1.17838
1.51993
0.989762
1.03753
1.35859
0.788099
0.711175
1.39561
0.629271
0.694558
0.728269
0.796279
0.630762
0.69
0.727146
0.501464
0.563858
0.550347
0.494849
0.507125
0.467716
0.454112
0.621106
0.66334
0.725916
0.727445
0.563354
0.614397
0.665789
0.984018
0.993034
0.85547
0.773501
0.894369
0.852101
0.777645
1.23887
1.10465
1.20678
1.10381
1.01083
0.98613
1.07269
0.547036
0.617906
0.559589
0.854268
0.750706
0.742177
0.830345
0.240703
0.238445
0.264804
0.273137
0.303141
0.31541
0.287259
2.30615
2.0287
1.48187
2.11063
1.51913
2.52338
2.15275
1.09493
1.0001
1.145
1.0492
1.17658
1.11945
1.29911
1.08467
1.18597
1.07108
1.41775
1.31578
1.32478
1.47277
0.83688
0.932615
0.930572
0.985211
0.988086
1.11045
1.10023
1.79449
1.53544
1.59946
1.55774
1.8108
2.49434
2.15865
1.20886
1.39755
1.26962
1.21503
1.06249
1.11712
1.15509
1.10949
1.05396
1.03632
0.989478
0.930363
0.996066
0.942253
0.835706
0.615293
0.769288
0.633683
0.586889
0.751708
0.82675
0.351846
0.393243
0.416909
0.288027
0.31324
0.35419
0.328329
1.10803
1.12909
1.07223
1.22993
1.26316
1.10891
1.00452
1.08343
1.00933
1.03735
1.14787
1.24155
1.11591
1.20854
0.590488
0.633749
0.621502
0.566049
0.528139
0.540136
0.553923
1.02735
0.913935
0.939104
0.828764
0.911414
0.831365
0.92992
0.592793
0.622839
0.653388
0.594823
0.536363
0.503236
0.571804
1.11923
1.32426
1.48115
1.18701
1.07917
1.31165
1.4729
0.322869
0.483204
0.340172
0.556587
0.392028
0.397814
0.55196
0.719111
0.626944
0.573936
0.659124
0.632905
0.722184
0.656169
0.848143
0.857653
0.706546
0.790213
0.637648
0.654369
0.783276
1.5644
1.49091
1.46276
1.47298
1.27691
1.24435
1.51447
1.23206
1.28405
1.08303
1.21284
1.05854
1.28463
1.45067
0.420812
0.509022
0.490636
0.567128
0.469096
0.490589
0.548043
1.10405
1.14937
0.955526
0.923658
1.30075
1.05651
1.10683
0.435304
0.599828
0.479686
0.507513
0.380651
0.426974
0.565364
0.134595
0.145616
0.147194
0.129508
0.141624
0.129335
0.149795
0.146751
0.132668
0.125635
0.130781
0.150789
0.133774