/*--------------------------------*- C++ -*----------------------------------*\
  =========                 |
  \\      /  F ield         | OpenFOAM: The Open Source CFD Toolbox
   \\    /   O peration     | Website:  https://openfoam.org
    \\  /    A nd           | Version:  9
     \\/     M anipulation  |
\*---------------------------------------------------------------------------*/
FoamFile
{
    format      ascii;
    class       volScalarField;
    location    "0.00265";
    object      overpressureMax;
}
// * * * * * * * * * * * * * * * * * * * * * * * * * * * * * * * * * * * * * //

dimensions      [1 -1 -2 0 0 0 0];

internalField   nonuniform List<scalar> 
22021
(
227286
281624
250156
146023
164753
229243
150010
175792
194231
177725
214415
73734.4
285519
294550
193484
204586
300435
329727
220450
238287
340973
137152
222336
211508
159505
236418
418595
432357
261268
287825
421045
432150
264240
416526
290784
430134
274261
430982
268729
414865
418689
431693
282356
309197
415314
435430
293534
420436
319249
437522
316224
436667
305389
422397
425995
424422
330100
317957
429487
352333
354202
347978
240573
89788.5
219633
202775
339776
165867
302869
264162
261562
217379
144499
178210
180810
175093
181085
208033
628377
303688
530573
302011
394132
246067
319324
152315
209224
240006
496245
418345
596541
495525
390769
389717
304498
384126
491697
346467
437465
425345
335096
372530
266458
354776
384529
299299
344267
249743
272684
304018
173911
257125
387886
342379
214737
221316
294217
161850
197745
210320
116542
172280
324687
406533
229136
302745
404856
228537
326219
312347
393719
225368
295385
316095
385925
224369
257031
330156
203091
223035
275932
301659
189799
172837
212413
141714
135049
192875
187996
126993
274327
167157
278156
219950
206807
198562
169035
227799
194490
579427
898792
504837
492471
894013
502463
580158
579648
492611
888245
499594
885714
500403
582578
321017
303139
398226
225440
401163
225841
318066
574461
888439
496221
479831
582789
872584
489621
553363
457371
776777
447490
834165
473413
520229
304186
283067
354274
213456
372709
220612
291806
428561
702952
411759
338630
477485
620811
370220
378152
292228
463456
285495
538846
326891
330151
236213
198232
240519
157838
270951
174327
214312
503702
475517
419061
378273
534345
457134
396251
704522
676735
811527
592754
449641
362832
389865
310771
428608
357007
382704
630222
476912
534012
558929
253791
399928
248730
189307
287751
353219
218646
232181
172390
294846
183734
322020
196297
220286
155931
122202
156692
112403
167990
115964
145560
291965
179401
187871
327370
200396
244098
225438
209424
90105.2
211432
213906
163238
207246
15680.7
206664
182532
239081
184251
185585
209315
185744
2.21866
267607
83342.5
539095
513931
482442
301164
290096
316123
364551
343407
320537
336045
252431
272034
407696
294504
323910
293931
427930
396380
279911
533447
385681
284083
438526
417054
529453
361743
299131
372253
292482
405237
390991
354269
294426
430318
395724
353051
276244
389099
363165
357956
268928
355291
261094
387806
385642
360285
278808
300743
386736
362357
290545
385276
309931
362205
310793
363228
301771
384551
395220
363449
319717
327525
388281
367292
334891
376891
342035
299747
315280
358379
354465
278437
508284
450838
445455
350079
529714
433509
427750
483453
346573
388839
383968
413683
408035
452769
253097
220776
192944
242423
194569
269424
230467
336444
347861
271022
403256
307519
358893
314678
320187
225565
227169
271088
320964
298210
285416
114890
14676.3
114407
5082.57
112456
248.726
67720.1
17.4665
145788
3072.63
0.0571782
0.287403
166862
235504
166170
232393
31365.2
54359.2
32354.2
51651.9
165998
224774
163521
211191
32915.9
43357.7
159624
232867
137340
202644
126203
158649
35125.6
46279.3
117742
30488.5
180713
57318.6
189650
71746.3
127824
114438
187153
71145.6
126065
181929
67354.3
123920
114058
173672
78586
121695
163156
64762
21566.6
95741.2
118490
18610.3
1539.45
13096.7
1608.88
72.2481
4721.99
811.298
161.542
2.1981
117174
24202.2
4813.21
89889.7
1732.49
260899
187011
207908
166466
186708
206957
262099
257613
166146
187684
201638
186412
204494
254420
39357.9
22699.6
54439.6
31307.1
22651.3
54418.7
39403.6
39483.5
31676.9
23350.6
54848.4
22931.4
54529.2
39406.8
249039
188826
198745
165910
251613
189224
196326
244637
165428
185449
189627
188517
193745
237152
36294.6
23737.2
55036.6
33406.4
38489.9
23631.2
55134.1
213587
179376
183315
153592
226818
170488
174827
198210
145935
147647
153287
159644
164532
181802
149717
135440
141056
98566
165427
123581
112982
131149
62409.8
90335.7
32112.8
110094
68889
102179
142944
118288
105158
157256
101007
162268
140567
108980
82561.6
38627.6
27274.5
87277.8
96375.2
40570.8
157615
95611.2
114467
156897
95486.3
122517
122843
151711
94170.1
114449
150062
93614.5
118882
119845
142387
90678.8
109531
137022
87076
111341
114482
88348.2
13645.7
32311.2
39762.6
4192.55
5008.34
19405.8
161147
129284
162056
138767
140600
129481
165486
61.8777
35.7269
2.2666
173.129
5.45195
2.10684
0.616781
85187.1
1856.31
1994.09
2.58748
114287
153564
94665.4
155314
94981.5
121625
120810
114528
146144
92119.3
148489
93004.3
117907
116575
105229
121042
39063.3
130265
70958.9
97617.4
59165.1
11664.1
4220.62
571.987
12285.9
1429.03
1477.18
500.459
86473.6
15406.5
15620.6
77326.1
79685.7
51738.3
6879.12
80861.2
253.807
328.836
10936.6
72859.5
178.607
220.863
49687.5
73.0063
78.3169
1503.53
1720.49
17.5941
15.265
203.808
3.3216
2.47322
23.4172
13.6327
1.52893
1.11055
2.0126
0.310122
0.28808
1.33661
0.744996
0.0992155
0.0654172
0.845216
0.38937
0.0364755
0.0124
147.871
199540
130366
183396
7552.61
185163
223704
133160
40124.5
177868
15557.6
224043
270150
319243
279333
189946
181174
142503
3535.38
0.190461
848.312
41783.6
472.048
165787
134687
26287.9
187720
162968
132562
12199.6
160398
130256
6271.02
178442
136725
123095
1002.02
47367.1
8804.37
80.4104
73617.2
432.724
519.739
1.96879
14.5871
21.1403
2.55131
186.632
2.92796
2.43923
0.582667
2.19385
40424.1
4086.81
53.1487
34.9088
153.472
6.95629
23.3083
1.60169
0.361591
0.0441407
0.0025507
0.0498094
0.00223002
0.0161305
0.000841166
0.00465664
0.00020023
0.000478848
1.65904e-05
0.000119122
4.06585e-06
0.0101913
0.000500291
2.1536e-05
7.55448e-07
462.614
131.07
11.1968
0.319611
20.8516
0.024059
0.00119859
5.83365e-05
2.51854e-06
9.08767e-08
681926
650653
677853
682164
711539
602174
610463
628543
585631
0.0267141
0.0133795
0.000676167
0.004789
0.00029316
0.00182711
6.61142e-05
0.000289789
1.04141e-05
6.63681e-05
2.46851e-06
1.09406
0.0356851
0.0242216
0.00624358
0.00143369
402013
19371.2
17919.3
209288
253693
67789
238053
151152
726.694
91.3602
0.299825
457727
463660
478674
467999
450389
405061
358265
225369
28927.1
373.361
257951
270884
182641
169961
231957
176143
237890
215113
175698
1.09468e+06
735052
1.11111e+06
900802
595222
881890
1.51674e+06
1.10625e+06
1.29104e+06
1.02048e+06
1.50247e+06
1.03928e+06
1.29469e+06
3.10017e+06
2.75979e+06
3.07522e+06
2.74875e+06
1.51935e+06
914053
1.0025e+06
1.27102e+06
1.02032e+06
1.29062e+06
1.4933e+06
3.05669e+06
2.5169e+06
2.67072e+06
2.92317e+06
1.37135e+06
973479
1.23648e+06
853722
1.4426e+06
933937
1.18539e+06
2.50758e+06
2.32662e+06
2.73575e+06
2.10992e+06
1.28864e+06
1.10278e+06
747933
655619
344846
924840
1.17487e+06
834674
772841
754255
490764
412947
688044
392681
497509
1.03498e+06
1.25314e+06
1.1132e+06
1.2553e+06
1.22474e+06
1.08091e+06
1.06523e+06
884510
1.06406e+06
1.05404e+06
1.00649e+06
947591
965608
1.05266e+06
777312
613891
1.00747e+06
734420
802318
613699
972882
635774
571898
825447
616471
679660
543123
763682
304380
237997
914848
1.1413e+06
779293
902440
1.11344e+06
758380
942815
2.38575e+06
2.73972e+06
2.66973e+06
2.44091e+06
2.02324e+06
1.65233e+06
1.62946e+06
2.06054e+06
1.00786e+06
1.22561e+06
1.1395e+06
1.05793e+06
1.19509e+06
1.06028e+06
983369
887256
878595
1.02801e+06
713799
1.08371e+06
738450
854966
2.30689e+06
2.54024e+06
2.58472e+06
2.27063e+06
1.95946e+06
1.57601e+06
1.59021e+06
1.92712e+06
748184
953757
673368
692025
810948
857607
621053
2.21711e+06
2.53976e+06
2.26885e+06
2.49695e+06
1.875e+06
1.56953e+06
1.9208e+06
1.53262e+06
844321
880513
695489
1.02961e+06
835564
1.04494e+06
822761
693998
591517
606869
563958
733515
591125
661474
2.09404e+06
2.20433e+06
2.38122e+06
1.9224e+06
1.76907e+06
1.34104e+06
1.45309e+06
1.62364e+06
606152
508083
531267
388787
632897
490785
497736
1.52102e+06
2.00066e+06
1.72805e+06
1.77999e+06
1.27906e+06
1.20679e+06
1.45691e+06
1.06115e+06
748334
714529
593062
880922
606831
930235
716330
581687
393231
486585
439986
491636
466326
558390
1.3201e+06
1.3693e+06
1.56507e+06
1.1373e+06
1.10535e+06
786958
917572
947057
850506
1.19996e+06
980201
1.05782e+06
565198
565053
449570
563401
502874
675913
473963
741579
742975
901272
653916
249444
424254
225504
202024
376783
222993
274299
1.70658e+06
1.64437e+06
1.28225e+06
852903
724453
1.41534e+06
1.48308e+06
1.09372e+06
730851
602935
497853
479435
475099
1.81506e+06
1.05785e+06
1.08159e+06
1.54973e+06
966250
879776
521846
451559
378608
1.69353e+06
1.6189e+06
1.61235e+06
1.70627e+06
1.63442e+06
1.45722e+06
1.56417e+06
1.51302e+06
1.07454e+06
1.27025e+06
1.31771e+06
1.03304e+06
864939
832049
642971
1.48785e+06
1.27575e+06
1.31668e+06
1.06239e+06
1.26602e+06
1.29562e+06
1.50206e+06
1.44657e+06
1.03142e+06
1.14445e+06
1.18664e+06
1.22649e+06
1.26311e+06
1.35236e+06
1.02837e+06
1.01894e+06
1.08772e+06
765767
1.21525e+06
857408
954576
833055
633835
577505
645062
693218
789465
688377
580806
522002
552998
414792
616266
493736
505972
563222
393765
465559
462306
479010
480113
547474
10809
1.06802
1.38035
0.0279536
0.0844426
118513
2478.78
36799.2
761.122
31.6953
24.8326
0.603111
0.0171871
0.0574544
0.00892995
0.688075
0.0228898
0.0581682
695628
1.2944e+06
483413
194993
26404.3
1745.42
99.3139
1.04777
0.164471
667188
1.30346e+06
491071
194462
23865.8
569.231
2.25583
0.399868
0.0874331
600618
935933
466408
190192
12127.2
23.4669
0.0524163
0.0222506
0.0263516
484574
750032
392921
174758
746.875
1.09301
0.333122
0.0122119
0.00150351
232737
379678
291689
201340
9.52611
4940.16
0.0340729
0.270581
28219.2
249133
10.3495
107127
0.085829
1.06392
1.37968e+06
1.3965e+06
1.32178e+06
1.44509e+06
1.32233e+06
755791
679104
1.31856e+06
748508
1.2854e+06
1.30212e+06
1.17773e+06
330887
482163
329200
32436.5
134253
57927.2
194701
33576.8
134189
50055.1
2277.26
19694.6
1123.79
25071
1567.32
13685.3
323.663
1.21368e+06
929833
1.31435e+06
761449
623378
1.08605e+06
766358
1.06638e+06
328226
490732
324805
34211.3
134233
43520.5
193000
35667
129459
15189
1201.78
10375.8
156.723
15967.4
324.819
2416.83
22.4811
653284
533559
554907
959913
825598
556679
716616
734673
802058
777976
316441
421742
296138
34285.3
86398.3
7660.71
183130
14190.9
11730.4
299.37
169.435
1143.91
4.66335
2030.86
9.65071
41.5467
2.85751
486855
537974
454301
467692
675409
618799
398975
489392
383918
733052
543318
544645
291876
318591
105404
6721.89
385.968
72.4114
1156.73
318.277
7.79605
2.01292
3.30381
9.84234
1.04649
374.357
701.284
4.17868
3.37482
191647
50816.3
33902.8
87218.5
271589
108.992
3193.49
153697
45466.8
55233.5
290293
242677
5558.12
89058.9
500235
158842
490868
158273
449357
93723.8
369149
5.02075
19524
2.66259
526512
531448
626563
449051
375963
498828
623484
446486
372426
548816
556772
620530
388990
365643
473971
603819
419253
356131
528856
484290
538932
352548
341533
412706
477074
362412
315696
427038
370079
410157
255753
311295
292714
342730
1030.84
79600.2
1.65656e+06
1.2141e+06
1.64688e+06
1.27184e+06
1.18287e+06
1.63801e+06
1.66007e+06
480946
599065
594546
322060
446380
443854
322988
12663.5
12024.3
36649.8
26125.4
11588
36157.2
13279.1
1.66159e+06
1.15492e+06
1.62993e+06
1.26755e+06
1.64426e+06
1.10753e+06
1.64294e+06
604290
492993
606498
343405
459892
337812
462417
6095.5
8403.97
31974.7
22024.5
8031.24
6699.94
28341.7
1.48647e+06
1.00428e+06
1.55331e+06
897938
1.57415e+06
960222
1.46164e+06
445873
571762
544084
322948
430890
335393
406916
845.479
2139.67
11293.4
8109.09
1646.17
1199.02
6325.74
1.0378e+06
793270
1.11933e+06
694660
1.15232e+06
734157
1.00555e+06
337802
433648
366884
247152
317447
267947
286595
9.52133
72.4548
364.866
205.893
35.9516
21.5555
88.65
199863
277463
325094
386202
335462
313738
307960
362357
364284
356547
332361
290223
322984
259736
225946
194300
155608
291466
153150
283655
229544
0.564245
0.933505
384.125
3353.4
2.65683
247.83
0.850508
7932.43
3.55615
77.5715
443.652
1169.22
1.02742
1.6174
1.13374e+06
1.20439e+06
1.39755e+06
1.30015e+06
1.17942e+06
1.39401e+06
1.13687e+06
750198
858216
853289
1.40696e+06
756397
749173
1.42333e+06
2.74151e+06
3.41679e+06
3.35469e+06
2.78743e+06
1.13307e+06
1.29899e+06
1.1769e+06
1.3961e+06
1.17156e+06
1.39286e+06
1.13369e+06
851734
753981
856579
1.38525e+06
748255
744874
1.37223e+06
2.68055e+06
3.26421e+06
3.28961e+06
2.64227e+06
1.51346e+06
1.24769e+06
1.29291e+06
1.24737e+06
1.20657e+06
1.30246e+06
1.50894e+06
3.56867e+06
3.77644e+06
3.70378e+06
3.63406e+06
3.18643e+06
2.94757e+06
2.88584e+06
3.23766e+06
1.64155e+06
1.27637e+06
1.17293e+06
1.62421e+06
1.17278e+06
1.62658e+06
1.63727e+06
1.50315e+06
1.22038e+06
1.15588e+06
1.29329e+06
1.18329e+06
1.29663e+06
1.49879e+06
3.47396e+06
3.57348e+06
3.61038e+06
3.42705e+06
3.10216e+06
2.75417e+06
2.80301e+06
3.0546e+06
329666
404401
402721
273130
251044
250898
273385
594640
486786
599438
323309
453750
446194
329901
402113
329102
402794
276918
257290
253468
283613
80745.1
49370.4
57025.2
32451.4
49352.9
57087.7
80686.1
81410.4
32943.7
51658.1
58265
50301.4
57581.8
82383.5
2359.83
2834.97
1977.53
2140.79
2671.92
1851.92
2510.71
11555.9
25772.3
9807.53
34276.6
10868
35474.4
9915.4
2085.71
1894.48
2005.44
1308.24
2384.52
1617.25
1726.95
1.13738e+06
1.15381e+06
1.40093e+06
1.272e+06
1.13456e+06
1.10034e+06
1.40916e+06
866307
767963
875569
1.38612e+06
754464
1.37635e+06
756384
2.6492e+06
3.28522e+06
2.64104e+06
3.31663e+06
1.1377e+06
1.19193e+06
929331
1.3829e+06
1.02519e+06
1.40973e+06
1.1228e+06
874152
856753
752080
1.38179e+06
731457
749888
1.35206e+06
2.62502e+06
3.17345e+06
3.28698e+06
2.54336e+06
3.48615e+06
3.59804e+06
3.44922e+06
3.63829e+06
1.66542e+06
1.18563e+06
1.03825e+06
1.61694e+06
1.06146e+06
1.64528e+06
1.63653e+06
3.44995e+06
3.48532e+06
3.60709e+06
3.32359e+06
403564
326812
403589
294771
260431
289883
262881
602170
481801
590197
345614
448885
459692
343141
321763
401991
397506
298063
265678
264880
298536
84112
52919.2
58982.6
34776.1
83309.7
54108.3
59408.7
84709.6
35283.4
56232.3
54667
55234.6
58346.4
85074.8
968.112
1580.7
973.603
850.487
1339.17
1169.3
662.885
4303.81
19378.6
3405.73
17663.4
4952.76
23470.6
2808.24
646.431
551.79
518.615
227.113
810.724
410.129
393.222
1.03831e+06
819588
1.33042e+06
824431
1.08867e+06
704540
1.25662e+06
783962
724942
687691
1.21322e+06
699904
1.29314e+06
656926
2.21146e+06
2.97913e+06
2.39893e+06
2.72747e+06
977149
753144
623399
1.07683e+06
650063
1.16967e+06
907667
679296
642554
591852
1.12073e+06
548872
605494
1.01904e+06
2.00414e+06
2.17213e+06
2.45028e+06
1.7913e+06
2.86455e+06
3.27271e+06
3.11985e+06
2.99817e+06
1.38171e+06
851876
851051
1.23555e+06
907819
1.35189e+06
1.26761e+06
1.28592e+06
818926
836611
1.05082e+06
887520
1.12247e+06
1.19048e+06
2.57836e+06
2.38328e+06
2.69067e+06
2.28745e+06
2.26018e+06
1.67812e+06
1.88951e+06
2.01202e+06
307948
388521
375138
288171
264022
295327
259206
510456
473179
395085
306763
348588
378832
288030
281811
357686
337196
277694
241691
251688
264721
84858.2
56937.2
47524.8
30754.4
85181.1
57236.8
35565.1
77134.8
23201.1
55730.6
9925.86
57397.6
21499.3
55229.7
100.02
298.611
110.049
76.7771
212.732
150.719
46.0848
366.008
4401.86
230.703
1197.24
577.344
3057.59
128.631
39.8373
29.1646
22.5486
5.3622
63.9811
16.6993
12.9771
753384
590853
980879
626889
832287
550101
883441
556746
483766
538055
805879
490287
911629
433419
1.38346e+06
1.90305e+06
1.58074e+06
1.65656e+06
666911
566779
439801
648655
500435
776554
563132
442853
497919
431377
704519
331062
379570
603620
1.1931e+06
1.17296e+06
1.41758e+06
996723
988540
782952
972560
684111
1.09033e+06
727853
890095
1.7512e+06
2.08779e+06
2.00636e+06
1.81935e+06
1.56e+06
1.4835e+06
1.77625e+06
1.31005e+06
912430
630078
575932
737770
667330
883326
761393
871922
624454
575321
656197
663227
787018
727110
1.4944e+06
1.29097e+06
1.55469e+06
1.23546e+06
1.33214e+06
914402
1.11778e+06
1.09838e+06
247835
265477
315073
233534
229920
249779
216891
353057
283704
308457
226983
232976
256841
213877
234272
267993
207316
216917
91118.3
176929
195417
7612.6
45254.8
3393.25
2220.32
26348.7
23139
872.345
1530.05
522.623
1166.17
94.4863
6041.24
181.358
299.625
2.3441
6.81654
1.8215
5.01406
3.65765
4.96185
2.45823
14.9696
68.8623
494.115
106.531
39.9923
25.3923
146.055
18.7768
57.8428
613.825
232.027
48.2927
23.6319
192.635
223023
191834
154967
276671
166237
266186
224777
118366
118517
23300.2
31745.5
110102
145866
18198.3
210747
174707
127041
223377
142233
257272
188812
169525
126443
52934.2
45579.8
129775
163981
55573.9
163343
114664
55761
61388.4
124764
150523
60430.7
6879.47
2335.12
0.599304
3932.38
4.06211
0.179348
710.737
0.18737
0.0508485
18.5264
0.511991
0.00679065
139293
8202.31
0.359654
108152
1.27789
8740.96
4993.38
6973.68
3849.88
1253.82
34231.4
4796.12
21572.8
34353
16.3379
30924.5
54.3672
23010.3
2.97833
6405.24
11406.8
2.96723
608.451
747.018
846.31
3.96509
60.7066
51930.4
215445
74296.1
21830.6
16659.9
6744.36
6514.33
16261.8
6330.16
22480
12846.2
13502.9
3497.32
2891.21
16322.7
11563
2495.74
1675.05
4214.2
511.384
354.473
3362.09
2393.8
230.514
30.5557
164.732
9.93927
11.0057
83.4833
63.6329
5.48545
151166
126648
113247
194700
103175
175054
166932
3972.69
85.9891
48.3021
1103.83
775.189
1.96648
4.53812
20729
5890.91
14868.7
4579.53
15707.2
5584.26
18962.7
9038.04
1987.8
6713.53
975.584
9251.96
1641.76
5832.79
32281.7
33874.1
20848.3
54999.2
22722.7
55143.6
25955.6
10544.1
16945
52133.4
34199
18065.5
12016.4
42181.4
699.082
150.161
471.952
29.813
1164.79
88.3511
250.241
4938.13
31722.3
3599.8
12024.9
7413.93
26491.7
1914.74
222.357
1415.6
4303.35
4270.28
655.786
499.813
1430.01
32.6793
65.8525
658.416
252.925
74.0422
27.4698
228.692
93.1281
1564.73
564.472
283.85
221.375
515.046
199.79
120877
103179
45786.5
58536.6
93083.7
135302
51217.6
668397
301150
367370
582272
335541
393475
439881
734545
347154
395959
706840
384365
470343
481790
288960
506431
252215
300430
617064
343270
420629
194798
254018
253086
147354
178997
179046
147407
1276.43
73896.5
68348.5
26907.7
78.6051
17765
41.2157
5.36863
4.069
71.2675
5409.07
18.7231
3257.89
11.2636
193794
251861
250669
149249
184997
148966
186585
32249.3
154.529
63372.9
12811.3
26.2721
2394.65
3.93424
30.4556
0.79545
7.83072
2263.44
6.98399
396.17
4.14003
187402
244162
239033
146656
188041
148451
185609
1183.27
1.13201
968.835
1058.87
2.11868
33.1829
1.20738
0.555789
0.203515
2.14533
169.262
1.03654
5.10324
0.294274
51599.3
135729
211001
31473.5
168691
90793.4
132519
0.0960384
0.549666
29.461
7.64257
0.282757
0.603298
0.0411036
0.0197181
0.0118029
0.129565
0.605576
0.0490232
0.355735
0.0152329
307802
201436
266116
228089
266308
230310
283482
6391.34
454.831
4394.7
619.991
5819.42
534.459
381.981
631.321
219795
61759.9
261835
254048
170138
2084.17
223451
82122.7
214160
274174
274775
198458
4134.22
0.817469
1183.41
2.08224
166033
381.017
12.7721
1.19313
2069.86
20973.5
3.44023
203248
710.973
107.265
1.22381
252732
194791
252603
147786
182994
180603
148487
191866
249200
247318
149409
188613
187943
149223
176129
231584
222155
143528
175759
181445
132465
13294.8
78239.4
8252.32
5891.95
11227.1
58153
994.021
4584.01
23801.7
145649
91096.3
28691.8
143541
9892.42
158504
235846
234198
344817
201941
342294
199918
153523
231622
227036
335452
197213
323101
169894
7080.75
221550
211808
307047
67596.6
285387
3745.91
729.92
140.907
179390
106484
74.4014
105.985
0.629371
25.1132
130091
16202.7
21315.7
63.239
53.975
1.97397
0.195736
0.489118
127.664
8.96604
0.291375
0.495406
0.0387876
355042
381951
347757
456310
329225
354745
328826
178.991
2118.44
2639.2
228.922
836.804
67.1713
31.1563
2245.09
299.459
2888.32
207.008
1611.12
132.426
241.542
823.436
909.102
8316.9
7552.12
780.879
7050.09
692.054
5.46409
4.23884
1753.93
6214.44
115.262
4558.41
81.2843
835.75
2.35353
244.484
2119.07
33.2788
605.565
8.70487
1.93372
0.721883
3.77526
101.542
2.52097
11.0557
0.681829
0.0335951
0.0625093
0.633558
7.17784
0.286817
1.35586
0.0907722
885.67
966.497
8468.16
7362.86
857.853
7123.27
785.083
2472.66
2552.07
306.932
5647.52
463.461
3308.31
660.209
5272.11
583.824
360.567
1.00447
1.57477e+06
1.31025e+06
639339
563929
470303
265378
2.83338e+06
506102
1.44798e+06
2.72871e+06
503069
1.4595e+06
1.51322e+06
2.30466e+06
322339
1.44924e+06
1.63827e+06
352790
1.15102e+06
715462
800048
369902
990057
737096
379444
638077
609975
678169
703583
382255
591246
316938
503201
654341
549448
212445
323550
328743
336275
343697
360430
391924
357670
360609
414436
426359
365378
364167
431649
341124
345752
326159
2.90367e+06
1.82817e+06
1.82178e+06
2.57874e+06
1.77872e+06
1.76493e+06
2.64167e+06
500281
299494
298582
637962
856756
840251
647172
2.82648e+06
1.85141e+06
1.83883e+06
2.56172e+06
1.81866e+06
1.801e+06
2.53257e+06
305151
311949
510167
640409
834648
834885
648183
2.54466e+06
1.54666e+06
1.73631e+06
2.22334e+06
1.76596e+06
2.40726e+06
1.6318e+06
338670
510199
495208
605394
819934
638694
784019
1.99159e+06
1.06171e+06
1.29963e+06
1.98221e+06
1.19657e+06
1.42738e+06
1.68631e+06
363123
465569
426377
550531
653935
729334
479882
1.1984e+06
1.35582e+06
886941
1.18196e+06
989545
1.39102e+06
849869
375060
378948
358503
342411
563571
401865
474988
757754
1.04415e+06
1.10262e+06
1.05645e+06
737546
776715
977438
381651
362469
363493
347477
402515
404808
350077
722636
941842
996370
871486
714756
921239
693238
375692
360380
353354
345621
394639
348259
379251
223933
346677
325734
305506
338568
361271
217851
323107
320437
327021
335979
347853
338730
375809
347375
347157
405162
336298
338678
421173
343202
348058
429242
352373
355216
411619
355769
355567
211363
353413
311321
391205
408206
343217
1.87039e+06
1.61828e+06
1.44168e+06
1.42699e+06
1.59694e+06
1.41364e+06
1.90778e+06
1.87226e+06
1.43951e+06
1.64038e+06
1.41818e+06
1.61894e+06
1.40871e+06
1.88135e+06
1.70041e+06
1.61616e+06
1.38495e+06
1.39254e+06
1.81781e+06
1.52948e+06
1.30938e+06
1.53477e+06
1.28857e+06
1.1985e+06
1.05603e+06
1.38485e+06
1.20124e+06
1.31979e+06
914464
1.00594e+06
895528
836801
1.093e+06
845714
752636
802467
715972
681694
578296
740008
646483
734114
651089
646803
536010
560053
688424
620217
505281
612272
533614
557303
444784
593231
476765
177767
339820
0.202675
0.0122855
0.00271451
0.251368
0.0152238
0.106488
0.00525071
0.0183518
0.573952
0.0340542
0.303973
0.0181206
0.176288
0.0105205
0.0096623
0.124725
0.710682
0.29086
30.2082
0.19028
0.0214638
0.566968
194.008
0.662061
0.0856974
57.8207
0.403119
0.0423137
0.0251227
0.725958
0.0448626
0.675434
0.0486391
0.303661
0.0225873
1.20805
27.1896
1.06931
0.133037
12.0735
0.776834
0.0930921
0.000502419
0.0008702
0.00174632
0.0281311
0.0403439
0.00388354
0.0145385
0.00830227
0.0274599
0.00227763
0.00300054
0.0424593
0.02301
0.00166675
0.00118085
0.0141715
0.0103952
0.000601976
0.00046447
0.00284386
0.00143176
0.000136519
4.93902e-05
0.000392369
7.09774e-05
1.28507e-05
2.80452e-06
1.75046e-05
2.33249e-05
5.87956e-07
5.70857e-07
0.0295764
0.00166168
0.012757
0.000728926
0.00366086
0.000122204
0.000241289
8.2757e-06
5.47648e-05
1.54944e-06
0.000817119
2.26331e-05
5.84885e-07
0.00230583
7.8863e-05
2.77441e-06
8.90286e-08
0.000108147
0.000498946
3.01148e-06
1.19687e-05
8.01956e-08
2.88012e-07
0.000334902
0.00126771
1.2916e-05
4.48194e-05
4.54107e-07
1.57832e-06
1.39116e-08
4.96366e-08
0.000133865
191566
272808
235676
638728
502591
462867
203258
457670
303350
362485
253885
345018
191015
176893
249988
262929
317544
297236
247284
677571
799829
878766
814608
626575
666667
743522
407888
439868
414803
357976
270843
104049
239151
286259
246132
284334
221144
563549
540117
558254
422208
405663
531015
530036
455226
247276
257165
243816
294012
288928
278944
285228
378635
494593
394613
413008
450819
436866
351877
179727
237774
243246
228798
206806
219312
205651
93563
380352
297219
769450
1.91344e+06
1.77825e+06
1.32718e+06
791341
756372
724865
708016
705440
1.87818e+06
1.79046e+06
1.76089e+06
1.67189e+06
1.59592e+06
1.50685e+06
1.24272e+06
983504
1.05779e+06
804861
827626
887455
724117
750121
760169
730907
771642
673034
674024
696257
653298
736817
719323
752543
662248
629319
648348
1.85675e+06
1.90532e+06
1.86883e+06
1.68869e+06
1.66434e+06
1.68899e+06
1.7068e+06
1.31372e+06
1.08176e+06
1.06531e+06
1.07766e+06
1.33102e+06
1.31001e+06
1.31489e+06
1.71403e+06
1.76673e+06
1.58838e+06
1.60051e+06
1.4845e+06
1.50403e+06
1.62608e+06
1.66697e+06
1.74163e+06
1.78234e+06
1.63753e+06
1.60902e+06
1.56795e+06
1.53548e+06
876414
747191
869156
889486
865734
748504
805636
152398
175968
143483
185113
143995
172396
165590
159067
166704
182204
1.22756
0.37482
0.0150406
0.00697601
397438
313037
315872
395046
401869
323041
318654
408097
429985
329534
417720
337537
443568
350484
344797
455523
473112
355864
465140
361802
479836
372584
367999
483433
425433
374793
479578
373838
303181
258158
343997
154981
0.000736167
0.0346381
0.00118853
0.0104435
0.000391522
0.00171477
8.09098e-05
0.000251206
9.28798e-06
2.33026e-05
7.15838e-07
7.67404e-05
2.42513e-06
7.45204e-08
5.18409e-06
1.92376e-07
6.41739e-09
174810
171311
197951
11.18
0.451276
0.70193
0.129622
0.148135
0.0122375
0.0432439
0.00141058
0.00568937
0.000249737
0.00183051
9.37487e-05
0.000601839
2.08231e-05
6.4802e-05
2.51227e-06
1.49294e+06
1.5759e+06
1.43753e+06
1.54801e+06
1.48022e+06
1.44198e+06
1.38289e+06
1.03978e+06
1.25244e+06
1.07749e+06
1.02272e+06
1.2891e+06
1.24999e+06
1.06035e+06
752229
735932
659280
687435
691697
666945
754908
765335
737786
869178
738830
831950
860866
720160
1.54656e+06
1.5235e+06
1.38791e+06
1.39507e+06
1.37344e+06
1.52908e+06
1.54495e+06
1.63467e+06
1.59547e+06
1.54922e+06
1.49162e+06
1.45733e+06
1.44243e+06
1.42581e+06
1.5005e+06
1.42805e+06
1.39013e+06
1.41121e+06
1.33266e+06
1.42044e+06
1.4196e+06
705477
642487
674049
672373
694325
652023
617246
1.35678e+06
1.39767e+06
1.29106e+06
1.34195e+06
1.27078e+06
1.39742e+06
1.48749e+06
1.51153e+06
1.48199e+06
1.36199e+06
1.45224e+06
1.41671e+06
1.34742e+06
1.30757e+06
1.23102e+06
1.01693e+06
1.11969e+06
1.22647e+06
1.0622e+06
1.37387e+06
1.24189e+06
1.0757e+06
1.27135e+06
1.19927e+06
1.07134e+06
1.17382e+06
1.03971e+06
1.26209e+06
819143
744395
917780
869980
707892
1.06323e+06
890741
894499
875193
718736
902619
740221
868192
709950
1.33438e+06
1.38242e+06
1.36764e+06
1.27728e+06
1.31333e+06
1.23598e+06
1.28242e+06
1.34303e+06
1.35405e+06
1.37798e+06
1.36133e+06
1.33459e+06
1.29001e+06
1.25461e+06
727800
641811
631999
724983
646243
655688
744645
1.25625e+06
1.19459e+06
1.21838e+06
1.07924e+06
1.06973e+06
1.16965e+06
1.07737e+06
901550
898334
731521
766471
924358
916600
754998
665105
620776
655169
629768
589747
740979
636701
645717
639825
600760
561123
622151
601924
547578
1.27797e+06
1.22647e+06
1.38663e+06
1.3505e+06
1.42705e+06
1.38537e+06
1.24451e+06
613224
693974
627210
644487
659839
599679
585832
331775
346227
345915
318784
388682
388515
337247
388962
387525
350886
389049
391958
346307
342554
479886
521846
356762
388705
517759
357629
482328
478152
388148
510354
358905
514172
357466
477984
485081
508557
361538
388866
479599
509226
364842
491980
387903
511466
370607
510716
367771
498132
509503
512658
374677
392635
503800
515343
380563
513687
396932
465610
391059
517106
386893
512521
341234
344725
388154
264097
460472
207720
348084
139353
202199
201381
179486
105570
193328
130362
272910
129205
371771
263702
120636
1.61533
0.00658243
0.000456958
2.28321e-05
332299
319643
235983
156715
15389
196259
328616
194947
190950
308127
183786
180645
211807
101396
34962.5
38968.8
2067.88
307.756
1524.17
11539.4
219278
190256
216747
187950
208454
174400
205031
170760
187680
126998
199552
3040.54
113036
95.744
11130.9
8.44173
4.51261
34.6028
959.263
158.015
54.4014
0.0571377
0.00614391
0.00031329
1.31092e-05
4.6783e-07
157.578
0.0481286
0.00270272
0.743944
0.00460953
0.000203061
0.0211581
0.000914392
3.12797e-05
0.621087
0.0114669
0.000489612
8948.74
0.0367762
0.0027713
0.0343524
0.00245211
0.000115878
5.21683e-06
2.13826e-07
7.567e-09
0.00136149
0.000103342
5.95668e-06
2.95346e-07
1.28784e-08
3.7835e-10
5.59377e-05
4.37758e-06
2.68672e-07
1.39698e-08
5.23869e-10
0
0.00579046
0.0180933
0.000410893
0.00130448
2.11435e-05
6.42273e-05
9.26622e-07
2.91946e-06
3.58559e-08
1.18598e-07
1.10595e-09
4.08909e-09
0.000281579
0.000741352
2.02727e-05
5.71098e-05
1.11289e-06
3.31418e-06
5.17321e-08
1.63331e-07
2.09548e-09
6.99947e-09
0
1.60071e-10
1.17965e-05
3.09812e-05
8.52771e-07
2.4391e-06
4.88362e-08
1.48968e-07
2.35741e-09
7.6252e-09
0
2.47383e-10
0
0
0.00215591
0.000134489
6.69416e-06
8.46278e-05
5.7117e-06
3.16097e-07
3.15777e-06
2.26821e-07
1.31695e-08
814.928
0.114455
0.352313
0.0239376
0.00240435
0.00599362
0.00198361
0.000110205
0.000267746
41.062
0.0204248
0.000714581
96319.4
0.147895
0.00473165
129192
1.83531
0.00758395
2.99493e-07
1.21363e-08
3.34694e-10
1.5134e-08
5.67525e-10
0
5.67525e-10
0
0
0.224304
0.0108958
0.000474876
7321.47
0.0386434
0.00291928
0.0254204
0.00155888
8.8379e-05
4.44071e-06
1.94777e-07
7.15954e-09
0.00113788
8.34915e-05
5.04529e-06
2.59155e-07
1.15542e-08
3.34694e-10
4.94348e-05
3.77832e-06
2.34184e-07
1.234e-08
4.80213e-10
0
0.0388606
0.012946
0.000734202
3.58276e-05
1.53336e-06
5.66215e-08
0.0144345
0.000942973
5.41122e-05
2.66112e-06
1.16663e-07
4.39468e-09
0.000713486
5.14039e-05
3.01117e-06
1.52213e-07
6.91216e-09
2.03727e-10
3.08645e-05
2.26405e-06
1.36672e-07
7.11589e-09
2.47383e-10
0
641037
646303
635243
459132
456825
405077
404847
642325
629937
578536
589108
609786
632659
630897
625134
592516
604705
569432
555491
586038
565251
700492
648631
621934
612357
586304
595169
665640
1.09643e+06
1.12065e+06
1.19768e+06
1.42123e+06
1.33573e+06
1.38578e+06
1.33111e+06
760626
843021
994219
1.1852e+06
1.0145e+06
1.21693e+06
1.06926e+06
614203
622984
599452
453885
405345
450889
404826