/*--------------------------------*- C++ -*----------------------------------*\
  =========                 |
  \\      /  F ield         | OpenFOAM: The Open Source CFD Toolbox
   \\    /   O peration     | Website:  https://openfoam.org
    \\  /    A nd           | Version:  9
     \\/     M anipulation  |
\*---------------------------------------------------------------------------*/
FoamFile
{
    format      ascii;
    class       volScalarField;
    location    "0.00265";
    object      rho.air;
}
// * * * * * * * * * * * * * * * * * * * * * * * * * * * * * * * * * * * * * //

dimensions      [1 -3 0 0 0 0 0];

internalField   nonuniform List<scalar> 
22021
(
0.745278
0.742156
0.72136
0.70781
0.672699
0.886174
0.941456
0.874027
0.934112
2.21725
2.4018
1.74987
0.632147
1.02649
0.719179
0.958399
1.18515
1.72936
1.2192
1.51566
1.97017
1.88836
1.90216
2.34235
1.54506
1.09003
0.661113
0.647411
0.56222
0.743692
0.557418
0.767262
0.657608
0.776954
0.877734
1.09283
0.87228
0.914572
0.763532
0.89799
1.15884
1.29338
0.980044
1.35129
1.02491
1.51209
1.08583
1.30042
1.52527
2.00263
1.32165
1.75799
1.1946
1.45477
1.82358
2.21254
1.49284
2.19926
1.6384
2.35258
1.72747
1.95087
2.23404
1.56882
1.87317
2.08788
1.96565
1.6163
1.06461
1.63944
1.32106
1.07288
1.24329
1.46608
1.42896
1.16673
1.14868
1.30705
0.391055
0.165821
0.524132
0.19771
0.864223
0.35361
1.29115
0.749097
1.55408
2.01896
0.130735
0.3739
0.426685
0.143094
0.417503
0.399768
0.181751
0.417516
0.156528
0.533779
0.678489
0.245504
0.771019
0.492692
0.300734
0.671512
0.290558
0.99573
1.11516
0.507575
1.38288
1.07011
0.605684
1.5157
1.34455
1.80057
0.632332
1.96736
1.67348
1.15771
2.3678
2.13526
1.41338
2.29283
0.318725
0.236606
0.259558
0.169311
0.241466
0.265092
0.311803
0.44733
0.287418
0.315414
0.222698
0.389538
0.327578
0.355836
0.85285
0.527625
0.547267
0.418285
0.718906
0.620928
0.646682
1.80083
1.08589
1.20719
0.941452
1.52514
1.33163
1.46943
1.98809
1.26746
1.59026
1.72659
2.02777
2.08427
2.37211
1.63574
2.19614
0.327723
0.308231
0.206115
0.133291
0.312147
0.209587
0.32389
0.335061
0.136169
0.334691
0.224476
0.318878
0.214145
0.352253
0.328711
0.173035
0.261811
0.288804
0.247822
0.272435
0.35109
0.427917
0.362956
0.243971
0.178027
0.382363
0.40715
0.275696
0.488347
0.207785
0.538119
0.375967
0.467149
0.320215
0.559167
0.522783
0.257336
0.449076
0.470714
0.382156
0.408059
0.612522
0.724726
0.616853
0.442297
0.344675
0.637569
0.704121
0.521867
0.829547
0.41383
0.944575
0.757374
0.809211
0.623149
0.964239
1.02349
0.499747
0.888037
0.961244
0.73719
0.778981
1.24233
1.75086
1.40161
1.37382
1.5654
1.45833
1.64444
1.6456
1.75216
1.35455
1.44337
1.63834
2.00419
1.7262
1.90622
1.94111
1.8309
1.86039
2.09517
2.01711
1.93961
1.86397
2.094
1.35798
1.1144
0.929488
0.791971
1.13509
1.34051
1.13917
1.57589
0.962774
1.66309
1.62327
1.52459
1.36391
1.77821
2.01083
1.17258
1.84148
1.87568
1.59386
1.70996
2.10496
1.77926
1.20352
1.76259
1.84392
1.71378
1.91953
1.8771
2.42344
1.86733
2.45053
1.93048
2.29526
2.43407
1.34822
1.95582
1.57158
1.81161
1.96353
1.97275
1.94192
2.21641
1.22502
1.79742
1.81258
0.387176
0.458572
0.531481
0.788277
0.868429
1.13846
1.24442
1.49348
1.25019
1.53365
1.50815
1.01129
1.20839
1.48776
1.09246
1.03595
0.374879
0.344901
0.395724
0.393247
0.350287
0.402241
0.368439
0.396351
0.412802
0.427104
0.467794
0.372764
0.422581
0.446644
0.627568
0.512614
0.538889
0.619297
0.527837
0.612074
0.626059
0.727357
0.706324
0.789081
0.804894
0.705553
0.716136
0.823548
1.02218
0.869091
0.894861
0.952139
0.92121
0.950348
0.987435
1.12094
1.04198
1.10284
1.17779
1.02961
1.08113
1.21596
1.39165
1.17114
1.2935
1.36153
1.31058
1.22066
1.42831
1.50234
1.44599
1.27541
1.72366
1.25686
1.5955
1.51624
1.1441
1.0933
1.27961
1.36605
1.08636
1.15051
1.41626
1.18055
1.44308
1.21143
1.54326
1.18658
1.49808
1.21438
0.991847
1.18064
1.52873
1.2616
1.19529
0.98373
1.22988
1.17248
1.54027
1.31843
1.20924
1.01978
1.09297
1.41564
1.16399
2.40223
2.42457
1.69633
1.09727
1.23866
1.2098
0.872607
1.34846
1.03397
1.26805
1.59189
1.22713
1.73832
1.22515
1.76831
1.25086
1.225
1.225
0.620447
0.73251
0.689998
0.756195
1.05039
1.63814
1.1065
1.62131
0.755903
0.916191
1.10677
1.3854
1.1545
1.56764
1.32117
1.52186
2.02448
2.16539
2.06089
2.25084
1.51083
1.58107
1.44368
1.47214
2.28672
1.64893
1.02359
1.73811
1.74071
0.957882
1.05566
1.74162
1.7847
1.2396
1.73112
1.91921
1.42763
1.76631
1.77168
2.02574
2.14614
1.71249
1.39583
1.88578
2.04756
1.37618
1.23786
1.33087
1.2386
1.22562
1.26468
1.23189
1.22639
1.22502
2.08215
1.42184
1.26492
1.88143
1.23949
0.445317
0.412094
0.618102
0.630106
0.419233
0.62822
0.436739
0.459958
0.647835
0.459185
0.694256
0.430655
0.647659
0.495322
1.48616
1.33047
1.3531
1.05598
1.33256
1.35994
1.48556
1.49036
1.0733
1.35232
1.41435
1.34018
1.37934
1.49593
0.643251
0.508865
0.769499
0.843097
0.556422
0.579344
0.871544
0.748529
0.953855
0.769186
1.16017
0.666587
0.997913
0.8725
1.48886
1.36512
1.45912
1.21246
1.49704
1.37294
1.50798
1.21236
0.897445
1.37966
1.59346
1.02201
1.06458
1.65724
1.46339
1.85745
1.57406
2.08855
1.28687
1.9234
1.76702
2.12661
1.82955
2.14362
1.94298
2.00501
1.97058
2.03539
2.10104
1.71519
1.87618
1.48447
1.96869
1.76002
1.96347
2.01817
1.33294
1.81828
1.87593
1.69522
1.80575
2.0683
1.961
1.8108
1.53124
1.44247
1.81485
1.90884
1.54274
0.849833
1.21957
0.883324
0.861061
1.23281
1.20081
1.18587
1.03641
1.4115
1.13918
1.16151
1.50193
1.53183
1.41365
1.71736
1.79391
1.7533
1.89532
1.81999
1.96607
1.90462
1.88619
1.33637
1.48698
1.54459
1.26021
1.26688
1.38266
2.0721
2.03219
2.07362
2.12566
2.12762
2.11437
2.22767
1.22553
1.22531
1.22502
1.22648
1.22505
1.22502
1.22501
1.8532
1.24049
1.24158
1.22502
0.907037
0.94619
1.33031
0.887528
1.26691
1.2388
1.31229
1.27162
1.51658
1.70598
1.32238
1.60248
1.66086
1.79229
1.86833
2.05129
1.52965
2.01504
1.74662
1.92296
1.68111
1.32232
1.2604
1.22989
1.32666
1.23716
1.23754
1.22927
1.86027
1.35096
1.35162
1.80703
1.81641
1.62504
1.28175
1.82962
1.22718
1.22781
1.31733
1.7771
1.22654
1.22689
1.61355
1.22563
1.22567
1.23781
1.23948
1.22515
1.22513
1.22674
1.22503
1.22502
1.2252
1.22512
1.22501
1.22501
1.22502
1.225
1.225
1.22501
1.22501
1.225
1.225
1.22501
1.225
1.225
1.225
1.22626
2.42135
2.15558
2.2819
1.28602
2.36414
2.22618
2.15351
1.53087
2.33534
1.34803
2.42782
1.64907
1.07573
1.28368
1.43431
1.89359
2.15519
1.25427
1.225
1.23215
1.54685
1.22902
2.11225
1.89567
1.43501
1.4777
2.13515
1.93264
1.32454
2.19598
2.03628
1.27676
2.07312
2.12984
2.05343
1.23346
1.58181
1.29645
1.22569
1.76424
1.22866
1.22939
1.22502
1.22513
1.22518
1.22502
1.22659
1.22503
1.22502
1.22501
1.22502
1.53654
1.25861
1.22546
1.2253
1.22631
1.22506
1.2252
1.22501
1.225
1.225
1.225
1.225
1.225
1.225
1.225
1.225
1.225
1.225
1.225
1.225
1.225
1.225
1.225
1.225
1.225
1.22894
1.22612
1.2251
1.225
1.22518
1.225
1.225
1.225
1.225
1.225
0.701492
0.903186
0.776942
0.907717
0.772725
0.95842
1.04817
0.926671
1.08102
1.225
1.225
1.225
1.225
1.225
1.225
1.225
1.225
1.225
1.225
1.225
1.22501
1.225
1.225
1.225
1.225
0.816776
1.37812
1.36281
2.48416
2.27579
1.7141
2.44346
2.22829
1.23108
1.22578
1.225
0.417606
0.437554
0.629188
0.785363
1.04285
1.51408
2.84777
2.64403
1.45199
1.22818
1.13326
1.5705
0.91503
1.05899
1.26096
1.11826
1.32048
1.52919
1.38539
0.483196
0.690803
0.494942
0.769791
0.88818
0.87962
0.603961
0.504039
0.524007
0.574302
0.533573
0.583896
0.595059
0.602467
0.528911
0.537307
0.596135
0.690923
0.667287
0.779993
0.784696
0.677072
0.684
0.79007
0.686064
0.778284
0.681778
0.780745
1.0214
0.890916
0.893415
1.00172
0.898343
1.01459
1.01582
1.00394
0.882637
0.883929
1.00259
0.356525
0.484273
0.86017
1.52359
2.05607
0.394118
0.423203
0.44587
0.499851
0.752845
0.741278
0.832859
1.30356
1.17519
2.16481
0.397733
0.360013
0.405088
0.363489
0.366605
0.411239
0.391503
0.559703
0.478894
0.51019
0.561344
0.491063
0.551984
0.580875
0.966469
0.839577
0.877254
0.979285
0.849557
0.954051
0.997278
1.84493
1.47006
1.5929
1.80033
1.53592
1.73141
1.91225
2.13514
2.17746
0.379896
0.367224
0.379132
0.399557
0.373287
0.385093
0.373479
0.405901
0.421889
0.428455
0.399478
0.376443
0.359646
0.365323
0.370224
0.412036
0.382895
0.421914
0.458482
0.384524
0.426514
0.441941
0.393113
0.413618
0.422115
0.421954
0.388485
0.396379
0.420222
0.418948
0.47009
0.442061
0.44601
0.388932
0.399703
0.376588
0.414556
0.531444
0.47631
0.463
0.570691
0.466348
0.547477
0.522225
0.55691
0.516014
0.491022
0.583142
0.518886
0.438184
0.456429
0.495681
0.646032
0.652298
0.736204
0.769833
0.63913
0.669466
0.744338
0.614352
0.652884
0.721923
0.68765
0.630878
0.598623
0.709865
0.640356
0.765123
0.669182
0.734659
0.598137
0.656481
0.570314
0.688517
0.924793
0.818166
0.783981
0.930342
0.812202
0.924541
0.889381
0.949325
0.868484
0.835473
0.986319
0.895092
0.749851
0.786125
0.853048
1.11005
1.12344
1.26323
1.34021
1.09242
1.14572
1.29635
1.06137
1.04076
1.21006
1.1732
1.05267
1.01514
1.23596
1.09271
1.33502
1.13517
1.28425
1.0303
1.14231
0.978703
1.20868
1.86605
1.60278
1.53939
1.93838
2.13746
2.05963
2.05075
2.37546
1.95762
2.22759
2.25853
2.16264
2.39673
2.25199
2.26607
1.81074
2.07214
1.25938
1.2146
1.9697
1.73732
2.02444
0.104556
0.128342
0.243766
0.447984
0.615162
0.280286
0.234103
0.486434
0.679479
0.863934
1.18119
1.32942
1.30771
0.114567
0.34839
0.370684
0.177007
0.446882
0.523833
0.790969
0.873705
1.14064
0.223734
0.302941
0.310992
0.216777
0.246411
0.394633
0.335782
0.301715
0.492732
0.486706
0.389796
0.592866
0.585089
0.685474
0.951274
0.27365
0.319301
0.332307
0.376752
0.32592
0.33881
0.266566
0.299194
0.397513
0.408108
0.407863
0.350178
0.35987
0.359399
0.550026
0.49515
0.479784
0.614069
0.449493
0.594172
0.566001
0.644806
0.704955
0.765873
0.746605
0.686004
0.656475
0.729091
0.887573
0.839528
0.837411
0.958427
0.808194
0.910982
0.934587
0.961002
1.04709
1.03707
1.15477
0.978016
1.04014
1.02456
1.30954
1.22501
1.22501
1.225
1.225
2.02347
1.24567
1.49736
1.23142
1.22527
1.22521
1.22501
1.225
1.225
1.225
1.22501
1.225
1.225
0.331742
0.375581
0.255587
0.862739
1.41096
1.23968
1.22586
1.22501
1.225
0.452532
0.520791
0.312222
1.03154
1.39764
1.22983
1.22502
1.225
1.225
0.843817
0.902021
0.495505
1.67412
1.31746
1.2252
1.225
1.225
1.225
1.59326
1.60446
1.13953
2.25458
1.23106
1.22501
1.225
1.225
1.225
2.43253
2.27536
2.70758
1.53188
1.22508
1.26462
1.225
1.225
1.43845
2.12772
1.22509
1.98585
1.225
1.22501
0.196913
0.275337
0.241067
0.225638
0.371864
0.201511
0.36137
0.454232
0.209729
0.359785
0.455376
0.431067
0.477889
0.271507
0.502145
1.26283
1.74578
1.66076
0.900017
1.29996
1.7759
1.60931
1.24451
1.38757
1.23463
1.40411
1.23841
1.33833
1.22779
0.404736
0.631878
0.520257
0.238423
0.584901
0.791313
0.291779
0.791959
0.567337
0.383738
0.699653
1.32696
1.89952
1.56318
1.28994
1.40708
2.02799
1.34841
1.23528
1.3111
1.22635
1.3452
1.22778
1.2453
1.22519
0.851944
1.09135
1.11629
0.896609
0.582368
1.11238
1.34183
0.776006
1.3613
1.33673
0.931748
0.699277
1.40569
1.41386
1.82355
1.28798
2.08301
1.31902
1.3166
1.22754
1.22645
1.23469
1.22504
1.24103
1.22508
1.22536
1.22502
1.49208
1.22791
1.5287
1.38084
1.57804
1.12244
2.19636
2.34985
1.75079
1.57019
2.40593
2.2729
2.15813
2.01804
1.92525
1.27391
1.22823
1.22562
1.23452
1.2276
1.22507
1.22502
1.22503
1.22508
1.22501
1.22802
1.2307
1.22504
1.22503
1.57464
1.58691
1.47665
1.8352
2.70721
1.22592
1.25021
1.37983
1.55644
1.63999
2.78478
2.54155
1.26797
1.84179
0.534497
1.78153
0.642442
1.96321
1.0868
1.85403
2.52672
1.22504
1.37609
1.22502
0.353441
0.370996
0.326238
0.659354
0.483999
0.560614
0.34728
0.676299
0.509835
0.443391
0.622403
0.403861
0.946486
0.586741
0.803868
0.503685
0.99832
0.73872
0.816846
1.17837
0.8026
1.6677
1.00023
1.59185
1.22817
2.07235
1.50303
1.87405
2.75854
2.0422
2.56218
2.35158
2.76074
2.83759
1.23333
1.75615
0.435879
0.370172
0.431088
0.384464
0.378541
0.438159
0.429371
0.262349
0.196045
0.201417
0.196879
0.129451
0.133339
0.192131
1.33207
1.32632
1.49733
1.40916
1.32263
1.4943
1.33739
0.608394
0.512459
0.543158
0.59992
0.539147
0.591688
0.612098
0.244125
0.344044
0.268783
0.253695
0.161149
0.232286
0.175343
1.27585
1.29584
1.4704
1.3866
1.29215
1.28127
1.44527
1.01306
0.894936
0.887717
1.02452
0.893171
1.0186
1.00433
0.579333
0.377163
0.438511
0.400228
0.23222
0.348007
0.267376
1.23206
1.24259
1.31452
1.28807
1.23868
1.23489
1.27527
1.98374
1.61109
1.61074
1.91841
1.6389
1.92536
1.94692
1.54512
0.863278
1.1444
1.12699
0.549426
0.803122
0.740436
1.22508
1.22561
1.22804
1.22671
1.22531
1.22518
1.22575
2.48292
2.07544
2.70093
2.20326
1.42337
1.88454
2.81951
2.16879
1.4353
2.25591
1.87126
1.69615
2.87269
2.34867
2.34739
1.49908
1.8664
2.20127
1.82729
2.16308
2.37518
1.225
1.22501
1.22823
1.25211
1.22502
1.22708
1.22501
1.289
1.22503
1.22566
1.22869
1.23469
1.22501
1.22501
0.417259
0.361455
0.423011
0.381228
0.372585
0.429834
0.410737
0.203872
0.295069
0.300326
0.32296
0.153652
0.154906
0.318646
0.414526
0.437077
0.441183
0.409994
0.434099
0.407107
0.449229
0.48148
0.40001
0.447102
0.467418
0.313131
0.220909
0.336088
0.333736
0.165914
0.158621
0.35461
0.427672
0.478347
0.452953
0.455709
0.431266
0.364813
0.416479
0.36712
0.372526
0.422663
0.425035
0.45737
0.447766
0.452232
0.452758
0.452569
0.435819
0.44191
0.44741
0.453062
0.409317
0.446999
0.490035
0.401986
0.455689
0.486598
0.447354
0.38817
0.438879
0.47106
0.394735
0.43842
0.480303
0.468663
0.491383
0.464081
0.496296
0.465126
0.483531
0.455433
0.492998
0.48952
0.360294
0.370213
0.333907
0.464894
0.475479
0.32557
0.210099
0.28808
0.224442
0.203318
0.14882
0.13922
0.21535
0.381169
0.527847
0.401752
0.342244
0.507592
0.485772
0.358057
1.18965
0.866887
1.49818
1.26798
0.873062
1.5036
1.1806
1.21186
1.28037
0.9106
1.53752
0.886176
1.51713
1.25188
1.24505
1.24919
1.24192
1.24333
1.24777
1.24084
1.24634
1.32245
1.40752
1.30773
1.4849
1.31661
1.49095
1.30813
1.2427
1.24121
1.24203
1.23619
1.24529
1.23884
1.23965
0.586114
0.518334
0.534565
0.600002
0.518555
0.602057
0.603866
0.36906
0.262147
0.409829
0.430581
0.178099
0.387552
0.195233
0.555019
0.520568
0.498686
0.580974
0.664257
0.691634
0.796214
0.777559
0.696749
0.686422
0.750786
0.458464
0.515269
0.327332
0.48232
0.242251
0.216854
0.542079
0.62344
0.733654
0.654014
0.700966
0.60397
0.53646
0.54069
0.600924
0.69258
0.690853
0.784853
0.786338
0.683399
0.69479
0.788383
0.683831
0.765752
0.67924
0.773729
0.432677
0.624124
0.476335
0.413252
0.538969
0.381084
0.583847
0.297946
0.43299
0.33292
0.279319
0.208822
0.190889
0.309931
0.798819
0.533299
0.606362
0.454593
0.723884
0.643693
0.507047
1.37833
0.947557
1.56077
1.35811
1.30921
0.997623
1.57766
1.45478
1.3863
1.14366
1.57675
1.06168
1.58546
1.53685
1.23321
1.2384
1.23333
1.23228
1.23636
1.2349
1.23068
1.26074
1.36918
1.25314
1.36516
1.26628
1.4098
1.24828
1.23048
1.22972
1.22938
1.22695
1.23186
1.22852
1.22834
0.948325
0.900463
0.875587
1.01397
0.843892
1.01379
0.98472
0.666223
0.370759
0.427247
0.681781
0.27111
0.607299
0.307169
0.880162
0.816985
0.784374
0.914927
1.07804
1.1581
1.32403
1.30387
1.15011
1.11969
1.25287
0.921543
0.505982
0.621036
0.776866
0.429994
0.356927
0.909106
1.00167
1.22341
1.04451
1.16834
0.985002
0.853587
0.870462
0.958364
1.16413
1.17257
1.36259
1.34769
1.16891
1.15067
1.36736
1.17483
1.14962
1.3567
1.36849
1.16463
1.16769
1.37899
1.13475
1.29539
1.09898
1.34124
1.15759
1.3605
1.15488
1.36614
1.12043
0.701512
0.830324
0.674492
0.836923
0.576232
1.00889
0.529612
0.666373
0.876349
0.479047
0.415444
0.32408
0.601604
1.81775
1.01249
1.27696
0.822599
1.69675
1.28725
1.0511
1.68002
1.24267
1.54389
1.4064
1.61817
1.33751
1.47255
1.68354
1.3688
1.48784
1.30049
1.43276
1.38026
1.58541
1.22585
1.22753
1.22595
1.22566
1.22681
1.22628
1.2254
1.22808
1.25913
1.22693
1.23483
1.22978
1.24961
1.22609
1.22534
1.22525
1.22519
1.22505
1.22554
1.22514
1.22511
1.78458
1.54597
1.55148
1.88852
1.48551
1.83649
1.87091
1.38966
1.03031
0.790283
1.34747
0.540017
1.09614
0.698079
1.69748
1.47128
1.39687
1.79816
2.12468
2.21077
2.2588
2.48067
2.1303
2.22483
2.37421
2.03239
1.70933
1.35249
1.63391
1.21117
0.921054
1.92742
2.03019
2.44759
2.15569
2.30902
1.98888
1.60043
1.63207
1.86262
1.64927
1.90584
1.96234
1.98118
1.56632
1.62293
1.91596
2.00056
1.63686
1.64755
1.98149
2.35242
2.25177
2.40568
2.56675
2.25206
2.31201
2.59652
2.34538
2.15027
2.35811
2.48725
2.21597
2.30033
2.56426
2.35183
2.5747
2.28662
2.62534
2.35456
2.51703
2.31687
2.59839
2.43678
2.21743
1.6766
1.86439
2.09898
1.39968
2.31974
1.53423
2.46492
2.04979
1.57675
1.44415
1.02841
2.06233
2.50208
2.47803
2.39682
2.23533
1.84336
2.24957
2.31051
1.28264
1.48069
1.25188
1.24214
1.41142
1.37563
1.2321
1.23726
1.22926
1.23434
1.2258
1.26947
1.22652
1.2275
1.22502
1.22506
1.22502
1.22504
1.22503
1.22504
1.22502
1.22513
1.22558
1.22898
1.2259
1.22534
1.22522
1.22623
1.22516
1.22549
1.22996
1.22696
1.22541
1.2252
1.22663
2.40694
1.67248
1.95256
2.21831
2.07918
2.29479
2.3755
1.98172
1.95194
1.40079
1.45495
1.92601
2.11997
1.36124
2.27142
1.44316
1.69723
1.97623
1.77021
2.08119
2.16683
2.24941
1.9865
1.61182
1.551
2.00984
2.21489
1.62439
2.2235
1.93675
1.6379
1.68103
1.98803
2.16033
1.6664
1.28447
1.24496
1.22501
1.25848
1.22503
1.225
1.23099
1.225
1.225
1.22516
1.225
1.225
1.326
1.29171
1.225
1.99733
1.22501
1.2985
1.26773
1.28374
1.25758
1.23554
1.32445
1.26514
1.3962
1.38299
1.22514
1.46702
1.22547
1.39287
1.22503
1.27886
1.31347
1.22502
1.23019
1.23112
1.23211
1.22503
1.22552
1.62047
2.41203
1.7601
1.40231
1.35489
1.28243
1.28123
1.35188
1.27885
1.40735
1.33136
1.33342
1.25456
1.24949
1.35998
1.31885
1.24605
1.23903
1.25914
1.22935
1.228
1.25283
1.24456
1.22697
1.22526
1.2264
1.22509
1.22509
1.22572
1.22555
1.22505
2.00912
1.30453
1.63736
1.87107
1.62411
1.80769
2.06552
1.25829
1.22574
1.22542
1.23422
1.23152
1.22502
1.22504
1.39405
1.27569
1.34295
1.26382
1.34824
1.27244
1.38072
1.29911
1.24174
1.27998
1.23326
1.30075
1.23886
1.27298
1.46593
1.26918
1.36941
1.58518
1.3748
1.55308
1.42257
1.30892
1.34568
1.58657
1.4216
1.36537
1.31289
1.53326
1.23092
1.22628
1.22898
1.22526
1.2347
1.22576
1.22714
1.26548
1.43254
1.25409
1.32103
1.2823
1.42796
1.24102
1.2269
1.23676
1.26057
1.25994
1.23057
1.22923
1.23709
1.22528
1.22556
1.23042
1.22714
1.22563
1.22524
1.22694
1.2258
1.23811
1.2297
1.22743
1.22689
1.22939
1.2267
2.01017
1.87583
1.57969
1.66633
1.82789
2.08126
1.61776
2.17588
1.46295
2.10195
2.13537
2.1646
2.33362
2.3382
2.26203
1.43134
2.10522
2.29271
2.08636
2.40415
2.39115
1.91965
2.18203
1.32899
1.38983
2.26075
2.01676
2.35006
0.874489
0.623892
0.635741
0.932102
0.647361
0.657748
0.920898
1.23577
1.77454
1.73771
1.44689
1.22568
1.37296
1.22535
1.22505
1.22504
1.22561
1.27074
1.22516
1.25262
1.2251
1.1436
0.732401
0.804775
1.18357
0.740936
1.08066
0.80023
1.47981
1.22632
1.69326
1.33213
1.22523
1.24521
1.22503
1.22526
1.22501
1.22507
1.24423
1.22506
1.22839
1.22504
1.89379
1.23837
1.51373
1.80531
1.17216
1.62706
1.41061
1.23487
1.22501
1.23303
1.23398
1.22502
1.22528
1.22501
1.225
1.225
1.22502
1.22645
1.22501
1.22504
1.225
1.59106
2.07132
2.29274
1.45255
2.08923
1.81554
2.02037
1.225
1.225
1.22525
1.22507
1.225
1.22501
1.225
1.225
1.225
1.225
1.22501
1.225
1.225
1.225
2.50583
2.42981
2.62158
2.49511
2.06976
2.42557
2.53824
1.27635
1.22882
1.25997
1.23021
1.27129
1.22948
1.2282
1.2303
2.52218
1.67446
2.51813
2.71066
2.31843
1.242
2.50265
1.8107
2.47763
2.49299
2.79744
2.45712
1.25817
1.22501
1.23482
1.22502
2.28478
1.22817
1.22511
1.22501
1.24209
1.3842
1.22503
2.48762
1.23086
1.22591
1.22501
0.650072
0.951969
0.682323
0.957016
0.698965
0.670926
1.00606
1.46987
0.903358
1.04087
1.3145
0.999409
0.881746
1.46341
2.18789
1.83172
2.1168
1.94949
1.93466
1.68746
1.98308
1.32664
1.76214
1.28925
1.27144
1.31218
1.63269
1.23323
1.26162
1.40212
2.14845
1.84022
1.43953
2.13319
1.3019
1.81615
0.893689
0.933341
1.02402
2.22054
1.05299
2.25108
2.1411
1.08111
1.37115
1.22761
2.32268
1.56609
2.25513
1.27978
1.79997
2.23409
2.14227
1.69466
2.57797
1.25461
1.23102
1.22618
2.27575
1.90058
1.22563
1.22589
1.225
1.22521
2.08084
1.34681
1.3809
1.22554
1.22546
1.22501
1.225
1.225
1.22608
1.22508
1.225
1.225
1.225
2.30472
2.32907
1.79783
2.14523
2.42137
2.42687
2.61138
1.22651
1.24224
1.24644
1.22693
1.23196
1.22557
1.22527
1.24334
1.22752
1.24821
1.22675
1.23817
1.22612
1.22703
1.23192
1.23267
1.29299
1.28616
1.23157
1.2814
1.23081
1.22505
1.22504
1.24001
1.27801
1.22599
1.26392
1.2257
1.23217
1.22502
1.2271
1.24313
1.22529
1.2302
1.22508
1.22502
1.22501
1.22503
1.22587
1.22502
1.2251
1.22501
1.225
1.225
1.22501
1.22506
1.225
1.22501
1.225
1.23246
1.23317
1.29479
1.28602
1.23227
1.28331
1.23163
1.24542
1.24611
1.22761
1.27208
1.22895
1.2526
1.23061
1.26852
1.22995
1.22807
1.22501
0.149032
0.351121
0.828933
0.894759
0.818959
1.99868
0.22149
0.293365
0.289167
0.323553
0.337327
0.400515
0.153203
0.552576
0.467147
0.488689
0.858534
0.727727
0.815443
0.654713
1.04005
1.0624
0.93041
1.10685
1.43317
1.35184
0.903535
0.712172
0.994985
1.69519
1.55435
1.6477
1.97596
0.721728
0.698732
2.48117
0.315751
0.356961
0.365492
0.402382
0.498219
0.765445
0.617982
0.851664
1.14235
1.60669
1.13334
1.464
1.93526
1.96177
2.01353
2.53707
0.207277
0.18342
0.195619
0.245187
0.202022
0.214391
0.230685
0.306251
0.267902
0.281584
0.257053
0.28377
0.297273
0.24506
0.255999
0.228127
0.291879
0.280537
0.313156
0.247784
0.349455
0.311461
0.373605
0.396098
0.288508
0.392766
0.330601
0.352236
0.423759
0.511509
0.388082
0.582925
0.41119
0.452161
0.534219
0.588102
0.480844
0.585069
0.568762
0.480294
0.447497
0.585175
0.70024
0.794674
0.650231
0.733177
0.811298
0.670057
0.894583
0.88488
0.70387
0.833965
0.70625
0.82725
0.702074
0.855964
1.12675
1.01182
0.932236
1.19158
0.949273
1.05176
1.07586
1.25172
0.971599
1.11385
1.16847
0.955536
1.01344
1.0845
1.09735
1.16631
1.17371
1.31547
1.28997
1.19049
1.40685
1.58804
1.26187
1.42068
1.31113
1.366
1.21827
1.43851
1.07607
1.01026
1.10882
1.41047
1.34937
1.44277
1.34622
1.73423
1.59729
1.77234
1.60686
1.5306
1.54588
1.71684
1.48543
1.86723
1.91286
1.52819
1.85647
1.84778
1.34861
0.327928
0.30447
0.317384
0.346099
0.406511
0.413222
0.619231
0.496938
0.603698
0.938932
0.728097
0.870611
1.37711
1.03187
1.19562
1.79978
1.36184
1.53644
1.99265
1.73113
1.91528
1.71513
2.05515
2.1115
1.0094
1.2282
1.23899
0.253721
0.227623
0.28716
0.302549
0.24058
0.300727
0.240418
0.288954
0.337288
0.342588
0.398966
0.275867
0.335367
0.355449
0.576259
0.440439
0.489391
0.591058
0.453447
0.559275
0.596714
0.713836
0.70124
0.816157
0.837007
0.686741
0.714972
0.859822
1.12948
0.94189
0.959649
1.04987
1.00048
1.06432
1.08174
1.24997
1.18676
1.33378
1.3632
1.19283
1.21235
1.36907
1.57612
1.47375
1.54442
1.79152
1.49118
1.58294
1.763
1.56589
1.95354
1.5417
1.92265
1.60652
1.91418
2.39399
2.93545
1.225
1.225
1.225
1.225
1.225
1.225
1.225
1.225
1.225
1.225
1.225
1.225
1.225
1.225
1.225
1.225
1.22501
1.225
1.22526
1.225
1.225
1.225
1.22664
1.22501
1.225
1.22549
1.225
1.225
1.225
1.22501
1.225
1.22501
1.225
1.225
1.225
1.22501
1.22523
1.22501
1.225
1.2251
1.22501
1.225
1.225
1.225
1.225
1.225
1.225
1.225
1.225
1.225
1.225
1.225
1.225
1.225
1.225
1.225
1.225
1.225
1.225
1.225
1.225
1.225
1.225
1.225
1.225
1.225
1.225
1.225
1.225
1.225
1.225
1.225
1.225
1.225
1.225
1.225
1.225
1.225
1.225
1.225
1.225
1.225
1.225
1.225
1.225
1.225
1.225
1.225
1.225
1.225
1.225
1.225
1.225
1.225
1.225
1.225
1.225
1.225
1.225
1.225
1.225
1.225
1.225
1.225
1.225
2.43164
1.00745
2.54805
0.886696
0.784047
0.889992
1.34508
1.90513
1.38585
1.16253
1.90728
1.41294
0.767555
0.917388
1.14438
0.668794
0.904396
1.01827
0.79385
0.912929
0.940961
0.942904
1.28953
1.11691
1.26323
1.16025
0.941002
0.844423
1.22719
1.32542
1.9735
1.94909
2.53411
1.77362
2.50107
2.08907
2.54483
1.46481
0.850256
0.835314
0.907977
1.01851
0.986505
0.9731
0.997837
1.33606
1.85305
1.6251
1.22056
1.79073
1.23502
1.58826
1.19891
1.35332
1.84089
1.67221
1.28713
1.19762
1.61426
1.47803
2.15546
2.39791
1.51758
1.91053
1.74176
1.78428
1.88133
0.935764
1.27612
0.605521
0.184328
0.209541
0.324465
0.532745
0.667711
0.786432
0.695111
0.885731
0.190758
0.27115
0.279276
0.302336
0.25356
0.353809
0.432132
0.522326
0.412167
0.562092
0.601511
0.493858
0.760901
0.660862
0.674947
0.728202
0.621822
0.788791
0.828284
0.7275
0.892175
0.756236
0.840129
0.720218
0.840189
1.0041
0.884752
0.108213
0.12968
0.135822
0.141101
0.148528
0.171174
0.163987
0.250352
0.42406
0.367268
0.451144
0.271787
0.315191
0.341902
0.133846
0.154767
0.198607
0.172436
0.226737
0.251129
0.194986
0.111857
0.108826
0.102393
0.132258
0.139791
0.133523
0.14198
0.448453
0.618231
0.529192
0.461392
0.553138
0.637967
0.540529
2.26293
2.37888
2.24663
2.05623
2.10897
2.26237
2.32082
2.02102
2.17842
2.28533
1.22501
1.225
1.225
1.225
0.370403
0.361609
0.372326
0.359572
0.397259
0.45331
0.399094
0.454752
0.668481
0.53728
0.54449
0.64836
0.828445
0.942835
0.783023
1.03031
1.56062
1.13073
1.27373
1.3294
1.86336
1.76692
1.53552
2.14714
2.44005
2.03091
2.35576
2.25347
2.31071
2.31202
2.40788
1.86623
1.225
1.225
1.225
1.225
1.225
1.225
1.225
1.225
1.225
1.225
1.225
1.225
1.225
1.225
1.225
1.225
1.225
2.06301
1.74504
2.03911
1.2251
1.225
1.22501
1.225
1.225
1.225
1.225
1.225
1.225
1.225
1.225
1.225
1.225
1.225
1.225
1.225
0.170996
0.133608
0.180819
0.163532
0.16799
0.21661
0.224413
0.342507
0.261012
0.4128
0.368196
0.303798
0.316
0.429834
0.600334
0.651656
0.770125
0.695534
0.71191
0.780119
0.656841
0.541085
0.619715
0.522217
0.58542
0.4823
0.545936
0.653429
0.199482
0.207317
0.288146
0.299967
0.307007
0.232285
0.224466
0.117329
0.126359
0.159972
0.144663
0.154829
0.171712
0.18336
0.191196
0.253989
0.209403
0.185087
0.247438
0.216899
0.283389
0.667878
0.793473
0.707333
0.731349
0.669507
0.750998
0.845727
0.312612
0.293712
0.365278
0.329395
0.379237
0.319053
0.25874
0.190019
0.198328
0.283809
0.18936
0.198799
0.275476
0.284859
0.30023
0.416689
0.473874
0.344538
0.462978
0.383972
0.506838
0.511083
0.38353
0.441706
0.530857
0.453273
0.540224
0.409062
0.539494
0.737787
0.606213
0.58494
0.701374
0.636114
0.764215
0.586525
0.60968
0.699896
0.626006
0.724292
0.632493
0.726808
0.310044
0.228544
0.285515
0.365221
0.291283
0.370641
0.313212
0.207893
0.288196
0.212778
0.224974
0.300502
0.280676
0.291485
0.71079
0.877042
0.876311
0.680639
0.832365
0.835037
0.691026
0.37673
0.445434
0.385694
0.495653
0.549178
0.453361
0.538663
0.589938
0.607144
0.714393
0.757855
0.651615
0.638017
0.740751
0.753649
0.955104
0.858987
0.808961
0.912053
0.885806
1.00091
0.768661
0.785381
0.873735
0.936016
0.825269
0.822787
0.927475
0.307529
0.382377
0.260339
0.33403
0.328764
0.396132
0.322557
0.919728
0.69702
0.86741
0.788494
0.768165
0.931905
0.997
0.433137
0.693494
1.35946
2.86556
0.600347
0.686618
0.467748
0.778296
1.33152
0.973515
1.64236
2.77138
1.88865
2.88573
0.468425
0.632512
0.447924
0.608535
0.640439
0.457411
0.458633
0.493791
0.632484
0.722837
0.535325
0.665102
0.482243
0.549612
0.773113
0.824224
0.620849
0.912844
0.640556
0.982046
0.739851
0.953294
1.09345
1.524
1.07927
1.21002
0.891539
1.19309
1.88704
1.95693
1.311
2.02084
1.5016
2.52125
1.57405
2.33153
2.44106
3.2138
2.21553
2.99592
1.87268
2.69893
2.75849
3.04806
2.51262
2.77231
2.86896
2.5584
2.66023
2.20471
2.56599
2.33628
2.43865
1.95333
2.34849
2.14727
2.60945
1.98635
0.864886
2.49714
2.001
1.22501
1.225
1.225
1.225
0.50995
0.635062
1.76366
2.28303
1.34775
1.28038
0.532462
1.31173
1.54054
0.85845
2.07144
2.22229
2.3357
1.95526
1.49693
1.53361
1.24247
1.22763
1.23804
1.31973
1.09882
1.5883
1.12962
1.64358
1.50207
2.09905
1.71842
2.23141
2.2952
2.07938
2.34802
1.25003
2.01985
1.22582
1.31502
1.22507
1.22504
1.2253
1.23315
1.22635
1.22547
1.225
1.225
1.225
1.225
1.225
1.22634
1.225
1.225
1.22501
1.225
1.225
1.225
1.225
1.225
1.22501
1.225
1.225
1.29557
1.225
1.225
1.225
1.225
1.225
1.225
1.225
1.225
1.225
1.225
1.225
1.225
1.225
1.225
1.225
1.225
1.225
1.225
1.225
1.225
1.225
1.225
1.225
1.225
1.225
1.225
1.225
1.225
1.225
1.225
1.225
1.225
1.225
1.225
1.225
1.225
1.225
1.225
1.225
1.225
1.225
1.225
1.225
1.225
1.225
1.225
1.225
1.225
1.225
1.225
1.225
1.225
1.225
1.225
1.225
1.225
1.225
1.225
1.225
1.225
1.225
1.225
1.225
1.225
1.225
1.2318
1.225
1.225
1.225
1.225
1.225
1.225
1.225
1.225
1.22535
1.225
1.225
1.90891
1.225
1.225
2.10702
1.22502
1.225
1.225
1.225
1.225
1.225
1.225
1.225
1.225
1.225
1.225
1.225
1.225
1.225
1.28324
1.225
1.225
1.225
1.225
1.225
1.225
1.225
1.225
1.225
1.225
1.225
1.225
1.225
1.225
1.225
1.225
1.225
1.225
1.225
1.225
1.225
1.225
1.225
1.225
1.225
1.225
1.225
1.225
1.225
1.225
1.225
1.225
1.225
1.225
1.225
1.225
1.225
1.225
1.225
1.225
1.225
1.225
1.225
1.225
0.386121
0.423984
0.429687
0.398106
0.402763
0.428521
0.434241
0.786821
0.816725
0.923668
0.96069
0.984115
0.866708
0.846142
0.876596
1.03986
1.01394
1.00851
1.08636
1.10907
1.20178
0.717199
0.698751
0.913082
0.910641
0.939139
0.939327
0.716057
0.517068
0.563095
0.466418
0.427548
0.543099
0.481829
0.580294
0.744104
0.774655
0.666771
0.663367
0.782315
0.686027
0.796056
0.401677
0.444555
0.478774
0.414626
0.451208
0.441238
0.488713
1.0429
1.0659
0.965344
0.961584
1.21148
1.0647
1.0473
0.963744
1.00427
0.885299
0.896552
1.01285
0.907587
1.02588
0.718356
0.961952
0.993172
0.791305
0.800655
1.08253
1.04822
0.99997
1.04332
1.25121
1.09473
1.12175
1.17141
1.28628
0.467686
0.534259
0.605967
0.484482
0.548392
0.624347
0.542826
0.916199
0.985174
1.03641
1.18811
1.3041
1.14728
1.27197
0.595787
0.686204
0.770772
0.709023
0.798489
0.615812
0.700023
2.02673
2.46356
1.225
1.225
1.225
1.225
1.22501
1.225
1.225
1.225
1.225
1.225
1.225
1.225
1.225
1.225
1.225
1.225
1.225
1.225
1.225
1.225
1.225
1.225
1.225
1.225
1.225
1.225
1.225
1.225
1.225
1.225
1.225
1.225
0.471181
0.551063
0.473986
0.493781
0.408736
0.478632
0.414645
0.479661
0.487353
0.422023
0.400985
0.430464
0.502621
0.561751
0.48888
0.510952
0.443329
0.478448
0.546717
0.868722
1.57418
2.33242
0.610111
2.34702
0.706048
2.46021
1.81372
0.524824
1.22458
0.578515
1.46209
0.528933
1.25727
0.80883
2.56948
1.39348
2.6409
1.6986
0.641991
1.49107
1.2067
2.34523
0.966632
2.048
1.64582
2.55377
2.3128
1.72633
2.4462
1.26622
2.21558
1.99391
2.26482
2.28398
2.33513
2.40126
2.39376
1.73069
1.89221
1.06691
0.646067
0.929558
0.620003
0.656564
0.94062
1.05409
1.88918
2.77657