/*--------------------------------*- C++ -*----------------------------------*\
  =========                 |
  \\      /  F ield         | OpenFOAM: The Open Source CFD Toolbox
   \\    /   O peration     | Website:  https://openfoam.org
    \\  /    A nd           | Version:  9
     \\/     M anipulation  |
\*---------------------------------------------------------------------------*/
FoamFile
{
    format      ascii;
    class       volScalarField;
    location    "0.00265";
    object      T;
}
// * * * * * * * * * * * * * * * * * * * * * * * * * * * * * * * * * * * * * //

dimensions      [0 0 0 1 0 0 0];

internalField   nonuniform List<scalar> 
22021
(
589.376
598.463
605.302
558.406
581.364
512.199
463.244
491.432
493.944
413.583
457.515
348.261
1114.44
977.333
1024.89
901.835
936.546
822.958
810.725
739.714
758.671
438.723
583.175
464.209
406.119
467.195
1107.22
1138.13
1112.63
1074.31
1129.65
1102.3
1081.16
1079.18
1025
1024.19
1001.71
1060.37
1040.31
1055.11
1032.25
993.9
970.866
900.635
1039.71
968.44
949.995
1032.8
864.463
892.375
926.379
939.495
935.88
1032.69
942.616
802.641
913.515
653.81
1015.26
661.559
869.366
779.664
529.75
416.256
591.281
504.35
761.814
569.903
550.078
503.274
479.68
454.417
415.125
460.218
410.866
460.801
436.152
431.057
899.893
896.093
815
798.575
675.191
557.862
688.63
462.085
487.288
476.986
743.563
972.595
885.172
722.996
1075.86
1082.6
850.917
1058.72
693.527
1004.76
715.538
560.959
771.157
937.717
601.859
744.01
537.358
668.982
678.04
520.049
553.646
554.536
477.392
500.96
748.467
817.071
518.56
501.519
791.024
475.243
439.478
470.565
420.179
415.332
949.796
1000.56
866.796
896.006
1000.48
868.163
949.479
750.405
897.697
762.468
730.122
828.181
821.275
693.596
523.764
622.708
517.218
524.483
560.35
584.279
482.727
450.739
513.828
433.883
449.486
467.376
495.094
422.851
653.378
465.455
530.292
484.586
467
462.126
396.749
440.472
438.036
893.104
858.544
882.909
744.475
859.368
883.808
892.784
888.614
738.08
844.335
858.605
855.272
876.597
877.182
933.077
881.872
954.418
819.885
986.624
853.869
893.529
802.72
818.826
822.302
648.789
850.102
774.451
767.691
746.486
599.668
677.775
658.053
721.544
707.563
699.492
675.359
660.452
674.623
564.338
742.084
624.496
611.214
652.589
650.542
625.984
527.183
669.154
638.325
606.818
645.703
522.86
640.154
584.34
636.475
594.119
643.452
498.227
497.81
532.836
442.898
555.365
458.808
479.831
699.753
731.871
679.549
785.118
676.064
769.604
701.139
671.425
657.091
651.633
673.431
715.267
810.863
815.151
702.873
800.784
710.727
716.749
680.786
662.762
675.63
680.533
638.62
646.576
573.607
517.177
641.118
657.348
559.238
618.541
502.188
620.363
496.408
650.613
532.549
572.532
429.049
434.536
448.574
392.463
472.356
406.456
408.187
606.163
485.809
482.829
638.986
507.728
582.227
542.769
446.206
356.885
444.223
462.251
401.249
441.254
302.107
513.1
479.079
565.009
468.074
465.664
503.199
444.567
287.927
491.482
354.666
1043.09
1035.39
1021.87
916.875
900.531
912.01
882.568
953.917
937.889
933.193
793.767
495.868
770.261
884.841
571.961
541.616
1117.23
1076.8
1103.14
1043.54
1075.95
1102.9
1118.17
1116.64
1040.91
1075.96
1094.71
1075.11
1100.77
1116.51
1097.26
1074.85
1079.47
990.674
1112.64
1060.57
1048.61
1071.14
948.887
1014.36
977.994
1033.81
1009.36
1050.07
1039.17
1008.83
958.569
895.672
1040.6
1012.58
947.2
1042.59
898.957
1040.58
941.471
1022.41
941.34
1051.04
1060.89
1059.61
949.689
962.441
1062.24
1069.06
955.387
1004.04
966.387
990.689
815.768
1066.17
927.885
837.586
997.126
1040.45
837.121
924.628
965.828
1061.02
885.299
1012.19
951.379
1034.45
939.113
1067.26
921.714
1010.06
515.568
806.558
618.599
608.351
614.768
625.311
492.234
911.791
904.309
718.175
934.421
724.699
774.074
775.762
533.402
466.715
466.294
494.611
536.807
525.275
506.345
430.067
299.457
414.502
292.107
396.735
288.131
338.516
287.94
429.48
290.526
287.926
287.926
563.563
639.923
544.469
628.525
351.545
330.809
349.868
328.435
515.339
557.198
440.694
460.188
346.605
321.277
429.776
461.141
403.527
448.659
384.237
402.014
314.396
324.993
414.679
311.695
429.288
334.93
503.201
345.907
392.907
424.657
498.561
344.667
392.938
466.44
339.169
389.143
399.225
431.24
353.444
383.172
420.146
337.607
306.482
363.738
373.696
303.377
289.265
299.284
289.288
287.985
291.891
288.609
288.059
287.927
365.321
307.328
292.089
353.813
289.427
780.847
725.865
597.039
567.068
728.794
599.959
778.828
767.483
561.35
689.672
571.062
717.857
592.163
733.807
329.465
321.603
356.206
352.093
321.563
356.664
329.632
328.84
351.776
320.375
355.114
321.255
356.451
327.442
620.645
642.982
537.115
484.467
679.927
589.144
502.397
565.701
458.694
492.045
453.041
537.054
473.583
520.428
321.742
318.852
352.629
343.787
325.078
316.778
349.982
464.298
458.035
440.985
422.946
486.532
437.071
434.26
452.682
415.926
423.88
413.007
428.299
426.427
444.639
409.327
412.738
393.514
358.103
429.595
395.264
366.499
385.115
332.307
355.593
312.914
373.781
336.661
360.789
419.054
420.194
389.168
441.307
395.551
456.665
407.059
373.321
353.5
318.169
310.349
361.749
360.544
320.185
471.811
384.195
432.348
474.151
385.528
409.009
407.261
445.869
380.046
406.418
432.499
376.59
394.885
399.944
411.794
369.18
392.516
405.233
360.31
376.479
384.727
350.047
299.481
312.847
317.974
291.463
292.171
303.958
429.46
394.964
430.346
393.15
395.797
380.004
416.866
287.977
287.955
287.927
288.07
287.93
287.927
287.926
350.367
289.541
289.673
287.928
430.717
461.162
383.676
470.868
385.499
408.478
405.403
401.79
417.252
372.246
423.353
374.165
391.302
388.53
382.173
377.311
319.485
394.417
343.356
360.124
332.33
297.445
291.499
288.401
298.105
289.118
289.165
288.342
351.426
300.787
301.191
344.166
346.913
327.897
293.865
346.612
288.134
288.199
296.649
341.188
288.072
288.109
325.796
287.985
287.99
289.175
289.395
287.94
287.938
288.096
287.928
287.928
287.945
287.937
287.927
287.927
287.927
287.926
287.926
287.927
287.926
287.926
287.926
287.926
287.926
287.926
287.926
288.05
432.52
374.18
422.307
294.712
421.783
454.788
379.058
321.655
416.159
301.831
464.241
499.153
540.762
481.283
461.219
442.125
393.82
291.021
287.926
288.653
322.067
288.322
427.595
395.592
309.568
459.467
425.102
395.468
298.356
414.8
391.815
293.355
438.771
389.066
380.416
288.779
327.235
295.703
287.992
345.192
288.294
288.368
287.927
287.938
287.943
287.928
288.081
287.928
287.928
287.926
287.927
321.148
291.543
287.969
287.954
288.054
287.931
287.945
287.927
287.926
287.926
287.926
287.926
287.926
287.926
287.926
287.926
287.926
287.926
287.926
287.926
287.926
287.926
287.926
287.926
287.926
288.313
288.034
287.935
287.926
287.943
287.926
287.926
287.926
287.926
287.926
907.577
1106.26
1027.45
1129.14
1040.21
1046.61
1141.97
1038.83
1147.26
287.926
287.926
287.926
287.926
287.926
287.926
287.926
287.926
287.926
287.926
287.926
287.927
287.926
287.926
287.926
287.926
686.353
304.877
304.592
435.297
479.362
343.467
467.492
394.466
288.558
288.002
287.926
962.57
963.457
977.408
853.027
721.108
648.295
553.462
430.14
312.281
288.24
546.105
482.022
516.824
476.111
505.368
485.696
508.959
466.548
446.16
844.542
797.841
850.93
722.547
792.092
695.684
804.405
855.056
842.838
813.569
847.101
818.397
800.802
792.598
834.883
838.442
790.662
749.081
764.838
724.618
700.897
768.788
747.286
700.699
735.469
687.45
735.421
685.766
652.177
695.68
670.614
684.162
668.489
682.247
656.034
636.261
656.151
652.824
641.182
865.495
847.994
695.706
716.401
744.281
914.523
864.516
906.843
886.734
720.662
752.485
727.554
695.481
726.56
795.029
858.658
869.647
864.268
867.383
871.647
865.321
857.1
790.906
851.26
838.126
810.004
831.561
812.777
796.677
656.662
699.354
669.991
685.94
668.587
690.443
657.077
700.48
723.441
675.131
749.95
676.774
759.486
697.023
628.492
497.61
851.265
881.926
868.76
915.966
883.702
870.88
848.998
850.323
861.609
863.157
848.467
835.323
852.974
855.083
833.125
857.57
867.742
868.353
858.032
871.845
864.092
851.474
850.387
913.54
877.166
859.805
882.482
868.525
843.737
848.832
853.572
861.293
841.578
834.156
844.747
852.871
827.406
784.613
859.065
837.48
845.525
824.074
820.333
795.297
777.622
830.645
819.734
786.952
765.694
822.185
806.147
779.817
739.792
761.626
723.347
698.892
763.907
744.196
696.171
735.106
794.297
730.619
700.107
771.137
743.354
693.343
725.079
685.494
732.71
680.09
715.04
683.809
727.709
671.975
656.311
706.768
673.652
717.877
667.302
697.931
662.206
638.826
655.271
651.405
642.187
633.719
656.21
644.96
643.976
655.547
686.75
701.33
660.359
691.822
655.01
661.509
655.536
718.115
709.069
666.418
699.299
661.04
661.435
637.082
644.615
639.511
642.634
632.531
646.328
641.985
638.103
677.253
658.65
657.231
677.308
718.414
780.816
807.755
722.185
791.399
714.417
724.404
689.202
697.604
688.123
695.477
554.634
669.586
527.093
511.253
663.082
534.798
613.81
875.438
878.574
849.172
844.214
854.714
864.546
869.435
851.487
801.852
798.384
772.887
809.615
954.772
911.823
870.846
975.086
890.909
972.448
960.846
848.521
831.475
849.686
997.161
1120.48
1121.55
996.609
992.131
1114.19
1117.19
987.937
974.664
1110.8
984.164
1101.1
959.086
1085.88
1114.78
960.251
1047.35
919.181
976.348
1048.49
920.824
958.935
958.914
974.958
1041.92
917.596
1046.33
920.177
957.801
928.853
1033.7
904.531
927.943
951.354
1011.4
871.478
896.869
883.17
963.109
793.64
980.821
827.469
876.903
878.977
960.895
777.497
827.648
872.941
967.06
774.739
895.402
832.343
1012.69
800.431
983.13
780.948
926.505
298.077
287.926
287.927
287.926
287.926
378.227
290.077
321.123
288.576
287.952
287.946
287.926
287.926
287.926
287.926
287.926
287.926
287.926
858.009
874.772
955.906
508.107
315.119
289.417
288.007
287.926
287.926
848.305
868.637
879.612
504.921
311.804
288.406
287.927
287.926
287.926
643.921
697.06
666.202
482.373
299.767
287.945
287.926
287.926
287.926
648.829
691.448
546.374
426.308
288.62
287.927
287.926
287.926
287.926
473.214
702.513
505.303
466.436
287.934
292.507
287.926
287.926
313.508
481.461
287.934
365.428
287.926
287.927
854.838
860.279
859.061
855.835
877.205
735.74
863.159
887.014
739.085
867.291
881.434
866.854
721.358
945.69
723.16
345.003
418.03
333.814
512.653
345.475
417.868
327.457
289.784
303.61
288.849
313.351
289.214
299.147
288.19
874.503
843.755
876.164
717.131
755.016
736.808
633.42
729.666
691.196
769.846
634.621
344.779
413.623
322.569
493.605
338.906
396.166
300.795
288.916
296.573
288.054
303.524
288.194
289.989
287.944
806.433
816.523
834.167
701.646
621.793
628.879
678.508
593.049
677.941
690.666
576.562
590.05
537.257
333.884
358.382
294.556
463.825
304.861
298.915
288.178
288.066
288.891
287.929
289.905
287.934
287.96
287.928
908.43
876.672
906.023
935.579
690.735
597.116
666.233
745.953
568.589
709.774
754.038
783.294
531.757
548.831
373.819
295.244
288.263
287.986
288.968
288.218
287.932
287.927
287.928
287.934
287.926
288.278
288.575
287.929
287.928
468.96
333.756
318.796
357.665
479.524
288.018
291.015
456.725
328.319
332.322
489.521
471.077
293.431
359.856
1011.73
438.882
944.565
433.066
697.646
366.245
571.115
287.93
305.714
287.928
880.444
882.244
912.774
896.659
780.044
1004.74
916.475
885.823
778.012
863.217
729.168
886.959
714.771
734.127
820.516
791.23
712.439
662.904
669.284
640.031
660.556
575.393
596.101
606.289
599.657
574.952
551.027
621.923
579.654
571.38
485.183
539.81
496.877
542.965
288.89
358.659
875.744
871.448
873.864
876.825
872.857
874.542
875.01
957.362
853.374
856.942
885.3
769.778
773.886
883.893
297.881
297.493
320.769
314.832
297.174
320.272
298.298
804.149
860.405
847.096
830.416
848.639
822.994
801.897
810.146
826.924
761.328
761.373
727.371
812.075
678.702
293.084
294.764
315.579
309.666
294.602
293.487
312.317
643.574
694.604
654.948
679.95
661.382
679.48
635.234
624.43
609.423
580.323
555.894
525.494
599.477
495.355
288.666
289.846
298.23
295.746
289.372
289.002
293.846
671.636
696.412
639.119
717.6
652.581
724.507
657.213
542.014
548.409
547.056
488.141
466.492
487.799
470.7
287.934
287.988
288.247
288.11
287.956
287.944
288.002
422.311
625.912
542.698
662.841
510.751
501.888
505.254
733.944
520.052
631.904
507.304
530.583
512.457
509.531
479.255
464.707
443.879
521.005
441.505
519.153
481.418
287.926
287.926
288.258
291.016
287.928
288.142
287.926
295.057
287.929
287.99
288.319
288.963
287.926
287.927
872.473
882.43
868.869
879.488
885.18
869.012
872.334
737.948
809.516
811.131
827.05
671.999
673.339
826.382
862.382
860.5
859.083
862.575
871.299
883.867
895.522
862.198
890.395
867.778
865.465
812.196
735.327
808.734
826.189
668.245
673.491
819.559
859.643
842.261
854.021
851.285
874.458
869.467
870.04
868.932
870.663
870.744
873.856
876.082
868.754
867.975
876.231
874.567
868.322
869.221
874.291
874.873
880.206
873.85
867.789
874.462
873.576
869.038
872.803
869.682
869.448
862.681
871.455
869.144
866.565
872.198
853.075
863.292
863.318
871.675
858.588
866.793
863.197
726.974
870.54
874.543
815.293
659.239
665.587
810.786
853.6
920.546
840.749
874.705
757.924
770.656
850.814
865.952
712.702
846.58
807.779
657.468
663.848
790.237
406.844
399.182
358.219
345.362
400.763
358.487
405.336
408.11
345.686
401.459
358.318
401.837
358.695
408.364
289.889
290.253
289.547
289.676
290.127
289.446
290.009
297.131
314.327
295.821
317.892
296.631
319.397
296.018
289.667
289.479
289.598
289.003
289.901
289.255
289.373
800.839
887.423
842.061
839.069
844.548
852.515
798.702
790.332
679.952
750.899
754.229
649.028
797.837
612.168
781.291
815.83
827.636
769.161
744.605
786.048
749.715
691.521
799.95
742.41
693.839
700.732
655.009
591.89
699.985
527.279
567.079
652.007
723.517
659.786
711.203
672.627
789.471
827.486
837.857
779.874
746.329
777.45
725.417
690.832
771.57
743.252
695.502
729.447
667.97
720.198
677.323
813.058
663.933
770.703
718.351
640.394
758.773
617.462
704.039
715.152
651.197
705.246
567.973
621.373
650.106
605.034
724.743
679.41
673.259
564.278
591.548
627.121
406.497
399.816
357.121
343.641
407.743
397.715
354.648
404.628
341.877
394.319
344.398
395.927
350.58
401.232
288.742
289.253
288.729
288.629
289.051
288.914
288.473
291.649
306.881
290.923
303.414
292.158
308.148
290.388
288.472
288.382
288.368
288.113
288.614
288.264
288.258
634.861
712.934
654.589
682.363
657.114
692.033
631.969
601.896
562.151
544.407
596.634
498.787
617.755
481.348
614.385
622.897
636.417
600.91
624.654
675.944
685.952
620.448
684.446
621.344
623.553
592.15
536.952
537.372
586.086
471.593
473.267
583.402
603.38
590.199
591.186
600.965
624.033
630.416
642.027
609.894
637.878
674.648
680.606
629.177
675.805
627.758
640.696
647.571
683.437
685.8
657.033
679.905
652.672
651.059
618.513
603.832
602.353
621.559
631.68
641.802
637.637
635.112
552.398
637.363
600.445
544.651
538.001
583.148
517.073
562.532
553.211
563.091
521.294
467.642
476.475
497.424
530.917
569.857
547.123
515.052
505.265
506.714
499.29
385.787
392.275
335.628
326.918
395.547
389.205
323.613
369.017
316.69
367.463
297.788
383.089
309.772
343.76
288.01
288.18
288.016
287.989
288.105
288.054
287.963
288.242
292.294
288.128
289.01
288.441
290.775
288.035
287.959
287.95
287.945
287.93
287.98
287.939
287.936
643.426
696.346
627.857
715.415
629.633
718.186
644.109
608.138
553.407
542.274
597.228
474.691
586.756
484.518
617.849
597.481
605.715
613.362
658.574
740.266
741.931
672.146
739.34
660.54
668.145
619.569
617.744
565.555
607.219
514.249
499.404
618.231
628.28
645.656
627.188
641.925
682.563
703.183
670.583
740.908
663.574
732.432
690.561
651.784
614.704
634.028
632.618
664.34
654.974
647.521
672.274
688.192
745.539
764.016
686.727
753.412
674.232
699.612
698.552
770.583
773.171
716.7
761.367
707.263
708.722
662.894
664.108
645.881
678.256
673.733
694.323
682.113
687.168
497.637
521.531
538.183
496.9
498.603
498.313
477.156
550.075
522.332
539.357
491.311
493.325
480.889
486.551
466.937
510.497
448.296
482.426
363.443
430.613
447.105
295.653
344.616
291.182
290.177
314.895
314.962
288.731
289.378
288.409
289.037
288.006
294.409
288.083
288.19
287.928
287.931
287.927
287.93
287.929
287.93
287.928
287.938
287.985
288.394
288.018
287.96
287.947
288.051
287.941
287.975
288.501
288.124
287.967
287.945
288.091
469.098
475.91
445.399
519.177
446.474
516.731
477.848
385.935
392.08
309.707
318.387
382.158
405.922
305.656
472.594
461.87
427.718
507.882
436.229
515.415
461.583
419.157
399.137
333.166
329.725
400.262
416.989
336.247
414.35
388.193
333.868
336.958
395.867
405.806
337.916
293.239
289.841
287.926
291.144
287.929
287.926
288.535
287.926
287.926
287.941
287.926
287.926
446.579
295.164
287.926
365.113
287.927
295.066
291.933
293.663
291.124
289.003
339.59
291.99
306.412
336.717
287.939
313.812
287.971
310.728
287.928
293.239
298.765
287.928
288.434
288.608
288.656
287.929
287.976
329.228
457.082
347.356
305.705
303.111
293.34
292.989
302.76
293.033
306.217
298.515
299.76
290.847
290.338
301.129
297.955
290.035
289.372
291.769
288.356
288.226
290.872
290.097
288.118
287.951
288.064
287.934
287.935
287.995
287.978
287.93
432.525
432.921
416.732
493.588
404.844
475.188
447.428
291.3
287.997
287.965
288.889
288.593
287.927
287.929
304.766
292.56
301.167
291.696
302.148
292.469
303.26
295.72
289.618
293.816
288.751
295.918
289.318
293.025
317.254
341.628
310.543
343.234
314.059
347.17
311.451
297.51
305.93
336.67
331.797
304.386
300.51
325.8
288.518
288.051
288.329
287.95
288.948
287.999
288.135
292.3
323.276
291.24
298.686
295.188
311.587
289.58
288.11
289.172
291.686
291.74
288.478
288.35
289.137
287.953
287.982
288.52
288.141
287.988
287.948
288.119
288.002
289.278
288.424
288.162
288.111
288.355
288.093
384.785
379.49
324.187
333.973
370.219
395.766
328.248
624.715
512.258
553.459
621.486
551.677
595.077
600.099
641.368
526.205
559.587
653.809
562.624
621.209
612.275
564.116
668.814
532.568
530.082
662.403
564.354
627.247
511.741
596.042
600.947
459.003
516.147
520.925
455.826
289.013
343.743
339.914
308.521
287.99
301.948
287.959
287.93
287.929
287.984
292.383
287.941
290.633
287.935
498.719
579.23
562.801
457.559
512.767
459.338
503.839
314.225
288.055
338.612
298.257
287.947
289.949
287.929
287.95
287.926
287.932
289.81
287.931
288.255
287.929
475.073
524.037
516.511
445.537
486.134
450.694
484.174
288.961
287.927
288.787
288.818
287.927
287.953
287.927
287.926
287.926
287.927
288.066
287.926
287.93
287.926
334.598
398.429
473.83
318.263
449.92
368.39
402.943
287.926
287.926
287.95
287.932
287.926
287.926
287.926
287.926
287.926
287.926
287.926
287.926
287.926
287.926
535.698
433.794
487.931
459.617
516.772
475.953
517.353
293.776
288.32
292.079
288.462
293.38
288.391
288.258
288.472
443.235
339.062
478.797
456.393
407.629
289.826
451.678
352.698
443.211
482.699
468.004
424.734
291.775
287.926
288.974
287.927
407.382
288.263
287.936
287.927
289.766
307.566
287.928
426.239
288.565
288.016
287.927
599.231
510.65
593.098
460.893
519.853
521.804
460.983
488.57
547.212
534.038
456.237
489.617
495.631
454.168
441.474
508.899
498.143
435.096
473.952
481.375
410.417
300.759
354.751
295.863
293.544
298.586
340.042
288.811
292.22
310.66
400.202
364.024
314.414
399.619
297.376
438.555
548.546
551.898
656.513
459.152
652.807
457.901
414.363
537.62
518.477
617.002
447.41
570.454
418.69
294.865
502.176
480.28
550.143
347.011
522.201
291.527
288.583
288.048
429.43
380.652
287.99
288.018
287.926
287.947
387.176
303.772
309.166
287.979
287.97
287.927
287.926
287.926
288.034
287.933
287.926
287.926
287.926
565.739
605.982
550.682
614.52
552.668
587.677
564.097
288.079
289.867
290.346
288.122
288.664
287.982
287.952
289.966
288.183
290.63
288.102
289.393
288.038
288.134
288.635
288.703
295.181
294.679
288.598
294.408
288.525
287.93
287.929
289.366
292.913
288.02
291.617
287.992
288.612
287.928
288.126
289.662
287.953
288.423
287.933
287.927
287.926
287.929
288.009
287.928
287.935
287.926
287.926
287.926
287.926
287.932
287.926
287.927
287.926
288.684
288.746
295.178
294.198
288.651
294.17
288.595
290.118
290.178
288.185
292.728
288.312
290.778
288.48
292.518
288.419
288.227
287.926
886.525
909.333
877.524
883.876
738.994
488.692
932.305
944.501
879.899
958.57
960.997
906.099
867.25
983.183
1020.28
911.95
949.879
998.898
807.732
871.513
915.511
962.676
778.812
906.425
960.421
772.427
887.601
872.121
851.042
953.264
793.868
869.671
825.749
878.694
836.385
440.244
1000.2
1015.58
1025.57
1033.04
1076.33
1054.29
999.088
889.208
1006.84
980.624
794.891
731.717
940.212
780.484
691.713
586.015
926.096
906.133
910.567
949.87
907.53
911.918
943.265
950.437
958.446
966.171
921.399
910.128
916.073
914.408
941.316
917.077
930.538
961.407
936.188
920.029
981.937
976.742
999.417
978.473
933.359
945.454
927.213
956.992
977.588
952.6
946.982
1010.3
955.254
1004.57
960.401
1020.75
989.934
976.472
982.897
957.633
980.342
943.644
967.523
923.189
939.069
991.96
925.132
944.12
969.977
975.358
941.178
904.302
960.983
866.353
905.79
935.753
941.119
943.416
916.95
958.819
916.691
959.006
917.97
959.568
876.571
859.147
918.825
838.029
921.659
823.317
912.34
916.197
932.532
965.767
934.356
924.811
972.015
959.826
850.583
847.478
922.196
821.776
819.213
925.94
891.211
838.02
887.221
939.102
939.264
968.252
926.762
932.958
847.456
845.881
929.109
828.588
929.77
840.672
756.234
824.074
771.52
899.016
813.891
843.178
808.678
1005.64
1018.43
1024.6
1035.5
1057.32
1032.41
1075.87
1043.29
1030.69
1027.74
995.753
956.813
993.824
924.155
894.068
965.38
870.445
853.911
885.238
842.346
819.434
633.128
765.451
678.499
623.495
744.377
564.04
922.462
890.756
896.371
883.786
894.819
900.711
916.617
934.596
892.644
920.917
926.995
904.035
910.696
955.586
978.508
938.514
937.373
891.435
976.986
937.202
921.338
954.824
849.587
882.969
839.688
912.13
881.651
925.977
898.797
864.923
809.362
765.734
906.436
861.002
793.798
899.155
764.547
877.779
794.224
866.08
789.867
904.181
918.963
895.734
809.203
824.244
913.863
908.195
834.197
904.854
837.039
850.092
826.629
902.467
844.086
405.864
523.085
287.926
287.926
287.926
287.926
287.926
287.926
287.926
287.926
287.926
287.926
287.926
287.926
287.926
287.926
287.926
287.926
287.926
287.926
287.951
287.926
287.926
287.926
288.09
287.926
287.926
287.975
287.926
287.926
287.926
287.926
287.926
287.926
287.926
287.926
287.926
287.927
287.948
287.927
287.926
287.936
287.926
287.926
287.926
287.926
287.926
287.926
287.926
287.926
287.926
287.926
287.926
287.926
287.926
287.926
287.926
287.926
287.926
287.926
287.926
287.926
287.926
287.926
287.926
287.926
287.926
287.926
287.926
287.926
287.926
287.926
287.926
287.926
287.926
287.926
287.926
287.926
287.926
287.926
287.926
287.926
287.926
287.926
287.926
287.926
287.926
287.926
287.926
287.926
287.926
287.926
287.926
287.926
287.926
287.926
287.926
287.926
287.926
287.926
287.926
287.926
287.926
287.926
287.926
287.926
287.926
419.322
584.675
460.364
727.421
795.929
640.883
610.501
772.215
529.664
575.209
478.994
517.109
552.03
537.398
556.614
573.806
606.112
583.9
572.096
786.341
727.035
776.018
869.796
778.763
876.116
773.24
638.212
683.117
677.613
532.808
486.886
366.829
467.057
501.431
473.921
486.83
441.115
838.623
673.622
655.202
630.694
606.211
673.067
657.092
614.955
542.772
671.053
551.825
578.072
730.122
671.659
604.362
598.029
734.972
758.76
657.098
709.303
613.774
635.271
510.583
460.128
500.075
488.454
560.785
486.785
448.271
360.618
642.625
561.78
923.805
1022.46
1014.2
992.42
869.916
1102.63
1121.89
903.279
1135.45
1022.47
1133.73
1134.2
1127.36
1002.42
1116.59
1107.5
1103.43
988.862
992.183
1100.37
987.585
1080.52
953.164
1018.53
1110.31
1002.86
970.852
1085.27
958.505
1095.97
1042.91
1132.57
1034.43
992.372
1132.44
1019
912.169
951.393
951.225
887.614
887.621
922.162
921.781
877.987
862.384
913.471
900.021
919.305
869.14
907.766
904.005
943.473
931.342
882.426
875.089
911.811
917.375
874.083
887.727
889.051
866.872
866.156
858.361
857.747
867.707
844.437
851.072
910.332
885.459
878.321
913.859
390.322
405.808
379.354
429.647
403.005
421.149
400.376
418.72
416.412
422.756
287.927
287.926
287.926
287.926
1085.23
1067.24
1071.26
1081.04
1094.63
1093.06
1079.26
1112.62
1119.58
1099.96
1126.05
1083.15
1090.75
989.533
1041.08
1053.74
992.222
942.271
1019.44
899.855
961.902
831.306
863.635
919.576
748.553
794.302
851.76
730.665
608.444
540.873
642.542
477.822
287.926
287.926
287.926
287.926
287.926
287.926
287.926
287.926
287.926
287.926
287.926
287.926
287.926
287.926
287.926
287.926
287.926
465.801
446.51
448.62
287.935
287.926
287.926
287.926
287.926
287.926
287.926
287.926
287.926
287.926
287.926
287.926
287.926
287.926
287.926
287.926
863.177
865.282
851.922
860.34
853.199
852.506
848.326
843.374
842.832
844.518
843.075
847.75
848.892
851.07
877.136
885.573
857.077
847.4
882.342
893.103
937.016
848.322
831.827
837.134
851.046
847.125
845.641
839.469
869.936
870.626
866.748
883.766
885.493
900.84
899.353
871.486
871.547
889.042
859.767
860.524
881.293
883.999
890.932
897.318
862.629
859.776
861.447
888.494
898.477
860.026
845.464
835.126
861.42
856.403
841.22
850.496
868.047
869.54
869.334
885.623
885.043
899.861
899.824
857.106
857.217
862.204
852.587
852.928
859.158
860.767
863.989
870.161
917.354
869.22
874.852
913.315
919.642
876.65
867.504
860.854
831.32
874.508
843.196
896.082
872.146
902.797
911.592
868.32
859.397
908.599
894.765
823.591
846.186
825
790.299
756.356
800.526
766.95
863.995
852.813
856.199
865.82
855.541
866.252
863.048
856.29
868.294
869.685
872.297
871.596
861.059
863.344
960.416
939.676
898.03
895.104
874.23
912.454
951.512
856.13
858.917
859.228
851.175
837.313
861.863
831.975
819.936
827.459
804.321
761.175
797.559
791.976
756.756
873.694
902.11
900.35
859.004
866.508
890.456
894.966
794.485
819.152
823.771
734.598
738.455
750.255
747.271
866.225
873.784
878.613
878.608
890.994
888.86
867.564
884.807
865.287
862.49
872.44
865.909
866.477
888.172
1086.79
1044.79
828.707
510.107
1158.18
1153.61
1092.46
1130.96
933.732
979.005
854.07
618.522
688.825
535.006
1155.43
1172.98
1130.87
1161.4
1176.93
1133.47
1152.8
1159.02
1160.79
1171.13
1144.67
1177.62
1137.62
1170.04
1144.52
1150.09
1139.03
1083.37
1168.38
1106.57
1108.97
1099.32
1013.18
968.282
990.994
1043.08
1054.77
1046.47
937.399
889.903
929.765
774.769
993.255
809.883
869.479
873.391
697.619
613.259
749.537
716.666
809.847
788.172
557.927
509.119
676.176
458.707
680.078
420.434
587.289
380.027
411.78
450.901
400.831
368.719
436.698
375.604
498.996
403.964
914.904
508.502
386.171
287.927
287.926
287.926
287.926
1070.27
910.53
476.476
393.407
301.458
617.492
1043.73
601.511
521.89
697.572
443.236
431.952
451.409
360.906
316.936
318.454
289.672
288.181
289.18
297.703
538.294
479.745
531.433
478.55
469.069
439.312
458.152
424.375
438.197
382.234
444.481
290.629
369.439
288.005
297.687
287.933
287.929
287.954
288.731
288.057
287.97
287.926
287.926
287.926
287.926
287.926
288.059
287.926
287.926
287.926
287.926
287.926
287.926
287.926
287.926
287.926
287.926
287.926
296.292
287.926
287.926
287.926
287.926
287.926
287.926
287.926
287.926
287.926
287.926
287.926
287.926
287.926
287.926
287.926
287.926
287.926
287.926
287.926
287.926
287.926
287.926
287.926
287.926
287.926
287.926
287.926
287.926
287.926
287.926
287.926
287.926
287.926
287.926
287.926
287.926
287.926
287.926
287.926
287.926
287.926
287.926
287.926
287.926
287.926
287.926
287.926
287.926
287.926
287.926
287.926
287.926
287.926
287.926
287.926
287.926
287.926
287.926
287.926
287.926
287.926
287.926
287.926
287.926
287.926
288.639
287.926
287.926
287.926
287.926
287.926
287.926
287.926
287.926
287.96
287.926
287.926
360.42
287.926
287.926
380.819
287.927
287.926
287.926
287.926
287.926
287.926
287.926
287.926
287.926
287.926
287.926
287.926
287.926
287.926
294.722
287.926
287.926
287.926
287.926
287.926
287.926
287.926
287.926
287.926
287.926
287.926
287.926
287.926
287.926
287.926
287.926
287.926
287.926
287.926
287.926
287.926
287.926
287.926
287.926
287.926
287.926
287.926
287.926
287.926
287.926
287.926
287.926
287.926
287.926
287.926
287.926
287.926
287.926
287.926
287.926
287.926
287.926
287.926
287.926
898.67
975.041
975.911
948.451
948.357
1046.11
1045.75
789.069
793.753
795.38
730.852
731.294
738.975
736.6
881.245
906.275
904.035
878.731
897.347
903.306
916.151
960.609
905.887
965.521
923.064
937.086
977.201
955.301
868.318
848.402
872.334
903.681
898.942
890.487
866.991
818.711
769.057
807.302
873.244
845.74
824.561
784.192
895.627
972.343
963.429
942.749
1040.42
929.896
1029.16
868.638
842.365
812.773
838.457
758.477
740.498
753.681
806.848
735.767
744.968
830.768
829.36
757.819
746.796
876.726
909.764
924.191
874.766
879.185
925.644
911.768
805.37
806.56
751.152
735.339
733.987
832.548
747.342
860.503
940.393
895.639
901.81
1004.68
959.611
853.06
893.212
881.877
903.766
929.291
933.615
917.226
929.654
760.502
841.434
797.773
905.258
860.512
796.409
750.008
376.663
468.28
287.926
287.926
287.926
287.926
287.926
287.926
287.926
287.926
287.926
287.926
287.926
287.926
287.926
287.926
287.926
287.926
287.926
287.926
287.926
287.926
287.926
287.926
287.926
287.926
287.926
287.926
287.926
287.926
287.926
287.926
287.926
287.926
1153.79
1138.65
1084.41
1080.46
1148.83
1175.05
1137.13
1153.95
1174.79
1137.11
1148.66
1147.82
1149.61
1159.87
1128.7
1170.29
1134.88
1142.22
1107.85
992.084
711.792
478.381
1135.24
579.846
1104.74
550.5
655.798
1104.02
690.415
1100.52
703.789
1085.21
669.207
1064.63
520.522
868.52
422.903
591.662
1014.8
561.348
840.996
465.364
744.827
447.006
804.548
398.269
616.551
327.108
412.248
613.374
432.567
602.167
368.279
457.599
394.87
535.739
403.212
332.02
344.686
986.547
1148.15
998.463
1135.19
1148.72
998.98
985.373
743.682
568.71
767.429
577.651
566.499
767.206
743.431
978.775
1127.17
1118.62
961.541
1140.78
990.52
951.167
737.68
569.741
543.968
732.869
559.756
759.379
715.119
833
1078.65
907.79
1006.37
899.728
1022.89
834.437
622.927
519.558
685.504
485.582
674.458
489.323
625.689
760.518
937.613
897.449
677.147
959.558
754.221
689.357
569.472
451.893
425.804
512.687
457.439
565.223
520.746
564.319
839.744
609.773
744.646
623.953
782.373
552.382
436.546
395.274
470.346
375.265
477.703
365.776
435.651
506.152
684.985
631.883
450.611
715.583
500.635
445.566