/*--------------------------------*- C++ -*----------------------------------*\
  =========                 |
  \\      /  F ield         | OpenFOAM: The Open Source CFD Toolbox
   \\    /   O peration     | Website:  https://openfoam.org
    \\  /    A nd           | Version:  9
     \\/     M anipulation  |
\*---------------------------------------------------------------------------*/
FoamFile
{
    format      ascii;
    class       surfaceScalarField;
    location    "0.0016";
    object      phi;
}
// * * * * * * * * * * * * * * * * * * * * * * * * * * * * * * * * * * * * * //

dimensions      [0 3 -1 0 0 0 0];

internalField   nonuniform List<scalar> 
37734
(
1.25448
-0.52544
-1.10187
2.74718
0.552735
-4.83922
1.9906
1.44538
-0.412807
-4.71876
0.507941
-1.20227
3.07553
1.35979
-4.8499
-0.712931
-0.523041
2.09387
0.498234
-4.18134
2.4392
-4.18177
-0.902259
-0.341423
0.217535
0.57094
0.399431
-0.443468
-0.226635
0.257804
0.390606
0.156921
0.528032
-0.604209
0.453187
0.192202
0.318691
2.99206e-05
8.7861e-06
-1.01531e-05
-0.000233919
-2.1173e-05
7.1972e-06
3.63291e-06
-2.08862e-06
1.70255e-06
2.71992e-06
-4.83375e-06
-2.37236e-05
-5.96751e-06
-3.01057e-05
-1.96931e-05
-3.78977e-06
-4.30899e-06
-2.52368e-05
1.77845e-07
-5.49944e-07
-1.71626e-06
-3.93838e-08
2.76121e-07
6.54198e-08
-0.131803
-3.53437
0.740972
-0.623642
2.8274
0.228115
0.494747
0.33021
-0.575639
-0.173349
-2.69991
0.734753
-0.383334
2.79899
-0.94732
1.36773
-4.19465
0.952199
0.696577
-0.731962
0.669691
-3.08334
0.374351
-0.159201
-2.01085
0.19118
0.411211
0.271837
0.0969218
0.059535
-0.0925599
-0.0814672
-0.632783
0.0983498
-0.197219
0.177712
-0.173802
0.227971
-1.15982
0.0938228
0.0500961
-0.0547261
0.0543472
-0.386181
0.0289364
-0.0496224
-0.378256
0.0318976
0.050859
0.0545317
0.000486786
-0.00261582
-0.0113854
-0.0236559
0.00228059
0.00212147
0.0011463
-0.0057392
-0.00220902
-0.0123883
0.000587418
0.000932222
5.50385e-05
-0.000341983
-0.000115839
-0.000521539
1.97193e-05
4.95062e-05
-0.0433462
-0.00659511
0.000541624
0.00195916
0.00379175
-0.0399324
-0.0183556
-0.313396
0.0129351
0.00900946
0.0268357
-0.944062
2.77764
0.933343
1.01167
-3.27022
-2.71977
0.564149
-0.491203
2.01273
-0.909004
1.0346
-3.62418
-0.679283
0.728586
-0.181439
-3.57597
0.758501
2.37223
-3.01674
-0.611104
0.57096
1.5984
1.15413
-3.79331
0.863131
2.47392
0.924675
0.990461
-3.36573
-0.178884
-3.28918
1.55426
0.507149
-0.409896
-1.9441
0.23186
0.548057
-1.14539
-0.874512
0.900821
-3.78932
1.10259
1.06039
-3.87712
0.959501
0.762607
-3.2377
-0.547197
1.0871
0.687154
0.432233
-2.63342
-1.44597
0.139407
0.339442
-0.785129
0.635651
-3.50339
1.14631
-0.139858
-1.46321
0.129799
0.25903
-2.95119
0.101526
0.230288
0.502615
-3.10622
0.916168
0.833543
0.617387
0.381993
-2.31294
-0.121182
-1.01543
0.166881
0.145268
-0.0823489
-0.561529
0.0635085
0.104334
-0.44302
-0.550406
0.388959
-2.4055
0.615514
0.160531
-2.75871
0.73467
0.348795
-2.03416
-0.298289
0.234237
0.294025
0.204265
-1.22661
-0.389028
0.0406568
0.0601998
-0.442637
0.294251
-1.85849
0.461552
-0.0233772
-0.194945
0.0130591
0.0219347
0.0232164
-1.69704
0.0192782
0.0296944
0.156875
-1.17259
0.265898
0.11098
0.144791
0.0665504
-0.709001
-0.009232
-0.0765357
0.00742288
0.00744958
0.00138216
-0.0438635
-0.00115355
0.00529884
-0.0537613
-0.0634873
0.0128991
-0.213195
0.024218
0.0118987
-0.550206
0.0993867
0.0343077
-0.359037
-0.0433683
-0.047986
-0.00167061
0.00416992
0.00208718
0.00331905
-8.56605e-05
1.42881e-05
-0.000188794
-3.96631e-06
1.25406e-05
4.70691e-06
-0.000138814
-0.00204932
-0.00670809
0.000120149
0.000228962
0.00044004
-0.03405
0.0279603
0.0625708
-0.0867433
-0.0454071
0.0193966
0.0189979
-0.0715796
0.00486821
-0.0542385
0.00835731
-0.0459346
-0.00238318
0.00125652
0.00155533
0.003358
-0.223797
0.0182326
0.0243467
-0.00917232
0.0025914
0.00496517
0.893267
-7.06143
-0.504471
-0.180547
7.76469
0.932285
-7.3104
4.64374
7.11596
0.501409
2.73472
-4.93713
-2.31309
-2.34992
5.40059
2.56386
-1.84842
-6.71671
3.63828
5.71545
2.11856
4.45566
-2.89781
-1.70872
-4.59356
3.30697
1.483
-0.412607
-1.59008
0.202238
0.168217
0.0875462
-1.20241
-1.95982
2.11167
-3.66564
1.5401
0.985979
-0.00248068
-0.0266199
0.00115334
0.00165285
0.000712255
-0.0134996
-0.00444891
0.00119611
-0.00534189
0.000826718
0.000619113
2.0827e-06
9.65524e-07
-9.11876e-06
6.77556e-06
-9.08257e-06
-9.48892e-07
-5.48995
7.41827
0.551043
-8.43743
-1.67046
7.26979
0.484219
4.11529
1.25385
-6.29755
-1.46705
-0.702418
6.7473
1.91324
7.05888
2.01764
-1.52465
-5.70828
6.41559
3.31861
4.24829
-0.797894
-3.00156
1.13122
-6.09984
3.32703
-3.65116
0.273344
3.22043
-4.85821
-1.3961
4.03208
6.56032
2.3381
-0.610082
0.834091
2.43284
-4.42189
-5.75771
5.77226
2.50836
3.08561
-2.15196
-1.41002
-5.71671
2.33361
1.41639
4.35231
-3.82712
-2.48807
-4.1958
4.27823
2.11627
3.89086
1.7411
-2.46787
-4.73104
3.13258
0.110363
-0.526258
-0.287289
0.101746
-0.897654
0.0614951
0.43517
-1.98127
-0.757603
0.316241
0.450976
-2.61461
-1.32095
0.893112
0.593949
0.0152937
-0.104053
-0.0538613
0.00726251
0.0127318
-0.189506
-4.1496
1.8166
0.826706
0.010691
-0.0536081
-0.0157995
0.00902853
-0.107623
0.00538334
3.22092
-2.31798
-1.32604
-4.10158
2.28909
0.08392
0.0456189
-0.132042
-0.792071
0.0906687
0.000172453
-0.00138928
-0.000247592
-0.00164682
8.76306e-05
0.000172796
-0.00116099
-0.000198166
0.000127739
-0.00113517
4.79954e-05
0.000116942
-0.00747935
0.00420557
0.00558181
2.67927e-05
-2.99078e-05
4.39401e-05
-0.000143933
1.03485e-05
-1.28499
5.49448
2.02683
-5.5498
-1.85399
2.58922
-1.96183
-0.427418
1.60006
-4.44245
0.998315
1.12185
-0.308244
0.0250195
0.0133586
2.2907e-05
-0.000126738
-2.92599e-05
-0.00012553
8.84297e-06
2.22387e-05
-0.935312
-0.476339
0.16063
0.230885
-1.13811
0.188989
0.000223968
-0.000552092
-0.00366491
0.000172409
9.08091e-05
6.4743e-06
3.99042e-06
6.23031e-06
-1.62177e-05
-5.01426e-06
-1.22409e-05
2.64029e-06
5.39243e-06
-5.92129e-06
1.38924e-05
-1.89396e-05
-2.93362e-05
7.29026e-06
1.26204e-05
4.8055e-06
-2.2515e-06
-4.15686e-06
-1.49383e-05
-1.23749e-06
4.19516e-06
1.80269e-06
2.88113e-06
-8.91172e-06
-1.10499e-05
-3.61155e-05
-2.72364e-06
-2.75098e-06
-5.15804e-06
-6.71828
-2.69495
-0.388702
0.790414
4.65254
2.84764
0.527353
6.71906
-6.88399
4.5893
0.41355
2.70172
5.05984
4.57509
7.17579
-7.4074
0.940266
-6.92887
1.01043
4.62387
0.792559
4.94966
4.83107
2.87915
-0.954746
-3.19547
-0.902233
0.324716
0.455998
0.59549
4.92924
2.03338
-1.89461
-5.9604
3.65351
1.6187
1.17066
-1.31268
1.7398
3.01618
4.28719
-6.30881
2.01225
-1.22569
1.30403
1.53584
-5.34019
1.72275
2.75832
0.574017
0.714243
-0.00145877
-0.0129658
-0.00186917
0.00039563
0.000899258
0.000588024
0.0480748
0.0249866
-0.128754
-0.485796
0.0365349
0.00781518
0.0045389
-0.0216569
0.010557
0.0451355
0.0479494
-0.560011
0.0233177
-0.00767674
0.00326334
0.00212969
-0.147248
0.00638203
0.00951458
0.00121826
0.00291037
-1.30732e-05
-0.000107019
-1.14893e-05
2.83882e-06
7.63619e-06
8.554e-06
0.000433693
0.000197667
-0.000699819
-0.00550242
0.00028377
5.19406e-05
3.86514e-05
-0.000136388
9.68715e-05
0.000266323
0.000406212
-0.00678068
0.000151465
-4.58695e-05
3.05088e-05
2.18264e-05
-0.00137616
4.28415e-05
7.2015e-05
8.24348e-06
2.34279e-05
0.00379266
-0.0243658
-0.05631
0.000705901
6.7034e-05
0.00212115
-0.00166638
-1.78826e-05
4.84682e-05
4.75968e-05
8.14347e-05
5.373e-05
-0.00157081
0.000117364
-0.00138509
-8.07075e-05
8.0382e-05
1.82931e-05
1.465e-05
-0.000157249
1.85066e-06
-0.000226779
7.76365e-07
1.63524e-06
-9.70617e-06
5.54887e-06
2.63792e-07
-5.23674e-08
9.57858e-06
5.50499e-06
-3.10338e-05
-2.36128e-05
9.03655e-06
-9.9922e-05
-4.86487e-05
-7.22734e-06
-2.84497e-06
1.19192e-05
4.8203e-06
7.16179e-06
-3.82729e-05
-4.21598e-05
-0.000114052
-7.16619e-06
-2.54125e-05
-7.89545e-06
1.44906e-05
-0.000386614
-8.63982e-05
-3.7459e-05
2.82706e-05
8.33707e-06
-3.86663e-06
-2.77935e-05
-1.64938e-06
4.51964e-06
2.57811e-06
2.3538e-06
-2.05218e-05
-9.74654e-06
-6.79756e-06
-6.94106e-05
-1.03234e-06
-7.95274e-07
-7.54011e-07
-3.76969e-06
-8.56692
5.17116
-0.515282
0.967757
-1.87712
8.34636
0.570648
8.68787
-8.49149
-0.539486
0.550732
-4.95117
6.8767
-5.73792
7.34026
1.01965
1.07791
-8.32742
1.01125
6.85297
-1.62282
-8.25626
5.28101
1.46197
-1.94442
7.98545
-5.74293
7.01232
7.30651
-1.61581
7.65038
2.07252
-7.37819
-1.53111
-5.17623
6.37001
2.08527
6.07599
-7.97991
-0.972907
6.7266
6.56525
1.93856
-2.10674
7.31906
-6.4225
-2.49216
1.11267
3.99174
2.63091
4.35554
6.97393
-1.5075
5.86176
4.1597
-1.13504
2.13701
3.3359
4.46793
4.37898
2.85748
2.2197
-2.42971
-6.301
4.9323
2.6005
-3.43197
6.00344
6.91658
2.59879
-6.65803
-1.79466
-5.17358
2.44107
5.51371
-5.71026
5.04828
2.68896
-2.60297
6.66505
2.94303
-5.97662
2.47393
4.78438
-5.57896
4.36374
2.43309
-3.92982
5.11741
-5.29346
4.23879
5.57225
-2.8945
4.88328
2.48562
-4.71004
-2.03341
-3.71942
2.00912
0.99942
1.77029
-5.28652
-3.80071
4.16049
3.63256
1.74105
-3.77638
3.71997
-1.04216
-0.266933
0.0527087
0.106979
0.0906028
2.02303
1.84874
-0.759807
0.247411
0.232551
-0.126494
0.0469879
0.0501792
1.29942
0.221719
0.0181787
0.0122893
-0.909809
-2.73575
1.07024
0.466501
-2.66932
0.742113
3.9184
1.67825
-3.90635
-4.43421
-2.4681
0.289089
0.440218
-3.01246
0.772209
0.341282
-3.36534
1.92698
1.11435
-2.97322
0.0878336
0.127188
-1.72031
0.405673
0.240217
-1.89944
0.325944
-1.7113
0.291919
0.230409
-0.809176
0.8608
0.534827
-1.68595
-0.0296986
-0.162414
0.0184782
0.00990677
0.0145607
-2.26801
-3.93808
0.0535374
0.0439772
0.0969152
-1.06423
0.13399
-0.00445428
-0.000603746
0.000135595
0.000318818
0.000206692
0.0139191
0.0168252
-0.00208955
0.00148921
0.00104611
-0.000405538
0.000190282
0.000336067
0.00318069
0.00100638
0.000106212
7.20754e-05
-1.99628
-5.76279
0.825898
4.07316
1.83738
0.0893568
6.17423
2.31206
-6.22561
-0.107847
-2.08068
-1.17714
1.65662
4.32576
-1.69931
-1.09019
4.98827
2.12839
-5.47882
2.28933
5.23208
-0.0359101
-1.96992
2.48066
-6.06218
0.0891592
2.65698
1.37225
1.43473
-1.28013
0.36098
0.553198
0.0693876
-0.822627
0.815841
1.02289
-1.23267
-1.64978
-0.0293148
0.273519
0.379936
-4.87955
0.43007
1.07479
1.45859
0.138848
-0.827553
3.88105
-5.26059
1.73567
-2.40115
2.60728
-5.19169
0.21868
1.62296
-0.65104
-0.107692
0.198905
0.157447
0.112488
-5.87326
0.219185
0.852998
0.724405
0.335615
0.0528073
0.201846
0.0726317
0.0963693
0.0301927
-0.0494075
-0.00725679
0.0108641
0.00735841
0.0745098
0.0133429
-0.000933148
-0.0300333
-0.0736092
0.0139578
0.00673158
-0.123971
0.0109538
0.283236
0.22812
-0.0524623
0.00284869
0.00420714
-0.0956816
0.00577239
0.00284514
-0.393819
0.0429399
0.0560308
-0.80332
0.000616255
0.00102734
-0.0154391
0.00306895
0.00135589
-0.0301045
0.00231449
-0.0220365
0.00114521
0.0014234
-0.0106717
0.0024436
0.00171964
-0.0487348
-0.000122107
-0.000511057
4.54692e-05
1.92314e-05
3.43287e-05
-0.238146
0.000286856
0.000208179
0.000226755
-0.00560293
0.000373445
-2.14741e-05
-2.11087e-06
6.39916e-07
1.45098e-06
5.064e-05
8.22598e-05
-8.48679e-06
3.62123e-06
1.34547e-06
-1.59485e-06
2.25267e-07
6.98802e-07
2.57262e-07
4.62917e-06
3.16057e-07
1.25069e-07
-0.000551207
0.000836635
0.00113438
-0.0270973
-0.00269324
7.53766e-05
0.000124545
1.06423e-06
-2.10971e-06
-0.000155568
5.43305e-06
1.07634e-05
6.52596e-06
0.00138433
-3.73499e-06
-0.045313
-0.000237021
1.57049e-05
3.76401e-07
9.00985e-06
3.68261e-05
4.79261e-06
0.000117745
8.77483e-05
-0.00238273
7.65001e-05
4.22527e-07
3.47217e-08
-1.51639e-06
6.64983e-07
2.53993e-07
-1.64322e-06
-1.6378e-06
-1.66063e-06
-3.64749e-06
-2.80364e-06
-2.98165e-06
-3.76436e-06
-4.38549e-07
6.93333e-10
6.11334e-08
7.49987e-09
2.47575e-08
5.14752e-09
5.67759e-07
-2.2396e-06
1.49854e-07
-2.83336e-06
-2.2316e-06
-2.9224e-06
-1.59661e-06
-2.2681e-06
-1.58956e-06
3.86466e-06
6.63922e-07
2.50054e-07
-1.72603e-05
7.31234e-06
4.64778e-07
8.15375e-07
1.77555e-07
-1.14233e-06
-1.27791e-06
-1.48244e-06
-4.93597e-06
-3.76296e-06
-4.96161e-06
5.91197e-07
7.36985e-07
-3.31231e-06
1.18941e-07
-3.67399e-06
-2.74364e-06
-2.82456e-06
-3.72003e-06
-2.30282e-06
-3.30288e-06
-2.29722e-06
7.07808e-08
3.15862e-08
5.66456e-09
-0.000279546
6.19707e-05
-0.000733424
-0.000444537
1.45097e-05
1.22576e-05
2.81914e-05
0.000220036
-0.00624543
2.48416e-06
5.02338e-06
-4.48344e-05
1.2462e-06
3.14098e-06
-0.00061682
1.0039e-06
-5.43203e-09
1.64529e-08
4.88263e-08
3.74316e-08
-1.05827e-07
-1.02954e-07
-2.88976e-07
-3.77175e-07
-8.54938e-05
-0.000309149
6.3497e-06
1.4367e-05
2.05142e-05
-5.57108e-06
2.30318e-07
-7.35979e-07
1.69889e-08
-2.64782e-06
3.13947e-08
3.23296e-07
-3.88915
3.22199
-0.325546
-3.89319
0.571453
0.121786
0.280049
-5.14075
3.74055
-4.13825
2.34572
-5.0897
3.64712
0.650081
-3.84525
3.03385
2.06374
-1.98762
-4.5692
3.98549
-3.24077
4.22988
-4.46232
3.8978
2.00571
-3.15929
4.29462
1.62655
-1.62155
-3.95473
3.32352
-2.87885
3.96117
2.83393
-5.43314
-1.31428
2.01223
-1.86557
1.76825
2.49115
-2.55009
-5.36779
-0.599649
-3.88747
3.17553
1.74741
3.7552
1.28305
-1.77027
-3.15268
1.31086
2.01444
-1.12125
-2.22514
0.385448
0.349459
0.546676
-0.0933132
-0.4197
0.0191456
-0.0683715
0.0396268
0.935513
2.53451
-3.22419
-0.683791
-4.67378
1.65201
-4.6082
-0.418276
1.4996
2.28698
0.0244965
-0.288152
-0.0027824
0.0168643
-0.300413
0.0311223
0.0183865
-0.248229
-0.00604294
-0.210861
0.0251662
0.0162833
-2.74727
1.51841
0.107021
-0.301621
1.82662
-0.478513
2.20689
-2.30112
-0.0711399
-1.00874
-0.299693
2.78652
-4.37442
3.39241
-0.499289
-4.02167
1.02895
-0.721848
-2.47309
-0.203962
0.0737965
3.00188
1.53236
-3.38788
2.285
-0.0919029
2.28091
-4.89497
3.74716
-4.18642
1.73027
0.600486
3.61232
-0.109377
-3.33217
-0.0235505
-2.64243
0.346871
1.32906
3.4284
-3.0005
0.718264
3.25042
0.214248
2.67547
-0.680981
-3.66422
2.63314
1.30612
3.61035
0.559994
-3.34442
-2.66966
0.768915
1.78794
-4.96824
3.73139
1.3731
-3.5821
3.67204
1.41274
-3.38645
1.37986
2.12499
-3.79262
2.57308
1.52827
-4.74885
3.90728
-3.36294
4.03408
-2.08796
3.82485
2.20031
-3.29019
-1.58811
-2.43114
1.5639
2.25993
-3.36994
2.26004
1.50195
-1.25871
-3.6107
2.13235
1.08317
3.75682
2.14796
-3.24488
-2.2751
1.30721
2.25952
-4.30359
3.70848
1.74765
-3.10764
4.17859
1.86893
-3.09914
1.10336
2.25894
-3.4037
2.01727
1.01538
-4.08344
3.48671
-2.95357
4.08523
-1.65143
3.2073
1.63327
-2.67296
-1.04301
-1.9261
1.04674
1.95069
-2.85403
2.16505
1.01525
-1.03313
-2.91197
1.63885
1.0048
3.05646
1.72499
-2.55584
-1.81449
1.04021
1.7984
-3.83521
2.92336
1.83968
-2.66514
3.5905
1.92564
-2.46568
0.923882
1.4977
-2.64762
1.2905
0.764822
-3.66924
2.36028
-2.35767
3.07945
-1.99866
2.02239
-1.79633
1.80114
-0.587263
-0.761337
0.187823
0.317135
-2.19262
0.434036
-2.06986
0.614613
5.95203
2.41718
-5.103
0.246987
-0.737493
1.89716
-4.92898
-1.87762
-5.80455
2.22813
-0.115084
-2.07202
-5.48152
-1.08482
2.33968
-5.0378
-2.04824
0.124793
2.21084
-4.98268
2.67373
0.0785962
0.48043
5.94311
3.16598
0.373648
-5.473
-5.42731
-0.843971
-2.92542
-0.390803
3.09964
-5.39671
-2.90974
-5.78289
2.8913
0.37366
-5.24894
0.266538
3.34951
0.467606
-5.70738
-0.248559
-0.440483
0.135849
-0.987582
1.27814
1.34511
-1.71259
-3.51101
-0.328679
0.0358549
0.0564627
-0.636254
0.0614226
-0.289902
0.0539356
0.0869545
-1.49229
-1.10411
-2.84711
0.441626
0.00709724
-0.533202
2.92932
-5.04433
-5.17761
1.99832
0.288941
3.12879
-2.34064
-0.12919
0.355875
0.230907
3.33022
0.448438
-5.52
-0.391831
-4.35216
1.50044
3.15774
0.329464
-4.89828
2.06265
0.0652127
0.566848
0.366776
-0.0466982
-0.00192859
-0.111795
0.0040056
0.00629133
0.00642758
9.91181e-08
3.33345e-06
-6.02721e-06
-6.41413e-06
1.01824e-08
6.10815e-07
2.31707e-06
-4.04245e-06
-4.45257e-06
-6.23483e-07
-0.000125922
2.70446e-05
-0.000388643
-2.84673e-08
2.01513e-05
1.91774e-06
-0.0671567
0.000654364
-0.124569
0.0081184
0.00178388
0.00767611
-0.0159331
0.000812161
0.0015172
0.00134942
-0.000170998
-0.0163917
-0.0002178
0.00115162
0.00143576
0.000772659
-0.196694
0.00129847
0.00363218
0.0146411
0.00145416
-4.38269e-06
3.6712e-07
6.30834e-07
1.55049e-07
1.05873e-07
-3.78858e-06
-3.36145e-06
-2.97087e-06
-0.0162797
8.06613e-05
-0.00119045
0.00019455
0.00086181
0.00033159
-9.56588e-07
-1.40555e-07
1.23218e-08
9.8776e-08
2.43836e-08
1.3241e-08
-1.42559e-06
-1.06224e-06
-1.42965e-06
-3.02214e-05
-2.14838e-06
3.49012e-07
1.47965e-06
5.32079e-07
1.33783e-07
-8.93733e-09
-1.36852e-09
-1.82512e-10
3.05574e-10
9.62626e-11
1.10456e-10
-2.99001e-07
-2.04316e-08
-1.3546e-09
1.53885e-08
5.68435e-09
2.47382e-09
-2.57096e-10
-1.49116e-11
-1.29177e-11
9.70779e-12
2.51088e-12
4.53326e-12
-1.87488e-06
7.41274e-07
1.63913e-06
6.60908e-07
-5.91465e-11
-4.85452e-10
-1.18405e-10
1.15833e-10
6.58185e-11
-1.27531e-10
-1.20481e-11
-4.77607e-11
-1.11725e-09
-3.50067e-10
-8.47498e-10
3.30109e-11
2.70752e-11
7.14184e-12
6.16307e-12
-7.76801e-12
-4.92282e-11
-1.25198e-11
-1.228e-11
-7.57616e-13
-2.87592e-12
-1.2168e-13
-4.22773e-13
1.39977e-12
7.24754e-13
7.24754e-13
1.15463e-13
1.13687e-13
7.63833e-14
3.55271e-14
-3.77494e-11
-5.02709e-11
-3.01625e-12
-9.6243e-12
-1.72735e-10
-1.32603e-09
-1.01127e-09
-5.62924e-10
7.55946e-11
4.29807e-11
1.27702e-11
7.67031e-12
3.99325e-12
3.18856e-12
8.88178e-12
-1.42953
0.14704
0.0250723
0.00207279
0.00563933
-0.000843613
-0.0838421
-0.0290464
0.00401015
0.0252998
0.0486352
-0.0550813
-0.535588
0.0313048
0.00279883
-0.0436975
0.00117554
-0.015209
0.00198369
0.00108843
0.00251523
0.000135363
3.15506e-06
-4.32133e-06
-2.24298e-05
-0.000241119
-0.000190437
-2.50726e-05
7.75431e-06
1.571e-05
-4.27126e-06
-7.91315e-06
-6.93202e-06
9.90101e-05
-0.000263963
-0.000258703
0.000206156
0.000438063
9.73554e-07
-9.66507e-07
-8.99083e-06
-3.99191e-05
-0.00010119
-5.4779e-06
2.32797e-06
4.75163e-06
-1.41987e-06
-1.79098e-06
-2.52813e-06
-0.233602
0.00950688
0.0075237
0.000205608
-0.000340402
-0.00340537
7.23973e-05
-0.00119669
0.000146466
4.84349e-05
0.000144877
-0.000284644
-0.00284009
6.57353e-05
5.24856e-06
-2.50666e-06
-1.59444e-05
-6.81459e-06
1.88648e-06
4.80702e-06
5.82548e-05
0.000121909
2.71649e-05
-1.26475e-07
-3.96162e-07
-9.56679e-06
-8.04041e-07
-2.33545e-06
2.06755e-07
1.10299e-07
4.1891e-07
-1.25318e-07
-1.19018e-07
-1.44689e-07
-0.000576319
1.2589e-05
1.13935e-05
2.46213e-06
3.89906e-06
-2.28601e-05
1.56409e-05
-3.30181e-06
-1.17098e-05
4.12574e-07
1.09622e-06
-1.2437e-06
-1.94601e-05
2.46046e-07
2.73385e-06
6.75024e-06
-1.22099e-05
-1.55158e-06
-2.22968e-06
-5.01342e-06
3.98741e-06
-1.31551e-05
-1.56448e-05
-5.43867e-05
-2.68274e-05
-2.11586e-06
-3.14342e-06
-2.65969e-06
-5.46242e-06
6.69249e-08
1.14089e-07
5.12766e-07
1.69205e-06
-5.11529e-07
-3.10242e-07
-1.25801e-06
-2.64258e-07
9.39857e-07
-7.3083e-06
-5.94397e-06
-8.55807e-06
-5.99223e-06
2.20635e-09
7.48773e-10
-4.67355e-09
-3.84778e-08
-1.70333e-09
1.98118e-07
6.95668e-08
-7.94744e-08
-5.55835e-09
-1.95777e-08
-2.20114e-08
1.34065e-07
-5.85346e-07
3.63397e-06
1.51844e-06
-1.68754e-11
-7.01455e-09
-1.90261e-11
-2.51531e-10
3.2845e-10
4.62686e-07
1.19412e-07
-9.38039e-08
-3.98264e-07
-5.29461e-07
-8.66828e-08
1.68534e-07
4.18601e-08
-1.82731e-06
-2.55132e-06
-1.98453e-06
-2.29698e-06
2.64732e-09
-1.82206e-09
-9.15015e-10
-1.59012e-09
-9.20371e-10
3.42528e-09
5.54927e-10
1.49918e-08
0.000109823
-4.46976e-05
0.000333566
-0.00148387
0.000208908
2.54072e-07
-5.09568e-05
-1.21644e-07
1.9046e-06
-3.2988e-05
5.38756e-07
1.36065e-05
-5.01357e-06
-0.00294086
0.000670549
0.00288315
6.1914e-05
0.000164713
-0.000750732
9.78764e-05
3.54085e-06
-7.07254e-07
8.81127e-07
-2.36382e-05
-5.17722e-08
1.2262e-06
4.80488e-06
2.32171e-06
-1.59775e-05
-8.84133e-06
-9.28161e-05
-3.40039e-05
-4.89328e-06
-1.00462e-06
-7.64645e-07
-2.50334e-06
-6.39208e-07
-6.27097e-07
-7.7567e-07
-5.5822e-07
9.41259e-06
-1.69878e-05
5.28412e-06
1.61852e-05
-5.55305e-05
-7.95453e-07
5.88013e-07
-3.53383e-06
3.55845e-08
2.79746e-07
9.87329e-07
4.58786e-07
-3.08418e-06
-2.45474e-06
-3.58118e-06
-8.72042e-06
-1.77279e-07
-1.26165e-07
-1.91326e-07
-1.75315e-07
-1.22796e-05
1.76401e-06
6.77934e-06
4.72086e-07
3.5815e-06
1.65456e-06
-2.36607e-06
-7.61658e-06
-1.08322e-06
-6.85463e-07
1.98471e-06
-9.86018e-06
-1.29539e-05
-6.75448e-05
-2.04091e-06
-1.34016e-06
-6.752e-06
-2.06831e-06
6.83681e-08
5.02611e-08
-5.20959e-07
-2.4873e-06
-1.25885e-06
-3.84005e-07
1.3553e-07
3.15058e-08
-2.42357e-07
-3.1419e-07
-2.31339e-07
-3.14857e-07
5.1325e-08
1.42641e-07
8.01059e-08
1.06256e-06
3.2188e-07
-4.83433e-07
-2.39511e-07
-1.09665e-07
-1.31615e-07
7.4837e-07
-8.10496e-06
-8.14397e-06
-6.24066e-06
-5.88981e-06
3.34699e-09
2.88354e-09
-1.00144e-07
-3.94795e-08
-3.79395e-08
-7.55509e-08
3.35605e-09
1.14086e-08
3.36908e-08
1.41905e-08
-6.17256e-08
-9.20491e-09
5.74073e-08
9.58088e-09
3.03872e-07
8.0778e-08
-2.46468e-08
-4.99559e-08
-1.92099e-08
-2.28427e-09
1.73312e-07
3.39716e-10
4.36359e-10
-5.46205e-09
-1.28702e-08
-1.65888e-08
-8.31691e-09
1.75604e-09
8.36234e-10
2.56812e-09
1.12311e-08
3.96666e-09
6.43702e-08
1.65594e-08
-3.94751e-09
-2.80919e-09
2.18376e-11
-2.45571e-09
3.08561e-08
-2.42419e-11
7.33431e-11
-1.19925e-09
-4.65656e-10
-1.01753e-09
-2.64461e-09
1.43816e-10
5.2328e-10
2.17489e-09
6.59965e-10
-2.34467e-10
-3.31132e-10
1.37661e-10
4.08731e-11
7.67662e-09
2.37246e-09
-2.8185e-11
6.50733e-11
-7.0016e-11
7.17426e-11
2.98917e-09
-1.47313e-11
9.08162e-12
-3.8618e-11
-7.46652e-11
-2.8735e-10
-1.09681e-10
2.84412e-11
1.76748e-11
7.79687e-11
2.72133e-10
7.78595e-11
5.865e-07
-3.22055e-07
-5.54787e-08
-4.63995e-08
-6.33345e-08
2.17327e-07
3.24785e-07
-5.39498e-09
-8.97972e-10
-1.4371e-10
2.52872e-08
-2.17368e-10
-2.74489e-10
1.38677e-10
-4.65774e-11
8.3727e-09
9.29929e-09
1.79932e-07
-1.17456e-07
-2.68143e-08
-2.95056e-08
-7.05398e-08
9.0596e-08
6.90324e-08
6.88847e-09
-2.87883e-10
-6.2186e-10
-9.09326e-10
-4.17592e-10
2.89874e-09
2.44329e-09
-1.00352
1.07837
-0.139908
0.353279
1.11598
0.16771
1.04811
0.0186603
-1.24034
0.150007
0.153745
-1.28277
0.121942
0.0644898
0.165254
0.371819
0.0473041
0.122785
0.124022
1.19953
-0.820878
0.7411
0.426914
0.867872
-0.931444
0.0728008
0.104496
-0.475905
0.526044
0.371081
-0.0374273
-0.396566
0.0152966
0.0324188
0.0279719
0.074505
0.0714354
0.273978
0.488204
-7.74485e-05
-0.000110375
-1.43261e-06
3.66393e-06
9.78294e-06
6.19489e-06
9.44127e-05
5.85766e-05
2.16168e-05
0.000140999
-0.000309593
0.000918875
0.0020003
0.000364064
-0.0010162
1.8015e-05
4.76082e-05
4.48085e-05
-0.000241397
1.24639e-05
-4.13493e-05
-5.86849e-05
2.44148e-06
5.00721e-06
0.000522651
0.00112613
-0.000627737
-1.23112e-05
1.47813e-05
4.43143e-06
9.72881e-06
-3.87606e-05
2.21076e-05
1.21195e-05
-5.12904e-05
2.63063e-05
-0.000135537
8.02403e-07
1.78612e-06
-0.085695
-0.0551467
0.0371334
0.0157907
0.0287467
0.229319
0.147081
-0.148887
0.00378809
0.00940783
0.00662588
-0.0658429
0.00210749
0.0015348
0.00396977
0.155037
0.0337476
0.000738669
0.00208397
0.00128352
-0.0105745
0.00664687
0.00260622
0.00423279
-0.0149877
0.0003998
0.000813334
-0.00609189
0.00170546
0.00102003
-0.000125008
-0.00102965
1.94385e-05
5.56218e-05
2.99304e-05
0.000355116
0.000197213
0.000385762
0.000604907
-1.86677e-07
-8.69409e-07
-1.18132e-06
9.48195e-08
3.82721e-08
3.9435e-06
1.118e-06
2.62961e-06
5.25591e-06
2.95761e-06
-1.41633e-05
1.33975e-05
2.7928e-05
-1.91605e-05
5.39283e-06
4.41504e-07
5.89025e-07
2.23463e-07
-3.36822e-06
5.93949e-07
-8.2424e-05
-8.30224e-05
5.86657e-05
2.0245e-05
3.20387e-05
0.000307857
0.000224609
-0.000199696
4.68349e-06
1.17551e-05
9.9913e-06
-0.00016614
3.53597e-06
3.48524e-06
9.22796e-06
9.99381e-05
6.40819e-05
1.5261e-06
3.87553e-06
5.58966e-06
-2.99596e-05
2.20051e-05
9.41741e-06
-5.85393e-05
1.06501e-06
3.33822e-06
-2.21544e-05
8.92665e-06
7.45922e-06
-6.21609e-07
-7.53638e-06
2.28524e-07
5.99788e-07
1.47063e-06
2.6857e-06
-7.90069e-07
-4.91515e-07
5.92287e-07
1.79532e-07
2.5017e-06
2.07382e-06
-2.14519e-06
9.23103e-08
1.64455e-07
-1.30927e-06
-2.39138e-08
2.405e-08
7.17753e-08
4.38107e-07
2.16838e-08
5.98995e-08
-9.15075e-08
1.09333e-07
4.17387e-08
-2.50335e-07
-3.85407e-09
1.34736e-08
-8.41729e-08
2.33081e-09
1.36475e-08
-6.63702e-09
-2.75466e-08
3.44333e-09
1.45366e-09
1.0814e-08
8.67788e-09
-6.18583e-08
-8.95764e-07
4.52e-09
5.16437e-08
1.05048e-09
5.24949e-06
2.20025e-06
8.58184e-08
-1.94166e-08
4.49247e-08
1.59535e-07
6.44214e-08
-7.44178e-08
6.50726e-07
2.36073e-07
2.18052e-07
4.49402e-09
1.11106e-07
4.06415e-08
1.03925e-08
-1.79199e-09
1.65577e-10
3.5118e-09
2.22129e-10
-6.64679e-10
1.36235e-09
1.71327e-09
-9.04342e-09
-2.48023e-10
1.77902e-12
3.9182e-10
-3.04861e-09
-2.12741e-11
1.71108e-12
3.70875e-10
1.44687e-10
2.61543e-10
3.40452e-11
3.90476e-10
0.00104157
0.0106035
0.00842407
7.74039e-05
5.6966e-05
0.000885901
0.00296493
0.0118519
0.0039019
0.00841079
0.00277882
0.00661074
4.73928e-05
0.000210272
0.000702858
-5.45537e-05
0.000146031
0.000325408
0.000482151
0.000420607
0.000617581
0.000173433
0.000495799
-0.000724135
0.000293427
1.68979e-05
1.31914e-06
-5.66268e-05
4.02763e-05
4.59543e-05
0.000206156
6.73539e-05
0.000108629
3.45883e-05
5.86737e-05
2.84746e-07
3.75832e-06
1.1477e-05
-8.887e-06
1.98394e-06
3.24982e-06
7.13385e-06
-3.36248e-05
1.3041e-05
2.36788e-05
2.94888e-07
7.37152e-07
-9.7695e-07
3.80869e-08
-2.52186e-08
-9.71084e-08
2.8898e-08
7.18295e-08
4.82695e-07
1.69191e-07
5.45109e-08
2.7254e-07
7.60587e-08
-2.00554e-08
8.36209e-09
1.04382e-08
-3.20422e-08
9.87379e-09
-7.05899e-08
5.89119e-09
1.50166e-08
-1.31605e-08
4.50751e-10
-2.34937e-09
-1.07758e-09
4.25765e-10
-2.68362e-09
3.78985e-09
1.19811e-09
8.98593e-10
5.47494e-09
1.47987e-09
-7.4145e-10
8.95832e-11
1.24327e-10
-1.19582e-09
3.53039e-10
-2.33621e-09
4.32382e-07
1.81705e-07
5.60518e-10
3.03303e-08
9.3338e-08
2.17337e-07
3.22599e-08
3.02086e-08
4.56613e-08
-4.18278e-09
1.78394e-08
-1.52871e-07
2.41628e-08
9.76646e-10
2.91178e-10
8.86473e-11
-8.84981e-12
5.29354e-13
2.63611e-12
9.04521e-12
2.85514e-11
6.57945e-11
2.47661e-10
-7.07985e-11
1.56861e-10
5.38503e-11
-3.81238e-09
-1.92202e-12
-1.48681e-12
2.89049e-11
3.29343e-08
1.5741e-08
5.97416e-09
-5.5379e-10
4.68674e-10
2.33941e-10
1.38707e-10
1.30456e-09
1.62476e-09
2.3916e-10
-5.66658e-11
1.7427e-09
-3.45857e-11
-1.26121e-13
3.15963e-10
8.94769e-11
0.0016691
0.00694926
-0.00195158
0.00183505
0.00126505
-0.000152031
1.01759e-05
0.000154576
0.00475155
0.0036004
2.39447e-05
0.000390668
9.74391e-05
0.000155724
0.000258765
5.34383e-05
9.72087e-05
1.27655e-05
3.91292e-05
2.45545e-06
-6.02646e-06
3.1329e-06
-7.53997e-07
-8.20773e-08
1.1418e-07
1.81299e-05
-1.88611e-07
6.37521e-07
3.55605e-07
2.32948e-08
1.75216e-07
2.16446e-08
-4.14787e-08
5.02934e-08
-4.19408e-09
-6.95986e-09
1.50749e-09
1.16713e-07
-1.39953e-08
4.0336e-09
6.36781e-09
-5.74316e-10
7.17583e-10
1.95367e-10
-5.21493e-10
5.35117e-10
-1.6914e-11
-7.40381e-11
8.2041e-12
1.62274e-09
-1.78744e-10
2.64868e-11
1.45841e-10
-8.16344e-10
1.58046e-09
-6.00722e-09
5.84131e-10
-1.72521e-09
-3.87697e-10
1.73004e-09
-4.88397e-10
4.74053e-09
4.95175e-07
6.39828e-08
2.39212e-07
-6.8292e-06
-6.77852e-06
-4.98943e-06
-6.08581e-06
-1.32555e-09
3.87212e-09
3.56135e-08
8.869e-09
1.62045e-09
2.01633e-08
1.88087e-08
1.14825e-07
6.38871e-07
9.9284e-08
-2.99293e-06
-2.84929e-06
-3.29298e-06
1.75567e-07
4.48424e-08
9.31813e-08
-2.9498e-10
3.2567e-09
2.94709e-08
3.83425e-09
1.41067e-09
1.04766e-08
1.57542e-08
4.11949e-08
9.57204e-09
1.06835e-08
-2.47201e-10
1.01657e-09
2.72873e-09
3.8966e-10
5.31489e-10
1.9135e-09
1.53709e-09
1.04343e-10
3.6697e-09
1.14041e-09
5.84236e-09
1.5626e-09
2.24604e-09
-8.13998e-11
3.99512e-11
2.15239e-10
3.2518e-11
7.30536e-11
4.46319e-10
1.25669e-09
1.23736e-09
4.30736e-10
1.40963e-10
-1.06777e-11
3.66462e-12
1.67173e-11
4.50662e-12
2.14371e-11
6.36504e-11
5.52305e-11
-6.63682e-11
6.15952e-11
2.56684e-11
3.91521e-10
8.85239e-11
6.79261e-11
-6.68621e-12
6.63469e-13
5.08749e-12
1.21858e-12
4.02078e-12
2.43929e-11
5.44116e-11
7.35536e-11
1.71569e-11
3.55982e-12
-6.32383e-13
1.33227e-13
5.98632e-13
1.97176e-13
1.05871e-12
3.41949e-12
2.56328e-12
-1.97353e-12
1.19726e-12
5.70211e-13
1.00933e-11
-6.75016e-14
-3.16192e-13
1.58096e-13
3.55271e-14
7.24754e-13
2.58282e-12
1.15666e-10
1.4937e-09
5.16181e-10
1.40368e-10
1.49036e-11
7.54525e-11
4.23768e-11
1.12266e-11
5.7554e-13
2.21689e-12
3.26139e-12
3.83693e-13
2.4869e-14
8.52651e-14
1.20792e-13
1.42109e-14
-3.39326e-07
-4.34899e-08
-1.89927e-07
-3.17364e-08
4.50553e-08
2.8697e-08
1.72654e-08
-1.09498e-07
-2.56525e-07
-1.05514e-07
-3.30881e-07
3.63107e-07
-4.07482e-06
1.32639e-07
-5.47947e-06
-3.30797e-06
6.5677e-07
1.58944e-06
8.50586e-07
-8.24177e-06
-1.0326e-05
-3.68811e-06
2.2569e-06
9.08504e-07
-4.6474e-06
-1.66269e-05
-1.07578e-06
-1.81234e-07
-1.93789e-09
2.17035e-08
-3.7879e-06
3.66434e-06
1.7604e-06
-5.98369e-06
-2.9315e-05
-6.82671e-06
-3.75676e-05
-6.30201e-06
-7.95067e-06
-2.7635e-06
1.70069e-06
7.0805e-06
-4.61876e-05
-7.878e-06
-4.50635e-06
-1.05815e-05
-4.91874e-05
-1.29748e-05
-7.7182e-05
-7.23269e-07
-5.66007e-07
-2.32662e-06
-7.82565e-07
1.5206e-07
3.7521e-07
8.61131e-08
1.90882e-07
6.53976e-08
2.39012e-07
8.92282e-08
1.82245e-08
-3.60482e-09
4.41257e-06
-8.62835e-06
-6.57597e-06
-3.55217e-05
-4.01377e-05
-6.59004e-06
-3.25523e-05
-1.08197e-05
-4.88083e-05
-1.02904e-07
-2.23964e-07
-2.59914e-07
-0.000123936
2.11792e-05
3.16968e-06
-0.000278743
-2.35851e-06
1.80874e-05
-0.0603146
0.00123208
-0.070484
-0.0015183
0.00605007
0.00488465
-0.00280826
-0.00794653
-0.000308191
0.000294483
0.000539378
4.43577e-06
1.09725e-06
-3.5363e-05
-5.76435e-07
-2.44624e-05
9.09458e-06
1.59955e-06
1.99912e-06
7.51729e-07
-2.65054e-06
-3.6119e-06
-2.06132e-05
-5.86946e-06
-3.23445e-06
-2.3778e-06
-2.04779e-06
-8.64744e-07
-1.36451e-06
-8.45424e-07
-7.0907e-07
-1.77099e-07
8.61644e-08
1.25079e-07
5.01925e-08
-2.02326e-06
-1.38844e-08
6.16632e-09
9.9017e-09
2.87692e-09
-1.8438e-07
-4.77001e-10
-8.79155e-11
-5.09077e-11
-1.49294e-11
3.79849e-10
-1.64824e-09
-3.42759e-09
-9.67846e-09
-2.83402e-09
1.96092e-10
2.1808e-10
1.20944e-09
-8.53035e-09
-4.50083e-10
1.56966e-09
8.61513e-08
3.0522e-08
3.61778e-08
1.37785e-09
1.27987e-09
1.78799e-06
3.62424e-07
2.01011e-06
-5.12224e-06
-2.59717e-06
-2.57884e-06
-7.46956e-06
-7.32491e-06
-6.95823e-06
-7.3787e-06
7.19837e-07
1.90885e-07
1.48842e-06
-5.22183e-06
-4.55872e-06
-2.71862e-06
-2.78129e-06
-1.85775e-06
-2.47577e-06
-2.45997e-06
1.3928e-08