/*--------------------------------*- C++ -*----------------------------------*\
  =========                 |
  \\      /  F ield         | OpenFOAM: The Open Source CFD Toolbox
   \\    /   O peration     | Website:  https://openfoam.org
    \\  /    A nd           | Version:  9
     \\/     M anipulation  |
\*---------------------------------------------------------------------------*/
FoamFile
{
    format      ascii;
    class       volScalarField;
    location    "0.00015";
    object      impulseMax;
}
// * * * * * * * * * * * * * * * * * * * * * * * * * * * * * * * * * * * * * //

dimensions      [1 -1 -1 0 0 0 0];

internalField   nonuniform List<scalar> 
4006
(
0
0
0
0
0
1.76709e-13
1.68827e-13
6.00891e-15
6.33184e-17
6.33184e-17
0
0
0
0
0
0
0
0
0
0
2.46099e-14
0
5.77804e-10
2.99887e-12
0
2.64832e-10
2.39977e-14
5.84571e-12
3.7991e-16
4.05604e-14
0
0
0
0
0
0
3.7991e-16
0
0
0
0
0
0
0
0
0
0
0
0
0
0
0
0
0
0
0
0
0
0
0
0
0
0
0
0
0
0
0
0
0
0
0
0
0
0
0
0
0
0
0
0
0
0
0
0
0
0
0
2.61211e-12
3.6512e-14
2.33645e-14
3.84321e-12
2.48122e-12
4.66419e-14
2.35481e-14
3.85611e-12
2.6437e-12
4.76228e-14
2.45612e-14
2.34321e-12
2.68758e-12
2.43538e-14
0
1.75141e-13
1.12567e-13
1.07641e-15
2.01588e-13
3.74533e-14
2.53273e-15
0
1.7096e-15
6.33184e-17
0
1.89955e-16
0
0
1.64173e-10
2.79858e-10
3.67401e-09
1.82736e-10
1.55543e-10
1.5121e-10
1.52762e-10
4.56111e-09
1.74937e-10
8.18154e-10
1.61312e-10
1.95853e-10
1.58567e-10
1.55974e-10
0
0
0
0
0
0
0
0
0
0
0
0
0
0
0
0
0
0
0
0
0
0
0
0
0
0
0
0
0
0
0
0
0
0
0
0
0
0
0
0
0
0
0
0
0
0
0
0
0
0
0
0
0
0
0
0
0
0
0
0
0
0
0
0
0
0
0
0
0
0
0
0
0
8.23139e-16
3.7991e-16
0
0
0
0
0
0
0
0
0
4.16855e-13
3.35035e-13
3.07426e-14
0
0
0
0
0
0
0
0
5.82496e-14
0
0
0
0
0
0
0
0
0
0
0
0
0
0
0
0
0
0
0
0
0
0
0
0
0
0
0
0
0
0
0
0
0
0
0
0
0
0
0
0
0
0
0
0
0
0
0
0
0
0
0
0
0
0
0
0
0
0
0
0
0
0
0
0
0
0
0
0
0
0
0
0
0
0
0
0
0
0
0
0
3.7991e-16
3.7991e-16
0
0
0
0
0
0
0
0
0
2.68552e-13
3.0398e-13
2.31682e-14
0
0
0
0
0
0
0
0
4.30448e-14
0
0
0
0
0
0
0
0
0
0
0
0
0
0
0
0
0
0
0
0
0
0
0
0
0
0
0
0
0
0
0
0
0
0
0
0
0
0
0
0
0
0
0
0
0
0
0
0
0
0
0
0
0
0
0
0
0
0
0
0
0
0
0
0
0
0
0
0
0
0
0
0
0
0
0
0
0
0
0
0
0
0
0
0
0
0
0
0
0
0
0
1.10744e-14
2.95697e-14
6.33184e-17
0
0
0
0
0
0
0
0
1.89955e-16
0
0
0
0
0
0
0
0
0
0
0
0
0
0
0
0
0
0
0
0
0
0
0
0
0
0
0
0
0
0
0
0
0
0
0
0
0
0
0
0
0
0
0
0
0
0
0
0
0
0
0
0
0
0
0
0
0
0
0
0
0
0
0
0
0
0
0
0
0
0
0
0
0
0
0
0
0
0
0
0
0
0
0
0
0
0
0
0
0
0
0
0
0
0
0
0
0
0
0
0
0
0
0
0
0
0
0
0
0
0
0
0
0
0
0
0
0
0
0
0
0
0
0
0
0
0
0
0
0
0
0
0
0
0
0
0
0
0
0
0
0
0
0
0
0
0
0
0
0
0
0
0
0
0
0
0
0
0
0
0
0
0
0
0
0
0
0
0
0
0
0
0
0
0
0
0
0
0
0
0
0
0
0
0
0
0
0
0
0
0
0
0
0
0
0
0
0
0
0
0
0
0
0
0
0
0
0
0
0
0
0
0
0
0
0
0
0
0
0
0
0
0
0
0
0
0
0
0
0
0
0
0
0
0
0
0
0
0
0
0
0
0
0
0
0
0
0
0
0
0
0
0
0
0
0
0
0
0
0
0
0
0
0
0
0
0
0
0
0
0
0
0
0
0
0
0
0
0
0
0
0
0
0
0
0
0
0
0
0
0
0
0
0
0
0
0
0
0
0
0
0
0
0
0
0
0
0
0
0
0
0
0
0
0
0
0
0
0
0
0
0
0
0
0
0
0
0
0
0
0
0
0
0
0
0
0
0
0
0
0
0
0
0
0
0
0
0
0
0
0
0
0
0
0
0
0
0
0
0
0
0
0
0
0
0
0
0
0
0
0
0
0
0
0
0
0
0
0
0
0
0
0
0
0
0
0
0
0
0
0
0
0
0
0
0
0
0
0
0
0
0
0
0
0
0
0
0
0
0
0
0
0
0
0
0
0
0
0
0
0
0
0
0
0
0
0
0
0
0
0
0
0
0
0
0
0
0
0
0
0
0
0
0
0
0
0
0
0
0
0
0
0
0
0
0
0
0
0
0
0
0
0
0
0
0
0
0
0
0
0
0
0
0
0
0
0
0
0
0
0
0
0
0
0
0
0
0
0
0
0
0
0
0
0
0
0
0
0
0
0
0
0
0
0
0
0
0
0
0
0
0
0
0
0
0
0
0
0
0
0
0
0
0
0
0
0
0
0
0
0
0
0
0
0
0
0
0
0
0
0
0
0
0
0
0
0
0
0
0
0
0
0
0
0
0
0
0
0
0
0
0
0
0
0
0
0
0
0
0
0
0
0
0
0
0
0
0
0
0
0
0
0
0
0
0
0
0
0
0
0
0
0
0
0
0
0
0
0
0
0
0
0
0
0
0
0
0
0
0
0
0
0
0
0
0
0
0
0
0
0
0
0
0
0
0
0
0
0
0
0
0
0
0
0
0
0
0
0
0
0
0
0
0
0
0
0
0
0
0
0
0
0
0
0
0
0
0
0
0
0
0
0
0
0
0
0
0
0
0
0
0
0
0
0
0
0
0
0
0
0
0
0
0
0
0
0
0
0
0
0
0
0
0
0
0
0
0
0
0
0
0
0
0
0
0
0
0
0
0
0
0
0
0
0
0
0
0
0
0
0
0
0
0
0
0
0
0
0
9.6197e-11
8.58973e-11
5.55838e-12
8.37579e-11
9.0119e-11
4.16934e-12
1.98437e-12
6.58831e-12
8.68362e-14
1.00296e-08
1.63931e-14
3.38057e-14
6.33184e-17
2.25068e-12
0
0
0
1.2784e-14
0
0
0
0
0
0
0
0
0
0
0
0
0
0
0
0
0
0
0
0
0
0
0
0
0
0
0
0
0
0
0
0
0
0
0
0
0
0
0
0
0
0
0
0
0
0
0
0
0
0
0
0
0
0
0
0
0
0
0
0
7.16311e-10
7.45453e-12
6.04594e-14
2.66292e-09
5.87494e-12
4.67569e-14
3.05224e-09
1.47265e-11
1.10326e-13
1.89955e-16
4.68178e-12
7.92196e-14
2.53273e-16
0
1.9559e-14
0
0
0
1.25994e-12
1.08864e-12
0
0
0
0
4.74888e-15
4.87551e-15
0
0
0
0
0
0
0
0
0
0
0
0
0
0
0
0
0
0
0
0
0
0
0
0
9.02705e-11
8.6669e-11
9.41069e-15
8.28837e-15
0
0
0
0
0
0
0
0
1.64511e-12
1.41632e-12
8.80422e-14
1.52274e-11
0
9.74657e-14
0
0
0
0
0
0
1.12112e-11
0
0
0
0
0
0
5.3207e-14
0
0
0
0
0
0
0
0
0
0
0
0
0
0
0
0
0
0
0
0
0
0
0
0
0
3.94549e-14
0
0
0
0
0
0
0
0
0
0
0
2.01151e-10
1.66175e-10
1.65959e-11
8.91884e-12
7.9884e-14
5.96816e-09
7.73672e-08
6.5701e-11
6.33176e-11
2.0919e-13
1.8491e-13
2.53273e-16
6.33184e-17
0
0
0
0
0
0
1.32505e-07
1.15428e-10
1.51721e-09
5.39061e-12
9.91639e-09
5.92738e-11
2.28808e-12
2.91403e-14
4.53157e-10
1.13439e-09
1.1834e-11
2.18578e-13
1.08981e-14
0
2.04135e-12
2.00477e-12
4.56777e-14
1.89955e-16
0
0
5.95193e-15
4.93883e-15
0
0
0
0
0
0
0
0
0
0
0
0
0
0
0
0
0
0
0
0
4.33698e-09
4.80648e-08
6.40139e-05
4.903e-08
7.08801e-05
0.000221261
1.3579e-07
0.00323752
2.09459e-07
0.00390329
1.95934e-07
0.00426107
2.14622e-07
4.26449e-08
4.03525e-08
6.17225e-05
0.00410915
1.72496e-06
1.56794e-08
0.0205466
5.73872e-07
1.77349e-06
2.5046e-09
6.18934e-08
3.96292e-10
7.31455e-06
6.34931e-08
6.04908e-07
4.83112e-08
0.000200263
4.30926e-09
6.47642e-07
5.96873e-07
4.75525e-08
7.96746e-05
5.9989e-09
4.16174e-10
4.65613e-09
0
0
0
0
0
0
0
0
0
0
3.6846e-14
0
0
0
0
0
3.17172e-14
0
0
0
0
0
6.33184e-17
0
0
0
0
0
0
0
0
0
0
0
0
0
0
0
0
0
0
0
0
0
0
0
0
0
0
0
0
0
0
0
0
0
0
0
0
0
0
0
0
0
0
0
5.50499e-12
4.55663e-12
8.50222e-14
6.33184e-17
2.75847e-12
1.30436e-14
0
0
0
0
4.99885e-12
3.66558e-14
0
0
0
0
2.55567e-12
1.22838e-14
0
0
0
0
4.73635e-12
3.34266e-14
0
0
0
0
3.51747e-14
0
0
0
0
0
2.34161e-13
5.06547e-16
0
0
0
0
0
0
0
0
0
0
8.23139e-16
0
0
0
0
0
0
0
0
0
0
0
0
0
0
0
0
0
0
0
0
0
0
0
0
0
0
0
0
0
0
0
0
0
0
0
0
0
0
0
0
0
0
0
0
0
0
0
0
0
0
0
0
0
0
0
0
0
0
0
0
0
0
0
0
0
0
0
0
0
0
0
0
0
0
0
0
0
2.16275e-10
4.95219e-09
7.6581e-10
3.92692e-09
5.2763e-12
4.35181e-11
4.18204e-14
3.41588e-13
0
6.96502e-16
0
0
0
0
0
0
0
0
0
0
5.1149e-10
1.05638e-08
3.03808e-06
3.54851e-09
3.38559e-09
3.0472e-06
2.09576e-10
2.04155e-10
0.00286765
0.00363062
0.00441176
4.2544e-05
4.61491e-05
2.93406e-05
3.5e-05
0.54274
0.00429038
0.134137
0.00498223
0.00114337
3.92026e-05
0.000188918
4.97464e-10
1.26584e-08
1.3619e-08
8.29855e-09
4.54261e-07
8.9483e-09
3.52856e-05
0.00487961
0.00376244
0.00545944
5.2878e-05
5.41313e-05
3.40793e-05
4.13995e-05
0.00287616
0.00360218
0.00481327
4.66837e-05
4.1178e-05
3.49221e-05
2.91163e-05
0.00285456
0.00337963
0.00409317
4.35962e-05
4.37585e-05
3.60636e-05
2.93345e-05
1.26638e-10
8.18968e-11
1.41018e-10
5.96767e-09
1.39942e-10
3.59195e-09
2.22137e-07
0.00016872
0.000760073
0.0013497
1.30096e-05
7.04921e-07
6.43296e-06
1.62706e-06
0.000200416
0.000840408
0.00166368
1.65462e-05
8.04689e-07
7.16159e-06
2.04855e-06
8.19635e-05
0.000833124
0.00161796
1.56784e-05
8.45953e-07
2.08749e-06
7.04366e-06
0.000168789
0.000672688
0.00153208
1.38011e-05
7.03255e-07
1.74057e-06
6.19198e-06
6.87619e-05
0.000817801
0.00181234
1.61851e-05
6.96398e-06
7.89225e-07
2.05636e-06
0.000220613
0.001764
0.000840789
1.57367e-05
7.0827e-06
8.27937e-07
2.07569e-06
2.05454e-09
1.42728e-09
8.74133e-08
9.45833e-11
1.40108e-10
5.86923e-09
1.45422e-10
7.01842e-08
5.02034e-10
5.47882e-08
2.76406e-10
8.70037e-09
2.56197e-10
5.76173e-10
4.25953e-09
6.26512e-08
2.35259e-10
5.05922e-10
5.84237e-08
5.25204e-10
2.33874e-10
1.49072e-10
2.1393e-09
6.97376e-08
4.36563e-10
1.13144e-10
1.25073e-10
1.21783e-10
0.000162788
0.000232424
4.93616e-06
0.00751888
6.26304e-05
2.20571e-06
2.92595e-07
2.05905e-10
2.35732e-10
5.32867e-10
6.66264e-10
4.53023e-08
2.40215e-10
3.7123e-09
4.28285e-10
1.85159e-10
1.59151e-10
1.8935e-10
5.26977e-10
2.85552e-09
3.56174e-08
8.05036e-06
0.000461964
9.7742e-05
1.00079e-06
1.86614e-07
1.16093e-07
4.44067e-06
2.28924e-10
1.23655e-10
1.4766e-09
1.12188e-10
1.22076e-10
2.07901e-10
1.22058e-10
2.62779e-08
3.34025e-10
3.15909e-09
3.04691e-10
3.08286e-10
3.24111e-10
5.28036e-10
2.58225e-10
5.66137e-10
2.15803e-08
2.42109e-10
4.21197e-10
2.34924e-10
2.51306e-10
9.45038e-10
1.83916e-10
7.25589e-09
9.47399e-11
1.45848e-10
8.47374e-11
8.68111e-11
2.2316e-10
1.05253e-09
7.64625e-09
7.98628e-11
1.38549e-10
7.36669e-11
7.6081e-11
5.2407e-07
7.19949e-06
0.000107048
2.4301e-07
1.05429e-06
2.4176e-07
1.80904e-07
7.90556e-06
8.76696e-06
0.000115269
2.471e-07
1.10118e-06
2.54033e-07
1.82079e-07
3.24285e-05
5.0636e-07
0.00013074
1.61411e-06
1.45374e-06
1.32498e-07
1.16336e-07
0.000137686
5.52687e-07
1.7039e-06
4.98649e-07
1.52918e-06
1.44052e-07
1.27539e-07
4.78554e-10
1.94501e-08
6.61183e-10
4.81124e-10
6.3672e-10
4.68431e-10
4.71231e-10
2.11673e-07
2.76624e-07
1.95083e-07
4.46925e-05
9.70215e-06
5.28524e-07
1.82416e-06
3.33447e-10
9.68127e-10
6.05292e-09
1.96775e-10
1.97905e-10
2.02946e-10
2.47209e-10
2.86039e-10
4.90199e-09
1.90464e-10
1.79158e-10
1.76279e-10
2.19372e-10
1.81146e-10
3.41217e-07
1.14397e-05
3.47191e-06
2.76821e-07
2.57074e-07
2.50713e-07
3.39719e-07
3.68727e-07
3.95408e-06
1.18224e-05
2.93617e-07
2.71292e-07
2.64649e-07
3.56414e-07
8.52941e-06
2.69051e-07
4.50536e-07
2.13314e-07
2.5752e-07
1.95034e-07
1.90638e-07
8.88254e-06
2.79006e-07
4.71663e-07
2.20764e-07
2.67185e-07
2.0242e-07
1.97759e-07
1.36888e-05
2.83828e-07
2.32667e-07
8.24539e-08
8.30664e-08
8.31713e-08
8.07586e-08
1.96166e-07
4.08287e-06
2.21411e-07
1.66682e-07
1.32701e-07
1.33197e-07
1.34061e-07
4.38431e-10
2.95325e-10
2.95769e-10
1.16801e-09
1.41352e-09
3.01387e-10
3.01629e-10
4.65477e-07
1.33302e-07
4.56627e-07
1.37288e-07
3.35645e-07
1.3616e-07
3.84829e-07
1.93992e-06
8.99286e-08
1.29071e-07
6.95613e-08
7.00965e-08
6.95274e-08
6.9016e-08
1.16201e-09
5.54571e-10
5.51627e-10
4.89871e-10
4.87653e-10
4.8991e-10
4.87632e-10
3.57011e-07
2.08346e-07
2.09583e-07
3.38803e-07
2.08949e-07
3.22506e-07
3.00783e-07
3.30924e-07
3.37684e-07
1.96521e-07
1.9528e-07
2.86659e-07
1.96385e-07
3.09297e-07
3.5096e-07
2.15218e-07
2.13427e-07
3.51485e-07
2.14628e-07
3.28807e-07
3.06015e-07
6.91609e-08
6.36409e-08
6.19279e-08
6.17012e-08
3.43339e-07
7.11406e-08
6.19715e-08
5.5469e-11
5.74778e-11
1.21155e-12
0.885448
8.01519e-05
0.000169364
3.43471e-09
8.86368
0.000171072
0.00961849
3.5152e-08
3.73533e-05
2.24905e-07
1.22632e-07
8.15585e-08
0.0239344
1.43558e-07
0.000256162
2.66883e-08
2.41515e-06
9.6919e-05
0.00109475
1.81474e-07
3.4922e-09
6.64217e-09
54.7007
33.0615
173.071
0.032049
7.41934e-07
32.37
0.000432661
186.692
1.93932
114.224
23.2944
0.00066787
0.104606
1.12012e-05
4.18137e-07
5.98059e-12
0.000516616
3.7988e-11
5.4588e-08
2.39819e-09
1.60636e-08
1.94933e-13
6.7306e-11
1.25107e-12
2.10222e-12
0
1.75908e-13
2.46942e-15
0
6.84664e-08
3.31796e-10
1.88401e-11
4.30942e-06
1.14259e-06
2.55834e-09
1.56211e-10
2.47145e-13
4.18387e-11
2.69328e-12
5.27257e-07
2.46281e-09
2.15732e-10
8.509e-06
7.88126e-08
2.02027e-10
3.02012e-11
3.54102e-12
4.34637e-12
3.47646e-13
1.75122e-09
1.02908e-11
1.02428e-12
2.73955e-10
2.68327e-11
6.6288e-14
5.69865e-15
1.17772e-14
5.06547e-16
0
2.09002e-13
8.86457e-16
0
5.78677e-14
3.03928e-15
0
0
0
0
0
0
0
0
2.9121e-12
6.36898e-12
2.92077e-12
9.32881e-12
2.67462e-11
9.98392e-12
1.52838e-08
1.87265e-11
1.61153e-10
1.4067e-13
1.45672e-13
9.52245e-14
2.18647e-12
1.69557e-12
1.48349e-12
0
0
0
2.15282e-15
0
0
2.21614e-15
1.58296e-15
0
0
1.16454e-08
1.44439e-08
2.56425e-10
2.89069e-10
1.13452e-08
2.03734e-10
1.70924e-08
2.01422e-09
1.37757e-09
2.38326e-11
2.45109e-11
1.85538e-09
2.88071e-11
1.47584e-09
1.86417e-08
1.49715e-09
1.72359e-07
5.78716e-10
4.62843e-08
4.39134e-10
4.45214e-08
5.83191e-09
1.55064e-10
7.06015e-09
1.43702e-10
7.51854e-09
1.32381e-10
7.51181e-09
3.20095e-13
3.43334e-13
4.20471e-13
3.32278e-11
9.17617e-12
1.01424e-11
2.50913e-12
2.51972e-12
2.46931e-12
2.13345e-08
1.73681e-07
6.23563e-10
1.34754e-09
5.07418e-08
4.95448e-08
4.51415e-10
8.87277e-09
9.80724e-09
1.85981e-10
2.33366e-10
1.00217e-08
1.09791e-08
1.97979e-10
7.26314e-09
2.02884e-10
6.19363e-09
1.33319e-10
6.9199e-09
1.68404e-10
6.86302e-09
2.53765e-09
3.95388e-11
2.42881e-09
3.47749e-11
2.68673e-09
4.3392e-11
2.51761e-09
3.02241e-12
3.70506e-12
3.47854e-12
4.95733e-12
1.90046e-12
3.14828e-12
5.42001e-13
4.3034e-13
6.60595e-13
6.44713e-10
4.64872e-10
1.17691e-11
1.05892e-11
7.70452e-10
6.19767e-10
8.59189e-12
5.82763e-11
7.2957e-11
1.34268e-12
5.91037e-13
8.04422e-11
5.39323e-11
7.40258e-13
1.2355e-11
2.84421e-13
3.31284e-12
7.7432e-14
1.20447e-11
2.175e-13
5.86455e-12
9.99597e-13
1.31069e-14
6.16401e-13
6.77506e-15
9.0726e-13
1.56396e-14
6.55314e-13
1.79191e-14
5.82529e-15
7.66152e-15
3.60915e-15
5.06547e-16
2.15282e-15
0
0
6.33184e-17
4.85652e-14
4.72292e-14
9.49775e-16
3.7991e-16
9.16786e-14
4.83752e-14
1.89955e-16
4.11569e-15
7.34493e-15
0
0
7.85148e-15
3.67246e-15
0
1.45632e-15
0
8.23139e-16
0
2.27946e-15
0
2.53273e-16
0
0
0
0
0
0
0
0
0
0
0
0
0
0
0
0
0
0
0
0
0
0
0
0
0
0
0
0
0
0
8.41524e-07
8.31755e-08
1.35239e-08
2.12354e-09
1.20392e-10
1.31737e-11
5.28482e-11
7.36247e-12
2.25353e-12
1.001e-13
1.66732e-09
3.79791e-13
1.34868e-14
0
0
1.52616e-08
4.34684e-12
5.69865e-16
2.02284e-13
0
0
2.05299e-06
7.4538e-11
3.89756e-11
7.21829e-15
0
1.89955e-16
0
0
6.08756e-11
4.75651e-12
3.15105e-11
1.32164e-13
3.54583e-15
0
0
0
1.14726e-14
0
0
0
0
0
3.60734e-11
9.08113e-13
9.56107e-15
1.547e-08
3.95085e-10
1.04965e-11
8.0485e-14
5.57202e-15
6.33184e-17
0
4.6588e-12
8.58993e-14
1.45632e-15
0
0
0
0
1.91627e-13
6.33184e-16
0
0
0
0
3.8603e-10
1.10808e-11
8.19276e-14
2.931e-09
5.2796e-11
9.03805e-13
7.47157e-15
7.98144e-14
1.45632e-15
0
4.74592e-13
7.97811e-15
0
0
0
0
0
4.43228e-16
1.29169e-14
0
0
0
0
0
8.16381e-13
2.57073e-14
6.33184e-17
5.67548e-13
1.24104e-14
0
0
6.33184e-17
0
0
6.33184e-17
0
0
0
0
0
0
0
0
0
0
0
0
0
0
0
0
0
0
0
0
0
0
0
0
0
0
0
0
0
0
0
0
0
0
0
0
0
0
0
5.00215e-15
2.17815e-14
9.05453e-15
0
0
0
0
5.67095e-14
2.58384e-13
9.51374e-14
0
0
0
0
0
0
6.33184e-17
0
0
0
0
0
0
0
0
0
0
0
0
0
0
0
0
0
0
0
0
0
0
0
0
0
0
0
0
0
0
0
0
0
0
5.40413e-11
5.35316e-11
4.62674e-13
1.34695e-12
6.74262e-11
7.47385e-13
3.6429e-11
1.41234e-12
9.35545e-13
1.66527e-14
1.19672e-14
1.00625e-12
2.46942e-14
1.21749e-12
6.40803e-10
1.53463e-11
4.63038e-10
6.77396e-12
8.20426e-10
9.79041e-12
4.80183e-10
1.91958e-11
1.69492e-13
5.8519e-12
2.94678e-13
1.29009e-11
3.65655e-13
1.7313e-11
9.24448e-15
1.5703e-14
0
6.33184e-17
1.65894e-14
0
8.6113e-15
0
0
0
0
0
0
0
1.28784e-13
3.60915e-15
1.19107e-13
1.26637e-15
2.47501e-13
1.07641e-15
1.23408e-13
2.02619e-15
0
8.86457e-16
0
8.23139e-16
0
2.02619e-15
0
0
0
0
0
0
0
0
6.33184e-17
2.41269e-13
8.54808e-14
1.30057e-13
1.45632e-15
3.22924e-15
4.8122e-15
0
0
0
0
0
0
0
0
0
0
5.12473e-10
4.21256e-10
4.0933e-12
1.60132e-11
2.4835e-10
7.98165e-10
7.27853e-12
1.63731e-11
6.77915e-12
2.22459e-13
1.53686e-13
1.44006e-11
1.19004e-11
2.71588e-13
8.6463e-11
1.93924e-12
5.35636e-11
4.90502e-13
1.16591e-10
9.55779e-13
3.64372e-11
1.86421e-12
1.43099e-14
7.83685e-13
2.08951e-14
1.32128e-12
2.6657e-14
1.5575e-12
1.20679e-13
1.20615e-13
8.86457e-16
3.60915e-15
1.20426e-13
2.24376e-13
8.86457e-16
2.97596e-15
1.89955e-16
0
0
2.97596e-15
1.20305e-15
0
1.07641e-14
6.33184e-17
1.40567e-14
0
1.9882e-14
0
9.62439e-15
6.33184e-17
0
0
0
0
0
6.33184e-17
0
0
0
0
0
0
0
0
0
0
0
0
2.53273e-15
1.45632e-15
3.16592e-15
2.91898e-14
5.19211e-15
1.00043e-14
0
6.33184e-17
6.33184e-17
0
0
0
0
0
0
0
0
0
0
0
0
9.86551e-13
1.16888e-12
1.58296e-14
1.92488e-14
1.20057e-12
1.31157e-12
8.80125e-15
2.31112e-14
1.62728e-14
3.7991e-16
0
3.04561e-14
1.63995e-14
6.33184e-17
1.56396e-14
1.89955e-16
1.00043e-14
0
2.28579e-14
6.33184e-17
9.24448e-15
1.89955e-16
0
0
0
6.33184e-17
0
6.33184e-17
0
6.33184e-17
0
0
0
6.33184e-17
0
0
0
0
0
0
0
0
0
0
0
0
0
0
0
0
0
0
0
0
0
0
0
0
0
0
0
0
0
0
0
0
0
0
0
0
0
0
0
0
0
0
0
0
0
0
0
0
0
0
0
0
0
0
0
0
0
0
0
0
0
0
0
0
0
0
0
0
0
0
0
0
0
0
0
0
0
0
0
0
0
0
0
0
0
0
0
0
0
0
0
0
0
0
0
0
0
0
0
0
0
0
0
0
0
0
0
0
0
0
0
0
0
0
0
0
0
0
0
0
0
0
0
0
0
0
0
0
0
0
0
0
0
0
0
0
0
0
0
0
0
0
0
0
0
0
0
0
0
0
0
2.66501e-09
2.62636e-08
3.13884e-11
3.41219e-11
3.60331e-13
2.74503e-10
3.10025e-10
3.6069e-12
3.48267e-08
2.47524e-07
3.33924e-09
2.83648e-10
3.32089e-10
3.51888e-12
4.00262e-11
4.10648e-11
4.94742e-13
3.78685e-09
6.56283e-11
3.9427e-09
6.5976e-11
4.13664e-11
6.29216e-13
3.58091e-12
7.13009e-13
5.30958e-14
3.44705e-12
3.8524e-12
5.23993e-14
5.74014e-14
1.46625e-12
3.16568e-13
2.12006e-14
1.29347e-12
1.40852e-12
1.84221e-14
1.90553e-14
1.54633e-13
8.86457e-16
1.07641e-15
1.04773e-13
7.29144e-14
5.06547e-16
6.33184e-17
0.000393495
4.08985e-07
26.2702
7.98411e-08
443.775
36.447
183.125
2.00112e-07
197.556
0.00340722
6.08625e-09
3.46008e-09
6.0351e-09
2.45544e-07
2.52512e-07
6.48984e-06
1.46668e-06
6.44263e-08
3.3671e-07
0.00882691
7.74616e-05
9.92779e-07
180.678
1.07041
0.0477448
0.0105698
0.461954
0.0545135
0.00418249
0.266945
0.0602738
0.000980195
5.31309e-06
6.39842e-06
8.29358e-07
1.72262e-07
1.43921e-09
0.0820033
39.0039
4.98864e-05
31.2764
0.000105601
190.926
0.0628068
3759.11
336.477
215.219
272.043
93.6673
104.873
4.42339
0.000186069
0.0597797
5.00029e-06
189.509
0.234407
12.6124
0.00245687
0.162138
10.3183
0.0010262
0.507286
0.0277676
3.73098e-05
1.6705e-06
427.126
746.83
430.436
323.032
606.835
436.655
317.2
545.622
1277.7
1157.5
603.236
943.923
622.951
662.716
413.34
671.453
332.752
286.895
545.216
444.159
270.022
248.8
269.321
244.295
365.941
417.367
365.635
398.267
1291.09
2878.68
2607.43
1683.81
1582.11
2165.5
1457.78
983.201
1842.27
1149.3
794.568
741.149
1683.55
1081.76
989.395
1839.62
1089.65
827.856
1078.61
1613.79
749.9
875.226
1018.33
576.663
626.549
888.419
845.582
548.376
266.413
157.812
207.629
187.543
284.98
70.4754
108.274
301.997
208.649
226.194
203.588
305.34
94.587
122.828
125.112
340.764
243.085
340.286
294.127
434.38
215.331
121.906
207.615
224.811
202.529
185.083
298.974
302.406
4.98831
0.300215
3.45228e-07
0.0032573
3.20872e-07
60.0631
0.0499785
29.7436
80.2304
191.168
157.481
68.4256
135.659
42.8361
210.715
75.8378
180.232
293.722
205.378
319.747
177.835
27.0613
156.27
145.914
78.8003
116.154
50.8548
48.3215
168.238
85.547
57.374
36.2734
164.218
137.307
58.6106
84.6632
166.359
56.6021
34.8411
160.632
56.8015
134.332
33.2196
153.872
80.4117
162.848
52.5945
131.019
54.8355
0.684992
0.0224016
6.25293e-08
1.76514e-07
0.000648526
5.86381e-09
3.36985e-07
96.0657
115.79
193.23
24.8355
85.1305
23.0086
1.89061
32.2486
43.6764
113.284
231.466
132.811
40.2602
4.48956
43.5287
39.7843
132.322
31.9297
112.278
230.365
113.948
0.0671234
7.16628e-08
2.44408e-09
1.58258e-08
3.97667e-07
2.0472e-07
2.72522e-07
5.36292
14.6989
85.8056
10.6715
1.11625
0.20732
26.499
13.3928
74.0724
114.434
2.46411
0.443227
13.6114
32.7312
40.1591
101.033
130.533
3.6319
1.16314
23.5123
40.4613
25.9075
0.196118
10.2971
5.18293
85.0721
53.7152
14.4883
10.2934
20.653
2.33101
106.954
76.4981
21.9077
0.608448
83.84
0.999009
29.425
10.3629
154.231
38.5987
83.9582
71.3146
17.946
96.7164
18.1625
1.65206
32.6967
0.481613
0.137736
1.53698e-08
5.08603e-07
3.14979e-09
6.92336e-08
1.61805e-07
1.90485e-07
2.76512e-07
6.19775e-06
2.51315e-07
0.0027063
3.55688e-05
2.12513e-09
1.26606e-08
5.14976
10.0536
0.851878
88.0266
53.737
14.6003
0.167108
9.36327
2.06465
19.0488
102.668
20.4944
73.4341
0.516273
17.77
1.60548
32.2325
8.65574
96.2773
17.7866
70.4569
24.6341
0.939478
7.97437
96.4006
12.5267
67.2103
17.194
1.16087
98.0337
17.6499
8.5121
16.369
69.5624
0.347294
0.265977
24.7837
0.945844
97.3722
17.4634
8.10571
68.1362
20.726
10.5523
0.161576
4.92564
82.7757
59.444
10.1857
59.7631
10.7108
83.0098
20.9858
10.3588
0.522364
0.166112
5.07888
82.7394
10.7189
20.7439
10.1298
0.502782
0.16548
4.21024e-08
3.5367e-10
6.15789e-09
7.888e-06
6.80339e-08
4.85816e-07
0.00154197
0.985311
10.3566
0.0843817
0.0204963
6.91468
2.31548
0.00784926
3.88904e-10
3.4391e-09
4.09622e-08
6.64743e-08
2.75471e-07
8.61447e-06
0.000773987
0.00999013
0.0453497
0.200465
1.07061
11.4237
4.17549
3.95913
0.0146605
0.208914
0.0559572
1.57212
11.8528
4.61529
4.83179
0.242858
0.0724762
0.0182425
13.022
5.21137
1.89103
5.74266
0.0595601
0.0660557
0.01575
12.859
5.09119
1.70243
5.40421
1.35337
2.29066
24.9179
0.000429648
0.0195039
1.38182
0.0325464
0.0190546
0.971318
26.091
0.00056899
2.88965
0.0288698
0.0619126
5.59581
4.33437
44.7802
0.00137199
0.0732558
4.38455
0.105665
0.000202167
0.0204415
0.914957
0.353083
0.845472
15.0851
0.00782187
0.000553837
0.0277457
2.8002
0.0184134
0.930378
1.8833
25.5894
1.04874
0.000701338
3.09823
2.538
27.1379
0.0242168
0.031558
0.000480931
0.057862
3.12292
1.6144
0.0135275
0.666377
24.1333
24.2228
1.66401
0.0292979
3.1649
0.0613441
0.014496
0.000510581
15.5735
0.00818706
0.374121
0.962869
0.000210164
0.00930459
0.0212456
0.933197
0.0376429
3.00218
0.000162241
0.000658033
0.0572755
0.0145145
2.01234
0.00389004
0.362439
6.60139e-05
0.0004239
0.0359979
0.00557473
1.8866
0.000534268
0.0180444
0.939288
2.83362
25.9598
0.0274486
0.134368
5.41552e-05
0.00713123
0.135315
0.0144113
1.78197
0.00103394
6.78185e-05
0.0365617
0.00566742
0.377505
0.0248759
0.00405823
2.08138
0.0579468
0.000165071
0.0146882
0.959797
0.0387186
3.07328
0.00991947
3.64475e-05
0.00928093
0.000132827
0.977673
0.0122837
0.293526
0.00271779
0.0158815
3.94768e-05
0.000154783
0.00403925
0.00111676
0.126444
0.438174
0.000218764
0.00558247
0.0014099
0.161316
0.0233802
0.626472
0.00537095
0.449078
0.0163388
0.00450909
0.00411198
0.00121039
0.000160931
4.16175e-05
0.288558
0.003393
0.0096028
0.000131474
0.999272
0.0122343
3.5657e-05
0.0497355
0.00117177
0.141162
0.00430002
1.07404e-05
0.00134434
3.66289e-05
0.00278957
1.42754e-05
0.000561002
0.0617655
0.00797006
0.307647
0.00152157
0.000106113
1.85355e-05
0.00187616
0.000588404
0.00296508
0.0638059
0.316307
2.38382e-05
0.00250867
0.00921817
9.05788e-05
0.00352152
0.112137
0.398357
0.00382103
2.84921e-05
0.00107584
0.0109992
0.420316
0.122247
0.00308784
4.08066e-05
0.00491245
0.00118033
0.138552
0.020037
0.553602
0.00445541
2.30432e-05
0.00907987
8.84469e-05
0.0035717
0.000974884
0.406615
0.113192
0.00431499
1.08309e-05
0.00134484
0.0507765
0.00117073
0.138027
0.000410716
0.00346713
0.0123199
0.995264
0.00943502
3.72141e-05
0.000132937
0.00277659
0.0119506
0.288415
0.97091
0.00905547
3.47806e-05
0.000127331
0.00264413
0.000393726
0.00112594
0.136464
0.0040941
1.04905e-05
3.47035e-05
0.0013192
0.331997
0.0114864
0.00198268
0.00316598
0.000615189
1.93898e-05
0.000115525
1.0776e-05
0.000532428
0.0576184
7.91777e-06
2.51317e-07
1.59157e-05
0.000790486
1.002e-05
0.00112069
0.0793038
2.54294e-07
1.66531e-05
0.00114447
1.01682e-05
0.000748106
0.00017979
6.67766e-05
1.38709e-05
6.40555e-06
7.14784e-07
1.73223e-06
0.00148773
0.000175452
6.60113e-05
1.33054e-05
6.57313e-06
1.68511e-06
6.972e-07
3.88237e-06
0.000355351
0.0159679
2.40684e-07
2.78251e-06
5.23016e-06
0.000236295
0.00491638
1.71182e-06
0.000216189
9.24034e-07
0.000111904
4.02822e-06
1.03799e-07
5.07323e-07
8.28033e-06
1.62556e-05
0.000797829
0.0590077
0.000546238
0.00111185
0.000142031
4.85297e-06
1.86055e-05
0.00201341
0.000527251
1.42553e-06
4.90868e-06
0.000450634
9.84321e-05
0.000433906
1.82481e-05
0.00195293
1.06172e-06
4.19001e-06
1.66701e-09
1.73258e-10
1.77218e-10
1.67786e-09
6.93769e-09
1.38486e-10
1.1789e-10
3.36208e-10
6.67097e-08
9.60323e-10
2.61596e-09
5.33896e-11
4.57004e-11
8.45465e-11
1.75226e-06
5.57e-06
0.000598672
2.15744e-05
0.00230237
0.00069606
0.000177053
5.70711e-06
5.09021e-06
2.05489e-05
0.00224301
0.000558536
0.000615632
0.000149413
0.000672518
2.3031e-07
7.07909e-06
0.000229346
2.48092e-06
0.0216499
0.000196588
0.000209673
1.04001e-07
3.93222e-06
9.21485e-07
0.000107825
0.00482369
3.75124e-05
0.000234637
7.2318e-06
0.000700186
2.52936e-06
0.00020422
6.57543e-06
2.37141e-07
0.000196195
0.000663725
0.0224982
6.74514e-06
0.000227147
2.36015e-06
2.10876e-07
0.00333908
2.26056e-06
9.32174e-05
1.06797e-06
3.06117e-05
1.06831e-06
2.29627e-07
0.00780939
5.43963e-06
0.000247847
1.97694e-06
6.85139e-05
2.43211e-06
3.57502e-07
5.75441e-06
3.31402e-06
0.000239685
0.0165102
4.4968e-06
0.000175577
0.000363669
2.74089e-06
2.29321e-06
7.45154e-05
0.00861129
6.44392e-06
0.00020712
0.000273231
8.62763e-05
2.0748e-07
2.14576e-06
1.00063e-06
2.8068e-05
0.00306984
7.46852e-05
0.000238742
2.35799e-06
6.42088e-05
3.51297e-07
1.92898e-06
0.000166083
0.00746159
0.000159367
3.07233e-07
1.79302e-06
2.20786e-06
6.22568e-05
0.00737636
0.000230131
1.08829e-06
2.21644e-07
6.27704e-06
6.32575e-06
1.09951e-06
0.000508307
7.79346e-05
3.16842e-07
9.56474e-06
2.11353e-07
9.61592e-06
0.000792326
2.43218e-06
0.000193712
0.000390192
1.02314e-06
3.92174e-06
1.79891e-07
1.14326e-07
1.77123e-06
7.09079e-06
1.24141e-07
7.21085e-06
1.8063e-06
0.000402596
0.000100274
4.042e-06
1.05095e-06
2.80495e-06
6.74307e-07
4.12931e-05
9.7317e-07
2.57728e-07
3.04542e-07
4.84168e-06
1.0817e-10
9.23049e-10
5.49631e-09
7.4124e-11
6.19239e-11
1.69098e-10
6.2835e-11
4.36063e-07
8.92451e-08
9.93433e-08
8.55601e-05
1.36781e-06
2.97055e-07
2.47314e-05
3.1943e-07
4.92233e-06
1.00947e-06
0.000264376
4.39054e-05
7.07075e-07
2.88569e-06
7.93739e-07
2.33916e-05
9.22647e-08
8.51407e-05
1.31046e-06
4.05696e-07
8.16213e-08
5.88959e-07
0.000117605
7.94689e-06
2.53573e-07
1.08705e-06
2.54045e-07
1.87555e-07
0.000115962
6.04392e-07
8.09555e-06
2.54298e-07
1.10906e-06
2.50412e-07
1.84031e-07
3.18134e-07
5.39165e-06
2.81471e-05
1.56813e-07
1.4522e-07
1.95032e-07
4.04808e-07
1.5998e-06
3.80274e-05
9.8786e-06
1.80918e-07
1.94319e-07
2.67721e-07
5.22606e-07
3.55553e-07
9.70447e-07
1.49942e-07
4.1568e-07
3.15346e-05
2.14844e-07
1.41019e-07
3.70165e-05
8.86875e-07
2.05357e-06
0.000139742
1.8808e-06
5.03937e-07
4.77787e-07
2.87059e-07
2.17031e-07
5.96871e-07
1.85694e-06
5.51526e-07
4.50639e-05
1.02479e-05
1.68598e-07
1.86379e-07
4.74652e-07
1.13011e-06
3.48146e-05
4.21777e-07
9.42265e-06
6.87238e-07
2.33369e-07
3.39992e-07
6.68036e-07
2.19678e-06
5.15048e-05
1.2333e-05
1.30381e-07
2.00845e-07
9.36081e-07
1.39899e-07
4.03405e-07
3.18449e-05
8.3739e-06
8.46526e-05
5.48132e-07
6.88465e-07
3.62226e-07
1.58517e-06
2.43265e-05
1.05831e-06
8.05689e-05
3.3617e-07
6.38545e-07
5.10909e-07
1.50079e-06
9.97801e-07
2.30053e-05
2.88231e-05
1.96268e-07
5.50028e-06
3.24719e-07
1.57856e-07
1.17302e-06
1.46372e-07
3.80675e-05
2.66325e-07
1.00288e-05
1.94572e-07
1.62097e-06
5.31729e-07
1.82358e-07
7.88634e-07
1.95661e-06
0.000134668
1.78472e-06
4.73591e-07
4.49712e-07
8.29324e-07
1.31124e-05
9.01088e-08
2.35873e-07
9.0158e-08
8.77385e-08
8.9482e-08
2.94484e-07
7.94021e-08
7.96309e-08
7.71962e-08
8.15904e-08
1.83746e-07
2.77414e-07
8.99389e-06
6.09821e-07
1.08004e-06
2.46181e-05
5.33464e-07
5.07169e-06
4.46265e-07
4.09425e-07
2.10672e-07
2.05797e-07
2.87607e-07
8.88751e-06
3.15398e-06
2.29593e-07
2.75684e-07
4.66409e-07
2.01062e-07
8.50793e-06
3.06606e-06
2.63607e-07
2.19721e-07
1.96367e-07
1.21625e-07
1.23132e-07
1.51864e-07
1.25427e-07
1.84763e-07
1.53736e-07
2.68557e-06
1.5102e-06
6.87947e-08
1.03071e-07
6.86546e-08
9.20712e-08
6.79153e-08
6.81791e-08
6.54909e-08
1.03923e-07
1.4346e-06
7.22865e-08
5.43916e-08
5.47393e-08
5.5081e-08
1.4761e-07
8.38928e-08
1.03724e-07
2.0308e-06
1.06315e-07
8.26418e-08
8.64442e-08
1.45326e-07
1.02335e-07
9.97313e-08
8.02802e-08
8.09183e-08
8.01715e-08
7.96351e-08
4.30688e-06
1.87639e-07
1.5276e-07
1.51596e-07
2.19514e-07
1.50856e-07
1.5112e-07
7.23234e-08
7.9781e-08
1.51271e-06
1.11882e-07
5.98583e-08
6.06206e-08
6.00694e-08
4.47736e-06
1.43231e-07
2.21608e-07
1.43774e-07
1.43611e-07
2.22031e-07
1.43298e-07
3.39813e-07
4.66335e-07
3.40311e-07
5.19524e-07
1.22873e-05
4.57196e-07
3.38372e-07
2.60124e-07
1.62696e-07
1.6132e-07
2.31555e-07
4.42743e-06
1.9871e-07
1.62943e-07
3.5853e-07
6.91261e-08
7.68274e-08
6.8789e-08
6.90381e-08
7.08893e-08
6.90115e-08
8.19559e-08
7.99497e-08
8.02269e-08
8.03671e-08
9.12367e-08
8.94444e-08
4.14343e-07
7.16662e-08
6.41385e-08
6.43102e-08
6.42684e-08
6.60225e-08
7.35257e-08
3.46102e-07
2.04983e-07
1.72586e-07
1.83588e-07
1.72991e-07
1.72787e-07
1.78933e-07
1.06716e-06
2.03758e-07
2.05066e-07
2.18677e-07
2.26963e-07
1.15195e-06
2.11216e-07
2.04342e-07
7.72205e-08
7.10864e-08
3.72303e-07
7.9275e-08
6.90269e-08
6.92577e-08
6.93791e-08
1.40056e-06
2.13346e-07
2.23561e-07
2.13528e-07
2.14105e-07
2.2583e-07
2.12449e-07
)
;

boundaryField
{
    ground
    {
        type            calculated;
        value           nonuniform List<scalar> 
294
(
5.77804e-10
2.99887e-12
0
0
0
0
3.6512e-14
2.33645e-14
2.61211e-12
1.64173e-10
1.5121e-10
1.55543e-10
0
0
0
0
0
0
0
0
0
0
0
0
0
8.23139e-16
4.16855e-13
0
0
0
0
0
0
3.7991e-16
3.35035e-13
0
0
0
0
0
0
0
3.07426e-14
0
0
0
0
0
0
0
0
5.82496e-14
0
0
0
0
0
0
0
0
0
0
0
0
0
0
0
0
0
0
0
0
0
0
0
0
0
0
0
0
0
0
0
0
0
0
0
0
0
0
0
0
0
0
0
0
0
0
0
0
0
0
0
0
0
0
0
0
0
0
0
0
0
0
0
9.6197e-11
8.58973e-11
5.55838e-12
0
0
0
0
3.24111e-10
7.45453e-12
6.04594e-14
9.41069e-15
1.64511e-12
0
0
2.40215e-10
3.6846e-14
0
0
0
0
0
5.50499e-12
2.75847e-12
4.99885e-12
1.30436e-14
3.66558e-14
0
0
0
0
0
0
0
0
2.16275e-10
4.95219e-09
8.70037e-09
2.76406e-10
2.56197e-10
3.7123e-09
2.35732e-10
2.01151e-10
3.15909e-09
3.34025e-10
3.04691e-10
9.68127e-10
2.02946e-10
1.96775e-10
115.79
0.000355351
8.01519e-05
3.43471e-09
6.87947e-08
1.25427e-07
0.032049
7.41934e-07
0.00818706
1.08004e-06
5.98059e-12
3.31796e-10
1.88401e-11
6.84664e-08
2.47145e-13
2.9121e-12
2.56425e-10
1.70924e-08
1.44439e-08
1.37757e-09
1.47584e-09
2.38326e-11
3.20095e-13
1.66732e-09
1.34868e-14
3.79791e-13
0
0
9.08113e-13
9.56107e-15
3.60734e-11
0
6.33184e-17
0
5.57202e-15
0
0
5.00215e-15
0
4.62674e-13
3.6429e-11
5.35316e-11
9.35545e-13
1.21749e-12
1.66527e-14
0
0
8.6113e-15
1.5703e-14
0
0
0
0
0
2.66501e-09
3.41219e-11
3.60331e-13
3.13884e-11
0.0820033
8.03671e-08
26.2702
1.13011e-06
7.74616e-05
2.0748e-07
0.0204415
4.08985e-07
0.000105601
31.2764
33.0615
1.89061
24.8355
2.05066e-07
2.44408e-09
7.16628e-08
0.851878
0.167108
10.0536
16.369
0.347294
1.16087
0.000429648
0.0325464
2.29066
0.000701338
0.0242168
2.538
0.845472
0.00782187
0.000202167
0.885448
0.0212456
0.000210164
1.42754e-05
0.00152157
0.00797006
0.0109992
0.00308784
2.84921e-05
3.88237e-06
2.40684e-07
5.23016e-06
2.26056e-06
2.29627e-07