/*--------------------------------*- C++ -*----------------------------------*\
  =========                 |
  \\      /  F ield         | OpenFOAM: The Open Source CFD Toolbox
   \\    /   O peration     | Website:  https://openfoam.org
    \\  /    A nd           | Version:  9
     \\/     M anipulation  |
\*---------------------------------------------------------------------------*/
FoamFile
{
    format      ascii;
    class       volScalarField;
    location    "0.00185";
    object      alpha.c4;
}
// * * * * * * * * * * * * * * * * * * * * * * * * * * * * * * * * * * * * * //

dimensions      [0 0 0 0 0 0 0];

internalField   nonuniform List<scalar> 
15501
(
2.94824e-27
1.84364e-25
1.08258e-23
5.86738e-22
2.90924e-20
1.29145e-18
4.92213e-17
1.13316e-28
7.006e-27
4.06986e-25
2.18194e-23
1.07359e-21
4.78554e-20
1.86648e-18
3.45728e-30
2.10593e-28
1.20499e-26
6.34286e-25
3.05257e-23
1.33114e-21
5.13023e-20
8.82897e-32
5.28698e-30
2.97417e-28
1.53497e-26
7.2024e-25
3.04156e-23
1.1341e-21
1.99239e-33
1.1717e-31
6.47268e-30
3.27582e-28
1.50117e-26
6.14877e-25
2.2093e-23
6.04721e-17
1.65764e-18
3.5893e-20
6.75325e-22
1.64926e-15
3.87441e-11
1.66022e-15
4.19298e-17
9.09694e-19
1.67955e-20
4.77754e-07
1.54605e-14
7.59414e-16
1.78255e-17
3.28843e-19
5.15324e-17
6.35325e-15
2.00347e-09
3.57527e-06
5.98366e-18
3.48043e-16
2.05296e-14
4.51003e-08
0.000236196
1.14633e-18
6.0572e-17
3.93431e-15
1.63226e-12
1.89132e-07
1.19995e-37
8.53514e-36
5.73959e-34
3.5567e-32
1.99892e-30
1.00078e-28
4.38198e-27
1.64784e-25
5.20778e-24
1.32818e-22
6.49247e-36
4.75111e-34
3.28626e-32
2.09447e-30
1.21166e-28
6.26691e-27
2.85748e-25
1.13027e-23
3.76433e-22
1.00038e-20
3.2192e-34
2.42099e-32
1.72149e-30
1.12991e-28
6.76512e-27
3.6583e-25
1.76799e-23
7.45796e-22
2.61664e-20
7.30399e-19
1.40673e-32
1.08583e-30
7.94138e-29
5.39138e-27
3.37582e-25
1.93844e-23
1.00144e-21
4.43109e-20
1.56514e-18
4.31812e-17
5.2695e-31
4.16873e-29
3.14149e-27
2.22121e-25
1.4708e-23
8.9963e-22
4.83827e-20
2.09853e-18
6.83791e-17
7.89615e-16
1.64107e-29
1.3289e-27
1.03419e-25
7.6554e-24
5.3571e-22
3.40029e-20
1.77895e-18
7.2094e-17
4.85389e-16
3.26368e-13
4.1385e-28
3.42448e-26
2.74896e-24
2.11992e-22
1.53637e-20
9.63119e-19
4.54978e-17
3.80906e-16
9.94539e-07
9.75156e-07
8.39072e-27
7.08231e-25
5.82134e-23
4.58641e-21
3.33028e-19
1.95007e-17
1.5993e-14
1.09576e-07
0.000454501
4.4325e-38
2.89686e-36
1.80496e-34
1.04569e-32
5.54542e-31
2.63925e-29
1.10111e-27
3.92367e-26
1.1577e-24
2.72487e-23
2.22211e-36
1.4997e-34
9.66419e-33
5.79383e-31
3.17846e-29
1.56361e-27
6.74061e-26
2.47771e-24
7.51014e-23
1.79005e-21
1.02955e-34
7.17543e-33
4.77966e-31
2.9644e-29
1.68347e-27
8.58783e-26
3.84616e-24
1.47631e-22
4.6891e-21
1.16092e-19
4.24186e-33
3.04848e-31
2.09695e-29
1.34555e-27
7.92983e-26
4.21472e-24
1.98955e-22
8.2415e-21
2.8978e-19
7.92223e-18
1.51195e-31
1.11698e-29
7.91902e-28
5.25919e-26
3.22443e-24
1.80637e-22
9.27769e-21
4.36335e-19
1.69691e-17
2.78575e-16
4.51191e-30
3.41058e-28
2.48588e-26
1.70773e-24
1.0944e-22
6.58086e-21
3.79007e-19
1.88698e-17
2.72155e-16
8.14288e-14
1.09161e-28
8.39726e-27
6.27095e-25
4.43662e-23
2.96321e-21
1.91651e-19
1.17509e-17
2.11237e-16
8.57593e-09
1.47052e-07
2.10408e-27
1.64069e-25
1.24599e-23
8.93658e-22
6.05882e-20
4.35537e-18
8.36798e-16
7.26511e-10
1.66615e-05
0.00248282
9.24221e-39
5.60358e-37
3.23265e-35
1.72962e-33
8.48858e-32
3.76237e-30
1.47471e-28
4.97485e-27
1.39714e-25
3.14437e-24
4.34403e-37
2.70155e-35
1.59838e-33
8.79453e-32
4.44568e-30
2.02996e-28
8.18573e-27
2.83277e-25
8.12245e-24
1.84948e-22
1.89156e-35
1.20465e-33
7.31854e-32
4.14456e-30
2.15931e-28
1.01642e-26
4.22431e-25
1.50756e-23
4.46435e-22
1.04253e-20
7.35449e-34
4.79869e-32
2.99434e-30
1.74555e-28
9.37456e-27
4.55616e-25
1.96362e-23
7.35857e-22
2.32431e-20
5.71883e-19
2.50369e-32
1.67128e-30
1.06938e-28
6.4069e-27
3.54583e-25
1.78666e-23
8.13134e-22
3.33513e-20
1.16025e-18
2.87897e-17
7.28529e-31
4.956e-29
3.23878e-27
1.98767e-25
1.13345e-23
5.98655e-22
2.97707e-20
1.37384e-18
4.74296e-17
1.00309e-15
1.76582e-29
1.21627e-27
8.06441e-26
5.042e-24
2.95923e-22
1.65753e-20
9.11992e-19
4.33021e-17
4.16488e-16
1.20881e-12
3.4909e-28
2.41426e-26
1.6099e-24
1.01508e-22
6.05069e-21
3.52251e-19
2.03233e-17
3.67327e-16
5.17953e-13
1.28724e-08
1.34535e-39
8.04873e-38
4.55053e-36
2.37639e-34
1.13429e-32
4.88222e-31
1.86171e-29
6.14353e-28
1.70042e-26
3.79445e-25
6.26658e-38
3.81737e-36
2.20196e-34
1.17575e-32
5.75098e-31
2.54165e-29
9.96303e-28
3.37629e-26
9.54827e-25
2.15154e-23
2.69491e-36
1.67362e-34
9.86148e-33
5.39259e-31
2.70833e-29
1.23172e-27
4.97334e-26
1.73396e-24
5.022e-23
1.14647e-21
1.03603e-34
6.56481e-33
3.9561e-31
2.21884e-29
1.14601e-27
5.37057e-26
2.23647e-24
8.04676e-23
2.40923e-21
5.67482e-20
3.50028e-33
2.26283e-31
1.39456e-29
8.02067e-28
4.25753e-26
2.05386e-24
8.83025e-23
3.3121e-21
1.05309e-19
2.6643e-18
1.01739e-31
6.69763e-30
4.21105e-28
2.47538e-26
1.34479e-24
6.6566e-23
2.96805e-21
1.18669e-19
4.11024e-18
1.08476e-16
2.48034e-30
1.6552e-28
1.05547e-26
6.29405e-25
3.47034e-23
1.75286e-21
8.14147e-20
3.47329e-18
1.18973e-16
4.05545e-15
4.93984e-29
3.31844e-27
2.12776e-25
1.27408e-23
7.04533e-22
3.57666e-20
1.68332e-18
7.07567e-17
2.21405e-15
6.09851e-12
1.18348e-40
7.07563e-39
3.98784e-37
2.07119e-35
9.80983e-34
4.18199e-32
1.57836e-30
5.1642e-29
1.42564e-27
3.20999e-26
5.52051e-39
3.35252e-37
1.92263e-35
1.0178e-33
4.9226e-32
2.14715e-30
8.30715e-29
2.7888e-27
7.88824e-26
1.80938e-24
2.37611e-37
1.46779e-35
8.57531e-34
4.63426e-32
2.29353e-30
1.02626e-28
4.08209e-27
1.4104e-25
4.10106e-24
9.62697e-23
9.14674e-36
5.75344e-34
3.42925e-32
1.89549e-30
9.62097e-29
4.42704e-27
1.81473e-25
6.47162e-24
1.94632e-22
4.7399e-21
3.09945e-34
1.98638e-32
1.20886e-30
6.84081e-29
3.56427e-27
1.68746e-25
7.13476e-24
2.63833e-22
8.33596e-21
2.17396e-19
9.06304e-33
5.91507e-31
3.67303e-29
2.12561e-27
1.13479e-25
5.51631e-24
2.40723e-22
9.33133e-21
3.17955e-19
9.07721e-18
2.23126e-31
1.47962e-29
9.3462e-28
5.50792e-26
2.99702e-24
1.48891e-22
6.71163e-21
2.75e-19
9.97505e-18
2.8395e-16
4.49553e-30
3.016e-28
1.92742e-26
1.14884e-24
6.32085e-23
3.18196e-21
1.46308e-19
6.05372e-18
1.97041e-16
1.05592e-13
7.04081e-42
4.19678e-40
2.35504e-38
1.21609e-36
5.71815e-35
2.41657e-33
9.03099e-32
2.92488e-30
8.00642e-29
1.79668e-27
3.27987e-40
1.98261e-38
1.12977e-36
5.93157e-35
2.8395e-33
1.22343e-31
4.66829e-30
1.54543e-28
4.32316e-27
9.88532e-26
1.4093e-38
8.64959e-37
5.00984e-35
2.67752e-33
1.30701e-31
5.75358e-30
2.24754e-28
7.62871e-27
2.18814e-25
5.11679e-24
5.41514e-37
3.37771e-35
1.99096e-33
1.08497e-31
5.41167e-30
2.43986e-28
9.78234e-27
3.41331e-25
1.00732e-23
2.42372e-22
1.83234e-35
1.16229e-33
6.97826e-32
3.88189e-30
1.98106e-28
9.15831e-27
3.77248e-25
1.35547e-23
4.14035e-22
1.04086e-20
5.35615e-34
3.45472e-32
2.11258e-30
1.19941e-28
6.25913e-27
2.96369e-25
1.25301e-23
4.64974e-22
1.49064e-20
4.01954e-19
1.32057e-32
8.64865e-31
5.37736e-29
3.10837e-27
1.65311e-25
7.98512e-24
3.45763e-22
1.33204e-20
4.54187e-19
1.30339e-17
2.6675e-31
1.76878e-29
1.11416e-27
6.52652e-26
3.51657e-24
1.72162e-22
7.5927e-21
3.01525e-19
1.05378e-17
2.81805e-16
3.11298e-43
1.84444e-41
1.02791e-39
5.26611e-38
2.4542e-36
1.02698e-34
3.79676e-33
1.21575e-31
3.29021e-30
7.31089e-29
1.44372e-41
8.66263e-40
4.89382e-38
2.54375e-36
1.20382e-34
5.11957e-33
1.92517e-31
6.27333e-30
1.72743e-28
3.89791e-27
6.17383e-40
3.75495e-38
2.15175e-36
1.13568e-34
5.46327e-33
2.36471e-31
9.06248e-30
3.01311e-28
8.4672e-27
1.9461e-25
2.36007e-38
1.45603e-36
8.47125e-35
4.54549e-33
2.22621e-31
9.82602e-30
3.84631e-28
1.30785e-26
3.7596e-25
8.82444e-24
7.94409e-37
4.97361e-35
2.93984e-33
1.60514e-31
8.01278e-30
3.61081e-28
1.4452e-26
5.02951e-25
1.48092e-23
3.56319e-22
2.31088e-35
1.46793e-33
8.8149e-32
4.89724e-30
2.4914e-28
1.14563e-26
4.68258e-25
1.66614e-23
5.0355e-22
1.2535e-20
5.67371e-34
3.65289e-32
2.22569e-30
1.2561e-28
6.49697e-27
3.03823e-25
1.26309e-23
4.58394e-22
1.42753e-20
3.70576e-19
1.14227e-32
7.43635e-31
4.58454e-29
2.61888e-27
1.37061e-25
6.47806e-24
2.71997e-22
1.00029e-20
3.18091e-19
8.28392e-18
1.09085e-44
6.41222e-43
3.54304e-41
1.79828e-39
8.29712e-38
3.43538e-36
1.25613e-34
3.97608e-33
1.06364e-31
2.33738e-30
5.02683e-43
2.98859e-41
1.67134e-39
8.59108e-38
4.01644e-36
1.68564e-34
6.24843e-33
2.00502e-31
5.43334e-30
1.20718e-28
2.13534e-41
1.28486e-39
7.27546e-38
3.78915e-36
1.796e-34
7.64672e-33
2.87745e-31
9.37759e-30
2.58033e-28
5.81086e-27
8.10544e-40
4.93824e-38
2.83309e-36
1.49624e-34
7.19759e-33
3.11295e-31
1.19106e-29
3.94962e-28
1.10558e-26
2.52742e-25
2.70847e-38
1.67116e-36
9.71747e-35
5.207e-33
2.54402e-31
1.11868e-29
4.35585e-28
1.47048e-26
4.18758e-25
9.71424e-24
7.82106e-37
4.886e-35
2.87906e-33
1.56495e-31
7.76411e-30
3.46979e-28
1.3735e-26
4.71102e-25
1.3614e-23
3.19883e-22
1.90726e-35
1.20507e-33
7.18724e-32
3.9573e-30
1.98981e-28
9.01222e-27
3.61176e-25
1.25183e-23
3.65128e-22
8.65672e-21
3.8167e-34
2.4339e-32
1.4657e-30
8.14963e-29
4.13617e-27
1.88791e-25
7.60112e-24
2.63598e-22
7.66662e-21
1.7966e-19
3.16702e-46
1.84495e-44
1.00982e-42
5.07419e-41
2.31677e-39
9.48975e-38
3.43176e-36
1.0744e-34
2.84323e-33
6.18433e-32
1.44856e-44
8.52519e-43
4.71626e-41
2.39627e-39
1.10657e-37
4.58424e-36
1.67636e-34
5.30341e-33
1.41644e-31
3.10238e-30
6.10669e-43
3.63215e-41
2.03135e-39
1.04384e-37
4.87657e-36
2.04426e-34
7.5648e-33
2.42123e-31
6.53664e-30
1.44424e-28
2.29952e-41
1.38262e-39
7.82024e-38
4.06631e-36
1.92305e-34
8.16338e-33
3.05973e-31
9.9192e-30
2.71032e-28
6.04681e-27
7.62047e-40
4.632e-38
2.64995e-36
1.39456e-34
6.67842e-33
2.87197e-31
1.09075e-29
3.5825e-28
9.90533e-27
2.22893e-25
2.18234e-38
1.34047e-36
7.75378e-35
4.12807e-33
2.00091e-31
8.71162e-30
3.34925e-28
1.1124e-26
3.10224e-25
7.00631e-24
5.27975e-37
3.27365e-35
1.91228e-33
1.02847e-31
5.03643e-30
2.21452e-28
8.58685e-27
2.868e-25
8.00318e-24
1.79522e-22
1.04907e-35
6.55328e-34
3.85698e-32
2.08967e-30
1.03011e-28
4.55153e-27
1.7673e-25
5.87462e-24
1.61637e-22
3.52493e-21
8.0333e-48
4.6345e-46
2.51121e-44
1.24859e-42
5.63891e-41
2.28419e-39
8.16972e-38
2.53044e-36
6.62935e-35
1.42896e-33
3.64435e-46
2.1219e-44
1.16066e-42
5.82716e-41
2.65759e-39
1.08692e-37
3.92304e-36
1.22495e-34
3.22972e-33
6.98778e-32
1.52358e-44
8.95469e-43
4.9448e-41
2.50679e-39
1.15448e-37
4.76739e-36
1.73672e-34
5.46913e-33
1.45225e-31
3.15662e-30
5.68776e-43
3.37481e-41
1.8817e-39
9.63491e-38
4.48202e-36
1.86932e-34
6.87562e-33
2.18467e-31
5.84561e-30
1.27709e-28
1.86826e-41
1.11896e-39
6.29928e-38
3.25755e-36
1.53061e-34
6.44711e-33
2.39405e-31
7.67376e-30
2.06796e-28
4.53534e-27
5.30294e-40
3.20448e-38
1.82045e-36
9.50196e-35
4.50638e-33
1.91538e-31
7.17202e-30
2.31494e-28
6.2643e-27
1.37254e-25
1.27209e-38
7.74742e-37
4.43591e-35
2.33347e-33
1.11496e-31
4.77081e-30
1.79553e-28
5.80721e-27
1.56636e-25
3.39187e-24
2.50846e-37
1.53689e-35
8.84976e-34
4.67943e-32
2.24518e-30
9.62877e-29
3.61971e-27
1.16238e-25
3.08242e-24
6.46841e-23
5.32488e-19
1.02858e-19
2.09321e-20
3.1541e-21
1.91448e-19
1.072e-17
4.83488e-16
2.47413e-14
8.86012e-13
1.38318e-25
1.20004e-23
1.00244e-21
7.828e-20
5.8275e-18
4.80819e-16
4.1145e-13
1.38551e-06
0.00111746
1.77257e-24
1.64618e-22
1.46781e-20
1.1348e-18
6.65314e-17
1.19848e-15
2.28153e-13
0.00291111
1.43723e-23
1.16064e-21
8.62793e-20
6.18363e-18
4.93701e-16
1.95878e-14
6.90693e-11
0.00511014
4.70642e-23
3.55611e-21
2.75194e-19
2.32285e-17
2.19448e-15
9.0113e-11
0.000231084
8.95993e-23
6.79607e-21
3.23251e-26
2.54237e-24
1.95345e-22
1.40609e-20
9.11635e-19
4.98242e-17
1.56789e-14
1.24158e-08
0.000168482
3.69336e-25
2.85621e-23
2.23186e-21
1.82183e-19
1.62007e-17
6.02028e-16
3.87056e-14
0.000368155
3.27391e-24
2.52715e-22
1.85347e-20
1.17878e-18
5.73215e-17
1.31362e-15
6.21768e-13
0.000691147
1.30147e-23
9.10187e-22
5.93116e-20
3.49395e-18
1.99599e-16
6.80686e-14
2.92279e-08
0.000395618
2.39986e-23
1.62271e-21
5.54793e-27
3.8207e-25
2.5389e-23
1.59255e-21
9.24633e-20
4.89516e-18
2.62333e-16
6.6074e-14
8.28554e-14
6.80903e-26
4.61923e-24
3.03547e-22
1.91268e-20
1.13756e-18
5.69876e-17
7.31598e-16
6.05471e-12
5.97246e-25
4.03941e-23
2.6139e-21
1.53538e-19
7.86859e-18
3.63888e-16
8.44492e-15
1.50803e-06
2.73352e-24
1.79703e-22
1.10875e-20
6.18156e-19
3.21718e-17
1.897e-15
1.00494e-12
1.18524e-05
5.34827e-24
3.45915e-22
7.86756e-28
5.29155e-26
3.3947e-24
2.03339e-22
1.12003e-20
5.58347e-19
2.76224e-17
2.57788e-15
2.62443e-14
9.76977e-27
6.56785e-25
4.22381e-23
2.55287e-21
1.42311e-19
6.95625e-18
2.80709e-16
6.8337e-13
6.96153e-10
8.52356e-26
5.57845e-24
3.46239e-22
2.00217e-20
1.1004e-18
6.76291e-17
3.62113e-15
2.86686e-11
3.93557e-25
2.57366e-23
1.62969e-21
9.95399e-20
5.73732e-18
2.72521e-16
7.63637e-14
1.54914e-07
7.61172e-25
4.97631e-23
7.20302e-29
4.86745e-27
3.13206e-25
1.87885e-23
1.03907e-21
5.23172e-20
2.36636e-18
9.17248e-17
2.78588e-15
8.88826e-28
6.03372e-26
3.90355e-24
2.36184e-22
1.32282e-20
6.72074e-19
3.02792e-17
1.22443e-15
1.98934e-14
7.72954e-27
5.16994e-25
3.29849e-23
1.98939e-21
1.14676e-19
6.22082e-18
2.85692e-16
4.99298e-15
3.51926e-26
2.3288e-24
1.48123e-22
8.95551e-21
5.06143e-19
2.51392e-17
1.00984e-15
1.30006e-13
6.59046e-26
4.29387e-24
2.66751e-22
1.54738e-20
8.17695e-19
3.73974e-17
1.47043e-15
1.05261e-13
4.27339e-30
2.85928e-28
1.81737e-26
1.07386e-24
5.8317e-23
2.87293e-21
1.27124e-19
5.03134e-18
1.69737e-16
5.01435e-15
5.22907e-29
3.52059e-27
2.25225e-25
1.34111e-23
7.35733e-22
3.65919e-20
1.61904e-18
6.77254e-17
1.88546e-15
2.07067e-14
4.50276e-28
3.01277e-26
1.91708e-24
1.14298e-22
6.40703e-21
3.34715e-19
1.53465e-17
5.29018e-16
2.03404e-27
1.34469e-25
8.49401e-24
5.05637e-22
2.80681e-20
1.40077e-18
5.94e-17
2.25264e-15
3.77718e-27
2.46289e-25
1.52873e-23
8.8689e-22
4.74313e-20
2.26882e-18
9.45223e-17
3.71593e-15
1.82217e-31
1.19597e-29
7.43457e-28
4.28049e-26
2.25516e-24
1.07035e-22
4.49412e-21
1.64214e-19
5.12802e-18
1.24949e-16
2.20846e-30
1.45798e-28
9.11548e-27
5.27779e-25
2.7975e-23
1.33551e-21
5.59617e-20
1.99433e-18
6.15125e-17
1.23735e-15
1.87487e-29
1.23521e-27
7.70654e-26
4.46122e-24
2.38731e-22
1.17284e-20
5.13181e-19
1.83349e-17
8.40824e-29
5.47807e-27
3.38925e-25
1.95793e-23
1.04802e-21
5.07396e-20
2.1066e-18
6.97585e-17
1.55708e-28
1.00367e-26
6.13808e-25
3.49655e-23
1.83857e-21
8.7236e-20
3.57555e-18
1.20429e-16
6.05156e-33
3.8844e-31
2.35446e-29
1.31687e-27
6.71255e-26
3.06765e-24
1.22948e-22
4.20193e-21
1.18424e-19
2.61895e-18
7.26722e-32
4.68536e-30
2.85188e-28
1.60037e-26
8.1748e-25
3.73728e-23
1.49103e-21
4.98899e-20
1.32314e-18
2.52114e-17
6.07812e-31
3.91603e-29
2.38155e-27
1.3345e-25
6.82403e-24
3.14999e-22
1.28542e-20
4.40876e-19
2.70517e-30
1.72546e-28
1.04003e-26
5.80271e-25
2.9718e-23
1.37393e-21
5.51999e-20
1.79869e-18
4.99516e-30
3.15916e-28
1.88836e-26
1.04461e-24
5.30134e-23
2.42721e-21
9.66773e-20
3.13873e-18
1.65258e-34
1.03737e-32
6.1336e-31
3.33557e-29
1.64753e-27
7.26959e-26
2.80181e-24
9.14638e-23
2.42672e-21
4.95802e-20
1.96863e-33
1.23914e-31
7.34438e-30
3.99916e-28
1.97375e-26
8.67422e-25
3.31254e-23
1.06025e-21
2.69763e-20
5.13132e-19
1.62502e-32
1.02174e-30
6.05065e-29
3.28794e-27
1.61788e-25
7.09625e-24
2.71668e-22
8.75504e-21
7.17988e-32
4.47267e-30
2.62508e-28
1.41732e-26
6.96253e-25
3.06474e-23
1.17613e-21
3.74133e-20
1.32043e-31
8.16697e-30
4.76172e-28
2.55516e-26
1.2482e-24
5.46579e-23
2.08698e-21
6.59941e-20
3.92582e-36
2.41368e-34
1.39387e-32
7.38383e-31
3.5425e-29
1.5141e-27
5.64013e-26
1.77739e-24
4.55253e-23
9.01568e-22
4.64606e-35
2.85905e-33
1.6523e-31
8.74906e-30
4.18618e-28
1.7777e-26
6.54125e-25
2.01794e-23
4.9918e-22
9.45037e-21
3.81572e-34
2.33025e-32
1.34428e-30
7.09965e-29
3.38232e-27
1.42726e-25
5.21169e-24
1.59452e-22
1.66644e-33
1.01399e-31
5.79782e-30
3.03867e-28
1.44034e-26
6.07336e-25
2.22502e-23
6.82234e-22
3.05268e-33
1.84347e-31
1.04794e-29
5.46422e-28
2.57885e-26
1.08352e-24
3.9567e-23
1.20791e-21
3.86388e-08
4.51454e-06
4.34552e-13
1.42727e-12
3.82261e-08
5.17857e-14
3.1017e-09
3.50927e-12
5.29395e-08
5.20094e-11
6.11135e-07
4.49014e-16
2.65773e-14
1.76527e-15
4.88445e-13
3.34463e-15
5.58521e-12
1.14437e-17
1.9326e-16
4.33921e-17
7.14727e-16
7.5801e-17
1.16739e-15
2.22175e-19
4.04937e-18
9.17442e-19
1.66898e-17
1.59735e-18
2.7759e-17
3.89906e-21
7.20624e-20
1.65951e-20
3.09083e-19
2.90964e-20
5.29419e-19
4.4945e-05
0.00176761
0.0187564
0.00679064
8.58564e-05
0.000632826
1.38254e-05
0.000167744
0.00046055
2.25951e-07
5.47573e-06
5.60104e-06
0.00121291
6.6801e-09
4.58797e-05
0.00115751
4.24027e-10
5.29123e-07
4.96308e-09
4.06657e-05
0.000469951
9.29265e-06
1.32859e-05
0.00288045
0.000501823
0.000495905
1.45454e-06
0.00024029
0.00288663
0.00042449
1.72772e-05
2.77008e-06
0.000498209
0.0100805
0.000158782
0.00363238
1.15028e-06
0.000223174
0.00254911
0.00159048
0.000576079
8.57763e-05
1.59524e-07
0.000977374
2.89397e-07
0.000327
3.20752e-05
1.55005e-08
9.26311e-05
3.93764e-06
1.50041e-05
1.15138e-12
1.12703e-09
1.12562e-10
3.40646e-08
0.000248658
9.78065e-07
0.00109319
1.32392e-05
0.000369496
2.59302e-06
4.66736e-05
8.1213e-10
5.41774e-08
0.000202783
8.00324e-05
0.000622694
0.000206464
3.89601e-06
3.42334e-06
1.87691e-09
0.0171856
0.0129457
0.011865
0.00711151
0.00657154
0.00436851
0.0047406
0.000196057
1.18296e-05
1.13945e-09
0.000192401
1.27684e-05
2.80314e-11
8.41674e-08
4.88303e-07
2.60344e-06
1.29852e-10
5.37974e-05
0.00158778
3.0404e-06
6.85248e-05
0.000176261
9.91447e-06
2.1048e-11
6.3689e-08
1.30361e-07
7.16237e-09
2.86744e-12
0.00918851
0.00512348
0.00473581
0.00417716
0.00385819
0.00188518
0.00202618
3.44011e-07
0.000469157
0.000288179
0.000297158
6.61286e-09
1.15612e-07
0.000486777
0.0125731
0.00462878
0.00865273
0.00257787
0.00483792
0.00317976
0.00165308
0.00116526
0.000325572
0.00120085
0.000475654
0.000337956
0.000113563
0.000108562
0.00121485
0.000476096
0.000480092
0.000337814
0.000341422
0.000114472
0.000111818
0.00662685
0.0028619
0.00659549
0.00279423
0.00281996
0.0011118
0.00109831
0.00667755
0.00289064
0.00666071
0.00283591
0.00283671
0.00111651
0.00110948
0.00468965
0.00838917
0.00769405
0.00270019
0.00169545
0.00154903
0.00294135
5.14533e-09
9.18343e-08
0.000460925
1.29496e-08
0.000197805
6.67677e-10
0.000105444
0.0010032
0.000447957
0.000379699
0.000314891
0.000261181
0.000100989
7.92692e-05
0.00668554
0.00195389
0.00352391
0.00156365
0.00285586
0.00140602
0.000765645
0.00606211
0.00280066
0.00653896
0.00274769
0.00249002
0.00105979
0.000937295
6.2449e-06
0.000166788
0.000118721
1.11552e-09
5.46053e-05
5.59428e-11
3.30445e-05
0.00131969
0.000540813
0.00103611
0.00126819
0.000516895
0.000608233
0.00023395
1.42829e-06
1.79941e-09
6.00078e-06
6.02148e-07
5.11045e-13
4.49396e-08
1.5321e-10
0.00339227
0.00295898
0.00559264
0.00193872
0.000538903
0.00109505
0.000981192
0.000749934
0.0001642
0.000274857
0.000101534
0.000181761
5.11504e-05
2.62446e-05
0.00211657
0.00517441
0.00403017
0.00152105
0.00205127
0.000746297
0.000531178
0.000103549
2.96169e-06
2.69461e-07
5.22302e-10
9.57041e-06
2.65106e-11
4.52469e-06
0.00104488
0.00247486
0.00230895
0.000849487
0.000369365
0.000341321
0.000913039
1.00813e-07
1.37569e-11
7.80867e-13
3.10408e-08
0.00012643
1.57204e-09
7.361e-05
0.00266885
0.00153466
0.00140351
0.000902613
0.000820377
0.000396982
0.000440117
7.46045e-06
4.47387e-09
0.000112975
3.83735e-12
5.58898e-07
2.25891e-10
5.63513e-05
0.00233293
0.000571343
0.00214404
0.00135353
0.000371348
0.000330831
0.00148042
0.00156805
0.000456294
0.00145188
0.000646373
0.00019843
0.000180277
0.000699733
0.00288728
0.0019244
0.000696015
0.00102334
0.000632695
0.000342033
0.000201992
7.08561e-09
1.12514e-12
1.02174e-09
2.85429e-10
1.51929e-07
2.21702e-11
8.58108e-13
2.22911e-12
8.32655e-06
8.4969e-10
1.51828e-12
4.42161e-10
8.42832e-07
1.65946e-09
4.71836e-07
1.95881e-11
4.28709e-09
9.31429e-11
1.00554e-09
1.28648e-12
1.10737e-12
9.15125e-09
1.74005e-12
1.35915e-09
6.66822e-07
9.08961e-09
1.50178e-09
1.72622e-12
0.000631976
0.00085085
0.000663264
0.000324448
0.000240159
0.000311393
0.000104601
0.0010294
0.000464456
0.00116629
0.000117568
0.000370266
0.000317647
9.61178e-05
2.84461e-10
8.84265e-08
8.15965e-09
3.22917e-11
2.28425e-09
3.52516e-13
1.1311e-12
1.01592e-07
3.11282e-13
7.98468e-10
9.06484e-12
1.12947e-09
1.7207e-13
7.04196e-12
9.92838e-13
2.78754e-11
3.26526e-10
5.87158e-07
5.88072e-08
9.84813e-11
1.1026e-09
0.000162016
4.71569e-05
0.000168128
3.00126e-05
5.05141e-06
2.83669e-05
5.46422e-06
0.000775314
0.000386345
0.0015406
0.000956749
8.59654e-05
0.000214587
0.000465194
4.74132e-05
0.00016646
0.000169385
3.01899e-05
5.11643e-06
2.90239e-05
5.47906e-06
0.00122791
0.000491652
0.00121359
0.000398937
0.000127991
0.000392035
0.000131602
0.00122199
0.000503145
0.00123122
0.000400042
0.000128664
0.000131836
0.000394592
0.000782807
0.000965733
0.00173759
0.000627922
0.000124561
0.000246578
0.000331732
0.000323761
0.000562235
0.00106613
0.000468846
5.62042e-05
0.000124037
0.000239582
0.00191516
0.00049625
0.000996489
0.000271077
0.000570797
0.00026905
0.000120105
0.000113822
8.08245e-05
4.55802e-05
3.32799e-05
1.69771e-05
1.06383e-05
3.35682e-06
3.46481e-05
2.8928e-10
1.47999e-08
3.85414e-08
3.65508e-05
7.94733e-13
8.44811e-10
0.000930432
0.000242166
0.000945005
0.000329827
6.56547e-05
0.000323676
6.79342e-05
0.00119691
0.000226894
0.00041243
0.000190299
0.000362194
0.000109143
5.28515e-05
2.37804e-05
5.59532e-13
6.52484e-10
8.16703e-11
8.022e-06
3.40318e-13
3.47574e-09
0.000788671
0.00046558
0.000192454
7.33233e-05
0.000418293
0.000168017
0.000868501
0.000153108
3.10879e-05
0.000124485
4.1616e-06
2.52724e-05
1.86679e-05
2.74727e-06
0.000945757
0.000243855
0.000951207
0.000331364
6.64326e-05
6.82882e-05
0.000327212
0.000901402
0.000186905
0.000792859
5.99136e-05
0.000307035
0.000262911
4.79228e-05
2.90711e-06
2.36325e-08
4.47525e-06
4.65411e-10
1.71369e-08
6.53874e-11
4.22741e-14
5.82109e-11
1.99946e-07
1.30414e-10
2.24313e-07
3.68901e-12
1.81805e-10
8.54817e-13
6.01614e-05
5.98316e-06
6.36332e-05
1.54851e-05
7.78977e-07
1.44409e-05
8.66438e-07
6.01347e-06
6.20598e-05
6.41458e-05
1.55791e-05
7.91813e-07
8.69241e-07
1.47945e-05
0.000193569
0.000296118
0.000815384
0.000241975
4.1177e-05
0.00016251
6.79606e-05
0.000741936
0.00029637
0.000676175
0.000169092
6.85795e-05
5.94833e-05
0.00019008
0.000417736
6.47419e-05
0.000153981
6.00352e-05
0.000191408
7.71817e-05
2.08844e-05
3.42987e-11
8.20301e-07
2.1404e-05
6.75418e-12
2.70782e-07
6.69219e-14
6.54984e-11
3.49019e-08
3.94799e-07
7.9659e-12
3.26355e-12
2.21831e-07
8.07948e-14
5.28842e-11
2.82635e-12
1.15965e-11
1.42927e-08
1.34452e-10
5.25194e-13
1.28066e-12
1.92745e-13
5.47191e-05
2.93097e-06
4.1259e-05
6.09206e-07
1.24752e-05
8.68871e-06
3.71459e-07
0.000545015
0.000120135
4.25004e-05
3.79405e-05
0.000279601
0.000103458
0.00025199
0.000136446
0.000441107
0.000626575
0.000199397
1.90409e-05
0.000132575
3.28791e-05
0.000240697
8.60222e-05
0.00024942
8.2286e-05
0.00024958
8.60749e-05
2.52083e-05
0.000564735
6.88108e-05
0.000213897
7.10416e-05
0.000234833
8.00553e-05
2.10873e-05
0.000181496
0.000529677
0.000567813
0.000193327
0.000177798
4.71087e-05
5.23399e-05
0.000422136
0.000159917
0.000146704
0.00013081
0.000119345
3.34048e-05
3.76935e-05
0.000408079
5.44525e-05
0.000144212
4.37498e-05
0.000126963
3.92445e-05
1.16103e-05
7.8352e-12
8.22459e-09
4.86333e-12
9.42686e-09
6.96212e-07
1.22774e-11
1.41581e-09
1.9286e-05
4.6211e-05
8.45538e-05
1.09483e-05
5.17664e-07
4.86381e-06
1.38354e-06
0.000257753
9.84873e-05
1.47943e-05
6.69132e-05
8.89536e-05
5.93786e-05
0.000280697
4.50098e-05
3.26151e-06
1.15903e-05
1.22354e-06
5.17357e-06
8.24451e-07
1.55951e-07
0.000112906
6.08097e-05
0.000219656
2.1538e-05
9.77187e-05
5.3324e-05
9.79243e-06
0.000424604
0.000481696
0.000436642
6.57713e-05
7.3396e-05
7.69043e-05
6.26144e-05
0.000439644
0.000488402
0.000442378
6.66701e-05
7.63235e-05
6.49722e-05
7.80166e-05
5.68468e-09
1.2509e-11
1.84712e-06
1.51782e-13
2.77096e-10
8.05652e-13
1.10824e-07
1.60225e-13
2.89464e-12
6.42394e-14
1.83524e-10
1.29444e-06
1.06952e-13
5.1732e-09
0.000115065
0.000179805
8.87958e-05
5.2099e-05
3.50382e-05
2.19729e-05
7.48961e-06
6.94372e-08
2.69937e-11
3.40446e-06
1.29166e-13
1.66448e-11
2.05091e-13
1.13827e-09
3.70983e-09
2.61968e-13
6.05667e-12
4.22716e-14
5.92e-12
1.56954e-10
2.37703e-13
1.44512e-06
1.1707e-05
2.50821e-05
4.68423e-06
5.98246e-08
1.71973e-07
1.88044e-06
0.00022231
2.65697e-05
0.000196482
7.78355e-05
9.40052e-06
7.45754e-06
9.02238e-05
0.000229714
0.000203332
0.000474345
0.000109595
1.28255e-05
3.60193e-05
4.41032e-05
0.000277524
2.18584e-05
0.000156191
9.15201e-06
7.75137e-05
3.98124e-05
3.60047e-06
0.000189825
5.7431e-05
6.03782e-05
3.30932e-05
3.46269e-05
5.8073e-06
5.38098e-06
0.000196689
5.82999e-05
6.05353e-05
3.32087e-05
3.46419e-05
5.79149e-06
5.37079e-06
0.000217782
1.3663e-05
6.92782e-05
1.63517e-05
8.77814e-05
2.5131e-05
3.44606e-06
0.000225788
2.89848e-05
0.000106112
1.86909e-05
7.35703e-05
2.94735e-05
6.15587e-06
0.000414417
0.000396894
0.00035433
6.89742e-05
5.82301e-05
4.54828e-05
5.46142e-05
0.000393547
0.0002088
5.81002e-05
6.28107e-05
0.00012699
3.15134e-05
1.33366e-05
9.83293e-16
9.8764e-15
1.57089e-15
9.68813e-16
1.54717e-15
1.86639e-14
1.07266e-14
1.84376e-14
1.48062e-13
4.5075e-07
5.49943e-12
1.45998e-13
2.76021e-11
8.60109e-14
8.9236e-15
2.74787e-13
2.6698e-11
4.02188e-11
2.18326e-10
2.19369e-13
7.21605e-12
1.28869e-14
2.35439e-20
3.48714e-16
6.48442e-17
3.64309e-19
5.5244e-20
1.20778e-20
3.54559e-20
6.10904e-19
2.59344e-19
6.33396e-19
6.1204e-18
7.48342e-18
1.09149e-17
5.83808e-18
2.37815e-15
5.86991e-17
1.01598e-15
1.30315e-15
1.09575e-16
1.67341e-16
3.34201e-17
2.69984e-17
1.02561e-19
3.09022e-19
8.74187e-20
2.86224e-19
2.65391e-18
1.56646e-18
6.84317e-20
1.25949e-20
2.6415e-20
6.55977e-21
3.46785e-20
4.48857e-20
1.02857e-21
2.08454e-23
3.72233e-21
8.55157e-23
1.74449e-24
6.3475e-17
1.67403e-15
8.55682e-16
7.68528e-17
3.78052e-17
8.23574e-17
3.89851e-17
5.828e-16
5.7878e-15
6.80098e-16
1.64557e-15
2.69026e-18
3.33315e-17
2.10039e-17
3.69404e-16
3.78503e-18
2.31201e-18
2.94003e-18
7.17185e-17
3.37087e-17
7.39046e-17
1.26858e-17
4.88886e-17
3.35407e-18
7.21492e-17
1.16878e-19
7.75432e-15
7.35694e-10
1.98083e-16
2.54117e-15
2.34997e-19
4.84961e-18
2.54286e-18
6.99665e-17
4.51989e-19
1.73206e-19
5.97752e-20
3.59965e-18
1.41152e-18
3.72668e-18
1.51248e-18
1.26444e-17
9.1442e-18
1.21665e-18
2.554e-17
2.26189e-16
2.83298e-17
1.01509e-16
1.52423e-16
9.46288e-17
7.44507e-17
7.43912e-18
1.05997e-17
2.68787e-18
3.31506e-18
3.01256e-16
1.70401e-16
5.07652e-15
2.80527e-17
1.65874e-16
4.34816e-14
2.04097e-15
3.01786e-18
1.15928e-20
5.58596e-19
3.34983e-18
1.4737e-19
7.30429e-20
2.19683e-19
3.29823e-21
3.16734e-20
6.09872e-20
1.53815e-20
2.40976e-19
2.90788e-19
1.43163e-19
2.36915e-19
1.82782e-19
1.5566e-18
4.35629e-18
1.39176e-18
4.74108e-18
4.8717e-17
6.41148e-18
5.33215e-18
1.80325e-18
8.92906e-20
3.11452e-19
7.79786e-20
2.86458e-19
1.67806e-18
6.18429e-17
1.2885e-18
2.76762e-20
5.42056e-22
3.06059e-15
3.09899e-17
9.51272e-20
2.20014e-18
6.0302e-19
2.20031e-21
4.92747e-20
1.14899e-20
4.43947e-23
9.5645e-22
5.4945e-14
2.06085e-14
1.73655e-12
6.55772e-13
1.89915e-13
7.19051e-12
2.26805e-14
7.86942e-15
3.3195e-16
4.24333e-15
2.08358e-16
4.28979e-16
6.2551e-15
1.27939e-15
5.55849e-23
3.00384e-21
3.70064e-24
8.07162e-24
5.45632e-24
1.56572e-22
4.76038e-22
6.24236e-23
2.72626e-22
1.49312e-19
7.59616e-18
8.59074e-21
2.51712e-20
3.30626e-21
1.41491e-20
4.55179e-19
1.7203e-19
1.24961e-18
8.01023e-19
1.82247e-17
8.5481e-18
1.55248e-26
9.5541e-25
1.33348e-26
6.31984e-25
2.01985e-29
2.03342e-30
4.36279e-30
5.59154e-31
8.561e-26
3.0155e-27
9.83949e-27
3.4794e-24
5.51879e-28
7.20664e-27
2.34916e-25
2.69863e-24
7.95485e-25
7.46629e-25
6.30763e-25
5.3177e-30
2.14598e-30
7.66343e-30
2.32564e-31
9.02023e-30
3.04192e-31
3.97431e-30
1.72916e-30
2.64748e-30
1.03786e-31
4.92965e-31
1.9361e-30
2.2786e-30
8.88471e-32
4.69541e-25
1.03574e-25
1.15174e-25
3.69431e-24
1.25659e-23
3.12896e-23
5.62678e-24
4.98131e-26
8.72572e-26
2.4348e-26
2.87032e-27
5.91738e-27
1.45316e-27
6.18218e-27
5.56626e-24
2.15079e-24
5.48627e-24
6.40433e-31
3.08592e-31
1.1717e-31
4.10243e-30
2.62493e-30
4.11197e-31
1.74973e-30
1.15909e-30
1.86177e-31
5.97774e-31
1.62328e-32
1.1314e-31
3.54269e-31
6.25047e-31
1.08362e-31
3.51302e-31
1.66976e-32
7.41452e-33
6.4825e-32
1.58762e-31
2.84454e-31
8.35973e-33
4.67187e-32
1.55746e-31
2.79677e-33
2.62298e-32
5.61672e-32
1.04694e-31
3.22308e-33
2.20104e-32
5.39492e-32
1.19926e-32
4.29883e-31
8.47156e-32
2.28121e-31
9.16606e-32
2.32876e-31
1.12051e-32
5.27238e-33
2.00777e-31
3.28371e-32
1.03757e-31
3.11552e-32
1.06274e-31
5.02687e-33
3.34241e-28
1.21904e-26
1.08207e-26
1.08116e-26
8.9138e-28
4.86186e-28
5.92699e-28
6.99031e-28
2.28326e-21
2.27835e-22
2.8839e-21
2.2757e-21
2.63621e-21
1.94742e-21
1.85614e-20
3.76472e-22
1.41026e-22
3.86981e-22
3.53819e-23
1.53715e-22
8.02112e-21
4.67029e-23
3.52845e-23
4.31305e-23
2.95473e-22
7.07901e-22
9.25371e-28
1.47021e-25
1.85337e-26
3.77404e-26
1.55139e-25
6.40914e-27
1.29381e-27
1.00183e-19
1.10945e-20
1.06591e-19
9.88549e-20
1.05189e-19
9.07477e-20
7.49817e-19
1.59479e-20
5.26872e-21
1.24178e-20
4.39851e-19
4.22802e-20
3.0396e-23
5.22758e-19
1.65692e-19
2.95183e-18
1.06247e-18
1.29843e-18
6.45427e-19
5.1945e-20
2.45823e-19
1.34848e-19
6.71468e-21
2.67549e-20
2.17401e-19
4.70359e-19
2.34253e-20
2.14885e-19
7.02322e-21
3.42953e-21
2.67401e-19
7.68671e-21
9.31561e-20
1.41831e-20
9.72385e-20
2.83183e-21
5.60214e-22
2.95361e-21
1.98355e-20
2.98922e-20
7.79261e-22
1.48007e-21
1.77823e-20
4.94931e-20
1.8826e-18
4.89375e-21
4.01187e-19
9.77639e-23
2.83643e-20
2.93709e-24
1.26612e-21
1.4571e-25
1.68147e-22
8.19644e-23
3.5962e-21
1.67207e-21
8.61385e-22
4.90338e-21
4.52309e-22
4.51434e-21
1.44639e-19
2.29778e-20
1.32442e-19
2.06876e-23
4.68781e-24
3.98203e-22
5.87101e-23
2.87661e-21
9.76416e-23
8.12487e-22
3.25639e-23
5.80885e-22
2.66623e-20
7.92159e-22
2.62332e-20
2.02351e-20
6.04549e-20
5.61481e-25
2.08275e-25
5.79087e-24
6.0215e-22
2.26893e-24
3.65862e-24
5.68969e-23
1.83987e-24
4.1019e-23
2.7848e-21
1.75372e-21
5.84547e-21
3.10562e-23
1.42422e-21
2.45163e-21
1.77735e-26
6.47711e-27