/*--------------------------------*- C++ -*----------------------------------*\
  =========                 |
  \\      /  F ield         | OpenFOAM: The Open Source CFD Toolbox
   \\    /   O peration     | Website:  https://openfoam.org
    \\  /    A nd           | Version:  9
     \\/     M anipulation  |
\*---------------------------------------------------------------------------*/
FoamFile
{
    format      ascii;
    class       volScalarField;
    location    "0.0014";
    object      alpha.c4;
}
// * * * * * * * * * * * * * * * * * * * * * * * * * * * * * * * * * * * * * //

dimensions      [0 0 0 0 0 0 0];

internalField   nonuniform List<scalar> 
11682
(
2.93136e-30
2.55175e-28
2.11533e-26
1.65458e-24
1.2235e-22
8.48639e-21
5.23051e-19
8.07351e-32
6.8017e-30
5.42393e-28
4.0364e-26
2.80019e-24
1.81277e-22
1.07811e-20
1.8004e-33
1.47796e-31
1.14613e-29
8.25136e-28
5.4854e-26
3.35847e-24
1.88188e-22
3.39722e-35
2.72601e-33
2.06655e-31
1.45229e-29
9.37619e-28
5.51053e-26
2.91686e-24
5.67724e-37
4.46641e-35
3.31608e-33
2.28042e-31
1.43713e-29
8.19152e-28
4.15415e-26
5.57098e-19
9.38664e-21
1.36112e-22
1.83052e-24
2.5008e-17
9.6186e-16
2.33285e-17
3.89952e-19
5.32453e-21
6.71966e-23
9.85898e-11
6.17963e-15
2.00095e-16
2.94932e-18
3.62586e-20
1.09193e-12
6.55343e-16
1.16179e-17
1.56331e-19
1.89362e-21
4.35189e-07
1.7157e-11
4.84944e-13
6.49642e-08
7.76228e-12
2.20583e-11
1.85152e-13
7.36734e-07
8.43564e-09
1.46166e-08
4.57424e-08
2.59264e-08
8.91522e-10
5.0048e-10
1.93243e-07
1.21746e-09
3.66518e-09
3.52853e-09
1.09873e-08
2.10388e-10
6.77169e-11
1.23972e-15
3.71179e-14
1.92131e-17
2.16863e-16
3.04124e-19
3.9143e-18
4.25297e-21
5.72828e-20
5.3923e-23
7.4173e-22
4.72408e-17
9.17998e-19
1.49563e-20
2.11256e-22
2.7126e-24
3.50662e-13
2.10976e-13
1.68633e-15
7.01953e-15
4.47929e-17
1.81167e-16
5.46157e-19
2.79695e-18
7.07588e-21
3.5878e-20
7.57521e-12
4.47143e-13
5.00431e-11
2.86023e-09
2.42132e-08
7.65217e-13
1.6596e-11
9.18698e-20
8.59626e-18
9.45922e-16
9.92024e-14
3.44816e-20
2.29375e-18
1.22954e-16
4.3697e-15
2.36413e-11
1.06027e-20
7.14922e-19
4.5461e-17
3.26295e-15
2.90002e-13
3.41329e-42
2.98795e-40
2.4973e-38
1.95585e-36
1.42186e-34
9.49471e-33
5.74809e-31
3.09419e-29
1.43629e-27
5.49389e-26
2.29845e-40
2.07661e-38
1.79451e-36
1.45771e-34
1.10481e-32
7.74493e-31
4.95315e-29
2.81943e-27
1.37416e-25
5.44698e-24
1.43677e-38
1.34088e-36
1.20074e-34
1.01669e-32
8.09956e-31
6.01825e-29
4.09081e-27
2.45683e-25
1.24285e-23
5.0144e-22
8.10878e-37
7.8316e-35
7.30073e-33
6.49581e-31
5.49356e-29
4.35547e-27
3.14094e-25
1.9697e-23
1.0208e-21
4.11346e-20
4.06001e-35
4.06845e-33
3.97089e-31
3.74119e-29
3.37571e-27
2.84774e-25
2.15854e-23
1.41033e-21
7.66386e-20
3.10654e-18
1.7635e-33
1.83587e-31
1.88092e-29
1.87708e-27
1.79523e-25
1.59192e-23
1.2659e-21
9.03701e-20
5.93009e-18
2.6559e-16
6.44081e-32
6.92495e-30
7.38052e-28
7.68119e-26
7.61882e-24
6.97626e-22
5.92067e-20
5.16951e-18
5.43261e-16
1.34684e-14
1.89212e-30
2.05564e-28
2.21085e-26
2.30871e-24
2.27298e-22
2.04316e-20
1.7096e-18
1.54159e-16
2.00095e-10
3.16645e-42
2.56185e-40
1.95243e-38
1.37606e-36
8.88836e-35
5.20183e-33
2.7171e-31
1.24139e-29
4.82815e-28
1.54143e-26
1.99785e-40
1.64288e-38
1.2751e-36
9.17758e-35
6.07453e-33
3.65752e-31
1.97419e-29
9.36049e-28
3.78679e-26
1.25384e-24
1.15971e-38
9.70112e-37
7.67956e-35
5.65885e-33
3.85331e-31
2.40109e-29
1.35072e-27
6.7218e-26
2.86861e-24
9.93849e-23
6.02592e-37
5.13258e-35
4.15212e-33
3.14337e-31
2.21446e-29
1.44068e-27
8.55481e-26
4.5495e-24
2.08694e-22
7.52068e-21
2.75697e-35
2.39211e-33
1.98101e-31
1.54649e-29
1.13477e-27
7.79413e-26
4.97342e-24
2.89097e-22
1.43793e-20
5.2391e-19
1.08793e-33
9.60677e-32
8.14593e-30
6.5718e-28
5.05228e-26
3.70775e-24
2.58806e-22
1.65889e-20
8.87261e-19
3.01228e-17
3.60885e-32
3.22895e-30
2.79074e-28
2.3179e-26
1.86458e-24
1.4661e-22
1.1104e-20
7.64214e-19
4.10888e-17
1.90943e-15
9.76799e-31
8.75929e-29
7.60216e-27
6.37272e-25
5.23122e-23
4.24435e-21
3.26002e-19
2.0334e-17
5.11157e-14
1.28947e-06
9.53274e-43
7.53502e-41
5.57042e-39
3.78399e-37
2.34647e-35
1.31767e-33
6.62319e-32
2.92532e-30
1.10322e-28
3.42747e-27
5.92398e-41
4.72648e-39
3.53481e-37
2.43965e-35
1.54616e-33
8.93034e-32
4.63974e-30
2.11934e-28
8.24817e-27
2.62923e-25
3.3755e-39
2.72167e-37
2.065e-35
1.45439e-33
9.47008e-32
5.65537e-30
3.04582e-28
1.44355e-26
5.83209e-25
1.92747e-23
1.71692e-37
1.40178e-35
1.08277e-33
7.8169e-32
5.25387e-30
3.25289e-28
1.82182e-26
9.0218e-25
3.84412e-23
1.35596e-21
7.67884e-36
6.36114e-34
5.01652e-32
3.72329e-30
2.58794e-28
1.66397e-26
9.74751e-25
5.1275e-23
2.38675e-21
9.33647e-20
2.9634e-34
2.49308e-32
2.00877e-30
1.53274e-28
1.10054e-26
7.36689e-25
4.56985e-23
2.63631e-21
1.38143e-19
5.87476e-18
9.63763e-33
8.22051e-31
6.74707e-29
5.26786e-27
3.89411e-25
2.72364e-23
1.82432e-21
1.17349e-19
6.66886e-18
2.77138e-16
2.56892e-31
2.21003e-29
1.8337e-27
1.45089e-25
1.09547e-23
7.99443e-22
5.75226e-20
3.91496e-18
2.09162e-16
5.51283e-14
8.89155e-44
7.21377e-42
5.51203e-40
3.89389e-38
2.52059e-36
1.47829e-34
7.73696e-33
3.53862e-31
1.37325e-29
4.33807e-28
5.66502e-42
4.66957e-40
3.6304e-38
2.61532e-36
1.7309e-34
1.04064e-32
5.59589e-31
2.63295e-29
1.04991e-27
3.38807e-26
3.32381e-40
2.78498e-38
2.20527e-36
1.62237e-34
1.09978e-32
6.79236e-31
3.7626e-29
1.82707e-27
7.51469e-26
2.48605e-24
1.74655e-38
1.48842e-36
1.20164e-34
9.04118e-33
6.28902e-31
4.00051e-29
2.29109e-27
1.15378e-25
4.92373e-24
1.67845e-22
8.07817e-37
7.00235e-35
5.76642e-33
4.44117e-31
3.17533e-29
2.08661e-27
1.24157e-25
6.52992e-24
2.91317e-22
1.02877e-20
3.21735e-35
2.83423e-33
2.37949e-31
1.87614e-29
1.38098e-27
9.41101e-26
5.85605e-24
3.24247e-22
1.52281e-20
5.60482e-19
1.07332e-33
9.58607e-32
8.18858e-30
6.60353e-28
5.00938e-26
3.55353e-24
2.32506e-22
1.36075e-20
6.75592e-19
2.68594e-17
2.90026e-32
2.61425e-30
2.2624e-28
1.85973e-26
1.45114e-24
1.07027e-22
7.33198e-21
4.48934e-19
2.37466e-17
1.20747e-15
5.14782e-45
4.20829e-43
3.24303e-41
2.3129e-39
1.51208e-37
8.95377e-36
4.72833e-34
2.18099e-32
8.53867e-31
2.72605e-29
3.30699e-43
2.74819e-41
2.15598e-39
1.56775e-37
1.04684e-35
6.34283e-34
3.43312e-32
1.62473e-30
6.5225e-29
2.12663e-27
1.9574e-41
1.65463e-39
1.32213e-37
9.81018e-36
6.69805e-34
4.15906e-32
2.31216e-30
1.12603e-28
4.65361e-27
1.55648e-25
1.03839e-39
8.93109e-38
7.27299e-36
5.51208e-34
3.85379e-32
2.45766e-30
1.408e-28
7.08968e-27
3.0342e-25
1.04691e-23
4.85084e-38
4.2444e-36
3.52333e-34
2.72942e-32
1.95716e-30
1.28561e-28
7.62662e-27
3.99682e-25
1.78334e-23
6.3755e-22
1.95145e-36
1.73569e-34
1.46827e-32
1.16321e-30
8.57131e-29
5.82353e-27
3.60029e-25
1.97786e-23
9.24625e-22
3.43023e-20
6.57324e-35
5.93324e-33
5.10987e-31
4.14127e-29
3.14319e-27
2.21935e-25
1.43841e-23
8.31503e-22
4.07412e-20
1.58118e-18
1.7913e-33
1.63623e-31
1.43189e-29
1.18639e-27
9.28383e-26
6.82375e-24
4.63388e-22
2.80405e-20
1.43848e-18
6.12542e-17
2.09527e-46
1.70799e-44
1.31244e-42
9.33127e-41
6.07884e-39
3.58456e-37
1.88378e-35
8.64477e-34
3.37021e-32
1.07479e-30
1.34403e-44
1.11313e-42
8.70024e-41
6.29939e-39
4.18458e-37
2.51951e-35
1.35356e-33
6.35343e-32
2.5313e-30
8.21868e-29
7.94501e-43
6.68859e-41
5.31919e-39
3.92417e-37
2.66017e-35
1.63718e-33
9.00443e-32
4.33215e-30
1.76898e-28
5.86828e-27
4.21034e-41
3.60347e-39
2.917e-37
2.19429e-35
1.51961e-33
9.57433e-32
5.40328e-30
2.67327e-28
1.12376e-26
3.82742e-25
1.96555e-39
1.70984e-37
1.40901e-35
1.08126e-33
7.65761e-32
4.9485e-30
2.87464e-28
1.46948e-26
6.39481e-25
2.24661e-23
7.90688e-38
6.98581e-36
5.85818e-34
4.58688e-32
3.32572e-30
2.21001e-28
1.32737e-26
7.05119e-25
3.19227e-23
1.15793e-21
2.66571e-36
2.38836e-34
2.03631e-32
1.62672e-30
1.20904e-28
8.2876e-27
5.17042e-25
2.86558e-23
1.34941e-21
5.02558e-20
7.27615e-35
6.59677e-33
5.70994e-31
4.6512e-29
3.54568e-27
2.51051e-25
1.6276e-23
9.37561e-22
4.54744e-20
1.72423e-18
6.52478e-48
5.27589e-46
4.01975e-44
2.8322e-42
1.82721e-40
1.06634e-38
5.54298e-37
2.51587e-35
9.70994e-34
3.07515e-32
4.15879e-46
3.41315e-44
2.64183e-42
1.89268e-40
1.24287e-38
7.3899e-37
3.91691e-35
1.81304e-33
7.12792e-32
2.29085e-30
2.44287e-44
2.03559e-42
1.60088e-40
1.16662e-38
7.80178e-37
4.72994e-35
2.55896e-33
1.20968e-31
4.85342e-30
1.58635e-28
1.28651e-42
1.08847e-40
8.70016e-39
6.45263e-37
4.39812e-35
2.72171e-33
1.50514e-31
7.28056e-30
2.98892e-28
9.96625e-27
5.9709e-41
5.12769e-39
4.16542e-37
3.14499e-35
2.18616e-33
1.38234e-31
7.82707e-30
3.88424e-28
1.63739e-26
5.58967e-25
2.38986e-39
2.08144e-37
1.71758e-35
1.31998e-33
9.3607e-32
6.05453e-30
3.5178e-28
1.7971e-26
7.80749e-25
2.73363e-23
8.02514e-38
7.07847e-36
5.92724e-34
4.63376e-32
3.35268e-30
2.22072e-28
1.32712e-26
6.99859e-25
3.13597e-23
1.12085e-21
2.18505e-36
1.94766e-34
1.65232e-32
1.31263e-30
9.68539e-29
6.57018e-27
4.03813e-25
2.19312e-23
1.0054e-21
3.60794e-20
1.64388e-49
1.31514e-47
9.90887e-46
6.89946e-44
4.39616e-42
2.53233e-40
1.29878e-38
5.81579e-37
2.21664e-35
6.95315e-34
1.03862e-47
8.42407e-46
6.43919e-44
4.5519e-42
2.94673e-40
1.72573e-38
9.00272e-37
4.10024e-35
1.58736e-33
5.03876e-32
6.04755e-46
4.97381e-44
3.85727e-42
2.7688e-40
1.82172e-38
1.0853e-36
5.76366e-35
2.67268e-33
1.05222e-31
3.38394e-30
3.15735e-44
2.63289e-42
2.07189e-40
1.51076e-38
1.01086e-36
6.13109e-35
3.31777e-33
1.56818e-31
6.28692e-30
2.05143e-28
1.45328e-42
1.22822e-40
9.80579e-39
7.26385e-37
4.94441e-35
3.05473e-33
1.68568e-31
8.12987e-30
3.32408e-28
1.10236e-26
5.77304e-41
4.94048e-39
3.99929e-37
3.00856e-35
2.08305e-33
1.31113e-31
7.38238e-30
3.63719e-28
1.51908e-26
5.12503e-25
1.92659e-39
1.66697e-37
1.36654e-35
1.04296e-33
7.34009e-32
4.70546e-30
2.70396e-28
1.36185e-26
5.8104e-25
1.98844e-23
5.22151e-38
4.558e-36
3.77714e-34
2.92021e-32
2.08628e-30
1.36053e-28
7.96827e-27
4.09246e-25
1.7733e-23
6.0754e-22
3.48297e-51
2.75392e-49
2.0496e-47
1.40881e-45
8.85645e-44
5.03109e-42
2.54365e-40
1.12293e-38
4.22319e-37
1.31056e-35
2.17901e-49
1.7447e-47
1.31558e-45
9.16682e-44
5.84473e-42
3.36877e-40
1.72857e-38
7.74202e-37
2.94989e-35
9.24179e-34
1.2564e-47
1.01874e-45
7.78263e-44
5.49752e-42
3.55579e-40
2.08041e-38
1.0841e-36
4.93031e-35
1.90482e-33
6.02832e-32
6.49595e-46
5.33306e-44
4.12768e-42
2.95652e-40
1.9407e-38
1.15326e-36
6.10695e-35
2.82207e-33
1.10625e-31
3.53804e-30
2.96213e-44
2.46102e-42
1.92924e-40
1.40106e-38
9.33453e-37
5.63534e-35
3.03329e-33
1.42465e-31
5.66777e-30
1.83211e-28
1.16668e-42
9.79986e-41
7.77513e-39
5.72179e-37
3.86762e-35
2.37129e-33
1.29705e-31
6.19003e-30
2.49872e-28
8.1591e-27
3.86535e-41
3.27746e-39
2.62817e-37
1.95752e-35
1.34094e-33
8.34049e-32
4.6309e-30
2.24313e-28
9.1739e-27
3.01695e-25
1.0419e-39
8.89783e-38
7.19705e-36
5.41535e-34
3.7525e-32
2.36301e-30
1.32855e-28
6.50971e-27
2.68289e-25
8.79903e-24
6.48375e-53
5.06449e-51
3.72149e-49
2.524e-47
1.5648e-45
8.76254e-44
4.36636e-42
1.90002e-40
7.0498e-39
2.1634e-37
4.01459e-51
3.17192e-49
2.35846e-47
1.61922e-45
1.01654e-43
5.76548e-42
2.90975e-40
1.28176e-38
4.80726e-37
1.48625e-35
2.29093e-49
1.83086e-47
1.37733e-45
9.57163e-44
6.08492e-42
3.49607e-40
1.78771e-38
7.97621e-37
3.02549e-35
9.42605e-34
1.17237e-47
9.47471e-46
7.21074e-44
5.07252e-42
3.26618e-40
1.90167e-38
9.85692e-37
4.45626e-35
1.71003e-33
5.36835e-32
5.29345e-46
4.32362e-44
3.32747e-42
2.3689e-40
1.54483e-38
9.11503e-37
4.78916e-35
2.19371e-33
8.51291e-32
2.69085e-30
2.0661e-44
1.70384e-42
1.32487e-40
9.53855e-39
6.29619e-37
3.76269e-35
2.00261e-33
9.28547e-32
3.63946e-30
1.15622e-28
6.79278e-43
5.64671e-41
4.42974e-39
3.22083e-37
2.14903e-35
1.29892e-33
6.99131e-32
3.27441e-30
1.29276e-28
4.11243e-27
1.82041e-41
1.52189e-39
1.20188e-37
8.80695e-36
5.92715e-34
3.61454e-32
1.9615e-30
9.24263e-29
3.65493e-27
1.15453e-25
1.05908e-21
4.67597e-22
1.41304e-22
1.33277e-23
1.11805e-21
9.0876e-20
6.83827e-18
4.08076e-16
7.11265e-15
4.26923e-29
4.53378e-27
4.7257e-25
4.7629e-23
4.51306e-21
3.80237e-19
2.88538e-17
9.28707e-15
6.2711e-09
7.45326e-28
7.97607e-26
8.63447e-24
9.57295e-22
1.05307e-19
9.70543e-18
2.77826e-16
8.3097e-08
9.16915e-27
9.81692e-25
9.93652e-23
8.94588e-21
6.87787e-19
4.91349e-17
1.16028e-15
6.39159e-07
5.38938e-26
5.32362e-24
4.88623e-22
4.25488e-20
4.04706e-18
4.85963e-16
1.23863e-11
1.18558e-25
1.16268e-23
2.10186e-29
1.85943e-27
1.58031e-25
1.28501e-23
1.01529e-21
7.88041e-20
5.51569e-18
3.55651e-16
5.26087e-12
3.55593e-28
3.11201e-26
2.61059e-24
2.08838e-22
1.59814e-20
1.14944e-18
8.60842e-17
6.51251e-11
4.39982e-27
3.80977e-25
3.17454e-23
2.55607e-21
2.01339e-19
1.43204e-17
3.72136e-16
5.32948e-10
3.16049e-26
2.66153e-24
2.12367e-22
1.57511e-20
1.04529e-18
5.53493e-17
1.0806e-14
3.44925e-10
7.06004e-26
5.90983e-24
5.46272e-30
4.71101e-28
3.92218e-26
3.11426e-24
2.36689e-22
1.75439e-20
1.28285e-18
8.3351e-17
1.45176e-15
9.09842e-29
7.90079e-27
6.70116e-25
5.48073e-23
4.26911e-21
3.11334e-19
2.16954e-17
1.69898e-15
1.14609e-27
1.01698e-25
9.06987e-24
8.00467e-22
6.71659e-20
4.88149e-18
2.69939e-16
4.40909e-13
8.92438e-27
7.75911e-25
6.44187e-23
4.8958e-21
3.29621e-19
2.0092e-17
1.36974e-15
3.07125e-12
1.99501e-26
1.72255e-24
6.11858e-31
5.52684e-29
4.80825e-27
3.99476e-25
3.17422e-23
2.39741e-21
1.66954e-19
1.00816e-17
5.12712e-16
9.75106e-30
8.76512e-28
7.60345e-26
6.31962e-24
5.04635e-22
3.82694e-20
2.62181e-18
1.46659e-16
1.9252e-14
1.12983e-28
1.01083e-26
8.76025e-25
7.30468e-23
5.89259e-21
4.65714e-19
4.03723e-17
2.78517e-15
7.84332e-28
6.97079e-26
6.04325e-24
5.12338e-22
4.30139e-20
3.45219e-18
2.26382e-16
8.89237e-14
1.73445e-27
1.5409e-25
3.7978e-32
3.49622e-30
3.09648e-28
2.61124e-26
2.09439e-24
1.58765e-22
1.11279e-20
6.91831e-19
3.71766e-17
6.02819e-31
5.56489e-29
4.95079e-27
4.19799e-25
3.38871e-23
2.59083e-21
1.83995e-19
1.16312e-17
6.11897e-16
6.83672e-30
6.2911e-28
5.57224e-26
4.69098e-24
3.77257e-22
2.98152e-20
2.45429e-18
2.0555e-16
4.42472e-29
3.96376e-27
3.45224e-25
2.9374e-23
2.47506e-21
2.02147e-19
1.45573e-17
7.84675e-16
9.66024e-29
8.61873e-27
7.4772e-25
6.31798e-23
5.22837e-21
4.11191e-19
2.79783e-17
1.4367e-15
1.5453e-33
1.41391e-31
1.23956e-29
1.02698e-27
7.99956e-26
5.81205e-24
3.87031e-22
2.27635e-20
1.11495e-18
4.29169e-17
2.45177e-32
2.25826e-30
1.99742e-28
1.67041e-26
1.31139e-24
9.57724e-23
6.4014e-21
3.78724e-19
1.85768e-17
6.71859e-16
2.76156e-31
2.54775e-29
2.25513e-27
1.88e-25
1.4649e-23
1.06958e-21
7.51403e-20
5.234e-18
1.74436e-30
1.54889e-28
1.32065e-26
1.07778e-24
8.5164e-23
6.50524e-21
4.57147e-19
2.63051e-17
3.77463e-30
3.32348e-28
2.81276e-26
2.28162e-24
1.79117e-22
1.35248e-20
9.33138e-19
5.29775e-17
4.63306e-35
4.164e-33
3.57255e-31
2.87874e-29
2.16045e-27
1.49386e-25
9.36176e-24
5.15971e-22
2.36551e-20
8.2432e-19
7.3296e-34
6.63434e-32
5.74747e-30
4.68075e-28
3.54445e-26
2.46179e-24
1.53968e-22
8.41165e-21
3.78697e-19
1.24199e-17
8.20311e-33
7.45546e-31
6.48788e-29
5.29411e-27
3.99456e-25
2.74981e-23
1.71755e-21
9.81982e-20
5.16975e-32
4.5178e-30
3.75722e-28
2.93827e-26
2.16686e-24
1.51104e-22
9.78135e-21
5.47415e-19
1.11273e-31
9.60884e-30
7.89837e-28
6.11499e-26
4.47832e-24
3.11113e-22
2.00934e-20
1.12427e-18
1.10347e-36
9.69576e-35
8.10699e-33
6.33823e-31
4.58663e-29
3.03167e-27
1.79798e-25
9.31192e-24
4.0224e-22
1.33831e-20
1.73842e-35
1.53603e-33
1.29509e-31
1.02257e-29
7.46696e-28
4.96003e-26
2.9337e-24
1.49886e-22
6.29254e-21
1.97677e-19
1.93181e-34
1.714e-32
1.45345e-30
1.15347e-28
8.43384e-27
5.57091e-25
3.25384e-23
1.64719e-21
1.22409e-33
1.04889e-31
8.51475e-30
6.43478e-28
4.50169e-26
2.90458e-24
1.71225e-22
8.88701e-21
2.62872e-33
2.22113e-31
1.77657e-29
1.32326e-27
9.14441e-26
5.85408e-24
3.44322e-22
1.79108e-20
2.19348e-38
1.88194e-36
1.53216e-34
1.16239e-32
8.12996e-31
5.16675e-29
2.92618e-27
1.43784e-25
5.88741e-24
1.88198e-22
3.44142e-37
2.96245e-35
2.42602e-33
1.85476e-31
1.30741e-29
8.35018e-28
4.72105e-26
2.29039e-24
9.11207e-23
2.76402e-21
3.79877e-36
3.2786e-34
2.69809e-32
2.07479e-30
1.46878e-28
9.37522e-27
5.25394e-25
2.5028e-23
2.42391e-35
2.03211e-33
1.61067e-31
1.18313e-29
7.97079e-28
4.872e-26
2.66737e-24
1.2762e-22
5.20633e-35
4.30036e-33
3.35303e-31
2.42053e-29
1.60313e-27
9.65536e-26
5.23276e-24
2.49175e-22
3.81768e-40
3.20103e-38
2.53865e-36
1.87048e-34
1.26674e-32
7.77032e-31
4.23221e-29
1.99215e-27
7.8037e-26
2.40641e-24
5.96916e-39
5.01013e-37
3.98551e-35
2.95072e-33
2.0093e-31
1.23737e-29
6.73232e-28
3.1362e-26
1.19841e-24
3.53411e-23
6.55757e-38
5.50238e-36
4.38913e-34
3.26433e-32
2.2336e-30
1.37897e-28
7.47878e-27
3.44043e-25
4.21137e-37
3.45059e-35
2.66917e-33
1.90966e-31
1.24841e-29
7.34938e-28
3.82884e-26
1.72312e-24
9.06483e-37
7.3182e-35
5.56689e-33
3.9095e-31
2.50578e-29
1.44638e-27
7.4015e-26
3.283e-24
2.06626e-13
4.29481e-12
5.76551e-15
9.22206e-15
9.49487e-14
3.17588e-16
1.61765e-14
1.06519e-15
4.93309e-13
2.24906e-15
2.07426e-12
5.03802e-18
1.85614e-16
2.30667e-17
5.93484e-16
4.7778e-17
1.22779e-15
7.05363e-20
2.32565e-18
3.70368e-19
1.06137e-17
7.47931e-19
2.09157e-17
9.72674e-22
2.87152e-20
5.03515e-21
1.46686e-19
9.79671e-21
2.79369e-19
1.28249e-23
3.63264e-22
6.42001e-23
1.83024e-21
1.20856e-22
3.38159e-21
1.38704e-10
8.33251e-15
3.0559e-16
4.90722e-18
6.36402e-20
1.38689e-10
1.07771e-06
2.32658e-11
8.42178e-13
7.39774e-13
1.35974e-10
6.16982e-08
2.3057e-11
8.93183e-09
4.84426e-05
1.4514e-06
1.64203e-12
2.40935e-10
7.9458e-14
4.21376e-12
4.93945e-08
7.81864e-13
5.93839e-12
6.05514e-12
6.5113e-07
7.91173e-13
1.40107e-10
4.55301e-07
1.82049e-13
7.38677e-13
4.48669e-13
9.51254e-11
2.10745e-08
5.83697e-12
6.96586e-13
3.77369e-07
1.19054e-09
1.02884e-09
6.26576e-13
2.26799e-11
3.22912e-07
8.707e-11
5.5537e-14
3.1203e-14
2.24717e-10
2.58688e-05
3.39624e-12
9.3519e-07
3.13016e-13
1.56189e-11
1.19445e-07
1.50349e-08
5.64163e-10
1.15698e-12
1.95459e-13
9.74603e-13
3.29543e-12
1.36414e-10
8.78682e-15
5.24115e-14
1.05378e-13
3.5888e-13
1.09109e-09
5.21854e-14
5.04464e-11
2.49866e-13
1.62492e-14
9.5133e-13
5.01439e-14
1.07491e-11
6.76149e-15
5.68048e-14
4.87599e-14
4.71241e-13
4.39997e-09
9.92461e-13
3.81402e-09
3.57281e-13
1.36959e-10
5.23839e-14
3.32887e-13
1.16401e-14
3.11731e-14
4.22541e-11
6.32911e-13
9.71372e-10
1.03258e-11
1.05956e-13
7.40867e-14
5.16081e-15
3.36505e-05
1.5706e-05
1.02077e-05
1.37531e-06
8.29117e-07
1.86615e-07
3.18724e-07
1.90399e-10
4.73585e-12
6.6008e-14
1.69313e-10
5.15298e-12
6.65739e-14
2.94234e-13
1.46324e-14
6.06356e-14
1.27995e-15
2.25544e-13
5.97225e-08
1.66313e-14
1.88576e-12
9.74651e-07
2.1777e-08
1.96149e-08
6.21381e-08
6.93795e-08
1.35734e-09
1.21623e-09
9.70336e-07
1.20668e-09
1.94896e-08
1.07768e-06
2.17661e-08
6.93082e-08
1.35587e-09
4.45188e-08
7.20113e-07
4.08751e-07
8.65441e-10
1.42228e-08
7.86819e-09
4.65075e-10
1.13022e-10
1.96245e-12
3.15719e-14
2.05275e-13
4.46995e-13
7.53377e-14
1.32712e-14
1.84172e-05
2.98702e-06
1.87044e-06
1.02376e-06
6.11241e-07
3.32737e-08
5.81505e-08
3.74878e-14
2.31981e-10
3.40677e-11
3.36287e-11
3.67308e-14
9.79957e-14
2.32081e-10
1.11332e-05
3.33551e-07
2.88386e-06
2.1647e-08
2.04426e-07
4.41916e-08
4.68776e-09
6.33782e-07
1.33353e-08
7.31518e-07
5.71932e-08
1.54923e-08
1.18939e-09
1.02551e-09
7.37272e-07
5.03979e-08
5.75279e-08
1.37062e-08
1.56167e-08
1.19693e-09
1.04768e-09
6.65288e-06
3.39304e-07
6.07318e-06
1.14981e-07
1.28699e-07
6.13907e-09
5.49517e-09
5.9199e-06
3.72172e-07
6.62245e-06
1.11096e-07
1.27757e-07
6.05458e-09
5.22142e-09
9.63451e-09
5.31424e-08
1.70506e-07
9.89739e-10
3.21096e-09
1.83414e-10
5.4937e-11
3.74839e-07
3.70084e-06
2.25898e-06
3.38654e-08
8.87772e-09
5.07138e-09
5.85744e-08
3.3011e-14
8.19705e-14
1.62863e-10
3.02724e-14
1.17e-11
1.22198e-14
1.68326e-12
2.31218e-07
3.46149e-08
1.72075e-08
9.40534e-09
4.65118e-09
7.13848e-10
3.49341e-10
6.63682e-06
5.46509e-08
5.02598e-07
1.57123e-08
1.53261e-07
7.8516e-09
8.06289e-10
2.48428e-06
2.25233e-07
4.35811e-06
7.73998e-08
4.11945e-08
3.58898e-09
1.87063e-09
5.73741e-14
4.86046e-12
1.20137e-12
1.77702e-15
9.60013e-14
8.18104e-16
2.62943e-14
4.20413e-08
1.51923e-09
5.50886e-08
3.22227e-08
1.17243e-09
8.59112e-10
3.27159e-11
5.56088e-14
2.00311e-15
9.70739e-14
1.38129e-14
3.08964e-16
7.08498e-15
1.25894e-15
8.84078e-08
6.07882e-08
5.77747e-07
8.00724e-09
1.20555e-10
1.16491e-09
8.27711e-10
8.22468e-08
1.52367e-09
6.01624e-09
4.0959e-10
1.61757e-09
1.21373e-10
3.15144e-11
4.78962e-08
1.07544e-06
3.59813e-07
5.29989e-09
1.67169e-08
7.39748e-10
2.29573e-10
3.20242e-13
4.17542e-15
1.11536e-15
2.00845e-15
6.02194e-14
1.74873e-14
2.56347e-15
8.61473e-13
2.69936e-14
9.92328e-15
1.63541e-15
7.73817e-14
8.52986e-16
2.48324e-14
3.56584e-09
1.66107e-07
9.63774e-08
1.43363e-09
9.40334e-11
5.31511e-11
2.52533e-09
2.66742e-15
2.8849e-16
1.50417e-16
5.7237e-15
2.57096e-12
1.22392e-15
1.02944e-13
4.7087e-08
8.55599e-09
4.82471e-09
1.09217e-09
6.16353e-10
6.26537e-11
1.11617e-10
5.87684e-14
1.13317e-14
1.94505e-12
5.8242e-16
1.01354e-14
1.86676e-15
1.41987e-13
1.91053e-08
1.39998e-10
1.11858e-08
2.43303e-09
5.47574e-11
3.17412e-11
4.19853e-09
1.63697e-08
1.26768e-10
9.33355e-09
4.70243e-10
1.14407e-11
6.44995e-12
8.29584e-10
6.75189e-10
2.6944e-09
1.29778e-08
2.41427e-10
5.19029e-11
1.36929e-11
3.39102e-12
9.41232e-08
2.0256e-08
8.21946e-10
1.33931e-09
2.88837e-10
5.76028e-11
1.26196e-11
3.24583e-14
7.63899e-15
4.82091e-14
2.02184e-14
4.06954e-13
1.57954e-14
5.82496e-15
1.35355e-14
4.75143e-12
5.77195e-14
1.39399e-14
5.83751e-14
1.28443e-12
9.28495e-14
1.31512e-12
1.70068e-14
2.76708e-14
2.3122e-14
4.16171e-14
5.53105e-15
7.12691e-15
6.00697e-14
1.36377e-14
9.54427e-14
1.96424e-12
5.44264e-14
8.94337e-14
1.34523e-14
2.23932e-09
3.15988e-09
9.16437e-10
1.21336e-10
3.61069e-11
4.80466e-11
2.05373e-12
4.98066e-09
7.00423e-10
9.73851e-09
1.29967e-11
1.59398e-10
8.08172e-11
6.79605e-12
1.70379e-14
6.17156e-14
1.08504e-13
4.89753e-15
1.09388e-14
3.85827e-15
6.2722e-15
3.09273e-13
1.7942e-15
7.09024e-15
1.69449e-15
1.96435e-14
1.28282e-15
3.01935e-15
7.76122e-15
1.84924e-14
3.53297e-14
1.08314e-12
4.27663e-13
2.51668e-14
4.84965e-14
2.91027e-09
1.60292e-10
3.36574e-09
7.18826e-11
4.46648e-12
6.21466e-11
4.98105e-12
3.14186e-09
4.51787e-12
6.36658e-11
1.5478e-10
3.55072e-09
7.20072e-11
5.18611e-12
2.87385e-10
3.31963e-11
2.65575e-09
5.76513e-10
1.03933e-12
7.71032e-12
6.22988e-11
1.6082e-10
2.95347e-09
3.38055e-09
7.22556e-11
4.52921e-12
6.31766e-11
5.00799e-12
1.68093e-08
1.04701e-09
1.50025e-08
2.77707e-10
1.97803e-11
2.4741e-10
2.23749e-11
1.42389e-08
1.18246e-09
1.65402e-08
2.73387e-10
1.94659e-11
2.22343e-11
2.35073e-10
8.35083e-10
2.36727e-09
2.29524e-08
3.35598e-10
1.4553e-12
1.24961e-11
3.51854e-11
2.9149e-11
2.22717e-10
2.18247e-09
1.09886e-10
2.05016e-13
1.50215e-12
1.15008e-11
1.08292e-08
1.11174e-10
1.0951e-09
1.47908e-11
1.41288e-10
1.4441e-11
1.66422e-12
7.17588e-10
3.21833e-10
8.50225e-11
5.36153e-11
1.59067e-11
8.28519e-12
2.21154e-12
4.04026e-12
2.28865e-09
4.70921e-11
5.37819e-11
1.25907e-09
2.66519e-11
2.81697e-12
1.17203e-09
9.53673e-11
2.22452e-09
2.6965e-12
3.59056e-12
4.53713e-11
2.47317e-11
2.01014e-13
2.32845e-15
2.34929e-14
2.28494e-14
1.9434e-13
2.16185e-15
4.1775e-15
1.68083e-09
2.6439e-11
1.88347e-09
9.39062e-11
1.90251e-12
8.39473e-11
2.02027e-12
3.62965e-09
2.20563e-11
1.4744e-10
7.73198e-12
5.09922e-11
2.45659e-12
4.98082e-13
1.07283e-13
1.11825e-15
2.24073e-15
1.33385e-15
3.11803e-14
8.60056e-16
3.82393e-15
6.00144e-12
3.16473e-09
6.57561e-11
1.56159e-10
3.55362e-09
7.34095e-11
6.36256e-12
1.86634e-14
1.85529e-13
4.69159e-15
4.6016e-15
1.64924e-14
1.84841e-13
8.2963e-15
7.22885e-12
1.05481e-12
3.6562e-10
7.96168e-12
4.05885e-10
2.59118e-11
1.10687e-12
3.63019e-10
1.03075e-12
7.17011e-12
7.9533e-12
4.05649e-10
2.58711e-11
1.0941e-12
4.39064e-10
1.13964e-10
9.58976e-12
9.65537e-13
6.47885e-11
5.53973e-12
7.62127e-10
2.00802e-09
4.68932e-11
9.82517e-10
3.43553e-12
4.30931e-11
2.16922e-11
2.37867e-12
1.62056e-09
2.62e-11
1.8685e-09
9.26335e-11
1.72868e-12
1.98544e-12
7.98012e-11
1.12012e-09
8.20212e-12
5.88447e-10
1.16056e-12
5.45211e-11
2.81282e-11
6.56306e-13
1.21808e-14
1.26219e-13
3.73112e-15
4.76699e-15
5.54052e-14
7.52322e-15
3.37176e-15
5.5318e-12
9.46049e-13
2.70889e-10
1.54832e-10
3.48655e-12
9.92689e-12
7.85287e-13
2.89865e-15
3.26387e-15
1.08928e-14
1.18584e-13
5.54439e-15
4.1577e-14
3.98085e-15
2.62982e-10
8.94614e-13
5.33786e-12
3.21027e-12
1.43785e-10
9.18218e-12
7.16126e-13
1.90339e-13
3.54299e-15
1.10761e-14
3.22517e-15
8.86956e-15
2.24659e-15
2.10837e-15
2.05303e-14
1.4647e-13
1.0339e-14
1.48899e-13
1.0322e-14
2.06736e-14
6.96029e-15
2.63082e-10
6.73015e-12
3.06408e-10
2.46447e-11
1.35704e-12
2.1334e-11
1.40183e-12
6.7969e-12
2.70897e-10
3.08988e-10
2.4827e-11
1.33093e-12
1.41855e-12
2.18098e-11
3.30587e-11
1.22127e-10
1.89658e-09
3.09815e-11
1.24254e-12
9.741e-12
2.76856e-12
2.17958e-11
6.11816e-11
4.46848e-10
1.6917e-12
9.07552e-12
9.62471e-13
4.96582e-13
7.16352e-10
2.83176e-11
4.02143e-10
5.30042e-12
7.67643e-13
4.82726e-13
9.38864e-12
1.46662e-09
1.15343e-12
3.55859e-11
9.32479e-13
3.29415e-11
1.0414e-12
1.02135e-13
1.59057e-10
2.20521e-11
5.12898e-10
1.15479e-11
1.38425e-12
4.61024e-12
1.81888e-12
5.04733e-16
5.35613e-15
6.86902e-14
4.34666e-16
2.69767e-15
3.99427e-16
5.24588e-16
1.02876e-15
2.83646e-15
3.38328e-16
3.11105e-16
2.04846e-15
2.78418e-16
3.80584e-16
6.56706e-15
8.377e-15
4.11206e-14
1.2985e-14
4.73075e-15
5.24678e-15
4.18053e-15
1.83932e-10
2.5133e-12
8.97389e-11
1.09869e-12
1.49459e-11
7.74086e-12
8.84944e-13
1.03233e-10
1.67514e-12
2.61524e-13
2.18058e-13
1.49809e-11
1.33572e-12
1.09992e-11
3.35651e-12
7.3483e-11
2.34953e-10
1.11357e-11
2.00469e-13
3.5905e-12
3.52382e-13
3.67912e-11
9.34482e-13
2.04485e-11
5.72122e-13
2.04821e-11
9.35712e-13
1.27406e-13
5.93283e-10
5.00828e-13
2.28099e-11
3.76818e-13
1.62858e-11
7.35612e-13
8.57697e-14
8.6001e-12
2.70308e-10
4.81129e-10
1.05617e-11
5.94911e-12
2.21421e-13
3.08925e-13
6.61108e-11
1.03662e-12
1.83609e-12
4.41543e-12
5.36055e-13
1.83885e-12
6.22074e-13
1.2863e-10
2.02504e-11
4.4562e-10
2.26955e-12
2.60997e-12
1.11228e-11
5.00174e-12
1.77898e-11
1.47916e-12
5.75098e-11
3.76864e-12
4.14888e-13
1.4708e-12
4.96836e-13
1.12864e-10
5.80157e-12
3.3275e-12
3.20999e-12
1.87823e-12
2.08657e-13
2.52783e-13
1.38659e-10
2.91272e-13
5.56667e-12
1.57304e-13
2.19213e-12
1.70011e-13
6.75298e-14
2.03911e-15
4.86823e-15
1.4856e-15
2.67016e-15
5.14012e-14
1.70333e-15
1.06072e-14
1.73263e-11
8.6114e-11
3.36656e-10
8.57187e-12
1.65794e-12
3.52358e-12
1.97145e-12
2.0323e-11
1.39447e-12
4.66099e-14
5.34896e-13
8.02023e-13
3.17577e-13
3.5996e-11
9.42846e-11
1.23729e-12
7.42282e-12
6.51155e-13
2.37805e-12
6.38578e-13
4.11028e-13
7.54062e-12
1.66035e-12
2.90959e-11
4.05178e-13
2.45167e-12
7.21465e-13
2.61822e-13
1.37534e-10
2.61206e-10
1.55016e-10
3.17496e-12
4.20237e-12
4.54408e-12
2.97881e-12
1.36944e-10
2.62482e-10
1.55489e-10
3.16768e-12
4.16767e-12
2.93813e-12
4.54498e-12
8.07992e-16
3.61719e-16
4.70576e-15
2.64201e-16
5.17209e-16
3.06851e-16
2.12626e-15
1.24675e-16
1.4897e-16
1.20589e-16
1.91941e-16
4.02102e-15
1.3378e-16
4.10286e-16
2.85194e-12
6.84862e-12
1.03856e-12
4.40712e-13
2.49788e-13
1.96683e-13
1.41311e-13
1.8919e-15
4.7928e-16
6.10881e-15
3.53433e-16
5.15749e-16
4.053e-16
9.41508e-16
8.4632e-14
4.59245e-15
6.41668e-15
4.26078e-15
4.72685e-15
7.54748e-15
4.52156e-15
1.15129e-12
8.03084e-12
3.02248e-11
2.90219e-12
4.881e-13
5.63812e-13
1.17321e-12
1.38711e-11
1.75866e-13
7.83737e-12
8.69258e-13
9.27591e-14
8.22194e-14
1.48489e-12
9.58643e-12
6.56907e-12
9.16925e-11
1.37579e-12
1.96474e-13
2.75552e-13
3.40769e-13
1.83243e-11
1.35894e-13
4.02661e-12
9.44659e-14
9.35238e-13
2.65805e-13
7.32449e-14
1.64918e-10
3.87413e-11
4.44205e-11
7.33487e-12
7.79277e-12
5.31854e-12
5.14174e-12
1.91788e-10
4.02289e-11
4.49871e-11
7.49923e-12
7.9075e-12
5.4185e-12
5.26414e-12
1.33679e-11
4.15636e-14
5.90592e-13
3.99734e-14
7.33685e-13
6.6068e-14
2.83448e-14
6.47951e-11
2.17484e-13
3.71694e-12
1.48205e-13
1.21775e-12
1.74303e-13
1.05916e-13
9.58118e-11
8.74365e-11
5.16703e-11
3.44514e-12
2.59884e-12
2.00839e-12
2.49447e-12
6.2751e-11
6.66414e-12
2.39746e-13
2.74481e-13
1.45208e-12
1.30482e-13
1.00482e-13
8.46695e-19
8.75112e-18
1.00199e-18
8.52587e-19
1.04656e-18
1.45813e-17
4.56392e-18
3.51674e-16
2.48277e-16
5.10572e-14
1.85359e-16
1.46793e-17
1.61021e-15
1.38342e-16
2.32859e-16
3.5941e-16
2.78472e-15
2.30362e-15
3.42463e-16
1.83575e-16
3.26012e-16
3.50781e-18
5.60898e-23
2.00751e-18
7.09639e-20
1.0881e-21
1.61427e-22
1.22773e-23
2.31977e-23
1.5778e-21
2.81018e-22
3.97617e-22
6.56617e-21
8.64575e-21
7.72204e-21
7.11133e-21
5.33443e-17
7.87649e-19
2.50896e-17
2.66203e-17
7.53544e-19
4.49827e-18
3.87931e-19
2.82823e-19
4.83512e-22
1.23612e-21
3.82091e-22
1.22655e-21
1.6429e-20
7.92558e-21
2.31878e-22
3.61054e-23
8.87622e-23
1.8304e-23
1.12041e-22
1.80012e-22
2.78545e-24
3.8161e-26
1.09896e-23
1.69174e-25
2.31669e-27
2.21222e-19
8.32183e-19
7.35853e-18
7.05864e-20
3.85028e-20
5.35152e-20
5.20659e-20
2.70039e-19
6.22354e-19
1.7253e-19
6.80521e-19
1.71405e-20
7.6038e-20
1.84293e-19
7.65058e-19
2.05368e-20
1.67251e-20
1.92848e-20
1.21728e-19
5.6865e-20
1.16948e-19
8.00426e-20
4.36122e-19
2.34853e-20
5.91812e-19
5.02978e-22
2.16873e-17
5.36151e-16
1.98149e-18
2.95893e-17
6.01565e-22
2.40883e-21
6.69388e-21
2.62201e-20
7.63701e-22
1.37495e-22
8.63575e-23
3.70381e-21
1.71513e-21
2.63535e-21
2.54652e-21
3.53103e-21
1.11763e-21
4.01609e-22
1.21157e-20
2.57028e-20
8.01507e-21
2.94784e-20
1.89319e-18
1.25612e-18
1.24275e-18
6.26295e-20
6.39492e-20
2.98318e-20
2.90619e-20
2.87096e-17
1.72894e-18
1.61749e-18
7.01467e-19
7.09871e-19
4.36522e-17
3.93498e-17
1.90663e-20
2.2215e-23
2.47262e-21
1.7569e-20
7.77696e-22
2.20455e-22
4.23081e-22
7.13857e-24
1.08374e-22
1.32269e-22
6.05776e-23
5.65924e-22
1.09123e-21
6.56833e-22
9.02855e-22
7.8367e-22
4.34013e-21
8.08872e-21
2.81571e-21
1.01233e-20
3.52682e-19
4.90729e-20
4.10099e-20
5.36696e-21
4.27015e-22
1.7654e-21
1.71418e-22
1.8435e-21
9.7884e-21
4.07952e-19
7.05576e-21
1.06523e-22
1.43113e-24
1.11791e-17
2.12161e-19
4.11524e-22
1.14822e-20
3.29671e-21
6.23592e-24
1.82278e-22
4.41438e-23
8.43758e-26
2.50676e-24
9.88672e-18
2.00181e-17
1.78503e-16
1.36719e-17
5.39145e-18
1.45822e-17
5.67795e-18
1.32216e-16
7.77705e-18
1.46283e-17
2.45766e-18
1.06125e-17
1.64009e-19
1.79095e-19
1.72518e-25
1.48981e-23