/*--------------------------------*- C++ -*----------------------------------*\
  =========                 |
  \\      /  F ield         | OpenFOAM: The Open Source CFD Toolbox
   \\    /   O peration     | Website:  https://openfoam.org
    \\  /    A nd           | Version:  9
     \\/     M anipulation  |
\*---------------------------------------------------------------------------*/
FoamFile
{
    format      ascii;
    class       volVectorField;
    location    "0.0014";
    object      U;
}
// * * * * * * * * * * * * * * * * * * * * * * * * * * * * * * * * * * * * * //

dimensions      [0 1 -1 0 0 0 0];

internalField   nonuniform List<vector> 
11682
(
(0 0 1.25389e-20)
(3.65511e-17 0 1.73575e-15)
(-5.20896e-17 0 1.36344e-15)
(-1.45099e-14 0 5.24923e-15)
(-7.67276e-13 6.28625e-14 3.94178e-13)
(-3.00129e-11 2.93414e-12 1.76489e-11)
(-1.00191e-09 1.27394e-10 6.88797e-10)
(0 0 -1.49572e-20)
(-5.12568e-19 0 -1.90399e-19)
(0 0 -6.08911e-19)
(0 0 -2.70115e-18)
(-1.83974e-14 4.64028e-16 1.13439e-14)
(-8.81151e-13 9.37336e-14 6.24537e-13)
(-2.94281e-11 3.86206e-12 2.38628e-11)
(0 0 0)
(0 0 0)
(0 0 0)
(0 0 0)
(0 0 3.66932e-18)
(-1.82684e-14 7.7338e-16 1.43891e-14)
(-7.36388e-13 9.62085e-14 6.9959e-13)
(0 0 0)
(0 0 0)
(0 0 0)
(0 0 0)
(0 0 0)
(0 0 0)
(-1.25034e-14 4.64028e-16 1.4361e-14)
(0 0 0)
(0 0 0)
(0 0 0)
(0 0 0)
(0 0 0)
(0 0 0)
(0 0 0)
(-8.56121e-10 1.33024e-10 7.59341e-10)
(-2.093e-11 3.28074e-12 2.28073e-11)
(-4.48615e-13 6.55826e-14 5.69036e-13)
(-4.81106e-15 0 9.27514e-15)
(-2.77963e-08 4.37677e-09 1.85295e-08)
(-6.33178e-07 1.13026e-07 5.13498e-07)
(-1.96785e-08 3.7e-09 2.17903e-08)
(-4.68721e-10 8.96437e-11 6.49176e-10)
(-9.83021e-12 1.91301e-12 1.57571e-11)
(-1.8343e-13 3.23273e-14 3.32062e-13)
(-0.00898801 0.000968636 0.0117338)
(-1.39599e-06 2.50942e-07 3.15416e-06)
(-6.1982e-08 1.78322e-08 1.61095e-07)
(-1.32641e-09 4.34876e-10 4.3098e-09)
(-2.67944e-11 9.27557e-12 9.13189e-11)
(-0.000246811 3.56548e-05 0.000266096)
(-3.01252e-07 6.8078e-08 4.30455e-07)
(-7.16667e-09 1.77887e-09 1.3573e-08)
(-1.46578e-10 3.76696e-11 3.29051e-10)
(-2.86125e-12 7.41693e-13 6.82696e-12)
(-5.46583 1.3634 8.47072)
(-0.00156332 0.000179094 0.0029094)
(-9.33785e-05 1.67062e-05 0.000154406)
(-1.48924 0.57565 2.41645)
(-0.00151946 0.000540763 0.00187469)
(-0.002183 0.000884228 0.00435301)
(-4.92963e-05 1.52661e-05 7.76771e-05)
(-8.11614 1.36389 12.2499)
(-0.210845 0.0531498 0.391123)
(-0.316658 0.0538472 0.584777)
(-0.978786 0.153841 1.49839)
(-0.641497 0.148296 0.989239)
(-0.0390918 0.00609281 0.0674156)
(-0.0255948 0.00596273 0.0440229)
(-3.10578 1.00453 4.94123)
(-0.0573792 0.0224203 0.106378)
(-0.119281 0.037991 0.221477)
(-0.165519 0.0585589 0.257307)
(-0.35467 0.104427 0.551448)
(-0.014167 0.00407552 0.0242053)
(-0.00660689 0.00242848 0.0111916)
(-1.23784e-06 -1.03227e-06 1.67064e-06)
(-2.8085e-05 -1.44764e-05 3.46458e-05)
(-2.00601e-08 -1.73574e-08 4.02765e-08)
(-1.59936e-07 -1.09134e-07 2.92316e-07)
(-4.11206e-10 -3.63144e-10 9.92746e-10)
(-3.67722e-09 -2.42227e-09 8.46613e-09)
(-8.32926e-12 -7.39188e-12 2.28505e-11)
(-7.61626e-11 -4.95504e-11 2.08289e-10)
(-1.47561e-13 -1.24953e-13 4.64342e-13)
(-1.46372e-12 -9.78507e-13 4.38056e-12)
(-5.48738e-08 -6.75948e-08 7.91636e-08)
(-1.26362e-09 -1.5362e-09 2.3754e-09)
(-2.78327e-11 -3.38776e-11 6.27316e-11)
(-5.69722e-13 -6.83182e-13 1.46273e-12)
(-6.3072e-15 -6.29112e-15 2.62252e-14)
(-0.000142395 -6.77701e-05 0.000181654)
(-4.6511e-05 -1.41573e-05 8.46487e-05)
(-7.12742e-07 -3.7996e-07 1.39763e-06)
(-2.03449e-06 -6.5224e-07 4.2199e-06)
(-2.13162e-08 -1.20671e-08 6.32265e-08)
(-5.60892e-08 -1.85537e-08 1.40138e-07)
(-3.97656e-10 -2.36223e-10 1.21593e-09)
(-1.26343e-09 -4.62811e-10 3.84435e-09)
(-8.34878e-12 -4.93422e-12 2.49405e-11)
(-2.67068e-11 -9.96203e-12 8.38714e-11)
(-0.00138108 -0.00051596 0.0016858)
(-8.3821e-05 -1.24595e-05 0.000136965)
(-0.00511928 -0.00121129 0.00661671)
(-0.136394 -0.0503694 0.211284)
(-0.576989 -0.143228 0.890455)
(-0.000121673 -5.60375e-05 0.000268403)
(-0.00146042 -0.00018724 0.00271067)
(-5.70179e-10 -8.9551e-12 1.85153e-11)
(-2.38709e-08 -3.37514e-10 9.49598e-10)
(-1.14627e-06 -8.12139e-09 6.49096e-08)
(-5.6241e-05 5.53636e-07 2.09296e-06)
(-1.72071e-10 -2.35488e-12 2.80825e-11)
(-6.10731e-09 -1.32616e-10 1.0745e-09)
(-1.78518e-07 -5.96133e-09 3.2085e-08)
(-3.97023e-06 -3.50377e-08 8.68773e-07)
(-0.00498195 0.000151975 0.00124295)
(-4.50772e-11 -9.04722e-13 6.43559e-12)
(-1.5747e-09 -3.98287e-11 2.43237e-10)
(-5.22294e-08 -1.33881e-09 8.20495e-09)
(-1.94662e-06 -3.2514e-08 3.02028e-07)
(-8.77128e-05 1.71605e-06 1.46727e-05)
(0 0 0)
(1.11063e-32 0 0)
(-1.09403e-32 0 0)
(-1.65392e-28 0 0)
(-3.18505e-25 0 0)
(-1.58391e-23 0 0)
(-3.97906e-21 0 0)
(-1.62029e-19 0 0)
(-1.03415e-17 0 0)
(-8.31967e-17 -1.49604e-15 3.27301e-18)
(0 0 0)
(7.20862e-31 0 0)
(-2.57661e-30 0 0)
(-3.78019e-26 0 0)
(-6.26884e-23 0 0)
(-2.51821e-21 0 0)
(-6.07629e-19 0 0)
(-2.4938e-17 0 0)
(-1.52364e-15 -4.3043e-15 0)
(-7.685e-14 -1.92836e-13 4.03574e-15)
(0 0 0)
(4.18158e-29 0 0)
(-6.48151e-28 0 0)
(-8.36123e-24 0 0)
(-1.18842e-20 0 0)
(-4.11681e-19 0 0)
(-1.00269e-16 0 7.7338e-17)
(-4.9132e-15 -7.21352e-15 2.29804e-15)
(-2.04777e-13 -3.50084e-13 1.12582e-14)
(-4.40919e-12 -9.66746e-12 3.44531e-13)
(0 0 0)
(2.1596e-27 0 0)
(-1.63999e-25 0 0)
(-1.88341e-21 0 0)
(-9.23346e-19 0 1.31162e-14)
(-4.16856e-17 0 -1.66185e-14)
(-7.97372e-15 -7.6719e-15 2.13764e-14)
(-3.62392e-13 -4.5506e-13 4.44693e-14)
(-1.02932e-11 -1.59803e-11 6.57448e-13)
(-2.14697e-10 -4.25806e-10 1.82424e-11)
(0 0 0)
(1.02946e-25 0 0)
(-3.98149e-23 0 0)
(-1.91351e-19 0 -1.31162e-14)
(-7.61185e-17 0 0)
(-8.13963e-15 -5.98918e-15 -2.61101e-14)
(-4.57709e-13 -4.21924e-13 1.70144e-14)
(-1.64411e-11 -1.79618e-11 8.14203e-13)
(-4.63427e-10 -6.50441e-10 3.0852e-11)
(-9.85855e-09 -1.78468e-08 9.41429e-10)
(0 0 0)
(5.01886e-24 0 0)
(-8.8781e-21 0 0)
(-2.23068e-17 0 1.42211e-14)
(-6.41035e-15 -2.30617e-15 2.41435e-14)
(-4.15255e-13 -2.69172e-13 1.21421e-14)
(-1.77723e-11 -1.34486e-11 7.68567e-13)
(-6.66676e-10 -6.02619e-10 3.46977e-11)
(-2.15711e-08 -2.65082e-08 1.55195e-09)
(-5.46487e-07 -8.04753e-07 5.75511e-08)
(0 0 0)
(9.7887e-23 0 0)
(-1.75701e-18 0 -8.50718e-16)
(-2.55724e-15 -1.54676e-16 -2.16084e-14)
(-2.55973e-13 -1.13434e-13 5.80035e-15)
(-1.26864e-11 -6.31968e-12 4.31973e-13)
(-5.65355e-10 -3.13189e-10 2.45867e-11)
(-2.56197e-08 -1.64142e-08 1.36611e-09)
(-1.23932e-06 -1.14469e-06 9.74955e-08)
(-1.79052e-05 -2.57295e-05 5.48973e-06)
(0 0 0)
(-2.48454e-20 0 0)
(-1.53506e-16 0 -2.98304e-15)
(-1.04409e-13 -2.67589e-14 -2.8035e-14)
(-5.64473e-12 -1.73407e-12 1.77999e-13)
(-2.6653e-10 -8.73273e-11 1.03086e-11)
(-1.19659e-08 -4.24633e-09 5.70611e-10)
(-5.7181e-07 -2.49196e-07 3.69212e-08)
(-0.0653032 -0.0401607 0.00113734)
(0 0 0)
(9.25649e-33 0 0)
(-4.89975e-34 0 0)
(-2.60721e-30 0 0)
(-1.57138e-27 0 0)
(-7.18976e-25 0 0)
(-1.69082e-22 0 0)
(-2.05275e-20 0 0)
(-1.77187e-18 0 0)
(-1.20689e-17 -5.35425e-17 3.27393e-18)
(0 0 0)
(5.63213e-31 0 0)
(-9.32003e-32 0 0)
(-6.21204e-28 0 0)
(-3.32682e-25 0 0)
(-1.34242e-22 0 0)
(-2.92507e-20 0 0)
(-3.37491e-18 0 0)
(-2.82133e-16 0 0)
(-1.244e-14 -3.87396e-14 3.66806e-15)
(0 0 0)
(3.30003e-29 0 0)
(-1.84275e-29 0 0)
(-1.39088e-25 0 0)
(-6.89332e-23 0 0)
(-2.39613e-20 0 0)
(-4.74172e-18 0 0)
(-5.20569e-16 0 0)
(-4.08357e-14 -7.15534e-14 9.43523e-15)
(-8.59043e-13 -1.96451e-12 3.91185e-13)
(0 0 0)
(1.81661e-27 0 0)
(-4.05893e-27 0 0)
(-2.88399e-23 0 0)
(-1.3517e-20 0 0)
(-4.00046e-18 0 0)
(-7.07189e-16 0 0)
(-7.39631e-14 -9.66244e-14 1.80198e-14)
(-2.09991e-12 -3.29844e-12 7.10349e-13)
(-3.97545e-11 -8.59201e-11 1.86664e-11)
(0 0 0)
(8.8979e-26 0 0)
(-1.00018e-24 0 0)
(-5.44544e-21 0 0)
(-2.4222e-18 0 0)
(-6.1426e-16 0 0)
(-9.70614e-14 -8.77092e-14 1.70144e-14)
(-3.39803e-12 -3.71893e-12 9.15372e-13)
(-9.33347e-11 -1.30223e-10 3.13415e-11)
(-1.74105e-09 -3.44376e-09 7.95627e-10)
(0 0 0)
(3.83064e-24 0 0)
(-2.65319e-22 0 0)
(-9.26624e-19 0 0)
(-3.8696e-16 0 0)
(-8.62405e-14 -5.67839e-14 1.31475e-14)
(-3.6766e-12 -2.80282e-12 8.40509e-13)
(-1.32594e-10 -1.19822e-10 3.47936e-11)
(-3.84384e-09 -4.47813e-09 1.2461e-09)
(-6.7833e-08 -1.12996e-07 2.89123e-08)
(0 0 0)
(1.58435e-22 0 0)
(-7.17143e-20 0 0)
(-1.43545e-16 0 0)
(-5.48795e-14 -2.24782e-14 6.18704e-15)
(-2.65997e-12 -1.36191e-12 5.23423e-13)
(-1.13846e-10 -6.50837e-11 2.51e-11)
(-4.35207e-09 -2.92648e-09 1.08998e-09)
(-1.28447e-07 -1.10543e-07 3.91492e-08)
(-3.19606e-06 -4.9447e-06 1.40229e-06)
(0 0 0)
(4.70244e-21 0 0)
(-1.79263e-17 0 0)
(-2.09794e-14 -4.02158e-15 -7.19034e-16)
(-1.2272e-12 -4.0819e-13 2.16034e-13)
(-5.73518e-11 -2.00446e-11 1.12181e-11)
(-2.46709e-09 -9.68944e-10 5.19888e-10)
(-8.51478e-08 -4.25965e-08 1.99313e-08)
(-8.03229e-05 -5.06151e-05 2.75208e-05)
(-91.7241 -83.1892 53.8097)
(0 0 0)
(8.84821e-33 0 0)
(-1.51068e-35 0 0)
(-6.4008e-32 0 0)
(-1.14485e-28 0 0)
(-5.82698e-26 0 0)
(-1.56262e-23 0 0)
(-2.04547e-21 0 0)
(-1.83873e-19 0 0)
(-1.7473e-18 -4.38272e-19 0)
(0 0 0)
(5.20908e-31 0 0)
(-3.26396e-33 0 0)
(-1.55024e-29 0 0)
(-2.30817e-26 0 0)
(-1.06561e-23 0 0)
(-2.63101e-21 0 0)
(-3.26404e-19 0 0)
(-2.57245e-17 0 0)
(-7.28684e-16 -3.95052e-15 6.86378e-17)
(0 0 0)
(2.8599e-29 0 0)
(-6.83803e-31 0 0)
(-3.58005e-27 0 0)
(-4.51369e-24 0 0)
(-1.94456e-21 0 0)
(-4.54646e-19 0 0)
(-5.44389e-17 0 0)
(-4.30982e-15 -8.01388e-15 2.32014e-16)
(-1.47913e-13 -3.20549e-13 4.15785e-14)
(0 0 0)
(1.46983e-27 0 0)
(-1.41702e-28 0 0)
(-7.79514e-25 0 0)
(-8.80522e-22 0 0)
(-3.57704e-19 0 0)
(-7.96836e-17 0 0)
(-9.02428e-15 -1.24751e-14 7.7338e-16)
(-3.36356e-13 -5.02222e-13 7.62553e-14)
(-6.84372e-12 -1.35709e-11 2.17072e-12)
(0 0 0)
(7.13812e-26 0 0)
(-3.06593e-26 0 0)
(-1.62724e-22 0 0)
(-1.76747e-19 0 0)
(-6.49867e-17 0 0)
(-1.29212e-14 -1.04755e-14 9.28056e-16)
(-5.15725e-13 -5.60275e-13 1.0286e-13)
(-1.43692e-11 -1.89917e-11 3.53886e-12)
(-3.07665e-10 -5.4918e-10 9.65826e-11)
(0 0 0)
(3.19354e-24 0 0)
(-7.41432e-24 0 0)
(-3.52144e-20 0 0)
(-3.61649e-17 0 0)
(-1.08788e-14 -6.63e-15 4.64028e-16)
(-5.53169e-13 -4.24714e-13 9.24962e-14)
(-1.91807e-11 -1.72927e-11 3.89903e-12)
(-5.80111e-10 -6.43215e-10 1.40462e-10)
(-1.35177e-08 -1.98889e-08 4.20432e-09)
(0 0 0)
(1.24117e-22 0 0)
(-1.85737e-21 0 0)
(-8.4792e-18 0 0)
(-7.02434e-15 -1.38857e-15 7.7338e-17)
(-4.0835e-13 -2.24865e-13 5.84675e-14)
(-1.66231e-11 -1.01328e-11 2.87259e-12)
(-6.26979e-10 -4.38122e-10 1.23122e-10)
(-2.03177e-08 -1.7426e-08 4.91013e-09)
(-4.73391e-07 -5.20746e-07 1.60645e-07)
(0 0 0)
(4.16705e-21 0 0)
(-4.27246e-19 0 0)
(-1.9426e-15 0 2.70939e-17)
(-2.07495e-13 -7.48632e-14 2.30868e-14)
(-9.26868e-12 -3.73777e-12 1.38265e-12)
(-3.93886e-10 -1.70227e-10 6.40362e-11)
(-1.54428e-08 -7.8792e-09 2.92379e-09)
(-4.59978e-07 -3.13068e-07 1.19615e-07)
(-6.67874e-05 -5.22821e-05 1.60508e-05)
(0 0 0)
(6.30531e-33 0 0)
(-1.80598e-38 0 0)
(-4.65696e-34 0 0)
(-2.40133e-30 0 0)
(-2.18747e-27 0 0)
(-7.40915e-25 0 0)
(-1.36523e-22 0 0)
(-1.37806e-20 0 0)
(-1.10235e-19 0 0)
(0 0 0)
(3.71547e-31 0 0)
(-6.08355e-36 0 0)
(-1.30711e-31 0 0)
(-5.62359e-28 0 0)
(-4.37191e-25 0 0)
(-1.3642e-22 0 0)
(-2.34584e-20 0 0)
(-2.20481e-18 0 0)
(-1.60023e-17 -7.63932e-17 4.57996e-18)
(0 0 0)
(2.03283e-29 0 0)
(-1.96948e-33 0 0)
(-3.58199e-29 0 0)
(-1.30288e-25 0 0)
(-8.4507e-23 0 0)
(-2.39087e-20 0 0)
(-3.75256e-18 0 0)
(-3.2805e-16 0 0)
(-1.78896e-14 -4.2164e-14 4.20059e-15)
(0 0 0)
(1.02682e-27 0 0)
(-6.02921e-31 0 0)
(-9.79773e-27 0 0)
(-2.93565e-23 0 0)
(-1.54695e-20 0 0)
(-3.86899e-18 0 0)
(-5.42774e-16 0 0)
(-4.38413e-14 -6.8102e-14 8.89387e-15)
(-9.54262e-13 -1.83821e-12 3.50727e-13)
(0 0 0)
(4.75918e-26 0 0)
(-1.70662e-28 0 0)
(-2.70033e-24 0 0)
(-6.22236e-21 0 0)
(-2.61346e-18 0 0)
(-5.63354e-16 0 0)
(-6.93531e-14 -7.41048e-14 1.28381e-14)
(-1.93454e-12 -2.52908e-12 5.51563e-13)
(-3.88337e-11 -6.64672e-11 1.4833e-11)
(0 0 0)
(2.01311e-24 0 0)
(-4.35119e-26 0 0)
(-7.31391e-22 0 0)
(-1.18959e-18 0 0)
(-3.98209e-16 0 0)
(-7.27739e-14 -5.47489e-14 1.0982e-14)
(-2.55235e-12 -2.34925e-12 6.02143e-13)
(-6.96545e-11 -7.8531e-11 2.05055e-11)
(-1.45173e-09 -2.16502e-09 5.9304e-10)
(0 0 0)
(7.76925e-23 0 0)
(-9.9116e-24 0 0)
(-1.84804e-19 0 0)
(-1.97005e-16 0 0)
(-5.37669e-14 -2.93884e-14 6.34171e-15)
(-2.27734e-12 -1.4687e-12 4.49024e-13)
(-7.77412e-11 -5.83744e-11 1.83572e-11)
(-2.24536e-09 -2.06245e-09 6.82065e-10)
(-5.17213e-08 -6.30582e-08 2.15975e-08)
(0 0 0)
(2.71645e-21 0 0)
(-2.11568e-21 0 0)
(-4.13677e-17 0 2.1932e-19)
(-2.78127e-14 -7.7338e-15 2.28587e-15)
(-1.3726e-12 -5.88233e-13 2.31943e-13)
(-5.45563e-11 -2.63846e-11 1.05636e-11)
(-1.94037e-09 -1.08296e-09 4.54056e-10)
(-6.15217e-08 -4.13857e-08 1.81838e-08)
(-1.87109e-06 -1.69098e-06 7.43332e-07)
(0 0 0)
(1.69399e-34 0 0)
(-2.28363e-46 0 0)
(-2.00453e-37 0 0)
(-6.09434e-33 0 0)
(-1.43898e-29 0 0)
(-8.61386e-27 0 0)
(-2.1001e-24 0 0)
(-2.85013e-22 0 0)
(-2.53844e-21 0 0)
(0 0 0)
(1.04324e-32 0 0)
(-2.88277e-43 0 0)
(-7.39752e-35 0 0)
(-1.6737e-30 0 0)
(-3.29133e-27 0 0)
(-1.72018e-24 0 0)
(-3.76075e-22 0 0)
(-4.76449e-20 0 0)
(-4.37361e-19 0 0)
(0 0 0)
(5.95061e-31 0 0)
(-3.49938e-40 0 0)
(-2.59328e-32 0 0)
(-4.51327e-28 0 0)
(-7.23364e-25 0 0)
(-3.23426e-22 0 0)
(-6.30911e-20 0 0)
(-7.32901e-18 0 0)
(-7.78703e-17 -5.17442e-16 7.99397e-17)
(0 0 0)
(3.12673e-29 0 0)
(-4.03058e-37 0 0)
(-8.84091e-30 0 0)
(-1.1831e-25 0 0)
(-1.49424e-22 0 0)
(-5.69519e-20 0 0)
(-9.70551e-18 0 0)
(-1.01844e-15 -9.27004e-16 7.7338e-17)
(-6.39627e-14 -1.23507e-13 3.83537e-14)
(0 0 0)
(1.50454e-27 0 0)
(-4.19223e-34 0 0)
(-3.01555e-27 0 0)
(-2.94517e-23 0 0)
(-2.87723e-20 0 0)
(-1.00065e-17 0 0)
(-1.50221e-15 -1.69933e-15 1.54676e-16)
(-1.27195e-13 -1.66142e-13 6.0401e-14)
(-2.81499e-12 -4.65001e-12 1.71314e-12)
(0 0 0)
(6.5866e-26 0 0)
(-3.74427e-31 0 0)
(-1.03439e-24 0 0)
(-6.74102e-21 0 0)
(-5.62285e-18 0 0)
(-2.14083e-15 -7.72328e-16 7.7338e-17)
(-1.67978e-13 -1.53851e-13 6.41132e-14)
(-4.82416e-12 -5.37338e-12 2.32034e-12)
(-1.03768e-10 -1.4938e-10 6.32054e-11)
(0 0 0)
(2.60317e-24 0 0)
(-2.76928e-28 0 0)
(-3.4329e-22 0 0)
(-1.36995e-18 0 0)
(-1.32135e-15 0 0)
(-1.51641e-13 -9.54722e-14 4.88003e-14)
(-5.32151e-12 -4.03658e-12 2.11736e-12)
(-1.53013e-10 -1.40564e-10 7.29473e-11)
(-3.50417e-09 -4.17184e-09 2.14578e-09)
(0 0 0)
(9.19584e-23 0 0)
(-1.65113e-25 0 0)
(-1.03503e-19 0 0)
(-2.39389e-16 0 3.40689e-17)
(-9.14461e-14 -3.72769e-14 2.40107e-14)
(-3.80162e-12 -1.90293e-12 1.28571e-12)
(-1.34165e-10 -7.75709e-11 5.2223e-11)
(-4.11142e-09 -2.85789e-09 1.93427e-09)
(-1.08862e-07 -9.74782e-08 6.68432e-08)
(0 0 0)
(-9.13751e-38 0 0)
(0 0 0)
(-3.18464e-44 0 0)
(-1.40942e-36 0 0)
(-2.06013e-32 0 0)
(-3.09206e-29 0 0)
(-1.39318e-26 0 0)
(-2.59851e-24 0 0)
(-2.51774e-23 0 0)
(0 0 0)
(-4.99067e-36 0 0)
(0 0 0)
(-3.12602e-41 0 0)
(-4.78113e-34 0 0)
(-5.56488e-30 0 0)
(-6.83609e-27 0 0)
(-2.71915e-24 0 0)
(-4.65179e-22 0 0)
(-4.78398e-21 0 0)
(0 0 0)
(-2.64312e-34 0 0)
(0 0 0)
(-2.72664e-38 0 0)
(-1.58055e-31 0 0)
(-1.45463e-27 0 0)
(-1.44087e-24 0 0)
(-4.98933e-22 0 0)
(-7.70629e-20 0 0)
(-8.98482e-19 0 0)
(0 0 0)
(-1.33302e-32 0 0)
(0 0 0)
(-2.09278e-35 0 0)
(-5.14775e-29 0 0)
(-3.61284e-25 0 0)
(-2.88214e-22 0 0)
(-8.69439e-20 0 0)
(-1.16115e-17 0 0)
(-3.13617e-16 -1.73157e-15 1.02696e-15)
(0 0 0)
(-6.38302e-31 0 0)
(0 0 0)
(-1.40138e-32 0 0)
(-1.64847e-26 0 0)
(-8.31145e-23 0 0)
(-5.65481e-20 0 0)
(-1.60019e-17 0 0)
(-1.72996e-15 -3.39656e-15 1.54676e-15)
(-1.12375e-13 -1.86906e-13 1.04013e-13)
(0 0 0)
(-2.88229e-29 0 0)
(0 0 0)
(-8.12208e-30 0 0)
(-5.09139e-24 0 0)
(-1.73842e-20 0 0)
(-1.20005e-17 0 0)
(-3.7055e-15 -2.77926e-15 1.77877e-15)
(-1.92333e-13 -2.11296e-13 1.37662e-13)
(-4.19438e-12 -5.90287e-12 3.93848e-12)
(0 0 0)
(-1.21351e-27 0 0)
(0 0 0)
(-4.04541e-27 0 0)
(-1.46963e-21 0 0)
(-3.5776e-18 0 0)
(-3.0069e-15 -7.72328e-16 1.23741e-15)
(-2.09287e-13 -1.54948e-13 1.27144e-13)
(-5.99927e-12 -5.47741e-12 4.4565e-12)
(-1.30121e-10 -1.52144e-10 1.25217e-10)
(0 0 0)
(-4.69235e-26 0 0)
(0 0 0)
(-1.72374e-24 0 0)
(-3.81371e-19 0 0)
(-9.57755e-16 0 5.78441e-16)
(-1.48103e-13 -7.34711e-14 7.70282e-14)
(-5.24815e-12 -3.0798e-12 3.23868e-12)
(-1.49931e-10 -1.05454e-10 1.13343e-10)
(-3.38008e-09 -3.03508e-09 3.36889e-09)
(0 0 0)
(-2.59758e-40 0 0)
(0 0 0)
(0 0 0)
(-1.95507e-43 0 0)
(-2.74619e-36 0 0)
(-2.8595e-32 0 0)
(-3.15816e-29 0 0)
(-1.10126e-26 0 0)
(-1.1744e-25 0 0)
(0 0 0)
(-1.90684e-38 0 0)
(0 0 0)
(0 0 0)
(-1.57425e-40 0 0)
(-9.40337e-34 0 0)
(-7.70076e-30 0 0)
(-7.05139e-27 0 0)
(-2.15629e-24 0 0)
(-2.3687e-23 0 0)
(0 0 0)
(-1.33908e-36 0 0)
(0 0 0)
(0 0 0)
(-1.16543e-37 0 0)
(-3.163e-31 0 0)
(-1.99837e-27 0 0)
(-1.49161e-24 0 0)
(-3.96027e-22 0 0)
(-4.70303e-21 0 0)
(0 0 0)
(-8.97064e-35 0 0)
(0 0 0)
(0 0 0)
(-7.75833e-35 0 0)
(-1.05395e-28 0 0)
(-4.89137e-25 0 0)
(-2.94048e-22 0 0)
(-6.78127e-20 0 0)
(-9.11301e-19 0 6.56672e-19)
(0 0 0)
(-5.6948e-33 0 0)
(0 0 0)
(0 0 0)
(-4.61917e-32 0 0)
(-3.43737e-26 0 0)
(-1.09963e-22 0 0)
(-5.47549e-20 0 0)
(-1.14514e-17 0 0)
(-3.1857e-16 -2.25152e-15 1.96616e-15)
(0 0 0)
(-3.38767e-31 0 0)
(0 0 0)
(0 0 0)
(-2.50624e-29 0 0)
(-1.06042e-23 0 0)
(-2.22696e-20 0 0)
(-1.09793e-17 0 0)
(-2.46754e-15 -2.31698e-15 2.93884e-15)
(-1.1807e-13 -1.70092e-13 1.50951e-13)
(0 0 0)
(-1.85916e-29 0 0)
(0 0 0)
(0 0 0)
(-1.34946e-26 0 0)
(-2.95566e-21 0 0)
(-4.33076e-18 0 0)
(-2.72742e-15 -9.27004e-16 2.47482e-15)
(-1.70335e-13 -1.54155e-13 1.67437e-13)
(-3.72923e-12 -4.30422e-12 4.67875e-12)
(0 0 0)
(-9.23425e-28 0 0)
(0 0 0)
(0 0 0)
(-8.21254e-24 0 0)
(-7.09999e-19 0 0)
(-1.21037e-15 0 1.17884e-15)
(-1.49261e-13 -8.52265e-14 1.20738e-13)
(-4.2382e-12 -2.99252e-12 4.20647e-12)
(-8.87921e-11 -7.94472e-11 1.15648e-10)
(0 0 0)
(0 0 0)
(0 0 0)
(0 0 0)
(0 0 0)
(-2.08251e-43 0 0)
(-1.84123e-36 0 0)
(-1.68261e-32 0 0)
(-1.58351e-29 0 0)
(-2.56746e-28 0 0)
(0 0 0)
(0 0 0)
(0 0 0)
(0 0 0)
(0 0 0)
(-1.83401e-40 0 0)
(-6.5769e-34 0 0)
(-4.57519e-30 0 0)
(-3.66163e-27 0 0)
(-5.62978e-26 0 0)
(0 0 0)
(0 0 0)
(0 0 0)
(0 0 0)
(0 0 0)
(-1.43281e-37 0 0)
(-2.31476e-31 0 0)
(-1.20441e-27 0 0)
(-8.07459e-25 0 0)
(-1.19951e-23 0 0)
(0 0 0)
(0 0 0)
(0 0 0)
(0 0 0)
(0 0 0)
(-9.8695e-35 0 0)
(-8.04983e-29 0 0)
(-3.01528e-25 0 0)
(-1.65639e-22 0 0)
(-2.54453e-21 0 0)
(0 0 0)
(0 0 0)
(0 0 0)
(0 0 0)
(0 0 0)
(-5.95404e-32 0 0)
(-2.71711e-26 0 0)
(-7.00067e-23 0 0)
(-3.09702e-20 0 0)
(-5.36191e-19 0 1.20356e-18)
(0 0 0)
(0 0 0)
(0 0 0)
(0 0 0)
(0 0 0)
(-3.12147e-29 0 0)
(-8.58898e-24 0 0)
(-1.46726e-20 0 0)
(-5.53042e-18 0 0)
(-1.06392e-16 -9.55076e-16 2.36385e-15)
(0 0 0)
(0 0 0)
(0 0 0)
(0 0 0)
(0 0 0)
(-1.42466e-26 0 0)
(-2.43775e-21 0 0)
(-2.71097e-18 0 0)
(-1.20336e-15 -1.54676e-16 2.39748e-15)
(-8.35842e-14 -9.66417e-14 1.31728e-13)
(0 0 0)
(0 0 0)
(0 0 0)
(0 0 0)
(0 0 0)
(-6.07682e-24 0 0)
(-5.96264e-19 0 0)
(-5.89444e-16 0 1.71697e-15)
(-9.5009e-14 -6.46546e-14 1.17118e-13)
(-2.05503e-12 -1.82709e-12 3.2108e-12)
(0 0 0)
(0 0 0)
(0 0 0)
(0 0 0)
(0 0 0)
(0 0 0)
(-1.56039e-44 0 0)
(-5.4773e-37 0 0)
(-4.50604e-33 0 0)
(-1.75002e-31 0 0)
(0 0 0)
(0 0 0)
(0 0 0)
(0 0 0)
(0 0 0)
(0 0 0)
(-1.75434e-41 0 0)
(-2.02971e-34 0 0)
(-1.30245e-30 0 0)
(-4.42817e-29 0 0)
(0 0 0)
(0 0 0)
(0 0 0)
(0 0 0)
(0 0 0)
(0 0 0)
(-1.74094e-38 0 0)
(-7.10601e-32 0 0)
(-3.69161e-28 0 0)
(-1.0675e-26 0 0)
(0 0 0)
(0 0 0)
(0 0 0)
(0 0 0)
(0 0 0)
(0 0 0)
(-1.51314e-35 0 0)
(-2.41034e-29 0 0)
(-1.01075e-25 0 0)
(-2.50717e-24 0 0)
(0 0 0)
(0 0 0)
(0 0 0)
(0 0 0)
(0 0 0)
(0 0 0)
(-1.14397e-32 0 0)
(-8.13185e-27 0 0)
(-2.60359e-23 0 0)
(-5.90566e-22 0 0)
(0 0 0)
(0 0 0)
(0 0 0)
(0 0 0)
(0 0 0)
(0 0 0)
(-7.46886e-30 0 0)
(-2.74033e-24 0 0)
(-6.0974e-21 0 0)
(-1.40285e-19 0 2.19137e-19)
(0 0 0)
(0 0 0)
(0 0 0)
(0 0 0)
(0 0 0)
(0 0 0)
(-4.17553e-27 0 0)
(-8.90547e-22 0 0)
(-1.24973e-18 0 0)
(-3.26209e-17 -2.09905e-16 1.34002e-15)
(0 0 0)
(0 0 0)
(0 0 0)
(0 0 0)
(0 0 0)
(0 0 0)
(-1.97779e-24 0 0)
(-2.61344e-19 0 0)
(-2.16172e-16 0 1.11089e-15)
(-3.78798e-14 -3.2482e-14 7.08364e-14)
(0 0 0)
(0 0 0)
(0 0 0)
(0 0 0)
(0 0 0)
(0 0 0)
(0 0 0)
(0 0 0)
(-6.71816e-38 0 0)
(-9.91048e-36 0 0)
(0 0 0)
(0 0 0)
(0 0 0)
(0 0 0)
(0 0 0)
(0 0 0)
(0 0 0)
(0 0 0)
(-2.6647e-35 0 0)
(-3.38274e-33 0 0)
(0 0 0)
(0 0 0)
(0 0 0)
(0 0 0)
(0 0 0)
(0 0 0)
(0 0 0)
(0 0 0)
(-9.78227e-33 0 0)
(-1.10195e-30 0 0)
(0 0 0)
(0 0 0)
(0 0 0)
(0 0 0)
(0 0 0)
(0 0 0)
(0 0 0)
(0 0 0)
(-3.33675e-30 0 0)
(-3.36534e-28 0 0)
(0 0 0)
(0 0 0)
(0 0 0)
(0 0 0)
(0 0 0)
(0 0 0)
(0 0 0)
(0 0 0)
(-1.08413e-27 0 0)
(-9.45991e-26 0 0)
(0 0 0)
(0 0 0)
(0 0 0)
(0 0 0)
(0 0 0)
(0 0 0)
(0 0 0)
(0 0 0)
(-3.53047e-25 0 0)
(-2.40903e-23 0 0)
(0 0 0)
(0 0 0)
(0 0 0)
(0 0 0)
(0 0 0)
(0 0 0)
(0 0 0)
(0 0 0)
(-1.19537e-22 0 0)
(-5.64042e-21 0 7.5641e-19)
(0 0 0)
(0 0 0)
(0 0 0)
(0 0 0)
(0 0 0)
(0 0 0)
(0 0 0)
(0 0 0)
(-4.00623e-20 0 0)
(-3.74524e-17 0 7.7338e-17)
(-1.38501e-11 -2.05719e-13 3.6673e-13)
(-4.39084e-12 -5.16618e-14 6.70278e-13)
(-1.14156e-12 -1.99532e-14 1.36293e-13)
(-1.43591e-13 -1.85611e-15 2.01921e-14)
(-7.08613e-12 -1.836e-13 1.24303e-12)
(-3.12117e-10 -8.77158e-12 5.33943e-11)
(-1.25703e-08 -3.0622e-10 2.2714e-09)
(-4.03103e-07 -5.40296e-09 8.64296e-08)
(-4.14242e-06 5.7503e-08 1.18863e-06)
(0 0 0)
(-9.5977e-18 0 0)
(-2.3865e-14 -2.76194e-15 -2.12127e-15)
(-1.43488e-12 -3.50427e-13 1.04875e-14)
(-6.85073e-11 -1.95529e-11 2.34759e-12)
(-2.87689e-09 -1.01485e-09 1.27446e-10)
(-1.13861e-07 -4.65975e-08 6.56541e-09)
(-1.64882e-05 -1.02185e-05 6.11385e-07)
(-1.02737 -0.604344 0.021809)
(0 0 0)
(-2.53588e-15 0 0)
(-2.87578e-13 -4.47281e-14 4.87229e-15)
(-1.60439e-11 -2.77771e-12 4.43379e-13)
(-8.69533e-10 -1.49564e-10 3.02937e-11)
(-4.00095e-08 -7.93433e-09 1.97792e-09)
(-6.31481e-07 -1.70394e-07 3.26883e-08)
(-4.56317 -1.43611 0.104723)
(0 0 0)
(-3.38041e-14 -1.84047e-15 0)
(-1.96233e-12 -2.77352e-13 5.34405e-14)
(-8.79607e-11 -1.36919e-11 2.8661e-12)
(-3.37103e-09 -5.64144e-10 1.43826e-10)
(-1.15554e-07 -1.97191e-08 6.35036e-09)
(-1.82148e-06 -4.44612e-07 6.11187e-08)
(-19.4438 -6.63722 0.54404)
(-7.7338e-16 0 0)
(-1.47911e-13 -1.02767e-14 1.6241e-15)
(-7.08271e-12 -8.94496e-13 1.83446e-13)
(-2.92878e-10 -3.77853e-11 9.2227e-12)
(-1.21444e-08 -1.48284e-09 4.64249e-10)
(-6.05398e-07 -6.42478e-08 3.17743e-08)
(-0.00228656 -0.000206497 0.000345295)
(-2.78417e-15 -1.41316e-35 0)
(-2.9175e-13 -3.09352e-15 4.64147e-15)
(0 0 0)
(-7.02557e-20 0 0)
(-3.98773e-15 0 0)
(-3.46069e-13 -8.55024e-14 4.85683e-14)
(-1.62265e-11 -4.32635e-12 2.95289e-12)
(-7.30024e-10 -1.94392e-10 1.34838e-10)
(-2.93323e-08 -8.62111e-09 5.39264e-09)
(-1.28696e-06 -4.99645e-07 2.99427e-07)
(-0.00448068 -0.00240663 0.00135755)
(0 0 0)
(-3.92716e-17 0 0)
(-7.13878e-14 -9.08174e-15 6.49639e-15)
(-3.42312e-12 -7.20028e-13 6.06197e-13)
(-1.43934e-10 -3.20405e-11 2.98326e-11)
(-5.77741e-09 -1.38224e-09 1.36422e-09)
(-2.42048e-07 -6.1957e-08 5.69046e-08)
(-0.0229826 -0.005414 0.0064072)
(0 0 0)
(-6.74306e-15 0 2.32014e-16)
(-5.26569e-13 -7.5903e-14 7.49405e-14)
(-2.35613e-11 -4.06456e-12 4.00101e-12)
(-1.01362e-09 -1.72434e-10 1.69718e-10)
(-3.92591e-08 -7.00221e-09 6.47696e-09)
(-6.01248e-07 -1.31232e-07 1.16238e-07)
(-0.109578 -0.0270859 0.0320403)
(0 0 0)
(-4.44431e-14 -2.61696e-15 3.01618e-15)
(-2.26949e-12 -3.13875e-13 3.36111e-13)
(-9.07097e-11 -1.26815e-11 1.45931e-11)
(-3.22452e-09 -4.58173e-10 5.61747e-10)
(-9.28368e-08 -1.33668e-08 1.68798e-08)
(-8.44957e-06 -7.01266e-07 2.00069e-06)
(-0.0296692 -0.00367687 0.0107724)
(0 -7.44887e-33 0)
(-8.84104e-14 -2.58406e-31 7.4794e-15)
(0 0 0)
(1.31491e-19 0 0)
(-8.43301e-17 0 0)
(-6.70326e-14 -1.44683e-14 4.56294e-15)
(-3.20499e-12 -9.45547e-13 4.21669e-13)
(-1.40423e-10 -4.19413e-11 1.94769e-11)
(-6.1226e-09 -1.87744e-09 9.19171e-10)
(-2.29587e-07 -8.54485e-08 4.36171e-08)
(-2.23503e-06 -1.15907e-06 5.37373e-07)
(0 0 0)
(2.04725e-18 0 0)
(-1.33653e-14 -7.72327e-16 5.41366e-16)
(-7.68518e-13 -1.68563e-13 9.14135e-14)
(-3.27015e-11 -8.35071e-12 4.54437e-12)
(-1.30275e-09 -3.76657e-10 1.92556e-10)
(-5.27818e-08 -1.61071e-08 8.6569e-09)
(-2.47718e-06 -8.54147e-07 5.86079e-07)
(0 0 0)
(-5.17862e-16 0 0)
(-1.27803e-13 -1.35406e-14 8.97121e-15)
(-6.45062e-12 -1.03503e-12 7.8202e-13)
(-2.84696e-10 -4.6098e-11 3.53256e-11)
(-1.10012e-08 -1.87119e-09 1.50717e-09)
(-3.28914e-07 -6.5941e-08 5.3478e-08)
(-0.000180206 -4.14187e-05 3.42533e-05)
(0 0 0)
(-7.97135e-15 0 7.7338e-17)
(-5.68826e-13 -6.93765e-14 6.07103e-14)
(-2.33752e-11 -3.31254e-12 3.28697e-12)
(-8.24583e-10 -1.2024e-10 1.27248e-10)
(-2.67976e-08 -3.79077e-09 4.26086e-09)
(-9.52488e-07 -1.18442e-07 1.41719e-07)
(-0.00065322 -0.000128656 0.000122483)
(0 -4.12228e-30 0)
(-1.10561e-14 -1.26199e-28 1.00097e-15)
(0 0 0)
(8.07521e-20 0 0)
(-4.34804e-19 0 0)
(-7.71523e-15 -4.63677e-16 2.32014e-16)
(-5.17431e-13 -1.39237e-13 7.33164e-14)
(-2.3062e-11 -7.01863e-12 3.75958e-12)
(-9.22827e-10 -3.14471e-10 1.71282e-10)
(-3.27462e-08 -1.31314e-08 7.57047e-09)
(-1.04882e-06 -5.46863e-07 3.12683e-07)
(0 0 0)
(1.95779e-18 0 0)
(-2.32644e-16 0 0)
(-1.15987e-13 -1.55411e-14 1.37662e-14)
(-5.64306e-12 -1.11665e-12 8.84271e-13)
(-2.43952e-10 -5.07795e-11 3.98935e-11)
(-9.40932e-09 -2.25809e-09 1.73973e-09)
(-2.93306e-07 -9.39449e-08 7.01398e-08)
(-2.79159e-05 -1.00014e-05 1.02408e-05)
(0 0 0)
(3.85275e-17 0 0)
(-1.18408e-14 -1.54676e-16 1.00539e-15)
(-7.87585e-13 -1.18922e-13 1.36966e-13)
(-3.46039e-11 -6.00559e-12 6.80846e-12)
(-1.49137e-09 -2.67864e-10 3.13901e-10)
(-7.29729e-08 -1.31898e-08 1.5699e-08)
(-2.84056e-06 -6.28096e-07 7.75873e-07)
(0 0 0)
(5.85384e-16 0 0)
(-7.11262e-14 -4.06213e-15 7.65646e-15)
(-3.56748e-12 -4.34297e-13 6.18549e-13)
(-1.61418e-10 -1.99494e-11 2.72515e-11)
(-6.92031e-09 -8.86877e-10 1.21298e-09)
(-2.42105e-07 -3.48451e-08 5.14191e-08)
(-4.59262e-05 -4.6802e-06 1.1651e-05)
(0 -8.10781e-28 -3.09304e-18)
(6.63894e-15 -6.3406e-26 -8.50204e-17)
(0 0 0)
(2.86747e-21 0 0)
(-7.74713e-23 0 0)
(-2.69715e-17 0 0)
(-3.52098e-14 -6.31758e-15 6.49639e-15)
(-1.69417e-12 -5.33378e-13 4.90212e-13)
(-6.86575e-11 -2.40383e-11 2.23382e-11)
(-2.49041e-09 -1.0036e-09 9.40615e-10)
(-8.25551e-08 -3.99074e-08 3.81209e-08)
(0 0 0)
(7.75881e-20 0 0)
(-2.95376e-20 0 0)
(-5.86186e-15 0 6.96042e-16)
(-4.37074e-13 -8.43746e-14 1.08428e-13)
(-1.93741e-11 -4.23235e-12 5.48753e-12)
(-7.7597e-10 -1.90463e-10 2.4796e-10)
(-2.76488e-08 -8.57493e-09 1.05894e-08)
(-8.66103e-07 -3.57284e-07 4.4285e-07)
(0 0 0)
(1.68253e-18 0 0)
(-1.00147e-17 0 0)
(-6.12662e-14 -4.46498e-15 1.23741e-14)
(-2.98932e-12 -5.03724e-13 7.68541e-13)
(-1.31487e-10 -2.30959e-11 3.53145e-11)
(-6.06807e-09 -1.08429e-09 1.74422e-09)
(-2.7882e-07 -5.54737e-08 1.01649e-07)
(0 0 0)
(2.72958e-17 0 0)
(-2.5126e-15 0 2.32014e-16)
(-2.74309e-13 -2.53818e-14 6.55053e-14)
(-1.29584e-11 -1.61289e-12 3.4694e-12)
(-5.62805e-10 -7.23049e-11 1.63721e-10)
(-2.15616e-08 -2.99299e-09 7.48297e-09)
(-6.40411e-07 -9.64235e-08 2.89495e-07)
(0 -8.78908e-26 3.39689e-22)
(2.97879e-16 -1.25242e-23 4.17281e-20)
(-5.98962e-15 -1.51209e-21 1.007e-15)
(-5.40697e-13 -5.87807e-15 1.36507e-13)
(-2.46468e-11 -3.09122e-13 6.80006e-12)
(-1.03448e-09 -1.07961e-11 3.10237e-10)
(-3.76629e-08 -2.19701e-10 1.33131e-08)
(-1.08585e-06 2.58569e-09 4.84099e-07)
(0 0 0)
(-1.64014e-24 0 0)
(0 0 0)
(-7.84775e-22 0 0)
(-8.46287e-17 0 0)
(-6.6873e-14 -1.67845e-14 2.80737e-14)
(-2.76812e-12 -1.0012e-12 1.45833e-12)
(-9.48096e-11 -3.93254e-11 5.91166e-11)
(-2.75005e-09 -1.36704e-09 2.13004e-09)
(-6.47215e-08 -4.1252e-08 6.78408e-08)
(0 0 0)
(-5.12396e-23 0 0)
(0 0 0)
(-6.36288e-19 0 0)
(-1.49356e-14 -1.08063e-15 5.33632e-15)
(-8.23351e-13 -1.85603e-13 3.78183e-13)
(-3.17943e-11 -8.15527e-12 1.68622e-11)
(-1.06774e-09 -3.25475e-10 6.78572e-10)
(-2.97946e-08 -1.21004e-08 2.40607e-08)
(-6.52841e-07 -3.50203e-07 7.05357e-07)
(0 0 0)
(-1.42138e-21 0 0)
(0 0 0)
(-5.16471e-16 0 7.7338e-17)
(-1.35101e-13 -1.66258e-14 5.54513e-14)
(-5.79721e-12 -1.09402e-12 2.63002e-12)
(-2.29607e-10 -4.48584e-11 1.17499e-10)
(-9.05064e-09 -1.86564e-09 5.57376e-09)
(0 0 0)
(-3.6164e-20 0 0)
(0 0 0)
(-9.52191e-15 0 2.08813e-15)
(-5.72195e-13 -6.658e-14 2.3998e-13)
(-2.39574e-11 -3.15538e-12 1.13633e-11)
(-8.98795e-10 -1.28856e-10 4.97415e-10)
(-2.78556e-08 -4.55078e-09 1.90197e-08)
(0 -5.85368e-23 0)
(-3.14068e-19 -4.01714e-21 0)
(0 -4.09125e-19 0)
(-1.90825e-14 -6.79165e-17 7.11509e-15)
(-1.08225e-12 -9.08518e-15 4.72614e-13)
(-4.47123e-11 -3.39251e-13 2.14829e-11)
(-1.65294e-09 -8.81851e-12 9.12498e-10)
(-5.07613e-08 -5.01341e-11 3.37263e-08)
(0 0 0)
(-4.06135e-26 0 0)
(0 0 0)
(0 0 0)
(-5.40831e-21 0 0)
(-1.40515e-16 0 0)
(-7.80009e-14 -2.50857e-14 5.48326e-14)
(-2.72609e-12 -1.15424e-12 2.25787e-12)
(-7.36501e-11 -3.71427e-11 7.56306e-11)
(-1.48978e-09 -9.63728e-10 2.0679e-09)
(0 0 0)
(-1.54221e-24 0 0)
(0 0 0)
(0 0 0)
(-3.05835e-18 0 0)
(-2.21014e-14 -2.15986e-15 1.27608e-14)
(-9.56095e-13 -2.53466e-13 6.80596e-13)
(-3.046e-11 -9.37766e-12 2.59303e-11)
(-7.81751e-10 -3.01986e-10 8.43276e-10)
(-1.41705e-08 -7.85069e-09 2.12563e-08)
(0 0 0)
(-4.87491e-23 0 0)
(0 0 0)
(0 0 0)
(-1.17765e-15 0 7.7338e-16)
(-1.82603e-13 -2.64624e-14 1.14383e-13)
(-6.73833e-12 -1.44616e-12 4.81132e-12)
(-2.1899e-10 -5.11022e-11 1.88423e-10)
(0 0 0)
(-1.1837e-21 0 0)
(0 0 0)
(0 0 0)
(-1.46466e-14 0 7.34711e-15)
(-7.45063e-13 -9.82382e-14 4.75319e-13)
(-2.66409e-11 -3.94578e-12 1.97994e-11)
(-8.0319e-10 -1.36182e-10 7.28726e-10)
(0 -2.7001e-25 0)
(-1.72063e-20 -2.23448e-23 0)
(0 -1.67187e-21 0)
(0 -2.82781e-19 0)
(-2.87666e-14 -4.48835e-17 1.80971e-14)
(-1.38308e-12 -6.59986e-15 9.00318e-13)
(-4.89888e-11 -2.73967e-13 3.68623e-11)
(-1.47137e-09 -5.04228e-12 1.34197e-09)
(0 0 0)
(0 0 0)
(0 0 0)
(0 0 0)
(0 0 0)
(-3.14613e-21 0 0)
(-1.20655e-16 0 7.7338e-17)
(-5.97315e-14 -2.21648e-14 6.31078e-14)
(-1.70842e-12 -8.69303e-13 2.12339e-12)
(-3.30325e-11 -2.13923e-11 5.48019e-11)
(0 0 0)
(0 0 0)
(0 0 0)
(0 0 0)
(0 0 0)
(-2.21719e-18 0 0)
(-1.93345e-14 -2.62319e-15 1.86385e-14)
(-7.31855e-13 -2.25359e-13 7.54211e-13)
(-1.80848e-11 -6.90834e-12 2.34856e-11)
(-3.15869e-10 -1.61547e-10 5.629e-10)
(0 0 0)
(0 0 0)
(0 0 0)
(0 0 0)
(0 0 0)
(-1.33489e-15 0 1.6241e-15)
(-1.65226e-13 -2.70724e-14 1.50268e-13)
(-5.0703e-12 -1.29494e-12 5.33776e-12)
(0 0 0)
(0 0 0)
(0 0 0)
(0 0 0)
(0 0 0)
(-1.47957e-14 0 1.1678e-14)