/*--------------------------------*- C++ -*----------------------------------*\
  =========                 |
  \\      /  F ield         | OpenFOAM: The Open Source CFD Toolbox
   \\    /   O peration     | Website:  https://openfoam.org
    \\  /    A nd           | Version:  9
     \\/     M anipulation  |
\*---------------------------------------------------------------------------*/
FoamFile
{
    format      ascii;
    class       volScalarField;
    location    "0.00195";
    object      overpressureMax;
}
// * * * * * * * * * * * * * * * * * * * * * * * * * * * * * * * * * * * * * //

dimensions      [1 -1 -2 0 0 0 0];

internalField   nonuniform List<scalar> 
16800
(
336570
224282
331225
355853
30716.6
158270
2876.98
12194.1
345554
353965
364618
327163
320209
318610
306622
325283
346421
336559
279289
308197
279269
228448
318482
334808
342779
260826
301244
273587
208030
281344
97363.2
254058
87888.9
247996
200964
39151.4
429115
1.14458e+06
1.3895e+06
855059
726761
556254
1.85943e+06
1.12593e+06
577841
456021
1.3878e+06
1.21504e+06
1.44987e+06
1.29085e+06
1.14885e+06
1.64231e+06
1.41666e+06
1.01225e+06
698089
722842
1.08479e+06
1.07463e+06
712778
753235
653869
458079
639689
611973
578806
620607
435858
1.77753e+06
1.81004e+06
1.73899e+06
1.68066e+06
1.62656e+06
1.59123e+06
1.64334e+06
1.58799e+06
1.24491e+06
1.12285e+06
1.43489e+06
1.27908e+06
1.09485e+06
1.02461e+06
1.45813e+06
1.6111e+06
1.63819e+06
1.38848e+06
1.52277e+06
1.49569e+06
1.37297e+06
1.69298e+06
1.69736e+06
1.75634e+06
1.54853e+06
1.55039e+06
1.5001e+06
1.59996e+06
991748
1.25285e+06
1.23835e+06
1.22639e+06
1.01389e+06
1.03331e+06
1.22887e+06
815138
814968
733510
689231
810910
828552
687163
1.10718e+06
1.06313e+06
772728
831452
1.20787e+06
982991
788838
1.5254e+06
1.34548e+06
1.48142e+06
1.44926e+06
1.36197e+06
1.31685e+06
1.49442e+06
677447
673871
694261
630661
600300
621785
587479
376675
626124
510153
527932
641854
440266
386626
1.43616e+06
1.5429e+06
1.57858e+06
1.46457e+06
1.32753e+06
1.43008e+06
1.35249e+06
595391
645058
431538
494720
681549
698976
443492
1.04082e+06
1.27534e+06
1.26713e+06
1.0556e+06
1.22125e+06
1.07499e+06
1.22804e+06
1.63672e+06
1.57248e+06
1.52741e+06
1.49521e+06
1.44665e+06
1.39003e+06
1.43591e+06
1.29454e+06
1.30446e+06
1.40885e+06
1.38323e+06
1.1958e+06
1.26969e+06
1.28633e+06
1.40927e+06
1.3295e+06
1.24242e+06
1.41447e+06
1.36428e+06
1.28155e+06
1.45813e+06
714764
859648
829332
853941
711882
884739
693081
424417
356383
372461
616100
502397
576393
472389
1.07271e+06
1.36339e+06
1.23594e+06
893039
1.04347e+06
856932
985648
1.50405e+06
1.35619e+06
1.45994e+06
1.29716e+06
1.39002e+06
1.34514e+06
1.26419e+06
1.18428e+06
1.0108e+06
1.02556e+06
1.0368e+06
1.11607e+06
1.0107e+06
1.17869e+06
646107
632643
660075
612691
615286
574859
563728
1.35191e+06
1.17358e+06
1.20569e+06
1.23623e+06
1.31705e+06
1.23996e+06
1.26283e+06
854330
676624
836871
854464
713023
867254
688842
622159
640545
659424
567808
584063
569307
553140
1.50502e+06
1.39332e+06
1.46183e+06
1.33231e+06
1.31333e+06
1.2734e+06
1.37543e+06
1.19954e+06
1.36477e+06
1.31673e+06
1.26653e+06
1.19685e+06
1.15548e+06
1.31147e+06
1.27247e+06
1.25895e+06
1.12582e+06
1.20734e+06
1.08633e+06
1.18687e+06
1.08546e+06
900541
757662
940597
742396
916754
942924
777648
590729
513744
547037
585964
589429
540248
512201
1.04519e+06
1.10223e+06
1.15567e+06
1.00244e+06
1.04797e+06
1.00825e+06
1.16975e+06
1.3196e+06
1.35419e+06
1.4102e+06
1.29687e+06
1.1921e+06
1.24386e+06
1.22959e+06
647967
607795
569070
564520
602168
534812
539363
875854
732514
889735
735068
897365
880364
708818
594457
617247
600956
553168
519766
536883
536688
1.16935e+06
1.20714e+06
1.27691e+06
1.23475e+06
1.09348e+06
1.12986e+06
1.17743e+06
634454
551598
587401
558561
595365
529118
522537
1.21565e+06
1.14553e+06
1.20027e+06
1.06366e+06
1.11004e+06
1.16315e+06
1.25641e+06
639251
639502
617903
583072
556506
636512
554699
1.324e+06
1.29054e+06
1.25377e+06
1.24917e+06
1.21218e+06
1.15118e+06
1.18438e+06
837688
1.03478e+06
1.17136e+06
844143
952053
729166
780844
600576
604430
592677
535247
523236
532593
514648
604326
543827
578393
567633
534754
515143
506587
478722
506799
523529
513197
450397
473263
495637
1.18817e+06
1.06093e+06
1.10731e+06
1.04292e+06
1.08712e+06
1.13943e+06
1.1443e+06
1.23698e+06
1.11483e+06
1.12787e+06
1.13004e+06
1.16119e+06
1.07435e+06
1.05513e+06
1.29247e+06
1.18693e+06
1.22688e+06
1.15007e+06
1.1866e+06
1.12703e+06
1.1027e+06
572095
533968
552064
502909
522577
512208
487019
1.13658e+06
991876
1.04424e+06
1.03865e+06
1.11277e+06
1.03385e+06
976796
796666
988545
972551
955834
830958
954950
808794
1.113e+06
1.21825e+06
1.18283e+06
1.08942e+06
1.05392e+06
1.02822e+06
1.11877e+06
893062
763984
915906
924312
786496
890822
789913
590907
512829
541856
555444
524317
497032
486248
503054
442662
471936
467781
494391
469313
483656
523068
567849
562465
504046
477326
473070
508608
654422
580414
577350
695593
665274
562262
579812
1.14236e+06
1.01678e+06
1.10994e+06
1.05665e+06
993271
969825
1.08472e+06
486163
433461
491517
469522
412635
416841
464214
548636
517108
556033
498708
462336
468082
492563
437141
500180
496223
474112
423529
477951
420436
625043
538032
535633
668672
653086
547388
559068
1.09031e+06
1.13192e+06
1.15801e+06
1.06701e+06
997104
1.00838e+06
1.05152e+06
1.06634e+06
997855
1.08734e+06
1.03568e+06
944163
952819
1.02168e+06
1.0922e+06
1.12967e+06
1.09441e+06
1.06264e+06
1.03069e+06
1.05576e+06
1.0003e+06
1.01175e+06
1.05453e+06
1.08524e+06
1.01678e+06
934213
957339
994946
479987
418933
472910
407968
458175
451390
402620
540241
493469
530509
455896
485709
477829
448639
512942
526434
536651
506089
464485
506617
473493
986391
862165
839106
972044
944090
926003
834709
1.00257e+06
969963
942583
876890
923324
949292
1.02703e+06
923140
791067
815548
869375
882553
913972
808381
460883
470484
488510
486563
430525
478953
452016
481375
442615
459966
444522
664118
643253
770081
715487
455674
490394
421241
472591
439700
653566
635767
695156
609838
745896
773620
750160
656649
653817
636892
640358
755889
730800
763667
739141
648810
631560
625313
744514
718986
729881
704452
626041
617583
607564
413278
675960
602434
607333
459177
528782
427327
720946
680545
686478
616142
596692
591987
620551
699648
708383
673116
610524
579346
586110
604073
488144
564183
561710
549426
480789
478213
552348
712988
670011
687731
601741
614595
595940
582939
553678
484908
557910
545121
470912
474676
540365
688554
640619
674315
571105
595939
586089
561527
477341
548472
541839
466536
534665
527696
461399
650772
655052
587739
630073
571899
568826
552930
641179
625743
658266
574553
538233
561813
550498
466760
524692
533931
519467
448382
455380
510071
534262
452427
520076
469190
516408
466323
537732
529708
458475
506201
448705
511680
462640
524368
453762
500125
518442
511253
434253
448495
492914
631952
582856
607371
535819
554630
535851
517119
622653
572749
592122
524803
547710
532388
509910
501878
513913
451967
440192
499200
487168
430898
502994
435437
428136
475427
442422
493502
484685
475898
497124
556385
551435
580090
515367
493544
409053
420521
473674
432117
488451
473697
420539
427254
465215
482948
470998
404374
453615
418139
406025
464927
412811
443884
390120
396622
435407
483456
506953
519347
468983
431302
459016
440405
1.08377e+06
985414
1.02655e+06
969016
1.01392e+06
965270
926842
450627
383745
429822
405561
426402
454215
402543
687797
703406
681281
567603
602401
582148
591867
983807
925102
863896
900621
908337
933072
973753
1.02102e+06
908065
968919
918650
985288
938960
879269
446260
395044
417663
380461
422321
399046
441203
383885
394576
440957
396812
407901
443660
457919
491250
434376
447130
512497
493747
503400
446850
390474
412329
435564
429202
367660
385366
406446
854270
919522
949164
901769
803399
872191
822482
905826
882795
946753
905934
816416
848748
870252
812491
851817
898847
878402
768088
829800
802868
704358
709208
559881
725772
580752
728107
923511
981022
1.02111e+06
917544
1.01225e+06
908915
914846
830145
837864
998958
889516
882282
897456
904106
819833
807024
813217
733457
821500
751250
685447
678271
759033
735152
828246
820269
752389
682084
759536
675278
789196
716354
802876
742091
659151
669589
730597
719424
798520
810629
743348
658050
667299
732261
688215
575021
633904
630821
627262
695077
624498
679700
610114
608292
568071
619447
616944
669591
1.05176e+06
822390
471700
475949
1.11913e+06
927760
887790
1.15776e+06
1.08512e+06
1.43453e+06
1.29635e+06
1.39395e+06
1.32334e+06
1.34076e+06
1.30208e+06
1.28455e+06
1.20482e+06
1.24068e+06
1.01412e+06
874097
751114
846024
1.05065e+06
1.23015e+06
895172
602707
428513
512948
396699
420558
484728
460347
1.35932e+06
1.21386e+06
1.22914e+06
1.27288e+06
1.25685e+06
1.17929e+06
1.15116e+06
733462
492397
690976
481892
653412
740644
489726
1.08971e+06
1.2185e+06
1.18308e+06
1.11319e+06
1.05416e+06
1.02845e+06
1.14478e+06
1.12576e+06
1.24776e+06
1.21289e+06
1.12581e+06
1.07741e+06
1.04929e+06
1.15783e+06
1.14601e+06
1.15631e+06
1.17099e+06
1.10157e+06
1.0879e+06
1.10251e+06
1.04431e+06
1.06728e+06
1.13211e+06
1.15823e+06
1.09048e+06
997283
1.07284e+06
1.00858e+06
1.10203e+06
1.15734e+06
1.18687e+06
1.10207e+06
1.01794e+06
1.08517e+06
1.02903e+06
573224
570179
545158
544149
518331
522433
497506
1.03558e+06
881390
892859
1.00696e+06
994493
964839
868573
1.04464e+06
990724
909356
1.00007e+06
977210
967945
1.07133e+06
619435
749918
758532
632073
625850
759246
642763
818362
881731
725746
803726
712772
537407
693536
784515
722589
989603
1.1023e+06
763446
847461
749375
1.03545e+06
887889
723609
1.16083e+06
1.14075e+06
1.01646e+06
1.08891e+06
1.00108e+06
967403
957385
1.04556e+06
983413
1.03682e+06
873106
918608
911633
865518
1.09849e+06
998510
1.05446e+06
923294
971904
932988
890655
780466
765632
875018
753771
850693
839690
738759
926756
829564
934244
879769
869790
789484
771723
816916
958548
915761
854747
958143
1.00738e+06
890698
678701
701102
776256
708800
725512
811891
801814
701455
791147
724294
749192
818885
853738
821109
727426
733894
549167
567461
700539
495587
555576
777756
907260
870556
822817
853599
758889
737043
651315
680751
744705
669526
718372
691229
628643
829185
758484
812709
730522
754757
728468
690270
727459
648294
665463
694979
675586
759909
785525
806211
805971
820927
753701
757192
743976
701180
693841
619861
635952
676524
591467
659625
607638
773725
743890
798958
714285
653215
670682
695385
1.37329e+06
1.6034e+06
1.72064e+06
1.88421e+06
1.15365e+06
1.25901e+06
1.08063e+06
1.28248e+06
1.80629e+06
1.90355e+06
2.00503e+06
1.66164e+06
1.7521e+06
1.67225e+06
1.59729e+06
1.65212e+06
1.45933e+06
1.71044e+06
1.78355e+06
1.56485e+06
1.4285e+06
1.51842e+06
1.6571e+06
1.49272e+06
1.54658e+06
1.40799e+06
1.54731e+06
1.49004e+06
1.3579e+06
1.44366e+06
1.32737e+06
1.52302e+06
1.29733e+06
1.47446e+06
1.40641e+06
1.23713e+06
1.5049e+06
1.58825e+06
1.43793e+06
1.35663e+06
1.25225e+06
1.42839e+06
1.30826e+06
1.12478e+06
1.19258e+06
1.36457e+06
1.11611e+06
1.26537e+06
1.3382e+06
1.17776e+06
1.27802e+06
1.2378e+06
1.38871e+06
1.33289e+06
1.11228e+06
1.18771e+06
1.23358e+06
1.02148e+06
1.21415e+06
1.13438e+06
1.27554e+06
1.06853e+06
1.13486e+06
1.1853e+06
2.25908e+06
946543
1.16916e+06
1.22722e+06
1.32023e+06
944519
936081
689159
875670
747376
1.05649e+06
2.00308e+06
1.89134e+06
1.5663e+06
1.56709e+06
1.37238e+06
2.03558e+06
1.67137e+06
1.10639e+06
1.0889e+06
743136
820644
1.28656e+06
1.49622e+06
848698
1.36359e+06
1.18869e+06
1.26097e+06
1.2199e+06
1.15344e+06
1.11369e+06
1.07986e+06
901923
901085
665992
959490
721701
881812
688778
1.27621e+06
1.13156e+06
1.07718e+06
1.17773e+06
1.11676e+06
1.04397e+06
1.00611e+06
2.44665e+06
2.29802e+06
2.17411e+06
2.18504e+06
2.07009e+06
1.98765e+06
2.07418e+06
839330
1.02482e+06
855270
996723
971862
944742
818912
1.15764e+06
1.02215e+06
1.12003e+06
952453
1.03424e+06
1.00232e+06
923645
1.70277e+06
1.72106e+06
1.96611e+06
1.64202e+06
1.87535e+06
1.83207e+06
1.64056e+06
1.36215e+06
1.42946e+06
1.1356e+06
1.36304e+06
1.08018e+06
1.13715e+06
1.41673e+06
992935
903208
975324
855050
924618
925354
830088
1.08008e+06
1.03225e+06
1.1052e+06
1.02255e+06
981378
963932
917680
2.16296e+06
1.9681e+06
2.07098e+06
1.90346e+06
1.8659e+06
1.81386e+06
1.96777e+06
2.30433e+06
1.02216e+06
2.01678e+06
2.97722e+06
2.01337e+06
1.86366e+06
1.49876e+06
2.07752e+06
1.7508e+06
1.1061e+06
1.2863e+06
1.11703e+06
1.30578e+06
747571
1.22614e+06
867583
1.16554e+06
1.31571e+06
1.21378e+06
1.24162e+06
1.11265e+06
1.0746e+06
1.23011e+06
2.0161e+06
1.57025e+06
1.56474e+06
1.54251e+06
1.93535e+06
1.92439e+06
1.55541e+06
2.86198e+06
2.3558e+06
2.38951e+06
2.63741e+06
2.22753e+06
2.20126e+06
2.53556e+06
1.10619e+06
1.17911e+06
1.17017e+06
1.03055e+06
1.05229e+06
1.00177e+06
977200
2.59366e+06
2.734e+06
2.32928e+06
2.17588e+06
2.30318e+06
2.1383e+06
2.42328e+06
1.65985e+06
2.01434e+06
1.605e+06
1.9163e+06
1.62224e+06
1.90238e+06
1.58982e+06
1.30288e+06
1.27593e+06
1.12972e+06
1.04789e+06
1.30129e+06
1.04841e+06
1.25124e+06
995274
1.04786e+06
1.06285e+06
961212
888197
937353
928712
2.34131e+06
1.94439e+06
2.08809e+06
2.06057e+06
2.00856e+06
1.90001e+06
2.25292e+06
1.84891e+06
1.50713e+06
1.53462e+06
1.83163e+06
1.50786e+06
1.72543e+06
1.54398e+06
1.21464e+06
983235
1.02837e+06
1.00787e+06
1.24633e+06
990684
1.22933e+06
945960
907749
807431
912553
783244
850480
868948
2.01836e+06
2.06045e+06
1.79167e+06
1.93595e+06
1.95806e+06
1.84701e+06
2.15679e+06
1.81068e+06
1.56947e+06
1.66055e+06
1.50738e+06
1.78245e+06
1.69607e+06
1.5585e+06
1.00769e+06
1.31027e+06
1.05695e+06
1.27549e+06
1.03726e+06
1.01613e+06
1.26241e+06
889459
804414
847037
760575
876844
839367
832674
984660
1.03744e+06
1.08002e+06
968726
858022
932704
891587
807651
831998
967088
915350
771856
884754
795928
1.73317e+06
1.97092e+06
1.79179e+06
1.82154e+06
1.72034e+06
1.66994e+06
1.88352e+06
796016
848760
912193
887275
729944
825700
776179
1.48066e+06
1.74624e+06
1.62022e+06
1.69954e+06
1.45266e+06
1.54836e+06
1.57697e+06
1.70981e+06
1.83334e+06
1.90873e+06
1.77481e+06
1.57314e+06
1.70848e+06
1.61536e+06
1.10363e+06
1.35502e+06
1.32518e+06
1.14498e+06
1.32675e+06
1.38283e+06
1.14551e+06
1.48044e+06
1.2396e+06
1.18894e+06
1.19446e+06
1.43738e+06
1.44366e+06
1.23897e+06
1.74874e+06
1.64595e+06
1.52648e+06
1.71197e+06
1.66873e+06
1.60281e+06
1.79778e+06
786961
881095
878747
911453
751783
779284
925573
869270
989722
969966
951785
815788
997783
816513
990222
822774
855602
938855
893708
851985
784932
781634
746049
752963
862397
851225
814593
718156
1.03497e+06
867159
890860
959549
925988
867219
813250
2.1526e+06
1.8436e+06
1.77584e+06
2.10394e+06
1.18934e+06
1.393e+06
1.6793e+06
1.24796e+06
2.12503e+06
2.03429e+06
2.00776e+06
1.92516e+06
1.89903e+06
1.81088e+06
1.83334e+06
2.07045e+06
1.94587e+06
1.98188e+06
1.82267e+06
1.86791e+06
1.7807e+06
1.73696e+06
1.65436e+06
1.86666e+06
1.67272e+06
1.67149e+06
1.53026e+06
1.51238e+06
1.69163e+06
1.70323e+06
1.47327e+06
1.4928e+06
1.61789e+06
1.44293e+06
1.42547e+06
1.63808e+06
1.59356e+06
1.81381e+06
1.62899e+06
1.64083e+06
1.453e+06
1.48833e+06
1.60014e+06
1.59586e+06
1.64682e+06
1.44212e+06
1.58506e+06
1.35332e+06
1.39664e+06
1.53681e+06
1.5051e+06
1.38624e+06
1.23568e+06
1.35553e+06
1.34225e+06
1.37118e+06
1.52162e+06
1.47645e+06
1.31812e+06
1.28219e+06
1.2168e+06
1.3166e+06
1.34951e+06
1.43822e+06
1.40139e+06
1.45208e+06
892302
761472
1.08482e+06
912228
831583
1.10183e+06
1.46546e+06
1.26867e+06
1.35657e+06
1.34457e+06
1.25834e+06
1.1797e+06
1.18975e+06
1.43113e+06
1.21997e+06
1.29687e+06
1.32496e+06
1.24337e+06
1.16458e+06
1.14274e+06
876287
916686
881202
1.08316e+06
1.02817e+06
1.0772e+06
1.02201e+06
1.01236e+06
1.24324e+06
1.13082e+06
1.12013e+06
1.23161e+06
1.09318e+06
1.0043e+06
856037
903683
867665
1.04875e+06
1.06551e+06
1.01055e+06
994461
1.19017e+06
1.10555e+06
1.21458e+06
1.07971e+06
975605
992118
1.06052e+06
837942
965907
781410
788281
898461
958172
890702
811459
822776
772472
947538
867446
880913
932500
859595
772875
731688
710280
830264
800130
754786
1.64697e+06
1.41551e+06
1.4685e+06
1.47182e+06
1.5867e+06
1.51618e+06
1.52676e+06
959992
780800
1.00595e+06
808362
1.00629e+06
783317
971380
1.19098e+06
1.31183e+06
1.17039e+06
1.36427e+06
1.38426e+06
1.21447e+06
1.16908e+06
743446
707193
798501
764305
640929
712387
680451
819962
687515
774737
774783
655155
732609
687556
806049
820951
753731
806308
701229
744092
757229
700701
665984
676456
661075
600964
637545
610743
651476
688743
620730
613736
678910
643563
585204
689220
627627
666262
627585
684272
646479
593898
759899
706299
648403
656301
700544
656283
611162
620764
585269
643627
727510
613846
679027
651558
641022
563664
560686
590492
608538
624810
581287
1.24057e+06
855786
489726
665371
669549
696707
550773
772653
694725
644869
514188
834524
1.15107e+06
1.4872e+06
1.32466e+06
1.54998e+06
1.91197e+06
1.37853e+06
1.61326e+06
925804
861040
956277
869051
843837
789826
768560
868625
1.10244e+06
1.2512e+06
1.30318e+06
1.47443e+06
890879
840727
738940
623539
498726
444431
570174
689238
549244
1.85787e+06
1.76201e+06
1.78977e+06
1.71696e+06
1.74458e+06
1.61422e+06
1.65468e+06
581503
700131
642844
727254
751104
536892
671271
855833
804484
892209
786175
815729
744596
718063
1.7501e+06
1.5154e+06
1.54038e+06
1.63421e+06
1.65902e+06
1.5501e+06
1.44904e+06
748163
688636
770791
646151
715678
697287
630318
782362
681396
762253
646716
718248
701212
633195
1.44629e+06
1.61936e+06
1.57882e+06
1.48523e+06
1.40522e+06
1.36561e+06
1.52739e+06
1.66929e+06
1.50765e+06
1.62605e+06
1.50763e+06
1.44405e+06
1.40265e+06
1.54996e+06
1.27423e+06
1.40662e+06
1.42942e+06
1.25329e+06
1.2756e+06
1.36018e+06
1.23757e+06
1.02742e+06
834470
850479
1.03979e+06
1.0592e+06
1.06583e+06
865503
817759
754470
777024
720645
703521
689873
659818
623852
647512
722521
676267
591944
652943
611957
715720
663939
739997
681733
600358
659931
617742
1.40329e+06
1.41798e+06
1.51728e+06
1.44108e+06
1.27193e+06
1.35884e+06
1.33221e+06
1.46108e+06
1.45969e+06
1.56259e+06
1.46105e+06
1.30532e+06
1.36829e+06
1.3785e+06
710271
716513
729780
671332
659186
715131
636973
1.39386e+06
1.2047e+06
1.32317e+06
1.34071e+06
1.30203e+06
1.2844e+06
1.43445e+06
599333
597868
657118
642374
539977
586202
585921
1.15323e+06
1.33044e+06
1.2096e+06
1.20663e+06
1.28416e+06
1.18401e+06
1.12435e+06
1.37049e+06
1.20059e+06
1.24674e+06
1.23892e+06
1.30317e+06
1.20059e+06
1.15445e+06
733953
646530
684384
627633
666302
627679
593943
690367
621735
641533
611028
629938
595790
571854
1.02132e+06
846058
1.0401e+06
1.04951e+06
878186
877757
1.01468e+06
598490
572253
634819
569972
627976
601505
546754
1.35923e+06
1.17918e+06
1.21375e+06
1.2291e+06
1.27284e+06
1.29627e+06
1.2567e+06
1.0664e+06
873242
1.07578e+06
1.06645e+06
902072
1.04272e+06
890927
689212
600452
660743
580992
636324
610812
559872
698291
599241
622057
728175
717043
615528
608689
721410
624860
642011
745198
727276
624837
623653
625508
527790
554641
556758
606193
571215
572271
575478
537168
513380
583566
630366
598706
554931
525029
550135
597831
643299
588591
607102
559570
588671
555546
525206
569544
607095
648566
607069
1.15622e+06
1.17096e+06
1.23011e+06
1.14602e+06
1.04427e+06
1.10155e+06
1.08787e+06
536154
539387
585220
562645
481889
520546
516072
602732
518321
545175
573311
497543
544191
522507
598777
575601
630487
583687
513471
555005
537289
557984
545778
513944
561078
496218
528930
537896
576469
569440
600650
569414
509018
551326
536877
1.03562e+06
881502
964852
892896
1.00697e+06
895247
994532
1.0241e+06
942511
895073
951787
1.01228e+06
959611
950960
1.08392e+06
965367
1.02661e+06
969167
1.03489e+06
985486
926944
995980
1.10873e+06
1.04625e+06
988768
1.04629e+06
996003
945234
632098
759325
758575
750041
740724
619450
625928
478295
499916
538303
463621
494698
472603
444351
434996
495026
452788
438058
474083
455216
418890
506706
514259
537594
469540
492721
472171
448090
506006
543870
548177
484513
538152
545727
479687
463329
525555
488656
521960
494214
532113
565862
479693
545759
543876
548162
484505
505987
538155
538423
463731
472672
478376
513020
500036
494807
901778
854174
949144
919521
803344
837639
872214
873482
970233
929179
929178
817708
846008
889123
922513
931152
983579
940701
844478
894664
886354
747642
638827
634961
725081
745901
648036
643228
646045
753080
763281
737177
753046
653377
652394
422084
373423
362282
392445
379749
414148
399744
433143
486758
456019
449856
404216
426999
424532
426761
440149
455262
435053
391927
416909
404231
453676
395516
416370
434812
381258
411788
400551
853302
766859
777006
750540
804502
824144
787582
546531
473069
539075
553011
482533
477967
559271
884548
779000
802668
785583
813880
846236
838452
481536
557120
548212
557094
488159
481527
565867
627864
478005
538716
559926
647314
448550
513770
532633
392566
464775
405465
598272
441038
505477
386904
473064
365316
415504
638672
593331
602808
559393
568867
541763
533276
653817
617336
610773
582486
576423
548845
554463
614510
581966
547920
568069
534595
523237
511523
459379
356771
407488
411870
474072
397856
347017
481571
711988
745996
687501
701062
558736
457093
579656
535173
552273
503229
519412
498169
483699
527501
576195
569931
516762
487234
522191
482324
499368
455089
507437
486548
431847
438072
479116
554374
521139
562778
510347
470201
476739
503003
460325
519109
513983
492774
447557
443154
497868
516774
516424
486315
496638
469211
468122
451710
489973
432748
479054
424698
470705
460833
416746
544989
496154
533541
462993
494506
484475
454554
497097
471493
365866
396796
429832
480166
381163
397386
556356
528723
515308
551339
580015
493458
475844
485330
505692
520436
473021
434189
460440
444951
424164
454754
467170
449807
398845
437966
407953
594119
735815
719334
615159
603260
733029
624760
467827
444671
401774
427772
423602
472662
440461
462340
413224
429846
397529
418872
435558
455776
495034
455247
476002
438045
452789
435034
418914
522927
474114
527724
460830
515329
530298
463644
430506
446275
490893
500197
521446
470282
453469
383853
394531
407869
443635
457873
440884
427280
437413
457108
504881
477543
531123
504854
457085
406766
423312
448215
439650
380468
399505
415945
489542
444672
472263
422269
446659
432009
409461
442288
400888
430178
389854
425562
412852
381068
352577
385305
427022
407815
537577
459676
567468
412261
522004
607125
597830
643299
588581
559589
550126
525036
405077
431317
429654
130910
342441
419580
429800
491358
482194
514041
528563
554299
514036
491360
494235
532128
565900
488714
525595
495612
463360
492700
472185
514276
469516
506689
484732
448094
429871
373274
398116
382648
419183
391414
407544
747813
648136
635087
725186
733617
638980
643351
716254
616292
613342
696659
718155
628026
622136
404251
433177
424586
449900
456075
486801
460370
436749
426499
450221
431319
455399
479054
456791
437706
437717
465892
436780
465664
498520
465672
456790
455401
479063
450226
426495
436746
407810
455177
417104
396408
450990
413823
478036
435669
412856
372529
360562
384809
372513
428705
412834
434880
428626
453766
416437
381330
400602
395608
397364
412242
419507
400489
367917
373370
389260
404373
391924
356313
370393
380458
423129
410075
473085
553087
539153
546663
482609
559387
471766
453265
530751
520861
538849
471486
544592
464484
387937
373519
407832
395732
347845
364286
376971
1.21579e+06
1.28733e+06
1.06623e+06
921984
742572
1.05358e+06
968437
796687
1.30185e+06
1.26117e+06
1.24859e+06
1.13314e+06
1.1196e+06
1.08751e+06
1.09853e+06
1.2576e+06
1.18706e+06
1.22245e+06
1.05993e+06
1.09532e+06
1.06794e+06
1.03855e+06
1.1152e+06
991728
1.19883e+06
1.10483e+06
1.18658e+06
1.04474e+06
982653
978455
837400
845159
818530
825376
952376
944557
1.13736e+06
1.08878e+06
1.16682e+06
1.02756e+06
949890
969092
1.00394e+06
949116
805323
824085
789097
806599
928463
905845
803711
921892
766776
773914
877618
913780
869399
770490
841213
756480
785971
857652
900029
880761
575062
691092
465264
655909
714191
676877
583931
481274
732986
739085
719758
660719
655748
630198
634948
710053
704739
723367
640225
648717
622459
612300
697919
703935
683178
615190
603935
620585
598202
676254
667869
688919
607326
580190
590289
596953
608756
579912
604513
567408
529921
525907
571706
594433
576476
599425
561449
517083
521511
554346
547811
477120
536432
499851
495828
552583
531568
541274
484761
516544
471832
490700
524932
533156
710553
715841
733967
649824
626761
641865
637549
384043
434204
410343
364693
387684
409534
385297
428550
429660
438746
386140
393931
409677
393926
370870
385083
376905
351977
366591
415556
394484
673510
700798
712208
633379
613063
619732
629917
364706
387691
405089
384064
410360
409540
434215
423091
426093
430391
401561
384250
380767
390663
364440
378515
347856
330707
345728
359570
396086
357993
422254
287802
429865
280778
868082
824831
553572
309974
365290
291688
362836
370415
392478
298302
273108
282125
401345
303317
430185
405577
222126
374477
415109
384479
296073
266512
382798
190076
361619
365553
213217
353998
39184.6
428121
421885
419621
380303
378431
371019
372953
472676
488795
370411
251486
367145
381630
280684
425328
413549
416717
373356
376060
368634
365960
834508
703167
695634
1.0712e+06
1.01217e+06
844645
813980
418892
410021
405979
370464
367306
363010
359709
354027
465524
365448
91165.4
228873
438615
346630
398824
412293
409821
362742
355688
353744
364762
410695
396235
401501
359618
363708
356131
352016
1.04453e+06
1.00001e+06
990533
977157
967764
909244
927638
403582
395885
406880
360389
348685
351435
357691
729030
692240
728809
813901
983495
804478
705219
1.024e+06
951740
942379
959562
950801
894970
887693
302005
338502
336902
330471
297705
296394
332089
395791
388729
399910
345723
354725
351414
342341
484421
445956
451156
447105
442141
411754
415187
386720
345764
365622
10803
343613
342051
369675
332564
300303
334893
328509
292907
294797
326271
389980
399394
392116
354838
349123
347263
341644
479013
432286
436608
442286
437563
407680
402858
394544
390676
416915
424779
402950
11774.2
335838
853607
932366
913900
853560
812076
800528
868023
41600.3
427355
356766
345226
373009
333492
963.76
385793
379775
391117
347762
334607
338707
343654
330030
293663
327294
290806
323800
321028
288452
914410
831916
896818
846098
797876
787618
860246
457665
426293
430247
423085
419700
397457
391387
940652
931111
922385
894639
886271
874021
844423
611410
439741
617367
567717
734015
684248
557855
841073
892049
899090
841025
784302
790217
834459
875587
820338
882876
834110
771459
777521
827585
320817
290990
324229
318006
276800
284386
314668
323426
280315
317430
291694
315859
290403
325049
374607
374593
383804
335203
342572
335213
328030
448679
403959
406086
415058
412187
384649
377215
455197
451047
478084
417121
435711
413874
396440
321541
311873
286741
277526
314044
288901
319329
372614
368495
379680
329956
338904
333443
324664
440144
435065
455241
426766
404243
420571
391939
309457
283332
316888
314139
256964
306776
277852
364503
405076
401940
377457
347447
380350
345028
415210
378461
411666
382435
357013
354353
385421
709971
750229
759043
797404
752962
744498
808041
393859
361477
398197
374092
339051
342283
370088
776150
759449
802205
877937
848040
824791
802180
402354
374743
407368
378789
347365
351140
374506
884538
785589
779020
846226
838419
802642
751117
862607
782811
833431
763831
817982
795360
747535
316980
268141
312463
264490
310875
306451
245194
414883
394706
396041
384341
384969
368854
359524
389912
384180
559846
459846
365172
414302
453539
410139
541507
500009
526565
509460
485968
474420
461085
500276
470381
521561
471579
491018
446385
430584
435090
446180
398428
382825
426066
415743
374718
493058
445792
477386
421135
447847
435458
409775
442651
430574
460604
421853
383911
407321
397307
370438
380517
423214
404468
356367
391989
365931
741472
735922
690256
786837
730193
735853
780726
388895
349505
383384
335322
365564
360449
331061
396702
359868
390393
343070
369621
364210
338234
375171
342723
349827
358977
366545
405398
395697
311177
256622
300128
243160
303812
269368
307859
345577
355866
364643
327181
306648
318633
320217
649884
715860
710608
641893
637633
691006
626801
2784.5
432057
290048
146.379
1441.6
394266
1559.5
356161
282362
840.379
998.558
297934
86.2052
527.746
408376
408390
431937
397975
378509
378521
360438
391809
397302
423894
379933
404662
375631
354912
396721
376941
415596
366644
385119
370896
352011
426110
401569
430398
423136
419614
384272
380796
338843
344428
377206
354812
312989
325516
348577
247622
299727
307230
299736
163100
283369
213231
353630
375250
383286
358152
324773
351396
332866
765766
689412
720578
753966
805960
765752
720576
716464
674098
683928
723276
773113
756465
711186
378557
359599
396122
381180
347867
364467
330742
409193
366034
380437
411885
411455
375615
360210
237299
291378
304130
297171
143598
275068
205857
742393
748207
792576
759733
679746
718075
715166
401334
360883
386800
360469
373070
349374
336521
334062
354199
310899
350647
341411
373266
385001
370965
353610
365422
355292
338648
323066
383179
494878
564186
486471
564502
492472
561784
497502
564420
561736
497451
567688
494854
486429
564128
488580
477316
551582
483450
483479
551504
552405
332624
354394
318407
289080
341644
332155
246529
353470
275753
327731
332433
330166
356015
325429
329541
338963
366392
305640
343856
334889
268492
350434
317103
323588
266490
327471
322282
346821
294675
368575
346663
366358
346657
387161
368571
342530
379613
359784
358989
273930
342462
332699
365321
362234
384960
359090
276731
339304
334672
628669
668314
693574
643486
593371
668322
611426
273889
332662
358971
342510
359760
379597
365277
308527
316630
342657
338046
194811
294494
304638
657878
626423
655566
726319
653470
687275
686856
621456
602015
655967
635709
664020
608224
587563
371343
384815
427041
429850
363720
409200
281030
371643
347244
347979
323422
323240
302293
228557
409191
281042
363716
432042
371341
427017
384803
281367
87957.9
97387.2
201017
248047
254074
158313
349613
332660
288344
349624
199221
323679
288370
261957
324236
360613
347245
170149
280297
310962
417770
365895
410740
374467
211454
317624
346953
359717
341727
280580
350549
190612
296601
313837
292757
323804
286459
223565
47536.8
139771
126762
332898
235915
147459
250880
272002
324244
284560