/*--------------------------------*- C++ -*----------------------------------*\
  =========                 |
  \\      /  F ield         | OpenFOAM: The Open Source CFD Toolbox
   \\    /   O peration     | Website:  https://openfoam.org
    \\  /    A nd           | Version:  9
     \\/     M anipulation  |
\*---------------------------------------------------------------------------*/
FoamFile
{
    format      ascii;
    class       volScalarField;
    location    "0.00195";
    object      p;
}
// * * * * * * * * * * * * * * * * * * * * * * * * * * * * * * * * * * * * * //

dimensions      [1 -1 -2 0 0 0 0];

internalField   nonuniform List<scalar> 
16800
(
434832
325580
432297
392852
132015
259568
104175
113492
423189
397458
358505
417985
421198
419904
407920
426581
421880
434828
380587
409495
380567
329746
419780
434414
426658
362124
402542
374885
309328
382642
198661
355356
189187
349294
302262
140449
237919
248936
140875
246436
208971
241910
78865.2
187958
276358
235038
172439
176159
119780
199783
199948
112940
131998
156201
248333
201871
208471
162779
205082
265778
223238
286607
225578
232377
232971
298899
314088
89676
86689.3
95409.1
108990
113256
119432
116692
124766
211053
210916
175293
178254
251716
252871
115884
106012
102171
133447
120693
125609
138138
103122
109836
97098.1
127658
139249
137962
126806
155170
137880
135151
150493
168267
170516
154085
177796
178535
202379
215289
189777
191063
216450
168675
218786
274956
233062
187174
260527
319810
140688
167423
139149
146052
180124
174879
148500
217100
221650
216073
234385
241018
237094
244430
336795
162640
208367
200081
158463
228296
317561
124940
119051
111497
132078
152179
140549
144239
240207
310111
328915
284909
259760
360885
415901
158570
147577
141812
174118
165615
179422
159010
124591
140805
138405
153497
150192
163921
168642
166615
153322
142122
148028
182514
173321
158854
154892
189482
194239
169792
165462
183806
158341
202740
181470
178654
193759
222670
198074
218859
244044
415580
351166
166230
213698
183756
238964
250252
192688
194032
322308
267234
334004
270476
128592
151641
140114
161968
150960
163256
173474
168037
201379
183541
186950
193188
205925
172423
224580
226777
219958
246899
241227
249732
257187
155508
190448
191222
174890
164808
181540
166001
221432
230306
204103
206920
252682
225661
233077
221240
218024
223290
238338
242922
246879
242719
157910
169939
153618
178870
200117
194679
184133
205638
182602
177447
190797
223678
217893
196161
155059
164135
176267
173822
186260
183637
195012
186173
214725
192912
228008
204128
212113
235193
254115
290111
263686
282149
258294
268848
297122
191784
200007
185754
219817
198188
212007
178302
164098
168614
153540
177139
201276
192422
186616
157534
169412
176314
177525
170567
191016
189579
211173
258443
238830
242666
217033
231407
237136
235997
229750
226154
252752
257097
260873
248880
202377
185400
175798
188376
223322
214838
197522
159973
182572
175472
179408
172392
193232
196825
204967
237251
225716
246483
231422
219911
210396
230783
238447
253991
250466
266918
262880
279187
187057
210605
204749
216904
211097
228610
234617
308782
258115
201648
347987
279010
436780
342426
289619
271077
263895
276035
318296
285541
306416
170827
186744
179580
184769
191983
201546
207445
292310
260955
265599
271374
293619
299950
266710
202312
237271
226002
244173
228741
217454
211004
174747
198093
185969
208819
195280
206202
219632
185105
211154
202771
217343
208897
226624
235043
244539
253321
255651
267639
271481
284886
280807
194877
229759
206329
230631
205776
216764
241865
222617
212795
201779
222082
256891
234602
244656
243245
229498
223231
247635
271760
268356
252905
248015
249734
224573
233944
286705
259525
258810
176617
206527
199274
191272
198517
214797
223856
279228
302613
284079
322488
289544
309877
274334
201711
183422
184808
206932
224084
226070
205238
247917
279466
263419
287715
274008
294333
312872
241948
263299
236239
254255
284035
281696
258900
206817
233232
203048
219098
259770
254173
223401
190549
204280
186982
209527
233925
229148
213643
230223
199151
200696
216352
248445
214561
250627
279999
332960
297534
323492
290969
312313
350574
241666
229869
221481
245921
276091
267171
254535
242624
261431
234066
252428
290068
280635
261204
212528
218277
224498
229128
235319
242328
253624
244534
233218
218450
229438
272596
255937
244241
211712
251916
217816
267324
228986
236068
277529
195240
220376
201126
240157
219009
225746
248146
267568
287062
269697
301439
316713
321488
296993
226321
263338
272634
243014
250301
269085
292232
273882
296214
302491
322120
301444
294703
276798
245718
301389
285381
291200
273884
260590
270441
296270
338144
302537
318574
348828
357625
311472
185074
226599
206999
220786
151565
142161
122269
138642
212391
178896
251891
193886
226092
154729
145162
140506
170473
130175
121600
129617
137520
138290
146643
145879
125575
133345
123538
131353
139823
148084
150457
128109
135947
131355
139344
148896
153580
157502
265828
146641
174613
172744
235495
212134
276293
138071
147964
147246
155723
164898
165905
154877
141895
139805
149240
157185
170327
167522
159726
180091
156375
157321
166260
188458
189786
165234
135451
149110
143703
159051
153487
162385
168346
161725
182039
159066
167972
195127
191834
170775
144716
158835
148418
174053
163093
167343
178741
189024
165184
169468
199415
174457
178987
204653
155660
153949
165744
163468
173725
175550
184170
159025
164044
153157
172655
191791
179165
184603
199796
180937
174667
184538
219066
211104
191265
176180
214088
186185
199410
187515
200900
175032
177994
206817
192919
216690
189557
203173
181043
211539
197302
185026
189936
232741
217357
202714
162565
183750
172737
194453
183202
194442
206674
166120
187627
178266
200482
187037
196475
210932
197422
188452
215803
228928
199384
209163
241198
195984
233708
241166
217712
224620
203361
209432
238668
221221
196784
198817
184735
207750
223476
277146
256708
221025
239944
208125
221012
256696
245101
227899
212336
223285
284438
240503
259642
275942
225477
262233
245098
310995
291575
256573
228702
217463
208469
234217
271713
244787
258441
237079
270033
248312
285223
262486
274570
298135
235590
320571
258026
275881
260432
233518
278421
340062
320745
304238
330257
398181
371785
351225
272702
304014
324298
311169
301662
294708
281807
250075
291914
261625
300032
269360
281761
314000
238833
290372
270572
326696
264384
282950
243856
345307
310485
256228
305819
278913
253426
236731
337983
376615
356031
414479
382147
361589
330693
301031
279032
250456
259040
370135
315633
290609
283995
285615
262714
291078
343919
316553
316015
315423
323211
291259
304599
366209
338887
330249
304149
311535
278533
299619
369020
335441
327176
182434
146646
189953
180717
182858
143126
124523
128280
126011
143249
125980
143046
124839
138543
138210
126727
127590
144898
143424
125695
139445
141516
161424
180757
161720
153634
169518
170308
153115
142468
131324
131717
144023
153877
143432
154766
163012
181135
161648
154715
174183
171672
156995
144355
134765
132713
145208
158926
156261
147535
157953
184226
172573
167204
173734
157076
168330
159434
178660
173237
186408
175573
170152
162104
254436
316014
418133
254652
252814
313737
324014
246908
248159
184819
186148
178878
206594
204673
198607
200584
219982
226495
262393
337217
413999
305291
244407
194030
235267
211729
289087
232578
354368
370581
260804
271978
177136
207168
205297
196813
198737
218394
226822
352342
558882
473609
353403
373681
259852
320274
247543
229431
223166
243191
271673
268280
248887
241017
225519
218930
240999
267742
263963
246892
205487
214282
212424
223624
225332
234032
245316
245827
229791
221410
241610
276009
250190
267091
239542
225863
217405
239524
271608
248138
262785
209130
225863
233266
223693
248851
230363
246471
217913
257425
254578
236448
238519
259095
279202
265021
291952
312941
289881
288035
290203
268709
282724
284955
281075
308272
312713
308881
340493
176932
146196
195753
181355
200230
256939
215316
179338
193104
148548
147828
190159
175206
193901
140635
183830
206205
153650
154208
169005
151194
172028
164195
168952
146144
154353
151045
164809
162350
168575
171726
149954
143539
150275
159993
169267
168874
162250
199377
204788
188822
198118
180507
186367
204182
159897
169513
153250
159846
167088
176584
184237
172217
157281
154257
166330
148077
152515
170793
210263
203149
182998
206170
199545
180015
186807
201185
181573
198754
205375
179438
187849
187535
153834
175628
208483
217230
185675
247154
206406
179459
163814
161821
170664
171793
189252
188247
216695
208862
188195
216339
195653
203588
225458
168482
187068
176024
196654
185719
193595
205229
191107
211229
213966
209058
205284
185421
189603
146582
160225
157871
172125
157616
159613
171180
198408
219054
221059
208602
229041
207539
230455
180990
192728
181342
199035
211520
211048
198806
92780
93222.7
73117.1
76836.8
121826
131064
140136
119036
79278.2
81535
81145.2
96879.1
98105.4
95340.8
96332.8
92990.8
105408
85406.8
86228.1
100521
107091
100953
78009.3
78539.7
73378.5
88077.9
91010.6
94903.3
92936.8
113972
136497
117364
135412
115532
114589
132985
93226.2
84960.4
85054.7
107987
106555
100689
98962.3
133368
130666
115376
137785
122085
117215
134068
104245
130259
110423
112993
125584
131638
108662
137332
123780
121444
117404
130672
134795
114228
51465.9
146069
102277
94385.3
82540.6
132469
111100
153466
112922
138807
115838
66755.6
82143
106330
150398
157169
78133.2
107067
116508
139178
192008
212770
168201
123179
167263
78478.2
87415.1
89559.5
93811.3
90738.9
96553.1
100012
140498
117258
160744
133374
145842
146186
164686
87781
105860
100626
99132.3
95045.3
104554
110363
39036
49632.4
61282.1
53720.1
65363.4
76257.1
66533
120619
99318.1
115862
102210
107424
110454
123708
102016
120027
106256
117897
106688
110300
121806
80173.9
88008.9
74407.8
92454.9
78458.2
86924.9
100706
98574.6
105664
121837
110431
127095
132760
117653
134758
152188
138707
161078
145233
149148
166355
113778
107401
111413
122950
115394
117363
125534
62385.9
85412.7
72534.8
88733.8
100009
103232
81910.9
42456.9
131407
59279.6
14687.6
44158.2
82934.4
114242
53811.9
85796.5
112159
83641.5
131233
131467
188957
120888
169222
108055
82810
109999
94738.8
121829
119849
96066.6
36664.9
64833.6
61664.6
74544.6
53371
58890.4
75473.2
17831
25800.5
19762.8
20774.4
31946.1
39328
26354.4
141493
136737
147871
161934
149060
144003
156779
30123.5
22968
33780.1
47300.1
43136.8
55718.4
33897.7
73298.3
51809.1
68036.2
64959.6
85238.5
71285.8
79262.4
92326.6
87013.7
108688
120042
104176
122793
99470
141646
139437
129277
141619
156862
142783
154590
33508.2
67819.7
48826.9
55248.7
61587.7
73927.1
41200.2
70238
100261
86237.3
73867.1
103374
88923.2
88475.1
107530
143650
132868
131302
123043
143220
109025
159872
175975
189853
155643
187602
166425
172346
62886.4
60553.4
90825
71168.9
71826.5
81534.1
50076.7
78386.7
98736.3
100474
107819
84629.4
93745.4
92788.5
131730
117050
147876
126495
134617
144564
112588
153509
173173
166965
187365
154272
165487
171237
125669
118553
111749
115186
133342
121268
127031
124531
119680
106081
114582
132969
119869
127796
101956
73148.5
97021
94102
113394
114994
88097.7
129166
126292
116273
119634
142581
130010
132547
122319
92437.2
109108
101887
132154
115246
119620
96870
93924.6
83416.2
96949
121536
108784
110269
153056
123500
138300
145494
146717
131233
159947
113743
136875
128444
140145
136523
126254
149256
108007
131630
146215
124889
123836
129873
105425
176329
156839
170424
161528
196799
180945
176114
159303
151069
143866
155052
180324
163302
172589
126504
140833
149733
135733
128496
136911
149552
130499
139269
137586
124555
126297
133881
146718
121798
134914
144997
133370
124546
134912
145568
138345
75861.9
70666.7
105376
120132
150433
172645
123721
130303
117079
104744
168264
160018
135459
146344
87546.9
79020.1
88392.2
108378
133783
115574
100750
69977.2
81344
71956.5
98970.1
86035.9
84137.3
105994
179971
182226
187738
156490
177831
171932
164930
70035.6
71350.1
68686.5
92102.5
84850.6
83274.7
89715.3
130101
152654
168500
139732
145447
159963
123704
125332
103242
121789
154596
149034
101545
132281
116686
101699
133374
120505
141093
100826
111148
75967.3
75320.8
110820
136027
113154
108372
124067
101637
76293.8
85096.7
85838.8
85320.3
84537.2
92641.4
92739.2
74834.8
85529
86945.9
85508.5
84571.3
93108.1
94310.6
115887
107711
115383
95821.9
103020
95757.6
103360
112245
97161.8
110504
110599
97101.3
101941
112635
118416
109227
116763
97387.8
96239.4
104103
105400
99415.9
111587
97897.7
102844
115236
113530
104307
123675
111188
133033
132569
120595
111665
120985
126732
124990
134056
112472
123667
121877
113997
124120
140870
142552
147446
129739
134869
136991
113176
143807
146417
138266
126400
125845
132066
168422
203590
194006
195356
177583
187093
183944
153493
156715
179413
151491
140615
163300
168586
148083
149279
136520
144511
169435
156599
157262
132987
155470
142686
142683
165758
152882
155465
160209
157865
172114
146578
171176
159607
157614
204755
225266
235922
213633
250861
226308
236729
166705
164689
177854
179774
166595
178290
192004
187952
205708
192664
190549
174176
186472
203838
170984
170189
201086
184465
185669
184467
199702
177848
191993
178284
153828
179757
166585
166694
219156
241546
257472
232604
232368
218810
242436
226526
224541
320281
190106
188942
149829
194615
164112
181934
165967
216899
151774
226862
169109
172278
163310
96937.8
166718
119046
135246
147557
131063
130515
134713
144629
149026
279191
234071
181450
176270
134235
216721
176543
172143
173953
227881
277279
225855
187938
208466
100478
120516
118394
119900
117948
138306
142222
248743
248944
340488
238717
192099
266192
207331
147634
157304
140838
146675
140122
154630
161461
106248
134743
133031
122751
120935
138864
149797
169727
184925
165526
177751
160321
164929
182567
137728
154034
141788
162550
150822
155228
167230
163641
145290
141198
159624
187712
181885
165228
141176
157673
137334
157687
183888
177922
163325
147036
148249
146730
160220
158903
161446
173152
160591
190202
187835
173801
172163
186300
202259
155673
154466
164939
163576
181577
169601
179220
201226
194317
175149
170766
196294
177912
188695
153459
159373
147018
160851
180430
167772
173136
162539
152478
141610
158624
189049
168525
180071
156731
148928
137958
156746
185242
176223
166734
200405
208870
205804
216475
219605
222472
237072
178907
220014
206642
204693
198623
200630
184849
182769
177352
165767
170562
200493
188030
182585
192573
163852
175275
196797
177929
189341
207950
160682
187954
172536
193172
176287
187966
204778
175611
186466
174169
205695
192646
190540
203833
206326
223941
222597
226757
225776
243650
244840
206233
206011
188941
202330
239278
219174
220865
209793
220344
199915
205567
186516
196822
216816
177169
218430
207225
205316
196831
186182
198789
200603
201105
185517
200602
233978
217023
216705
161190
183540
170366
189280
176113
186094
199925
227380
268251
242083
265217
241984
260883
288719
220946
257315
235463
258077
238693
257298
280714
176634
207850
202869
197281
184120
194658
189168
194974
212623
227579
197951
181203
193927
211908
237451
239006
218713
202219
221050
200730
219372
190997
206411
223251
207750
191931
177321
191934
214337
212443
194065
205509
245344
223638
225369
212877
207126
193212
204151
241122
218952
224935
211713
248849
233254
209118
246464
223687
230348
193918
194952
181190
197934
227557
211896
212594
249314
275986
275532
268642
297626
269279
298281
243394
265070
242008
265058
291190
290504
266188
217914
257398
259103
254569
236450
235242
238525
263845
299253
314782
296958
272688
287954
290146
237005
274500
248260
285144
258057
269988
298072
267869
233082
255992
280550
255972
267854
293175
308263
308858
281059
284910
259813
282698
312692
249799
233058
217205
257228
239382
256568
277316
283834
257528
284691
305300
274788
272988
307656
262396
240807
242670
289206
267357
265563
288633
292799
320252
292457
323695
324461
354854
355516
266030
228212
245136
224335
242820
226039
208789
355542
354869
320253
292444
323715
292802
324464
217182
257179
256548
249771
232563
233020
239352
291043
284013
262699
285595
343900
308786
316514
277623
257950
282998
282991
335735
305293
310564
310266
307778
281660
294364
353935
321850
324572
315400
390839
347744
384592
342564
379389
430672
338073
337673
306699
373133
337678
373676
416093
270315
360817
392663
328806
335315
285217
306629
296137
250610
270060
277385
341319
304276
303939
332661
322134
295741
295976
388767
326689
340599
265460
339084
300326
286344
384462
317059
330699
324272
385522
393761
399968
362872
352366
354226
410851
362038
361985
398478
483274
404928
462052
312027
376107
378069
371447
337792
342097
345463
398529
392418
352473
392402
463361
398507
444526
202404
404994
231591
222248
199886
268309
209446
201199
299950
260197
284394
209228
273255
214692
311316
239790
381792
299753
200762
193036
190164
222881
220626
210285
213651
199472
187356
188455
218347
219234
208188
206772
205101
196943
226174
202090
230860
218065
223776
252413
413279
316286
317003
274793
422325
446144
305692
274530
342554
460120
387305
556456
471841
214872
216961
208690
245375
237178
231077
240239
202836
190260
191695
212167
222613
210455
224566
244700
264427
241629
232384
262243
257367
236360
197477
205396
193914
214771
232204
227569
218870
261997
238413
239741
229885
252163
254289
228136
243238
227145
255708
239572
268576
251605
265778
248801
279658
254301
268480
241442
247953
276715
202111
221296
207955
238150
224102
230659
245742
221233
251428
405360
305833
299308
246583
394020
342458
196793
212152
207773
198843
184751
223511
238693
229562
224373
215289
238866
268210
249086
255519
288127
270512
261436
256311
302858
267039
287787
298861
292804
304829
321471
334442
326190
359764
235557
248397
287153
261386
263842
233524
250733
238607
273464
260057
292064
267646
254410
243322
257522
272980
254632
305317
284691
283808
307647
308079
330670
332849
341257
345301
373970
373516
287801
265772
234640
230137
215337
242365
260095
345339
310529
278938
253440
236758
256268
276322
281118
257371
227893
237474
211070
227902
257383
281108
267524
249275
256876
328053
291552
277557
235463
268308
248928
284889
261900
278384
307224
282211
339986
297779
324050
281034
299776
355119
453875
401250
304273
361483
242670
283253
217230
330361
224324
200728
218711
202212
221045
219371
239007
237453
342288
314845
402334
232208
443739
425946
531098
258460
284061
259915
236332
237812
259918
258463
242816
226038
208784
245122
228206
247152
266021
267366
265565
240808
289226
262404
260810
288644
266772
351418
309785
327481
279859
306220
291108
315362
379409
347746
384615
352339
390888
430745
341352
432417
376475
420057
367157
408319
477552
341293
296123
303911
277376
270041
250602
271976
350847
318566
315736
314849
312713
285355
284570
292596
292591
264723
297206
269434
246012
269434
284563
312704
285343
315710
318553
350823
361471
269323
313452
362027
272149
317963
247783
282706
303373
387743
427784
342538
387762
274630
303389
286319
289020
265422
300272
384367
330657
338973
374226
348806
319169
325725
441346
397310
363408
317509
354497
434727
393750
354089
281459
307853
362091
398529
362019
410945
483414
462171
418246
390737
458736
391080
430492
535208
518608
439682
336674
357630
297458
321999
435130
395935
373973
167002
189334
139657
190332
198065
186569
200791
210094
193332
187579
183266
198232
195306
193084
196372
180338
163995
175456
179583
189160
187788
179551
145091
165564
172007
143003
167736
183147
163514
203069
208264
209684
212067
213630
205077
202776
154127
141215
161752
178901
159538
161566
172715
196606
202491
205997
207097
210209
199204
193578
211313
199586
199548
200414
183910
197297
182379
206402
179307
198657
208646
180638
194291
189953
272099
221654
281292
216421
223689
215945
265501
273568
218946
219593
224371
232272
232530
238422
238282
216577
222712
217856
233036
232677
238616
239282
223325
223781
216169
238564
232718
238327
233124
222575
215966
222884
239139
235573
233989
240547
247412
266881
248285
256606
277351
278825
255764
251282
269000
249487
258008
285016
281242
260275
257156
275050
251497
278555
280013
256306
252449
258684
286620
256910
277337
282440
254088
261524
423804
416904
376007
419712
555641
473802
483620
398427
298884
332932
449769
390497
337054
401256
479438
402353
348604
481363
427497
358612
427486
430129
375543
413514
451072
432210
314304
357898
511820
437923
399123
449573
605433
535210
503922
449767
390487
342284
398401
332920
337052
298883
493684
409825
357847
370883
449314
481041
435471
441606
401005
445236
432005
444745
429810
345321
397035
214196
389100
299289
382076
336538
366599
652711
411272
457743
392986
422275
393328
260101
388908
374406
383423
249193
388436
206877
241105
323424
311733
224687
278095
390064
367810
293275
291374
366472
355864
314515
397429
140483
208350
218162
219791
247600
249271
266794
264822
229542
219914
358087
352784
377381
334831
381982
210631
226255
222292
256873
252122
270362
276310
351479
429189
438145
268758
272729
343225
359475
218884
231458
237969
263769
273176
284814
296318
409641
235614
375264
192463
330171
265928
432309
251224
231784
233580
290722
319783
322158
288509
231929
257489
246377
302418
285736
311590
331104
265065
289908
292030
288059
290271
312988
313786
240947
254622
236422
295007
335339
327085
302217
458415
513241
435951
337800
281701
375304
482468
263885
296978
299314
287975
290210
314825
324056
387933
327320
328720
351462
392822
392086
350309
254868
267667
246990
346804
312498
326181
360662
221838
247863
244270
246547
250184
283814
281118
397333
444765
439973
112101
444911
443349
436526
338003
388099
332073
354443
391668
391738
359650
272424
253039
268972
323882
349754
354364
378146
224851
259768
255880
250212
253948
288675
296488
357843
435502
326706
526077
475525
113072
437136
337236
312701
311841
337259
361783
364291
336558
142898
282476
434528
445928
416368
434790
102262
279952
292525
265430
343568
392872
376281
363302
346311
391287
356272
391394
366757
375639
389750
316984
344384
316405
339642
366517
369321
338795
243341
267550
263420
273463
277920
307672
323734
294397
307798
310327
321868
324624
337257
353973
642097
541039
700093
522239
376016
487531
624871
341122
322816
313646
341144
382098
369926
351501
327745
348569
318352
343618
387726
375222
354165
380320
391651
367633
385831
378098
385684
396068
372904
381613
392022
392826
392235
391645
372117
321031
321039
291144
400752
376230
400753
417368
253218
310689
304844
286826
291782
346580
376562
269315
272123
247766
313439
282683
317924
361993
375386
396699
388039
378824
393806
390199
379910
326089
336626
299887
408461
383771
403508
419276
322170
295980
295762
332699
340608
370644
388799
400080
384630
386059
393125
358262
403252
379150
380264
293012
295822
354036
427188
350678
427302
278231
338213
280901
339651
411726
413277
336167
423025
394937
390550
365566
393103
397582
362983
310065
386826
301190
361575
431354
428958
373720
399619
422885
386250
335898
352442
366620
386269
293291
345741
285668
347140
423884
417628
359439
312047
371455
376135
342110
345502
378101
414028
341251
396345
358530
405702
369508
389657
430000
393213
369439
403269
365788
403973
407011
346492
304433
337436
330342
374306
366835
410084
437104
320394
358472
192419
251637
430204
316374
260060
307805
202842
216235
208974
220639
227986
234943
248600
230110
242319
215302
251393
234596
265714
287754
262012
246987
294665
336647
271266
290602
369077
228368
267601
241590
289035
258039
274923
312438
278120
288345
257735
297150
391186
328055
345849
393697
354019
281402
317422
434696
354417
405270
402273
416168
453674
371268
419051
405062
383517
322830
422214
340514
432955
389828
408512
432008
304137
395944
319751
430236
376571
397397
434365
395104
440982
433142
420502
390899
305435
333519
399835
357920
401426
344458
404327
370666
404865
423179
392844
358486
417987
407946
419923
421205
419743
416915
423840
473829
483704
473651
555721
104082
531975
391346
101444
102740
495564
102858
452916
383660
102138
102297
399232
101384
101826
337991
337979
297392
358776
419138
419123
453581
372435
357430
305280
412568
343957
425585
453598
354356
413477
314288
432171
375510
430117
451095
409882
370909
357895
493773
426040
449360
481074
437083
432102
364474
425594
414287
426814
437935
348920
401025
407448
401034
264398
384667
314529
416541
372514
342339
418402
426071
434750
433965
414869
522799
460941
411244
376146
414886
460961
464241
517011
477229
439067
401156
424652
468315
400947
429788
345284
394001
445240
441594
432040
391227
465642
414901
511813
449939
462144
461508
338597
392676
405341
398469
244896
376366
307155
422413
428333
383944
419395
541992
468975
468036
335348
445938
380241
443228
410253
447955
437819
435360
448360
412197
439858
442404
414194
370671
404864
443348
416134
430898
439478
424364
357892
550651
448892
468294
533915
558996
612984
598800
533787
612896
598749
522197
550612
468225
448835
571687
507309
637657
584748
580826
586692
485012
433922
441561
419705
390378
441865
433453
347827
419736
377051
429029
433187
431221
418668
426727
430839
438279
406645
406938
442318
436187
369790
423211
418401
424886
367788
428769
423580
428339
395973
456519
447961
448627
447955
397281
456518
443828
412902
451744
457558
375228
443760
433997
450029
451693
401268
453976
378029
440602
435970
549320
543739
469106
637466
687160
543771
642139
375187
433960
457543
443808
451741
412907
457736
409825
417928
433271
435983
296109
395792
405936
611494
697254
594877
461016
623272
519949
527463
575020
666663
581456
659997
556122
651872
686614
472641
481722
483414
531148
465018
510498
382328
429238
448341
449199
424720
424538
403591
329855
510489
382340
465014
531957
472639
483365
481706
382665
189256
198685
302315
349345
355372
259611
450224
433958
389642
450233
300519
424977
389668
363255
425534
445260
448435
271447
381595
412260
505640
467193
512038
475765
312752
418922
448251
444215
443025
381878
451847
291910
397899
415135
394055
425102
387757
324863
148835
241069
228060
434196
337213
248757
352178
373300
425542
385858
388631
431666
330168
409057
187509
359135
276860
445378
406473
354890
414027
209482
303700
366239
230644
306915
143635
230609
104620
156459
113486
573174
608259
599419
629964
474439
652736
573184
595200
647328
543148
651878
431590
614736
564232
287437
196900
108496
219122
103654
141181
111475
670079
690698
585098
702108
643558
687311
664211
280581
298408
405791
368422
115002
223311
206868
261212
451567
391076
244671
378617
232210
128230
438326
238836
361509
237575
361587
207894
122017
378608
391342
261198
128224
244635
391054
451557
215885
515165
390267
222729
411259
215875
116466
235014
144511
314069
125301
269124
163006
106155
421995
173886
215109
162926
353359
293478
341182
427388
212893
173726
171931
304578
350856
343807
348776
171009
357157
186778
390979
199315
111272
261400
156292
322490
132882
277488
167662
107333
302771
105227
111831
113873
150478
209508
142292
269023
125163
329971
626501
245462
523446
464072
101298
107965
101298
101300
101298
101298
101298
101298
101298
101298
101298
101298
101298
101298
101298
274893
101620
101298
101304
123331
101759
101810
135187
412618
101614
448405
430294
345979
410396
187262
106142
424464
288423
297230
257791
278165
328132
316442
391302
237494
270136
450030
101324
101424
112091
102819
343994
425623
305318
372505
357498
436568
453573
435283
439876
370800
414285
442357
448354
412074
447930
416509
335470
437726
443253
380354
445958
444894
451692
401296
453971
440590
435927
377986
445271
381512
425457
443291
271287
412175
363105
452897
448291
429295
329690
403460
449144
424640
329929
276527
388453
445879
408900
358914
431563
347358
373425
408789
280704
203182
170387
124310
101301
101298
101300
101315
101300
129823
101317
361500
383612
438286
207766
361415
238752
121991
393556
446808
393540
254964
383115
254935
132952
101398
101307
106498
101298
101298
101299
101404
173857
162849
293399
421955
353329
341087
215045
144416
125219
234785
162871
268878
392846
313897
208819
184281
307576
109944
137783
107181
102640
413771
430068
280167
293255
323855
458125
486650
285180
302166
344886
429522
541310
288380
191168
202831
279448
289333
189825
199864
314801
208432
231025
295456
321975
205881
230921
295548
200007
207617
350535
363797
256328
260475
331573
212704
236175
373424
423326
264350
286669
193922
185049
187874
216917
220019
214529
222324
359450
240465
274992
333803
380623
241657
282525
197745
197523
192170
220624
230298
225198
225749
203767
215115
210449
235713
230856
237482
242098
501512
296884
321314
503418
528073
314978
348310
181632
191748
184101
212686
217026
210385
219025
193484
195094
188171
216443
227290
221373
222450
222633
227013
218186
245274
257330
254230
249366
199721
213127
206886
233405
227349
234405
240676
201297
211926
212740
224298
225901
235973
234738
423310
313228
320448
433946
446215
314657
324361
246524
281833
249369
276188
277838
244485
251374
397071
247083
290375
449072
568588
298441
351458
249882
284576
258697
284817
280740
254244
254519
224462
221432
215105
242523
258660
251853
249064
203776
217809
214648
233156
228778
238472
242515
230252
256662
230766
253526
279375
252535
280304
235063
257986
232336
255849
286446
259682
282594
237177
250834
248666
266284
264414
275898
276535
463896
325294
344600
455280
509743
330525
357694
263829
290168
259733
266257
299333
296731
269794
222321
219060
228282
238910
245979
248067
255151
242836
273300
281331
246960
275107
240792
248943
662464
334103
395578
520827
368291
368220
488389
246231
282766
284612
257077
278259
250860
252311
239150
269799
244770
291993
265140
272295
299336
235058
253701
246961
269682
262581
274823
282226
273859
306499
284584
313490
304517
282807
276619
288592
263167
256717
263741
302919
295705
270470
226855
245116
235829
264554
254480
263921
274507
262290
275374
261417
288611
301013
302459
288133
303118
317427
325262
328404
336605
353767
363792
271937
313999
311722
288834
304142
281545
278963
261545
277178
252167
281388
320739
292569
308814
275095
267341
260270
288614
312051
303900
296267
314396
309338
310683
342729
343360
341480
344473
293897
323459
293151
304643
333697
334543
304512
474230
321485
332333
661213
654061
409398