# vtk DataFile Version 2.0
sampleSurface
ASCII
DATASET POLYDATA
POINTS 1515 float
-5 -5 0 -5 -4.6 0 -4.6 -4.6 0 -4.6 -5
0 -5 -4.2 0 -4.6 -4.2 0 -5 -3.8 0
-4.6 -3.8 0 -5 -3.4 0 -4.6 -3.4 0 -5
-3 0 -4.6 -3 0 -5 -2.6 0 -4.6 -2.6
0 -5 -2.2 0 -4.6 -2.2 0 -5 -1.8 0
-4.6 -1.8 0 -5 -1.4 0 -4.6 -1.4 0 -5
-1 0 -4.6 -1 0 -5 -0.6 0 -4.6 -0.6
0 -5 -0.2 0 -4.6 -0.2 0 -5 0.2 0
-4.6 0.2 0 -5 0.6 0 -4.6 0.6 0 -5
1 0 -4.6 1 0 -5 1.4 0 -4.6 1.4
0 -5 1.8 0 -4.6 1.8 0 -5 2.2 0
-4.6 2.2 0 -4.6 2 0 -5 2.6 0 -4.6
2.6 0 -4.6 2.4 0 -5 3 0 -4.6 3
0 -4.6 2.8 0 -5 3.4 0 -4.6 3.4 0
-4.6 3.2 0 -5 3.8 0 -4.6 3.8 0 -4.6
3.6 0 -5 4.2 0 -4.6 4.2 0 -5 4.6
0 -4.6 4.6 0 -5 5 0 -4.6 5 0
-4.2 -4.6 0 -4.2 -5 0 -4.2 -4.2 0 -4.2
-3.8 0 -4.2 -3.4 0 -4.2 -3 0 -4.2 -2.6
0 -4.2 -2.2 0 -4.2 -1.8 0 -4.2 -1.4 0
-4.2 -1 0 -4.2 -0.6 0 -4.2 -0.2 0 -4.2
0.2 0 -4.2 0.6 0 -4.2 1 0 -4.2 1.4
0 -4.4 1.8 0 -4.2 1.8 0 -4.4 2 0
-4.4 2.4 0 -4.4 2.2 0 -4.4 2.8 0 -4.4
2.6 0 -4.4 3.2 0 -4.4 3 0 -4.4 3.6
0 -4.4 3.4 0 -4.2 4.2 0 -4.2 3.8 0
-4.4 3.8 0 -4.2 4.6 0 -4.2 5 0 -3.8
-4.6 0 -3.8 -5 0 -3.8 -4.2 0 -3.8 -3.8
0 -3.8 -3.4 0 -3.8 -3 0 -3.8 -2.6 0
-3.8 -2.2 0 -3.8 -1.8 0 -3.8 -1.4 0 -3.8
-1 0 -3.8 -0.6 0 -3.8 -0.2 0 -3.8 0.2
0 -3.8 0.6 0 -3.8 1 0 -3.8 1.4 0
-4 1.8 0 -3.8 1.8 0 -4.2 2 0 -4
2 0 -4.2 2.2 0 -4.2 2.3 0 -4.1 2.3
0 -4.1 2.2 0 -4.2 2.6 0 -4.2 2.7 0
-4.1 2.7 0 -4.1 2.6 0 -4.2 3 0 -4.2
3.1 0 -4.1 3.1 0 -4.1 3 0 -4.2 3.4
0 -4.2 3.6 0 -4 3.6 0 -4 3.4 0
-4.1 3.4 0 -3.8 4.2 0 -3.8 3.8 0 -4
3.8 0 -3.8 4.6 0 -3.8 5 0 -3.4 -4.6
0 -3.4 -5 0 -3.4 -4.2 0 -3.4 -3.8 0
-3.4 -3.4 0 -3.4 -3 0 -3.4 -2.6 0 -3.4
-2.2 0 -3.4 -1.8 0 -3.4 -1.4 0 -3.4 -1
0 -3.4 -0.6 0 -3.4 -0.2 0 -3.4 0.2 0
-3.4 0.6 0 -3.4 1 0 -3.4 1.4 0 -3.6
1.8 0 -3.4 1.8 0 -3.8 2 0 -3.6 2
0 -3.8 2.2 0 -3.8 2.3 0 -3.7 2.3 0
-3.7 2.2 0 -3.8 3.4 0 -3.8 3.6 0 -3.6
3.6 0 -3.6 3.4 0 -3.7 3.4 0 -3.4 4.2
0 -3.4 3.8 0 -3.6 3.8 0 -3.4 4.6 0
-3.4 5 0 -3 -4.6 0 -3 -5 0 -3
-4.2 0 -3 -3.8 0 -3 -3.4 0 -3 -3
0 -3 -2.6 0 -3 -2.2 0 -3 -1.8 0
-3 -1.4 0 -3 -1 0 -3 -0.6 0 -3
-0.2 0 -3 0.2 0 -3 0.6 0 -3 1
0 -3 1.4 0 -3.2 1.8 0 -3 1.8 0
-3.4 2 0 -3.2 2 0 -3.4 2.2 0 -3.4
2.3 0 -3.3 2.3 0 -3.3 2.2 0 -3.4 3.4
0 -3.4 3.6 0 -3.2 3.6 0 -3.2 3.4 0
-3.3 3.4 0 -3 4.2 0 -3 3.8 0 -3.2
3.8 0 -3 4.6 0 -3 5 0 -2.6 -4.6
0 -2.6 -5 0 -2.6 -4.2 0 -2.6 -3.8 0
-2.6 -3.4 0 -2.6 -3 0 -2.6 -2.6 0 -2.6
-2.2 0 -2.6 -1.8 0 -2.6 -1.4 0 -2.6 -1
0 -2.6 -0.6 0 -2.6 -0.2 0 -2.6 0.2 0
-2.6 0.6 0 -2.6 1 0 -2.6 1.4 0 -2.8
1.8 0 -2.6 1.8 0 -3 2 0 -2.8 2
0 -3 2.2 0 -3 2.3 0 -2.9 2.3 0
-2.9 2.2 0 -3 3.4 0 -3 3.6 0 -2.8
3.6 0 -2.8 3.4 0 -2.9 3.4 0 -2.6 4.2
0 -2.6 3.8 0 -2.8 3.8 0 -2.6 4.6 0
-2.6 5 0 -2.2 -4.6 0 -2.2 -5 0 -2.2
-4.2 0 -2.2 -3.8 0 -2.2 -3.4 0 -2.2 -3
0 -2.2 -2.6 0 -2.2 -2.2 0 -2.2 -1.8 0
-2.2 -1.4 0 -2.2 -1 0 -2.2 -0.6 0 -2.2
-0.2 0 -2.2 0.2 0 -2.2 0.6 0 -2.2 1
0 -2.2 1.4 0 -2.4 1.8 0 -2.2 1.8 0
-2.6 2 0 -2.4 2 0 -2.6 2.2 0 -2.6
2.3 0 -2.5 2.3 0 -2.5 2.2 0 -2.6 3.4
0 -2.6 3.6 0 -2.4 3.6 0 -2.4 3.4 0
-2.5 3.4 0 -2.2 4.2 0 -2.2 3.8 0 -2.4
3.8 0 -2.2 4.6 0 -2.2 5 0 -1.8 -4.6
0 -1.8 -5 0 -1.8 -4.2 0 -1.8 -3.8 0
-1.8 -3.4 0 -1.8 -3 0 -1.8 -2.6 0 -1.8
-2.2 0 -1.8 -1.8 0 -1.8 -1.4 0 -1.8 -1
0 -1.8 -0.6 0 -1.8 -0.2 0 -1.8 0.2 0
-1.8 0.6 0 -1.8 1 0 -1.8 1.4 0 -2
1.8 0 -1.8 1.8 0 -2.2 2 0 -2 2
0 -2.2 2.2 0 -2.2 2.3 0 -2.1 2.3 0
-2.1 2.2 0 -2.2 3.4 0 -2.2 3.6 0 -2
3.6 0 -2 3.4 0 -2.1 3.4 0 -1.8 4.2
0 -1.8 3.8 0 -2 3.8 0 -1.8 4.6 0
-1.8 5 0 -1.4 -4.6 0 -1.4 -5 0 -1.4
-4.2 0 -1.4 -3.8 0 -1.4 -3.4 0 -1.4 -3
0 -1.4 -2.6 0 -1.4 -2.2 0 -1.4 -1.8 0
-1.4 -1.4 0 -1.4 -1 0 -1.4 -0.6 0 -1.4
-0.2 0 -1.4 0.2 0 -1.4 0.6 0 -1.4 1
0 -1.4 1.4 0 -1.6 1.8 0 -1.4 1.8 0
-1.8 2 0 -1.6 2 0 -1.8 2.2 0 -1.8
2.3 0 -1.8 2.4 0 -1.7 2.4 0 -1.6 2.4
0 -1.6 2.2 0 -1.8 2.6 0 -1.8 2.7 0
-1.7 2.7 0 -1.7 2.6 0 -1.8 3 0 -1.8
3.1 0 -1.7 3.1 0 -1.7 3 0 -1.8 3.4
0 -1.8 3.6 0 -1.6 3.6 0 -1.6 3.4 0
-1.4 4.2 0 -1.4 3.8 0 -1.6 3.8 0 -1.4
4.6 0 -1.4 5 0 -1 -4.6 0 -1 -5
0 -1 -4.2 0 -1 -3.8 0 -1 -3.4 0
-1 -3 0 -1 -2.6 0 -1 -2.2 0 -1
-1.8 0 -1 -1.4 0 -1 -1 0 -1 -0.6
0 -1 -0.2 0 -1 0.2 0 -1 0.6 0
-1 1 0 -1 1.4 0 -1 1.8 0 -1.4
2 0 -1.4 2.2 0 -1.2 2.2 0 -1 2.2
0 -1.4 2.4 0 -1.2 2.4 0 -1.4 2.6 0
-1.4 2.8 0 -1.2 2.8 0 -1.2 2.6 0 -1.4
3 0 -1.4 3.2 0 -1.2 3.2 0 -1.2 3
0 -1.4 3.4 0 -1.4 3.6 0 -1.2 3.6 0
-1.2 3.4 0 -1 4.2 0 -1 4 0 -1
3.8 0 -1.2 3.8 0 -1 4.6 0 -1 5
0 -0.6 -4.6 0 -0.6 -5 0 -0.6 -4.2 0
-0.6 -3.8 0 -0.6 -3.4 0 -0.6 -3 0 -0.6
-2.6 0 -0.6 -2.2 0 -0.6 -1.8 0 -0.6 -1.4
0 -0.6 -1 0 -0.6 -0.6 0 -0.6 -0.2 0
-0.6 0.2 0 -0.6 0.6 0 -0.6 1 0 -0.6
1.4 0 -0.6 1.8 0 -0.6 2.2 0 -1 2.4
0 -1 2.6 0 -0.8 2.6 0 -0.6 2.6 0
-0.6 2.4 0 -1 2.8 0 -0.8 2.8 0 -1
3 0 -1 3.2 0 -0.8 3.2 0 -0.8 3.1
0 -0.8 3 0 -1 3.4 0 -1 3.6 0
-0.8 3.6 0 -0.8 3.5 0 -0.8 3.4 0 -0.8
4 0 -0.8 3.8 0 -0.6 4.6 0 -0.6 4.2
0 -0.8 4.2 0 -0.6 5 0 -0.2 -4.6 0
-0.2 -5 0 -0.2 -4.2 0 -0.2 -3.8 0 -0.2
-3.4 0 -0.2 -3 0 -0.2 -2.6 0 -0.2 -2.2
0 -0.2 -1.8 0 -0.2 -1.4 0 -0.2 -1 0
-0.2 -0.6 0 -0.2 -0.2 0 -0.2 0.2 0 -0.2
0.6 0 -0.2 1 0 -0.2 1.4 0 -0.2 1.8
0 -0.4 2.2 0 -0.2 2.2 0 -0.4 2.4 0
-0.6 2.8 0 -0.5 2.8 0 -0.4 2.8 0 -0.4
2.6 0 -0.6 3 0 -0.6 3.1 0 -0.5 3.1
0 -0.5 3 0 -0.6 3.4 0 -0.6 3.5 0
-0.5 3.5 0 -0.5 3.4 0 -0.6 3.8 0 -0.6
4 0 -0.4 4 0 -0.4 3.8 0 -0.5 3.8
0 -0.2 4.6 0 -0.2 4.2 0 -0.4 4.2 0
-0.2 5 0 0.2 -4.6 0 0.2 -5 0 0.2
-4.2 0 0.2 -3.8 0 0.2 -3.4 0 0.2 -3
0 0.2 -2.6 0 0.2 -2.2 0 0.2 -1.8 0
0.2 -1.4 0 0.2 -1 0 0.2 -0.6 0 0.2
-0.2 0 0.2 0.2 0 0.2 0.6 0 0.2 1
0 0.2 1.4 0 0.2 1.8 0 0 2.2 0
0.2 2.2 0 -0.2 2.4 0 -7.22801e-18 2.4 0 -0.2
2.6 0 -0.2 2.8 0 -0.1 2.8 0 0 2.8
0 0 2.6 0 -0.2 3.8 0 -0.2 4 0
0 4 0 0 3.8 0 -0.1 3.8 0 0.2
4.6 0 0.2 4.2 0 0 4.2 0 0.2 5
0 0.6 -4.6 0 0.6 -5 0 0.6 -4.2 0
0.6 -3.8 0 0.6 -3.4 0 0.6 -3 0 0.6
-2.6 0 0.6 -2.2 0 0.6 -1.8 0 0.6 -1.4
0 0.6 -1 0 0.6 -0.6 0 0.6 -0.2 0
0.6 0.2 0 0.6 0.6 0 0.6 1 0 0.6
1.4 0 0.6 1.8 0 0.4 2.2 0 0.6 2.2
0 0.2 2.4 0 0.4 2.4 0 0.2 2.6 0
0.2 2.8 0 0.3 2.8 0 0.4 2.8 0 0.4
2.6 0 0.2 3.8 0 0.2 4 0 0.4 4
0 0.4 3.8 0 0.3 3.8 0 0.6 4.6 0
0.6 4.2 0 0.4 4.2 0 0.6 5 0 1
-4.6 0 1 -5 0 1 -4.2 0 1 -3.8
0 1 -3.4 0 1 -3 0 1 -2.6 0
1 -2.2 0 1 -1.8 0 1 -1.4 0 1
-1 0 1 -0.6 0 1 -0.2 0 1 0.2
0 1 0.6 0 1 1 0 1 1.4 0
1 1.8 0 0.8 2.2 0 1 2.2 0 0.6
2.4 0 0.8 2.4 0 0.6 2.6 0 0.6 2.8
0 0.7 2.8 0 0.8 2.8 0 0.8 2.6 0
0.6 3.8 0 0.6 4 0 0.8 4 0 0.8
3.8 0 0.7 3.8 0 1 4.6 0 1 4.2
0 0.8 4.2 0 1 5 0 1.4 -4.6 0
1.4 -5 0 1.4 -4.2 0 1.4 -3.8 0 1.4
-3.4 0 1.4 -3 0 1.4 -2.6 0 1.4 -2.2
0 1.4 -1.8 0 1.4 -1.4 0 1.4 -1 0
1.4 -0.6 0 1.4 -0.2 0 1.4 0.2 0 1.4
0.6 0 1.4 1 0 1.4 1.4 0 1.4 1.8
0 1.2 2.2 0 1.4 2.2 0 1 2.4 0
1.2 2.4 0 1 2.6 0 1 2.8 0 1.1
2.8 0 1.2 2.8 0 1.2 2.6 0 1 3.8
0 1 4 0 1.2 4 0 1.2 3.8 0
1.1 3.8 0 1.4 4.6 0 1.4 4.2 0 1.2
4.2 0 1.4 5 0 1.8 -4.6 0 1.8 -5
0 1.8 -4.2 0 1.8 -3.8 0 1.8 -3.4 0
1.8 -3 0 1.8 -2.6 0 1.8 -2.2 0 1.8
-1.8 0 1.8 -1.4 0 1.8 -1 0 1.8 -0.6
0 1.8 -0.2 0 1.8 0.2 0 1.8 0.6 0
1.8 1 0 1.8 1.4 0 1.8 1.8 0 1.6
2.2 0 1.8 2.2 0 1.4 2.4 0 1.6 2.4
0 1.4 2.6 0 1.4 2.8 0 1.5 2.8 0
1.6 2.8 0 1.6 2.6 0 1.4 3.8 0 1.4
4 0 1.6 4 0 1.6 3.8 0 1.5 3.8
0 1.8 4.6 0 1.8 4.2 0 1.6 4.2 0
1.8 5 0 2.2 -4.6 0 2.2 -5 0 2.2
-4.2 0 2.2 -3.8 0 2.2 -3.4 0 2.2 -3
0 2.2 -2.6 0 2.2 -2.2 0 2.2 -1.8 0
2.2 -1.4 0 2.2 -1 0 2.2 -0.6 0 2.2
-0.2 0 2.2 0.2 0 2.2 0.6 0 2.2 1
0 2.2 1.4 0 2.2 1.8 0 2.2 1.6 0
2 2.2 0 2.2 2.2 0 2.2 2 0 1.8
2.4 0 2 2.4 0 1.8 2.6 0 1.8 2.8
0 1.9 2.8 0 2 2.8 0 2 2.6 0
1.8 3.8 0 1.8 4 0 2 4 0 2
3.8 0 1.9 3.8 0 2.2 4.6 0 2.2 4.2
0 2 4.2 0 2.2 5 0 2.6 -4.6 0
2.6 -5 0 2.6 -4.2 0 2.6 -3.8 0 2.6
-3.4 0 2.6 -3 0 2.6 -2.6 0 2.6 -2.2
0 2.6 -1.8 0 2.6 -1.4 0 2.6 -1 0
2.6 -0.6 0 2.6 -0.2 0 2.6 0.2 0 2.6
0.6 0 2.6 1 0 2.4 1.4 0 2.6 1.4
0 2.6 1.2 0 2.4 1.6 0 2.4 2 0
2.4 1.8 0 2.2 2.4 0 2.4 2.4 0 2.4
2.2 0 2.2 2.6 0 2.2 2.8 0 2.4 2.8
0 2.4 2.6 0 2.2 3 0 2.2 3.1 0
2.2 3.2 0 2.4 3.2 0 2.4 3 0 2.2
3.4 0 2.2 3.5 0 2.2 3.6 0 2.4 3.6
0 2.4 3.4 0 2.2 3.8 0 2.2 4 0
2.6 4.2 0 2.6 3.8 0 2.4 3.8 0 2.6
4.6 0 2.6 5 0 3 -4.6 0 3 -5
0 3 -4.2 0 3 -3.8 0 3 -3.4 0
3 -3 0 3 -2.6 0 3 -2.2 0 3
-1.8 0 3 -1.4 0 3 -1 0 3 -0.6
0 3 -0.2 0 3 0.2 0 3 0.6 0
2.8 1 0 3 1 0 2.8 1.2 0 2.6
1.5 0 2.7 1.5 0 2.7 1.4 0 2.6 1.8
0 2.6 2 0 2.7 2 0 2.8 2 0
2.8 1.9 0 2.8 1.8 0 2.7 1.8 0 2.6
2.2 0 2.6 2.3 0 2.7 2.3 0 2.7 2.2
0 2.6 2.6 0 2.6 2.7 0 2.7 2.7 0
2.7 2.6 0 2.6 3 0 2.6 3.2 0 2.8
3.2 0 2.8 3 0 2.6 3.4 0 2.6 3.6
0 3 3.8 0 3 3.4 0 2.8 3.4 0
3 4.2 0 3 4.6 0 3 5 0 3.4
-4.6 0 3.4 -5 0 3.4 -4.2 0 3.4 -3.8
0 3.4 -3.4 0 3.4 -3 0 3.4 -2.6 0
3.4 -2.2 0 3.4 -1.8 0 3.4 -1.4 0 3.4
-1 0 3.4 -0.6 0 3.4 -0.2 0 3.4 0.2
0 3.4 0.6 0 3.2 1 0 3.4 1 0
3 1.2 0 3.1 1.2 0 3.2 1.2 0 3
1.4 0 3 1.45 0 3.05 1.45 0 3.05 1.4
0 3 1.8 0 3 1.85 0 3.05 1.85 0
3.05 1.8 0 3 3 0 3 3.2 0 3.2
3.2 0 3.2 3 0 3.1 3 0 3.4 3.8
0 3.4 3.4 0 3.2 3.4 0 3.4 4.2 0
3.4 4.6 0 3.4 5 0 3.8 -4.6 0 3.8
-5 0 3.8 -4.2 0 3.8 -3.8 0 3.8 -3.4
0 3.8 -3 0 3.8 -2.6 0 3.8 -2.2 0
3.8 -1.8 0 3.8 -1.4 0 3.8 -1 0 3.8
-0.6 0 3.8 -0.2 0 3.8 0.2 0 3.8 0.6
0 3.6 1 0 3.8 1 0 3.4 1.2 0
3.6 1.2 0 3.4 1.4 0 3.4 1.5 0 3.5
1.5 0 3.5 1.4 0 3.4 1.8 0 3.4 1.9
0 3.5 1.9 0 3.5 1.8 0 3.4 3 0
3.4 3.2 0 3.6 3.2 0 3.6 3 0 3.5
3 0 3.8 3.8 0 3.8 3.4 0 3.6 3.4
0 3.8 4.2 0 3.8 4.6 0 3.8 5 0
4.2 -4.6 0 4.2 -5 0 4.2 -4.2 0 4.2
-3.8 0 4.2 -3.4 0 4.2 -3 0 4.2 -2.6
0 4.2 -2.2 0 4.2 -1.8 0 4.2 -1.4 0
4.2 -1 0 4.2 -0.6 0 4.2 -0.2 0 4.2
0.2 0 4.2 0.6 0 4.2 1 0 3.8 1.2
0 3.8 1.4 0 4 1.4 0 4.2 1.4 0
3.8 1.6 0 4 1.6 0 3.8 1.8 0 3.8
1.9 0 3.9 1.9 0 3.9 1.8 0 3.8 3
0 3.8 3.2 0 4 3.2 0 4 3 0
3.9 3 0 4.2 3.8 0 4.2 3.4 0 4
3.4 0 4.2 4.2 0 4.2 4.6 0 4.2 5
0 4.6 -4.6 0 4.6 -5 0 4.6 -4.2 0
4.6 -3.8 0 4.6 -3.4 0 4.6 -3 0 4.6
-2.6 0 4.6 -2.2 0 4.6 -1.8 0 4.6 -1.4
0 4.6 -1 0 4.6 -0.6 0 4.6 -0.2 0
4.6 0.2 0 4.6 0.6 0 4.6 1 0 4.4
1.4 0 4.6 1.4 0 4.2 1.6 0 4.4 1.6
0 4.2 1.8 0 4.2 1.9 0 4.3 1.9 0
4.3 1.8 0 4.2 3 0 4.2 3.2 0 4.4
3.2 0 4.4 3 0 4.3 3 0 4.6 3.8
0 4.6 3.4 0 4.4 3.4 0 4.6 4.2 0
4.6 4.6 0 4.6 5 0 5 -4.6 0 5
-5 0 5 -4.2 0 5 -3.8 0 5 -3.4
0 5 -3 0 5 -2.6 0 5 -2.2 0
5 -1.8 0 5 -1.4 0 5 -1 0 5
-0.6 0 5 -0.2 0 5 0.2 0 5 0.6
0 5 1 0 5 1.4 0 4.6 1.6 0
4.6 1.8 0 4.8 1.8 0 5 1.8 0 4.6
2 0 4.8 2 0 4.6 2.2 0 4.6 2.3
0 4.6 2.4 0 4.8 2.4 0 4.8 2.2 0
4.6 2.6 0 4.6 2.7 0 4.6 2.8 0 4.8
2.8 0 4.8 2.6 0 4.6 3 0 4.6 3.2
0 5 3.4 0 5 3 0 4.8 3 0
5 3.8 0 5 4.2 0 5 4.6 0 5
5 0 -4.1 2.9 0 -4.2 2.9 0 -4.1 3.3
[...]
CELL_DATA 1285
FIELD attributes 1
p 1 1285 float
101298 101298 101298 101298 101298 101298 101298 101298 101298 101298 101298
101298 101298 101298 101298 101298 101298 101298 101298 101298 101298
101298 101298 101298 101298 101298 101298 101298 101298 101298 101298
101298 101298 101298 101298 101298 101298 101298 101298 101298 101298
101298 101298 101298 101298 101298 101298 101298 101298 101298 101298
101298 101298 101298 101298 101298 101298 101298 101298 101298 101298
101298 101298 101298 101298 101298 101298 101298 101298 101298 101298
101298 101298 101298 101298 101298 101298 101298 101298 101298 101298
101298 101298 101298 101298 101298 101298 101298 101298 101298 101298
101298 101298 101298 101298 101298 101298 101298 101298 101298 101298
101298 101298 101298 101298 101298 101298 101298 101298 101298 101298
101298 101298 101298 101298 101298 101298 101298 101298 101298 101298
101298 101298 101298 101298 101298 101298 101298 101298 101298 101298
101298 101298 101298 101298 101298 101298 101298 101298 101298 101298
101298 101298 101298 101298 101298 101298 101298 101298 101298 101298
101298 101298 101298 101298 101298 101298 101298 101298 101298 101298
101298 101298 101298 101298 101298 101298 101298 101298 101298 101298
101298 101298 101298 101298 101298 101298 101298 101298 101298 101298
101298 101298 101298 101298 101298 101298 101298 101298 101298 101298
101298 101298 101298 101298 101298 101298 101298 101298 101298 101298
101298 101298 101298 101298 101298 101298 101298 101298 101298 101298
101298 101298 101298 101298 101298 101298 101298 101298 101298 101298
101298 101298 101298 101298 101298 101298 101298 101298 101298 101298
101298 101298 101298 101298 101298 101298 101298 101298 101298 101298
101298 101298 101298 101298 101298 101298 101298 101298 101298 101298
101298 101298 101298 101298 101298 101298 101298 101298 101298 101298
101298 101298 101298 101298 101298 101298 101298 101298 101298 101298
101298 101298 101298 101298 101298 101298 101298 101298 101298 101298
101298 101298 101298 101298 101298 101298 101298 101298 101298 101298
101298 101298 101298 101298 101298 101298 101298 101298 101298 101298
101298 101298 101298 101298 101298 101298 101298 101298 101298 101298
101298 101298 101298 101298 101298 101298 101298 101298 101298 101298
101298 101298 101298 101298 101298 101298 101298 101298 101298 101298
101298 101298 101298 101298 101298 101298 101298 101298 101298 101298
101298 101298 101298 101298 101298 101298 101298 101298 101298 101298
101298 101298 101298 101298 101298 101298 101298 101298 101298 101298
101298 101298 101298 101298 101298 101298 101298 101298 101298 101298
101298 101298 101298 101298 101298 101298 101298 101298 101298 101298
101298 101298 101298 101298 101298 101298 101298 101298 101298 101298
101298 101298 101298 101298 101298 101298 101298 101298 101298 101298
101298 101298 101298 101298 101298 101298 101298 101298 101298 101298
101298 101298 101298 101298 101298 101298 101298 101298 101298 101298
101298 101298 101298 101298 101298 101298 101298 101298 101298 101298
101298 101298 101298 101298 101298 101298 101298 101298 101298 101298
101298 101298 101298 101298 101298 101298 101298 101298 101298 101298
101298 101298 101298 101298 101298 101298 101298 101298 101298 101298
101298 101298 101298 101298 101298 101298 101298 101298 101298 101298
101298 101298 101298 101298 101298 101298 101298 101298 101298 101298
101298 101298 101298 101298 101298 101298 101298 101298 101298 101298
101298 101298 101298 101298 101298 101298 101298 101298 101298 101298
101298 101298 101298 101298 101298 101298 101298 101298 101298 101298
101298 101298 101298 101298 101298 101298 101298 101298 101298 101298
101298 101298 101298 101298 101298 101298 101298 101298 101298 101298
101298 101298 101298 101298 101298 101298 101298 101298 101298 101298
101298 101298 101298 101298 101298 101298 101298 101298 101298 101298
101298 101298 101298 101298 101298 101298 101298 101298 101298 101298
101298 101298 101298 101298 101298 101298 101298 101298 101298 101298
101298 101298 101298 101298 101298 101298 101298 101298 101298 101298
101298 101298 101298 101298 101298 101298 101298 101298 101298 101298
101298 101298 101298 101298 101298 101298 101298 101298 101298 101298
101298 101298 101298 101298 101298 101298 101298 101298 101298 101298
101298 101298 101298 101298 101298 101298 101298 101298 101298 101298
101298 101298 101298 101298 101298 101298 101298 101298 101298 101298
101298 101298 101298 101298 101298 101298 101298 101298 101298 101298
101298 101298 101298 101298 101298 101298 101298 101298 101298 101298
101298 101298 101298 101298 101298 101298 101298 101298 101298 101298
101298 101298 101298 101298 101298 101298 101298 101298 101298 101298
101298 101298 101298 101298 101298 101298 101298 101298 101298 101298
101298 101298 101298 101298 101298 101298 101298 101298 101298 101298
101298 101298 101298 101298 101298 101298 101298 101298 101298 101298
101298 101298 101298 101298 101298 101298 101298 101298 101298 101298
101298 101298 101298 101298 101298 101298 101298 101298 101298 101298
101298 101298 101298 101298 101298 101298 101298 101298 101298 101298
101298 101298 101298 101298 101298 101298 101298 101298 101298 101298
101298 101298 101298 101298 101298 101298 101298 101298 101298 101298
101298 101298 101298 101298 101298 101298 101298 101298 101298 101298
101298 101298 101298 101298 101298 101298 101298 101298 101298 101298
101298 101298 101298 101298 101298 101298 101298 101298 101298 101298
101298 101298 101298 101298 101298 101298 101298 101298 101298 101298
101298 101298 101298 101298 101298 101298 101298 101298 101298 101298
101298 101298 101298 101298 101298 101298 101298 101298 101298 101298
101298 101298 101298 101298 101298 101298 101298 101298 101298 101298
101298 101298 101298 101298 101298 101298 101298 101298 101298 101298
101298 101298 101298 101298 101298 101298 101298 101298 101298 101298
101298 101298 101298 101298 101298 101298 101298 101298 101298 101298
101298 101298 101298 101298 101298 101298 101298 101298 101298 101298
101298 101298 101298 101298 101298 101298 101298 101298 101298 101298
101298 101298 101298 101298 101298 101298 101298 101298 101298 101298
101298 101298 101298 101298 101298 101298 101298 101298 101298 101298
101298 101298 101298 101298 101298 101298 101298 101298 101298 101298
101298 101298 101298 101298 101298 101298 101298 101298 101298 101298
101298 101298 101298 101298 101298 101298 101298 101298 101298 101298
101298 101298 101298 101298 101298 101298 101298 101298 101298 101298
101298 101298 101298 101298 101298 101298 101298 101298 101298 101298
101298 101298 101298 101298 101298 101298 101298 101298 101298 101298
101298 101298 101298 101298 101298 101298 101298 101298 101298 101298
101298 101298 101298 101298 101298 101298 101298 101298 101298 101298
101298 101298 101298 101298 101298 101298 101298 101298 101298 101298
101298 101298 101298 101298 101298 101298 101298 101298 101298 101298
101298 101298 101298 101298 101298 101298 101298 101298 101298 101298
101298 101298 101298 101298 101298 101298 101298 101298 101298 101298
101298 101298 101298 101298 101298 101298 101298 101298 101298 101298
101298 101298 101298 101298 101298 101298 101298 101298 101298 101298
101298 101298 101298 101298 101298 101298 101298 101298 101298 101298
101298 101298 101298 101298 101298 101298 101298 101298 101298 101298
101298 101298 101298 101298 101298 101298 101298 101298 101298 101298
101298 101298 101298 101298 101298 101298 101298 101298 101298 101298
101298 101298 101298 101298 101298 101298 101298 101298 101298 101298
101298 101298 101298 101298 101298 101298 101298 101298 101298 101298
101298 101298 101298 101298 101298 101298 101298 101298 101298 101298
101298 101298 101298 101298 101298 101298 101298 101298 101298 101298
101298 101298 101298 101298 101298 101298 101298 101298 101298 101298
101298 101298 101298 101298 101298 101298 101298 101298 101298 101298
101298 101298 101298 101298 101298 101298 101298 101298 101298 101298
101298 101298 101298 101298 101298 101298 101298 101298 101298 101298
101298 101298 101298 101298 101298 101298 101298 101298 101298 101298
101298 101298 101298 101298 101298 101298 101298 101298 101298 101298
101298 101298 101298 101298 101298 101298 101298 101298 101298 101298
101298 101298 101298 101298 101298 101298 101298 101298 101298 101298
101298 101298 101298 101298 101298 101298 101298 101298 101298 101298
101298 101298 101298 101298 101298 101298 101298 101298 101298 101298
101298 101298 101298 101298 101298 101298 101298 101298 101298 101298
101298 101298 101298 101298 101298 101298 101298 101298 101298 101298
101298 101298 101298 101298 101298 101298 101298 101298 101298 101298
101298 101298 101298 101298 101298 101298 101298 101298 101298 101298
101298 101298 101298 101298 101298 101298 101298 101298 101298 101298
101298 101298 101298 101298 101298 101298 101298 101298 101298 101298
101298 101298 101298 101298 101298 101298 101298 101298 101298 101298
101298 101298 101298 101298 
