# vtk DataFile Version 2.0
sampleSurface
ASCII
DATASET POLYDATA
POINTS 658 float
0 -0.2 0 0 0.2 0 0 0.2 0.25 0 0.4
0 0 0.4 0.25 0 -0.2 0.5 0 0.2 0.5
-1.95692e-18 0.4 0.375 0 0.5 0.25 0 -0.6 0 0
0.6 0 0 0.5 0.375 0 0.4 0.5 0 0.6
0.25 0 0.5 0.5 0 0.6 0.375 0 0.4 0.625
0 0.7 0.25 0 0.2 0.75 0 -0.6 0.5 0
0.6 0.5 0 0.7 0.375 0 0.8 0 0 0.5
0.625 0 0.8 0.25 0 0.4 0.75 0 0.7 0.5
0 0.6 0.625 0 0.8 0.375 0 0.5 0.75 0
0.7 0.625 0 0.8 0.5 0 0.6 0.75 0 -1
0 0 1 0 0 0.8 0.625 0 -0.2 1
0 0.2 1 0 0.7 0.75 0 1 0.25 0
0.4 1 0 0.8 0.75 0 -1 0.5 0 1
0.5 0 -0.6 1 0 0.6 1 0 1.2 0
0 1.2 0.125 0 1.2 0.25 0 1 0.75 0
1.2 0.375 0 0.8 1 0 1.2 0.5 0 1.3
0 0 1.3 0.125 0 1.3 0.25 0 1.2 0.625
0 1.3 0.375 0 0.6 1.25 0 1.3 0.5 0
-1.4 0 0 1.4 0 0 1.4 0.125 0 -1
1 0 1 1 0 1.2 0.75 0 1.4 0.25
0 1.3 0.625 0 1.4 0.375 0 0.8 1.25 0
1.2 0.875 0 -1.4 0.5 0 1.4 0.5 0 1.5
0 0 1.3 0.75 0 1.5 0.125 0 -0.2 1.5
0 0.2 1.5 0 1.5 0.25 0 1.4 0.625 0
1.5 0.375 0 1.2 1 0 1.3 0.875 0 1.5
0.5 0 1.4 0.75 0 1 1.25 0 -0.6 1.5
0 0.6 1.5 0 1.5 0.625 0 1.3 1 0
1.2 1.125 0 1.4 0.875 0 1.5 0.75 0 0.8
1.5 0 1.3 1.125 0 -1.4 1 0 1.4 1
0 1.2 1.25 0 1.5 0.875 0 1.4 1.125 0
-1.8 0 0 -1 1.5 0 1 1.5 0 1.5
1 0 1.3 1.25 0 1.2 1.375 0 0.6 1.75
0 -1.8 0.5 0 1.5 1.125 0 1.4 1.25 0
1.3 1.375 0 1.2 1.5 0 0.8 1.75 0 1.5
1.25 0 1.4 1.375 0 1.3 1.5 0 2 0
0 2 0.125 0 -0.2 2 0 0.2 2 0
2 0.25 0 1 1.75 0 1.2 1.625 0 2
0.375 0 1.5 1.375 0 -1.4 1.5 0 1.4 1.5
0 -1.8 1 0 2 0.5 0 1.3 1.625 0
0.6 2 0 -0.6 2 0 2 0.625 0 2.1
0 0 2.1 0.125 0 2.1 0.25 0 1.5 1.5
0 1.2 1.75 0 2.1 0.375 0 2 0.75 0
1.4 1.625 0 0.8 2 0 2.1 0.5 0 1.3
1.75 0 2 0.875 0 2.1 0.625 0 -2.2 0
0 2.2 0 0 2.2 0.125 0 1.5 1.625 0
2.2 0.25 0 1.2 1.875 0 2.1 0.75 0 2.2
0.375 0 -1 2 0 2 1 0 1 2
0 1.4 1.75 0 -2.2 0.5 0 2.2 0.5 0
2.1 0.875 0 1.3 1.875 0 2.2 0.625 0 2
1.125 0 1.5 1.75 0 2.2 0.75 0 2.1 1
0 1.2 2 0 1.4 1.875 0 -1.8 1.5 0
2 1.25 0 2.2 0.875 0 2.1 1.125 0 1.3
2 0 2.4 0 0 1.5 1.875 0 2.4 0.125
0 2.4 0.25 0 -2.2 1 0 2.2 1 0
2 1.375 0 2.4 0.375 0 -1.4 2 0 1.4
2 0 2.1 1.25 0 2.4 0.5 0 1 2.25
0 2.2 1.125 0 2.4 0.625 0 2.5 0 0
2 1.5 0 1.5 2 0 2.5 0.125 0 0.2
2.5 0 -0.2 2.5 0 2.1 1.375 0 2.5 0.25
0 2.4 0.75 0 2.5 0.375 0 2.2 1.25 0
1.4 2.125 0 2.5 0.5 0 1.2 2.25 0 2.4
0.875 0 1.6 2 0 0.6 2.5 0 -0.6 2.5
0 2.5 0.625 0 2 1.625 0 2.1 1.5 0
2.2 1.375 0 2.4 1 0 -2.6 0 0 2.6
0 0 1.5 2.125 0 2.6 0.125 0 2.5 0.75
0 2.6 0.25 0 1.7 2 0 2.6 0.375 0
-2.6 0.5 0 2.6 0.5 0 2.5 0.875 0 1.4
2.25 0 2.4 1.125 0 2.1 1.625 0 2 1.75
0 1.6 2.125 0 -2.2 1.5 0 2.2 1.5 0
2.6 0.625 0 -1.8 2 0 1.8 2 0 -1
2.5 0 2.5 1 0 1 2.5 0 2.7 0
0 2.7 0.125 0 1.5 2.25 0 2.4 1.25 0
2.6 0.75 0 2.7 0.25 0 1.7 2.125 0 2.7
0.375 0 2.1 1.75 0 2.2 1.625 0 2.5 1.125
0 2 1.875 0 2.6 0.875 0 2.7 0.5 0
1.9 2 0 1.6 2.25 0 2.4 1.375 0 2.7
0.625 0 1.2 2.5 0 1.8 2.125 0 -2.6 1
0 2.6 1 0 2.5 1.25 0 2.8 0 0
2.7 0.75 0 2.8 0.125 0 2.8 0.25 0 2.2
1.75 0 2.1 1.875 0 1.7 2.25 0 2.8 0.375
0 2 2 0 2.4 1.5 0 2.6 1.125 0
2.7 0.875 0 2.8 0.5 0 1.9 2.125 0 2.5
1.375 0 -1.4 2.5 0 1.4 2.5 0 2.8 0.625
0 2.7 1 0 1.8 2.25 0 2.6 1.25 0
2.2 1.875 0 2.4 1.625 0 2.8 0.75 0 2.9
0 0 2.1 2 0 2.9 0.125 0 2.9 0.25
0 2.5 1.5 0 2 2.125 0 2.9 0.375 0
2.7 1.125 0 2.8 0.875 0 2.6 1.375 0 2.9
0.5 0 1.9 2.25 0 2.9 0.625 0 1.6 2.5
0 2.4 1.75 0 -2.2 2 0 2.2 2 0
2.8 1 0 2.7 1.25 0 2.5 1.625 0 2.1
2.125 0 2.9 0.75 0 -3 0 0 3 0
0 -2.6 1.5 0 2.6 1.5 0 3 0.125 0
0.2 3 0 -0.2 3 0 3 0.25 0 2
2.25 0 2.8 1.125 0 3 0.375 0 2.9 0.875
0 2.7 1.375 0 -3 0.5 0 3 0.5 0
2.4 1.875 0 2.5 1.75 0 2.2 2.125 0 0.6
3 0 -0.6 3 0 3 0.625 0 2.6 1.625
0 2.8 1.25 0 2.9 1 0 2.1 2.25 0
-1.8 2.5 0 1.8 2.5 0 1.4 2.75 0 2.7
1.5 0 3 0.75 0 3.1 0 0 3.1 0.125
0 3.1 0.25 0 2.9 1.125 0 2.8 1.375 0
3.1 0.375 0 2.4 2 0 3 0.875 0 2.5
1.875 0 2.6 1.75 0 3.1 0.5 0 2.2 2.25
0 2.7 1.625 0 2.9 1.25 0 -1 3 0
-3 1 0 3 1 0 1 3 0 3.1
0.625 0 2.8 1.5 0 1.6 2.75 0 3.1 0.75
0 3.2 0 0 2.5 2 0 2 2.5 0
3.2 0.125 0 3 1.125 0 2.4 2.125 0 2.6
1.875 0 2.9 1.375 0 3.2 0.25 0 2.7 1.75
0 3.1 0.875 0 3.2 0.375 0 2.8 1.625 0
3.2 0.5 0 3 1.25 0 3.1 1 0 3.2
0.625 0 2.9 1.5 0 -2.6 2 0 2.6 2
0 2.5 2.125 0 1.8 2.75 0 3.2 0.75 0
2.7 1.875 0 2.4 2.25 0 3.1 1.125 0 3
1.375 0 2.8 1.75 0 -1.4 3 0 1.4 3
0 3.2 0.875 0 2.9 1.625 0 -2.2 2.5 0
2.2 2.5 0 3.1 1.25 0 3.2 1 0 -3
1.5 0 3 1.5 0 2.6 2.125 0 2.7 2
0 2.5 2.25 0 2.8 1.875 0 2.9 1.75 0
3.1 1.375 0 3.2 1.125 0 -3.4 0 0 3.4
0 0 1.6 3 0 2 2.75 0 3.4 0.25
0 3 1.625 0 3.2 1.25 0 2.7 2.125 0
-3.4 0.5 0 3.4 0.5 0 2.6 2.25 0 2.8
2 0 3.1 1.5 0 2.9 1.875 0 2.4 2.5
0 3 1.75 0 3.4 0.75 0 3.2 1.375 0
-1.8 3 0 1.8 3 0 3.1 1.625 0 0.2
3.5 0 -0.2 3.5 0 2.7 2.25 0 2.8 2.125
0 2.2 2.75 0 2.9 2 0 3.2 1.5 0
3 1.875 0 -3.4 1 0 3.4 1 0 0.6
3.5 0 -0.6 3.5 0 3.1 1.75 0 3.2 1.625
0 2.8 2.25 0 2.9 2.125 0 3.6 0 0
-3 2 0 3 2 0 2 3 0 -2.6
2.5 0 2.6 2.5 0 3.6 0.25 0 3.4 1.25
0 3.1 1.875 0 3.6 0.5 0 -1 3.5 0
1 3.5 0 3.2 1.75 0 2.4 2.75 0 2.9
2.25 0 3 2.125 0 3.6 0.75 0 3.1 2
0 3.2 1.875 0 -3.4 1.5 0 3.4 1.5 0
-2.2 3 0 2.2 3 0 3.6 1 0 3
2.25 0 2.8 2.5 0 3.1 2.125 0 -1.4 3.5
0 1.4 3.5 0 3.2 2 0 2.6 2.75 0
-3.8 0 0 3.8 0 0 3.8 0.25 0 3.6
1.25 0 3.4 1.75 0 3.1 2.25 0 -3.8 0.5
0 3.8 0.5 0 3.2 2.125 0 2.4 3 0
3.8 0.75 0 3.6 1.5 0 -3 2.5 0 3
2.5 0 3.2 2.25 0 2.8 2.75 0 -3.8 1
0 3.8 1 0 -1.8 3.5 0 1.8 3.5 0
-3.4 2 0 3.4 2 0 -2.6 3 0 2.6
3 0 3.8 1.25 -7.87696e-18 3.6 1.75 0 0.2 4
0 -0.2 4 0 0.6 4 0 -0.6 4 0
3.2 2.5 0 3 2.75 0 3.4 2.25 0 -3.8
1.5 0 3.8 1.5 0 2.8 3 0 3.6 2
0 -1 4 0 1 4 0 -2.2 3.5 0
2.2 3.5 0 3.8 1.75 0 -4.2 0 0 4.2
0 0 3.2 2.75 0 -3.4 2.5 0 3.4 2.5
0 -4.2 0.5 0 4.2 0.5 0 -1.4 4 0
1.4 4 0 -3 3 0 3 3 0 3.6
2.25 0 -3.8 2 0 3.8 2 0 -4.2 1
0 4.2 1 0 -2.6 3.5 0 2.6 3.5 0
3.4 2.75 0 3.6 2.5 0 -1.8 4 0 3.2
3 0 1.8 4 0 3.8 2.25 0 -4.2 1.5
0 4.2 1.5 0 0.2 4.5 0 -0.2 4.5 0
-3.4 3 0 3.4 3 0 0.6 4.5 0 -0.6
4.5 0 -3.8 2.5 0 3.8 2.5 0 -2.2 4
0 2.2 4 0 -4.6 0 0 4.6 0 0
-1 4.5 0 -3 3.5 0 3 3.5 0 1
4.5 0 -4.6 0.5 0 4.6 0.5 0 -4.2 2
0 4.2 2 0 -4.6 1 0 4.6 1 0
-1.4 4.5 0 1.4 4.5 0 -2.6 4 0 2.6
4 0 -4.6 1.5 0 4.6 1.5 0 -3.8 3
0 3.8 3 0 -1.8 4.5 0 1.8 4.5 0
-3.4 3.5 0 3.4 3.5 0 -4.2 2.5 0 4.2
2.5 0 -5 0 0 -3 4 0 5 0
0 3 4 0 0.2 5 0 -0.2 5 0
-2.2 4.5 0 2.2 4.5 0 -4.6 2 0 4.6
2 0 -5 0.5 0 5 0.5 0 0.6 5
0 -0.6 5 0 -1 5 0 -5 1 0
5 1 0 1 5 0 -4.2 3 0 4.2
3 0 -3.8 3.5 0 3.8 3.5 0 -1.4 5
0 1.4 5 0 -2.6 4.5 0 2.6 4.5 0
-5 1.5 0 5 1.5 0 -4.6 2.5 0 4.6
2.5 0 -3.4 4 0 3.4 4 0 -1.8 5
0 1.8 5 0 -5 2 0 5 2 0
-3 4.5 0 3 4.5 0 -2.2 5 0 2.2
5 0 -4.2 3.5 0 4.2 3.5 0 -4.6 3
0 4.6 3 0 -3.8 4 0 3.8 4 0
-5 2.5 0 5 2.5 0 -2.6 5 0 2.6
5 0 -3.4 4.5 0 3.4 4.5 0 -4.6 3.5
0 4.6 3.5 0 -4.2 4 0 4.2 4 0
-5 3 0 -3 5 0 5 3 0 3
5 0 -3.8 4.5 0 3.8 4.5 0 -3.4 5
0 3.4 5 0 -4.6 4 0 4.6 4 0
-5 3.5 0 5 3.5 0 -4.2 4.5 0 4.2
4.5 0 -3.8 5 0 3.8 5 0 -5 4
0 5 4 0 -4.6 4.5 0 4.6 4.5 0
-4.2 5 0 4.2 5 0 -5 4.5 0 5
4.5 0 -4.6 5 0 4.6 5 0 -5 5
0 5 5 
POLYGONS 592 3040
4 71 107 100 60 4 71 60 33 42 4
95 127 107 71 4 95 71 42 63 4
125 169 127 95 4 125 95 63 101 4
182 231 169 125 4 182 125 101 154 4
274 330 231 182 4 274 182 154 233 4
385 420 330 274 4 385 274 233 349 4
466 488 420 385 4 466 385 349 449 4
519 532 488 466 4 519 466 449 507 4
560 568 532 519 4 560 519 507 550 4
596 606 568 560 4 596 560 550 588 4
554 584 574 548 4 517 554 548 512 4
476 517 512 470 4 410 476 470 402 4
318 410 402 305 4 220 318 305 212 4
158 220 212 146 4 158 146 100 107 4
558 589 584 554 4 526 558 554 517 4
486 526 517 476 4 431 486 476 410 4
350 431 410 318 4 256 350 318 220 4
178 256 220 158 4 178 158 107 127 4
564 600 589 558 4 536 564 558 526 4
503 536 526 486 4 458 503 486 431 4
393 458 431 350 4 307 393 350 256 4
228 307 256 178 4 228 178 127 169 4
582 608 600 564 4 556 582 564 536 4
524 556 536 503 4 490 524 503 458 4
440 490 458 393 4 375 440 393 307 4
298 375 307 228 4 298 228 169 231 4
602 620 608 582 4 572 602 582 556 4
544 572 556 524 4 515 544 524 490 4
482 515 490 440 4 443 482 440 375 4
389 443 375 298 4 389 298 231 330 4
616 630 620 602 4 592 616 602 572 4
566 592 572 544 4 540 566 544 515 4
521 540 515 482 4 492 521 482 443 4
460 492 443 389 4 460 389 330 420 4
626 640 630 616 4 614 626 616 592 4
594 614 592 566 4 570 594 566 540 4
551 570 540 521 4 528 551 521 492 4
509 528 492 460 4 509 460 420 488 4
638 646 640 626 4 628 638 626 614 4
618 628 614 594 4 604 618 594 570 4
575 604 570 551 4 562 575 551 528 4
546 562 528 509 4 546 509 488 532 4
648 652 646 638 4 642 648 638 628 4
634 642 628 618 4 624 634 618 604 4
610 624 604 575 4 598 610 575 562 4
580 598 562 546 4 580 546 532 568 4
654 656 652 648 4 650 654 648 642 4
644 650 642 634 4 636 644 634 624 4
631 636 624 610 4 622 631 610 598 4
612 622 598 580 4 612 580 568 606 5
529 510 461 479 493 5 493 505 522 552
529 6 150 148 147 174 176 177 4 472
445 439 471 5 518 477 472 471 513 6
185 188 197 165 162 159 4 480 455 448
477 5 527 487 480 477 518 6 211 224
239 199 187 179 4 494 473 462 487 5
537 504 494 487 527 6 268 281 297 263
245 229 4 474 495 506 491 5 511 504
537 557 525 5 416 416 390 346 346 5
463 463 500 500 483 4 502 523 531 516
5 479 479 461 427 427 5 469 469 505
505 493 4 516 530 514 500 6 177 181
185 159 153 150 5 365 360 357 403 406
5 370 368 365 406 411 6 197 203 211
179 171 165 5 379 373 370 411 418 5
392 387 379 418 432 6 239 252 268 229
210 199 5 408 401 392 432 446 5 429
419 408 446 459 6 299 280 263 297 320
341 5 451 436 429 459 474 5 468 457
451 474 491 5 464 444 412 425 437 5
464 437 453 463 483 4 237 261 262 241
4 237 215 213 236 4 217 215 237 241
4 259 261 237 236 4 253 276 282 260
4 249 253 230 221 4 249 271 276 253
4 240 230 253 260 4 290 314 327 301
4 277 290 269 257 4 277 300 314 290
4 279 269 290 301 4 347 369 384 366
4 333 347 326 308 4 333 354 369 347
4 344 326 347 366 5 416 412 412 444
416 6 341 346 346 322 299 341 4 381
346 341 362 3 381 416 346 4 397 412
416 381 5 502 502 516 500 500 5 502
468 468 491 502 4 502 484 478 468 4
484 500 463 475 3 502 500 484 4 196
177 176 192 4 215 192 189 213 4 217
196 192 215 4 174 189 192 176 4 196
198 181 177 4 219 221 201 198 4 217
219 198 196 4 201 185 181 198 4 286
262 261 285 4 309 285 283 306 4 312
286 285 309 4 259 283 285 261 4 243
241 262 266 4 219 243 249 221 4 241
243 219 217 4 266 271 249 243 4 286
289 266 262 4 315 319 293 289 4 312
315 289 286 4 293 271 266 289 4 207
216 197 188 4 207 201 221 230 4 185
201 207 188 4 240 216 207 230 4 216
222 203 197 4 248 257 234 222 4 240
248 222 216 4 234 211 203 222 4 295
304 282 276 4 295 293 319 325 4 271
293 295 276 4 334 304 295 325 4 270
260 282 291 4 248 270 277 257 4 260
270 248 240 4 291 300 277 270 4 304
316 291 282 4 342 351 328 316 4 334
342 316 304 4 328 300 291 316 4 246
258 239 224 4 246 234 257 269 4 211
234 246 224 4 279 258 246 269 4 258
273 252 239 4 292 308 287 273 4 279
292 273 258 4 287 268 252 273 4 338
348 327 314 4 338 328 351 361 4 300
328 338 314 4 371 348 338 361 4 317
301 327 339 4 292 317 333 308 4 301
317 292 279 4 339 354 333 317 4 348
364 339 327 4 383 394 374 364 4 371
383 364 348 4 374 354 339 364 4 302
321 297 281 4 302 287 308 326 4 268
287 302 281 4 344 321 302 326 4 321
343 320 297 4 363 376 358 343 4 344
363 343 321 4 358 341 320 343 4 388
399 384 369 4 388 374 394 407 4 354
374 388 369 4 417 399 388 407 4 380
366 384 398 4 363 380 396 376 4 366
380 363 344 4 398 413 396 380 4 399
415 398 384 4 430 441 428 415 4 417
430 415 399 4 428 413 398 415 3 377
358 395 4 362 341 358 377 4 397 377
395 412 4 381 362 377 397 4 337 336
360 365 4 309 306 335 336 4 337 312
309 336 4 335 357 360 336 4 445 472
477 448 4 406 403 439 445 4 411 406
445 448 4 373 379 356 353 4 345 353
325 319 4 345 370 373 353 4 356 334
325 353 4 418 411 448 455 4 462 455
480 487 4 432 418 455 462 4 401 408
391 382 4 372 382 361 351 4 372 392
401 382 4 391 371 361 382 4 473 446
432 462 4 473 494 504 481 4 459 446
473 481 4 436 451 435 422 4 414 422
407 394 4 414 429 436 422 4 435 417
407 422 4 511 525 506 495 4 495 481
504 511 4 474 459 481 495 4 426 437
425 409 4 396 409 395 376 4 413 426
409 396 4 412 395 409 425 5 469 493
479 479 469 5 416 416 427 427 390 5
469 416 416 444 469 3 416 452 427 3
469 452 416 3 452 479 427 3 469 479
452 5 501 522 505 505 501 5 464 469
469 444 464 5 501 464 464 483 501 3
464 485 469 3 501 485 464 3 485 505
469 3 501 505 485 4 340 337 365 368
4 315 340 345 319 4 312 337 340 315
4 370 345 340 368 4 367 356 379 387
4 342 367 372 351 4 334 356 367 342
4 392 372 367 387 4 400 391 408 419
4 383 400 414 394 4 371 391 400 383
4 429 414 400 419 4 447 435 451 457
4 430 447 456 441 4 417 435 447 430
4 468 456 447 457 4 438 453 437 426
4 428 441 454 438 4 428 438 426 413
4 454 463 453 438 5 358 358 376 395
395 4 341 358 358 341 4 412 395 395
412 5 456 456 454 454 441 4 468 456
456 468 4 454 463 463 454 3 456 465
454 4 478 465 456 468 4 475 463 454
465 4 478 484 475 465 4 135 120 117
134 4 148 134 133 147 4 150 135 134
148 4 116 133 134 117 4 135 138 123
120 4 153 159 142 138 4 150 153 138
135 4 142 128 123 138 4 145 152 139
132 4 145 142 159 162 4 132 128 142
145 4 165 152 145 162 4 152 160 144
139 4 171 179 166 160 4 165 171 160
152 4 166 155 144 160 4 172 184 170
163 4 172 166 179 187 4 163 155 166
172 4 199 184 172 187 4 184 195 180
170 4 210 229 209 195 4 199 210 195
184 4 209 190 180 195 4 225 244 226
208 4 225 209 229 245 4 208 190 209
225 4 263 244 225 245 4 244 264 247
226 4 280 299 284 264 4 263 280 264
244 4 267 247 264 284 4 506 523 502
491 4 535 523 506 525 4 535 545 531
523 4 533 514 530 541 4 501 514 533
522 4 483 500 514 501 5 573 545 535
525 557 6 567 541 530 516 531 545 5
571 552 522 533 541 4 555 518 513 549
4 555 549 576 585 4 559 527 518 555
4 559 555 585 590 4 565 537 527 559
4 565 559 590 601 4 583 557 537 565
4 583 565 601 609 4 603 573 557 583
4 621 603 583 609 4 593 567 545 573
4 617 593 573 603 4 632 617 603 621
4 595 571 541 567 4 615 595 567 593
4 627 615 593 617 4 627 617 632 641
4 577 563 529 552 4 605 577 552 571
4 619 605 571 595 4 629 619 595 615
4 639 629 615 627 4 639 627 641 647
4 611 599 563 577 4 625 611 577 605
4 635 625 605 619 4 643 635 619 629
4 649 643 629 639 4 649 639 647 653
4 633 623 599 611 4 637 633 611 625
4 645 637 625 635 4 651 645 635 643
4 655 651 643 649 4 657 655 649 653
4 547 510 529 563 4 581 547 563 599
4 613 581 599 623 4 508 450 467 520
4 553 508 520 561 4 597 591 553 561
4 534 489 510 547 4 569 534 547 581
4 607 569 581 613 4 520 467 489 534
4 561 520 534 569 4 597 561 569 607
4 323 205 235 352 4 433 323 352 450
4 498 433 450 508 4 542 498 508 553
4 586 542 553 591 4 193 194 118 119
4 193 119 130 205 4 310 311 194 193
4 310 193 205 323 4 423 424 311 310
4 423 310 323 433 4 496 497 424 423
4 496 423 433 498 4 538 539 497 496
4 538 496 498 542 4 578 579 539 538
4 578 538 542 586 4 19 42 33 9
4 19 9 0 5 4 44 63 42 19
4 44 19 5 36 4 44 86 101 63
4 76 86 44 36 4 131 154 101 86
4 131 86 76 118 4 206 233 154 131
4 206 131 118 194 4 324 349 233 206
4 324 206 194 311 4 434 449 349 324
4 434 324 311 424 4 499 507 449 434
4 499 434 424 497 4 543 550 507 499
4 543 499 497 539 4 587 588 550 543
4 587 543 539 579 5 442 461 510 489
421 5 378 442 442 421 378 5 359 331
278 294 313 5 359 313 329 346 390 4
255 232 250 272 4 294 278 255 272 4
272 288 313 294 4 267 288 272 250 5
359 359 378 378 331 5 427 427 461 442
442 5 427 359 359 390 427 3 405 378
359 3 405 442 378 3 427 405 359 3
427 442 405 4 288 303 329 313 4 284
299 322 303 4 284 303 288 267 4 322
346 329 303 5 5 0 1 2 6 5
37 36 5 6 18 4 77 76 36 37
4 77 119 118 76 4 2 4 7 12
3 25 40 18 6 87 77 37 40 45
58 5 87 106 130 119 77 5 39 34
46 47 48 5 52 56 65 49 43 5
81 90 97 85 64 5 48 50 52 43
39 5 65 70 81 64 49 5 97 105
111 102 85 4 75 62 61 73 4 66
62 75 78 4 88 79 72 83 4 84
79 88 92 4 108 99 96 103 4 109
99 108 113 4 55 48 47 54 4 62
54 53 61 4 66 55 54 62 4 46
53 54 47 4 55 57 50 48 4 68
72 59 57 4 66 68 57 55 4 59
52 50 57 4 68 80 83 72 4 78
80 68 66 4 67 74 65 56 4 67
59 72 79 4 52 59 67 56 4 84
74 67 79 4 74 82 70 65 4 91
96 89 82 4 84 91 82 74 4 89
81 70 82 4 91 98 103 96 4 92
98 91 84 4 94 104 97 90 4 94
89 96 99 4 81 89 94 90 4 109
104 94 99 4 104 110 105 97 4 114
126 115 110 4 109 114 110 104 4 115
111 105 110 4 114 124 136 126 4 113
124 114 109 4 17 21 15 13 5 22
24 17 13 10 4 24 22 34 39 5
31 28 24 39 43 4 38 32 27 30
5 51 45 32 38 41 5 41 35 31
43 49 4 51 41 49 64 4 69 58
45 51 4 93 87 58 69 4 85 69
51 64 4 93 69 85 102 4 93 112
106 87 4 112 93 102 121 4 112 141
130 106 4 141 112 121 156 6 235 205
130 141 156 186 5 156 121 137 151 167
4 202 254 235 186 4 202 186 156 167
4 143 161 151 137 4 168 183 173 161
4 157 168 161 143 4 167 151 161 173
4 168 175 191 183 4 157 164 175 168
5 122 137 121 102 111 4 149 140 126
136 4 157 140 149 164 4 129 143 137
122 4 129 115 126 140 4 115 129 122
111 4 143 129 140 157 3 3 4 2
4 3 13 8 4 5 13 13 3 3
10 8 12 12 14 15 13 13 15 20
5 2 2 1 3 3 5 12 6 2
2 12 4 32 40 25 29 4 18 12
16 25 8 32 32 27 14 12 12 20
27 5 40 40 32 32 45 5 18 18
6 12 12 5 18 18 40 40 37 4
26 20 15 21 4 21 17 24 28 4
31 26 21 28 4 26 30 27 20 4
35 41 38 30 4 35 30 26 31 4
386 467 450 352 5 421 489 467 386 404
4 254 202 223 275 6 386 352 235 254
275 332 4 404 355 378 421 5 238 251
296 275 223 6 183 200 223 202 167 173
4 214 227 251 238 4 191 214 200 183
4 227 214 191 204 4 223 200 214 238
4 355 404 386 332 4 296 331 378 355
4 332 275 296 355 5 265 278 331 296
251 4 255 242 218 232 4 242 255 278
265 4 242 265 251 227 4 204 218 242
227 4 15 11 8 13 3 14 11 15
4 11 7 4 8 4 12 7 11 14
4 27 32 29 23 3 14 27 23 4
23 29 25 16 4 16 12 14 23 
POINT_DATA 658
FIELD attributes 1
p 1 658 float
101298 101298 101298 101298 101298 101298 101298 101298 101298 101298 101298
101298 101298 101298 101298 101298 101298 101298 101298 101298 101298
101298 101298 101298 101298 101298 101298 101298 101298 101298 101298
101298 101298 101298 101298 101298 101298 101298 101298 101298 101298
101298 101298 101298 101298 101298 101298 101298 101298 101298 101298
101298 101298 101298 101298 101298 101298 101298 101298 101298 101298
101298 101298 101298 101298 101298 101298 101298 101298 101298 101298
101298 101298 101298 101298 101298 101298 101298 101298 101298 101298
101298 101298 101298 101298 101298 101298 101298 101298 101298 101298
101298 101298 101298 101298 101298 101298 101298 101298 101298 101298
101298 101298 101298 101298 101298 101298 101298 101298 101298 101298
101298 101298 101298 101298 101298 101298 101298 101298 101298 101298
101298 101298 101298 101298 101298 101298 101298 101298 101298 101298
101298 101298 101298 101298 101298 101298 101298 101298 101298 101298
101298 101298 101298 101298 101298 101298 101298 101298 101298 101298
101298 101298 101298 101298 101298 101298 101298 101298 101298 101298
101298 101298 101298 101298 101298 101298 101298 101298 101298 101298
101298 101298 101298 101298 101298 101298 101298 101298 101298 101298
101298 101298 101298 101298 101298 101298 101298 101298 101298 101298
101298 101298 101298 101298 101298 101298 101298 101298 101298 101298
101298 101298 101298 101298 101298 101298 101298 101298 101298 101298
101298 101298 101298 101298 101298 101298 101298 101298 101298 101298
101298 101298 101298 101298 101298 101298 101298 101298 101298 101298
101298 101298 101298 101298 101298 101298 101298 101298 101298 101298
101298 101298 101298 101298 101298 101298 101298 101298 101298 101298
101298 101298 101298 101298 101298 101298 101298 101298 101298 101298
101298 101298 101298 101298 101298 101298 101298 101298 101298 101298
101298 101298 101298 101298 101298 101298 101298 101298 101298 101298
101298 101298 101298 101298 101298 101298 101298 101298 101298 101298
101298 101298 101298 101298 101298 101298 101298 101298 101298 101298
101298 101298 101298 101298 101298 101298 101298 101298 101298 101298
101298 101298 101298 101298 101298 101298 101298 101298 101298 101298
101298 101298 101298 101298 101298 101298 101298 101298 101298 101298
101298 101298 101298 101298 101298 101298 101298 101298 101298 101298
101298 101298 101298 101298 101298 101298 101298 101298 101298 101298
101298 101298 101298 101298 101298 101298 101298 101298 101298 101298
101298 101298 101298 101298 101298 101298 101298 101298 101298 101298
101298 101298 101298 101298 101298 101298 101298 101298 101298 101298
101298 101298 101298 101298 101298 101298 101298 101298 101298 101298
101298 101298 101298 101298 101298 101298 101298 101298 101298 101298
101298 101298 101298 101298 101298 101298 101298 101298 101298 101298
101298 101298 101298 101298 101298 101298 101298 101298 101298 101298
101298 101298 101298 101298 101298 101298 101298 101298 101298 101298
101298 101298 101298 101298 101298 101298 101298 101298 101298 101298
101298 101298 101298 101298 101298 101298 101298 101298 101298 101298
101298 101298 101298 101298 101298 101298 101298 101298 101298 101298
101298 101298 101298 101298 101298 101298 101298 101298 101298 101298
101298 101298 101298 101298 101298 101298 101298 101298 101298 101298
101298 101298 101298 101298 101298 101298 101298 101298 101298 101298
101298 101298 101298 101298 101298 101298 101298 101298 101298 101298
101298 101298 101298 101298 101298 101298 101298 101298 101298 101298
101298 101298 101298 101298 101298 101298 101298 101298 101298 101298
101298 101298 101298 101298 101298 101298 101298 101298 101298 101298
101298 101298 101298 101298 101298 101298 101298 101298 101298 101298
101298 101298 101298 101298 101298 101298 101298 101298 101298 101298
101298 101298 101298 101298 101298 101298 101298 101298 101298 101298
101298 101298 101298 101298 101298 101298 101298 101298 101298 101298
101298 101298 101298 101298 101298 101298 101298 101298 101298 101298
101298 101298 101298 101298 101298 101298 101298 101298 101298 101298
101298 101298 101298 101298 101298 101298 101298 101298 101298 101298
101298 101298 101298 101298 101298 101298 101298 101298 101298 101298
101298 101298 101298 101298 101298 101298 101298 101298 101298 101298
101298 101298 101298 101298 101298 101298 101298 101298 101298 101298
101298 101298 101298 101298 101298 101298 101298 101298 101298 101298
101298 101298 101298 101298 101298 101298 101298 101298 101298 101298
101298 101298 101298 101298 101298 101298 101298 
