/*--------------------------------*- C++ -*----------------------------------*\
  =========                 |
  \\      /  F ield         | OpenFOAM: The Open Source CFD Toolbox
   \\    /   O peration     | Website:  https://openfoam.org
    \\  /    A nd           | Version:  9
     \\/     M anipulation  |
\*---------------------------------------------------------------------------*/
FoamFile
{
    format      ascii;
    class       volVectorField;
    location    "0.00135";
    object      U;
}
// * * * * * * * * * * * * * * * * * * * * * * * * * * * * * * * * * * * * * //

dimensions      [0 1 -1 0 0 0 0];

internalField   nonuniform List<vector> 
11222
(
(2.64839 20.1058 8.93222)
(0.477495 3.73182 2.02997)
(2.20467 25.5091 11.6348)
(4.61527 32.5248 10.5866)
(4.48884 40.8127 13.867)
(0.125379 1.63349 0.563834)
(0.2581 2.31766 0.365073)
(0.324443 3.06468 0.508291)
(0.132269 1.23318 0.416976)
(8.33297e-05 0.000267457 7.86721e-05)
(4.43569e-07 2.6638e-06 2.36689e-06)
(8.08365e-08 9.32924e-07 1.22241e-06)
(98.5514 21.6297 35.0124)
(9.42086 3.29552 1.77161)
(27.0716 13.6203 10.2147)
(3.45408 2.06196 0.683972)
(5.64391 2.12984 0.983151)
(0.748779 0.337518 0.210623)
(0.935027 0.569205 0.198298)
(0.14048 0.0820083 0.04352)
(0.244277 0.113245 0.0776363)
(0.0010516 0.00112691 -4.18334e-05)
(0.00103367 0.000845594 0.000478603)
(0.000719332 0.000591689 0.000413817)
(0.000880012 0.00695042 -0.00013308)
(0.000815823 0.0131243 0.00511496)
(187.722 77.7382 74.5361)
(77.1851 13.2158 23.8093)
(292.692 98.2896 107.745)
(45.4716 12.4833 16.6662)
(233.08 93.7431 85.4158)
(39.2887 8.70011 13.2759)
(226.996 88.788 91.1241)
(124.948 54.4773 41.9079)
(18.4178 5.7659 4.94478)
(11.0725 2.71333 2.12462)
(81.2454 39.6872 21.6455)
(18.9184 4.58947 5.0152)
(139.187 61.7839 48.9998)
(82.5148 38.2194 21.2214)
(41.4608 19.2463 11.3049)
(7.33533 1.75705 1.32253)
(51.9046 26.4495 12.474)
(3.34257 1.35277 0.673517)
(58.3765 27.5163 14.0844)
(4.83351 1.10802 0.999579)
(33.1039 17.6403 8.75204)
(27.6245 12.2509 8.95125)
(1.74685 0.756312 0.422334)
(1.40032 0.282807 0.398647)
(9.35168 5.39253 3.2356)
(2.86491 0.619936 0.704685)
(19.1897 10.7531 5.84714)
(15.7571 6.43789 5.90315)
(2.46102 0.750303 1.00859)
(0.539817 0.0998999 0.169121)
(3.46896 2.01509 1.31391)
(0.0586584 0.02748 0.0197277)
(7.21034 2.58365 2.87936)
(0.154404 0.0259685 0.0514563)
(0.920955 0.541264 0.369123)
(0.567616 0.153686 0.228309)
(0.00922017 0.00423318 0.00351251)
(0.00395288 0.00717879 -0.0046799)
(0.0170503 0.0107791 0.00800944)
(0.029618 0.00478022 0.00977241)
(0.161279 0.0955756 0.0702209)
(0.069846 0.0259841 0.0222125)
(0.000107295 0.000606899 0.000709775)
(7.75979e-06 4.86324e-05 5.34282e-05)
(8.35775e-06 5.93196e-05 4.18535e-05)
(0.00678806 0.0909262 0.0269675)
(0.0132299 0.132045 0.00545714)
(0.00166364 0.0103053 0.000909275)
(0.000395372 0.00320123 0.000852628)
(0.0247413 0.182905 0.0133864)
(0.0066408 0.0663305 0.0190164)
(0.000286123 0.00455164 0.00132081)
(457.595 454.061 84.9873)
(213.966 437.329 19.7624)
(344.873 490.318 245.594)
(19.1097 51.5131 21.8795)
(77.0979 124.246 35.862)
(0.0165982 0.0965447 0.0152108)
(3.124 6.64272 2.54022)
(0.000136245 0.000907002 0.000221137)
(0.000191435 0.000528345 0.000302337)
(-4.05508e-07 4.78796e-06 4.37686e-06)
(403.914 627.782 31.7068)
(404.155 308.521 20.3031)
(397.413 487.754 200.8)
(290.446 489.236 198.797)
(13.6289 9.21221 3.78436)
(4.13468 3.31464 0.11404)
(75.9579 167.978 70.0978)
(1.04005 0.870922 0.280845)
(190.899 333.066 169.768)
(5.81048 3.63716 2.15222)
(189.967 290.254 93.2952)
(1.51037 4.9894 1.21751)
(0.0496743 0.0425136 0.0119971)
(0.0381612 0.0347361 0.0141315)
(0.0432251 0.242306 0.0493082)
(0.00125594 0.001507 0.000388523)
(0.522885 1.87736 0.345391)
(0.0102081 0.00954282 0.00318959)
(12.8888 24.2527 9.18406)
(0.020509 0.0861964 0.0218745)
(0.000526656 0.000643781 0.000183601)
(0.000426814 0.000648204 0.000128888)
(0.000621456 0.00407455 0.000961233)
(8.26528e-05 0.000164592 4.04329e-05)
(63.2648 236.4 116.882)
(0.145752 1.26802 0.670646)
(0.00462781 0.0198075 0.00525527)
(0.000711979 0.000884048 0.000321993)
(0.174183 0.193347 0.106436)
(7.65923e-06 5.73678e-05 2.33092e-05)
(5.3421e-05 8.46743e-05 3.85129e-05)
(1.2008e-05 3.00633e-05 8.1786e-06)
(2.82203e-07 4.23703e-06 1.47922e-06)
(1.25992e-06 3.3222e-06 1.68162e-06)
(15.7049 28.1554 4.34367)
(190.787 278.607 12.4083)
(34.3974 95.344 3.6265)
(198.605 406.852 65.1142)
(169.646 243.751 43.5173)
(25.8662 74.1601 11.6868)
(21.9644 38.6121 1.24598)
(0.0331569 0.0704224 0.0248733)
(7.16192 11.6435 4.6874)
(0.461142 2.44153 0.73224)
(2.17985 8.27032 3.11557)
(0.274767 0.574474 0.180501)
(0.860205 1.44567 0.601688)
(0.0484379 0.325779 0.103238)
(0.000205249 0.000548177 0.000110573)
(0.0111858 0.0213632 0.00299353)
(0.000544776 0.0048226 0.000696044)
(0.00675231 0.0409513 0.00703541)
(0.00052058 0.00128409 0.000184561)
(0.00464966 0.00901582 0.00223475)
(0.00021905 0.00202498 0.000330392)
(-6.52191e-07 4.16355e-06 1.35727e-06)
(8.7827e-05 0.000193321 5.34834e-05)
(3.80323e-06 4.08728e-05 9.49997e-06)
(2.09215e-05 0.00014891 4.26606e-05)
(2.76644e-06 1.25129e-05 3.21626e-06)
(1.21238e-05 3.67945e-05 1.16087e-05)
(4.89356e-07 7.01952e-06 1.92829e-06)
(6.52572e-06 0.00044777 0.000297889)
(5.97415e-07 1.33912e-05 2.99739e-06)
(-9.62026e-06 0.000106419 8.80376e-05)
(3.20262e-06 0.000144591 0.000114792)
(1.73968e-07 5.76125e-06 3.23077e-06)
(2.06653e-05 8.15605e-05 3.32218e-05)
(4.26992e-06 9.686e-06 3.51992e-06)
(1.6978e-05 8.94236e-05 5.41846e-05)
(6.41957e-07 4.61616e-06 2.62017e-06)
(521.407 465.32 99.6623)
(550.513 534.283 39.2874)
(397.905 488.697 25.5595)
(391.751 618.279 100.06)
(542.351 543.563 115.611)
(383.476 471.382 84.8559)
(530.134 465.164 31.6837)
(485.975 440.933 164.391)
(355.113 574.869 161.718)
(473.712 505.733 260.622)
(242.056 293.043 135.251)
(515.704 530.371 193.675)
(335.894 410.054 131.222)
(416.956 393.343 205.183)
(6.82092 12.9345 3.2862)
(150.364 314.08 92.1053)
(41.7776 59.8496 25.0327)
(2.86826 11.93 3.70258)
(114.615 159.527 52.5856)
(11.448 37.642 9.97687)
(1.68408 3.37043 0.995612)
(124.329 144.088 84.1318)
(402.219 459.232 277.498)
(107.892 128.468 71.1889)
(68.8107 132.656 68.5403)
(289.517 302.01 179.872)
(287.628 365.278 217.318)
(19.4226 23.1284 12.6499)
(27.0307 31.8279 15.1256)
(8.14898 21.7341 8.83113)
(45.4001 73.9578 25.304)
(0.515243 0.744089 0.192667)
(137.583 199.864 97.0048)
(2.29152 3.03056 1.29621)
(6.30193 8.0545 2.43646)
(0.00471652 0.0103842 0.00292425)
(0.209461 1.03809 0.330267)
(0.027211 0.0499048 0.0112182)
(0.00137939 0.0115064 0.00203897)
(0.110113 0.193265 0.0651076)
(0.00561817 0.0447803 0.0120131)
(0.0011953 0.00294881 0.000564337)
(1.04182 1.46781 0.356406)
(16.7705 30.2492 7.75333)
(0.203012 0.305592 0.0611611)
(0.210109 0.800301 0.152752)
(2.43752 3.3108 0.763341)
(6.82155 13.5154 3.3818)
(0.0855332 0.131776 0.0287939)
(0.388187 0.567032 0.156725)
(0.0740945 0.297907 0.0653861)
(0.726823 1.66577 0.514251)
(0.00835688 0.0137182 0.00412083)
(2.5329 5.44621 1.50564)
(0.0304718 0.0480929 0.012127)
(0.112879 0.171434 0.0556442)
(6.7819e-05 0.000186902 3.77274e-05)
(0.00233043 0.0146471 0.00293748)
(0.000409548 0.000875956 0.000257833)
(1.77388e-05 0.00018834 4.29741e-05)
(0.00160926 0.00320223 0.000667586)
(7.28023e-05 0.000699053 0.000134331)
(1.09945e-05 5.91693e-05 1.62065e-05)
(-0.0295823 8.45545 3.60321)
(-1.409 306.867 156.55)
(7.67142 30.1976 12.4881)
(19.7647 85.5612 46.1812)
(0.143471 50.5512 22.484)
(-1.64481 119.723 67.9476)
(1.05016 5.63151 2.25418)
(0.000131915 0.375347 0.149274)
(0.364929 1.61877 0.562325)
(0.0169983 2.64827 0.966202)
(0.0445951 0.259559 0.0982646)
(-0.00544053 0.902605 0.410273)
(2.08152 13.1551 6.686)
(-0.0202097 1.51526 0.859357)
(0.0065407 0.0616666 0.0298417)
(-0.252446 17.5628 9.54534)
(0.0921863 0.682636 0.290381)
(-0.000560791 0.0741036 0.0380969)
(-0.000125162 0.0391594 0.0179518)
(0.000275144 0.00270623 0.00137652)
(0.00402253 0.030234 0.013094)
(-2.14076e-05 0.00323006 0.00172687)
(0.00424824 0.00711472 0.00269147)
(0.1696 0.399733 0.127949)
(0.00176356 0.00314257 0.000961461)
(0.000749855 0.0032912 0.00100388)
(0.0256144 0.0404818 0.0132247)
(0.0290487 0.0692092 0.0243486)
(0.000261819 0.000563988 0.000199792)
(0.000553394 0.000989798 0.000416345)
(8.58635e-05 0.000414512 0.000148588)
(0.000315979 0.000904717 0.000438275)
(6.10585e-06 2.9632e-05 1.14324e-05)
(0.00356151 0.00874991 0.00358136)
(3.71198e-05 8.70578e-05 3.26549e-05)
(8.62114e-05 0.000193732 8.94896e-05)
(-4.14703e-08 8.44086e-07 3.03814e-07)
(2.31445e-06 2.02777e-05 6.55914e-06)
(3.78362e-07 2.97699e-06 1.03569e-06)
(4.54654e-09 3.29507e-07 1.03958e-07)
(1.86453e-06 7.63407e-06 2.35982e-06)
(5.2354e-08 1.12738e-06 3.34019e-07)
(-1.03399e-07 4.42424e-07 1.94151e-07)
(2.0226e-05 0.0002383 0.000121822)
(1.98488e-07 1.47874e-05 3.02201e-06)
(3.65728e-07 6.47586e-06 1.71918e-06)
(5.76802e-08 0.000272783 0.000141343)
(3.97667e-07 7.21046e-06 1.81069e-06)
(2.52819e-06 6.32079e-05 2.90803e-05)
(3.39098e-06 5.8722e-05 2.6979e-05)
(-9.0993e-09 2.61877e-07 2.20686e-07)
(2.01517e-09 1.41551e-08 9.75799e-09)
(1.06078e-08 2.1311e-07 2.06797e-07)
(5.49031e-08 6.01387e-06 5.14521e-06)
(6.89309e-09 2.87188e-07 2.05286e-07)
(8.05084e-09 2.35589e-07 2.26598e-07)
(7.64332e-10 1.1971e-08 8.5813e-09)
(2.61823e-05 8.30868e-05 3.3766e-05)
(8.16126e-07 1.01086e-05 4.1491e-06)
(2.37077e-05 0.00010993 5.55233e-05)
(1.4571e-06 9.92607e-06 3.8155e-06)
(4.31165e-07 6.05278e-06 1.51529e-06)
(7.58856e-06 6.58081e-05 2.76688e-05)
(7.29039e-07 7.45445e-06 1.83659e-06)
(-1.82672e-10 2.5568e-08 1.46606e-08)
(-6.79477e-06 4.37704e-05 5.81182e-05)
(-6.10022e-08 8.99756e-07 1.27824e-06)
(333.191 607.247 11.052)
(367.649 526.706 58.6934)
(372.388 487.228 143.86)
(357.752 424.569 176.351)
(329.825 397.188 142.21)
(224.996 277.913 140.165)
(106.07 462.775 229.148)
(2.67894 23.1286 14.4049)
(161.966 209.131 122.448)
(3.06992 4.60572 3.16508)
(0.178978 0.291198 0.225968)
(0.00156973 0.0164284 0.0068288)
(-0.147625 0.7172 0.644725)
(0.185716 1.62138 1.12463)
(-0.000259191 0.00257506 0.00286088)
(0.000258994 0.00339435 0.00354924)
(317.026 344.251 17.2259)
(310.584 723.659 15.412)
(352.706 230.939 25.2236)
(358.103 596.659 -33.9961)
(330.713 710.925 -39.6506)
(382.584 247.48 26.0693)
(280.709 331.171 23.7036)
(348.084 345.851 46.8559)
(371.533 576.916 -5.18343)
(355.716 610.637 38.9471)
(410.124 248.849 110.424)
(352.577 673.589 -19.3849)
(400.763 256.323 62.2176)
(363.974 326.816 90.1117)
(350.072 267.775 156.245)
(352.867 553.802 123.995)
(402.654 242.001 162.494)
(378.51 461.591 215.661)
(371.45 300.858 139.774)
(358.196 510.515 205.866)
(376.92 240.393 168.892)
(307.796 234.828 130.474)
(375.603 443.414 210.756)
(340.942 449.891 191.112)
(270.374 195.034 92.6007)
(352.75 474.621 214.379)
(329.145 226.346 138.754)
(260.711 205.337 93.9098)
(190.2 154.98 67.4715)
(323.543 423.846 160.727)
(218.143 161.627 67.3724)
(301.102 362.579 135.422)
(222.182 179.262 72.8396)
(306.591 399.607 149.916)
(173.411 131.935 59.1273)
(157.081 128.295 65.0949)
(269.15 324.815 138.817)
(268.771 341.216 165.08)
(78.1548 67.0077 39.0148)
(292.213 375.122 153.723)
(127.244 101.278 52.032)
(115.708 93.1467 58.0951)
(30.7142 19.7601 18.3484)
(229.218 288.96 167.444)
(36.9266 31.8988 20.1075)
(84.0259 121.195 77.3603)
(68.8108 52.9052 40.3465)
(160.515 213.528 148.472)
(12.0264 9.98198 6.58032)
(9.40603 4.93962 5.29343)
(23.6628 36.1929 23.4913)
(23.8071 24.6215 22.0435)
(0.276282 0.223574 0.177137)
(85.0509 109.179 89.8034)
(2.46675 2.02897 1.36478)
(1.45874 0.67282 0.79713)
(-25.8196 533.718 322.728)
(87.6975 539.725 272.385)
(-8.7521 515.054 262.821)
(70.3735 347.712 200.552)
(-20.385 570.829 298.873)
(70.409 505.472 292.091)
(-10.2632 397.034 233.718)
(-21.8941 437.496 294.464)
(26.0219 152.684 98.3629)
(16.8108 205.567 151.265)
(-0.743651 26.9991 17.869)
(45.7244 413.575 269.539)
(-5.76425 184.324 121.854)
(-11.0969 219.687 163.761)
(0.0227812 0.126141 0.0433422)
(2.5997 3.49981 2.45509)
(0.0182177 0.0277841 0.0151111)
(0.0108592 0.0250959 0.0162106)
(0.200214 0.363488 0.128307)
(0.189464 0.420444 0.260481)
(0.00151732 0.00677894 0.00218962)
(3.01787 26.312 20.9188)
(-0.0364478 1.88162 1.33009)
(0.00915371 0.0891034 0.0704666)
(-1.09867 30.4253 23.9721)
(0.161575 1.47333 1.30983)
(-0.0426223 1.72318 1.51655)
(-0.00157602 0.101924 0.0816903)
(-9.47297e-05 0.000749033 0.00121427)
(2.29659e-08 4.14999e-06 4.64516e-06)
(-2.51309e-07 3.23086e-06 3.71502e-06)
(-1.58815e-06 5.58351e-05 7.47232e-05)
(6.30582e-06 0.00108486 0.00166905)
(-9.49766e-06 7.76155e-05 7.9893e-05)
(-5.80773e-07 0.000106301 0.000108492)
(0.00032997 0.0095705 0.000126021)
(-8.0365e-09 1.13844e-07 3.93162e-09)
(2.80857e-06 0.000124292 2.7236e-05)
(-4.41549e-10 1.83802e-09 4.87973e-10)
(-1.12441e-08 4.68209e-07 5.80442e-08)
(-3.37729e-11 8.08718e-11 1.2022e-11)
(-6.73926e-10 3.88076e-09 8.39776e-10)
(-1.07685e-12 2.46468e-12 6.0129e-13)
(2.61261e-08 8.37553e-07 3.1764e-07)
(-8.68985e-12 2.34752e-11 5.84752e-12)
(1.40755e-14 5.59732e-14 2.62905e-14)
(-1.6611e-12 5.14962e-12 8.72082e-13)
(0.0261468 0.246535 0.00404464)
(0.000447133 0.000696727 7.85928e-05)
(0.00167235 0.0198764 0.00426756)
(0.00024567 0.000399092 6.0136e-05)
(-0.000415577 0.000437847 7.90236e-06)
(-3.03357e-07 6.50374e-07 3.56617e-08)
(-2.89759e-05 2.98097e-05 8.15266e-06)
(-6.48541e-08 1.31461e-07 1.97867e-08)
(0.000268633 0.00358019 0.000834689)
(0.000280449 0.000508882 0.000149368)
(1.51175e-06 2.43271e-05 3.56142e-06)
(3.4716e-05 9.65929e-05 1.75159e-05)
(-5.07195e-06 5.17107e-06 1.61226e-06)
(-2.73081e-09 5.36783e-09 1.81218e-09)
(6.38243e-07 1.07149e-05 1.40111e-06)
(6.46209e-06 2.213e-05 3.52633e-06)
(-2.76607e-09 3.80159e-07 8.64483e-08)
(1.4144e-06 6.68871e-06 1.29939e-06)
(-4.90135e-10 8.35006e-08 1.8407e-08)
(1.74356e-07 9.70895e-07 2.45343e-07)
(-1.27273e-10 1.57982e-09 4.56529e-10)
(1.96224e-08 1.05081e-07 3.98067e-08)
(5.54856e-09 8.1125e-07 1.15321e-07)
(-5.91495e-12 1.37727e-10 -5.92628e-14)
(6.99315e-09 1.9525e-07 6.19908e-08)
(1.92881e-10 5.49634e-09 9.21695e-10)
(7.75244e-05 0.000189363 8.87566e-06)
(-1.14343e-07 6.13295e-06 2.83602e-07)
(9.86419e-07 5.28082e-06 1.58971e-07)
(1.83815e-05 0.000707398 0.000139013)
(1.94949e-05 5.95542e-05 1.1247e-05)
(-9.48239e-08 1.33732e-06 1.77864e-07)
(3.06279e-07 2.22939e-06 3.77789e-07)
(3.1006e-06 1.28205e-05 2.9149e-06)
(-1.73534e-08 7.51894e-08 2.10929e-08)
(3.64882e-08 3.63873e-07 7.93311e-08)
(-1.86815e-08 1.04242e-06 1.40256e-07)
(4.18441e-07 2.73138e-06 4.13583e-07)
(-3.78574e-09 7.66535e-09 1.53419e-09)
(4.59097e-09 7.42293e-08 1.06559e-08)
(8.29486e-08 7.34535e-07 1.02241e-07)
(-1.33104e-09 2.33652e-09 3.86531e-10)
(1.05448e-09 2.37872e-08 3.10734e-09)
(-2.84027e-09 1.71399e-08 3.78411e-09)
(1.93139e-08 2.24064e-07 3.75105e-08)
(-3.3734e-10 5.44487e-10 1.0973e-10)
(2.43058e-10 6.65835e-09 1.06863e-09)
(2.3609e-09 3.04818e-08 7.12895e-09)
(-4.5815e-11 7.21025e-11 1.9582e-11)
(3.17075e-11 9.05401e-10 1.98008e-10)
(-2.93402e-11 1.00204e-10 2.34651e-11)
(2.76147e-10 3.20664e-09 1.01752e-09)
(-4.52551e-12 7.0485e-12 2.44253e-12)
(3.73428e-12 9.31683e-11 2.64289e-11)
(9.28076e-08 2.92924e-07 1.12978e-07)
(-4.99675e-11 2.54842e-10 7.64494e-11)
(1.55872e-09 8.5457e-09 3.30824e-09)
(1.50471e-08 1.42222e-07 4.34617e-08)
(3.37296e-10 3.50194e-09 5.25677e-10)
(0.602582 1.42359 0.174569)
(1.05735 5.60649 0.132226)
(0.0317997 0.0887123 0.00140815)
(0.0181523 0.175888 0.0183229)
(0.737947 4.08035 0.49775)
(0.022017 0.0613855 0.00671291)
(0.864587 2.03344 0.0419985)
(0.249139 0.598695 0.123869)
(0.00724658 0.0766482 0.0136656)
(0.0667656 0.51043 0.124715)
(0.00209958 0.00603725 0.00133474)
(0.292703 1.85107 0.381072)
(0.00892926 0.0249596 0.00462759)
(0.0602361 0.146373 0.0357199)
(-1.34823e-06 1.2659e-06 2.04399e-07)
(-1.60919e-05 9.43616e-06 2.32868e-07)
(-2.59613e-05 4.21518e-05 6.51881e-07)
(-0.000287311 0.000302923 4.01728e-05)
(-1.20913e-05 7.62372e-06 1.41882e-06)
(-1.77095e-05 2.87635e-05 3.74323e-06)
(-1.93037e-06 1.75138e-06 3.26748e-08)
(-5.23761e-07 4.96204e-07 1.05403e-07)
(-0.000117942 0.000122914 2.7885e-05)
(-1.14806e-06 6.87027e-07 2.79318e-07)
(-1.82638e-06 2.92057e-06 8.81903e-07)
(-4.82864e-06 2.97658e-06 1.02704e-06)
(-6.99808e-06 1.13892e-05 1.7938e-06)
(-1.31182e-07 1.15746e-07 3.95267e-08)
(0.00116806 0.00318178 0.00100174)
(0.0110361 0.0951204 0.0239949)
(0.000319532 0.0010257 0.000259825)
(3.05685e-05 0.000476582 0.000128183)
(0.00945343 0.0249577 0.0068438)
(0.00125908 0.012417 0.00357135)
(3.05654e-05 0.000154292 4.48478e-05)
(0.000182092 0.000520492 0.000124006)
(5.07418e-06 7.84117e-05 1.66244e-05)
(4.99169e-05 0.00053283 8.44289e-05)
(-1.66223e-06 1.32833e-05 2.52637e-06)
(0.000177462 0.00188172 0.000442309)
(3.275e-06 2.99774e-05 6.16072e-06)
(4.56937e-05 0.000158563 3.06538e-05)
(-3.46064e-09 2.92411e-09 1.1424e-09)
(-1.96904e-07 1.15325e-07 5.44343e-08)
(-2.98803e-07 4.80335e-07 1.35106e-07)
(-7.40837e-07 7.38195e-07 2.5355e-07)
(-2.17599e-08 1.98889e-08 7.02175e-09)
(-2.88936e-08 1.60233e-08 8.21434e-09)
(-4.72546e-08 7.2622e-08 2.20876e-08)
(7.79291e-06 3.10937e-05 7.12639e-06)
(2.10175e-05 0.000229846 3.11391e-05)
(-1.99567e-07 5.38082e-06 6.81944e-07)
(1.88693e-07 4.40739e-06 7.01931e-07)
(2.22638e-05 7.23962e-05 8.10453e-06)
(8.20016e-06 9.51396e-05 1.51322e-05)
(-5.48447e-07 2.759e-06 5.74768e-07)
(2.52217e-06 1.055e-05 1.87997e-06)
(4.42969e-08 1.4391e-06 2.69012e-07)
(5.68802e-07 8.34428e-06 1.86698e-06)
(-1.83436e-07 4.11434e-07 1.14418e-07)
(2.63093e-06 3.17724e-05 5.9334e-06)
(-2.8505e-07 1.05879e-06 2.01373e-07)
(1.22524e-07 3.47428e-06 9.45797e-07)
(-5.7922e-08 2.88302e-07 8.35928e-08)
(1.22123e-07 1.80136e-06 4.00265e-07)
(-5.27033e-08 1.10499e-07 3.04737e-08)
(-1.1635e-09 1.96817e-08 5.09635e-09)
(6.97477e-08 7.42967e-07 1.77086e-07)
(6.93047e-09 3.53957e-07 9.18001e-08)
(-2.07808e-08 3.97399e-08 1.28048e-08)
(-3.48993e-09 6.54864e-08 2.00613e-08)
(-3.31781e-10 4.51647e-09 1.27867e-09)
(-1.52567e-10 2.35753e-08 6.77155e-09)
(-2.15668e-09 4.01318e-09 1.69625e-09)
(6.32242e-10 6.89919e-08 1.90116e-08)
(-5.76603e-09 1.15492e-08 4.27472e-09)
(-7.46473e-09 3.05862e-08 1.12599e-08)
(2.09954e-09 4.25692e-08 -1.82878e-09)
(2.67373e-08 8.67858e-07 9.12711e-08)
(-9.45898e-10 4.86927e-08 4.67338e-09)
(2.83791e-08 4.93211e-07 8.70493e-08)
(2.2441e-09 5.12482e-08 2.97909e-09)
(2.30819e-08 5.51079e-07 9.24598e-08)
(1.90821e-09 3.83438e-08 -1.97113e-09)
(1.33496e-10 2.28248e-09 -1.47143e-10)
(-1.13221e-10 2.67464e-09 2.09851e-10)
(1.39172e-11 1.52213e-10 -4.20714e-12)
(2.15038e-11 3.45423e-10 -2.07651e-10)
(1.73318e-10 2.81922e-09 1.08455e-10)
(9.19295e-11 2.0057e-09 -1.6099e-10)
(1.96265e-11 3.68771e-10 -2.10368e-10)
(0.000994153 0.00364696 4.8823e-05)
(-1.25e-05 0.000363859 4.40256e-06)
(0.000227473 0.00672764 0.000640334)
(0.000658641 0.00247909 0.000278838)
(-8.69068e-06 0.000251307 2.5662e-05)
(1.70254e-05 0.00010121 1.07186e-05)
(2.91995e-05 0.000145652 2.15214e-06)
(9.41077e-06 4.1312e-05 1.02141e-05)
(-2.03519e-07 4.30973e-06 9.01262e-07)
(1.64154e-07 1.70887e-05 4.24344e-06)
(4.80971e-07 7.06526e-06 1.87099e-06)
(-5.76689e-08 6.93281e-07 2.30212e-07)
(-3.04028e-07 6.79197e-07 1.95657e-07)
(-3.24604e-07 2.37841e-06 6.38389e-07)
(-4.40658e-08 3.25871e-07 3.51397e-08)
(-5.7293e-09 2.23377e-08 2.14856e-09)
(-1.06843e-08 1.94101e-07 3.00659e-08)
(-5.97799e-08 1.9081e-07 3.82308e-08)
(-2.85031e-09 9.41508e-09 2.16019e-09)
(-2.25754e-08 3.26771e-08 8.07787e-09)
(-4.83961e-08 7.13111e-08 8.85411e-09)
(-3.46545e-09 8.20399e-09 2.07942e-09)
(-1.58121e-10 2.54535e-10 6.34822e-11)
(-3.17935e-10 1.15011e-09 2.79888e-10)
(-2.29836e-09 4.1196e-09 1.20336e-09)
(-6.08764e-11 8.42323e-11 3.21296e-11)
(-7.11075e-10 8.83104e-10 3.40862e-10)
(-1.95767e-09 2.52299e-09 6.26199e-10)
(9.27523e-08 8.30349e-07 2.92026e-07)
(-8.62094e-10 6.26077e-08 2.21701e-08)
(1.87631e-08 3.94184e-07 8.31196e-08)
(-7.01307e-09 7.59988e-08 2.96225e-08)
(9.94102e-10 2.84166e-08 4.29993e-10)
(-9.21272e-09 4.38876e-08 7.74014e-09)
(2.23259e-08 4.56983e-07 9.572e-08)
(1.87622e-11 2.55307e-10 9.40577e-11)
(-3.63665e-13 8.7377e-13 2.02821e-13)
(-1.23741e-15 7.49543e-12 2.52552e-12)
(6.17234e-12 7.97288e-11 5.56774e-12)
(3.15182e-12 3.50624e-11 7.60013e-12)
(6.32404e-14 1.81389e-12 -2.57255e-14)
(-2.32014e-14 1.08746e-12 1.08964e-13)
(4.32468e-10 1.26234e-08 7.6732e-09)
(2.33622e-11 3.99455e-10 1.70824e-10)
(4.56116e-11 4.97316e-10 3.07894e-10)
(2.51816e-12 3.50216e-11 -3.26045e-12)
(8.78117e-05 0.00283024 0.000459956)
(5.89118e-05 0.000250311 6.11699e-05)
(-1.23422e-06 2.64537e-05 6.51674e-06)
(0.000274556 0.000997634 0.00014028)
(-3.617e-06 0.000102007 1.22454e-05)
(6.16997e-06 4.06091e-05 4.62124e-06)
(-1.13224e-06 1.38446e-05 3.75598e-06)
(4.92805e-09 3.06325e-06 5.80334e-07)
(-1.29222e-07 7.19525e-07 1.25914e-07)
(-8.32396e-09 4.58849e-08 8.89596e-09)
(1.14422e-08 1.51906e-06 2.78609e-07)
(-1.77982e-08 1.24122e-07 2.12068e-08)
(-1.39062e-07 2.37956e-07 3.93275e-08)
(-5.60645e-08 9.50274e-08 2.24678e-08)
(-4.3269e-09 6.22985e-08 1.1374e-08)
(-1.77854e-08 3.51152e-08 8.85024e-09)
(-5.30953e-10 9.97829e-10 3.60842e-10)
(-2.18394e-08 7.088e-08 1.2453e-08)
(-1.21298e-09 3.19724e-09 5.09717e-10)
(-1.43853e-08 1.91411e-08 3.28674e-09)
(-5.73464e-09 7.32048e-09 2.33533e-09)
(-6.89786e-11 2.77664e-10 7.70677e-11)
(-2.29346e-10 3.98235e-10 1.40898e-10)
(-5.82448e-12 8.08599e-12 1.99189e-12)
(-3.58514e-10 8.64532e-10 2.85759e-10)
(-1.5441e-11 2.2876e-11 7.20098e-12)
(-1.99543e-10 2.56718e-10 8.85787e-11)
(-6.9306e-11 8.46528e-11 3.5561e-11)
(-1.54387e-10 4.14952e-09 1.38844e-09)
(-4.57456e-10 8.02132e-10 3.45745e-10)
(-7.01707e-12 2.31147e-10 -1.08947e-10)
(-4.93924e-10 4.78199e-09 1.84149e-09)
(5.77295e-12 1.51142e-09 4.37156e-11)
(-5.38354e-10 2.43637e-09 4.3224e-10)
(-4.16272e-10 6.66277e-10 1.66883e-10)
(1.35936e-08 1.56742e-07 3.20546e-09)
(-2.95127e-10 2.15434e-09 5.84406e-11)
(8.92032e-11 4.51376e-09 7.99268e-11)
(-3.47818e-09 2.69516e-08 4.25516e-09)
(3.79864e-09 7.22217e-08 1.14727e-08)
(-1.17143e-10 5.8075e-10 9.78139e-11)
(-7.73183e-11 2.16396e-09 3.13484e-10)
(3.00358e-10 1.05787e-08 2.09476e-09)
(-1.55661e-11 5.02798e-11 1.17141e-11)
(-6.52123e-12 2.97222e-10 5.03138e-11)
(-9.64943e-11 2.49742e-10 4.4012e-11)
(1.22575e-11 2.15653e-09 3.08121e-10)
(-4.07805e-12 9.16973e-12 1.64711e-12)
(-9.09848e-12 7.58694e-11 1.51475e-11)
(1.60748e-12 7.50741e-10 8.4461e-11)
(-1.24452e-12 2.9437e-12 3.44809e-13)
(-9.12898e-13 2.27143e-11 2.25235e-12)
(-7.99383e-12 1.82179e-11 3.31024e-12)
(-6.46413e-13 1.92206e-10 3.14249e-11)
(-3.40596e-13 7.15463e-13 1.56663e-13)
(-8.85675e-13 6.56795e-12 1.3319e-12)
(3.09352e-14 2.60508e-11 5.48553e-12)
(-3.06258e-14 8.29938e-14 1.94208e-14)
(-2.47482e-14 7.29647e-13 1.64931e-13)
(-9.62085e-14 2.17909e-13 6.36909e-14)
(-4.08345e-14 2.63506e-12 6.88108e-13)
(0 4.6222e-15 5.36788e-15)
(-1.70144e-14 9.81134e-14 2.91276e-14)
(-3.28724e-12 4.64713e-11 2.14381e-12)
(-2.37118e-13 2.31471e-12 4.3377e-13)
(-1.56223e-14 1.75529e-13 2.16134e-14)
(0 -2.46151e-15 1.25947e-14)
(1.25618e-09 2.35329e-08 1.21025e-08)
(1.26254e-08 2.00344e-07 1.71984e-07)
(3.44569e-07 1.59375e-06 4.71974e-07)
(6.10147e-06 3.79752e-05 1.28669e-05)
(5.07977e-10 9.01606e-09 5.67846e-09)
(3.63535e-07 2.81971e-06 1.53387e-06)
(6.1041e-07 5.23205e-06 3.77303e-06)
(2.5436e-08 2.21673e-07 1.47719e-07)
(9.18169e-09 1.07957e-07 4.95879e-08)
(8.44248e-09 1.26344e-07 8.94439e-08)
(-1.77449e-09 7.99032e-09 3.68617e-09)
(2.11088e-07 4.15093e-06 4.07984e-06)
(2.08623e-06 6.32842e-05 7.6576e-05)
(9.23411e-05 0.00103508 0.00123414)
(8.92356e-06 0.000100318 7.98174e-05)
(7.91897e-06 1.25286e-05 4.64941e-07)
(8.22725e-07 1.28619e-06 3.29743e-07)
(5.92211e-08 1.13095e-07 1.81456e-08)
(2.2296e-09 4.29321e-09 1.16998e-09)
(2.89044e-12 1.14285e-11 1.21894e-12)
(1.61077e-11 3.42263e-10 1.74595e-10)
(8.99955e-09 4.90262e-08 1.16716e-08)
(1.92962e-10 1.32195e-09 2.86839e-10)
(5.45047e-07 6.63243e-07 2.07929e-08)
(3.40371e-07 5.96705e-07 1.60853e-08)
(2.13938e-08 3.29694e-08 9.27523e-10)
(3.64772e-06 5.88228e-06 1.19463e-06)
(2.71804e-07 3.22442e-07 7.65249e-08)
(1.6323e-07 2.97415e-07 5.72798e-08)
(9.98437e-09 1.67335e-08 3.40809e-09)
(4.94685e-08 5.95183e-08 1.42639e-08)
(2.57964e-08 5.15774e-08 1.10724e-08)
(1.69797e-09 2.78419e-09 5.73141e-10)
(1.7749e-07 3.16596e-07 5.5507e-08)
(1.22993e-08 1.65034e-08 4.20924e-09)
(5.60383e-09 1.27213e-08 2.8158e-09)
(4.02226e-10 9.15384e-10 2.23073e-10)
(4.47212e-09 6.05803e-09 8.31611e-10)
(1.86633e-09 4.43615e-09 5.59976e-10)
(1.54495e-10 2.86785e-10 3.64095e-11)
(1.63163e-08 3.116e-08 6.3118e-09)
(1.1723e-09 1.68001e-09 5.00257e-10)
(4.95563e-10 1.17669e-09 2.77671e-10)
(3.35248e-11 8.8656e-11 2.39054e-11)
(1.56283e-10 2.1276e-10 6.80029e-11)
(6.51179e-11 1.54738e-10 3.93379e-11)
(5.00032e-12 9.59923e-12 2.92435e-12)
(2.28399e-10 4.16744e-10 1.5267e-10)
(1.42056e-11 1.97877e-11 7.59863e-12)
(6.92737e-12 1.58831e-11 5.56114e-12)
(2.44079e-13 1.49914e-12 5.52452e-13)
(-2.95071e-12 2.87977e-11 -4.56643e-12)
(9.52462e-10 8.05864e-09 4.34418e-09)
(1.36856e-10 3.46433e-09 1.3231e-09)
(1.49408e-11 2.74828e-10 1.36575e-10)
(-1.47031e-10 2.76328e-10 7.64073e-11)
(-1.70074e-10 4.24276e-10 1.29521e-10)
(-1.60994e-10 2.01769e-10 4.22919e-11)
(2.58177e-09 6.60645e-09 4.03732e-10)
(1.53809e-10 4.56125e-10 8.94753e-11)
(1.20305e-11 3.99457e-11 6.2841e-12)
(3.80136e-13 1.2429e-12 4.01424e-13)
(0 -6.69446e-15 -1.1133e-14)
(-3.8205e-14 5.45215e-13 1.61236e-14)
(0 4.4856e-15 0)
(-1.39208e-15 3.15324e-14 5.26649e-15)
(0 0 0)
(0 8.23686e-16 6.35089e-18)
(0 0 0)
(0 0 3.16014e-18)
(0 0 0)
(0 0 -3.8726e-18)
(0 0 -1.27924e-19)
(-2.10359e-14 7.08121e-14 5.79568e-15)
(0 1.09623e-16 0)
(0 0 0)
(0 0 0)
(3.73889e-08 5.67517e-08 4.14222e-09)
(3.13426e-09 5.00212e-09 1.06206e-09)
(3.2849e-10 5.59062e-10 9.82335e-11)
(1.11596e-11 1.97898e-11 7.76742e-12)
(1.88976e-11 4.45302e-10 1.06305e-10)
(2.34688e-13 7.74347e-12 9.12343e-13)
(1.70144e-15 1.23096e-13 1.11619e-14)
(0 1.55136e-16 0)
(0 0 0)
(0 0 0)
(-129.005 492.589 273.04)
(-36.7216 465.959 315.402)
(-47.5587 501.056 322.147)
(-39.3961 428.738 259.793)
(-44.4016 473.198 265.658)
(-43.3053 553.384 349.463)
(-11.9436 532.533 277.652)
(-42.187 547.298 286.235)
(-12.9671 534.855 339.082)
(2.18742e-14 1.64378e-13 2.47348e-14)
(1.12604e-13 1.15752e-12 3.42318e-14)
(1.54676e-16 1.29366e-14 0)
(7.42445e-15 1.00405e-13 2.18477e-14)
(0 0 0)
(0 6.13063e-15 4.94426e-16)
(0 0 0)
(0 0 3.92461e-17)
(0 0 0)
(0 0 -1.16769e-17)
(0 0 -3.93978e-19)
(1.74844e-11 9.07085e-11 3.66482e-12)
(1.19101e-12 7.09789e-12 1.75731e-12)
(8.80108e-14 5.78827e-13 8.79601e-14)
(2.00689e-15 1.60279e-14 4.58898e-15)
(1.07066e-25 6.14585e-16 -9.23922e-17)
(-31.8175 55.8045 74.0326)
(-9.00718e-10 1.4568e-09 3.15828e-10)
(-1.7735e-09 3.38619e-09 2.11678e-09)
(-2.08284e-08 3.74719e-08 3.68432e-08)
(-6.03086e-07 1.20412e-06 1.02325e-06)
(-2.19717e-09 2.24901e-09 1.55623e-09)
(-2.54146e-08 5.10309e-08 3.50573e-08)
(-1.80963e-09 2.89732e-09 1.43297e-09)
(-2.38149e-10 4.12698e-10 4.81303e-11)
(-2.6884e-10 3.94095e-10 1.88883e-10)
(-5.90057e-11 9.48147e-11 4.33454e-11)
(-1.48154 0.810067 0.184818)
(-0.603014 0.33227 0.124793)
(-0.000184895 0.000151335 4.60866e-05)
(-7.28591e-05 5.86688e-05 3.51066e-05)
(-9.32732e-06 7.58765e-06 2.94857e-06)
(-1.2754e-06 1.12304e-06 3.46344e-07)
(-1.45224e-07 1.12129e-07 5.58024e-08)
(-9.59294e-09 6.18975e-09 5.00149e-09)
(-6.18604e-10 3.9165e-10 3.45542e-10)
(-4.35488e-11 5.76432e-11 8.10686e-12)
(-0.000222703 0.000424403 0.000179432)
(-1.69406e-05 3.28286e-05 1.70112e-05)
(-0.00118258 0.00230608 0.000278402)
(-0.000103937 0.000220635 2.23783e-05)
(-2.2162e-05 4.28822e-05 1.45192e-05)
(-5.25158e-05 9.10852e-05 9.43584e-06)
(-1.1136e-05 2.02366e-05 6.0026e-06)
(-1.61581e-06 3.13711e-06 -2.76666e-07)
(-4.12301e-06 8.26841e-06 5.90685e-07)
(-165.42 579.597 269.045)
(-173.205 569.168 266.197)
(-159.553 717.595 254.464)
(-174.489 650.534 253.31)
(-169.005 578.916 220.548)
(-165.064 604.202 197.257)
(-217.09 664.453 363.067)
(-187.222 717.544 285.801)
(-173.823 625.894 326.126)
(-172.292 700.432 313.477)
(-217.235 649.759 345.447)
(-207.345 696.297 328.78)
(-176.443 662.551 356.448)
(-229.719 501.107 408.403)
(-194.555 537.005 447.662)
(-254.441 531.896 448.288)
(-183.144 525.231 424.46)
(-203.12 632.375 305.462)
(-177.522 685.299 301.514)
(-211.81 620.232 243.498)
(-150.17 581.374 215.308)
(-215.551 664.776 309.396)
(-167.587 658.722 310.46)
(-170.797 510.835 195.245)
(-164.442 381.768 260.877)
(-89.852 272.817 129.552)
(-150.302 442.882 305.81)
(-73.0627 181.806 85.49)
(-81.7266 228.661 74.6551)
(-192.965 560.626 178.819)
(-122.808 451.578 138.384)
(-150.239 545.686 180.408)
(-125.038 356.488 111.15)
(-168.256 490.187 160.093)
(-93.9497 330.973 107.543)
(-6.98477 21.4449 6.33248)
(-40.6342 127.257 42.8159)
(-22.8518 62.3592 20.0095)
(-15.2397 51.0981 16.7508)
(-98.2234 872.722 46.1059)
(-95.1492 725.817 230.174)
(-119.497 633.425 208.279)
(-55.6532 248.552 131.225)
(-0.000452129 0.00243104 0.00181006)
(321.13 741.865 31.1419)
(-84.6145 757.341 166.654)
(272.206 707.807 108.575)
(248.648 681.367 170.615)
(-121.837 675.454 257.956)
(207.774 608.395 204.579)
(183.772 562.14 166.431)
(-86.0835 417.645 184.885)
(105.395 369.56 151.542)
(-0.120806 0.67927 0.389136)
(38.4625 519.302 90.8877)
(7.32088 852.86 41.619)
(-75.5896 506.635 48.4682)
(-95.2308 863.374 61.4743)
(10.9837 850.94 45.0713)
(-80.3917 530.443 103.317)
(42.722 487.766 46.5318)
(-23.186 670.539 325.758)
(1.34023 733.682 209.354)
(-101.911 614.764 307.415)
(-110.232 712.114 299.63)
(2.17565 612.291 284.894)
(-21.6631 719.511 284.099)
(-112.793 669.674 344.883)
(-37.4282 436.314 136.772)
(-57.1121 646.956 210.045)
(-93.5902 516.248 155.029)
(-112.108 581.947 192.932)
(-43.0121 542.99 159.84)
(-58.4122 598.646 196.833)
(-77.2139 401.874 128.427)
(-0.696346 7.03089 3.01214)
(-35.778 297.82 155.182)
(-5.8437 29.4633 12.592)
(-16.2334 71.4981 39.2163)
(-4.73792 45.072 20.0118)
(-13.9527 106.216 60.0886)
(-0.74855 4.22409 1.78035)
(-2.06244e-06 7.18989e-05 2.91187e-05)
(-1.81192e-07 5.43798e-06 3.57143e-06)
(177.454 516.756 79.7847)