/*--------------------------------*- C++ -*----------------------------------*\
  =========                 |
  \\      /  F ield         | OpenFOAM: The Open Source CFD Toolbox
   \\    /   O peration     | Website:  https://openfoam.org
    \\  /    A nd           | Version:  9
     \\/     M anipulation  |
\*---------------------------------------------------------------------------*/
FoamFile
{
    format      ascii;
    class       surfaceScalarField;
    location    "0.00095";
    object      phi;
}
// * * * * * * * * * * * * * * * * * * * * * * * * * * * * * * * * * * * * * //

dimensions      [0 3 -1 0 0 0 0];

internalField   nonuniform List<scalar> 
26937
(
2.14958e-07
2.50892e-07
-2.59093e-06
-7.27536e-07
-5.32802e-07
1.43224e-06
2.32763e-09
-1.21797e-08
-1.78073e-07
-7.38472e-09
6.97779e-09
2.33025e-08
3.87139e-10
-5.41306e-10
1.21325e-10
9.95257e-11
-7.94785e-10
-1.03398e-08
-1.04661e-08
-6.82509e-09
-1.05054e-08
4.34497e-12
-6.44462e-12
1.54188e-12
1.22924e-12
-1.13047e-11
-7.81597e-14
1.42109e-14
1.42109e-14
-1.63425e-13
-0.000815138
1.27876e-05
-1.87877e-05
2.67904e-05
-1.62362e-05
1.33511e-05
-0.0043839
0.00189569
-0.00210652
0.00139757
0.0012501
-0.0543587
-0.0295966
-0.0023775
0.0189492
0.016327
0.0048721
-0.00650789
-0.000278264
0.00257407
0.00196922
0.00064774
-0.0721574
8.29858e-08
-5.31194e-07
1.58482e-07
-1.45882e-07
-7.66487e-08
-8.64534e-07
-7.02044e-07
-1.215e-06
7.04113e-08
-3.06745e-07
7.05708e-08
2.79159e-08
-2.95771e-08
-3.61178e-07
-2.47939e-07
-2.77126e-07
1.90046e-08
-2.87723e-07
6.94215e-08
-7.04598e-09
6.13588e-07
2.94673e-07
-5.82905e-06
-5.97292e-06
-4.12555e-06
-4.23956e-06
2.80051e-08
8.28884e-08
-6.18204e-08
3.77405e-09
8.36744e-09
-4.8992e-07
-3.24557e-07
-4.92128e-07
-3.2278e-07
2.97338e-09
4.75018e-09
-5.30214e-10
2.53205e-09
-3.64911e-09
-2.375e-08
-3.18321e-08
-3.98454e-08
-2.87166e-08
1.36276e-09
-2.10584e-10
5.04912e-10
-1.20588e-08
-1.05964e-08
-1.06622e-08
-1.35085e-08
4.62848e-11
1.21197e-10
-1.70672e-11
5.19975e-11
-8.3169e-11
2.25597e-11
-4.22773e-12
7.42517e-12
7.38964e-13
-3.33955e-13
7.95808e-13
-1.49925e-12
-6.39488e-14
1.06581e-13
2.22491e-09
-4.90635e-09
8.584e-10
-1.53833e-08
-1.93043e-08
-1.53844e-08
-1.93996e-08
1.73344e-10
4.1176e-11
-8.14779e-11
1.34222e-11
2.73559e-12
-1.3145e-12
1.84741e-13
3.55271e-14
7.69147e-09
-4.64208e-09
-5.64734e-08
-5.75481e-08
-4.21303e-08
-4.27149e-08
1.00511e-09
1.99304e-10
-1.19563e-10
2.49827e-11
-2.29505e-12
3.90799e-13
6.47873e-11
-6.74483e-10
-3.29972e-09
4.57945e-11
-1.14134e-10
2.71356e-11
1.247e-12
-1.03597e-11
7.60281e-13
-2.14584e-12
4.40536e-13
2.13163e-14
-1.49214e-13
7.10543e-15
-2.84217e-14
7.10543e-15
0
0
0
0
9.97825e-09
-8.46236e-08
1.17596e-08
-2.29256e-08
-2.40274e-07
6.71903e-09
8.68589e-10
-1.57777e-09
4.98765e-10
-2.442e-09
-5.96248e-09
-1.92951e-08
-3.59917e-09
-2.74686e-09
-3.51859e-09
-3.57782e-09
-2.71944e-09
1.87974e-11
-3.25642e-11
7.29727e-12
3.37508e-13
-5.54223e-13
1.13687e-13
-7.10543e-15
0
5.23525
1.50611
12.4288
-4.78308
6.24937e-08
5.03216e-09
1.01602e-08
-1.20963e-08
-5.27603e-08
-2.91681e-07
-3.1705e-07
-2.23503e-07
-2.25819e-07
1.48336e-08
1.04008e-09
-2.05504e-09
2.74631e-09
-1.21616e-07
-1.15892e-06
-1.8491e-07
-1.97933e-09
-6.07394e-09
-4.58741e-09
1.73699e-10
1.4154e-11
-2.1236e-10
3.36655e-11
1.27898e-13
-2.79243e-12
4.83169e-13
0.00351291
-0.0476442
-0.0252666
0.00287709
0.00743673
1.21765e-08
6.30734e-09
-1.20507e-07
1.88663e-09
-1.48396e-08
2.42294e-09
5.97534e-10
-3.78056e-09
8.99469e-10
-1.01315e-08
-3.0805e-08
-1.83527e-08
6.7196e-11
1.21858e-11
-9.6378e-11
1.88365e-11
2.16716e-13
-2.01794e-12
3.62377e-13
2.85031e-05
-4.63217e-05
-0.000245159
1.80189e-05
6.96028e-05
-9.60005e-08
-4.94767e-08
2.69419e-08
7.63707e-08
1.9336e-08
-9.37126e-07
-3.92746e-07
-3.53292e-07
-2.33296e-07
8.6353e-10
1.55548e-10
-1.25662e-09
2.45429e-10
-5.31793e-09
-4.7789e-09
-7.73825e-09
-5.46486e-09
1.93126e-11
3.01981e-12
-2.70575e-11
4.66827e-12
5.32907e-14
-4.83169e-13
7.81597e-14
2.30964e-08
1.99268e-08
-3.24464e-08
-4.03989e-07
6.68743e-09
-5.05564e-08
3.34786e-09
1.02804e-09
-5.18745e-09
1.12136e-09
-6.83801e-09
-1.58215e-07
-1.31134e-08
-1.94904e-09
-1.48676e-09
-6.00616e-09
-1.4458e-09
7.14309e-11
1.87761e-11
-9.50635e-11
1.99449e-11
1.51346e-12
3.33955e-13
-1.85452e-12
3.62377e-13
3.55271e-15
-2.84217e-14
7.10543e-15
-4.74123e-07
5.57506e-07
4.21176e-07
-1.93137e-06
-1.18432e-05
-6.83434e-07
-1.30133e-06
-1.19597e-06
-3.7671e-07
-3.72939e-07
2.67503e-07
7.29216e-09
4.08064e-09
-6.016e-09
2.88351e-09
-1.57551e-08
-4.41403e-09
-1.20568e-07
-7.30089e-09
-3.73507e-08
-1.07538e-08
-2.64274e-07
-1.57946e-08
-4.19208e-09
-4.17797e-09
-4.13301e-09
1.53783e-10
6.38849e-11
-2.37534e-10
4.70024e-11
3.43903e-12
1.22924e-12
-4.41247e-12
8.95284e-13
7.10543e-14
2.4869e-14
-9.23706e-14
1.42109e-14
0
0
0
2.84499e-09
-6.72285e-09
1.83602e-09
-6.42131e-09
-2.26223e-08
-1.44258e-07
-1.09589e-08
-3.57182e-09
-3.7303e-08
-5.03921e-09
1.26022e-10
1.01984e-10
-2.39297e-10
5.03704e-11
3.85114e-12
2.38742e-12
-5.7554e-12
1.20792e-12
9.9476e-14
4.9738e-14
-1.35003e-13
2.84217e-14
0
0
0
0
0
0
0
2.3519e-12
2.34124e-12
-4.53326e-12
9.45022e-13
7.81597e-14
6.03961e-14
-1.27898e-13
2.84217e-14
0
0
0
0
0
0
0
0
0
0
0
3.55271e-14
4.26326e-14
-8.52651e-14
1.42109e-14
0
0
0
0
0
0
0
0
0
0
0
0
0
0
0
0
0
0
0
0
0
0
0
0
0
0
0
0
0
0
0
0
0
0
0
0
0
0
0
0
0
0
0
0
0
0
0
0
1.03395e-07
1.98312e-07
1.73706e-08
-2.11518e-06
-7.99623e-08
4.65143e-09
2.81828e-10
-3.93746e-08
-2.11004e-09
6.22471e-10
-1.07065e-10
6.79243e-11
-3.88537e-09
-5.79827e-09
-4.85766e-09
-2.70717e-12
6.6791e-13
0.0112618
-0.00561398
0.0558568
-1.04686
1.40332e-08
1.05193e-09
-1.37493e-07
-7.99558e-10
1.67073e-09
1.96767e-10
-1.13953e-08
-1.39539e-08
-1.13634e-08
1.11072e-10
2.44071e-12
2.65743e-12
1.78729e-07
-3.06002e-08
4.15916e-08
-7.34966e-08
3.36514e-08
-8.39458e-07
-9.63185e-07
-8.54953e-07
-8.62469e-07
-2.58077e-08
-3.1424e-08
-2.9212e-08
1.42932e-08
-1.48692e-09
2.38107e-09
-7.90003e-08
-3.36093e-07
-2.312e-07
-7.77708e-10
-2.68689e-09
-4.74831e-09
-8.4254e-10
3.20398e-10
-7.41949e-11
5.98526e-11
-1.61293e-12
1.27187e-12
3.38772e-07
-9.67241e-08
2.13608e-08
3.78793e-08
-1.46758e-06
-1.32611e-06
-1.36871e-06
-1.41948e-06
3.1245e-08
5.08215e-09
-4.37797e-07
-4.62903e-07
-3.52838e-07
-2.07554e-09
-7.80331e-09
-7.94385e-09
-2.07394e-09
6.96211e-10
1.26317e-10
4.03091e-11
2.73559e-12
9.9476e-13
-0.140438
0.0292158
0.0681023
0.0448906
-0.0681743
1.98628e-08
-9.28743e-09
-3.74985e-07
5.90274e-09
-1.21919e-08
5.98519e-09
2.79677e-09
-4.92683e-10
6.61597e-10
-1.03632e-08
-5.64686e-08
-1.52731e-08
8.10303e-11
-1.89431e-11
1.58344e-11
-4.05009e-13
3.41061e-13
-0.109165
0.544694
0.806246
0.302243
-0.68906
2.59575e-08
-2.11858e-08
-3.12436e-07
7.72529e-10
1.21894e-08
5.92509e-09
1.47052e-09
-1.10418e-07
-1.14346e-07
-2.58753e-08
1.62629e-10
3.21521e-11
6.98464e-12
6.78568e-13
1.63425e-13
2.6591e-07
6.23107e-07
2.87277e-07
-1.21827e-06
-3.38587e-06
-5.24427e-07
-3.82876e-07
-1.20646e-07
-2.33429e-07
-1.16857e-07
-1.22145e-07
2.30469e-08
7.07258e-09
-3.66746e-07
-5.01325e-08
-1.13432e-06
-8.76375e-08
-1.83869e-08
-5.80231e-09
-4.42763e-08
-7.87308e-09
-2.84149e-09
-4.81251e-10
-6.36502e-10
-1.67162e-09
3.87558e-10
-9.74936e-11
9.83675e-11
7.4607e-12
-1.89004e-12
1.85452e-12
-3.55271e-14
3.19744e-14
2.4431e-06
-1.8416e-06
-6.57991e-08
4.23485e-07
4.81607e-09
-1.3855e-07
5.00708e-08
-1.62795e-08
-1.7036e-10
1.11795e-09
2.39947e-10
-2.47659e-08
-1.578e-08
-1.58416e-08
-2.47164e-08
1.7458e-11
3.98614e-12
4.33431e-13
7.4607e-14
7.10543e-15
-8.44807e-05
4.94184e-05
4.12921e-05
-0.000950545
2.50542e-05
-5.26498e-07
3.19485e-08
5.35662e-08
-1.158e-08
1.06228e-09
-2.28674e-10
4.26937e-10
-1.40921e-08
-2.09288e-08
-1.45222e-08
-2.04349e-08
1.71738e-11
-4.27747e-12
6.23857e-12
3.41061e-13
-7.81597e-14
1.1724e-13
0
0
-0.000754515
-3.70696e-06
2.60346e-05
8.17037e-06
-0.000408361
2.39721e-05
2.23838e-08
-1.5294e-07
8.47717e-10
-1.23648e-07
1.05793e-07
5.39131e-10
2.65219e-09
1.11657e-09
1.49576e-10
-6.55792e-09
-4.82797e-09
-6.5415e-09
-5.37569e-08
-3.58493e-08
-3.57141e-08
-5.36838e-08
4.02522e-11
1.46549e-11
1.79767e-12
7.67386e-13
2.59348e-13
3.55271e-14
3.55271e-15
0
1.80563e-08
-2.75959e-09
1.97888e-08
-3.42052e-07
-3.75105e-08
-1.1262e-06
-6.51363e-08
-1.53836e-07
-1.72205e-08
-3.14472e-07
-2.57919e-08
-4.96533e-10
-1.22216e-09
-1.26597e-09
7.30779e-10
-2.03777e-10
6.77566e-10
-8.65082e-09
-1.25872e-08
-8.82994e-09
-1.27855e-08
1.8737e-11
-4.93827e-12
1.19371e-11
4.54747e-13
-1.20792e-13
2.38032e-13
7.10543e-15
0
3.55271e-15
0
0
-3.38007e-07
9.2807e-10
6.40568e-08
4.24865e-08
-3.24213e-07
-3.28569e-07
-4.89721e-07
-4.93622e-07
1.78975e-09
1.6808e-09
1.80066e-10
-3.33997e-08
-2.22987e-08
-3.33385e-08
-1.59399e-08
-1.11073e-08
-1.11267e-08
-1.59335e-08
4.22133e-11
2.77574e-11
3.31823e-12
9.9476e-13
5.3646e-13
6.39488e-14
2.13163e-14
1.06581e-14
0
0
0
2.21988e-10
-8.15916e-11
3.13037e-10
-3.0745e-09
1.08571e-11
-3.20455e-12
1.11946e-11
3.69482e-13
-9.9476e-14
2.91323e-13
7.10543e-15
0
7.10543e-15
0
0
0
0
0
4.92321e-10
7.87658e-10
-6.21213e-09
9.23279e-11
-1.21976e-08
-1.91241e-08
-1.22153e-08
-1.91187e-08
2.28439e-11
2.48335e-11
3.04112e-12
7.81597e-13
6.35936e-13
7.81597e-14
2.13163e-14
1.42109e-14
0
0
0
0
0
0
3.55982e-12
-1.20792e-12
5.59908e-12
-5.06333e-11
1.84741e-13
-5.68434e-14
2.20268e-13
7.10543e-15
0
7.10543e-15
0
0
0
0
0
0
0
0
6.90648e-12
1.14682e-11
-9.46656e-11
1.47793e-12
3.76588e-13
4.54747e-13
5.68434e-14
1.42109e-14
1.42109e-14
0
0
0
0
0
0
0
0
0
5.68434e-14
-2.13163e-14
9.9476e-14
-7.53175e-13
0
0
3.55271e-15
0
0
0
0
0
0
0
0
0
0
0
1.13687e-13
1.98952e-13
-1.47082e-12
2.13163e-14
7.10543e-15
7.10543e-15
0
0
0
0
0
0
0
0
0
0
0
0
0
0
-7.10543e-15
0
0
0
0
0
0
0
0
0
0
-1.42109e-14
0
0
0
0
0
0
0
0
0
0
-5.5565e-05
-3.81293e-06
4.77863e-06
7.8952e-06
1.37956e-05
-0.000464089
1.63633e-06
-1.0044e-05
-2.19476e-07
3.09922e-06
5.14382e-07
-6.43326e-05
-6.41535e-10
4.84018e-09
-1.74593e-07
-1.06313e-07
-1.15057e-08
-1.69133e-08
-1.70336e-08
-6.90699e-09
-8.51419e-09
-7.29989e-09
9.01026e-09
-2.13969e-07
-2.69506e-08
-2.20113e-07
-2.72466e-08
-1.08834e-08
-2.85237e-08
-1.09028e-08
6.92204e-10
8.73968e-11
-1.65201e-11
1.58806e-12
-3.12639e-13
-7.10543e-15
1.63134e-10
1.86517e-11
2.98428e-12
3.12639e-13
7.10543e-15
0.00310752
-0.00130996
-0.0787605
0.000275831
0.00146247
-2.32188e-05
5.64617e-07
1.3722e-06
-2.08418e-05
-9.51916e-07
-9.31643e-08
1.67896e-07
-4.0807e-05
8.1966e-06
0.000110311
4.48011e-05
-8.59319e-07
-0.00313128
-4.2173e-05
-1.73254e-06
0.000110754
4.51959e-05
1.01144e-05
-0.00136805
-0.0795151
-6.52933e-05
0.00148519
0.000341304
0.0039211
0.0176106
-0.000971661
-0.0319518
0.0202106
2.00375e-07
5.90778e-07
1.43622e-06
-6.85708e-08
-1.01698e-06
-2.22272e-05
2.11705e-07
2.70215e-07
-6.04754e-06
-4.18681e-07
-2.19262e-07
0.000457771
-0.0239346
-0.00066374
-0.000572056
0.00047801
0.00561117
-0.0104597
-0.00595201
0.00387421
-0.00244287
-3.91467e-05
-2.05391e-05
8.44789e-05
3.56381e-05
2.54499e-05
-0.00129369
-0.063705
-0.000682643
0.00120359
0.000859784
0.0153236
-0.0288723
0.00652412
0.0178656
4.963e-07
1.18093e-06
-8.68913e-07
-1.91808e-05
2.18087e-07
-0.0267617
-0.0436528
0.0509113
0.0830908
0.035104
-1.68259e-07
1.352e-07
3.02532e-07
-1.25048e-07
-2.23844e-06
-1.63111e-06
-3.23335e-06
-2.29202e-06
4.37804e-09
2.69581e-09
-6.09347e-10
-4.01202e-09
-3.17448e-08
-2.32262e-08
-3.78183e-08
-2.67601e-08
1.10173e-10
-9.01395e-11
4.34497e-11
-1.70672e-11
-1.62714e-12
6.89226e-13
-3.19744e-13
3.08809e-10
-1.16917e-08
-4.26539e-11
-3.66711e-11
6.11067e-13
-7.74492e-13
-1.36088e-07
-5.7343e-07
-9.97661e-06
1.29087e-07
4.16127e-07
6.56441e-07
8.5255e-09
-4.4379e-07
-3.00099e-08
3.52274e-08
-8.0033e-09
1.10988e-09
4.48225e-10
-2.83428e-10
-9.49432e-09
-7.19626e-09
-8.17165e-09
-1.08191e-08
2.04636e-11
6.97753e-12
-4.81748e-12
9.9476e-14
-6.39488e-14
1.37778e-08
-4.01936e-08
-1.66318e-07
-5.40592e-09
5.0188e-09
-8.3778e-10
-1.01036e-07
-2.05526e-08
-1.65873e-07
-5.51679e-09
-5.95313e-09
-1.91072e-08
9.17559e-11
-2.27161e-11
1.70886e-12
-3.62377e-13
-7.10543e-15
-0.0578852
-0.0215804
0.06206
0.0378892
0.09332
-0.0450563
0.0579429
0.0948789
-0.0155022
1.38092e-07
-1.48603e-06
-4.25042e-08
8.49168e-08
2.63255e-07
-2.35406e-07
-2.6164e-06
-1.20392e-06
-2.07604e-06
-2.79795e-07
2.55451e-07
6.1167e-07
2.17575e-09
-6.72558e-06
-7.29205e-06
-4.85731e-06
-5.21673e-06
1.0189e-07
-4.31896e-10
4.77039e-09
2.26504e-09
-3.47863e-09
3.02635e-09
-2.92339e-08
-2.42026e-08
-4.10329e-08
-3.27542e-08
6.05916e-09
-5.5075e-09
4.45414e-09
-4.75535e-08
-3.34092e-08
-3.37793e-08
-4.85372e-08
-1.02176e-11
1.20881e-10
5.01004e-11
-8.02416e-11
4.76064e-11
1.61968e-10
-1.34868e-10
8.1414e-11
-2.06057e-13
8.02913e-13
-1.44951e-12
7.53175e-13
-2.55085e-12
1.15108e-12
-0.0305398
0.10008
0.0401176
-0.0265144
-1.35402e-08
8.27193e-08
6.58669e-07
-2.55779e-07
-4.18909e-06
-4.29214e-06
-5.98537e-06
-5.84631e-06
6.32384e-07
1.13811e-07
-2.52162e-07
-4.16787e-06
-3.91319e-06
-5.81911e-06
-5.44826e-06
-1.85915e-09
-1.23749e-09
-7.20447e-08
-6.47315e-08
-7.7189e-08
-8.64217e-08
1.12965e-08
-1.21032e-09
-6.05909e-08
-6.91905e-08
-7.18115e-08
-8.33911e-08
4.14226e-09
3.03846e-10
-3.87033e-11
8.9301e-11
-7.53175e-13
1.54898e-12
0
-1.42109e-14
0
0
0
-4.9738e-14
0
0
-5.68434e-14
0
0
-1.42109e-14
0
0
0
0
0
0
0
0
0
0
0
0
0
0
0
0
0
0
0
0
0
0
0
0
-1.42109e-14
-6.39488e-13
0
0
7.10543e-15
-3.15481e-12
3.55271e-15
1.42109e-14
-3.6593e-12
3.55271e-15
0
-1.00187e-12
0
0
-1.63425e-13
0
0
-7.10543e-15
0
0
0
0
0
0
0
0
0
0
0
0
0
0
0
0
0
0
-6.25278e-13
3.55271e-14
1.77636e-13
-3.29266e-11
2.06057e-13
-1.80172e-10
2.0961e-13
5.8975e-13
-2.09688e-10
2.70006e-13
2.4869e-13
-5.34612e-11
7.81597e-14
3.55271e-14
-1.28111e-11
1.06581e-14
0
-6.03961e-13
0
0
-2.13163e-14
0
0
0
0
0
0
0
0
0
0
0
0
0
0
0
1.49996e-11
-1.09396e-08
1.50671e-11
3.52074e-11
3.49516e-11
-1.27492e-08
1.8904e-11
1.79057e-11
-3.07003e-09
4.91696e-12
2.44427e-12
-7.86642e-10
1.10845e-12
2.13163e-13
-3.74669e-11
4.9738e-14
7.10543e-15
-1.46372e-12
3.55271e-15
0
-4.26326e-14
0
0
0
0
0
0
0
0
0
0
0
0
1.13015e-09
1.41564e-09
1.47988e-09
-1.95427e-07
-8.90569e-08
-3.25308e-07
-1.11169e-07
1.87077e-09
-3.46129e-07
1.73284e-09
-2.52692e-07
-1.20906e-07
-1.16548e-07
9.65812e-10
-1.36847e-07
4.30585e-10
-4.13035e-08
-3.40598e-08
-1.20954e-08
1.82453e-10
-9.62082e-09
7.26885e-11
-5.881e-09
-6.57593e-09
-5.77582e-09
1.61364e-11
-2.3594e-09
3.97193e-12
7.38964e-13
-8.27214e-11
1.3145e-13
2.84217e-14
-2.19558e-12
0
0
-4.26326e-14
0
0
0
0
0
0
0
0
0
6.15515e-06
-0.000971287
2.55453e-06
-1.28067e-05
2.29693e-05
1.5039e-08
2.18965e-08
3.71368e-08
-1.89162e-06
-3.83031e-06
-2.02692e-06
-3.45026e-06
-4.62306e-08
3.36661e-08
1.32682e-08
-8.774e-07
-7.15083e-07
-6.06385e-07
-6.78446e-07
-8.56947e-09
4.74158e-09
-1.47287e-07
8.88226e-10
1.1006e-09
-1.2674e-07
3.06557e-10
-7.87818e-09
-2.91405e-08
-4.59676e-09
-2.14383e-09
-9.71996e-09
-2.50779e-09
-3.51061e-09
4.70308e-11
-5.09247e-09
9.96891e-12
1.63425e-12
-1.08116e-10
2.27374e-13
4.26326e-14
-1.99663e-12
7.10543e-15
0
-3.55271e-14
0
0
0
0
0
0
2.36118
-13.1302
1.02532
-1.98618
6.92932
-3.37254e-05
0.00378469
0.000186669
-0.131338
0.000584192
-0.000425002
0.000512096
-0.0217322
6.7211e-05
0.000177649
-3.4816e-06
2.86916e-06
-8.25874e-05
1.88081e-07
1.18608e-06
-1.46968e-07
3.94233e-08
1.34393e-08
-9.01697e-07
-6.50454e-07
-4.15881e-07
-4.49073e-07
-1.25185e-07
-1.44969e-07
-1.15112e-07
3.51132e-09
-2.9292e-07
8.56531e-10
-1.40823e-08
-7.58277e-08
-8.72792e-09
-7.35532e-09
-1.20948e-07
-3.82602e-09
-2.8242e-08
9.5099e-11
-5.46856e-09
1.54792e-11
2.2311e-12
-6.74447e-11
2.41585e-13
4.26326e-14
-1.06581e-12
3.55271e-15
0
-1.42109e-14
0
0
0
3.76078
1.09029
-2.81522
16.1203
3.79025
1.08004
-2.91094
15.9442
6.63557
-6.04582
1.26064
13.7113
1.43452
7.20591
13.1068
-0.00516342
0.000769662
-0.0320722
0.000108604
0.000369974
-2.92244e-07
1.48597e-07
3.40926e-08
-3.48991e-06
-2.00326e-07
-1.60792e-06
-7.62451e-06
-3.48893e-06
-3.81976e-07
-5.2145e-07
6.35738e-09
1.08019e-09
-1.33122e-08
-3.42639e-07
-8.90363e-09
-8.44447e-08
-2.01979e-07
-1.08999e-08
-6.50267e-08
-6.85124e-09
1.02538e-10
-1.63075e-09
1.27827e-11
1.8332e-12
-2.18421e-11
1.66978e-13
2.84217e-14
-3.48166e-13
0
-7.10543e-15
0
1.47253e-07
-9.38605e-08
2.03068e-08
5.93131e-08
-2.60192e-06
-1.30185e-06
-2.81057e-07
-3.43306e-07
-8.63839e-08
-4.73341e-07
-2.62632e-07
3.22894e-09
4.86995e-10
-6.30667e-08
-1.07382e-08
-6.37569e-09
-2.65886e-09
-1.90007e-09
-2.03773e-08
-7.51305e-09
5.05693e-11
5.30065e-12
-2.48413e-10
8.81073e-13
7.10543e-14
-4.14246e-12
0
-5.68434e-14
0
-7.10543e-15
0
0
0
-2.84217e-14
0
0
-2.84217e-14
0
0
-7.10543e-15
0
0
0
0
0
0
0
0
0
0
0
0
0
0
0
0
0
0
0
0
0
0
0
0
0
-4.47642e-13
0
0
0
-1.84741e-12
3.55271e-15
0
-2.01084e-12
3.55271e-15
0
-5.11591e-13
0
0
-4.9738e-14
0
0
-7.10543e-15
0
0
0
0
0
0
0
0
0
0
0
0
0
0
0
0
0
0
-3.41061e-13
6.75016e-14
1.13687e-13
-2.50893e-11
1.35003e-13
-1.10603e-10
2.80664e-13
3.33955e-13
-1.20643e-10
2.70006e-13
1.35003e-13
-3.14202e-11
7.10543e-14
1.42109e-14
-2.72848e-12
7.10543e-15
0
-2.34479e-13
0
0
-1.42109e-14
0
0
0
0
0
0
0
0
0
0
0
0
0
0
0
9.34364e-12
-5.66013e-09
1.67901e-11
2.13518e-11
2.06697e-11
-6.19109e-09
1.65272e-11
7.45359e-12
-1.9285e-09
4.36984e-12
8.59757e-13
-1.30584e-10
5.54223e-13
8.52651e-14
-1.31379e-11
3.55271e-14
7.10543e-15
-6.60805e-13
0
0
-2.13163e-14
0
0
0
0
0
0
0
0
0
0
0
0
5.8261e-10
9.47868e-10
1.1951e-09
-4.41807e-08
-4.13884e-08
-5.16663e-08
-4.62469e-08
1.30422e-09
-5.61852e-08
9.74381e-10
-5.0178e-08
-4.99151e-08
-4.57188e-08
4.28287e-10
-2.01815e-08
2.50015e-10
-1.67304e-08
-1.85679e-08
-2.1539e-08
4.87219e-11
-6.505e-09
2.82085e-11
4.48352e-12
-7.30005e-10
2.05702e-12
3.05533e-13
-3.52074e-11
1.03029e-13
1.42109e-14
-1.02318e-12
0
0
-2.13163e-14
0
0
0
0
0
0
0
0
0
5.96596e-08
-1.19667e-06
-1.08446e-07
2.60628e-07
5.52669e-08
-7.9846e-08
-1.94593e-06
-7.22713e-07
-9.35436e-07
-1.42468e-07
-9.65794e-08
-9.9947e-08
-1.92045e-08
4.29997e-09
6.55338e-09
-4.79094e-07
1.14177e-08
-6.0951e-09
-1.03689e-08
9.22849e-09
-1.34874e-07
4.53003e-09
2.89721e-09
-1.91932e-07
1.44032e-09
-3.01192e-08
-1.22271e-07
-1.70875e-08
-1.25224e-09
-1.00973e-09
-8.54212e-09
-1.89839e-09
-5.68296e-09
-1.25378e-08
-5.60472e-09
-6.14129e-09
2.73943e-10
-6.96269e-09
1.11235e-10
-7.10915e-09
-5.93998e-09
-8.4335e-09
1.80833e-11
-1.68793e-09
5.50315e-12
7.4607e-13
-4.47642e-11
1.81188e-13
2.13163e-14
-9.52127e-13
3.55271e-15
0
-1.42109e-14
0
0
0
0
0
0
-0.522943
0.0119271
-0.135797
0.00912334
-0.0226907
0.0239029
-7.44103e-06
1.22705e-07
4.14793e-06
1.59361e-07
-7.96836e-05
1.46018e-06
-1.49698e-06
-3.67349e-07
9.08199e-07
-1.17009e-05
3.03397e-07
3.67025e-07
-4.13589e-07
-1.18226e-07
5.50822e-08
8.72936e-08
-2.32304e-06
-6.22698e-07
-5.85911e-07
-3.70242e-07
-2.11198e-07
-1.11485e-07
-1.05509e-07
-1.16806e-08
-4.36661e-09
7.7214e-09
-5.65236e-08
2.14228e-09
1.07304e-09
-1.45214e-08
3.11353e-10
-1.02378e-08
-1.03613e-08
-1.30452e-08
-4.21632e-09
-4.66148e-09
-4.18757e-09
-3.55733e-09
3.96128e-11
-1.49856e-09
8.43414e-12
1.0516e-12
-2.91962e-11
2.06057e-13
2.13163e-14
-5.25802e-13
3.55271e-15
0
-7.10543e-15
0
0
0
0.425059
-1.57248
-4.81356
0.225349
-0.563315
-2.80716
2.56807
-1.87483
2.23992
10.2139
-3.85313
-3.32348
2.30864
4.2649
9.22895
0.399637
-2.24706
-0.495908
0.664549
0.688499
-1.45974e-06
-1.37049e-06
4.91516e-07
-9.00899e-06
2.72392e-07
4.21882e-07
-7.89755e-08
-1.2965e-08
2.60495e-08
-1.45498e-07
5.9949e-09
1.77528e-09
3.78513e-10
-9.97035e-09
-1.37367e-08
-1.11898e-08
-9.4591e-09
-8.7037e-09
-6.33749e-09
-6.08717e-09
-6.52547e-09
4.28457e-11
-5.99123e-10
7.55307e-12
8.88178e-13
-9.64917e-12
1.52767e-13
1.42109e-14
-1.7053e-13
0
0
0
1.04323e-08
-3.66001e-08
-8.68889e-09
-1.0637e-07
3.57047e-09
1.40282e-08
1.17907e-09
2.07024e-10
-7.94364e-09
-7.16446e-09
-1.00589e-08
-3.0468e-09
-2.3108e-09
-3.04287e-09
-2.178e-09
2.35971e-11
3.91154e-12
-1.31827e-10
4.40536e-13
7.10543e-14
-2.26663e-12
0
-4.26326e-14
0
0
0
0
0
-7.10543e-15
0
0
-7.10543e-15
0
0
0
0
0
0
0
0
0
0
0
0
0
0
0
0
0
0
0
0
0
0
0
0
0
0
0
0
-1.06581e-13
0
0
0
-4.68958e-13
0
0
-3.97904e-13
0
0
-1.06581e-13
0
0
-1.42109e-14
0
0
0
0
0
0
0
0
0
0
0
0
0
0
0
0
0
0
0
0
0
-8.52651e-14
1.77636e-14
2.84217e-14
-5.13722e-12
-4.26326e-14
-2.67448e-11
6.39488e-14
8.52651e-14
-2.30642e-11
6.03961e-14
2.84217e-14
-5.31486e-12
1.42109e-14
0
-6.75016e-13
0
0
-4.9738e-14
0
0
0
0
0
0
0
0
0
0
0
0
0
0
0
0
0
0
-2.52953e-12
-1.62096e-09
3.92575e-12
4.90274e-12
4.8388e-12
-1.45057e-09
3.41061e-12
1.42109e-12
-2.95294e-10
8.81073e-13
1.84741e-13
-3.14486e-11
1.03029e-13
1.42109e-14
-2.80664e-12
7.10543e-15
0
-1.49214e-13
0
0
-7.10543e-15
0
0
0
0
0
0
0
0
0
0
0
0
-1.78709e-10
-1.12851e-07
2.33005e-10
2.85972e-10
2.7844e-10
-1.06774e-07
2.03336e-10
7.20703e-11
-1.76873e-08
5.14433e-11
9.94049e-12
-1.20618e-09
5.57421e-12
1.0445e-12
-1.32509e-10
4.51195e-13
7.10543e-14
-7.10543e-12
2.13163e-14
0
-2.20268e-13
0
0
-7.10543e-15
0
0
0
0
0
0
0
0
0
-1.44341e-08
1.61829e-08
1.42495e-08
-2.72861e-06
-4.10317e-07
-5.83364e-06
-5.89669e-07
-2.46011e-08
-1.15547e-08
-1.11358e-08
-3.64669e-08
1.43261e-08
-5.83343e-06
1.47346e-08
-2.71125e-06
-5.78981e-07
-3.95497e-07
-1.25718e-08
-1.22841e-08
-3.92175e-08
-3.01307e-08
3.51123e-09
-6.89687e-07
2.96658e-09
-2.08523e-07
-1.9279e-07
-5.35263e-08
-4.53163e-09
-3.55134e-09
-7.51255e-09
-3.81255e-09
4.90047e-10
-2.3777e-08
2.69583e-10
-5.89123e-09
-7.65776e-09
-3.95037e-09
5.53158e-11
-6.20478e-09
2.48725e-11
3.75167e-12
-3.30644e-10
1.19726e-12
1.63425e-13
-9.25127e-12
3.55271e-14
7.10543e-15
-2.20268e-13
0
0
-7.10543e-15
0
0
0
0
0
0
-0.0168424
0.000223689
-0.00035403
-0.000431735
0.000152664
0.000546209
-3.98819e-07
5.15192e-07
6.50356e-07
8.70429e-08
-9.30473e-05
-8.33089e-05
-2.61135e-05
-2.91428e-05
-3.86921e-07
-9.47483e-07
-9.51036e-07
-4.21079e-07
-4.97033e-07
2.07922e-07
1.51737e-07
-1.06306e-05
-4.08877e-06
-3.46804e-06
-1.74356e-06
-4.91435e-08
-1.07672e-08
9.54911e-09
-6.71617e-07
5.74106e-09
3.29437e-09
-1.99089e-07
1.6032e-09
-2.74006e-08
-4.90207e-08
-1.14199e-08
-4.83607e-09
-2.95533e-08
-3.35767e-09
-8.31511e-09
-1.84048e-09
-1.43449e-09
-3.17617e-09
-1.76408e-09
2.04643e-10
-1.59564e-08
6.4702e-11
8.02913e-12
-3.13825e-10
1.82609e-12
2.34479e-13
-6.46594e-12
4.26326e-14
7.10543e-15
-1.20792e-13
0
0
0
0
0
0
0.0084573
-0.0139008
-0.378092
-0.0162865
0.00586248
-1.83683
2.34516
0.557387
8.88608
0.0100227
-2.86818
-1.28579
2.55342
1.40682
3.74887
-1.42824
0.212594
0.282023
0.366843
-1.37883e-07
-1.31821e-07
9.36266e-08
3.89332e-08
-1.82466e-06
-7.46877e-07
-4.47344e-07
-3.68876e-07
-4.18764e-07
-1.4876e-07
-2.07429e-07
1.40432e-08
3.89266e-09
-2.37538e-08
-3.37133e-07
-1.36832e-08
-6.42488e-08
-3.94077e-09
-3.85375e-09
-9.85095e-09
-4.12541e-09
3.60394e-10
-8.26549e-09
7.9222e-11
9.01679e-12
-1.25731e-10
1.65201e-12
1.98952e-13
-2.30216e-12
3.19744e-14
7.10543e-15
-4.26326e-14
0
0
0
1.18589e-08
2.8978e-09
-1.73716e-07
-2.83584e-08
-1.36909e-08
-7.72558e-09
-6.86767e-09
-2.46267e-09
-2.76937e-09
-2.38782e-09
2.52811e-10
4.7315e-11
-1.53425e-09
5.41434e-12
8.73968e-13
-2.95231e-11
1.06581e-13
1.42109e-14
-5.25802e-13
0
-7.10543e-15
0
0
0
0
0
0
0
0
0
0
0
0
0
0
0
0
0
0
0
0
0
0
0
0
0
0
0
0
0
0
0
0
0
0
0
0
0
-7.10543e-15
0
0
0
-4.9738e-14
0
0
-4.26326e-14
0
0
-1.42109e-14
0
0
0
0
0
0
0
0
0
0
0
0
0
0
0
0
0
0
0
0
0
0
0
0
-7.10543e-15
0
0
-6.25278e-13
0
-2.85638e-12
7.10543e-15
1.42109e-14
-2.13873e-12
7.10543e-15
0
-6.75016e-13
0
0
-7.10543e-14
0
0
-7.10543e-15
0
0
0
0
0
0
0
0
0
0
0
0
0
0
0
0
0
0
-2.55795e-13
-1.45533e-10
5.22249e-13
5.18696e-13
5.11591e-13
-9.58877e-11
4.33431e-13
1.56319e-13
-3.51008e-11
1.20792e-13
1.42109e-14
-3.65219e-12
1.42109e-14
0
-3.12639e-13
0
0
-1.42109e-14
0
0
0
0
0
0
0
0
0
0
0
0
0
0
0
-1.2939e-11
-5.86458e-09
3.10827e-11
2.89333e-11
2.76685e-11
-3.60481e-09
2.38707e-11
8.29914e-12
-1.48551e-09
6.85674e-12
1.15108e-12
-1.81146e-10
7.67386e-13
1.06581e-13
-1.77778e-11
5.68434e-14
7.10543e-15
-6.89226e-13
3.55271e-15
0
-2.13163e-14
0
0
0
0
0
0
0
0
0
0
0
0
-8.40132e-10
1.65139e-09
1.30576e-09
-4.79206e-08
-2.1234e-08
-7.9921e-08
-2.34235e-08
1.27301e-09
-5.84769e-08
1.2027e-09
-3.77016e-08
-1.32662e-08
-1.08379e-08
4.03858e-10
-1.66832e-08
3.74836e-10
-8.90668e-09
-7.2162e-09
-6.90319e-09
6.48157e-11
-9.53483e-09
4.34888e-11
6.36646e-12
-1.20018e-09
3.56692e-12
3.83693e-13
-3.62803e-11
1.52767e-13
1.42109e-14
-8.45546e-13
3.55271e-15
0
-1.42109e-14
0
0
0
0
0
0
0
0
0
2.41139e-07
-1.21937e-05
-1.19268e-06
8.69051e-07
3.09565e-07
-3.58979e-07
-2.56532e-05
-1.69288e-06
-2.51874e-06
-2.2568e-06
-3.51364e-07
-5.1575e-07
-1.03967e-07
8.49007e-09
-1.79449e-06
2.99037e-08
-5.86851e-09
-3.01794e-08
-7.91257e-09
6.53539e-09
-2.51209e-07
9.70546e-09
4.32503e-09
3.00876e-09
-4.29631e-07
-8.06295e-08
-4.1477e-08
-1.43887e-08
-3.587e-09
-2.25007e-09
-2.21225e-08
-5.26267e-09
-5.13029e-09
-1.98279e-08
-3.67943e-09
-5.35364e-09
4.87297e-10
-1.37404e-08
2.63523e-10
-1.78272e-08
-1.72898e-08
-1.76225e-08
2.3185e-11
-1.85388e-09
8.74678e-12
7.4607e-13
-3.31326e-11
2.30926e-13
2.13163e-14
-5.8975e-13
3.55271e-15
0
-7.10543e-15
0
0
0
0
0
0
-0.728178
-0.233714
0.0950494
0.182676
0.130609
-1.83462
0.082975
0.30842
0.533459
0.00169009
-0.383981
-0.141423
0.0590265
0.0423346
0.087122
5.00714e-07
-4.30733e-07
7.9354e-07
3.78387e-07
-6.64083e-06
-1.01767e-06
-6.81642e-07
-3.52683e-07
-1.51008e-06
-2.94882e-07
-4.23161e-07
-3.264e-08
-1.45695e-08
2.14869e-08
-1.14935e-07
1.0893e-08
1.57625e-09
5.59975e-10
-1.10668e-08
-1.01637e-08
-1.09512e-08
-9.66403e-09
3.80851e-11
-9.4024e-10
1.05587e-11
8.2423e-13
-1.328e-11
2.06057e-13
1.42109e-14
-2.13163e-13
3.55271e-15
0
0
0
0
0
1.61112e-09
4.28649e-10
-1.64733e-08
2.84501e-11
6.43041e-12
-1.7431e-10
5.11591e-13
1.06581e-13
-2.72848e-12
7.10543e-15
0
-4.26326e-14
0
0
0
0
0
0
0
0
0
0
0
0
0
0
0
0
0
0
0
0
0
0
0
0
0
0
0
0
0
0
0
0
0
0
0
0
0
0
0
0
0
0
0
0
0
0
0
0
0
0
0
0
0
0
0
0
0
0
0
0
0
0
0
0
0
0
0
0
0
0
0
0
0
0
0
0
0
-2.84217e-14
0
-1.20792e-13
0
0
-1.13687e-13
0
0
-2.84217e-14
0
0
0
0
0
0
0
0
0
0
0
0
0
0
0
0
0
0
0
0
0
0
0
0
-7.10543e-15
-6.20304e-12
3.90799e-14
2.13163e-14
2.13163e-14
-5.30065e-12
3.19744e-14
7.10543e-15
-1.59162e-12
7.10543e-15
0
-1.7053e-13
0
0
-1.42109e-14
0
0
0
0
0
0
0
0
0
0
0
0
0
0
0
0
0
0
-6.53699e-13
-2.6737e-10
2.25597e-12
1.26477e-12
1.25766e-12
-2.23231e-10
1.78346e-12
4.1922e-13
-7.27596e-11
5.47118e-13
4.9738e-14
-8.2494e-12
5.32907e-14
0
-6.25278e-13
3.55271e-15
0
-2.13163e-14
0
0
0
0
0
0
0
0
0
0
0
0
0
0
0
-3.28768e-11
-9.52956e-09
1.16604e-10
6.32312e-11
6.22791e-11
-8.52531e-09
8.69669e-11
2.05418e-11
-2.54663e-09
2.95621e-11
2.75691e-12
-4.19462e-10
3.08731e-12
2.4869e-13
-3.25855e-11
2.38032e-13
1.42109e-14
-1.10845e-12
1.06581e-14
0
-2.84217e-14
0
0
0
0
0
0
0
0
0
0
0
0
-1.32219e-09
5.2157e-09
2.76356e-09
-1.24626e-07
-1.99588e-08
-1.93811e-07
-2.21203e-08
-3.61905e-08
-9.11899e-09
-1.03679e-08
-6.34096e-08
2.50294e-09
4.20864e-09
-7.19853e-09
-5.79401e-09
-5.22148e-08
-3.43448e-08
-1.92592e-07
-1.32881e-07
-2.11447e-08
-1.88169e-08
9.21666e-10
1.31329e-09
-3.26829e-08
-1.55157e-08
-8.53093e-09
-7.456e-09
-2.76783e-09
-3.18088e-09
-9.98408e-09
-4.38801e-09
1.52482e-10
-2.33904e-08
1.84603e-10
1.42322e-11
-1.67139e-09
1.45235e-11
7.53175e-13
-4.64624e-11
5.22249e-13
2.13163e-14
-1.00897e-12
1.42109e-14
0
-2.13163e-14
0
0
0
0
0
0
0
0
0
7.77796e-08
-3.07472e-07
8.43877e-08
-2.00189e-08
2.2333e-08
-2.25959e-07
-3.12981e-07
-2.37414e-07
-3.51428e-07
-3.78114e-07
-5.27939e-07
-5.18255e-07
-7.34401e-05
-6.14166e-05
-6.39164e-08
2.18646e-07
2.96e-06
4.09477e-06
2.30383e-08
-6.1698e-07
-2.26739e-08
1.4107e-08
-3.83154e-07
3.73079e-08
1.09967e-08
1.50021e-08
-2.44335e-08
-1.27619e-08
-7.49338e-08
-4.37179e-08
-8.80759e-07
-1.4482e-07
-2.16581e-08
-9.9782e-09
-6.39991e-08
-1.0727e-08
-8.12083e-09
9.43452e-10
9.96625e-10
-1.26524e-08
-8.80352e-09
-1.19378e-08
-1.16702e-08
-5.80282e-09
-5.72545e-09
-5.83331e-09
-5.46291e-09
3.97051e-11
-1.56107e-09
2.74305e-11
1.15108e-12
-2.53948e-11
6.03961e-13
2.84217e-14
-4.68958e-13
1.06581e-14
0
-7.10543e-15
0
0
0
0
0
0
3.86371e-08
7.47468e-08
-5.77922e-07
-1.82593e-07
4.77361e-08
-4.19879e-07
-5.71955e-07
-5.64211e-07
-1.31942e-07
-1.64641e-07
-1.70539e-07
-1.37823e-07
9.52052e-09
-5.61404e-08
-9.03595e-08
2.13597e-08
2.50995e-08
1.89544e-09
1.32313e-09
-1.0606e-08
-1.21435e-08
-8.56502e-09
-1.03257e-08
-9.60313e-09
-7.8804e-09
-9.61405e-09
-9.53857e-09
4.31726e-11
2.2105e-11
-3.9941e-10
9.09495e-13
3.87246e-13
-6.25278e-12
1.42109e-14
7.10543e-15
-1.13687e-13
0
0
0
0
0
0
0
0
0
0
0
0
0
0
0
0
0
0
0
0
0
0
0
0
0
0
0
0
0
0
0
0
0
0
0
0
0
0
0
0
0
0
0
0
0
0
0
0
0
0
0
0
0
0
0
0
0
0
0
0
0
0
0
0
0
0
0
0
0
0
0
0
0
0
0
0
0
0
0
0
0
0
0
0
0
0
0
0
0
0
0
0
0
0
0
0
0
0
0
0
0
0
0
0
0
0
0
0
0
0
0
0
0
0
-3.55271e-14
0
0
-7.10543e-15
0
-1.63425e-13
0
0
-1.56319e-13
0
0
-4.26326e-14
0
0
-7.10543e-15
0
0
0
0
0
0
0
0
0
0
0
0
0
0
0
0
0
0
0
0
0
-3.55271e-14
-1.84741e-12
1.77636e-14
7.10543e-15
-5.04485e-13
-1.42109e-14
-6.89937e-12
8.17124e-14
3.55271e-14
-6.48726e-12
7.4607e-14
7.10543e-15
-1.88294e-12
2.13163e-14
0
-2.06057e-13
3.55271e-15
0
-1.42109e-14
0
0
0
0
0
0
0
0
0
0
0
0
0
0
0
0
0
0
-1.67688e-12
-7.05924e-11
1.07292e-12
5.7554e-13
-2.8205e-11
-8.73968e-13
-2.29569e-10
4.21352e-12
1.64135e-12
-2.2164e-10
3.73745e-12
5.82645e-13
-6.753e-11
1.10489e-12
7.10543e-14
-8.23519e-12
1.1724e-13
7.10543e-15
-6.39488e-13
7.10543e-15
0
-2.13163e-14
0
0
0
0
0
0
0
0
0
0
0
0
0
0
0
-6.9015e-11
5.15961e-11
-1.67082e-09
2.46345e-11
-1.36458e-09
-3.66924e-11
-5.48128e-09
1.73728e-10
6.74376e-11
-5.50965e-09
1.56689e-10
2.42366e-11
-1.61268e-09
4.9063e-11
3.2685e-12
-2.74973e-10
5.64526e-12
2.98428e-13
-2.39737e-11
4.22773e-13
1.42109e-14
-8.3844e-13
1.42109e-14
0
-2.13163e-14
0
0
0
0
0
0
0
0
0
0
0
0
5.54223e-12
5.24516e-09
2.20349e-09
-1.29432e-08
-1.1877e-07
-1.45851e-08
-3.47743e-08
-8.89252e-09
-9.70919e-09
-5.06744e-08
2.07974e-09
5.25752e-09
-1.2048e-07
-8.23496e-08
-1.43551e-08
-1.27282e-08
-9.98787e-09
-9.22623e-09
-5.20936e-08
-3.37781e-08
8.02885e-10
1.5259e-09
-1.0245e-08
-5.72915e-09
-4.92987e-09
-3.65977e-09
-4.11504e-09
-1.13665e-08
-5.96077e-09
1.38279e-10
-6.22703e-09
2.65651e-10
1.36566e-11
-6.49599e-10