/*--------------------------------*- C++ -*----------------------------------*\
  =========                 |
  \\      /  F ield         | OpenFOAM: The Open Source CFD Toolbox
   \\    /   O peration     | Website:  https://openfoam.org
    \\  /    A nd           | Version:  9
     \\/     M anipulation  |
\*---------------------------------------------------------------------------*/
FoamFile
{
    format      ascii;
    class       volScalarField;
    location    "0.00185";
    object      overpressureMax;
}
// * * * * * * * * * * * * * * * * * * * * * * * * * * * * * * * * * * * * * //

dimensions      [1 -1 -2 0 0 0 0];

internalField   nonuniform List<scalar> 
13960
(
2562.4
0.00028634
0.000132225
3.38737e-06
8.20146e-08
0.000963067
3.15349e-05
8.67789e-07
0.000291551
159418
0.0128824
0.00755889
0.0520625
0.00190904
0.000129668
0.524971
0.00127156
0.00166732
0.000101926
0.0513571
0.0244072
0.00195853
35723
33.8978
10636.7
639.398
38.6086
61464.8
0.0449928
95197.3
118682
83352.6
8438.33
25604.5
10314.6
26257.6
0.0296397
0.000284994
0.000487651
0.00179741
0.00133089
0.00670901
0.00863177
0.651649
0.0331403
3.21978
2.27968
0.154772
0.151639
12.8824
8446.29
42775.3
13404.5
2354.64
944.936
3454.7
552.399
0.000975876
0.0719399
0.029163
0.00399079
0.0738453
0.34914
0.670961
0.0608499
5.45686
0.148769
0.222214
31.6838
0.0982292
1.91317
3.56711
59.0786
148.068
14.5682
228.428
8.8596
10531.4
3.87648
1570.64
0.0908766
62279.7
388.996
404.87
0.105308
4.93891e-05
0.00138409
3.30439e-06
1.00408e-08
3.98984e-07
4.74378e-05
6.97852e-07
0.000455083
9.52223e-06
2.3836e-07
6.70843e-09
5.31145e-09
8.49832e-09
4.40557e-05
1.37571e-06
4.0789e-08
1.06229e-09
2.91038e-11
8.73115e-11
1.98252e-06
6.59347e-08
2.11003e-09
0
0
0
7.1901e-08
2.51748e-09
0
0
0
0
2.19734e-09
0
0
0
0
0
0
0
0
0
0
0
0.010411
6.12896e-06
0.00027686
7.17439e-07
2.86673e-09
8.52742e-09
3.1534e-06
6.70116e-08
7.57762e-05
2.33174e-06
6.86414e-08
1.78989e-09
2.03727e-10
7.567e-10
9.56508e-06
3.37837e-07
1.09139e-08
2.76486e-10
0
0
4.31552e-07
1.64e-08
4.94765e-10
0
0
0
1.63855e-08
6.1118e-10
0
0
0
0
4.80213e-10
0
0
0
0
0
0
0
0
0
0
0
1.16371e-05
9.28412e-08
8.97708e-08
4.36557e-10
0
4.16185e-09
1.61526e-09
2.70194e-05
6.07106e-07
1.32131e-08
2.61934e-10
0
0
1.9943e-06
6.04341e-08
1.62981e-09
0
0
0
6.77537e-08
2.2992e-09
0
0
0
0
2.11003e-09
0
0
0
0
0
0
0
0
0
0
0
0
0
0
0
0
0
2.7052e-08
5.20959e-09
5.56174e-08
1.45519e-11
0
0
4.36557e-11
4.98821e-06
8.85921e-08
1.57161e-09
0
0
0
2.10246e-07
6.43195e-09
1.16415e-10
0
0
0
6.8394e-09
1.74623e-10
0
0
0
0
1.45519e-10
0
0
0
0
0
0
0
0
0
0
0
0
0
0
0
0
0
0.203894
1.81756e-05
6.1671e-08
6.8394e-10
5.82077e-10
0.0104004
1.02568e-05
8.65839e-09
0
0
0
1.51099e-05
2.10974e-07
2.91038e-09
0
0
0
4.55548e-07
8.41101e-09
1.30967e-10
0
0
0
1.14524e-08
1.74623e-10
0
0
0
0
1.74623e-10
0
0
0
0
0
0
0
0
0
0
0
0
0
0
0
0
0
1.01784
8.46635e-05
2.15591e-06
1.12428e-07
5.64614e-09
1.89175e-10
0.000320637
5.07483e-06
7.88568e-08
1.25146e-09
1.01863e-10
0
7.61067e-06
1.60464e-07
3.12866e-09
0
0
0
1.75787e-07
4.39468e-09
5.82077e-11
0
0
0
3.95812e-09
8.73115e-11
0
0
0
0
2.91038e-11
0
0
0
0
0
0
0
0
0
0
0
0
0
0
0
0
0
0.000272197
9.5654e-06
4.53336e-07
2.07947e-08
9.8953e-10
0
1.20732e-05
4.16461e-07
1.7666e-08
6.98492e-10
0
0
3.9002e-07
1.54687e-08
5.82077e-10
0
0
0
1.09576e-08
4.36557e-10
0
0
0
0
2.61934e-10
0
0
0
0
0
0
0
0
0
0
0
0
0
0
0
0
0
0
0
0
0
0
0
8.67888e-06
4.41127e-07
2.41707e-08
1.1205e-09
0
0
3.94939e-07
1.94996e-08
9.60426e-10
0
0
0
1.44937e-08
6.98492e-10
0
0
0
0
4.36557e-10
0
0
0
0
0
0
0
0
0
0
0
0
0
0
0
0
0
0
0
0
0
0
0
0
0
0
0
0
0
2.56288e-07
1.57452e-08
8.87667e-10
0
0
0
1.22964e-08
6.98492e-10
0
0
0
0
4.65661e-10
0
0
0
0
0
0
0
0
0
0
0
0
0
0
0
0
0
0
0
0
0
0
0
0
0
0
0
0
0
0
0
0
0
0
0
6.94126e-09
4.07454e-10
0
0
0
0
2.61934e-10
0
0
0
0
0
0
0
0
0
0
0
0
0
0
0
0
0
0
0
0
0
0
0
0
0
0
0
0
0
0
0
0
0
0
0
0
0
0
0
0
0
0.000519825
6.40907e-06
0.000270825
5.12008e-06
8.89195e-07
1.08266e-08
6.56684e-07
1.48284e-08
2.11003e-09
4.63187e-08
1.81899e-09
6.49015e-09
13.4153
1.38914e-06
0.000195344
6.49204
1.97251e-07
4.96367e-05
0.00370839
0.00219521
0.000149362
0.0386543
0.00148749
0.000900685
4.49974e-05
6.79892e-05
0.000627905
4.94862e-05
0.000782689
3.86452e-05
0.000350511
3.58639e-05
1.81361e-07
2.90661e-06
6.42525e-07
1.90971e-06
1.07597e-07
2.25673e-06
5.14687e-07
5.67525e-09
4.69881e-08
1.51049e-08
6.17001e-09
2.18279e-09
4.02797e-08
1.21508e-08
7.2978e-06
7.90169e-09
1.17754e-07
1.12806e-07
2.31886e-06
2.93949e-09
3.75148e-08
0.000116816
2.08842e-06
5.73797e-07
2.64728e-07
4.24916e-09
7.32834e-08
1.74623e-09
7.27596e-10
1.4843e-09
1.45519e-10
0
0.733078
4.63479e-08
9.70194e-06
0.0181854
5.82077e-11
2.55488e-07
0.000349188
0.000203667
1.03057e-05
0.000515578
2.71327e-05
8.65212e-06
6.2921e-07
1.46233e-05
0.000117738
1.08367e-05
4.47899e-06
4.16742e-05
3.98065e-06
4.24625e-08
7.28702e-07
1.94166e-07
2.20083e-07
1.29367e-08
3.49974e-07
7.24103e-08
4.65661e-10
1.44646e-08
5.07862e-09
8.44011e-10
4.36557e-11
7.65431e-09
1.8772e-09
2.08529e-07
4.80213e-10
3.3906e-09
2.47383e-10
8.14907e-09
1.45519e-10
2.03727e-10
2.23008e-07
8.90723e-08
2.89874e-08
4.65661e-10
1.05065e-08
1.74623e-10
4.36557e-11
0
0
0
2.32718e-05
0
1.22091e-08
1.73852e-07
0
4.22006e-10
9.50808e-07
2.31288e-07
2.56841e-08
3.05095e-07
4.07163e-08
8.06176e-09
2.56114e-09
1.91465e-06
1.65335e-05
2.02881e-06
7.4564e-07
8.07631e-06
8.96878e-07
5.25324e-09
1.23153e-07
3.56376e-08
3.37022e-08
1.86265e-09
6.37956e-08
1.31258e-08
0
2.18279e-09
7.42148e-10
4.36557e-11
0
1.1496e-09
2.18279e-10
2.18279e-10
0
0
0
0
0
0
5.95901e-08
0.000137841
6.46105e-09
1.45519e-11
1.03789e-05
7.34872e-09
0
0
1.13505e-09
0
2.12603e-08
0
4.36557e-11
2.76486e-09
0
0
5.79166e-09
9.31323e-10
4.65661e-10
5.326e-09
1.74623e-09
1.74623e-10
1.01863e-10
1.92462e-06
6.24012e-06
3.86019e-07
6.02701e-05
8.33911e-05
2.78023e-06
1.64437e-09
1.79716e-08
3.98722e-09
1.28929e-06
2.79833e-08
8.41101e-08
3.46336e-09
0
1.89175e-10
1.45519e-11
6.25732e-10
0
1.45519e-10
0
0
0
0
0
0
0
0
0.000846155
8.21385e-05
9.52132e-08
0.0239913
0.000875985
0.000942351
3.84063e-05
9.78747e-07
1.50903e-08
2.32831e-10
3.48654e-05
1.75853e-06
1.71014e-06
9.09786e-08
3.95812e-09
1.45519e-11
0
1.12093e-07
1.30531e-08
6.12636e-09
6.54836e-10
0.0133323
0.000282269
6.69422e-06
2.19248e-05
2.20301e-07
0.415396
0.000574798
1.14233e-08
2.4389e-08
4706.04
0.00101639
3.07195e-05
1.72795e-06
2.71291e-07
8.55653e-09
0.0260363
0.000205674
1.22583e-05
5.71206e-07
2.40543e-08
6.69388e-10
0.000120175
8.10986e-06
4.74771e-07
2.27883e-08
8.87667e-10
0
3.85687e-06
2.67406e-07
1.58907e-08
7.42148e-10
0
0
1.01951e-07
7.567e-09
3.7835e-10
0
0
0
355.668
190.062
3.44297
132.288
0.108175
1.35333
2.39531
0.0405904
26.4201
0.697453
0.0585715
0.997324
0.0122442
0.00790368
0.033542
0.00077236
0.000729644
0.00404575
3.51785e-06
0.000553133
0.000619138
2.855e-05
0.000427868
1.62362e-05
1.16236e-05
8.75676e-07
0.000502473
2.68759e-07
6.70408e-05
3.28437e-08
1.9492e-06
7.84654e-07
1.05938e-07
3.46283e-06
4.59986e-07
1.36613e-07
2.89001e-08
579.282
690.791
3.46537
0.0118333
150.58
0.145171
2.98397
0.0171583
0.0060813
0.000195716
1.06789e-05
0.0090307
0.000488445
0.000642485
3.12395e-05
2.5421e-05
5.93354e-07
3.40078e-08
2.89755e-05
3.68195e-06
1.88137e-06
2.2669e-07
0.335081
33.5742
0.00582168
0.020131
0.0133107
0.740228
0.0435792
0.00161429
0.0365576
0.00228621
0.0125261
6.14085e-06
1.66302e-05
3.73293e-06
1.14439e-06
1.3894e-06
3.14976e-07
3.86855e-06
2.33413e-08
4.35393e-08
1.40426e-08
5.09317e-09
4.58385e-09
1.4843e-09
1.53523e-08
2.1328e-05
0.000100457
0.000165825
0.000504072
9.29013e-05
0.000148449
2.36741e-05
3.37022e-06
8.61299e-07
2.16016e-05
5.70687e-06
7.74016e-07
1.99708e-05
3.72519e-06
1.49519e-05
0.000298386
4.55104e-05
6.87557e-05
6.01855e-05
0.000107582
9.79075e-06
2.31346e-06
5.52066e-06
5.6214e-07
9.56625e-06
6.68078e-07
1.3234e-05
1.54429e-06
2.77651e-08
1.35173e-07
2.57045e-07
8.31846e-07
1.24099e-07
2.30284e-07
3.09083e-08
4.49654e-09
1.20781e-09
4.20841e-08
9.16771e-09
1.00408e-09
3.65108e-08
5.28235e-09
2.12167e-08
6.63233e-07
8.97999e-08
1.24157e-07
1.02038e-07
1.68293e-07
1.61381e-08
3.46336e-09
1.41881e-08
1.35333e-09
2.24099e-08
1.25146e-09
2.62226e-08
2.80852e-09
2.32831e-10
1.89175e-10
6.54836e-10
1.58616e-09
1.45519e-10
4.94765e-10
2.76486e-10
7.91624e-09
3.33966e-07
1.60071e-09
3.98286e-08
3.04964e-07
1.35333e-09
8.68749e-09
1.01863e-10
1.38243e-09
1.45519e-10
3.34694e-10
1.16415e-10
3.49246e-10
2.91038e-11
4.07454e-09
2.0169e-08
5.07571e-08
2.32831e-10
1.61526e-07
6.25732e-10
1.22236e-09
10.8742
3.43309
2.68013
0.357668
0.11558
0.0894867
0.451595
0.000324075
1.25455e-05
3.50643e-05
1.17764e-06
1.14829e-05
2.65258e-05
0.000424296
1.4675
2.67224
0.544775
0.201186
0.0174549
0.047721
0.076261
0.000168675
6.05636e-07
2.02369e-06
4.53211e-06
6.19818e-06
1.33618e-05
5.81861e-05
3.19841e-06
2.21216e-05
4.21149e-05
5.57935e-06
2.28621e-05
5.08226e-07
2.51704e-07
5.22722e-06
8.50108e-07
8.46194e-07
1.10784e-07
3.44068e-06
2.54746e-07
6.40852e-07
5.83532e-08
9.82385e-07
7.26286e-08
1.63094e-06
1.50001e-07
4.49654e-09
4.01924e-08
8.72242e-08
1.44137e-07
9.73523e-09
1.91503e-08
3.92756e-08
6.8394e-10
4.80213e-10
1.18889e-08
1.80444e-09
1.45519e-09
1.30967e-10
6.00994e-09
2.6921e-09
7.47386e-08
9.18226e-09
1.40426e-08
1.08121e-08
2.62662e-08
1.64437e-09
3.7835e-10
1.64437e-09
1.16415e-10
2.57569e-09
1.01863e-10
3.47791e-09
2.32831e-10
0
4.36557e-11
2.03727e-10
3.49246e-10
0
0
1.01863e-10
2.91038e-11
1.20926e-08
4.36557e-11
2.47383e-10
2.76486e-10
2.03727e-09
0
0
1.16415e-10
0
0
0
0
0
0
1.45519e-11
0
0
2.32831e-10
0
0
0.136743
0.139522
0.0252393
0.00364973
0.00429813
0.0195964
0.00098269
2.60111e-06
4.88973e-07
1.06001e-06
7.9599e-09
1.40871e-05
8.41828e-08
2.04192e-07
0.00321068
0.000324118
0.00173773
0.000467997
1.93428e-05
0.000106115
4.51276e-05
3.23504e-07
9.16771e-10
8.58563e-10
2.45927e-09
1.03319e-08
2.37196e-08
3.28e-08
6.05942e-08
2.67464e-08
6.43093e-07
1.05021e-07
9.90985e-08
1.32568e-08
4.31304e-07
3.43425e-08
9.67848e-08
9.82254e-09
1.60901e-07
9.93896e-09
2.21378e-07
4.00323e-08
4.80213e-10
4.2055e-09
8.78936e-09
1.75933e-08
9.31323e-10
2.19734e-09
4.5693e-09
0
0
1.26602e-09
1.74623e-10
1.01863e-10
0
5.52973e-10
2.61934e-10
1.05938e-08
1.35333e-09
1.86265e-09
1.41154e-09
2.56114e-09
1.30967e-10
0
1.45519e-10
0
2.76486e-10
0
3.7835e-10
0
0
0
0
0
0
0
0
0
0
0
0
0
0
0
0
0
0
0
0
0
0
0
0
0
0
0
0
0
2.11441e-06
0.000125482
7.58521e-06
2.06361e-07
1.11513e-06
3.19946e-06
1.88898e-07
1.01863e-10
2.91038e-11
1.30967e-10
0
2.34286e-09
0
0
7.28178e-08
3.77724e-07
6.73026e-08
1.48138e-08
8.94943e-09
2.31084e-08
4.35102e-09
0
0
0
0
0
0
0
1.68163e-05
5.56902e-08
3.35e-07
4.39744e-07
6.11864e-07
1.46055e-06
4.00636e-06
0.000471169
8.48668e-06
0.00109854
0.00155532
4.13882e-05
8.51267e-05
0.012004
7.33417e-09
4.27826e-09
1.36788e-09
3.36004e-08
3.63798e-10
1.09227e-07
5.67525e-09
4.80213e-10
0
1.30967e-10
1.30967e-10
0
2.91038e-11
3.92902e-10
1.93744e-07
6.37636e-07
8.28555e-05
7.14077e-07
3.0807e-06
8.08504e-08
5.31094e-06
1.18453e-08
1.49885e-09
2.61498e-08
5.03787e-08
1.30967e-09
5.45697e-09
2.93076e-07
0
0
0
0
0
0
0
0
0
0
0
0
0
0
0
1.16415e-10
3.7835e-09
2.61934e-10
1.30967e-10
0
9.02219e-10
0
0
1.45519e-11
1.45519e-11
0
0
1.89175e-10
1.25001e-08
1.09576e-08
1.94705e-08
7.71252e-10
3.25963e-09
1.5425e-09
1.44064e-09
0
0
0
0
0
0
0
4.07454e-09
2.48838e-09
3.59432e-09
2.18279e-10
3.0559e-10
6.54836e-10
1.74623e-10
0
0
0
0
0
0
0
0.000135176
0.00235886
0.000159307
0.000123605
1.11834e-05
0.0001346
2.49973e-05
3.2298e-07
7.11094e-07
1.94559e-07
2.15849e-07
1.81317e-08
6.52071e-08
6.59493e-08
37.0063
5763.13
285.46
166.444
735.336
0.00682032
0.0786848
0.0311894
0.0948727
0.0074783
0.0675749
0.0143268
2.08681e-05
0.00026772
5.55908e-05
0.000574932
2.04692e-05
0.000273821
5.63731e-05
296.392
93.2448
74.133
7082.73
2328.07
1883.89
8248.34
42.335
87.1572
16.4091
4921.49
458.847
1117.92
2575.71
4.27831
5.2639
0.793295
193.943
125.606
898.819
23.7739
0.103211
0.0100138
0.0666914
26.2591
0.298839
3.1031
2.5204
5.39336e-05
0.00486746
0.000290174
0.0108671
0.0219374
0.184365
0.00138522
0.0108554
0.0174548
0.0223962
0.000236714
0.48931
0.00174432
0.000571218
1.08205e-06
1.1664e-05
1.20228e-06
0.000368889
1.36131e-05
7.49502e-05
2.45329e-05
1.6499e-07
1.51442e-07
2.6176e-07
2.01858e-06
3.16539e-06
3.53147e-06
1.92007e-06
4.95784e-08
3.04717e-08
4.6668e-08
5.72807e-07
3.52447e-07
5.60482e-07
3.78888e-07
51.3109
1899.81
206.813
9542.53
3994.5
32223.3
840.77
1.75454
0.524233
0.565442
12.0658
8.82151
0.103055
0.204436
14.7959
0.834951
2.9682
289.882
15.5602
54.5332
0.00152908
0.0422223
0.00244352
0.151001
0.0362568
0.728275
0.0107639
0.00121701
0.0111375
0.000446028
0.00600057
0.00112073
0.0129305
0.00045096
6.66024e-05
0.000213846
4.88612e-05
0.000574241
0.00261156
0.000616914
0.00158073
3.16539e-06
8.61695e-06
2.43641e-06
9.94297e-05
3.21206e-05
0.000100313
3.20609e-05
1.88928e-07
4.70289e-07
1.48138e-07
1.67667e-06
5.05791e-06
1.66532e-06
5.02383e-06
2.73911e-05
0.00118176
4.10021e-05
0.00037982
5.17294e-05
0.000397737
2.67976e-05
6.90047e-06
7.40259e-05
6.65856e-05
4.92022e-06
8.17219e-05
7.26435e-06
4.9501e-06
2.92632
105.21
10.423
0.512644
5.51364
0.167882
1.84933
3.68253e-05
5.73116e-05
283.109
3.2243e-05
8.8533e-05
1.49286e-05
4.25772e-06
1.54721e-05
1.73104e-05
0.0992223
0.00221907
27299.5
4554.67
1763.45
0.334708
0.135467
0.000101694
1.57743e-05
1.71034e-06
3.89177e-05
4.88243e-06
6.80498e-06
6.8127e-06
1.35717e-05
9.5398e-07
3.53073e-07
2.52915e-06
5.33902e-06
8.79356e-06
6.59085e-07
1.44403e-06
2.65786e-06
2.24318e-07
4.90449e-06
2.24268e-06
1.3747e-06
8.94273e-07
1.59061e-06
3.39787e-07
0.000160603
4.64837e-05
3.77235e-06
0.000296972
6.05494e-06
0.00119073
3.93035e-05
0.0043005
0.00599456
0.662364
0.0141779
0.0297916
0.000807992
0.102936
4707.56
10963.4
45059.1
69121.9
201919
119648
203594
108.946
225.198
3400.47
285.628
711.18
41.9768
16.4506
6.25732e-10
2.12458e-09
2.57569e-09
5.82077e-11
0
3.0559e-10
4.36557e-11
0.0164993
0.000368473
0.000626328
0.00044061
2.01778e-05
0.000709022
3.0632e-05
2.72135e-07
5.98622e-07
2.41271e-08
3.568e-05
1.74031e-06
1.63938e-06
1.94123e-07
4.22006e-10
9.45874e-10
1.01863e-10
8.40955e-08
6.57747e-09
9.58971e-09
1.60071e-09
0
0
0
3.34694e-10
1.45519e-11
5.82077e-11
0
0.019681
0.000876166
0.0150049
0.00117388
0.0284731
0.00135006
7.36943e-05
0.00158031
1.11908e-05
9.66264e-05
9.34755e-05
5.79185e-06
6.02873e-06
1.07022e-06
6.40383e-06
8.26796e-07
1.16893e-06
3.93367e-07
6.22967e-08
1.63433e-07
5.7611e-08
1.24375e-07
3.20142e-08
3.24799e-08
7.13044e-09
1.70257e-09
7.55244e-09
2.32831e-09
0.0104622
0.0038051
0.000384666
0.000166826
0.00292786
0.000295805
0.0134352
0.00562349
7.64334e-05
0.000568901
5.4266e-05
0.00150202
0.000152934
0.00200927
9.15383e-05
0.000133771
1.27501e-05
2.96766e-06
0.000496346
3.57888e-05
2.55718e-06
1.15173e-05
3.49042e-07
7.98551e-07
3.81115e-08
3.4534e-06
2.93134e-07
1.12757e-06
5.90808e-09
4.65516e-08
2.40107e-09
2.98314e-09
7.90897e-08
1.35042e-08
3.0559e-10
6.54836e-10
5.52973e-10
8.58563e-10
0
1.68802e-09
1.45519e-11
2.61934e-10
0
2.61934e-10
0
0
8.73115e-11
1.01863e-10
0
0
0
0
0
0
0
0
0.000119451
0.0016854
6.5921e-06
0.000114266
0.000111974
0.000739959
2.40671e-05
1.08087e-05
7.82762e-07
5.52682e-07
9.40432e-07
7.28969e-06
3.40804e-06
3.28316e-06
1.64699e-07
1.09489e-07
3.91447e-09
1.51558e-07
2.71975e-08
4.27433e-07
4.55184e-08
2.45491e-08
1.71713e-09
8.29459e-10
2.75031e-09
5.64614e-09
1.02154e-08
8.86212e-09
2.47383e-09
6.27188e-09
4.05998e-09
1.80444e-09
3.7835e-10
4.65661e-10
8.29459e-10
8.29459e-10
4.07454e-10
0
6.54836e-10
1.16415e-10
1.8772e-09
1.74623e-10
1.45519e-10
0
0
0
0
8.73115e-11
1.45519e-11
8.87667e-09
3.58414e-08
5.56465e-08
1.18908e-06
1.87196e-07
4.02011e-07
8.02829e-08
18.2556
0.145786
0.0144193
1.64403
57.759
0.54803
0.0724236
0.0225836
0.000120224
0.00117435
0.144055
0.00992709
0.00700783
0.000885509
8.62905e-05
1.32097e-05
2.1633e-05
0.000841443
0.000426091
0.000470352
0.000226086
1.97266e-06
6.07557e-07
6.16623e-07
2.85078e-05
1.21515e-05
2.16992e-05
1.22465e-05
3.59588e-06
3.73059e-05
2.51293e-06
2.1082e-05
3.97503e-06
3.52038e-05
1.89242e-06
2.452e-08
5.4788e-08
4.04252e-08
3.57599e-07
2.35479e-07
3.9069e-07
1.91925e-07
0.0990763
0.0123743
0.261909
0.00111826
0.023516
0.00128745
0.00959061
0.052719
0.905161
0.108648
2.18065
0.721217
6.32243
13.0554
4.1357e-06
9.25109e-07
1.02955e-07
1.90822e-05
1.34506e-06
3.47791e-07
4.03088e-08
2.17959e-07
4.48199e-08
5.16593e-09
1.3769e-07
1.56724e-08
2.54659e-09
6.98492e-10
6.8394e-10
4.36557e-11
4.36557e-11
1.45519e-10
7.27596e-11
0
0
0
0
0
0
0
0
0
0
0
0
0
0
0
0
5.39016e-05
1.91858e-06
5.5501e-08
1.32422e-09
1.02598e-05
3.7573e-07
1.17143e-08
2.61934e-10
1.62766e-06
4.80068e-08
1.25146e-09
0
2.01195e-07
4.9622e-09
8.73115e-11
0
4.45056e-07
8.70205e-09
1.16415e-10
0
0.00110436
0.000272397
5.08508e-05
7.77162e-06
2.15766e-05
0.000242324
5.14496e-06
1.03988e-07
2.11003e-09
0
0
8.33778e-06
2.19588e-07
5.58794e-09
1.01863e-10
0
0
7.14007e-06
2.48401e-07
7.85803e-09
1.74623e-10
0
0
0
1.81957e-07
7.33417e-09
2.03727e-10
0
0
0
0
4.5693e-09
1.45519e-10
0
0
0
0
0
574516
654799
310318
5.17496
816275
17924.8
0.0207111
1.3099e+06
2775.87
4620.39
633216
0.160407
0.0147294
681746
557.338
0.000669248
1.19542e+06
21.3272
145155
1810.46
334265
0.0845999
0.000614326
19953.8
0.0556515
6.71676e-05
185347
0.0338808
72.8483
25.0994
293885
311.353
0.00463331
0.000175239
44399.7
2.45605
0.00209943
8.10965e-06
144072
0.635638
0.242717
0.00932563
0.000488398
1.84506e-05
196702
134.877
0.0142599
0.000118797
9.80901e-07
56363.3
0.0190858
0.00081762
3.81574e-05
1.31047e-06
157.753
0.011347
0.000162315
4.60673e-06
1.3641e-07
0.000836662
4.32036e-05
1.79256e-06
6.20348e-08
0.00297792
0.000174763
6.42346e-06
2.36963e-07
7.85803e-09
8.43946e-05
5.24151e-06
2.40354e-07
9.72068e-09
3.0559e-10
1.44653e+06
1.3822e+06
201114
1.33479e+06
180418
783172
47565.6
1.2657e+06
41817.8
1.45351e+06
1.35974e+06
285947
1.23481e+06
91010
42.4903
1.35484e+06
1.07455e+06
1.3183e+06
1.09965e+06
26352
651356
69.9384
0.286759
213890
632368
142164
11131.9
515870
206.848
2.46389
91017.1
4.55884
15.6647
0.162016
7.5955
0.0654675
795025
734777
542.832
5.08893
19.1214
225757
353591
357594
177840
281913
145.858
51.7634
52706.7
6.94648
1153.81
0.507322
9.40478
0.0128219
0.0442892
0.284218
0.0030142
0.0978677
0.00594108
0.00242111
0.000466913
584049
386966
127.482
17.114
6.75207
0.00203652
0.000291302
359930
1262.92
7.41189
1.16478e+06
1.28977e+06
1.14184e+06
11787.7
1.21292e+06
11456.3
172689
29.0852
474092
31.8044
945538
1.12354e+06
753916
6856.48
12444.4
375.349
9213.18
4752.92
260.47
0.0227727
0.0218062
0.00105597
2918.61
47875.1
15.4959
2558.15
235.189
1585.03
0.407655
0.204942
1.06678
0.0451503
0.343815
0.0238896
0.0706106
0.00402574
0.00116539
0.00222074
0.000140764
0.00160527
0.000578778
0.000247769
4.84227e-05
2975.41
3048.38
1.42378e+06
1.42761e+06
1.41256e+06
1.4069e+06
1.39273e+06
1.40368e+06
1.10062e+06
1.34826e+06
1.16071e+06
1.31694e+06
1.33546e+06
1.13296e+06
1.13542e+06
1.03023e+06
1.29688e+06
1.28428e+06
998864
1.32297e+06
1.08459e+06
901717
1.42874e+06
1.39731e+06
1.26459e+06
1.04563e+06
1.1052e+06
108045
180520
605061
12586.1
728360
28972.4
71346.7
1.38361e+06
1.32724e+06
1.35845e+06
1.2663e+06
920304
1.23815e+06
1.27378e+06
1.21726e+06
7350.06
396066
3503.27
5211.63
31531.8
156023
635.409
975630
91717.5
412181
398333
360258
1.16546e+06
135225
1.02962e+06
33758.3
690615
340167
1.11893e+06
231187
99430.9
921954
641398
20783
31717.2
6104.59
49.3472
5156.35
1264.36
136842
1084.06
36.2192
22917.2
2866.27
5056.47
694.206
1118.58
153.567
1.77814
207.39
2.19389
0.271951
46.3799
6.67654
0.180936
1.16144e+06
259268
851565
1.16805e+06
223061
825185
15812.3
14095.4
270590
0.370239
188.845
0.577323
0.300001
6.34018
10.5602
0.0350997
525.113
0.633055
16.5167
195767
161408
842749
25299.2
553140
26891.4
235617
255627
305123
33019.4
225745
97409
57655.2
1510.18
720.703
2212.5
4809.17
21855.6
9731.53
137.082
15557.6
3242.3
1810.77
1066.73
2026.69
109.795
8.66581
3.56531
159.941
0.296816
63.4157
0.607208
5.79857
22.3486
99.6893
48.9409
0.616823
339.509
6.14462
3.22235
1.42227
0.0308033
0.0811185
0.0498512
0.152155
0.363255
0.255633
0.0435023
0.224136
0.0144668
0.0196276
0.0567084
0.0779244
0.00345433
0.0137738
0.00407541
0.0208149
0.000610176
0.0266639
0.00128619
0.0057192
1.04327e+06
69878.9
414793
48067.5
351385
2555.7
2461.28
40853.9
422.52
0.531618
12.3973
152.546
0.355412
8.24602
0.0195162
0.0197078
0.40374
0.00114654
6.61245e-05
0.000153584
102062
668352
72433
47087.7
234757
275387
12043.9
146.331
132041
824092
53859.3
252223
794642
45320
142929
897.189
707.868
2618.88
7.88615
26078.3
81.3252
85.655
493758
626690
330343
641848
457686
620011
145021
1.85918
247.81
7.41246
2346.07
0.315904
101.653
2.89043
0.0995639
9.56905
0.0771134
1.38016
0.0254768
0.2979
0.0106807
524892
567914
396068
347790
405999
196972
15.3723
156417
9.10704
1434.02
0.612999
59.1875
0.243988
0.00279279
0.0282628
0.000928572
0.0080984
0.000667417
0.00175611
9.74618e-05
4932.22
228025
198.539
7571.72
31.2484
4486.49
1.22183
0.208151
11.6257
0.0995972
2.02214
0.0683115
0.412743
0.0242971
0.00039871
0.000260316
2.83955e-05
0.00053364
0.000210672
4.10629e-05
8.41233e-06
1.19411e+06
855436
1.10939e+06
686535
1.02352e+06
603061
377924
889674
239099
39584.5
692943
255591
10220.8
101054
287563
594294
48199.9
522600
2209.86
555616
111.064
4.40785e-05
1.27128e-05
2.92309e-06
8.03998e-05
1.7261e-05
5.793e-06
1.1472e-06
20.9679
1.30152
0.00420124
0.000101504
2.71054e-06
1.03892e+06
1.38517e+06
982109
993228
2.03557e+06
985362
621158
1.14553e+06
874899
1.06865e+06
981594
1.79395e+06
403520
576846
617575
1.01493e+06
1.05524e+06
1.44741e+06
292754
466270
411146
139.651
590.661
9629.36
0.0138869
0.174326
0.000448316
3.04269e-05
1.53895e-06
6.55127e-08
2.35741e-09
0.000764489
1.30474e-05
8.96951e-07
4.74101e-08
2.08092e-09
0
2.47435e-05
2.5286e-06
1.62603e-07
7.91624e-09
3.0559e-10
0
3.27229e-07
2.36469e-08
1.28057e-09
0
0
7.11996e-07
6.966e-08
4.43833e-09
1.45519e-10
0
0
1.23631e+06
1.90496e+06
1.07166e+06
1.02194e+06
1.84812e+06
945060
1.79978e+06
996085
934900
1.72286e+06
2.28007e+06
2.08572e+06
1.8649e+06
994800
1.82911e+06
1.00117e+06
983704
1.71482e+06
830050
1.69918e+06
1.24867e+06
509569
1.58691e+06
2.00912e+06
1.73579e+06
1.55399e+06
1.18629e+06
1.62879e+06
564783
842877
1.00557e+06
1.51351e+06
1.61282e+06
1.12894e+06
1.81459e+06
1.98894e+06
1.77595e+06
2.52951e+06
2.45293e+06
1.61004e+06
1.71659e+06
1.54409e+06
2.00071e+06
1.81788e+06
1.3085e+06
1.33723e+06
1.17832e+06
1.30754e+06
915138
11088.9
1.62067e+06
1.59728e+06
1.99381e+06
1.88216e+06
1.60162e+06
1.97182e+06
1.61228e+06
1.65263e+06
2.06723e+06
2.04432e+06
1.67553e+06
1.62964e+06
1.8632e+06
1.62746e+06
1.96371e+06
1.60866e+06
1.95945e+06
1.65263e+06
1.53349e+06
1.57349e+06
1.67924e+06
1.77532e+06
1.5738e+06
1.65478e+06
1.53673e+06
1.48254e+06
1.55795e+06
1.53734e+06
1.49039e+06
1.53616e+06
1.75109e+06
1.59245e+06
1.60427e+06
1.57693e+06
1.62964e+06
1.54333e+06
1.47757e+06
1.49387e+06
1.5171e+06
1.47302e+06
2.5406e+06
2.22434e+06
2.47579e+06
2.59823e+06
2.6645e+06
2.15747e+06
2.33305e+06
2.40276e+06
1.62145e+06
1.59043e+06
1.93057e+06
1.67144e+06
1.72696e+06
1.50401e+06
1.54988e+06
1.83211e+06
2.10347e+06
1.74852e+06
2.11017e+06
1.79e+06
1.67585e+06
1.96884e+06
1.80651e+06
1.71625e+06
1.72829e+06
1.94766e+06
1.87067e+06
1.97169e+06
2.06077e+06
1.84925e+06
1.81936e+06
1.77177e+06
1.72558e+06
1.84556e+06
1.74628e+06
1.90961e+06
1.80164e+06
1.56377e+06
1.62429e+06
1.58161e+06
1.67664e+06
1.55352e+06
1.65295e+06
1.55413e+06
1.46797e+06
1.46637e+06
1.47013e+06
1.43724e+06
1.55639e+06
1.64003e+06
1.62973e+06
1.46838e+06
1.65696e+06
1.51669e+06
1.52202e+06
1.45076e+06
1.35342e+06
1.4029e+06
1.36077e+06
2.25472e+06
1.92408e+06
2.1715e+06
2.17832e+06
2.3336e+06
1.83739e+06
1.94427e+06
2.07127e+06
1.45256e+06
1.3987e+06
1.63986e+06
1.39836e+06
1.47503e+06
1.26828e+06
1.33575e+06
1.64082e+06
1.84984e+06
1.77176e+06
1.69966e+06
1.62836e+06
1.66441e+06
1.7443e+06
1.5227e+06
1.73588e+06
1.56788e+06
1.6174e+06
1.47848e+06
1.39223e+06
1.5438e+06
1.29011e+06
1.48803e+06
1.37965e+06
737582
1.28661e+06
1.31773e+06
1.48129e+06
1.13271e+06
1.02679e+06
1.56973e+06
1.40136e+06
1.41401e+06
1.42017e+06
1.41407e+06
1.17598e+06
1.79824e+06
1.48408e+06
1.64652e+06
1.48642e+06
1.64655e+06
1.36146e+06
1.36549e+06
1.50315e+06
473936
1.15464e+06
886448
698008
1.08336e+06
1.17759e+06
1.0745e+06
1.29265e+06
987516
1.11358e+06
1.01737e+06
716418
890143
685055
908036
698828
844154
676802
942511
1.09648e+06
886841
842404
717498
884901
718751
688573
821579
644802
698698
606135
661500
619870
613606
597103
555846
499253
395268
479256
473139
603379
345838
409351
345801
372814
260666
374051
238706
383988
308.602
0.415349
0.0056085
0.00473175
0.000353035
0.000251833
1.37522e-05
6.01051e-06
289350
276655
204440
362739
138073
261585
181863
179790
343519
245697
239699
354613
102966
164394
112383
331913
226315
233271
305202
652988
466798
843853
614329
92850.7
410868
820532
363355
289924
773672
336970
524067
1.25379e+06
3.09926e+06
2.83455e+06
2.21202e+06
1.41563e+06
2.14661e+06
2.16258e+06
2.8773e+06
2.2261e+06
2.10985e+06
2.42949e+06
1.95398e+06
1.42244e+06
1.5945e+06
494154
1.22349e+06
372461
667873
1.25866e+06
1.46578e+06
823498
2.81577e+06
3.01502e+06
2.74103e+06
2.75833e+06
1.9922e+06
1.20864e+06
364647
288933
54943.4
1.64515e+06
1.66475e+06
2.07456e+06
2.12649e+06
1.68149e+06
2.05378e+06
1.63296e+06
2.12178e+06
1.70118e+06
1.68498e+06
2.93781e+06
1.77587e+06
2.25509e+06
1.8632e+06
2.21577e+06
1.85191e+06
1.88825e+06
2.61508e+06
1.74711e+06
1.77838e+06
1.58644e+06
1.5984e+06
1.24768e+06
1.40994e+06
1.78618e+06
851690
1.02838e+06
1.15867e+06
1.0794e+06
957231
849652
1.03384e+06
738765
908318
484289
858209
634152
949972
618877
1.0475e+06
1.00619e+06
707490
1.47609e+06
1.28243e+06
1.30236e+06
1.10944e+06
1.02976e+06
1.16828e+06
1.35178e+06
2.20873e+06
1.27945e+06
2.25343e+06
3.39222e+06
3.17539e+06
1.14294e+06
2.34148e+06
1.01943e+06
2.21479e+06
3.15958e+06
2.67965e+06
1.01593e+06
2.02835e+06
739179
1.40106e+06
2.41538e+06
1.68019e+06
1.76172e+06
1.6991e+06
2.26576e+06
2.19079e+06
1.72266e+06
2.25176e+06
1.72934e+06
1.76014e+06
2.19102e+06
1.73147e+06
2.33957e+06
1.72306e+06
2.25774e+06
1.76277e+06
3.68873e+06
3.29954e+06
3.58969e+06
3.22138e+06
3.49624e+06
3.51619e+06
1.87321e+06
1.8024e+06
2.44783e+06
2.38103e+06
1.82643e+06
1.87534e+06
2.48657e+06
1.84827e+06
2.33773e+06
1.81102e+06
2.26818e+06
1.8781e+06
2.4257e+06
1.75175e+06
3.49968e+06
3.07317e+06
3.39818e+06
2.90899e+06
2.91282e+06
3.19701e+06
1.41546e+06
1.67899e+06
2.03876e+06
1.8148e+06
1.59458e+06
1.50444e+06
1.78809e+06
1.24356e+06
1.60189e+06
1.16622e+06
1.33222e+06
1.32698e+06
1.54724e+06
1.0893e+06
2.59977e+06
2.15597e+06
2.29072e+06
1.90914e+06
1.70982e+06
1.99128e+06
316029
466760
384748
641993
406210
669678
442856
1.16214e+06
702601
659484
1.15265e+06
822714
711884
956609
527508
587951
560814
578008
511249
602597
395195
980524
1.15975e+06
984640
1.11365e+06
983216
1.10855e+06
983640
794946
656359
798527
665942
818137
820095
667228
1.3377e+06
1.42742e+06
1.38103e+06
1.21908e+06
1.30341e+06
1.25638e+06
1.26635e+06
955354
761532
730383
709656
728897
1.00481e+06
924114
1.31219e+06
1.30878e+06
1.29101e+06
1.37168e+06
1.47948e+06
1.44077e+06
1.41099e+06
1.00405e+06
1.09367e+06
986362
1.15698e+06
993340
1.1022e+06
985190
664417
686192
838303
657319
807464
826894
673879
594639
588007
552421
567210
563814
518256
512565
1.32536e+06
1.24028e+06
1.21534e+06
1.18423e+06
1.15232e+06
1.21606e+06
1.12892e+06
1.13695e+06
1.28804e+06
1.24554e+06
1.3385e+06
1.29276e+06
1.17846e+06
1.22284e+06
1.31444e+06
1.21167e+06
1.30634e+06
1.33298e+06
1.30238e+06
1.39087e+06
1.32134e+06
534567
567613
503634
582005
543437
563378
507498
1.13401e+06
1.01458e+06
1.02118e+06
981371
1.08178e+06
1.06675e+06
985192
325332
381608
393916
510226
387674
479326
350795
864243
679473
702248
863583
703727
851460
723794
1.11161e+06
1.19024e+06
1.0526e+06
1.04338e+06
1.14499e+06
1.01372e+06
1.15622e+06
1.2163e+06
1.25567e+06
1.15962e+06
1.1874e+06
1.07742e+06
1.15029e+06
1.10466e+06
543210
518324
534061
473652
491097
484070
466211
1.12792e+06
1.09305e+06
1.2675e+06
1.23567e+06
1.19684e+06
1.29118e+06
1.26692e+06
1.00789e+06
1.03483e+06
1.00116e+06
936565
912618
906815
931957
1.05297e+06
914365
958303
977680
1.04623e+06
953996
908567
914309
718287
701294
698195
610813
699171
887552
581987
526879
521138
505724
577815
593957
502249
1.30137e+06
1.05073e+06
1.30624e+06
1.09852e+06
1.32453e+06
1.21667e+06
1.31897e+06
819125
688720
828283
828549
702673
815779
690196
1.03929e+06
978502
949801
1.07621e+06
1.01619e+06
982780
1.11619e+06
1.08266e+06
1.01268e+06
1.06886e+06
967156
1.11132e+06
986902
1.04794e+06
1.31245e+06
1.02812e+06
1.3031e+06
1.03233e+06
1.03334e+06
1.29986e+06
1.32503e+06
495240
449049
469267
507387
523311
476552
457927
1.27078e+06
1.17209e+06
1.29511e+06
1.12701e+06
1.28824e+06
1.04414e+06
1.26561e+06
1.11795e+06
1.02116e+06
1.01402e+06
1.02468e+06
960242
973369
1.04749e+06
1.02704e+06
895896
945612
968133
1.03762e+06
950439
902606
906948
971373
880835
1.02339e+06
989074
896288
921787
569809
390980
602408
545917
611726
391688
388254
897874
729655
818086
795420
869652
870058
743885
1.17442e+06
1.26019e+06
972224
945007
1.00281e+06
1.13481e+06
1.2328e+06
812620
705904
836354
831959
706131
813998
695885
569346
589297
569603
496019
494935
491903
496151
170731
21142.8
299788
363816
79146.4
342103
1778.98
978824
948022
971331
874528
890118
883295
867750
841928
887465
954458
948813
862515
924050
864123
918832
930575
997559
1.05068e+06
944817
959605
1.02411e+06
931323
1.0134e+06
926361
887395
996524
939638
877011
822712
519440
732829
724008
552318
516077
615979
488034
482074
468712
458525
439858
463019
431074
506179
583433
494131
594111
574024
491149
499379
501426
489046
481027
457579
450265
440527
433692
1.02843e+06
1.02062e+06
1.24257e+06
1.00509e+06
1.21473e+06
1.00942e+06
1.21639e+06
840990
810107
718605
721219
839666
806446
731587
943171
846513
859804
937795
959071
873304
858654
1.28054e+06
995908