/*--------------------------------*- C++ -*----------------------------------*\
  =========                 |
  \\      /  F ield         | OpenFOAM: The Open Source CFD Toolbox
   \\    /   O peration     | Website:  https://openfoam.org
    \\  /    A nd           | Version:  9
     \\/     M anipulation  |
\*---------------------------------------------------------------------------*/
FoamFile
{
    format      ascii;
    class       volScalarField;
    location    "0.00185";
    object      rhoE;
}
// * * * * * * * * * * * * * * * * * * * * * * * * * * * * * * * * * * * * * //

dimensions      [1 -1 -2 0 0 0 0];

internalField   nonuniform List<scalar> 
13960
(
259675
253245
253245
253245
253245
253245
253245
253245
253245
728066
253245
253245
253245
253245
253245
253246
253245
253245
253245
253245
253245
253245
346829
253330
280270
254845
253342
418932
253245
518868
602232
487423
274608
319514
279416
321202
253245
253245
253245
253245
253245
253245
253245
253247
253245
253253
253251
253245
253245
253277
274635
366757
287424
259153
255611
261928
254627
253245
253245
253245
253245
253245
253246
253247
253245
253259
253245
253246
253324
253245
253250
253254
253393
253615
253281
253816
253267
279981
253255
257181
253245
421463
254218
254258
253245
253245
253245
253245
253245
253245
253245
253245
253245
253245
253245
253245
253245
253245
253245
253245
253245
253245
253245
253245
253245
253245
253245
253245
253245
253245
253245
253245
253245
253245
253245
253245
253245
253245
253245
253245
253245
253245
253245
253245
253245
253245
253245
253245
253245
253245
253245
253245
253245
253245
253245
253245
253245
253245
253245
253245
253245
253245
253245
253245
253245
253245
253245
253245
253245
253245
253245
253245
253245
253245
253245
253245
253245
253245
253245
253245
253245
253245
253245
253245
253245
253245
253245
253245
253245
253245
253245
253245
253245
253245
253245
253245
253245
253245
253245
253245
253245
253245
253245
253245
253245
253245
253245
253245
253245
253245
253245
253245
253245
253245
253245
253245
253245
253245
253245
253245
253245
253245
253245
253245
253245
253245
253245
253245
253245
253245
253245
253245
253245
253245
253245
253245
253245
253245
253245
253245
253245
253245
253245
253245
253245
253245
253245
253245
253245
253245
253245
253245
253245
253245
253245
253245
253245
253245
253245
253245
253245
253245
253245
253245
253245
253245
253245
253245
253245
253245
253245
253245
253245
253245
253245
253245
253245
253245
253246
253245
253245
253245
253245
253245
253245
253245
253245
253245
253245
253245
253245
253245
253245
253245
253245
253245
253245
253245
253245
253245
253245
253245
253245
253245
253245
253245
253245
253245
253245
253245
253245
253245
253245
253245
253245
253245
253245
253245
253245
253245
253245
253245
253245
253245
253245
253248
253245
253245
253245
253245
253245
253245
253245
253245
253245
253245
253245
253245
253245
253245
253245
253245
253245
253245
253245
253245
253245
253245
253245
253245
253245
253245
253245
253245
253245
253245
253245
253245
253245
253245
253245
253245
253245
253245
253245
253245
253245
253245
253245
253245
253245
253245
253245
253245
253245
253245
253245
253245
253245
253245
253245
253245
253245
253245
253245
253245
253245
253245
253245
253245
253245
253245
253245
253245
253245
253245
253245
253245
253245
253245
253245
253245
253245
253245
253245
253245
253245
253245
253245
253245
253245
253245
253245
253245
253245
253245
253245
253245
253245
253245
253245
253245
253245
253245
253245
253245
253245
253245
253245
253245
253245
253245
253245
253245
253245
253245
253245
253245
253245
253245
253245
253245
253245
253245
253245
253245
253245
253245
253245
253245
253245
253245
253245
253245
253245
253245
253245
253245
253245
253245
253245
253245
253245
253245
253245
253245
253245
253245
253245
253245
253245
253245
253245
253245
253245
253245
253245
253245
253245
253245
253245
253245
253245
253245
253245
253245
253245
253245
253245
253245
253245
253245
253245
253245
253245
253245
253245
253245
253245
253245
253245
253245
253245
253245
253245
253245
253245
253245
253245
253245
253245
253245
253245
253245
253245
253245
253245
253245
253245
253245
253245
253245
253245
253245
253245
253245
253245
253245
253245
253245
253245
253245
253245
253245
253245
253245
253245
253245
253245
253245
253245
253245
253245
253245
253245
253245
253245
253245
253245
253245
253245
253245
253245
253245
253245
253245
253245
253245
253245
253245
253245
253245
253245
253245
253245
253245
253245
253245
253245
253245
253245
253245
253245
253245
253245
253245
253245
253279
253245
253245
253261
253245
253245
253245
253245
253245
253245
253245
253245
253245
253245
253245
253245
253245
253245
253245
253245
253245
253245
253245
253245
253245
253245
253245
253245
253245
253245
253245
253245
253245
253245
253245
253245
253245
253245
253245
253245
253245
253245
253245
253245
253245
253245
253245
253245
253245
253245
253245
253245
253247
253245
253245
253245
253245
253245
253245
253245
253245
253245
253245
253245
253245
253245
253245
253245
253245
253245
253245
253245
253245
253245
253245
253245
253245
253245
253245
253245
253245
253245
253245
253245
253245
253245
253245
253245
253245
253245
253245
253245
253245
253245
253245
253245
253245
253245
253245
253245
253245
253245
253245
253245
253245
253245
253245
253245
253245
253245
253245
253245
253245
253245
253245
253245
253245
253245
253245
253245
253245
253245
253245
253245
253245
253245
253245
253245
253245
253245
253245
253245
253245
253245
253245
253245
253245
253245
253245
253245
253245
253245
253245
253245
253245
253245
253245
253245
253245
253245
253245
253245
253245
253245
253245
253245
253245
253245
253245
253245
253245
253245
253245
253245
253245
253245
253245
253245
253245
253245
253245
253245
253245
253245
253245
253245
253245
253245
253245
253245
253245
253245
253245
253245
253245
253245
253245
253245
253245
253245
253245
253245
253245
253245
253245
253245
253245
253245
253245
253245
253245
253245
253245
253245
253245
253245
253245
253245
253245
253245
253245
253245
253245
253245
253245
253245
253245
253245
253246
253245
253245
253245
265092
253245
253245
253245
253245
253245
253245
253245
253245
253245
253245
253245
253245
253245
253245
253245
253245
253245
253245
253245
253245
253245
253245
253245
253245
253245
253245
253245
253245
253245
254135
253720
253254
253576
253245
253248
253251
253245
253311
253247
253245
253247
253245
253245
253245
253245
253245
253245
253245
253245
253245
253245
253245
253245
253245
253245
253245
253245
253245
253245
253245
253245
253245
253245
253245
253245
253245
254695
254974
253254
253245
253622
253245
253252
253245
253245
253245
253245
253245
253245
253245
253245
253245
253245
253245
253245
253245
253245
253245
253246
253329
253245
253245
253245
253247
253245
253245
253245
253245
253245
253245
253245
253245
253245
253245
253245
253245
253245
253245
253245
253245
253245
253245
253245
253245
253245
253245
253245
253245
253245
253245
253245
253245
253245
253245
253245
253245
253245
253245
253245
253245
253245
253245
253245
253245
253245
253245
253245
253245
253245
253245
253245
253245
253245
253245
253245
253245
253245
253245
253245
253245
253245
253245
253245
253245
253245
253245
253245
253245
253245
253245
253245
253245
253245
253245
253245
253245
253245
253245
253245
253245
253245
253245
253245
253245
253245
253245
253245
253245
253245
253245
253245
253245
253245
253245
253245
253245
253245
253245
253245
253245
253245
253245
253245
253245
253245
253245
253245
253272
253254
253252
253246
253245
253245
253246
253245
253245
253245
253245
253245
253245
253245
253249
253252
253246
253246
253245
253245
253245
253245
253245
253245
253245
253245
253245
253245
253245
253245
253245
253245
253245
253245
253245
253245
253245
253245
253245
253245
253245
253245
253245
253245
253245
253245
253245
253245
253245
253245
253245
253245
253245
253245
253245
253245
253245
253245
253245
253245
253245
253245
253245
253245
253245
253245
253245
253245
253245
253245
253245
253245
253245
253245
253245
253245
253245
253245
253245
253245
253245
253245
253245
253245
253245
253245
253245
253245
253245
253245
253245
253245
253245
253245
253245
253245
253245
253245
253245
253245
253245
253245
253245
253245
253245
253245
253245
253245
253245
253245
253245
253245
253245
253245
253245
253245
253245
253245
253245
253245
253245
253245
253245
253245
253245
253245
253245
253245
253245
253245
253245
253245
253245
253245
253245
253245
253245
253245
253245
253245
253245
253245
253245
253245
253245
253245
253245
253245
253245
253245
253245
253245
253245
253245
253245
253245
253245
253245
253245
253245
253245
253245
253245
253245
253245
253245
253245
253245
253245
253245
253245
253245
253245
253245
253245
253245
253245
253245
253245
253245
253245
253245
253245
253245
253245
253245
253245
253245
253245
253245
253245
253245
253245
253245
253245
253245
253245
253245
253245
253245
253245
253245
253245
253245
253245
253245
253245
253245
253245
253245
253245
253245
253245
253245
253245
253245
253245
253245
253245
253245
253245
253245
253245
253245
253245
253245
253245
253245
253245
253245
253245
253245
253245
253245
253245
253245
253245
253245
253245
253245
253245
253245
253245
253245
253245
253245
253245
253245
253245
253245
253245
253245
253245
253245
253245
253245
253245
253245
253245
253245
253245
253245
253245
253245
253245
253245
253245
253245
253245
253245
253245
253245
253245
253245
253245
253245
253245
253245
253245
253245
253245
253245
253245
253245
253245
253245
253245
253245
253245
253245
253245
253245
253245
253245
253245
253245
253245
253245
253245
253245
253245
253245
253245
253245
253245
253245
253245
253245
253245
253245
253245
253245
253245
253245
253245
253245
253245
253245
253245
253245
253245
253245
253245
253245
253245
253245
253245
253245
253245
253245
253245
253245
253245
253245
253245
253245
253245
253245
253245
253245
253245
253338
267807
253959
253661
255086
253245
253245
253245
253245
253245
253245
253245
253245
253245
253245
253245
253245
253245
253245
253986
253478
253430
271195
259089
257971
274193
253351
253463
253286
265666
254393
256046
259716
253256
253258
253247
253730
253559
255496
253304
253245
253245
253245
253311
253246
253253
253251
253245
253245
253245
253245
253245
253245
253245
253245
253245
253245
253245
253246
253245
253245
253245
253245
253245
253245
253245
253245
253245
253245
253245
253245
253245
253245
253245
253245
253245
253245
253245
253245
253245
253245
253245
253373
258009
253762
277475
263299
338097
255350
253249
253246
253246
253275
253267
253245
253246
253282
253247
253252
253970
253284
253381
253245
253245
253245
253245
253245
253247
253245
253245
253245
253245
253245
253245
253245
253245
253245
253245
253245
253245
253245
253245
253245
253245
253245
253245
253245
253245
253245
253245
253245
253245
253245
253245
253245
253245
253245
253245
253245
253245
253245
253245
253245
253245
253245
253245
253245
253245
253245
253245
253245
253252
253508
253271
253246
253259
253245
253250
253245
253245
253953
253245
253245
253245
253245
253245
253245
253245
253245
324212
264713
257666
253246
253245
253245
253245
253245
253245
253245
253245
253245
253245
253245
253245
253245
253245
253245
253245
253245
253245
253245
253245
253245
253245
253245
253245
253245
253245
253245
253245
253245
253245
253245
253245
253245
253245
253247
253245
253245
253245
253245
265105
281145
373893
442705
939453
610458
891186
253517
253808
261792
253959
255025
253350
253286
253245
253245
253245
253245
253245
253245
253245
253245
253245
253245
253245
253245
253245
253245
253245
253245
253245
253245
253245
253245
253245
253245
253245
253245
253245
253245
253245
253245
253245
253245
253245
253245
253245
253245
253245
253245
253245
253245
253245
253245
253245
253245
253245
253245
253245
253245
253245
253245
253245
253245
253245
253245
253245
253245
253245
253245
253245
253245
253245
253245
253245
253245
253245
253245
253245
253245
253245
253245
253245
253245
253245
253245
253245
253245
253245
253245
253245
253245
253245
253245
253245
253245
253245
253245
253245
253245
253245
253245
253245
253245
253245
253245
253245
253245
253245
253245
253245
253245
253245
253245
253245
253245
253245
253245
253245
253245
253245
253245
253245
253245
253245
253245
253245
253245
253245
253245
253245
253245
253245
253245
253245
253245
253245
253245
253245
253245
253245
253245
253245
253245
253245
253245
253245
253245
253245
253245
253245
253245
253245
253245
253245
253245
253245
253245
253245
253245
253245
253245
253245
253245
253245
253245
253245
253245
253245
253245
253245
253245
253245
253245
253245
253245
253245
253245
253245
253245
253245
253245
253245
253245
253245
253245
253245
253245
253245
253291
253245
253245
253249
253389
253246
253245
253245
253245
253245
253245
253245
253245
253245
253245
253245
253245
253245
253245
253245
253245
253245
253245
253245
253245
253245
253245
253245
253245
253245
253245
253245
253245
253245
253245
253245
253245
253245
253245
253245
253245
253245
253245
253245
253246
253245
253245
253245
253245
253245
253247
253245
253250
253247
253261
253278
253245
253245
253245
253245
253245
253245
253245
253245
253245
253245
253245
253245
253245
253245
253245
253245
253245
253245
253245
253245
253245
253245
253245
253245
253245
253245
253245
253245
253245
253245
253245
253245
253245
253245
253245
253245
253245
253245
253245
253245
253245
253245
253245
253245
253245
253245
253245
253245
253245
253245
253245
253245
253245
253245
253245
253245
253245
253245
253245
253245
253245
253245
253245
253245
253245
253245
253245
253245
253245
253245
253245
253245
253245
253245
253245
253245
253245
253245
253245
253245
253245
253245
253245
253245
253245
253245
253245
253245
253245
253245
253245
253245
253245
1.98812e+06
1.56382e+06
1.27969e+06
253258
3.22979e+06
299194
253245
5.36319e+06
260215
264875
1.93142e+06
253245
253245
2.72163e+06
254639
253245
5.13117e+06
253298
676568
257783
1.34977e+06
253245
253245
304486
253245
253245
785213
253245
253427
253308
1.22843e+06
254024
253245
253245
370489
253251
253245
253245
660016
253247
253246
253245
253245
253245
853955
253582
253245
253245
253245
404002
253245
253245
253245
253245
253639
253245
253245
253245
253245
253245
253245
253245
253245
253245
253245
253245
253245
253245
253245
253245
253245
253245
253245
4.71365e+06
5.26246e+06
860437
5.35106e+06
781983
3.10617e+06
379498
5.26655e+06
363178
4.77863e+06
5.26008e+06
1.13864e+06
5.26502e+06
501507
253351
5.46252e+06
4.50091e+06
5.38259e+06
4.72412e+06
321189
2.55417e+06
253420
253246
897678
2.50074e+06
656595
281475
2.04214e+06
253762
253251
501467
253256
253284
253245
253264
253245
3.2162e+06
3.01088e+06
254603
253258
253293
949893
1.38208e+06
1.45093e+06
790312
1.12053e+06
253610
253374
392883
253262
256134
253246
253269
253245
253245
253246
253245
253245
253245
253245
253245
2.34162e+06
1.53227e+06
253564
253288
253262
253245
253245
1.44508e+06
256408
253264
4.95782e+06
5.37273e+06
4.90474e+06
283220
5.09985e+06
282350
760098
253318
1.84213e+06
253325
3.99984e+06
4.8196e+06
3.05441e+06
270547
284846
254184
276555
265205
253896
253245
253245
253245
260573
379828
253284
259665
253833
257217
253246
253246
253248
253245
253246
253245
253245
253245
253245
253245
253245
253245
253245
253245
253245
260715
260900
4.62064e+06
4.84579e+06
4.72089e+06
5.02604e+06
5.10585e+06
4.86774e+06
4.41994e+06
5.21902e+06
4.83505e+06
5.35903e+06
5.23775e+06
4.76342e+06
4.52421e+06
4.13226e+06
5.33354e+06
5.10648e+06
4.18839e+06
5.2209e+06
4.56373e+06
3.58381e+06
4.91785e+06
5.07965e+06
5.33715e+06
4.48539e+06
4.75579e+06
569005
777446
2.41314e+06
285346
3.00349e+06
328745
451373
5.3516e+06
5.53306e+06
5.3931e+06
5.34405e+06
3.66396e+06
4.99645e+06
5.40838e+06
5.2696e+06
271894
1.53798e+06
262057
266371
336190
696728
254835
4.10228e+06
502135
1.58587e+06
1.53928e+06
1.39437e+06
4.95957e+06
633547
4.15411e+06
340883
2.776e+06
1.32326e+06
4.75774e+06
936386
526943
3.62697e+06
2.57018e+06
306488
335423
268638
253368
266230
256411
639112
255959
253336
312118
260441
265978
254982
256046
253629
253249
253764
253250
253246
253361
253262
253245
5.07695e+06
1.02876e+06
3.51277e+06
5.11864e+06
910917
3.40719e+06
293532
289093
1.06911e+06
253246
253717
253246
253246
253261
253271
253245
254559
253247
253286
831904
712242
3.32829e+06
318420
2.07029e+06
322710
955428
1.04781e+06
1.22869e+06
339173
924958
524990
407549
257027
255049
258792
265351
309342
277918
253588
292851
261388
257783
255915
258325
253520
253267
253254
253645
253246
253404
253247
253259
253301
253494
253367
253247
254094
253260
253253
253249
253245
253245
253245
253245
253246
253246
253245
253246
253245
253245
253245
253245
253245
253245
253245
253245
253245
253245
253245
253245
4.39739e+06
441008
1.6282e+06
380596
1.38713e+06
259656
259419
360392
254302
253246
253276
253626
253246
253266
253245
253245
253246
253245
253245
253245
544393
2.71722e+06
453494
378111
1.03385e+06
1.13172e+06
283959
253611
652979
3.45352e+06
397692
1.02036e+06
3.32979e+06
373692
691530
255493
255016
259817
253265
320431
253448
253459
2.05715e+06
1.82167e+06
1.35632e+06
1.70473e+06
1.91409e+06
1.84803e+06
675037
253250
253865
253264
259131
253246
253499
253252
253245
253269
253245
253248
253245
253246
253245
2.1316e+06
2.29266e+06
1.59962e+06
1.41129e+06
1.63823e+06
846191
253283
708881
253268
256837
253247
253393
253246
253245
253245
253245
253245
253245
253245
253245
265664
969629
253741
272386
253323
264536
253248
253246
253274
253245
253250
253245
253246
253245
253245
253245
253245
253245
253245
253245
253245
4.7964e+06
3.52333e+06
4.65372e+06
2.66656e+06
4.10243e+06
2.38609e+06
1.45628e+06
3.65029e+06
967192
356752
2.6899e+06
1.02993e+06
279146
531169
1.18004e+06
2.3579e+06
381233
2.11288e+06
258788
2.24501e+06
253523
253245
253245
253245
253245
253245
253245
253245
253297
253248
253245
253245
253245
1.01747e+06
2.16899e+06
1.69781e+06
2.73369e+06
2.46133e+06
799382
2.3435e+06
1.58071e+06
1.0319e+06
1.86342e+06
3.19931e+06
3.07527e+06
1.10784e+06
875028
1.61311e+06
3.35436e+06
4.05609e+06
5.82217e+06
1.22259e+06
775145
1.61113e+06
253594
254723
277651
253245
253245
253245
253245
253245
253245
253245
253245
253245
253245
253245
253245
253245
253245
253245
253245
253245
253245
253245
253245
253245
253245
253245
253245
253245
253245
253245
253245
253245
253245
2.0769e+06
2.24094e+06
1.9592e+06
2.20059e+06
2.50228e+06
3.58105e+06
2.52766e+06
2.96547e+06
3.5427e+06
2.85689e+06
2.17071e+06
2.42537e+06
2.80757e+06
2.77675e+06
2.69452e+06
2.30975e+06
3.53101e+06
4.18356e+06
3.20576e+06
3.10136e+06
4.73897e+06
2.02138e+06
5.26622e+06
2.63171e+06
4.00505e+06
4.91631e+06
4.39552e+06
5.47561e+06
2.04066e+06
3.1304e+06
4.16422e+06
6.16482e+06
5.06667e+06
4.90408e+06
2.88572e+06
2.54955e+06
2.99898e+06
2.00369e+06
2.16323e+06
3.69531e+06
3.46454e+06
4.23586e+06
3.32284e+06
4.29929e+06
5.75494e+06
5.91465e+06
5.18457e+06
5.39314e+06
3.71163e+06
281409
2.07056e+06
2.27648e+06
2.0103e+06
2.3072e+06
2.32923e+06
2.05851e+06
2.03373e+06
1.90179e+06
1.96196e+06
1.89534e+06
1.96985e+06
2.12832e+06
2.38406e+06
2.513e+06
2.20929e+06
2.39911e+06
2.11969e+06
2.21903e+06
3.05367e+06
2.57318e+06
2.91367e+06
2.61297e+06
2.64378e+06
3.01972e+06
2.96109e+06
3.72012e+06
3.56035e+06
3.69868e+06
3.596e+06
3.16597e+06
2.70594e+06
2.86819e+06
3.34887e+06
2.72541e+06
3.14133e+06
3.36959e+06
3.90003e+06
4.22357e+06
3.89151e+06
4.19699e+06
1.95109e+06
2.23384e+06
1.99447e+06
1.90355e+06
1.8434e+06
2.30676e+06
2.13571e+06
2.05131e+06
3.5793e+06
3.72606e+06
2.64482e+06
3.34369e+06
3.12497e+06
4.24892e+06
3.92165e+06
2.24108e+06
2.06271e+06
2.07729e+06
2.22826e+06
2.57515e+06
2.69417e+06
2.35287e+06
2.97218e+06
2.36289e+06
2.96125e+06
2.57576e+06
2.48817e+06
2.84737e+06
2.47639e+06
2.89635e+06
2.89219e+06
3.40139e+06
4.23979e+06
3.41134e+06
3.39622e+06
2.89425e+06
3.45901e+06
4.25328e+06
3.10045e+06
3.70196e+06
3.47909e+06
3.6923e+06
3.46087e+06
4.29596e+06
5.29181e+06
4.73691e+06
4.65895e+06
5.35888e+06
5.21466e+06
4.13286e+06
5.34867e+06
5.96307e+06
4.12035e+06
5.2147e+06
5.96085e+06
5.71484e+06
5.75477e+06
5.77272e+06
5.50483e+06
2.28346e+06
2.93718e+06
2.51254e+06
2.7588e+06
2.4019e+06
3.36594e+06
3.32405e+06
2.84787e+06
4.7205e+06
5.2193e+06
4.03331e+06
5.62163e+06
4.98363e+06
5.52921e+06
5.51453e+06
4.62872e+06
3.46307e+06
3.59199e+06
4.51307e+06
5.67544e+06
5.60627e+06
4.3561e+06
6.23913e+06
4.49217e+06
6.09089e+06
5.65701e+06
5.2966e+06
5.52925e+06
5.51855e+06
4.83565e+06
5.64492e+06
5.8352e+06
2.78049e+06
5.28619e+06
5.15081e+06
6.0182e+06
4.27862e+06
4.13844e+06
6.15106e+06
6.00946e+06
6.06175e+06
5.74672e+06
5.66885e+06
5.02917e+06
4.09979e+06
6.01562e+06
5.35447e+06
5.93104e+06
5.53203e+06
5.97743e+06
5.84839e+06
6.09599e+06
1.81955e+06
4.5492e+06
3.31531e+06
2.66631e+06
1.99624e+06
2.03917e+06
2.2945e+06
2.03552e+06
1.2349e+06
2.05016e+06
2.3004e+06
1.37164e+06
2.86243e+06
1.85955e+06
1.12351e+06
1.41857e+06
2.90748e+06
1.75493e+06
978458
1.91722e+06
2.77398e+06
1.00887e+06
1.1398e+06
2.31899e+06
2.18706e+06
1.53088e+06
2.91098e+06
2.11449e+06
1.38071e+06
2.41846e+06
2.15845e+06
2.42828e+06
1.27825e+06
2.04778e+06
1.9333e+06
837941
1.38799e+06
1.07574e+06
1.8292e+06
2.35134e+06
1.41217e+06
1.02064e+06
1.41838e+06
1.38379e+06
1.09643e+06
1.44172e+06
1.00941e+06
983741
254017
253246
253245
253245
253245
253245
253245
253245
1.20915e+06
1.17234e+06
887600
1.50591e+06
653848
1.11144e+06
826187
853601
1.3447e+06
710843
859583
1.16539e+06
544286
778198
583827
1.43331e+06
1.08196e+06
1.01328e+06
1.305e+06
2.48781e+06
1.81169e+06
3.38253e+06
2.50438e+06
510120
1.76377e+06
2.73723e+06
1.63072e+06
1.23146e+06
3.09606e+06
1.52297e+06
2.13789e+06
1.86537e+06
1.61031e+06
1.77299e+06
2.67681e+06
5.49348e+06
1.63633e+06
1.74977e+06
1.70638e+06
1.82091e+06
2.38484e+06
2.27913e+06
2.81035e+06
5.03317e+06
5.33332e+06
1.82368e+06
4.30181e+06
1.49209e+06
2.55084e+06
4.84179e+06
4.68892e+06
3.29706e+06
1.7704e+06
1.62958e+06
1.79936e+06
1.87556e+06
3.35039e+06
4.7988e+06
1.47837e+06
1.15815e+06
400247
1.85586e+06
1.64912e+06
1.81418e+06
1.66169e+06
1.67078e+06
1.84783e+06
1.82979e+06
1.6992e+06
1.75765e+06
1.70654e+06
1.66248e+06
1.83454e+06
1.93172e+06
1.94954e+06
2.11185e+06
2.44625e+06
2.13944e+06
2.03284e+06
2.94293e+06
3.49375e+06
3.68558e+06
4.41631e+06
4.56934e+06
4.38379e+06
4.38981e+06
3.1029e+06
3.78308e+06
3.3409e+06
4.07701e+06
3.30968e+06
3.13281e+06
3.56016e+06
2.71189e+06
3.44535e+06
1.87697e+06
3.25486e+06
2.3922e+06
3.55232e+06
2.33191e+06
3.8922e+06
3.8513e+06
2.66169e+06
3.48625e+06
4.80309e+06
3.90269e+06
4.32103e+06
3.99907e+06
4.2086e+06
1.55015e+06
1.47316e+06
1.57754e+06
1.56544e+06
1.46175e+06
1.53317e+06
1.65868e+06
1.61659e+06
1.96294e+06
2.00126e+06
1.57808e+06
1.8967e+06
2.838e+06
2.29961e+06
2.68301e+06
3.98136e+06
2.16441e+06
4.08901e+06
1.36109e+06
1.48524e+06
1.32747e+06
1.49628e+06
1.50684e+06
1.35055e+06
1.33832e+06
1.38408e+06
1.52643e+06
1.57343e+06
1.406e+06
1.53498e+06
1.37516e+06
1.41405e+06
1.32443e+06
1.47678e+06
1.33888e+06
1.501e+06
1.38124e+06
1.35735e+06
1.51307e+06
1.6295e+06
1.44609e+06
1.68936e+06
1.45693e+06
1.70817e+06
1.49416e+06
1.6036e+06
1.81042e+06
2.06951e+06
1.69866e+06
1.84239e+06
1.57024e+06
1.76264e+06
1.41529e+06
1.63985e+06
1.4507e+06
1.73699e+06
1.60585e+06
1.50456e+06
2.41677e+06
2.43306e+06
1.90771e+06
2.7676e+06
2.02142e+06
2.97649e+06
2.24167e+06
2.88441e+06
3.39277e+06
3.89676e+06
3.07522e+06
3.57657e+06
2.68778e+06
3.20572e+06
1.78758e+06
2.61784e+06
2.10071e+06
3.29812e+06
3.04158e+06
2.55479e+06
1.30805e+06
1.67624e+06
1.41967e+06
2.33456e+06
1.11936e+06
1.97332e+06
1.86812e+06
620301
1.01557e+06
802622
931945
731546
1.09874e+06
853684
753983
1.1115e+06
834635
830667
828684
1.21842e+06
1.28139e+06
652174
620225
643390
665875
688149
663096
684774
720361
799455
712890
847030
754699
755958
852997
2.16787e+06
2.01575e+06
2.02225e+06
2.33819e+06
2.13488e+06
2.10167e+06
2.36452e+06
916961
1.28113e+06
1.30279e+06
1.38316e+06
1.33694e+06
1.17928e+06
982126
1.57903e+06
1.52992e+06
1.51245e+06
1.3806e+06
1.398e+06
1.42431e+06
1.36236e+06
744622
781178
717926
648447
646124
676157
685328
792247
857786
763947
788350
704435
752617
854510
837516
838426
838749
897627
907221
899648
911190
1.88404e+06
1.75593e+06
1.94335e+06
2.17396e+06
1.6904e+06
1.91239e+06
2.06919e+06
2.07302e+06
1.82121e+06
1.85269e+06
2.00081e+06
2.01976e+06
2.26066e+06
2.24997e+06
1.54829e+06
1.60787e+06
1.58664e+06
1.39499e+06
1.45011e+06
1.42142e+06
1.42854e+06
839173
924196
940762
832272
839640
916119
925001
1.94167e+06
1.28054e+06
1.91308e+06
1.7069e+06
1.33754e+06
1.97472e+06
972111
1.34682e+06
1.17411e+06
1.15263e+06
700828
1.22165e+06
747495
1.39503e+06
1.74564e+06
905842
1.47853e+06
1.3355e+06
893673
855052
1.11332e+06
2.45184e+06
2.14959e+06
2.55956e+06
1.87484e+06
2.06323e+06
2.47417e+06
2.50369e+06
1.82725e+06
1.95394e+06
1.84534e+06
1.93147e+06
2.07228e+06
2.17717e+06
2.1396e+06
808305
761875
814759
829865
879231
891159
841252
1.91509e+06
1.951e+06
1.88226e+06
1.72053e+06
1.75251e+06
1.69555e+06
1.67932e+06
1.01146e+06
1.02852e+06
1.02126e+06
1.1244e+06
1.11382e+06
1.12528e+06
1.13534e+06
722926
820780
741402
807578
724088
746092
832912
900760
1.36026e+06
1.17117e+06
1.47366e+06
2.41776e+06
1.30539e+06
961318
1.17039e+06
856271
974818
1.00765e+06
945503
1.04187e+06
959557
1.64087e+06
1.76101e+06
1.72788e+06
1.55961e+06
1.53235e+06
1.48942e+06
1.4712e+06
895564
914926
809782
818998
1.03741e+06
911899
928976
2.32023e+06
2.58294e+06
2.59456e+06
2.49384e+06
2.70746e+06
2.67805e+06
2.4986e+06
2.26994e+06
1.58259e+06
1.48343e+06
2.00616e+06
1.8161e+06
2.26899e+06
2.11961e+06
1.88529e+06
2.3125e+06
2.15549e+06
1.93706e+06
1.69835e+06
1.83608e+06
1.64336e+06
785566
877729
926752
772166
821725
906648
856323
1.9175e+06
1.75465e+06
1.72092e+06
1.7916e+06
1.76874e+06
2.00934e+06
1.98046e+06
1.99023e+06
2.16859e+06
2.11428e+06
2.17852e+06
2.43197e+06
2.28684e+06
2.21165e+06
780370
870748
774837
818551
734703
750569
846445
1.20265e+06
1.14335e+06
1.18374e+06
1.06588e+06
1.05148e+06
1.13796e+06
1.15059e+06
2.29855e+06
1.43297e+06
1.31159e+06
2.21646e+06
1.4948e+06
1.56408e+06
1.57717e+06
2.4606e+06
2.3126e+06
2.81958e+06
2.7973e+06
2.70201e+06
2.18267e+06
1.88608e+06
3.20687e+06
2.59276e+06
3.32366e+06
2.79347e+06
2.31167e+06
2.60124e+06
2.14434e+06
956360
959976
840449
826945
1.06534e+06
931765
944546
984382
1.13736e+06
1.00159e+06
1.13615e+06
993980
1.01256e+06
1.16448e+06
770345
307683
1.24991e+06
1.23871e+06
471125
1.39224e+06
257704
957394
927665
966462
1.03157e+06
1.06509e+06
1.07828e+06
1.04765e+06
1.96895e+06
1.42173e+06
2.45314e+06
1.57741e+06
1.35599e+06
2.33133e+06
2.10962e+06
2.62534e+06
2.57734e+06
2.33168e+06
2.38901e+06
2.50571e+06
2.56369e+06
2.3401e+06
1.37177e+06
1.07259e+06
1.55759e+06
931123
1.83372e+06
874885
1.16943e+06
2.92004e+06
1.53188e+06
2.61408e+06
2.55262e+06
1.9688e+06
1.20799e+06
1.48679e+06
878850
800142
817514
980422
907717
950494
945770
1.2606e+06
1.04932e+06
1.07005e+06
1.17198e+06
1.02328e+06
1.03716e+06
1.20394e+06
712066
707158
722331
790050
805414
817860
838456
2.1469e+06
2.17796e+06
2.09956e+06
2.42117e+06
2.32752e+06
2.45177e+06
2.36395e+06
1.09125e+06
998929
986440
1.21485e+06
886798
1.10622e+06
1.07712e+06
1.04662e+06
1.08879e+06
1.12481e+06
941414
985687
1.08952e+06
1.06248e+06
1.84351e+06
2.01648e+06
1.96826e+06
2.25738e+06
2.11231e+06
2.08473e+06
2.32614e+06
3.50021e+06
3.62664e+06
3.27593e+06
2.89151e+06
3.21391e+06
3.06311e+06
3.04204e+06
769544
857053
908847
726976
742374
826578
867144
2.16115e+06
2.1071e+06
2.17031e+06
1.41787e+06
1.49597e+06
1.62938e+06
1.52132e+06
930595
1.12604e+06
976465
994423
1.14427e+06
1.15516e+06
948429
1.72003e+06
1.33474e+06
1.15766e+06
1.72062e+06
1.23747e+06
2.08093e+06
1.44165e+06
1.34069e+06
1.45004e+06
1.16461e+06
1.0801e+06
1.36033e+06
1.13841e+06
1.1112e+06
1.20448e+06
1.28772e+06
1.19935e+06
1.2143e+06
1.2978e+06
1.30669e+06
1.2167e+06
2.14566e+06
2.5721e+06
2.4854e+06
2.26597e+06
2.52851e+06
2.4216e+06
2.2281e+06
3.04584e+06
2.86958e+06
3.03965e+06
2.66066e+06
2.81559e+06
2.76199e+06
2.73794e+06
931213
915430
949900
1.02779e+06
1.04728e+06
1.07747e+06
1.10176e+06
2.18896e+06
2.79643e+06
2.5646e+06
2.55282e+06
3.22806e+06
2.71253e+06
3.06032e+06
2.48052e+06
2.76095e+06
2.68029e+06
2.21022e+06
2.37036e+06
2.36906e+06
1.95315e+06
1.14603e+06
881158
1.8509e+06
1.15935e+06
1.38743e+06
1.06392e+06
1.00431e+06
1.26364e+06
1.01236e+06
1.05287e+06
1.01864e+06
1.20011e+06
1.19783e+06
973738
806896
856282
808108
1.06589e+06
901685
964665
971519
1.32137e+06
1.2371e+06
1.23536e+06
1.22114e+06
1.31058e+06
1.32253e+06
1.22077e+06
1.02132e+06
1.20351e+06
1.04522e+06
1.43068e+06
1.20475e+06
1.23801e+06
1.48149e+06
1.09815e+06
1.003e+06
1.17247e+06
931651
972967
1.06989e+06
1.1334e+06
3.85925e+06
3.17242e+06
3.51011e+06
4.3319e+06
3.52219e+06
3.84924e+06
3.3117e+06
2.85923e+06
2.99181e+06
3.02578e+06
2.51384e+06
2.5108e+06
2.64873e+06
2.23502e+06
2.51776e+06
2.48846e+06
2.7013e+06
1.82225e+06
1.43633e+06
1.51863e+06
1.47241e+06
1.10613e+06
1.65462e+06
2.77632e+06
1.35308e+06
2.24464e+06
2.96693e+06
2.2513e+06
1.15927e+06
1.29e+06
1.17308e+06
1.18998e+06
1.32557e+06
1.3106e+06
1.17852e+06
1.35473e+06
1.48363e+06
1.48185e+06
1.58403e+06
1.31409e+06
1.29957e+06
1.65981e+06
1.3642e+06
1.5009e+06
1.50201e+06
1.16314e+06
1.07305e+06
1.10059e+06
1.16606e+06
1.1034e+06
890582
862726
756242
775279
903460
933604
3.09077e+06
3.09647e+06
2.63127e+06
2.77504e+06
3.14931e+06
2.68735e+06
3.01535e+06
1.31629e+06
1.14871e+06
1.32423e+06
1.05467e+06
1.2843e+06
1.22468e+06
1.1817e+06
2.59987e+06
2.40989e+06
2.71215e+06
3.07008e+06
2.36949e+06
2.68787e+06
3.0002e+06
1.617e+06
2.00539e+06
2.0632e+06
1.69295e+06
1.28528e+06
1.52398e+06
1.33515e+06
261449
830285
283973
1.26474e+06
858543
255700
254741
1.35128e+06
1.21822e+06
1.2163e+06
1.20187e+06
1.35294e+06
1.33145e+06
1.1979e+06
1.6561e+06
1.11647e+06
1.34357e+06
1.24741e+06
1.07669e+06
1.28368e+06
1.55438e+06
1.35228e+06
1.37798e+06
1.42749e+06
1.6831e+06
1.75396e+06
1.81846e+06
1.87905e+06
705859
419719
253307
259377
253261
253344
462342
268160
296989