# vtk DataFile Version 2.0
sampleSurface
ASCII
DATASET POLYDATA
POINTS 21610 float
-0.1 -0.0797018 0 -0.0924323 -0.1 0 -0.142515 0 0 -0.1 -0.1
0.0420516 -0.136982 -0.1 0.125 -0.171065 0 0.125 -0.0875959 -0.2 0
-0.2 0.0897934 0 -0.1 -0.2 0.0415484 -0.2 0.0487047 0.125 -0.219846
0.1 0 -0.1 -0.229604 0 -0.2 0 0.171084 -0.2 -0.1
0.179603 -0.174285 -0.2 0.125 -0.2 -0.2 0.137256 -0.2 -0.218377 0.125
-0.292213 0.1 0.125 -0.3 0.150605 0 -0.153959 -0.3 0 -0.3
0.105042 0.125 -0.3 0.1 0.130477 -0.3 0 0.168634 -0.304818 0.1
0.125 -0.3 -0.1 0.161138 -0.2 -0.3 0.0495643 -0.342285 0 0.125
-0.354441 0.1 0 -0.3 -0.2 0.12805 -0.3 -0.208856 0.125 -0.390562
0 0 -0.360469 -0.1 0.125 -0.4 -0.0284195 0 -0.2 -0.351691
0 -0.4 -0.1 0.065577 -0.3 -0.3 0.0880128 -0.4 -0.177345 0.125
-0.4 -0.2 0.131934 -0.243565 -0.4 0 -0.35472 -0.3 0.125 -0.3
-0.4 0.0392929 -0.5 -0.0660077 0 -0.3 -0.423849 0 -0.4 -0.3
0.142857 -0.497946 -0.1 0.125 -0.5 -0.0994605 0.125 -0.5 -0.1 0.126847
-0.4 -0.348765 0.125 -0.4 -0.4 0.101132 -0.485113 -0.2 0.25 -0.5
-0.161572 0.25 -0.527787 -0.1 0.25 -0.6 -0.0147779 0 -0.5 -0.2
0.266867 -0.431159 -0.4 0.125 -0.4 -0.450267 0 -0.5 -0.247887 0.25
-0.6 -0.0290318 0.125 -0.620853 0 0 -0.5 -0.3 0.236417 -0.510365
-0.3 0.25 -0.638275 0 0.125 -0.6 -0.0391788 0.25 -0.5 -0.4
0.155646 -0.5 -0.422611 0.125 -0.2 0 0.652666 -0.5 -0.466135 0
-0.572249 -0.1 0.375 -0.647857 0 0.25 -0.1 0 0.693905 -0.7
0.0560543 0 -0.563393 -0.2 0.375 -0.6 -0.0654079 0.375 -0.7 0.045956
0.125 -0.2 0.1 0.677832 -0.1 -0.1 0.712781 -0.3 0.1 0.659038
-0.3 -2.60264e-18 0.671465 -0.6 -0.1 0.422064 -0.7 0.0400207 0.25 -0.6
-0.370642 0.25 -0.6 -0.248173 0.375 -0.0145618 0 0.75 -0.6 -0.3
0.33783 -7.8e-19 -0.1 0.744882 -0.6 -0.4 0.213918 -2.8064e-18 -0.0600684 0.75
0.0109793 -0.1 0.75 -5.80938e-18 0 0.757015 -0.657825 0 0.375 -0.6
-0.445108 0.125 -4.14245e-19 -0.106929 0.75 -0.6 -0.2 0.417993 -0.2 -0.1
0.724576 -0.756191 0.1 0 -0.1 0.0984804 0.75 -0.101321 0.1 0.75
-0.1 0.1 0.750707 -0.6 -0.474861 0 -0.1 -0.125228 0.75 -0.764963
0.1 0.125 -0.2 -0.110044 0.75 -0.3 0.2 0.699054 0.1 -0.1
0.779448 -0.235353 -0.1 0.75 -0.7 0.0364499 0.375 -0.63437 -0.3 0.375
-0.2 0.2 0.746169 -0.19588 0.2 0.75 -0.2 0.204597 0.75 -0.651744
-0.4 0.25 0.1 0 0.799386 -0.3 -0.0586609 0.75 -0.8 0.138697
0 -0.635518 -0.1 0.5 -0.76996 0.1 0.25 -1.01777e-18 0.1 0.810103
3.55677e-18 -0.2 0.794966 -0.8 0.132579 0.125 -0.4 0.1 0.713704 0.1
-0.2 0.796073 0.2 -0.1 0.810301 -0.680911 0 0.5 -0.1 0.2
0.81559 -0.392106 -7.28986e-18 0.75 -0.7 -0.460187 0.125 -0.8 0.128675 0.25
-0.7 -0.481576 0 -0.4 0.0183049 0.75 0.2 0 0.826787 -0.7
-0.416338 0.25 -0.7 -0.4 0.278787 -0.663564 -0.2 0.5 -0.3 0.279281
0.75 -0.3 -0.1 0.794966 -0.1 -0.2 0.825878 -0.4 -7.38297e-18 0.756801
0.1 0.1 0.847221 0.2 -0.2 0.811593 -0.4 0.2 0.734096 -0.7
0.0210703 0.5 -0.769075 0.1 0.375 -0.7 -0.338418 0.375 -0.3 0.3
0.760284 -0.7 -0.3 0.429049 -0.439829 0.1 0.75 -0.415908 0.2 0.75
-0.4 0.234678 0.75 -0.2 0.3 0.808464 -0.863373 0.2 0 -0.7
-0.228849 0.5 0.3 -0.1 0.83357 0.1 0.138854 0.875 -0.8 0.129796
0.375 1.82807e-18 0.190152 0.875 0.2 0.1 0.86743 -0.0108546 0.2 0.875
-0.866717 0.2 0.125 0.3 0 0.848222 0.3 -0.2 0.828907 2.05414e-18
0.2 0.881587 0.2 0.109105 0.875 0.2 -0.3 0.83261 0.220741 0.1
0.875 -0.1 -0.223531 0.875 0.1 -0.3 0.852233 -0.16095 -0.2 0.875
-0.7 -0.2 0.552922 5.317e-18 -0.265752 0.875 -0.2 -0.177703 0.875 -0.4
0.3 0.774302 -0.768004 0.1 0.5 -0.1 0.27769 0.875 -0.868693 0.2
0.25 0.3 0.0551311 0.875 0.0604878 -0.3 0.875 0.3 -0.3 0.826824
-0.681248 -0.1 0.625 -0.9 0.240824 0 -0.691361 7.5697e-19 0.625 -0.1204
0.3 0.875 0.566544 -0.4 0.625 -0.3 -0.129767 0.875 0.6 -0.352057
0.625 0.1 -0.31984 0.875 0.6 -0.3 0.65471 -0.8 -0.488644 0
-0.8 -0.472399 0.125 0.5 -0.4 0.685685 -0.7 0.0119474 0.625 -0.9
0.238285 0.125 0.6 -0.4 0.603877 0.4 -0.1 0.845759 0.4 -0.2
0.828082 0.1 0.2 0.916048 -0.1 0.3 0.889538 0.491819 -0.3 0.75
0.5 -0.3 0.744786 0.4 -0.3 0.803001 -0.7 -0.119998 0.625 -0.8
-0.440023 0.25 0.5 -0.291065 0.75 -0.2 -0.2 0.905828 0.3 0.1
0.896785 0.427068 -0.4 0.75 -0.5 0.1 0.80421 -0.8 0.131969 0.5
0.381786 0 0.875 5.42281e-18 -0.3 0.906679 0.657815 -0.3 0.625 -0.8
-0.4 0.338587 0.4 -0.4 0.77318 -0.3 0.4 0.817676 -0.378367 -0.1
0.875 0.4 -0.0134926 0.875 -0.8 -0.381657 0.375 -0.9 0.237036 0.25
0.5 -0.2 0.800226 -0.4 -0.0811399 0.875 -0.867416 0.2 0.375 0.4
0 0.879497 0.3 -0.4 0.82698 0.5 -0.5 0.663691 0.582843 -0.2
0.75 -0.5 -2.50199e-18 0.835166 0.6 -0.2 0.740485 0.7 -0.3 0.610105
0.560536 -0.5 0.625 0.2 -0.38899 0.875 0.6 -0.189192 0.75 -0.2
0.392279 0.875 0.7 -0.282437 0.625 -0.790147 -0.3 0.5 0.208247 -0.4
0.875 -0.210026 0.4 0.875 -0.755374 0.1 0.625 0.2 -0.4 0.878798
0.2 0.2 0.945552 -0.2 0.4 0.879836 -0.4 -0.1 0.898523 0.6
-0.5 0.607217 0.7 -0.4 0.57487 -0.5 0.2 0.831321 0.411692 -0.5
0.75 -0.8 -0.30505 0.5 0.5 -0.1 0.85207 -0.8 -0.3 0.50942
0.4 -0.5 0.761385 -0.948963 0.3 0 -0.4 0.4 0.822228 -0.7
-0.1 0.706046 -0.755547 -0.2 0.625 -0.949788 0.3 0.125 -0.9 0.239679
0.375 -0.668334 1.13235e-18 0.75 1.50339e-18 0.3 0.959016 -0.5 -0.0258996 0.875
0.5 -0.0697936 0.875 0.7 -0.2 0.701503 0.6 -0.524703 0.625 -0.863303
0.2 0.5 -0.860881 -0.4 0.375 -0.8 0.145887 0.625 -0.950011 0.3
0.25 -0.7 0.056491 0.75 -0.9 -0.496316 0 -0.7 -0.0630837 0.75
-0.9 -0.483567 0.125 -0.6 0 0.840446 0.1 -0.4 0.95017 0.3
-0.5 0.85788 0.7 -0.155889 0.75 -0.710257 -0.1 0.75 0.6 -0.1
0.842419 -0.8 -0.224785 0.625 -0.9 -0.457639 0.25 0.4 0.1 0.954962
0.776718 -0.3 0.625 -0.3 0.478353 0.875 -0.6 0.1 0.845996 -0.717897
0.1 0.75 0.1 0.288876 1 0.0796265 0.3 1 0.284266 -0.5
0.875 -0.2 -0.241125 1 -0.1 -0.297941 1 -0.0970837 -0.3 1
-0.1 0.4 0.964182 0.2 0.249605 1 -0.5 0.298354 0.875 -0.499395
0.3 0.875 -0.1 -0.3 1.00268 -0.5 0.3 0.87562 0.7 -0.5
0.607534 -0.7 0.1 0.780711 0.5 0 0.928661 -0.553954 0.2 0.875
0.3 0.2 0.993672 0.1 0.3 1.00929 0 0.345405 1 -0.9
-0.412081 0.375 -0.9 0.246829 0.5 0.3 -0.515581 0.875 -0.286916 -0.2
1 0.8 -0.3 0.628938 -0.6 -0.0219347 0.875 -0.3 -0.190536 1
-0.9 -0.4 0.395549 -0.946821 0.3 0.375 0.8 -0.31071 0.625 1.43628e-18
-0.358968 1 -0.3 0.5 0.888422 0.6 -0.0758092 0.875 0.3 0.205466
1 -0.456334 0.4 0.875 0.5 -0.6 0.723803 0.30724 0.2 1
-1 0.377688 0 -0.6 0.139766 0.875 -0.946367 -0.5 0 0.472458
-0.6 0.75 -0.846987 0.2 0.625 0.7 -0.518179 0.625 0.8 -0.4
0.592864 -1 0.378189 0.125 -0.3 -0.2 1.01457 -0.4 0.483791 0.875
-0.8 -0.2 0.694423 0.0539503 -0.4 1 -0.0563856 0.4 1 -0.9
-0.345078 0.5 -0.4 -0.139972 1 0.4 0.140505 1 -1.01336 0.4
0 0.7 -0.1 0.829773 -0.4 0.5 0.883343 0.5 -0.616615 0.75
0.1 -0.434351 1 0.4 -0.6 0.824257 0.8 -0.2 0.7207 0.74778
-0.5 0.625 -0.2 0.5 0.954232 -1.0129 0.4 0.125 0.6 -0.6
0.694938 -0.1 0.441166 1 -1 0.379122 0.25 0.444738 0.1 1
-0.5 -0.1 0.975067 0.2 -0.5 0.963233 -0.938394 0.3 0.5 -0.6
0.2 0.908879 -0.8 -0.16493 0.75 0.2 0.3 1.04963 0.8 -0.175532
0.75 -0.8 0.185066 0.75 -0.9 -0.3 0.586963 -1.01236 0.4 0.25
0.8 -0.466066 0.625 2.41018e-18 0.4 1.04303 -0.5 0.4 0.916923 -1
-0.5 0.0536192 0.5 0.0604921 1 -1 -0.506874 0 0.364852 -0.6
0.875 -1 -0.494229 0.125 0.7 -0.0702315 0.875 -0.811905 0.2 0.75
-0.5 -0.108563 1 -0.7 -0.096298 0.875 -0.702851 -0.1 0.875 -0.9
0.268926 0.625 -0.153078 0.5 1 3.82387e-18 -0.4 1.05581 -0.9 -0.275445
0.625 -0.7 -0.1 0.881642 0.169929 -0.5 1 -0.8 0.2 0.775128
-1 -0.472647 0.25 -0.7 0.176498 0.875 -1 0.387439 0.375 0.8
-0.5 0.643017 -1.0072 0.4 0.375 0.2 -0.52529 1 0.844683 -0.2
0.75 0.876111 -0.4 0.625 -0.845996 -0.2 0.75 0.4 -0.629921 0.875
0.6 -0.633732 0.75 -0.722759 0.2 0.875 -0.921236 0.3 0.625 -1
-0.435493 0.375 -0.7 0.2 0.895471 0.4 0.2 1.06394 -0.6 -0.1
0.986219 0.586179 0 1 -0.2 0.557856 1 -0.1 0.5 1.04597
-1 -0.4 0.443251 -1 0.4 0.444474 0.5 0.1 1.0485 0.6
-0.00552856 1 0.9 -0.3 0.679297 -0.3 0.6 0.955215 -0.2 -0.3
1.11097 0.9 -0.290661 0.6875 -0.6 -0.103839 1 0.3 -0.6 0.960298
0.9 -0.4 0.636588 0.7 -0.6 0.725165 -1.05431 -0.5 0.125 -1.06395
0.5 0 0.6 0 1.01132 0.1 0.4 1.10282 0.8 -0.1
0.858041 -1 -0.37449 0.5 -0.6 0.3 0.970079 0.3 0.3 1.1011
0.912519 -0.3 0.6875 -1.06341 0.5 0.125 -0.993623 0.4 0.5 0.9
-0.25 0.725581 -0.4 0.6 0.938245 -0.2 -0.308044 1.125 -0.214156 -0.3
1.125 -0.959624 -0.3 0.625 -0.9 0.3 0.711451 0.8 -0.090759 0.875
-0.1 -0.371932 1.125 -0.3 -0.250968 1.125 -0.244596 0.6 1 -1
0.41244 0.5 -0.9 -0.221915 0.75 0.9 -0.223713 0.75 -0.8 -0.143246
0.875 -0.0617248 -0.4 1.125 0.7 -0.616152 0.75 -0.5 0.5 0.966131
0.272331 -0.6 1 -0.4 -0.2 1.11336 -0.887697 0.3 0.75 0.1
-0.5 1.08667 -1.06267 0.5 0.25 0.2 0.373062 1.125 0.14273 0.4
1.125 0.9 -0.2 0.772722 0.819447 -0.1 0.875 0.1 0.423752 1.125
0.3 0.323847 1.125 -0.2 0.6 1.03012 4.15137e-18 -0.447162 1.125 0.331645
0.3 1.125 -0.4 -0.204985 1.125 -0.9 0.320833 0.75 -0.8 0.270226
0.875 0.3 -0.624338 1 -0.417789 -0.2 1.125 -1.1 -0.522425 0
-1.1 -0.509321 0.125 -1.1 -0.5 0.161487 -0.6 0.357161 1 0.5
-0.687319 0.875 -1 -0.315125 0.625 0.930382 -0.25 0.75 0.7 -0.0250648
1 0.4 0.258073 1.125 -0.971676 0.4 0.625 -0.57997 0.4 1
0.759096 -0.6 0.75 0.9 -0.170727 0.8125 -0.7 -0.122549 1 -1.05618
0.5 0.375 0.95 -0.3 0.718255 -1.1 -0.487277 0.25 3.67917e-18 0.494913
1.125 0.9 -0.5 0.673223 0.458162 0.2 1.125 -0.00509961 0.5 1.125
0.0658148 -0.5 1.125 -1 -0.3 0.657896 3.61542e-18 0.5 1.12908 0.2
0.4 1.15122 -0.822674 0.3 0.875 -0.531978 0.5 1 0.95 -0.268421
0.75 -1.1 0.573947 0 0.5 -0.7 0.89436 -0.1 -0.4 1.17071
-0.7 0.3 0.980189 -0.3 0.671511 1 0.9 -0.15 0.842149 0.5
0.16588 1.125 -0.5 -0.167172 1.125 0.8 -0.589363 0.75 -0.8 0.3
0.905818 0.1 -0.527921 1.125 -0.9 -0.2 0.839682 -1.1 0.57543 0.125
-0.6 0.4 1.01872 -1.1 -0.456331 0.375 -0.5 0.572619 1 0.8
-0.6 0.761632 -1.04017 0.5 0.5 0.559822 0.1 1.125 0.579458 -0.7
0.875 0.9 -0.130452 0.875 0.946149 -0.2 0.8125 -1.112 0.6 0
-0.486505 0.6 1 -0.7 0.331333 1 -0.937318 0.4 0.75 0.4
1.2 0.0372116 -1 0.459633 0.625 0.6 -0.7 0.869376 0.4 1.19599
0.125 0.4 1.20254 0 0.408144 1.2 0 -1.1 0.579717 0.25
0.95 -0.2 0.816465 0.392002 1.2 0.125 -1.11125 0.6 0.125 -0.9
-0.187962 0.875 -0.3 0.7 1.01628 -1.1 -0.4 0.493632 -1.1 -0.39749
[...]
CELL_DATA 21082
FIELD attributes 1
p 1 21082 float
66852.1 57442.7 91553.5 78344.1 104660 105033 105926 117592 101210 102947 107864
99726.1 102783 115217 113855 104101 109313 113628 123200 125442 119201
101022 104784 109292 113006 116571 111839 110282 109996 113163 109238
113905 107255 109306 117627 104065 105946 104349 101999 101912 128018
134029 103850 121233 115822 116937 112925 105306 121367 104319 108106
104540 103759 106026 102914 102605 102503 101656 102544 103127 114485
102003 120113 112455 107585 103846 104906 108474 108053 101668 104619
122363 83140.8 84915.7 89762.7 98196.3 105141 143280 101949 127018 103711
108798 104499 108345 134846 105140 114242 103743 105008 113791 118308
103550 104489 111905 104792 113002 117703 115378 104112 110535 116780
108953 113414 105669 107275 111086 106367 104276 108654 103176 104441
102384 103020 104579 104158 115231 112054 111885 116994 106297 107817
123178 108988 104688 104011 113044 112731 102504 102798 121704 106273
101804 102945 101481 101831 101660 102132 114457 106282 117264 106045
101440 120670 122964 83417.4 91837.2 130249 83661.8 119700 121195 101616
102802 122951 87032.8 125961 106800 104173 129773 93446.2 134662 109834
113287 140899 148875 104269 121539 117138 74691.1 112202 122854 79699.6
127439 76483.7 134821 84737.4 137767 92375.2 137009 85676.9 145674 95959.9
111816 105936 110276 124896 86575.9 81780 133412 112241 101380 115435
123188 93126.4 100610 143644 117620 108449 102681 129168 106182 107774
108089 105735 136241 101842 98045.9 117796 78240.7 111688 118952 103207
108301 106858 103589 102453 108080 104891 104372 102808 122125 101908
102117 117390 123063 112191 113040 108024 128586 107504 126820 103314
105151 117802 104818 113087 109444 106053 102648 102933 124836 103268
109978 119460 103757 108221 103338 107113 103400 116410 111063 123116
102148 102656 103469 101410 124063 145569 119633 105817 109067 101783
121254 112890 109263 106496 102604 101843 101877 114502 128396 131667
140236 125881 59113.2 135965 138722 94962.9 134679 92073.5 61060.9 65742.1
98322.5 63281.8 102192 79059.1 118480 74727 126948 110458 114709 75962.9
69629.7 127785 119585 58356.4 130259 89705.1 134037 132759 90855.9 57730.6
68355.4 111897 106616 71283.8 145781 109070 107218 114521 106012 107174
108688 112175 115110 114077 114908 114138 104867 106816 104830 106898
116119 116084 113988 114806 106720 104795 116025 112600 108913 109068
112444 116568 116253 115824 105312 107299 116044 110363 105645 103828
106103 116400 110825 97316.3 122555 91267.5 94539.6 101491 106295 108737
96379.1 96942 102792 105142 117520 119235 111247 110829 119623 149124
103872 105177 111640 105493 104803 134878 100753 111063 108536 108175
101121 107980 108986 118519 118956 107537 117977 117563 118287 107294
117324 101109 94514.1 90926.8 110666 102362 102517 110616 114361 114305
110413 114514 114980 118598 103342 104577 101916 111676 116026 114991
113156 106157 107938 107421 104473 111218 108348 115726 112940 120420
109304 109152 110972 103896 105006 104279 103000 101880 105225 108089
107296 102426 106072 104415 111734 115434 117273 113475 108522 117445
115272 119970 109884 110284 100789 108960 99634.9 115491 116328 115539
103190 102324 113157 110443 109564 114108 120743 119137 106181 113635
112467 117274 104588 120742 115438 114733 114896 107426 107845 103266
102705 108359 112200 111415 109331 118337 106895 104097 114328 106363
115052 113783 106112 109568 111269 113364 111892 119169 115493 108178
122360 105519 103672 115120 114865 104252 102895 111804 102314 120127
108728 105142 103198 121372 106576 117421 114477 115342 108964 100006
105527 112773 104544 99385 107632 115586 121595 109799 117282 102726
107214 107310 104083 109151 98497.5 107139 118170 112140 116069 104354
102953 107880 107138 114360 102340 101496 106962 106354 118505 104078
107920 102475 108959 112595 113142 107992 117682 116106 100834 100489
101300 103958 103943 107748 117023 107113 99366.5 103395 113056 111517
98961.2 108524 102592 98550.7 113084 121183 100626 119756 117331 116361
120943 100685 120135 109370 119547 119050 118828 107082 113149 112739
102407 113110 109643 103207 99630.6 101964 104651 118391 118568 112072
108150 108105 112739 112291 113005 108075 114820 104679 110255 102915
110792 104831 101635 111925 115049 100067 106710 104599 112774 112165
102493 114806 104833 110024 100228 106112 101385 118645 111156 117651
99377.5 118933 116672 105670 109683 108052 118857 110293 120760 118459
116761 111848 115386 105501 100312 104993 114615 109874 113591 111096
103351 105728 113246 121542 97826.6 95006.9 104709 111968 121893 121713
119464 104194 101769 112609 102953 109481 113320 121592 112707 112831
119851 112239 122110 103580 108789 108432 102600 120063 114935 115235
123008 121947 109661 114774 115059 120673 98872.4 95839.5 101344 92676.6
121290 109269 120911 103316 101262 119806 107738 101701 106115 102512
103564 107350 109832 110325 106891 105883 112624 97716.3 115994 101332
119061 106514 103511 120184 105275 98070.6 110426 101365 105362 107836
121474 124340 114131 109328 102743 121526 115835 107635 114480 95006.7
96474.2 108839 97451.6 104591 117359 100589 100228 107734 118701 102680
108977 112016 108288 119249 110030 101376 120689 112248 115384 103546
112580 117174 119936 116675 107697 107329 107326 99343.4 106368 97865
98373.7 116570 109813 99695.7 106974 100025 96256.8 100799 115050 115325
114705 106381 119314 117248 117130 108971 99019.1 116920 100609 103266
102432 113569 104884 111458 110056 116319 106769 114656 100709 104250
108512 110347 117409 120398 107932 99704.1 116336 109423 102008 108102
113606 107535 110016 120294 103836 113906 97640.4 100968 115251 114005
110792 111997 123101 104973 100948 90826 95982.9 99964.1 126454 115857
96654.1 106947 106137 115556 101065 114440 122995 108401 93004.9 105958
99984.9 101585 125944 116877 125362 122051 113900 122599 107316 98294
98755.4 101143 110344 119750 104210 109510 100667 103229 110007 118517
102044 115697 116220 107540 118283 107382 107875 115012 106211 98669.2
98982.4 109262 114152 118872 102875 106749 100971 99281.7 92730.2 104465
119970 115558 112170 115889 102826 118960 113305 112880 120870 107346
108071 109266 112110 106615 113663 118546 122022 116501 101652 109554
108524 107353 114380 111997 106857 102468 104013 92746.8 97841.8 111801
104832 101753 104899 106931 115403 118884 118084 110317 101058 110461
106564 100057 103139 97858.9 99496.1 115913 111523 116125 105749 110807
108147 115317 103259 115329 112625 115239 112914 110724 109575 101907
105397 108550 112165 119544 98080.4 108306 116263 105004 113143 101298
112958 108064 112792 110971 101302 104329 105314 102332 121931 100073
112199 104546 116367 120900 127952 104051 106006 114417 105358 106820
105524 104389 102962 102557 113511 105751 104457 118075 104698 114840
115797 108845 111812 122473 106164 109377 113787 112992 103277 102577
108091 123681 103459 111965 117462 108424 120380 101692 103768 127934
101643 102057 105424 117542 104390 110979 107732 108585 102433 123864
104372 113990 109986 105665 118851 113759 101751 101980 101598 105005
141070 102098 106533 102081 103052 102767 102209 105537 113129 104882
107165 117437 107291 112801 112042 107058 106868 113521 108275 106784
111810 104933 110450 115829 103225 103677 103472 103429 116730 112569
116853 112045 102845 102619 103085 104997 108679 107971 105679 103148
120437 108766 102451 118351 103648 109667 102194 117983 103222 103186
123050 117008 133704 105614 101659 102135 101591 109336 119979 121649
105923 114726 125078 105869 111432 104637 115793 108623 114792 116594
101744 101829 119848 118172 120817 118231 104891 104110 102492 113660
103300 126111 123680 113187 109918 104262 108893 103166 114169 121427
115863 101817 102754 104274 108804 111780 106811 103530 114823 115638
124514 129704 116306 117151 111027 129427 119085 111013 111738 116574
107844 103762 128050 135398 122253 102560 125967 102332 118558 110247
107330 129617 122367 121835 115783 108841 136251 121856 114226 116764
110592 101653 111325 148418 102116 101635 104194 113916 101762 112210
129399 122185 128672 115571 113016 123570 105130 103775 107108 106843
103727 115443 104602 105732 102401 112642 103660 109978 124776 106196
106601 102367 102973 110055 104382 106945 108149 115820 116948 116365
107169 119758 114856 133449 102407 101594 105177 115335 108634 103472
124400 105079 111801 105532 107772 108851 121001 113011 123763 104802
133281 110377 116774 110181 103189 123974 104225 106952 105031 105099
105439 108687 109532 123008 112041 113390 104848 108288 102947 111279
104015 120198 110763 103858 116305 114447 108212 104963 124675 113677
103013 124457 104359 144080 131809 105756 115170 109960 104082 120433
132670 111570 107054 120314 108134 103780 105345 113366 118167 101610
101475 142271 101609 101468 118332 108568 103190 109825 103568 115671
113037 128223 104716 114207 107039 119160 128355 112217 107809 105208
103517 104784 121318 103584 108432 106228 105062 104827 105169 105452
125010 110231 103974 104941 124882 128966 105678 122973 102585 115543
104234 106927 105191 112353 130346 106557 115270 107543 103638 111964
128672 135720 112079 104165 130990 103249 118660 110072 106309 127539
103848 104400 104653 103990 103858 103532 127429 117688 102655 130738
105778 112856 107214 103589 107035 108322 107776 107503 118358 110140
111059 103306 103536 105611 131953 107172 102776 109983 105803 138187
102431 102832 102501 114698 119300 109681 102005 103305 117146 103739
125407 105064 108401 104445 120955 102949 127499 124950 136154 117443
114802 104576 107720 107196 105856 106291 106184 104437 118583 118475
106761 103505 108896 101590 101555 120368 104886 108718 113324 103321
122965 110376 127700 112227 102735 116837 107770 118856 129159 106262
102075 102852 103876 140449 116698 112814 104560 102421 109107 109646
106796 105749 104653 104393 106106 106159 105505 106769 105047 112163
127717 108155 117340 104134 102492 119717 103257 113259 114284 103290
107008 139679 118832 107040 106785 120572 102290 102067 105997 109781
112087 103084 106600 115706 118237 135978 128735 115004 102598 113351
107299 114441 120183 143138 114090 106089 132025 110195 102623 105063
103259 103889 104187 105069 106247 105075 104113 105318 110504 109456
102259 102380 118957 113627 102731 104148 130657 129336 111081 105393
103418 108528 103356 106861 105462 103733 110417 104112 110789 105156
102462 106390 117128 112541 101712 115384 101777 101918 102168 101826
121453 104118 102216 101789 124855 113750 117594 116047 113307 113195
105981 111327 128696 107894 110470 121637 125795 117939 120452 105034
107392 109320 108837 129271 123184 120066 117514 103976 103615 103085
102837 123369 116841 111038 106877 118261 125515 121339 111788 114668
102802 103211 102563 116911 103321 123350 102250 111881 110045 102082
107509 113262 111590 102427 105277 107915 109749 115655 112805 105845
104991 102570 102314 121532 127031 102893 102879 114287 118761 108125
106339 112083 103122 115815 112381 102684 116118 130127 102426 113451
107476 108695 103502 107040 125097 103618 107057 103480 102233 102117
131932 104168 112626 113952 114145 105527 120592 106173 102560 112427
106839 103572 112944 119376 104032 105540 102677 102162 108005 105589
111847 102600 115373 107170 116776 102970 103081 106397 106164 126742
107882 102320 103282 105065 111921 109688 109969 102474 108763 107114
102201 107353 103281 123774 109913 104102 102056 110100 115510 104522
104359 107381 103560 104581 109224 103111 105250 102209 102765 105248
103800 110747 102746 119039 110689 106346 102064 113749 106107 128037
109551 102683 102924 104214 103908 103096 105593 103708 106328 124787
103200 117837 105543 107606 102039 124282 124921 114955 102447 103528
104198 102812 111949 103609 111518 105249 102534 138790 104494 118215
121528 119569 104397 103191 103033 104646 102049 102921 104934 109315
118197 104766 106288 102331 113612 108874 104370 105962 114805 101975
110466 102339 113198 113841 133800 103900 102219 102253 114136 118730
104190 116061 107950 102588 104233 106220 103311 104746 106882 103572
104949 109558 104702 111100 102362 123194 103812 107075 111060 108304
102723 113728 110798 102380 104501 105659 129359 106261 108011 102051
103940 103023 101699 103656 104057 118523 103868 133236 108825 112415
102755 109618 113540 116578 121310 103933 102367 102734 103347 109451
106243 109643 114125 102741 109452 102185 104141 102425 102860 102589
102883 106487 122169 118583 106305 102276 109115 113311 106860 104944
112384 104801 102103 110326 107149 103540 111527 133572 102566 113471
102504 113247 105089 102842 121128 102535 116348 105663 101653 115565
103616 109539 102555 101968 102642 103300 102521 102662 104069 104360
103876 102856 103159 120380 109336 105642 121220 105285 102599 116262
110348 103705 102086 107255 115589 104945 107250 101957 101800 107398
106001 129373 104456 103533 104863 103189 106394 106299 108937 109121
102265 115161 135984 107516 104531 114362 102454 111677 108013 104642
102877 102077 101793 135518 134245 135858 113354 102207 104024 105446
102640 109769 108132 104600 102122 112432 102532 130960 120850 138333
101863 106819 104520 130290 115686 128125 101878 106574 104339 113267
124105 103583 119322 106001 104177 104349 102846 101781 103846 107327
104997 102767 124466 101792 102173 102932 105975 109802 103719 125188
102114 112273 101685 106600 103757 103423 107648 103484 107722 102095
101558 110316 106838 102987 103655 102010 101747 104078 105383 128366
107490 105488 101935 103209 102769 116693 121824 109853 109959 137988
102933 116941 107476 126183 101841 102863 106856 137184 140703 101881
115485 108677 103923 115867 106245 110987 102752 108576 114197 102537
121405 108143 103496 104148 103540 102903 104292 104269 125630 102849
113707 102829 127754 116437 117897 103478 111168 106417 103777 102545
122949 102914 118425 105524 104610 103334 102523 107905 104118 108083
101977 102857 102005 102750 102679 102733 102075 107801 104778 130296
107214 134464 102981 103746 118040 102606 110331 102220 103203 103218
102572 102646 103534 140153 102608 105220 104529 102360 103580 113949
102006 109358 105547 106556 121239 113042 112454 101603 103681 103704
106836 120253 118361 102811 102258 116414 128312 101668 107007 103124
111290 104326 111695 111841 105668 102179 103622 103020 127621 101709
102807 102094 105809 103647 110455 150201 102854 126931 102938 130542
109446 103179 104795 102591 101974 106026 103810 103470 102410 102671
102701 102149 117245 111797 105229 102431 136577 108844 110340 107648
127979 109912 141794 104759 102045 110295 109306 102939 104962 102027
102062 102705 114009 104623 121444 103523 102895 102092 109849 102473
113861 103691 103956 102904 102557 102907 135054 111055 102157 101950
104477 101454 103809 106167 110638 102287 101800 104033 123444 107260
112800 102057 103122 103824 117451 102219 109242 102569 101398 101561
101653 106200 105637 102009 102841 108834 105396 102070 101645 110415
109242 107045 131235 103629 101927 101730 102791 118017 105643 110924
126889 102109 103323 111678 106287 101921 102594 102909 102386 101620
127923 104421 103517 122191 103715 101578 103101 103794 102105 134114
102109 104200 102197 111718 104163 112237 102157 102700 102875 113920
102167 101920 101422 105492 103336 136685 103954 104232 103629 108115
136068 147590 116206 102389 105153 102384 104598 106694 122582 103588
101876 101661 104765 102738 106642 102096 108421 101944 105887 101817
104990 101986 104250 103381 103549 139110 106899 102345 118995 101631
109673 104026 103779 114924 102152 101450 104030 104539 107197 103694
101873 102819 102214 109342 106380 101907 105877 108496 104604 106998
125150 103607 101847 101634 102281 101794 106690 104406 101849 105602
101730 102633 102482 105001 102472 103842 102233 116473 106050 115357
105723 102003 103711 116991 104135 102185 102453 102396 102221 129770
103501 123736 103383 101559 103964 108582 103446 103238 102372 105390
101708 103425 101549 101693 103477 103762 133314 107793 104920 101764
103710 104892 130482 106849 105852 103123 101917 101538 103380 103138
104863 101608 102193 117800 102454 124232 103466 104187 139291 107744
120581 102423 116444 103040 103524 102282 102372 110553 102868 116111
103006 102812 101803 103490 102486 117347 101744 106598 102728 101414
123340 102118 118913 103702 102512 102056 101707 102597 106564 102447
101577 101602 102498 105366 102179 101549 102262 102001 103766 106757
101983 101626 106093 103267 101955 101555 102197 103624 102199 101841
107241 102368 102839 102786 104661 101931 101835 101535 102893 101934
101963 102274 111190 102857 117127 102772 102406 101783 101752 101542
104163 102098 102077 102599 107394 101822 105589 101894 101728 101907
103033 105564 101742 103290 102248 102772 102120 122956 101854 108511
101578 104945 102375 102848 101946 101452 108095 102240 102459 101811
104153 102157 104283 121119 104095 102883 101545 101529 105373 101561
102359 102504 102332 108435 101905 101509 107237 102439 101460 102245
108252 101543 102633 102682 101782 101913 107914 102117 113207 102079
101356 102120 104047 101647 103176 101800 102184 103280 102682 118428
109796 101983 102225 101904 101932 107088 102007 109472 101859 101941
109677 104046 137060 103114 101443 102582 101825 102725 101913 102588
107126 101623 107368 102515 121048 109345 101433 102250 103859 101683
104570 102130 113395 104285 101494 101879 107858 102060 102095 111948
102529 102516 102213 105195 101994 101755 101744 102063 104788 101559
102524 102850 101947 102271 101874 101991 102871 102215 102702 144293
101509 105813 101916 110786 102330 102308 102065 103721 102562 101504
102809 101522 101433 101878 101629 103749 104696 104471 134104 103981
101603 101559 102575 102246 113747 103069 101500 101427 102382 101792
104583 104175 128647 103336 101567 101516 103470 105263 101643 102027
105438 101770 101636 107472 101893 102360 123545 101688 109280 103382
101400 102796 101621 103044 102622 101847 102151 102062 112451 102049
101972 102019 101979 101976 104330 101817 102485 101681 105775 101573
102511 101408 101980 109521 101775 108959 101919 101707 101794 102442
109240 102453 101462 102036 101798 101811 102557 101563 103040 101602
101719 102770 101418 101664 101404 101927 105013 101428 101590 102664
101672 107016 101555 101777 105856 101847 101608 102547 101546 102347
101483 102030 101864 101831 108650 101467 101755 101484 101766 103531
103226 101515 101600 101727 103749 101465 101667 102001 101555 103634
101728 101884 102218 102064 102578 101674 101466 101510 101953 101537
102020 105683 101406 101461 103432 101678 101527 101808 101570 102042
105038 101638 101795 103354 101572 101705 101699 101620 105759 101422
101373 102877 101653 101520 102343 101412 101593 101635 101579 101493
101508 101485 101608 101501 101731 101416 101615 101564 101701 101395
101958 101461 101500 101440 101423 119485 115899 124240 100312 113437
117231 103482 128014 109587 106560 115586 104319 107081 110265 107382
114125 110628 102855 98047.8 125789 117707 106981 96985.6 100743 118505
112283 101362 118003 124250 93038.2 104704 110201 100180 125974 116542
110038 123413 112402 112047 107048 123422 110609 105754 105082 100069
115209 120030 121386 116221 123613 96104.5 92615.7 103969 95939.5 95317.9
87660.4 113542 98494.9 101493 112688 106864 108119 123600 102843 116181
136951 127912 109012 102752 100338 117765 86722.9 127266 123280 127848
133122 106529 99254.8 123261 99994.9 113534 126628 107453 119106 127157
113320 119473 114654 109417 120352 62784.4 119772 111948 113888 123652
78431.3 57975.7 80981.6 68181.3 118436 92583.9 107798 91728.2 73146.7 95241.9
116454 134944 104025 83419.9 87197.8 123455 45027 86938.6 78696.2 102973
112219 103718 104055 109321 105923 107771 107552 111186 111037 110589
100950 109706 99941 106755 104220 107652 106483 97173.7 101045 118460
103631 121347 116479 102785 113998 106703 117245 115466 100767 96819.1
112871 102220 117218 99794.6 118869 129363 111646 128672 121311 113745
102630 116456 107796 115401 118198 110102 116554 114017 123062 110586