/*--------------------------------*- C++ -*----------------------------------*\
  =========                 |
  \\      /  F ield         | OpenFOAM: The Open Source CFD Toolbox
   \\    /   O peration     | Website:  https://openfoam.org
    \\  /    A nd           | Version:  9
     \\/     M anipulation  |
\*---------------------------------------------------------------------------*/
FoamFile
{
    format      ascii;
    class       volScalarField;
    location    "0.00185";
    object      p;
}
// * * * * * * * * * * * * * * * * * * * * * * * * * * * * * * * * * * * * * //

dimensions      [1 -1 -2 0 0 0 0];

internalField   nonuniform List<scalar> 
13506
(
12999.4
75730.5
12052.4
12692.5
12588.8
14373.3
42593
13974.6
28820.9
73584.7
31832.7
16189.6
79293.8
77058.1
136561
189310
12016.6
12381.7
12362.6
13007.5
12488.7
12488.5
13245
15438.3
13100.4
12884.6
16750.8
42894.9
42386.2
17450.1
12270.5
12404.3
12381.1
12630.2
15915.6
13146.2
13998.3
12820.2
12827.4
12587.1
12889.2
13178.6
12902.3
13161.2
78852
39224.1
40726.4
145896
114874
105343
127234
20236.8
16105.1
13801.3
51424
27903.1
20403.3
66020.6
72906.1
69190
51557.5
98018.2
96990.3
95833.9
106940
12612.6
12910.2
12832.3
12889.4
13260.2
12930.2
13171
35135.9
146327
102107
96292.1
75728.8
134436
36163.7
16495.2
13597.6
30250.7
16338.6
16878.3
13437.9
17226.8
14155.3
24072.7
21433.2
34609.8
18336.4
15478.7
19373.5
13163
13574.9
13926
13914.6
14054.3
13170.1
13538.1
92343.3
53956.5
76292.5
111511
119665
42888.8
92389.5
177217
186437
172674
152865
173331
169686
156445
13235
13658.8
15485.9
14034.6
14529.5
13534.4
13549.5
128725
115211
131140
152211
146500
114729
130429
37147.1
80041.2
14558.2
14204.1
12791.7
24815.7
76492.4
15218
52503.1
94702.5
64323.6
51439.8
95680.2
82033.6
136755
129686
12707.6
18056.3
13771.8
19910.6
14317.8
16793.9
27748.4
22119.6
35133.3
68914.2
41458.6
77553.8
84083.9
56417.1
79968.7
81940.5
85548.3
93420.2
95827.2
95353.9
95369.6
13039.1
13261.2
13023.3
13422.3
13170.7
13869.6
13702.6
25293.6
20459.9
16024.5
21415.8
52143.5
29323.6
39549.4
83903.6
51694.8
78575.8
88064.7
74143.2
67337.3
91898.2
32539.9
27159.4
18212
23328.1
61788.3
35533.2
44022.1
64812.6
107688
93897.9
95534.8
84856.4
106769
72802.9
15176.9
13591.3
13628.2
15496.9
15706.3
18530.9
14316.8
13949.3
17410.5
14426.6
16155.1
16838.7
20895.1
14598.9
86785.8
92768.9
88327.2
97997.7
107916
103480
100707
110574
124038
108488
107766
129264
122479
112000
31508
64888.6
56114.1
69379.4
45451.1
41657.7
55649.4
97547.1
83940.6
89232.7
113624
109033
78060.7
102092
19346.5
18826.4
35267.5
19789.4
26702.2
24762
16068.3
110687
121910
128810
131892
124457
115480
115908
61011
61931.6
88484.9
84636.1
48480.9
55715
30532.7
2421.61
1671.04
9655.56
12322.8
12591.7
29890.1
16020.8
33354.9
35775.3
68674.8
52388.8
63842.2
40186.8
55149.7
70304.2
28010.1
51202.6
31166.5
62007.9
48682.5
51204.5
63281.3
10814.4
39600.6
23421.1
43342.1
27399.5
40189.7
49222.6
63801.2
53466.2
45838.7
55580.5
69977.1
68996.7
58359.1
75332.4
72211.8
63572.2
64917.4
87896.6
77742.5
74438.4
52646.2
47765.7
38279.1
52583.1
64758.4
63247.6
55752.4
64591.1
78583.7
88950.4
76047.2
78000.6
75082.7
66061.5
13185.4
13441.3
12308
13765.3
12035.4
13720.3
13196.1
12636
12610.3
15006.6
81965
79530.9
11181
12460.7
8264.37
8148.23
12538.4
12609.1
12467.3
11815.2
12713.7
11805.5
12300.5
11924.9
12583
11961.6
12055.9
12522.8
12743.7
12019.5
16101.6
18657
41758.9
11221.6
11990.2
12776.4
55163.1
10380
11027.4
10968.3
11557.2
11359.5
10776.3
10359.9
13232.4
13396.1
12931
13055.7
13873.3
13358.4
13495.6
13240.5
13062.7
13874.9
13362.9
12974.5
13356.5
13496.2
80974.3
87365.1
80061.9
42746.9
54698
32130.8
58735.1
5370.79
11221
17129.7
5478.72
8342.33
9628.81
22472.5
12440.5
12550.3
12203.4
14006.2
13376.1
12511
11989.5
12569.6
12437.4
12342.4
12568.1
12241.4
12512.9
12178.5
12265.4
11322.8
11931.2
11599.8
12076.2
11852.9
11122
22189.3
71690.2
65399.7
26503.3
22910.5
19810.1
12808.9
12790.7
13184.6
12804.7
13226.1
12902.3
12896.2
13259.9
12895.7
13096.5
12828.5
12902.6
13132.3
12825.8
13249
83760.8
52601.8
59107.2
93439.3
91137.2
49988.2
59907.5
14055.8
5591
26114
13174.7
5698.54
8300.38
25806.1
12496.4
12922.8
12426.8
12325.3
12086.1
13015.1
12932
12297.2
12473.1
12536.8
28230.4
3617.07
11544
12714.9
8232.52
7959.07
12484.4
11892.7
11910.3
12231.8
12024.5
12381.7
12019.7
11335.2
10841.3
10617.5
11197.7
11750.1
11967.6
10986.1
12707.6
13395.3
13000.5
12524.5
13079.7
12764.4
12766.8
8219.27
4319.85
4587.79
8170.25
4148.51
8167.38
3871.36
11999.7
12203.1
11989.3
12106.4
11883.3
12123.5
12108
12183.7
11486.4
11388
11817.5
11121.2
11456.2
12301.8
12451.8
12289.4
12495
12235.3
12447
12385.3
12274.9
12610.7
11488.8
11456.6
11499.3
12263.6
12476.6
11316
12335.3
12179.4
12169.5
12632.6
12401.5
12306.7
12482.4
12481
12783
12908.3
12702
12588
12653.6
12677.9
3605.06
7958.62
8126.81
8229.01
4026.74
8115.24
3555.22
3751.9
3441.35
7817.53
8000.73
3686.23
8027.39
3412.9
13042.5
12717.3
11810.9
12653.6
11727.9
11508.6
12623.2
12434.5
12509.3
12231.5
12377.3
12234.9
12425.4
12317.2
12653.1
12431.5
12287
12348
12664.6
12504.9
12509
16168.7
8695.16
8561.45
7235.69
8516.17
7945.62
3605.22
45934.8
57382.5
70089.8
109533
6763.61
23338.7
4449.66
1813.84
66281.4
68035.9
50055.9
50993.4
40282.7
41780.4
60437
3773.21
24816
5933.39
27610.4
20230.4
21752.8
4819.1
52139
21859.1
30857.9
33219.6
57621.2
57417.2
28150.8
74702.1
51298.8
50786.6
43248.1
75347.7
45844.9
65873.5
27792
6902.6
28133
22133.2
4968.97
21537.5
5250.07
836.746
5393.34
12600.7
14025.1
2034.16
7193.72
2303.73
36822.3
80780.9
83734
51665.2
48034.5
65740.3
40280.9
15103.3
23045.9
5873.85
8420.56
19882
12233.8
2641.57
29266.6
49099.1
17232.7
29056.9
1217.4
2119.01
558.595
1346.52
1617.84
540.915
660.188
1376.82
1098.8
639.489
483.013
1001.36
1449.81
1165
490.436
973.052
549.277
1875.35
1213.15
2313.23
1198.82
950.344
646.223
613.805
4005.9
937.258
452.766
455.477
3345.3
535.087
721.439
7965.35
11433.1
9445.51
1555.9
2188.74
32907.1
15003.4
12309.4
6682.16
2242.91
643.344
2162.48
28419.6
17018.9
8920.14
7709.39
12979
1349.47
3353.4
35898.9
14990.4
20867
10242.2
39989.1
39486.3
42895.3
26622.2
30123.8
23192.5
24129.5
61460.7
12547.4
12543.9
13535.9
12528.2
12583.4
12301.1
12114.6
82690.3
49285.2
23823.2
50293.7
18895.9
12554.6
3721.15
11999.2
12270.3
12106.1
12091.8
12193.9
12223
12209.7
12430.2
11684
11421.2
12425.2
11722.6
12860.1
12860.8
12227.7
12164.6
12088.7
12287.9
12153.2
12287.9
12430.3
7352.16
8534.91
7992.54
8807.05
9083.81
16387.8
28951.5
12459.7
12284.7
12307.9
12356.9
13739.2
12587.6
12445.2
14195.2
12926.1
12771.4
18913.5
18278.5
38088.2
14110.2
12344.2
12220.9
12136.2
12320
13941.8
12526
12422.9
14659.2
12895.5
13322.5
20272.7
19592.4
43275
14205
12763.1
12475.8
12336.8
12484.4
12913.3
12721.3
12651.5
41036
26968
15438.6
41278.8
65104.2
65255.3
50635.1
53735
19751.2
35117.8
45319.6
71181.6
71442
54034.1
12722.5
12463.4
12310
12466.1
12888.7
12689.3
12632.3
12527.3
17193.8
16890.6
15700.6
13490.6
13439.7
13728.3
39286.1
75957.7
31874.6
30515.2
64201.8
62120.9
18521.3
12668.7
13521.6
13162.4
13166
12939.8
12941.1
12851.1
66834.3
75985.3
84918.1
73503.5
79709.4
77142.8
66641.3
166325
183683
173744
108548
101775
130231
198661
123836
191150
177246
122679
112674
169281
133695
193995
203260
103018
108514
109831
119330
120591
127770
126425
105419
115376
112205
126360
122967
130220
133599
117481
119356
130773
123745
135919
137800
142563
115804
125122
117151
135557
142646
143939
134195
122625
127349
119527
137996
149302
146226
141226
128343
134084
128664
147732
141536
147991
154047
167762
140451
141822
149250
173767
147889
175159
126275
137743
130391
153094
145140
149714
157637
170219
147716
144240
151677
181094
177582
155127
178236
152178
157508
185562
159440
164525
190969
148197
161160
140663
142533
135120
155011
163008
157343
181954
192587
164811
166138
155992
183355
159753
189348
171750
195073
168467
185814
163095
170347
204940
197484
190051
163530
170470
197399
193812
175911
167267
172273
208903
180956
199285
185062
213638
223840
178174
215688
186957
205855
14200.7
11752.4
14921.1
11792.5
14623.9
14113.9
13315.9
12831.2
14113.7
13609.6
14595.1
14306.6
13705.7
13945.7
14666.2
13349.4
12753.2
11495
11650.3
13022.8
11768.5
13079.1
14052.7
14814
14087
14913.4
14126.8
14244.4
14894.1
13458.1
11535.1
13488.7
11779.8
13776.3
11777.2
13430.6
14058.1
14719.4
13833.7
14016.4
14876.1
14095
14842.7
13544.9
14448.1
13823.2
14076.5
14297.2
13690.6
14635
13303.5
11631.7
11685.5
13442.3
11769.7
13748.2
11770.6
13051
11928.3
11622.8
13331
11699.6
13010
11756.4
12435
11765.2
12402.6
11788.5
12422.5
11796.5
12387.3
12965.3
13316.9
12785.8
13365.2
12820.5
13417.1
12873.6
12881
13319.4
12957.3
13402.6
13383
12912.5
12863.6
12100.1
11495.1
11587.6
12070.5
11507.1
12183
12019.4
12118.6
11550.9
12125.9
11675.9
11558.4
12176.6
12084
12229.9
12351.3
11741
11705.6
11671.9
12306.9
12245.3
14428.3
14179.5
14043.7
14416.4
14499.4
14113.9
14372.2
14438.6
14453.4
14195.8
14070.8
14383.8
14127.8
14534.8
14811.1
14985
14799.3
14981.3
14778.4
14777.7
15133.3
14413.8
14145.3
14145.6
14345.8
14370.6
14136.9
14370.4
13039.6
13625
12935.5
13482.8
12946
13594
13020.6
12395.6
11630.9
11704.8
12139.5
12307.6
11760.5
12256.5
13048.7
12959.3
13644.9
13504
13035.2
13607.3
12962.9
12481.9
11791.4
12504.4
11790.4
12485.2
12483.3
11807.4
13129.9
13739.6
13742.4
13204.8
13154.2
13709.8
13151.2
12429.9
12388.8
11780.5
11779.9
12390.5
12414
11792.3
13063
13482.7
12890.3
13459.3
12965.3
13531.2
12936.7
14281.1
13842.7
14194.5
14027.6
14277.4
14234.1
13967.6
14341.9
13938.3
14147.6
14368.2
14344.3
14400.5
14030.5
14703.8
14860.6
14757.4
14934.1
14681.6
14741.1
15029.4
14342.2
14069.5
14118.5
14315.7
14304.9
14344.6
14064.5
12950.9
13335.4
12811.9
13497.4
12822.1
12931.2
13478.4
12328
12175.9
11653.8
11685.9
12224.8
12260.8
11709.6
12355.7
12278.3
11684.7
11723.5
12277
12344.5
11728.4
12993.6
13428
13597.7
12922.8
13001.7
13532.3
12904.7
12448.8
11760.8
12488.5
11783.4
12445.8
12471.3
11779.2
13086.2
13670.1
13713.7
13183
13100.7
13132.6
13646.1
12392.3
11748.9
12378.5
11773.3
12402.4
12351.8
11760.1
12218.4
12188.5
11651.8
11690.6
12205
12236.2
11673.4
12819.1
13351.9
13292.3
12940.1
12842.4
13330.9
12858
12216.2
11698.8
12166.4
11706.1
12198
12222.5
11672
12234.3
11728.8
12339
11700
12237.3
12284.6
11695.9
69341.2
70746.4
47025.2
31694.8
93751.1
87942.3
113113
99897.7
35693.7
50804.9
53050.4
59726
62798.5
70343
69555.9
41243.7
56752.5
55308.2
66833.3
65443
70551.4
70744.1
48276.1
60397.2
27138.5
61270.3
21737.8
7314.94
517.918
509.987
516.112
1309.04
1223.21
1158.03
1112.98
766.487
657.254
660.16
1030.08
1100.99
2732.87
1190.77
1401.66
4932.02
9544.83
867.422
698.16
5867.64
23632.9
26658.8
4474.13
24601.4
2671.48
3282.4
6702.04
27899
32595.9
4661.2
14337.1
1508.7
3801.21
9314.27
37126.5
31344.8
16445.2
35949
19418.1
7617.64
12651.6
53639.9
41958.1
24510.4
22418.6
60465.5
44222.3
45125.2
46191.7
46530.1
19769.8
27806.7
55934.9
59492.1
50558.9
50073.8
48239.3
35834
63694.6
69977.5
63401.7
74985.2
81386.1
81047.1
74938.9
76300.9
89767.6
78001
82217.2
93544
95209.4
80999.6
62659.3
70002.3
62699.6
75101.9
82712.8
81312.6
75725.1
80256.7
91660.4
79263
83329
99419.5
97024.9
84534.6
33442
14726.1
9356.63
63765.2
3046.03
72930.6
88850.5
81334.4
2583.46
1888.54
2118.72
14454.6
15803.1
21265.1
19053.2
4674.95
4666.69
2678.08
27302
19139.9
27517.8
38088
18260.1
6995.15
5531.29
33439.7
44630.7
49046.2
29598.8
25084.2
19792.5
11246.1
41054.6
60469.6
54739.4
49940
39410.8
65320.1
41645.9
50285.5
70239.5
47729.4
71342.7
56253.9
68798.3
46833
57021.3
77743.7
74008.5
65629.2
62535.5
69662.9
75699.4
83211.1
72350.7
59108.5
76962
68032.7
76729.3
83403.6
86068.4
74906.9
79720.7
72340.2
567.111
1444.05
528.533
8323.14
2486.87
1642.63
505.448
793.254
2632.13
799.811
779.748
708.103
2364.72
2203.42
729.632
1916.69
2222.11
601.833
686.863
733.139
660.331
1948.24
585.15
1648.86
1535.36
639.59
1997.95
1873.48
656.256
493.906
478.34
484.013
462.207
459.789
448.998
452.201
493.69
1164.88
1352.46
1393.29
548.547
600.105
1646.28
555.089
552.336
497.02
432.225
450.1
454.184
440.048
1955.84
665.585
595.498
458.836
445.113
435.7
438.945
3665.17
2160.78
952.179
508.725
750.343
455.664
433.088
12492.7
11992.7
12907.7
11627
14311.9
13327.7
12954
12435.2
12359.8
11663.3
12155.2
11668.7
12126
12417.8
11654.7
13708
14393
13851.9
13331.5
13979.9
13400.6
13870.4
13149.8
11594.1
11630.4
12645.8
11458
12743.5
11760.6
12656.4
12811.8
11782.7
11819.3
11873.8
12559.8
11723.6
12648
13208.2
12763.5
13070.6
12623.1
13144.4
12735.8
12099.3
12141.6
11617.8
11572.2
12120.8
11555.9
12156
12074.2
12182.8
11628
11540.9
12047.5
11560.8
12166.5
12011.5
11502
11922.9
11471.2
11974.5
11984.4
11500.3
12049.1
11787.9
11703.7
12182.1
11782.8
12277.7
11705.2
12956.6
13753.3
13293.2
14078.7
13547.7
13183.4
13626.3
13005
12563.2
12619.1
12933.7
13486.3
12997.6
13376.7
12701.5
12270.6
12418.8
12884.1
12589.4
12778.7
13145.1
12256.8
12159.4
11941.6
12542.9
11985.1
12418
12059.8
12365.7
12118.7
11620.2
8266.35
3622.19
14859.6
11675.9
47611.5
19123.5
11999.8
11729.5
11676.1
11940.3
11748.8
11932.9
11820.1
11476.7
11016
10945.6
11197.6
11787.8
11921.5
11141.5
11930.6
11942.2
11795
11993.6
12057.8
11941.4
11907.8
11835.4
11366.8
11159.4
12327.9
11336.7
11281.4
12107.6
12617.9
12285.6
12327.9
12151.7
12407
12172.3
12363
8330.66
4347.22
4174.4
8117.01
3947.28
8183.14
3814.03
12070.2
12222.7
12204.6
12043.7
11931.9
12026.8
12002
11529.3
12120.1
12050.6
11167.6
12032.3
12125.2
11146.2
12384.4
12087.9
12168.7
12248.1
12095
12094.3
12272.5
8093.7
8191.12
3911.37
8092.83
4038.66
8018.57
3698.86
12126.3
12293
12240.3
12122.7
12135.6
12055.6
12075.3
12560.8
12579.6
12370.2
12186.8
12413.3
12195.4
12387.7
12342.1
13170.1
12351.7
12289.4
11849
11282.8
12238.9
19593.9
10503.3
10158
8092.52
4257.79
8132.4
4247.71
12359.8
12598.8
12539.4
12363.8
12213
12167.5
12340.6
29672
28619
14551.8
9827.8
14136.9
8296.36
5640.98
11742.8
11104.5
8330.13
4028.08
10915.5
11167.2
7993.13
8243.06
10325.3
11226.8
10602.7
10839.3
10680.8
10959.5
10179.6
10971.2
9407.54
8803.37
9900.89
10816.5
10715.7
9584.43
10988
10740.7
10473
10218.4
9857.87
10171.4
10904.2
7870.04
5545.55
5647.42
8198.33
5539.53
8124.64
5374.61
10150.2
10964.5
10162.6
10914.5
10914.6
10149.1
10192.7
10295.5
10992.3
10297.6
10894.8
10914.1
10259.3
10309.8
9441.42
9433.56
8798
8849.01
9416.84
8828
9448.24
10168.7
10844.4
10849.9
10236.2
10846.6
10172.4
10208.4
11438.9
11084.2
10838.8
11439.4
10769.9
10514.3
11144.8
8193.38
8135.67
4741.87
4996.33
5327.42
8226.1
5098.47
8381.24
4859.75
4667.77
8298.66
5249.42
8314.51
5063.02
8211.02
8265.21
4366
8234.05
4397.2
8272.79
4763.65
86651.3
93679
107336
87326.6
108904
94203.9
101532
88459
97299.6
105873
110706
95398.6
103382
90163.7
72412.4
76112.8
91796.3
71426.5
107756
89685.9
83554
83285.8
143109
150136
144315
150420
87066.4
159532
167258
102218
95923.9
145361
152602
91395.4
64983.4
58102.2
93505.2
96758.6
129753
116093
149256
134441
94361.8
88917.5
155003
100066
175578
171803
191068
116959
106424
157531
106658
177917
52091.1
55772.1
67791
60643.1
69474.6
71594.3
74047.8
77832.7
83215.5
84670.2
93869.9
95409.6
101018
99542.2
69279.9
73224.3
71099
90280.3
88464.6
89963.2
91812.8
91438.7
73281.1
70961
69013.2
70957.2
88208
89688.2
99977.4
94782.4
77626.6
81283.4
75136.2
92817.5
97943.6
77433.3
81403.5
75270.4
93037.1
99968.5
94952.3
98074.9
81934.9
91679.3
87941.2
103469
98575.3
104052
108359
64136.6
77066.2
67545.2
85088.5
77343.3
80666.9
88970.1
59451.8
72202.7
65139.9
78186.5
72841.8
78417.7
84403.6
90382.6
96849
91351.6
107733
113036
114158
106454
89288.3
106248
87590.7
92868.9
104424
110998
112572
87574.3
93887.1
92723.3
106023
104426
110840
112088
95761.1
96703.1
100823
109027
113220
114732
118697
96604.7
99051.5
93597.7
110285
119748
116408
113845
81825
100549
84329.8
102480
86359.2
89367.7
106103
39155
55621
42276.8
10908.6
77603.3
105303
91823.5
93837
23881.7
19521.9
39976.1
32747.6
49353.7
52654.8
59244.1
30766.9
50320
42042.5
64424.6
58213.5
63917.1
66666
52732.9
55461.1
45907.6
67550.6
62673.2
65061.5
68807.6
66147
82437.9
71432.3
83263.8
72094.1
75032.8
87159.6
51687.8
60306.3
57460.5
66946.8
73477.5
69162.3
70485.1
78427.4
87285.2
75260.9
77691
95532.5
80615.4
91060.3
80092.9
88447.3
75990.4
78041.9
96885.4
82101.9
91468.4
80657.1
88682.4
100034
100863
83900.7
84915.3
95446.4
83634.6
81276.2
73444.5
85620.4
100342
93925.5
91731.5
100674
111433
105793
124194
118298
123710
129563
100656
106203
99094.9
117725
126716
125208
119236
88159.6
104967
110258
93802
115705
110584
99044.6
107054
105948
98876.1
117468
125996
118589
124915
99817.9
108854
92432
95829.4
119767
103422
112464
102829
109627
113244
128504
121183
125026
132128
114229
141924
112712
113962
144274
115511
143095
116408
122126
146502
148834
118015
120477
145286
143081
113723
115083
141928
112513
113725
143084
146667
122104
117773
116215
148913
120384
145308
117008
146602
118367
122728
148824
121326
150161
28726
3149.54
58417.4
1652.25
58176.3
69658.7
69503.4
37553.1
12742.6
67457
6928.55
79722.5
74089.1
50166.6
92069.9
91472.1
1809.63
1606.69
1799.46
12719
12660.1
13660.3
11876.4
20094.1
2323.15
3891.6
13032.6
14237.3
12031.1
17315
3148.65
2162.81
2204.94
14655.4
21236.1
15924.2
19114
10562.8
27838
6603.02
15173.9
29975
19833.5
22433.3
6324.88
16923.4
14489.7
32284.1
28651.5
41476.2
46092.4
16561.7
66576.2
25152.7
41044.1
29396.3
41485.2
51469.5
34904
35033.8
55649.7
60499
37038.4
58100.2
32890.5
35305.1
55559.5
60798.6
35162.7
58250.1
33091.4
37391
64935
49062.3
41520.5
39385
68011.6
46615.7
62838.8
39126
49228.3
64762.7
67953.4
41473.2
46405.3
62713
44950.9
32622
48787.5
54503.8
66110.8
58789.2
63979
60395.3
66299
75114.4
35098.7
46249.2
54186.1
64020.6
74319.9
69095.8
59857.8
72661.6
56678.4
65656.6
77903.1
60071.2
72582.7
56720.8
65704.4
79641.4
68562.6
77781.3
51486
22112.1
54780.7
39031.8
2851.07
3351.78
490.102
1198.9
29466.8
42151.8
57625.3
23600
34043.7
22054.2
47173.6
2813.27
898.752
1068.03
7823.22
4421.68
7629.69
3738.66
64413.6
34759.1
61698
47554
42197.9
38148.8
51358.3
2924.9
2480.19
1516.91
12711.1
19549.7
13240.1
17117.3
20053.3
32915.2
28187.1
6155.38
14075.8
10485.6
38644.4
475.1
558.452
490.59
4287.16
672.821
1903.99
1291.74
47800.9
24811.5
33655.1
17983.5
28364.6
14483.4
43516.9
760.074
525.986
600.966
7359.33
3931.95
10352.3
2481.64
71518.1
78129.5
85910.2
89962.6
73830.2
76041.6
84254.7
86360.6
78255.8
74128.1
71522.5
90152
76096.3
84439.1
12853.7
11085.2
49405.4
76370.5
10956.4
10845.2
7835.64
8111.14
8864.55
11184.1
28371.3
10837.2
11057.8
10766.6
18790.1
8676.45
10801.4
9747.44
11071.9
11114.5
8850.58
20072.1
8390.59
18266.6
61990.3
6908.61
8182.87
21819.5
35443.7
13833.3
68597.2
70467.8
46270.6
21044.6
34124
52380.1
11047.6
8775.51
8851.93
8827.68
11065.3
11113.7
8843.05
10954.3
9930.69
9427.06
8735.47
10984.4
11067.4
9567.08
8141.88
5628.02
5686.67
8088.25
5277.42
8219.88
6404.96
7920.39
5465.49
5565.82
8026.7
11439.9
8631.22
7911.23
10334.5
11021.8
10250.9
11099.1
10388.8
11098.3
10177.7
10351.6
11006.4
10324.1
11034.4
10324.3
11048.3
10346.3
9800.16
9307.87
9131.43
9780.8
9684.81
10460.1
9223.84
10816.7
11418
10809.8
11653.2
12358.7
10767.8
10487.8
10204.3
10925.6
10902.3
10104.4
10856.4
10050.9
10400.3
10145.6
10322.8
10987.6
10989.2
10872.6
10198.2
10249.8
9502.8
9539.33
8743.5
8973.39
9441.42
8836.96
9592.65
10168.4
10860.2
10928.3
10579.1
10083.3
11010.6
10341
9462.52
9540.65
8717.14
10818.5
9538.46
9032.33
9870.36
10419.7
11098.1
11099.3
10363.6
10402.3
11126.1
10398.2
10366.9
10413.9
11096.6
11096
10334.8
11100.2
10411.1
9620.34
8862.18
8793.17
9588.51
9616.7
8759.23
9624.99
9670.14
11460.3
12542.6
15623.3
9990.69
9985.3
11042.2
11120.3
8211.38
8450.33
9957.78
9089.92
14190.3
7737.81
17076.9
32360.1
8940.41
23266.6
12656.7
10427.5
40174
14780.2
18362.3
6682.92
9184.83
23635.8
11527.1
7349.25
8337.64
8164.73
8216.1
7433.88
7820.31
8453.82
7477.9
10385.7
11053.5
10369.1
11058.4
10369.9
11070.7
10384.6
9499.88
9425.48
8769.85
8773.37
9455.07
9465.48
8767.74
9590.41
9558.88
8867.46
8880.7
9556.16
9592.47
8859.48
9592.98
8871.82
9577.83
8869.58
9603.03
9575.11
8869.16
10404.4
11077.9
11095
10354.9
11107.9
10380.6
10391.1
10394.1
11105.4
10415.5
11092.4
11089
10406.5
10404.8
9639.25
8871.8
8875.46
9581.5
9614.7
9619.65
8889.17
10222.2
10987.3
10190.5
11024.2
10208.9
11005.6
10239.4
9437.57
8761.65
9417.38
8762.6
9367.89
9462.27
8764.46
10233
11037.6
10993
10272.5
10213.9
10997.8
10294.1
10373.5
11073.8
10364.9
11019.2
10333.7
11028.8
10369.8
7435.93
8149.13
7384.97
8131.42
7372.94
7413.05
8168.02
7358.82
8071.51
8076.57
7396.36
7314.74
8134.4
7283.64
6489.52
5073.3
6446.1
5557.92
6521.21
6516.54
5058.66
7523.78
8247.16
8231.62
7502.85
7538.51
7490.12
8272.69
125062
148833
120862
125373
156387
152554
129504
111492
117859
122925
129903
141922
135507
136704
128552
161019
133583
153662
134989
127114
155092
161697
127778
155419
153801
126024
132729
159991
127566
153666
126001
132559
161079
133923
159783
131141
163575
141076
161414
137482
157582
134998
100249
113720
122265
124257
107938
116867
105833
130411
161334
134617
163575
136585
140476
167209
141578
168767
176376
139961
174741
147678
167107
139689
174424
168011
148495
140876
147369
166819
145592
166194
139767
145321
177244
151027
171778
170371
150926
143377
147036
181284
154418
173798
151712
183663
164216
185668
157265
158886
178252
210965
240779
411890
334121
332637
240466
210046
411738
189710
241974
191173
196691
195153
245535
246905
190321
240264
189385
195865
194850
245029
245525
203369
209308
201769
252521
263827
254138
261979
208964
202478
201440
252010
262336
252711
261460
335218
417101
416012
339662
413889
340874
414914
333330
414953
416855
338845
413134
338569
414699
348153
360560
412755
413038
349478
359384
413739
347358
412983
412281
358743
347369
358718
413577
352092
404807
259885
225516
334724
243921
212278
410178
407620
241054
408241
237512
337661
192832
247871
418352
181240
329574
239600
181559
331057
426757
423335
179584
329031
237018
345697
199086
254764
403499
233595
407880
225283
251686
380931
402619
268142
360094
400753
238879
182364
183908
185161
232048
234482
233233
233130
180326
179178
180331
233670
232735
233678
234746
178912
180640
180029
231663
232025
233008
232631
185557
238650
186918
183708
182410
235156
236343
190888
237834
187934
184483
187378
236475
234985
186035
236968
185236
182750
182078
234503
234394
194284
187826
189159
237091
239864
241348
235761
200444
242852
195107
196790
191474
239314
243968
195468
241657
192376
197983
201131
247149
249873
210561
253087
205015
247709
199761
205330
254069
200563
206383
207855
246017
247669
256323
254620
204607
215569
207743
264617
254650
257746
268401
206707
203083
214101
210401
250557
259408
264055
281667
269251
217332
219968
211979
262494
273972
216989
260372
211308
218843
224780
270589
279366
214980
226875
216504
268152
281996
284046
266230
232473
292115
278532
223957
232102
290925
305988
222965
229635
219155
271655
293688
287850
276898
227942
245660
234225
302056
284246
294184
313336
323739
323945
413760
418050
322327
413663
324976
331081
428255
330810
331087
425072
331311
426755
427126
326497
329203
329836
422748
327411
426179
325809
408180
328279
410309
330163
323973
410326
328485
411476
414290
325975
416252
412580
325905
331807
419975
418671
330692
421932
330899
423555
330200
417357
419685
329672
420230
327669
423173
265422
254227
241993
307166
346291
323966
327943
332958
410340
412655
411321
339473
341759
409585
332570
407329
409073
328517
407787
333137
409777
343998
338181
407041
406614
408412
345897
407996
407376
335774
337670
348507
408189
346769
407669
410755
360000
348617
351255
408404
362629
409135
406586
407028
340902
351625
406117
406985
356229
372650
361738
405852
355715
406601
366982
407525
352217
406076
405239
405084
362334
369823
403869
364297
405264
381486
405429
377963
406544
368421
361572
408460
406808
374911
375836
360201
407623
379748
369418
404161
378430
398729
388532
402330
403915
386558
373914
380765
396592
392960
401932
389081
407536
392052
390368
398306
400243
398239
213801
222666
252179
406521
409812
244086
410399
337220
193760
247383
197507
199425
203212
249474
253306
217724
206115
209903
267164
257026
261250
272029
202228
258391
207585
213296
207915
258573
265427
228519
220177
214670
267187
287510
274983
278683
340483
414479
412643
412561
343275
347084
411108
408269
352630
359639
345591
411076
352617
409734
362903
411495
352084
356016
408583
366525
409973
368076
377583
404670
361379
406684
371503
408324
339731
411238
194998
247412
240472
183711
333329
423564
189324
243249
192861
185997
189350
238065
240507
182407
185574
186945
235146
237527
236344
238684
245502
196490
189726
191192
240826
242038
246854
197479
253172
202875
199156
193764
244149
249391
336166
416790
414741
419365
331362
333372
416822
330690
420011
421941
331079
330907
331847
418717
415049
414041
340975
417185
334192
335317
416108
412714
343376
347155
340551
412700
337322
414562
344821
101298
101298
101298
101298
437663
206943
105566
443869
260336
231933
101361
434001
410541
417102
444017
441710
373304
361010
441466
386309
400699
429008
437453
342439
315077
108233
101353
101298
101301
101298
101298
101298
101298
101298
101298
251365
104165
322053
427717
441488
112660
204473
355803
101308
101298
101298
101298
431020
219222
106516
106375
354230
445314
217800
155543
282658
387439
101299
101324
101737
107367
431620
423536
421103
445561
447055
384551
380761
431907
379983
420815
431071
423440
446912
384300
443816
434691
438824
371851
416640
409868
358707
436872
445144
442846
384365
399570
338754
309482
412222
435114
443471
361610
326285
267434
214614
422566
174842
295992
360532
426125
303246
181163
165462
417779
284528
326546
408677
263386
150168
406702
341980
416475
146999
162906
281507
258789
176421
423324
297640
361118
426406
303848
181825
101315
104183
101298
101298
101315
104407
101307
148395
111691
315835
151947
320737
225211
112640
314975
111469
147670
151668
320470
224664
112540
101312
103703
101298
101300
102502
101299
101298
141286
109900
305770
289197
131736
188753
107704
101298
101298
101311
103625
101303
102419
101300
304091
109572
140071
130289
286369
185350
107341
347013
384695
416781
205877
273123
162189
124773
374342
299000
394914
233976
119841
198655
133693
264479
113741
121961
166665
103848
143550
105585
369657
292302
391944
117561
130696
227794
191610
226308
120565
260246
162754
103590
139677
105255
208295
289331
443195
313399
208918
290150
445797
346408
228833
235903
206852
234137
227161
259087
261127
207130
229570
236622
234430
227476
259407
261947
354158
254261
296182
286999
252286
293821
351061
274767
345630
407187
342929
272628
310777
404995
287296
255075
252609
294132
355123
351362
297054
343177
275530
272917
311080
407841
314281
405181
459516
211747
265181
407230
331343
435175
229220
309929
364459
334150
451410
427550
337502
441578
287121
456824
216161
232898
240047
237972
245253
266090
272413
221961
253075
260923
244628
252116
280944
292362
272312
249536
277781
238301
263878
307816
329295
303307
259073
295247
363191
302374
310896
376477
286859
353228
279951
414147
320387
330292
423911
284187
273352
314796
323236
418142
395108
341055
400083
380235
296489
344608
446995
364415
435787
306804
281207
263486
295913
320254
359702
400801
459637
388612
355597
318193
298620
366038
398999
454919
443514
422301
354549
328892
390887
421586
446553
375244
450856
372289
448861
442337
451118
450757
443325
376162
372574
448552
442320
451024
453243
441797
451806
446860
384226
452107
397199
427252
386456
346094
459440
463637
467540
435635
388284
457510
459820
467158
428214
449385
450186
450881
424375
453560
457006
459172
414227
433571
425627
380088
442764
456130
445012
450765
462352
376018
420796
342660
194011
272304
395210
463804
285167
335851
202726
109212
155168
126597
104730
101300
101298
101298
101363
101298
101646
101298
187246
104210
150017
102466
121517
110487
101826
156253
122727
219035
111054
101706
104669
102565
101607
133703
103253
136624
101636
107013
103438
132929
101598
103204
136277
101632
106946
103414
101549
128063
102899
120957
101478
102464
104388
105360
126906
101536
101464
102828
119674
102386
109123
102503
122641
105063
101370
102622
101507
102403
114047
101411
101732
108692
102052
103266
102268
103074
101400
112909
101683
107887
101985
252273
294188
392237
425028
395061
307869
357451
371345
278086
315693
284438
366031
372606
395807
401096
305864
342145
327000
293565
381453
408359
416626
348005
357107
402871
431378
421054
423927
429784
413141
385697
369989
420908
426822
429415
427205
414742
364511
414855
340484
415064
412224
330334
340699
400806
413487
354663
414929
407836
315331
195870
212165
367361
288868
400156
394131
273854
175411
152874
224176
320688
372637
342626
385307
101299
101298
101298
101298
101298
101298
101298
101298
101298
101298
101298
101298
101366
101298
101298
101298
101298
101298
101299
101298
101298
101393
101298
101298
101298
101298
101298
101298
101298
101298
101298
101298
101298
101298
101298
101298
101320
101298
101298
101330
101298
101298
101610
101298
101298
101298
101298
101298
101298
101298
101298
101298
101298
101298
101308
101298
101298
101298
101298
101299
101298
101298
101298
101298
101298
101298
101298
101298
101298
101298
101298
101298
101299
101613
101544
101501
101298
101486
101299
101299
101298
101515
101537
101299
101299
101654
101298
101636
101646
101654
101299
101298
101663
101298
101386
101469
101402
101298
101298
101348
101541
101299
101562
101485
101299
101299
101436
101409
101352
101298
101538
101299
101299
101417
101298
101423
101520
101299
101425
101532
101299
101460
101424
101299
101298
101330
101298
101344
101299
101468
101566
101567
101298
101299
101604
101574
101298
101629
101299
101578
101299
101636
101298
101299
101437
101358
101298
101410
101298
101298
101298
101344
101401
101455
101374
101298
101298
101299
101485
101299
101485
101392
101298
101308
101298
101298
101298
101352
101298
101315
101305
101298
101336
101298
101303
101298
101321
101385
101415
101299
101298
101353
101298
101341
101337
101315
101298
101298
101306
101305
101298
271335
299976