/*--------------------------------*- C++ -*----------------------------------*\
  =========                 |
  \\      /  F ield         | OpenFOAM: The Open Source CFD Toolbox
   \\    /   O peration     | Website:  https://openfoam.org
    \\  /    A nd           | Version:  9
     \\/     M anipulation  |
\*---------------------------------------------------------------------------*/
FoamFile
{
    format      ascii;
    class       volScalarField;
    location    "0.00185";
    object      rhoE;
}
// * * * * * * * * * * * * * * * * * * * * * * * * * * * * * * * * * * * * * //

dimensions      [1 -1 -2 0 0 0 0];

internalField   nonuniform List<scalar> 
13506
(
67665.5
315893
62232
57229.9
55867.5
69437.6
168566
66651.7
124936
291955
138964
89999.8
289235
276872
489306
685876
61733.5
58158
57794.1
68875.6
60974.3
60675.5
70177.5
86400.3
74729
73558.7
88473.8
168774
169405
91481.4
63621.5
59223.4
58500.9
62127.9
80062
65021.5
73162.7
55489.8
55130.6
55515.7
59221.8
58602.4
58933.6
58888.7
312018
156738
158777
588355
431310
398123
510596
103605
85807.2
77393.1
200561
124814
101613
250820
299296
272892
203570
380173
389545
376047
433099
56325.2
56750.8
55893
59579.7
60122.5
60215.5
59254.3
146621
515007
361494
345347
274499
478325
150713
83065.9
68363.1
129543
80028.5
82132
67587.6
86098.8
70669.1
108945
97890.3
143484
87509.9
75681.8
93820.2
62595.2
62468.7
66846.5
68146.7
68989.6
62298.7
62678.3
338050
206250
277999
407102
433379
171986
342831
676169
677612
645894
574811
629261
621147
597078
63277.2
64034
74899.3
67686.3
71072.8
64975
63074.4
491107
437154
480824
551449
539823
438295
499098
146538
329028
73991.9
65595
58402.6
108903
276895
73361
200282
342875
236228
201367
330420
299039
423237
452820
61646.7
86417
66824.7
93873.4
70007.3
79166.3
118751
105518
144921
260850
165712
292001
314746
212131
316396
326026
335386
365166
373606
363757
359460
57945.4
59662.5
60003.4
61423.6
61812.2
65444.6
63413.6
109757
90810.3
75570.4
94777.7
194775
120199
155193
308577
195678
294004
324421
268664
247616
328967
135175
116492
85440.6
102358
230250
143190
171019
241047
391054
349023
350993
307666
379879
267671
70524.5
62050.2
63429.4
72453.8
73241.8
83793.1
66818.4
65840
82088.6
69209.7
76037.5
80067.6
94327.2
69198.4
330419
342531
338542
360843
369179
363989
362508
408040
445490
408481
393374
435473
424800
398329
128497
237417
211411
254461
175862
161653
207885
348982
298282
317454
374587
374763
283703
351698
87608
86378.2
142902
91102.3
114009
106134
75692.7
387614
395813
409024
426274
413685
385646
394268
259601
231565
284175
314187
209298
199580
116450
10682.1
10438.7
37896.9
48380.3
47929.7
127264
61896.7
137460
153293
281183
225130
256041
164943
224251
272811
118875
209669
128472
256682
209860
209505
248898
38985.7
150452
89942.5
164010
105894
156731
181979
224038
195360
177625
211198
239988
251393
207718
294121
283274
262383
254446
313576
289355
278563
201461
177189
149390
201233
224629
233540
199797
237719
261636
302430
254375
275142
266290
228527
49941
70452.5
51444.7
50110
53309.8
50206.3
51157.9
50890.2
53657.1
69759
547565
475100
55618.1
65867.5
53771.7
55738.7
50966.8
56501.4
50283.5
51990.2
50868.7
52845.4
50317.3
52594.6
51097.4
52490.5
53942.7
51144.1
50981.9
53576.5
81334.4
83667.8
172111
55833.4
60423.2
68148.4
230270
59313.8
63895.9
54536.8
58336.9
57307.6
62479
59569.3
49852.9
49622.5
49511.4
49770.4
50281.2
50085.4
49783.6
50074.6
49833.3
50353.2
49753.1
49853.7
50126.5
49842.4
513666
437720
377580
193393
281553
144498
324585
37695.1
65587.6
84665.7
37067.9
54994.2
59223.3
109546
53401.3
53504.3
57496.8
65227.7
60887.7
51932
54873.9
53765.6
58379.2
57761.4
52086.2
55900.6
52149.3
55413.6
64807.6
68561.7
71417.5
67767.2
62045.9
60875.5
65449.2
108776
320512
281429
117102
100603
96629.8
65488.5
50035.3
51328
51420.4
51255
51564.5
50212.4
49998.9
51534.5
51160.1
51593.9
50246.4
49937.4
50288.4
49991.3
581276
254636
366192
517241
482405
233036
353715
78274.1
35939.5
134995
73268.8
36519
55142.5
129061
52942
77599.7
61127
48495.7
51820.6
48653.2
50991.6
50237.9
59508.6
65768.8
114070
27648.8
58067.9
68260.2
53915.8
55582.2
50563.2
53143.4
52752.3
50829.5
54163.6
50908.4
54730.9
56470.5
62454.3
60532.9
66066
59662.8
61478.2
63973.4
48910.4
49459.8
49537.7
48994.3
49133.6
49401.1
48557.4
53346.5
31940.1
33549.3
54968.4
31068.6
54195.6
29603.3
50549.6
57066.9
55103.8
50120.9
53887.5
51058.7
55669
62799.7
68762.9
67017.8
60479.7
65369.3
67471.6
63458
58837.3
52136
53858.6
56240.6
54225.9
51994.2
56910.1
67097.9
70480.3
69734.5
68293.2
63380.3
64910.1
66864.5
47672.1
49221.5
48325.7
47928.4
48365.7
48851.1
48208.2
49878.6
51037.1
49534.3
51499.4
51614.7
49993.4
49266.1
27380.5
54436.3
54495.6
55098.6
30590
54424.1
27152.5
28041.2
26990.6
54307.6
54139.8
28022.9
53962.2
26358.5
72272.7
69064.5
73392.2
68036.7
72206.9
69342.7
66613.3
55879.7
60544.7
53691.4
59352.1
52648.9
54979.5
57878.5
52197.5
50006.8
50790.5
50062.9
51352.6
52081
49373.7
83819.2
58177.7
43673.9
39002.4
57291.6
54658.3
27343.8
335544
444986
538179
513793
35866.3
85942.8
24656.3
9967.96
470775
503388
326515
351718
294388
316456
483278
19176.1
132701
30791.4
159190
124420
141820
24998.3
412515
140300
229608
251104
394232
459201
165357
584725
382319
367465
336642
601006
350568
535483
177700
35824.7
173603
150464
26041.1
143198
28161
6027.84
28472.2
77036.5
88501.7
9772.75
34470.2
12680.8
269202
476556
585313
197529
301592
511748
198370
91063.5
82145.4
22483.7
29921.9
95120.9
47467.7
13940.5
124869
181305
63117.2
109450
9322.53
9457.94
4858.6
10406.5
12198.6
4469.16
5027
10427.9
8854.56
5041.57
4281.45
8294.83
9662.97
9248.17
4265.75
8061.41
4810.43
9006.78
7235.6
12414.1
9236.4
7916.1
5284.73
5071.28
15631.9
6000.48
4002.93
3904.62
13287.5
4558.36
5184.67
28374.9
45031.1
37120.4
9925.23
9971.26
135648
57707
46787.9
24014
9803.67
4917.24
9575.59
108046
62178.6
31994.4
27388.4
46230.9
7227.28
13134.3
136525
54819.5
77223.1
36778.7
155742
149868
161910
102355
114537
88871.7
105473
258164
64371.6
63166.8
61331.6
55333.5
54360.4
49496.8
53161.2
316107
187355
113443
210484
97272.3
67415.4
28132.7
51624
58786.4
56775.2
53513.2
58940.2
54961.3
60052.4
65385.5
71826.1
68567.1
67310.3
72554.8
76987
71189.3
48309.4
50292.6
49040.1
49901.3
50679.3
52112
51334.1
39525.8
57303.7
54800.8
58540.1
45881.2
84481.6
116766
56988.6
55044.4
60308.3
56547.2
69120.6
59021.5
62663.3
77368.3
71310.6
76560.4
97176
91748.7
157291
76818.2
57697.2
55496.2
60331
56798.9
70685.4
59745.6
62918.2
79730.6
72054.5
79047
101585
96569.9
174048
77394.7
53741.7
51310.4
52124.4
53963.7
55652.4
56286.6
53317.2
166650
108658
81309.6
167446
270758
257331
211627
213957
95569.9
142282
182353
295169
282445
226479
54791
52066.4
52781.4
54296.9
56341.5
56946.5
53614.2
59006.7
82693.6
81315.5
73879.8
64998.9
64394
69188.5
161006
283484
134317
129862
243658
236200
92543.5
56305.6
62431.6
58538.6
58150.1
58932.2
58600.5
55618.7
263652
304512
325629
295338
312395
301961
276898
455580
507439
478751
333377
312744
382539
546068
363324
522135
488618
367702
344914
459452
389736
525832
559048
316437
330155
334205
348421
352199
371646
367471
323925
350931
341609
370287
359759
379339
389403
356805
361296
383017
370661
396272
400680
411654
346773
367459
351039
390038
403443
407726
385650
367457
374512
358526
397715
423790
414999
407107
377371
385807
378866
420786
408841
422177
432161
459950
393735
397815
418483
476787
414228
481270
376048
395169
383044
432728
416918
426184
440999
467836
416282
405520
426146
499667
489020
436467
492056
429296
443596
512483
448360
461036
527208
406494
444253
394809
400039
388773
434887
449307
438667
498486
527210
454402
458938
434205
503281
446288
521805
475934
535271
466376
511184
456086
473520
562993
543754
524532
458265
474448
543922
534417
486703
467128
478833
573995
498084
548966
505350
585488
613229
491251
591529
510638
565679
50969.3
51487.9
52294.4
52660.9
51699.2
50912.1
51368.2
51116.4
51625.9
50587.8
51786.7
51106.9
50663.1
51272.7
51796.6
51388.2
50808.4
51504.6
52146.2
51491.7
52583.4
51575.2
51925.6
52163.8
52048.8
51887
52260
51975.6
52202.9
51669.6
51547.7
51787.7
53443.6
53028.6
52587.9
51675.3
51459.2
51729.8
51267.2
51815.6
51787.6
52164.9
52088.8
50542.7
51497.3
51009.5
51550.6
51143.1
50661.3
51755.7
51203.8
51832.2
52158.2
51625.4
53406.4
52940.3
52560.2
51504.2
52045.2
51804.8
51357.7
52308.1
51453.1
52525.3
52454.6
52420.1
52362
52929.8
52663.7
52683.8
52222.8
52065.3
51281.3
51485.3
51443
51510.2
51628.2
51712.5
51805.9
51274.3
52036.2
51527.8
51538.5
51789
51697.6
51220.4
51564.6
51786.3
51280.2
51534.7
51582.7
51046.6
51451.3
51880.2
51375.5
52230.6
51779.6
51675.8
51300
51693.7
52180.1
52238.3
52240.5
52080.7
51838.4
51755.3
51798.5
52293.1
51932.1
51832.7
52204.5
52043.7
51605.4
51837.8
51961.3
52353.3
52030.7
51647.2
52093.5
52327.6
52095.7
52174.8
51996.7
52162
51947.9
51946.9
52779.2
51712.9
52233.4
52232.7
51494.1
51558.9
52168.8
51560.2
52230.1
52266.3
51911.1
51766.1
51924.9
52037.6
52363.7
52325.8
51856.2
52135.7
51355.4
51903.4
52520.7
51705.4
52266.5
52014.4
52344.9
51849.9
52428.4
52087.5
52002.1
52900.4
53223.7
53440.6
53213.2
53127.1
53116.3
53048.6
52749
52757.2
52765.9
53381.8
53002.3
52554
52990.6
52432.2
52294.9
52474
52880.1
52225.7
52620
52662.4
52379.8
51784.4
51823.2
51706.2
52003.5
51950
51896.9
51389.3
51327.5
51197.4
51839.4
51584.9
51234.8
51620.6
51585.8
51620.9
52203.7
51707.3
51552.2
51967.6
51824.5
51791.4
51822.9
51877.1
52032.7
51672.5
51851
52505.2
51534.2
52034.8
52171.2
51413.5
51404.5
51506.5
51991.3
51972.4
51303.1
51504.8
51870.2
51502.3
52085.5
51704.4
52096.9
51486.1
51857.3
52018.3
51606.5
51737.7
52289.4
52201.4
51875
52027.7
52656.7
51788.4
52392.9
52415.7
52135.3
51612.1
52192.7
51875.4
52317.7
51905
51809.7
52832.5
53119.3
53391.4
53196
53028.7
53089
52959.3
52662.1
52574.9
52692.9
53314.7
52870.8
52945.9
52405.8
52350.1
52352.8
52261.7
52863.8
52596.6
52103.1
52560
51658.2
51580.3
51989.9
52092.2
51638.3
51806
52033.4
51603.2
51410.7
51211.1
51982.9
51635.6
51439.3
51613.9
51786.3
52336.9
51546.5
52332.9
51772.7
51832.2
52121.9
51720.4
52154.8
52143.2
52212
51734.1
51792.4
52134.8
239125
246419
176566
117467
301603
285342
344792
312375
133325
190031
198037
217413
228067
248505
246586
155212
207430
204835
237698
235808
247045
244673
206457
216115
104092
225187
81058
26032.6
4661.44
4587.07
4580.99
10537.2
9912.86
9636
9295.84
5607.72
5269.31
5241.91
8539.56
9082.8
14078.4
9425.35
7458.92
18634.7
33748.6
5633.95
5119.38
21069.4
87655.1
99955.7
16534.1
92669.2
14200.7
16083.3
24106.5
104937
125259
17333.1
51486
7500.94
14521.6
33063.5
141933
119204
60822.2
147560
77267.6
30519.7
46214.3
217780
167333
96833.8
83821.5
221362
169983
171676
177182
176782
73061.1
106092
212776
215909
188595
191841
182198
138962
230727
243063
228880
256516
270388
268948
257035
262080
290797
267138
274933
298353
303480
271428
224204
238516
221208
255188
270823
268683
254786
270361
296136
269574
277283
315443
308865
279320
125299
51892.7
33108.2
214888
12664.9
242403
289059
267651
11179.3
8895.8
9685.82
50883.6
55701.7
75498
67419.8
17754.4
17717.5
11521.9
97694.9
67734.8
98538.6
138769
64997.2
25198.9
20440
121020
163509
180045
106486
91605.6
71027.8
39587.2
150158
220193
200830
183615
142677
219531
150685
181229
235395
172373
238478
201056
230136
168946
204057
257031
246269
232009
222499
244357
251740
273117
252822
211156
255264
240003
263478
273759
281420
259820
263243
252391
4703.22
7476.79
4527.03
29630.4
18647.8
12625.1
4395.86
5532.35
19637.4
5626.86
5606.91
5254.07
17589.7
16613.2
5292.43
14500.6
16685.3
4736.09
5124.16
5357.27
5010.95
14850.4
4754.96
12844.1
12049.9
4950.4
15111.7
14385
4986.17
4293.9
4069.76
4164.31
3551.22
3610.42
3663.88
3622.62
4382.94
9418.58
10681.6
10763.6
4535.13
4765
12658.6
4691.83
4676.88
4312.26
3743.57
3729.11
3649.81
3677.39
9030.77
5122.31
4840.58
4079.11
3939.51
3710.8
3678.63
14260.5
9579.54
6007.48
4393.12
5264.5
4029.17
3783.51
47602.1
49841.2
48312.9
51638.5
51106.3
49146.3
51139.7
50266.5
49819.3
52035.4
49413.5
51058.8
49569.6
49737.9
51270.8
50643.4
51069.8
50855.9
49869.9
50257.9
49769.8
50202.2
50758
51632.8
51893.3
50405.5
51109.8
50462.6
51239.8
50797.5
50968.1
52053.6
51897.5
51713.1
50411.5
51423
50952.4
50907.5
51345
50464.5
50835
50786.5
51157.1
51148.4
51350.2
51723.3
51580.9
51253.6
51456.5
51454
51028.4
51492.6
51639.6
51426.6
50959.3
51450.9
51264.2
50890.5
51309.7
50495.1
51203.4
50817.1
50785.6
51238.9
49556.4
53622.9
52609.8
49768.6
52598.3
49734
51749.2
49277.4
50079.1
50036.4
50673.7
50480.1
49671
49681.7
48339.8
48461
48367.6
49079.1
49241.4
48995.3
49170.3
47860.6
48053.2
48163.9
48212.9
48486.3
48769.4
48647
47704.3
63026.5
50668
47957.5
50001.4
54144.2
61129.3
53093
60080.5
59301.3
54692.2
27912.4
85117.8
73573.1
194827
79198.7
49767.3
53410
52891.8
51129.8
54651.1
50762.3
55292.9
58356.3
64081.9
63498.6
66930.8
61553.1
62527.5
66327
50106.9
55250.7
54097.7
52241.3
57343.5
51488.5
56076.1
60880.5
67177.6
65493.2
65837.7
69131.3
68050.4
63993.9
47900
48355.7
48211.3
49046
48324.5
48788.5
48532.3
54991.3
32643.1
31449.9
55267.3
30579.4
55489.4
29719.9
59593.5
55575.3
55202
53140.7
57270.9
52752.7
57847.8
72594.4
67413.4
66728.8
68746.2
64810.3
65483.9
68413.9
47664.8
48349.2
48163
48994.6
49661.1
49133.5
48528.7
54547.2
54720.8
29838.9
56172.9
29867.5
55211.7
29032.6
60494.7
56744
56003.2
54359.9
59398.8
53542.8
58557.3
52554.9
52238.3
52770.9
50677.2
49855.4
50366.3
50142
76446.2
74090.2
69288.3
67496.1
73732.8
70036.1
66464.2
79986.7
65166.9
63325.3
56644.6
31726.7
56697.6
31374.6
53393.5
53597
52815.3
50957.3
51684.3
50944
50306.2
118341
125176
79241.7
62532.8
63287.3
57759.7
35208.9
60225.3
55520.6
54536.8
30790.8
51476.4
55474.8
51639
53265.1
58515.6
56288.8
60748.6
53429.9
61297.6
54207.4
57750
51916.6
53227.6
51765.6
55850.8
51010.9
52524.7
54474.1
54260.5
52572.1
59501.5
57740.8
55436
57349
53745.9
51645.9
39732
40884.3
52574.6
39907.2
52813.3
38516.2
51349.7
51793
51287.6
51400.4
51441.4
51333.7
51494.7
51641
51730.1
51912.9
51407.4
51402.5
51548.5
51744
50892
51028.3
51754.4
52359.3
50858.1
52270.4
50936.2
51378.5
51289.1
51149.2
51908.9
51181.2
51452.2
51816.3
57820.4
65261.9
62731.1
57425.9
61880.2
59679.2
55330.6
52664
51974.9
34565.4
36063.7
38016.7
52726.7
36712.2
54737.5
35859.2
34632.7
53552
37898
53602.2
36779.9
55152.6
54504
32649.4
53765.6
32410.9
53431.2
34723.3
283146
298389
328049
285110
332957
299972
317516
288024
307436
330091
338567
303273
323251
291849
242459
235103
282911
220143
324605
255887
258023
256494
379697
403951
384492
405859
268389
435178
459186
315361
296026
388411
412594
278848
220681
208250
293499
309112
361944
349822
415132
374670
290027
273607
419723
305290
480051
473113
526585
354689
327836
428372
326102
487858
192700
201357
236886
211930
237797
243708
247169
240000
257365
261440
269698
274044
292134
288050
213356
225460
218819
257653
251773
256430
262240
262008
225979
218449
212421
218452
251024
255911
289396
273147
239796
250586
231633
266312
282496
238396
250720
231800
266481
288277
272277
282491
252441
283039
271401
299514
283881
301552
315332
222042
251648
228323
274017
256400
261591
279322
208359
237529
221312
254362
243623
255218
266189
279378
298645
282046
313205
329779
333030
309610
275316
308415
269608
284962
302165
321685
327225
269351
288219
284388
307023
301918
321071
325353
295530
297389
310412
316953
330609
334330
347137
298384
305493
288983
321278
350930
340270
332714
272387
317752
276730
322716
282254
287344
329553
146393
200643
159153
38405.9
255777
326299
296628
296745
86645.2
69930.1
145843
122224
181211
192532
215244
114697
186699
158021
230746
212428
228697
233610
194505
202066
171711
235810
225014
230811
237388
232855
270364
249003
271484
249449
257230
283010
190789
210517
205529
233585
245004
236575
239506
265642
284426
259100
262937
305588
268875
293856
265429
284456
257629
262290
305789
270414
293259
268100
284732
315764
316446
275112
276903
304242
264522
257778
241153
269711
294649
285537
279228
310742
341412
325460
364479
346600
362597
379606
307117
319336
301897
340654
364822
359561
345932
283834
326312
334960
294612
342284
336308
301831
322508
318611
301234
339873
362803
343934
358765
310765
336232
295555
300179
353355
314224
341218
314244
330903
341981
371117
352652
364722
382234
310184
375280
305020
309098
383409
314132
379239
317600
336315
391349
399611
322610
331161
387230
379623
308789
313944
375378
304515
308810
379643
393257
337470
323470
317625
400283
331358
387880
320191
392132
324098
338916
400999
334993
404869
104855
13038.3
197567
8075.53
196179
232536
231792
197666
61887.3
237544
25042.9
260898
245039
248626
291281
289323
8628.82
7905.98
8676.15
44567.7
44407.1
47963
41548.3
103332
11279.5
18219.7
45661.9
49802.9
42081.4
60718.5
13494
9834.99
10233.6
51541.7
75358.9
56105.8
67637.2
46476.5
147688
30073.9
53279.2
105360
69919
78890.3
23565.1
59886.8
50904.2
116572
102946
151512
168525
67646.1
289978
92211.7
144796
105097
151215
184566
126046
126708
188537
204041
133971
196192
118884
127061
188010
204609
126713
196417
119277
134760
217912
176541
149863
141941
227183
167755
211074
141331
176995
217350
226958
149853
167155
210765
166924
120683
181089
197752
232761
212620
226150
217275
238621
282523
125287
170016
196802
226563
246104
241034
212645
240812
201772
229601
255231
213074
240439
201932
229687
260434
238819
254760
301070
149990
410642
288364
20901.6
21054.3
3614.22
7002.59
184408
288165
356205
117059
177159
127856
333844
20867.4
6057.75
6943.07
38930.2
27646.4
40553.6
18488.8
438047
231562
401315
288507
237850
267225
374045
20430.7
12984.9
8797.79
67189.4
97990.5
65330.3
97915.6
129438
235086
200557
33309.8
83278.3
61156.3
285893
3954.62
4017.16
4114.24
21659.1
4882.03
9815.56
7749.15
371754
170480
246045
116603
204309
90338.7
330521
4981.3
4408.73
4925.16
39297.4
21088.8
59368.9
13504.7
244706
260020
276732
284495
251855
253641
271589
278211
260707
253157
244776
285090
253892
272181
61565.7
52667
230930
426975
51656
53368.1
51095.5
52416.9
52579.5
52930.6
119803
51616.5
52510.8
60315.1
85904
51226.6
51280.5
55897.2
53501.5
52776
52223.6
91064.9
53539.4
90618.3
303262
45651.3
51914
104878
154736
73862.9
305645
368340
223046
99949.2
158877
224757
52343
51583.4
51644.4
51877.5
53460
52747.2
52132
51708
56348.2
53521.7
51936.9
52103
52533.9
55158.6
51572.7
40489.9
41501.4
51748.7
40221.7
52053.9
44528.1
51411
38818.4
39791.8
52809.8
62061
55334.2
49361.7
52485
52245.8
52216.6
52995.6
52943.5
52717.5
51652.7
52213.6
51908.9
51757.8
52055.9
51855.5
52338.5
52016.9
53257.7
51043.8
54393.7
56347.6
52617.7
59769.6
50680.4
54584.7
53905.4
51575.3
57809.4
60392
51355.1
53361.4
52323.9
52119.1
51980.3
52133.7
51810
51634.5
53547.3
51578.2
52446.4
52001.7
52081.1
51569.2
51800.1
52079.9
51901.5
51968.3
51420.6
52749.8
51481.5
52004.4
52306.1
51667.4
51588.1
51785.3
53299.3
51197.2
52266.7
52415.1
51769.7
52133.8
51279.7
59518.9
52188.2
53112.5
53467.4
53271.3
53343.2
53342.7
53471.7
53409.2
53219.1
53386.2
52627
52834.5
52526.2
52968.7
52320.4
52718.7
53033.1
52773.4
52294.3
52017.7
52849.7
52856.6
51743.3
52882.7
52603.6
60935.8
62967.5
75045.4
53912.3
55759
57548.9
64070.5
52476.9
54728.2
59051.9
56057.1
75395.9
51714.4
83968.7
145091
55429.1
108101
68494.1
60557.7
176894
79494.9
92360
48186.8
53719.6
114391
67530.9
50870.1
54552.9
52016
52420.7
50671.3
52451.6
53737.8
51110.4
52532.4
52190.3
52360.9
52744.9
52169.2
52531.1
52753.4
51300
50652.4
51490.3
51620.3
50906.9
51039.9
51352.4
51905.2
51665.4
51649.9
51784.3
51466.5
52048.2
51688.2
52036.2
51943.8
52033.8
51969.5
52285.8
51762.9
51873.8
53098.7
53225.7
53320.1
53394.3
53112.8
53217
53323.3
52639.6
52511.9
52785
52947.4
52663
52976
52474.1
52666.5
52180.2
52291
52772
52704.6
52809.3
52188.4
51909.3
51838.7
51507.4
52164.1
51768.7
52020.6
51870.2
51292.7
52101.2
51367
52537.9
51118.8
51323.3
52611
52118.8
52291.4
52241.2
52572.7
52117
52122.4
52721.6
52325.9
52269.8
52535.8
52183.8
52259.5
52140.8
52268.9
50658.7
51545.9
50505.8
51335.4
50413.6
50471.1
51616.6
50653.7
51447.9
51351.7
50738.8
50064.3
51589.9
50500.2
47221.3
39331.7
46884.1
41266.8
47448.8
47282.8
38883.5
51171.2
52243.7
52229.4
50970.4
51245.1
51071.7
52324.3
346105
399868
332290
347366
425243
412801
360639
340250
354956
367049
379220
408419
394432
395327
357523
439519
373352
416901
377388
353480
421017
440538
354858
421578
415862
348777
368728
434609
353492
415216
348434
368082
438347
372729
433858
365734
447646
396613
441118
385310
429040
377935
305306
324387
350947
356678
318016
345633
311921
362996
440670
376577
446833
381728
394216
458489
395009
461208
482266
389389
476566
409642
455441
388566
475709
458923
413050
392868
408819
454577
410377
455861
392653
409189
489107
425993
472714
466923
421125
401319
412816
498291
431835
477714
426824
506952
458898
511362
442318
444807
491265
578324
664351
1.26834e+06
972306
968531
664229
575624
1.26781e+06
512144
669264
517523
534956
529371
680805
686264
514523
662554
510963
532187
528348
679127
681729
555551
572329
549790
704263
742408
710537
735308
571345
552827
548793
702636
737726
705995
733687
977692
1.27154e+06
1.26967e+06
994314
1.26654e+06
1.00015e+06
1.26834e+06
969369
1.26578e+06
1.27051e+06
991411
1.26391e+06
991999
1.26761e+06
1.02694e+06
1.07589e+06
1.26677e+06
1.27029e+06
1.03335e+06
1.06966e+06
1.26834e+06
1.02415e+06
1.27008e+06
1.26516e+06
1.06937e+06
1.02589e+06
1.06724e+06
1.2678e+06
1.04852e+06
1.25488e+06
732209
624951
979986
677884
583356
1.2649e+06
1.24863e+06
671792
1.24709e+06
651830
993332
524023
691974
1.26655e+06
483582
959684
662971
483354
957977
1.29102e+06
1.27961e+06
476264
952300
650999
1.02457e+06
543573
715320
1.25378e+06
648807
1.26284e+06
620739
704106
1.18232e+06
1.25113e+06
759773
1.08095e+06
1.24635e+06
665268
487163
494202
498047
632514
643637
639502
636274
478338
473937
478364
634366
630175
634404
639363
473065
479797
476989
628388
627903
631704
631927
498088
656776
503369
491853
486509
641543
646959
517661
655564
507216
495017
505836
651442
644174
499906
649749
496743
487807
484961
638878
639740
528511
507795
511862
654183
664310
669386
649750
548510
674679
531454
536752
519674
662367
678616
532350
669487
521992
539716
550132
688203
697952
580060
709497
562933
691068
546189
563638
712415
548345
565617
570653
685087
690940
719682
713313
560304
593933
570475
746234
713414
724191
759103
568201
556696
590766
579100
701121
730598
746222
803968
763060
600537
607809
583924
740356
777949
599799
734087
582466
605337
623295
767824
796967
590661
626673
596171
758107
802001
810100
750784
646038
839437
794111
620707
645134
835661
887027
617181
636061
605071
770502
844157
823874
788243
632502
685986
651473
873034
812872
846482
912274
928924
935169
1.25627e+06
1.26592e+06
929200
1.25635e+06
933792
949060
1.29467e+06
946318
949106
1.28758e+06
952267
1.29104e+06
1.29063e+06
933969
940797
943924
1.27805e+06
937858
1.28787e+06
945349
1.24782e+06
956416
1.2498e+06
963734
938521
1.25044e+06
953263
1.25581e+06
1.26161e+06
944555
1.26337e+06
1.25572e+06
940506
962524
1.27622e+06
1.27396e+06
951649
1.28048e+06
955060
1.28351e+06
954587
1.26874e+06
1.27476e+06
947250
1.27318e+06
942613
1.28124e+06
747148
712190
674733
891108
1.02976e+06
949732
963773
971816
1.25553e+06
1.26074e+06
1.26016e+06
997266
1.00714e+06
1.25647e+06
972689
1.24926e+06
1.2514e+06
956529
1.24849e+06
975734
1.25093e+06
1.01741e+06
994381
1.25076e+06
1.25262e+06
1.25197e+06
1.02383e+06
1.25376e+06
1.24918e+06
985104
992945
1.03403e+06
1.25454e+06
1.02633e+06
1.25445e+06
1.26232e+06
1.0762e+06
1.03242e+06
1.04341e+06
1.26089e+06
1.08764e+06
1.25882e+06
1.25073e+06
1.25009e+06
1.00605e+06
1.04707e+06
1.25365e+06
1.25438e+06
1.06541e+06
1.12996e+06
1.08659e+06
1.25418e+06
1.06155e+06
1.2575e+06
1.10595e+06
1.25611e+06
1.04961e+06
1.2516e+06
1.25234e+06
1.25286e+06
1.08988e+06
1.12019e+06
1.25213e+06
1.09646e+06
1.25549e+06
1.16492e+06
1.25859e+06
1.15032e+06
1.25774e+06
1.1135e+06
1.08432e+06
1.26008e+06
1.26121e+06
1.13468e+06
1.14034e+06
1.07736e+06
1.25915e+06
1.15932e+06
1.11835e+06
1.25269e+06
1.15482e+06
1.24101e+06
1.19391e+06
1.25035e+06
1.25332e+06
1.18509e+06
1.13587e+06
1.16352e+06
1.23425e+06
1.21016e+06
1.24941e+06
1.19604e+06
1.26609e+06
1.22031e+06
1.2146e+06
1.23103e+06
1.23817e+06
1.23952e+06
587997
616643
705496
1.25705e+06
1.2604e+06
677324
1.26572e+06
986741
526513
688982
538742
544334
556734
695767
709158
600818
564941
577279
754385
721085
735696
771105
553912
726628
570910
588745
571815
727133
750283
635038
609817
592497
755764
823933
782067
793802
1.00023e+06
1.26715e+06
1.26367e+06
1.26445e+06
1.01066e+06
1.02613e+06
1.26199e+06
1.25873e+06
1.04798e+06
1.07598e+06
1.02049e+06
1.26128e+06
1.04791e+06
1.26014e+06
1.08679e+06
1.26485e+06
1.04466e+06
1.0607e+06
1.26201e+06
1.10234e+06
1.26211e+06
1.11032e+06
1.14887e+06
1.25503e+06
1.08261e+06
1.25844e+06
1.12328e+06
1.25948e+06
994485
1.26243e+06
528905
689056
664241
491843
970281
1.28349e+06
512040
674456
523765
500553
512101
654615
664336
486476
498096
503405
641486
651834
646946
656836
680661
534358
512140
517523
664433
669391
686058
538653
708777
555804
543578
526500
677481
695511
982499
1.27074e+06
1.26721e+06
1.27529e+06
960216
970417
1.27085e+06
951599
1.27629e+06
1.2805e+06
957997
955068
962609
1.27407e+06
1.26874e+06
1.26696e+06
1.0004e+06
1.27176e+06
972472
977940
1.26993e+06
1.26493e+06
1.01098e+06
1.02638e+06
1.00045e+06
1.26387e+06
987053
1.26743e+06
1.03161e+06
253246
253245
253245
253245
1.37237e+06
551924
263982
1.39779e+06
724802
632184
253403
1.35806e+06
1.28469e+06
1.30772e+06
1.40096e+06
1.39404e+06
1.14442e+06
1.09712e+06
1.38737e+06
1.19462e+06
1.24892e+06
1.35185e+06
1.38049e+06
1.02505e+06
920921
270760
253383
253246
253253
253245
253245
253245
253245
253245
253245
694528
260444
945070
1.34723e+06
1.39371e+06
282113
544206
1.07369e+06
253269
253245
253245
253245
1.34337e+06
590799
266393
266034
1.06779e+06
1.40491e+06
586262
398184
801149
1.19444e+06
253249
253311
254343
268554
1.3481e+06
1.32759e+06
1.3211e+06
1.40506e+06
1.40765e+06
1.18531e+06
1.17254e+06
1.3498e+06
1.16986e+06
1.32063e+06
1.34401e+06
1.32759e+06
1.40758e+06
1.18453e+06
1.40071e+06
1.36087e+06
1.37675e+06
1.13896e+06
1.30635e+06
1.28238e+06
1.08813e+06
1.37884e+06
1.40241e+06
1.39245e+06
1.18673e+06
1.2446e+06
1.01079e+06
899901
1.29021e+06
1.37122e+06
1.39874e+06
1.09849e+06
962510
750078
575660
1.33002e+06
453894
850392
1.09074e+06
1.34065e+06
875732
472468
426554
1.31262e+06
809699
961969
1.27894e+06
736264
383074
1.27167e+06
1.02083e+06
1.30813e+06
374239
419196
799084
720581
458546
1.33231e+06
856268
1.09287e+06
1.34139e+06
877856
474404
253289
260488
253246
253246
253287
261053
253267
378283
279616
927131
388183
944620
609740
282054
923960
279045
376260
387405
943653
608005
281797
253280
259279
253245
253250
256260
253246
253245
358586
275019
889621
828881
332547
495802
269411
253245
253245
253278
259082
253258
256052
253250
883364
274179
355249
328638
818665
485516
268488
1.03756e+06
1.18162e+06
1.30491e+06
548240
769635
417181
313821
1.14581e+06
859994
1.22624e+06
637972
300809
525656
337744
741789
284904
306402
430204
259644
364751
264031
1.12734e+06
835994
1.21473e+06
294844
329656
617845
504077
613793
302717
727156
418883
258995
354100
263197
561785
824427
1.39189e+06
907620
564324
827696
1.41601e+06
1.02444e+06
624383
646849
556757
640443
618379
721221
728917
557825
627242
649607
641559
619552
722460
732040
1.05349e+06
706175
848489
815214
698810
839053
1.04054e+06
774396
1.02114e+06
1.25167e+06
1.00968e+06
766166
897182
1.24091e+06
816436
709303
700042
840345
1.05745e+06
1.0419e+06
851908
1.01089e+06
777371
767341
898484
1.25478e+06
911105
1.24204e+06
1.44884e+06
573090
741851
1.27436e+06
970094
1.37973e+06
623804
893485
1.09015e+06
977775
1.43513e+06
1.32479e+06
1.00118e+06
1.38308e+06
813418
1.44664e+06
586005
637777
660562
653238
676702
745731
766198
602634
700060
726034
673551
698002
794186
832740
763417
686936
781442
651381
735093
886217
961713
872569
722376
845229
1.0869e+06
870352
899425
1.13527e+06
815272
1.04942e+06
792341
1.27938e+06
932346
966483
1.31662e+06
804363
768263
912094
942006
1.29214e+06
1.20446e+06
1.00449e+06
1.22311e+06
1.14817e+06
847583
1.01684e+06
1.40493e+06
1.08848e+06
1.36185e+06
881479
792201
732603
843427
928749
1.07041e+06
1.22252e+06
1.45321e+06
1.17713e+06
1.05592e+06
922456
853835
1.09438e+06
1.21711e+06
1.43661e+06
1.38974e+06
1.30852e+06
1.05078e+06
959124
1.18662e+06
1.3037e+06
1.41805e+06
1.13084e+06
1.42154e+06
1.11778e+06
1.42348e+06
1.38574e+06
1.41951e+06
1.42194e+06
1.3931e+06
1.13477e+06
1.11918e+06
1.42273e+06
1.38612e+06
1.41963e+06
1.43365e+06
1.40283e+06
1.42699e+06
1.40726e+06
1.16501e+06
1.42748e+06
1.2133e+06
1.32406e+06
1.16763e+06
1.02144e+06
1.46214e+06
1.46637e+06
1.48558e+06
1.35756e+06
1.17526e+06
1.44385e+06
1.45579e+06
1.48079e+06
1.34799e+06
1.42381e+06
1.41428e+06
1.43009e+06
1.34014e+06
1.4368e+06
1.44703e+06
1.45782e+06
1.27777e+06
1.35233e+06
1.34125e+06
1.16701e+06
1.40346e+06
1.4511e+06
1.41384e+06
1.41917e+06
1.46495e+06
1.14788e+06
1.32365e+06
1.01926e+06
511124
764791
1.22349e+06
1.47511e+06
810251
996241
537940
273262
397154
318673
261869
253249
253245
253245
253409
253245
254115
253246
491290
260555
382750
256171
305207
276528
254566
400206
308421
588980
277984
254266
261714
256418
254017
337813
258148
345719
254091
267655
258611
335714
253996
258025
344783
254081
267485
258553
253872
322606
257258
303730
253694
256164
261006
263463
319509
253841
253661
257078
300359
255970
273034
256264
308182
262711
253425
256560
253769
256012
285701
253528
254330
271934
255133
258179
255672
257696
253500
282761
254207
269879
254964
701571
851023
1.20384e+06
1.32407e+06
1.20838e+06
889393
1.08858e+06
1.14624e+06
789586
916269
810338
1.10301e+06
1.12814e+06
1.21719e+06
1.23756e+06
881376
1.00976e+06
955653
840203
1.16217e+06
1.26517e+06
1.29667e+06
1.03225e+06
1.06535e+06
1.23858e+06
1.35351e+06
1.31289e+06
1.32407e+06
1.34908e+06
1.27838e+06
1.17205e+06
1.11265e+06
1.32081e+06
1.3401e+06
1.34615e+06
1.33678e+06
1.29288e+06
1.12113e+06
1.29441e+06
1.0278e+06
1.29798e+06
1.28919e+06
988723
1.02945e+06