/*--------------------------------*- C++ -*----------------------------------*\
  =========                 |
  \\      /  F ield         | OpenFOAM: The Open Source CFD Toolbox
   \\    /   O peration     | Website:  https://openfoam.org
    \\  /    A nd           | Version:  9
     \\/     M anipulation  |
\*---------------------------------------------------------------------------*/
FoamFile
{
    format      ascii;
    class       volVectorField;
    location    "5e-05";
    object      U;
}
// * * * * * * * * * * * * * * * * * * * * * * * * * * * * * * * * * * * * * //

dimensions      [0 1 -1 0 0 0 0];

internalField   nonuniform List<vector> 
3339
(
(0 0 0)
(0 0 1.20917e-24)
(0 0 0)
(0 0 0)
(-1.57206e-34 0 0)
(0 0 0)
(0 0 0)
(0 0 4.29071e-22)
(0 0 0)
(0 0 0)
(3.36881e-16 0 0)
(1.41805e-22 0 0)
(-1.41345e-22 0 0)
(1.4184e-22 0 0)
(-3.19936e-22 0 9.18328e-16)
(0 0 0)
(2.98284e-16 0 2.05679e-18)
(1.41706e-22 0 0)
(-1.40633e-22 0 0)
(1.40515e-22 0 0)
(-1.41585e-22 0 0)
(0 0 0)
(0 0 2.95414e-19)
(1.16189e-22 0 0)
(1.01363e-24 0 0)
(0 0 0)
(-1.17171e-22 0 0)
(0 0 0)
(0 0 3.45831e-22)
(0 0 0)
(1.16116e-22 0 0)
(0 0 0)
(-1.15607e-22 0 0)
(0 0 0)
(0 0 0)
(0 0 0)
(0 0 0)
(0 0 0)
(0 0 0)
(0 0 0)
(0 0 0)
(0 0 0)
(0 0 0)
(0 0 0)
(0 0 0)
(0 0 0)
(0 0 0)
(0 0 0)
(0 0 0)
(0 0 0)
(0 0 0)
(0 0 0)
(0 0 0)
(0 0 0)
(0 0 0)
(0 0 0)
(0 0 0)
(0 0 0)
(0 0 0)
(0 0 0)
(0 0 0)
(0 0 0)
(0 0 0)
(0 0 0)
(0 0 0)
(0 0 0)
(1.58516e-13 -1.09352e-13 -5.35447e-16)
(1.36375e-13 -9.1196e-14 1.28836e-15)
(4.15151e-16 -2.64304e-16 2.28316e-16)
(-2.49799e-30 0 3.66354e-19)
(9.0355e-14 -4.03969e-15 -1.88788e-16)
(6.09987e-20 0 0)
(-6.07156e-20 0 0)
(6.10124e-20 0 0)
(-6.09423e-20 0 0)
(0 0 0)
(2.2365e-14 0 -1.26622e-17)
(1.95966e-17 0 1.62794e-21)
(-1.94582e-17 0 1.62794e-21)
(1.95963e-17 0 0)
(-1.95616e-17 0 0)
(0 0 0)
(7.48649e-14 -3.38117e-15 4.06592e-16)
(6.09792e-20 0 0)
(-6.04602e-20 0 0)
(6.05171e-20 0 0)
(-6.09053e-20 0 0)
(0 0 0)
(2.33971e-14 0 1.02239e-16)
(1.95963e-17 0 3.28016e-22)
(-1.94034e-17 0 -6.33818e-25)
(1.94867e-17 0 -4.23668e-24)
(-1.9562e-17 0 0)
(0 0 0)
(3.77577e-17 -8.97182e-18 6.00488e-17)
(5.50261e-20 0 0)
(3.9966e-22 0 0)
(0 0 0)
(-5.54042e-20 0 0)
(0 0 0)
(2.40283e-16 0 6.59835e-17)
(1.94867e-17 0 -6.70688e-24)
(5.4914e-20 0 -2.96791e-25)
(0 0 0)
(-1.9561e-17 0 0)
(0 0 0)
(0 -7.66711e-21 7.10476e-20)
(0 0 0)
(5.50121e-20 0 0)
(0 0 0)
(-5.47089e-20 0 0)
(0 0 0)
(1.90982e-17 0 2.43057e-19)
(0 0 -2.81959e-22)
(1.94865e-17 0 3.04655e-24)
(0 0 -1.28842e-24)
(-1.93426e-17 0 0)
(0 0 0)
(0 0 0)
(0 0 0)
(0 0 0)
(0 0 0)
(0 0 0)
(0 0 0)
(0 0 2.14243e-20)
(0 0 2.18597e-25)
(0 0 6.08849e-28)
(0 0 0)
(0 0 0)
(0 0 0)
(0 0 0)
(0 0 0)
(0 0 0)
(0 0 0)
(0 0 0)
(0 0 0)
(0 0 -1.01806e-27)
(0 0 0)
(0 0 0)
(0 0 0)
(0 0 0)
(0 0 0)
(0 0 0)
(0 0 0)
(0 0 0)
(0 0 0)
(0 0 0)
(0 0 0)
(0 0 -2.99418e-20)
(0 0 0)
(0 0 0)
(0 0 0)
(0 0 0)
(0 0 0)
(0 0 2.87432e-22)
(0 0 0)
(0 0 0)
(0 0 0)
(0 0 0)
(0 0 0)
(0 0 2.98034e-20)
(0 0 0)
(0 0 0)
(0 0 0)
(0 0 0)
(0 0 0)
(0 0 0)
(0 0 0)
(0 0 0)
(0 0 0)
(0 0 0)
(0 0 0)
(0 0 0)
(0 0 0)
(0 0 0)
(0 0 0)
(0 0 0)
(0 0 0)
(0 0 0)
(0 0 0)
(0 0 0)
(0 0 0)
(0 0 0)
(0 0 0)
(0 0 0)
(0 0 0)
(0 0 0)
(0 0 0)
(0 0 0)
(0 0 0)
(2.9825e-11 -2.66434e-12 -1.22162e-13)
(1.6864e-11 8.76302e-14 -9.15341e-14)
(2.4833e-11 -2.25038e-12 3.2169e-13)
(1.55585e-11 -3.08272e-14 1.28736e-13)
(9.22051e-14 -8.21389e-15 5.47901e-14)
(2.16026e-13 -3.77577e-17 7.55825e-14)
(-1.10247e-25 -8.34624e-18 7.75573e-17)
(2.44906e-16 0 2.89895e-16)
(-5.07421e-30 0 0)
(-1.08191e-19 0 5.97458e-18)
(0 0 0)
(0 0 -2.40762e-25)
(0 0 0)
(0 0 -9.63219e-18)
(0 0 1.35023e-19)
(0 0 0)
(0 0 0)
(0 0 9.56447e-18)
(0 0 0)
(0 0 0)
(0 1.82126e-15 9.60627e-18)
(0 1.85611e-15 -1.24704e-18)
(-1.52859e-17 0 0)
(0 0 0)
(0 0 0)
(9.08485e-16 -1.14842e-17 -2.38367e-17)
(0 0 -5.05998e-25)
(0 0 0)
(0 0 0)
(0 0 0)
(0 0 0)
(0 0 2.38391e-17)
(0 0 -2.64179e-18)
(0 0 0)
(0 0 1.94011e-17)
(0 0 0)
(0 0 0)
(0 0 0)
(1.98531e-19 0 1.62807e-21)
(0 0 0)
(1.08841e-23 0 3.25615e-21)
(0 0 0)
(0 0 1.83227e-15)
(0 0 0)
(0 0 0)
(0 0 0)
(0 0 0)
(0 0 0)
(0 0 0)
(0 0 0)
(5.03942e-30 1.08567e-19 0)
(0 0 0)
(0 0 0)
(0 0 0)
(0 0 0)
(0 0 0)
(0 0 0)
(0 0 0)
(0 0 0)
(0 0 0)
(0 0 0)
(0 0 0)
(0 0 0)
(0 0 0)
(0 0 0)
(0 0 0)
(0 0 0)
(0 0 0)
(0 0 0)
(0 0 0)
(0 0 0)
(0 0 0)
(0 0 0)
(0 0 0)
(0 0 0)
(0 0 0)
(0 0 0)
(0 0 0)
(0 0 0)
(0 0 0)
(0 0 0)
(0 0 0)
(0 0 0)
(0 0 0)
(0 0 0)
(0 0 0)
(0 0 0)
(0 0 0)
(0 0 0)
(0 0 0)
(0 0 0)
(0 0 0)
(0 0 0)
(0 0 0)
(0 0 0)
(1.56562e-19 0 0)
(0 0 0)
(0 0 0)
(0 0 0)
(0 0 0)
(0 0 0)
(0 0 0)
(0 0 0)
(0 0 0)
(0 0 0)
(0 0 0)
(0 0 0)
(0 0 0)
(0 0 0)
(0 0 0)
(0 0 0)
(0 0 0)
(0 0 0)
(0 0 0)
(0 0 0)
(0 0 0)
(0 3.20122e-21 0)
(0 4.99356e-19 0)
(0 0 0)
(0 0 0)
(0 0 0)
(0 0 0)
(0 0 0)
(0 -5.34654e-23 0)
(0 0 -1.81719e-15)
(0 -1.45426e-27 0)
(0 0 0)
(0 -2.65666e-32 0)
(0 0 0)
(0 1.85611e-15 3.71222e-15)
(0 0 1.83665e-15)
(0 1.85611e-15 3.65364e-15)
(0 0 -9.4131e-22)
(0 1.85611e-15 3.65364e-15)
(0 0 -3.17614e-23)
(0 1.85611e-15 3.65364e-15)
(0 0 -1.77903e-15)
(0 0 2.3439e-22)
(0 0 1.52102e-18)
(0 -8.38457e-23 2.76668e-20)
(0 0 0)
(0 -2.4017e-34 -1.43028e-23)
(0 8.90842e-20 -1.16702e-15)
(0 0 -8.97907e-16)
(0 4.24421e-17 -2.29642e-16)
(0 6.01986e-35 -9.10909e-16)
(0 0 0)
(0 0 3.66367e-18)
(0 0 0)
(0 0 0)
(0 0 0)
(0 0 0)
(0 1.85611e-15 -1.57597e-17)
(0 0 1.71641e-19)
(0 1.85611e-15 1.51917e-17)
(0 0 2.70139e-19)
(0 1.85611e-15 0)
(0 1.68698e-44 0)
(0 -7.46566e-43 0)
(0 1.85611e-15 -3.44235e-15)
(0 1.85611e-15 -7.39813e-17)
(0 7.63078e-42 0)
(0 -2.8039e-40 0)
(0 0 0)
(0 0 0)
(0 0 0)
(0 0 0)
(0 0 0)
(0 0 0)
(0 1.85611e-15 -1.54398e-17)
(0 0 -3.33357e-27)
(0 1.85611e-15 -1.07298e-18)
(0 0 -9.94146e-27)
(0 1.85611e-15 7.67488e-17)
(0 3.42544e-39 0)
(0 -9.56512e-38 0)
(0 1.85611e-15 -3.41465e-15)
(0 1.85611e-15 -7.59367e-17)
(0 1.18732e-36 0)
(0 -2.9444e-35 -4.64862e-19)
(0 0 0)
(0 0 3.66199e-18)
(0 0 0)
(0 0 0)
(0 0 0)
(0 0 0)
(0 1.85571e-15 9.99735e-19)
(0 0 -1.47965e-20)
(0 1.85571e-15 1.54504e-17)
(0 0 5.33705e-19)
(0 1.85611e-15 7.6206e-17)
(0 3.73071e-34 0)
(0 4.0211e-32 4.66295e-19)
(0 1.85611e-15 -3.43285e-15)
(0 1.85611e-15 -7.59367e-17)
(0 7.94926e-32 0)
(0 9.73635e-30 -4.65017e-19)
(0 0 0)
(0 0 -5.99154e-15)
(0 0 0)
(0 0 0)
(0 0 0)
(0 0 0)
(0 0 0)
(0 1.85554e-15 -1.66156e-17)
(0 0 3.69629e-17)
(0 6.66951e-17 -1.83227e-15)
(0 1.85611e-15 0)
(0 0 3.69791e-17)
(0 1.85611e-15 7.6206e-17)
(0 5.22194e-29 0)
(0 4.40375e-27 -1.85895e-19)
(0 1.85611e-15 -3.71222e-15)
(0 1.85611e-15 0)
(0 5.52921e-27 0)
(0 7.89972e-25 0)
(0 0 -6.84433e-15)
(0 0 0)
(0 0 0)
(1.58248e-24 -3.58972e-15 1.78372e-15)
(3.63437e-15 0 9.39858e-16)
(-3.51432e-15 3.58873e-15 2.78417e-15)
(0 0 6.5608e-15)
(0 0 0)
(0 0 0)
(7.45333e-17 0 -2.33365e-26)
(0 -3.66455e-15 -1.4135e-18)
(3.51432e-15 0 2.78417e-15)
(-3.71222e-15 3.60376e-15 2.78417e-15)
(0 6.11192e-17 0)
(-1.83651e-15 0 9.01469e-16)
(1.58196e-18 0 6.83496e-15)
(0 0 3.56293e-15)
(0 0 -7.12587e-15)
(0 0 -2.71591e-16)
(0 0 0)
(0 0 0)
(0 0 1.40829e-20)
(0 0 -2.89339e-16)
(0 0 0)
(0 0 0)
(0 0 0)
(0 0 0)
(0 0 2.98621e-16)
(0 0 0)
(0 0 2.98621e-16)
(0 0 -3.62705e-18)
(0 0 0)
(0 0 2.98621e-16)
(0 0 0)
(0 0 -2.98621e-16)
(0 0 -2.98621e-16)
(0 0 0)
(0 0 0)
(0 0 0)
(0 0 0)
(0 0 0)
(0 0 0)
(0 0 0)
(0 0 0)
(0 0 0)
(0 0 0)
(0 0 0)
(0 0 0)
(0 0 0)
(0 0 0)
(0 0 0)
(0 0 0)
(0 0 0)
(0 0 0)
(0 0 0)
(0 0 0)
(0 0 0)
(0 0 0)
(0 0 0)
(0 0 0)
(0 0 0)
(0 0 0)
(0 0 0)
(0 0 0)
(0 0 -2.98621e-16)
(0 0 0)
(0 0 -2.98621e-16)
(0 0 0)
(0 0 2.56451e-16)
(0 0 0)
(0 0 2.98099e-16)
(0 0 2.98621e-16)
(0 0 -3.63311e-18)
(0 0 0)
(0 0 0)
(0 0 0)
(0 0 -2.98621e-16)
(0 0 -2.98621e-16)
(0 0 0)
(0 0 0)
(0 0 0)
(0 0 0)
(0 0 0)
(0 0 0)
(0 0 0)
(0 0 0)
(0 0 0)
(0 0 0)
(0 0 0)
(0 0 0)
(0 0 0)
(0 0 0)
(0 0 0)
(0 0 0)
(0 0 0)
(0 0 0)
(0 0 0)
(0 0 0)
(0 0 0)
(0 0 0)
(0 0 0)
(0 0 0)
(0 0 0)
(0 0 0)
(0 0 0)
(0 0 0)
(0 0 -2.98577e-16)
(0 0 0)
(0 0 -6.87967e-18)
(0 0 0)
(0 0 2.58775e-16)
(0 0 0)
(0 0 2.98577e-16)
(0 0 2.98573e-16)
(0 0 -3.62532e-18)
(0 0 0)
(0 0 2.98577e-16)
(0 0 0)
(0 0 -2.98573e-16)
(0 0 -2.98577e-16)
(0 0 0)
(0 0 0)
(0 0 0)
(0 0 0)
(0 0 0)
(0 0 0)
(0 0 0)
(0 0 0)
(0 0 0)
(0 0 0)
(0 0 0)
(0 0 0)
(0 0 0)
(0 0 0)
(0 0 0)
(0 0 0)
(0 0 0)
(0 0 0)
(0 0 0)
(0 0 0)
(0 0 0)
(0 0 0)
(0 0 0)
(0 0 0)
(0 0 0)
(0 0 0)
(0 0 0)
(0 0 0)
(0 0 -2.98577e-16)
(0 0 0)
(0 0 -2.98573e-16)
(0 0 0)
(0 0 2.56377e-16)
(0 0 0)
(0 0 6.79879e-18)
(0 0 9.53174e-17)
(0 0 9.51612e-17)
(0 0 7.12587e-15)
(0 0 7.34893e-15)
(0 0 -9.53695e-17)
(0 0 -7.42439e-15)
(0 0 -7.42445e-15)
(0 0 0)
(0 0 0)
(0 0 0)
(0 0 0)
(0 0 0)
(0 0 0)
(0 0 0)
(0 0 0)
(0 0 0)
(0 0 0)
(0 0 0)
(0 0 0)
(0 0 0)
(0 0 0)
(0 0 0)
(0 0 0)
(0 0 0)
(0 0 0)
(0 0 0)
(0 0 0)
(0 0 0)
(0 0 0)
(0 0 0)
(0 0 0)
(0 0 0)
(0 0 0)
(0 0 0)
(0 0 0)
(0 0 0)
(0 0 0)
(0 0 0)
(0 0 0)
(0 0 0)
(0 0 0)
(0 0 0)
(1.57754e-20 0 3.63377e-24)
(0 0 0)
(0 0 0)
(0 0 -6.55697e-15)
(0 0 0)
(0 0 7.12563e-15)
(0 0 4.5301e-22)
(0 0 6.83919e-15)
(0 0 0)
(0 0 -7.1257e-15)
(0 0 -6.54592e-15)
(0 0 -7.42445e-15)
(0 0 7.42445e-15)
(0 0 6.82718e-15)
(0 -1.61443e-21 -3.25567e-21)
(0 0 -1.54176e-18)
(0 0 -1.67456e-20)
(0 1.83227e-15 -7.48881e-17)
(0 1.85611e-15 7.62214e-17)
(0 3.04306e-17 -8.32172e-20)
(0 3.12215e-17 -7.7641e-17)
(0 0 7.70194e-17)
(0 0 -7.67763e-17)
(0 8.71027e-20 -2.13975e-18)
(0 3.10122e-17 -7.71059e-17)
(0 1.85611e-15 2.59037e-18)
(0 1.85611e-15 3.65417e-15)
(0 3.12201e-17 -3.71222e-15)
(0 0 0)
(4.2991e-22 -8.26731e-19 -3.7122e-15)
(0 0 3.55937e-15)
(1.87779e-23 0 4.47493e-23)
(1.24966e-20 0 -3.14024e-21)
(0 0 -7.35165e-17)
(0 0 -6.6434e-19)
(1.85097e-28 0 0)
(0 0 -2.56537e-19)
(0 3.63065e-19 -1.13659e-21)
(0 0 -1.33084e-22)
(-1.66279e-21 0 2.10859e-28)
(0 0 -1.00243e-21)
(4.15761e-26 0 -9.72162e-24)
(0 0 6.31429e-15)
(0 0 -6.84323e-15)
(0 0 -7.11743e-15)
(0 0 -2.07986e-18)
(0 0 -5.34518e-16)
(0 0 7.00772e-22)
(0 0 -1.94332e-20)
(0 0 1.68141e-21)
(0 0 0)
(0 0 0)
(0 0 3.62041e-18)
(0 0 0)
(0 0 5.42148e-20)
(0 0 7.68612e-20)
(0 0 8.4422e-21)
(0 0 0)
(0 0 0)
(0 0 1.44649e-16)
(0 0 0)
(0 0 1.66158e-18)
(0 0 4.06321e-18)
(0 0 0)
(0 0 -5.25356e-18)
(0 0 -2.87477e-16)
(0 0 0)
(0 0 0)
(0 0 0)
(0 0 0)
(0 -5.89055e-17 -3.14546e-29)
(0 0 6.11212e-20)
(-3.77592e-19 -8.73564e-19 0)
(0 0 2.68424e-19)
(-5.93615e-17 0 0)
(0 0 9.77539e-18)
(0 0 9.68139e-18)
(1.85611e-15 0 -1.85611e-15)
(0 0 0)
(0 1.85611e-15 3.71222e-15)
(0 1.85611e-15 0)
(0 1.85611e-15 0)
(0 1.85611e-15 0)
(0 0 3.71222e-15)
(0 4.92127e-60 -9.28056e-16)
(0 9.28056e-16 1.85611e-15)
(0 9.28056e-16 1.85611e-15)
(0 9.28056e-16 1.85611e-15)
(0 9.28056e-16 0)
(0 9.28056e-16 0)
(0 0 0)
(0 0 1.85611e-15)
(0 0 0)
(0 0 1.85611e-15)
(0 0 0)
(0 0 0)
(0 0 0)
(0 0 1.85611e-15)
(0 0 -1.85611e-15)
(0 0 0)
(0 0 0)
(0 0 0)
(0 0 0)
(0 0 0)
(0 0 0)
(0 0 0)
(0 0 0)
(0 0 0)
(0 0 0)
(0 0 0)
(0 0 0)
(0 0 0)
(0 0 0)
(0 0 0)
(0 0 0)
(0 0 0)
(0 0 0)
(0 0 0)
(0 0 0)
(0 0 0)
(0 0 0)
(1.85611e-15 0 -1.77936e-15)
(0 0 -4.78885e-25)
(0 1.85611e-15 3.69256e-15)
(0 1.85611e-15 0)
(0 1.85611e-15 0)
(0 1.85611e-15 0)
(0 0 3.71222e-15)
(0 4.73117e-57 -2.62929e-20)
(0 9.28056e-16 -1.36054e-19)
(0 9.28056e-16 0)
(0 9.28056e-16 0)
(0 9.28056e-16 0)
(0 9.28056e-16 0)
(0 0 0)
(0 0 0)
(0 0 0)
(0 0 0)
(0 0 0)
(0 0 0)
(0 0 0)
(0 0 0)
(0 0 0)
(0 0 0)
(0 0 0)
(0 0 0)
(0 0 0)
(0 0 0)
(0 0 0)
(0 0 0)
(0 0 0)
(0 0 0)
(0 0 0)
(0 0 0)
(0 0 0)
(0 0 0)
(0 0 0)
(0 0 0)
(0 0 0)
(0 0 0)
(0 0 0)
(0 0 0)
(0 0 0)
(0 0 0)
(0 0 0)
(1.85611e-15 0 -1.79191e-15)
(0 0 -8.5877e-25)
(0 1.85611e-15 0)
(0 1.85611e-15 0)
(0 1.85611e-15 0)
(0 0 3.71222e-15)
(0 6.32963e-54 -2.62902e-20)
(0 9.28056e-16 3.59845e-22)
(0 9.28056e-16 0)
(0 9.28056e-16 0)
(0 9.28056e-16 0)
(0 9.28056e-16 0)
(0 0 0)
(0 0 0)
(0 0 0)
(0 0 0)
(0 0 0)
(0 0 0)
(0 0 0)
(0 0 0)
(0 0 0)
(0 0 0)
(0 0 0)
(0 0 0)
(0 0 0)
(0 0 0)
(0 0 0)
(0 0 0)
(0 0 0)
(0 0 0)
(0 0 0)
(0 0 0)
(0 0 0)
(0 0 0)
(0 0 0)
(0 0 0)
(0 0 0)
(0 0 0)
(0 0 0)
(0 0 0)
(0 0 0)
(0 0 0)
(0 0 0)
(1.85611e-15 0 -1.78873e-15)
(0 0 -9.55153e-23)
(0 1.85611e-15 0)
(0 1.85611e-15 0)
(0 1.85611e-15 0)
(0 0 3.71222e-15)
(0 -4.40025e-54 -2.7297e-20)
(0 9.28056e-16 1.36414e-19)
(0 9.28056e-16 0)
(0 9.28056e-16 0)
(0 9.28056e-16 0)
(0 9.28056e-16 0)
(0 0 0)
(0 0 6.56315e-20)
(0 0 0)
(0 0 0)
(0 0 0)
(0 0 0)
(0 0 0)
(0 0 6.86388e-22)
(0 0 0)
(0 0 0)
(0 0 0)
(0 0 0)
(0 0 0)
(0 0 0)
(0 0 0)
(0 0 0)
(0 0 0)
(0 0 0)
(0 0 0)
(0 0 0)
(0 0 0)
(0 0 0)
(0 0 0)
(0 0 0)
(0 0 0)
(0 0 0)
(0 0 0)
(0 0 0)
(0 0 0)
(0 0 0)
(0 0 0)
(0 0 -2.74625e-16)
(0 0 6.82721e-15)
(0 0 5.75146e-17)
(0 0 3.79636e-17)
(0 0 6.74676e-20)
(0 4.40659e-19 3.37305e-21)
(0 1.85611e-15 2.73684e-39)
(0 1.85611e-15 6.6356e-30)
(0 1.85611e-15 -5.32354e-22)
(0 0 3.71222e-15)
(0 0 3.00447e-18)
(0 9.28056e-16 7.18866e-24)
(0 9.28056e-16 1.08093e-21)
(0 9.28056e-16 1.0874e-21)
(0 9.28056e-16 1.34849e-19)
(0 9.28056e-16 -1.23307e-19)
(0 0 0)
(0 0 3.00721e-23)
(0 0 0)
(0 0 0)
(0 0 0)
(0 0 0)
(0 0 0)
(0 0 0)
(0 0 0)
(0 0 0)
(0 0 0)
(0 0 0)
(0 0 0)
(0 0 0)
(0 0 0)
(0 0 0)
(0 0 0)
(0 0 0)
(0 0 0)
(0 0 0)
(0 0 0)
(0 0 0)
(0 0 0)
(0 0 0)
(0 0 0)
(0 0 0)
(0 0 0)
(0 0 0)
(0 0 0)
(0 0 0)
(0 0 0)
(0 0 -3.6738e-17)
(0 0 9.12347e-25)
(0 0 4.1924e-24)
(0 0 1.41974e-24)
(-9.28056e-16 -5.73352e-22 -1.83662e-15)
(0 0 0)
(0 9.28056e-16 4.59229e-16)
(0 9.28056e-16 4.59447e-16)
(0 9.28056e-16 4.59408e-16)
(0 -9.28056e-16 -4.59129e-16)
(0 -1.82489e-15 0)
(0 0 0)
(0 0 -2.3118e-27)
(0 0 -1.85611e-15)
(0 0 -1.85611e-15)
(0 1.84041e-15 0)
(0 1.84041e-15 0)
(0 0 0)
(0 0 0)
(0 0 0)
(0 0 0)
(0 0 0)
(0 0 0)
(0 0 0)
(0 0 0)
(0 0 0)
(0 0 0)
(0 0 0)
(0 0 0)
(0 0 0)
(0 0 0)
(0 0 0)
(0 0 0)
(0 0 0)
(0 0 0)
(0 0 0)
(0 0 0)
(0 0 0)
(0 0 0)
(0 0 0)
(0 0 0)
(0 0 0)
(0 0 0)
(0 0 0)
(0 0 0)
(0 0 0)
(0 0 0)
(0 0 0)
(1.8901e-17 2.62591e-32 6.96042e-16)
(0 2.13608e-27 -1.85611e-15)
(0 9.23083e-23 -1.85611e-15)
(0 -1.84436e-15 -1.39208e-15)
(0 0 8.98799e-16)
(0 0 0)
(0 0 0)
(0 0 -1.85611e-15)
(0 0 -1.85611e-15)
(0 1.84041e-15 0)
(0 0 0)
(0 0 0)
(0 0 0)
(0 0 0)
(0 0 0)
(0 0 0)
(0 0 0)
(0 0 0)
(0 0 0)
(0 0 0)
(0 0 0)
(0 0 0)
(0 0 0)
(0 0 0)
(0 0 0)
(0 0 0)
(0 0 0)
(0 0 0)
(0 0 0)
(0 0 0)
(0 0 0)
(0 0 0)
(0 0 0)
(0 0 0)
(0 0 0)
(0 0 0)
(0 0 0)
(0 0 0)
(0 0 0)
(0 0 0)
(0 0 0)
(0 0 0)
(0 0 0)
(0 0 0)
(0 0 0)
(0 0 0)
(0 0 0)
(0 0 0)
(0 0 0)
(0 0 0)
(0 0 0)
(0 0 0)
(0 0 0)
(0 0 0)
(0 0 0)
(0 0 0)
(0 0 0)
(0 0 0)
(0 0 0)
(0 0 0)
(0 0 0)
(0 0 0)
(0 0 0)
(0 0 0)
(0 0 0)
(0 0 0)
(0 0 0)
(0 0 0)
(0 0 0)
(0 0 0)
(0 0 0)
(0 0 0)
(0 0 0)
(0 0 0)
(0 0 0)
(0 0 0)
(0 0 0)
(0 0 0)
(0 0 0)
(0 0 0)
(0 0 0)
(0 0 0)
(0 0 0)
(0 0 0)
(0 0 0)
(0 0 0)
(0 0 0)
(0 0 0)
(0 0 0)
(0 0 0)
(0 0 0)
(0 0 0)
(0 0 0)
(0 0 0)
(0 0 0)
(0 0 0)
(0 0 0)
(0 0 0)
(0 0 0)
(0 0 0)
(0 0 0)
(0 0 0)
(0 0 0)
(0 0 0)
(0 0 0)
(0 0 0)
(0 0 0)
(0 0 0)
(0 0 0)
(0 0 0)
(0 0 0)
(0 0 0)
(0 0 0)
(0 0 0)
(0 0 0)
(0 0 0)
(0 0 0)
(0 0 0)
(0 0 0)
(0 0 0)
(0 0 0)
(0 0 0)
(0 0 0)
(0 0 0)
(0 0 0)
(0 0 0)
(0 0 0)
(0 0 0)
(0 0 0)
(0 0 0)
(0 0 0)
(0 0 0)
(0 0 0)
(0 0 0)
(0 0 0)
(0 0 0)
(0 0 0)
(0 0 0)
(0 0 0)
(0 0 0)
(0 0 0)
(0 0 0)
(0 0 0)
(0 0 0)
(0 0 0)
(0 0 0)
(0 0 0)
(0 0 0)
(0 0 0)
(0 0 0)
(0 0 0)
(0 0 0)
(0 0 0)
(0 0 0)
(0 0 0)
(0 0 0)
(0 0 0)
(0 0 0)
(0 0 0)
(0 0 0)
(0 0 0)
(0 0 0)
(0 0 0)
(0 0 0)
(0 0 0)
(0 0 0)
(0 0 0)
(0 0 0)
(0 0 0)
(0 0 0)
(0 0 0)
(0 0 0)
(0 0 0)
(0 0 0)
(0 0 0)
(0 0 0)
(0 0 0)
(0 0 0)
(0 0 0)
(0 0 0)
(0 0 0)
(0 0 0)
(0 0 0)
(0 0 0)
(0 0 0)
(0 0 0)
(0 0 0)
(0 0 0)
(0 0 0)
(0 0 0)
(0 0 0)
(0 0 0)
(0 0 0)
(0 0 0)
(0 0 0)
(0 0 0)
(0 0 0)
(0 0 0)
(0 0 0)
(0 0 0)
(0 0 0)
(0 0 0)
(0 0 0)
(0 0 0)
(0 0 0)
(0 0 0)
(0 0 7.04687e-15)
(0 0 0)
(0 0 0)
(0 0 -7.12583e-15)
(0 0 0)
(1.85611e-15 0 -1.85611e-15)
(0 0 0)
(1.85611e-15 0 1.72782e-15)
(0 0 0)
(1.82008e-15 0 -3.16256e-17)
(0 0 -3.89183e-17)
(0 1.85611e-15 0)
(0 2.6352e-44 0)
(0 7.99023e-42 0)
(0 1.85611e-15 -3.49542e-15)
(0 1.85611e-15 0)
(0 6.8841e-42 0)
(0 2.99022e-39 0)
(0 1.85611e-15 3.71222e-15)
(0 3.12693e-44 0)
(0 4.46873e-46 0)
(0 1.85611e-15 -7.44432e-17)
(0 1.85611e-15 -3.65364e-15)
(0 1.38248e-41 0)
(0 1.68215e-43 0)
(0 1.85611e-15 0)
(0 1.11355e-48 0)
(0 4.44275e-53 0)
(0 1.85611e-15 -7.44731e-17)
(0 1.85611e-15 0)
(0 3.71718e-46 0)
(0 6.39575e-51 0)
(0 2.78417e-15 0)
(0 4.39996e-55 0)
(0 9.3744e-57 0)
(0 1.85611e-15 -7.3909e-17)
(0 1.81719e-15 -3.61465e-15)
(0 8.64234e-52 0)
(0 8.86718e-54 0)
(0 0 0)
(0 0 0)
(0 0 0)
(0 0 0)
(0 0 0)
(0 0 0)
(0 0 0)
(0 0 0)
(0 0 0)
(0 0 0)
(0 0 0)
(0 0 1.40604e-19)
(0 0 0)
(0 0 7.42445e-15)
(0 0 0)
(0 0 0)
(0 0 -7.12583e-15)
(0 0 0)
(1.85611e-15 0 -3.90554e-17)
(0 0 3.89183e-17)
(1.85611e-15 0 1.72835e-15)
(0 0 0)
(1.82009e-15 0 -3.16431e-17)
(0 0 -3.89183e-17)
(0 1.85611e-15 0)
(0 3.15123e-39 0)
(0 1.01715e-36 0)
(0 1.85611e-15 -7.59367e-17)
(0 0 -7.67423e-17)
(0 3.12834e-34 0)
(0 1.85611e-15 3.65364e-15)
(0 6.95759e-39 0)
(0 4.04036e-41 0)
(0 1.85611e-15 -7.48932e-17)
(0 1.85611e-15 -3.65364e-15)
(0 1.05841e-36 0)
(0 8.59949e-39 0)
(0 1.85611e-15 0)
(0 2.23547e-43 0)
(0 1.83715e-46 0)
(0 1.85611e-15 -7.44731e-17)
(0 1.85611e-15 0)
(0 3.00411e-41 0)
(0 3.58471e-44 0)
(0 2.78417e-15 3.61458e-15)
(0 5.56887e-49 0)
(0 3.74808e-51 0)
(0 1.85611e-15 -7.39092e-17)
(0 1.81719e-15 -3.61467e-15)
(0 2.04539e-46 0)
(0 1.40115e-48 0)
(0 0 0)
(0 0 0)
(0 0 0)
(0 0 0)
(0 0 0)
(0 0 0)
(0 0 0)
(0 0 0)
(0 0 0)
(0 0 0)
(0 0 -1.3918e-16)
(0 0 0)
(0 0 7.42445e-15)
(0 0 -9.19307e-17)
(0 0 0)
(0 0 -7.12583e-15)
(0 0 0)
(1.85611e-15 0 -3.90554e-17)
(0 0 3.89183e-17)
(1.85611e-15 0 1.73127e-15)
(0 0 0)
(1.8201e-15 0 -3.16241e-17)
(0 0 -3.89183e-17)
(0 1.85611e-15 7.6206e-17)
(0 0 7.70137e-17)
(0 8.60226e-32 0)
(0 1.85611e-15 -7.59367e-17)
(0 0 -7.67423e-17)
(0 2.08361e-29 0)
(0 1.85611e-15 3.65364e-15)
(0 3.15937e-34 0)
(0 2.2624e-36 0)
(0 1.85611e-15 -7.48932e-17)
(0 1.85611e-15 -3.65364e-15)
(0 4.31493e-32 0)
(0 3.10852e-34 0)
(0 1.85611e-15 0)
(0 1.05006e-38 0)
(0 3.32412e-41 0)
(0 1.85611e-15 -7.44731e-17)
(0 1.85611e-15 0)
(0 8.22226e-37 0)
(0 2.79395e-39 0)
(0 2.78417e-15 3.61458e-15)
(0 1.33905e-43 0)
(0 5.23788e-46 0)
(0 1.85611e-15 -7.39092e-17)
(0 1.81719e-15 -3.61467e-15)
(0 6.43813e-42 0)
(0 5.62161e-44 0)
(0 0 0)
(0 0 0)
(0 0 0)
(0 0 0)
(0 0 0)
(0 0 0)
(0 0 0)
(0 0 0)
(0 0 0)
(0 0 0)
(0 0 4.06539e-18)
(0 0 0)
(0 0 7.42445e-15)
(0 0 0)
(0 0 0)
(0 0 -7.12583e-15)
(0 0 0)
(1.85611e-15 0 -3.90554e-17)
(0 0 3.89183e-17)
(1.85611e-15 0 0)
(0 0 -2.40013e-19)
(1.81719e-15 0 -3.71585e-17)
(0 0 -3.89183e-17)
(0 1.85611e-15 7.6206e-17)
(0 0 7.70137e-17)
(0 1.09476e-26 0)
(0 1.85611e-15 0)
(0 2.34986e-22 0)
(0 1.9699e-24 0)
(0 1.85611e-15 3.65364e-15)
(0 2.59408e-29 0)
(0 1.33952e-31 0)
(0 1.85611e-15 -7.52453e-17)
(0 1.85611e-15 -3.71222e-15)
(0 0 0)
(0 0 0)
(0 1.85611e-15 0)
(0 2.57989e-34 0)
(0 6.95114e-37 0)
(0 1.85611e-15 -7.52756e-17)
(0 1.85611e-15 0)
(0 0 0)
(0 0 0)
(0 2.78417e-15 3.61458e-15)
(0 1.77419e-39 0)
(0 8.03412e-42 0)
(0 1.85611e-15 -7.39084e-17)
(0 1.81719e-15 -3.61459e-15)
(0 0 0)
(0 0 0)
(0 0 1.21819e-40)
(0 0 0)
(0 0 0)
(0 -5.09696e-17 0)
(0 3.60386e-15 1.85611e-15)
(0 -3.58873e-15 2.78417e-15)
(-3.51432e-15 2.02003e-28 2.78417e-15)
(0 0 -2.89779e-16)
(0 0 0)
(0 0 0)
(7.36878e-17 0 -1.85611e-15)
(0 -3.60386e-15 1.85611e-15)
(3.51432e-15 -3.58873e-15 2.78417e-15)
(-3.51432e-15 3.58873e-15 2.78417e-15)
(0 0 -1.94795e-17)
(0 0 0)
(0 0 7.42445e-15)
(7.29626e-17 0 1.85611e-15)
(0 0 3.2482e-15)
(3.51432e-15 -3.58873e-15 2.78417e-15)
(-3.51432e-15 -3.58873e-15 2.32014e-15)
(0 0 0)
(0 0 1.12249e-21)
(0 0 -4.37945e-22)
(1.81719e-15 0 5.52388e-17)
(0 0 0)
(0 0 6.82984e-15)
(0 0 7.07905e-15)
(0 0 3.69631e-17)
(0 0 8.59892e-27)
(0 -5.93652e-17 3.25582e-21)
(0 0 1.78517e-15)
(0 0 1.96013e-19)
(0 0 -1.79616e-15)
(-9.18257e-16 0 1.81142e-15)
(0 0 0)
(1.80573e-15 0 4.59129e-16)
(0 0 -1.83651e-15)
(0 0 -1.83651e-15)
(0 1.85611e-15 -4.59129e-16)
(0 0 -1.83651e-15)
(0 0 0)
(0 0 0)
(0 0 0)
(0 0 0)
(0 0 0)
(0 0 0)
(0 0 0)
(0 0 0)
(0 0 0)
(0 0 0)
(0 0 0)
(0 0 0)
(0 0 0)
(0 0 0)
(0 0 0)
(0 0 0)
(0 0 0)
(0 0 0)
(0 0 0)
(0 0 0)
(0 0 -1.49222e-16)
(0 0 0)
(1.85556e-15 0 -1.85611e-15)
(0 0 0)
(0 0 -2.05565e-20)
(1.85592e-15 0 -1.0919e-18)
(0 0 0)
(0 0 1.00576e-19)
(0 0 -1.49222e-16)
(0 0 7.99637e-19)
(1.85609e-15 0 1.85962e-20)
(0 0 0)
(0 0 5.22835e-19)
(1.85556e-15 0 1.81031e-18)
(0 0 0)
(0 0 0)
(0 0 6.69794e-15)
(0 0 -4.24823e-18)
(0 0 -5.55224e-19)
(1.85556e-15 0 -1.57605e-18)
(0 0 0)
(1.81719e-15 0 0)
(0 0 0)
(1.85611e-15 0 4.74524e-21)
(0 0 0)
(0 0 -1.08254e-14)
(0 0 3.73812e-18)
(0 0 7.04808e-15)
(0 0 3.71222e-15)
(0 0 0)
(1.85611e-15 0 -1.40859e-21)
(0 0 0)
(1.81719e-15 0 1.81719e-15)
(0 0 0)
(1.85611e-15 0 0)
(0 0 0)
(0 0 5.06368e-18)
(-7.55141e-17 0 5.78462e-17)
(0 0 3.07015e-16)
(0 0 -1.49402e-16)
(0 0 2.32014e-15)
(3.51432e-15 0 1.8172e-15)
(0 -7.31267e-17 1.85611e-15)
(0 -3.47676e-15 0)
(0 0 0)
(0 0 -1.58679e-16)
(0 0 0)
(-3.44198e-15 0 1.8172e-15)
(3.51432e-15 -3.71222e-15 1.81773e-15)
(3.71626e-23 4.81944e-17 -1.85611e-15)
(0 3.48157e-15 0)
(0 0 -1.06005e-14)
(0 0 0)
(0 0 -1.14472e-18)
(-3.44198e-15 0 1.85511e-15)
(3.51432e-15 0 1.36342e-15)
(0 0 0)
(0 0 2.78417e-15)
(0 -3.60422e-15 1.85611e-15)
(0 0 -2.11342e-16)
(0 0 0)
(3.52904e-15 3.60386e-15 2.78417e-15)
(0 0 2.89288e-20)
(0 0 -7.42445e-15)
(0 0 0)
(0 0 3.41135e-18)
(0 0 0)
(0 0 0)
(0 0 2.74628e-16)
(1.57625e-18 0 6.82347e-15)
(0 0 0)
(0 0 -7.42445e-15)
(0 0 -2.83397e-16)
(0 0 0)
(0 0 0)
(0 0 2.16044e-33)
(0 0 -6.76183e-15)
(0 0 0)
(0 0 7.42445e-15)
(0 0 -1.37698e-21)
(0 0 0)
(0 0 0)
(0 0 6.3785e-25)
(0 0 0)
(0 0 0)
(0 0 0)
(0 0 0)
(0 0 0)
(0 0 0)
(0 0 0)
(0 0 0)
(0 0 0)
(0 0 0)
(0 0 0)
(0 0 0)
(0 0 0)
(0 0 0)
(0 0 0)
(0 0 0)
(0 0 0)
(0 0 0)
(0 0 0)
(0 0 0)
(0 0 0)
(0 0 0)
(0 0 0)
(0 0 0)
(0 0 0)
(0 0 0)
(0 0 0)
(0 0 0)
(0 0 0)
(0 0 0)
(0 0 0)
(0 0 0)
(0 0 0)
(0 0 0)
(0 0 0)
(0 0 0)
(0 0 0)
(0 0 0)
(0 0 0)
(0 0 0)
(0 0 0)
(0 0 0)
(0 0 0)
(0 0 0)
(0 0 0)
(0 0 0)
(0 0 0)
(0 0 0)
(0 0 0)
(0 0 0)
(0 0 0)
(0 0 0)
(0 0 0)
(0 0 0)
(0 0 0)
(0 0 0)
(0 0 0)
(0 0 0)
(0 0 0)
(0 0 0)
(0 0 0)
(0 0 0)
(0 0 0)
(0 0 0)
(0 0 0)
(0 0 0)
(0 0 0)
(0 0 0)
(0 0 0)
(0 0 0)
(0 0 0)
(0 0 0)
(0 0 0)
(0 0 0)
(0 0 0)
(0 0 0)
(0 0 0)
(0 0 0)
(0 0 0)
(0 0 0)
(0 0 0)
(0 0 0)
(0 0 0)
(0 0 0)
(0 0 0)
(0 0 0)
(0 0 0)
(0 0 0)
(0 0 0)
(0 0 -3.07015e-16)
(0 0 0)
(0 0 0)
(0 0 0)
(0 0 0)
(0 0 0)
(0 0 0)
(0 0 0)
(0 0 0)
(0 0 3.85157e-18)
(0 0 1.7652e-18)
(0 0 0)
(0 0 0)
(0 0 -3.01981e-16)
(0 0 3.07015e-16)
(0 0 0)
(0 0 0)
(0 0 0)
(0 0 0)
(0 0 0)
(0 0 0)
(0 0 0)
(0 0 0)
(0 0 0)
(0 0 0)
(0 0 0)
(0 0 0)
(0 0 0)
(0 0 0)
(0 0 0)
(0 0 0)
(0 0 0)
(0 0 0)
(0 0 0)
(0 0 0)
(0 0 0)
(0 0 0)
(0 0 0)
(0 0 0)
(0 0 0)
(0 0 0)
(0 0 0)
(0 0 0)
(0 0 0)
(0 0 0)
(0 0 0)
(0 0 0)
(0 0 0)
(0 0 0)
(0 0 0)
(0 0 0)
(0 0 0)
(0 0 0)
(0 0 0)
(0 0 0)
(0 0 0)
(0 0 0)
(0 0 0)
(0 0 0)
(0 0 0)
(0 0 0)
(0 0 0)
(0 0 0)
(0 0 0)
(0 0 0)
(0 0 0)
(0 0 0)
(0 0 0)
(0 0 0)
(0 0 0)
(0 0 0)
(0 0 0)
(0 0 0)
(0 0 0)
(0 0 0)
(0 0 0)
(0 0 0)
(0 0 0)
(0 0 0)
(0 0 0)
(0 0 0)
(0 0 0)
(0 0 0)
(0 0 0)
(0 0 0)
(0 0 0)
(0 0 0)
(0 0 0)
(0 0 0)
(0 0 0)
(0 0 0)
(0 0 0)
(0 0 0)
(0 0 0)
(0 0 0)
(0 0 0)
(0 0 0)
(0 0 0)
(0 0 4.14589e-18)
(0 0 0)
(0 0 0)
(0 0 0)
(0 0 3.01991e-16)
(0 0 1.64415e-17)
(0 0 -3.07015e-16)
(0 0 0)
(0 0 0)
(0 0 0)
(0 0 0)
(0 0 3.30466e-18)
(0 0 0)
(0 0 0)
(0 0 3.84033e-18)
(0 0 1.41252e-16)
(0 0 3.55872e-15)
(0 0 0)
(0 0 -2.99869e-16)
(0 0 3.07015e-16)
(0 0 0)
(0 0 0)
(0 0 0)
(0 0 0)
(0 0 0)
(0 0 0)
(0 0 0)
(0 0 0)
(0 0 0)
(0 0 0)
(0 0 0)
(0 0 0)
(0 0 0)
(0 0 0)
(0 0 0)
(0 0 0)
(0 0 0)
(0 0 0)
(0 0 0)
(0 0 0)
(0 0 0)
(0 0 0)
(0 0 0)
(0 0 0)
(0 0 0)
(0 0 0)
(0 0 0)
(0 0 0)
(0 0 0)
(0 0 0)
(0 0 0)
(0 0 0)
(0 0 0)
(0 0 0)
(0 0 0)
(0 0 0)
(0 0 0)
(0 0 0)
(0 0 0)
(0 0 0)
(0 0 0)
(0 0 0)
(0 0 0)
(0 0 0)
(0 0 0)
(0 0 0)
(0 0 0)
(0 0 0)
(0 0 0)
(0 0 0)
(0 0 0)
(0 0 0)
(0 0 0)
(0 0 0)
(0 0 0)
(0 0 0)
(0 0 0)
(0 0 0)
(0 0 0)
(0 0 0)
(0 0 0)
(0 0 0)
(0 0 0)
(0 0 0)
(0 0 0)
(0 0 0)
(0 0 0)
(0 0 0)
(0 0 0)
(0 0 0)
(0 0 0)
(0 0 0)
(0 0 0)
(0 0 0)
(0 0 0)
(0 0 0)
(0 0 0)
(0 0 0)
(0 0 9.38276e-17)
(0 0 -3.41337e-15)
(0 0 3.55872e-15)
(0 0 0)
(0 0 2.9984e-16)
(0 0 1.14344e-17)
(0 0 -3.07015e-16)
(0 0 0)
(0 0 0)
(0 0 0)
(0 0 0)
(0 0 3.30466e-18)
(0 0 0)
(0 0 0)
(0 0 1.41231e-16)
(0 0 -3.4178e-15)
(0 0 3.55872e-15)
(0 0 0)
(0 0 -2.99866e-16)
(0 0 3.07015e-16)
(0 0 0)
(0 0 0)
(0 0 0)
(0 0 0)
(0 0 0)
(0 0 0)
(0 0 0)
(0 0 0)
(0 0 0)
(0 0 0)
(0 0 0)
(0 0 0)
(0 0 0)
(0 0 0)
(0 0 0)
(0 0 0)
(0 0 0)
(0 0 0)
(0 0 0)
(0 0 0)
(0 0 0)
(0 0 0)
(0 0 0)
(0 0 0)
(0 0 0)
(0 0 0)
(0 0 0)
(0 0 0)
(0 0 0)
(0 0 0)
(0 0 0)
(0 0 0)
(0 0 0)
(0 0 0)
(0 0 0)
(0 0 0)
(0 0 0)
(0 0 0)
(0 0 0)
(0 0 0)
(0 0 0)
(0 0 0)
(0 0 0)
(0 0 0)
(0 0 0)
(0 0 0)
(0 0 0)
(0 0 0)
(0 0 0)
(0 0 0)
(0 0 0)
(0 0 0)
(0 0 0)
(0 0 0)
(0 0 0)
(0 0 0)
(0 0 0)
(0 0 0)
(0 0 0)
(0 0 0)
(0 0 0)
(0 0 0)
(0 0 0)
(0 0 0)
(0 0 0)
(0 0 0)
(0 0 0)
(0 0 0)
(0 0 0)
(0 0 0)
(0 0 0)
(0 0 0)
(0 0 0)
(0 0 0)
(0 0 0)
(0 0 0)
(0 0 0)
(0 0 0)
(0 0 0)
(0 0 0)
(0 0 1.40765e-19)
(0 0 0)
(0 0 3.01981e-16)
(0 0 1.64957e-17)
(0 0 -3.07015e-16)
(0 0 0)
(0 0 0)
(0 0 0)
(0 0 0)
(0 0 3.30466e-18)
(0 0 0)
(0 0 0)
(0 0 -1.45908e-16)
(0 0 0)
(0 0 -1.68684e-18)
(0 0 0)
(0 0 0)
(0 0 3.07015e-16)
(0 0 0)
(0 0 0)
(0 0 0)
(0 0 0)
(0 0 0)
(0 0 0)
(0 0 0)
(0 0 0)
(0 0 3.61282e-20)
(0 0 3.71222e-15)
(0 0 0)
(0 0 7.76504e-38)
(0 0 0)
(0 0 0)
(0 0 5.09844e-36)
(0 0 3.41593e-15)
(0 0 0)
(0 0 -3.71222e-15)
(0 0 -6.82806e-15)
(0 0 0)
(0 0 7.42445e-15)
(0 0 8.44866e-27)
(0 0 2.75432e-16)
(0 0 0)
(0 0 0)
(0 0 6.82678e-15)
(0 0 1.63799e-17)
(0 0 5.20335e-16)
(0 0 0)
(0 0 0)
(0 0 -5.77878e-15)
(0 0 0)
(0 0 6.30747e-15)
(0 0 -5.27927e-16)
(0 0 2.43615e-16)
(0 0 0)
(0 0 0)
(0 0 -6.09391e-15)
(0 0 0)
(0 0 6.26822e-15)
(0 0 -2.61266e-16)
(0 0 0)
(0 0 0)
(0 0 0)
(0 0 0)
(0 0 0)
(0 0 -2.34459e-19)
(0 0 3.71222e-15)
(0 0 -3.46514e-18)
(0 0 1.4337e-16)
(0 0 0)
(0 0 -3.55872e-15)
(0 0 0)
(0 0 -3.01814e-16)
(0 0 3.55872e-15)
(0 0 3.74646e-18)
(0 0 0)
(0 0 0)
(0 0 0)
(0 0 2.88378e-16)
(0 0 1.15381e-17)
(0 0 -3.07015e-16)
(0 0 -1.14211e-18)
(0 0 5.10788e-18)
(0 0 0)
(0 0 -3.55872e-15)
(0 0 4.4741e-16)
(0 0 -8.48584e-17)
(0 0 3.57135e-15)
(0 0 -9.37085e-19)
(0 0 0)
(0 0 0)
(0 0 -7.7094e-18)
(0 0 0)
(0 0 0)
(0 0 -2.86283e-16)
(0 0 0)
(0 0 -7.42445e-15)
(0 0 1.49388e-16)
(0 0 0)
(0 0 1.5892e-16)
(0 0 0)
(0 0 0)
(0 0 2.04195e-18)
(0 0 -1.53508e-16)
(0 0 0)
(0 0 -3.71222e-15)
(0 0 0)
(0 0 0)
(0 0 3.71222e-15)
(0 0 0)
(0 0 0)
(0 0 1.01339e-19)
(0 0 0)
(0 0 3.0389e-16)
(0 0 1.17835e-17)
(0 0 -3.07015e-16)
(0 0 -3.42022e-15)
(0 0 0)
(0 0 -1.49222e-16)
(0 0 -3.55872e-15)
(0 0 0)
(0 0 -9.38303e-17)
(0 0 3.71222e-15)
(0 0 -2.83778e-16)
(0 0 0)
(0 0 0)
(0 0 4.14684e-16)
(0 0 0)
(0 0 0)
(0 0 3.01075e-16)
(0 0 -1.34658e-16)
(0 0 0)
(0 0 7.15567e-15)
(0 0 0)
(0 0 0)
(0 0 2.92465e-16)
(0 0 3.66309e-19)
(0 0 0)
(0 0 0)
(0 0 1.54317e-16)
(0 0 -7.12239e-15)
(0 0 0)
(0 0 7.42445e-15)
(0 0 -8.57148e-18)
(0 0 0)
(0 0 0)
(0 0 -3.56729e-15)
(0 0 0)
(0 0 3.71222e-15)
(0 0 -3.07015e-16)
(0 0 6.55269e-15)
(0 0 0)
(0 0 0)
(0 0 -2.59394e-16)
(0 0 -7.42445e-15)
(0 0 8.8604e-19)
(0 0 -3.09921e-18)
(3.2318e-20 0 -4.17755e-18)
(0 0 0)
(0 0 0)
(0 0 -3.04746e-16)
(0 0 6.44275e-15)
(0 0 0)
(0 0 -7.42445e-15)
(0 0 0)
(0 0 0)
(0 0 0)
(0 0 0)
(0 0 0)
(0 0 0)
(0 0 0)
(0 0 -8.23706e-18)
(0 0 0)
(0 0 0)
(0 0 -1.48748e-16)
(0 0 0)
(0 0 0)
(0 0 0)
(0 0 0)
(0 0 -4.27041e-16)
(0 0 6.89584e-15)
(0 0 1.05269e-14)
(0 0 2.95603e-16)
(0 0 -1.45109e-16)
(0 0 -7.34893e-15)
(0 0 0)
(0 0 -6.74332e-15)
(0 0 -6.66478e-18)
(0 0 3.71222e-15)
(0 0 3.05397e-16)
(0 0 -3.71222e-15)
(0 0 0)
(0 0 -6.83492e-15)
(0 0 0)
(0 0 7.34893e-15)
(0 0 -5.90376e-15)
(0 0 7.42445e-15)
(0 0 6.56027e-15)
(0 0 -6.28658e-15)
(0 1.85611e-15 3.65364e-15)
(0 1.85611e-15 3.65364e-15)
(0 -3.66526e-15 9.28056e-16)
(0 0 0)
(0 1.85611e-15 -3.63439e-15)
(0 0 0)
(0 0 0)
(0 1.85611e-15 -3.63439e-15)
(0 0 0)
(0 0 0)
(0 1.85611e-15 0)
(0 0 1.06326e-17)
(0 0 3.886e-17)
(0 0 1.49224e-16)
(0 0 0)
(0 3.5894e-15 2.78417e-15)
(0 0 0)
(0 0 0)
(0 0 0)
(0 0 0)
(0 0 0)
(0 0 0)
(0 0 0)
(0 0 0)
(0 0 0)
(0 0 0)
(0 0 0)
(0 0 0)
(0 0 0)
(0 0 0)
(0 0 0)
(0 0 0)
(0 0 0)
(0 0 0)
(0 0 0)
(0 0 0)
(0 0 0)
(0 0 0)
(0 0 0)
(0 0 0)
(0 0 0)
(0 0 0)
(0 0 0)
(0 0 0)
(0 0 0)
(0 0 0)
(0 0 0)
(0 0 0)
(0 0 0)
(0 0 0)
(0 0 0)
(0 0 0)
(0 0 0)
(0 0 2.86612e-16)
(0 0 0)
(0 0 -8.21945e-18)
(0 0 3.43353e-15)
(0 0 -2.95001e-16)
(0 0 -3.57148e-15)
(0 0 2.68263e-16)
(0 0 -6.82806e-15)
(0 0 7.42445e-15)
(0 0 0)
(0 0 3.55882e-15)
(0 0 -3.71222e-15)
(0 0 0)
(0 0 0)
(0 0 -1.67167e-20)
(9.40047e-17 0 -1.01271e-18)
(1.85611e-15 0 1.78828e-15)
(1.85611e-15 0 -3.60152e-17)
(0 0 3.89183e-17)
(3.63439e-15 0 -7.17538e-17)
(0 0 -1.38316e-18)
(0 1.85611e-15 -3.48566e-15)
(0 1.53253e-17 5.6909e-23)
(0 6.90015e-20 0)
(0 1.85611e-15 -7.28095e-23)
(0 0 0)
(0 7.78366e-17 7.92281e-19)
(0 0 6.72873e-21)
(0 1.85611e-15 2.53734e-34)
(0 0 0)
(0 0 0)
(0 3.71222e-15 5.6024e-17)
(0 7.78366e-17 1.55843e-18)
(0 0 7.87488e-19)
(0 0 2.80068e-20)
(0 1.85611e-15 8.41556e-26)
(0 0 0)
(0 0 0)
(0 3.71222e-15 5.60425e-17)
(0 7.78366e-17 2.57019e-18)
(0 0 7.87695e-19)
(0 0 3.36039e-20)
(0 2.78417e-15 -3.60181e-17)
(0 0 0)
(0 0 0)
(0 3.71222e-15 1.26631e-16)
(0 3.63439e-15 3.41722e-15)
(0 0 2.82522e-18)
(0 0 7.30204e-17)
(0 5.99305e-17 0)
(0 2.60627e-31 2.94778e-21)
(0 0 5.22562e-19)
(0 0 3.71194e-17)
(0 0 -1.75788e-15)
(0 6.66015e-31 0)
(0 5.0128e-29 0)
(0 0 -7.32644e-17)
(0 0 2.16238e-22)
(0 0 2.86929e-22)
(0 1.76816e-28 0)
(0 4.23883e-26 0)
(0 2.09561e-26 0)
(0 3.01327e-24 0)
(0 0 6.28888e-21)
(0 0 9.89577e-22)
(0 0 1.02616e-18)
(0 7.33634e-24 0)
(0 1.019e-21 0)
(0 8.98555e-22 0)
(0 8.62522e-20 0)
(0 0 3.60225e-17)
(0 0 -2.10083e-21)
(0 0 1.83829e-22)
(0 -1.37919e-19 0)
(0 -2.91004e-21 0)
(0 -3.06106e-17 0)
(0 -4.3069e-19 0)
(0 0 0)
(0 0 7.42445e-15)
(0 0 0)
(0 0 -7.42445e-15)
(0 0 -7.42445e-15)
(0 0 0)
(0 0 0)
(0 0 0)
(0 0 7.12083e-15)
(0 0 -7.42445e-15)
(0 0 0)
(0 0 7.42445e-15)
(0 0 0)
(0 0 0)
(0 0 0)
(0 0 7.42445e-15)
(0 0 0)
(0 0 -7.42445e-15)
(0 0 2.98621e-16)
(0 0 -7.34893e-15)
(0 0 0)
(0 0 0)
(0 0 7.12083e-15)
(0 0 -7.42445e-15)
(0 0 0)
(0 0 7.42445e-15)
(0 0 0)
(0 0 0)
(0 0 0)
(0 0 7.42445e-15)
(0 0 0)
(0 0 -7.42445e-15)
(0 0 2.98621e-16)
(0 0 -7.34893e-15)
(0 0 0)
(0 0 0)
(0 0 7.12083e-15)
(0 0 -7.42445e-15)
(0 0 0)
(0 0 7.42445e-15)
(0 0 0)
(0 0 0)
(0 0 0)
(0 0 7.42445e-15)
(0 0 0)
(0 0 -7.42445e-15)
(0 0 2.98621e-16)
(0 0 -7.34893e-15)
(0 0 0)
(0 0 0)
(0 0 7.12083e-15)
(0 0 -7.42445e-15)
(0 0 0)
(0 0 7.42445e-15)
(0 0 0)
(0 0 0)
(0 0 3.2809e-38)
(0 0 0)
(0 0 0)
(0 0 1.8298e-38)