/*--------------------------------*- C++ -*----------------------------------*\
  =========                 |
  \\      /  F ield         | OpenFOAM: The Open Source CFD Toolbox
   \\    /   O peration     | Website:  https://openfoam.org
    \\  /    A nd           | Version:  9
     \\/     M anipulation  |
\*---------------------------------------------------------------------------*/
FoamFile
{
    format      ascii;
    class       volScalarField;
    location    "0.00055";
    object      rho.c4;
}
// * * * * * * * * * * * * * * * * * * * * * * * * * * * * * * * * * * * * * //

dimensions      [1 -3 0 0 0 0 0];

internalField   nonuniform List<scalar> 
5846
(
6.08644
6.44083
1.03369
1.03295
5.59474
1.04477
5.67454
1.0421
5.92759
1.01318
1.04741
6.28541
1.04254
5.81888
5.8151
1.01405
1.06596
0.967643
0.935967
0.961033
0.975401
0.942655
1.01911
0.990587
1.3367
1.3595
5.81475
7.67738
1.10083
2.00342
5.95054
2.00418
2.0321
6.34655
6.09298
1.96756
2.03795
6.0144
1.01048
1.01646
1.01552
1.04086
1.01969
1.01267
0.913658
1.0142
1.03248
1.01344
1.03837
0.938032
1.01556
1.01155
1.85108
5.64372
1.85019
1.90913
5.67339
1.89645
5.59863
1.04828
0.979395
0.971856
1.05804
0.995871
0.994324
1.05433
1.89128
5.6886
1.85699
5.60986
1.85345
1.89983
5.59514
1.03837
1.03946
0.974275
0.986714
0.974682
1.0529
0.9947
1.33869
5.75062
1.98913
1.3335
7.62069
1.09802
5.92979
0.997722
1.0159
1.00353
1.01202
1.03615
0.933485
1.01596
1.09103
1.13266
1.04281
1.01529
1.10064
1.02485
1.12222
1.37248
6.27856
1.37145
7.79217
1.1039
2.11513
6.29932
1.03858
1.05661
1.04065
1.04218
0.941635
1.04261
1.05996
2.00903
5.94
1.33925
1.35968
7.68204
1.10147
6.09889
1.88878
5.78737
1.91879
1.94679
5.86255
1.9125
5.79975
1.01478
1.01341
1.01546
1.03309
1.03847
0.938156
1.03302
1.06609
0.997283
0.997333
1.089
1.00338
1.07677
1.01386
0.974456
0.955482
0.959262
0.98984
0.999669
0.999464
0.974927
0.943261
0.916049
0.925393
0.962785
0.93718
0.945667
0.955309
0.992555
0.996287
0.95353
0.973797
0.98319
0.959376
0.972806
0.958461
0.991544
0.964739
0.952486
0.96934
0.989818
0.998909
0.925146
0.933661
0.914824
0.951518
0.93473
0.961592
0.945095
1.00835
1.00979
0.907147
1.00976
1.03944
1.0191
1.01346
0.96803
0.950486
0.958764
0.990516
0.974712
0.98399
0.958676
1.00995
1.02671
1.0254
1.02914
1.01925
1.02098
1.01981
1.00253
1.01768
1.02606
1.02831
1.01987
1.01311
1.01313
0.958087
1.04997
0.953682
0.956356
0.956806
0.991089
0.97276
1.02061
1.05096
1.02584
1.03611
1.01997
1.04033
1.0381
0.991692
1.04755
0.978962
1.05212
0.987308
1.04453
0.990166
0.991685
0.952228
0.95242
0.966703
0.921768
0.980629
0.981996
1.00257
1.01548
1.01346
1.01729
1.0101
1.01192
1.00984
0.968384
0.989199
0.954573
0.991657
0.912305
0.993994
0.985899
2.27903
1.22941
1.38883
2.33995
1.29116
2.44402
2.15067
2.2983
2.38843
1.2431
1.40439
2.4758
1.29553
2.17925
4.00428
7.7284
3.91514
7.61987
3.83671
3.8771
7.83603
1.84301
1.11272
1.12074
1.83265
1.1508
1.78618
1.79897
0.989709
0.99507
1.00038
1.03053
0.99737
1.00556
0.993872
1.00107
1.0096
1.00665
1.04269
1.01691
1.00281
1.0152
0.992156
1.00186
1.00473
1.03403
1.00152
1.00819
0.999646
1.02435
1.04312
1.03639
1.03371
1.03285
1.02801
1.03323
1.00535
1.01413
1.01793
1.01809
1.01546
1.01233
1.0104
0.999435
1.01248
1.01516
1.01317
1.01199
1.00614
1.00955
0.988997
0.971014
0.977928
0.97308
0.992451
0.991019
0.992764
0.965371
0.957429
0.955427
1.05575
0.996786
0.963003
0.975453
0.972344
0.976176
0.96929
1.06766
1.00108
0.991853
0.974288
0.992362
1.00598
1.00249
1.03428
0.999063
1.00527
1.00757
1.01426
1.04171
1.02303
1.03348
1.03118
1.01659
1.02423
0.988584
0.934381
0.943223
1.002
0.943505
0.992667
1.0015
0.994804
0.99898
1.01531
1.01442
1.01248
1.00247
0.997745
0.990789
1.04559
1.05134
0.976444
1.04394
0.985862
0.989275
0.995764
0.963893
0.953248
0.960645
0.935471
0.978204
0.978436
0.989329
1.05774
0.991155
1.06151
0.991561
1.01352
0.993368
0.991823
0.967909
0.99447
1.00373
1.00634
0.983926
0.9378
1.01366
0.980101
0.983273
0.996971
0.993994
0.985477
0.995198
0.992738
0.963264
0.952541
0.962514
0.932791
0.978025
0.977973
0.982696
0.990515
0.960972
0.98795
0.927051
0.996332
0.980496
0.984405
1.05218
1.05139
0.988997
0.989963
1.00582
0.987258
1.01081
0.981871
0.994334
0.983343
0.985555
0.990699
0.994705
2.27999
2.3468
1.38771
1.23086
2.45085
1.28718
2.15629
2.27263
1.38201
1.22726
2.33928
2.15048
2.43772
1.28309
3.98253
7.54985
3.91116
7.5788
3.84527
3.83911
7.72053
1.8366
1.1134
1.11208
1.83517
1.79073
1.14296
1.79088
0.976673
1.03335
0.963546
1.03284
0.972776
0.973673
1.03142
0.988716
0.998041
1.01245
1.01402
0.998288
0.996092
1.00845
0.978279
1.0207
0.995561
0.995561
0.993495
0.993544
0.990465
0.958138
1.0495
0.954941
0.953811
0.973041
0.957691
0.990297
1.00905
1.03249
1.0198
1.03253
1.01539
1.01515
1.02635
0.980972
0.932488
0.931501
0.997889
0.990172
0.934638
0.990149
0.988863
1.01248
0.998533
1.01413
0.996446
0.998738
1.0085
1.04134
1.09783
1.02094
1.10898
1.06229
1.03205
1.03039
1.04273
1.02818
1.03589
1.05502
1.0317
1.0513
0.996627
1.04834
1.00467
1.00964
0.998481
1.02451
1.01635
0.988646
1.0613
1.01389
1.03548
1.01466
1.03898
1.03401
1.0205
2.35568
1.25233
1.44015
2.42372
2.56051
1.32422
2.20437
2.35314
2.41848
1.25193
1.43935
2.20195
1.32154
2.55793
4.12
7.87921
3.94716
7.90749
3.91177
3.92286
8.13943
1.87618
1.12593
1.12628
1.84052
1.80719
1.1694
1.80881
0.993053
0.975013
0.983453
1.09057
0.996544
1.01739
1.00049
1.01778
1.04108
1.041
1.07934
1.04007
1.03079
1.04023
0.993259
0.982968
0.975906
1.09141
1.00035
1.01705
0.997118
1.03286
1.04818
1.02648
1.04821
1.03092
1.03111
1.04801
1.00844
0.949061
0.949171
1.00585
1.00923
0.961162
1.00927
1.0206
1.02587
1.05097
1.03622
1.038
1.02021
1.04029
1.01951
1.09349
1.02571
1.09214
1.02611
1.07134
1.02625
2.2827
1.39459
2.34254
1.23182
2.45493
2.15301
1.29334
2.29936
1.40609
1.24284
2.39059
2.17993
2.47822
1.29661
4.00439
7.59382
3.91762
7.75727
3.83088
3.88648
7.83762
1.84355
1.11474
1.12137
1.83422
1.78743
1.80167
1.15207
0.965758
1.05737
0.955638
0.959193
0.963723
0.975151
0.997801
0.992149
1.03438
1.00248
1.00595
1.00524
1.00739
0.999019
0.994597
0.998714
1.01518
1.01435
1.00237
0.997489
1.0124
0.972362
1.06872
0.969553
0.976152
0.991803
1.00223
0.974601
1.01397
1.0335
1.0229
1.04181
1.01631
1.02423
1.0311
0.988569
0.936006
0.943496
1.00185
0.992542
1.00141
0.94494
1.00244
1.02603
1.01754
1.02841
1.01313
1.01304
1.01983
1.00534
1.00803
0.97574
1.0018
0.946403
1.0147
0.997935
1.01224
1.08609
1.09078
1.01485
1.02188
1.03821
1.00861
1.01858
0.975933
0.997034
0.986661
1.00555
0.960713
0.998714
1.03309
1.0109
1.00476
1.00299
1.0094
1.0091
1.01329
0.992732
0.954118
0.950814
0.965179
0.921969
0.981214
0.98087
0.982064
0.955319
0.990829
0.986992
0.995565
0.915235
0.985178
0.988999
0.970118
0.999235
1.00162
1.00848
0.990094
0.927155
1.02182
0.985154
0.998308
1.00067
1.00335
0.999302
0.99853
0.971218
0.993201
0.955894
0.991864
0.996604
0.914131
0.986784
0.973552
0.958896
0.996464
0.995283
0.999021
0.98785
0.91731
0.989263
0.956343
0.965477
0.956938
0.981016
0.980557
0.916498
1.01574
0.988238
0.990164
0.983411
0.992405
1.00207
1.00223
0.98404
0.962999
0.993446
0.994015
0.921086
0.9866
1.00151
0.978866
0.95468
0.984696
0.989986
0.984424
0.913181
0.99175
1.01911
0.98563
0.998281
0.998039
0.998098
0.998679
1.00096
0.992966
1.0007
1.03307
1.00061
1.00741
0.995003
1.00729
0.986996
0.993975
1.02788
0.999755
0.993867
1.00367
0.993174
0.982627
0.969248
0.965864
0.965866
0.984182
0.984119
0.988245
0.986976
1.02778
0.993929
0.99974
0.993196
0.993792
1.00362
1.02126
1.03566
1.03564
1.03301
1.02763
1.02905
1.02766
1.00249
1.01544
1.01341
1.01732
1.00982
1.01193
1.00993
0.996387
1.0124
1.01235
1.01322
1.00599
1.00925
1.00601
0.968407
0.989132
0.991644
0.954418
0.985738
0.912276
0.993975
0.9879
0.956358
0.966897
0.956468
0.981022
0.981022
0.915255
1.01359
0.98799
0.987988
0.984604
1.00137
0.989746
1.00147
25.3584
21.1695
8.05111
5.69718
52.3791
44.7136
88.8513
64.4248
6.04274
8.18546
8.64512
12.4858
13.0823
18.595
17.8152
6.78965
11.6695
9.7438
16.9979
14.5196
20.7365
24.6398
2.68058
15.0731
1.54976
10.04
3.93953
2.54664
0.792857
0.765897
0.761932
0.642752
0.624612
0.656883
0.662403
0.936144
0.900133
0.881973
0.619967
0.606782
0.786765
0.693358
1.0504
1.36426
2.74219
1.24145
1.1846
1.87662
3.8629
4.15917
1.72553
1.3858
0.829574
0.86868
1.53923
2.63933
2.91545
1.39386
3.17267
1.3996
1.77608
2.24081
5.87572
4.80167
2.91414
1.94957
1.33193
0.992313
1.88953
4.50324
3.50776
2.54613
3.20865
10.6364
5.10929
6.11483
5.51067
6.52143
2.9407
3.79388
7.93845
12.1833
9.06476
6.40662
7.45386
4.78664
12.7045
22.2145
13.3605
28.4546
43.4518
44.8709
27.3317
26.9062
45.5171
27.8574
37.2228
53.4567
54.2407
36.1804
15.1164
31.5696
18.3716
31.867
58.0035
49.5461
38.386
34.6581
48.0224
30.3736
40.4192
62.8978
57.2928
46.0696
5.95558
4.23078
3.83815
30.3266
3.08714
33.9614
44.8001
38.3468
2.95368
2.72134
2.81902
6.11894
6.35874
6.97858
6.66751
3.40453
3.35348
3.02557
7.68623
6.84021
7.57638
8.59786
4.48654
3.58337
3.39843
8.05834
9.41957
9.8983
7.67353
5.02355
4.62369
3.95731
8.82687
12.6977
10.9381
10.1358
14.3736
30.9922
14.8762
16.0068
31.3518
15.3581
32.2352
17.4351
31.9976
15.7829
17.206
36.1691
33.7373
19.2328
18.1567
20.9832
33.9895
39.2007
21.8264
17.4082
34.9032
19.6775
26.986
39.6045
41.3168
23.7606
36.7347
22.1932
0.745328
1.84637
0.747669
2.71298
0.878484
0.798981
1.47469
1.69011
0.893359
0.80565
0.795821
0.779557
0.862066
0.847927
0.785186
0.827815
0.855193
0.771368
0.77701
0.783155
0.773421
0.826168
0.749033
0.758702
0.739545
0.765175
0.824672
0.810393
0.769428
1.43933
1.38459
1.40882
0.942211
0.941927
0.946774
0.942207
0.759455
0.633473
0.702625
0.748353
0.754868
0.761726
0.786512
1.56458
1.54617
1.46197
0.98686
0.965817
0.946994
0.958678
1.95102
1.60858
1.5545
1.02314
1.00315
0.964889
0.955995
2.19905
2.00605
1.72942
1.0795
1.22378
1.0381
0.987129
36.1405
33.1024
45.8358
3.28507
4.65447
4.21186
29.7606
2.91949
38.2321
3.02807
2.74993
2.68302
6.0087
6.16626
6.82451
6.57972
8.38278
22.4048
5.68522
34.0952
44.6513
92.1017
64.3841
3.77726
3.28616
2.93413
7.41377
6.61065
7.41667
8.45675
4.47314
3.37104
3.54231
7.94379
9.36198
9.83398
7.60276
6.10404
5.06808
3.93624
8.758
13.0016
10.999
10.1722
29.917
14.0418
14.2752
15.566
31.0128
15.1258
31.5056
16.7771
30.9589
15.1434
16.7854
35.8865
33.1172
18.9103
6.06244
8.17687
8.71058
12.4376
13.0883
18.7007
17.7735
17.8442
38.965
20.8509
33.7894
21.645
17.2346
34.4432
6.92103
12.3619
10.031
17.759
14.792
21.3669
26.2151
19.486
39.937
27.6501
41.5209
23.8659
36.5187
22.2833
1.04669
5.66697
5.82907
5.72341
1.04188
5.71756
0.968766
5.5986
1.057
1.01046
5.66889
0.965917
5.68136
5.71533
1.05666
1.02695
1.03523
0.97742
0.97201
1.03569
0.963583
0.971977
1.03514
1.03842
0.967685
1.05203
0.96814
1.04768
1.04387
0.969463
1.91253
5.66985
1.89267
1.85957
5.61756
1.86347
5.68676
1.04266
0.994472
0.986551
1.03984
0.974273
1.04213
0.9747
1.03807
0.961701
1.04648
0.967046
1.03539
1.04349
0.97127
1.90295
5.59869
1.91271
1.85827
5.60619
1.86285
5.65744
1.05967
0.995752
0.994108
1.04989
0.971714
1.04698
0.979431
1.04902
1.05897
0.969929
0.98834
0.991561
1.04271
0.98032
0.986357
1.05556
0.990771
1.056
1.00938
0.993372
0.988503
1.01043
0.982349
0.994111
0.981566
0.985076
0.994502
0.989875
0.982576
0.990266
0.987828
0.960926
0.926831
0.980615
0.996005
0.992389
0.962503
0.962778
0.952498
0.932517
0.97753
0.977944
0.991869
1.06585
0.992786
1.05867
0.995339
1.0167
0.994245
0.991627
1.00358
0.994335
0.967835
0.937857
0.983769
1.00612
1.013
0.982508
0.996622
0.979903
0.985002
0.994944
0.993053
0.994955
0.960622
0.963097
0.953094
0.977508
0.934826
0.978389
1.04378
0.967842
0.96943
1.0373
0.963112
0.965217
1.04483
1.86872
5.75232
1.86139
1.86136
5.79407
1.86896
5.74797
1.02205
0.94273
0.952567
1.0211
0.949243
1.02681
0.963697
1.85415
5.77254
1.86975
5.74749
1.88124
1.85644
5.70432
5.767
1.87168
1.87518
1.8615
5.66295
1.86111
5.71962
5.68253
1.85406
1.86305
1.84746
5.63961
1.85508
5.65453
5.6664
1.85436
1.85125
5.6606
1.84526
1.84457
5.66407
5.91167
1.88537
1.90242
1.86819
5.83732
1.88189
5.77865
1.33512
1.72865
2.34551
3.32998
1.0257
5.81385
0.628516
0.855265
4.11143
1.46635
5.98736
8.47246
5.81291
1.04764
7.67066
0.952393
0.943848
5.74214
1.02064
3.57098
1.2074
2.78201
0.949294
1.20389
0.912555
0.97259
0.93166
0.883504
0.875698
0.935432
0.913611
0.866032
0.630922
1.10169
0.880339
1.65379
0.996364
1.04058
0.971609
0.969117
0.975266
0.933978
0.986263
0.917492
1.03953
0.954633
0.965911
0.949956
0.926105
0.976584
0.89664
0.924878
0.90765
0.899205
0.827689
0.883129
0.865113
0.847428
0.928374
0.888793
0.904421
0.812448
0.876732
0.847139
0.841779
0.983197
0.960937
0.933908
0.957112
0.813174
0.87234
0.957688
0.993928
0.900887
0.935371
0.91456
0.768933
0.919483
0.839267
0.880768
0.883562
0.849403
0.788648
0.765843
0.822664
0.737177
0.892021
0.83005
0.866314
0.731368
0.710897
0.765826
0.795145
1.38184
10.0271
2.54304
16.1539
1.99331
0.909523
0.766199
5.87986
1.89881
1.90828
2.02034
6.09299
1.98931
6.2084
5.76402
1.87753
1.88633
1.97406
6.02491
1.97228
6.01399
0.872439
0.78978
0.810366
0.767844
0.655466
0.791961
0.634032
0.881649
0.808327
0.783966
0.755026
0.652871
0.786969
0.629128
2.50064
1.21526
1.59195
16.8952
23.1272
8.98005
13.6712
0.901453
0.882704
0.90857
0.770791
0.794206
0.792877
0.770758
9.12285
10.1948
2.68969
33.9872
18.8934
23.5343
10.1821
1.40206
5.50242
4.10336
28.8065
16.7193
23.1299
10.0286
1.95357
2.08558
1.28307
15.3329
8.89086
22.3629
13.7382
1.23264
1.29918
0.986727
1.0119
0.839078
0.996794
0.839902
0.939434
1.24647
1.21381
0.979549
0.828501
0.985117
0.810801
0.868122
0.879146
0.871789
0.752966
0.785297
0.768798
0.76383
5.75594
1.90573
1.88204
6.22366
2.07419
1.9968
6.06718
0.850774
0.794219
0.737472
0.723794
0.645583
0.612923
0.682204
6.16783
1.92946
1.97309
2.07583
6.72127
2.18939
6.39926
0.784949
0.839519
0.732111
0.666394
0.633268
0.709851
0.610383
1.88852
1.30675
1.07489
1.05329
0.917446
0.859871
1.17757
2.75269
7.96966
2.90107
2.293
6.67748
2.22622
6.87205
1.01095
1.76313
1.38078
1.10862
0.856886
1.00305
0.813677
7.5936
7.54247
2.71203
2.21921
6.58425
2.20015
6.60061
1.16051
1.17974
0.975273
0.785698
0.848366
0.805634
0.834173
0.997215
0.870714
0.900402
0.736276
0.69381
0.735455
0.702098
0.934924
1.06982
0.924794
0.796154
0.793292
0.759984
0.769974
0.936428
0.890865
0.867459
0.727707
0.693794
0.731904
0.701266
0.760301
0.626388
0.643641
0.655553
0.66269
0.939909
0.898952
3.2201
9.21582
3.87039
2.42583
7.7407
2.70044
7.19695
3.02123
8.21832
7.79856
7.03435
2.52
2.30034
6.72276
1.73971
0.995116
1.29322
0.749652
0.898939
0.748276
0.821113
1.17965
1.2219
0.971802
0.791343
0.866895
0.736863
0.739777
0.799093
0.630362
0.607602
0.812311
0.698913
1.074
1.44583
1.31465
1.184
1.27992
2.55468
2.13084
2.42484
2.26152
1.31578
2.07539
1.91793
2.48632
4.06433
3.72347
2.77118
1.20494
1.23412
1.1677
2.10034
2.24413
2.50001
2.33816
1.95226
2.17608
1.46361
2.5263
2.89814
4.2386
3.78009
1.55042
0.827703
0.869938
1.54801
2.64268
2.93169
1.39192
2.75636
1.24419
1.18148
1.89275
3.86559
4.19718
1.72487
1.95182
1.31392
1.44606
2.98169
3.58416
3.97792
2.65786
1.67752
3.42427
2.52443
4.8577
4.60901
6.23003
3.42427
2.15189
2.24594
1.53417
3.20365
4.25282
3.07278
4.37375
9.0174
8.95501
3.92564
6.54715
11.2727
6.25678
11.3747
1.73296
1.43507
1.31146
3.58769
2.65449
2.96062
3.9731
1.51838
1.96922
1.43801
3.06957
3.92352
2.89552
4.09791
3.99119
9.51428
4.29709
6.87047
11.4871
6.35631
12.0349
3.66385
2.54947
1.80063
5.02348
3.66487
5.17584
6.76309
3.24567
1.86917
1.43019
2.31169
6.17771
4.93911
3.07447
2.80265
1.4046
1.01027
1.94394
4.71489
3.59597
2.68546
2.45533
2.46826
1.76789
3.62185
6.14704
4.77139
4.78893
3.4678
1.81766
2.60183
3.71665
6.36168
4.86812
4.99619
4.58071
9.87195
9.28395
7.2946
12.884
8.66611
11.8341
0.803322
0.90433
2.02289
0.930989
0.969471
0.900489
0.942348
0.909961
0.998842
0.961745
0.941406
0.899804
0.802249
0.999586
0.937268
0.955395
0.907209
0.762944
0.764897
1.51622
0.742495
1.83765
0.880813
1.42528
0.952223
0.933082
0.954
0.932988
0.934641
0.952156
0.911569
0.929069
0.937031
0.923627
0.949548
0.91577
0.948058
0.940238
0.991566
0.98986
0.969339
0.952458
0.975307
0.964767
0.958513
0.95162
0.934837
0.945269
0.933744
0.925314
0.94285
0.9149
0.928773
0.931586
0.922416
0.949532
0.911129
0.947539
0.940114
0.999467
0.974872
0.989828
0.955468
0.974461
0.967623
0.959332
0.963495
0.97849
0.913035
0.941404
0.961888
0.936498
0.95665
0.962827
0.937333
0.945798
0.936077
0.925514
0.943353
0.916217
1.01928
0.998302
0.998084
0.985405
0.997937
0.998699
1.00112
0.989117
0.999131
1.00164
0.970005
0.99007
0.927194
1.00852
0.984061
0.994109
0.993441
0.963077
0.986683
0.921074
1.00159
0.978805
0.990036
0.984833
0.954825
0.913202
0.984513
0.991793
0.991707
0.966529
0.95253
0.952102
0.980474
0.921708
0.981908
1.02197
1.0006
0.998361
0.985143
0.999301
0.998572
1.00349
0.982128
0.990849
0.986918
0.955338
0.985261
0.915206
0.995571
0.992886
0.965164
0.954015
0.950957
0.981229
0.980938
0.922035
0.918371
0.882747
0.896035
0.917768
0.895568
0.910417
0.933957
0.92568
0.906557
0.899962
0.913171
0.929448
0.937302
0.904842
0.920033
0.938249
0.919652
0.92002
0.883863
0.900474
0.904602
0.927705
0.944446
0.885962
0.906259
0.923891
0.923089
0.902322
0.90242
0.867068
0.877475
0.914951
0.903146
0.923908
0.893645
0.909489
0.876851
0.864641
0.915119
0.903043
0.924051
0.893391
0.791308
0.89492
0.803225
0.773922
0.863561
0.850646
0.782245
0.892432
0.877197
0.84806
0.904121
0.864345
0.880412
0.895272
0.868351
0.886123
0.843577
0.891303
0.862283
0.902706
0.879213
0.828997
0.857747
0.775631
0.764885
0.799774
0.828915
0.75964
0.74673
0.741886
0.760175
0.759176
0.826128
0.81302
0.766236
1.45023
1.38133
1.36927
0.929812
0.935194
0.935322
0.935703
0.745867
0.626872
0.702271
0.754064
0.745048
0.788188
0.746693
1.66056
0.943862
1.51657
1.4255
0.930847
0.943943
0.96993
1.9455
1.54308
1.59093
1.01923
0.999492
0.955776
0.950642
2.80115
2.22398
1.71792
1.25339
1.08348
0.977951
1.03603
4.92765
11.2311
6.03891
7.90797
14.8179
9.63902
13.089
5.17801
11.3837
5.85473
7.88735
12.9945
14.3484
7.12852
4.36279
9.18364
4.60284
5.06481
9.70778
9.98201
4.82872
5.16095
4.41617
10.0277
9.21644
4.99078
10.1469
4.63
5.10028
7.53852
10.8548
12.7792
13.5894
7.01998
5.60415
3.24112
5.11297
6.11723
10.7283
5.55891
6.58702
2.94679
5.91015
6.93833
14.6592
10.5705
11.4597
7.51972
5.38213
8.75277
8.622
19.7925
12.9328
15.7329
10.8607
6.71739
10.6318
15.5612
23.5442
16.8484
17.4573
10.215
15.7733
6.05622
7.60443
11.7059
15.4608
11.9308
5.8452
7.76834
6.95696
10.5917
5.38061
5.87638
14.7506
11.4413
7.53081
6.29488
8.27443
16.5771
12.4687
6.18784
12.4148
8.27913
9.52856
14.0764
7.20988
9.43854
22.8577
17.3863
12.0869
11.1796
15.8509
25.0158
17.1072
18.4613
10.3715
16.7178
3.91558
9.62736
12.6024
8.3869
6.59272
7.6956
5.04837
7.10813
11.6498
18.2177
17.5066
13.7962
8.95649
9.22893
12.8594
21.5191
26.9948
28.2654
21.5082
15.6985
18.4818
11.7653
18.5221
23.1431
25.1967
19.3391
13.889
16.6229
6.96161
11.2622
17.4242
17.3957
13.5596
8.8439
8.86023
13.4848
21.128
12.6872
28.6857
43.3813
45.0921
27.2911
45.4867
26.8124
27.8366
37.3669
53.424
54.365
36.1247
54.2655
48.7004
30.9077
41.4594
65.5347
58.4009
48.5231
19.7205
26.3475
15.667
33.0406
61.1426
50.9687
41.1773
48.9237
62.5647
76.2861
49.9471
77.0477
63.4796
65.1965
48.8717
62.4834
76.234
50.1297
77.2041
63.5723
65.3599
53.6829
75.2168
75.523
81.0916
67.5652
68.7798
60.452
54.966
78.5929
78.2423
82.4128
68.8171
70.0724
63.3492
4.89815
10.9555
3.12273
8.87148
32.6591
20.2234
86.4572
72.1408
2.80923
4.85877
5.27917
5.37662
5.84475
8.79925
9.44363
3.79427
7.77096
6.20469
8.6539
6.87909
11.0343
13.9851
17.7575
9.47085
18.7802
33.7508
16.3804
17.446
35.5673
10.088
21.6059
10.8488
34.1828
16.9111
18.0769
36.1667
21.7479
13.7134
27.6114
20.4214
51.4105
26.2615
41.0589
16.363
25.4264
12.7691
21.2783
51.7272
41.8404
27.5226
57.1171
55.6336
32.4758
34.3871
73.075
57.2198
58.7424
40.0083
73.6057
71.6546
77.7031
62.6179
50.4963
64.3024
2.8087
9.50939
14.5391
3.86429
88.5486
33.8145
10.7879
72.0182
3.12758
4.8566
5.29933
5.36563
5.84262
9.42935
8.76747
5.08413
8.12124
6.33415
8.96462
6.97075
11.1985
14.629
18.8716
8.85122
17.7007
17.4335
33.6235
35.5876
16.3042
10.0399
21.4087
20.1035
17.964
33.9977
35.8774
16.8137
29.6525
11.2324
22.4586
20.8809
54.3453
42.0987
27.8792
16.9707
12.8712
25.5426
21.5338
53.4863
42.1535
28.8578
34.2397
56.931
72.766
55.4407
56.8459
58.4768
32.3141
40.6698
75.7439
73.4784
78.1268
62.9528
64.9197
52.8852
37.6787
68.6799
1.13528e-05
44.6738
101.267
87.9113
1.30557
30.675
99.1884
86.0016
121.849
0.512539
112.601
0.00436226
1.74032
0.440556
111.576
39.3745
61.1489
59.2148
62.2402
60.6265
75.6012
74.749
54.4412
75.0352
66.725
74.6717
65.7839
80.0456
88.593
57.6871
39.5468
104.444
0.956214
101.645
88.7564
21.6178
85.933
37.5852
61.0178
59.0512
60.4733
62.1967
75.4839
74.6319
46.0106
77.8613
77.1571
66.624
67.7697
80.906
91.3475
86.3413
86.9757
87.1683
102.244
101.783
100.78
115.212
98.4669
75.4275
86.9949
88.5932
76.2255
87.696
98.7092
96.44
73.7757
84.6531
85.3986
74.6766
86.7254
97.0289
98.968
87.8695
98.4557
75.3389
86.9347
76.2488
87.7519
96.4308
73.6464
84.5892
85.2569
74.4416
86.6695
97.1051
1.12434
136.484
0.107489
1.72958e-06
2.05407e-05
3.17497e-06
0.378893
88.7988
92.8904
80.5168
92.1374
109.737
100.949
102.518
87.9116
89.9801
79.2463
91.2436
109.879
101.46
100.342
93.0001
94.1614
103.318
91.8522
81.6419
93.2356
103.968
90.3146
90.6534
79.8601
92.12
112.158
102.073
103.045
104.735
133.417
133.797
118.462
118.07
129.847
94.7781
100.606
121.727
114.804
23.8376
112.853
124.973
2.37595
100.241
124.757
114.803
71.3121
112.637
125.407
7.89486
97.3346
2.34113
55.9433
97.7406
2.30362
40.7163
22.7634
30.785
97.3208
2.2403
2.28262
56.3637
97.9437
39.0263
148.173
145.193
144.827
6.14031
4.40981
3.20346
1.73589
101.868
3.00239
1.31496
4.96192
17.7475
110.452
10.0258
50.1377
8.07706
128.802
19.8375
0.48727
0.60336
0.49208
117.002
35.1182
129.479
32.7557
1.42747
1.45397
1.71988
1.96012
8.12072
0.963175
103.127
3.35425
14.7023
112.154
6.60523
110.25
106.482
42.5457
105.874
46.5678
16.6061
51.5152
47.1171
71.6285
3.83489
252.861
16.1905
105.217
130.818
28.958
9.19713
67.8564
104.788
10.4521
83.198
13.8936
2.99405
15.5003
5.14428
1.1404
21.8736
19.2537
11.35
151.003
73.1305
82.4585
43.9206
16.856
5.99493
12.3998
70.1891
84.0365
41.0052
51.9708
0.693845
0.92957
1.04259
1.8326
1.74114
2.05053
3.16406
61.5456
48.1004
47.8054
93.4098
86.1875
90.616
86.5146
48.7153
33.1597
6.94063
58.7514
52.6371
89.9831
84.8227
18.7678
108.271
26.6506
95.9865
102.014
44.9125
98.8445
30.4033
109.716
149.674
110.345
25.5717
5.05264
27.121
106.835
32.1866
14.8864
83.4992
58.9197
18.7024
100.164
2.07679
5.53675
3.25902
6.01948
3.61128
5.14559
8.48967
1.64268
4.81895
3.03552
4.83712
2.97649
4.78038
7.33447
2.51716
6.90536
3.68423
7.51349
4.00093
5.55994
10.1764
9.20008
6.99039
8.91636
13.4647
16.6327
20.8496
17.2922
7.75336
6.18165
7.88917
11.9555
12.1326
15.6618
15.5839
69.2933
104.013
95.74
1.64496
36.463
72.2511
56.7883
52.8865
81.9324
55.2838
50.2809
65.1669
61.6622
1.89809
13.4497
103.553
23.8528
3.13742
97.0245
63.1348
101.523
4.3269
2.82513
84.3809
64.0312
43.9169
67.9794
1.41685
16.3847
180.701
100.201
40.1394
35.5112
181.617
86.8719
95.4584
28.6355
41.1406
1.56817
109.664
84.2728
99.5755
7.14497
9.03246
11.6354
18.063
13.8909
17.7808
23.1338
14.6139
17.2912
12.4147
26.5988
20.6475
24.7102
30.4437
10.3808
9.41023
11.7218
15.2095
17.5834
19.3826
29.7766
20.2573
11.7608
6.30147
8.75194
30.21
15.002
16.6669
8.27048
7.81628
4.99076
7.56868
22.9177
13.2371
12.4844
8.12576
9.75999
5.37534
8.02677
25.5238
12.9657
15.2785
18.5788
15.0266
12.2625
28.3907
36.8585
42.4771
24.0986
10.8994
10.9404
16.731
22.0009
33.9935
33.8644
22.0253
7.70959
7.87215
8.44485
12.5996
13.5998
14.1005
23.3251
10.058
13.4714
21.0697
20.6165
28.2366
31.245
42.865
19.8995
28.1016
34.9895
34.4155
41.3447
53.329
61.1248
24.6579
22.8214
18.2845
32.0081
50.1349
45.2786
37.4937
26.6148
53.8752
31.9045
40.0867
51.1127
62.5913
33.7983
16.0401
24.372
18.7455
24.7942
48.0459
37.7097
32.2158
24.3369
41.2422
24.5789
31.3137
48.0868
48.2248
31.1717
17.1549
22.8086
26.7886
29.315
34.258
44.5751
54.5572
46.9985
46.9159
47.5979
61.0403
61.2059
61.2173
60.7486
47.799
47.0994
47.2463
62.1084
62.9906
62.0688
61.7476
45.1181
68.5644
37.4265
45.5937
96.9053
80.9218
53.0266
60.9956
46.5479
46.8066
47.387
46.7932
62.4739
61.5284
61.541
60.8117
46.8552
47.6483
46.7317
60.9223
61.2841
46.9776
47.5816
46.8528
61.0868
61.2482
61.0451
61.2371
19.1817
124.95
51.0004
0.742752
53.9866
7.85287
131.939
0.404045
0.113381
12.4085
123.954
56.5496
101.514
1.61033
35.2471
44.6492
27.7502
34.8648
59.3634
51.6042
43.1748
47.4309
50.5713
48.6573
61.8142
61.0899
61.865
63.4528
15.0079
45.9349
25.0554
53.6519
29.4342
50.8052
83.9408
13.6277
44.0475
22.4329
50.3782
25.7596
44.403
82.7884
13.6529
47.3673
22.986
51.5507
25.1797
45.0698
84.1776
24.1003
60.9264
34.8643
69.9859
48.9658
64.8833
85.3567
60.3152
0.327264
107.474
9.83593
0.0774239
0.411916
112.321
13.3409
49.9441
44.2383
46.8487
24.3664
22.7326
26.4066
38.2214
57.2574
28.5768
66.8927
36.918
56.3171
86.2885
22.8274
63.3564
35.1808
65.9553
38.9288
58.7169
82.7064
15.435
52.7373
25.9348
55.0044
27.2229
47.0626
85.6955
19.7797
53.7915
31.6826
62.4209
41.2008
61.8279
84.2389
25.684
63.2469
45.3862
66.5063
51.4492
72.2382
86.8333
31.1656
55.6975
62.2001
58.5
68.085
100.064
80.5901
28.3405
51.5743
51.2155
54.2535
54.02
75.5566
75.7062
53.6122
60.365
87.4922
60.778
73.3233
73.8625
44.9635
41.7454
56.4951
70.6919
57.7206
56.4339
57.9626
41.7244
48.8559
53.3093
49.5824
62.6537
65.655
66.2198
62.0811
50.7884
63.9397
50.1677
54.598
63.4077
67.8772
68.5407
50.0345
54.7328
54.4716
63.2903
63.2436
67.6982
67.799
36.6218
61.2657
41.1537
65.6669
46.8996
68.7567
85.2699
36.72
61.6492
60.1332
73.5285
70.1366
114.357
118.281
31.5818
68.8688
56.0578
70.0452
58.6509
79.8532
90.0185
53.9572
56.3301
59.5263
64.3368
66.7966
69.3462
72.7745
43.2406
76.5744
53.7474
81.077
65.9834
74.6781
89.4395
116.753
14.6718
1.75175
0.000796775
2.58206
1.40832
0.0053748
60.3719
93.8421
122.319
119.909
85.6185
99.5608
67.6458
45.6374
69.8576
74.9069
70.2541
60.4682
61.7571
54.8819
53.7194
55.2917
51.1291
64.0372
71.9216
68.2241
66.5938
41.1816
68.9527
51.3544
71.2928
54.5938
66.8989
83.3491
7.20283
13.6994
7.40868
4.08293
37.3068
84.2133
49.9394
59.8408
5.25741
4.69596
9.09582
6.13409
10.2959
11.4773
13.126
5.75616
9.67671
7.51899
15.4897
12.2725
15.7581
20.178
10.5447
12.4564
8.42714
22.5751
15.5215
17.9025
26.3936
20.2398
39.9207
22.5202
42.4225
24.8488
27.825
45.6158
10.3891
21.3066
15.6455
21.8363
44.1906
28.7357
32.8563
32.0036
43.9037
26.1507
32.4957
57.7616
39.827
50.3894
43.1129
49.8199
32.2371
36.1982
64.9644
48.3298
53.8436
42.3264
67.8875
69.4462
72.7281
51.9585
56.2762
59.9362
48.7104
77.5589
58.0669
83.4433
70.121
77.8616
91.4411
62.9722
71.7815
77.9811
84.4281
70.8683
77.891
91.464
47.9731
71.1219
56.6412
76.4301
63.9966
72.4817
84.9328
82.9536
88.0003
87.4958
108.508
110.763
108.956
124.189
86.5107
86.6779
50.0264
83.8825
122.96
109.151
108.743
84.9518
82.4336
48.2414
84.4147
121.825
107.439
105.004
86.0949
83.4562
58.3965
84.1701
117.2
100.436
104.752
88.7258
88.4312
51.6814
83.9009
124.892
111.137
109.597
81.2174
82.8456
43.3554
81.7275
126.304
111.937
110.626
85.3624
84.7026
55.2953
84.3212
120.467
103.102
104.107
57.8851
72.5023
64.5212
77.7747
70.9226
78.2617
86.8145
78.6162
95.7229
78.1693
92.5963
105.883
107.014
92.1099
85.0379
85.1294
86.5338
107.379
104.391
103.977
120.991
86.4114
87.9335
85.7276
106.481
102.676
104.038
119.102
62.1891
70.9032
61.4713
75.2009
85.4645
84.8204
75.9078
86.3186
84.2797
65.9771
84.9198
113.4
99.3893
101.497
65.8959
82.6589
99.1944
83.0864
115.327
98.8411
101.211
89.515
88.0517
71.4641
89.1317
116.981
103.338
103.045
85.4691
87.4795
100.332
88.2774
114.954
102
102.066
71.1301
70.809
61.37
75.0275
84.7533
75.1664
84.6497
88.8882
87.3117
69.0096
87.0332
115.616
101.768
101.451
83.7635
82.594
68.5456
84.5655
110.97
99.2282
96.9016
167.023
104.542
105.485
163.473
231.71
190.902
186.101
127.331
84.4693
102.713
119.742
108.776
132.666
96.1685
136.809
146.037
121.784
155.374
210.051
169.512
187.45
76.287
102.719
93.9264
110.911
100.707
117.656
91.3848
72.4468
85.1905
72.677
88.7773
98.7263
100.066
88.0583
86.3132
85.7242
70.3566
84.2748
113.935
100.657
99.2816
63.7404
73.7351
79.0747
87.2125
77.2282
81.6866
92.4905
100.19
92.9826
82.586
97.2486
121.582
112.069
106.978
86.7709
90.0009
77.063
93.5886
114.605
105.229
103.384
77.6897
94.4716
78.7316
77.4721
91.9987
76.9707
92.8203
75.8292
75.0854
88.753
87.0919
75.5787
75.3366
89.3635
92.0203
76.8541
76.0001
93.6752
78.1045
76.8376
92.0185
87.9097
75.4275
75.2591
75.6235
86.8367
75.3837
89.078
76.008
89.4691
75.8635
75.2321
87.3839
75.0016
87.6231
2.16337
1.34614
8.66485
0.809971
2.98399
1.226
6.72046
4.97597
0.787698
0.807969
0.779873
0.948297
0.95808
1.12111
1.09159
0.763154
0.80564
0.890763
0.753861
0.995191
1.24554
1.70487
1.29868
0.922525
0.933417
1.61489
2.56164
2.6484
1.54941
4.01773
3.13761
4.17182
1.48161
1.55154
2.12057
2.0187
1.55778
0.98559
1.27494
1.90353
4.03104
3.08406
2.62798
2.55371
3.72063
4.87833
6.34718
1.81169
2.52013
3.43704
5.75627
5.86506
8.68393
3.15994
4.76553
4.8454
3.04557
8.53755
12.4134
9.77208
3.69996
6.97292
5.53236
4.83834
7.58278
0.739645
6.65602
0.934186
1.14177
6.51577
1.04687
5.85046
6.45381
1.05817
1.00034
1.00828
0.816554
0.928641
0.966596
0.874251
0.929841
0.783035
1.11632
1.0481
1.13978
1.02081
1.10696
1.02472
1.15412
0.992782
1.08064
0.998937
0.986623
1.05544
1.07807
1.00113
0.967343
1.00016
0.978876
0.991198
0.98823
0.976105
0.969317
0.943856
0.952371
0.974706
0.954119
0.970914
0.932477
0.962714
2.04149
6.56506
2.05931
1.99226
6.2079
1.97419
6.30059
1.88465
1.93062
5.96301
5.88248
1.89187
1.91681
6.04793
0.903087
0.94985
0.958194
0.95122
0.931502
0.957852
0.910325
0.905949
0.938461
0.921876
0.881162
0.920256
0.946224
0.900491
7.02835
1.01755
1.083
12.8104
3.02329
11.8111
2.92651
0.792332
0.749396
0.839819
2.53118
4.24296
2.42525
4.1648
1.05352
1.0363
0.988031
0.986868
1.04922
1.10938
1.02906
0.961339