/*--------------------------------*- C++ -*----------------------------------*\
  =========                 |
  \\      /  F ield         | OpenFOAM: The Open Source CFD Toolbox
   \\    /   O peration     | Website:  https://openfoam.org
    \\  /    A nd           | Version:  9
     \\/     M anipulation  |
\*---------------------------------------------------------------------------*/
FoamFile
{
    format      ascii;
    class       volScalarField;
    location    "0.0019";
    object      impulseMax;
}
// * * * * * * * * * * * * * * * * * * * * * * * * * * * * * * * * * * * * * //

dimensions      [1 -1 -1 0 0 0 0];

internalField   nonuniform List<scalar> 
16061
(
0
0
1.1399e-14
8.18303e-13
2.50394e-11
6.90617e-10
1.74024e-08
0
0
0
2.71636e-14
1.23097e-12
3.41291e-11
8.37913e-10
0
0
0
0
3.63798e-14
1.34144e-12
3.27886e-11
0
0
0
0
0
3.16504e-14
1.08145e-12
0
0
0
0
0
0
1.6856e-14
1.82273e-08
6.8942e-10
2.27864e-11
6.37131e-13
4.15128e-07
0.00182058
3.5562e-07
1.21076e-08
3.90366e-10
1.09667e-11
2.5406
2.95873e-06
1.49361e-07
4.96922e-09
1.4074e-10
1.53836e-08
8.16217e-07
0.0191942
5.50551
3.04292e-09
9.3973e-08
2.99722e-06
0.292738
83.6408
6.42535e-10
2.15347e-08
1.16605e-06
9.06881e-05
1.20086
0
0
0
0
0
0
0
0
3.18929e-14
6.65508e-13
0
0
0
0
0
0
0
6.45135e-14
1.71361e-12
2.86872e-11
0
0
0
0
0
0
1.01621e-13
2.95792e-12
6.50606e-11
1.10561e-09
0
0
0
0
0
1.02106e-13
3.69582e-12
9.95241e-11
2.22159e-09
3.74139e-08
0
0
0
0
8.62201e-14
3.38211e-12
1.07018e-10
2.92626e-09
6.70694e-08
6.31557e-07
0
0
0
4.48684e-14
2.28101e-12
8.11501e-11
2.56833e-09
7.37954e-08
5.12931e-07
0.000130434
0
0
1.3218e-14
1.08036e-12
4.24567e-11
1.49588e-09
4.67678e-08
4.21995e-07
12.5426
13.1676
0
7.27596e-16
3.38089e-13
1.44802e-11
5.62782e-10
1.93578e-08
6.18989e-06
2.10903
161.746
0
0
0
0
0
0
0
0
3.51671e-15
1.48187e-13
0
0
0
0
0
0
0
1.26117e-14
4.07211e-13
6.6478e-12
0
0
0
0
0
0
1.87962e-14
7.04919e-13
1.52818e-11
2.50389e-10
0
0
0
0
0
1.72198e-14
8.8318e-13
2.36573e-11
5.35935e-10
9.13416e-09
0
0
0
0
1.54008e-14
8.15756e-13
2.57227e-11
7.28215e-10
1.73662e-08
2.26412e-07
0
0
0
7.88229e-15
5.51518e-13
1.97776e-11
6.51789e-10
1.91467e-08
2.40293e-07
3.94338e-05
0
0
3.63798e-16
2.61328e-13
1.04308e-11
3.80176e-10
1.27721e-08
1.93395e-07
0.546672
4.67004
0
0
8.11269e-14
3.60233e-12
1.40153e-10
5.30796e-09
5.43776e-07
0.0622685
71.7676
266.056
0
0
0
0
0
0
0
0
0
1.16415e-14
0
0
0
0
0
0
0
0
3.9654e-14
8.29823e-13
0
0
0
0
0
0
0
6.92429e-14
1.80565e-12
2.9859e-11
0
0
0
0
0
0
9.54363e-14
2.70217e-12
5.93929e-11
1.01175e-09
0
0
0
0
0
8.14907e-14
2.91899e-12
7.90157e-11
1.84981e-09
3.1848e-08
0
0
0
0
5.84502e-14
2.30175e-12
7.24958e-11
2.10541e-09
5.1568e-08
1.17572e-06
0
0
0
2.42532e-14
1.28506e-12
4.53758e-11
1.51605e-09
4.63188e-08
4.84024e-07
0.000818851
0
0
4.72937e-15
4.8567e-13
1.85625e-11
6.66068e-10
2.31102e-08
3.63576e-07
0.000378285
1.08223
0
0
0
0
0
0
0
0
0
0
0
0
0
0
0
0
0
0
1.21266e-16
9.58001e-14
0
0
0
0
0
0
0
2.54659e-15
2.01787e-13
3.76349e-12
0
0
0
0
0
0
4.72937e-15
3.14321e-13
6.92683e-12
1.20447e-10
0
0
0
0
0
3.51671e-15
3.43668e-13
8.91123e-12
1.98944e-10
3.66273e-09
0
0
0
0
1.69772e-15
2.68604e-13
8.20182e-12
2.18702e-10
5.19716e-09
1.0048e-07
0
0
0
0
1.57767e-13
5.37257e-12
1.62486e-10
4.57634e-09
1.11197e-07
3.42671e-06
0
0
0
5.84502e-14
2.43247e-12
7.91437e-11
2.44459e-09
6.93026e-08
2.07494e-06
0.0019906
0
0
0
0
0
0
0
0
0
0
0
0
0
0
0
0
0
0
0
2.54659e-15
0
0
0
0
0
0
0
0
8.24609e-15
3.52035e-13
0
0
0
0
0
0
0
1.85537e-14
6.18093e-13
1.14675e-11
0
0
0
0
0
0
2.01301e-14
7.90897e-13
1.79497e-11
3.42743e-10
0
0
0
0
0
1.44306e-14
7.24079e-13
1.95427e-11
4.62969e-10
9.44353e-09
0
0
0
0
6.0633e-15
5.02769e-13
1.49646e-11
4.12091e-10
1.03078e-08
2.21978e-07
0
0
0
1.21266e-16
2.28101e-13
7.89296e-12
2.38168e-10
6.65937e-09
1.62035e-07
0.000129147
0
0
0
0
0
0
0
0
0
0
0
0
0
0
0
0
0
0
0
0
0
0
0
0
0
0
0
0
0
1.15203e-14
0
0
0
0
0
0
0
0
2.67998e-14
6.70116e-13
0
0
0
0
0
0
0
3.54097e-14
1.0253e-12
1.90278e-11
0
0
0
0
0
0
2.84975e-14
1.10207e-12
2.53658e-11
4.93771e-10
0
0
0
0
0
1.60071e-14
8.68386e-13
2.30176e-11
5.45975e-10
1.12591e-08
0
0
0
0
6.0633e-15
4.61902e-13
1.40681e-11
3.78826e-10
9.25449e-09
1.93753e-07
0
0
0
0
0
0
0
0
0
0
0
0
0
0
0
0
0
0
0
0
0
0
0
0
0
0
0
0
0
0
0
0
0
0
0
0
0
0
0
1.60071e-14
0
0
0
0
0
0
0
0
3.34694e-14
8.03508e-13
0
0
0
0
0
0
0
3.39545e-14
1.06229e-12
1.97759e-11
0
0
0
0
0
0
2.8255e-14
9.82376e-13
2.19577e-11
4.1814e-10
0
0
0
0
0
1.15203e-14
5.95658e-13
1.57722e-11
3.57872e-10
6.94624e-09
0
0
0
0
0
0
0
0
0
0
0
0
0
0
0
0
0
0
0
0
0
0
0
0
0
0
0
0
0
0
0
0
0
0
0
0
0
0
0
0
0
0
0
0
0
0
0
0
0
1.85537e-14
0
0
0
0
0
0
0
0
2.37681e-14
6.72298e-13
0
0
0
0
0
0
0
2.40107e-14
7.59246e-13
1.35882e-11
0
0
0
0
0
0
1.18841e-14
5.59521e-13
1.19308e-11
2.13936e-10
0
0
0
0
0
0
0
0
0
0
0
0
0
0
0
0
0
0
0
0
0
0
0
0
0
0
0
0
0
0
0
0
0
0
0
0
0
0
0
0
0
0
0
0
0
0
0
0
0
0
0
0
0
0
0
0
0
0
0
8.24609e-15
0
0
0
0
0
0
0
0
1.04289e-14
3.86596e-13
0
0
0
0
0
0
0
7.63976e-15
3.37968e-13
6.07761e-12
0
0
0
0
0
0
0
0
0
0
0
0
0
0
0
0
0
0
0
0
0
0
0
0
0
0
0
0
0
0
0
0
0
0
0
0
0
0
0
0
0
0
0
0
0
0
0
0
0
0
0
0
0
0
0
0
0
0
0
0
0
0
0
0
0
0
0
0
0
1.21266e-15
0
0
0
0
0
0
0
0
1.69772e-15
1.3982e-13
3.78579e-10
9.5763e-11
2.00791e-11
3.96528e-12
1.33878e-10
4.26101e-09
1.21144e-07
4.55902e-06
0.000103404
0
6.57262e-14
3.29225e-12
1.35551e-10
5.74664e-09
2.25543e-07
9.6827e-05
11.6659
196.102
3.51671e-15
5.18048e-13
2.2936e-11
9.06178e-10
3.10712e-08
4.94456e-07
3.92719e-05
196.327
4.24431e-14
2.31181e-12
8.92517e-11
3.25361e-09
1.20954e-07
2.65747e-06
0.00231829
216.079
1.27814e-13
5.69513e-12
2.12618e-10
8.39432e-09
3.5685e-07
0.00194585
61.84
2.24948e-13
9.92659e-12
0
1.15203e-14
8.45951e-13
3.41915e-11
1.23829e-09
4.04896e-08
7.41083e-06
0.534142
139.286
0
1.11928e-13
5.20558e-12
2.14689e-10
8.80377e-09
2.05434e-07
1.06082e-05
135.371
6.0633e-15
6.13242e-13
2.41716e-11
8.42598e-10
2.56456e-08
4.71192e-07
9.23323e-05
156.722
3.16504e-14
1.70912e-12
5.98808e-11
1.92593e-09
5.96028e-08
9.43968e-06
0.339877
126.845
5.66312e-14
2.82489e-12
0
0
1.14233e-13
4.98355e-12
1.7627e-10
6.28014e-09
2.02424e-07
2.86369e-05
3.79532e-05
0
1.15203e-14
8.84878e-13
3.31464e-11
1.13118e-09
3.47485e-08
5.11814e-07
0.00107652
0
9.99232e-14
4.33671e-12
1.46239e-10
4.55146e-09
1.37044e-07
2.74646e-06
10.023
1.21266e-16
3.37968e-13
1.21552e-11
3.89071e-10
1.26934e-08
4.05636e-07
6.03461e-05
23.8078
3.39545e-15
5.80621e-13
0
0
9.33748e-15
7.38267e-13
2.527e-11
8.18355e-10
2.7682e-08
2.1686e-06
1.71326e-05
0
0
1.42366e-13
5.65524e-12
1.89549e-10
5.82229e-09
1.60984e-07
0.000160462
0.0470798
0
7.88229e-15
7.17288e-13
2.44803e-11
8.08292e-10
2.83422e-08
7.20747e-07
0.00219058
0
4.88702e-14
2.32018e-12
7.8993e-11
2.53373e-09
7.32605e-08
8.67037e-06
0.563066
0
9.34961e-14
0
0
0
6.71813e-14
2.76001e-12
8.83811e-11
2.6483e-09
7.26613e-08
2.37929e-06
0
0
7.88229e-15
6.495e-13
2.22118e-11
6.98677e-10
2.11706e-08
5.78588e-07
9.66671e-06
0
0
7.6155e-14
3.27285e-12
1.11903e-10
3.63146e-09
1.0531e-07
1.7147e-06
0
1.21266e-16
2.79397e-13
1.01548e-11
3.28805e-10
9.7324e-09
2.59699e-07
1.40958e-05
0
2.54659e-15
4.50624e-13
1.56723e-11
4.81751e-10
1.35583e-08
3.59332e-07
1.50971e-05
0
0
0
0
1.6092e-13
5.61182e-12
1.63979e-10
4.4592e-09
1.08705e-07
3.46095e-06
0
0
0
3.20142e-14
1.45616e-12
4.54741e-11
1.29953e-09
3.61517e-08
8.48516e-07
9.6646e-06
0
0
0
2.11609e-13
7.69663e-12
2.40124e-10
6.7779e-09
1.63399e-07
0
0
9.33748e-15
7.20805e-13
2.36784e-11
6.97617e-10
1.8581e-08
4.71397e-07
0
0
1.95238e-14
1.16294e-12
3.72904e-11
1.07682e-09
2.87069e-08
7.48875e-07
0
0
0
0
9.70128e-16
2.45321e-13
7.21387e-12
1.81853e-10
4.11813e-09
7.7236e-08
0
0
0
0
5.84502e-14
2.09899e-12
5.69677e-11
1.38789e-09
3.13935e-08
4.92695e-07
0
0
0
2.54659e-15
3.61373e-13
1.11048e-11
3.00822e-10
7.08849e-09
0
0
0
2.36469e-14
1.17119e-12
3.38207e-11
8.62716e-10
1.91418e-08
0
0
0
4.26856e-14
1.87611e-12
5.39808e-11
1.36809e-09
3.07911e-08
0
0
0
0
0
1.69772e-15
2.56841e-13
6.32887e-12
1.32259e-10
2.27644e-09
0
0
0
0
0
6.12393e-14
2.09184e-12
4.81738e-11
9.44012e-10
1.44683e-08
0
0
0
0
4.72937e-15
4.10849e-13
1.09028e-11
2.4745e-10
0
0
0
0
3.24993e-14
1.31646e-12
3.28767e-11
7.01314e-10
0
0
0
0
5.83289e-14
2.13646e-12
5.3037e-11
1.12759e-09
0
0
0
0
0
0
9.70128e-16
1.81778e-13
3.91907e-12
6.26042e-11
0
0
0
0
0
0
5.16593e-14
1.51352e-12
2.81154e-11
3.99262e-10
0
0
0
0
0
4.72937e-15
3.32269e-13
7.61975e-12
0
0
0
0
0
3.16504e-14
1.06253e-12
2.26775e-11
0
0
0
0
0
5.78439e-14
1.74186e-12
3.66706e-11
0
0
0
0
0
0
0
0
8.77966e-14
1.61102e-12
0
0
0
0
0
0
0
2.77699e-14
7.39965e-13
1.05889e-11
0
0
0
0
0
0
9.70128e-16
1.88447e-13
0
0
0
0
0
0
1.6856e-14
6.2452e-13
0
0
0
0
0
0
3.12866e-14
1.00032e-12
0.765438
7.08161
0.000114748
0.00011684
0.388938
1.29266e-05
0.112394
0.000321235
0.529549
0.00232738
3.12524
1.31935e-07
5.87962e-06
3.55575e-07
5.39972e-05
6.06375e-07
0.000324594
4.56283e-09
5.90683e-08
1.19963e-08
1.39498e-07
1.95072e-08
2.14959e-07
1.36815e-10
1.78866e-09
3.82825e-10
4.64844e-09
6.15384e-10
7.17037e-09
3.63325e-12
4.7282e-11
1.06246e-11
1.31789e-10
1.7101e-11
2.05897e-10
41.3465
180.133
263.474
225.939
53.6044
103.507
24.9065
66.0762
95.2168
1.2618
8.73491
8.55793
121.548
0.0836322
40.9223
117.27
0.0122743
1.77391
0.0642934
37.4338
91.8861
19.0995
27.1713
218.26
141.432
138.55
7.13119
83.8144
216.158
162.189
46.6522
20.4751
145.045
280.973
107.304
247.618
5.92467
79.6357
206.604
189.263
153.158
55.0015
1.62143
159.797
2.46172
120.449
36.2237
0.315469
82.6284
13.2929
33.3519
0.000256544
0.0365574
0.00534711
0.33335
79.3166
6.32192
177.374
47.964
140.061
11.4087
43.9185
0.0450727
0.792732
183.812
144.279
200.638
150.844
48.0814
32.0715
0.298668
257.273
249.592
243.587
214.817
209.013
194.643
200.406
92.3765
16.3436
0.0152576
89.6153
17.0617
0.000921548
0.761753
8.73559
38.1205
0.0271939
82.5384
228.096
34.7885
131.079
85.1701
13.7075
0.00072008
0.598456
0.611505
0.140508
0.000228747
275.574
254.853
249.631
239.564
234.305
207.297
212.614
1.1204
89.1595
71.3702
71.6556
0.0537538
0.402616
89.5877
244.101
212.914
230.816
177.87
196.366
182.017
163.284
122.257
79.0475
124.134
97.1396
80.899
54.8965
53.2036
123.882
94.6397
96.926
78.4481
80.676
54.7234
52.7514
242.511
216.032
240.375
194.823
197.058
169.334
166.971
240.708
218.28
242.642
195.106
197.19
169.362
167.034
210.427
233.793
227.989
177.949
164.685
158.778
183.768
0.0430002
0.326759
85.5007
0.0811254
60.6518
0.010224
44.9814
110.918
90.3504
83.9845
74.1596
67.7715
48.9542
43.3627
263.802
222.201
238.209
206.582
222.847
195.87
179.182
231.691
212.296
237.08
191.131
185.134
162.712
156.194
31.8837
124.046
111.516
0.0775412
87.7726
0.00840501
70.3318
234.906
212.511
244.364
231.636
209.063
198.971
174.771
17.7162
0.0750116
33.93
4.74641
0.000221198
1.96005
0.0136117
198.089
197.725
215.53
165.22
126.394
145.867
146.107
102.457
65.3957
75.6115
49.4345
59.431
36.2542
28.0475
198.956
224.454
215.31
166.619
177.003
147.425
136.315
104.01
19.8605
5.05053
0.0397624
41.5397
0.00440527
28.2574
190.722
226.714
221.504
177.364
149.047
143.215
182.889
2.22455
0.00177157
0.000222575
0.489087
90.1567
0.0609261
72.5835
190.678
173.992
168.22
143.076
137.125
113.063
118.982
14.3867
0.0398854
49.2668
0.000301033
3.04297
0.00492209
34.9299
161.392
97.7273
155.458
139.886
88.0874
82.4974
145.845
195.183
139.167
189.759
160.201
112.749
106.948
165.927
204.194
190.921
163.034
153.855
138.61
122.877
107.155
0.0864481
9.18095e-05
0.0232256
0.00949299
1.12671
0.00125034
7.31374e-05
0.000225681
17.8465
0.0205069
0.000142649
0.0115012
4.14392
0.0355823
2.40205
0.00108734
0.0566676
0.0042721
0.0218337
7.49711e-05
8.68511e-05
0.107131
0.000131312
0.0294243
3.38442
0.103902
0.0321633
0.000127366
204.925
202.301
185.95
177.705
159.553
157.126
128.197
172.593
133.795
179.042
79.4974
124.115
117.282
73.2147
0.0139217
1.99949
0.118242
0.00379385
0.0677526
5.59962e-05
0.000129151
1.79399
0.000110309
0.040497
0.0018277
0.0741033
4.3606e-05
0.00174377
8.11071e-05
0.00166539
0.00878627
2.91211
0.592568
0.00457948
0.0239985
68.1622
42.9218
69.9917
31.8206
12.1692
30.4265
13.0462
122.619
84.929
142.351
126.756
52.4788
70.255
106.934
42.7468
67.6669
69.798
31.6777
11.9419
30.0744
12.9466
185.964
139.116
183.617
131.325
84.3194
128.986
86.3292
183.406
141.188
185.846
131.21
83.8005
86.1117
128.713
179.246
194.063
210.25
165.514
111.921
130.735
147.694
126.478
160.428
177.992
147.897
75.8351
94.4497
129.283
178.229
136.501
155.502
104.359
124.038
100.096
80.7566
64.9003
53.6374
38.2534
40.7888
26.6704
19.3895
11.3502
33.5223
0.00878248
0.189155
0.430452
35.0227
9.81788e-05
0.013539
141.612
85.707
143.921
112.579
55.1311
110.306
56.905
175.201
126.299
146.02
100.811
120.868
89.4359
70.3305
26.2484
7.2629e-05
0.0107744
0.00250149
15.0782
4.56435e-05
0.0789027
122.034
107.977
71.2233
48.8537
102.126
65.9766
127.989
63.5944
32.3844
57.5991
10.063
27.003
22.6152
7.58419
141.856
85.8278
144.061
112.621
55.1141
56.9345
110.337
137.486
73.2678
130.77
51.3969
105.878
99.1262
45.8548
45.4574
2.40004
56.7579
0.083103
1.86096
0.0219387
3.87378e-05
0.00220301
0.739512
0.00296593
0.809111
0.000227252
0.00546054
6.07252e-05
37.1408
9.42453
38.6384
19.7724
2.44438
18.6543
2.70497
9.34799
36.719
38.4758
19.664
2.38712
2.6783
18.3917
106.807
117.799
163.995
108.282
55.641
97.2415
65.1695
148.684
114.559
142.776
87.1739
65.9591
60.876
92.8443
217.314
144.171
182.138
139.582
179.965
142.143
99.2887
0.0112877
23.2486
72.8989
0.00194471
7.57394
4.20341e-05
0.0201144
1.34404
14.2402
0.00311482
0.00104504
6.48342
4.27854e-05
0.0166066
0.000178669
0.000807727
0.117871
0.00417676
4.62329e-05
9.85924e-05
2.44787e-05
33.2953
5.1852
28.343
1.87056
15.9652
12.6203
1.27346
108.959
70.3453
38.7708
38.4455
89.3262
54.6103
89.2956
64.9359
110.387
121.726
90.1628
30.6914
79.2169
38.8097
176.59
134.551
162.097
118.946
162.113
134.566
89.4024
193.88
122.095
169.161
110.915
158.406
130.414
81.4012
129.956
170.222
175.825
133.73
127.783
80.4078
85.9689
156.026
122.387
116.533
111.008
105.239
66.5713
71.7836
173.163
109.685
146.038
87.4969
123.765
93.6613
59.1311
0.00312101
0.944016
0.00217717
0.756539
18.5967
0.0031586
0.145675
26.1062
40.7594
49.8814
17.314
2.74117
11.7226
4.9734
126.731
96.3188
42.2244
78.9416
90.7118
73.626
132.615
49.2392
15.46
27.6272
7.32697
15.808
5.20461
1.78188
94.0332
79.6976
124.689
44.9922
84.3548
69.903
33.6786
83.6465
91.1361
85.6092
34.9614
37.5422
39.0169
33.5455
84.0265
91.4033
85.8526
35.0943
37.7834
33.7473
39.1732
0.116094
0.00070735
6.44267
2.09229e-05
0.0139694
0.000105228
0.962154
7.28605e-05
0.00128554
1.83377e-05
0.0143859
15.5211
6.19288e-05
0.383623
104.163
111.26
79.1402
80.3938
57.0677
50.8207
32.2255
0.753822
0.00119225
9.56755
1.57907e-05
0.00205763
2.8128e-05
0.0379113
0.0982016
5.97497e-05
0.000521613
1.05616e-05
0.000851844
0.00858166
3.72949e-05
3.28691
15.6681
22.2505
8.84874
0.392556
0.754949
5.30944
86.2835
32.197
80.7034
58.7622
20.5949
17.5883
63.8261
110.444
101.754
129.872
74.8812
34.5676
49.9835
56.9268
96.8863
32.3024
81.5061
22.1603
66.6097
52.8189
14.0274
90.3778
46.9616
48.5106
42.8363
44.3581
13.9698
13.1541
92.0462
46.2141
48.168
42.2631
44.1149
13.7983
12.7737
136.853
54.2501
106.5
53.0845
104.586
74.7533
29.3103
174.118
100.029
144.033
80.0128
123.474
91.4957
51.9664
79.9937
79.1496
73.7524
34.7669
30.8743
26.5746
30.2152
158.44
140.722
92.8257
96.6287
115.276
68.6281
51.6597
8.36264e-07
5.99532e-06
1.55658e-06
8.28064e-07
1.28323e-06
1.63362e-05
6.31545e-06
3.45349e-06
3.99853e-05
6.47376
0.00229104
0.00012651
0.00361103
5.25918e-05
4.17018e-06
6.03827e-05
0.00512319
0.00468081
0.0428029
0.000160764
0.00262753
1.26479e-05
6.67529e-11
1.98169e-07
5.21066e-08
6.12854e-10
1.6549e-10
6.31125e-11
2.0638e-10
1.10824e-09
6.46848e-10
1.77477e-09
7.16801e-09
8.56217e-09
1.49266e-08
6.28513e-09
7.10115e-07
2.52399e-08
2.15495e-07
3.29795e-07
6.49791e-08
7.86905e-08
1.83875e-08
1.40117e-08
2.04217e-10
6.26045e-10
1.76182e-10
5.62117e-10
2.79034e-09
1.2407e-09
9.60694e-11
2.8586e-11
7.46031e-11
2.22522e-11
8.35342e-11
4.47793e-11
1.46016e-12
2.77699e-14
4.96184e-12
1.45762e-13
0
8.15481e-08
1.48979e-06
6.41806e-07
1.32398e-07
6.9809e-08
1.56129e-07
6.75334e-08
7.02814e-07
8.34786e-06
1.08816e-06
2.46375e-06
2.14495e-09
4.62163e-08
2.16087e-08
3.23867e-07
4.70742e-09
1.7465e-09
4.26756e-09
1.02126e-07
4.49276e-08
9.71822e-08
8.79162e-09
5.07889e-08
2.47505e-09
4.37655e-08
1.1731e-10
2.85624e-06
0.0421075
1.46849e-07
1.97137e-06
7.49317e-10
1.09345e-08
5.64436e-09
1.13658e-07
1.68056e-09
1.32077e-09
4.66708e-10
1.2696e-08
5.61197e-09
1.45928e-08
5.3944e-09
3.58703e-08
4.92582e-08
7.79671e-09
6.56086e-08
6.38107e-07
9.2546e-08
2.73628e-07
8.17682e-08
6.65558e-08
5.30759e-08
6.45153e-09
1.3764e-08
3.2692e-09
3.95108e-09
2.24217e-07
1.87989e-07
3.68579e-06
2.5902e-08
2.04005e-07
1.8588e-05
1.49522e-06
2.33324e-09
1.05737e-10
7.3036e-10
5.59555e-09
3.74419e-10
3.6218e-10
1.10369e-09
3.27486e-11
1.46775e-10
3.50417e-10
5.72904e-11
1.14943e-09
6.44619e-10
2.49474e-10
5.71951e-10
3.03541e-10
4.12949e-09
1.11309e-08
4.01577e-09
1.18374e-08
2.77464e-08
5.35665e-09
5.06164e-09
2.26533e-09
1.28196e-10
4.08826e-10
1.28366e-10
4.21612e-10
1.22698e-09
3.13839e-08
9.45998e-10
2.8793e-11
7.84955e-13
1.13337e-06
1.55737e-08
9.17598e-11
1.52635e-09
4.42592e-10
2.99903e-12
4.78716e-11
1.19656e-11
6.82727e-14
1.33465e-12
3.74932e-05
1.08482e-05
0.000591744
0.000461645
0.000152188
0.00321525
2.62841e-05
2.75252e-06
1.92399e-07
2.40072e-06
8.65987e-08
2.70557e-07
1.01058e-05
2.53447e-06
8.24609e-14
3.51259e-12
0
2.54659e-15
9.70128e-16
1.08897e-13
4.69663e-13
7.32446e-14
3.90961e-13
1.14687e-10
3.60963e-09
4.58155e-12
1.83012e-11
3.22458e-12
1.47485e-11
1.81628e-10
1.12344e-10
8.01215e-10
5.27022e-10
8.87162e-09
4.09525e-09
0
0
0
0
0
0
0
0
0
0
0
4.85064e-16
0
0
0
0
0
0
0
0
0
0
0
0
0
0
0
0
0
0
0
0
0
0
0
0
0
1.51582e-14
3.24993e-14
1.21266e-16
0
0
0
0
0
0
0
4.24431e-15
0
1.21266e-15
0
0
0
0
0
0
0
0
0
0
0
0
0
0
0
0
0
0
0
0
0
0
0
0
0
0
0
0
0
0
0
0
0
0
0
0
0
0
0
0
0
0
0
0
0
0
0
0
0
0
0
0
0
2.7189e-12
3.37726e-13
3.85541e-12
1.21217e-12
1.66583e-12
2.49674e-12
1.76146e-11
6.77392e-13
1.75714e-13
5.15987e-13
4.77788e-14
2.2604e-13
8.48146e-12
6.14818e-14
2.55871e-14
2.17066e-14
3.0171e-13
1.11395e-12
0
0
0
0
0
0
0
1.26227e-10
1.15016e-11
1.31757e-10
9.61472e-11
8.33079e-11
9.18639e-11
6.00478e-10
2.50857e-11
6.58074e-12
2.06661e-11
2.9894e-10
4.15532e-11
1.48308e-13
9.84754e-10
4.23259e-10
4.10524e-09
2.00907e-09
2.25332e-09
1.27259e-09
2.02825e-10
7.06657e-10
3.77906e-10
4.05313e-11
1.28914e-10
4.64416e-10
9.00908e-10
1.1539e-10
4.53749e-10
4.28856e-11
2.52193e-11
6.10317e-10
5.05997e-11
2.39536e-10
8.07675e-11
2.63401e-10
2.02486e-11
5.80512e-12
2.55301e-11
8.38403e-11
1.21381e-10
8.10687e-12
1.42119e-11
7.12861e-11
1.68107e-10
3.14553e-09
2.94015e-11
8.34467e-10
1.20672e-12
8.04442e-11
3.46821e-14
4.87368e-12
0
1.8772e-12
1.04701e-12
1.99114e-11
1.12186e-11
6.70237e-12
1.66739e-11
3.9181e-12
1.54025e-11
2.63401e-10
9.49298e-11
2.33966e-10
3.62464e-13
7.87016e-14
3.6843e-12
7.89441e-13
2.29025e-11
1.18428e-12
3.71704e-12
3.15291e-13
2.97841e-12
6.14803e-11
7.08909e-12
1.44511e-10
4.87462e-11
1.45716e-10
1.27329e-14
3.63798e-16
1.49885e-13
6.93605e-12
2.95889e-14
4.51109e-14
3.29358e-13
1.45519e-14
2.38409e-13
2.48439e-11
5.46061e-12
2.07325e-11
3.01588e-13
4.07223e-12
7.70075e-12
0
0
1.33393e-15
0
0
1.00651e-14
0
6.18456e-15
2.88856e-13
8.50074e-13
3.88051e-15
1.90266e-13
3.20506e-13
1.04701e-12
6.45632e-12
9.74978e-14
0
3.86353e-13
1.18841e-14
0
1.64315e-13
5.43272e-14
2.11973e-13
7.86046e-13
1.83148e-12
2.03242e-13
7.77072e-13
6.13606e-14
3.04378e-14
1.14305e-12
1.11443e-13
4.62751e-13
1.25995e-13
4.86155e-13
2.874e-14
5.52136e-12
1.7797e-12
4.81541e-11
1.9722e-11
1.70306e-12
4.7488e-11
5.80185e-12
3.44541e-12
1.17701e-11
9.3205e-13
2.63616e-11
1.07126e-12
2.76004e-11
2.88856e-12
3.88051e-15
3.79562e-14
1.44185e-13
2.92251e-13
8.24609e-15
2.48595e-14
1.26602e-13
1.21266e-16
8.06419e-14
3.15291e-15
3.32269e-14
4.12304e-15
3.51671e-14
0
8.01689e-13
3.43304e-13
8.9949e-12
3.30717e-12
1.12838e-12
2.54295e-13
7.8065e-12
2.36711e-13
9.27806e-13
4.59598e-14
1.08751e-12
7.45786e-14
2.12931e-12
8.9373e-14
1.65067e-12
4.33642e-11
2.28999e-12
5.97756e-12
5.22111e-12
1.82442e-11
5.23263e-13
0
0
3.51671e-15
3.03165e-15
0
0
1.69772e-15
0
1.21266e-16
0
0
0
0
0
1.04289e-14
7.03343e-15
2.80488e-13
5.27507e-14
2.32831e-14
9.70128e-16
1.80686e-13
8.5735e-14
7.46028e-13
2.65075e-12
3.65471e-12
2.02635e-13
3.34452e-13
1.1952e-12
1.69772e-15
1.61284e-14
0
3.52884e-14
0
5.54185e-14
1.21266e-16
0
0
0
0
0
0
0
0
0
0
0
0
0
0
0
0
3.03165e-15
0
0
0
1.69772e-15
0
0
0
0
0
0
0
3.3701e-12
9.06851e-12
3.20991e-13
1.69105e-12
2.64893e-12
1.01251e-11
8.66203e-13
3.0559e-14
2.51021e-14
4.9719e-15
1.93298e-13
1.21266e-16
9.58001e-14
4.68087e-14
0
0
4.48684e-15
1.66134e-14
1.01863e-14
8.36735e-15
0
0
0
0
0
3.63798e-16
0
4.53535e-14
1.21266e-16
0
7.27596e-16
5.3357e-15
1.77048e-14
1.21266e-14
4.4638e-13
8.47248e-11
8.31884e-14
1.97708e-11
1.21266e-15
1.84615e-12
0
9.13133e-14
2.06152e-15
5.42059e-14
4.15942e-14
2.37681e-14
5.38954e-12
3.28024e-13
5.29775e-12
0
0
4.72937e-15
1.21266e-15
7.27596e-16
4.85064e-16
1.17895e-12
3.84413e-14
1.08169e-12
0
0
0
0
0
0
1.09261e-13
0
8.36735e-14
0
0
0
1.69772e-15
0
9.70128e-16
0
1.21266e-16
0
0
0
3.03165e-15
4.85064e-16
9.93168e-14
4.64449e-14
4.85064e-16
9.90743e-14
4.72937e-15
9.70128e-16
2.11003e-14
0
6.4271e-14
0
5.17806e-14
1.69772e-15
0
0
0
0
0
0
0
0
0
0
0
0
0
0
0
0
1.61284e-14
4.85064e-16
0
0
9.45874e-15
0
1.69772e-15
0
3.51671e-15
0
9.70128e-16
0
0
0
0
0
0
0
0
0
0
0
0
0
0
0
0
0
0
0
0
0
0
0
0
0
0
0
0
0
0
0
0
0
0
0
0
0
0
0
0
0
0
0
0
0
0
0
6.80302e-14
2.57302e-12
6.26987e-11
0
0
0
0
0
7.567e-14
2.2205e-12
0
0
0
0
0
0
5.78439e-14
0
0
0
0
0
0
0
0
0
0
0
0
1.21266e-16
1.95117e-13
0
0
0
0
0
0
2.54659e-15
0
0
0
0
0
0
1.21266e-16
0
0
0
0
0
0
0
0
0
0
0
0
0
0
0
0
0
0
0
0
0
0
0
0
2.31618e-14
1.04069e-08
4.72014e-10
1.73882e-11
5.2496e-13
6.18456e-15
2.62533e-09
1.15614e-10
4.08836e-12
1.07078e-13
0
2.59791e-10
9.36428e-12
2.8643e-13
2.54659e-15
0
1.53936e-11
4.9622e-13
8.24609e-15
0
0
4.70391e-13
1.04289e-14
0
0
0
1.62496e-14
0
0
0
0
9.54363e-14
0
0
0
0
0
1.90145e-13
4.85064e-16
0
0
0
0
0
4.85064e-16
0
0
0
0
0
0
0
0
0
0
0
0
0
0
0
0
0
0
0
1.21266e-16
2.19613e-13
8.46643e-12
3.09764e-10
0
0
0
0
0
2.78912e-15
4.20308e-13
1.53907e-11
0
0
0
0
0
0
9.45874e-15
5.81106e-13
0
0
0
0
0
0
0
1.00651e-14
0
0
0
0
0
0
0
0
0
0
0
0
0
0
0
4.47471e-14
2.09232e-12
8.00143e-11
0
0
0
0
0
0
9.36173e-14
3.75512e-12
0
0
0
0
0
0
0
1.2927e-13
0
0
0
0
0
0
0
0
0
0
0
0
0
0
0
0
0
0
0
0
0
0
0
0
0
0
0
0
0
1.61284e-13
6.88148e-12
0
0
0
0
0
0
1.21266e-15
2.70544e-13
0
0
0
0
0
0
0
3.51671e-15
0
0
0
0
0
0
0
0
0
0
0
0
0
0
0
0
0
0
0
0
0
0
0
0
0
0
0
0
0
0
0
0
0
2.18279e-15
3.61494e-13
0
0
0
0
0
0
0
8.24609e-15
0
0
0
0
0
0
0
0
0
0
0
0
0
0
0
0
0
0
0
0
0
0
0
0
0
0
0
0
0
0
0
0
0
0
0
0
0
0
0
0
0
0
0
0
0
0
0
0
6.30583e-15
0
0
0
0
0
0
0
0
0
0
0
0
0
0
0
0
0
0
0
0
0
0
0
0
0
0
0
0
0
0
0
0
0
0
0
0
0
0
0
0
0
0
0
0
0
0
3.63798e-16
0
0
0
0
0
0
0
0
0
0
0
0
0
0
0
0
0
0
0
0
0
0
0
0
0
0
0
0
0
0
0
0
0
0
0
0
0
0
0
0
0
0
0
0
0
0
0
0
0
0
0
0
1.45762e-13
0
0
0
0
0
0
1.6856e-13
0
0
0
0
0
0
0
0
0
0
0
0
0
0
0
0
0
0
0
0
0
0
0
0
0
0
0
0
0
0
0
0
0
0
0
0
0
0
0
0
0
0
0
0
0
0
0
0
0
0
0
0
0
0
0
0
0
0
0
0
0
0
1.69772e-15
0
0
0
0
0
0
0
0
0
0
0
0
0
0
0
0
0
0
0
0
0
0
0
0
0
0
0
0
0
0
0
0
0
0
0
0
0
0
0
0
0
0
0
0
0
0
0
0
0
0
0
0
0
0
0
0
0
0
0
0
0
0
0
0
0
0
0
0
0
0
0
0
0
0
0
0
0
0
0
0
0
0
0
0
0
0
0
0
0
0
0
0
0
0
0
0
0
0
0
0
0
0
0
0
0
0
0
0
0
0
0
0
0
0
0
0
0
0
0
0
0
0
0
0
0
0
0
0
0
0
0
0
0
0
0
0
0
0
0
0
0
0
0
0
0
0
0
0
0
0
0
0
0
0
0
0
0
0
0
0
0
0
0
0
0
0
0
0
0
0
0
0
0
0
0
0
0
0
0
0
0
0
0
0
0
0
0
0
0
0
0
0
0
0
0
0
0
0
0
0
0
0
0
0
0
0
0
0
0
0
0
0
0
0
0
0
0
0
0
0
0
0
0
0
0
0
0
0
0
0
0
0
0
0
0
0
0
0
0
0
0
0
0
0
0
0
0
0
0
0
0
0
0
0
0
0
0
0
0
0
0
0
0
0
0
0
0
0
0
0
0
0
0
0
0
0
0
0
0
0
0
0
0
0
0
0
0
0
0
0
0
0
0
0
0
0
0
0
0
0
0
0
0
0
0
0
0
0
0
0
0
0
0
0
0
0
0
0
0
0
0
0
0
0
0
0
0
0
0
0
0
0
0
0
0
0
0
0
0
0
0
0
0
0
0
0
0
0
0
0
0
0
0
0
0
0
0
0
0
0
0
0
0
0
0
0
0
0
0
0
0
0
0
0
0
0
0
0
0
0
0
0
0
0
0
0
0
0
0
0
0
0
0
0
0
0
0
0
0
0
0
0
0
0
0
0
0
0
0
0
0
0
0
0
0
0
0
0
0
0
0
0
0
0
0
0
0
0
0
0
0
0
0
0
0
0
0
0
0
0
0
0
0
0
0
0
0
0
0
0
0
0
0
0
0
0
0
0
0
0
0
0
0
0
0
0
0
0
0
0
0
0
0
0
0
0
0
0
0
0
0
0
0
0
0
0
0
0
0
0
0
0
0
0
0
0
0
0
0
0
0
0
0
0
0
0
0
0
0
0
0
0
0
0
0
0
0
0
0
0
0
0
0
0
0
0
0
0
0
0
0
0
0
0
0
0
0
0
0
0
0
0
0
0
0
0
0
0
0
0
0
0
0
0
0
0
0
0
0
0
0
0
2.78912e-14
1.95359e-12
0
0
0
0
2.54659e-15
4.31949e-13
0
0
0
0
3.18929e-14
0
0
0
3.39545e-15
0
0
2.06892e-12
0
9.85892e-14
0
0
0
0
0
0
0
0
0
0
0
1.21266e-15
0
0
0
0
0
0
0
0
0
0
0
0
1.21266e-16
0
0
0
0
1.85537e-14
9.01006e-14
3.20142e-13
0
7.0213e-14
3.10805e-13
0
0
0
0
0
0
0
0
0
0
0
0
0
0
0
0
0
0
0
0
0
0
0
0
0
0
1.72198e-14
5.8814e-14
0
3.51671e-15
5.26294e-14
0
0
0
0
0
0
0
0
0
0
0
0
0
0
0
0
0
0
0
1.69772e-15
0
0
1.21266e-16
0
0
0
0
0
0
0
0
0
0
0
0
0
0
0
0
0
4.85064e-16
0
6.75451e-14
0
0
3.34694e-14
5.86806e-13
1.70985e-14
1.79595e-13
0
0
0
0
2.54659e-15
0
0
0
6.09968e-14
0
4.30373e-13
1.46732e-13
2.36226e-13
2.8158e-13
0
0
0
0
0
0
0
0
0
0
0
3.75924e-15
8.60988e-15
0
9.94381e-15
0
2.4617e-14
0
0
0
0
0
0
0
0
0
0
0
0
0
0
0
0
0
0
0
0
0
0
0
0
0
0
0
0
0
0
0
0
0
0
0
0
0
0
0
0
0
0
0
0
0
0
0
0
0
0
0
0
0
0
0
0
0
0
0
0
0
0
0
0
0
0
0
0
0
0
0
0
0
0
0
0
0
0
0
0
0
1.69772e-15
0
0
0
0
0
0
0
0
0
0
0
0
0
0
0
0
0
0
0
0
0
0
0
0
0
0
0
0
0
0
0
0
0
0
0
0
0
0
0
0
0
0
0
0
0
0
0
0
0
0
0
0
0
0
0
0
0
0
0
0
0
0
0
0
0
0
0
0
0
0
0
0
0
0
0
0
0
0
0
0
0
0
0
0
0
0
0
0
0
0
0
0
0
0
0
0
0
0
0
0
0
0
0
0
0
0
0
0
0
0
0
0
0
0
0
0
0
0
0
0
0
0
0
0
0
0
0
0
0
0
0
0
0
0
0
0
0
0
0
0
0
0
0
0
0
0
0
0
0
0
0
0
0
0
0
0
0
0
0
0
0
0
0
0
0
0
0
0
0
0
0
0
0
0
0
0
0
0
0
0
0
0
0
0
0
0
1.21266e-16
0
0
0
1.69772e-15
0
3.38332e-14
6.4271e-15
0
0
1.72198e-14
1.60071e-14
4.85064e-16
1.42973e-13
4.00905e-13
3.51671e-15
4.62023e-14
9.59214e-14
4.22491e-13
1.07927e-14
0
0
0
1.21266e-16
0
0
0
2.80124e-14
5.50547e-14
1.33393e-14
7.7974e-14
0
0
0
0
0
0
0
1.29282e-12
2.91486e-11
0
0
0
0
0
1.12535e-13
0
0
0
0
0
0
0
0
0
0
0
0
0
0
0
5.57823e-15
0
7.27596e-16
0
0
0
0
0
0
0
0
0
0
0
0
0
0
0
0
0
0
0
0
0
0
0
0
0
0
0
0
0
0
0
0
0
0
0
0
0
0
0
0
0
0
0
0
0
0
0
0
0
0
0
0
0
0
0
0
0
0
0
0
0
0
0
0
0
2.30854e-12
6.50107e-13
7.00917e-13
2.71636e-14
2.71636e-14
1.60192e-13
1.45762e-13
0
0
0
2.54659e-15
0
2.54659e-15
0
0
9.98019e-14
3.39545e-15
0
0
0
0
0
0
0
0
0
0
0
0
0
0
0
0
0
0
0
0
0
0
0
0
0
0
0
0
0
0
0
0
0
0
0
1.13384e-13
1.21266e-16
0
5.40846e-14
2.14641e-14
0
0
0
0
0
0
0
0
0
0
0
0
0
0
0
0
0
0
0
0
0
0
0
0
0
0
0
0
0
0
0
0
0
0
0
0
0
0
0
0
0
0
0
0
0
0
0
0
0
0
0
7.52698e-13
3.51174e-12
7.39722e-15
4.80626e-12
1.41275e-13
1.71925e-10
3.19402e-12
1.07563e-13
2.1949e-11
1.32083e-12
1.57737e-11
1.17301e-11
1.21689e-11
1.35175e-11
1.71713e-12
1.21302e-12
1.55463e-13
1.54857e-13
1.43215e-12
1.33344e-12
2.97587e-13
1.41457e-12
3.3895e-12
9.21136e-13
3.79441e-12
8.65957e-10
0
0
1.70296e-10
2.70441e-11
2.7833e-11
1.79352e-12
1.26148e-11
1.83609e-12
1.2742e-11
8.15029e-13
3.7835e-14
8.21092e-13
4.38983e-14
1.57522e-11
6.87942e-12
2.55265e-13
4.38134e-12
9.9948e-08
2.12707e-11
2.34269e-10
4.33162e-13
9.09086e-09
3.34506e-09
5.58439e-08
2.09766e-12
2.56599e-13
1.60283e-11
1.75798e-10
3.10793e-12
4.39929e-12
3.94894e-11
1.22842e-13
5.58478e-12
1.89347e-11
3.50596e-10
3.73732e-09
9.68086e-10
2.71752e-08
7.91287e-09
8.50321e-10
2.4884e-08
4.19155e-09
2.60034e-09
6.11535e-09
3.5563e-10
1.19251e-08
6.2372e-10
1.68352e-08
1.61981e-09
2.41077e-13
1.52674e-13
5.60115e-12
1.79777e-12
5.69101e-13
1.09624e-13
2.86091e-12
6.36646e-14
3.19051e-13
2.67998e-14
3.68042e-13
2.34043e-14
6.8685e-13
6.48773e-14
9.84789e-12
3.91568e-13
2.93294e-12
1.51316e-12
1.81609e-11
3.90598e-13
2.42471e-12
6.38308e-12
4.5305e-13
2.55629e-13
1.42548e-12
1.22612e-12
3.10877e-12
2.03084e-12
4.79409e-11
2.74017e-11
1.69372e-12
3.41014e-11
6.51222e-12
1.1446e-10
1.07206e-11
3.44274e-13
7.19422e-12
6.61142e-13
4.65734e-12
1.74138e-13
1.916e-14
7.13529e-13
9.58001e-14
1.54008e-14
3.207e-12
1.38061e-12
4.79971e-13
7.97324e-13
2.95889e-14
7.67007e-13
9.33748e-14
1.6685e-12
1.62739e-13
3.15291e-14
1.21484e-12
5.09317e-14
1.58373e-13
1.18719e-13
4.81183e-13
8.36735e-15
0
9.82254e-15
6.57262e-14
1.60192e-13
1.69772e-15
8.97368e-15
2.54659e-14
0
2.15853e-14
1.94026e-15
7.27596e-16
4.85064e-16
4.72937e-15
0
9.70128e-15
8.27034e-14
1.94026e-14
2.80656e-11
3.87809e-13
1.74356e-12
7.35381e-12
2.77919e-11
5.11379e-13
1.88569e-12
2.10882e-13
1.07078e-13
1.69772e-15
2.12094e-13
2.92251e-14
5.53458e-13
4.76575e-14
2.24585e-13
9.70128e-16
0
8.96513e-11
7.4031e-11
4.7986e-10
1.09392e-09
3.52588e-10
6.9302e-09
1.72149e-10
1.15279e-10
3.90492e-11
5.55527e-11
4.59089e-12
1.265e-11
2.89889e-11
3.56625e-09
3.75184e-09
6.36337e-10
4.66016e-10
3.32018e-10
7.05256e-11
1.05031e-09
1.00774e-09
1.98768e-10
2.28881e-10
1.3143e-11
7.16667e-11
1.35098e-11
3.62732e-11
3.36986e-12
5.10273e-11
9.77125e-12
2.42339e-11
7.58748e-11
2.98554e-11
7.56991e-12
5.43259e-12
6.62407e-11
3.57058e-11
1.38572e-11
1.35284e-12
3.10562e-12
1.12098e-12
1.56765e-11
3.40879e-13
6.41291e-12
4.54978e-12
4.57258e-12
1.57161e-13
0
0.0154648
2.5329e-06
8.70475e-07
3.8935e-10
5.36546e-11
1.21145e-12
7.60934e-08
2.02999e-10
3.11352e-08
3.40096e-09
1.22466e-11
7.34907e-11
1.07468e-11
3.58341e-13
5.55129e-06
9.13851e-07
7.91372e-07
7.70367e-08
3.55917e-09
1.85619e-09
1.59478e-05
4.8407e-09
8.8217e-08
3.69103e-07
6.2079e-06
2.44078e-09
5.44673e-08
1.8848e-06
6.63679e-10
1.19764e-08
1.12762e-08
2.88162e-07
1.3495e-10
8.07503e-10
2.87719e-08
1.51207e-11
1.45269e-10
3.53441e-10
4.07817e-12
3.57987e-10
2.83924e-09
2.30552e-09
2.11995e-10
3.35847e-11
8.99786e-11
2.47152e-12
4.23837e-12
1.91455e-12
4.05998e-13
5.88236e-08
1.27579e-09
1.46514e-10
5.98044e-10
1.17057e-08
9.50647e-10
5.72569e-12
9.72941e-12
2.77556e-11
2.3652e-10
2.25198e-11
8.0084e-13
4.64327e-13
1.21557e-12
4.68852e-09
9.57158e-09
9.21994e-09
1.04458e-07
7.83383e-08
7.78945e-08
1.01609e-07
8.03695e-08
6.42227e-07
5.68842e-07
5.65745e-09
2.04365e-09
3.8518e-09
5.89096e-08
3.27572e-08
3.50706e-08
4.47704e-08
2.75183e-08
5.66013e-07
2.58e-07
1.5317e-09
4.79024e-10
8.79938e-10
1.04246e-08
8.51034e-09
1.50628e-08
7.43135e-09
5.73771e-09
7.12283e-08