/*--------------------------------*- C++ -*----------------------------------*\
  =========                 |
  \\      /  F ield         | OpenFOAM: The Open Source CFD Toolbox
   \\    /   O peration     | Website:  https://openfoam.org
    \\  /    A nd           | Version:  9
     \\/     M anipulation  |
\*---------------------------------------------------------------------------*/
FoamFile
{
    format      ascii;
    class       volScalarField;
    location    "0.0019";
    object      rhoE;
}
// * * * * * * * * * * * * * * * * * * * * * * * * * * * * * * * * * * * * * //

dimensions      [1 -1 -2 0 0 0 0];

internalField   nonuniform List<scalar> 
16061
(
253245
253245
253245
253245
253245
253245
253245
253245
253245
253245
253245
253245
253245
253245
253245
253245
253245
253245
253245
253245
253245
253245
253245
253245
253245
253245
253245
253245
253245
253245
253245
253245
253245
253245
253245
253245
253245
253245
253245
253245
253356
253245
253245
253245
253245
393565
253245
253245
253245
253245
253245
253245
254484
589437
253245
253245
253245
272847
2.12344e+06
253245
253245
253245
253249
341430
253245
253245
253245
253245
253245
253245
253245
253245
253245
253245
253245
253245
253245
253245
253245
253245
253245
253245
253245
253245
253245
253245
253245
253245
253245
253245
253245
253245
253245
253245
253245
253245
253245
253245
253245
253245
253245
253245
253245
253245
253245
253245
253245
253245
253245
253245
253245
253245
253245
253245
253245
253245
253245
253245
253245
253245
253245
253245
253245
253255
253245
253245
253245
253245
253245
253245
253245
253245
1.06586e+06
1.11402e+06
253245
253245
253245
253245
253245
253245
253245
417797
1.97763e+06
253245
253245
253245
253245
253245
253245
253245
253245
253245
253245
253245
253245
253245
253245
253245
253245
253245
253245
253245
253245
253245
253245
253245
253245
253245
253245
253245
253245
253245
253245
253245
253245
253245
253245
253245
253245
253245
253245
253245
253245
253245
253245
253245
253245
253245
253245
253245
253245
253245
253245
253245
253245
253245
253245
253245
253245
253245
253245
253245
253247
253245
253245
253245
253245
253245
253245
253245
253245
299161
628335
253245
253245
253245
253245
253245
253245
253245
258278
2.33447e+06
1.29468e+06
253245
253245
253245
253245
253245
253245
253245
253245
253245
253245
253245
253245
253245
253245
253245
253245
253245
253245
253245
253245
253245
253245
253245
253245
253245
253245
253245
253245
253245
253245
253245
253245
253245
253245
253245
253245
253245
253245
253245
253245
253245
253245
253245
253245
253245
253245
253245
253245
253245
253245
253245
253245
253245
253245
253245
253245
253245
253245
253245
253245
253245
253245
253245
253245
253245
253245
253245
253245
253245
253314
253245
253245
253245
253245
253245
253245
253245
253245
253276
342336
253245
253245
253245
253245
253245
253245
253245
253245
253245
253245
253245
253245
253245
253245
253245
253245
253245
253245
253245
253245
253245
253245
253245
253245
253245
253245
253245
253245
253245
253245
253245
253245
253245
253245
253245
253245
253245
253245
253245
253245
253245
253245
253245
253245
253245
253245
253245
253245
253245
253245
253245
253245
253245
253245
253245
253245
253245
253245
253245
253245
253245
253245
253245
253245
253245
253245
253245
253245
253245
253245
253245
253245
253245
253245
253245
253245
253245
253245
253245
253379
253245
253245
253245
253245
253245
253245
253245
253245
253245
253245
253245
253245
253245
253245
253245
253245
253245
253245
253245
253245
253245
253245
253245
253245
253245
253245
253245
253245
253245
253245
253245
253245
253245
253245
253245
253245
253245
253245
253245
253245
253245
253245
253245
253245
253245
253245
253245
253245
253245
253245
253245
253245
253245
253245
253245
253245
253245
253245
253245
253245
253245
253245
253245
253245
253245
253245
253245
253245
253245
253245
253245
253245
253245
253245
253245
253245
253245
253245
253245
253257
253245
253245
253245
253245
253245
253245
253245
253245
253245
253245
253245
253245
253245
253245
253245
253245
253245
253245
253245
253245
253245
253245
253245
253245
253245
253245
253245
253245
253245
253245
253245
253245
253245
253245
253245
253245
253245
253245
253245
253245
253245
253245
253245
253245
253245
253245
253245
253245
253245
253245
253245
253245
253245
253245
253245
253245
253245
253245
253245
253245
253245
253245
253245
253245
253245
253245
253245
253245
253245
253245
253245
253245
253245
253245
253245
253245
253245
253245
253245
253245
253245
253245
253245
253245
253245
253245
253245
253245
253245
253245
253245
253245
253245
253245
253245
253245
253245
253245
253245
253245
253245
253245
253245
253245
253245
253245
253245
253245
253245
253245
253245
253245
253245
253245
253245
253245
253245
253245
253245
253245
253245
253245
253245
253245
253245
253245
253245
253245
253245
253245
253245
253245
253245
253245
253245
253245
253245
253245
253245
253245
253245
253245
253245
253245
253245
253245
253245
253245
253245
253245
253245
253245
253245
253245
253245
253245
253245
253245
253245
253245
253245
253245
253245
253245
253245
253245
253245
253245
253245
253245
253245
253245
253245
253245
253245
253245
253245
253245
253245
253245
253245
253245
253245
253245
253245
253245
253245
253245
253245
253245
253245
253245
253245
253245
253245
253245
253245
253245
253245
253245
253245
253245
253245
253245
253245
253245
253245
253245
253245
253245
253245
253245
253245
253245
253245
253245
253245
253245
253245
253245
253245
253245
253245
253245
253245
253245
253245
253245
253245
253245
253245
253245
253245
253245
253245
253245
253245
253245
253245
253245
253245
253245
253245
253245
253245
253245
253245
253245
253245
253245
253245
253245
253245
253245
253245
253245
253245
253245
253245
253245
253245
253245
253245
253245
253245
253245
253245
253245
253245
253245
253245
253245
253245
253245
253245
253245
253245
253245
253245
253245
253245
253245
253245
253245
253245
253245
253245
253245
253245
253245
253245
253245
253245
253245
253245
253245
253245
253245
253245
253245
253245
253245
253245
253245
253245
253245
253245
253245
253245
253245
253245
253245
253245
253245
253245
253245
253245
253245
253245
253245
253245
253245
253245
253245
253245
253245
253245
253245
253245
253245
253245
253245
253245
253245
253245
253245
253245
253245
253245
253245
253245
253245
253245
253245
253245
253245
253245
253245
253245
253245
253245
253245
253245
253245
253245
253245
253245
253245
253245
253245
253245
253245
253245
253245
253245
253245
253245
253245
253245
253245
253245
253245
253245
253245
253245
253245
253245
253245
253245
253245
253245
253245
253245
253245
253245
253245
253245
253245
253245
253245
253245
253245
253245
253245
253245
253245
253245
253245
253245
253245
253245
253245
253245
253245
253245
253245
253245
253245
253251
253245
253245
253245
253245
253245
253245
253251
986882
1.67998e+06
253245
253245
253245
253245
253245
253245
253246
1.67804e+06
253245
253245
253245
253245
253245
253245
253403
1.55811e+06
253245
253245
253245
253245
253245
253378
1.9524e+06
253245
253245
253245
253245
253245
253245
253245
253245
253245
295912
2.18772e+06
253245
253245
253245
253245
253245
253245
253246
2.13915e+06
253245
253245
253245
253245
253245
253245
253250
1.97585e+06
253245
253245
253245
253245
253245
253245
277893
2.31833e+06
253245
253245
253245
253245
253245
253245
253245
253245
253245
253246
253246
253245
253245
253245
253245
253245
253245
253245
253320
253245
253245
253245
253245
253245
253245
253245
900223
253245
253245
253245
253245
253245
253245
253248
1.41645e+06
253245
253245
253245
253245
253245
253245
253245
253245
253245
253245
253246
253245
253245
253245
253245
253245
253245
253245
253254
256092
253245
253245
253245
253245
253245
253245
253245
253380
253245
253245
253245
253245
253245
253245
253245
283083
253245
253245
253245
253245
253245
253245
253245
253245
253245
253245
253245
253245
253245
253245
253245
253245
253245
253245
253245
253245
253245
253245
253245
253245
253245
253245
253245
253245
253245
253245
253245
253245
253245
253245
253245
253245
253245
253245
253245
253245
253245
253245
253245
253245
253245
253245
253245
253245
253245
253245
253245
253245
253245
253245
253245
253245
253245
253245
253245
253245
253245
253245
253245
253245
253245
253245
253245
253245
253245
253245
253245
253245
253245
253245
253245
253245
253245
253245
253245
253245
253245
253245
253245
253245
253245
253245
253245
253245
253245
253245
253245
253245
253245
253245
253245
253245
253245
253245
253245
253245
253245
253245
253245
253245
253245
253245
253245
253245
253245
253245
253245
253245
253245
253245
253245
253245
253245
253245
253245
253245
253245
253245
253245
253245
253245
253245
253245
253245
253245
253245
253245
253245
253245
253245
253245
253245
253245
253245
253245
253245
253245
253245
253245
253245
253245
253245
253245
253245
253245
253245
253245
253245
253245
253245
253245
253245
253245
253245
253245
253245
253245
253245
253245
253245
253245
253245
253245
253245
253245
253245
253245
253245
253245
253245
253245
253245
253245
253245
253245
253245
253245
253245
253245
253245
253245
253245
253245
253245
253245
253245
253245
253245
253245
253245
253245
253245
253245
253245
253245
253245
253245
253245
253245
253245
253245
253245
253245
253245
253245
253245
253245
253245
253245
253245
253245
253245
253245
253245
253245
253245
253245
253245
253245
253245
253245
253245
253245
253245
253245
253245
253245
253245
253245
253245
253245
253245
253245
253245
253245
253245
253245
253245
253245
253245
253245
253245
253245
253245
253245
253245
253245
253245
253245
253245
253245
253245
253245
253245
253245
253245
253245
253245
253245
253245
298411
591343
253250
253247
275037
253245
260024
253265
283287
253386
423297
253245
253245
253245
253248
253245
253264
253245
253245
253245
253245
253245
253245
253245
253245
253245
253245
253245
253245
253245
253245
253245
253245
253245
253245
1.22988e+06
1.75769e+06
1.3626e+06
1.44099e+06
1.89718e+06
2.10611e+06
1.42053e+06
2.02571e+06
1.36545e+06
321583
655048
647125
1.33197e+06
257778
1.22522e+06
1.35147e+06
253941
351215
256744
1.19515e+06
1.45695e+06
944675
1.50222e+06
1.50337e+06
2.28733e+06
2.29612e+06
733501
2.13102e+06
1.52202e+06
1.95131e+06
1.94466e+06
1.38925e+06
2.0766e+06
1.27407e+06
2.25736e+06
1.36331e+06
663894
2.11534e+06
1.59093e+06
1.73735e+06
2.178e+06
1.94548e+06
377873
1.93426e+06
432964
2.17323e+06
1.65615e+06
276416
2.21507e+06
1.02042e+06
1.28643e+06
253257
255436
253552
271981
1.48116e+06
573403
1.85041e+06
2.01743e+06
2.25391e+06
942842
1.81307e+06
256738
313806
1.88945e+06
2.30462e+06
1.6366e+06
2.08466e+06
2.16915e+06
1.80294e+06
279381
1.37677e+06
1.41092e+06
1.42842e+06
1.57287e+06
1.60567e+06
1.70041e+06
1.65766e+06
2.24678e+06
1.08067e+06
254157
2.23858e+06
1.10341e+06
253298
309721
870800
1.98678e+06
255546
2.27597e+06
1.4551e+06
1.87152e+06
2.44062e+06
2.22313e+06
983761
253286
297334
289986
263824
253254
1.29266e+06
1.37031e+06
1.3978e+06
1.43296e+06
1.46268e+06
1.61069e+06
1.56921e+06
328446
2.05846e+06
2.0082e+06
2.01768e+06
256833
278543
2.06752e+06
1.39625e+06
1.5141e+06
1.45417e+06
1.77004e+06
1.65996e+06
1.76876e+06
1.89107e+06
1.33504e+06
1.4762e+06
1.32295e+06
1.36033e+06
1.47444e+06
1.32812e+06
1.32215e+06
1.32178e+06
1.36184e+06
1.35895e+06
1.46952e+06
1.4718e+06
1.32612e+06
1.31666e+06
1.33191e+06
1.51625e+06
1.34247e+06
1.63171e+06
1.61715e+06
1.92865e+06
1.94144e+06
1.34705e+06
1.50555e+06
1.33378e+06
1.63651e+06
1.61915e+06
1.93121e+06
1.94845e+06
1.59173e+06
1.47386e+06
1.49681e+06
1.82328e+06
1.90883e+06
1.95974e+06
1.77197e+06
256123
273876
2.05616e+06
258559
1.92454e+06
253953
1.77487e+06
1.3818e+06
1.3672e+06
1.37471e+06
1.46376e+06
1.45364e+06
1.29522e+06
1.25749e+06
1.31688e+06
1.49046e+06
1.43024e+06
1.57398e+06
1.49987e+06
1.66889e+06
1.7855e+06
1.39278e+06
1.54886e+06
1.36553e+06
1.66473e+06
1.71139e+06
1.97912e+06
2.02725e+06
1.73215e+06
2.26123e+06
2.30304e+06
259475
2.30067e+06
253949
2.26117e+06
1.44165e+06
1.59397e+06
1.4071e+06
1.45629e+06
1.61627e+06
1.64721e+06
1.89281e+06
1.30327e+06
258921
1.77e+06
589396
253261
416268
254315
1.64531e+06
1.61624e+06
1.53373e+06
1.89744e+06
2.13136e+06
2.02703e+06
2.01711e+06
1.41944e+06
1.37101e+06
1.37949e+06
1.3833e+06
1.43116e+06
1.19592e+06
1.10085e+06
1.65203e+06
1.43116e+06
1.48529e+06
1.86989e+06
1.77947e+06
2.08838e+06
2.15768e+06
2.31122e+06
1.34304e+06
638375
256385
1.92689e+06
253608
1.65942e+06
1.73066e+06
1.49637e+06
1.53377e+06
1.83847e+06
2.08517e+06
2.13737e+06
1.78155e+06
431926
253379
253261
288291
2.20508e+06
257842
2.15859e+06
1.72583e+06
1.84579e+06
1.90235e+06
2.04369e+06
2.08699e+06
2.17528e+06
2.14683e+06
1.02605e+06
255878
1.81323e+06
253265
472294
253590
1.6075e+06
1.9179e+06
2.12111e+06
1.96246e+06
2.046e+06
2.09632e+06
2.09624e+06
2.00607e+06
1.6795e+06
2.12449e+06
1.72947e+06
1.98625e+06
2.22663e+06
2.24745e+06
1.92677e+06
1.56148e+06
1.66626e+06
1.98821e+06
1.97534e+06
2.08438e+06
2.21992e+06
2.2593e+06
257949
253247
254590
253804
317502
253315
253247
253256
915522
254414
253247
253892
473984
255295
386306
253306
256356
253497
254511
253247
253247
259052
253247
254940
436159
258880
255095
253247
1.63963e+06
1.61295e+06
1.73491e+06
1.87239e+06
2.05888e+06
2.01458e+06
2.3183e+06
2.02111e+06
2.30599e+06
1.96368e+06
2.21886e+06
2.27757e+06
2.2864e+06
2.18623e+06
254183
411624
260739
253542
258394
253246
253249
360312
253249
255776
253368
257828
253246
253355
253246
253339
253742
413455
287068
253515
254639
1.34683e+06
1.2413e+06
1.34896e+06
1.12525e+06
756436
1.10936e+06
781179
2.11365e+06
2.10489e+06
2.02231e+06
2.09559e+06
1.90911e+06
2.04366e+06
2.16081e+06
1.23957e+06
1.34339e+06
1.34765e+06
1.12315e+06
749290
1.10349e+06
778343
1.89921e+06
2.28938e+06
1.91514e+06
2.26304e+06
2.23649e+06
2.26311e+06
2.24766e+06
1.92523e+06
2.29002e+06
1.90299e+06
2.26595e+06
2.23854e+06
2.24861e+06
2.27023e+06
1.80573e+06
1.66887e+06
1.57907e+06
1.92918e+06
2.29312e+06
2.20761e+06
2.08414e+06
2.1844e+06
1.95556e+06
1.80815e+06
2.07413e+06
2.2189e+06
2.25289e+06
2.20042e+06
1.80029e+06
2.1056e+06
1.98091e+06
2.19962e+06
2.13627e+06
2.1887e+06
2.17543e+06
1.47556e+06
1.33943e+06
1.2954e+06
1.26405e+06
1.14808e+06
951468
748009
1.58439e+06
253883
266629
284468
1.61647e+06
253249
254175
2.0393e+06
2.13107e+06
2.03074e+06
2.21011e+06
1.95733e+06
2.20811e+06
1.97672e+06
1.80684e+06
2.24853e+06
2.12942e+06
2.23027e+06
2.17998e+06
2.25619e+06
2.18113e+06
1.42325e+06
253248
253989
253420
1.07285e+06
253246
259158
2.11744e+06
2.13765e+06
2.03117e+06
1.85928e+06
2.15682e+06
2.01501e+06
2.08554e+06
1.33443e+06
1.14472e+06
1.31761e+06
691695
1.061e+06
991130
607577
2.04446e+06
2.13495e+06
2.03293e+06
2.213e+06
1.96328e+06
1.98002e+06
2.21489e+06
2.06391e+06
2.08478e+06
2.09558e+06
1.92229e+06
2.21664e+06
2.2171e+06
1.85231e+06
2.07458e+06
460008
2.26628e+06
260048
417563
255199
253246
253362
292583
253414
296204
253255
253546
253246
1.26375e+06
678803
1.27767e+06
937769
379897
914827
392236
675478
1.2547e+06
1.27421e+06
934948
376929
390909
907429
2.32627e+06
2.32735e+06
2.09539e+06
2.29141e+06
2.0527e+06
2.28375e+06
2.13421e+06
2.02946e+06
2.20189e+06
2.07827e+06
2.17828e+06
2.069e+06
2.04563e+06
2.17401e+06
1.60536e+06
2.3857e+06
2.00789e+06
2.41556e+06
1.93215e+06
2.32482e+06
2.49727e+06
254238
1.61533e+06
2.32103e+06
253408
829753
253246
255029
365214
1.22512e+06
253512
253330
757389
253246
254713
253253
253289
259772
253477
253246
253247
253246
1.21271e+06
513606
1.14247e+06
351438
851214
764428
320397
2.14679e+06
2.08955e+06
1.71716e+06
1.71511e+06
2.14928e+06
1.92402e+06
2.16421e+06
2.03045e+06
2.17126e+06
2.13508e+06
2.20868e+06
1.58404e+06
2.17701e+06
1.74474e+06
1.87421e+06
2.29497e+06
1.96668e+06
2.32862e+06
1.96656e+06
2.29492e+06
2.4181e+06
1.68179e+06
2.36661e+06
1.95123e+06
2.3524e+06
2.00601e+06
2.32283e+06
2.39128e+06
2.22352e+06
1.90522e+06
1.84475e+06
2.20369e+06
2.24491e+06
2.29779e+06
2.29637e+06
2.03882e+06
2.2532e+06
2.28419e+06
2.27506e+06
2.29679e+06
2.2104e+06
2.22581e+06
1.85597e+06
2.39859e+06
2.19346e+06
2.33568e+06
2.28017e+06
2.38922e+06
2.21774e+06
253500
335514
253430
316081
1.37495e+06
253489
264537
1.06433e+06
1.22911e+06
1.28519e+06
888377
403326
746894
506198
2.21725e+06
2.26893e+06
1.89294e+06
2.20716e+06
2.27901e+06
2.19738e+06
2.17967e+06
1.41889e+06
888327
1.1267e+06
635093
918664
521943
355933
2.31023e+06
2.26608e+06
2.31302e+06
1.92595e+06
2.25532e+06
2.18938e+06
1.73147e+06
2.05852e+06
2.06087e+06
2.06357e+06
1.55824e+06
1.59478e+06
1.6192e+06
1.53127e+06
2.06763e+06
2.06591e+06
2.06883e+06
1.56331e+06
1.60398e+06
1.53975e+06
1.62455e+06
261528
253293
663626
253245
254288
253251
323550
253249
253353
253245
254349
1.20393e+06
253248
284455
2.30801e+06
2.25099e+06
2.19741e+06
2.27323e+06
2.04664e+06
2.00586e+06
1.70051e+06
308141
253329
831910
253245
253405
253246
256095
259059
253247
253274
253245
253299
253768
253246
427442
883923
1.03486e+06
648329
273943
292904
514813
2.12807e+06
1.58566e+06
2.12687e+06
1.99513e+06
1.27223e+06
1.17619e+06
2.02034e+06
2.22155e+06
2.2203e+06
2.13895e+06
2.13502e+06
1.71254e+06
1.94044e+06
2.02388e+06
2.18971e+06
1.60617e+06
2.16568e+06
1.35723e+06
2.10935e+06
1.98515e+06
1.06495e+06
2.23811e+06
1.85284e+06
1.87229e+06
1.84439e+06
1.86849e+06
1.05055e+06
1.01631e+06
2.24704e+06
1.84337e+06
1.86823e+06
1.83795e+06
1.86623e+06
1.0439e+06
1.00048e+06
2.18137e+06
2.11488e+06
2.36887e+06
2.06948e+06
2.31941e+06
2.30866e+06
1.6896e+06
2.02423e+06
2.46957e+06
2.31371e+06
2.39368e+06
2.41496e+06
2.42831e+06
2.18046e+06
2.05319e+06
2.03278e+06
2.02482e+06
1.54929e+06
1.48011e+06
1.38044e+06
1.45647e+06
2.00124e+06
2.16062e+06
2.33866e+06
2.34173e+06
2.29373e+06
2.25016e+06
2.11864e+06
253245
253245
253245
253245
253245
253246
253245
253245
253246
600198
253426
253255
253470
253247
253245
253247
253580
253538
256587
253257
253445
253246
253245
253245
253245
253245
253245
253245
253245
253245
253245
253245
253245
253245
253245
253245
253245
253245
253245
253245
253245
253245
253245
253245
253245
253245
253245
253245
253245
253245
253245
253245
253245
253245
253245
253245
253245
253245
253245
253245
253245
253245
253245
253245
253245
253245
253245
253245
253245
253246
253245
253245
253245
253245
253245
253245
253245
253245
253245
253245
253245
253245
253245
253245
253245
253245
253245
253245
255813
253245
253245
253245
253245
253245
253245
253245
253245
253245
253245
253245
253245
253245
253245
253245
253245
253245
253245
253245
253245
253245
253245
253245
253245
253245
253245
253245
253245
253245
253245
253245
253245
253245
253245
253245
253245
253245
253245
253245
253245
253245
253245
253245
253245
253245
253245
253245
253245
253245
253245
253245
253245
253245
253245
253245
253245
253245
253245
253245
253245
253245
253245
253245
253245
253245
253245
253245
253245
253245
253245
253245
253245
253245
253245
253245
253245
253245
253247
253245
253284
253283
253258
253520
253247
253245
253245
253245
253245
253245
253246
253245
253245
253245
253245
253245
253245
253245
253245
253245
253245
253245
253245
253245
253245
253245
253245
253245
253245
253245
253245
253245
253245
253245
253245
253245
253245
253245
253245
253245
253245
253245
253245
253245
253245
253245
253245
253245
253245
253245
253245
253245
253245
253245
253245
253245
253245
253245
253245
253245
253245
253245
253245
253245
253245
253245
253245
253245
253245
253245
253245
253245
253245
253245
253245
253245
253245
253245
253245
253245
253245
253245
253245
253245
253245
253245
253245
253245
253245
253245
253245
253245
253245
253245
253245
253245
253245
253245
253245
253245
253245
253245
253245
253245
253245
253245
253245
253245
253245
253245
253245
253245
253245
253245
253245
253245
253245
253245
253245
253245
253245
253245
253245
253245
253245
253245
253245
253245
253245
253245
253245
253245
253245
253245
253245
253245
253245
253245
253245
253245
253245
253245
253245
253245
253245
253245
253245
253245
253245
253245
253245
253245
253245
253245
253245
253245
253245
253245
253245
253245
253245
253245
253245
253245
253245
253245
253245
253245
253245
253245
253245
253245
253245
253245
253245
253245
253245
253245
253245
253245
253245
253245
253245
253245
253245
253245
253245
253245
253245
253245
253245
253245
253245
253245
253245
253245
253245
253245
253245
253245
253245
253245
253245
253245
253245
253245
253245
253245
253245
253245
253245
253245
253245
253245
253245
253245
253245
253245
253245
253245
253245
253245
253245
253245
253245
253245
253245
253245
253245
253245
253245
253245
253245
253245
253245
253245
253245
253245
253245
253245
253245
253245
253245
253245
253245
253245
253245
253245
253245
253245
253245
253245
253245
253245
253245
253245
253245
253245
253245
253245
253245
253245
253245
253245
253245
253245
253245
253245
253245
253245
253245
253245
253245
253245
253245
253245
253245
253245
253245
253245
253245
253245
253245
253245
253245
253245
253245
253245
253245
253245
253245
253245
253245
253245
253245
253245
253245
253245
253245
253245
253245
253245
253245
253245
253245
253245
253245
253245
253245
253245
253245
253245
253245
253245
253245
253245
253245
253245
253245
253245
253245
253245
253245
253245
253245
253245
253245
253245
253245
253245
253245
253245
253245
253245
253245
253245
253245
253245
253245
253245
253245
253245
253245
253245
253245
253245
253245
253245
253245
253245
253245
253245
253245
253245
253245
253245
253245
253245
253245
253245
253245
253245
253245
253245
253245
253245
253245
253245
253245
253245
253245
253245
253245
253245
253245
253245
253245
253245
253245
253245
253245
253245
253245
253245
253245
253245
253245
253245
253245
253245
253245
253245
253245
253245
253245
253245
253245
253245
253245
253245
253245
253245
253245
253245
253245
253245
253245
253245
253245
253245
253245
253245
253245
253245
253245
253245
253245
253245
253245
253245
253245
253245
253245
253245
253245
253245
253245
253245
253245
253245
253245
253245
253245
253245
253245
253245
253245
253245
253245
253245
253245
253245
253245
253245
253245
253245
253245
253245
253245
253245
253245
253245
253245
253245
253245
253245
253245
253245
253245
253245
253245
253245
253245
253245
253245
253245
253245
253245
253245
253245
253245
253245
253245
253245
253245
253245
253245
253245
253245
253245
253245
253245
253245
253245
253245
253245
253245
253245
253245
253245
253245
253245
253245
253245
253245
253245
253245
253245
253245
253245
253245
253245
253245
253245
253245
253245
253245
253245
253245
253245
253245
253245
253245
253245
253245
253245
253245
253245
253245
253245
253245
253245
253245
253245
253245
253245
253245
253245
253245
253245
253245
253245
253245
253245
253245
253245
253245
253245
253245
253245
253245
253245
253245
253245
253245
253245
253245
253245
253245
253245
253245
253245
253245
253245
253245
253245
253245
253245
253245
253245
253245
253245
253245
253245
253245
253245
253245
253245
253245
253245
253245
253245
253245
253245
253245
253245
253245
253245
253245
253245
253245
253245
253245
253245
253245
253245
253245
253245
253245
253245
253245
253245
253245
253245
253245
253245
253245
253245
253245
253245
253245
253245
253245
253245
253245
253245
253245
253245
253245
253245
253245
253245
253245
253245
253245
253245
253245
253245
253245
253245
253245
253245
253245
253245
253245
253245
253245
253245
253245
253245
253245
253245
253245
253245
253245
253245
253245
253245
253245
253245
253245
253245
253245
253245
253245
253245
253245
253245
253245
253245
253245
253245
253245
253245
253245
253245
253245
253245
253245
253245
253245
253245
253245
253245
253245
253245
253245
253245
253245
253245
253245
253245
253245
253245
253245
253245
253245
253245
253245
253245
253245
253245
253245
253245
253245
253245
253245
253245
253245
253245
253245
253245
253245
253245
253245
253245
253245
253245
253245
253245
253245
253245
253245
253245
253245
253245
253245
253245
253245
253245
253245
253245
253245
253245
253245
253245
253245
253245
253245
253245
253245
253245
253245
253245
253245
253245
253245
253245
253245
253245
253245
253245
253245
253245
253245
253245
253245
253245
253245
253245
253245
253245
253245
253245
253245
253245
253245
253245
253245
253245
253245
253245
253245
253245
253245
253245
253245
253245
253245
253245
253245
253245
253245
253245
253245
253245
253245
253245
253245
253245
253245
253245
253245
253245
253245
253245
253245
253245
253245
253245
253245
253245
253245
253245
253245
253245
253245
253245
253245
253245
253245
253245
253245
253245
253245
253245
253245
253245
253245
253245
253245
253245
253245
253245
253245
253245
253245
253245
253245
253245
253245
253245
253245
253245
253245
253245
253245
253245
253245
253245
253245
253245
253245
253245
253245
253245
253245
253245
253245
253245
253245
253245
253245
253245
253245
253245
253245
253245
253245
253245
253245
253245
253245
253245
253245
253245
253245
253245
253245
253245
253245
253245
253245
253245
253245
253245
253245
253245
253245
253245
253245
253245
253245
253245
253245
253245
253245
253245
253245
253245
253245
253245
253245
253245
253245
253245
253245
253245
253245
253245
253245
253245
253245
253245
253245
253245
253245
253245
253245
253245
253245
253245
253245
253245
253245
253245
253245
253245
253245
253245
253245
253245
253245
253245
253245
253245
253245
253245
253245
253245
253245
253245
253245
253245
253245
253245
253245
253245
253245
253245
253245
253245
253245
253245
253245
253245
253245
253245
253245
253245
253245
253245
253245
253245
253245
253245
253245
253245
253245
253245
253245
253245
253245
253245
253245
253245
253245
253245
253245
253245
253245
253245
253245
253245
253245
253245
253245
253245
253245
253245
253245
253245
253245
253245
253245
253245
253245
253245
253245
253245
253245
253245
253245
253245
253245
253245
253245
253245
253245
253245
253245
253245
253245
253245
253245
253245
253245
253245
253245
253245
253245
253245
253245
253245
253245
253245
253245
253245
253245
253245
253245
253245
253245
253245
253245
253245
253245
253245
253245
253245
253245
253245
253245
253245
253245
253245
253245
253245
253245
253245
253245
253245
253245
253245
253245
253245
253245
253245
253245
253245
253245
253245
253245
253245
253245
253245
253245
253245
253245
253245
253245
253245
253245
253245
253245
253245
253245
253245
253245
253245
253245
253245
253245
253245
253245
253245
253245
253245
253245
253245
253245
253245
253245
253245
253245
253245
253245
253245
253245
253245
253245
253245
253245
253245
253245
253245
253245
253245
253245
253245
253245
253245
253245
253245
253245
253245
253245
253245
253245
253245
253245
253245
253245
253245
253245
253245
253245
253245
253245
253245
253245
253245
253245
253245
253245
253245
253245
253245
253245
253245
253245
253245
253245
253245
253245
253245
253245
253245
253245
253245
253245
253245
253245
253245
253245
253245
253245
253245
253245
253245
253245
253245
253245
253245
253245
253245
253245
253245
253245
253245
253245
253245
253245
253245
253245
253245
253245
253245
253245
253245
253245
253245
253245
253245
253245
253245
253245
253245
253245
253245
253245
253245
253245
253245
253245
253245
253245
253245
253245
253245
253245
253245
253245
253245
253245
253245
253245
253245
253245
253245
253245
253245
253245
253245
253245
253245
253245
253245
253245
253245
253245
253245
253245
253245
253245
253245
253245
253245
253245
253245
253245
253245
253245
253245
253245
253245
253245
253245
253245
253245
253245
253245
253245
253245
253245
253245
253245
253245
253245
253245
253245
253245
253245
253245
253245
253245
253245
253245
253245
253245
253245
253245
253245
253245
253245
253245
253245
253245
253245
253245
253245
253245
253245
253245
253245
253245
253245
253245
253245
253245
253245
253245
253245
253245
253245
253245
253245
253245
253245
253245
253245
253245
253245
253245
253245
253245
253245
253245
253245
253245
253245
253245
253245
253245
253245
253245
253245
253245
253245
253245
253245
253245
253245
253245
253245
253245
253245
253245
253245
253245
253245
253245
253245
253245
253245
253245
253245
253245
253245
253245
253245
253245
253245
253245
253245
253245
253245
253245
253245
253245
253245
253245
253245
253245
253245
253245
253245
253245
253245
253245
253245
253245
253245
253245
253245
253245
253245
253245
253245
253245
253245
253245
253245
253245
253245
253245
253245
253245
253245
253245
253245
253245
253245
253245
253245
253245
253245
253245
253245
253245
253245
253245
253245
253245
253245
253245
253245
253245
253245
253245
253245
253245
253245
253245
253245
253245
253245
253245
253245
253245
253245
253245
253245
253245
253245
253245
253245
253245
253245
253245
253245
253245
253245
253245
253245
253245
253245
253245
253245
253245
253245
253245
253245
253245
253245
253245
253245
253245
253245
253245
253245
253245
253245
253245
253245
253245
253245
253245
253245
253245
253245
253245
253245
253245
253245
253245
253245
253245
253245
253245
253245
253245
253245
253245
253245
253245
253245
253245
253245
253245
253245
253245
253245
253245
253245
253245
253245
253245
253245
253245
253245
253245
253245
253245
253245
253245
253245
253245
253245
253245
253245
253245
253245
253245
253245
253245
253245
253245
253245
253245
253245
253245
253245
253245
253245
253245
253245
253245
253245
253245
253245
253245
253245
253245
253245
253245
253245
253245
253245
253245
253245
253245
253245
253245
253245
253245
253245
253245
253245
253245
253245
253245
253245
253245
253245
253245
253245
253245
253245
253245
253245
253245
253245
253245
253245
253245
253245
253245
253245
253245
253245
253245
253245
253245
253245
253245
253245
253245
253245
253245
253245
253245
253245
253245
253245
253245
253245
253245
253245
253245
253245
253245
253245
253245
253245
253245
253245
253245
253245
253245
253245
253245
253245
253245
253245
253245
253245
253245
253245
253245
253245
253245
253245
253245
253245
253245
253245
253245
253245
253245
253245
253245
253245
253245
253245
253245
253245
253245
253245
253245
253245
253245
253245
253245
253245
253245
253245
253245
253245
253245
253245
253245
253245
253245
253245
253245
253245
253245
253245
253245
253245
253245
253245