/*--------------------------------*- C++ -*----------------------------------*\
  =========                 |
  \\      /  F ield         | OpenFOAM: The Open Source CFD Toolbox
   \\    /   O peration     | Website:  https://openfoam.org
    \\  /    A nd           | Version:  9
     \\/     M anipulation  |
\*---------------------------------------------------------------------------*/
FoamFile
{
    format      ascii;
    class       volScalarField;
    location    "0.0012";
    object      T;
}
// * * * * * * * * * * * * * * * * * * * * * * * * * * * * * * * * * * * * * //

dimensions      [0 0 0 1 0 0 0];

internalField   nonuniform List<scalar> 
10209
(
288.091
287.935
288.176
288.557
288.823
287.935
287.948
287.958
287.931
287.926
287.926
287.926
292.273
288.204
288.214
287.972
288.088
287.934
287.936
287.927
287.927
287.926
287.926
287.926
287.926
287.926
319.179
293.303
361.257
289.146
358.059
289.85
311.343
302.554
288.422
288.461
292.863
288.812
297.037
296.72
291.308
288.263
290.821
288.007
293.63
288.113
289.433
289.584
287.957
287.952
288.109
288.009
288.546
288.534
287.945
287.931
287.961
287.926
288.072
287.926
287.93
287.927
287.926
287.926
287.926
287.926
287.926
287.926
287.926
287.926
287.926
287.926
287.926
287.926
287.926
287.927
287.926
287.926
1153.32
305.489
429.789
288.01
290.635
287.926
287.958
287.926
287.926
287.926
555.003
331.522
881.862
314.02
287.952
287.933
288.622
287.927
290.957
287.938
301.565
287.952
287.926
287.926
287.927
287.926
287.938
287.926
288.123
287.926
287.926
287.926
287.926
287.926
292.038
287.928
287.926
287.926
287.926
287.926
287.926
287.926
287.926
287.926
287.985
290.911
288.41
299.37
289.753
288.237
288.022
287.926
287.938
287.928
287.936
287.926
287.927
287.926
287.926
287.926
287.926
287.926
287.926
287.926
287.926
287.926
287.926
287.926
287.926
287.926
287.926
287.926
287.926
287.926
287.926
287.926
287.926
287.926
287.926
287.926
287.926
549.246
958.174
362.847
506.773
907.506
337.885
594.204
448.758
405.694
578.513
290.596
779.363
304.787
335.307
287.945
291.999
288.024
287.945
288.494
288.031
287.929
288.568
377.101
288.229
288.238
293.74
298.186
287.962
288.064
287.988
288.592
287.93
289.711
287.934
287.986
287.926
287.928
287.926
287.926
287.926
287.926
287.926
287.937
288.237
287.928
287.931
287.955
288.051
287.926
287.929
287.927
287.934
287.926
287.963
287.926
287.927
287.926
287.926
287.926
287.926
287.926
287.926
287.926
287.944
293.276
288.068
288.346
288.108
288.419
287.941
287.926
287.931
287.932
287.926
287.927
287.958
287.928
287.926
287.962
287.927
287.926
287.926
287.926
287.926
287.926
287.926
287.927
287.926
287.926
287.926
287.926
287.926
287.926
287.926
287.926
287.926
287.926
287.926
287.926
287.926
287.926
287.926
287.926
287.926
287.926
287.926
287.926
287.926
287.926
287.926
287.926
287.926
287.926
287.926
287.926
287.926
287.926
287.926
287.926
287.926
287.926
287.926
287.926
287.926
287.926
287.926
287.926
287.926
287.926
287.926
1227.97
1105.78
981.531
602.797
541.138
356.114
376.428
287.979
306.053
287.935
287.926
287.926
287.927
287.928
287.926
287.926
774.497
1050.87
910.831
1239.61
1078.02
905.505
771.543
745.994
1192.07
997.674
774.065
1062.29
858.737
685.911
513.262
936.585
648.303
831.585
604.444
841.902
507.288
435.298
696.363
670.804
359.786
746.593
406.944
390.676
339.593
617.995
333.559
485.972
363.516
574.69
314.095
317.982
424.831
464.478
291.871
527.692
299.902
301.345
288.506
377.443
288.746
290.015
291.905
307.405
288.02
287.971
288.077
288.004
287.926
289.319
287.933
287.929
463.16
626.54
394.515
299.845
642.217
453.84
301.701
313.343
288.822
289.333
287.981
312.029
288.904
289.346
287.926
287.934
287.926
287.926
287.927
287.926
287.926
287.99
287.928
287.926
287.99
287.929
287.928
287.926
287.926
287.926
287.926
287.926
287.926
287.926
287.926
287.926
287.926
287.926
287.926
287.926
287.926
287.926
287.926
287.926
287.926
287.926
287.926
287.926
287.926
287.926
287.926
287.926
287.926
287.926
287.926
287.926
287.926
287.926
287.926
287.926
287.926
287.926
287.926
287.926
287.926
287.926
287.926
287.926
287.926
287.926
287.926
287.926
287.926
287.926
287.926
287.926
287.926
287.926
287.926
287.926
287.926
287.926
287.926
287.926
287.926
287.926
287.926
287.926
287.926
287.926
287.926
287.926
287.926
287.926
287.926
287.926
287.926
287.926
287.926
287.926
287.926
287.926
287.926
287.926
287.926
287.926
287.928
287.94
287.926
287.926
287.935
287.926
287.929
287.926
287.926
287.926
287.926
287.929
287.926
287.926
287.926
287.926
287.926
287.926
287.926
287.926
287.926
287.926
287.926
287.926
287.926
287.926
287.926
287.926
287.926
287.926
287.926
287.926
287.926
287.926
287.926
287.926
287.926
287.926
287.926
287.926
287.926
287.926
287.926
287.926
287.926
287.926
287.926
287.926
287.926
287.926
287.926
287.926
287.926
287.926
287.926
287.926
287.926
287.926
287.926
287.926
287.926
287.926
287.926
287.926
287.926
287.926
287.926
287.926
287.926
287.926
287.926
287.926
287.926
287.926
287.926
287.926
287.926
287.926
287.926
287.926
287.926
287.926
287.926
287.926
287.926
287.926
287.926
287.926
287.926
287.926
287.926
287.926
287.926
287.926
287.926
287.926
287.926
287.926
287.926
287.926
287.926
287.926
287.926
287.926
287.926
287.926
287.926
287.926
287.926
287.926
287.926
287.926
287.926
287.926
287.926
287.926
287.926
287.926
287.926
287.926
287.926
287.926
287.926
287.926
287.926
287.926
287.926
287.926
287.926
287.926
287.926
287.926
287.926
287.926
287.926
287.926
287.926
287.926
287.926
287.926
287.926
287.926
287.926
287.926
287.926
287.926
287.926
287.926
287.926
287.926
287.926
287.926
287.926
287.926
287.926
287.926
287.926
287.926
287.926
287.926
287.926
287.926
287.926
287.926
287.926
287.926
287.926
287.926
287.926
287.926
287.926
287.926
287.926
287.926
287.926
287.926
287.926
287.926
287.926
287.926
287.926
287.926
287.926
287.926
287.926
287.926
287.926
287.926
287.926
287.926
287.926
287.926
287.926
287.926
287.926
287.926
287.926
287.926
287.926
287.926
287.926
287.926
287.926
287.926
287.926
287.926
287.926
287.926
287.926
287.926
287.926
287.926
287.926
287.926
287.926
287.926
287.926
287.926
287.926
287.926
287.926
287.926
287.926
287.926
287.926
287.926
287.926
287.926
287.926
287.926
287.926
287.926
287.926
287.926
287.926
287.926
287.926
287.926
287.926
287.926
287.926
287.926
287.926
287.926
287.926
287.926
287.926
287.926
287.926
287.926
287.926
287.926
287.926
287.926
287.926
287.926
287.926
287.926
287.926
287.926
287.926
287.926
287.926
287.926
287.926
287.926
287.926
287.926
287.926
287.926
287.926
287.926
287.926
287.926
287.926
287.926
287.926
287.926
287.926
287.926
287.926
287.926
287.926
287.926
287.926
287.926
287.926
287.926
287.926
287.926
287.926
975.722
912.873
924.782
1001.5
1018.54
715.168
858.242
867.507
707.208
287.926
287.926
287.926
287.926
287.926
287.926
287.926
287.926
287.926
287.926
287.926
287.926
287.926
287.926
287.926
287.926
288.271
287.926
287.926
287.926
287.926
287.926
287.926
287.926
287.926
287.926
287.926
287.926
287.926
287.926
287.926
287.926
287.926
287.926
287.926
287.926
287.926
287.926
287.926
287.926
287.926
287.926
287.926
287.926
287.926
287.926
1180.28
1006.27
1194.45
579.232
866.762
488.05
603.866
1145.79
992.037
959.154
912.508
884.853
700.792
324.4
726.158
592.54
383.036
366.838
731.36
492.7
338.437
643.033
446.142
306.136
290.814
289.829
296.498
288.561
290.072
408.755
306.768
406.183
294.628
343.676
294.335
288
288.612
288.16
288.148
1492.88
1209.18
550.276
290.138
287.926
1418.45
1363.98
1229.74
1070.46
639.236
585.639
513.921
305.415
312.98
287.927
1470.14
1479.8
1510.18
1496.97
1486.81
1478.17
1500.92
774.133
1200.98
1026.26
995.353
1025.87
999.955
757.087
310.639
579.886
329.238
463.559
349.355
497.136
302.161
287.939
292.044
288.001
288.123
288.065
288.297
287.933
287.926
287.926
1426.08
1463.51
1352.68
1416.64
1467.54
1322.42
1457
1523.45
1586.35
1531.22
1576.64
1431.5
1307.73
1257.74
1483.74
1380.85
1450.55
1348.87
1255.3
1438.89
1391.74
1244.69
1330.75
1345.5
1305.94
1076.24
1409.29
1226.85
1186.56
1394.15
1155.33
1398.11
1162.76
1302.58
901.492
1128.18
1082.04
739.219
1157.29
865.4
879.385
975.486
966.146
631.707
483.604
806.416
831.186
448.768
456.499
608.52
772.104
365.769
542.578
786.554
664.94
382.634
804.976
512.099
410.909
528.58
702.484
656.331
360.383
784.364
445.998
410.952
315.531
292.375
306.551
294.85
314.256
291.655
299.725
295.282
313.576
577.282
322.77
448.17
352.856
501.1
302.28
288.787
289.529
290.549
288.445
288.932
289.5
290.862
288.521
294.089
371.201
318.047
288.54
402.841
291.567
289.018
295.277
376.002
325.124
288.875
412.479
292.453
289.308
288.145
287.948
288.052
287.965
288.193
287.962
288.098
287.976
287.926
287.929
287.931
287.926
287.927
287.94
287.927
287.926
287.953
287.926
287.926
287.926
287.926
287.926
287.926
287.926
287.926
287.926
287.926
287.926
287.926
287.926
1132.25
1149.87
1165.2
1082.74
1035.95
1371.44
1305.79
1198.45
1043.54
915.462
525.864
378.473
288.449
1145.62
1134.23
1338.94
1174.03
1268.57
1181.74
831.943
755.159
506.463
1258.74
1156.69
1203.24
1219.61
1283.01
1251.01
1239.26
1278.34
1213.19
1246.09
1262.7
1204.91
1165.21
1157.86
1012.54
1322.52
1232.88
1369.82
1368.79
1277.79
1403.25
1279.35
1331.55
1343.58
1267.35
1324.16
1293.85
1385.62
1305.8
1200.62
1231.53
1246.81
1059.18
1270.05
1169.35
1121.12
1130.02
936.381
1030.32
884.879
1101.3
994.233
1057.4
934.815
968.1
803.918
687.501
994.788
910.039
731.837
865.827
610.176
754.632
539.291
842.848
649.456
774.018
287.926
287.926
287.926
287.926
287.926
287.926
287.926
287.926
287.926
287.926
287.926
287.926
287.926
287.926
287.926
287.926
287.926
287.926
649.482
1587.5
287.927
287.926
287.926
287.926
287.926
287.926
287.926
290.954
1009.93
287.926
287.926
287.926
287.926
287.926
287.926
287.926
287.926
300.809
287.926
287.926
287.926
287.926
287.926
287.926
287.926
287.926
287.948
287.926
287.926
287.926
287.926
287.926
287.926
287.926
287.926
287.926
287.926
287.926
287.926
287.926
287.926
287.926
287.926
287.926
287.926
287.926
287.926
287.926
1481.78
1399.12
1513.89
1321.61
1557.25
289.152
454.009
1282.05
288.131
1517.61
1285.65
1366.5
287.926
287.926
287.926
287.926
287.926
287.926
287.926
287.926
287.926
287.926
287.926
287.926
287.926
287.926
287.926
287.926
287.926
1286.92
986.317
1007.09
287.929
287.937
297.684
287.926
324.469
287.926
287.926
287.926
287.926
287.926
287.926
287.926
287.926
287.926
287.926
287.926
287.926
287.926
287.926
287.926
287.926
287.926
781.986
613.813
668.737
290.978
287.926
287.926
287.964
287.926
288.107
295.52
287.926
287.926
287.926
287.926
287.926
287.926
287.926
287.926
287.926
287.926
287.926
287.926
287.926
287.926
287.926
287.926
287.926
294.457
511.898
287.95
288.145
287.93
287.926
287.926
287.926
287.926
288.821
287.926
287.926
287.926
287.926
287.926
287.926
287.926
287.926
287.926
287.926
287.926
287.926
287.926
287.926
287.926
287.926
287.926
287.926
287.926
287.926
287.926
287.926
287.926
287.926
287.926
287.926
287.926
287.926
287.926
287.926
287.926
287.926
287.926
287.926
287.926
287.926
287.926
287.926
287.926
287.926
287.926
287.926
287.926
287.949
287.933
287.926
287.926
287.926
287.926
287.926
287.926
287.926
287.926
287.926
287.926
287.926
287.926
287.926
287.926
287.926
287.926
287.926
287.926
287.926
287.926
287.926
287.926
287.926
287.926
287.926
287.926
287.926
287.926
287.926
287.926
287.926
287.926
287.926
287.926
1346.32
1584.04
1311.54
1550.07
1550.32
1267.89
1389.14
287.926
287.959
287.945
287.929
288.206
288.096
287.932
287.926
287.926
287.926
287.926
287.926
287.926
287.926
481.657
1068
677.121
689.042
795.598
782.581
373.456
287.926
287.926
287.926
287.926
287.926
287.926
287.926
287.926
287.926
287.926
287.926
287.926
287.926
287.926
288.524
337.802
288.381
292.275
289.831
304.898
288.073
287.926
287.926
287.926
287.926
287.926
287.926
287.926
287.926
287.926
287.926
287.926
287.926
287.926
287.926
287.926
288.015
287.926
287.928
287.929
287.934
287.926
287.926
287.926
287.926
287.926
287.926
287.926
287.926
287.926
287.926
287.926
287.926
287.926
287.926
287.926
287.926
287.926
287.926
287.926
287.926
287.926
287.926
287.926
287.926
287.926
287.926
287.926
287.926
287.926
287.926
287.926
287.926
287.926
287.926
287.926
287.926
287.926
287.926
287.926
287.926
287.926
287.926
287.926
287.926
287.926
287.926
287.926
287.926
287.926
287.926
1153.93
1491.69
1249.09
1523.69
1466.59
1208.51
1188.1
288.649
325.249
310.203
524.513
301.742
296.539
583.626
811.673
985.823
922.263
872.451
1065.88
1437.95
1274.4
917.656
1401.07
1110.24
881.499
294.579
287.956
288.852
400.91
288.293
290.517
307.274
649.257
484.143
758.357
408.862
1424.92
1556.61
1501.21
1514.24
1538.6
1467.16
1463.69
1212.25
1112.18
1045.46
1275.36
1374.78
1542.27
1484.99
1434.56
1246.84
1451.88
1310.32
972.8
1457.76
1163.9
1070.16
1331.62
1460.58
1350.24
1235.23
1466.11
1379.29
1171.24
1052.22
599.202
879.232
776.931
1225.82
1087.56
1347.07
953.615
287.926
287.926
287.926
287.926
287.926
287.926
287.926
287.931
287.926
287.927
287.927
287.933
287.975
287.926
287.926
287.926
287.926
287.926
287.926
287.926
287.926
287.926
287.926
287.926
287.926
287.926
287.926
287.926
287.926
287.926
287.926
287.926
287.926
287.926
287.926
287.926
287.926
287.926
287.926
287.926
287.926
287.926
287.926
287.926
287.926
287.926
287.926
287.926
287.926
287.926
287.926
287.926
287.926
287.926
287.926
287.926
317.408
1021.34
612.862
661.383
559.477
669.385
330.056
288.008
287.926
287.931
288.035
287.959
289.632
287.928
288.576
308.561
299.321
288.965
289.505
361.737
293.204
288.24
352.03
290.211
288.057
287.926
287.926
287.926
287.932
287.926
287.926
287.926
287.962
287.937
287.988
287.929
298.36
337.375
438.583
290.633
313.176
425.078
397.847
289.235
536.083
294.671
293.368
288.724
287.972
288.13
288.111
287.926
287.926
287.926
287.926
287.926
287.926
287.926
287.926
287.926
287.926
287.926
287.926
287.926
287.926
287.926
287.926
287.926
287.926
287.926
287.926
287.926
287.926
287.926
287.926
287.926
287.926
287.926
287.926
287.926
287.926
287.926
287.926
287.926
287.926
287.926
287.926
287.926
287.926
287.926
287.926
287.926
287.926
287.926
287.926
287.926
287.926
287.926
287.926
287.926
287.926
287.926
287.926
287.926
287.926
287.926
287.926
287.934
288.969
288.028
288.857
287.956
288.211
287.958
287.926
287.926
287.926
287.926
287.926
287.926
287.926
287.926
287.929
287.927
287.927
287.928
288.149
287.935
287.927
287.987
287.934
287.926
287.926
287.926
287.926
287.926
287.926
287.926
287.926
287.926
287.926
287.926
287.926
287.947
287.943
287.993
287.931
288.072
288.953
288.663
287.932
292.318
287.961
287.951
288.431
328.979
290.544
288.184
302.439
289.424
288.014
287.931
287.926
287.927
287.927
287.944
287.935
287.979
287.929
287.926
287.926
287.926
287.926
287.926
287.926
287.926
287.926
287.926
287.926
287.926
287.926
287.926
287.926
287.926
287.926
287.926
287.926
287.926
287.926
287.926
287.926
287.926
287.926
287.926
287.926
287.926
287.926
287.926
287.926
287.926
287.926
287.926
287.926
287.926
287.926
287.926
287.926
287.926
287.926
287.926
287.926
287.926
287.926
287.926
287.926
287.926
287.926
287.926
287.926
287.926
287.926
287.926
287.926
287.926
287.926
287.926
287.927
287.926
287.926
287.926
287.926
287.926
287.926
287.926
287.926
287.926
287.926
287.926
287.926
287.926
287.926
287.926
287.926
287.926
287.926
287.926
287.926
287.926
287.926
287.926
287.926
287.926
287.926
287.926
287.926
287.926
287.926
287.926
287.926
287.926
287.926
287.927
288.234
287.957
288.006
287.937
287.954
287.929
287.926
287.926
287.926
287.926
287.926
287.927
287.926
287.926
287.926
287.926
287.926
287.926
287.926
287.926
287.926
287.926
287.932
287.926
287.926
287.928
287.926
287.926
287.926
287.926
287.926
287.926
287.926
287.926
287.926
287.926
287.926
287.926
287.926
287.926
287.926
287.926
287.926
287.926
287.926
287.926
287.926
287.926
287.926
287.926
287.926
287.926
287.926
287.926
287.926
287.926
287.926
287.926
287.926
287.926
287.926
287.926
287.926
287.926
287.926
287.926
287.926
287.926
287.926
287.926
287.926
287.926
287.926
287.926
287.926
287.926
287.926
287.926
287.926
287.926
287.926
287.926
287.926
287.926
287.926
287.926
287.926
287.926
287.926
287.926
287.926
287.926
287.926
287.926
287.926
287.926
287.926
287.926
287.926
287.926
287.926
287.926
287.926
287.926
287.926
287.926
287.926
287.926
287.926
287.926
287.926
287.926
287.926
287.926
287.926
287.926
287.926
287.926
287.926
287.926
287.926
287.926
287.926
287.926
287.926
287.926
287.926
287.926
287.926
287.926
287.926
287.926
287.926
287.926
287.926
287.926
287.926
287.926
287.926
287.926
287.926
287.926
287.926
287.926
287.926
287.926
287.926
287.926
287.926
287.926
287.926
287.926
287.926
287.926
287.926
287.926
287.926
287.926
287.926
287.926
287.926
287.926
287.926
287.926
287.926
287.926
287.926
287.926
287.926
287.926
287.926
287.926
287.926
287.926
287.926
287.926
287.926
287.926
287.926
287.926
287.926
287.926
287.926
287.926
287.926
287.926
287.926
287.926
287.926
287.926
287.926
287.926
287.926
287.926
287.926
287.926
287.926
287.926
287.926
287.926
287.926
287.926
287.926
287.926
287.926
287.926
287.926
287.926
287.926
287.926
287.926
287.926
287.926
287.926
287.926
287.926
287.926
287.926
287.926
287.926
287.926
287.926
287.926
287.926
287.926
287.926
287.926
287.926
287.926
287.926
287.926
287.926
287.926
287.926
287.926
287.926
287.926
287.926
287.926
287.926
287.926
287.926
287.926
287.926
287.926
287.926
287.926
287.926
287.926
287.926
287.926
287.926
287.926
287.926
287.926
287.926
287.926
287.926
287.926
287.926
287.926
287.926
287.926
287.926
287.926
287.926
287.926
287.926
287.926
287.926
287.926
287.926
287.926
287.926
287.926
287.926
287.926
287.926
287.926
287.926
287.926
287.926
287.926
287.926
287.926
287.926
287.926
287.926
287.926
287.926
287.926
287.926
287.926
287.926
287.926
287.926
287.926
287.926
287.926
287.926
287.926
287.926
287.926
287.926
287.926
287.926
287.926
287.926
287.926
287.926
287.926
287.926
287.926
287.926
287.926
287.926
287.926
287.926
287.926
287.926
287.926
287.926
287.926
287.926
287.926
287.926
287.926
287.926
287.926
287.926
287.926
287.926
287.926
287.926
287.926
287.926
287.926
287.926
287.926
287.926
287.926
287.926
287.926
287.926
287.926
287.926
287.926
287.926
287.926
287.926
287.926
287.926
287.926
287.926
287.926
287.926
287.926
287.926
287.926
287.926
287.926
287.926
287.926
287.926
287.926
287.926
287.926
287.926
287.926
287.926
287.926
287.926
287.926
287.926
287.926
287.926
287.926
287.926
287.926
287.926
287.926
287.926
287.926
287.926
287.926
287.926
287.926
287.926
287.926
287.926
287.926
287.926
287.926
287.926
287.926
287.926
287.926
287.926
287.926
287.926
287.926
287.926
287.926
287.926
287.926
287.926
287.926
287.926
287.926
287.926
287.926
287.926
287.926
287.926
287.926
287.926
287.926
287.926
287.926
287.926
287.926
287.926
287.926
287.926
287.926
287.926
287.926
287.926
287.926
287.926
287.926
287.926
287.926
287.926
287.926
287.926
287.926
287.926
287.926
287.926
287.926
287.926
287.926
287.926
287.926
287.926
287.926
287.926
287.926
287.926
287.926
287.926
287.926
287.926
287.926
287.926
287.926
287.926
287.926
287.926
287.926
287.926
287.926
287.926
287.926
287.926
287.926
287.926
287.926
287.926
287.926
287.926
287.926
287.926
287.926
287.926
287.926
287.926
287.926
287.926
287.926
287.926
287.926
287.926
287.926
287.926
287.926
287.926
287.926
287.926
287.926
287.926
287.926
287.926
287.926
287.926
287.926
287.926
287.926
287.926
287.926
287.926
287.926
287.926
287.926
287.926
287.926
287.926
287.926
287.926
287.926
287.926
287.926
287.926
287.926
287.926
287.926
287.926
287.926
287.926
287.926
287.926
287.926
287.926
287.926
287.926
287.926
287.926
287.926
287.926
287.926
287.926
287.926
287.926
287.926
287.926
287.926
287.926
287.926
287.926
287.926
287.926
287.926
287.926
287.926
287.926
287.926
287.926
287.926
287.926
287.926
287.926
287.926
287.926
287.926
287.926
287.926
287.926
287.926
287.926
287.926
287.926
287.926
287.926
287.926
287.926
287.926
287.926
287.926
287.926
287.926
287.926
287.926
287.926
287.926
287.926
287.926
287.926
287.926
1446.34
1371.31
998.618
645.498
288.113
287.926
1816.38
1079.16
1718.92
1635.14
978.404
1502.04
1301.03
1405.33
683.759
1286.68
1195.2
326.818
447.201
1060.15
948.052
289.059
360.505
759.015
287.962
289.042
899.582
994.273
428.862
287.926
288.058
287.926
287.926
929.669
382.107
287.926
595.77
481.755
296.548
290.142
324.58
288.924
287.931
287.926
287.95
287.927
287.926
287.926
287.926
287.926
287.926
287.926
1824.69
1658.05
1673.85
1829.69
1744.83
1741.4
1845.13
1052.85
984.836
970.439
1390.23
1459.32
1442.53
1400.14
1751.08
1640.43
1534.02
1764.09
1572.83
1683.81
1665.29
925.47
837.446
833.963
1351.6
1284.84
1389.87
1282.7
1520.4
1297.28
1413.93
1425.35
1454.69
1573.11
1304.81
469.671
600.138
371.563
941.376
1082.15
1155.63
779.276
1299.04
1108.29
1202.4
1244.58
968.776
1143.4
1043.3
293.647
296.301
288.664
690.798
315.743
471.858
460.033
1004.4
1093.67
1022.24
762.351
838.356
881.468
744.741
288.159
288.041
287.95
300.873
291.943
342.32
288.691
866.832
762.468
903.436
636.879
523.357
646.861
470.456
287.931
287.93
287.926
289.591
287.943
288.048
288.119
611.398
354.118
569.324
290.322
373.453
321.45
297.002
287.926
287.926
287.926
287.927
287.927
287.945
287.926
287.926
287.926
287.926
287.926
287.926
287.926
287.926
562.429
561.715
539.532
484.993
399.487
370.651
295.555
306.592
290.39
288.051
288.143
287.945
287.931
287.929
287.926
287.926
287.926
287.926
287.926
287.926
287.926
287.926
287.926
287.926
287.926
287.926
287.926
1755.11
1758.73
1663.35
1695.31
1744.45
1646.31
1768.82
1700
1619.78
1579.02
1511.25
1678.3
1592.64
1622.73
1306.23
1430.52
1341.11
984.988
1514.41
1206.48
1052.31
1034.33
671.614
720.35
427.867
950.091
722.632
767.467
468.927
595.829
323.32
314.211
587.48
509.327
297.978
354.726
294.505
318.95
288.226
408.526
290.077
298.27
288
291.799
287.957
287.938
288.941
288.25
287.928
287.93
287.927
287.927
287.926
287.948
287.926
287.926
287.926
287.926
287.926
287.926
287.926
287.926
287.926
287.926
287.926
287.926
287.926
287.926
287.926
287.926
287.926
287.926
287.926
287.926
287.926
287.926
287.926
287.926
287.926
287.926
287.926
287.926
287.926
287.926
287.926
287.926
287.926
287.926
287.926
287.926
287.926
287.926
287.926
287.926
287.926
287.926
287.926
287.926
287.926
287.926
287.926
287.926
287.926
287.926
287.926
287.926
287.926
287.926
287.926
287.926
287.926
287.926
287.926
287.926
287.926
287.926
287.926
287.926
287.926
287.926
287.926
287.926
287.926
287.926
287.926
287.926
287.926
287.926
287.926
287.926
287.926
287.926
287.926
287.926
287.926
287.926
287.926
287.926
287.926
287.926
287.926
287.926
287.926
287.926
287.926
287.926
287.926
287.926
287.926
287.926
287.926
287.926
287.926
287.926
287.926
287.926
287.926
287.926
287.926
287.926
287.926
287.926
287.926
287.926
287.926
288.667
302.157
287.927
287.926
287.926
287.926
287.926
287.926
287.926
287.926
287.926
287.926
287.926
287.926
287.926
287.926
302.8
288.08
291.63
288.053
287.956
288.501
287.932
287.926
287.949
287.926
287.926
287.926
287.926
287.926
287.926
287.926
287.926
287.926
287.926
287.958
287.932
287.926
287.926
287.927
287.926
287.926
287.926
287.926
287.926
287.926
287.926
287.926
287.926
287.926
287.926
287.926
287.926
287.926
287.926
287.926
287.926
287.926
287.926
287.926
287.926
287.926
287.926
287.926
287.928
287.926
1067.32
1168.2
1240.42
1239.72
1063.23
1091.55
1071.47
1027.62
1042.71
1206.99
1080.31
1126.59
1178.5
1250.93
1207.73
1208.73
1173.28
1197.4
1116.11
1128.45
1153.02
1116.36
1125.93
1094.34
1071.04
1093.15
1066.41
1083.09
1094.25
1054.36
1064.68
1065.46
1090.1
1024.48
951.026
962.101
1127.13
1144.3
1170.72
1168.64
1196.26
1218.21
1184.41
1172.05
1180.66
1158.78
1196.74
1195.26
1228.18
1241.32
1163.43
1193.73
1200.69
1217.57
1232.47
1246.79
1239.58
1151.36
1136.82
1121.24
1170.63
1196.2
1201.85
1233.06
1096.14
1095.16
1135.01
1120.5
1150.85
1112.56
1087.37
287.926
287.926
287.926
287.926
287.926
287.926
287.926
287.926
287.926
287.926
287.926
287.926
287.926
287.926
310.092
314.197
307.36
315.694
300.901
290.756
297.525
292.872
288.137
288.465
289.152
287.991
287.951
287.926
287.931
287.929
287.926
287.926
287.926
287.926
287.926
287.926
287.926
287.926
287.926
287.926
287.926
287.926
287.926
287.926
287.926
287.926
287.926
287.926
287.926
287.926
287.926
287.926
287.926
287.926
287.926
287.926
287.926
287.926
287.926
287.926
287.926
287.926
287.926
287.926
287.926
287.926
287.926
287.926
287.926
287.926
287.926
287.926
287.926
287.926
287.926
287.926
287.926
287.926
287.926
287.926
287.926
287.926
1166.41
1171.09
1200.06
1220.87
1267.04
1240
1282.84
1121.42
1187.58
1165.13
1128.97
1222.93
1236.29
1159.53
1046.38
1052.8
1036.05
1064.55
1082.36
1056.63
1073.17
1050.23
1074.93
1118.46
1051.17
1086.04
1103.07
1048.78
1247.59
1282.81
1402.34
1367.18
1402.4
1296.64
1256.29
1227.08
1258.77
1484.8
1330.74
1372.18
1586
1613.32
1523.8
1483.46
1330.62
1417.23
1396.54
1618.04
1529.92
1037.01
1003.35
1039.58
1022.13
1033.16
1003.26
956.424
1402.74
1305.48
1360.54
1398.09
1350.19
1306.17
1314.7
1260.25
1293.98
1425.86
1319.12
1354.81
1474.92
1492
1268.69
1174.01
1256.78
1287.31
1173.18
1386.41
1238.58
1205.29
1273.96
1280.43
1142.87
1274.78
1144.87
1275.83
1110.67
1089.62
1172.15
1089.98
1011.78
1100.93
969.338
1122.18
1133.65
1059.4
1001.43
878.534
1012.38
896.567
1422.38
1381.71
1316.05
1371.72
1351.4
1388.47
1467.52
1512.4
1719.77
1700.4
1701.25
1694.96
1607.8
1601.45
1051.94
954.518
927.541
1052.72
994.356
1016.96
1074.07
1268.33
1273.31
1268.43
1154.01
1068.41
1251.08
1118.96
1093.46
1047.86
946.906
744.574
886.965
959.97
826.513
1027.6
965.684
1020.66
951.309
892.483
881.306
810.192
978.437
996.458
936.182
708.385
789.709
811.395
734.804
1429.48
1415.81
1652.29
1608.76
1534.27
1467.68
1538.03
877.467
1028.24
953.81
952.777
998.602
896.509
808.831
288.176
287.926
287.926
287.926
287.959
287.928
287.988
287.926
287.926
287.926
287.926
287.926
287.926
287.926
288.859
287.977
288.851
287.949
287.964
288.59
289.158
288.419
287.936
287.932
288.012
287.945
288.233
288.095
287.932
287.927
287.942
287.926
287.965
287.926
287.928
287.926
287.926
287.926
287.926
287.926
287.926
287.926
287.926
287.926
287.926
287.926
287.926
287.926
287.926
287.926
287.926
287.926
287.926
287.926
287.926
287.926
287.926
287.926
287.926
287.926
287.926
287.926
287.926
287.926
287.926
287.926
287.926
287.926
287.926
287.926
287.926
287.926
287.926
287.926
287.926
287.926
287.926
287.926
287.926
287.926
287.926
287.926
287.926
287.926
287.926
287.926
287.926
287.926
287.926
287.926
287.926
287.926
287.926
287.926
287.926
287.926
287.926
287.926
287.926
287.926
287.926
287.926
287.926
287.926
287.926
287.926
287.926
287.926
287.926
287.926
287.926
287.926
287.926
287.926
287.926
287.926
287.926
287.926
287.926
287.926
287.926
287.926
287.926
287.926
287.926
287.926
287.926
287.926
287.926
287.926
287.926
287.926
287.926
287.926
287.926
287.926
287.926
287.926
287.926
287.926
287.926
287.926
287.926
287.926
287.926
287.926
287.926
287.926
287.926
287.926
287.926
287.926
287.926
287.926
287.926
287.926
287.926
287.926
287.926
287.926
287.926
287.926
287.926
287.926
287.926
287.926
287.926
287.926
287.926
287.926
287.926
287.926
287.926
287.926
287.926
287.926
287.926
287.926
287.926
287.926
287.926
287.926
287.926
287.926
287.926
287.926
287.926
287.926
287.926
287.926
287.926
287.926
287.926
287.926
287.926
287.926
287.926
287.926
287.926
287.926
287.926
287.926
287.926
287.926
287.926
287.926
287.926
287.926
287.926
287.926
287.926
287.926
287.926
287.926
287.926
287.926
287.926
287.926
287.926
287.926
287.926
287.926
287.926
287.926
287.926
287.926
287.926
287.926
287.926
287.926
287.926
287.926
287.926
287.926
287.926
287.926
287.926
287.926
287.926
287.926
287.926
287.926
287.926
287.926
287.926
287.926
287.926
287.926
287.926
287.926
287.926
287.926
287.926
287.926
287.926
287.926
287.926
287.926
287.926
287.926
287.926
287.926
287.926
287.926
287.926
287.926
287.926
287.926
287.926
287.926
287.926
287.926
287.926
287.926
287.926
287.926
287.926
287.926
287.926
287.926
1183.95
1276.07
1269.14
837.727
804.084
935.386
919.927
935.563
868.86
793.716
649.722
568.449
651.771
734.027
957.862
829.938
906.962
823.438
725.774
731.633
627.315
1005.98
866.39
856.027
818.886
649.383
697.576
908.199
1129.11
999.686
1225.27
1358.18
1145.58
1240.85
958.015
866.867
645.574
791.67
932.725
771.877
698.545
538.027
1055.17
1197.09
1073.78
709.182
856.474
549.276
733.664
768.178
733.555
839.609
865.415
483.941
612.636
645.674
704.301
474.043
557.212
680.023
603.325
452.736
379.175
804.025
754.759
576.188
730.737
872.782
493.116
674.717
783.324
704.9
419.506
549.182
466.118
586.019
353.438
644.453
887.347
672.598
375.285
559.764
393.934
300.173
803.017
543.572
713.141
405.376
329.368
584.264
480.927
325.689
508.358
421.518
321.093
302.315
290.445
288.947
287.926
287.926
287.926
287.926
287.926
287.926
287.926
287.926
287.926
287.926
287.926
287.926
287.926
287.926
287.926
287.926
287.926
287.926
287.926
287.926
287.926
287.926
287.926
287.926
287.926
287.926
287.926
287.926
287.926
287.926
287.926
287.926
287.926
287.926
332.46
301.579
298.627
292.531
454.201
318.644
524.514
327.456
316.025
518.634
456.245
439.445
316.085
300.874
434.732
309.801
491.811
406.17
288.559
287.939
287.926
287.926
291.375
287.926
288.649
287.926
287.926
287.996
287.926
288.104
287.926
287.927
287.926
288.137
287.926
287.941
287.926
287.926
287.926
287.926
287.928
287.926
287.926
287.926
287.935
287.926
287.926
287.926
287.926
287.926
287.926
287.926
287.926
287.926
287.926
287.926
287.926
287.926
287.926
288.11
290.841
288.144
290.772
290.419
288.099
288.15
287.938
287.927
287.939
287.926
287.926
287.936
287.942
288.042
289.68
288.776
287.963
289.629
288.024
287.977
287.933
287.926
287.926
287.928
287.926
287.931
287.929
287.932
288.233
287.936
287.988
287.943
288.034
287.929
287.926
287.926
287.926
287.926
287.927
287.926
287.926
287.929
287.953
287.957
287.927
287.977
287.927
287.928
287.926