/*--------------------------------*- C++ -*----------------------------------*\
  =========                 |
  \\      /  F ield         | OpenFOAM: The Open Source CFD Toolbox
   \\    /   O peration     | Website:  https://openfoam.org
    \\  /    A nd           | Version:  9
     \\/     M anipulation  |
\*---------------------------------------------------------------------------*/
FoamFile
{
    format      ascii;
    class       volVectorField;
    location    "0.0012";
    object      U;
}
// * * * * * * * * * * * * * * * * * * * * * * * * * * * * * * * * * * * * * //

dimensions      [0 1 -1 0 0 0 0];

internalField   nonuniform List<vector> 
10209
(
(0.047671 0.363847 0.151974)
(0.00298026 0.0211407 0.0133804)
(0.0406471 0.542581 0.230728)
(0.17245 1.32738 0.281772)
(0.14622 1.85828 0.419358)
(0.00155215 0.0227265 0.00786655)
(0.00603278 0.0553086 0.00647761)
(0.00562329 0.0817249 0.0100494)
(0.00169137 0.0146017 0.00496837)
(1.86417e-06 2.40672e-06 1.97353e-06)
(1.0662e-08 6.52873e-08 5.22915e-08)
(5.17148e-09 9.3024e-08 7.61985e-08)
(8.29333 2.83586 2.66645)
(0.653414 0.294381 0.0852386)
(0.626145 0.329028 0.164671)
(0.112345 0.065689 0.0167796)
(0.387684 0.178451 0.0602582)
(0.0210674 0.00974809 0.00587356)
(0.0251988 0.0155945 0.00660382)
(0.00244938 0.00152317 0.000934804)
(0.00393309 0.001727 0.00120175)
(5.56208e-06 4.99387e-06 5.31251e-08)
(0.000512769 0.000427533 0.000230041)
(4.35332e-05 3.16219e-05 3.27951e-05)
(8.03492e-06 6.50059e-05 1.29514e-07)
(2.96015e-06 3.31589e-05 1.28844e-05)
(45.9179 22.4904 16.5551)
(10.2123 2.43886 3.36753)
(92.3036 47.6375 41.7407)
(2.57124 1.01241 0.644551)
(96.3425 46.1211 39.9487)
(4.01438 0.922237 0.995063)
(34.4613 18.9752 12.1979)
(23.6534 11.0475 5.50697)
(1.11997 0.484974 0.175835)
(1.23849 0.27392 0.163924)
(8.94176 5.22868 1.51422)
(1.97306 0.445742 0.311981)
(15.2837 8.76989 3.30365)
(15.2335 6.82702 2.82253)
(6.41854 2.49741 1.6076)
(0.796826 0.169631 0.12419)
(5.50366 3.24289 1.05208)
(0.196344 0.0914437 0.0394805)
(10.3618 4.39784 2.13702)
(0.450895 0.0904245 0.0890951)
(2.98144 1.76419 0.712746)
(3.29596 1.14478 0.965925)
(0.0761865 0.0357013 0.0184573)
(0.0664489 0.0114641 0.0178145)
(0.390729 0.231875 0.127944)
(0.203345 0.0378493 0.0480101)
(1.27505 0.755741 0.364711)
(1.27096 0.392522 0.414594)
(0.0461569 0.0119936 0.0176301)
(0.0144718 0.00234804 0.00403363)
(0.0797319 0.0467612 0.0277823)
(0.000494433 0.000172391 0.000192635)
(0.325182 0.0914002 0.109849)
(0.00184129 0.000284444 0.000633158)
(0.00980483 0.00559444 0.00419943)
(0.00409523 0.00101898 0.00189372)
(4.13756e-05 1.56016e-05 1.97009e-05)
(1.91691e-05 6.6106e-05 -5.3455e-05)
(6.04014e-05 3.73494e-05 2.96564e-05)
(0.000163185 2.45016e-05 6.52822e-05)
(0.000847033 0.000470759 0.000439135)
(0.000287638 0.000168297 5.04269e-05)
(4.99451e-06 3.92745e-05 3.59819e-05)
(2.37135e-07 1.29699e-06 1.47844e-06)
(2.12543e-07 1.80417e-06 1.14762e-06)
(4.47662e-05 0.000873902 0.000236698)
(0.000193466 0.00197288 9.08791e-05)
(7.58194e-06 0.000107241 4.05191e-06)
(2.66499e-06 1.90544e-05 3.03427e-06)
(0.00022291 0.00306984 0.00016133)
(6.89008e-05 0.000540305 0.000143097)
(1.56355e-06 3.11006e-05 6.20826e-06)
(428.201 686.456 124.547)
(8.62774 28.029 0.865735)
(107.001 173.853 78.6173)
(0.0341047 0.202773 0.057357)
(2.47668 5.64503 1.33993)
(0.000210271 0.00144896 0.000186298)
(0.0328227 0.0791398 0.0258232)
(7.10235e-07 6.64099e-06 1.40518e-06)
(1.01708e-05 2.34327e-05 2.66066e-05)
(4.16136e-09 1.61822e-07 1.41866e-07)
(161.962 306.819 14.2928)
(51.8157 49.3711 2.3712)
(358.426 536.219 240.764)
(14.8822 37.6238 13.7954)
(0.0542964 0.0439174 0.0139674)
(0.0136592 0.0134474 0.000327646)
(0.295438 1.48797 0.373685)
(0.00304866 0.00314759 0.000645188)
(1.715 5.72551 1.99288)
(0.0258248 0.0202572 0.00879408)
(12.4032 24.5156 4.90769)
(0.0160252 0.0707622 0.00887565)
(0.000948941 0.000949034 0.000166942)
(0.000259363 0.000349814 0.000122008)
(0.000447565 0.00305103 0.000341932)
(3.87435e-05 7.99374e-05 1.3204e-05)
(0.00759293 0.0339369 0.00472044)
(0.000464948 0.000517019 0.000124392)
(0.189102 0.453488 0.135619)
(0.000192018 0.000902529 0.000203311)
(0.000168748 0.000235856 6.84086e-05)
(1.81563e-05 4.52332e-05 5.58192e-06)
(4.6293e-06 3.58318e-05 7.67907e-06)
(3.13842e-06 8.70413e-06 2.38982e-06)
(0.973124 8.03563 3.06494)
(0.000457452 0.00529527 0.00283319)
(2.89568e-05 0.000150699 3.79993e-05)
(2.43728e-05 3.96907e-05 1.27328e-05)
(0.000841145 0.00108119 0.000656397)
(4.54485e-07 5.06301e-06 1.36081e-06)
(2.45227e-06 2.58685e-06 1.48389e-06)
(4.18785e-07 1.07314e-06 2.92648e-07)
(1.86019e-08 2.69686e-07 6.64395e-08)
(4.68449e-08 9.68514e-08 5.45075e-08)
(0.0644694 0.142938 0.0187756)
(3.05883 5.38951 0.147939)
(0.174979 1.07223 0.0212163)
(5.45794 19.1112 2.81918)
(1.95904 3.43004 0.531919)
(0.11017 0.70697 0.0843095)
(0.10131 0.22578 0.00445377)
(7.08217e-05 0.00021382 5.40127e-05)
(0.0166568 0.0299252 0.00952217)
(0.00076114 0.00693526 0.00175303)
(0.00403962 0.0268954 0.00688104)
(0.000540649 0.00132468 0.0003742)
(0.00229198 0.00433473 0.0012095)
(0.000101096 0.00098722 0.000222684)
(1.18312e-07 8.16018e-06 1.60387e-06)
(0.000132835 0.000282969 3.07448e-05)
(5.6447e-06 6.03163e-05 7.46996e-06)
(7.87538e-05 0.000556773 9.09495e-05)
(3.99733e-06 1.65566e-05 1.82384e-06)
(4.61716e-05 0.000111238 2.81717e-05)
(2.06054e-06 2.25311e-05 3.57239e-06)
(-2.09829e-08 1.92551e-07 3.72673e-08)
(5.95748e-07 2.55896e-06 4.16169e-07)
(1.55501e-08 3.23668e-07 6.13127e-08)
(7.87903e-08 2.12556e-06 5.1127e-07)
(-1.07856e-08 2.41449e-07 5.02874e-08)
(1.8671e-07 1.85925e-06 3.21749e-07)
(6.60443e-10 1.48127e-07 2.90663e-08)
(4.49269e-06 0.000116427 7.67038e-05)
(4.00036e-10 3.45609e-07 7.63979e-08)
(-1.32805e-07 3.88735e-06 2.93507e-06)
(1.86497e-07 4.22004e-06 2.76081e-06)
(6.46839e-09 1.18348e-07 4.94784e-08)
(6.88589e-07 2.97911e-06 1.7446e-06)
(8.67789e-08 1.14362e-07 9.0711e-08)
(3.01821e-07 1.97614e-06 1.00123e-06)
(9.40099e-09 7.56264e-08 4.29032e-08)
(230.73 275.735 58.7613)
(411.607 551.779 32.7149)
(68.0411 86.9928 3.90828)
(131.454 253.677 47.5734)
(391.066 529.802 109.044)
(47.0402 60.2339 12.6686)
(269.826 316.564 17.2933)
(140.997 173.936 65.598)
(68.7051 141.525 46.6384)
(199.985 297.235 142.926)
(3.3474 4.43041 1.55062)
(323.601 453.589 162.233)
(17.7732 22.5587 7.56082)
(46.4885 56.324 26.219)
(0.021465 0.0474739 0.0100042)
(1.85432 7.52103 1.77865)
(0.126034 0.221064 0.0594023)
(0.00610182 0.0503745 0.0104699)
(0.663816 1.1536 0.283836)
(0.0349791 0.252653 0.0488878)
(0.00416583 0.00946438 0.00219166)
(0.88634 1.1857 0.453259)
(64.3608 103.809 53.0116)
(0.433507 0.597538 0.22718)
(0.1788 0.716709 0.218309)
(6.93875 8.4434 3.89799)
(8.32763 16.5683 6.90434)
(0.0561285 0.0825305 0.027118)
(0.203884 0.301771 0.0665979)
(0.0370013 0.16174 0.0295382)
(0.619775 1.51419 0.240098)
(0.00621972 0.0101672 0.00146412)
(1.57542 3.68662 0.874665)
(0.0136495 0.0215912 0.00414841)
(0.0905853 0.139434 0.0220102)
(2.08724e-05 6.4863e-05 8.39341e-06)
(0.000966392 0.00663544 0.00103181)
(0.00027682 0.000579717 8.62463e-05)
(1.22237e-05 0.00012822 1.3449e-05)
(0.000612929 0.00122845 0.000179301)
(2.63646e-05 0.00026807 3.65546e-05)
(8.11214e-06 3.42316e-05 4.82339e-06)
(0.0173195 0.0277864 0.00659107)
(0.293576 0.730817 0.12252)
(0.00292093 0.00493292 0.000744595)
(0.00295784 0.0134693 0.00234425)
(0.0436979 0.068549 0.011236)
(0.119023 0.303454 0.0620367)
(0.0010787 0.00192483 0.000429901)
(0.00504954 0.00838401 0.00185874)
(0.000856354 0.00395717 0.000831937)
(0.00847899 0.0217721 0.00569978)
(6.21624e-05 0.000146725 4.17603e-05)
(0.0360527 0.0932567 0.0226887)
(0.000303396 0.000575579 0.000125433)
(0.00122095 0.0021178 0.000749187)
(1.65239e-07 2.29599e-06 4.65867e-07)
(2.18029e-05 0.000158273 3.12276e-05)
(2.45369e-06 8.64205e-06 2.32633e-06)
(8.13308e-08 1.49232e-06 3.27862e-07)
(1.30821e-05 3.28944e-05 6.584e-06)
(5.41679e-07 6.32172e-06 1.19742e-06)
(-2.52388e-07 1.03665e-06 3.04281e-07)
(-0.000447303 0.0451588 0.0171524)
(-0.193766 10.2767 4.13473)
(0.0374372 0.34491 0.107036)
(0.0876985 0.941875 0.379028)
(-0.00409188 0.435726 0.142791)
(-0.0174708 1.09019 0.464124)
(0.00339012 0.0388334 0.0140319)
(-1.54035e-05 0.00170165 0.000664858)
(0.00141183 0.0132581 0.00409089)
(-0.000103952 0.0164519 0.00533221)
(0.000116522 0.00147783 0.000553627)
(-3.81865e-05 0.00361618 0.00162858)
(0.00661405 0.0789389 0.0363898)
(-0.00014538 0.00550616 0.00308016)
(-1.0028e-05 0.000263229 0.000129624)
(-0.00128519 0.0868641 0.0419503)
(0.000241065 0.00327413 0.00142125)
(-6.39536e-06 0.000240402 0.000117265)
(-1.54154e-06 0.000137356 6.46539e-05)
(-4.88947e-06 1.58896e-05 7.37437e-06)
(4.72986e-06 0.000128255 5.88589e-05)
(-2.84519e-07 9.89443e-06 4.74966e-06)
(5.59179e-05 0.000131358 3.91525e-05)
(0.00136633 0.00360067 0.00107629)
(1.30622e-05 3.29132e-05 7.12891e-06)
(2.94668e-06 2.96525e-05 8.85041e-06)
(0.000211294 0.000394111 0.000112362)
(0.000144974 0.000479215 0.000172916)
(3.8441e-06 1.92113e-05 4.10879e-06)
(2.63843e-05 7.98634e-05 3.12822e-05)
(4.40193e-07 7.27019e-06 2.56045e-06)
(8.18226e-06 6.40712e-05 2.34218e-05)
(8.37387e-07 3.79162e-06 1.11506e-06)
(1.31494e-05 8.61924e-05 3.35156e-05)
(1.48152e-06 7.73382e-06 3.27569e-06)
(2.06166e-05 6.62505e-05 2.49074e-05)
(1.95022e-10 4.21565e-08 1.74033e-08)
(1.57662e-08 5.31881e-07 1.84286e-07)
(2.59105e-08 1.71373e-07 5.10589e-08)
(4.14168e-10 1.24545e-08 3.13456e-09)
(7.7987e-08 5.58783e-07 2.15685e-07)
(2.37798e-10 3.52344e-08 1.20593e-08)
(-1.95345e-09 1.2036e-08 5.46802e-09)
(2.17102e-07 9.89937e-06 3.55105e-06)
(3.66613e-08 3.6607e-07 6.11969e-08)
(1.82596e-09 9.34404e-08 2.99453e-08)
(3.90724e-07 9.9568e-06 3.20143e-06)
(1.61481e-08 1.05597e-07 3.50176e-08)
(1.64977e-07 2.4248e-06 1.11262e-06)
(6.68501e-08 2.33373e-06 1.07669e-06)
(7.94497e-10 7.94498e-09 6.56233e-09)
(4.15312e-10 8.89526e-10 3.84841e-10)
(7.71013e-09 1.47245e-08 1.03824e-08)
(5.6446e-09 1.65654e-07 1.14556e-07)
(3.26187e-10 5.37478e-09 2.9487e-09)
(6.31268e-10 5.64066e-09 4.41523e-09)
(3.95851e-11 2.55491e-10 1.00389e-10)
(1.63612e-06 5.21782e-06 4.56711e-06)
(3.38817e-08 4.75063e-07 3.34196e-07)
(1.20673e-06 6.84362e-06 6.27489e-06)
(6.64463e-08 2.96274e-07 1.89161e-07)
(6.87608e-09 1.26869e-07 4.87334e-08)
(3.85736e-07 2.62315e-06 1.72836e-06)
(1.48629e-08 1.22891e-07 4.38386e-08)
(8.26735e-11 1.6398e-09 7.32156e-10)
(-1.80192e-07 1.69861e-06 2.28066e-06)
(-2.47284e-09 9.85251e-08 8.79693e-08)
(414.308 700.226 45.9018)
(444.723 598.255 191.741)
(428.706 545.48 249.667)
(252.588 340.728 91.9806)
(209.42 285.739 82.9241)
(54.14 86.4227 43.6231)
(16.2817 125.426 66.8122)
(0.00843982 0.121352 0.0707788)
(16.0101 25.3536 13.568)
(0.0140643 0.02021 0.0146874)
(0.000500324 0.000997387 0.000737264)
(8.47836e-06 6.09918e-05 2.93993e-05)
(-0.000452875 0.00231456 0.00203502)
(0.000605929 0.00635901 0.00442609)
(-7.79474e-06 7.99339e-05 7.73862e-05)
(2.03956e-06 0.000124565 0.000108754)
(395.081 354.512 55.5017)
(371.542 821.417 44.9031)
(442.37 284.253 28.8435)
(434.356 684.912 52.791)
(390.588 799.375 25.4793)
(445.31 288.411 69.7278)
(383.501 352.99 26.9595)
(390.21 336.014 94.1455)
(438.432 643.318 107.24)
(405.347 662.69 145.439)
(399.332 284.673 165.268)
(404.214 741.094 66.4797)
(430.345 287.977 119.46)
(369.442 301.978 141.987)
(243.941 212.118 113.644)
(403.883 590.206 225.081)
(329.338 247.865 165.193)
(378.952 478.426 214.808)
(323.363 261.165 148.982)
(382.091 527.851 213.924)
(216.418 178.705 105.208)
(167.935 151.442 58.9962)
(310.066 406.311 141.444)
(305.003 425.298 119.911)
(81.9616 75.4281 21.8067)
(341.794 477.52 166.556)
(125.892 113.618 43.0254)
(122.77 110.159 34.6429)
(65.9201 54.8494 24.6023)
(273.595 378.104 110.9)
(55.7337 50.7859 15.984)
(163.925 231.213 81.5095)
(93.2226 82.1904 28.9421)
(239.743 331.953 117.591)
(34.1682 30.5346 11.6913)
(40.1456 29.7241 17.358)
(110.527 165.639 71.1546)
(132.935 196.035 110.205)
(6.13532 5.14012 2.69138)
(193.55 274.339 121.902)
(17.042 14.716 6.72879)
(19.5044 12.2701 9.11595)
(1.12383 0.540698 0.536594)
(72.8136 98.3752 67.0716)
(1.41308 1.16745 0.642303)
(2.35802 3.63023 1.99442)
(6.48365 3.52862 3.07691)
(21.497 23.0278 17.3113)
(0.182054 0.150179 0.095472)
(0.100495 0.0455673 0.0557049)
(0.206796 0.303683 0.191507)
(0.156466 0.135672 0.127308)
(0.00108075 0.000842876 0.000777279)
(2.26939 2.07184 1.74845)
(0.0156807 0.0128194 0.00980721)
(0.00687217 0.00303482 0.00407953)
(-12.8 231.599 149.021)
(36.5806 434.86 238.917)
(-5.88091 150.338 82.6606)
(1.80504 20.5605 10.2945)
(-25.6166 460.025 258.95)
(12.8342 219.556 139.443)
(-0.719622 23.2862 12.2835)
(-1.78243 38.3656 25.0203)
(0.136064 1.84985 0.957598)
(0.118214 2.65757 1.73686)
(-0.00290979 0.124785 0.0763413)
(1.69269 36.8621 23.46)
(-0.0490616 1.98668 1.07535)
(-0.101207 2.64589 1.79891)
(0.000113085 0.00118403 0.000315355)
(0.0111379 0.0182096 0.0104045)
(5.41751e-05 0.000181 5.19336e-05)
(1.95805e-05 8.60173e-05 4.15505e-05)
(0.000839071 0.00448071 0.000717572)
(0.000484536 0.00211096 0.000994064)
(7.19914e-06 4.50041e-05 1.03016e-05)
(0.00890484 0.132978 0.101429)
(-0.000192279 0.00638646 0.00456667)
(3.79287e-05 0.000300049 0.000227962)
(-0.00436699 0.133249 0.103484)
(0.000513669 0.0060429 0.00514027)
(-0.000238204 0.00584017 0.00512263)
(2.36093e-05 0.000319215 0.000249792)
(-7.38555e-06 5.03014e-05 5.60163e-05)
(5.96071e-09 1.33298e-07 1.32994e-07)
(7.2303e-08 1.62994e-07 1.89478e-07)
(8.24774e-09 2.25264e-06 3.17386e-06)
(-9.35974e-07 7.12928e-05 8.77839e-05)
(-1.91367e-07 3.02856e-06 3.14189e-06)
(4.07054e-08 4.11734e-06 3.7217e-06)
(9.04513e-07 3.93025e-05 4.94865e-07)
(-1.30853e-10 5.46855e-10 2.00985e-11)
(-3.20124e-10 2.448e-07 5.18023e-08)
(-6.91799e-12 1.64219e-11 2.75426e-12)
(-5.46765e-10 4.08207e-09 4.64605e-10)
(-7.93488e-13 1.85405e-12 2.37871e-13)
(-1.12492e-11 4.69432e-11 9.40879e-12)
(-1.20647e-14 3.1456e-14 5.2261e-15)
(8.96879e-10 2.28789e-08 1.22579e-08)
(-7.07643e-14 2.52554e-13 7.22549e-14)
(1.35728e-14 -1.3513e-15 1.2001e-14)
(-1.36428e-14 7.55227e-14 -1.21685e-15)
(8.85898e-05 0.00124534 1.68545e-05)
(0.000125165 0.000235292 1.06377e-05)
(3.1347e-06 5.46447e-05 9.87664e-06)
(4.07827e-05 9.7197e-05 1.62521e-05)
(-1.45741e-06 1.51451e-06 2.7839e-08)
(-7.99121e-10 1.56859e-09 8.65985e-11)
(-6.26265e-08 6.24189e-08 1.55691e-08)
(-1.45253e-10 2.50061e-10 4.07221e-11)
(4.4896e-07 7.73249e-06 1.73607e-06)
(4.35263e-06 1.34672e-05 3.28362e-06)
(1.52992e-09 2.14038e-07 2.22823e-08)
(6.09366e-07 2.96674e-06 3.6612e-07)
(-9.47371e-09 9.27257e-09 2.77738e-09)
(-1.35338e-11 1.40476e-11 3.90476e-12)
(6.43378e-10 1.0002e-07 1.18728e-08)
(2.28926e-07 1.25919e-06 1.44959e-07)
(-2.88662e-10 3.45092e-09 8.00086e-10)
(4.24102e-08 2.57214e-07 5.18461e-08)
(-6.78183e-11 9.07934e-10 1.72794e-10)
(5.97142e-09 2.9541e-08 7.50098e-09)
(-2.60748e-12 2.40019e-11 6.56949e-12)
(5.70135e-10 2.53453e-09 1.04937e-09)
(-1.07643e-10 1.26592e-08 2.03797e-09)
(4.54436e-14 9.84977e-13 -2.77089e-14)
(2.69998e-10 2.79715e-09 5.99723e-10)
(7.61786e-12 6.48887e-11 8.10066e-12)
(1.28335e-06 5.39577e-06 1.65205e-07)
(-6.24375e-09 2.67518e-08 1.28827e-09)
(1.32348e-08 1.34667e-07 3.70168e-09)
(5.80247e-09 1.68596e-06 2.92236e-07)
(5.21951e-07 2.84994e-06 3.81945e-07)
(-2.40839e-09 6.12047e-09 9.10476e-10)
(5.39225e-09 6.63222e-08 8.68702e-09)
(3.94934e-08 2.96832e-07 7.07993e-08)
(-3.2726e-10 5.73456e-10 1.17295e-10)
(3.93893e-10 7.33405e-09 1.38525e-09)
(-1.1322e-09 8.73636e-09 8.98296e-10)
(7.75258e-09 8.92493e-08 9.65597e-09)
(-1.13288e-10 1.81582e-10 2.54595e-11)
(9.24508e-11 2.41745e-09 2.46953e-10)
(2.54541e-09 3.22795e-08 3.69796e-09)
(-3.74877e-11 5.99032e-11 8.5475e-12)
(2.94222e-11 8.25496e-10 9.68317e-11)
(-5.32669e-11 1.87241e-10 4.31451e-11)
(5.27965e-10 6.95028e-09 1.16289e-09)
(-7.68267e-12 1.20095e-11 2.3099e-12)
(6.56184e-12 1.77272e-10 2.69513e-11)
(7.53615e-11 7.88196e-10 1.85344e-10)
(-7.94372e-13 1.25346e-12 3.54221e-13)
(8.96369e-13 1.95725e-11 4.40705e-12)
(-2.58618e-13 1.01207e-12 2.17876e-13)
(6.23335e-12 6.15936e-11 2.1491e-11)
(-4.54747e-14 8.26264e-14 2.56873e-14)
(6.87645e-14 1.40691e-12 4.43615e-13)
(1.39156e-09 3.37749e-09 2.41613e-09)
(-4.44044e-13 2.15144e-12 7.64939e-13)
(3.98377e-11 1.98376e-10 9.57602e-11)
(1.47393e-10 1.87045e-09 4.58935e-10)
(3.12371e-12 4.07608e-11 4.4031e-12)
(0.00202846 0.00549857 0.000711306)
(0.00382733 0.0369558 0.000564161)
(9.54806e-05 0.000327225 6.16791e-06)
(5.56309e-05 0.000797734 8.25783e-05)
(0.0024104 0.0239485 0.00258295)
(5.83391e-05 0.000206909 2.14806e-05)
(0.00321054 0.00874025 0.000136064)
(0.000666891 0.00182108 0.000299273)
(1.73606e-05 0.000268393 4.54149e-05)
(0.000143701 0.00167028 0.000315657)
(3.72327e-08 1.97208e-05 4.30295e-06)
(0.000766328 0.00823198 0.00145147)
(1.78881e-05 7.16632e-05 1.25925e-05)
(0.000127699 0.000386133 9.29743e-05)
(-3.2194e-09 2.97661e-09 5.32761e-10)
(-4.8911e-08 2.83297e-08 7.70726e-10)
(-7.85584e-08 1.27222e-07 2.00313e-09)
(-9.18549e-07 9.5222e-07 1.37398e-07)
(-3.26303e-08 1.98014e-08 4.22935e-09)
(-4.91181e-08 7.92024e-08 1.10477e-08)
(-5.10885e-09 4.65177e-09 9.20383e-11)
(-1.0059e-09 9.34012e-10 2.08837e-10)
(-2.99957e-07 3.07028e-07 7.13669e-08)
(-2.06323e-09 1.13955e-09 4.41577e-10)
(-3.60937e-09 5.5563e-09 1.58665e-09)
(-1.03756e-08 6.13736e-09 2.20588e-09)
(-1.559e-08 2.5107e-08 4.18156e-09)
(-2.17198e-10 1.82195e-10 5.7219e-11)
(2.12721e-06 9.39621e-06 2.10589e-06)
(1.9131e-05 0.000233147 5.48566e-05)
(7.20683e-08 2.69999e-06 7.00659e-07)
(5.13776e-08 1.2716e-06 2.37643e-07)
(1.74014e-05 5.31861e-05 1.40204e-05)
(2.75852e-06 3.54127e-05 7.20646e-06)
(-2.60124e-07 8.25102e-07 2.08945e-07)
(6.48896e-07 3.21799e-06 3.40365e-07)
(7.86523e-09 4.20994e-07 4.74228e-08)
(3.68691e-07 5.18864e-06 5.25194e-07)
(-7.2949e-08 1.89471e-07 3.13088e-08)
(8.0104e-07 1.05282e-05 1.28704e-06)
(-1.31518e-07 3.5261e-07 3.83452e-08)
(1.87086e-07 1.82739e-06 2.56316e-07)
(-7.38007e-12 4.75093e-12 1.45364e-12)
(-3.12524e-10 1.64627e-10 7.60658e-11)
(-5.41904e-10 8.06467e-10 2.12324e-10)
(-1.80654e-09 1.61284e-09 3.83181e-10)
(-3.3724e-11 2.69828e-11 9.15704e-12)
(-5.59535e-11 2.53223e-11 9.6973e-12)
(-1.18184e-10 1.50982e-10 3.2865e-11)
(-2.26971e-08 4.46422e-07 8.65189e-08)
(1.71979e-07 2.42327e-06 2.89746e-07)
(-5.51214e-08 1.15961e-07 1.32609e-08)
(-7.53187e-10 3.88049e-08 6.04743e-09)
(1.11092e-07 8.49087e-07 8.15875e-08)
(5.07179e-08 9.08371e-07 1.41012e-07)
(-3.03911e-08 5.86398e-08 1.19727e-08)
(-4.25115e-10 1.34167e-07 2.39428e-08)
(-4.15886e-10 1.16243e-08 2.17631e-09)
(4.83826e-10 6.73494e-08 1.48824e-08)
(-5.04932e-09 8.9368e-09 2.76633e-09)
(1.34431e-08 2.5786e-07 4.74732e-08)
(-1.30313e-08 2.36335e-08 4.74378e-09)
(-1.75596e-08 6.57498e-08 1.67734e-08)
(-1.7291e-09 1.14705e-08 2.05877e-09)
(2.35498e-10 1.6713e-08 2.9741e-09)
(-1.43434e-09 2.65433e-09 7.28643e-10)
(-2.81947e-11 4.88089e-10 8.48874e-11)
(-1.03322e-09 1.54077e-08 3.17823e-09)
(-7.71252e-11 8.97688e-09 1.53599e-09)
(-5.09526e-10 1.1296e-09 3.02986e-10)
(-5.02495e-11 2.27234e-09 7.75315e-10)
(-5.22009e-12 1.03444e-10 3.02063e-11)
(2.71752e-12 5.35568e-10 1.3473e-10)
(-3.94678e-11 6.74983e-11 3.02579e-11)
(3.05728e-13 2.02287e-09 6.36195e-10)
(-1.08058e-10 2.41931e-10 9.73599e-11)
(-1.36136e-10 5.82511e-10 2.28474e-10)
(1.06057e-10 4.30312e-10 -2.17524e-11)
(2.99852e-09 1.55447e-08 1.68243e-09)
(-3.14257e-12 5.0759e-10 5.93258e-11)
(1.53495e-10 3.90472e-09 9.13898e-10)
(2.01844e-10 7.68821e-10 5.42815e-11)
(1.31537e-09 5.4883e-09 1.3418e-09)
(2.61716e-11 2.76909e-10 -4.78022e-11)
(6.23936e-12 2.51589e-11 -7.00011e-13)
(2.8867e-13 2.16933e-11 1.73878e-12)
(6.49012e-13 2.20497e-12 -1.97543e-14)
(5.13762e-13 3.23936e-12 -2.28953e-12)
(1.1894e-11 4.06557e-11 2.04795e-12)
(1.68597e-12 1.4007e-11 -2.28156e-12)
(7.7978e-13 4.19543e-12 -2.31894e-12)
(2.57266e-06 1.20455e-05 1.78759e-07)
(-5.51791e-08 1.2528e-06 1.51837e-08)
(5.40012e-07 2.49591e-05 2.50722e-06)
(1.44557e-06 7.67339e-06 8.91657e-07)
(-3.90498e-08 7.8603e-07 8.56814e-08)
(-1.84069e-07 5.63597e-07 5.06592e-08)
(-1.52837e-07 7.16061e-07 1.67362e-08)
(-1.03349e-08 1.20323e-07 2.86485e-08)
(-1.45351e-09 8.19285e-09 1.64041e-09)
(-1.8568e-09 4.44993e-08 7.43275e-09)
(-1.71366e-08 4.40044e-08 9.77299e-09)
(-5.62313e-10 1.87249e-09 4.66527e-10)
(-5.492e-09 7.37311e-09 1.94448e-09)
(-1.48283e-08 2.17638e-08 5.40403e-09)
(-3.14821e-09 7.52345e-09 8.02686e-10)
(-1.29777e-10 2.26229e-10 2.32291e-11)
(-3.41079e-10 1.71804e-09 2.59388e-10)
(-2.40066e-09 4.6804e-09 8.82067e-10)
(-6.39072e-11 1.02477e-10 2.64572e-11)
(-7.90921e-10 9.96857e-10 2.3231e-10)
(-1.80736e-09 2.31011e-09 2.70572e-10)
(-7.77293e-11 1.7066e-10 4.51965e-11)
(-2.61553e-12 3.35615e-12 9.8139e-13)
(-5.41543e-12 2.37413e-11 4.28886e-12)
(-4.85541e-11 9.05588e-11 2.43515e-11)
(-1.06505e-12 1.52432e-12 4.96511e-13)
(-1.4534e-11 1.7854e-11 6.60153e-12)
(-4.17583e-11 5.28029e-11 1.41288e-11)
(2.0146e-09 1.33656e-08 6.87046e-09)
(2.38933e-12 1.02095e-09 4.65156e-10)
(8.38232e-11 5.15941e-09 1.41746e-09)
(-7.86792e-11 8.34244e-10 4.89266e-10)
(2.35415e-12 2.8575e-10 -6.25411e-12)
(-9.98439e-11 4.0792e-10 1.07842e-10)
(3.44986e-10 4.77655e-09 1.21782e-09)
(3.6561e-13 4.49463e-12 1.72462e-12)
(4.77286e-15 5.31493e-15 1.02058e-15)
(3.40287e-15 9.20638e-14 2.61165e-14)
(9.32696e-14 8.43242e-13 3.25477e-14)
(4.76246e-14 4.13427e-13 8.5859e-14)
(4.77286e-15 1.42251e-14 -2.49488e-15)
(0 6.05138e-15 -3.06499e-15)
(1.76524e-11 1.87089e-10 1.06274e-10)
(5.94086e-13 4.99493e-12 1.93676e-12)
(1.98205e-12 9.76722e-12 3.15265e-12)
(1.36665e-13 1.14761e-12 -4.80163e-13)
(1.52407e-07 8.24518e-06 1.33939e-06)
(-9.48942e-08 8.3326e-07 1.8527e-07)
(-6.85646e-09 5.67209e-08 1.32811e-08)
(3.98191e-07 2.67845e-06 3.64018e-07)
(-1.37626e-08 2.54876e-07 3.26842e-08)
(-1.13907e-07 2.46835e-07 3.32967e-08)
(-7.36753e-08 1.16872e-07 2.56367e-08)
(-1.48918e-09 1.64885e-08 1.69445e-09)
(-6.84771e-09 1.52011e-08 2.36131e-09)
(-2.07918e-10 4.42469e-10 7.65678e-11)
(-8.38111e-09 2.22988e-08 1.98233e-09)
(-3.81509e-10 8.26954e-10 7.14981e-11)
(-5.18208e-09 6.68906e-09 6.61296e-10)
(-2.38376e-09 3.08142e-09 5.89841e-10)
(-1.1446e-10 5.49706e-10 1.00734e-10)
(-4.80374e-10 8.30589e-10 2.08204e-10)
(-1.1255e-11 1.44611e-11 5.62293e-12)
(-7.06465e-10 1.59082e-09 2.87235e-10)
(-2.60237e-11 3.82435e-11 6.63067e-12)
(-3.8376e-10 4.87808e-10 8.604e-11)
(-1.46314e-10 1.8049e-10 5.60373e-11)
(-8.19076e-13 4.57329e-12 1.22683e-12)
(-3.48612e-12 5.45988e-12 2.05495e-12)
(-5.93956e-14 7.99416e-14 1.91145e-14)
(-5.53301e-12 1.34134e-11 4.91421e-12)
(-1.63338e-13 2.52948e-13 8.40678e-14)
(-3.01053e-12 3.71041e-12 1.50325e-12)
(-9.84708e-13 1.15076e-12 4.71486e-13)
(-1.10907e-12 4.52615e-11 1.836e-11)
(-8.54381e-12 1.18067e-11 6.0284e-12)
(-1.34612e-13 2.29796e-12 -1.26027e-12)
(-9.94372e-12 4.87374e-11 2.58269e-11)
(-1.67846e-13 1.29976e-11 -4.86773e-13)
(-9.10516e-12 2.51436e-11 6.48835e-12)
(-7.81939e-12 1.07048e-11 4.04367e-12)
(9.81258e-11 3.43575e-09 7.91332e-11)
(-3.85346e-12 1.25991e-11 3.71885e-13)
(-1.47623e-12 8.4324e-11 1.76408e-12)
(-4.40882e-11 1.33851e-10 2.32984e-11)
(3.07829e-11 1.40626e-09 2.09134e-10)
(-1.34838e-12 3.42792e-12 6.21795e-13)
(-2.30105e-12 3.22319e-11 4.91497e-12)
(1.38188e-12 1.86148e-10 2.75348e-11)
(-2.11994e-13 5.09733e-13 6.89181e-14)
(-1.72088e-13 4.74685e-12 5.83133e-13)
(-2.42444e-12 5.56226e-12 6.78758e-13)
(6.83668e-14 6.26367e-11 7.03858e-12)
(-7.41119e-14 1.83429e-13 2.0976e-14)
(-1.67801e-13 1.79142e-12 2.48879e-13)
(5.29876e-14 2.13573e-11 2.25389e-12)
(-1.6705e-14 5.18008e-14 3.06501e-15)
(-9.89926e-15 5.32297e-13 4.63508e-14)
(-1.51141e-13 3.4489e-13 5.27964e-14)
(1.15786e-14 4.47803e-12 6.75677e-13)
(-1.23741e-15 7.09575e-15 -3.19445e-22)
(-8.97121e-15 1.28366e-13 1.67068e-14)
(5.87769e-15 4.5668e-13 9.58486e-14)
(0 -7.29683e-21 3.56377e-15)
(0 7.0521e-15 4.15655e-15)
(0 -1.76915e-17 9.46182e-18)
(0 2.8705e-14 6.55332e-15)
(0 -4.28113e-20 3.75126e-15)
(0 3.00264e-16 3.82215e-15)
(-4.19835e-14 6.02169e-13 2.28147e-14)
(-1.08273e-15 2.67803e-14 2.92306e-15)
(0 -4.27498e-15 1.401e-18)
(0 -5.14549e-15 1.15596e-14)
(6.39461e-11 1.41716e-09 5.43093e-10)
(1.98681e-10 4.57131e-09 3.16331e-09)
(4.14146e-09 2.89042e-08 6.42127e-09)
(1.11988e-07 9.91208e-07 2.57151e-07)
(7.78989e-12 2.01473e-10 6.8925e-11)
(7.03573e-09 6.72706e-08 3.12993e-08)
(1.00132e-08 1.13732e-07 6.42636e-08)
(2.57453e-10 3.89705e-09 2.00843e-09)
(1.16657e-10 2.15546e-09 8.41228e-10)
(1.87551e-10 2.73477e-09 1.67701e-09)
(-3.3734e-11 1.79282e-10 4.44317e-11)
(5.29915e-09 1.09125e-07 9.33485e-08)
(1.04752e-07 1.99254e-06 2.35304e-06)
(5.18042e-06 5.99129e-05 5.9059e-05)
(2.75563e-07 2.93182e-06 1.99052e-06)
(3.05841e-07 4.94394e-07 1.85728e-08)
(1.80914e-08 3.29325e-08 6.95094e-09)
(2.02242e-09 3.91892e-09 5.78026e-10)
(4.92306e-11 9.1042e-11 2.63706e-11)
(3.2803e-14 1.08463e-13 -3.96577e-16)
(2.87943e-13 6.94956e-12 1.9106e-12)
(9.93842e-11 7.35801e-10 1.40039e-10)
(2.23361e-12 1.8056e-11 4.1123e-12)
(1.71044e-08 2.196e-08 7.6219e-10)
(8.49831e-09 1.76418e-08 5.23031e-10)
(5.15215e-10 8.7337e-10 2.76441e-11)
(1.47191e-07 2.30328e-07 4.15584e-08)
(6.7764e-09 8.49717e-09 2.03099e-09)
(3.46035e-09 7.17342e-09 1.33119e-09)
(1.71205e-10 3.45817e-10 6.98146e-11)
(1.08305e-09 1.44165e-09 2.59103e-10)
(4.67331e-10 1.08551e-09 1.73084e-10)
(3.13714e-11 5.74525e-11 8.80289e-12)
(5.95344e-09 1.14053e-08 1.4389e-09)
(3.75213e-10 5.14895e-10 1.02208e-10)
(1.60555e-10 3.82127e-10 6.05249e-11)
(1.04315e-11 2.30394e-11 4.43312e-12)
(1.27751e-10 1.73424e-10 2.32606e-11)
(5.32431e-11 1.27738e-10 1.52951e-11)
(3.71134e-12 6.75364e-12 8.21209e-13)
(4.38627e-10 8.54828e-10 1.63663e-10)
(2.85872e-11 4.07772e-11 1.14583e-11)
(1.18042e-11 2.83946e-11 6.33329e-12)
(7.13675e-13 1.83722e-12 4.5564e-13)
(2.75758e-12 3.61283e-12 1.33171e-12)
(1.18549e-12 2.74943e-12 7.75348e-13)
(6.92506e-14 1.26511e-13 4.98323e-14)
(3.51598e-12 6.17657e-12 2.59255e-12)
(1.70809e-13 2.25871e-13 1.12266e-13)
(7.13732e-14 1.7885e-13 6.39283e-14)
(9.28056e-16 1.0358e-14 1.16785e-14)
(-1.83988e-14 9.17247e-13 -4.10908e-13)
(9.29345e-12 1.29681e-10 6.18589e-11)
(1.92996e-12 5.82882e-11 1.86431e-11)
(1.44467e-13 3.79341e-12 1.55004e-12)
(-2.77034e-12 4.59357e-12 1.09724e-12)
(-3.01658e-12 8.31074e-12 1.2969e-12)
(-2.8943e-12 4.00789e-12 3.21016e-13)
(4.67384e-11 1.40913e-10 7.78494e-12)
(2.73143e-12 8.98318e-12 1.4196e-12)
(2.7678e-13 9.16547e-13 1.17403e-13)
(6.74796e-15 1.63315e-14 4.95469e-15)
(0 -5.77701e-15 -9.92446e-15)
(0 4.84124e-15 1.92021e-16)
(0 0 0)
(0 0 7.08886e-19)
(0 0 0)
(0 0 5.24606e-21)
(0 0 0)
(0 0 2.31673e-18)
(0 0 0)
(0 0 -3.5867e-18)
(0 0 -1.17823e-19)
(0 -5.49837e-15 1.00584e-15)
(0 0 0)
(0 0 0)
(0 0 0)
(1.07616e-09 1.76655e-09 1.08425e-10)
(7.3325e-11 1.24141e-10 2.38326e-11)
(7.82711e-12 1.32715e-11 2.08958e-12)
(1.72936e-13 2.93519e-13 1.64939e-13)
(9.82745e-13 2.18178e-11 3.97368e-12)
(1.07168e-14 3.35551e-13 5.1708e-14)
(0 3.05058e-15 3.03867e-15)
(0 0 0)
(0 0 0)
(0 0 0)
(-151.546 594.186 364.366)
(-29.8374 573.403 404.755)
(-59.9162 587.546 407.899)
(-32.416 597.134 361.991)
(-61.6091 617.375 369.475)
(-38.5184 500.989 330.502)
(-18.4729 574.382 339.936)
(-49.29 592.808 348.912)
(-14.9338 490.748 323.163)
(6.49278e-17 2.41036e-16 1.59613e-14)
(1.08273e-15 1.54696e-14 0)
(0 0 0)
(0 1.54676e-16 8.13034e-17)
(0 0 0)
(0 0 1.40238e-18)
(0 0 0)
(0 0 1.26114e-17)
(0 0 0)
(0 0 -1.22422e-17)
(0 0 -4.15434e-19)
(2.63752e-13 1.62147e-12 5.59433e-14)
(1.81045e-14 1.21582e-13 2.02311e-14)
(1.54695e-15 8.89919e-15 5.38091e-16)
(1.50776e-16 3.06314e-17 8.66154e-17)
(1.07066e-25 9.73369e-20 -9.50446e-17)
(-0.210666 0.386869 0.715946)
(-9.33524e-12 1.46549e-11 2.4144e-12)
(-1.52279e-10 3.0042e-10 1.81532e-10)
(-6.64124e-10 1.45675e-09 6.26694e-10)
(-7.62655e-09 1.45196e-08 9.07859e-09)
(-1.70134e-10 1.17356e-10 5.11402e-11)
(-5.19043e-10 5.69908e-10 2.71417e-10)
(-3.32786e-11 6.54964e-11 1.66195e-11)
(-1.79221e-11 4.87829e-11 -5.58171e-13)
(-1.07837e-11 8.93582e-12 2.73463e-12)
(-4.59675e-12 8.49635e-12 3.31039e-12)
(-0.00165415 0.00118136 0.000180405)
(-0.000288098 0.000218178 5.49181e-05)
(-1.2784e-05 1.32392e-05 5.0597e-06)
(-6.30562e-07 5.58562e-07 3.2054e-07)
(-1.23458e-07 8.95116e-08 2.55888e-08)
(-2.72496e-08 1.81219e-08 6.10787e-09)
(-1.14128e-09 8.57646e-10 7.14892e-10)
(-4.66356e-11 2.90703e-11 2.93054e-11)
(-5.32244e-12 3.25073e-12 1.87814e-12)
(-6.91225e-13 7.43345e-13 -1.82977e-13)
(-2.65951e-07 4.92953e-07 1.70006e-07)
(-1.51502e-07 3.04564e-07 9.32277e-08)
(-1.45055e-06 2.78344e-06 3.14617e-07)
(-1.10389e-07 2.31452e-07 1.95497e-08)
(-3.33395e-08 7.03342e-08 8.60997e-10)
(-6.37522e-08 9.99526e-08 9.01694e-09)
(-2.33854e-08 3.58358e-08 -4.13121e-09)
(-7.7515e-09 1.40486e-08 -9.05905e-09)
(-4.53164e-09 8.43713e-09 9.61147e-11)
(-212.333 710.551 289.989)
(-200.699 677.193 200.357)
(-212.112 790.148 369.927)
(-121.877 412.282 103.414)
(-184.723 614.265 209.562)
(-89.8734 295.363 78.9289)
(-125.53 359.541 189.102)
(-253.093 750.727 370.63)
(-183.844 715.542 358.314)
(-192.302 697.95 321.203)
(-209.14 640.677 335.52)
(-217.091 638.251 306.939)
(-132.296 476.388 239.337)
(-14.344 43.5095 25.071)
(-120.446 367.231 237.658)
(-106.6 267.337 167.791)
(-31.026 102.977 59.7298)
(-36.6039 107.365 40.3265)
(-158.67 559.069 192.93)
(-106.747 293.188 74.8797)
(-22.8371 79.7941 19.3764)
(-160.433 455.559 162.97)
(-61.8109 208.669 77.3707)
(-9.60279 31.6326 7.09006)
(-1.34297 5.00801 1.7791)
(-0.866439 3.70149 0.705906)
(-3.36875 13.5781 4.99952)
(-0.335118 1.31767 0.240772)
(-1.16902 4.57019 1.03672)
(-66.3618 180.378 48.2963)
(-8.81721 33.4703 7.50244)
(-54.5029 176.37 58.4393)
(-3.64676 13.0867 2.63802)
(-30.8382 87.8934 27.5617)
(-2.98276 12.5712 3.11092)
(-0.0405191 0.173199 0.0361339)
(-0.324643 1.44637 0.268434)
(-0.127982 0.520415 0.0911391)
(-0.104434 0.495695 0.108407)
(-158.723 1107.24 59.0125)
(-154.474 823.772 365.421)
(-84.8902 390.094 103.24)
(-0.808087 4.4963 1.74413)
(-3.82841e-06 8.9103e-05 5.38949e-05)
(280.633 992.901 51.6968)
(-154.909 921.47 309.868)
(264.478 846.001 252.31)
(241.069 761.16 305.54)
(-104.639 498.603 123.264)
(118.239 440.365 99.8539)
(90.7125 348.846 85.2837)