/*--------------------------------*- C++ -*----------------------------------*\
  =========                 |
  \\      /  F ield         | OpenFOAM: The Open Source CFD Toolbox
   \\    /   O peration     | Website:  https://openfoam.org
    \\  /    A nd           | Version:  9
     \\/     M anipulation  |
\*---------------------------------------------------------------------------*/
FoamFile
{
    format      ascii;
    class       volScalarField;
    location    "0.0031";
    object      impulse;
}
// * * * * * * * * * * * * * * * * * * * * * * * * * * * * * * * * * * * * * //

dimensions      [1 -1 -1 0 0 0 0];

internalField   nonuniform List<scalar> 
26899
(
187.793
157.549
113.974
137.176
19.1986
53.6049
201.682
178.881
206.004
216.598
220.583
184.424
196.873
195.69
204.4
211.306
138.479
154.001
170.062
181.667
221.964
228.15
226.817
209.692
216.141
214.849
208.344
218.761
222.956
225.052
211.051
213.122
206.543
204.375
214.132
217.903
220.585
208.653
205.888
201.849
198.905
213.674
207.478
215.103
192.938
194.436
202.527
201.109
43.6304
54.2139
145.401
174.268
129.067
170.664
122.192
203.715
182.589
189.996
188.598
202.403
195.486
181.097
208.088
211.406
214.863
199.025
202.698
195.487
191.554
209.552
204.048
211.804
188.48
190.935
199.209
196.909
198.497
186.733
200.641
193.632
176.629
191.358
179.107
247.392
293.119
276.967
214.704
262.943
219.102
283.692
248.739
239.237
251.145
222.943
236.45
208.806
241.726
258.41
223.61
290.546
286.596
272.955
284.098
270.831
266.855
264.774
287.355
277.45
265.091
281.008
268.161
262.153
259.11
261.832
275.864
269.724
279.819
273.643
255.813
252.351
269.153
279.349
271.415
252.614
260.085
258.045
250.615
253.478
240.696
255.194
234.625
249.215
247.506
233.141
270.524
273.969
266.278
255.439
245.007
248.011
252.423
235.117
237.339
251.277
245.297
228.955
242.747
231.214
254.851
267.714
271.824
265.703
261.593
248.717
244.908
238.182
255.487
259.328
262.928
266.817
249.132
245.639
226.439
229.941
232.665
243.055
246.008
239.954
236.919
226.463
220.623
227.958
235.371
242.644
233.648
240.937
251.515
254.822
258.931
230.375
238.023
234.396
241.933
239.875
226.916
223.557
230.043
216.895
220.452
233.628
222.197
217.1
224.51
231.399
228.781
238.703
236.122
216.604
211.954
219.578
225.851
222.605
233.274
230.139
215.04
219.015
209.484
201.229
205.246
213.259
226.713
203.939
206.955
198.902
185.577
194.211
191.034
182.173
132.895
20.5481
38.594
156.777
104.998
164.947
111.74
195.961
178.399
192.997
173.65
188.653
185.467
170.095
196.566
192.005
200.489
187.367
173.648
183.16
178.232
180.474
189.184
164.559
162.801
174.163
187.706
172.554
185.524
174.552
189.549
181.732
161.087
177.42
165.938
174.137
176.76
160.466
185.728
167.715
183.292
170.405
42.0158
165.365
117.909
132.455
181.085
172.874
191.243
124.093
124.185
188.336
185.856
182.817
175.038
171.736
168.911
165.414
175.193
156.419
163.334
184.968
179.289
167.864
161.279
179.777
169.433
176.577
153.83
161.907
158.143
149.731
217.657
248.356
212.274
228.758
243.55
233.85
191.288
207.567
209.823
177.943
228.32
196.15
223.865
241.286
188.69
205.285
247.124
243.983
242.713
236.48
235.284
232.145
230.938
245.533
239.039
241.054
231.871
233.76
229.354
227.412
238.77
236.774
229.689
234.249
227.24
225.212
222.731
239.131
232.542
237.838
221.99
227.319
226.091
220.737
230.811
234.108
236.141
224.461
217.058
222.492
219.065
224.637
211.081
223.467
207.613
220.225
219.028
206.386
232.889
235.97
231.437
221.418
224.504
219.946
216.773
209.513
220.072
221.95
217.454
202.748
215.528
204.755
226.454
231.837
229.29
214.762
220.265
217.726
212.132
217.885
202.651
215.404
200.393
213.297
210.751
197.663
196.561
202.401
215.305
214.084
195.237
208.568
201.133
220.952
223.27
226.455
214.844
205.662
211.551
209.12
212.45
204.833
197.356
193.468
210.471
206.879
199.439
209.387
199.624
212.594
207.844
190.855
204.501
194.503
347.287
383.394
266.513
383.06
334.288
320.581
360.598
366.189
308.752
320.679
401.63
384.852
394.793
382.647
370.266
376.214
367.405
303.751
333.882
290.652
353.121
361.014
304.178
316.097
261.778
298.333
302.129
293.249
260.823
299.802
269.74
373.378
367.108
355.279
374.015
361.646
360.501
354.109
389.387
375.557
380.152
363.767
370.371
363.481
357.766
359.572
329.532
351.176
330.676
354.337
348.417
326.768
356.164
360.794
349.789
354.545
344.559
347.892
341.895
368.141
365.219
372.475
357.138
345.228
350.608
351.665
325.275
339.644
345.099
342.997
317.803
337.372
322.545
303.516
291.181
303.081
300.781
289.008
289.189
286.574
351.517
335.274
343.705
348.838
339.674
336.313
331.283
358.065
346.004
351.078
338.799
344.091
337.781
332.579
334.436
311.682
329.394
313.042
331.717
326.273
308.433
342.519
326.108
348.857
343.975
317.198
338.077
322.548
300.34
295.815
298.341
283.827
286.525
283.831
280.927
301.836
296.471
298.891
283.469
286.561
283.735
280.539
264.358
278.651
276.402
264.041
276.289
273.71
261.598
338.838
313.217
327.767
313.761
333.214
333.156
318.401
320.511
307.592
324.757
321.253
299.974
316.623
304.107
339.116
339.589
344.766
331.963
321.481
326.675
326.814
1065.59
308.515
356.181
435.625
468.525
152.336
433.348
430.791
322.961
385.743
327.282
601.613
492.644
311.286
635.761
892.155
485.96
356.392
400.014
392.178
412.645
385.59
349.995
372.776
371.562
266.233
278.083
186.493
188.897
210.223
301.551
308.597
406.441
182.76
289.807
218.075
343.671
336.039
434.158
572.613
594.642
935.16
1018.97
577.561
593.04
894.619
350.076
279.517
231.376
285.443
242.303
319.343
352.714
256.041
302.202
254.164
333.84
382.21
355.88
353.016
282.12
443.598
391.175
429.009
390.453
468.401
498.5
306.115
306.461
272.613
338.245
356.095
346.771
358.4
333.916
383.167
336.597
378.329
385.899
417.087
400.299
441.623
392.363
379.28
385.265
453.87
409.34
426.261
554.383
512.99
421.646
504.983
446.548
508.138
553.597
959.732
588.321
583.676
590.597
788.477
587.758
844.607
356.751
365.109
344.173
376.539
348.821
364.543
367.001
436.935
388.786
411.859
385.856
416.915
415.629
399.926
821.977
602.115
732.437
595.89
705.559
593.601
789.351
345.543
363.868
371.847
366.05
376.827
384.162
372.477
386.103
438.977
410.43
403.825
414.403
382.297
412.602
413.626
394.102
395.457
409.153
418.535
399.99
393.631
378.737
398.431
389.248
372.821
370.327
399.621
385.214
589.177
671.715
702.982
570.864
581.495
582.638
748.132
492.496
465.008
461.148
521.005
543.255
528.7
548.441
426.996
415.466
408.653
426.686
426.77
407.39
409.769
358.751
349.629
359.215
358.265
366.265
358.02
363.772
398.056
377.225
390.523
391.272
385.113
380.304
395.895
379.599
370.509
380.144
385.351
374.931
376.331
382.508
414.185
405.055
417.491
401.71
390.072
401.302
393.011
365.943
363.442
363.927
369.051
370.616
366.298
363.319
353.233
359.797
359.293
360.856
359.365
362.366
360.935
369.384
376.125
372.906
370.757
365.626
367.696
368.99
389.372
381.204
381.096
375.527
380.48
390.431
383.473
360.357
359.875
362.419
362.51
353.141
358.845
357.993
372.339
368.103
373.045
366.584
356.87
364.649
361.03
341.744
1462.56
308.556
174.255
1425.15
147.609
126.332
1199.23
118.451
1013.51
255.335
80.6889
174.762
85.0069
232.473
98.796
229.605
279.075
115.129
58.1254
53.6131
61.2568
135.515
151.558
69.1208
84.1114
61.1385
60.3312
63.4271
88.034
66.2068
89.3356
1450.41
425.513
406.144
1402.41
441.064
462.047
1377.97
167.13
123.295
119.091
184.707
128.159
127.242
178.255
464.83
984.723
724.972
1304.59
222.505
933.332
341.563
346.772
310.232
400.934
102.604
192.198
309.212
311.877
100.395
88.5621
67.8561
99.4754
77.2587
99.5024
122.609
179.19
91.1747
70.0205
180.009
121.949
222.311
88.5937
74.8772
129.794
100.969
112.034
79.9455
105.709
142.947
81.0667
229.55
171.945
193.141
139.637
257.566
94.2539
453.829
1378.26
488.508
491.53
1272.59
525.363
1336.54
134.771
167.335
122.225
136.912
193.8
158.117
180.111
203.996
180.009
146.083
148.455
229.186
184.38
196.949
1315.03
534.161
487.091
505.789
1152.75
546.637
1277.63
230.606
171.621
182.601
367.757
287.063
304.693
123.413
141.362
152.755
99.1083
125.939
231.012
165.309
177.191
124.849
174.309
171.52
283.022
282.821
359.549
247.467
123.852
143.278
141.059
164.698
163.57
224.024
220.604
163.658
227.27
245.228
248.153
192.741
206.58
203.004
158.166
221.76
190.602
222.411
190.185
238.941
266.6
530.827
1145.6
1089.17
579.382
557.673
563.739
1221.19
525.872
1206.93
1186.03
561.478
558.75
587.498
1086.58
436.647
249.359
359.838
436.606
411.161
492.383
341.658
246.652
434.24
359.658
434.451
406.467
487.892
338.808
288.975
221.687
224.67
288.984
364.504
332.504
310.213
220.55
288.573
223.647
286.344
359.768
306.812
328.976
266.829
290.055
239.335
290.069
328.262
321.788
308.57
605.504
1096.67
589.857
605.493
889.285
611.159
984.909
1057.04
592.436
582.211
600.193
859.208
600.578
966.844
268.672
291.857
239.896
288.559
329.269
320.923
307.914
490.943
444.425
539.236
441.272
523.346
520.164
408.864
330.872
369.69
385.47
382.674
353.889
362.229
351.963
608.22
600.425
803.436
790.392
609.005
603.471
881.894
321.162
338.073
349.76
338.65
336.804
336.5
328.184
348.18
345.334
350.034
391.244
233.879
324.388
209.36
386.404
280.873
318.968
366.727
218.553
283.134
237.867
261.764
223.537
282.223
266.136
350.914
358.083
335.797
351.603
306.572
335.569
362.553
208.484
248.031
247.687
231.507
218.685
261.798
278.801
382.204
363.86
335.492
351.22
342.729
363.209
321.983
372.204
353.169
321.399
344.979
302.065
312.92
366.694
334.197
251.563
296.6
278.803
240.868
289.42
334.751
297.213
342.981
290.95
314.616
358.212
328.201
362.904
272.946
295.122
245.811
298.596
350.349
320.882
342.4
269.905
262.172
226.47
264.495
310.852
304.448
336.867
414.97
349.126
399.387
345.9
395.144
379.537
389.091
385.114
408.212
401.576
396.527
392.159
407.082
388.417
348.311
339.35
318.082
352.956
343.763
350.138
352.414
338.399
313.957
314.708
349.993
306.96
358.735
317.953
345.946
331.083
304.195
339.861
331.091
345.935
350.219
307.845
351.809
340.357
341.755
331.289
347.34
352.698
348.141
362.476
377.134
363.923
353.142
371.109
374.923
376.591
354.363
360.439
378.914
375.365
367.075
349.312
400.139
410.092
415.736
389.378
395.508
380.239
374.044
347.672
380.466
383.888
339.268
369.919
363.24
335.268
344.297
335.523
339.18
349.944
348.459
341.24
340.454
348.27
354.515
353.56
353.536
356.731
356.616
354.487
345.806
346.647
340.113
350.736
357.453
354.079
355.261
357.366
360.397
354.549
355.609
361.08
360.135
356.852
317.896
327.026
352.217
346.114
319.235
334.258
324.894
360.056
372.565
374.724
362.061
353.925
350.726
361.236
338.071
365.836
372.943
357.036
330.844
353.378
332.219
341.527
346.577
350.352
351.845
350.328
341.516
341.828
354.335
355.759
353.1
349.309
346.159
344.272
345.582
357.526
358.345
360.573
359.955
359.287
360.679
357.904
325.698
314.782
326.444
317.157
329.893
329.211
315.679
344.164
321.381
326.185
339.648
337.129
345.043
325.273
351.775
352.989
352.762
342.711
338.412
340.706
341.889
363.555
367.214
364.281
363.861
358.808
360.549
363.398
314.677
327.599
328.859
328.863
312.023
327.906
313.967
318.355
335.246
333.696
331.206
314.033
331.108
315.43
361.051
349.044
352.442
350.065
356.14
358.073
354.642
328.742
309.695
323.706
310.417
326.18
327.257
312.533
268.97
264.457
295.914
314.897
268.927
304.723
303.254
272.307
320.165
317.906
312.87
311.189
294.179
295.588
294.086
292.726
307.415
305.1
307.295
293.554
293.053
291.422
312.47
309.415
310.13
292.528
294.404
293.057
291.021
280.696
269.124
280.938
268.759
281.011
280.677
268.335
304.711
306.595
307.393
291.49
286.352
289.256
289.008
268.092
280.261
280.953
279.93
266.039
278.434
267.486
267.204
277.486
279.955
279.073
263.298
276.242
266.338
322.343
309.041
327.568
322.12
299.66
317.046
304.438
295.975
290.054
293.079
280.833
274.466
277.815
277.573
259.693
263.224
275.744
277.726
261.734
274.553
265.05
258.82
270.912
273.799
270.913
255.725
267.886
258.819
257.279
260.939
273.276
270.555
254.62
266.97
258.336
316.949
295.669
307.094
295.144
312.134
311.953
299.98
248.563
252.32
264.531
267.666
251.703
264.02
255.454
286.683
260.719
310.279
298.775
289.148
300.86
240.782
255.559
246.264
278.314
229.545
244.438
285.266
297.153
248.665
253.143
307.646
307.413
304.721
289.922
288.149
286.667
284.714
304.51
297.706
301.453
283.012
285.836
282.222
279.328
293.607
293.882
280.032
290.176
277.038
276.288
273.173
303.565
296.092
300.816
278.329
282.855
280.786
276.194
274.008
259.402
272.566
256.309
269.963
268.42
254.932
290.13
282.793
286.496
270.73
273.966
269.946
266.569
292.847
293.75
297.509
278.188
270.456
275.206
273.519
257.691
268.372
270.701
266.432
250.992
264.024
253.157
289.907
281.356
286.111
267.216
272.036
268.781
263.869
265.758
250.48
262.954
248.577
261.366
258.54
245.944
251.46
260.609
265.501
263.86
244.832
258.915
250.052
261.78
254.244
246.055
242.974
259.313
256.755
248.23
273.289
282.27
277.35
265.414
256.803
261.929
260.407
256.773
247.576
259.966
255.561
239.911
252.356
243.052
235.714
251.551
238.367
243.647
256.637
253.801
241.018
242.263
245.57
232.788
250.775
234.968
247.538
238.13
202.434
194.896
208.183
205.534
185.652
199.652
192.027
202.487
192.686
184.827
182.098
198.968
196.425
188.695
533.607
473.251
368.235
496.925
537.583
480.644
474.273
524.577
542.949
490.946
461.692
392.612
380.402
398.16
455.441
471.438
394.576
540.447
536.73
542.026
535.349
539.946
540.245
539.063
364.885
320.128
333.97
313.662
374.67
368.941
322.863
520.181
494.478
517.964
490.835
515.016
513.185
489.043
537.782
533.554
537.859
536.064
535.397
529.085
539.144
540.528
541.119
542.611
538.79
540.384
535.266
541.098
439.493
474.117
444.766
471.156
443.323
470.225
445.909
404.936
383.894
412.098
384.507
412.055
417.32
388.935
485.484
505.04
510.244
508.142
479.162
484.167
502.162
492.574
513.774
516.023
511.265
486.319
508.529
487.871
353.314
364.913
365.261
351.552
351.849
365.931
350.445
532.269
530.976
515.271
534.117
526.429
522.905
537.941
473.34
449.434
447.982
466.621
468.646
447.225
447.316
505.545
477.181
493.729
480.948
501.987
482.932
498.491
467.031
442.143
443.989
459.705
465.208
444.698
441.458
343.75
329.71
340.302
329.197
340.238
337.503
325.308
418.159
389.272
416.643
419.627
394.976
393.021
419.592
389.275
422.729
418.509
421.224
397.612
423.688
393.712
366.146
350.504
350.681
371.771
368.459
349.814
350.338
366.262
348.894
350.353
370.435
368.159
349.248
348.986
457.87
461.423
463.408
444.579
438.357
443.635
440.222
333.93
324.514
337.16
334.805
317.487
321.234
332.072
326.041
336.179
337.92
335.524
319.641
334.077
322.124
421.773
396.919
419.693
398.725
422.757
396.306
420.213
372.67
373.822
371.051
349.593
351.806
351.031
350.213
534.055
583.965
470.198
506.23
367.106
403.26
343.99
541.193
599.932
585.451
542.861
501.861
588.509
500.445
419.133
492.763
448.038
396.236
476.902
450.298
394.305
359.846
433.027
392.647
343.566
381.494
389.259
367.258
545.486
524.789
572.791
550.552
592.69
574.676
530.858
665.867
643.13
588.252
622.156
596.459
581.921
602.422
463.632
471.204
443.219
501.009
467.846
449.83
482.611
499.357
537.587
482.468
537.705
494.934
566.895
499.84
464.118
390.207
379.233
391.443
472.879
452.227
386.233
441.155
421.907
428.43
436.598
449.571
432.9
421.064
615.539
560.067
573.833
565.75
559.589
552.228
579.959
507.715
546.487
558.133
556.066
507.937
542.073
515.587
455.875
419.325
427.998
437.311
466.674
470.887
430.944
366.122
323.487
338.97
337.898
375.609
379.894
359.028
405.717
403.369
413.122
420.26
398.265
411.392
408.198
415.654
421.879
408.065
424.781
411.169
412.795
401.631
589.553
596.571
592.853
576.955
568.586
573.984
579.066
550.403
550.734
543.912
545.581
544.159
540.007
537.03
574.217
548.306
585.873
567.017
525.552
556.762
531.218
400.899
385.182
395.931
388.848
399.134
391.203
381.308
468.346
505.696
468.037
454.274
493.041
457.246
490.969
538.621
500.819
532.615
503.865
532.828
525.94
500.498
375.373
314.142
290.6
289.078
329.698
353.974
302.931
560.772
553.73
548.126
545.886
558.882
548.772
560.681
438.647
427.948
444.641
431.601
410.068
428.591
416.243
416.277
457.754
418.077
466.587
428.848
430.368
468.189
397.761
381.479
395.466
390.641
405.31
402.271
385.548
539.481
539.827
540.37
538.649
532.515
538.915
532.75
548.633
511.598
527.935
507.681
540.074
534.991
516.855
408.085
384.063
397.372
382.795
398.679
389.606
375.334
413.895
395.382
403.586
388.519
400.849
391.964
381.616
421.593
402.612
416.759
398.389
421.495
414.376
406.529
444.95
482.832
445.901
475.763
449.794
480.758
440.209
542.668
537.427
542.464
539.638
536.134
539.911
533.6
375.632
373.093
380.271
367.645
372.266
373.729
364.553
375.679
377.863
387.385
380.704
359.964
371.815
367.756
523.303
500.843
527.471
520.874
493.543
517.361
496.911
431.788
464.575
423.841
434.515
471.201
439.464
470.271
388.225
385.938
394.363
383.45
368.406
374.963
375.051
520.289
501.218
526.196
520.005
489.444
514.926
495.758
538.672
534.948
536.247
536.564
538.39
538.104
533.064
398.889
379.386
395.723
402.779
382.252
406.58
382.771
443.886
473.106
438.551
439.146
469.585
442.799
471.607
374.855
371.489
387.018
379.499
354.703
368.865
365.185
414.173
391.935
409.919
408.35
388.802
413.762
387.283
368.369
365.621
355.859
350.41
359.419
346.938
342.06
368.664
356.532
361.306
366.544
369.276
358.649
354.491
368.825
351.403
360.74
352.371
363.36
355.769
345.327
515.606
487.717
507.752
485.304
512.528
510.924
491.13
378.75
362.45
367.393
370.872
372.927
360.931
357.324
361.286
338.588
344.673
346.314
352.997
336.794
331.193
371.953
349.276
356.55
351.887
362.761
364.322
358.653
440.859
468.648
442.409
466.65
442.616
442.451
470.178
409.755
416.525
386.157
388.512
413.108
414.874
385.261
348.32
344.72
353.912
349.432
333.712
344.214
339.106
366.333
367.795
368.781
356.088
350.346
352.604
353.256
354.936
339.594
349.653
327.42
337.386
333.112
323.709
350.491
345.236
357.081
350.437
332.521
344.938
338.98
335.23
310.941
331.106
306.983
327.221
323.473
303.977
334.83
338.149
344.059
328.407
314.884
319.516
323.314
307.172
321.431
326.481
319.201
296.342
314.51
300.407
481.738
355.129
656.686
544.528
503.304
604.117
825.758
487.473
411.519
417.691
463.826
375.161
432.164
364.67
378.051
336.62
488.577
440.358
516.972
447.41
518.785
531.729
461.27
334.56
382.779
352.593
390.916
361.315
370.85
400.146
592.082
766.052
594.555
735.159
585.999
582.808
686.622
327.64
341.416
338.685
351.965
348.625
354.124
352.946
585.355
709.381
592.501
576.732
604.044
567.564
641.422
382.918
397.961
367.787
382.797
435.782
395.611
415.988
546.224
461.058
534.713
541.3
495.078
545.229
478.355
660.322
561.463
574.496
567.766
578.409
553.524
622.868
469.404
540.429
534.125
538.545
494.003
537.857
479.636
410.944
401.59
382.845
388.581
440.778
420.164
404.078
362.348
348.047
349.755
363.835
362.716
373.866
357.647
384.951
366.069
367.39
370.676
374.529
384.986
364.79
559.982
567.412
542.947
558.435
552.147
546.827
591.546
540.406
502.629
530.854
500.264
539.012
534.725
492.497
397.085
452.245
420.676
452.786
408.082
435.529
410.801
376.969
369.538
391.564
373.956
383.679
387.721
366.514
520.107
328.125
357.904
485.417
790.007
664.843
541.218
576.575
554.112
510.432
354.474
351.918
420.621
347.946
367.732
467.819
372.365
490.931
441.277
408.929
444.443
523.335
539.208
464.845
350.703
353.128
362.429
355.314
351.025
362.275
343.66
330.833
382.643
362.194
385.466
353.881
369.672
400.936
338.565
336.418
321.096
338.05
336.784
349.726
346.728
603.405
881.588
608.205
803.31
608.986
600.368
724.752
340.063
346.565
355.189
345.782
354.057
351.557
357.407
467.143
550.052
541.332
550.044
500.746
551.845
485.429
590.703
730.077
603.486
590.67
615.884
575.889
664.751
534.648
478.348
461.048
546.192
495.08
545.163
481.754
641.058
708.994
592.388
585.271
603.814
567.448
656.44
384.739
403.132
371.389
384.737
439.567
420.625
397.369
382.734
415.973
397.932
382.892
435.787
417.689
395.573
346.575
362.778
350.348
362.766
361.083
373.763
354.458
349.672
357.521
363.737
362.299
362.623
373.798
355.062
357.511
360.626
359.92
358.333
359.269
360.537
358.056
355.632
358.641
356.754
358.696
355.612
358.622
358.938
359.243
362.262
359.199
360.765
356.683
359.735
360.857
573.613
579.313
575.096
550.149
557.782
561.287
613.012
549.82
509.19
506.402
539.148
543.802
547.073
499.028
396.649
456.357
454.318
421.445
438.291
408.403
409.515
373.575
367.14
367.711
390.023
382.684
382.653
361.465
357.932
362.346
359.818
360.306
353.098
358.783
356.143
357.538
359.417
359.96
359.402
351.833
357.239
355.303
360.789
361.699
359.239
359.431
356.681
359.055
358.234
357.684
348.362
347.984
351.121
355.042
354.47
352.227
499.018
361.503
352.249
613.138
536.934
503.015
541.562
541.423
495.204
508.997
438.284
471.854
377.182
475.626
475.986
389.87
376.47
359.28
364.183
343.837
366.637
363.106
334.585
343.538
573.672
575.229
579.358
561.309
557.855
550.19
554.175
549.843
506.415
509.192
547.086
543.847
539.18
510.452
396.659
454.307
456.351
409.52
408.419
421.449
467.817
373.6
367.768
367.156
382.664
382.726
390.048
372.399
550.085
541.81
546.843
544.429
535.256
542.513
539.985
555.377
545.743
551.405
545.762
536.788
544.31
541.452
359.468
361.764
360.808
358.252
359.113
362.313
356.718
507.094
526.962
535.359
530.779
500.713
523.47
506.682
511.836
533.083
540.701
533.101
504.813
526.971
509.009
465.534
431.405
420.392
432.444
475.907
474.252
440.729
373.062
397.199
390.143
397.232
379.861
404.911
376.568
468.842
433.454
421.954
433.456
479.063
475.988
442.875
372.195
397.62
390.004
397.629
380.095
406.006
376.485
357.715
348.394
347.994
354.486
355.088
351.151
343.68
544.022
537.824
538.336
544.211
544.633
543.75
536.635
363.204
355.24
357.466
364.296
363.416
354.76
352.895
361.903
354.556
356.408
364.226
363.125
354.575
352.906
526.112
497.794
518.06
499.797
522.108
520.581
503.703
442.253
476.871
478.51
449.682
478.224
447.716
446.511
405.678
384.13
419.679
384.445
413.729
413.01
380.007
351.599
347.639
338.925
347.432
334.273
343.703
339.015
339.089
347.372
350.929
347.387
334.726
343.911
339.098
365.058
365.268
364.238
352.89
351.086
351.884
351.67
330.589
326.635
330.222
343.834
338.355
340.856
340.574
344.825
336.7
328.588
327.678
340.371
340.303
333.412
309.532
299.094
318.647
315.257
288.049
306.473
296.297
321.134
328.246
276.463
285.029
280.739
324.44
346.765
298.541
339.972
332.477
339.708
326.573
333.412
325.535
320.015
333.817
315.8
320.998
322.308
327.603
314.646
309.547
332.235
319.28
326.53
310.068
318.066
312.859
305.283
316.33
294.066
311.269
292.061
309.658
304.763
287.687
306.941
281.256
298.761
311.357
284.892
302.839
292.929
289.519
306.274
301.39
299.88
278.847
295.109
283.252
316.171
314.458
310.106
307.779
296.282
302.97
300.662
273.276
277.343
284.963
302.308
294.433
297.625
290.084
333.107
315.308
331.253
316.577
332.275
318.706
331.262
272.157
288.445
269.15
264.981
281.504
292.992
285.76
172.721
153.635
155.434
165.965
164.288
145.637
143.655
170.996
164.474
180.371
176.929
149.713
160.631
167.279
160.583
168.411
172.821
144.867
139.125
148.428
153.677
168.084
148.187
151.233
159.245
162.062
141.007
137.64
55.5722
0.732786
0.182943
75.5371
89.5153
1.85009
5.87846
114.4
129.314
119.86
155.339
151.353
147.953
143.663
161.198
139.945
144.443
155.819
151.741
133.48
128.415
172.919
157.681
144.576
150.665
168.255
156.08
162.878
141.037
111.096
100.619
118.133
108.001
146.628
138.528
143.362
156.409
154.578
120.646
134.217
131.994
118.124
151.6
134.556
128.128
141.105
146.885
122.326
115.079
90.8984
129.279
96.9089
103.296
109.06
139.37
134.66
140.635
149.063
152.137
129.007
110.393
125.189
114.728
0.8694
0.434493
61.181
15.9951
23.751
0.126767
0.026279
131.309
96.7058
99.3438
85.2678
119.007
116.516
82.5359
88.7897
126.046
93.1904
113.171
74.4051
108.929
78.9101
145.296
127.675
140.731
105.057
120.457
114.713
98.6692
110.638
83.9727
76.1426
122.385
88.9389
96.5935
129.042
121.408
128.689
135.24
107.864
82.6794
99.8409
91.2068
43.0935
0.114928
0.297869
3.81938
12.6963
0.0125884
0.0972695
77.3315
117.449
83.501
69.0441
103.741
97.5696
62.8577
97.1773
70.305
62.46
90.3986
48.2184
82.225
55.8888
78.9868
95.2356
84.8022
58.8899
53.5246
49.1985
43.9634
88.5742
70.0876
104.716
101.999
51.5047
67.3268
85.7107
64.9555
82.9419
72.3646
40.9075
47.5044
38.1516
31.8746
98.3671
77.1679
47.9583
59.1927
93.8033
63.6842
81.9061
61.3494
28.945
67.6254
73.4579
39.1105
34.1159
24.3622
71.5164
53.8986
88.2925
81.8313
32.9504
47.8618
64.988
28.8295
63.7564
30.9259
50.3393
47.8263
20.4389
18.6173
216.526
199.298
213.92
225.659
180.327
192.142
170.97
176.087
220.947
224.854
229.473
217.929
213.975
213.169
209.055
211.483
221.372
216.522
204.355
209.482
204.353
198.985
209.668
215.64
219.691
201.682
207.783
203.456
197.104
205.71
187.534
201.496
186.633
200.651
196.222
181.75
252.323
243.068
295.966
286.69
286.735
253.663
274.967
245.115
293.246
293.077
280.831
290.055
277.816
277.578
274.472
290.012
283.223
286.737
271.125
274.632
271.13
267.5
290.136
282.807
286.512
269.967
273.979
270.743
266.588
264.533
267.668
255.458
251.712
264.028
260.832
248.572
259.116
263.513
279.325
278.973
283.115
267.27
262.997
241.412
245.159
257.381
248.904
261.111
257.386
245.164
247.59
255.581
259.981
256.788
239.928
252.375
244.451
232.692
236.497
248.899
237.274
241.037
249.597
253.33
298.433
323.19
267.793
291.972
270.902
297.515
296.747
282.523
310.843
318.47
317.46
306.029
313.033
304.722
300.133
342.955
316.428
333.892
287.022
307.341
329.125
288.084
287.443
330.957
338.702
338.438
333.867
326.499
326.519
321.856
352.766
348.8
328.722
304.115
346.526
306.712
342.941
312.301
352.963
342.704
351.767
349.974
340.698
341.864
338.398
351.474
336.294
343.682
347.264
339.645
335.262
331.276
312.515
310.402
309.689
326.172
327.233
323.696
306.955
349.599
334.825
342.626
346.517
338.045
334.82
330.855
321.25
307.587
324.74
320.507
299.983
316.626
303.752
323.352
303.527
320.134
320.131
299.985
316.383
303.526
338.685
338.431
333.857
330.952
321.853
326.515
326.497
299.968
312.3
296.144
295.95
312.225
307.876
291.853
328.976
323.821
328.684
316.519
321.732
316.97
311.71
333.819
321.865
324.436
317.165
329.12
317.167
312.37
296.146
291.858
307.878
316.428
295.958
312.228
299.97
291.371
286.205
281.76
302.371
307.551
303.032
297.692
302.099
314.734
319.673
324.286
319.223
312.242
306.884
292.013
287.44
282.712
298.472
303.35
307.969
303.35
276.062
280.554
296.638
274.422
290.487
285.94
269.938
292.196
311.752
306.29
302.943
307.857
294.2
288.437
309.955
301.328
314.02
305.485
309.047
295.692
291.47
272.318
292.93
277.18
282.481
277.678
293.379
298.296
266.571
287.281
271.446
281.375
260.503
276.766
265.326
300.086
301.388
304.394
290.181
281.445
286.408
284.873
283.997
260.7
277.297
279.641
256.329
263.348
273.172
263.508
264.928
225.954
237.269
255.654
266.091
231.01
236.227
279.321
274.959
267.26
278.962
283.109
262.982
259.107
248.876
252.976
269.166
270.163
274.299
258.214
254.233
232.682
236.483
241.027
249.592
253.319
248.883
245.104
250.311
254.908
270.71
259.408
275.207
270.706
254.904
261.096
245.237
239.623
260.469
244.459
265.808
249.93
240.911
228.426
223.597
233.092
228.422
245.481
240.905
238.644
234.628
221.893
227.589
231.481
244.027
240.147
264.991
269.095
254.02
247.145
251.829
275.292
258.778
225.204
230.166
218.16
212.09
217.28
223.165
235.82
205.752
211.023
204.808
198.513
185.907
192.855
191.867
191.124
196.665
182.222
191.123
169.602
185.256
176.087
194.905
188.342
173.096
190.202
167.519
183.318
175.094
177.36
119.69
195.451
163.371
101.635
131.309
183.794
158.795
162.14
243.208
218.753
226.113
240.851
243.059
191.611
179.012
228.448
257.349
247.203
263.522
259.182
242.988
252.91
236.485
249.702
233.433
254.618
238.419
248.222
231.748
226.59
212.898
219.782
232.69
228.517
215.516
221.755
208.433
226.027
233.833
250.54
221.3
238.481
246.014
229.29
223.884
205.311
210.707
216.94
197.661
211.564
203.394
236.151
233.617
241.227
210.518
216.157
224.37
218.994
200.528
196.711
205.263
218.815
210.674
205.847
214.25
200.201
202.949
207.457
194.787
189.918
187.031
181.849
188.986
185.774
195.149
194.346
200.462
209.18
203.508
192.064
190.037
197.851
177.995
184.376
175.86
168.907
157.285
92.5759
125.295
164.827
142.138
150.923
70.0307
72.4889
170.411
171.397
176.605
150.747
158.042
151.889
144.138
178.599
162.134
153.432
169.084
161.035
177.581
184.776
186.997
182.952
192.098
168.287
178.302
172.642
162.033
138.239
55.7001
78.3175
70.9096
105.243
1.99081
14.3786
164.871
175.536
180.872
155.363
172.444
166.632
148.622
174.296
170.873
181.116
166.059
146.359
158.425
154.754
158.396
158.396
165.351
136.366
144.746
136.366
127.17
148.531
155.036
163.252
124.236
132.314
142.285
135.031
143.318
151.653
169.348
159.838
131.553
151.944
140.736
151.571
144.266
162.773
156.345
122.913
136.767
144.431
131.815
150.327
140.851
103.607
114.705
126.442
116.292
134.457
103.016
92.23
93.8722
126.728
116.903
82.8379
145.48
111.488
120.485
134.231
126.122
106.569
96.7371
148.852
126.526
113.09
117.805
140.176
128.017
136.137
83.6718
107.147
117.663
107.145
61.303
96.0056
72.4868
129.71
89.1883
101.044
105.475
116.598
85.6294
73.3632
102.196
57.9766
67.4506
114.576
80.3255
105.506
70.8046
120.936
95.1152
111.829
73.1311
90.631
80.273
62.6721
81.8153
37.3035
47.8524
95.1484
49.4715
83.5676
60.4687
88.2746
44.6551
53.8684
39.9659
73.0862
63.0662
31.3341
22.8716
57.7838
26.1159
40.5177
44.534
16.3147
13.6589
83.6164
89.0598
101.222
68.887
39.7051
56.6581
51.4472
53.7015
49.099
61.021
28.6614
14.5959
19.4963
22.908
49.5082
66.1629
33.9426
74.4408
26.8573
41.1663
57.625
48.6874
19.2164
35.8492
30.6311
15.3231
10.8126
7.98221
67.4054
25.3409
35.0251
52.2909
14.5235
40.9959
22.6692
30.2908
36.9147
25.0104
7.79752
11.4218
5.40858
3.31761
40.7775
57.0661
26.4073
47.2751
8.86829
18.9017
31.652
26.5227
4.30407
22.4032
3.28524
19.2348
15.6181
2.30714
36.7717
21.6806
34.4064
4.94873
11.3756
10.0142
4.17772
19.0493
27.6571
31.339
8.36491
2.43909
6.57634
3.30607
13.6372
2.93563
18.0328
11.9451
0.923764
1.50868
8.45801
23.4773
9.37671
18.9524
1.66755
4.81707
3.25647
1.05831
37.0136
6.35644
14.035
4.61619
26.6591
11.9694
22.5217
7.04208
1.62624
12.5292
9.64428
0.493173
5.07782
1.10852
0.731905
7.00517
8.01156
0.348603
3.70231
3.13845