/*--------------------------------*- C++ -*----------------------------------*\
  =========                 |
  \\      /  F ield         | OpenFOAM: The Open Source CFD Toolbox
   \\    /   O peration     | Website:  https://openfoam.org
    \\  /    A nd           | Version:  9
     \\/     M anipulation  |
\*---------------------------------------------------------------------------*/
FoamFile
{
    format      ascii;
    class       volScalarField;
    location    "0.0015";
    object      rhoE;
}
// * * * * * * * * * * * * * * * * * * * * * * * * * * * * * * * * * * * * * //

dimensions      [1 -1 -2 0 0 0 0];

internalField   nonuniform List<scalar> 
12203
(
253249
253245
253245
253245
253245
253245
253245
253245
253245
253432
253245
253245
253245
253245
253245
253245
253245
253245
253245
253245
253245
253245
253247
253245
253246
253245
253245
253246
253245
253269
253902
253353
253246
253274
253249
253253
253245
253245
253245
253245
253245
253245
253245
253245
253245
253245
253245
253245
253245
253245
253245
253256
253246
253245
253245
253245
253245
253245
253245
253245
253245
253245
253245
253245
253245
253245
253245
253245
253245
253245
253245
253245
253245
253245
253245
253245
253245
253245
253245
253245
253245
253248
253245
253245
253245
253245
253245
253245
253245
253245
253245
253245
253245
253245
253245
253245
253245
253245
253245
253245
253245
253245
253245
253245
253245
253245
253245
253245
253245
253245
253245
253245
253245
253245
253245
253245
253245
253245
253245
253245
253245
253245
253245
253245
253245
253245
253245
253245
253245
253245
253245
253245
253245
253245
253245
253245
253245
253245
253245
253245
253245
253245
253245
253245
253245
253245
253245
253245
253245
253245
253245
253245
253245
253245
253245
253245
253245
253245
253245
253245
253245
253245
253245
253245
253245
253245
253245
253245
253245
253245
253245
253245
253245
253245
253245
253245
253245
253245
253245
253245
253245
253245
253245
253245
253245
253245
253245
253245
253245
253245
253245
253245
253245
253245
253245
253245
253245
253245
253245
253245
253245
253245
253245
253245
253245
253245
253245
253245
253245
253245
253245
253245
253245
253245
253245
253245
253245
253245
253245
253245
253245
253245
253245
253245
253245
253245
253245
253245
253245
253245
253245
253245
253245
253245
253245
253245
253245
253245
253245
253245
253245
253245
253245
253245
253245
253245
253245
253245
253245
253245
253245
253245
253245
253245
253245
253245
253245
253245
253245
253245
253245
253245
253245
253245
253245
253245
253245
253245
253245
253245
253245
253245
253245
253245
253245
253245
253245
253245
253245
253245
253245
253245
253245
253245
253245
253245
253245
253245
253245
253245
253245
253245
253245
253245
253245
253245
253245
253245
253245
253245
253245
253245
253245
253245
253245
253245
253245
253245
253245
253245
253245
253245
253245
253245
253245
253245
253245
253245
253245
253245
253245
253245
253245
253245
253245
253245
253245
253245
253245
253245
253245
253245
253245
253245
253245
253245
253245
253245
253245
253245
253245
253245
253245
253245
253245
253245
253245
253245
253245
253245
253245
253245
253245
253245
253245
253245
253245
253245
253245
253245
253245
253245
253245
253245
253245
253245
253245
253245
253245
253245
253245
253245
253245
253245
253245
253245
253245
253245
253245
253245
253245
253245
253245
253245
253245
253245
253245
253245
253245
253245
253245
253245
253245
253245
253245
253245
253245
253245
253245
253245
253245
253245
253245
253245
253245
253245
253245
253245
253245
253245
253245
253245
253245
253245
253245
253245
253245
253245
253245
253245
253245
253245
253245
253245
253245
253245
253245
253245
253245
253245
253245
253245
253245
253245
253245
253245
253245
253245
253245
253245
253245
253245
253245
253245
253245
253245
253245
253245
253245
253245
253245
253245
253245
253245
253245
253245
253245
253245
253245
253245
253245
253245
253245
253245
253245
253245
253245
253245
253245
253245
253245
253245
253245
253245
253245
253245
253245
253245
253245
253245
253245
253245
253245
253245
253245
253245
253245
253245
253245
253245
253245
253245
253245
253245
253245
253245
253245
253245
253245
253245
253245
253245
253245
253245
253245
253245
253245
253245
253245
253245
253245
253245
253245
253245
253245
253245
253245
253245
253245
253245
253245
253245
253245
253245
253245
253245
253245
253245
253245
253245
253245
253245
253245
253245
253245
253245
253245
253245
253245
253245
253245
253245
253245
253245
253245
253245
253245
253245
253245
253245
253245
253245
253245
253245
253245
253245
253245
253245
253245
253245
253245
253245
253245
253245
253245
253245
253245
253245
253245
253245
253245
253245
253245
253245
253245
253245
253245
253245
253245
253245
253245
253245
253245
253245
253245
253245
253245
253245
253245
253245
253245
253245
253245
253245
253245
253245
253245
253245
253245
253245
253245
253245
253245
253245
253245
253245
253245
253245
253245
253245
253245
253245
253245
253245
253245
253245
253245
253245
253245
253245
253245
253245
253245
253245
253245
253245
253245
253245
253245
253245
253245
253245
253245
253245
253245
253245
253245
253245
253245
253245
253245
253245
253245
253245
253245
253245
253245
253245
253245
253245
253245
253245
253245
253245
253245
253245
253245
253245
253245
253245
253245
253245
253245
253245
253245
253245
253245
253245
253245
253245
253245
253245
253245
253245
253245
253245
253245
253245
253245
253245
253245
253245
253245
253245
253245
253245
253245
253245
253245
253245
253245
253245
253245
253245
253245
253245
253245
253245
253245
253245
253245
253245
253245
253245
253245
253245
253245
253245
253245
253245
253245
253245
253245
253245
253245
253245
253245
253245
253245
253245
253245
253245
253245
253245
253245
253245
253245
253245
253245
253245
253245
253245
253245
253245
253245
253245
253245
253245
253245
253245
253245
253245
253245
253245
253245
253245
253245
253245
253245
253245
253245
253245
253245
253245
253245
253245
253245
253245
253245
253245
253245
253245
253245
253245
253245
253245
253245
253245
253245
253245
253245
253245
253245
253245
253245
253245
253245
253245
253245
253245
253245
253245
253245
253245
253245
253245
253245
253245
253245
253245
253245
253245
253245
253245
253245
253245
253245
253245
253245
253245
253245
253245
253245
253245
253245
253245
253245
253245
253245
253245
253245
253245
253245
253245
253245
253245
253245
253245
253245
253245
253245
253245
253245
253245
253245
253245
253245
253245
253245
253245
253245
253245
253245
253245
253245
253245
253245
253245
253245
253245
253245
253245
253245
253245
253245
253245
253245
253245
253245
253245
253245
253245
253245
253245
253245
253245
253245
253245
253245
253245
253245
253245
253245
253245
253245
253245
253245
253245
253245
253245
253245
253245
253245
253245
253245
253245
253245
253245
253245
253245
253245
253245
253245
253245
253245
253245
253245
253245
253245
253245
253245
253245
253245
253245
253245
253245
253245
253245
253245
253245
253245
253245
253245
253245
253245
253245
253245
253245
253245
253245
253245
253245
253245
253245
253245
253245
253245
253245
253245
253245
253245
253245
253245
253245
253245
253245
253245
253245
253245
253245
253245
253245
253245
253245
253245
253245
253245
253245
253245
253245
253245
253245
253245
253245
253245
253245
253245
253245
253245
253245
253245
253245
253245
253245
253245
253245
253245
253245
253245
253245
253245
253245
253245
253245
253245
253245
253245
253245
253245
253245
253245
253245
253245
253245
253245
253245
253245
253245
253245
253245
253245
253245
253245
253245
253245
253245
253245
253245
253245
253245
253245
253245
253245
253245
253245
253245
253245
253245
253245
253245
253245
253245
253245
253245
253245
253245
253245
253245
253245
253245
253245
253245
253245
253245
253245
253245
253245
253245
253245
253245
253245
253245
253245
253245
253245
253245
253245
253245
253245
253245
253245
253245
253245
253245
253245
253245
253245
253245
253245
253245
253245
253245
253245
253245
253245
253245
253245
253245
253245
253245
253245
253245
253245
253245
253245
253245
253245
253245
253245
253245
253245
253245
253245
253245
253245
253245
253245
253245
253245
253245
253245
253245
253245
253245
253245
253245
253245
253245
253245
253245
253245
253245
253245
253245
253245
253245
253245
253245
253245
253245
253245
253245
253245
253245
253245
253245
253245
253245
253245
253245
253245
253245
253245
253245
253245
253245
253245
253245
253245
253245
253245
253245
253245
253245
253245
253245
253245
253245
253245
253245
253245
253245
253245
253245
253245
253245
253245
253245
253245
253245
253245
253245
253245
253245
253245
253245
253245
253245
253245
253245
253245
253245
253245
253245
253245
253245
253245
253245
253245
253245
253245
253245
253245
253245
253245
253245
253245
253245
253245
253245
253245
253245
253245
253245
253245
253245
253245
253245
253245
253245
253245
253245
253245
253245
253245
253245
253245
253245
253245
253245
253245
253245
253245
253245
253245
253245
253245
253245
253245
253245
253245
253245
253245
253245
253245
253245
253245
253245
253245
253245
253245
253245
253245
253245
253245
253245
253245
253245
253245
253245
253245
253245
253245
253245
253245
253245
253245
253245
253245
253245
253245
253245
253245
253245
253245
253245
253245
253245
253245
253245
253245
253245
253245
253245
253245
253245
253245
253245
253245
253245
253245
253245
253245
253245
253245
253245
253245
253245
253245
253245
253245
253245
253245
253245
253245
253245
253245
253245
253245
253245
253245
253245
253245
253245
253245
253245
253245
253245
253245
253245
253245
253245
253245
253245
253245
253245
253245
253245
253245
253245
253245
253245
253245
253245
253245
253245
253245
253245
253245
253245
253245
253245
253245
253245
253245
253245
253245
253245
253245
253245
253245
253245
253245
253245
253245
253245
253245
253245
253245
253245
253245
253245
253245
253245
253245
253245
253245
253245
253245
253245
253245
253245
253245
253245
253245
253245
253245
253245
253245
253245
253245
253245
253245
253245
253245
253245
253245
253245
253245
253245
253245
253245
253245
253245
253245
253245
253245
253245
253245
253245
253245
253245
253245
253245
253245
253245
253245
253245
253245
253245
253245
253245
253245
253245
253245
253245
253245
253245
253245
253245
253245
253245
253245
253245
253245
253245
253245
253245
253245
253245
253245
253245
253245
253245
253245
253245
253245
253245
253245
253245
253245
253245
253245
253245
253245
253245
253245
253245
253245
253245
253245
253245
253245
253245
253245
253245
253245
253245
253245
253245
253245
253245
253245
253245
253245
253245
253245
253245
253245
253245
253245
253245
253245
253245
253245
253245
253245
253245
253245
253245
253245
253245
253245
253245
253245
253245
253245
253245
253245
253245
253245
253245
253245
253245
253245
253245
253245
253245
253245
253245
253245
253245
253245
253245
253245
253245
253245
253245
253245
253245
253245
253245
253245
253245
253245
253245
253245
253245
253245
253245
253245
253245
253245
253245
253245
253245
253245
253245
253245
253245
253245
253245
253245
253245
253245
253245
253245
253245
253245
253245
253245
253245
253245
253245
253245
253245
253245
253245
253245
253245
253245
253245
253245
253245
253245
253245
253245
253245
253245
253245
253245
253245
253245
253245
253245
253245
253245
253245
253245
253245
253245
253245
253245
253245
253245
253245
253245
253245
253245
253245
253245
253246
253245
253274
253247
253249
253245
253245
253245
253245
253245
253245
253245
253245
253245
253245
253245
253245
253245
253245
253245
253245
253245
253245
253245
253245
253245
253245
253245
253245
253245
253245
253245
253245
253245
253245
253245
253245
253245
253245
253245
253245
253245
253245
253245
253245
253245
253245
253245
253245
253245
253245
253245
253245
253245
253245
253245
253245
253245
253245
253245
253245
253245
253245
253245
253245
253245
253245
253245
253245
253245
253245
253245
253245
253245
253245
253245
253245
253245
253245
253245
253245
253245
253245
253245
253245
253245
253245
253245
253245
253245
253245
253245
253245
253245
253245
253245
253245
253245
253245
253245
253245
253245
253245
253245
253245
253245
253245
253245
253245
253245
253245
253245
253245
253245
253245
253245
253245
253245
253245
253245
253245
253245
253245
253245
253245
253245
253245
253245
253245
253245
253245
253245
253245
253245
253245
253245
253245
253245
253245
253245
253245
253245
253245
253245
253245
253245
253245
253245
253245
253245
253245
253245
253245
253245
253245
253245
253245
253245
253245
253245
253245
253245
253245
253245
253245
253245
253245
253245
253245
253245
253245
253245
253245
253245
253245
253245
253245
253245
253245
253245
253245
253245
253245
253245
253245
253245
253245
253245
253245
253245
253245
253245
253245
253245
253245
253245
253245
253245
253245
253245
253245
253245
253245
253245
253245
253245
253245
253245
253245
253245
253245
253245
253245
253245
253245
253245
253245
253245
253245
253245
253245
253245
253245
253245
253245
253245
253245
253245
253245
253245
253245
253245
253245
253245
253245
253245
253245
253245
253245
253245
253245
253245
253245
253245
253245
253245
253245
253245
253245
253245
253245
253245
253245
253245
253245
253245
253245
253245
253245
253245
253245
253245
253245
253245
253245
253245
253245
253245
253245
253245
253245
253245
253245
253245
253245
253245
253245
253245
253245
253245
253245
253245
253245
253245
253245
253245
253245
253245
253245
253245
253245
253245
253245
253245
253245
253245
253245
253245
253245
253245
253245
253245
253245
253245
253245
253245
253245
253245
253245
253245
253245
253245
253245
253245
253245
253245
253245
253245
253245
253245
253245
253245
253245
253245
253245
253245
253245
253245
253245
253245
253245
253245
253245
253245
253245
253245
529697
2.05872e+06
253273
253245
345412
253245
253245
256064
253245
253245
426955
253245
253245
254336
253245
253245
253268
253245
253341
253245
253256
253245
253245
253245
253245
253245
253245
253245
253246
253245
254505
253245
253245
253245
253250
253245
253245
253245
253245
253245
253245
253245
253245
253245
253277
253245
253245
253245
253245
253245
253245
253245
253245
253245
253245
253245
253245
253245
253245
253245
253245
253245
253245
253245
253245
253245
253245
253245
253245
253245
253245
253245
253245
296509
256117
253251
254502
253245
287237
253245
253322
253245
373936
260843
253245
253412
253245
253245
253676
253245
254297
253245
253245
253245
253245
253245
253247
253245
253250
253245
253245
253245
253245
253245
253245
253245
253245
253245
253245
253245
253245
253245
253245
253245
253348
253247
260055
253280
253263
253245
253245
253245
253245
253245
253245
253245
253245
253245
253245
253245
253245
253245
253245
253245
253245
253247
253245
253245
253245
253245
253245
253248
253245
253245
253312
255119
253289
253245
253256
253245
253246
253245
253245
253245
253246
253247
253245
253245
253245
253245
253245
253245
253245
253245
253245
253245
253245
253246
253245
253245
253245
253245
253245
253245
253245
253245
253245
253245
253245
253245
253245
253245
253245
253245
253245
253245
253245
253245
253245
349897
282566
317196
265385
259074
277982
253337
256973
253282
254093
255714
253269
253385
253279
253578
253458
253247
254188
253254
253253
333535
284861
253980
253249
253262
253245
253245
253245
253245
253245
253245
253245
254105
253285
253329
253248
253246
253251
253339
253251
253245
253245
253245
253245
253245
253245
253245
253245
253245
253245
253245
253245
253245
253245
253246
253245
253245
253246
253247
253249
253245
253260
253245
253245
253245
253245
253245
253245
253245
253245
253245
253245
253245
253245
253245
253245
253245
253245
253245
253245
253245
253245
253245
253245
253245
253245
253245
253245
253246
253245
253245
253245
253245
253245
253245
253245
253245
253245
253245
253245
253245
253245
253245
253245
253288
253260
253280
253245
253540
253247
253250
253339
253401
253246
253256
253253
253250
253245
253245
253245
253245
253246
253246
253245
253246
253245
253245
253245
253245
253245
253245
253245
253245
253245
253245
253245
253245
253245
253245
253245
253245
253245
253245
253245
253245
253245
253245
253245
253245
253245
253245
253245
253245
253245
253245
253245
253245
253245
253245
253245
253245
253245
253245
253245
253245
253250
253245
253246
253245
253246
253245
253245
253245
253245
253245
253245
253245
253245
253245
253245
253245
253245
253245
253245
253245
253245
253297
253245
253245
253247
253248
253245
253245
253245
253247
253245
253245
253246
253245
253245
253245
253245
253245
253245
253245
253245
253245
254060
1.07031e+06
253270
978963
253459
712791
253246
253245
253245
253245
253245
253245
253245
253245
253245
253245
253245
253245
253245
253245
253245
253513
253781
290438
253615
253866
253274
253245
253246
253245
253245
253245
253245
253245
253245
253245
253245
253245
253245
253245
253245
253246
253398
253246
253246
253245
253246
253245
253245
253245
253245
253245
253245
253245
253245
253245
253245
253245
253245
253245
253245
253245
253276
253245
253246
253246
253248
253245
253245
253245
253245
253245
253245
253245
253245
253245
253252
255015
253245
253342
253245
253375
253245
253245
253245
253245
253245
253245
253245
253245
253245
253245
253245
253245
253245
1.80315e+06
1.32137e+06
1.96859e+06
2.60093e+06
8.11983e+06
1.70574e+06
290646
1.20789e+06
2.62816e+06
2.61967e+06
3.17748e+06
5.6175e+06
1.45409e+06
1.40702e+06
1.26238e+06
2.42473e+06
253369
253937
254070
1.72209e+06
366136
253246
253245
253246
253245
253245
253245
253245
253245
253245
253245
253245
253245
253245
253245
253245
253245
253245
253245
253245
253245
253245
253245
253245
253245
253245
253245
253245
253245
253245
253245
253245
253245
253245
4.48029e+06
7.20723e+06
3.26176e+06
2.6295e+06
7.22001e+06
1.37184e+06
6.77109e+06
2.99619e+06
933332
5.51998e+06
8.4531e+06
8.48577e+06
6.94629e+06
3.04886e+06
6.80585e+06
2.45164e+06
1.61989e+06
485571
283929
4.01747e+06
254852
253259
259876
8.18822e+06
969556
274809
261562
261068
1.60916e+06
255298
253254
253491
279634
253247
6.03563e+06
7.96197e+06
5.72055e+06
7.52728e+06
9.09523e+06
1.59721e+06
3.01024e+06
458255
4.31237e+06
799715
253263
253265
253246
253355
253259
253246
5.86385e+06
5.97342e+06
6.30261e+06
7.27374e+06
6.00264e+06
6.52529e+06
5.73516e+06
5.51037e+06
6.15034e+06
5.65827e+06
5.78278e+06
5.99054e+06
7.28822e+06
5.72075e+06
7.22254e+06
5.90921e+06
6.8141e+06
6.14358e+06
3.44218e+06
5.25684e+06
4.55277e+06
6.62473e+06
5.15669e+06
4.22382e+06
3.66097e+06
1.26345e+06
1.31687e+06
1.07183e+06
1.49889e+06
2.90189e+06
6.24335e+06
4.3024e+06
2.14941e+06
4.85604e+06
3.42766e+06
1.94822e+06
809210
365004
669733
413299
6.80933e+06
8.52298e+06
7.09485e+06
6.38183e+06
5.73441e+06
8.54585e+06
8.17089e+06
7.51685e+06
2.30609e+06
1.9348e+06
7.60636e+06
3.51107e+06
4.94307e+06
584475
1.23598e+06
6.79812e+06
7.07294e+06
6.34641e+06
8.13565e+06
5.96166e+06
5.30432e+06
7.68084e+06
5.37325e+06
6.3362e+06
4.03407e+06
7.56324e+06
6.11804e+06
6.05918e+06
7.99235e+06
4.18608e+06
4.40736e+06
2.41771e+06
408269
2.64618e+06
1.72949e+06
6.04918e+06
1.82712e+06
315030
3.16227e+06
836656
1.69093e+06
813116
1.343e+06
315523
255527
269953
276579
254800
257594
407645
259758
253427
367247
257126
253511
253412
253250
253346
253256
8.83545e+06
7.06689e+06
9.02416e+06
8.21415e+06
9.70174e+06
4.07627e+06
4.50509e+06
7.94136e+06
301289
257590
737397
253750
265129
253257
253507
625271
2.32629e+06
1.70892e+06
424356
277297
262753
475264
253576
444038
254512
261261
365894
256557
269034
281145
259202
253287
253319
253424
253550
254086
254713
253248
253684
253253
253258
253265
253308
253246
981004
253950
275669
254149
269443
253268
253284
253878
254085
253904
258927
253342
1.79145e+06
2.27888e+06
2.0041e+06
1.31071e+06
1.79567e+06
1.96886e+06
1.91103e+06
2.94428e+06
2.29031e+06
2.53768e+06
2.13105e+06
2.47748e+06
2.75076e+06
2.19952e+06
2.02854e+06
1.60961e+06
2.70639e+06
1.4588e+06
2.8144e+06
1.71828e+06
2.23202e+06
1.68407e+06
3.18223e+06
302451
2.30435e+06
255582
388020
256669
2.19018e+06
1.78416e+06
460203
1.39845e+06
731102
1.76708e+06
311265
264977
277443
1.20851e+06
256285
355573
253541
287622
253348
1.41079e+06
253246
253245
253245
253245
253245
253245
253245
253245
255633
257263
253295
253441
253247
253804
266948
255927
265495
511358
317934
340113
253248
253544
253265
254375
253773
261677
253316
253445
255008
253274
254000
253247
253319
271266
253940
253249
254212
253282
253292
4.68781e+06
4.2166e+06
5.86089e+06
8.00099e+06
255696
4.42091e+06
5.12623e+06
5.03785e+06
5.80114e+06
7.9722e+06
1.00185e+07
5.42252e+06
310724
273898
1.07225e+06
442123
272819
253553
265023
310431
253290
5.16246e+06
4.37105e+06
5.38437e+06
7.44161e+06
3.6084e+06
253540
260905
253267
253249
5.31853e+06
4.63569e+06
5.16986e+06
4.56874e+06
4.74782e+06
5.36266e+06
5.17946e+06
4.78162e+06
5.14121e+06
4.90598e+06
4.6013e+06
5.66015e+06
7.253e+06
6.67315e+06
8.54056e+06
5.62745e+06
6.86715e+06
9.62272e+06
3.41685e+06
1.85777e+06
1.71011e+06
511275
656365
1.0765e+06
605417
1.33122e+06
1.04406e+06
1.33582e+06
283459
1.69421e+06
516506
649199
673309
256724
255984
258224
284815
309823
299240
361415
255016
268934
1.25104e+06
259887
415684
253851
254158
266774
3.99262e+06
3.86382e+06
3.85237e+06
4.40384e+06
3.63541e+06
4.1916e+06
3.1215e+06
4.89695e+06
2.12729e+06
8.48649e+06
4.75843e+06
1.00103e+07
1.85806e+06
7.23481e+06
1.83075e+06
873773
9.69797e+06
704615
3.73248e+06
4.12595e+06
3.44581e+06
3.9787e+06
4.21176e+06
3.53254e+06
3.66535e+06
3.81768e+06
4.14198e+06
4.52188e+06
3.82264e+06
4.32734e+06
3.64762e+06
3.9657e+06
3.24913e+06
3.74774e+06
3.33194e+06
3.90634e+06
3.61566e+06
3.44212e+06
4.93429e+06
4.88608e+06
4.17531e+06
5.86148e+06
4.2554e+06
5.81449e+06
4.86753e+06
6.02076e+06
7.72607e+06
6.29851e+06
7.8071e+06
6.72976e+06
6.25313e+06
6.24195e+06
3.98691e+06
5.86221e+06
4.73796e+06
8.03152e+06
8.7019e+06
6.27156e+06
3.29844e+06
4.51264e+06
7.69189e+06
4.36533e+06
5.18951e+06
2.57139e+06
5.92465e+06
2.17129e+06
1.80739e+06
1.47332e+06
2.1411e+06
1.81284e+06
3.54736e+06
1.88013e+06
9.67365e+06
7.15402e+06
8.71157e+06
2.87675e+06
3.0955e+06
5.97385e+06
253272
278233
269033
264696
503813
398395
254597
1.14625e+06
2.56504e+06
1.27418e+06
1.18036e+06
1.38785e+06
2.7865e+06
1.90523e+06
1.16213e+06
2.31724e+06
1.13708e+06
1.32298e+06
1.26609e+06
2.29749e+06
1.00307e+06
1.2482e+06
1.15629e+06
1.2648e+06
1.26111e+06
1.39938e+06
1.28335e+06
1.4303e+06
1.29871e+06
1.29516e+06
1.31914e+06
1.4915e+06
1.50157e+06
1.54021e+06
1.53267e+06
1.4158e+06
1.20371e+06
1.31853e+06
1.5692e+06
1.41542e+06
1.51371e+06
1.4935e+06
1.83934e+06
2.82999e+06
2.96702e+06
2.71709e+06
2.9786e+06
1.91834e+06
2.01756e+06
4.00579e+06
4.33304e+06
4.30468e+06
3.94786e+06
3.85447e+06
3.8989e+06
3.91839e+06
1.3115e+06
1.34879e+06
1.52445e+06
1.16564e+06
1.28409e+06
1.3106e+06
1.46942e+06
1.37083e+06
1.69677e+06
1.67612e+06
1.32365e+06
1.34557e+06
1.59411e+06
1.59523e+06
1.22335e+06
1.24495e+06
1.16051e+06
1.44536e+06
1.48887e+06
1.38504e+06
1.43831e+06
1.24767e+06
1.17341e+06
1.21921e+06
1.46599e+06
1.34678e+06
1.42029e+06
1.40158e+06
2.23182e+06
2.69632e+06
2.64939e+06
1.61159e+06
1.658e+06
1.70806e+06
1.65566e+06
4.34618e+06
3.61295e+06
4.40587e+06
3.94554e+06
3.65025e+06
3.75635e+06
4.01545e+06
1.25093e+06
1.67754e+06
1.64645e+06
1.27462e+06
1.19431e+06
1.55986e+06
1.52232e+06
1.25734e+06
1.35445e+06
1.41971e+06
1.72573e+06
1.40393e+06
1.47936e+06
1.60675e+06
256975
1.09976e+06
877520
1.33673e+06
694075
1.61004e+06
320007
1.5655e+06
1.45208e+06
1.58246e+06
1.99878e+06
1.86515e+06
1.80443e+06
2.12249e+06
1.71772e+06
1.61429e+06
1.81545e+06
1.84823e+06
1.69488e+06
1.87158e+06
1.64758e+06
2.26692e+06
1.48363e+06
1.81099e+06
1.34509e+06
1.75244e+06
1.58742e+06
1.50873e+06
1.09907e+06
1.20846e+06
1.13212e+06
1.546e+06
1.42296e+06
1.48447e+06
1.59469e+06
3.70072e+06
3.60525e+06
4.69293e+06
3.9861e+06
3.96317e+06
4.61647e+06
4.58906e+06
1.86285e+06
1.83926e+06
1.89608e+06
2.00494e+06
2.06686e+06
2.11248e+06
2.04842e+06
1.44419e+06
2.07986e+06
1.64905e+06
1.75233e+06
1.47774e+06
1.69995e+06
2.16361e+06
2.10138e+06
2.67352e+06
2.75629e+06
2.08836e+06
259209
2.52565e+06
2.42849e+06
1.55069e+06
1.35145e+06
1.51927e+06
1.94404e+06
1.86006e+06
2.09712e+06
1.79533e+06
4.47546e+06
2.48297e+06
4.44636e+06
3.04087e+06
4.50956e+06
3.48011e+06
4.24273e+06
2.49555e+06
1.91367e+06
1.84965e+06
1.91962e+06
2.62925e+06
2.59726e+06
1.99915e+06
2.00609e+06
2.00562e+06
2.05207e+06
1.78918e+06
1.86145e+06
1.91447e+06
1.73976e+06
1.64738e+06
1.79447e+06
1.55551e+06
1.88666e+06
1.60736e+06
1.84591e+06
1.62216e+06
3.98302e+06
1.95882e+06
3.23922e+06
1.78684e+06
2.32859e+06
3.52672e+06
4.37347e+06
1.39102e+06
1.72049e+06
1.66789e+06
1.28073e+06
1.18309e+06
1.57033e+06
1.65657e+06
4.63486e+06
3.74395e+06
4.62952e+06
3.26776e+06
4.57769e+06
2.71116e+06
4.39529e+06
1.35856e+06
1.52532e+06
1.72756e+06
1.78728e+06
2.13446e+06
1.89072e+06
1.58961e+06
1.58186e+06
2.4529e+06
1.87059e+06
1.81655e+06
1.52175e+06
1.77014e+06
2.28449e+06
2.18875e+06
1.97141e+06
2.25705e+06
1.87732e+06
1.93119e+06
2.1728e+06
2.1066e+06
258208
704029
2.13127e+06
253965
1.61802e+06
355330
254258
1.95748e+06
1.78217e+06
2.08586e+06
2.78113e+06
2.62875e+06
2.27562e+06
2.45372e+06
2.06909e+06
2.52633e+06
1.80996e+06
1.35174e+06
1.4823e+06
1.8124e+06
2.44694e+06
2.89041e+06
2.31249e+06
2.19065e+06
2.02641e+06
2.71017e+06
2.73295e+06
2.12937e+06
1.90807e+06
2.32569e+06
1.98223e+06
1.96215e+06
1.81705e+06
1.85839e+06
1.93119e+06
253770
253255
258205
740910
253310
280945
253246
1.82376e+06
1.88092e+06
1.85888e+06
2.21735e+06
2.09125e+06
2.1415e+06
2.28418e+06
2.53235e+06
2.30074e+06
2.04187e+06
2.02515e+06
2.3754e+06
2.09991e+06
2.44876e+06
2.17858e+06
2.06275e+06
1.88465e+06
1.72597e+06
2.00178e+06
1.91637e+06
1.71524e+06
2.21462e+06
1.66411e+06
2.19773e+06
2.67185e+06
1.77171e+06
2.01473e+06
2.91729e+06
2.10249e+06
1.75511e+06
1.9871e+06
2.48577e+06
1.99621e+06
2.03518e+06
2.33883e+06
1.58326e+06
1.54004e+06
1.69002e+06
1.82768e+06
1.75667e+06
1.76591e+06
1.72535e+06
1.75673e+06
2.20238e+06
1.96098e+06
2.32833e+06
2.08073e+06
1.9114e+06
1.87146e+06
1.40226e+06
1.64402e+06
1.69715e+06
1.6997e+06
1.72407e+06
1.77121e+06
1.74857e+06
3.02347e+06
2.90961e+06
4.42311e+06
2.49234e+06
3.87177e+06
2.48562e+06
3.81947e+06
2.70981e+06
3.03686e+06
2.53943e+06
2.75922e+06
2.42364e+06
3.14273e+06
2.76101e+06
1.95598e+06
2.52293e+06
2.31513e+06
1.9375e+06
1.90099e+06
2.21236e+06
2.3839e+06
4.41787e+06
2.34658e+06
4.19569e+06
4.05336e+06
2.3886e+06
4.08693e+06
2.63609e+06
1.766e+06
1.90028e+06
1.82507e+06
1.54418e+06
1.77989e+06
1.38741e+06
1.71543e+06
1.79975e+06
1.74289e+06
1.59773e+06
1.4964e+06
1.75527e+06
1.745e+06
1.69724e+06
257259
254331
256146
2.82628e+06
2.1422e+06
1.38223e+06
2.38431e+06
1.73505e+06
1.69852e+06
1.76076e+06
1.77708e+06
1.36031e+06
1.6361e+06
1.72546e+06
2.63471e+06
2.03033e+06
2.6954e+06
2.29135e+06
2.45765e+06
2.13173e+06
2.87944e+06
1.55972e+06
1.24201e+06
1.91279e+06
2.32733e+06
1.96732e+06
2.39474e+06
1.97617e+06
2.38217e+06
2.88507e+06
2.47213e+06
2.53392e+06
2.87164e+06
2.92018e+06
2.44719e+06
4.21892e+06
2.54264e+06
2.43014e+06
2.39092e+06
3.51568e+06
3.62955e+06
3.87314e+06
2.80802e+06
2.36258e+06
2.8769e+06
2.71244e+06
2.13503e+06
2.19803e+06
2.62707e+06
2.7625e+06
2.17237e+06
2.85097e+06
2.73412e+06
2.81341e+06
3.14708e+06
3.14937e+06
3.88526e+06
2.55455e+06
3.36313e+06
3.85081e+06
2.99746e+06
3.07014e+06
3.16386e+06
2.11812e+06
3.24952e+06
2.7939e+06
2.47912e+06
2.42338e+06
1.91144e+06
3.12549e+06
1.77459e+06
1.78916e+06
1.87577e+06
1.3244e+06
1.63974e+06
1.79925e+06
1.59454e+06
1.37547e+06
1.61936e+06
1.78433e+06
1.78981e+06
1.21334e+06
1.53519e+06
1.69359e+06
1.80146e+06
1.73026e+06
1.78616e+06
1.14456e+06
1.6857e+06
1.54594e+06
1.42575e+06
2.9668e+06
2.658e+06
2.73668e+06
2.62251e+06
2.92401e+06
2.95907e+06
2.53835e+06
3.02641e+06
2.72096e+06
3.04967e+06
2.15435e+06
2.9247e+06
2.85487e+06
1.99056e+06
3.02419e+06
3.07135e+06
3.11072e+06
2.27779e+06
2.95824e+06
2.914e+06
3.14245e+06
1.98563e+06
2.6377e+06
2.10006e+06
1.28358e+06
2.44601e+06
2.16714e+06
1.77667e+06
2.46492e+06
3.09913e+06
2.9725e+06
2.82208e+06
2.50594e+06
2.26798e+06
3.04015e+06
3.07272e+06
2.89667e+06
3.17618e+06
2.99079e+06
2.58765e+06
3.16347e+06
2.9032e+06
1.53797e+06
1.78023e+06
1.54375e+06
1.87228e+06
1.77333e+06
1.83855e+06
1.7299e+06
2.77662e+06
2.94657e+06
2.56263e+06
2.627e+06
2.93385e+06
2.96475e+06
2.83591e+06
2.96672e+06
2.81122e+06
2.87379e+06
2.96868e+06
2.79187e+06
2.85515e+06
2.92377e+06
1.12694e+06
475223
796895
1.56807e+06
1.48379e+06
1.71843e+06
1.24889e+06
1.02231e+06
1.62132e+06
1.69789e+06
1.83413e+06
1.82706e+06
1.59236e+06
1.5025e+06
3.07799e+06
2.97467e+06
3.39088e+06
2.66586e+06
3.00668e+06
3.37996e+06
3.12743e+06
2.85214e+06
3.11684e+06
2.85884e+06
3.1716e+06
3.16031e+06
3.02362e+06
3.21953e+06
3.88157e+06
2.55575e+06
3.61385e+06
3.27207e+06
3.81549e+06
3.16901e+06
3.34137e+06
821781
1.02359e+06
2.13806e+06
1.3651e+06
1.72688e+06
1.57628e+06
2.34863e+06
253246
253328
253250
254842
253287
253245
253245
2.92492e+06
2.99385e+06
2.8231e+06
2.71642e+06
2.86002e+06
2.9668e+06
2.91339e+06
1.41353e+06
3.07308e+06
2.56092e+06
2.65424e+06
3.07383e+06
2.74167e+06
1.74811e+06
2.02803e+06
1.51364e+06
1.38372e+06
1.16531e+06
985128
614230
509212
254034
253333
253245
253247
253245
253245
253375
253246
253248
253579
253249
254553
256682
253248
645585
1.12013e+06
391757
1.26489e+06
895872
481991
313133
1.65781e+06
969834
1.60349e+06
611686
1.39841e+06
1.28798e+06
509572
1.23252e+06
1.59739e+06
1.83451e+06
443753
873931
768534
1.30349e+06
1.54734e+06
1.60394e+06
1.7597e+06
877546
429161
759895
1.28835e+06
502058
1.29634e+06
1.49476e+06
1.74269e+06
1.14342e+06
1.80544e+06
1.35829e+06
2.93132e+06
2.75728e+06
2.95981e+06
3.31573e+06
3.03062e+06
3.32155e+06
2.55853e+06
2.81343e+06
2.58968e+06
2.08801e+06
3.01856e+06
3.04705e+06
2.93284e+06
3.01649e+06
584015
1.36672e+06
891145
789345
1.51314e+06
1.12224e+06
402688
540384
932924
320803
1.86555e+06
1.19001e+06
762703
402807
253651
253245
253245
253245
253245
253245
253245
253245
253245
253245
253245
253245
261738
346596