/*--------------------------------*- C++ -*----------------------------------*\
  =========                 |
  \\      /  F ield         | OpenFOAM: The Open Source CFD Toolbox
   \\    /   O peration     | Website:  https://openfoam.org
    \\  /    A nd           | Version:  9
     \\/     M anipulation  |
\*---------------------------------------------------------------------------*/
FoamFile
{
    format      ascii;
    class       surfaceScalarField;
    location    "0.00175";
    object      phi;
}
// * * * * * * * * * * * * * * * * * * * * * * * * * * * * * * * * * * * * * //

dimensions      [0 3 -1 0 0 0 0];

internalField   nonuniform List<scalar> 
40929
(
1.4091
-0.746743
-1.14823
4.12662
0.703809
-4.41104
4.47997
2.13848
-0.67742
-4.90375
0.681279
-1.25912
4.20402
1.46368
-4.29955
-1.05891
-0.759937
3.27327
0.674165
-3.70852
3.37446
-3.58595
-1.10349
-0.54524
0.585138
2.93044
1.04718
-1.17687
-0.598944
0.370767
1.70257
0.379132
2.16794
-1.32227
2.47055
0.463343
0.877261
0.000107653
-0.000225522
-0.00394583
-0.000470187
0.000126309
0.000311873
4.12081e-06
1.00068e-06
2.81887e-06
-1.22717e-05
-8.65968e-06
-1.36176e-06
1.31507e-06
-1.17433e-06
-2.91265e-07
9.07216e-07
4.18757e-07
-4.33351e-06
-4.91764e-06
-2.65658e-06
-2.45473e-06
-1.2155e-06
-1.11508e-06
-1.28883e-06
0.0122832
-3.0311
0.711494
-0.51029
3.06865
-0.193566
0.215318
0.697542
-0.840897
-0.09591
-3.24957
2.34515
-0.00618754
3.772
-0.940268
0.718009
-4.28885
1.0401
2.74659
-1.03342
1.11171
-3.84298
0.86537
-0.0994676
-2.93763
0.460593
1.6207
0.29964
0.230909
0.214238
-0.25253
-0.127249
-1.76469
0.413349
-0.376134
0.938321
-0.591715
0.658487
-2.89895
0.383573
0.313521
-0.269897
0.369596
-1.7394
0.189809
-0.128113
-1.38349
0.163091
0.25617
0.185298
0.00477115
-0.0263895
-0.0865273
-0.199499
0.0259689
0.0328262
0.0209327
-0.0895894
-0.0351419
-0.179363
0.0122081
0.0173714
0.00141321
-0.0068007
-0.00307716
-0.0137647
0.000624319
0.00119136
-0.305985
-0.0951923
0.0101819
0.0238245
0.0395204
-0.308343
-0.400524
-2.68734
0.344046
0.178626
0.408599
-0.595271
2.51472
0.686801
0.912075
-2.41258
-2.16591
0.612295
-0.409902
2.40766
-0.456683
0.725444
-3.05809
-0.526694
-0.364647
-0.0522728
-3.1973
0.833322
3.1055
-1.99371
-0.397704
0.677074
2.45243
1.00184
-3.1426
0.223352
2.62152
0.731795
1.05072
-2.75782
-0.0925319
-3.31512
2.85544
0.154417
-0.684038
-2.54035
0.525728
1.65152
-1.15229
-0.69959
1.14474
-3.44441
0.628284
2.14302
-3.32186
0.517694
1.03569
-2.9544
-0.847555
1.85598
0.641643
0.668709
-2.7839
-2.22282
0.335978
1.15829
-0.668309
0.969257
-3.4144
0.683989
-0.110006
-2.508
0.315346
1.04245
-2.93299
0.234386
0.808051
0.763588
-3.28244
0.769896
1.55993
0.614556
0.576349
-2.57773
-0.122442
-2.11104
0.620509
0.322002
-0.189418
-1.31558
0.163047
0.354969
-0.650434
-0.588118
0.607633
-2.86151
0.91207
0.532199
-3.0784
0.866416
0.53667
-2.38449
-0.505902
0.761701
0.525101
0.450512
-2.04613
-1.05876
0.135321
0.237107
-0.569151
0.579925
-2.66869
0.767408
-0.105632
-0.856165
0.0926546
0.138959
0.123976
-2.23443
0.0892174
0.143318
0.511815
-2.43228
0.62237
0.426148
0.427987
0.232881
-1.67825
-0.056597
-0.426254
0.0616977
0.0652295
0.00189089
-0.255006
-0.0409953
0.0431663
-0.32901
-0.363425
0.139185
-1.16078
0.271213
0.0717394
-1.91454
0.464326
0.118923
-1.27823
-1.36271
-1.1389
-0.0804975
0.200066
0.101338
0.145718
-0.0048466
0.000621685
-0.0108516
-0.000249364
0.000635574
0.000319167
-0.00902831
-0.074936
-0.245618
0.0064483
0.0108212
0.0213077
-0.231276
0.297248
0.637868
-0.858446
-0.329336
0.0999835
0.139036
-0.596149
0.0676744
-0.551175
0.113147
-0.421198
-0.0490099
0.0197767
0.0165206
0.0468617
-1.24296
0.172062
0.180641
-0.208884
0.0479601
0.0805276
-0.231512
-8.01928
-0.488019
1.78073
8.64111
0.87565
-6.28463
4.93141
6.58407
0.405394
0.275496
-5.74999
-2.16298
0.411372
6.32441
2.62694
-1.42959
-6.22906
4.06623
6.26151
1.87251
3.43399
-3.56265
-2.47669
-3.18308
3.92447
1.93425
-1.93714
-5.01197
1.92188
1.99137
1.19679
-1.51647
-2.46784
3.65329
-3.77672
2.78725
1.49731
-0.0640731
-0.430318
0.0360406
0.0392338
0.0199986
-0.277639
-0.101369
0.0356336
-0.177932
0.0287006
0.0201363
3.83118e-05
1.64388e-05
-0.000362146
3.77435e-05
-0.000473936
-1.63681e-05
-3.54331
8.03489
0.399937
-9.16298
-1.09522
8.30012
0.412233
3.30954
-0.218442
-7.11859
-1.34577
1.51791
7.78229
1.75391
6.26521
1.4201
-1.1019
-3.77268
7.03409
4.15377
6.15309
-0.790379
-2.66652
1.21595
-6.67425
5.38633
-4.18492
0.410956
4.74715
-5.26489
-1.06845
4.37559
6.5001
5.08559
-0.824003
1.22344
4.52007
-5.18405
-3.95111
6.38634
1.82057
5.44433
-1.34007
-1.43746
-6.63292
2.91257
1.73022
1.79225
-4.6341
-2.92521
-1.35888
5.08356
2.87482
5.63364
2.6468
-2.71983
-4.97054
4.74092
1.725
-1.57327
-1.64021
1.70198
-4.45427
0.989752
3.84036
-3.56243
-1.49229
1.56499
3.47714
-4.59567
-2.29281
2.8049
4.0767
0.780937
-2.30632
-1.3071
0.569144
0.841199
-3.06841
-4.62215
3.91211
2.15925
0.185365
-0.713501
-0.353992
0.203633
-1.26128
0.113025
3.65533
-2.73637
-1.59749
-3.7568
3.07861
1.05427
0.614083
-0.962811
-3.22891
1.23002
0.00383324
-0.0260322
-0.00690838
-0.0404373
0.00234949
0.00426976
-0.0349437
-0.0135013
0.00451408
-0.0497215
0.00268845
0.00486599
-0.183528
0.123792
0.113448
-0.000769686
0.000465788
-0.00386758
0.000241348
0.000443375
-1.53815
4.81244
1.77896
-4.8515
-1.7785
2.58092
-2.17407
-1.07091
4.38504
-4.86957
2.13559
2.24633
-2.37754
0.588547
0.296267
0.000364087
-0.00277628
-0.000768603
-0.00343999
0.000206964
0.000377403
-1.62596
-1.10104
0.908335
1.58304
-2.65352
1.37602
0.00738411
-0.0169772
-0.0931851
0.00664098
0.00328513
4.0298e-05
-0.000167489
-4.58155e-05
-0.000163695
1.1487e-05
2.75904e-05
-8.02909e-05
5.08323e-05
-0.00031107
2.36395e-05
4.07473e-05
-0.00101963
0.00033574
0.000489278
0.000197266
5.79409e-06
1.07638e-05
-1.36418e-05
3.1503e-05
-3.44079e-05
-6.46452
-2.67007
-0.404206
0.776741
5.98478
2.80428
0.418923
6.34983
-6.00672
4.45691
0.410414
2.62141
5.60271
4.93894
6.70878
-6.44611
0.701381
-6.14004
0.731633
4.50738
0.731227
5.67255
5.9125
2.735
-1.72997
-5.66254
-2.11743
1.70648
3.7009
2.37415
5.9743
2.08416
-1.53831
-5.96129
4.01382
2.36206
1.67125
-1.39526
4.76762
3.85429
6.01582
-6.19525
2.22301
-1.53732
4.80471
2.70235
-5.79219
2.26032
3.92608
1.71179
3.87743
-0.0755666
-0.346309
-0.0723904
0.0167714
0.032882
0.0254001
1.19605
0.787707
-1.72547
-3.9304
1.44777
0.313922
0.165444
-0.632648
0.263575
0.993602
0.728602
-3.82652
0.505114
-0.416765
0.143472
0.137252
-2.33143
0.223783
0.372102
0.0420255
0.0746635
-0.000422856
-0.0030467
-0.000416168
0.000106348
0.000234254
0.000159518
0.0115558
0.00601601
-0.0200087
-0.120527
0.00872003
0.00170969
0.00118765
-0.0039067
0.00265431
0.00868578
0.0108289
-0.147078
0.00495498
-0.00140255
0.000901003
0.000607478
-0.0346961
0.00149645
0.00223748
0.000300283
0.000698493
0.182389
-0.767795
-1.37279
0.0803425
0.0246909
0.109557
-0.0628693
-0.00242161
0.00258053
0.00280878
0.00401792
0.0069339
-0.118334
0.0105778
-0.0995605
-0.00501125
0.00754412
0.00123494
0.000814957
-0.0105603
0.000320478
-0.0155446
-6.39029e-05
-0.000713057
9.33245e-05
1.97537e-05
-2.16932e-06
4.99853e-05
0.000173934
-0.00123963
-0.00138353
0.000340222
-0.003669
0.000240601
1.16679e-05
8.51384e-06
-3.8688e-05
-7.03835e-06
-1.02726e-05
5.94265e-06
-0.0163396
-0.0034855
-0.00204654
0.00116825
0.000532903
0.000520595
-0.000582205
2.52765e-05
5.11928e-05
-0.000130616
2.01781e-05
-9.22403
4.02902
-0.414047
0.751414
-1.15838
9.06422
0.440745
9.33116
-9.06345
0.446317
0.395537
-3.90945
7.15301
-3.73215
7.9211
0.71786
0.829995
-8.88448
0.692332
7.13136
-0.953726
-8.97573
3.9549
1.16015
-1.10989
8.79863
-3.71741
7.6302
6.38081
-1.28605
8.408
1.62713
-8.11974
-1.06295
-3.89032
6.02387
1.41218
6.46139
-8.64242
0.26356
6.10059
6.9089
1.5005
-1.13406
8.21787
-6.37391
-2.59601
1.17659
5.81059
2.78289
4.73251
6.65338
-1.11825
6.17695
4.18719
-1.05079
2.49393
5.33869
4.38994
5.56136
5.37433
2.76708
-1.87012
-6.96985
4.29915
2.34284
-1.43733
6.78269
7.67191
1.98449
-7.44742
0.0347747
-3.94202
1.87094
5.99161
-4.46445
6.01339
2.43595
-1.24276
7.47365
2.52075
-6.76629
2.50732
5.67505
-6.43882
4.57769
2.57787
-1.94558
6.22448
-4.86577
5.46107
6.02792
-3.00827
5.83967
3.02621
-5.54996
-2.60311
-4.40102
4.90492
2.38179
4.50215
-6.17186
-0.86146
5.46502
5.21381
2.49723
-2.68006
5.55706
-4.87944
-1.63602
1.22641
1.87619
1.72442
3.42344
5.50039
-2.2282
3.34425
2.71054
-1.38186
0.926791
0.808969
3.52428
2.32295
0.57327
0.782009
-2.10834
-4.47482
3.37036
1.50158
-3.26727
3.65483
5.17167
2.67314
-4.91778
-2.74914
-3.84746
1.76136
3.45656
-4.12129
2.95193
1.48354
-3.25485
4.72718
2.10839
-4.30976
0.985223
2.04153
-3.75215
2.71773
1.04099
-2.96963
2.48044
-3.72066
2.01572
2.26417
-1.61711
3.04095
1.34332
-3.07945
-0.492411
-1.81752
0.335064
0.221152
0.311368
-3.67836
-3.64407
0.886443
0.802552
0.745036
-2.6698
1.46841
-0.109886
-0.0199332
0.00453623
0.00910839
0.00650312
0.383621
0.289844
-0.0638301
0.0366258
0.0285438
-0.0121314
0.00594625
0.00836249
0.0925448
0.0243991
0.00293887
0.00204757
-2.09791
-5.44198
1.36631
4.67502
2.1625
-0.325948
5.3193
1.98251
-5.4087
-0.634181
-1.97687
-1.54233
1.85476
4.11525
-1.85233
-1.39964
4.89519
1.95104
-4.85103
2.53264
4.43242
-0.534381
-2.06977
2.17532
-5.44622
-0.433046
4.28265
1.86492
2.24976
-2.15297
1.46263
1.99838
-0.278294
-1.82628
1.84751
2.45145
-2.02893
-2.28148
-0.481597
1.57641
1.85814
-5.45744
1.15076
2.16989
4.66716
-0.132972
-1.25439
4.87539
-4.8811
2.42254
-2.5007
5.09448
-5.36169
0.0102524
2.61952
-1.82292
-0.820395
2.27261
1.33816
1.36526
-5.47706
-0.19725
3.96917
1.90596
3.55686
0.00725493
1.87753
0.918234
1.501
-0.112625
-0.961335
-0.373218
0.364283
0.22484
1.12691
0.503695
0.0236923
-0.455667
-1.23974
0.264508
0.172604
-1.40471
0.219411
2.24197
1.12155
-0.838016
0.076377
0.106141
-1.12219
0.17669
0.0838678
-2.18222
0.612393
0.766692
-3.17825
0.0194586
0.0287334
-0.365656
0.07233
0.0380928
-0.484442
0.0602057
-0.37211
0.0363451
0.0361731
-0.282342
0.0763588
0.0531277
-0.733566
-0.00405461
-0.015457
0.00165646
0.000735151
0.00127821
-2.18041
0.0083383
0.00660587
0.00755196
-0.123611
0.012402
-0.000719967
-9.07247e-05
2.28725e-05
5.54569e-05
4.29023e-05
0.00184752
0.00251633
-0.000312567
0.000140614
5.65618e-05
9.75706e-05
-6.18331e-05
1.5393e-05
3.10701e-05
1.19406e-05
0.000458602
0.000163152
1.11649e-05
4.28528e-06
1.79766e-05
-0.0601831
0.0360273
0.0523346
-0.5936
-0.120024
0.00491872
0.00739538
0.000496984
-0.000322384
-0.00826506
0.000415527
0.000663254
0.00033614
0.0713786
0.0118586
-1.05208
-0.0151655
0.00115539
0.000107897
0.000590084
0.00515105
0.00144217
0.00791344
0.00584361
-0.097638
0.00425368
1.96887e-06
7.81611e-07
-9.15363e-06
-5.83691e-06
7.2558e-06
-7.65179e-07
-4.94617e-06
2.29921e-08
6.52643e-07
1.34352e-07
3.74684e-07
-2.58078e-06
-2.60517e-06
-1.76182e-06
6.81258e-08
5.67247e-06
-5.92808e-06
2.26469e-06
-6.94317e-06
-5.54505e-05
-8.30185e-06
-2.38819e-05
-7.64091e-06
-3.47116e-05
8.3556e-08
1.52965e-05
-0.000970467
6.05883e-05
7.02456e-05
2.81323e-06
4.41412e-06
1.13392e-07
-5.3067e-06
4.89484e-07
-8.33392e-06
6.34552e-06
6.87695e-06
-8.15264e-06
1.54419e-06
-8.3593e-06
-4.26982e-05
-6.13106e-05
-9.63895e-06
-3.4746e-05
-9.58365e-06
-4.14072e-05
7.13059e-07
4.66674e-07
1.23527e-07
-2.7924e-06
-2.10152e-06
-1.9205e-06
-0.0117123
0.00237147
-0.0223289
0.00188751
-0.0161708
0.000775759
0.000559066
0.00122568
0.00847569
-0.164352
0.000106979
0.000216274
0.000153256
-0.00204737
9.81505e-05
0.000160083
7.87452e-05
-0.0240771
0.00106889
2.97927e-05
2.02295e-05
1.55367e-05
-4.47996e-08
1.28725e-07
3.649e-07
3.51079e-07
-5.57142e-07
-4.57407e-07
-2.57055e-06
-3.64116e-06
-0.00467988
-0.0167336
0.000487005
0.000771665
0.000873884
-0.000261687
1.9151e-06
-2.59834e-06
1.35129e-07
2.32895e-07
1.20736e-06
-6.9739e-06
-6.76429e-06
-3.87995e-06
-3.95451e-06
-2.19414e-06
-2.59153e-06
-2.01988e-06
1.3716
4.82864
-0.116348
-4.97359
-2.7461
0.516775
-0.13454
-1.21193
4.47014
-4.80606
-1.45153
-2.41019
4.03592
0.909537
-4.39046
-0.807589
2.09871
-1.76789
-4.00128
3.45324
-3.38428
2.51646
-4.00332
3.51689
2.12355
-3.23694
3.09823
1.61233
-1.77216
-3.57837
3.23881
-2.73478
3.42227
2.60917
-4.7738
-1.62541
1.78358
-1.80979
2.45986
2.61236
-2.22285
-4.88441
-1.07413
-3.48412
3.09954
1.60992
3.41501
1.85059
-1.86344
-3.48701
2.70816
3.22191
-2.16172
-3.58943
2.10742
1.62838
2.85183
-0.849174
-3.38433
0.594554
-1.02421
0.72484
1.28401
4.92754
-3.40286
-0.834754
-4.9816
3.38094
-4.72499
-0.967811
2.66863
4.4911
0.727528
-3.40972
-0.13727
0.327787
-2.80285
1.19056
0.505246
-3.06922
-0.252005
-2.17821
0.747447
0.505203
-3.09789
-1.57539
0.0617846
-0.0637169
1.63094
-0.205137
3.0018
-3.05037
-0.0348972
2.22451
-2.85895
3.86165
0.805448
4.66926
-0.121539
-4.94553
-2.3896
-0.324072
-3.20583
-0.0237947
-2.64128
3.77486
1.6768
-3.47814
-0.714825
0.0689478
1.66024
-0.15074
4.62438
-4.94784
-1.91743
0.18395
3.64929
0.118575
-3.70976
-0.21125
-0.303072
0.466735
-1.56779
3.35533
-3.57918
-2.1982
3.69165
0.229487
1.76804
-0.493488
-3.36001
1.84155
0.842686
3.53364
0.548552
-3.53358
-1.20447
0.724292
-0.774566
-3.25267
3.52871
1.30645
-3.91222
0.262832
1.04835
-3.31944
1.03693
0.212894
-3.27803
2.03741
1.32043
-3.7861
3.35643
-3.56711
1.52659
-1.68793
3.37791
2.16933
-3.09271
-1.42078
-2.04783
1.61054
1.52107
-3.1493
1.06287
1.55666
-1.53974
-3.46346
1.94592
1.37258
3.46078
2.22901
-3.09245
-2.01235
1.59697
1.69892
-3.89421
3.52328
2.03671
-3.07558
3.42686
2.17281
-3.01067
1.42386
1.75444
-3.37523
1.84123
1.19452
-3.75898
3.4166
-2.92063
3.5258
-1.88799
3.20111
1.63623
-2.69289
-1.23108
-1.76116
1.15207
1.76813
-2.90006
1.73348
1.11449
-1.11201
-2.89228
1.6991
1.13918
3.02405
1.60974
-2.47429
-1.72555
1.15736
1.8457
-3.44174
3.01416
1.75746
-2.5998
3.45835
1.71461
-2.39827
1.18604
1.82535
-2.78884
1.61963
0.981654
-3.42641
2.93581
-2.61804
3.32447
-1.7658
2.73295
-2.36412
1.80012
-1.13463
-1.49333
0.879722
1.36161
-2.26142
0.813396
-1.88894
0.87178
4.98535
1.90306
-4.32453
-0.094688
-1.02615
1.76469
-4.33367
-1.96357
-5.05331
1.92854
-0.573863
-2.00261
-4.71733
-1.45462
1.86527
-4.32254
-2.10114
-0.227784
1.77838
-4.31848
1.99733
-0.401033
0.742197
5.02686
2.23413
0.0206664
-4.36136
-4.75559
-1.28206
-2.1048
-0.638039
2.76693
-4.48756
-2.46092
-5.25515
2.9815
0.00301069
-4.3701
-0.198361
2.95101
0.135987
-4.44399
-0.802624
-1.93276
1.76079
-3.57348
2.55394
1.90951
-2.26248
-3.79206
-2.03399
0.539764
0.893398
-3.36477
1.05551
-1.5492
0.973491
1.49298
-2.95457
-1.91094
-4.18619
1.84638
0.201149
-0.899574
2.95271
-4.58613
-5.1567
3.04181
0.0957567
5.07011
-4.45502
-0.825217
3.2629
2.08529
3.34715
0.0916903
-4.86674
-0.869507
-4.63977
2.92433
4.90064
0.144671
-4.9413
3.32867
0.139964
4.03054
2.6001
-1.51176
-0.0855282
-1.88205
0.182518
0.309588
0.233486
5.24787e-06
-1.99594e-05
-2.7361e-05
7.17006e-07
3.20345e-07
1.22219e-06
3.64647e-06
-1.18334e-05
-2.04981e-05
-1.28413e-06
-0.0068323
0.00111743
-0.0205668
-3.71468e-06
0.00103817
8.57536e-05
-1.79735
0.000371937
-1.9619
0.364621
0.0670679
0.265255
-0.676234
0.0461242
0.100368
0.0776059
-0.00182882
-0.595109
-0.0217881
0.0562456
0.0782534
0.0494265
-1.12498
0.0298184
0.0895725
0.158713
0.0160557
-9.21724e-05
3.24421e-06
1.06493e-05
1.96683e-06
2.53436e-06
-7.7106e-05
-7.82634e-05
-6.50982e-05
-0.261581
0.00304215
-0.0267099
0.0037515
0.0218523
0.010781
-7.67394e-06
-1.1659e-06
5.58049e-07
9.27713e-07
3.50953e-07
2.12349e-07
-3.34324e-06
-6.02773e-06
-2.72574e-06
-0.00137737
-0.000131717
2.7237e-05
7.85616e-05
2.98304e-05
7.24505e-06
-3.9777e-07
-5.1368e-08
8.08848e-10
1.30356e-08
4.7325e-09
4.64425e-09
-1.0399e-05
-7.59599e-07
1.07915e-07
5.91577e-07
2.33674e-07
7.8487e-08
-5.79602e-09
-4.56975e-10
-2.27669e-10
2.30685e-10
6.39648e-11
9.59233e-11
-0.000137457
4.65442e-05
8.26411e-05
3.4199e-05
-2.43998e-09
-2.56627e-08
-1.42209e-09
2.76338e-09
1.92711e-09
-3.04906e-09
-4.46573e-10
-1.05036e-09
-2.19883e-08
-8.64432e-09
-1.41091e-08
2.04871e-10
2.67904e-10
1.91561e-10
8.9555e-11
-1.78524e-10
-8.3574e-10
-2.39696e-10
-2.16708e-10
-1.40954e-11
-5.31903e-11
-2.77467e-12
-8.60911e-12
2.96012e-11
1.4996e-11
1.05516e-11
2.79066e-12
2.69829e-12
1.80478e-12
8.47322e-13
-8.2931e-10
-8.28098e-10
-1.34814e-10
-1.66677e-10
-2.12281e-09
-2.08064e-08
-1.00076e-08
-3.42638e-09
9.166e-10
4.71331e-10
5.59872e-11
-7.21485e-11
5.63638e-11
5.65379e-11
9.36424e-11
-3.89694
0.616253
0.102799
0.0849291
0.209688
-0.03198
-1.58196
-0.815709
0.184319
0.305941
0.501805
-0.334823
-2.77948
0.33632
0.129059
-1.03787
0.0690602
-0.572685
0.1062
0.0162436
0.037159
0.00205448
-3.81962e-05
4.57255e-05
4.77619e-06
4.06411e-05
-0.000322803
0.00284444
-0.00814698
-0.00532123
0.00458232
0.0104183
-1.95963e-05
2.2127e-05
-8.32297e-06
2.09956e-05
7.94596e-06
-0.000158261
-1.88487
0.19123
0.17203
0.0173661
-0.0295399
-0.21698
0.00751007
-0.0773374
0.0123026
0.00266163
0.00627845
-0.013299
-0.0881672
0.00330746
9.22227e-05
-0.000254974
-0.00128272
-0.000489278
3.69246e-05
6.70291e-05
0.0017965
0.003972
0.00105424
-6.39139e-06
-2.3123e-05
-0.000412319
-4.12845e-05
-0.000123609
1.14043e-05
6.09794e-06
2.22961e-05
-8.4384e-06
-5.91077e-06
-1.63893e-05
-7.17016e-06
-5.71415e-06
-8.77854e-06
-1.85099e-05
-0.0213056
0.000693103
0.0005909
-0.000455126
4.88633e-05
-8.45054e-05
-0.000250187
1.67802e-05
3.45689e-05
1.41199e-05
3.43875e-05
-4.34001e-05
-0.000552575
1.46788e-05
5.52647e-06
8.04845e-06
-5.6785e-05
1.76772e-05
-8.44868e-06
-2.78914e-05
-0.000168347
3.61363e-06
4.33658e-06
6.35324e-06
1.26456e-05
-1.23738e-05
-5.78178e-06
-3.62183e-05
-3.60971e-06
8.44139e-06
-1.75218e-05
-2.81548e-05
-0.000150988
-5.05154e-05
-3.03549e-06
-1.10199e-05
-4.07807e-06
1.16772e-07
4.14857e-08
-2.23012e-07
-1.91826e-06
-5.30881e-08
3.2959e-06
1.00396e-06
-2.53674e-06
-5.44414e-07
-6.66255e-07
-9.66232e-07
1.88173e-06
-1.72584e-05
-1.54066e-05
-1.67825e-05
-1.2835e-05
-8.89771e-05
0.000216641
9.87971e-05
6.09538e-09
-5.51209e-07
-5.02385e-09
1.76684e-09
2.64409e-08
1.21663e-06
-1.13803e-05
7.08246e-06
-4.0088e-06
4.96893e-07
3.03408e-09
6.6062e-08
-1.6404e-07
-3.66288e-08
-1.19621e-07
-3.81575e-08
8.74495e-08
3.07416e-09
2.90255e-07
-3.64669e-06
-2.42989e-06
-3.6135e-06
-3.03415e-06
0.00584064
-0.00215074
0.0169745
-0.0644325
0.0115143
6.41711e-06
-0.00102335
-7.15323e-06
3.89548e-05
-0.00140252
8.14602e-06
9.57332e-05
-0.000244859
-0.04461
0.00972116
0.0513996
0.0042159
0.00970483
-0.0359661
0.00637292
4.67521e-05
-1.255e-05
1.19386e-05
-0.000535054
-3.81119e-06
2.18328e-05
-0.00061413
-1.76955e-05
4.40909e-05
1.47347e-05
-0.000104415
-0.00165197
0.000418271
0.00108414
-0.00415747
0.000676104
-5.97437e-06
3.35027e-06
-8.88411e-05
-3.08143e-07
2.96517e-06
-6.8917e-05
-5.59601e-06
1.3492e-05
2.98671e-06
-1.0649e-05
-0.000676759
7.53288e-05
0.000378977
4.76673e-05
5.56994e-06
7.42544e-06
-1.57733e-05
1.16048e-05
-2.86531e-05
2.14345e-06
1.89495e-06
-3.45079e-05
-0.000129312
-8.53686e-05
-2.23621e-05
7.6676e-06
1.09474e-06
-7.45184e-06
-2.05413e-06
-5.645e-06
-1.74853e-06
7.92901e-07
2.15177e-06
1.10404e-06
-6.32619e-06
-3.90291e-06
-2.45335e-05
-6.72924e-06
-1.22661e-06
-1.27658e-06
-1.95037e-06
-1.33596e-06
9.9558e-06
4.05138e-06
-1.76201e-05
-6.98675e-06
-1.97208e-06
-2.96475e-06
5.73485e-06
-1.48135e-05
-2.67287e-05
-0.00015946
-3.98354e-05
-2.25806e-06
-1.93142e-05
-4.06552e-06
2.47115e-07
1.39193e-07
-5.85304e-06
-1.6418e-06
-1.25925e-06
-3.35065e-06
1.08835e-07
1.70387e-07
4.28456e-07
2.49651e-07
-2.31448e-06
3.43715e-07
1.98706e-06
2.39511e-07
2.46683e-06
9.54293e-07
-6.38058e-07
-1.48336e-06
-3.09834e-07
-2.63251e-07
1.3629e-06
-5.49372e-06
-6.40476e-06
-8.11188e-06
-1.3457e-05
9.55135e-09
1.26333e-08
-1.81154e-07
-4.65392e-07
-3.45116e-07
-1.8621e-07
4.45805e-08
1.91403e-08
3.66321e-08
1.26691e-07
5.79975e-08
5.95897e-07
1.97913e-07
-1.85348e-07
-7.12303e-08
-1.32691e-08
-4.48322e-08
3.87055e-07
4.72076e-10
1.71343e-09
-4.65386e-08
-1.61433e-08
-1.92953e-08
-4.84665e-08
2.62434e-09
7.68101e-09
2.69852e-08
1.05307e-08
-1.19224e-08
-6.45824e-09
6.90377e-09
1.69345e-09
1.17521e-07
3.40885e-08
-3.96502e-09
-9.04944e-09
-4.72969e-09
6.49734e-11
5.86706e-08
-1.35286e-10
2.09026e-10
-9.99567e-10
-2.91898e-09
-5.47316e-09
-2.08482e-09
6.16158e-10
3.40288e-10
1.28396e-09
4.35499e-09
1.4872e-09
6.15966e-06
-1.14732e-05
-2.0214e-06
-1.18456e-06
-2.77769e-06
3.10731e-06
3.8883e-06
-1.39738e-05
-1.48477e-05
-3.95029e-05
-6.53111e-06
-6.89495e-06
-8.72333e-06
-3.16526e-07
-8.84827e-09
3.40653e-09
3.24396e-07
-1.91088e-08
-6.41144e-08
-1.93629e-08
-1.94498e-08
1.24232e-07
1.39429e-07
2.37813e-06
-5.84429e-06
-8.48358e-07
-5.89496e-07
-1.64735e-06
1.58854e-06
1.0156e-06
-5.62919e-06
-4.75224e-06
-8.06969e-06
-2.23102e-05
-6.06126e-07
-6.06261e-07
-8.409e-07
-5.87951e-07
1.10236e-07
-8.03032e-09
-3.79489e-08
-2.04093e-08
-9.06921e-09
5.29831e-08
4.84601e-08
-1.48629
4.23051
-0.294606
0.612952
1.86499
0.289124
1.46913
0.110511
-4.37013
1.23702
0.785643
-3.81025
0.598936
0.247191
1.02524
0.566502
0.285339
1.09797
0.749863
1.88477
-1.39867
3.76435
0.870895
1.72799
-3.44176
0.51715
0.786338
-0.804096
1.26609
0.935539
-0.374249
-2.95172
0.307858
0.475115
0.456567
0.803763
0.634334
0.997283
1.51825
-0.00165028
-0.00238359
-3.22621e-05
9.39349e-05
0.000251733
0.000266687
0.000119337
0.0019454
0.00113514
0.00037512
0.00286958
-0.00578644
0.00364462
0.0138497
0.0316686
0.00572816
-0.0239432
0.000348184
0.000954003
0.00106644
-0.00483624
0.00304758
0.00030382
0.000313989
-0.00103055
-0.00151032
8.0483e-05
0.000155808
0.000160359
0.00906045
0.0208111
-0.0157675
-0.000310218
0.000469743
0.00015351
0.0002904
-0.00095664
0.000706045
0.000405756
-0.00152974
0.00090912
0.000609674
-0.00314141
0.00191122
3.62988e-05
7.08765e-05
8.21021e-05
-0.934714
-0.695544
0.727548
0.559886
0.815122
1.01397
0.912969
-1.73465
0.144218
0.229117
0.233831
-0.857541
0.0608044
0.0585458
0.0982408
1.25515
0.639217
0.0415846
0.0758165
0.0720281
-0.311056
0.24681
0.144279
0.289562
-0.328635
0.0155971
0.0277733
-0.222378
0.0722853
0.0491402
-0.00793467
-0.0554285
0.00143195
0.00364514
0.0026256
0.0188767
0.0160177
0.0257547
0.0521874
-1.23578e-05
-4.37756e-05
-6.89438e-05
6.32023e-06
2.89735e-06
0.000165324
5.37396e-05
0.000104399
0.000253475
0.000184434
-0.000555998
0.000532452
0.00115329
-0.000924972
0.000298212
2.37792e-05
2.90721e-05
1.41353e-05
-0.000157617
3.84258e-05
-0.00446732
-0.00334605
0.00230991
0.00104987
0.001542
0.0151968
0.0104345
-0.0106621
0.000263841
0.000677467
0.000423113
-0.00531669
0.000160779
0.000147567
0.000334641
0.00767608
0.00252209
6.49431e-05
0.000150633
9.0728e-05
-0.00094569
0.000656753
0.000298787
0.000420563
-0.0016522
4.7762e-05
0.000104072
-0.000727377
0.000294782
0.000232765
-1.95183e-05
-0.000213199
6.51741e-06
1.51576e-05
9.7207e-06
4.55672e-05
2.72897e-05
8.13006e-05
0.000134071
-2.8277e-05
-2.20224e-05
1.77156e-05
6.83894e-06
9.21223e-05
7.05613e-05
-6.63474e-05
2.0662e-06
4.59273e-06
-4.38152e-05
7.27818e-07
1.07604e-06
2.69527e-06
1.78467e-05
6.00735e-07
1.41357e-06
-4.92956e-06
4.17421e-06
1.55005e-06
-1.01816e-05
1.58006e-07
6.16484e-07
-3.67658e-06
7.29418e-07
7.03639e-07
-2.09053e-07
-9.72035e-07
1.10544e-07
4.15126e-08
3.35444e-07
2.99334e-07
-6.1842e-06
-7.35002e-05
7.63694e-07
4.23543e-06
-1.19915e-07
3.64881e-06
0.000370772
0.000170777
2.49652e-05
-3.29184e-06
3.81798e-06
1.11535e-05
6.21954e-06
-1.57508e-05
4.42711e-05
2.41552e-05
1.73533e-05
1.79097e-05
-8.9033e-07
-3.39115e-06
2.74415e-05
2.67667e-06
1.30332e-06
3.16931e-06
-2.32879e-07
3.00209e-08
2.39254e-07
1.48352e-08
-1.25689e-07
1.52498e-07
2.65531e-07
-8.34995e-07
4.44119e-09
-8.55441e-10
3.78743e-08
-1.63433e-07
-1.83796e-09
2.50046e-09
1.22133e-08
-2.58824e-08
5.42967e-08
-1.67474e-10
1.55689e-08
0.0173484
0.163617
0.122762
0.00118764
0.000400399
0.013979
0.076044
0.137685
0.0446042
0.138583
0.0469594
0.105341
0.000123706
0.00347794
0.0118022
-0.00116457
0.00334863
0.00704889
0.0110567
0.00832444
0.0133444
0.00853443
0.0179907
-0.0236396
0.0140438
0.000615578
4.19326e-06
-0.00167542
0.00143184
0.00115358
0.00681983
0.0031896
0.00508683
0.00212678
0.00385399
4.45076e-06
0.000144602
0.000414998
-0.000472202
0.000103775
0.000201241
0.000301904
-0.00138531
0.000753831
0.00111727
1.5313e-05
4.12759e-05
-7.78164e-05
1.80279e-06
-5.69296e-07
-9.08227e-06
1.76111e-06
5.26613e-06
1.89795e-05
7.68108e-06
1.87665e-06
9.9282e-06
3.36818e-06
-2.81029e-07
3.53848e-07
4.44746e-07
-1.15063e-06
2.62918e-07
-5.06256e-06
1.54091e-07
3.71477e-07
-3.79067e-07
1.88217e-08
-3.3108e-08
-4.413e-08
1.57881e-08
-1.03068e-08
1.55217e-07
5.77811e-08
2.74374e-08
1.18876e-07
3.94437e-08
-1.35117e-08
3.78756e-09
4.54744e-09
-2.25479e-08
6.65966e-09
-5.00515e-08
1.77616e-05
8.05968e-06
2.71552e-06
1.94744e-06
5.2492e-06
1.1473e-05
5.53817e-06
7.20758e-07
1.44221e-06
3.26503e-08
8.08346e-07
-3.03145e-06
3.95461e-07
1.43462e-08
4.72511e-09
2.0446e-09
-1.54447e-10
2.81402e-11
5.17417e-11
1.97735e-10
4.36049e-10
1.33977e-09
4.36641e-09
-1.69372e-09
2.33305e-09
9.64219e-10
-4.66249e-08
-2.25082e-11
-3.73195e-11
4.25633e-10
5.46255e-07
2.85676e-07
1.33731e-07
-3.62033e-08
-2.99722e-06
-4.39032e-06
-3.3701e-06
-1.77023e-06
-1.75236e-06
-1.28665e-06
8.63948e-09
5.96288e-09
2.97658e-09
2.22833e-08
2.73098e-08
6.3924e-09
-1.46392e-09
2.38175e-08
-3.81313e-11
-4.41922e-11
3.97106e-09
1.5433e-09
0.03094
0.0945154
-0.0437991
0.0469396
0.0369228
-0.00320256
-4.86139e-05
0.00378631
0.0916269
0.0706623
-5.21234e-05
0.00765729
0.00288994
0.00454544
0.00693288
0.00217075
0.00323947
0.000308191
0.00170543
0.000227037
-0.000421699
0.000218651
0.000136175
-5.87733e-05
-2.66623e-06
9.1095e-06
0.00114305
0.000834046
-8.96765e-06
4.23635e-05
3.54773e-05
3.21399e-05
6.59366e-06
1.68935e-06
6.00609e-06
6.53469e-07
-1.34249e-06
1.22532e-06
-1.76103e-07
-1.31932e-07
5.29325e-08
3.30286e-06
-1.05465e-07
1.51443e-07
1.47803e-07
-1.32246e-09
3.48531e-08
6.09501e-09
-1.21381e-08
1.09492e-08
-8.76973e-10
-1.48833e-09
2.53655e-10
3.14729e-08
-5.03239e-09
1.08636e-09
2.84429e-09
1.11162e-07
1.10365e-07
-1.37332e-07
1.30803e-08
-6.02283e-08
-3.54535e-09
5.26197e-08
-9.94702e-09
7.41387e-08
4.03516e-06
8.88105e-07
-1.25482e-05
-1.11905e-05
-3.46643e-05
-2.84981e-05
1.40181e-06
4.82764e-08
4.33231e-08
4.97401e-07
3.56515e-08
2.83643e-08
2.72658e-07
2.99321e-07
1.53343e-06
4.99259e-06
1.11084e-06
-2.4412e-05
-1.98429e-05
-3.85967e-05
2.14784e-06
8.54507e-07
-6.76766e-06
-5.05537e-06
-9.27067e-06
-1.66096e-05
8.05472e-07
8.00931e-09
4.75287e-08
2.92526e-07
1.01273e-07
2.8015e-08
1.6305e-07
2.09083e-07
7.99977e-07
1.98984e-07
2.74893e-07
-3.48466e-06
-4.76715e-06
-4.22464e-06
-3.42789e-06
-2.19691e-09
2.1033e-08
5.77571e-08
1.68584e-08
1.16205e-08
3.86794e-08
2.66369e-08
3.46159e-08
2.12686e-07
4.18656e-08
1.05924e-07
3.12816e-08
6.23291e-08
-1.32972e-09
2.43113e-09
1.15504e-08
1.99144e-09
1.62018e-09
9.29174e-09
2.29448e-08
1.87556e-08
7.2702e-09
4.7242e-09
-2.50768e-11
1.767e-10
6.35179e-10
1.50452e-10
3.52892e-10
1.09424e-09
9.76518e-10
-8.8742e-10
1.60793e-09
5.94413e-10
5.52808e-09
1.47162e-09
1.34323e-09
-1.05867e-10
1.80123e-11
1.26391e-10
2.6704e-11
6.66214e-11
3.96593e-10
8.8971e-10
1.146e-09
2.98837e-10
8.94218e-11
-1.19726e-11
2.76223e-12
1.43174e-11
4.4178e-12
2.03126e-11
6.17959e-11
4.69811e-11
-3.97389e-11
2.80238e-11
1.27223e-11
1.84503e-10
4.24194e-12
-6.32916e-12
3.72857e-12
8.47322e-13
1.48397e-11
4.6672e-11
2.51261e-09
2.46017e-08
1.18213e-08
-3.0704e-10
4.13308e-10
2.26466e-09
9.52362e-10
2.64158e-10
1.9206e-11
5.33333e-11
6.34657e-11
9.59943e-12
7.0699e-13
2.04636e-12
2.86349e-12
4.05009e-13
-3.87529e-06
-4.51808e-07
-2.01362e-06
-2.98941e-07
3.12289e-07
2.44041e-07
1.31313e-07
-4.09576e-07
-2.49657e-06
-5.20371e-07
-3.40015e-06
4.3894e-06
-1.13333e-05
1.90969e-06
-6.33107e-06
-5.21928e-06
-1.97906e-05
-4.46533e-06
-6.75187e-06
-1.89375e-05
-2.40944e-05
3.22444e-06
1.07362e-05
2.98356e-06
-5.58979e-06
-2.10341e-05
-4.13277e-06
1.11866e-05
-6.21674e-05
-0.000537773
-1.97878e-05
1.61285e-05
4.64446e-05
-2.37171e-06
1.22267e-07
3.13439e-07
3.64579e-06
2.08555e-06
8.88825e-07
-1.23697e-05
-5.17245e-06
-1.62851e-06
-0.00017582
5.17642e-06
-6.92904e-05
-1.34451e-05
2.26221e-05
2.45736e-06
4.40041e-06
-4.28264e-06
-1.48529e-05
-5.55555e-06
-2.89428e-06
-8.2808e-06
-3.05425e-05
-1.71043e-05
-7.28816e-06
-7.72457e-07
-5.97177e-07
-5.55492e-07
-9.1966e-07
9.33178e-07
1.98169e-06
7.43772e-07
-8.64178e-06
-1.06736e-05
-4.14469e-06
-2.45845e-06
-2.62908e-06
-3.24104e-06
2.62378e-06
1.29158e-06
-1.21045e-05
-4.42819e-06
-1.46332e-05
-5.67769e-06
-7.07456e-06
-2.41465e-06
1.84592e-07
5.0991e-08
4.35031e-06
1.52166e-06
-6.55821e-07
-1.40706e-05
-1.78264e-05
-0.00662085
0.000881151
0.000174492
-0.0153447
-0.000171727
0.000891807
-1.66724
0.0666973
-1.47456
-0.0796423
0.270151
0.194395
-0.113394
-0.295705
-0.0208434
0.0149134
0.0275756
6.28325e-05
-0.0023544
-2.57188e-05
-0.00155767
0.000185499
0.000154135
4.34089e-06
2.96655e-06
-2.89798e-05
-6.09488e-06
-2.06612e-05
7.31468e-06
-2.26599e-06
8.58062e-07
1.28768e-06
5.67394e-07
-5.92862e-06
-4.74534e-06
-4.89896e-06
-5.97577e-06
-1.68914e-07
7.07342e-08
1.05319e-07
3.76108e-08
-1.53308e-06
-6.9692e-09
-1.57179e-09
-9.47257e-10
-3.46056e-10
5.23524e-09
-2.26846e-08
-3.65487e-08
-1.10527e-07
-2.92508e-08
2.15954e-09
3.24238e-09
1.8538e-08
-1.18801e-07
4.06369e-09
1.43935e-08
1.13394e-06
3.86762e-07
4.18135e-07
-1.03109e-05
-1.07382e-05
-7.82742e-06
1.72356e-08
1.70579e-08
-2.25013e-05
5.13026e-07
-2.24773e-05
1.13994e-05
4.83185e-06
-0.000159064
7.17633e-07
1.88831e-05
1.02269e-05
2.88177e-07
-5.73131e-06
-5.74869e-06
-4.99732e-06
-5.20083e-06
1.44622e-06
-4.86819e-06
-4.86008e-06
-3.48717e-06
-3.45172e-06
1.76731e-06
-0.0012622
-0.00083995
4.27276e-05
9.98038e-05
7.28678e-05
-1.26065e-05
-1.52913e-06
2.74425e-06
1.75166e-06
-9.5894e-06
8.34591e-06
4.68594e-06
2.34408e-06
-9.46888e-05
-3.79062e-05
-1.37975e-05
-8.91506e-06
-6.91318e-06
-1.0819e-05
-4.80626e-06
-9.04324e-07
-6.06132e-07
-5.89425e-07
-7.49185e-07
6.04885e-06
1.77852e-07
8.87969e-07
-4.36278e-06
-4.40402e-06
-2.96465e-06
-4.11442e-06
1.07994e-06
2.34176e-06
8.74589e-07
2.60187e-06
-4.92525e-06
-1.10111e-05
-2.48131e-06
-3.78867e-06
-5.66908e-06
-6.33632e-06
-1.25842e-05