/*--------------------------------*- C++ -*----------------------------------*\
  =========                 |
  \\      /  F ield         | OpenFOAM: The Open Source CFD Toolbox
   \\    /   O peration     | Website:  https://openfoam.org
    \\  /    A nd           | Version:  9
     \\/     M anipulation  |
\*---------------------------------------------------------------------------*/
FoamFile
{
    format      ascii;
    class       volScalarField;
    location    "0.00175";
    object      rho;
}
// * * * * * * * * * * * * * * * * * * * * * * * * * * * * * * * * * * * * * //

dimensions      [1 -3 0 0 0 0 0];

internalField   nonuniform List<scalar> 
13997
(
1.88986
2.23105
1.95452
1.53942
1.56841
2.2588
1.87218
2.03617
2.07785
1.22535
1.225
1.225
1.5321
1.92951
1.81399
2.07838
1.85254
1.54925
1.84466
1.5307
1.46151
1.25557
1.25004
1.22686
1.26645
1.65626
0.924472
1.42997
0.970715
1.72396
0.774733
1.59727
1.13425
1.11894
1.88523
1.74709
1.55097
1.72971
1.34607
1.29861
1.45759
1.66266
1.68433
1.72962
1.41248
1.56891
1.73139
1.47846
1.6328
1.45248
1.73466
1.50477
1.73618
1.50294
1.51586
1.40058
1.72715
1.3666
1.52346
1.34599
1.6818
1.47481
1.28884
1.27259
1.43611
1.29878
1.57954
1.43173
1.46857
1.22605
1.24953
1.82463
1.50972
1.36305
1.27324
1.74704
1.63322
1.31438
0.977462
0.60244
1.6128
1.10771
2.09526
2.15589
2.12524
1.26602
1.27128
1.22505
0.520612
0.979302
1.15028
0.725801
1.82517
2.02462
0.849589
2.19748
0.943424
2.1493
2.09645
2.35989
2.44683
2.52561
2.24634
2.06607
2.59881
1.45285
2.03259
1.95664
1.23066
1.23179
1.33479
1.22564
1.36223
2.2969
1.65789
1.22553
1.95644
1.23339
1.22503
1.22506
1.22558
1.22501
1.47816
0.892421
1.00544
0.631808
0.931711
1.03992
1.43403
2.40074
1.60069
1.71244
1.50173
2.18504
2.07211
2.02746
1.26179
2.20151
1.46719
1.79011
1.38465
1.62265
1.29794
1.22528
1.23856
1.22802
1.23711
1.22606
1.22867
1.22582
1.4448
1.22947
1.23945
1.2267
1.22513
1.22546
1.22501
1.22648
1.22506
0.890082
0.89916
0.732534
0.548604
0.930766
0.765395
0.856752
0.961394
0.604335
1.13349
1.00215
0.99441
0.839648
1.11529
1.61574
0.703666
1.25168
1.37384
1.03571
1.14697
1.87341
1.76913
1.37824
1.29594
1.30643
1.37605
1.76133
1.78535
2.34165
1.84133
3.00262
2.76696
2.35368
2.36091
2.82414
2.31628
1.96405
2.5872
1.8533
2.48468
2.11906
1.82758
2.85285
3.39556
2.81643
2.53813
3.01922
3.38445
2.48205
2.48286
2.26189
2.76543
1.60987
3.07369
1.98323
2.16252
1.23553
1.48736
1.2669
1.23411
1.35116
1.25035
1.22844
2.30416
1.4129
2.08556
1.61012
2.17123
1.67197
2.21446
3.42957
3.46365
3.8026
3.02455
2.45368
1.95799
2.44999
2.30185
2.06124
2.34048
2.4965
2.81426
1.67469
2.36591
1.99246
1.53141
2.49389
1.37302
1.39556
1.85421
2.14406
1.26731
1.31379
1.26523
1.34849
1.22705
1.69545
1.23509
1.24405
1.22507
1.22788
1.22517
1.22504
1.22587
1.22519
1.22501
1.30248
1.23313
1.22581
1.3746
1.22641
1.24283
1.23477
1.225
1.225
1.225
1.22512
1.225
1.225
1.225
1.22814
1.22652
1.24521
1.22528
1.22521
1.22764
1.22504
1.225
1.22642
1.225
0.575013
0.594838
0.622663
0.711242
0.758991
0.948705
1.00776
1.85091
1.08234
1.82482
2.20526
1.95884
2.77079
2.27058
2.21073
1.99863
0.386298
0.308811
0.587991
0.573648
0.300065
0.589536
0.397372
0.36858
0.572251
0.287478
0.632115
0.28624
0.597899
0.36989
0.450747
0.304723
0.671014
0.639014
0.397222
0.334683
0.716507
0.537516
0.662353
0.445826
0.940684
0.379964
0.804837
0.65934
0.84781
0.505985
1.06182
0.803891
0.766465
0.552953
1.15845
0.914278
0.865846
0.64968
1.34164
0.600018
1.24197
0.986076
1.22652
0.727329
1.48383
1.2762
1.08758
0.851693
1.64835
1.40059
1.53037
1.30198
1.82989
1.02937
1.78145
1.58363
1.05127
0.833615
1.07571
1.1818
0.916086
0.956684
1.26871
1.25013
1.44909
1.44063
2.02431
1.14245
1.57231
1.55768
2.24029
1.97196
1.85028
2.15675
2.0915
2.40206
1.58099
1.90174
2.43438
2.45226
2.02017
2.36074
2.46086
2.62546
1.61083
1.225
1.225
1.22684
1.66786
1.35555
1.32524
1.38834
1.225
1.24825
1.225
1.22509
1.225
1.225
1.225
1.2251
1.225
1.225
1.225
1.86076
1.47276
1.65597
1.37912
1.23871
1.22504
1.22912
1.22502
1.49162
1.24622
1.23204
1.22512
1.22669
1.22501
1.2266
1.22506
1.22504
1.22501
1.22501
1.225
1.225
1.225
1.22525
1.225
1.225
1.225
1.24439
1.22508
1.22511
1.27758
1.23643
1.22504
1.22505
1.22638
1.22501
1.22501
1.22544
1.22501
1.225
1.225
1.225
1.225
1.225
1.225
1.225
1.225
1.225
1.225
1.225
1.225
1.225
1.225
1.225
1.225
1.225
1.225
1.225
1.225
1.225
2.16893
1.80403
2.01188
1.8293
1.82856
1.9649
2.15636
2.20496
1.769
1.99201
1.68939
1.90564
1.86115
2.22138
1.22531
1.22615
1.22866
1.23649
1.22597
1.22806
1.22537
1.22519
1.23275
1.22532
1.226
1.22563
1.22701
1.22509
1.8987
1.98649
1.47534
1.33169
2.15077
1.84658
1.30633
1.50238
1.25481
1.31496
1.22927
1.5538
1.24585
1.28528
1.22501
1.22512
1.22537
1.22552
1.22503
1.22503
1.22511
1.22772
1.24726
1.22582
1.2254
1.23726
1.23088
1.22518
1.22578
1.22512
1.22564
1.22502
1.22687
1.22505
1.22525
1.22502
1.2252
1.22501
1.225
1.22508
1.22505
1.225
1.225
1.225
1.225
1.225
1.22501
1.225
1.225
1.22501
1.22543
1.22501
1.22505
1.22502
1.22509
1.225
1.225
1.225
1.225
1.225
1.225
1.225
1.225
1.39481
1.23947
1.36746
1.36533
1.23722
1.23643
1.2388
1.24437
1.22664
1.23265
1.23074
1.22549
1.22536
1.22629
1.22505
1.22501
1.22502
1.22501
1.225
1.225
1.225
1.225
1.225
1.225
1.225
1.225
1.225
1.225
1.22502
1.22501
1.22501
1.225
1.225
1.225
1.225
1.225
1.225
1.225
1.225
1.225
1.225
1.225
1.225
1.225
1.225
1.225
1.32259
1.27276
1.22917
1.31714
1.23312
1.23235
1.22858
1.22698
1.22526
1.22503
1.22635
1.22512
1.22508
1.22502
1.22501
1.225
1.225
1.225
1.225
1.225
1.225
1.225
1.225
1.225
1.225
1.225
1.225
1.225
1.225
1.225
1.225
1.225
1.225
1.225
1.225
1.225
1.225
1.225
1.225
1.225
1.225
1.225
1.225
1.225
1.225
1.225
1.225
1.225
1.225
1.225
1.225
1.225
1.225
1.225
1.225
1.225
1.225
1.225
1.225
1.225
1.225
1.225
1.225
1.225
1.225
1.225
1.225
1.225
1.225
1.22501
1.22504
1.225
1.225
1.22502
1.225
1.225
1.225
1.225
1.225
1.22648
1.55883
1.25771
1.22525
1.225
1.225
1.225
1.225
1.225
1.225
1.225
1.225
1.22501
1.225
1.22514
1.225
1.225
1.225
1.225
1.225
1.225
1.225
1.225
1.225
1.225
1.225
1.225
1.225
1.225
1.225
1.225
1.225
1.225
1.225
1.225
1.225
1.225
1.225
1.225
1.225
1.225
1.225
1.225
1.225
1.225
1.225
1.225
1.225
1.225
1.225
1.225
1.225
1.225
1.225
1.225
1.225
1.225
1.225
1.225
1.225
1.225
1.225
1.225
1.225
1.225
1.225
1.225
1.225
1.225
1.225
1.225
1.225
1.225
1.225
1.225
0.854883
0.74597
0.794911
0.691185
0.736996
0.915187
0.804213
0.821519
0.898239
1.225
1.225
1.225
1.225
1.225
1.225
1.225
1.225
1.225
1.225
1.225
1.225
1.225
1.225
1.225
1.225
2.20432
1.225
1.225
1.225
1.22501
1.225
1.225
1.225
1.225
1.225
1.225
2.37346
2.47464
1.79033
1.26371
1.22564
1.22507
1.225
1.225
1.225
1.225
1.56726
1.22641
1.69027
1.35029
1.29743
1.31532
1.27112
1.23195
1.23894
1.08282
1.2832
2.22759
2.46812
1.31245
2.31046
3.63725
2.42913
2.86423
2.41761
3.14561
2.67675
3.27348
4.92115
3.60348
4.02531
4.375
4.18355
2.51228
2.85803
3.93431
2.84526
3.69576
4.51923
6.17655
6.50253
5.43269
7.44008
4.13697
2.73249
3.89535
2.0678
4.5064
2.46861
3.58405
7.80929
7.04842
8.04137
6.92203
1.6714
1.92743
1.91324
1.72049
2.26062
0.94353
1.78559
1.04004
1.13467
2.04825
1.29156
1.26278
1.57077
1.22019
2.73737
1.73557
1.39375
2.00594
1.68968
1.41136
2.02791
1.71581
2.42959
1.6196
2.50495
2.06009
2.1495
1.71652
2.8352
2.76626
1.59838
3.35431
1.73301
2.92352
1.47995
3.13372
2.48848
1.5496
2.54189
2.02354
2.36199
1.83689
2.63441
1.2387
1.22508
1.43821
1.13468
1.18471
0.953373
1.14705
1.20534
1.41868
2.01169
2.29906
2.37463
1.94222
1.66809
1.29416
1.34864
1.60467
1.78951
1.70357
1.50487
2.24568
1.43067
2.0881
1.92789
1.48797
0.974803
1.23728
1.37862
1.16903
1.26187
1.61252
2.10686
2.71245
2.47664
2.32375
1.75716
1.61306
1.43273
1.95596
2.06312
1.33444
1.56187
1.2232
1.81005
1.41487
1.81261
3.31089
3.14203
2.71137
3.80804
2.86932
1.93281
2.31087
2.44782
2.72566
2.10316
1.6933
3.37478
1.73969
3.17138
2.92059
2.35017
1.27862
1.41863
2.34098
1.44138
2.11654
2.55252
4.15074
5.69028
4.72346
5.05594
3.66948
4.05465
3.2133
4.53025
2.46601
1.36552
2.38391
1.21688
2.57928
1.29877
2.28404
5.61213
6.23819
5.5834
6.22701
5.04235
4.53895
5.01884
4.56611
2.48995
1.59018
1.40054
2.54329
1.39152
2.76568
2.33685
2.24809
1.18592
1.2721
2.03181
1.24779
2.10186
2.13606
5.18664
4.91212
5.67185
4.59379
4.64916
3.79086
4.21558
4.13723
3.74374
4.37537
4.19152
3.80241
2.61664
2.43774
2.62696
2.65969
2.25901
2.70439
2.63321
3.04522
1.99866
2.98428
2.11868
1.22603
1.35262
1.2315
1.23376
1.3941
1.22643
1.24379
0.72142
0.618442
0.76038
0.963187
1.11587
1.20872
0.729305
0.869409
1.02564
1.06709
1.08704
1.19301
1.8536
0.356162
0.653216
0.626867
0.496764
0.651303
0.67786
0.750027
0.782556
0.906645
0.248867
0.168123
0.200928
0.211564
0.295289
0.310664
0.251528
0.349606
0.474148
0.378631
0.409699
0.443121
0.545339
0.513848
0.761249
0.40475
0.317695
0.763812
0.628246
0.328795
0.770304
0.385148
0.425352
0.630784
0.379609
0.794787
0.346379
0.773942
0.46126
0.555618
0.417071
0.810966
0.692645
0.505272
0.46174
0.813974
0.616488
0.712568
0.589109
0.845429
0.51795
0.819798
0.689346
0.779333
0.652486
0.872002
0.807567
0.747582
0.692516
0.887396
0.814815
0.84726
0.771932
0.97554
0.732247
0.921695
0.852994
1.225
1.225
1.225
1.225
1.225
1.225
1.225
1.225
1.225
1.225
1.225
1.225
1.225
1.225
1.225
1.225
1.225
1.225
1.50154
1.96573
1.74045
1.23511
1.22504
1.225
1.225
1.225
1.225
1.87175
2.39302
2.48684
1.22582
1.225
1.225
1.225
1.225
1.225
2.93898
2.99587
1.34705
1.225
1.225
1.225
1.225
1.225
1.225
1.38837
3.08213
1.22508
1.225
1.225
1.225
1.225
1.225
1.225
1.225
1.4566
1.225
1.22501
1.225
1.225
1.225
1.225
1.225
1.22503
1.225
1.225
1.225
1.225
0.972423
1.38042
1.01461
0.889783
1.76488
1.20877
1.5808
1.95197
1.33825
1.91198
2.15268
2.04991
2.12916
1.94045
1.92826
1.22566
1.22503
1.225
1.23019
1.22518
1.22502
1.225
1.225
1.225
1.225
1.22501
1.225
1.225
1.225
1.1901
1.51601
2.15749
1.80142
2.28854
2.652
2.82767
2.99473
1.4716
2.51925
1.24295
1.22506
1.225
1.225
1.22504
1.225
1.225
1.225
1.225
1.225
1.225
1.225
1.225
1.225
1.225
1.81119
1.89004
1.26473
2.70992
3.60594
2.29622
3.0337
2.319
2.95187
1.79201
1.22535
1.22619
1.225
1.225
1.225
1.225
1.225
1.225
1.225
1.225
1.225
1.225
1.225
1.225
1.225
1.225
1.225
2.01169
1.28504
2.69533
2.04928
3.17405
1.29534
1.22988
2.66767
1.22503
1.92531
2.89624
2.81867
1.225
1.225
1.225
1.225
1.225
1.225
1.225
1.225
1.225
1.225
1.225
1.225
1.225
1.225
1.225
1.225
1.225
1.225
1.225
1.225
1.225
1.225
1.225
1.225
1.22518
1.225
1.225
1.225
1.225
1.225
1.225
2.26587
1.22501
1.38787
1.225
1.22507
1.225
1.225
1.225
1.225
1.225
1.81003
1.91608
2.48636
1.25715
1.97016
1.97389
2.63854
1.24221
1.72925
2.41904
2.70294
2.88736
1.2251
1.3262
1.23138
2.25341
1.22504
1.22989
1.34044
1.22763
1.22671
1.225
1.22505
1.225
1.22502
1.225
1.225
1.22511
1.225
1.225
1.225
1.225
1.225
1.225
1.225
1.225
2.58068
2.08765
2.46686
1.98006
2.10678
2.50762
2.54029
1.78962
1.27163
1.31778
1.22222
0.829709
0.86551
1.18284
1.225
1.225
1.22501
1.22503
1.225
1.22501
1.225
3.8312
2.49465
3.23217
2.68171
3.28484
2.7848
3.78317
2.00135
2.66106
2.41936
2.19385
1.4227
1.89711
1.80613
1.225
1.225
1.225
1.225
1.225
1.225
1.225
4.63683
2.99816
5.0344
2.91792
4.97414
2.81148
4.79672
1.23809
2.25755
1.43333
1.25924
2.33085
1.43411
1.66874
1.225
1.225
1.225
1.225
1.225
1.225
1.225
2.93602
2.6699
3.27046
3.20177
3.06481
2.87243
3.07337
1.225
1.22542
1.22502
1.22502
1.22668
1.22509
1.22532
1.225
1.225
1.225
1.225
1.225
1.225
1.225
1.225
1.23036
1.225
1.2661
1.22509
1.22519
1.225
2.04629
1.22521
1.2325
1.22549
1.23271
1.225
1.22504
1.225
1.22503
1.225
1.225
1.225
1.22501
1.225
1.225
1.225
1.225
1.225
1.225
1.225
1.225
1.225
1.225
1.225
1.225
1.225
1.225
1.225
2.09163
1.56124
2.28032
1.77987
1.57435
2.31979
2.0576
1.24644
1.48372
1.52105
1.83053
0.933497
0.966247
1.78104
2.55674
2.84903
2.93258
2.48254
2.17883
1.82785
1.71466
2.63065
1.61616
2.41893
2.35775
1.60707
1.51236
1.77121
1.93802
1.17999
1.04013
2.14439
2.70851
3.44575
3.09847
3.01262
2.50054
2.06256
2.26976
1.93202
2.08243
2.29853
2.46274
3.1745
3.06384
3.1487
3.09153
3.03281
2.65544
2.73568
2.95171
2.67576
2.02223
2.26425
2.84282
2.14389
2.61063
2.9012
2.58531
1.95066
2.22462
2.55601
2.1144
2.37101
2.79318
3.32284
3.675
3.31648
3.65531
3.16153
3.1115
2.8486
3.45914
2.06425
2.44208
2.44585
1.9985
1.93189
1.89145
1.97417
1.44023
2.2006
1.66855
1.34137
1.14146
0.959397
1.57026
2.46883
1.71603
2.45394
2.07834
1.67262
1.81207
2.15459
1.22685
1.23429
1.22518
1.22557
1.2327
1.22515
1.22724
1.22618
1.22537
1.2277
1.22504
1.23015
1.22509
1.22556
1.225
1.225
1.225
1.225
1.225
1.225
1.225
1.225
1.22502
1.225
1.225
1.225
1.22501
1.225
1.225
1.225
1.225
1.225
1.225
1.225
1.225
3.02087
1.87247
2.97686
2.38487
2.63907
2.04082
3.45529
2.02545
2.25852
2.38982
2.93203
1.41861
2.46703
1.81479
4.3181
4.05831
3.53124
5.00221
3.44585
2.55281
2.24562
4.4384
2.15985
4.00213
3.77914
2.90413
3.42412
3.24251
3.5836
2.98535
2.41385
4.29286
5.44696
7.8668
6.36711
6.66541
5.27197
4.32805
4.27968
5.35764
4.47135
2.88765
3.06618
4.92949
3.00101
4.43098
4.92473
6.71111
8.50754
6.86694
8.23695
2.33296
1.30071
1.99073
1.92553
1.49006
2.11723
1.32332
2.80196
1.86755
2.87158
2.26142
2.52546
2.24726
1.90864
1.228
1.5126
1.27843
1.5638
1.23027
1.25069
1.30639
1.22505
1.22608
1.22501
1.22502
1.2252
1.22532
1.225
1.22501
1.225
1.22501
1.225
1.22507
1.225
1.225
1.225
1.225
1.225
1.225
1.225
1.225
1.225
1.225
1.225
1.225
1.225
1.225
1.225
1.225
1.225
1.225
1.225
1.225
1.225
1.225
1.225
3.82712
2.32533
4.59632
2.74574
3.89692
2.41825
4.48656
3.2482
3.23517
2.47669
4.385
3.23067
4.63653
2.95618
7.0375
8.69536
7.28309
8.46312
3.49676
2.8506
2.73994
3.50768
2.56761
3.9982
3.16351
1.55384
1.48862
1.26058
3.4133
1.37991
2.01162
2.38073
5.57882
4.46534
6.8583
3.6435
8.64589
9.32534
8.97367
9.00347
3.86194
2.88749
2.5732
3.53866
2.62865
4.11288
3.28282
3.44197
1.85305
2.11575
2.73353
2.20763
3.05868
2.97674
7.03746
4.94803
7.30044
5.07387
6.57478
5.03814
6.06278
5.13926
1.22503
1.23219
1.22568
1.22686
1.22579
1.23991
1.22509
1.24513
1.22744
1.22514
1.22886
1.23431
1.29252
1.22549
1.225
1.22506
1.22501
1.22519
1.225
1.22501
1.22502
1.225
1.225
1.225
1.225
1.225
1.225
1.225
1.225
1.225
1.225
1.225
1.225
1.225
1.225
1.225
1.225
1.225
1.225
1.225
1.225
1.225
1.225
1.225
1.225
1.225
1.225
1.225
1.225
1.225
1.225
1.225
1.225
1.225
1.225
1.225
2.66116
2.87092
3.22751
3.21674
2.92742
2.9344
2.98239
1.23937
1.22619
1.23131
1.33183
1.25456
1.67121
1.23095
1.63983
2.98471
2.44433
1.94725
1.98869
3.14999
2.29878
1.5121
2.86035
2.34325
1.38335
1.22535
1.2275
1.22519
1.24453
1.22514
1.22602
1.2278
1.30188
1.24556
1.37159
1.23599
2.83492
2.23205
2.68927
2.22741
2.86383
2.52132
2.73296
2.88195
3.47907
3.89322
2.36152
3.34159
4.3706
4.22488
3.66763
2.77565
3.20967
2.90573
1.74628
2.98382
2.64928
2.14893
2.76869
2.60089
2.87539
2.62819
2.78852
2.74627
2.478
1.89346
1.26886
1.52335
1.34155
2.36322
1.76869
2.7461
1.51251
1.225
1.225
1.225
1.225
1.225
1.225
1.225
1.22501
1.225
1.225
1.225
1.22501
1.22505
1.225
1.225
1.225
1.225
1.225
1.225
1.225
1.225
1.225
1.225
1.225
1.225
1.225
1.225
1.225
1.225
1.225
1.225
1.225
1.225
1.225
1.225
1.225
1.225
1.225
1.225
1.225
1.225
1.225
1.225
1.225
1.225
1.225
1.225
1.225
1.225
1.225
1.225
1.225
1.225
1.225
1.225
1.225
1.225
1.225
1.225
1.225
1.225
1.225
1.225
1.225
1.225
1.225
1.225
1.225
1.225
1.225
1.225
1.22508
1.22501
1.22503
1.225
1.22501
1.225
1.225
1.225
1.225
1.225
1.225
1.225
1.225
1.225
1.225
1.225
1.225
1.225
1.225
1.225
1.22501
1.225
1.225
1.225
1.225
1.225
1.225
1.225
1.225
1.225
1.225
1.225
1.22533
1.225
1.225
1.225
1.225
1.225
1.225
1.225
1.225
1.225
1.22503
1.225
1.225
1.22501
1.225
1.225
1.225
1.225
1.225
1.225
1.225
1.225
1.225
1.225
1.225
1.225
1.225
1.225
1.225
1.225
1.22502
1.22508
1.225
1.225
1.22507
1.225
1.22503
1.225
1.22501
1.225
1.225
1.225
1.225
1.225
1.225
1.225
1.225
1.225
1.225
1.225
1.225
1.225
1.225
1.225
1.225
1.225
1.225
1.225
1.225
1.22545
1.22502
1.22506
1.22502
1.22509
1.225
1.225
1.225
1.225
1.225
1.225
1.225
1.225
1.22502
1.225
1.22502
1.225
1.22504
1.225
1.22501
1.225
1.225
1.225
1.225
1.225
1.225
1.225
1.225
1.22513
1.225
1.225
1.22501
1.22502
1.225
1.225
1.225
1.225
1.225
1.225
1.225
1.225
1.225
1.225
1.225
1.225
1.225
1.225
1.225
1.225
1.225
1.225
1.225
1.225
1.225
1.225
1.225
1.225
1.225
1.225
1.225
1.225
1.225
1.225
1.225
1.225
1.225
1.225
1.225
1.225
1.225
1.225
1.225
1.225
1.225
1.225
1.225
1.225
1.225
1.225
1.225
1.225
1.225
1.225
1.22709
1.22505
1.22501
1.22613
1.22501
1.22509
1.22518
1.22976
1.2256
1.22503
1.23835
1.22509
1.22624
1.22543
1.22555
1.29924
1.22863
1.22661
1.25961
1.22524
1.2283
1.23329
1.373
1.34741
1.23357
1.36591
1.3441
1.23524
1.225
1.225
1.225
1.225
1.225
1.225
1.225
1.225
1.225
1.225
1.225
1.225
1.225
1.225
1.22521
1.24054
1.22938
1.2253
1.24387
1.22606
1.23086
1.225
1.225
1.225
1.225
1.225
1.225
1.225
1.225
1.225
1.225
1.225
1.225
1.225
1.225
1.225
1.22502
1.225
1.225
1.22503
1.225
1.225
1.225
1.225
1.225
1.225
1.225
1.225
1.225
1.225
1.225
1.225
1.225
1.225
1.225
1.225
1.225
1.225
1.225
1.225
1.225
1.225
1.225
1.225
1.225
1.225
1.225
1.225
1.225
1.225
1.225
1.225
1.225
1.225
1.225
1.225
1.225
1.225
1.225
1.225
1.225
1.225
1.225
1.225
1.225
1.225
1.225
1.225
1.225
1.225
1.225
1.225
1.225
1.225
1.225
1.225
1.225
1.225
1.225
1.225
1.225
1.22501
1.225
1.225
1.225
1.225
1.225
1.225
1.225
1.225
1.225
1.225
1.225
1.225
1.225
1.225
1.225
1.225
1.225
1.30404
1.22742
1.26531
1.2306
1.26832
1.30509
1.2278
1.22501
1.22592
1.22514
1.22507
1.22526
1.2264
1.22501
1.225
1.225
1.225
1.225
1.225
1.225
1.225
1.225
1.225
1.225
1.225
1.225
1.225
1.225
1.225
1.225
1.225
1.225
1.225
1.225
1.225
1.22501
1.22994
1.22733
1.22513
1.225
1.22506
1.225
1.225
1.22528
1.22501
1.22501
1.225
1.225
1.225
1.225
1.225
1.225
1.225
1.225
1.225
1.225
1.225
1.225
1.225
1.225
1.225
1.225
1.225
1.225
1.225
1.225
1.225
1.225
1.225
1.225
1.225
1.225
1.225
1.225
1.225
1.225
1.225
1.225
1.22504
1.22502
1.22529
1.225
1.22502
1.225
1.225
1.225
1.225
1.225
1.225
1.225
1.225
1.225
1.225
1.225
1.225
1.225
1.225
1.225
1.225
1.225
1.225
1.225
1.225
1.225
1.225
1.225
1.225
1.225
1.225
1.225
1.225
1.225
1.225
1.225
1.225
1.225
1.225
1.225
1.225
1.225
1.225
1.225
1.225
1.225
1.225
1.225
1.225
1.225
1.225
1.225
1.225
1.225
1.225
1.225
1.225
1.225
1.225
1.225
1.225
1.225
1.225
1.225
1.225
1.225
1.225
1.225
1.225
1.225
1.225
1.225
1.225
0.86016
1.02993
1.56412
1.48652
2.21205
1.22553
0.87761
0.673091
1.17866
0.95884
0.704134
1.27144
0.858377
1.20901
0.435137
1.38772
1.4478
0.594433
1.81407
1.4415
1.67931
0.955267
1.99662
1.68464
1.29749
2.44676
1.50568
1.04284
1.83412
1.56537
2.72088
1.64585
3.21585
0.991763
1.36808
1.225
0.710162
0.749528
1.23706
1.31261
0.586971
0.916412
1.77324
2.33255
1.47428
1.74836
1.99744
1.31146
1.57017
1.33455
1.23304
1.22531
0.859702
0.852029
0.867569
0.884275
0.873713
0.886499
0.872893
0.682542
0.322275
0.331758
0.42271
0.784545
0.796034
0.411826
0.897777
0.885429
0.941745
0.904324
0.9715
0.907999
0.967573
0.351043
0.387697
0.743084
0.443992
0.859408
0.818671
0.484899
1.07333
1.21543
1.05779
1.23278
1.09114
1.08514
1.25133
0.495703
0.792409
0.851455
0.584188
0.903383
0.535917
0.941612
1.33322
1.52237
1.37404
1.3835
1.59409
1.42286
1.53155
0.749453
0.963962
1.16604
0.647702
1.11519
0.998872
0.749937
1.60143
1.54149
1.62825
1.77142
1.74196
1.67247
1.83132
1.15011
1.45524
1.71815
1.01576
1.29293
0.8892
1.48765
1.69443
1.69815
1.65355
1.85471
1.90597
1.88299
1.93145
1.42807
1.91858
2.02836
1.12925
1.85415
1.68229
1.24296
1.70962
1.99769
1.79507
2.36229
1.97842
2.08411
2.16937
1.66058
2.06938
2.01877
1.59439
2.0063
1.39754
2.18673
1.5141
1.79247
1.47363
1.80458
2.17508
2.30261
1.94499
0.721783
0.417875
0.430735
0.457937
0.507861
0.803768
0.715263
0.892083
1.03963
1.17952
1.27689
1.61369
1.69614
1.97249
2.18461
1.6829
2.15169
1.94667
1.44795
1.70603
1.46417
1.2653
1.31101
1.24868
2.85049
2.85812
1.84504
0.753622
0.905596
0.990928
1.18617
0.918315
1.0025
0.737863
0.780344
1.20397
1.00282
1.08626
0.938872
1.02668
0.845517
1.07354
1.12779
1.17019
1.51998
0.952286
1.29068
1.26286
1.19548
1.6468
1.62298
1.51309
1.45535
1.36971
1.33011
1.60265
1.79824
1.67718
2.12826
1.4806
1.93082
1.82043
1.7053
2.26378
2.09702
2.13766
2.02813
1.96557
1.80999
2.32218
2.24556
2.37368
3.00712
2.00407
2.55316
2.6504
2.75358
3.20082
3.23685
2.97127
2.975
2.91172
1.225
1.225
1.225
1.225
1.225
1.225
1.225
1.225
1.225
1.225
1.225
1.225
1.225
1.225
1.225
1.225
1.225
1.225
1.225
1.225
1.225
1.225
1.225
1.225
1.225
1.225
1.225
1.225
1.225
1.225
1.225
1.225
1.225
1.225
1.225
1.225
1.225
1.225
1.225
1.225
1.225
1.225
1.225
1.225
1.225
1.225
1.225
1.225
1.225
1.225
1.225
1.225
1.225
1.225
1.225
1.225
1.225
1.225
1.225
1.225
1.225
1.225
1.225
1.225
1.225
1.225
1.225
1.225
1.225
1.225
1.225
1.225
1.225
1.225
1.225
1.225
1.225
1.225
1.225
1.225
1.225
1.225
1.225
1.225
1.225
1.225
1.225
1.225
1.225
1.225
1.225
1.225
1.225
1.225
1.225
1.225
1.225
1.225
1.225
1.225
1.225
1.225
1.225
1.225
1.225
1.225
1.225
1.225
2.20576
1.225
2.41031
1.81111
2.97266
1.44407
2.77973
1.26802
2.24824
1.22504
1.25263
2.05462
1.73053
1.57148
2.05979
2.53519
2.29193
2.169
2.06049
2.73316
2.32192
2.81346
3.00691
2.52816
3.37458
2.86986
2.63747
2.92083
1.38628
1.22517
1.225
1.225
1.22778
1.22501
1.22509
1.225
3.14618
2.7526
2.63452
2.83662
2.88342
3.16106
3.08129
3.07894
1.28139
1.27723
1.2315
1.68233
1.70699
2.20066
1.28702
2.40583
3.17594
2.48906
1.68615
3.01751
2.73035
1.50686
1.24593
1.22501
1.22504
1.23039
1.22923
1.22559
1.22561
1.225
2.75766
2.05809
0.731665
0.146733
0.229229
0.352178
0.834082
0.544718
0.660986
0.881676
0.693989
0.177229
0.103937
0.132342
0.182206
0.289188
0.244461
0.308078
0.37984
0.420987
0.585012
0.460557
0.501091
0.598992
0.626015
0.701976
0.614154
0.653239
0.742681
0.67483
0.694896
0.724392
0.738949
0.690565
0.734764
0.777563
0.779416
0.795072
0.310662
0.200669
0.232922
0.421954
0.473974
0.320514
0.276639
0.573672
0.732892
0.506905
0.574827
0.432316
0.653257
0.503182
0.417982
0.288678
0.359715
0.521989
0.584129
0.435716
0.372464
0.762534
0.57899
0.531636
0.620449
0.668507
0.776121
0.813439
0.747453
0.90696
0.821603
0.590487
0.650468
0.72929
0.672901
1.225
1.225
1.225
1.2251
1.22504
1.22503
1.225
1.22525
1.22502
1.22501
1.225
1.225
1.225
1.225
0.87509
1.05571
1.07989
0.850961
0.926206
1.22419
1.1336
1.0127
1.3645
1.36955
1.15201
1.59672
1.62066
2.1186
1.88884
1.8346
1.70953
2.15194
1.87066
1.96303
1.50962
1.39767
1.62694
1.37981
1.25646
1.29113
1.30264
1.24932
1.23677
1.22678
1.23247
1.22852
1.225
1.225
1.225
1.225
1.225
1.225
1.225
1.225
1.225
1.225
1.225
1.225
1.225
1.225
1.225
1.225
1.225
1.22532
1.22696
1.22506
1.225
1.225
1.225
1.225
1.225
1.225
1.225
1.225
1.225
1.225
1.225
1.225
1.225
1.225
1.225
1.225
0.684333
0.782479
0.83933
0.700628
0.837661
0.76075
0.896487
0.850918
0.916449
0.933518
1.01706
0.839103
0.979619
1.08582
0.884262
0.90996
0.979393
0.957917
0.789029
0.825194
0.770216
1.06713
1.14228
1.04091
1.29023
1.15402
1.22227
1.3666
0.68491
0.718916
1.21742
0.978266
0.987372
0.535973
0.506779
0.817779
0.845795
0.879033
0.840888
0.869172
0.874947
0.89398
0.889867
0.933357
0.905071
0.890785
0.950837
0.912382
0.971114
1.12655
1.20593
1.19431
1.36329
1.35117
1.4431
1.46141
1.20147
0.763487
1.2256
0.985187
1.00685
0.592339
0.555168
0.848066
0.882031
1.39093
0.940402
0.968366
1.45516
1.46717
0.988361
1.11133
1.17651
1.04768
1.17927
1.08002
1.23385
0.687098
0.810473
1.25938
1.27116
1.02458
1.02206
0.63631
1.27369
1.51418
1.34562
1.34471
1.52445
1.41161
1.60501
0.947691
0.751908
0.823854
1.26925
1.26821
1.01201
1.02034
1.37736
0.983059
0.932204
1.42048
1.03879
1.5222
1.46497
0.99603
1.34026
0.965885
0.982339
1.34781
1.43918
1.4526
0.781105
0.852773
0.962228
0.910722
0.97868
0.846704
0.789815
1.00046
1.48053
1.12536
1.23763
1.68096
1.60318
1.52056
1.18766
1.38398
1.53127
1.86508
1.77273
1.558
1.57705
1.54005
1.67981
1.63192
1.65299
1.69384
1.76481
1.83867
1.06306
0.873301
0.894016
1.23157
1.25443
1.02755
1.02981
1.08013
1.52851
1.00231
1.36401
1.0695
1.43142
1.46412
1.13921
1.10162
1.18367
1.27007
1.33718
1.44247
1.39255
1.71925
2.15809
1.26019
1.22504
1.96749
1.93128
1.80852
1.8807
1.36759
1.63971
1.26714
1.22625
1.22683
1.22544
1.62183
1.81535
1.70337
1.9624
1.80904
1.72619
1.59726
1.67723
1.95344
1.77132
1.86562
1.79754
1.78111
1.74903
1.86542
1.71428
1.95763
1.7677
1.82099
1.61013
2.0325
1.84228
1.57266
1.32537
1.92659
1.46314
2.04211
1.72084
1.33851
1.25734
1.63718
1.23673
1.50791
1.2355
1.36752
1.26544
1.22857
1.22659
1.24065
1.22887
1.26845
1.24255
1.22794
1.22564
1.2308
1.22514
1.23256
1.22523
1.22696
1.22501
1.225
1.22595
1.22504
1.22502
1.22512
1.22507
1.22554
1.22525
1.233
1.225
1.225
1.225
1.225
1.225
1.225
1.2252
2.44635
2.1398
1.22505
1.22501
1.225
1.23199
2.40986
1.22928
1.2256
1.33506
1.22501
1.22501
1.22501
1.225
1.225
1.225
1.225
1.225
1.225
1.225
1.22831
1.22524
1.22682
1.2251
1.22504
1.225
1.22501
1.225
1.225
1.225
1.225
1.225
1.225
1.225
1.225
1.225
1.225
1.225
1.225
1.225
1.225
1.225
1.225
1.225
1.225
1.225
1.225
1.225
1.225
1.225
1.225
1.225
1.225
1.225
1.225
1.225
1.225
1.225
1.225
1.225
1.225
1.225
1.225
1.225
1.225
1.225
1.225
1.225
1.225
1.225
1.225
1.225
1.225
1.225
1.225
1.225
1.225
1.225
1.225
1.225
1.225
1.225
1.225
1.225
1.225
1.225
1.225
1.225
1.225
1.225
1.225
1.225
1.225
1.225
1.225
1.225
1.225
1.225
1.225
1.225
1.225
1.225
1.225
1.225
1.225
1.225
1.225
1.225
1.225
1.225
1.225
1.225
1.225
1.225
1.225
1.225
1.225
1.225
1.225
1.225
1.225
1.225
1.225
1.225
1.225
1.225
1.225
1.225
1.225
1.225
1.225
1.225
1.225
1.225
1.225
1.225
1.225
1.225
1.225
1.225
1.225
1.225
1.225
1.225
1.225
1.225
1.225
1.225
1.225
1.225
1.225
1.225
1.225
1.225
1.225
1.225
1.225
1.225
1.225
1.225
1.225
1.225
1.225
1.225
1.225
1.225
1.225
1.225
1.225
1.225
1.225
1.225
1.225
1.225
1.225
1.225
1.225
1.225
1.225
1.225
1.225
1.225
1.225
1.225
1.225
1.225
1.225
1.225
1.225
1.225
1.225
1.225
1.225
1.225
1.225
1.225
1.225
1.225
1.225
0.955935
0.845
0.857882
0.868723
0.891956
0.785842
0.799562
1.31875
1.59321
1.60069
1.51045
1.8498
1.88345
1.55286
1.55398
1.66286
1.68941
1.6978
1.66829
1.86758
1.8569
0.771917
0.908828
0.87446
0.966106
1.05722
0.970433
0.831119
1.34085
1.74902
1.63032
1.19637
1.37036
1.54848
1.69754
1.69273
2.02787
1.88045
1.5551
1.74029
1.86084
2.03484
1.03145
0.887778
0.958813
0.954446
0.8384
1.09319
0.924697
0.943903
1.06926
1.06504
0.915332
1.22801
1.21675
1.04626
1.86076
2.14937
2.12523
1.90643
2.00188
2.19477
2.26788
1.04087
1.11775
1.20171
1.22584
1.19927
1.40044
1.34526
1.29099
1.58847
1.43933
1.465
1.79741
1.55177
1.74905
1.34476
1.05554
1.14712
1.31203
1.04148
1.1548
1.59571
1.44624
1.70949
1.63474
1.71174
1.99652
1.63894
1.8617
1.90157
1.20426
1.22636
1.25266
1.35747
1.88452
2.08091
1.225
1.225
1.225
1.225
1.225
1.225
1.225
1.225
1.225
1.225
1.225
1.225
1.225
1.225
1.225
1.225
1.225
1.225
1.225
1.225
1.225
1.225
1.225
1.225
1.225
1.225
1.225
1.225
1.225
1.225
1.225
1.225
1.225
1.225
1.29555
1.39336
1.30189
1.39327
0.686179
1.25238
0.802958
1.2984
1.25326
0.80354
0.696726
0.671178
1.31898
1.31259
0.868318
1.26054
0.814177
0.694824
1.93082
2.01513
1.37388
1.22743
1.76144
1.25955
1.82477
1.24277
1.26869
2.11502
1.24517
2.00578
1.25629
2.43188
1.2383
1.87433
1.2354
1.68984
1.22596
1.23513
2.4466
1.22742
1.78645
1.2271
1.51201
1.22503
1.50828
1.22547
1.28702
1.22508
1.22533
1.24787
1.22501
1.2674
1.22509
1.22505
1.22501
1.25947
1.22501
1.225
1.22501
1.68318
1.68967
1.79063
1.76833
1.69645
1.78851
1.68523
1.39427
1.24994
1.47441
1.25647
1.24771
1.46004
1.40689
1.66887
1.78507
1.73945
1.74926
1.70954
1.77471
1.63821
1.36751
1.2504
1.23814
1.37799
1.24347
1.42702
1.33062
1.47639
1.77061
1.6912
1.89626
1.57719
1.76533
1.57362
1.26038
1.23297
1.32005
1.23007
1.29127
1.22911
1.2733
1.36257
1.84663
1.5594
1.30916
1.69502
1.42022
1.28935
1.24196
1.22719
1.2259
1.23435
1.22689
1.24663
1.23299
1.24481
1.43505
1.26446
1.39195
1.25819
1.35868
1.2469
1.22758
1.22549
1.22957
1.22527
1.22927
1.2253
1.22756
1.23761
1.32759
1.28168
1.23261
1.31311
1.23811
1.23284
1.22662
1.22515
1.2251
1.22583
1.22518
1.2265
1.22596
1.22736
1.25867
1.22898
1.24191
1.22946
1.24352
1.22684
1.225
1.22501
1.225
1.225
1.23268
1.22522
1.225
1.25091
1.47585
1.2269
1.23264
1.24315
1.22929
1.23512
1.22609
1.23748
1.225
1.22522
1.22503
1.22536
1.4921
1.44405
1.2441
1.26022
1.40406
1.55607
1.25092
1.22504
1.22686
1.22502
1.22502
1.23373
1.23034
1.22528
1.22505
1.22541
1.22503
1.22551
1.22505
1.2252
1.22578
1.22517
1.23121
1.2279
1.22546
1.22532
1.23414
1.22572
1.42152
1.32057
1.23856
1.23531
1.36417
1.34842
1.24241
1.225
1.225
1.23881
1.22514
1.225
1.225
1.225
1.225
1.225
1.225
1.225
1.225
1.225
1.225
1.27555
1.24778
1.23778
0.940082
0.962681
0.862034
0.87519
2.15424
1.87891
2.06501
2.08711
2.33642
2.42957
2.1507
2.14181
1.22473
1.22731
1.44999
1.5329
2.15355
2.15636
1.00778
1.11723
1.2621
1.15262
1.40754
1.55634
1.32748
1.52382
1.1581
1.16861
1.3647
1.37572
1.80357
1.77329
1.42103
1.64484
1.74699
1.51544
1.53091
1.79417
2.03198
1.17553
1.62971
1.37201
1.54744
1.34974
1.85256
1.5707
1.41495
1.02744
0.919576
1.0296
1.57111
1.188
1.29647
1.2927
1.22825
2.67467
1.89575
2.63251
1.22539
2.46613
1.19371
1.69707
1.24861
1.41242
1.49104
1.8766
2.02175
1.38442
1.61708
1.67077
1.42364
1.01378
1.03785
1.08145
2.02565
1.27088
1.37969
1.63893
1.77681
2.14219
2.13387
1.61837
2.15012
1.88609
2.18459
1.88544
2.66964
2.2686
1.5928
1.18063
1.82546
1.43482
2.11772
1.3636
1.73725
2.05081
2.54242
2.41103
1.84547
2.00262
1.64451
1.53125
2.39351
1.88026
2.16144
2.89163
2.61285
2.21986
2.45934
1.25819
1.53932
1.51335
1.39819
1.42172
1.09578
1.10998
2.39924
2.22778
1.49023
1.7003
1.36701
1.74496
1.9134
1.94688
1.80022
1.79459
2.05915
1.90022
1.8924
2.07615
1.53935
1.09813
1.77949
1.2828
2.12328
1.43272
1.19251
1.3352
2.07628
1.43165
1.60052
1.69567
2.50422
2.24031
2.00414
2.32738
2.32244
1.57674
1.77924
2.03231
2.24755
1.6146
1.41291
1.74901
1.48447
1.14444
1.60481
1.21407
1.22508
1.38706
1.47607
1.22503
1.22501
1.227
1.22812
2.56872
1.65622
2.3321
2.76802
1.90208
2.11413
2.40758
1.67298
2.64146
2.08041
2.42265
1.87345
2.78393
2.34057
1.89248
2.10722
1.82908
2.02777
1.84849
1.87358
1.97987
2.01021
1.76227
2.09349