/*--------------------------------*- C++ -*----------------------------------*\
  =========                 |
  \\      /  F ield         | OpenFOAM: The Open Source CFD Toolbox
   \\    /   O peration     | Website:  https://openfoam.org
    \\  /    A nd           | Version:  9
     \\/     M anipulation  |
\*---------------------------------------------------------------------------*/
FoamFile
{
    format      ascii;
    class       volScalarField;
    location    "0.0017";
    object      alpha.c4;
}
// * * * * * * * * * * * * * * * * * * * * * * * * * * * * * * * * * * * * * //

dimensions      [0 0 0 0 0 0 0];

internalField   nonuniform List<scalar> 
14189
(
4.84904e-06
8.36432e-09
3.0098e-06
6.29388e-05
5.53338e-10
3.41336e-08
4.70828e-12
1.05563e-10
1.86928e-05
5.71237e-05
0.000162233
2.26192e-05
6.41548e-06
5.56703e-06
1.25654e-06
8.7108e-07
1.98339e-05
4.84944e-06
2.01986e-07
1.3812e-06
2.01974e-07
2.47796e-08
5.81898e-07
4.17819e-06
1.55854e-05
1.0498e-07
9.41828e-07
1.62727e-07
1.56752e-08
1.30477e-06
5.88741e-09
2.51462e-07
4.754e-09
2.05287e-07
3.48318e-08
7.70887e-10
0.00517887
0.141946
0.217236
0.0053098
0.0353371
0.0145803
0.565309
0.123598
0.0427103
0.00289433
0.451912
0.222397
0.404536
0.368844
0.109406
0.498933
0.281385
0.19185
0.0489283
0.138697
0.0475731
0.0892555
0.0568838
0.012463
0.12084
0.0135122
0.0971884
0.0474888
0.0244763
0.0102451
0.0029862
0.555908
0.555093
0.542682
0.536416
0.522155
0.504786
0.523136
0.465841
0.325961
0.0820629
0.376085
0.0872863
0.165567
0.033636
0.451268
0.498644
0.523157
0.378714
0.473777
0.44269
0.327746
0.524132
0.522047
0.54102
0.480908
0.48071
0.449559
0.504909
0.256934
0.282192
0.346763
0.264899
0.185685
0.134289
0.206627
0.152406
0.212983
0.196903
0.136967
0.150858
0.105242
0.0943459
0.0584904
0.0337648
0.00736128
0.00850807
0.0353743
0.0130463
0.00153222
0.499111
0.425513
0.478884
0.457208
0.431478
0.400175
0.482344
0.131427
0.171438
0.187159
0.127503
0.113131
0.0877417
0.0783642
0.000414754
0.0472844
0.00918542
0.0101122
0.0511067
0.00585561
0.000532231
0.346375
0.419515
0.464428
0.401716
0.210874
0.352104
0.269558
0.0286868
0.00576946
0.00152319
0.00276086
0.0071366
0.000918969
0.000122589
0.13372
0.153937
0.214694
0.09101
0.105468
0.0596965
0.151008
0.49694
0.464568
0.424493
0.449414
0.410269
0.364042
0.410334
0.344525
0.299107
0.413128
0.377433
0.182819
0.308233
0.25073
0.428228
0.403968
0.327611
0.429795
0.391779
0.367336
0.459514
0.0904825
0.0653329
0.101635
0.0683119
0.0366237
0.0429706
0.0598529
0.00415641
3.78336e-05
0.000297089
0.0398217
0.00748156
0.012629
0.00194694
0.0277829
0.321416
0.0652823
0.0217299
0.113842
0.00657871
0.0242791
0.36547
0.16159
0.307116
0.158626
0.297761
0.244263
0.117081
0.187055
0.0765438
0.123426
0.0880428
0.093377
0.0548417
0.141939
0.0525946
0.0774525
0.0848151
0.0330792
0.0550211
0.0488156
0.028942
0.33353
0.143605
0.222398
0.153107
0.284707
0.266241
0.199915
0.0576012
0.0857247
0.0970804
0.0670736
0.0334053
0.0399481
0.0585129
0.0632837
0.0886375
0.136794
0.0525165
0.0859539
0.0602266
0.0371097
0.424241
0.322984
0.376022
0.313152
0.310259
0.260226
0.363593
0.282404
0.392444
0.348462
0.300047
0.276084
0.233779
0.347352
0.106154
0.072361
0.0383803
0.0722643
0.0388654
0.0498093
0.0255831
0.0414877
0.0219319
0.0264095
0.0221821
0.0268588
0.0169127
0.0134432
0.0776056
0.0349637
0.0663197
0.0290309
0.0529357
0.0455419
0.0238299
0.0590906
0.0672489
0.0709008
0.0246481
0.0387181
0.0370965
0.101769
0.11844
0.200256
0.250585
0.195906
0.064587
0.154277
0.0864932
0.0503417
0.0311018
0.0271799
0.0275334
0.0315552
0.0163894
0.0161986
0.0430831
0.0208246
0.0161341
0.0220648
0.026898
0.0257379
0.0366126
0.0377223
0.0620621
0.0403866
0.0374725
0.0136353
0.0220242
0.023193
0.180223
0.114455
0.235401
0.189596
0.0612412
0.141983
0.0849869
0.0505536
0.0252935
0.0290107
0.027164
0.0311558
0.0161287
0.0149208
0.249
0.221354
0.238895
0.136945
0.184326
0.197718
0.295463
0.0321865
0.0196096
0.0195997
0.0172039
0.0168488
0.011539
0.00969635
0.268328
0.262227
0.214458
0.252344
0.207563
0.157118
0.192728
0.00125003
0.0109104
0.025815
0.0027534
0.00950381
0.000133385
0.000904873
0.0177232
0.0192051
0.0326515
0.0278616
0.00807548
0.0160903
0.0143538
0.0295681
0.0211914
0.0242519
0.0178173
0.0156416
0.0123657
0.0089897
0.024156
0.0280388
0.0480405
0.0333376
0.00924058
0.0165484
0.0195759
0.149327
0.0455847
0.0474745
0.0801395
0.108613
0.114837
0.0633686
0.0499378
0.0174577
0.0255746
0.0254714
0.0351171
0.0172411
0.0119697
0.157522
0.0494108
0.121788
0.0486766
0.119065
0.0893759
0.0366471
0.0225613
0.00858323
0.0133711
0.00782175
0.0126746
0.00718558
0.0043967
0.0492327
0.016492
0.0254142
0.0242991
0.0346948
0.0169853
0.0112531
0.0136443
0.0110786
0.0169837
0.010817
0.00501501
0.00706156
0.00818571
0.115622
0.201159
0.163008
0.110982
0.086033
0.0718245
0.135493
0.0101077
0.0131516
0.0167458
0.0105407
0.00434376
0.00641746
0.00784134
0.0198502
0.00649791
0.00734848
0.0117853
0.0103977
0.00585372
0.00355499
0.0203629
0.00549262
0.00684626
0.00546124
0.0116363
0.00989743
0.0120007
0.0102211
0.0182743
0.018515
0.00919808
0.0047313
0.00475956
0.00911012
0.0118859
0.0059391
0.0102059
0.00391468
0.00675203
0.00549628
0.00304192
0.180886
0.094671
0.148521
0.103985
0.0713041
0.0603054
0.12603
0.0123501
0.00572699
0.013393
0.00752132
0.00257434
0.00290248
0.00685949
0.0168662
0.0100249
0.0182313
0.00901527
0.00417177
0.00463133
0.00825648
0.00588299
0.0135029
0.0136352
0.00769302
0.00300847
0.00763645
0.00301
0.0110814
0.00437315
0.0090555
0.0031921
0.00632748
0.00499732
0.00228661
0.0663675
0.0374052
0.0917877
0.0643086
0.019165
0.0434374
0.0270789
0.0354318
0.0564073
0.0855908
0.0610281
0.0168226
0.0373584
0.0259319
0.0122531
0.0193033
0.0189297
0.00881688
0.008546
0.0142288
0.00620806
0.0177459
0.0184326
0.0250193
0.0116627
0.00557383
0.0078549
0.00823304
0.0102037
0.00289923
0.00739975
0.00200574
0.00556724
0.0039382
0.00134534
0.0139509
0.00530475
0.0101028
0.0033132
0.0067306
0.00478169
0.00227032
0.00495412
0.00443731
0.00780712
0.00398274
0.00122907
0.00212432
0.00239202
0.00734422
0.00330951
0.00308892
0.00494455
0.00470867
0.00318721
0.00190424
0.066899
0.0456074
0.0408501
0.0192426
0.0353553
0.0393088
0.0796481
0.00676838
0.0025751
0.00284517
0.00273877
0.00415541
0.00444846
0.00470395
0.00375756
0.00286534
0.00644549
0.00347174
0.000722151
0.00142738
0.00198002
0.0368017
0.00428315
0.0113558
0.00939171
0.0734308
0.128592
0.216186
0.116596
0.0103941
0.0387587
0.00210283
0.0246247
0.00769783
0.0621851
0.112396
0.0708258
0.0205241
0.163392
0.213352
0.161122
0.133408
0.135515
0.0982446
0.0967464
0.204917
0.153413
0.215182
0.162287
0.134937
0.097549
0.0922004
0.179314
0.132001
0.141803
0.101626
0.0882843
0.0792679
0.0607607
0.0011643
0.0474504
0.0131245
0.013161
0.00192128
0.00287545
0.000473363
0.114909
0.07902
0.0778398
0.0674001
0.0434644
0.0440649
0.0664307
0.108802
0.115623
0.0782675
0.0667536
0.0407438
0.0435563
0.0627204
0.0393099
0.0753325
0.0765371
0.0538974
0.026628
0.0269631
0.0531062
0.102942
0.0480872
0.0716167
0.0427415
0.0632294
0.0423916
0.0280377
0.0723105
0.0389613
0.0760878
0.0534076
0.0248875
0.0266225
0.0503023
0.09269
0.0465915
0.0701835
0.0344039
0.0533579
0.0402791
0.025685
0.0317928
0.0629742
0.0492127
0.0210916
0.0430659
0.032842
0.0158931
0.0316175
0.0313746
0.028053
0.0205376
0.0181009
0.0180774
0.0114549
0.0319259
0.0316994
0.0484687
0.0276041
0.0110708
0.0179356
0.0173457
0.0173041
0.0233533
0.0349695
0.0227264
0.00688294
0.0108195
0.0148239
0.0358927
0.0104718
0.0224485
0.0171851
0.0227057
0.0173586
0.0354282
0.0354561
0.0157945
0.0207804
0.0102519
0.0223692
0.0170686
0.033148
0.0131588
0.0173826
0.0280233
0.0210027
0.00553804
0.00968764
0.012835
0.0205024
0.00823409
0.0131495
0.00711561
0.0114852
0.00710923
0.00427983
0.0206138
0.00808552
0.0129977
0.0068557
0.011352
0.00703665
0.0041316
0.00945936
0.0150518
0.00711414
0.00417837
0.00935134
0.00573868
0.0024223
0.0142444
0.00395426
0.00355584
0.00531476
0.00641636
0.00909394
0.00853617
0.00131947
0.00245983
0.00498376
0.0049086
0.00820148
0.00424478
0.00239955
0.000667201
0.00132324
0.00340514
0.00246063
0.00578494
0.00340207
0.00132205
0.00230814
0.00316786
0.00559768
0.00332825
0.00060198
0.00180567
0.00126994
0.00100301
0.0048021
0.00178565
0.00246912
0.000418744
0.000789404
0.00141747
0.00334336
0.00398039
0.00655536
0.00301854
0.000740173
0.00175634
0.0013636
0.0145871
0.00467378
0.00643383
0.00763663
0.0106047
0.00450412
0.00318171
0.00399107
0.000526864
0.00182805
0.00136339
0.00182458
0.00397562
0.00135734
0.00173471
0.00199945
0.00357942
0.00269096
0.000539723
0.00114479
0.00139659
0.0409043
0.0119561
0.0131186
0.0109496
0.0230091
0.0253522
0.0182061
0.0137234
0.00395846
0.00592171
0.00671165
0.0101381
0.00426356
0.00274841
0.00387207
0.00111909
0.00152224
0.00049367
0.00174548
0.00129223
0.00346993
0.000123048
0.000287207
0.000967011
0.000305441
0.000650699
0.00100792
0.00189292
0.00179394
0.000313459
0.000443102
0.000280646
0.000662263
0.00086979
0.000981793
0.000842406
0.00115431
0.0027386
0.00186144
0.000176824
0.000540422
0.000745128
0.0020506
0.00227419
0.0033602
0.00215909
0.000685046
0.0014299
0.00116169
0.00488343
0.00447788
0.00725218
0.00299705
0.00109593
0.00181147
0.00199457
0.00172945
0.00181469
0.00297834
0.00200314
0.000518444
0.00118082
0.00104408
0.0993939
0.0821531
0.0179963
0.108376
0.0195397
0.0886013
0.213679
0.27388
0.298252
0.2267
0.301071
0.229581
0.216613
0.153554
0.15113
0.296813
0.198881
0.209572
0.226747
0.214265
0.151943
0.141023
0.163543
0.106563
0.16106
0.101837
0.0623577
0.0634008
0.100128
0.0871661
0.141411
0.143709
0.0960293
0.0557545
0.0944065
0.05667
0.149804
0.107156
0.161699
0.100705
0.057986
0.0626009
0.0934279
0.0877773
0.132901
0.142395
0.0950808
0.0523117
0.0560624
0.0885977
0.060567
0.0198077
0.0355685
0.0339096
0.0361226
0.0595616
0.0344348
0.0598677
0.0329723
0.0315765
0.0194959
0.0356211
0.0339908
0.0556397
0.0271859
0.00116251
8.23614e-05
0.00137821
0.13606
0.0256032
0.00759255
0.145261
0.0281188
0.334408
0.0660612
0.277571
0.269225
0.272203
0.221174
0.219291
0.166715
0.206522
0.0106401
0.00317902
0.000179883
0.00129833
0.00663781
0.0263552
0.00578385
0.00947021
0.000247227
0.00165777
3.95694e-05
9.42161e-05
0.000909037
0.000409726
0.161056
0.0499623
0.0500841
0.124277
0.123701
0.0932808
0.0378826
0.000668125
4.30152e-06
5.65433e-05
0.000339323
0.000462808
0.00469653
0.000839437
0.111455
0.201746
0.163518
0.115931
0.0863588
0.0720917
0.142319
0.117961
0.207991
0.167655
0.118068
0.0915001
0.0759372
0.145391
0.0127405
0.0196133
0.0197323
0.00916177
0.00904584
0.0148267
0.00658996
0.0645823
0.0375305
0.0920996
0.0665444
0.0192245
0.0278514
0.0435898
0.0673675
0.0379657
0.0935881
0.0674285
0.0199078
0.0281423
0.0454608
0.00537006
0.00573719
0.00529503
0.00314354
0.00305268
0.00286402
0.00158804
0.0078189
0.00348879
0.00359267
0.00525061
0.00514049
0.0034807
0.00215211
0.075012
0.0492273
0.0226036
0.0509945
0.0436852
0.0422692
0.0902413
0.00382343
0.00261402
0.00271115
0.00206201
0.00197356
0.00146412
0.00100461
0.0964343
0.0538867
0.0675148
0.0818474
0.0564198
0.00546209
0.020036
0.0472796
0.0264627
0.197608
0.346784
0.102637
0.11965
0.0863396
0.292961
0.306507
0.140892
0.422616
0.402253
0.363556
0.328353
0.346688
0.285661
0.271311
0.268036
0.186753
0.25322
0.148906
0.210889
0.199459
0.140405
0.356817
0.226551
0.286189
0.239466
0.304758
0.235592
0.179968
0.248201
0.232677
0.291101
0.179832
0.230843
0.218746
0.168657
0.1337
0.102554
0.141418
0.0995212
0.0939679
0.0698177
0.0654011
0.086705
0.159955
0.118572
0.126849
0.166319
0.218079
0.171192
0.0719733
0.0779807
0.109658
0.112544
0.120839
0.162513
0.153049
0.0973181
0.136842
0.134637
0.19407
0.186185
0.250927
0.187487
0.0231644
0.0247977
0.00311983
0.0034519
0.0164872
0.000930353
0.00319147
0.0584716
0.114259
0.0831308
0.0576176
0.0801795
0.055278
0.0390814
0.0453159
0.0495623
0.0725694
0.0313454
0.0476675
0.0440323
0.0283495
0.0691159
0.0442629
0.0650667
0.0313293
0.047082
0.0438406
0.0289015
0.0607528
0.0400877
0.0591405
0.0933165
0.0638088
0.0928072
0.129848
0.0355637
0.0371938
0.0372166
0.0250737
0.0237506
0.0237399
0.015457
0.0392883
0.0248532
0.036919
0.0365389
0.0152817
0.0252153
0.0228768
0.0394293
0.0375045
0.0553829
0.0368468
0.0166868
0.0240865
0.0258038
0.327107
0.46224
0.580986
0.627587
0.347267
0.414841
0.208299
0.329499
0.588554
0.617501
0.650689
0.556939
0.606184
0.57691
0.525737
0.492453
0.409967
0.532214
0.563974
0.489792
0.384471
0.459689
0.533107
0.464307
0.520977
0.461992
0.524146
0.46734
0.398005
0.48681
0.484758
0.547724
0.459776
0.518878
0.458091
0.391062
0.402474
0.471999
0.397698
0.33097
0.261537
0.400895
0.328794
0.257655
0.335279
0.410982
0.243091
0.309748
0.385581
0.315524
0.403576
0.409954
0.465943
0.40218
0.277787
0.341351
0.335042
0.157492
0.265444
0.204818
0.33304
0.212401
0.271757
0.266447
0.59691
0.14812
0.196378
0.258192
0.396338
0.112783
0.150253
0.0347104
0.254911
0.103342
0.283944
0.573679
0.549011
0.364123
0.434888
0.119326
0.555685
0.296702
0.233338
0.122956
0.0533638
0.0139211
0.0500564
0.150901
0.0501473
0.459011
0.39608
0.400027
0.332671
0.331679
0.336352
0.271282
0.0785464
0.106599
0.0223847
0.0762243
0.0335786
0.0538331
0.0149939
0.326978
0.200264
0.200003
0.263417
0.263461
0.206536
0.150812
0.602435
0.590922
0.581854
0.585954
0.576487
0.55649
0.571135
0.197751
0.328717
0.204038
0.268181
0.268267
0.211401
0.153512
0.341705
0.218899
0.273247
0.219767
0.277513
0.215881
0.165823
0.502801
0.441467
0.543872
0.437623
0.537936
0.498451
0.367962
0.36772
0.286136
0.167274
0.287545
0.171502
0.118995
0.212561
0.168027
0.10454
0.119044
0.10806
0.123057
0.0845794
0.0738943
0.147617
0.14666
0.145519
0.106704
0.105196
0.107175
0.0749572
0.575775
0.534081
0.561447
0.52961
0.525202
0.494287
0.551413
0.607964
0.231941
0.594811
0.625445
0.619027
0.554359
0.357708
0.587201
0.56126
0.312497
0.561275
0.388446
0.216185
0.0830882
0.423728
0.276079
0.470694
0.594739
0.530994
0.548916
0.46718
0.398349
0.504135
0.625236
0.606511
0.620397
0.595151
0.610568
0.60127
0.574221
0.622291
0.621683
0.625483
0.615879
0.614768
0.609461
0.611628
0.358455
0.462069
0.434301
0.373779
0.398373
0.321537
0.295562
0.611171
0.617662
0.616004
0.601819
0.597131
0.591161
0.60552
0.550584
0.609321
0.584294
0.5873
0.496969
0.566903
0.542388
0.446197
0.512077
0.395411
0.319323
0.368107
0.240115
0.443037
0.20638
0.278781
0.308224
0.244202
0.15617
0.176242
0.219832
0.603564
0.581479
0.600531
0.593315
0.579488
0.571685
0.597808
0.58982
0.511647
0.559422
0.57654
0.473107
0.542995
0.52991
0.491587
0.329628
0.399891
0.326471
0.360896
0.256941
0.436347
0.337321
0.316013
0.257667
0.260953
0.187629
0.204871
0.239466
0.58305
0.578795
0.538513
0.568831
0.568693
0.55779
0.589753
0.557062
0.431546
0.479947
0.421289
0.529184
0.516603
0.487637
0.249021
0.289247
0.128586
0.288584
0.178612
0.186701
0.366731
0.189331
0.115731
0.0944695
0.127353
0.130993
0.142099
0.170085
0.159512
0.151946
0.207417
0.157712
0.0795683
0.111059
0.116745
0.107123
0.151555
0.205476
0.155631
0.0755121
0.109819
0.110092
0.512446
0.564158
0.535008
0.522522
0.509449
0.478309
0.544653
0.146587
0.157425
0.210645
0.161227
0.0773835
0.117897
0.111347
0.288088
0.490841
0.432179
0.441302
0.220827
0.292008
0.375211
0.370588
0.451869
0.503489
0.447729
0.225303
0.387734
0.294699
0.08595
0.21452
0.153407
0.0830954
0.105513
0.151903
0.0569446
0.211691
0.0811096
0.117194
0.0815392
0.104875
0.15098
0.0556312
0.487717
0.476344
0.385218
0.485067
0.443916
0.435533
0.518774
0.0771311
0.0882773
0.0616111
0.0589256
0.0341459
0.0510375
0.0400299
0.0728729
0.0574917
0.083181
0.0576902
0.0336821
0.0391214
0.0501357
0.108813
0.0535466
0.0542496
0.0769074
0.0767113
0.0524369
0.0357893
0.0736912
0.0507559
0.0500069
0.0743321
0.0757398
0.0515884
0.0337532
0.106054
0.051891
0.0537255
0.0761829
0.0743806
0.0518561
0.0354317
0.67641
0.643372
0.614312
0.673889
0.406326
0.538697
0.631459
0.448273
0.675975
0.66818
0.666859
0.662683
0.661136
0.642552
0.645028
0.667265
0.650538
0.662116
0.6374
0.65423
0.633045
0.612042
0.602642
0.646046
0.605411
0.606586
0.558339
0.556871
0.609151
0.634214
0.591476
0.594848
0.605674
0.564946
0.562889
0.608249
0.56388
0.634203
0.590809
0.59477
0.513253
0.545015
0.567356
0.591308
0.618693
0.57462
0.592942
0.514013
0.548748
0.564156
0.562267
0.506215
0.44922
0.514363
0.513889
0.505965
0.563933
0.549814
0.460715
0.467191
0.440092
0.502303
0.495053
0.517289
0.507868
0.548347
0.291041
0.122315
0.337748
0.309011
0.185062
0.35336
0.549869
0.481301
0.495733
0.495769
0.481322
0.421695
0.420291
0.537323
0.445844
0.454474
0.486116
0.473272
0.415063
0.387843
0.245966
0.306298
0.243304
0.398969
0.333537
0.40057
0.335903
0.283034
0.435764
0.369448
0.371727
0.437097
0.355848
0.286034
0.229916
0.306769
0.243921
0.373819
0.395881
0.332049
0.311502
0.398091
0.365697
0.429171
0.350951
0.262437
0.282598
0.326528
0.182625
0.265336
0.131579
0.129583
0.199594
0.268165
0.202377
0.172369
0.183482
0.130441
0.265383
0.187291
0.200474
0.248239
0.114578
0.0542013
0.0520131
0.0529458
0.078347
0.0814162
0.0777202
0.382474
0.16338
0.255276
0.164864
0.319523
0.223279
0.314113
0.0392398
0.0218251
0.0171567
0.0220019
0.0261412
0.0336171
0.0261097
0.055932
0.0721537
0.0256572
0.0721801
0.104921
0.0378333
0.0379371
0.0356139
0.0342314
0.0526813
0.0350971
0.0142627
0.023206
0.0222979
0.0512138
0.0222109
0.0347985
0.0347721
0.0143367
0.0230996
0.0221925
0.0371436
0.0372004
0.0250543
0.0355216
0.0154435
0.0237031
0.0237385
0.0310887
0.0197141
0.012268
0.0284419
0.0107039
0.0180691
0.0175717
0.0143451
0.0150019
0.00901277
0.00894409
0.0149567
0.00941958
0.00544761
0.0162313
0.00996836
0.01578
0.00933599
0.0152614
0.0096458
0.00569807
0.0251731
0.0155142
0.0104381
0.00979627
0.0164818
0.00979986
0.0059731
0.00900784
0.00544281
0.00941119
0.0231347
0.00892952
0.0149326
0.0143258
0.0233911
0.00925967
0.00838497
0.00989774
0.0146722
0.015981
0.0140063
0.206211
0.00884358
0.000839326
0.0241044
0.0587848
0.0690911
0.0148074
0.0569505
0.0379451
0.0222283
0.00411614
0.126536
0.0378174
0.38541
0.0877987
0.39511
0.52898
0.0885876
0.226855
0.169932
0.172673
0.22708
0.165043
0.121788
0.116529
0.0848109
0.00215188
0.0148053
0.0356327
0.0361197
0.105196
0.00934995
0.0339893
0.0373779
0.0140396
0.00238003
0.000317709
0.00572952
0.0162146
0.00311649
0.498175
0.490875
0.493829
0.449691
0.452672
0.396547
0.447345
0.00891625
0.0075097
0.00100464
0.00804056
0.0317285
0.00350029
0.017242
0.0815525
0.0860973
0.119336
0.0551196
0.0832079
0.0566638
0.0366154
0.391028
0.166236
0.167183
0.323541
0.325791
0.261463
0.120854
0.08922
0.081863
0.123309
0.0477574
0.0770795
0.0556742
0.0342955
0.111071
0.0512391
0.0819871
0.0437743
0.0737672
0.0539577
0.0321913
0.330223
0.442621
0.392114
0.335254
0.32932
0.273898
0.391714
0.44902
0.3381
0.398169
0.337937
0.335785
0.278464
0.394966
0.0557574
0.0724862
0.0728122
0.0380171
0.038237
0.0506147
0.0261441
0.0393349
0.0223453
0.0226191
0.0264003
0.0266406
0.017731
0.0145936
0.0551885
0.0361797
0.0371353
0.0236062
0.0243992
0.0234346
0.0148832
0.0237876
0.0382009
0.059177
0.0365847
0.0137127
0.023105
0.0222133
0.0360788
0.0345321
0.0554248
0.0359046
0.0135295
0.0229092
0.0214062
0.203289
0.120138
0.258918
0.205433
0.0656921
0.0882152
0.15959
0.206799
0.12121
0.262486
0.20665
0.0660647
0.161282
0.0885061
0.0294189
0.0204621
0.0207712
0.0189579
0.0186002
0.0130343
0.0115801
0.277243
0.166446
0.268736
0.272035
0.221017
0.218836
0.334085
0.027195
0.0262416
0.0461505
0.0335113
0.0106332
0.0195737
0.0191058
0.0177163
0.0503109
0.0258831
0.0261019
0.0358987
0.0179859
0.0125207
0.0507763
0.018179
0.0262683
0.0264069
0.0360907
0.0181701
0.0128116
0.0247578
0.00963487
0.0152341
0.00995624
0.0157521
0.00931814
0.00569065
0.024712
0.0107687
0.0156844
0.0104428
0.0152923
0.00932019
0.0062362
0.0113739
0.0142739
0.0174439
0.0116636
0.00558064
0.00915405
0.00761131
0.0146076
0.00887079
0.0152018
0.00830083
0.014398
0.00886911
0.00493707
0.160804
0.0931174
0.0498312
0.0500394
0.124172
0.0659416
0.123394
0.0118546
0.0147251
0.0178549
0.0118529
0.00586149
0.00789559
0.00935043
0.0231862
0.00872825
0.0147533
0.00835056
0.0143893
0.00891514
0.00504441
0.012684
0.00634705
0.0111916
0.00449577
0.00783842
0.00669281
0.00362711
0.0131747
0.00690213
0.0117327
0.00477321
0.00804145
0.00690269
0.00389753
0.0219979
0.00683366
0.00774089
0.00774778
0.0137574
0.0126581
0.0125186
0.00531343
0.00296228
0.00166032
0.00541956
0.0092549
0.00564415
0.00318231
0.0018596
0.00353121
0.00627569
0.0103154
0.00608354
0.0059047
0.00334674
0.00548536
0.0031926
0.00177171
0.00335551
0.00574676
0.0094645
0.00574885
0.0195697
0.0197175
0.0263144
0.012728
0.00658331
0.00915722
0.00903235
0.00460105
0.00465081
0.00842483
0.00506136
0.00131509
0.00270983
0.00265979
0.00945285
0.00304841
0.0052855
0.00535964
0.00158573
0.00313912
0.00285858
0.00563785
0.00530414
0.00923832
0.00540946
0.00165839
0.00317832
0.00295706
0.00591016
0.00484596
0.00308735
0.00518283
0.00163737
0.00334914
0.00266358
0.00635826
0.00538286
0.0094754
0.00538281
0.00181275
0.00290544
0.00349986
0.0078161
0.00348861
0.00347893
0.00359265
0.00524951
0.00578409
0.00513712
0.0450228
0.0126623
0.0152803
0.0129829
0.0197503
0.0278379
0.0270502
0.0146284
0.00451554
0.00644679
0.00765657
0.0109329
0.00468094
0.00318828
0.00476268
0.0148846
0.0110626
0.00794196
0.0110703
0.00476512
0.00333531
0.00206211
0.00146423
0.00271133
0.00261451
0.00469736
0.00382391
0.00197381
0.000793166
0.00151639
0.00296225
0.000680815
0.00147929
0.000769462
0.00031805
0.000559122
0.00271201
0.00122354
0.000594013
0.00146437
0.000701274
0.000246743
0.00182808
0.00175351
0.00333706
0.000842259
0.00167081
0.000821417
0.000379466
0.00176629
0.00143852
0.00284001
0.000788141
0.00136471
0.000629282
0.000325966
0.000410513
0.00178195
0.000870608
0.00174495
0.000908575
0.00184361
0.00331376
0.000325863
0.000629197
0.00143847
0.00283988
0.000787812
0.00176585
0.00136454
0.00295677
0.000679773
0.000768439
0.000792234
0.00165557
0.00151382
0.00147666
0.00216252
0.00205117
0.00336376
0.00227627
0.000685619
0.00125048
0.00143196
0.00218868
0.00352224
0.00233647
0.00233716
0.000750304
0.00129847
0.00152342
0.00516718
0.00529824
0.00787465
0.00329917
0.00128971
0.00218675
0.00212433
0.00137579
0.000378991
0.000929109
0.000332969
0.000738943
0.000432983
0.000154704
0.00103179
0.000777716
0.00149615
0.000378804
0.000777725
0.00046282
0.00018339
0.00110687
0.00014553
8.82374e-05
0.000207413
0.000299025
0.000594904
0.000416184
0.000151812
0.000869096
0.000374904
0.000361213
4.41745e-05
0.000145014
0.000128726
0.000254779
0.000320571
0.000730175
0.000319053
3.0574e-05
0.000123919
9.52214e-05
0.000640427
6.93421e-05
0.000219111
0.000294296
2.35904e-05
9.9226e-05
8.64344e-05
0.00132156
0.000333445
0.000407158
0.000278017
0.000728382
0.00082599
0.000611009
0.000192629
0.000288842
0.000570373
0.000227823
2.28415e-05
9.95228e-05
6.49853e-05
0.00150021
0.000375211
0.000505137
0.000397191
0.000733602
0.000931256
0.000896062
0.000109326
0.000247672
0.000650432
0.000247699
2.94071e-05
0.000109346
7.90802e-05
0.0609949
9.94698e-05
0.00820482
0.0138338
0.0666623
0.0084319
0.00958073
0.0105734
0.000629508
0.00947148
0.000808834
0.0357766
0.00666106
0.00776501
0.000448854
0.00196895
5.78601e-05
0.00138969
0.0658361
0.0337473
0.036562
0.0345271
0.0374197
0.0199648
0.0183122
0.0655247
0.0365433
0.0371104
0.0373567
0.0379738
0.0203255
0.0200525
0.0501633
0.0276655
0.0282304
0.0197051
0.0199371
0.0148703
0.010449
0.00107025
2.10264e-05
0.000678659
9.91375e-05
0.0014623
4.29509e-05
2.01936e-06
0.00145177
0.00422228
0.000738898
9.79095e-05
0.000467915
1.32461e-05
4.01171e-05
0.0228409
0.00756519
0.0125631
0.0073593
0.0125002
0.00652447
0.003806
0.0106905
0.0200487
0.0203216
0.010676
0.00526949
0.0105614
0.00530678
0.0179488
0.00934152
0.0196014
0.0100569
0.00400508
0.00450963
0.0091242
0.0183806
0.0104792
0.01998
0.0104519
0.00464528
0.00516512
0.0095213
0.00957121
0.019678
0.0199609
0.0102871
0.00463317
0.00465784
0.0101793
0.00477987
0.00442848
0.0041989
0.00252123
0.00232176
0.00212634
0.00113072
0.0145058
0.00448558
0.0100805
0.00309334
0.00728393
0.00499641
0.00202463
0.0150191
0.00546206
0.0106681
0.00366779
0.00766187
0.00532862
0.00248715
0.0024612
0.000751838
3.20914e-05
0.000305599
0.00014112
0.000821869
2.35824e-05
7.86874e-05
0.00498652
0.00287794
0.00425075
0.00491662
0.00821286
0.00240345
0.00132059
0.00341036
0.00402098
0.00676509
0.00327773
0.000792344
0.00186055
0.00147561
0.00262383
0.00349532
0.00616842
0.00300995
0.000575095
0.00166367
0.00114036
0.00335591
0.00244652
0.00223631
0.00181924
0.00162276
0.00124759
0.000818352
0.0051116
0.00229924
0.000801604
0.00209804
0.00209604
0.00507916
0.00230028
0.0049643
0.00173418
0.00192775
0.000751227
0.00200265
0.00220704
0.00444131
0.00270743
0.000700262
0.00137576
0.000593178
0.00122166
0.000558249
0.000246409
0.00241621
0.000695345
0.00123329
0.000575928
0.00106371
0.000484358
0.000235881
0.000262303
0.000574613
0.00144569
0.00155022
0.00277783
0.00125183
0.000637848
0.000123135
0.000287634
0.000651587
0.00100847
0.00189558
0.000968547
0.000473742
0.0002988
0.000668629
0.00159878
0.00134199
0.00290754
0.00159933
0.000668843
0.00129126
0.00145565
0.00347507
0.00232307
0.000267117
0.000807302
0.000927546
0.0022963
0.000541206
0.00125318
0.000389305
0.000992974
0.000490874
0.000173414
0.00188271
0.000304554
0.000956482
0.000265191
0.000857497
0.000406151
0.00011115
1.60376e-07
1.27562e-05
0.000144923
4.64528e-05
0.00333397
0.000432093
0.003451
5.29575e-05
0.00174395
0.005901
0.00627417
0.0103094
0.00607887
0.00334401
0.00352968
0.00185876
4.8076e-05
0.0001602
3.96587e-05
2.45794e-10
9.94574e-08
2.82843e-05
7.1171e-07
0.000954434
0.000943383
0.00191418
0.00189552
0.00360015
0.00191383
0.000954249
0.000908365
0.00184315
0.00331174
0.000869992
0.00178056
0.000929953
0.00041036
0.00166905
0.000820529
0.00175182
0.000841604
0.00182698
0.00090847
0.000379172
0.00135083
0.000133978
0.000246781
0.000205649
0.000706977
0.000431636
0.000507311
0.00137592
0.000432945
0.000929154
0.00033282
0.00066799
0.000378909
0.00015464
0.00109313
0.000234535
0.000685344
0.000223774
0.000574593
0.00030949
9.27841e-05
4.41555e-05
0.000151747
0.000128636
0.000360872
0.000374621
0.000868316
0.000409497
0.000135429
0.000147294
0.000372007
0.000160175
0.000400259
0.000916851
0.000418558
0.000164216
0.000164193
0.000422303
0.000170033
0.000434517
0.000950393
0.000434441
0.000418709
0.000400328
0.000917183
0.000372215
0.00014737
0.000135478
4.64662e-05
0.000373641
0.000113765
3.52517e-05
0.000351684
0.000104901
0.000804858
0.000289629
0.000207165
4.41164e-05
1.23395e-05
0.000127855
4.41253e-05
0.000486348
0.000207224
0.000293935
0.000246926
0.000639406
0.000218829
2.35759e-05
8.63424e-05
6.92802e-05
0.000124079
0.000185842
0.000445382
0.000174053
1.13215e-05
3.98417e-05
6.60825e-05
0.000167431
6.58904e-05
9.63503e-06
3.97796e-05
0.000109256
0.000435506
0.000193552
0.000288653
0.000227747
0.00057021
0.000192519
2.28202e-05
6.49456e-05
8.22875e-05
0.000177576
0.000106989
0.000383452
0.000149766
1.00143e-05
3.43732e-05
6.12786e-05
0.000108952
8.74014e-05
0.000338369
0.000147329
6.04427e-06
3.18247e-05
4.23526e-05
0.485339
0.545899
0.349027
0.373822
0.162901
0.399082
0.43249
0.259155
0.54914
0.517269
0.515933
0.496667
0.493945
0.462168
0.462691
0.527517
0.46335
0.501814
0.431275
0.476055
0.44946
0.41067
0.383797
0.314147
0.459908
0.385806
0.460614
0.400745
0.316864
0.434472
0.35896
0.360106
0.323817
0.322829
0.398377
0.398666
0.416301
0.378966
0.450835
0.393232
0.288243
0.312279
0.362233
0.416713
0.309172
0.346275
0.286673
0.31598
0.388276
0.352828
0.256519
0.33097
0.177013
0.174318
0.242702
0.333301
0.245656
0.235871
0.225009
0.175229
0.255512
0.242788
0.327956
0.302312
0.0543607
0.213345
0.0168374
0.107426
0.240532
0.11666
0.0620752
0.0184917
0.274393
0.274753
0.239141
0.187544
0.18778
0.159185
0.157794
0.236382
0.235072
0.265125
0.162198
0.181802
0.155753
0.141478
0.183397
0.180933
0.114601
0.115777
0.068382
0.113929
0.0696746
0.167205
0.115496
0.180987
0.114242
0.0639161
0.0688852
0.105481
0.113464
0.0624164
0.113906
0.0933371
0.0488734
0.0494426
0.0923155
0.0988428
0.0606646
0.11053
0.0913928
0.0439402
0.0483995
0.0830778
0.0652376
0.0187703
0.0371552
0.0328481
0.0333691
0.0641414
0.0378207
0.0642989
0.0300445
0.0344102
0.0184287
0.0328067
0.0372923
0.0592221
0.000148056
0.000160524
0.000366815
0.000175763
1.56496e-05
5.96814e-05
5.40532e-05
1.226e-05
0.000163639
5.06938e-05
2.21972e-06
1.37992e-05
5.26708e-05
1.2759e-05
8.35065e-06
3.96507e-05
0.000141695
1.59252e-06
1.1378e-05
4.88169e-05
1.138e-05
7.41362e-06
2.88578e-05
9.45244e-06
1.03632e-06
6.13485e-06
0.000117313
3.44633e-05
3.82023e-05
0.000125611
0.000282721
0.000124942
9.21125e-06
3.22838e-05
4.41914e-05
2.21963e-06
1.37982e-05
4.80585e-05
1.22572e-05
5.06838e-05
5.2665e-05
0.000163591
6.06684e-06
3.55113e-05
0.000118224
3.99791e-05
7.37046e-06
1.06138e-06
9.85143e-06
5.26403e-06
2.11529e-05
2.56621e-06
3.03993e-07
2.15996e-06
1.162e-05
7.54025e-05
0.000119241
0.0165039
3.36852e-05
0.000141081
1.26675e-05
0.0124042
0.00174465
3.00248e-07
1.69336e-09
1.7737e-06
2.39646e-08
2.12222e-05
5.59337e-05
0.0034289
0.0003079
1.31678e-05
2.15358e-05
0.00396403
0.000387234
0.0177411
0.00459277
4.24437e-07
0.000619847
0.0106343
0.00185698
0.000226704
7.82401e-06
0.000768825
1.10311e-07
0.000144363
0.00016812
1.99945e-07
5.70531e-05
7.70949e-10
0.0179304
0.0116874
0.0117862
0.00666808
0.00670656
0.00410226
0.00409038
0.00457112
0.00516911
0.000183052
1.19237e-07
0.000168341
0.000250665
3.03062e-07
0.0176769
0.0106519
0.0115609
0.0059976
0.00655282
0.00398037
0.00358354
0.00410086
0.000835615
0.000593055
0.0900642
0.019719
0.0108788
0.00361637
0.0140197
0.00883636
0.00647668
0.00494556
0.00361058
0.00287414
0.00201962
7.90833e-05
0.003629
0.000123759
1.00963e-09
5.24223e-08
0.00080922
1.03182e-05
0.00396952
0.00711752
0.00715437
0.00227996
0.00115211
0.00114722
0.00228123
0.00727393
0.00256476
0.00424763
0.00140583
0.00235612
0.00126071
0.000715843
0.0748678
0.0509427
0.049082
0.0436425
0.0421487
0.0225619
0.0255542