/*--------------------------------*- C++ -*----------------------------------*\
  =========                 |
  \\      /  F ield         | OpenFOAM: The Open Source CFD Toolbox
   \\    /   O peration     | Website:  https://openfoam.org
    \\  /    A nd           | Version:  9
     \\/     M anipulation  |
\*---------------------------------------------------------------------------*/
FoamFile
{
    format      ascii;
    class       volScalarField;
    location    "0.0017";
    object      p;
}
// * * * * * * * * * * * * * * * * * * * * * * * * * * * * * * * * * * * * * //

dimensions      [1 -1 -2 0 0 0 0];

internalField   nonuniform List<scalar> 
14189
(
249333
102754
203869
420397
101391
103058
101302
101328
349764
412576
456785
318067
233905
220325
149575
151925
356067
249287
113468
154077
113462
103969
135114
233444
329637
107925
137734
111228
103033
135729
101813
111548
101728
109772
103785
101420
392204
357130
212892
393516
307391
287018
102727
277475
380289
379053
225683
259796
182692
270073
294274
165513
200305
233894
375461
275852
309829
242741
293846
420930
275985
346376
265528
295881
272149
434931
422653
127796
113199
137533
138352
162482
172371
149359
183477
289804
311328
238440
266285
359155
380883
177040
158748
152219
201480
179547
187466
207925
150180
142256
126297
185265
181082
201206
163518
232385
206031
202303
224871
252866
255892
229516
263885
260888
271120
302160
286054
290247
309082
250850
326596
444656
366362
279360
398936
576088
179680
240461
199935
210430
237753
251648
191394
278366
270571
273560
303460
299974
310877
307682
476364
222682
305016
289030
214727
370014
487665
190247
180204
168097
197820
227725
210684
216558
311207
467065
468702
363159
384767
650387
526249
237194
219664
211660
260712
245412
267884
236284
161624
184762
203719
201975
219810
240716
225447
245508
228596
210832
219619
268764
255269
236303
223913
252603
282582
224531
240403
265866
206440
283259
274587
268377
295923
330831
303339
318518
408828
383041
466655
229017
315901
259140
383573
378334
267052
289326
476943
386258
514965
409577
194737
228005
211673
241574
226059
244162
258211
249356
301365
275041
280027
285296
308791
255331
297227
284273
286065
335323
321236
318345
332635
230755
280209
282246
258923
244617
267409
246286
342248
335988
312274
318256
387232
350213
345097
250709
243336
259118
272458
288394
296076
280448
210763
250286
226114
263413
277463
287587
250992
301189
245408
259321
280152
311332
321639
268018
230182
243287
261840
257312
277794
272870
290780
282711
323916
293161
346487
312794
325457
365388
338137
374597
333906
393498
348293
343945
387667
287000
296041
274693
331941
296697
318762
263662
245825
252762
231029
264571
299514
287325
277535
212742
232985
244028
246454
235287
271474
268731
325774
402123
373886
372256
335132
360335
356970
285953
274355
260197
306230
304363
319378
290781
299650
274191
260964
279952
331406
319779
292349
217843
256041
244321
250245
238844
275852
282559
302521
334219
317460
368676
344132
326880
292084
312177
331468
353657
330739
351020
376955
374689
276154
296066
303726
304822
313516
341725
332945
533102
395031
301994
546529
430362
825550
646728
411261
379594
361804
357218
431087
374927
405612
236898
263611
251516
260587
273224
291542
303498
358115
304253
320460
329519
362138
370251
313860
301413
354589
337464
368673
342846
325655
313364
259960
294563
275880
312959
291204
308599
331145
276799
315381
303367
324561
312681
341257
353250
300655
305749
319123
322688
336315
358990
348001
289370
349203
309349
346832
306786
326684
370619
343569
325092
306766
342993
414828
366819
387642
365101
325419
333596
371668
395935
403027
363644
392700
390854
347621
365321
476875
417349
413286
246796
301793
286867
272140
285611
319774
342549
341417
386756
346906
416225
357942
388219
327382
292033
257419
260087
304485
351109
354815
301358
355513
385746
355159
442066
405880
405517
446696
344147
394958
353423
381549
414249
422485
373341
302977
380304
295275
335201
447775
437614
345748
270625
297099
264245
309836
375234
362411
318387
373272
287620
290455
328822
428837
325432
431401
402669
468007
398725
511233
432269
431348
522413
366091
345119
333197
372712
419502
406753
385136
365090
397133
352920
382919
441307
427863
395497
318053
328447
338494
346188
358308
368523
390881
370785
352514
327734
348465
428171
396782
375011
313764
429107
329045
461094
360916
381993
475212
279071
330904
290096
394193
330577
348141
420480
330128
372570
342379
390441
439612
435620
384478
349393
428664
450685
379999
396861
433041
497097
411154
435047
444011
485885
452169
442516
403630
389182
520096
480396
486441
448598
419416
442039
375781
459619
381590
416662
511066
517070
419893
260483
360913
305891
342223
204362
188923
156224
182111
323316
249744
430158
276756
356390
210027
194119
187492
236596
168644
154837
167159
180613
182186
195197
193473
162355
174819
158656
171089
184847
197948
202193
167009
179609
172556
185400
200333
207668
214269
460065
197450
243840
240843
382859
312662
489564
180515
197238
195478
209631
224210
226352
207728
188610
184672
200032
212613
234799
229689
217200
251866
210910
212769
227029
267141
269466
224967
179301
201380
192567
217151
207912
222426
232494
220280
255222
215728
230242
279452
273307
235164
193736
217029
200038
241454
223155
230438
249694
267594
226182
233352
287958
241574
249420
299404
212135
209440
228387
225151
242020
244899
260184
217605
225779
207900
239518
273271
250848
260098
288993
253220
242204
259267
337641
315548
271767
243656
326376
261482
290082
264017
292704
241376
247235
305219
274323
332304
268076
297381
252717
316415
282674
259872
268814
375689
331704
293624
223741
259802
240822
279185
258622
279166
303416
229440
266230
249883
290015
264982
282712
311921
284352
266943
329416
367087
287952
309649
404116
280356
380066
400956
329455
352532
295667
308513
385793
336573
283059
286590
261389
305492
342147
478480
443548
340412
400882
307481
340400
443549
413906
358491
316488
346154
484931
397234
449243
474478
350270
451782
410326
490141
486241
444759
352276
324052
304649
372943
485493
407111
452892
359416
418974
379707
440274
402891
429019
472512
387018
484987
458879
479400
461182
383368
479509
571872
523661
471207
477036
670231
595338
542724
415526
465240
497131
476435
460885
450263
428495
381621
465027
406858
464486
414679
444201
506942
395105
484606
477139
481737
467432
481480
408925
480805
494372
444421
494914
480254
436808
386323
469933
535588
532272
613795
575507
541525
478897
486935
487520
428313
451687
450399
486272
496152
474199
462188
417032
477184
638331
532310
556863
489774
502682
450372
486648
615473
555248
534966
530287
533261
455794
500305
731460
592178
593977
209736
195876
264969
202421
252080
189097
150542
145148
139408
157647
140629
159115
151821
169070
167601
142158
156881
164697
161235
153657
171409
175166
179710
200618
178129
188984
209847
211831
187281
187444
166731
168143
185298
205582
183642
207488
186190
205305
182258
191740
219817
214988
196017
191731
173980
170370
187950
215222
210504
192113
205263
254659
226446
226781
228678
203341
228996
208349
237648
237886
258729
232204
232488
213125
385023
556670
557224
369835
363547
464219
499710
353849
374964
256142
278214
263569
290558
288024
294015
297179
328652
321026
402794
527326
822340
521510
370734
290055
367977
264303
510799
337858
486659
518458
381507
453561
265072
309432
306594
294173
297179
328376
340338
638476
311988
788010
546763
641011
394524
451812
371570
325320
333501
365046
395899
402967
357072
361809
319643
327038
361793
389441
396371
353830
303455
321900
318732
334179
338173
353987
372970
372592
345019
333092
366017
419415
378260
406666
362805
338816
326830
362780
412353
374938
399729
279290
286726
296396
303805
323327
315344
348474
329184
413704
406064
362924
368659
407333
460441
398036
429071
472543
426056
432685
435996
391134
400542
448610
440514
451951
460301
508097
533412
216890
172805
245037
211810
238820
317897
298134
235513
228427
177894
164037
233460
200169
226822
145625
218554
237038
161954
158026
190362
162894
186950
192088
190708
169534
179433
170055
204348
196342
196740
205707
150517
151902
157052
167571
176987
182868
173950
245752
242909
215267
248501
220041
218568
246768
190853
215008
188703
201736
204246
228233
230374
191901
175185
169489
182043
159890
165314
190510
263182
263393
232660
253432
254157
224444
224442
223235
197699
216318
231283
191010
203822
209470
203960
212569
300462
293509
228201
371848
296701
203705
186912
180948
194417
200560
225675
217803
276178
276041
243864
292274
258278
259599
292774
217068
238129
219770
264310
244534
246706
266563
216339
242985
255224
244922
232027
206096
217070
185061
191460
188764
208477
201159
203865
221282
228793
256487
268303
253559
273023
243893
284660
210140
234726
216326
242195
254303
262060
234507
96958.2
89800.5
64437.6
58000.7
124997
136539
151913
130100
69179.6
69545.5
52687.4
89394.9
84100.8
81607
87919.3
89839.2
108784
78160.5
78902
97345.9
109367
97013.1
70713.8
78575.7
73513.5
88069.7
81428.6
88399.8
94591
111251
134171
108348
129967
104397
109928
135397
91780.5
79854.5
86763.1
110086
112866
98285.2
102863
153274
143604
119015
154673
131114
119328
144001
105558
125056
101709
109375
131422
132283
112317
149034
130168
130211
118925
139463
141342
120468
77987.8
184241
117074
106963
91908.5
153735
140471
207623
143251
184045
131925
104290
121898
165843
200336
236696
103932
168185
169099
205629
271761
325693
250484
185416
230826
86750.7
103418
100453
105727
108209
116161
120954
164335
149276
219406
156238
195380
172792
220859
98465.7
121157
121872
112540
114222
127223
135004
59918.5
71740.1
92273.4
76104.5
97640.3
113929
90678.7
155550
122257
148406
127085
134569
139485
160790
115510
137524
120927
144793
129902
134916
150267
129654
140928
116309
146607
121764
135001
158479
151397
160880
177894
167085
186624
195013
177173
180198
196780
192005
210054
203991
215001
223416
131225
131041
128584
142897
141748
144408
155521
86084.2
128009
108894
132699
130416
153874
108475
65557.3
170653
93138.4
29260.1
71141.2
109662
176215
73515.8
128892
161980
135820
158718
196635
259480
182164
234724
153941
136575
156443
151122
175153
172616
149743
58670.1
106579
99936.9
119456
82496.9
91571.1
122260
33916.8
44240.6
35917.8
37672.6
50667
60532.1
44770.2
161630
158342
160792
187983
183101
183407
188616
49817.1
40981.3
54390.3
71369.3
63975.6
83567.1
53622.5
119926
82469.3
112306
100449
136310
110462
128020
143791
138241
156752
175291
159096
179932
153268
174285
166777
163444
187542
199684
194528
192466
52070.4
97444.7
71541.9
81314.8
83434.9
107045
60881.8
105936
154944
136541
112113
159829
133891
139707
165587
212651
193847
192362
184721
212764
165719
208818
215145
242198
209569
244882
236805
215909
92700.1
83469.5
133397
95338.6
106164
118983
71184
119942
155011
153322
166855
130114
142164
146108
194736
176460
219859
189553
199115
215253
170172
213514
228090
247365
250401
220535
240998
220038
144818
136616
128014
141466
165994
149635
157316
162161
154662
133132
145657
175186
153225
167252
150497
98215.1
126952
139970
147559
170071
116015
168971
162418
147852
152981
190194
168041
174522
187730
142551
166872
157133
201601
178561
182665
153624
145965
130180
150332
188157
167857
172241
226994
185227
206223
214528
218258
196232
236657
172102
200578
188110
205753
204135
189486
219032
160390
172016
215224
163068
183133
191696
137490
239296
229254
255249
239094
287070
253547
264764
212308
219102
205156
226911
258922
240095
239734
146921
176481
176823
158917
159493
171230
189011
171275
184926
182267
159814
162468
173624
196738
141582
168577
171444
156229
154198
168565
183698
9814.28
53349.9
60206.8
17983.8
119489
139739
134652
116169
11101.2
22636.6
26124.9
62511
60954
66729.5
65747.7
33348
45090.9
33776.8
74745.8
65042
70385.1
76170.2
72494.8
50899.6
72856.8
78385.3
83513.6
84048.6
78777.3
146698
176857
191267
110513
150430
143702
115127
70823.4
56135
70771.3
76879.3
84681.9
84006.7
77514.3
110931
119984
155200
105231
129897
135426
102934
96382.4
98073.7
115719
119878
118495
97923.5
96755.3
96080.3
100873
120372
116578
118368
98601
97397.8
83930.5
83731
139091
179194
127431
133868
158961
122137
83146.3
96464.9
94308
94552.8
97425
109372
108854
83539.6
100138
96966.1
95330.5
98603.1
110464
112589
145918
132482
144599
113157
125268
114615
126596
135611
108591
123460
123851
108361
122814
136696
151310
135905
148040
118629
116208
128131
130851
111274
124833
109026
123750
140709
137984
126139
157597
138194
173147
171675
151881
139397
153103
164559
161165
175504
141056
158138
154969
143960
159536
184135
190217
197976
167678
175226
181528
173872
217834
221231
210779
192951
193512
200780
250331
304995
291780
290302
263924
270661
276614
226038
232763
264606
225564
209671
239978
249149
194979
200859
177627
189628
233667
208055
213769
172290
210939
186911
186896
227808
202536
210921
191446
188760
208473
185042
221270
203841
201151
276076
312768
338046
277668
339210
300004
313563
229308
220871
247782
250853
223727
242246
271466
231001
256875
236679
250300
225417
244530
271501
207115
219894
251044
241666
228201
241670
265449
247765
271437
242225
203933
250806
223691
229273
271604
293133
329496
283798
293534
262076
304808
321072
349518
451847
229836
222652
201361
273201
193440
216949
227819
316711
175735
340391
229974
258171
221703
126419
250454
185062
155647
169465
149718
161436
167402
180189
186674
460478
354028
270885
262875
201232
331851
252097
205291
240966
342060
494417
286731
230998
300424
149915
157092
154145
177607
174904
203782
188179
319979
368400
533534
351305
257448
337670
249751
172547
183662
163276
184325
174970
194910
205109
164251
206430
204343
187951
185465
210724
227158
197933
215381
191278
226029
201587
208712
233914
178834
208290
185111
221460
197637
204673
229306
240846
192714
208008
234896
260169
268231
224466
186619
232022
202419
232051
254926
262122
221744
215072
221230
219233
234200
231476
240687
252359
234181
280470
275588
255576
251505
274435
304252
183644
195644
196875
209211
219585
217489
232407
243498
231925
206410
217747
256374
228966
243909
202915
217020
193066
213543
251337
224510
239157
244163
230596
214590
238682
282346
253002
269456
235983
226050
209452
236011
276901
263685
250484
260019
288326
283557
286197
290757
317358
319984
263624
328701
290649
288056
294041
297254
256215
244734
244982
219406
227322
283902
253685
253929
284370
244203
256824
294467
265498
277778
308907
239567
274544
250924
288630
262893
274545
301626
212556
244516
225390
256875
236667
250270
271487
256471
274537
282136
277617
285894
314153
304849
311486
312426
280927
302279
377751
337806
336815
257694
275060
245487
271714
242649
259215
290803
265128
328431
309512
306623
294202
278270
297260
297632
301533
272262
297619
364633
326591
331835
214873
256913
229297
266258
237817
253881
284711
325089
370771
327306
404333
357080
360395
409853
314801
355045
317543
391203
351311
355060
397444
237268
298001
279256
279446
249567
264996
265234
276365
308320
340005
273339
246616
267154
297103
328928
308719
277534
252519
280586
266961
296835
269811
296714
329736
290100
264052
240769
264061
321957
318752
290092
303464
372995
334188
338200
297497
297569
264583
283022
378896
321406
321564
264290
323341
296386
279258
348462
303792
315311
267126
276309
246572
273292
339959
297073
308258
309702
360061
349849
351727
394172
341629
399965
303282
347510
312225
347528
382047
388974
337685
329172
413721
407349
406068
362922
367963
368661
401446
457633
482857
453870
414104
439513
443085
359339
428931
379655
440197
394968
418923
472431
413920
352222
391083
432092
391062
413903
461151
451991
508190
440541
448699
394556
400591
460419
403750
354269
306515
433748
354798
404730
494465
462031
338208
408444
470700
377924
425093
504068
349466
335774
313945
415024
359809
397550
469682
384922
448240
391656
462442
456582
544797
550167
457090
327935
386030
332213
378180
323353
291812
550227
544923
448282
391710
462542
384964
456704
306463
433631
404674
403678
337824
354191
354733
477087
474111
416992
462137
638112
533001
532204
455852
404088
454716
454700
607148
521479
513843
481185
476869
434096
463972
581925
515133
521677
524510
680045
552464
736801
608389
655086
740593
527254
593587
502699
707721
593521
640934
736782
476559
462250
424446
492802
479516
496181
499291
521325
382834
472517
473380
498384
518384
521683
517867
509016
438400
490296
461855
516335
505188
439292
490813
507576
496668
439122
513086
501185
556212
772749
759595
800706
668802
628580
678608
646904
557371
563178
645395
484849
574184
636525
518417
744410
701934
728266
614799
591720
603600
581453
641856
538302
641806
520654
581450
657524
235807
574187
289608
273453
227551
348157
300115
284276
489288
329105
489263
250323
363034
310677
487674
376136
429126
452091
230780
246798
241339
264993
259264
271498
277800
225466
235451
237763
253176
255609
267380
264684
242210
253776
272242
262601
281461
285943
296723
419910
371479
484346
513168
377954
448164
210640
411166
420196
608596
788416
730688
497959
476155
260590
288411
273894
309228
293425
311355
331677
287303
253655
256262
290765
331177
287698
334643
299321
338233
292467
309927
387303
373774
318043
266568
292301
260340
295794
353123
341481
303609
332360
285232
288095
304784
362194
365893
301660
310390
307408
330683
333080
361556
361309
405162
308205
384731
320153
407090
329404
346191
432936
274708
325149
285373
370767
314263
329203
396497
336589
420292
411605
494903
523700
402133
435600
494268
283076
312691
305526
286639
261426
342196
385825
345723
318641
299600
350966
469890
383531
431199
415418
362602
337114
371678
482134
407670
460026
424993
464820
489206
477313
503598
552936
585513
342151
415867
488310
429388
432581
338479
419729
349473
453016
444651
488787
440497
429165
361935
338204
425071
369791
470745
408447
461975
504069
413994
483542
474316
511031
503334
588334
561553
511680
471889
367295
354222
319265
397468
454076
480760
494337
480249
436818
386345
444456
489572
503846
444815
348376
382199
310623
348390
444832
467932
463524
380434
407023
480306
481658
482746
344802
472352
383485
500477
428612
478364
509492
400669
500736
451257
490016
452400
489640
476436
123782
424689
518387
501033
313962
449794
293509
511867
332189
266956
277538
252522
280595
296832
308731
328930
502303
518704
503839
101426
115495
466180
161894
374643
398032
344691
326764
307016
344699
374643
378166
323347
291798
385990
327917
371835
457059
359842
397547
335774
415075
349489
381508
469682
441317
462377
498915
483603
475283
488525
496672
524712
655309
552716
737082
638834
680390
740759
594354
715879
627753
781999
682368
705403
712031
498440
521329
521713
473341
472465
382805
453532
536622
519202
495114
518705
485915
402062
454994
519393
519393
451712
515359
443135
368579
443125
454997
485899
402039
495070
519199
536613
501030
477329
517787
478531
486578
515121
406417
506312
509749
439840
360431
482839
439807
486828
509737
496641
510807
439191
507592
439285
501246
490948
490924
513458
496753
500842
352634
434622
480220
505576
482062
329534
431162
473346
496412
509122
557460
645524
563408
647056
484755
636547
557205
553440
607948
609591
637045
362545
552038
526020
484466
461296
497495
497030
279776
415134
447335
167840
199376
140305
221337
211128
172820
236420
224512
209777
179342
172963
226482
218592
199384
204404
183205
158375
164835
194742
207359
192938
187045
135426
156009
146382
135667
144462
171600
157115
241296
252252
253926
244087
244661
225799
223036
145649
137021
143882
171250
162656
158969
172950
229508
246695
249674
241898
242862
218985
215539
223928
198738
204351
202874
178352
198623
179775
227740
186082
207033
225618
182156
198792
200717
370286
267429
335760
237730
264702
230517
355151
320623
269674
269370
264175
290743
292135
288122
286777
271216
265646
270151
298285
294503
290493
294480
249776
248701
228824
275857
256116
274275
258164
254736
233362
251673
278442
266218
261310
282700
319087
357996
321210
317005
349986
352804
314917
330530
362702
324783
320464
364810
357352
326254
304662
323545
285185
335500
338250
302502
287693
307959
349239
297037
328187
342476
291347
313420
798799
797001
715539
738397
633544
733670
723365
421565
516620
508724
266359
435714
508965
424668
376818
503830
537484
223944
410466
504869
410468
359170
457424
390277
191325
336184
515261
477257
748263
798718
763469
734674
536746
658939
700476
266403
435734
502321
421624
508749
508971
516617
332524
491892
531689
487805
355498
188908
392936
313684
424330
228899
128873
212786
353005
491439
416088
331666
233851
523712
189299
502545
582140
147846
101820
239146
105125
372358
428183
438316
337915
169227
198345
425041
356898
316772
403247
109573
474227
358903
459595
323042
151603
472992
104902
449090
459146
107320
412659
101420
319129
347195
349695
416073
416580
436395
436333
357276
335044
456611
105157
446632
479780
109899
323728
364067
354911
423691
418894
438063
441747
545774
721013
745643
391133
414150
513489
558666
343272
377131
394149
430661
439171
446637
451479
392205
375070
437674
101454
103471
473295
289829
426592
385145
387491
451503
456540
454801
452167
379108
434899
413631
454539
447948
454877
453238
398059
426057
429095
432694
436030
472561
464235
402090
430840
392930
451734
449482
452733
452787
830328
748689
773454
614901
434136
601226
799290
401491
453890
457690
439529
443141
482886
499742
354102
439710
438200
427837
320103
316343
429960
428951
448322
414164
443895
453851
452712
434251
338564
432640
416863
420801
436192
497013
497710
425412
212909
323106
101305
125320
141228
335397
433396
347965
436191
424398
295047
308226
419115
456668
428178
453237
456016
446200
442434
420538
345481
459039
446075
430374
445008
497852
498819
477357
392924
516341
141090
357051
101305
126691
512867
462691
470890
512876
546628
558803
502554
101346
503564
310249
183545
389769
126250
101299
462782
469586
445947
446876
394975
418738
433892
429055
302279
422054
275085
411232
399535
247586
468915
523686
477571
516393
555912
567596
506032
400645
475867
465509
485252
491807
497885
492038
464011
476887
481238
515153
521739
527358
581968
422994
101590
202126
569033
715691
775026
294762
525811
497776
481054
525823
602755
575319
545789
505458
537072
488273
529532
616203
584858
550021
393887
272973
410891
382364
176053
213260
356773
406418
193475
373565
266573
369624
261541
409215
475846
475834
472301
384455
423326
384475
324073
434881
504948
506068
500844
503440
477336
448471
477314
486538
406384
517802
506304
515172
478590
401210
348663
234106
183624
361654
250908
392811
473912
468549
474426
357749
411657
376350
299099
509067
490293
438465
517898
505201
518452
461855
329197
211318
380393
362353
133138
301413
184302
441380
498851
497180
469404
342492
473956
333517
493140
475427
492723
479196
388280
379759
483410
707730
621390
606964
560884
614220
628727
548893
494252
431676
496021
461517
286525
315360
448724
663177
781316
664719
525009
578061
582157
664747
496167
468323
494191
472257
336338
363179
460882
518466
728325
744580
591750
603698
702005
822388
534368
702199
594034
685135
588169
676943
798445
368033
148249
327224
141758
317633
261028
118031
514356
491294
494381
456499
461385
397419
313290
491210
471861
274525
427332
354522
515600
454021
509166
293946
323528
305866
331252
354292
374756
418693
354178
397394
319205
420218
367211
471800
511680
459435
416593
489953
482327
479520
503245
458000
350861
478408
390175
507632
450735
493388
510907
501783
514031
445208
515608
437091
507374
489900
431264
473442
496405
505661
329725
482178
411783
648548
697657
776554
577609
707941
657121
605874
490144
356626
480465
247283
428742
397965
200067
496384
407485
491340
295986
442681
413874
242652
429675
228534
317532
376259
430428
504266
495144
335599
130475
213485
118621
261853
156110
296842
349842
420423
456823
318126
149619
220426
233940
738502
797040
798905
733683
723395
788023
633502
101299
175521
103071
101298
101298
105747
101299
205321
103216
101299
101299
105716
101298
101298
504132
504152
523247
482840
388013
388051
227452
464595
480372
522725
395100
497057
371604
193101
486699
390381
515291
336359
457497
359235
191421
491865
487804
531696
332430
466127
355477
188885
234914
303925
461422
351196
122646
154486
281681
119548
194213
266906
194231
103229
138913
107321
360417
448004
477044
368677
135412
300428
182888
807916
741631
821696
820360
694167
807934
821692
817339
717581
784375
779594
668517
786170
812484
424443
353096
491492
435636
228944
313781
128902
492041
223565
419685
213222
423365
296711
127983
114154
164991
243138
183929
102632
127571
106384
826254
824571
724859
815236
706318
818222
815198
497781
277318
449233
283038
395724
204703
127998
149600
239838
112642
287469
184008
399175
463258
408468
258475
376016
331133
176284
118299
470400
338941
652524
511872
546506
311861
340705
142905
546583
340814
142941
569054
338984
511914
652501
261922
436094
228690
117298
200930
418980
605102
166317
284559
122113
108349
199342
135499
103310
369703
108876
181744
204916
195887
378148
174249
136145
203799
396022
111870
214195
141746
104175
353015
142624
156165
107118
178613
160320
325600
103710
259213
129001
276532
128994
431802
259202
123200
401699
236101
202514
102869
115499
115083
262642
242528
418210
218535
103020
119854
115998
643653
703832
791832
494786
174322
703808
422931
102868
115070
202480
123187
236022
401662
239119
125625
134207
285419
233573
102347
113394
117352
533190
214228
522635
827617
500557
732433
733226
600181
320924
642342
425136
684891
387510
145405
114395
214390
365559
161850
111789
107452
102267
351481
160682
158468
110602
110810
106085
102021
107455
102267
111792
175538
114397
365606
214401
135755
101729
101813
103788
109783
111553
103059
173977
132022
105691
174006
101881
111634
105693
103581
121105
285329
161483
101677
104838
107932
278896
103928
122105
156101
101736
104991
108145
291678
146921
104328
159771
101754
105245
108398
110678
147168
108835
103689
101372
101785
101688
176845
103255
101736
103765
106581
132929
108072
106616
121677
102474
109552
101403
103052
101787
200926
109418
102963
110833
101433
101964
103272
101911
104027
101430
101911
101305
101432
101328
105136
356845
148334
105296
101604
147822
105134
130093
122364
103227
136908
101498
103712
104331
103167
101636
101314
101801
101302
101384
101322
106949
108495
101660
182455
477012
165957
105690
101915
102053
111294
104069
101311
101497
101465
101487
121311
103463
101453
102736
101426
101312
118158
101439
102538
101438
102542
101392
101309
102736
103071
101487
101312
101453
103462
121307
101377
108167
102370
101338
101819
101377
101304
101519
101333
101897
101317
101612
101346
101301
110545
101364
101407
101351
102446
101821
102221
109512
101403
101358
101357
101821
102252
102229
101585
101344
102014
101326
101724
101364
101302
101586
101341
101958
101321
101642
101349
101302
101949
101301
101306
101308
101345
101432
101338
101320
101300
101317
104816
101316
101529
101572
101298
101304
101298
101298
101298
101298
101298
101298
101298
101298
101298
101298
101298
101298
101298
101907
101298
101298
101298
101318
101299
101299
101314
394981
101298
161405
354210
489739
395441
101402
101301
110794
514020
515571
445325
501818
507275
515514
436892
101438
101507
262610
101298
101298
101304
101299
496996
371485
522683
464474
480258
335186
192980
149433
287183
463081
398976
183836
239579
112607
204387
389474
497631
127905
282761
449046
277029
125305
242437
418153
218467
119847
115981
103019
285139
104833
121063
141135
101677
107921
103576
205192
160556
351281
102020
106073
158339
110585
102470
101785
106594
183276
109516
103046
121606
103920
106228
121410
102328
101551
101432
101329
101298
101298
101298
101298
101298
101312
101298
102541
103214
118138
101392
102536
101439
101309
103685
128332
103685
101471
103220
101471
101314
101298
101298
101302
101298
101298
101298
101298
101364
101351
101821
110538
102445
102220
101407
101333
101317
101519
101346
101611
105116
101895
101485
101420
102347
101308
101352
101304
101299
659709
678547
399118
419419
467740
720905
677862
432155
458346
536085
719187
655297
411848
251722
270339
414887
429313
277393
289791
451448
280322
320650
438685
480992
298199
336681
447636
293570
303743
691865
715003
393459
406951
509800
311512
349871
731511
770683
416469
469624
255621
263282
266518
312669
298934
309681
302260
541189
337539
396513
501110
608409
354084
421234
261855
280083
272191
318002
315738
325402
307849
290111
291910
301622
325768
335003
346132
337506
689669
430756
501818
340665
169591
425449
504215
265275
279576
268029
310591
317484
307819
319910
279881
283608
272978
315622
331219
322774
324390
305400
329530
314753
358669
365292
372684
350812
288730
308827
299639
340388
331992
343341
351849
295098
315699
316838
332287
334364
357294
355402
670044
444923
456692
712238
711772
467422
482098
362042
401463
350094
407075
409253
359459
352933
683910
368054
440693
766702
628198
501162
672027
366769
405807
365364
419369
413425
373543
358109
327592
321648
312608
356823
381505
372399
365537
298299
324546
319603
344956
338416
361317
367957
354690
395636
355879
401887
450805
399883
453661
363959
400002
358803
406348
469399
413757
459643
345851
356110
363675
380812
388167
404965
397544
689406
464570
504590
708610
627282
492064
543444
374377
426838
382154
392108
428470
435351
384685
331886
321669
341914
354135
365740
377557
390086
358989
407096
417429
364255
409522
356294
366784
351369
546564
734247
127176
101783
522642
435389
363992
420752
422253
378817
414124
371245
371587
371489
429099
381895
483425
424449
439039
503217
344734
373949
364067
399776
389874
409008
420291
403241
438937
408657
458565
445553
415850
396168
429325
388356
380587
391845
450237
439630
400112
334455
371413
354975
396792
379904
405986
425650
375790
403959
382972
423448
437159
444841
415949
447116
428430
447199
514092
542528
527206
558069
404790
466889
464189
429920
451911
419364
413941
413723
446303
395646
458556
569542
484356
531097
408982
396320
385587
430160
469252
454106
443293
446811
451238
453142
505694
499733
503861
501577
422603
475065
429968
446735
487863
495115
439203
697723
494519
511488
216144
167589
766649
760130
434705
378950
381345
410169
475988
478664