/*--------------------------------*- C++ -*----------------------------------*\
  =========                 |
  \\      /  F ield         | OpenFOAM: The Open Source CFD Toolbox
   \\    /   O peration     | Website:  https://openfoam.org
    \\  /    A nd           | Version:  9
     \\/     M anipulation  |
\*---------------------------------------------------------------------------*/
FoamFile
{
    format      ascii;
    class       volScalarField;
    location    "0.0017";
    object      rho;
}
// * * * * * * * * * * * * * * * * * * * * * * * * * * * * * * * * * * * * * //

dimensions      [1 -3 0 0 0 0 0];

internalField   nonuniform List<scalar> 
14189
(
2.10037
1.2365
1.86388
2.70566
1.22577
1.23892
1.22503
1.22525
2.53472
2.6949
2.71906
2.41445
2.02477
1.9538
1.54802
1.5605
2.55501
2.10017
1.31331
1.57597
1.31327
1.24554
1.45618
2.0206
2.46343
1.2747
1.47349
1.29802
1.23863
1.46219
1.22919
1.30068
1.2285
1.28794
1.2443
1.22601
1.86432
0.916312
0.702845
1.64833
1.13328
1.16712
0.358566
0.925157
1.38711
1.82924
0.657343
0.811283
0.635472
0.760439
0.899651
0.536214
0.673464
0.822077
1.34999
0.956625
1.05795
0.873697
1.05084
1.67491
0.953432
1.4826
0.929771
1.06126
1.05898
1.7726
2.01711
0.43656
0.387229
0.462852
0.451692
0.524775
0.550985
0.481575
0.581358
0.801083
0.941507
0.699797
0.834098
0.926202
1.11044
0.623063
0.544613
0.528311
0.680494
0.594555
0.613577
0.695002
0.496353
0.465935
0.422878
0.583789
0.564123
0.622546
0.519045
0.817617
0.723266
0.717037
0.771136
0.87571
0.893975
0.785135
0.919547
0.908461
0.939728
1.03483
0.984336
1.01019
1.07025
0.9248
1.11483
1.83513
1.49726
0.976114
1.32546
2.46655
0.553627
0.701703
0.61391
0.640279
0.687475
0.728305
0.584276
0.962004
0.932131
0.944122
1.03979
1.03229
1.07797
1.07409
2.71963
0.891193
1.39306
1.32085
0.861016
1.75652
2.68858
0.651449
0.595188
0.567165
0.636844
0.739953
0.663984
0.713915
1.1564
1.9857
2.31731
1.68885
1.59193
2.93634
3.02927
0.83917
0.763886
0.736941
0.927062
0.849061
0.976937
0.810181
0.517092
0.575882
0.629626
0.6156
0.665239
0.709997
0.670175
0.736014
0.741947
0.665016
0.684742
0.834533
0.756247
0.760268
0.671996
0.722102
0.792902
0.664709
0.708661
0.759067
0.621792
0.991741
0.988045
0.944676
1.05261
1.20864
1.11389
1.12684
1.96445
2.64996
2.74429
0.923024
1.46161
1.11964
1.89617
1.08913
0.757124
0.889546
1.23445
0.97409
1.52678
1.18438
0.627101
0.739877
0.662375
0.773642
0.694592
0.729535
0.814364
0.837901
1.06497
0.954579
0.989155
0.96095
1.1135
0.863353
1.06196
0.994235
0.999152
1.23032
1.13944
1.14028
1.23699
0.707595
0.863864
0.807792
0.815285
0.734187
0.77984
0.784286
1.22727
1.16413
1.08521
1.12932
1.42999
1.28815
1.22101
0.914819
0.874064
0.900391
1.00817
1.01276
1.06076
1.06546
0.638353
0.728586
0.679412
0.754694
0.777158
0.79891
0.725021
0.828257
0.711342
0.74759
0.787559
0.84231
0.865512
0.758836
0.805769
0.857801
0.987355
0.89861
1.03915
0.953213
1.10841
1.0492
1.23703
1.12557
1.31559
1.19169
1.28277
1.44379
1.17866
1.40508
1.18074
1.47713
1.24111
1.24712
1.50118
1.03866
1.00622
0.947925
1.24573
1.10096
1.17537
0.900608
0.783724
0.744342
0.701379
0.768801
0.914143
0.812233
0.861457
0.857119
0.97061
1.03427
1.03962
0.975391
1.19276
1.18591
1.1914
1.53862
1.46504
1.41237
1.27073
1.36813
1.30301
1.0515
0.978196
0.975277
1.133
1.25846
1.23407
1.14778
0.840606
0.852987
0.764793
0.800329
0.989929
0.8796
0.89688
0.870915
1.07974
1.0127
1.05308
0.987743
1.21002
1.24358
0.828213
0.883433
0.851162
0.95039
0.905885
0.871336
0.805569
1.15178
1.26945
1.35201
1.28067
1.3658
1.5055
1.52947
0.776704
0.810299
0.825279
0.827067
0.844752
0.895191
0.875869
2.25074
1.28278
1.04434
1.8055
1.41302
3.42144
2.7443
1.60468
1.45796
1.33272
1.34431
1.82466
1.47757
1.63853
0.969757
1.12208
1.05279
1.1119
1.18448
1.29768
1.3778
1.4179
1.19732
1.17574
1.24626
1.60238
1.51886
1.27698
0.841315
1.04609
1.0034
0.981235
0.926228
0.888784
0.947109
0.914389
1.13224
1.05682
1.07848
1.01256
1.18308
1.26572
0.790636
0.948013
0.840834
0.971101
0.860722
0.917608
1.03468
1.15122
1.3023
1.27882
1.40111
1.3659
1.53362
1.58323
1.00094
1.32194
1.17075
1.1775
1.05848
1.24586
1.405
1.35958
1.3121
1.21407
1.38364
1.74543
1.49321
1.58807
0.936979
0.861259
0.878354
0.950823
0.989945
1.01458
0.929068
1.57521
1.54568
1.36463
1.47007
2.01983
1.69399
1.69798
1.03467
1.38309
1.29801
1.19296
1.27036
1.4888
1.63762
1.34759
1.77782
1.54513
1.86874
1.48537
1.66502
1.39103
1.32919
1.12015
1.12644
1.40002
1.68896
1.7015
1.39093
1.41574
1.62906
1.43643
1.90967
1.69095
1.7337
1.98967
0.897197
1.00075
0.919067
0.9719
1.03248
1.06222
0.948164
1.36231
1.80034
1.32339
1.56149
2.21502
2.1484
1.61597
1.17412
1.35093
1.14248
1.42336
1.8039
1.73639
1.46871
1.76769
1.29595
1.30361
1.53339
2.10313
1.52276
2.11379
1.61902
2.07091
1.65112
2.24965
1.81668
1.8727
2.39645
0.968731
1.01236
0.89905
0.985201
1.19969
1.0646
1.10974
1.0671
1.04581
0.944701
1.0106
1.27172
1.12276
1.14127
1.21637
1.11656
1.14908
1.31022
1.35795
1.22477
1.45809
1.2476
1.19252
1.12249
1.32811
1.60115
1.49792
1.42013
1.42552
2.0979
1.52083
2.31457
1.70353
1.83097
2.4368
1.22527
1.5631
1.30077
1.91255
1.54275
1.65378
2.06846
1.47156
1.63832
1.43811
1.74818
2.14954
2.03059
1.82187
1.42031
1.81752
1.91997
1.54133
1.61383
1.75006
2.11932
1.03398
1.0856
1.11394
1.26982
1.14633
1.11569
1.00719
1.58343
2.22818
2.05439
1.97213
1.82466
1.70742
1.8668
1.74967
2.14857
1.66637
1.90518
2.6264
2.50289
2.02725
1.11387
1.70615
1.37521
1.5741
0.800482
0.751467
0.631064
0.712564
1.49044
1.07981
2.11749
1.19769
1.65444
0.825766
0.768804
0.733485
0.982732
0.666609
0.627376
0.662945
0.728188
0.731188
0.776935
0.773627
0.650296
0.686246
0.63837
0.673705
0.738021
0.784485
0.799701
0.663445
0.701926
0.678714
0.722348
0.791582
0.821125
0.851137
2.32622
0.78037
1.04055
1.02588
1.86658
1.49083
2.51344
0.709013
0.77536
0.771785
0.839276
0.92033
0.92467
0.835584
0.734143
0.719958
0.783693
0.8481
0.957115
0.935429
0.866036
1.08303
0.869675
0.872452
0.935617
1.17103
1.17554
0.932038
0.700584
0.795427
0.752255
0.871293
0.82441
0.894186
0.953505
0.895921
1.09252
0.879792
0.944916
1.21604
1.18848
0.964379
0.754006
0.862297
0.781765
0.990974
0.893034
0.932078
1.04053
1.14744
0.919315
0.952559
1.26048
0.993876
1.03692
1.32786
0.854043
0.84306
0.934883
0.929969
1.01745
1.03133
1.13032
0.876931
0.913834
0.821724
0.987087
1.1999
1.0607
1.10936
1.2712
1.06701
1.00048
1.09804
1.56151
1.42636
1.18071
1.0227
1.49941
1.13564
1.30115
1.14157
1.3075
1.0181
1.03447
1.36266
1.18631
1.52436
1.15658
1.32538
1.05836
1.42364
1.23396
1.09574
1.15075
1.77146
1.51468
1.30465
0.923707
1.14633
1.02594
1.25488
1.12225
1.25495
1.4134
0.949116
1.1808
1.07077
1.31524
1.15522
1.27436
1.46208
1.26938
1.15519
1.51797
1.73947
1.28899
1.43004
1.96322
1.22785
1.81063
1.92861
1.53843
1.64209
1.33138
1.40376
1.91174
1.62223
1.29753
1.31787
1.15477
1.42524
1.65364
2.46873
2.21431
1.61809
1.9448
1.41808
1.61815
2.21436
2.0196
1.71652
1.46759
1.64942
2.53097
1.94589
2.25167
2.4364
1.65354
2.2588
2.0029
2.67393
2.56244
2.21432
1.7043
1.53884
1.40393
1.80761
2.48051
2.01151
2.26601
1.19334
1.52586
1.41218
1.41747
1.31189
1.56874
1.70083
1.86651
2.68517
2.29091
2.45927
2.30182
1.85333
2.46335
2.56878
2.33837
2.05432
2.15611
3.21683
2.80174
2.52389
1.08825
1.33774
1.35541
1.38107
1.22114
1.18503
1.22919
1.26872
1.71569
1.52082
1.51479
1.35534
1.63183
1.84893
1.90487
2.53636
2.4093
2.69619
2.33959
2.48782
1.97912
2.77029
2.6882
2.2237
2.66936
2.48478
2.17923
1.88576
2.22844
2.88581
2.74525
3.20627
2.88422
2.64274
2.38338
2.60257
2.50229
2.09383
2.2437
2.75613
2.67432
2.60717
2.01313
1.83821
1.67949
1.90506
2.66012
2.09106
2.35802
1.58341
1.63985
1.45799
1.76225
2.23827
2.01469
1.92573
2.26816
2.14096
1.8467
2.00475
3.04957
2.34187
2.52113
0.772268
0.758681
1.1398
0.746159
1.08678
0.734547
0.583576
0.56689
0.5481
0.599612
0.552531
0.604445
0.587668
0.642382
0.638523
0.558285
0.604697
0.622977
0.611874
0.594057
0.649898
0.663357
0.666756
0.742128
0.662416
0.715668
0.810844
0.814719
0.711987
0.731126
0.642689
0.646274
0.712894
0.817994
0.709396
0.821642
0.68889
0.755252
0.675054
0.724292
0.845407
0.82498
0.740878
0.742515
0.666415
0.653253
0.721061
0.851032
0.831211
0.737335
0.803985
1.09276
0.922441
0.933788
0.926963
0.800272
0.938228
0.813894
0.964417
0.974955
1.10856
0.939365
0.950322
0.834007
1.10919
2.35728
3.13415
1.84417
0.928624
1.18217
1.4546
0.90988
1.07896
0.736559
0.862024
0.75239
0.799837
0.795313
0.806288
0.812345
0.868096
0.852728
1.31147
1.71228
3.32943
2.19723
1.37403
1.00463
1.52916
1.12223
2.69487
1.66524
2.88432
2.91957
1.91913
2.33547
0.766729
0.932754
0.92561
0.821654
0.827756
0.887989
0.999106
2.85114
2.42557
3.55004
2.75616
2.99893
1.66833
2.21251
0.95037
0.860929
0.878007
0.936723
0.989602
1.01421
0.916074
0.930066
0.850155
0.86485
0.929985
0.976014
0.999205
0.909803
1.15724
1.09432
1.08337
1.26011
1.27703
1.17416
1.38362
0.984645
1.0119
0.898621
0.968404
1.19926
1.08881
1.06415
0.96059
0.99498
0.884562
0.960483
1.17638
1.07885
1.04607
1.26076
1.2659
1.32593
1.42571
1.50646
1.49906
1.71483
1.33124
1.74644
1.70989
1.46451
1.49066
1.63561
1.94792
1.00291
1.06777
1.21502
1.05951
1.08681
1.09606
0.979393
1.73156
1.95921
1.91686
2.03138
2.07809
2.25386
2.47246
0.778892
0.66133
0.876999
0.763071
0.863145
1.39327
1.14875
0.876011
0.880345
0.664227
0.638622
0.826606
0.719317
0.807665
0.564262
0.792461
0.831482
0.644033
0.622685
0.716358
0.626345
0.698862
0.712269
0.701309
0.644799
0.661376
0.638236
0.742091
0.718815
0.713251
0.739389
0.586858
0.576504
0.59734
0.627333
0.659975
0.670166
0.642215
0.866874
0.853111
0.776808
0.87081
0.789699
0.779695
0.86112
0.695994
0.779863
0.69676
0.741415
0.742096
0.833104
0.833889
0.702501
0.642364
0.626811
0.666237
0.596852
0.615281
0.688868
0.929927
0.933265
0.829899
0.884734
0.890842
0.800404
0.794508
0.803533
0.716163
0.775453
0.814414
0.696417
0.736235
0.747898
0.82887
0.839454
1.4235
1.35932
0.925131
1.87898
1.40099
0.753114
0.68003
0.668226
0.722904
0.729483
0.822413
0.81987
0.998718
0.998827
0.878106
1.08783
0.946277
0.947564
1.09218
0.799885
0.879648
0.802086
0.996092
0.904409
0.907122
1.00198
0.794137
0.909249
0.914416
0.862808
0.846654
0.747329
0.769982
0.729223
0.740681
0.731178
0.823106
0.809974
0.820568
0.91614
0.858564
0.992835
0.98858
0.938347
1.09886
0.942167
1.08668
0.792748
0.874113
0.793107
0.899767
1.01102
0.998892
0.904714
0.415781
0.423314
0.351818
0.334288
0.506855
0.570139
0.57428
0.535669
0.376547
0.377577
0.302116
0.445695
0.432422
0.420525
0.432737
0.433531
0.48171
0.398262
0.407694
0.460177
0.472479
0.448065
0.368682
0.377394
0.36738
0.406746
0.402863
0.416698
0.419195
0.506643
0.575726
0.508031
0.551313
0.485391
0.490892
0.555586
0.413691
0.388162
0.393529
0.46037
0.458172
0.435076
0.43514
0.595951
0.577827
0.515819
0.591521
0.528757
0.505043
0.5689
0.453907
0.51921
0.457683
0.471164
0.518166
0.530992
0.46632
0.562302
0.514105
0.50651
0.488662
0.536102
0.548616
0.482693
0.300859
0.687957
0.468472
0.441687
0.409571
0.583839
0.552837
0.828403
0.582112
0.709764
0.525735
0.400393
0.42243
0.587794
0.61503
0.760755
0.364123
0.590613
0.639752
0.750447
0.98706
1.2903
0.884626
0.668059
0.86423
0.400273
0.450744
0.437463
0.446571
0.459011
0.485887
0.494143
0.623083
0.581482
0.898583
0.597006
0.780145
0.661377
0.924259
0.421996
0.48174
0.489508
0.460367
0.470874
0.507625
0.528877
0.240097
0.273408
0.341037
0.285855
0.356062
0.400878
0.326685
0.615034
0.512482
0.592871
0.521211
0.545676
0.555267
0.62856
0.479452
0.536839
0.488922
0.567676
0.524662
0.534211
0.581005
0.500506
0.526453
0.432445
0.541675
0.447504
0.481623
0.568492
0.581417
0.600129
0.663847
0.617222
0.688717
0.720278
0.641774
0.676848
0.730856
0.715831
0.769446
0.750549
0.794781
0.822308
0.510963
0.515779
0.502578
0.548927
0.551236
0.559714
0.601551
0.313845
0.439682
0.387159
0.451989
0.437026
0.508388
0.37646
0.264733
0.650669
0.369007
0.14503
0.299079
0.378747
0.6152
0.27921
0.468376
0.627535
0.572973
0.637016
0.695733
0.924338
0.671148
0.838535
0.634568
0.58282
0.65553
0.613402
0.690528
0.670369
0.599303
0.256742
0.448321
0.425889
0.485287
0.333306
0.363175
0.490705
0.161244
0.198166
0.17022
0.173337
0.217993
0.248988
0.195884
0.637998
0.648947
0.647856
0.714941
0.705531
0.695951
0.706989
0.211131
0.184351
0.230672
0.281654
0.251807
0.316783
0.222248
0.47917
0.336322
0.462628
0.390232
0.518932
0.41789
0.501856
0.571131
0.568391
0.626669
0.665529
0.602759
0.67073
0.597267
0.658351
0.642294
0.638108
0.70009
0.732798
0.718281
0.712025
0.21791
0.3551
0.28128
0.310223
0.306634
0.381784
0.243397
0.404343
0.570825
0.528258
0.423272
0.580828
0.481638
0.532845
0.6385
0.769428
0.727021
0.713227
0.672089
0.763913
0.629903
0.769793
0.786786
0.860609
0.764499
0.864084
0.84017
0.781803
0.342462
0.306604
0.453067
0.339373
0.379594
0.414248
0.272398
0.444278
0.56409
0.529729
0.595289
0.470221
0.50231
0.545465
0.713
0.643322
0.790282
0.679331
0.724057
0.769443
0.6333
0.772934
0.820515
0.88577
0.883363
0.797251
0.854566
0.791715
0.555649
0.528474
0.504708
0.550777
0.636404
0.576955
0.602947
0.631588
0.607985
0.533677
0.570347
0.680409
0.594557
0.64898
0.498432
0.347551
0.426041
0.471102
0.481572
0.548884
0.396818
0.655769
0.627451
0.582846
0.595503
0.736246
0.646046
0.674646
0.640983
0.501593
0.562236
0.537611
0.673979
0.617121
0.598307
0.55602
0.509257
0.468834
0.520301
0.639797
0.562412
0.60087
0.828622
0.66408
0.726353
0.792592
0.771477
0.698337
0.881723
0.627886
0.749192
0.69999
0.766091
0.730118
0.679384
0.823981
0.524823
0.545287
0.656039
0.523193
0.582025
0.602123
0.45549
0.867862
0.835467
0.932806
0.886199
1.07041
0.93405
0.994387
0.789171
0.824789
0.765481
0.849458
0.97992
0.91534
0.892279
0.561706
0.682903
0.674835
0.605515
0.614514
0.664801
0.743752
0.666955
0.725328
0.715873
0.621551
0.630289
0.679165
0.78533
0.544901
0.655888
0.656959
0.597016
0.597347
0.655912
0.724509
0.0712406
0.284396
0.333517
0.120748
0.496589
0.601634
0.565823
0.483596
0.0813514
0.13881
0.160187
0.285939
0.297539
0.339291
0.323749
0.202626
0.270838
0.206474
0.391493
0.33664
0.369091
0.400964
0.356161
0.26675
0.352394
0.381208
0.386928
0.392561
0.375117
0.581603
0.689973
0.717723
0.493688
0.597288
0.587364
0.496194
0.359901
0.308157
0.35708
0.385999
0.400272
0.397781
0.391779
0.521562
0.543703
0.64489
0.49006
0.558915
0.5744
0.485785
0.437094
0.431069
0.484078
0.500731
0.500869
0.433249
0.432406
0.443889
0.445235
0.511976
0.489163
0.506178
0.439048
0.449115
0.395367
0.391412
0.57205
0.691044
0.516987
0.554723
0.623328
0.503566
0.387042
0.43112
0.420404
0.422831
0.43535
0.469237
0.466745
0.394217
0.444989
0.431842
0.427701
0.440926
0.473981
0.479601
0.586355
0.550023
0.58221
0.486417
0.519052
0.491814
0.523988
0.540655
0.462008
0.503851
0.505951
0.462532
0.506663
0.544727
0.60378
0.561996
0.593363
0.505131
0.498153
0.530063
0.538
0.471881
0.510176
0.466193
0.510901
0.557933
0.549714
0.517538
0.619498
0.553915
0.67055
0.666998
0.593281
0.558146
0.597062
0.641633
0.630199
0.677659
0.564196
0.614005
0.603315
0.573228
0.616054
0.716455
0.744633
0.77481
0.647934
0.674626
0.703077
0.577033
0.71413
0.680031
0.696164
0.619441
0.6533
0.637468
0.949088
1.17191
1.15741
1.12002
1.02508
1.01856
1.06965
0.848025
0.825922
1.01578
0.803114
0.74645
0.913003
0.945204
0.773006
0.801153
0.693018
0.752752
0.987199
0.84578
0.874355
0.674612
0.862479
0.742728
0.742765
0.959897
0.823371
0.86253
0.740779
0.73121
0.823179
0.729291
0.916214
0.820682
0.810012
1.03536
1.20202
1.34374
1.04044
1.36328
1.15943
1.21249
0.966558
0.924225
1.0814
1.09703
0.936872
1.04961
1.23269
0.937803
1.0823
0.963944
1.07853
0.934778
1.04845
1.21426
0.817794
0.910088
1.05151
1.03397
0.925168
1.03394
1.17903
1.08142
1.23271
1.04966
0.828949
1.09711
0.936978
0.966641
1.03585
1.23024
1.3663
1.17787
1.15946
1.04732
1.21107
0.85288
1.42467
2.21266
0.909989
0.836093
0.783194
1.19078
0.731324
0.834207
0.936934
1.50189
0.656297
0.999334
0.682469
0.81409
0.665299
0.42651
0.79459
0.63203
0.591823
0.636737
0.57746
0.618464
0.637772
0.682186
0.709378
1.9481
1.17434
0.948873
0.92162
0.72094
1.34692
0.956631
0.791276
1.0229
1.6731
2.56215
1.26608
0.937919
1.42348
0.498366
0.508289
0.500872
0.56882
0.562279
0.630902
0.587058
1.31454
1.51543
2.47301
1.43491
0.97252
1.51776
0.989728
0.650013
0.686758
0.615127
0.710699
0.667455
0.749475
0.805144
0.553654
0.685022
0.679615
0.607904
0.602138
0.656956
0.736196
0.735061
0.797765
0.707602
0.877964
0.765903
0.803005
0.926975
0.685011
0.818869
0.711613
0.882458
0.762061
0.798252
0.928795
0.709561
0.59759
0.64027
0.697503
0.744078
0.761406
0.671109
0.583381
0.691602
0.627833
0.691704
0.734386
0.749684
0.665435
0.809902
0.788632
0.781585
0.891465
0.880809
0.851742
0.967554
0.894966
1.08408
1.06575
0.994406
0.978896
1.08808
1.20474
0.69796
0.768657
0.760505
0.842651
0.868157
0.877336
0.967623
0.96709
0.891755
0.776269
0.85603
1.08478
0.926914
0.995555
0.804487
0.869368
0.75049
0.849507
1.07673
0.917907
0.993054
0.726408
0.745153
0.665465
0.714954
0.872418
0.801134
0.775697
0.709249
0.733229
0.654129
0.709353
0.858823
0.764005
0.794721
0.978825
1.11215
1.09389
1.1048
1.12304
1.25723
1.27616
0.752575
0.868263
0.800122
0.795409
0.806373
0.812598
0.736792
1.00518
1.01482
0.865994
0.913392
1.2662
1.06589
1.07378
1.0931
0.863915
0.985747
1.01978
0.93081
1.06629
1.17999
0.847693
1.05253
0.961462
0.999726
0.921736
1.05259
1.14957
0.839604
1.04855
0.934929
1.08245
0.964141
1.07869
1.21437
0.97701
1.12641
1.10743
1.14348
1.1247
1.2831
1.30844
1.25557
1.23777
1.11464
1.21599
1.57523
1.37345
1.36561
1.06291
1.18119
1.00521
1.19548
1.01648
1.12659
1.33109
0.76694
0.888201
0.933121
0.925735
0.82176
0.862286
0.82807
1.19548
1.19354
1.07899
1.19549
1.51343
1.3195
1.34693
0.874787
1.12958
0.96309
1.18134
1.00444
1.11112
1.31038
1.28999
1.55073
1.30939
1.71859
1.46231
1.49702
1.78386
1.24621
1.46931
1.26495
1.65138
1.43499
1.4694
1.71411
0.979119
1.36886
1.25499
1.25776
1.06441
1.14882
1.15432
1.26078
1.47097
1.67723
1.24155
1.07196
1.20549
1.40218
1.59151
1.40865
1.20917
1.05916
1.22782
1.1877
1.38078
1.22352
1.40101
1.61679
1.35913
1.18807
1.04233
1.18806
1.09463
1.08347
1.00485
1.15738
1.38374
1.26018
1.27724
1.38716
1.38715
1.17029
1.2999
1.90042
1.54984
1.55259
1.12246
1.50667
1.32616
1.26091
1.71487
1.42581
1.49915
1.20554
1.26082
1.07207
1.24163
1.67712
1.40219
1.47093
1.33997
1.56039
1.60082
1.50862
1.8777
1.54514
1.81012
1.29808
1.48237
1.27259
1.48246
1.79892
1.74007
1.51783
1.3313
1.74664
1.63572
1.70994
1.46455
1.52923
1.4908
1.05051
1.30964
1.2939
1.29621
1.18202
1.15082
1.16181
1.19297
1.56842
1.41191
1.41715
1.28253
1.52569
1.70059
1.50399
1.1679
1.26812
1.38487
1.26804
1.50393
1.65113
2.03158
2.25427
1.91702
1.95969
1.66857
1.73184
2.07868
2.05113
1.76124
1.46039
2.21047
1.76705
2.06124
2.5625
2.38277
1.60243
2.03195
2.39837
1.85389
2.16641
2.6821
1.6742
1.63514
1.44409
2.07119
1.74137
2.01128
2.41945
1.81811
2.09744
1.75743
2.27384
2.14789
2.63379
2.78368
2.35088
1.60538
1.95691
1.63135
1.91413
1.57756
1.36961
2.78398
2.63436
2.09763
1.75769
2.2743
1.8183
2.14848
1.4604
2.20995
2.06103
2.05084
1.66519
1.76103
1.7669
1.90469
2.01271
1.67924
1.83802
2.65945
2.25035
2.09076
1.92596
1.62075
1.80427
1.80422
2.52477
2.19711
2.01008
1.5465
1.52835
1.39287
1.66353
2.0893
1.83901
1.86763
2.33702
3.2134
2.57245
3.25068
2.7074
3.0744
3.54629
2.43953
2.63493
2.22616
3.10972
2.63467
2.99861
3.47418
2.4176
2.76851
2.73645
2.78382
2.73596
2.58567
2.70679
2.75878
1.94166
2.43428
2.44736
2.88884
2.76436
2.80204
2.73434
2.6278
2.20547
2.55085
2.86604
2.80918
2.84474
2.25078
2.86398
2.7259
2.5962
2.82322
2.84153
2.84804
2.19327
3.15853
2.91968
3.30069
2.59977
2.43902
2.82922
3.29568
2.85329
2.73971
3.22766
3.07656
3.13295
3.45294
2.03033
3.03185
2.68158
2.96166
2.55848
2.28557
2.3359
3.12549
3.18269
2.59696
3.18245
3.15876
3.12543
3.45552
0.883954
3.13312
1.26247
1.14114
0.852085
1.57749
1.36475
1.29261
2.66323
1.48265
2.58959
0.970511
1.67633
1.43315
2.72548
1.86698
2.78312
2.28435
0.862664
0.985856
0.960216
1.03742
1.01001
1.14156
1.17492
0.847978
0.942734
0.94743
0.99183
0.996711
1.12478
1.11842
0.918276
1.02801
1.08316
1.09153
1.15285
1.23043
1.31399
2.12273
2.64111
2.53837
2.84141
1.85414
2.85876
1.90957
1.98286
1.7993
2.7082
3.59153
3.29075
3.16214
3.01661
1.04429
1.29148
1.17896
1.37616
1.24977
1.4289
1.5798
1.30107
1.08463
1.09078
1.31286
1.58878
1.30413
1.60061
1.25277
1.51998
1.21547
1.39466
1.87499
1.79658
1.44184
1.13883
1.32273
1.10696
1.33526
1.69719
1.6332
1.37872
1.49227
1.19061
1.1973
1.37088
1.74374
1.7572
1.36188
1.41282
1.43227
1.5371
1.61005
1.74665
1.77916
2.04674
1.31552
1.82569
1.4108
2.00196
1.52091
1.64162
2.17792
1.19129
1.53463
1.26955
1.803
1.45044
1.55788
1.95975
1.62223
2.12968
2.72014
2.6694
2.78327
2.03321
2.78485
2.82196
1.29751
1.49084
1.42519
1.31782
1.15469
1.65368
1.91182
1.67557
1.51471
1.37641
1.70827
2.41281
1.91382
2.17022
2.03276
1.72675
1.5445
1.81405
2.58086
2.04398
2.38069
1.86885
2.04319
2.16744
2.17244
2.31638
2.4775
2.74325
1.64044
2.0735
2.59181
2.16129
2.17589
1.62763
2.0897
1.67584
2.30723
2.23072
2.61594
2.22199
2.13894
1.74542
1.60264
2.16634
1.84411
2.39865
2.03212
2.3825
2.68199
1.89842
2.39643
2.25214
2.56786
2.41787
2.89652
2.93936
2.6747
2.40106
1.82536
1.75147
1.52991
1.97583
2.2994
2.77036
2.68833
2.48481
2.17927
1.88574
2.22385
2.51356
2.60846
2.24808
1.71768
1.89171
1.47852
1.71772
2.24815
2.4268
2.35867
1.85922
2.02628
2.78196
2.56353
2.50945
1.69294
2.42806
1.93142
2.63795
2.18255
2.48649
2.79312
1.97224
2.74395
2.28416
2.73682
2.3257
2.59581
2.8198
1.38441
2.80573
2.76422
2.90595
1.44423
2.30439
1.35934
2.88721
1.63128
1.18775
1.20921
1.05923
1.22792
1.38083
1.40871
1.59152
2.88873
2.74441
2.9899
1.22607
1.32823
2.93171
1.62376
1.8778
1.97169
1.64249
1.57757
1.39707
1.64252
1.87778
1.91407
1.57755
1.36961
1.95673
1.60535
1.87891
2.35071
1.74157
2.01127
1.63518
2.07141
1.6743
1.91912
2.4194
2.24402
2.80991
2.77237
2.78204
2.47806
2.68974
2.65651
2.3379
3.07533
2.57359
3.25162
2.85252
3.21487
3.54698
2.67584
3.51283
2.96741
3.51962
3.05717
3.37786
3.61231
2.8888
2.75865
2.8019
2.44712
2.43398
1.94154
2.33529
2.87305
2.77035
2.52734
2.74439
2.46879
1.99574
2.33385
2.73321
2.73316
2.32228
2.71056
2.27816
1.85955
2.27809
2.3339
2.46873
1.99566
2.52717
2.77041
2.873
2.90598
2.45324
2.81167
2.86406
2.50513
2.8256
2.05606
2.62668
2.72423
2.76144
2.57622
2.76609
2.76143
2.49341
2.72428
2.59593
2.69455
2.25033
2.72565
2.82342
2.84791
2.86392
2.86105
2.81868
2.59823
2.77752
2.57735
2.79986
2.85465
2.77604
2.83056
2.46753
2.752
2.77779
2.56886
2.74409
2.85378
3.22831
2.74078
3.29656
3.07638
3.45329
3.13435
3.0082
3.3656
3.06783
3.35299
2.65572
3.32363
3.10588
2.83749
2.8177
2.67948
2.80558
2.27016
2.76124
2.82671
0.670615
0.746003
0.55403
0.806555
0.756351
0.648298
0.837503
0.788766
0.766929
0.674099
0.662859
0.80814
0.793106
0.732152
0.741052
0.713903
0.63125
0.648898
0.736835
0.772286
0.721195
0.705492
0.5379
0.595135
0.575117
0.539811
0.572514
0.646812
0.599255
0.844623
0.876558
0.877297
0.848093
0.846824
0.798254
0.794815
0.579373
0.545485
0.574855
0.648794
0.616515
0.606108
0.653636
0.827714
0.872513
0.876759
0.852072
0.850685
0.789935
0.782297
0.785647
0.719072
0.732951
0.728693
0.657216
0.720419
0.661986
0.804003
0.682708
0.741819
0.794964
0.670288
0.723764
0.730454
1.329
0.919801
1.40631
0.847384
0.903663
0.820732
1.27228
1.33582
0.922137
0.919625
0.900969
0.987031
0.991031
0.980322
0.976892
0.935349
0.909939
0.927808
1.01598
1.00002
0.988875
1.00584
0.860561
0.857087
0.816825
0.954423
0.934523
0.95093
0.938471
0.88159
0.829951
0.868213
0.963347
0.971203
0.949084
0.982092
1.0978
1.27854
1.10272
1.10219
1.28694
1.29257
1.09798
1.1388
1.29504
1.1148
1.11363
1.34376
1.30868
1.13839
1.09337
1.34265
1.09825
1.29536
1.30079
1.08944
1.1031
1.10481
1.35355
1.14632
1.36279
1.3172
1.11685
1.13065
3.51069
3.48031
3.14708
3.49496
3.42982
3.59973
3.59926
2.79415
2.72579
2.8879
2.21064
2.82855
2.88696
2.80572
2.69133
2.98989
2.86108
1.98167
2.78099
2.90559
2.78102
2.60778
2.85309
2.70826
1.80214
2.51897
2.81086
2.87804
3.5466
3.55637
3.39076
3.5956
3.18912
3.53339
3.58674
2.21083
2.82857
2.88866
2.79424
2.88786
2.88693
2.7257
2.51232
2.97565
2.89852
2.89877
2.59478
1.78462
2.72791
2.40915
2.76611
1.99679
1.4163
1.912
2.55237
2.82529
2.71185
1.50129
2.02875
2.78318
1.7904
1.35258
1.94658
1.51073
1.22924
2.0671
1.25441
2.63087
2.76818
2.16643
2.43253
1.67265
1.83938
2.07941
2.48556
1.44468
1.92876
1.287
2.59768
1.64906
2.36119
2.393
1.56584
2.51404
1.25285
2.72017
2.7178
1.27063
2.69493
1.22601
1.44937
1.60581
1.61223
2.02693
2.02766
2.19214
2.19139
1.71468
1.60733
2.78958
1.25476
2.75867
2.79236
1.28905
1.46548
1.67899
1.63345
2.07657
2.04127
2.20754
2.24621
1.65756
2.59368
2.74398
0.979542
1.18223
1.40893
1.73088
1.56058
1.75328
1.86036
2.13709
2.22287
2.30951
2.39265
2.66608
1.81849
2.77996
1.22629
1.24209
2.4118
2.31723
2.0859
1.82255
1.83004
2.36959
2.5308
2.52829
2.36962
1.77179
2.15659
1.9956
2.44656
2.32957
2.48828
2.57714
1.00308
1.05959
1.06803
1.0869
1.09635
1.21523
1.18236
1.90872
2.11186
1.85594
2.3843
2.56192
2.53797
2.42048
3.28866
3.31824
2.85879
2.55879
1.39303
2.04425
3.43706
1.05072
1.29631
1.30996
1.15093
1.16215
1.29413
1.45481
2.47496
2.46404
2.46032
2.53001
2.39051
2.3744
2.53522
2.10197
2.25129
1.9903
2.59531
2.47762
2.54308
2.62629
1.6191
2.14295
2.06684
2.08291
2.15765
2.59269
2.59001
2.79906
1.91262
2.4479
1.22506
1.39468
1.49602
2.5077
2.48049
2.45741
2.46427
2.53086
2.29814
2.34459
2.5407
2.33798
2.10814
2.30796
2.55888
2.63408
2.63821
2.65978
1.65138
2.28636
2.22107
2.13132
2.20323
2.61605
2.66114
2.87805
2.72783
2.80911
1.49485
2.60778
1.22506
1.40346
1.39008
1.17639
1.20881
1.3902
1.60215
1.64491
1.35268
1.2254
2.6308
2.40704
1.75234
2.6936
1.40048
1.22501
2.39748
2.48307
2.2413
2.60284
2.62829
2.64241
2.64326
2.50812
2.32757
2.54052
2.21912
2.55641
2.56831
2.0951
1.20104
1.44738
1.23502
1.40856
1.65585
1.6985
1.37059
1.97109
2.40147
2.34668
2.49407
2.53256
2.72125
2.77977
1.66364
1.52843
1.54674
1.83907
1.86782
1.71244
2.08944
2.74712
1.2273
1.75735
3.36097
3.14759
3.55522
2.29211
1.48046
1.4461
1.28678
1.48058
1.95874
1.75107
1.65767
1.48103
1.54286
1.31645
1.50071
2.03218
1.80968
1.68142
2.5781
2.21282
2.56779
2.56396
1.71395
1.92158
2.52267
2.56735
1.81135
2.55013
2.18332
2.53725
2.15796
2.5747
2.64959
2.64959
2.50207
2.61899
2.66199
2.61901
2.43782
2.17539
2.77088
2.76531
2.64209
2.66321
2.81827
2.81196
2.45314
2.50487
2.05592
2.81164
2.62655
2.82551
2.86408
2.56224
2.48862
2.02657
1.7558
2.51807
2.10749
2.55919
2.66173
2.68147
2.54824
2.5489
2.65114
2.60041
2.33569
2.62804
2.55077
2.20579
2.73454
2.84466
2.91964
2.86597
2.43525
1.91009
2.552
2.52697
1.44734
2.33886
1.76156
2.74613
2.64015
2.63971
2.78108
2.52186
2.78945
2.48525
2.56945
2.78505
2.57326
2.78601
2.67562
2.64651
2.79268
2.53901
2.02278
1.97137
1.65779
2.01134
2.06334
1.61522
2.69295
2.73254
2.65684
2.77752
2.29051
2.41362
2.77389
2.32009
2.88446
2.41351
1.70124
2.07183
1.94668
2.4136
2.64942
2.78589
2.59945
2.78723
2.50748
2.59606
2.79162
2.03046
2.96182
3.0323
2.28564
2.33615
2.68177
3.32953
1.74631
2.56897
2.14354
2.42136
1.97788
2.46447
2.97675
2.55047
1.54464
2.43918
1.5031
2.40447
2.16309
1.34629
2.78887
2.83605
2.83889
2.8341
2.84619
2.71086
2.41613
2.71866
2.81913
1.22685
2.14961
2.57289
2.84233
2.29914
2.74397
1.36074
1.52897
1.43098
1.6009
1.72155
1.83495
2.09133
1.75136
1.97561
1.52986
2.12936
1.82512
2.40059
2.67447
2.31362
2.05332
2.59938
2.75181
2.44392
2.64435
2.77774
1.71483
2.44701
1.95064
2.66808
2.26704
2.5358
2.79893
2.59735
2.69988
2.26179
2.73864
2.8096
2.84624
2.85848
2.75204
2.77768
2.56859
2.77584
2.46816
2.83053
2.72032
2.16545
2.44434
2.98869
1.76525
2.49755
2.21094
1.97631
2.74065
2.56888
2.78237
2.1028
2.75467
2.69534
1.84896
2.71579
2.73002
2.77973
2.34265
2.78443
2.74098
2.08528
2.77816
2.00022
2.42419
2.63253
2.75128
2.72277
2.80835
2.46054
1.42972
1.92104
1.35053
2.16593
1.59403
2.32251
2.5349
2.70566
2.71903
2.41462
1.54828
1.95428
2.02493
3.49538
3.48042
3.511
3.5998
3.59945
3.55007
3.42973
1.22501
1.70468
1.23904
1.225
1.225
1.25904
1.22501
1.88195
1.24014
1.22501
1.22501
1.25889
1.225
1.225
2.88657
2.88655
2.77204
2.86594
2.69077
2.69086
1.9997
2.85235
2.87871
2.81079
2.71854
2.88705
2.63967
1.80947
2.88426
2.70849
2.81074
2.5196
2.8531
2.60794
1.80267
2.97561
2.89871
2.8986
2.51191
2.93161
2.59466
1.78448
2.03641
2.36836
2.80031
2.55941
1.37619
1.58044
2.27157
1.35668
1.81491
2.19113
1.815
1.24023
1.48258
1.27064
2.60048
2.81669
2.8219
2.62259
1.46077
2.36182
1.75375
3.08224
3.37762
3.41869
3.31223
2.65018
3.08229
3.41867
3.21214
3.27149
3.21513
2.90325
2.34487
2.90904
3.22909
2.76627
2.5526
2.82526
2.78488
1.99701
2.40952
1.41648
2.91538
1.97845
2.78443
1.91975
2.83043
2.34494
1.4116
1.31943
1.64553
2.07505
1.75664
1.23562
1.40936
1.26381
3.37266
3.19042
2.77453
3.12362
3.34193
3.30985
3.42737
2.86502
2.25293
2.83892
2.28356
2.71568
1.87601
1.41155
1.54815
2.06147
1.30771
2.29007
1.7524
2.70978
2.82405
2.75317
2.16528
2.65971
2.49716
1.71362
1.34737
2.84834
2.55044
3.45649
3.14064
3.30553
2.42496
2.50565
1.50089
3.30569
2.50617
1.50111
3.361
2.55063
3.1407
3.45628
2.17673
2.93172
1.96112
1.33822
1.84681
2.8755
3.42194
1.65117
2.2835
1.37242
1.27788
1.84409
1.46011
1.24081
2.61271
1.28175
1.74438
1.87917
1.8274
2.64202
1.69971
1.4655
1.87385
2.71248
1.30308
1.93043
1.50097
1.2474
2.5594
1.50666
1.59227
1.26912
1.72729
1.61657
2.46153
1.24393
2.17287
1.41934
2.26161
1.4193
2.82323
2.17282
1.38058
2.74362
2.05204
1.86486
1.23748
1.32825
1.32547
2.18916
2.08492
2.78094
1.95149
1.23862
1.35765
1.33149
3.44695
3.43654
3.5465
2.9196
1.63268
3.43649
2.74686
1.23747
1.32538
1.86469
1.3805
2.05165
2.74358
2.06698
1.39647
1.45314
2.29057
2.03465
1.23341
1.31364
1.3411
2.98801
1.81231
2.94639
3.29473
2.89519
3.30676
3.37067
3.35978
2.33286
3.33873
2.68629
3.41223
2.61014
1.48166
1.32047
1.92889
2.64814
1.62349
1.30241
1.27145
1.23279
2.57509
1.61931
1.60474
1.29404
1.29562
1.26157
1.23084
1.27148
1.23279
1.30243
1.70479
1.32048
2.64834
1.92897
1.46235
1.2285
1.22919
1.24431
1.28801
1.30071
1.23893
1.69543
1.43647
1.25849
1.6956
1.22972
1.30107
1.2585
1.24281
1.36519
2.28352
1.62111