/*--------------------------------*- C++ -*----------------------------------*\
  =========                 |
  \\      /  F ield         | OpenFOAM: The Open Source CFD Toolbox
   \\    /   O peration     | Website:  https://openfoam.org
    \\  /    A nd           | Version:  9
     \\/     M anipulation  |
\*---------------------------------------------------------------------------*/
FoamFile
{
    format      ascii;
    class       volScalarField;
    location    "0.0017";
    object      rho.air;
}
// * * * * * * * * * * * * * * * * * * * * * * * * * * * * * * * * * * * * * //

dimensions      [1 -3 0 0 0 0 0];

internalField   nonuniform List<scalar> 
14189
(
2.10005
1.2365
1.86368
2.70353
1.22577
1.23892
1.22503
1.22525
2.53379
2.69291
2.71529
2.41347
2.02441
1.95349
1.54794
1.56043
2.55403
2.09985
1.3133
1.57588
1.31326
1.24553
1.45613
2.02032
2.46263
1.27469
1.47343
1.29801
1.23863
1.46212
1.22919
1.30067
1.2285
1.28792
1.24429
1.22601
1.84384
0.51578
0.393785
1.61579
1.03912
1.1258
0.02381
0.708316
1.29405
1.81414
0.106704
0.460259
0.190849
0.187302
0.66692
0.0749802
0.313437
0.534759
1.24278
0.71447
0.93639
0.708917
0.921319
1.62686
0.740937
1.45116
0.758742
0.951972
1.00055
1.73296
2.00369
0.0356122
0.0288195
0.0438289
0.039496
0.0583152
0.0709952
0.0475979
0.101185
0.235424
0.742967
0.166854
0.64509
0.487295
0.983232
0.151428
0.0871982
0.069646
0.229927
0.110413
0.136266
0.280577
0.0564328
0.0478066
0.0364154
0.0896304
0.0773023
0.115915
0.0596847
0.462323
0.357992
0.295299
0.412046
0.596052
0.670962
0.482427
0.66339
0.585551
0.63306
0.800978
0.735534
0.815079
0.887081
0.801042
1.01464
1.79912
1.45613
0.876824
1.26267
2.44876
0.0654731
0.145405
0.0934562
0.111863
0.125232
0.170579
0.0780416
0.731099
0.662664
0.650574
0.821999
0.838642
0.90769
0.922239
2.71344
0.815538
1.36783
1.295
0.785399
1.73545
2.68154
0.244692
0.150813
0.11348
0.17259
0.422863
0.220418
0.345759
1.07898
1.95685
2.30761
1.67391
1.55636
2.92347
3.02627
0.618938
0.525043
0.435938
0.757395
0.657772
0.849562
0.566549
0.064673
0.0890158
0.136395
0.102293
0.15121
0.196211
0.136354
0.251478
0.334372
0.170458
0.204734
0.520987
0.292506
0.392986
0.137838
0.151414
0.249944
0.121895
0.172871
0.205035
0.0963156
0.812607
0.848619
0.753426
0.908132
1.11219
1.0086
0.99256
1.94578
2.64846
2.73912
0.853164
1.43883
1.08421
1.88479
0.972813
0.223684
0.723412
1.12497
0.618129
1.48105
1.077
0.200108
0.479284
0.260059
0.505979
0.278761
0.344936
0.588918
0.552437
0.919102
0.748911
0.824244
0.778344
0.993902
0.625378
0.941276
0.839531
0.830074
1.14287
1.0159
1.0309
1.16059
0.250061
0.591657
0.405926
0.542545
0.30583
0.344474
0.464131
1.10738
1.00124
0.908535
0.989852
1.3442
1.19149
1.09278
0.802447
0.73404
0.685166
0.915813
0.864637
0.943696
0.991708
0.122578
0.235829
0.181336
0.250941
0.239427
0.316136
0.181353
0.306275
0.156769
0.217751
0.273154
0.298849
0.375864
0.202997
0.619166
0.710821
0.892343
0.748412
0.942399
0.832912
1.0329
0.946999
1.16724
1.04892
1.24563
1.11401
1.22382
1.39184
1.03161
1.32937
1.05508
1.40315
1.12554
1.14824
1.44119
0.911559
0.856837
0.796107
1.17106
1.00366
1.08064
0.7094
0.563754
0.399268
0.327526
0.415802
0.746177
0.490045
0.668847
0.783108
0.917255
0.984939
0.989374
0.920966
1.1569
1.15062
1.08685
1.4739
1.40825
1.34351
1.19319
1.29372
1.20824
0.964203
0.853843
0.892796
1.04881
1.2208
1.17574
1.09408
0.474925
0.622483
0.369859
0.439833
0.819418
0.55099
0.700664
0.794304
1.03002
0.958829
1.00242
0.932834
1.17404
1.20855
0.34014
0.381416
0.341487
0.565259
0.461376
0.421616
0.263309
1.0652
1.20623
1.28971
1.22504
1.3123
1.46026
1.49149
0.300247
0.296614
0.377037
0.314437
0.394688
0.491501
0.411542
2.23351
1.22303
0.95826
1.78075
1.3593
3.41519
2.72962
1.54987
1.39796
1.2484
1.27291
1.79371
1.42768
1.59476
0.91065
1.07633
1.00334
1.07019
1.14571
1.26569
1.35083
1.36542
1.14172
1.084
1.17375
1.57728
1.47731
1.23272
0.514783
0.898586
0.854817
0.730517
0.635425
0.596245
0.777448
0.795697
1.07047
0.981556
0.992948
0.912953
1.12198
1.21435
0.473527
0.799815
0.551718
0.822476
0.569314
0.658592
0.902896
1.08992
1.27288
1.2353
1.37476
1.32553
1.50539
1.56467
0.879198
1.26215
1.0951
1.09313
0.958348
1.18529
1.35586
1.30661
1.26476
1.15478
1.33734
1.71442
1.45558
1.54845
0.590101
0.391345
0.471966
0.610151
0.690403
0.75124
0.537139
1.5312
1.49512
1.30623
1.42478
1.99216
1.659
1.66
0.988094
1.35973
1.27308
1.16014
1.23971
1.4675
1.62136
1.29547
1.75923
1.52246
1.84757
1.44933
1.63489
1.35878
1.30299
1.08258
1.08822
1.37492
1.67172
1.68411
1.36614
1.3687
1.59936
1.39592
1.88429
1.65738
1.70635
1.96974
0.442463
0.688295
0.521621
0.64215
0.7697
0.828944
0.570594
1.33069
1.77914
1.29089
1.53829
2.20035
2.13304
1.59353
1.13675
1.32477
1.1041
1.39831
1.78728
1.71909
1.44453
1.74644
1.26396
1.27117
1.51016
2.08768
1.49978
2.09828
1.57605
2.04894
1.61621
2.22822
1.78532
1.84793
2.38054
0.744019
0.879942
0.639641
0.763222
1.10405
0.886417
0.994869
0.936871
0.838784
0.688041
0.794107
1.18501
0.962336
1.02922
1.16384
1.04022
1.07376
1.26439
1.31343
1.15796
1.4191
1.17509
1.11846
1.03745
1.27784
1.56558
1.45641
1.37707
1.39659
2.0821
1.49627
2.30142
1.68308
1.81363
2.42589
1.19123
1.54409
1.2722
1.89751
1.52084
1.63534
2.05579
1.45053
1.61601
1.40695
1.72824
2.14017
2.01641
1.80872
1.38139
1.79138
1.89513
1.50859
1.58235
1.72331
2.09908
0.782779
0.892935
0.937588
1.16874
0.986843
0.942051
0.72275
1.54711
2.20629
2.031
1.94818
1.79604
1.67735
1.83743
1.73372
2.13357
1.64147
1.88775
2.6195
2.4921
2.01586
1.04904
1.68647
1.34118
1.54608
0.697236
0.600011
0.434032
0.578988
1.462
1.01645
2.10388
1.14431
1.62872
0.729962
0.624174
0.621396
0.933862
0.499843
0.434997
0.500065
0.585366
0.584979
0.657993
0.65739
0.444536
0.514388
0.435614
0.502772
0.588219
0.663072
0.678062
0.466366
0.539944
0.504542
0.582385
0.664357
0.706661
0.752325
2.31604
0.694509
1.00328
0.988535
1.85419
1.47583
2.50711
0.578486
0.673112
0.671813
0.747065
0.852748
0.855707
0.745354
0.598011
0.583597
0.679704
0.754372
0.888146
0.865614
0.772845
1.01851
0.771894
0.772524
0.856177
1.12115
1.12482
0.854237
0.55749
0.708873
0.639893
0.790731
0.720667
0.815029
0.89275
0.793754
1.02728
0.77801
0.864284
1.16565
1.13736
0.88415
0.626953
0.780989
0.673327
0.927092
0.806158
0.857803
0.986182
1.08638
0.822281
0.867451
1.21358
0.918717
0.972082
1.28739
0.788401
0.777778
0.873746
0.880399
0.971475
0.985513
1.09602
0.811214
0.849659
0.73571
0.928057
1.16706
1.01561
1.0663
1.22763
1.01324
0.931166
1.04603
1.53607
1.39364
1.14075
0.962124
1.47064
1.09158
1.26313
1.09677
1.26894
0.958654
0.97324
1.32474
1.14215
1.49556
1.11149
1.28665
0.997929
1.38862
1.19332
1.0397
1.10286
1.74949
1.48465
1.27009
0.874215
1.11836
0.988604
1.22934
1.08786
1.22941
1.39456
0.899533
1.15329
1.034
1.29058
1.12131
1.24906
1.44374
1.23895
1.11449
1.49195
1.72004
1.25889
1.40756
1.94856
1.18969
1.79184
1.91097
1.51731
1.61789
1.30215
1.37626
1.90182
1.60848
1.27683
1.29743
1.12689
1.40651
1.64011
2.46099
2.20347
1.60135
1.93004
1.39547
1.60142
2.20352
2.0053
1.70053
1.44555
1.6329
2.52361
1.93388
2.24104
2.42696
1.63395
2.2463
1.98906
2.66779
2.55403
2.20368
1.68939
1.52184
1.38151
1.793
2.47294
2.00028
2.25599
1.12532
1.49109
1.37195
1.3681
1.25337
1.535
1.67261
1.84983
2.67819
2.27907
2.44841
2.28997
1.83677
2.4525
2.5524
2.32043
2.03089
2.13821
3.20813
2.78998
2.5107
0.917019
1.2672
1.2791
1.31553
1.10606
1.06059
1.13703
1.20363
1.68538
1.48341
1.47047
1.29881
1.59961
1.82386
1.88828
2.52637
2.39824
2.68943
2.3279
2.47719
1.96316
2.76705
2.68312
2.21481
2.66412
2.47713
2.17018
1.87346
2.21599
2.88109
2.73951
3.20097
2.87651
2.63374
2.37518
2.59381
2.49251
2.07938
2.23157
2.75227
2.66729
2.59922
1.99192
1.81477
1.65166
1.88245
2.6467
2.07247
2.34144
1.54627
1.60541
1.41067
1.73536
2.2239
1.99502
1.90451
2.2491
2.12087
1.82129
1.98329
3.03761
2.32535
2.50544
0.637066
0.647849
1.1015
0.611146
1.04823
0.624528
0.384583
0.30789
0.297109
0.383193
0.295552
0.382382
0.383606
0.479206
0.479491
0.295947
0.39856
0.39869
0.384666
0.385549
0.483273
0.498915
0.487327
0.610551
0.487595
0.592582
0.724752
0.726568
0.591967
0.623686
0.492791
0.49258
0.596779
0.739324
0.59612
0.741173
0.508065
0.617717
0.491656
0.598986
0.75792
0.735646
0.617588
0.630588
0.511105
0.496409
0.602889
0.770677
0.749654
0.620729
0.720068
1.05352
0.865171
0.877954
0.868471
0.718297
0.881224
0.728823
0.906786
0.918618
1.06915
0.880352
0.892796
0.750435
0.99417
2.3407
3.13152
1.83483
0.535914
1.05652
1.40294
0.505284
0.962063
0.207917
0.698356
0.284363
0.285334
0.280675
0.361203
0.365812
0.460519
0.379534
1.25291
1.68433
3.32207
2.17966
1.33275
0.917502
1.49438
1.09111
2.69053
1.65445
2.88265
2.91697
1.91133
2.33013
0.456855
0.784938
0.778226
0.536035
0.540602
0.628714
0.866448
2.83924
2.42518
3.54598
2.75081
2.99024
1.63859
2.20434
0.609
0.390448
0.471068
0.5894
0.689455
0.750364
0.515037
0.580396
0.376203
0.457295
0.580162
0.664671
0.726667
0.505033
1.10279
1.01719
1.00588
1.2127
1.23016
1.10542
1.3426
0.762255
0.879331
0.638842
0.743434
1.10353
0.972394
0.885692
0.734811
0.862369
0.625633
0.734617
1.07835
0.961924
0.862949
1.23931
1.24286
1.30464
1.41001
1.49107
1.48461
1.70445
1.2903
1.71928
1.68218
1.43023
1.45692
1.60706
1.92605
0.732396
0.863474
1.09934
0.849609
0.898664
0.912552
0.670715
1.70709
1.93726
1.89433
2.01386
2.06114
2.23714
2.46032
0.609387
0.568845
0.740131
0.617243
0.747655
1.37001
1.08388
0.769383
0.815872
0.406323
0.26729
0.643208
0.530437
0.652052
0.272098
0.39189
0.606656
0.217719
0.218093
0.295497
0.27037
0.297377
0.355758
0.35943
0.331431
0.412179
0.336363
0.514469
0.430344
0.435884
0.520792
0.231468
0.324017
0.284354
0.355408
0.311096
0.372639
0.413357
0.508942
0.517107
0.39622
0.584372
0.460694
0.465858
0.59153
0.49418
0.60265
0.487859
0.573787
0.580678
0.695357
0.702913
0.562026
0.424099
0.459004
0.484334
0.388177
0.350101
0.448001
0.783927
0.77628
0.63649
0.683238
0.675946
0.544684
0.550856
0.648205
0.520298
0.583718
0.535808
0.458499
0.411683
0.479382
0.776098
0.781898
1.40777
1.34225
0.880046
1.87101
1.38495
0.645622
0.503955
0.53516
0.61796
0.589155
0.710232
0.737577
0.893067
0.884086
0.732741
1.00283
0.836225
0.844884
1.01483
0.666049
0.778393
0.673892
0.91195
0.796922
0.805782
0.923548
0.682247
0.825431
0.793674
0.695202
0.730676
0.59701
0.562109
0.659797
0.666719
0.657356
0.765021
0.755813
0.766386
0.874396
0.775668
0.932369
0.901807
0.852268
1.05492
0.880438
1.02371
0.710226
0.786929
0.682082
0.813471
0.962863
0.932669
0.84163
0.169651
0.116456
0.0544459
0.0371942
0.205885
0.193892
0.331692
0.231628
0.0570199
0.0515553
0.0287692
0.0879917
0.0642241
0.0685011
0.0917459
0.112436
0.165042
0.0819723
0.0776384
0.120598
0.169095
0.124396
0.0723989
0.100543
0.0799332
0.111692
0.0833341
0.107738
0.139967
0.134578
0.155105
0.104928
0.15543
0.106628
0.137422
0.196627
0.133827
0.0981538
0.130116
0.186723
0.225543
0.141762
0.17765
0.312126
0.247063
0.176571
0.317254
0.236096
0.180542
0.251333
0.153127
0.169133
0.120655
0.153993
0.250233
0.212278
0.189558
0.369606
0.252769
0.292039
0.197883
0.305989
0.267111
0.236204
0.0176627
0.475278
0.277289
0.222501
0.141866
0.434052
0.379506
0.7597
0.339934
0.573841
0.264178
0.0375672
0.0415372
0.208702
0.113269
0.545393
0.0299597
0.266552
0.35821
0.555965
0.865219
1.23629
0.766943
0.455605
0.753423
0.116286
0.168566
0.154502
0.187115
0.198941
0.215234
0.252051
0.504413
0.442248
0.84673
0.483643
0.712948
0.568959
0.883848
0.176942
0.283434
0.292198
0.230483
0.240644
0.300847
0.358126
0.0113913
0.015031
0.024826
0.0163388
0.026663
0.0379551
0.0223543
0.405437
0.241692
0.376844
0.276205
0.298137
0.337813
0.446519
0.203113
0.310608
0.242955
0.344232
0.273211
0.315775
0.391527
0.0958745
0.139739
0.0551944
0.143931
0.0581843
0.0846658
0.201119
0.215939
0.287439
0.438368
0.293786
0.452009
0.535608
0.375454
0.446029
0.559608
0.529922
0.587561
0.553386
0.640718
0.679819
0.343956
0.35125
0.339425
0.410643
0.416525
0.421787
0.49144
0.0207608
0.0526382
0.0358699
0.0550237
0.0467913
0.079906
0.0318464
0.0129783
0.367095
0.0260094
0.00532912
0.0138043
0.0294314
0.222025
0.0147192
0.0437459
0.283625
0.0826418
0.238129
0.405869
0.759524
0.205562
0.455983
0.170722
0.0619237
0.135363
0.0960462
0.190732
0.23503
0.123803
0.0105076
0.0318496
0.0234439
0.0387924
0.0168447
0.0216905
0.0510176
0.00609066
0.00774306
0.00634438
0.00685055
0.00903471
0.0111819
0.00810755
0.261611
0.193987
0.214602
0.289201
0.262645
0.316744
0.3465
0.00898326
0.00728833
0.00983525
0.0144166
0.0124681
0.0192703
0.00989149
0.0648744
0.0186318
0.0446139
0.028989
0.100633
0.0404851
0.0705997
0.157372
0.113395
0.220174
0.296495
0.222436
0.370606
0.165616
0.395956
0.323552
0.296624
0.386759
0.500501
0.467421
0.418783
0.00966728
0.0218467
0.0137612
0.0169949
0.017785
0.0269613
0.0115896
0.0271906
0.0972334
0.0619226
0.0344782
0.125415
0.0548642
0.0806494
0.141641
0.350054
0.260333
0.315935
0.257002
0.416124
0.179832
0.348539
0.381079
0.494222
0.413218
0.569549
0.529499
0.44783
0.022071
0.0185864
0.0472325
0.0223974
0.0297984
0.0350104
0.0143748
0.0457378
0.151762
0.0989728
0.166195
0.0634337
0.0723979
0.109619
0.38855
0.304848
0.582525
0.324662
0.470242
0.495907
0.234871
0.493526
0.620899
0.708436
0.660283
0.58192
0.616353
0.530145
0.368995
0.353701
0.294366
0.370622
0.518551
0.433016
0.451366
0.48724
0.427393
0.323407
0.390161
0.565215
0.450744
0.501264
0.0653277
0.0250607
0.0401396
0.0590321
0.0562198
0.0911343
0.0350899
0.482862
0.446944
0.366037
0.409693
0.621466
0.493985
0.52716
0.292474
0.0900544
0.136751
0.127787
0.373937
0.279428
0.186565
0.196817
0.118879
0.0815636
0.122186
0.352261
0.171831
0.271426
0.672049
0.38723
0.496523
0.643163
0.590602
0.47703
0.762138
0.368078
0.606211
0.520813
0.621111
0.555979
0.463889
0.708663
0.084306
0.0798526
0.171108
0.0736612
0.119132
0.126174
0.0505282
0.716436
0.671815
0.801414
0.761486
0.979056
0.818272
0.895739
0.651425
0.705993
0.616669
0.728842
0.891024
0.820235
0.780034
0.419186
0.59206
0.581154
0.490459
0.501269
0.576132
0.673684
0.554267
0.636933
0.628707
0.511192
0.517661
0.59157
0.717777
0.407953
0.568406
0.564938
0.483704
0.488301
0.56847
0.65539
0.00301438
0.0307768
0.0419912
0.00620283
0.176858
0.132542
0.0763673
0.169931
0.00345225
0.00945835
0.0105752
0.0258786
0.0260374
0.0359914
0.0353242
0.0138597
0.0226436
0.0142244
0.0441566
0.0307375
0.0403231
0.0514638
0.0612963
0.029521
0.0622371
0.0596576
0.0896153
0.0883741
0.0605871
0.0803566
0.132313
0.140595
0.0765791
0.12881
0.123452
0.0790992
0.0667278
0.0340646
0.0611445
0.0600255
0.0942534
0.087968
0.0673021
0.0856365
0.0762036
0.126594
0.0769187
0.130117
0.121287
0.0863545
0.090732
0.124257
0.166615
0.134643
0.131388
0.121896
0.092292
0.0908816
0.130082
0.141591
0.166259
0.131173
0.121616
0.0993238
0.101373
0.0978928
0.319582
0.544166
0.235169
0.312988
0.441905
0.242099
0.0992999
0.149866
0.131252
0.128967
0.148208
0.187831
0.190324
0.0968001
0.151675
0.134877
0.12825
0.147094
0.1868
0.193718
0.371007
0.31412
0.371816
0.220331
0.269198
0.219136
0.268158
0.305976
0.174121
0.228441
0.225569
0.170823
0.239783
0.304441
0.381449
0.31289
0.372218
0.223037
0.217903
0.267788
0.275415
0.178409
0.224931
0.169845
0.238909
0.315248
0.304548
0.24772
0.442295
0.330735
0.52585
0.525723
0.404987
0.329628
0.404129
0.456057
0.444462
0.529967
0.330293
0.418131
0.406114
0.340072
0.466472
0.624783
0.654591
0.684543
0.531512
0.55477
0.585781
0.177609
0.460141
0.315571
0.44699
0.238495
0.360715
0.247209
0.852886
1.10225
1.09758
1.05008
0.949519
0.929025
0.993847
0.731352
0.681809
0.94037
0.660664
0.569938
0.819976
0.851608
0.703385
0.732793
0.603516
0.684065
0.948112
0.792841
0.822532
0.587726
0.810882
0.674713
0.674779
0.920642
0.770748
0.810951
0.666879
0.657408
0.765117
0.65991
0.874479
0.766535
0.755862
0.951213
1.13807
1.29504
0.962808
1.32057
1.10049
1.15517
0.92729
0.883809
1.0518
1.06765
0.896565
1.01908
1.21079
0.893372
1.04956
0.920699
1.04816
0.893531
1.01711
1.19157
0.759521
0.868198
1.0173
1.00216
0.880088
1.00213
1.15532
1.05183
1.21081
1.01913
0.776203
1.06773
0.896685
0.927385
0.971305
1.19818
1.33257
1.1435
1.11107
1.00116
1.16497
0.379984
1.38216
2.20449
0.854039
0.736971
0.68107
1.15604
0.632239
0.758709
0.885953
1.4849
0.487714
0.866754
0.157373
0.62802
0.148411
0.0447165
0.611261
0.347303
0.391631
0.432992
0.34015
0.430232
0.480956
0.532772
0.586214
1.92624
1.10563
0.849537
0.821717
0.547696
1.30252
0.867614
0.716443
0.984555
1.66048
2.55726
1.24305
0.893504
1.40773
0.0773565
0.0696983
0.0677474
0.114593
0.112344
0.160281
0.103118
1.27863
1.47807
2.46088
1.39524
0.887886
1.49912
0.940055
0.525795
0.555907
0.455393
0.617332
0.544905
0.654616
0.733846
0.168467
0.438655
0.434431
0.232939
0.2301
0.302967
0.525542
0.601374
0.675794
0.544067
0.798871
0.654169
0.711278
0.862125
0.542677
0.733019
0.592898
0.808706
0.655552
0.709777
0.866926
0.225845
0.106858
0.164341
0.219677
0.213747
0.290247
0.151452
0.101808
0.216507
0.158872
0.216667
0.206386
0.282878
0.148544
0.694846
0.646754
0.639717
0.798299
0.787301
0.734229
0.890989
0.800014
1.01351
0.994635
0.918548
0.902644
1.02679
1.14877
0.602031
0.697774
0.686311
0.788654
0.811377
0.82383
0.927324
0.91256
0.817168
0.674494
0.785883
1.04816
0.874644
0.946115
0.734504
0.802157
0.658068
0.780978
1.04009
0.86627
0.944673
0.388234
0.532893
0.307661
0.381463
0.70785
0.616984
0.46306
0.377948
0.523
0.301302
0.378149
0.695596
0.455298
0.611466
0.899443
1.04624
1.0272
1.04336
1.0626
1.20581
1.23013
0.284733
0.460972
0.28592
0.280873
0.36141
0.366428
0.208247
0.952897
0.963372
0.789864
0.85022
1.23725
1.02257
1.03072
1.03045
0.746526
0.909806
0.933137
0.831199
1.00278
1.12637
0.730037
0.988424
0.884596
0.912477
0.821869
0.988505
1.09484
0.782096
1.01721
0.8937
1.04972
0.920926
1.04833
1.19168
0.909327
1.08909
1.05589
1.10724
1.07437
1.24562
1.28192
1.20715
1.18269
1.05407
1.16658
1.54139
1.32978
1.32553
1.02313
1.15207
0.963524
1.16851
0.977631
1.09768
1.31128
0.457263
0.629115
0.785449
0.778399
0.536239
0.698736
0.541209
1.14543
1.13719
1.01738
1.14546
1.47832
1.27826
1.30255
0.82203
1.10083
0.923266
1.15387
0.965715
1.08212
1.28993
1.23977
1.51898
1.26478
1.68991
1.42351
1.46365
1.76049
1.1943
1.43499
1.21837
1.62125
1.39532
1.43509
1.68924
0.930255
1.34631
1.22994
1.23234
1.0277
1.11536
1.12069
1.23937
1.45592
1.66633
1.21994
1.04194
1.18305
1.38629
1.57972
1.39106
1.18408
1.02533
1.20345
1.16424
1.36416
1.20148
1.38496
1.60533
1.34248
1.16525
1.01166
1.16524
1.01755
1.00601
0.91778
1.10296
1.34273
1.21278
1.2304
1.3686
1.36818
1.14292
1.2796
1.89111
1.53584
1.53895
1.09135
1.49128
1.30487
1.23946
1.70449
1.41009
1.48469
1.18309
1.23941
1.04205
1.22002
1.66621
1.3863
1.45587
1.3148
1.53599
1.58423
1.48257
1.86616
1.52724
1.7928
1.27107
1.45535
1.2345
1.45545
1.78639
1.72136
1.49919
1.29038
1.7195
1.60717
1.68224
1.43027
1.49447
1.45707
0.868433
1.23585
1.20719
1.22094
1.08451
1.01725
1.0311
1.12491
1.53467
1.37167
1.36777
1.22275
1.49092
1.67236
1.4687
1.09896
1.2078
1.334
1.20771
1.46865
1.62185
2.01406
2.23755
1.89448
1.93775
1.63883
1.70737
2.06174
2.04377
1.75104
1.44547
2.20364
1.75715
2.05411
2.55761
2.37675
1.58862
2.02323
2.39212
1.84406
2.1597
2.67797
1.66247
1.6239
1.42739
2.06365
1.73048
2.00396
2.41435
1.80584
2.08494
1.73909
2.26597
2.13587
2.62555
2.77844
2.34543
1.59395
1.94916
1.62002
1.90618
1.56582
1.35314
2.77874
2.62612
2.08514
1.73936
2.26642
1.80603
2.13646
1.44547
2.20311
2.05389
2.04348
1.65439
1.75083
1.75699
1.88208
1.99149
1.65139
1.81458
2.64603
2.23312
2.07218
1.90387
1.59196
1.7804
1.78035
2.51083
2.17954
1.99074
1.50759
1.4886
1.34236
1.63452
2.07313
1.81621
1.84535
2.32093
3.20544
2.56084
3.24145
2.69495
3.06595
3.54082
2.4272
2.62219
2.20922
3.10001
2.62193
2.98993
3.46822
2.4081
2.76504
2.7339
2.77964
2.7308
2.57861
2.70082
2.75532
1.93403
2.42903
2.4423
2.88702
2.76105
2.79886
2.73011
2.62302
2.19852
2.54614
2.86465
2.80619
2.84214
2.24427
2.86171
2.72192
2.59158
2.82199
2.83876
2.84553
2.17558
3.14856
2.91004
3.29153
2.58673
2.42509
2.81642
3.29088
2.84837
2.73187
3.22241
3.07529
3.13001
3.45013
2.01118
3.02137
2.67088
2.95094
2.54467
2.27069
2.32134
3.1224
3.17722
2.58858
3.17698
3.15722
3.12234
3.45235
0.789961
3.13018
1.23577
1.10409
0.757233
1.55555
1.33947
1.26669
2.65656
1.45963
2.58213
0.90204
1.65698
1.41043
2.71979
1.85588
2.78122
2.27554
0.766527
0.926715
0.899422
0.976351
0.947046
1.10197
1.13676
0.755424
0.883682
0.887114
0.930677
0.934198
1.08526
1.0796
0.833759
0.974791
1.02859
1.04799
1.10881
1.19636
1.28624
2.11438
2.64011
2.53203
2.83864
1.84431
2.85718
1.90941
1.97235
1.77213
2.69575
3.58629
3.28061
3.16108
3.01498
0.993098
1.26709
1.14586
1.35254
1.21696
1.40786
1.56433
1.27478
1.04588
1.05132
1.28707
1.57173
1.2787
1.58341
1.21542
1.49689
1.17656
1.36992
1.86044
1.78127
1.41825
1.10047
1.29649
1.06736
1.30955
1.68085
1.61612
1.35406
1.46898
1.15237
1.15836
1.34601
1.72839
1.74173
1.33733
1.39358
1.41445
1.52021
1.59709
1.73455
1.76785
2.03846
1.28245
1.81002
1.38423
1.98905
1.50003
1.62464
2.16734
1.15673
1.5158
1.24103
1.78834
1.42842
1.53979
1.94753
1.60848
2.12233
2.71872
2.66416
2.77988
2.02553
2.78362
2.81942
1.27682
1.47585
1.40645
1.29738
1.1268
1.64015
1.90191
1.66092
1.49831
1.35443
1.69432
2.4055
1.90331
2.16059
2.02085
1.71239
1.5247
1.80105
2.57496
2.03426
2.37261
1.84705
2.02231
2.14795
2.15651
2.30177
2.46236
2.73243
1.62397
2.06202
2.58439
2.15047
2.16504
1.61131
2.07816
1.6595
2.29713
2.21986
2.60872
2.2113
2.12752
1.72984
1.58883
2.15962
1.83476
2.39239
2.0234
2.37648
2.67785
1.88255
2.38909
2.24096
2.56122
2.40773
2.88932
2.93494
2.67004
2.39434
1.81525
1.74088
1.51533
1.9662
2.29237
2.76712
2.68325
2.47717
2.17022
1.87344
2.21497
2.50724
2.6035
2.2409
1.70686
1.88171
1.46339
1.7069
2.24098
2.4179
2.349
1.84531
2.01475
2.77756
2.55635
2.50153
1.68084
2.42187
1.92252
2.63264
2.17467
2.48071
2.7895
1.96181
2.73957
2.27655
2.73271
2.3185
2.59067
2.81712
1.3844
2.80486
2.76091
2.90415
1.42753
2.29899
1.34226
2.8852
1.61995
1.16429
1.18412
1.0254
1.20356
1.36421
1.39112
1.57972
2.88686
2.74101
2.98823
1.22607
1.32822
2.93038
1.62369
1.86974
1.96359
1.63031
1.56559
1.37917
1.63034
1.86973
1.90612
1.56581
1.35314
1.94898
1.59392
1.87094
2.34526
1.73067
2.00394
1.62394
2.06386
1.66257
1.91132
2.4143
2.23502
2.80685
2.76814
2.77832
2.47133
2.6844
2.65054
2.32182
3.06688
2.56198
3.24239
2.84062
3.20692
3.54151
2.66181
3.50666
2.95756
3.51199
3.04605
3.37067
3.60825
2.88698
2.75519
2.79871
2.44205
2.42873
1.9339
2.32995
2.86988
2.76708
2.52221
2.74099
2.46348
1.98779
2.32853
2.72962
2.72957
2.31677
2.70699
2.27269
1.85146
2.27262
2.32858
2.46342
1.98771
2.52203
2.76714
2.86983
2.90418
2.44788
2.8086
2.86244
2.49991
2.82265
2.04847
2.6218
2.72001
2.75967
2.57547
2.76278
2.75967
2.487
2.72006
2.59131
2.69021
2.2438
2.72166
2.82218
2.8454
2.86164
2.85821
2.81512
2.59285
2.77407
2.57669
2.79836
2.85255
2.77226
2.82828
2.46691
2.75036
2.77477
2.56278
2.74001
2.84886
3.22306
2.73294
3.29177
3.0751
3.45048
3.13171
3.00444
3.36224
3.06149
3.34885
2.65507
3.32182
3.10369
2.83468
2.81531
2.67467
2.80235
2.26976
2.75991
2.82503
0.189653
0.189782
0.238448
0.35067
0.543916
0.266929
0.341911
0.47606
0.199247
0.188595
0.18094
0.26728
0.257629
0.253386
0.261936
0.183668
0.186668
0.177251
0.260621
0.252596
0.249225
0.259671
0.229145
0.305955
0.192153
0.226063
0.186949
0.261159
0.303878
0.34915
0.443211
0.447157
0.454865
0.458873
0.351089
0.344229
0.197589
0.226036
0.185746
0.259428
0.318799
0.30467
0.272504
0.339325
0.462344
0.44471
0.471553
0.45533
0.34129
0.354399
0.479328
0.362012
0.522355
0.523438
0.403463
0.357328
0.402045
0.49292
0.420154
0.526507
0.47714
0.40446
0.35612
0.370622
1.22312
0.613701
1.37066
0.691662
0.589966
0.665251
1.16376
1.29913
0.57013
0.571568
0.592332
0.729698
0.730255
0.755071
0.755739
0.598393
0.593392
0.575134
0.765817
0.738395
0.761462
0.785827
0.618126
0.620146
0.665406
0.78654
0.83294
0.787042
0.834243
0.640357
0.671516
0.621754
0.793031
0.868005
0.843439
0.815764
0.924963
1.16837
0.927321
0.956006
1.20019
1.20415
0.954636
0.97043
1.18455
0.938828
0.966216
1.25801
1.21975
0.995894
0.988228
1.30532
1.03545
1.23526
1.23944
0.986737
1.03885
0.998586
1.29417
1.08373
1.32554
1.2556
1.05218
1.0274
3.50408
3.47342
3.13749
3.48912
3.42816
3.59623
3.59596
2.79329
2.72229
2.88594
2.21041
2.82762
2.885
2.80486
2.69071
2.98821
2.85783
1.98152
2.78021
2.90373
2.78024
2.60722
2.85172
2.70756
1.80204
2.51848
2.8079
2.87646
3.54343
3.55032
3.38218
3.59075
3.18802
3.53104
3.58382
2.2106
2.82764
2.88679
2.79339
2.8859
2.88497
2.72219
2.51185
2.97409
2.89557
2.89713
2.59423
1.78452
2.72722
2.40872
2.76496
1.99657
1.41627
1.91182
2.55165
2.82282
2.7088
1.46025
2.02773
2.77979
1.78995
1.28077
1.92841
1.51068
1.22924
2.06692
1.25441
2.62981
2.7662
2.14856
2.42717
1.67225
1.83873
2.06063
2.47917
1.40369
1.90713
1.28698
2.58992
1.61547
2.34774
2.38868
1.56558
2.50538
1.25284
2.71666
2.71395
1.27062
2.69294
1.22601
1.40787
1.57326
1.57933
1.99986
2.0005
2.17118
2.17046
1.69793
1.5899
2.78583
1.25475
2.75486
2.78792
1.28904
1.42379
1.64682
1.60051
2.05049
2.01428
2.1868
2.22635
1.62479
2.58327
2.73536
0.671191
1.08477
1.34473
1.70141
1.52217
1.72353
1.83473
2.1132
2.20244
2.29158
2.37761
2.66374
1.8034
2.77694
1.22629
1.24209
2.40419
2.31667
2.06706
1.79744
1.80475
2.35406
2.51978
2.51731
2.35408
1.74422
2.14065
1.97491
2.43411
2.31322
2.4765
2.56843
0.732834
0.849802
0.864064
0.898849
0.913122
1.09966
1.05683
1.88433
2.09319
1.83073
2.36901
2.55191
2.52724
2.40598
3.28459
3.31628
2.85252
2.54498
1.34252
2.02788
3.43337
0.868794
1.22106
1.23621
1.01741
1.03159
1.20748
1.40317
2.46864
2.44813
2.44445
2.51854
2.38678
2.37075
2.52369
2.08308
2.23519
1.96803
2.58665
2.46473
2.53251
2.61951
1.60152
2.13079
2.05487
2.07089
2.14544
2.58464
2.58192
2.79818
1.91244
2.44745
1.22506
1.39466
1.49598
2.50721
2.46575
2.45138
2.44867
2.51969
2.29521
2.34117
2.53034
2.32605
2.0917
2.29579
2.54978
2.6278
2.63215
2.6559
1.63391
2.27487
2.20972
2.11941
2.19115
2.60822
2.65389
2.87647
2.72714
2.80612
1.49481
2.60712
1.22506
1.40344
1.32265
1.04867
1.09132
1.32279
1.56318
1.60783
1.28091
1.2254
2.62527
2.40652
1.75222
2.69269
1.40046
1.22501
2.3861
2.47258
2.2263
2.59486
2.62522
2.63761
2.63768
2.49508
2.3245
2.5299
2.2169
2.54752
2.5614
2.09366
1.08176
1.38705
1.12503
1.34356
1.61976
1.66416
1.30143
1.95844
2.39123
2.33653
2.48574
2.52418
2.71505
2.77494
1.63463
1.48868
1.50783
1.81627
1.84554
1.68449
2.07326
2.74657
1.2273
1.75725
3.35949
3.138
3.55151
2.29181
1.42787
1.39374
1.19881
1.428
1.93963
1.72137
1.62491
1.43161
1.49569
1.23372
1.44997
2.01442
1.78216
1.64976
2.57269
2.21091
2.55988
2.55913
1.71359
1.92079
2.51963
2.55979
1.81073
2.54573
2.18152
2.53293
2.15622
2.56707
2.64357
2.64357
2.49332
2.6168
2.65802
2.61682
2.43679
2.16539
2.76639
2.76081
2.63578
2.65687
2.81484
2.80974
2.44778
2.49964
2.04832
2.80856
2.62167
2.82256
2.86246
2.55498
2.48511
2.02529
1.75527
2.51401
2.10591
2.55264
2.65589
2.67603
2.5399
2.54715
2.64756
2.59837
2.33485
2.62326
2.54606
2.19884
2.7303
2.84206
2.91704
2.86458
2.43255
1.90921
2.54664
2.52306
1.44721
2.33707
1.76104
2.74239
2.63234
2.63195
2.77674
2.52041
2.78505
2.48387
2.56152
2.78066
2.56536
2.78148
2.67368
2.64464
2.7881
2.52816
2.00317
1.95093
1.62141
1.99162
2.04442
1.57698
2.68599
2.72904
2.64931
2.7734
2.28958
2.4124
2.77023
2.30918
2.87782
2.40277
1.67289
2.05543
1.9285
2.40287
2.64229
2.7817
2.59177
2.78291
2.50615
2.59439
2.78774
2.0113
2.9511
3.02182
2.27076
2.32159
2.67107
3.32217
1.71956
2.55917
2.12806
2.41116
1.96031
2.45406
2.97056
2.54711
1.54448
2.43734
1.50296
2.40277
2.16229
1.34625
2.7851
2.83306
2.83587
2.83228
2.84433
2.70962
2.4156
2.71391
2.81643
1.20025
2.14103
2.57216
2.83949
2.2921
2.73989
1.34094
1.51144
1.41232
1.58708
1.7085
1.8227
2.08216
1.74076
1.96597
1.51528
2.12201
1.815
2.39387
2.66981
2.3051
2.04185
2.59252
2.74759
2.43601
2.63871
2.77511
1.70214
2.44065
1.94121
2.66263
2.25855
2.5296
2.79524
2.59242
2.69544
2.25485
2.73438
2.80836
2.84355
2.85618
2.7504
2.77466
2.56251
2.77206
2.46754
2.82824
2.7189
2.14939
2.43363
2.98291
1.73611
2.48719
2.19542
1.95754
2.73471
2.56733
2.7778
2.1022
2.75176
2.69332
1.84866
2.70969
2.72792
2.77498
2.34177
2.78129
2.73878
2.08482
2.7766
1.99996
2.42346
2.63142
2.74917
2.71776
2.80502
2.45803
1.42962
1.92056
1.35047
2.16491
1.59378
2.3211
2.53397
2.70354
2.71526
2.41364
1.5482
1.95397
2.02457
3.48954
3.47353
3.50439
3.5963
3.59614
3.54601
3.42807
1.22501
1.7046
1.23904
1.225
1.225
1.25904
1.22501
1.88183
1.24014
1.22501
1.22501
1.25889
1.225
1.225
2.88466
2.88465
2.76858
2.86427
2.69008
2.69017
1.99954
2.85088
2.87709
2.80761
2.71781
2.88524
2.63904
1.80937
2.88259
2.70779
2.80778
2.51911
2.85173
2.60738
1.80257
2.97405
2.89706
2.89566
2.51144
2.93028
2.59411
1.78438
2.03605
2.36752
2.79715
2.55824
1.37616
1.58032
2.27103
1.35663
1.81462
2.19029
1.81471
1.24022
1.4825
1.27063
2.59927
2.81451
2.81852
2.62129
1.46072
2.36121
1.75357
3.07509
3.37552
3.41435
3.30474
2.63935
3.07514
3.41433
3.20851
3.26974
3.21186
2.89719
2.33414
2.9025
3.22561
2.76512
2.55188
2.82278
2.78365
1.99679
2.40909
1.41646
2.91324
1.97827
2.78339
1.91958
2.82941
2.34458
1.41157
1.3194
1.64534
2.07439
1.75639
1.23561
1.40931
1.2638
3.36571
3.18403
2.76422
3.11672
3.3401
3.30616
3.42325
2.86262
2.25261
2.83759
2.28322
2.71474
1.87585
1.41152
1.54808
2.06124
1.3077
2.28962
1.75227
2.7088
2.82208
2.75218
2.16501
2.6589
2.49658
1.71352
1.34735
2.84637
2.54998
3.45342
3.13917
3.3042
2.42458
2.50525
1.50084
3.30436
2.50577
1.50107
3.35952
2.55018
3.13923
3.4532
2.17646
2.93074
1.96094
1.3382
1.84667
2.87476
3.41956
1.65105
2.28306
1.37239
1.27787
1.8439
1.46007
1.24081
2.61095
1.28173
1.74414
1.87885
1.82711
2.6402
1.69949
1.46545
1.87366
2.71127
1.30307
1.93021
1.50091
1.2474
2.55783
1.50655
1.59212
1.26911
1.72706
1.6164
2.46029
1.24393
2.17265
1.41932
2.26136
1.41928
2.82233
2.17261
1.38057
2.74287
2.05187
1.86474
1.23748
1.32824
1.32546
2.18894
2.08473
2.7801
1.95134
1.23862
1.35763
1.33148
3.4452
3.43452
3.54232
2.9189
1.63261
3.43447
2.74631
1.23747
1.32537
1.86457
1.38048
2.05148
2.74284
2.0668
1.39641
1.45306
2.28975
2.03422
1.23341
1.31362
1.34107
2.98726
1.8122
2.94569
3.29076
2.89453
3.30489