/*--------------------------------*- C++ -*----------------------------------*\
  =========                 |
  \\      /  F ield         | OpenFOAM: The Open Source CFD Toolbox
   \\    /   O peration     | Website:  https://openfoam.org
    \\  /    A nd           | Version:  9
     \\/     M anipulation  |
\*---------------------------------------------------------------------------*/
FoamFile
{
    format      ascii;
    class       volScalarField;
    location    "0.0017";
    object      T;
}
// * * * * * * * * * * * * * * * * * * * * * * * * * * * * * * * * * * * * * //

dimensions      [0 0 0 1 0 0 0];

internalField   nonuniform List<scalar> 
14189
(
413.27
289.346
380.805
540.59
288.008
289.636
287.929
287.952
480.292
532.677
584.134
458.507
402.166
392.583
336.415
338.969
485.059
413.233
300.826
340.394
300.819
290.645
323.063
402.217
465.773
294.799
325.454
298.362
289.633
323.194
288.402
298.608
288.325
296.762
290.421
288.035
723.7
987.625
777.503
814.602
869.109
824.989
694.896
854.649
888.787
715.204
814.625
825.559
698.865
838.021
917.54
741.511
741.614
761.581
891.442
812.34
912.683
816.698
864.68
848.711
830.934
794.093
841.847
877.128
845.097
833.928
724.264
709.62
707.291
718.543
737.56
745.398
751.193
744.773
755.3
854.845
957.391
804.002
914.367
968.327
1071.49
689.585
703.763
697.365
722.761
727.168
734.809
736.687
729.436
733.498
720.313
759.707
765.061
771.327
753.899
736.539
719.305
700.434
746.299
785.05
808.111
769.457
796.603
768.173
782.217
836.457
819.092
841.368
859.017
831.836
933.74
826.331
828.208
903.134
999.408
807.283
775.489
815.454
778.757
784.101
818.748
821.369
780.534
821.681
801.705
791.472
844.927
853.812
866.242
871.568
608.48
797.607
747.315
745.657
793.621
723.818
629.878
715.437
728.98
714.003
747.419
793.395
766.641
760.31
875.26
806.345
701.098
741.8
822.272
767.788
604.283
791.631
782.644
748.289
829.803
828.494
842.994
799.081
747.481
763.39
771.808
778.566
786.654
806.735
795.077
806.802
766.934
762.325
772.487
849.226
821.287
787.011
793.21
826.394
849.187
799.468
806.466
832.619
788.488
844.195
846.922
826.843
858.93
879.224
863.245
876.461
717.159
503.018
590.961
799.162
739.798
779.506
699.896
1093.03
832.64
958.48
1235.48
1041.86
1139.7
1103.46
750.112
820.817
779.05
834.318
794.01
829.651
879.545
799.925
863.948
831.022
845.072
871.691
868.382
821.963
872.469
861.057
853.345
882.484
882.087
883.075
878.374
789.457
880.808
873.459
853.554
814.88
843.291
816.305
879.515
878.366
860.74
870.079
884.949
876.123
886.164
846.976
834.836
817.751
857.198
862.67
871.298
852.853
781.762
819.828
792.692
833.063
843.541
866.785
816.357
872.124
814.229
825.215
850.113
879.394
903.066
833.001
815.456
844.79
840.165
855.518
849.009
884.008
852.949
852.385
860.689
846.681
868.064
855.303
842.673
848.835
883.667
875.438
884.614
878.875
888.992
884.654
860.653
854.767
891.529
870.297
872.625
859.2
870.479
846.452
868.074
858.698
815.697
871.36
967.686
918.462
924.627
790.908
788.226
780.377
783.577
791.469
766.802
763.692
871.508
870.119
853.209
872.096
862.428
866.431
885.15
871.016
864.124
852.98
871.977
815.572
857.443
839.448
910.908
895.279
848.165
888.452
997.303
954.384
938.6
795.978
785.823
793.825
785.693
793.604
768.336
767.128
882.276
915.164
894.554
999.588
944.54
924.144
858.562
874.762
863.721
868.093
859.597
858.758
844.764
830.893
854.913
869.511
898.91
879.579
909.274
963.036
928.949
818.413
1023.85
928.843
1039.5
1020.8
838.645
816.15
859.978
867.885
884.894
874.656
807.504
852.127
837.008
798.389
782.957
791.262
784.043
775.457
761.508
750.87
843.853
841.208
874.755
865.417
773.084
823.233
823.919
933.872
1035.34
1021.47
1055.23
1002.79
984.032
980.545
875.481
857.456
846.525
934.616
910.054
861.965
874.26
907.267
1003.87
961.163
1011.12
970.543
1026.56
1055.19
860.659
798.186
838.466
785.905
830.804
799.226
755.821
896.02
878.025
861.704
955.067
920.057
868.846
886.091
845.276
831.495
837.076
833.946
812.501
833.578
828.183
1021.15
918.58
953.425
1031.03
1089.32
1112.32
999.001
843.056
850.7
848.464
838.087
810.367
839.656
827.855
792.273
746.22
753.992
771.357
762.868
736.448
720.672
846.108
748.659
769.298
765.898
817.267
795.642
798.878
748.551
771.423
774.74
742.432
715.767
717.972
739.705
844.707
808.927
835.91
794.959
818.569
800.988
773.568
945.33
1069.06
978.155
1046.61
1127.32
1144.96
1016.81
754.823
726.021
756.105
735.27
698.873
703.769
733.649
775.214
749.566
776.37
743.356
716.999
718.811
741.232
725.557
751.99
754.776
734.253
704.344
731.812
704.987
841.896
777.906
821.977
783.333
813.501
790.77
753.699
1078.41
1050.66
1019.01
1084.61
1127.29
1143.85
1095.11
1062.09
1110.44
1038.17
1094.93
1130.42
1163.35
1098.54
871.664
957.548
961.33
888.167
888.786
992.513
908.604
976.422
967.666
943.275
878.994
910.296
896.56
891.562
749.51
706.446
740.214
689.447
728.044
719.008
675.836
769.467
727.428
758.302
711.539
734.561
724.164
703.173
769.436
780.58
810.282
768.312
708.863
741.516
729.213
832.977
809.274
806.589
840.156
839.43
848.374
808.843
1126.09
1190.44
1201.89
1233.67
1208.01
1198.62
1105.49
835.809
804.536
804.744
848.287
842.344
840.044
811.112
740.47
739.221
784.554
754.056
675.68
716.038
716.88
764.78
727.54
754.102
742.203
784.343
731.519
677.266
750.86
739.462
755.726
702.539
766.869
737.317
790.281
741.641
771.832
796.239
714.353
677.02
713.828
724.087
725.572
756.55
754.681
680.93
719.06
677.988
715.566
727.972
758.987
762.304
692.495
730.829
714.762
751.396
758.658
770.522
782.325
685.505
791.592
786.178
787.181
709.245
722.634
676.47
749.739
779.326
777.402
779.151
785.535
788.476
776.721
756.109
752.664
781.562
781.704
792.369
790.946
784.261
759.221
754.144
757.044
773.582
757.973
761.211
770.495
743.947
792.747
774.849
791.377
777.649
792.423
795.309
763.99
762.617
760.562
776.616
764.681
763.809
779.005
765.775
797.459
780.764
793.08
788.929
793.619
790.894
766.819
770.55
778.901
763.786
782.4
784.503
759.482
800.623
800.407
795.684
798.219
790.337
789.504
776.413
801.068
800.791
794.774
794.187
770.344
787.644
783.554
762.845
783.855
784.708
782.078
739.783
751.374
773.193
778.632
741.904
768.44
751.504
771.507
754.39
775.468
781.19
756.277
773.164
743.261
773.447
756.347
782.302
753.21
769.578
781.932
777.991
728.52
746.158
761.473
798.413
769.33
787.079
758.276
777.094
758.19
737.088
797.737
766.147
783.974
752.718
774.405
756.481
733.097
760.417
775.238
741.827
726.089
758.781
741.485
711.1
769.039
722.799
716.797
734.785
735.676
755.324
749.262
698.895
716.052
747.06
745.022
768.552
736.102
714.29
672.692
693.919
724.578
712
742.342
724.526
693.904
708.274
720.046
738.987
723.044
665.151
706.222
691.29
675.364
728.22
692.354
708.081
636.764
658.481
695.845
712.974
724.665
742.717
712.185
679.347
700.566
692.67
991.262
934.466
909.813
1044.58
1022.93
931.863
951.336
714.943
627.224
693.599
675.594
693.788
713.242
674.639
770.035
773.587
789.165
763.652
723.463
736.635
744.676
1152.2
1149.66
1208.29
1146.05
1201.01
1197.82
1128.61
995.154
927.008
908.59
1036.73
1021.88
929.114
941.69
715.362
662.528
686.206
620.54
691.959
670.846
713.134
603.614
639.124
693.017
644.292
670.865
694.933
708.466
729.94
645.143
673.657
665.451
692.847
710.965
697.11
649.19
675.599
706.964
696.932
568.211
631.418
660.53
811.493
864.35
850.275
861.819
831.346
878.528
816.503
1051.96
1045.01
1041.19
946.876
951.289
950.222
956.616
807.145
859.076
847.482
859.624
831.91
874.244
815.223
805.372
782.536
780.375
800.839
777.015
777.713
695.204
658.948
657.27
702.463
656.085
701.342
694.227
741.312
741.466
654.536
698.142
705.241
700.444
693.561
741.798
746.307
752.698
800.071
753.169
784.611
810.222
812.593
783.494
776.198
739.836
739.891
777.515
793.845
776.199
796.414
757.351
801.895
752.806
786.084
816.292
814.493
789.63
779.613
744.582
740.636
779.217
800.392
798.659
782.462
800.629
780.299
800.429
793.706
803.588
798.142
796.922
802.77
805.527
799.217
781.793
805.487
799.01
804.629
1095.14
816.472
618.537
694.598
998.733
1236.56
1154.64
982.066
1092.06
820.705
948.935
841.685
863.097
859.915
888.609
891.98
947.774
912.568
1022.96
1054.86
858.142
819.834
911.623
923.954
818.709
796.743
658.912
701.72
587.155
617.773
689.294
674.641
894.945
999.369
997.263
951.936
954.911
1014.62
1048.14
776.471
447.789
772.03
689.383
742.083
808.477
708.343
1030.76
918.419
953.227
1020.97
1089.13
1112.12
987.432
1016.36
910.66
946.002
1016.3
1075.91
1101.12
982.001
871.038
955.733
955.016
889.245
888.719
990.826
911.107
1084.46
1050.63
1018.83
1078.3
1127.34
1093.02
1143.79
1075.48
1047.35
1013.29
1075.44
1126.39
1092.06
1137.2
757.771
773.848
765.352
733.514
739.38
725.121
703.141
834.636
811.889
813.414
842.732
841.659
852.049
813.777
1103.85
1181.15
1236.67
1176.01
1186.71
1190.96
1079.35
793.776
788.196
790.633
767.848
764.813
779.064
747.446
802.321
798.081
841.899
814.806
848.735
780.693
853.411
833.422
839.823
703.067
639.256
811.404
778.929
823.313
649.791
700
794.793
622.066
626.449
662.805
647.331
667.442
682.798
690.212
667.322
715.377
678.091
751.734
713.741
724.076
763.999
634.459
678.063
659.241
690.451
674.053
701.369
721.389
740.938
749.179
705.564
771.392
724.949
732.947
780.696
755.264
789.258
741.939
779.54
793.094
819.73
831.982
796.786
731.321
754.417
760.1
714.954
692.7
738.48
851.85
842.209
799.512
819.735
809.441
760.781
771.455
813.721
768.054
788.628
763.337
736.799
714.607
745.551
803.549
823.149
726.551
742.119
817.359
686.08
728.692
823.906
771.005
790.401
817.77
806.4
840.183
838.701
868.357
861.055
830.682
865.138
849.672
858.707
869.042
810.879
843.941
823.499
849.926
840.089
850.195
856.973
830.75
849.164
857.041
831.041
837.9
803.576
785.811
805.075
816.689
814.923
821.882
808.672
809.551
802.812
843.894
845.279
866.021
859.513
829.951
843.594
859.691
834.317
848.443
832.85
853.23
834.229
854.606
841.571
575.063
521.458
455.464
435.285
611.062
591.428
683.707
604.88
457.822
462.537
440.133
499.123
487.507
482.693
501.828
512.232
557.35
485.117
482.035
522.816
569.85
532.161
473.193
510.892
494.107
532.12
498.343
519.934
553.352
542.682
576.157
530.123
580.138
530.978
550.477
600.312
542.971
504.196
540.039
589.765
618.437
553.021
583.263
654.172
618.738
569.559
666.933
617.854
581.775
630.443
571.886
591.257
545.161
568.691
636.546
614.843
594.903
709.391
636.04
663.714
600.423
670.592
646.794
626.467
636.001
730.028
649.297
610.59
552.262
739.711
690.997
803.275
642.932
760.234
635.897
637.645
700.16
689.765
772.617
859.824
691.959
708.595
680.352
768.717
851.648
842.079
869.76
752.864
823.474
534.526
569.766
566.994
587.138
587.672
598.824
620.624
774.677
729.067
801.59
769.073
800.727
798.04
795.632
577.847
652.673
648.887
616.227
614.283
652.469
690.5
612.35
641.716
661.642
650.057
669.403
691.084
675.173
680.541
603.012
665.819
623.199
634.91
659.644
705.554
599.919
663.638
623.827
669.933
631.478
657.959
699.288
631.431
651.712
655.597
658.126
662.089
679.423
681.994
640.894
672.985
719.211
678.966
725.971
760.796
716.684
714.047
767.205
752.138
776.847
760.807
792.471
808.064
692.898
688.529
691.031
733.357
727.934
729.418
763.511
668.145
705.664
685.011
710.688
718.608
729.005
697.675
609.219
676.277
620.203
498.813
587.56
700.831
700.353
642.642
670.276
644.983
583.843
617.379
733.561
831.433
665.091
720.907
596.954
579.942
589.76
605.674
624.7
634.956
611.666
565.375
586.997
580.917
606.082
609.746
619.875
611.384
519.47
551.334
521.756
535.478
572.593
597.99
562.311
630.486
603.807
614.81
655.746
644.524
660.782
674.299
580.533
548.116
581.315
622.055
622.284
645.983
592.444
612.731
604.329
597.126
631.055
639.308
645.779
623.314
615.711
596.017
616.429
657.585
649.179
688.977
627.241
692.225
657.621
642.65
688.49
739.937
723.755
703.648
586.253
669.387
623.775
641.656
662.707
682.477
612.594
642.044
660.268
632.395
647.484
667.886
675.266
639.213
634.559
694.288
659.394
673.903
677.763
715.016
643.216
682.145
692.673
732.32
702.943
761.744
747.701
715.955
661.121
663.216
712.346
682.324
681.069
697.255
638.507
657.838
667.498
698.758
680.607
671.796
685.304
650.916
700.178
687.638
778.817
700.574
734.594
746.009
661.046
734.537
787.604
814.22
798.627
771.027
782.345
749.975
700.385
696.213
657.317
693.551
768.937
731.844
735.433
734.372
698.515
653.717
693.863
767.873
730.767
737.574
727.611
685.944
718.248
717.817
734.919
743.46
706.545
721.433
714.926
672.687
699.851
777.802
740.704
744.708
728.712
687.572
715.58
705.784
766.292
719.587
737.956
676.505
693.843
673.981
698.697
752.509
722.82
713.059
805.194
723.646
771.024
795.912
806.067
762.788
822.129
711.89
786.059
755.295
789.424
794.502
756.929
811.671
734.887
752.43
782.346
744.858
753.294
760.923
725.668
819.183
802.598
834.401
823.02
857.934
839.592
841.264
799.457
808.462
784.866
814.202
841.601
825.751
829.925
736.032
793.477
800.891
771.172
765.745
790.724
806.817
766.164
789.884
788.956
762.358
763.582
787.576
801.018
732.242
789.106
796.945
769.065
762.636
789.063
804.234
348.167
473.189
451.866
376.568
595.797
577.404
600.512
601.109
344.82
412.499
412.175
553.845
518.427
495.76
512.671
416.168
419.307
412.856
480.907
487.954
479.237
475.332
511.956
482.017
520.988
516.307
541.528
536.125
528.324
637.5
644.768
671.691
561.742
631.028
611.819
583.271
489.577
458.097
496.318
497.865
523.348
526.238
491.368
531.942
554.798
602.423
536.568
574.682
586.876
526.323
550.992
569.132
597.073
597.454
589.332
564.35
560.169
538.193
559.34
579.101
592.917
579.868
558.187
535.294
526.987
537.246
631.935
749.316
620.396
630.601
704.134
618.632
540.593
564.533
562.905
560.06
563.494
587.825
589.35
529.732
560.962
556.493
555.833
560.729
585.576
587.526
664.383
630.931
664.733
593.584
621.934
593.374
621.234
653.053
590.639
621.042
619.09
587.577
616.879
651.698
667.421
629.71
664.185
593.349
591.682
619.493
622.347
586.711
616.848
584.354
614.463
654.045
650.107
617.462
704.262
656.782
744.495
744.003
697.555
655.821
696.752
708.326
704.615
745.706
654.697
700.439
696.446
658.275
733.926
792.141
791.867
794.69
765.947
769.716
771.256
729.056
811.097
805.528
804.222
759.854
758.201
767.943
832.029
853.237
833.037
847.523
833.046
848.352
838.75
815.326
837.553
842.556
832.967
799.258
828.985
833.268
803.543
802.027
789.412
801.82
791.159
804.028
801.573
786.946
801.485
800.828
800.752
792.323
803.11
801.387
816.596
814.894
821.818
804.968
802.716
809.386
808.617
856.416
858.131
843.863
862.404
838.711
855.466
857.795
792.233
795.701
775.512
774.362
795.616
779.829
752.774
817.236
800.971
816.526
784.833
802.571
787.428
763.583
821.316
802.741
803.933
788.438
817.334
788.473
767.794
775.443
752.681
779.724
803.396
774.165
795.416
792.061
857.195
807.349
818.368
813.927
844.499
832.705
842.465
912.652
828.515
708.349
826.142
826.226
789.477
773.936
810.28
827.839
800.569
725.456
752.355
1048.16
795.831
907.087
787.933
714.471
900.256
749.064
706.588
722.518
675.988
714.425
742.515
760.14
781.894
813.769
990.82
898.672
895.121
792.251
829.574
837.711
823.2
788.921
706.232
670.609
773.755
817.146
726.469
725.248
739.593
736.973
748.426
746.08
771.65
762.078
823.909
825.2
747.45
828.657
846.066
764.842
834.93
779.228
785.196
744.332
797.187
773.519
802.151
812.407
718.952
799.815
797.634
754.564
751.906
794.45
851.173
795.256
814.317
771.894
818.293
798.285
809.475
817.603
756.93
798.576
776.801
802.476
790.408
800.856
802.547
810.377
765.993
775.574
804.375
825.201
846.614
790.507
760.771
801.514
770.428
801.505
819.254
840.1
787.912
809.539
830.435
829.385
826.796
825.933
864.654
840.045
822.264
843.976
842.312
829.73
828.28
829.946
838.922
804.988
809.335
819.436
810.385
824.494
811.33
801.211
827.255
832.496
817.054
815.62
794.211
811.731
809.979
805.487
803.837
795.705
806.972
784.27
803.875
797.014
849.682
854.311
798.574
843.912
952.414
902.509
899.551
841.047
850.162
793.083
841.081
947.842
893.508
900.292
853.598
850.344
848.933
852.697
853.618
843.03
841.369
841.705
947.883
863.14
859.931
888.643
892.073
820.693
802.293
796.568
806.945
807.053
761.618
793.641
789.044
855.314
866.346
840.659
925.485
896.161
854.752
870.89
864.176
854.81
839.965
923.485
895.112
854.784
871.124
823.005
787.314
802.371
800.871
816.35
784.631
763.476
852.821
820.186
846.001
818.154
845.522
827.202
794.374
830.635
840.008
830.833
830.718
816.871
829.066
833.612
811.851
790.139
814.721
772.805
798.848
779.984
748.892
895.026
1014.72
999.408
997.28
951.986
948.975
955.048
831.023
838.638
829.729
830.987
819.34
835.029
829.533
804.424
771.197
794.448
765.854
792.101
774.253
744.268
843.205
815.009
840.384
805.251
827.386
819.168
789.226
843.036
821.369
841.742
809.571
828.632
821.354
795.357
801.021
744.709
758.535
757.202
787.399
778.634
775.641
749.858
722.084
701.118
752.813
778.14
756.884
729.15
714.154
753.282
782.203
803.278
779.488
766.804
739.258
753.613
728.719
704.945
733.844
758.623
780.239
758.657
955.695
955.007
923.924
870.986
911.095
889.227
888.663
736.277
736.248
768.113
745.804
690.677
715.284
714.553
796.563
739.31
765.2
757.598
703.095
733.433
725.002
756.776
749.681
777.932
752.633
701.065
729.064
721.954
789.182
790.46
752.758
797.366
726.283
760.632
761.76
796.167
801.003
828.347
800.998
734.16
769.734
764.844
834.583
811.839
852.031
813.397
842.709
818.647
841.595
1138.8
1151.26
1217.31
1151.78
1126.61
1192.62
1194.57
991.291
931.852
909.842
1044.61
1023.85
934.451
951.306
936.012
990.73
1024.39
1047.4
1024.38
936.006
955.355
767.842
779.068
790.622
788.163
808.436
793.75
764.792
682.871
696.185
723.068
681.073
695.066
681.261
670.585
673.412
728.259
696.77
681.523
705.892
681.047
653.364
721.552
709.944
747.916
695.094
714.79
685.665
674.493
732.04
739.561
767.632
705.617
735.897
717.936
686.857
675.413
706.056
684.081
704.006
685.012
708.238
732.694
686.859
717.947
739.562
767.624
705.628
732.044
735.895
722.937
681.048
681.235
682.843
701.666
696.11
694.992
861.805
811.507
850.312
864.339
831.27
818.397
878.474
814.658
852.752
865.965
865.961
832.731
819.829
881.582
1056.43
1058.52
1046.67
954.3
962.306
963.293
961.02
776.022
735.043
744.352
786.996
778.829
739.874
726.043
748.681
780.596
780.232
789.977
780.584
742.073
737.169
683.544
580.641
539.575
615.457
609.097
666.297
640.834
657.156
683.759
674.401
672.08
600.329
652.166
647.53
658.421
673.221
689.884
668.008
560.833
639.31
617.783
677.561
596.244
647.396
664.917
541.343
628.112
612.196
875.908
849.215
902.906
842.364
891.264
892.259
831.409
682.466
678.983
713.662
695.103
548.506
637.546
641.35
880.722
852.004
907.828
853.142
832.219
895.619
894.163
647.123
700.992
719.364
700.99
573.645
647.131
661.95
835.234
637.515
781.027
806.179
832.212
756.381
750.19
748.977
638.035
759.351
655.872
835.028
744.252
741.761
621.691
697.087
536.509
686.254
833.695
818.042
818.481
835.334
836.451
797.177
794.434
830.1
813.786
816.896
832.261
835.284
796.389
793.198
836.701
813.535
829.17
802.746
815.788
784.96
768.331
685.959
489.557
662.653
628.238
705.852
545.559
384.046
718.034
800.555
778.866
763.265
770.751
548.133
549.31
825.314
762.057
784.965
768.049
794.619
746.663
723.37
751.894
783.119
786.338
754.515
717.227
751.678
719.352
804.779
761.502
808.508
758.537
713.011
717.5
754.101
785.61
752.744
787.532
755.005
716.788
719.629
751.68
761.834
804.881
808.072
758.55
716.122
717.89
755.841
754.022
737.523
740.31
714.256
715.476
702.349
686.353
793.257
726.724
773.814
702.983
742.665
725.936
688.49
777.937
727.928
763.813
709.658
741.865
726.485
699.718
716.086
684.731
526.605
644.268
654.364
686.002
544.397
609.319
747.116
722.698
736.214
745.178
768.709
714.382
698.925
711.701
724.054
744.964
709.076
675.962
693.713
688.567
706.996
724.593
749.334
707.861
648.922
690.949
670.387
782.277
783.877
778.655
759.264
752.065
772.285
740.189
718.156
694.144
654.048
687.991
688.469
716.056
695.172
718.258
680.422
690.4
648.723
686.657
694.578
714.888
728.154
681.032
694.535
681.508
696.715
673.402
653.392
752.719
700.354
729.56
691.1
721.693
705.45
664.2
664.941
682.363
696.611
699.801
719.43
696.909
685.45
603.542
639.05
670.849
694.939
708.516
693.028
676.448
671.275
686.702
701.609
699.643
723.782
701.624
686.705
668.748
681.265
706.614
695.106
600.192
652.292
667.604
703.834
675.601
688.027
659.241
681.212
668.275
634.312
703.376
634.37
685.488
622.472
675.122
655.456
587.75
311.317
526.881
652.201
599.972
747.888
678.021
742.11
616.879
703.981
766.759
782.195
803.24
779.45
739.222
753.278
714.151
605.063
657.28
586.427
288.039
302.763
553.42
347.142
691.635
699.946
725.128
715.592
755.087
725.132
691.64
685.008
708.231
732.655
684.067
706.029
686.079
675.417
714.775
685.662
709.924
695.107
721.555
689.301
674.507
681.849
572.335
625.641
604.446
665.934
631.117
649.487
776.033
739.903
744.363
787.069
776.532
735.08
726.064
769.272
708.335
734.105
771.969
774.337
725.584
685.572
600.405
657.19
647.6
672.09
674.408
683.748
674.649
649.629
651.791
680.711
657.286
683.825
698.599
677.243
660.805
660.815
675.651
661.147
675.636
687.079
675.64
677.233
683.819
698.589
680.698
651.775
649.63
599.962
675.986
640.521
581.439
674.879
634.115
685.662
669.909
650.517
554.249
487.004
607.071
554.209
678.058
650.491
664.947
658.998
677.539
647.474
541.506
612.297
596.421
596.867
633.467
664.291
627.079
476.276
540.211
585.315
633.271
592.52
464.889
545.199
592.695
671.241
645.057
678.974
695.103
713.674
682.444
548.434
641.308
618.478
639.792
628.335
690.422
660.726
475.218
578.018
589.297
593.908
569.558
645.3
616.137
429.039
523.235
550.701
621.109
671.347
633.368
691.687
774.229
670.872
715.674
750.869
688.673
666.373
652.174
706.909
693.574
683.086
693.45
641.274
620.547
632.093
658.622
672.563
668.512
659.821
634.219
671.716
635.824
631.85
629.093
666.185
670.314
725.794
741.671
747.262
745.502
749.903
718.465
711.186
621.289
629.457
621.583
660.63
673.329
668.724
660.772
700.545
728.459
732.484
735.618
738.099
700.554
695.486
753.896
707.657
771.049
772.292
717.71
704.232
716.281
748.136
719.631
770.485
747.13
715.154
699.693
700.486
891.891
786.829
807.674
826.647
789.181
824.094
888.282
810.031
778.287
780.717
791.62
827.243
826.734
839.946
840.671
775.87
785.794
774.539
830.92
826.495
839.436
842.44
805.49
807.551
824.256
855.747
855.54
856.103
857.045
804.951
824.249
803.388
855.334
857.893
857.725
856.62
871.484
890.344
872.381
879.16
880.206
882.605
878.132
877.17
891.441
873.484
879.991
882.248
883.502
881.891
878.706
812.942
849.867
856.367
859.106
877.082
852.677
879.178
855.584
850.475
812.838
859.421
853.231
878.398
790.792
795.826
789.279
734.426
642.863
708.983
699.154
525.172
659.081
612.955
419.49
536.185
613.444
526.856
487.398
586.42
653.376
393.45
513.778
604.631
513.775
479.462
557.977
501.637
369.636
464.609
637.603
577.085
733.978
780.695
782.032
710.499
585.827
648.918
679.466
419.522
536.206
605.1
525.228
612.993
613.458
659.099
460.772
575.284
638.057
585.608
476.94
368.549
501.418
453.283
533.918
399.101
316.821
387.463
481.434
605.13
533.648
746.092
401.158
654.399
368.052
1227.71
1031.53
340.74
288.41
402.793
291.798
492.615
538.204
698.185
482.626
352.19
375.33
704.736
498.676
739.557
719.207
296.439
633.713
740.968
673.662
469.196
337.06
652.777
291.541
574.116
587.407
294.085
532.777
288.035
742.431
735.935
738.17
704.266
704.833
685.976
686.124
717.742
717.177
569.17
291.804
562.952
597.299
296.847
745.033
739.047
739.661
700.684
704.17
683.928
678.25
1123.89
963.975
943.155
1079.43
1126.59
1212.82
1104.68
745.233
735.016
726.646
693.164
681.147
667.793
652.668
511.778
711.672
547.599
288.065
290.055
681.063
435.399
705.1
724.629
726.02
658.832
625.276
623.522
659.787
732.457
696.662
713.663
643.47
664.565
633.398
610.248
1103.95
1176.05
1181.26
1186.73
1191.01
1236.62
1236.55
723.208
703.526
726.137
655.208
608.432
618.399
647.233
878.055
785.164
939.97
832.256
1046.67
1015.79
808.877
1138.84
1151.76
1151.18
1192.61
1194.54
1217.23
1154.57
496.899
617.154
615.97
586.063
465.528
463.188
587.751
703.688
688.079
715.73
593.507
634.349
617.182
574.221
719.42
698.676
697.876
699.044
699.625
665.32
666.929
529.034
387.561
459.503
287.931
312.866
328.689
465.604
604.605
491.824
612.245
581.23
446.463
457.08
571.977
676.491
701.36
680.016
618.254
588.402
582.575
549.729
719.988
695.312
695.453
698.852
699.133
660.573
650.835
577.203
501.417
639.332
328.627
476.615
287.931
314.307
1224.46
1236.14
1236.53
1224.41
1159.14
1156.22
1227.67
287.967
665.054
448.697
364.68
503.672
313.879
287.926
668.785
655.594
687.877
595.94
522.65
550.77
570.347
592.438
451.6
575.975
431.198
558.129
540.191
411.193
1236.91
1208.57
1236.27
1219.43
1143.43
1139.96
1222.99
702.854
686.849
687.525
675.078
673.831
635.573
615.243
954.319
1058.51
1056.4
963.3
961.038
1054.83
962.313
536.028
288.213
400.459
589.254
789.32
758.278
447.71
1193.61
1156.15
1217.97
1193.56
1060.93
1124.51
1123.85
1149.43
1175.46
1214.51
1187.78
1046.47
1108.05
1117.59
530.856
429.163
555.429
518.283
357.579
386.27
491.848
549.554
371.786
509.184
424.78
506.381
421.666
551.743
623.894
623.879
654.901
510.707
552.893
510.729
462.678
692.687
633.489
636.166
658.423
656.6
589.026
554.889
675.991
674.894
685.653
640.547
669.931
634.198
581.508
543.656
487.142
401.977
364.033
499.283
414.236
533.063
618.575
607.176
646.087
488.372
539.932
503.538
445.723
673.228
668.023
689.886
658.414
617.815
617.75
560.848
470.169
385.037
517.909
498.518
320.263
448.38
364.189
558.885
655.894
653.819
586.777
472.61
590.678
467.011
666.11
593.445
664.575
597.915
504.928
499.288
601.722
966.327
1059.09
1060.73
1152.18
1052.68
1051.08
1155.27
637.362
549.357
648.161
577.701
435.385
454.717
562.518
990.561
940.986
954.712
1056.69
963.809
1031.52
954.714
650.254
584.444
659.92
589.043
466.801
486.798
574.049
880.75
853.166
852.071
895.635
894.213
907.857
858.167
1049.16
948.115
957.961
981.037
1026.19
952.373
932.011
501.784
334.145
466.762
328.35
459.644
420.023
305.253
641.306
602.545
605.719
560.491
564.078
510.228
451.387
628.016
582.243
761.561
689.314
479.643
631
685.44
645.14
740.768
727.893
734.076
713.985
710.907
706.139
693.933
699.756
696.856
719.312
684.71
696.539
682.363
664.994
688.81
702.313
654.537
609.363
680.907
661.211
573.568
706.885
678.931
692.98
661.103
689.593
675.785
634.741
671.386
661.827
683.222
654.523
541.448
620.111
596.275
545.32
592.837
671.299
633.421
465.04
592.669
526.798
1034.97
989.388
902.954
1120.42
982.813
1027.49
1057.21
621.344
483.093
600.274
409.348
541.362
513.725
376.699
634.946
519.321
614.392
439.763
552.952
525.333
405.081
538.222
397.769
455.94
497.454
544.324
643.669
613.181
474.428
317.733
386.849
305.814
420.756
340.946
444.759
480.365
540.623
584.189
458.56
336.457
392.667
402.194
734.442
795.839
790.828
708.982
699.147
772.035
642.839
287.927
358.493
289.645
287.926
287.926
292.444
287.926
379.849
289.795
287.926
287.926
292.393
287.926
287.926
607.714
607.741
656.427
586.283
501.969
502.002
396.01
566.85
580.708
646.807
505.912
599.104
490.058
371.554
587.213
501.728
637.666
464.736
558.063
479.519
369.713
575.26
585.62
638.047
460.717
553.378
476.934
368.534
401.591
446.668
573.089
477.566
310.298
340.327
431.666
306.81
372.538
423.978
372.555
289.813
326.225
294.087
482.36
553.386
587.915
489.24
322.758
442.791
363.069
910.593
764.069
835.858
860.476
908.334
910.599
835.857
884.994
763.339
848.607
933.027
988.107
938.886
875.167
534.031
481.513
605.204
544.435
399.136
453.353
316.852
587.232
393.418
524.621
386.692
520.628
440.506
315.683
301.238
349.08
407.853
364.521
289.212
315.158
293.095
851.301
898.131
906.318
906.769
735.51
859.817
827.203
604.466
428.535
550.727
431.507
507.205
379.902
315.73
336.447
405.049
299.917
436.992
365.586
512.736
570.781
516.406
415.594
492.108
461.61
358.169
305.706
574.642
462.648
656.748
567.234
575.439
447.72
473.376
331.515
575.493
473.43
331.548
589.271
462.671
567.269
656.766
418.922
517.765
405.995
305.193
378.796
507.21
615.287
350.696
433.818
309.801
295.221
376.349
323.113
289.902
492.372
295.763
362.726
379.624
373.181
498.023
356.908
323.46
378.654
508.135
298.919
386.301
328.807
290.786
479.967
329.581
341.463
293.88
360.004
345.275
460.344
290.295
415.335
316.458
425.694
316.451
532.376
415.324
310.713
509.658
400.583
378.091
289.443
302.768
302.311
417.694
404.997
523.47
389.888
289.601
307.382
303.337
649.862
712.718
776.521
589.943
371.747
712.705
536
289.442
302.297
378.062
310.699
400.525
509.617
402.771
313.218
321.56
433.714
399.631
288.922
300.554
304.674
621.171
411.562
617.482
873.604
601.861
770.805
756.981
621.739
478.929
669.583
550.947
698.506
516.844
341.691
301.642
386.973
480.552
347.105
298.858
294.257
288.842
475.155
345.49
343.823
297.599
297.793
292.792
288.605
294.261
288.842
298.861
358.506
301.643
480.579
386.979
323.221
288.325
288.402
290.423
296.774
298.613
289.637
357.278
320.004
292.416
357.303
288.472
298.752
292.419
290.195
308.874
435.004
346.828
288.275
291.512
294.78
428.942
290.535
309.852
342.028
288.328
291.635
294.968
436.97
333.476
290.94
344.892
288.345
291.897
295.223
297.823
334.635
295.854
290.336
287.991
288.38
288.29
358.783
289.842
288.329
290.359
293.314
320.533
294.879
293.397
309.395
289.067
296.548
288.019
289.646
288.384
376.867
296.368
289.542
297.904
288.046
288.555
289.862
288.51
290.662
288.044
288.51
287.931
288.047
287.952
291.929
482.11
336.514
292.419
288.212
340.717
291.927
318.894
312.606
289.859
329.235
288.109
290.553
291.048
289.772
288.235
287.94
288.395
287.929
288.002
287.947
294.65
296.687
288.295
381.837
580.163
363.403
293.085
288.502
288.634
298.347
290.682
287.936
288.105
288.075
288.095
308.813
290.044
288.064
289.308
288.039
287.937
305.546
288.051
289.116
288.05
289.117
288.008
287.935
289.308
289.645
288.095
287.938
288.064
290.043
308.808
287.995
295.024
288.945
287.96
288.41
287.995
287.931
288.126
287.956
288.485
287.942
288.213
287.967
287.928
297.584
287.983
288.023
287.972
289.027
288.414
288.804
296.416
288.018
287.978
287.977
288.409
288.827
288.805
288.186
287.965
288.595
287.949
288.318
287.983
287.929
288.187
287.963
288.542
287.946
288.24
287.97
287.929
288.542
287.928
287.933
287.934
287.966
288.045
287.96
287.945
287.927
287.943
291.85
287.942
288.15
288.181
287.926
287.931
287.926