/*--------------------------------*- C++ -*----------------------------------*\
  =========                 |
  \\      /  F ield         | OpenFOAM: The Open Source CFD Toolbox
   \\    /   O peration     | Website:  https://openfoam.org
    \\  /    A nd           | Version:  9
     \\/     M anipulation  |
\*---------------------------------------------------------------------------*/
FoamFile
{
    format      ascii;
    class       volScalarField;
    location    "0.00325";
    object      impulse;
}
// * * * * * * * * * * * * * * * * * * * * * * * * * * * * * * * * * * * * * //

dimensions      [1 -1 -1 0 0 0 0];

internalField   nonuniform List<scalar> 
26366
(
139.478
124.845
14.2013
92.5275
0.00295188
0.0514789
4.10911e-05
5.70781e-05
166.333
201.933
143.616
128.884
0.0182291
0.00659605
0.00145111
0.000561887
209.806
147.512
197.719
151.165
200.244
169.012
212.107
154.623
161.581
208.357
133.944
189.188
145.136
196.139
192.741
143.378
195.341
111.916
107.001
183.691
180.871
183.892
136.926
189.082
103.746
176.871
88.7722
174.21
210.936
206.195
207.35
197.678
198.904
194.826
193.577
211.704
208.579
208.153
200.178
199.733
195.677
196.135
206.557
204.709
202.851
196.089
194.098
191.955
189.927
204.411
198.132
200.657
188.983
191.729
187.51
184.703
199.779
204.635
204.189
191.205
186.756
186.258
191.68
202.18
198.926
203.358
190.328
184.041
185.352
189.052
200.649
194.179
198.742
182.323
187.387
185.306
180.177
205.132
196.962
238.355
207.641
240.403
190.718
187.972
226.369
223.807
203.591
230.62
235.014
186.254
188.301
222.22
221.1
240.867
236.413
235.946
229.631
229.168
224.597
225.07
239.533
233.894
235.071
227.134
228.302
223.732
222.565
236.862
232.374
225.66
230.511
223.844
221.069
219.238
232.923
226.075
228.41
219.487
221.783
217.153
214.806
231.601
225.903
231.138
219.598
214.592
214.112
220.074
207.163
218.816
218.347
213.613
202.62
214.096
202.125
229.071
225.011
230.255
218.731
212.045
213.236
217.558
216.329
206.307
217.49
212.749
200.051
211.587
201.255
227.519
220.293
225.633
210.47
216.035
214.17
208.552
214.839
201.702
213.017
198.467
210.065
208.21
196.52
215.588
223.498
218.082
212.031
203.763
206.321
209.591
199.498
208.558
210.919
206.067
191.58
203.616
194.233
208.37
197.012
190.188
203.044
202.535
208.867
196.502
207.501
194.365
189.271
200.423
201.649
206.312
195.612
192.725
198.801
204.752
202.842
184.118
196.812
190.698
191.869
193.911
196.497
182.828
174.617
177.618
179.945
185.491
198.041
191.745
194.473
178.558
181.565
200.614
183.589
167.94
184.974
180.293
160.762
178.889
162.408
146.895
41.1409
20.689
120.021
45.3085
24.0791
124.618
185.903
169.615
186.416
181.241
164.126
181.77
163.507
194.857
189.855
189.347
181.286
180.762
174.578
175.13
187.153
193.981
188.443
178.466
179.823
173.596
172.175
137.697
27.3754
35.2628
103.17
10.541
18.5752
117.006
164.224
179.543
181.789
158.597
177.056
174.76
155.877
183.349
191.111
185.46
176.678
174.443
170.293
167.921
176.103
150.491
170.951
158.027
170.38
176.648
157.381
158.392
173.73
176.863
172.014
148.647
168.784
152.575
175.128
154.544
167.878
149.296
169.368
173.689
156.242
186.686
180.843
177.89
168.561
171.75
165.051
161.641
295.328
242.902
311.478
251.063
253.615
307.325
239.784
237.049
290.975
249.486
294.021
304.589
235.324
228.32
288.284
277.909
310.888
306.971
289.542
306.305
289.08
285.192
285.721
309.476
286.19
302.666
304.836
287.939
283.953
282.109
301.232
283.972
299.939
296.624
281.226
279.772
276.928
297.668
275.04
289.303
293.041
278.216
273.837
270.586
301.566
294.563
300.864
280.342
275.348
274.719
280.921
252.296
266.946
268.394
264.467
246.816
262.956
248.089
269.753
253.174
269.349
265.502
249.437
265.945
248.998
293.069
297.218
299.367
279.053
271.616
273.431
277.195
265.118
247.515
262.828
245.178
261.021
258.651
243.165
294.504
285.094
291.21
269.269
274.84
271.996
266.476
257.611
245.305
260.316
256.058
238.478
253.273
240.928
283.878
281.599
287.634
268.909
260.105
263.405
265.609
260.982
256.294
244.879
239.315
255.786
261.468
244.428
259.899
242.195
238.357
253.141
254.691
258.356
243.486
240.504
251.139
256.362
253.96
233.248
248.73
238.452
399.233
421.77
392.303
415.672
418.706
435.255
398.521
391.749
418.811
426.54
422.343
437.417
431.204
423.572
428.89
410.647
400.625
412.863
406.21
419.659
414.178
403.288
406.042
401.145
418.876
403.358
414.932
411.839
398.781
398.162
398.506
407.385
405.403
388.899
397.64
394.553
429.097
424.603
419.804
412.288
423.046
418.34
408.631
407.418
403.896
412.439
410.702
395.896
403.036
401.875
408.637
384.045
393.783
405.483
382.037
395.974
391.612
378.548
387.797
373.582
385.832
382.447
393.502
400.244
368.719
312.84
315.092
333.85
374.344
328.893
381.975
309.968
364.057
357.914
325.559
370.934
306.844
295.071
354.404
336.895
391.083
385.73
389.531
384.1
373.113
367.035
368.366
386.437
367.174
376.578
381.088
370.761
364.544
360.832
376.549
370.485
362.497
364.451
356.878
356.028
350.395
378.198
367.072
376.481
359.3
351.909
350.538
360.699
355.207
333.14
354.246
348.124
328.508
327.68
349.196
364.198
345.244
351.495
357.877
351.055
344.613
338.932
331.488
349.248
352.292
345.999
323.313
342.897
325.901
373.405
359.764
368.895
356.749
344.486
348.042
353.038
345.24
321.481
340.309
320.028
338.882
334.102
316.065
363.229
348.481
356.839
339.989
348.324
342.926
334.952
330.084
317.174
335.197
329.136
307.594
324.18
311.864
344.309
342.569
350.414
337.403
324.687
329.789
331.988
340.833
333.973
322.157
314.161
332.84
321.253
341.932
338.688
312.417
316.963
327.823
330.758
335.627
319.474
313.751
324.112
331.73
327.181
303.171
319.847
309.94
322.452
301.649
299.199
310.725
315.328
317.697
305.87
251.318
233.649
230.915
243.173
246.07
248.468
236.166
743.519
414.08
342.75
391.424
398.017
478.732
498.704
413.313
449.23
455.301
816.791
360.815
579.807
524.004
648.232
544.768
347.481
363.656
357.9
432.689
454.493
458.309
432.469
386.894
442.031
458.539
484.242
519.113
496.549
530.117
391.362
385.692
372.823
428.674
450.47
456.712
421.617
367.457
398.037
371.599
425.489
435.539
428.798
429.902
508.004
422.866
483.358
503.003
504.434
541.176
547.42
803.399
573.088
575.773
720.057
576.435
577.908
710.371
579.544
777.662
577.615
577.912
666.121
576.548
690.941
381.642
396.874
377.712
418.218
406.929
408.393
419.903
459.63
491.805
494.781
467.664
462.734
488.306
464.118
538.747
541.412
578.624
564.597
537.745
568.36
577.693
449.059
467.193
486.392
444.234
453.457
478.354
437.407
449.365
436.498
443.05
443.747
431.319
444.434
436.601
518.652
532.841
529.67
567.197
563.271
571.522
562.683
601.559
575.071
576.207
576.824
598.079
574.802
642.08
575.245
611.981
567.799
589.733
571.927
571.846
628.486
432.956
412.957
425.972
422.752
435.384
421.265
425.376
599.36
431.007
487.178
705.162
469.679
549.833
507.095
569.514
517.446
418.549
372.513
382.341
472.316
473.98
387.224
411.318
524.686
472.112
533.007
495.63
547.916
546.224
492.021
388.709
417.547
388.759
441.346
413.326
409.226
437.973
578.381
666.08
574.343
638.78
572.255
566.604
611.891
378.503
374.987
374.935
394.807
398.199
392.658
386.754
564.338
629.718
569.08
561.205
571.182
558.131
588.291
421.26
399.066
392.462
409.47
449.67
412.538
441.655
542.645
476.862
538.095
544.894
500.849
543.808
494.609
594.338
563.088
566.482
561.168
560.539
559.436
578.105
509.551
554.668
555.984
549.898
513.633
547.507
506.265
380.042
371.624
375.178
390.94
380.518
392.237
382.215
459.043
437.533
428.106
423.254
472.245
433.991
457.462
417.727
402.188
404.493
405.075
396.967
411.416
394.28
557.634
556.377
556.397
553.772
557.13
556.576
564.955
544.976
507.541
536.482
510.357
541.526
541.184
506.515
422.071
464.176
471.722
434.239
432.833
424.254
459.827
401.514
385.144
404.876
391.253
406.984
400.05
388.594
367.171
372.196
387.133
385.788
381.294
395.198
367.397
347.736
378.649
389.809
394.4
382.159
385.927
393.675
385.629
373.781
373.404
376.955
375.558
379.615
378.623
372.945
389.904
379.541
383.219
382.355
389.897
382.463
375.339
397.148
387.063
388.478
387.835
392.952
384.437
379.677
372.221
373.288
377.399
375.237
361.488
368.645
368.246
375.972
380.29
374.972
376.605
365.663
372.18
370
378.733
375.903
385.948
378.042
360.641
371.172
368.697
370.285
354.755
357.32
353.981
363.905
363.313
361.484
152.292
165.913
171.802
169.432
142.11
163.438
149.447
183.159
176.153
176.715
167.538
160.132
159.506
168.125
173.747
182.22
175.172
166.504
156.778
158.403
164.992
166.581
141.81
156.871
138.4
160.44
163.204
145.973
169.495
179.095
171.865
154.63
162.987
160.453
151.907
110
17.0905
114.803
78.3297
2.73233
1.97705
73.2353
142.66
164.55
163.955
156.667
134.432
157.3
133.663
161.33
141.384
162.896
155.546
130.218
153.888
132.283
171.055
163.265
166.643
157.375
144.568
148.584
153.717
18.4319
12.4413
106.851
1.57972
69.8882
24.9763
0.568326
159.262
133.674
156.644
127.441
151.682
148.881
123.898
147.642
140.904
140.132
117.231
116.347
108.281
109.169
149.659
129.667
153.465
145.462
114.306
141.357
119.537
145.582
136.722
138.766
112.389
114.758
106.677
104.288
148.347
124.016
111.037
139.464
138.726
149.027
123.189
147.143
119.438
109.425
135.458
137.416
145.355
121.689
141.001
133.995
130.543
109.254
105.35
101.123
97.1804
133.674
121.327
126.335
95.2558
100.683
92.4744
87.008
116.414
132.823
142.971
139.935
99.6301
129.455
112.565
128.902
122.278
131.048
97.8001
85.6888
88.1176
95.3889
123.783
133.279
132.478
99.417
90.6335
89.7453
100.307
136.194
102.243
94.6421
120.214
125.281
131.655
107.852
126.034
113.208
122.41
82.4718
92.1942
88.221
78.4842
112.771
108.603
117.999
83.4857
68.2697
73.7437
78.0025
113.933
103.786
102.895
80.1409
79.2617
68.0245
68.8855
112.357
98.8184
101.262
75.204
77.634
66.4125
64.0057
102.896
95.5629
91.4901
71.99
68.0136
60.8263
56.9073
98.1227
80.8829
86.594
57.8879
63.3022
52.2848
47.0096
1.94146
0.0230529
0.00533052
0.0040165
3.86152
2.44931
5.05933
80.9055
44.5633
80.0329
72.0529
38.4416
72.9055
37.7342
76.0817
43.178
78.4423
70.4851
34.4585
68.1574
36.4073
91.5901
77.4356
90.6898
56.1669
44.7038
43.9206
56.9983
218.748
95.9252
62.0526
0.000937392
1.47162e-05
199.128
123.269
0.00310126
9.11701e-05
225.295
182.546
194.055
182.222
212.785
202.01
160.816
188.374
132.272
150.223
106.85
128.652
179.371
186.118
228.093
223.5
216.947
220.619
214.082
212.168
209.179
222.198
213.789
217.397
207.202
210.855
205.795
201.95
218.423
209.61
215.421
200.836
206.824
203.675
197.484
119.12
167.656
176.926
82.0248
167.357
142.574
56.8679
205.884
190.734
202.848
188.515
200.808
197.609
184.981
195.962
195.267
192.016
185.837
182.276
181.486
177.819
208.241
206.029
212.047
200.093
189.353
193.675
196.009
186.926
195.44
199.385
193.944
176.245
189.743
180.91
192.395
184.162
188.336
173.655
178.245
173.623
168.804
195.076
188.58
175.059
191.671
171.03
184.933
178.43
190.954
182.594
187.588
171.106
176.616
172.78
167.037
244.994
261.082
237.445
290.283
225.475
274.093
261.986
214.957
286.427
271.767
285.429
281.463
268.353
267.204
263.714
264.81
278.367
282.451
273.278
277.411
260.067
256.223
251.703
240.284
254.739
235.811
250.312
247.191
232.909
280.01
270.179
276.043
256.637
262.18
258.618
253.016
513.128
382.316
345.625
554.431
578.254
499.338
547.866
507.458
544.166
495.451
477.185
444.782
375.122
428.741
383.408
472.96
388.242
369.42
361.362
371.816
372.224
342.08
366.418
328.553
561.616
565.017
561.492
560.352
557.985
559.715
554.614
545.819
508.883
546.567
506.841
542.691
540.944
509.666
407.252
458.974
416.287
459.563
418.409
426.029
468.34
386.195
377.771
392.147
380.398
394.599
397.531
381.005
563.574
557.835
563.094
560.738
551.071
559.872
552.104
551.54
555.608
557.168
557.761
546.894
553.78
549.482
370.491
371.208
372.753
367.423
368.206
370.599
363.899
541.763
513.085
544.985
538.289
507.771
534.896
509.593
537.878
532.136
503.715
534.821
500.543
528.174
506.169
435.687
469.854
425.985
434.521
478.601
474.932
441.961
469.037
437.145
473.26
434.838
474.018
473.374
440.679
401.996
380.207
397.006
401.528
383.396
407.136
382.127
556.768
547.999
545.998
545.434
550.424
553.718
548.635
400.098
384.784
405.252
402.493
383.971
408.119
382.823
367.398
355.997
362.8
355.334
362.811
357.542
349.714
370.198
360.739
364.055
368.294
369.105
360.119
357.175
371.136
360.438
364.485
368.397
369.607
359.946
356.439
531.43
501.6
497.725
519.814
524.083
527.575
504.023
440.685
476.797
473.917
445.399
476.03
443.388
444.979
406.876
385.195
385.332
415.89
412.108
412.257
383.146
353.614
350.757
358.169
352.739
339.608
348.48
344.48
348.711
351.661
357.286
352.009
336.939
346.739
343.21
367.224
366.753
367.962
356.553
351.837
353.666
354.276
347.502
333.876
332.494
339.804
342.774
343.746
338.283
295.399
336.011
308.506
351.994
290.866
331.51
323.512
278.073
346.47
339.68
345.547
334.41
340.029
333.451
328.206
341.202
324.418
329.371
329.791
334.828
323.235
318.358
325.076
304.187
320.224
303.248
319.255
314.455
298.829
338.611
326.443
333.246
319.673
326.705
321.623
314.737
310.867
315.522
299.834
309.746
289.929
305.014
294.364
317.251
328.244
321.683
316.756
305.471
310
311.958
297.307
306.082
312.932
308.178
286.629
301.465
292.916
303.48
284.138
282.374
292.494
296.939
298.84
288.529
230.989
234.37
248.474
243.863
226.231
240.269
229.727
267.819
271.989
266.148
254.891
245.185
249.232
250.946
230.904
240.053
245.436
242.215
222.325
236.722
227.892
238.762
220.911
218.826
229.233
233.131
235.02
224.577
187.752
169.106
166.327
175.992
180.784
183.3
174.095
173.906
183.756
178.554
168.354
156.923
162.333
163.254
22.9034
9.46975
101.028
73.0136
1.91496
96.8925
7.79738
170.104
145.099
165.931
144.017
165.019
160.659
138.606
180.661
174.451
164.824
170.45
160.478
157.639
152.979
155.649
139.16
161.137
155.64
124.975
149.869
132.305
136.889
152.687
159.249
154.659
122.432
147.807
131.11
172.615
160.527
165.843
149.643
155.463
147.533
141.145
159.289
154.589
163.08
139.762
149.39
144.276
134.059
149.352
116.529
115.189
135.485
142.128
143.216
124.364
152.242
149.054
158.088
138.252
119.464
127.342
131.172
4.16634
41.1519
14.4102
15.1825
0.211758
6.49846
0.0593899
145.175
112.422
139.909
108.14
136.463
130.664
101.006
116.782
115.479
108.753
89.0673
82.1303
80.795
73.8496
104.694
126.438
133.712
123.829
83.8332
115.822
92.8977
95.7182
114.171
126.225
119.787
74.4233
107.08
88.2768
109.38
92.5737
101.118
66.0779
74.4561
66.1968
57.891
106.694
89.7694
99.7456
62.0922
71.7874
64.8672
55.2566
112.247
70.7287
66.0164
89.607
98.8903
103.517
79.9308
83.2214
81.7983
91.921
57.2883
39.9339
47.8341
49.1288
0.132788
0.00328891
0.0764793
0.00251601
0.0638293
0.000992189
0.158888
0.0140376
0.0978956
40.3032
33.1744
37.0536
0.128503
0.209388
44.5309
0.0818067
0.0368939
37.6871
30.7573
20.9582
0.0535734
26.9598
29.7995
33.5214
0.100416
0.0279631
2.95003
0.0353346
3.67328
0.0210869
0.00999413
27.482
18.1821
9.1194
0.0183175
13.8723
0.011954
6.39567
10.2941
1.3111
0.00171002
0.00334204
3.20354
38.4857
72.9751
69.1507
31.9286
65.0943
61.3263
28.8757
86.523
75.756
89.0224
54.5924
40.1741
42.4157
52.2423
31.5316
51.8217
21.5194
59.4731
64.6401
56.8884
25.3729
74.3725
51.8179
86.1026
78.8546
67.0983
45.1597
34.8136
83.1941
65.734
79.0431
37.2367
49.1473
45.3508
33.6664
63.4835
23.4808
31.3004
55.1813
54.3804
64.3146
30.639
4.61097
0.870331
0.00125354
0.00110427
0.18605
0.0161868
0.000662079
46.176
17.4585
53.6919
18.2679
47.3525
40.0234
13.3868
61.9428
27.5661
50.6475
22.344
52.8775
59.6556
29.3911
35.8927
55.1432
68.3465
60.8048
74.0845
40.9081
29.5438
25.2092
47.7236
56.6493
52.9593
16.0954
44.1436
22.3892
70.8179
50.4921
59.1112
30.5534
38.0186
28.1461
21.3665
35.2429
43.6993
15.7835
48.6249
13.3679
39.9618
19.2024
20.1114
30.4098
41.8745
48.8046
61.8586
54.6769
24.6046
38.4864
42.3405
40.4781
12.7978
12.678
11.6482
13.8938
42.6133
43.7528
41.8567
15.2234
13.6134
14.0527
14.7568
0.00232142
2.05871
2.78004
0.261357
0.186476
0.000714006
0.00086172
16.5808
45.6029
44.841
35.0532
10.8489
35.7632
10.4537
36.0925
35.0541
38.034
11.405
8.84118
10.341
9.80122
40.1046
36.3505
39.3743
12.1614
10.8548
10.4859
12.5694
41.2498
15.6059
43.3947
33.692
8.62488
31.6795
9.6974
35.9236
34.5433
32.8434
11.1833
10.2379
8.65568
9.50158
0.000465577
0.306963
0.00108134
0.0019274
1.67569
0.147686
0.000610857
38.4461
10.4314
35.0335
7.32155
29.0646
25.9169
5.89723
13.6981
33.3486
40.5318
33.4656
6.19911
26.6629
9.53925
33.5954
27.8601
30.5955
7.67532
9.04054
7.59151
6.38929
31.604
26.0541
27.7677
7.2471
8.08568
6.36917
5.66677
29.5872
32.8489
28.9506
9.01117
8.68697
7.15136
6.87715
30.0805
38.2475
12.3004
32.3664
5.34221
24.6056
8.95764
30.9375
25.4259
29.3131
7.00419
5.99679
7.73424
5.39535
24.5613
23.4033
27.1667
6.09311
3.84129
5.07828
4.65396
3.84032
20.3601
20.9066
25.3456
24.7501
5.39126
5.16993
24.7142
23.8585
21.2486
6.23875
5.14145
4.83394
3.94304
3.18521
6.22179
26.684
8.30544
31.0826
22.3296
4.47803
10.5167
26.8282
34.478
38.5934
46.8801
18.6923
13.0258
3.36665
17.8755
19.3403
22.036
23.6399
4.76302
4.20678
21.576
15.1901
18.3178
3.02332
4.0439
3.06457
2.26029
1.96621
2.46749
16.0244
19.9908
17.583
3.55531
2.86698
25.3537
5.93084
16.8251
2.59462
16.3019
25.989
5.67086
24.125
4.48474
2.33196
13.8075
15.2833
22.319
5.17302
2.56761
15.9446
16.427
12.1198
11.7128
1.6051
1.52902
26.1957
3.64856
13.609
3.35466
19.0127
19.9509
6.00002
2.23263
13.75
15.0406
9.87159
10.95
1.38955
1.20354
11.5257
1.49227
1.08027
12.115
14.916
2.1985
1.60244
3.68404
11.9635
20.0014
17.2721
1.19053
9.87251
2.85471
0.0186313
0.000333787
0.000179971
0.197201
0.000743469
0.00352818
0.000388152
2.10571
4.34138
21.9659
2.8007
17.1152
10.5003
1.29193
1.27363
1.60985
12.1376
8.5485
7.07495
0.993731
0.782428
202.598
212.995
171.383
207.467
155.886
203.148
162.442
177.844
217.124
210.899
192.102
138.558
178.607
168.246
152.562
200.911
216.098
214.263
213.24
206.483
205.195
203.07
201.81
214.738
210.098
211.87
201.492
203.532
200.176
198.138
208.465
207.949
205.464
199.097
196.351
195.725
192.951
211.056
206.42
210.023
195.184
199.318
198.074
193.947
206.823
205.008
208.631
196.445
190.225
194.391
192.305
205.7
199.496
202.651
189.743
193.243
189.799
186.253
204.624
198.331
202.094
187.751
191.952
189.14
184.888
176.166
193.747
192.236
173.227
189.776
188.306
171.581
196.013
195.405
199.23
185.939
177.896
181.617
182.322
188.005
174.024
190.33
186.436
166.81
184.126
169.454
180.645
168.117
185.426
183.982
160.794
166.478
179.207
185.277
182.152
164.6
163.643
181.4
178.252
159.94
182.121
161.665
174.989
158.622
179.806
164.341
177.335
160.416
155.646
174.609
174.655
150.745
155.659
170.568
158.441
172.187
177.055
173.858
148.61
154.645
168.904
236.788
253.302
230.677
223.159
265.822
218.334
214.418
246.732
266.921
226.476
249.909
247.914
213.924
221.382
204.373
212.399
243.985
260.312
267.859
260.553
247.568
244.675
246.989
243.583
242.208
255.874
251.806
255.221
243.292
241.767
240.324
236.847
210.758
201.012
188.091
198.965
223.177
229.526
267.477
257.586
259.621
243.192
245.52
241.753
239.229
251.605
240.955
249.568
247.539
239.323
238.754
236.886
251.095
249.584
253.598
239.613
234.952
237.88
236.866
245.539
242.87
245.36
234.751
237.256
234.672
232.081
246.994
241.703
244.774
233.037
236.085
234.077
230.948
235.729
225.604
234.629
224.179
234.098
232.815
223.243
232.612
224.545
233.708
231.704
220.642
230.415
222.122
239.947
239.38
242.503
231.781
225.919
228.596
229.137
231.187
219.24
229.331
218.767
228.796
226.797
216.529
240.016
242.732
239.578
231.847
229.142
228.614
225.899
229.14
221.473
231.894
230.471
217.304
220.483
227.633
229.22
217.725
216.057
224.7
227.768
219.292
226.271
224.423
216.751
227.068
224.427
211.08
213.964
221.715
233.888
233.887
237.057
222.939
226.17
222.915
219.636
233.38
236.112
232.287
221.222
225.094
222.357
218.44
215.771
222.84
226.002
223.901
210.04
213.462
220.677
221.459
215.387
207.911
207.371
210.846
218.183
218.707
221.43
207.866
218.686
207.243
218.11
215.334
204.289
227.13
226.513
230.394
219.342
211.85
215.343
215.972
212.277
204.638
215.644
212.248
197.226
208.798
200.977
203.329
210.397
214.44
211.614
195.809
207.488
200.297
306.763
248.716
324.087
280.036
299.255
279.82
285.627
268.525
338.849
352.953
319.035
351.058
334.923
317.14
303.579
307.415
288.463
311.743
295.658
324.06
319.307
292.181
341.776
347.342
330.002
309.277
313.888
299.633
294.999
288.37
262.061
265.48
263.684
286.654
277.307
259.764
308.955
279.627
282.709
303.284
314.287
288.546
284.736
384.651
373.502
394.285
358.789
295.128
292.266
297.727
292.923
380.113
390.361
354.296
384.152
348.338
358.813
351.448
364.493
364.857
375.743
330.549
340.432
341.961
330.338
393.85
384.68
385.82
360.953
361.157
352.339
350.828
373.116
363.041
375.721
341.396
324.535
328.381
338.684
322.93
284.846
315.135
295.371
326.58
317.696
286.407
270.706
277.368
306.743
307.895
269.938
297.374
277.817
327.577
296.082
328.137
318.194
284.793
286.358
316.728
295.579
268.081
265.076
307.261
274.601
276.898
304.822
270.998
274.062
259.69
257.368
254.726
271.484
257.191
283.88
261.158
257.938
274.213
253.928
257.039
270.616
262.751
265.792
251.852
268.688
251.297
254.39
265.628
259.877
294.65
282.394
265.917
253.144
283.097
262.427
294.448
301.211
285.082
304.552
301.053
297.859
282.322
279.483
276.384
279.51
297.983
291.164
294.593
276.431
273.099
297.964
290.825
294.557
275.815
279.309
276.262
272.55
268.544
254.713
251.985
251.628
265.712
262.928
248.874
287.367
291.097
287.065
272.974
265.493
269.111
269.492
263.041
245.883
249.047
259.939
242.704
256.694
245.917
258.77
248.189
244.406
259.553
241.61
255.812
245.419
249.266
235.297
239.177
238.591
242.429
252.657
256.47
317.69
347.764
380.37
326.672
316.251
341.965
313.138
352.307
373.845
367.497
368.585
363.089
360.491
356.145
350.601
366.769
432.148
434.028
432.175
390.426
372.497
382.382
399.929
365.436
295.052
438.984
502.832
447.823
456.14
390.427
451.757
428.362
439.094
347.963
320.597
327.911
373.665
383.043
358.659
398.24
443.213
474.671
451.316
475.995
453.901
472.503
466.531
369.562
385.853
361.771
351.543
370.586
366.299
370.206
372.869
326.731
374.287
395.233
441.276
407.52
338.247
351.463
384.315
389.764
369.315
373.867
393.439
382.351
404.097
430.735
416.409
440.4
425.609
419.028
425.44
366.993
412.412
407.306
385.996
381.172
402.232
400.013
451.812
454.668
468.74
440.614
450.476
455.14
440.834
498.566
485.89
487.129
482.421
481.126
469.982
468.982
435.674
413.233
408.82
420.418
449.015
441.753
413.913
374.346
364.144
359.715
368.588
373.595
363.937
369.662
426.393
436.446
429.257
415.353
415.248
420.118
411.132
378.486
370.696
377.553
391.04
379.194
380.622
388.84
395.877
415.983
409.561
405.456
394.139
391.516
409.596
427.202
426.296
437.635
421.498
412.952
425.441
409.665
466.882
451.903
470.535
455.575
436.193
439.745
453.352
418.566
402.066
393.591
431.732
395.341
420.302
405.467
239.562
143.347
286.544
88.6177
140.681
261.794
261.765
299.624
77.8204
120.809
110.696
91.2012
127.121
133.447
100.843
237.411
173.589
240.093
165.937
188.297
188.045
248.368
114.855
100.288
129.873
145.224
137.851
169.387
114.458
158.455
180.301
195.083
111.353
148.027
154.027
120.097
192.388
180.458
236.859
196.215
255.58
212.483
245.957
275.435
237.57
240.718
293.855
209.091
207.357
263.329
206.81
229.382
282.607
175.617
189.869
214.453
141.547
307.155
336.598
301.006
219.109
286.208
245.189
266.42
121.03
519.06
428.572
975.585
80.6274
301.098
1426.94
1094.67
67.6761
122.28
144.438
80.3536
146.829
174.908
96.3145
1405.75
408.631
438.698
1356.05
445.431
478.094
1321.42
211.427
97.0544
173.323
212.896
156.839
265.424
120.469
259.412
151.967
181.903
106.691
190.873
225.271
127.465
1320.49
1371.91
476.214
517.639
1211.1
559.282
1273.8
569.935
1145.93
544.987
1261.43
494.16
524.746
1215.16
319.225
360.008
236.383
275.013
218.602
341.869
161.967
618.07
1036.25
595.371
559.622
1090.2
594.96
1157.68
509.783
401.012
362.254
325.145
450.315
365.742
285.149
432.587
309.649
357.365
301.198
347.114
304.545
372.696
356.396
287.68
334.308
335.101
303.624
296.834
350.815
360.896
381.736
408.835
378.05
443.409
405.604
402.277
449.537
335.765
355.297
320.444
426.631
390.79
380.25
422.39
382.341
340.039
320.709
384.193
422.305
397.941
423.428
386.213
420.716
376.939
406.653
452.421
417.948
453.626
486.555
482.215
441.66
440.482
492.009
482.665
473.974
441.148
470.84
443.497
454.297
439.867
471.34
460.945
640.559
435.786
701.476
425.981
489.411
916.454
490.853
388.513
156.976
940.02
561.75
363.113
363.605
367.428
341.31
350.988
251.491
167.377
262.876
212.355
332.531
213.811
335.804
417.913
302.307
137.638
181.838
206.64
184.686
209.669
267.776
270.307
1248.9
1159.2
601.31
1134.2
599.117
629.979
1048.76
210.028
273.708
236.411
278.242
239.699
284.831
316.294
498.741
436.279
830.398
516.34
560.239
610.743
486.179
368.346
348.563
386.253
376.851
472.006
427.62
367.586
402.048
306.242
419.818
488.969
453.712
396.407
535.915
299.068
479.491
413.915
486.76
446.599
525.191
394.527
338.024
274.231
271.773
331.784
402.265
358.07
369.539
323.654
266.592
263.729
329.498
395.357
360.749
356.439
636.383
1018.88
624.047
642.662
849.637
643.901
944.461
632.189
1055.37
628.818
642.692
851.664
633.833
953.383
341.858
322.651
289.606
334.574
371.266
355.095
362.154
323.321
310.474
280.095
330.023
356.096
349.674
348.995
365.538
417.603
391.758
413.572
379.105
399.28
383.496
532.689
565.152
477.534
472.947
551.033
451.234
558.43
512.78
464.255
539.614
454.449
528.365
547.144
476.151
352.264
406.317
372.724
397.916
365.968
383.356
415.385
643.361
617.019
774.093
771.387
628.875
635.942
859.332
617.078
756.899
615.249
735.808
599.977
595.447
677.849
356.072
370.372
369.267
361.972
360.918
363.427
367.286
341.86
355.818
354.874
351.778
350.243
362.837
359.505
594.796
691.64
607.351
586.426
596.691
577.103
630.467
399.664
421.422
388.042
397.646
449.374
433.053
408.628
563.296
483.58
556.392
557.088
508.264
559.082
494.821
663.134
570.994
584.867
579.159
585.491
567.279
621.654
470.043
545.472
539.716
551.259
501.859
550.647
490.027
410.979
394.747
380.289
395.342
445.11
406.295
429.418
376.715
362.286
366.083
375.065
372.46
385.201
366.648
359.002
374.662
361.497
373.98
372.795
384.299
366.351
426.308
454.384
424.986
445.068
416.545
416.843
445.067
383.481
380.64
375.443
375.212
380.356
373.319
371.216
410.949
388.811
382.437
405.153
398.066
392.684
375.68
369.319
369.771
367.423
372.15
372.838
369.918
369.326
429.47
410.931
416.935
417.969
422.927
405.187
398.452
401.007
398.263
383.812
388.517
387.875
404.017
396.894
367.329
363.273
368.349
370.464
368.804
369.682
369.449
383.35
370.039
394.68
382.492
407.082
391.295
366.101
572.658
571.951
565.92
569.422
565.833
568.874
591.516
433.512
416.564
404.831
394.503
420.151
406.795
431.984
555.653
515.233
548.61
512.419
551.321
554.705
505.737
380.213
376.957
372.291
384.697
397.461
391.925
392.391
407.574
462.782
427.199
460.815
416.888
447.602
418.147
373.31
375.193
377.044
370.709
362.167
367.497
366.752
370.289
370.722
369.695
369.17
364.414
367.33
367.383
370.135
370.418
372.218
370.125
361.555
367.039
366.153
398.758
379.009
404.422
386.107
353.446
360.48
378.916
391.791
381.928
399.064
386.326
360.704
368.377
378.517
363.044
353.868
379.156
373.477
332.362
356.283
348.132
353.875
367.147
360.633
357.93
352.913
345.646
340.787
321.977
342.639
348.872
320.893
339.844
334.961
317.016
357.367
357.496
362.112
345.184
350.131
345.192
340.021
356.606
361.731
356.961
367.156
358.799
363.122
363.397
321.199
342.598
349.5
366.854
335.186
341.928
359.34
347.505
347.15
352.541
340.4
330.107
335.05
335.507
313.571
331.631
336.942
330.443
309.218
325.986
313.155
317.15
330.274
334.928
330.252
308.927
325.476
313.136
300.485
305.041
321.224
325.741
304.723
320.862
309.107
208.45
192.949
192.206
200.445
204.189
204.875
196.858
170.174
160.695
145.085
143.965
150.217
165.09
165.958
92.6425
203.717
51.2855
496.283
440.748
843.975
351.666
935.815
224.888
185.737
109.463
75.9883
320.276
203.154
350.578
327.568
48.5427
132.274
125.273
76.5693
185.925
173.73
83.6623
74.1743
49.5675
47.9508
68.5619
101.683
104.245
72.1884
66.0514
191.331
154.295
214.423
138.563
259.209
103.675
1279.16
1289.28
430.069
489.808
1187.43
480.137
1173.02
183.751
124.885
123.28
213.438
157.728
158.175
213.033
87.9811
80.2816
60.8798
118.668
113.606
85.7619
146.661
192.201
156.405
136.901
167.595
229.506
185.83
216.925
463.525
1215.34
1254.98
508.993
1091.6
535.377
1140.97
110.453
238.178
152.394
159.873
226.434
250.507
120.533
130.248
267.153
246.75
346.889
365.104
250.779
143.502
300.282
227.381
439.377
290.765
397.86
349.27
173.776
534.407
1064.53
919.626
558.514
563.922
525.808
1047.88
181.006
201.625
269.059
308.367
275.145
148.003
216.771
258.989
281.581
208.771
210.834
331.29
287.153
260.03
548.55
962.954
577.874
887.571
570.981
564.823
1012.96
221.147
285.739
321.037
338.898
300.225
244.813
267.257
378.313
222.719
133.933
909.562
534.568
647.065
469.473
793.266
409.871
332.249
341.412
143.158
412.194
370.059
361.977
359.21
245.781
194.857
317.447
197.48
322.086
394.425
284.95
111.993
166.458
189.612
169.544
190.382
249.408
254.628
182.321
252.141
216.594
255.931
217.684
263.424
293.394
1157.18
1080.41
572.167
1025.39
562.739
583.87
949.203
285.169
467.369
397.994
457.512
426.504
501.326
372.098
314.015
254.665
251.109
308.539
377.569
335.144
344.681
305.58
479.268
408.27
461.312
442.117
506.963
381.264
274.832
342.932
266.906
316.483
392.959
361.684
342.835
613.047
994.551
598.803
595.336
801.367
599.771
872.87
900.985
581.453
578.383
586.041
740.812
581.871
835.777
294.337
314.303
265.575
308.991
343.115
335.741
326.653
311.913
343.415
281.085
317.4
359.88
353.335
335.135
498.723
450.559
535.852
456.277
523.704
522.419
427.437
346.342
394.969
401.355
382.476
371.459
378.376
364.227
588.553
714.542
575.383
691.582
579.383
588.111
772.588
337.998
351.548
364.576
358.744
357.316
349.79
345.25
255.658
361.222
406.564
343.314
277.532
419.279
381.529
321.369
271.301
270.012
264.885
317.231
267.392
310.954
311.714
258.191
275.627
268.392
303.968
303.144
313.696
328.521
270.43
323.476
315.221
289.491
273.498
317.789
339.218
362.803
381.909
357.159
389.03
354.863
356.842
398.422
412.766
402.287
351.356
367.344
419.298