/*--------------------------------*- C++ -*----------------------------------*\
  =========                 |
  \\      /  F ield         | OpenFOAM: The Open Source CFD Toolbox
   \\    /   O peration     | Website:  https://openfoam.org
    \\  /    A nd           | Version:  9
     \\/     M anipulation  |
\*---------------------------------------------------------------------------*/
FoamFile
{
    format      ascii;
    class       volScalarField;
    location    "0.00075";
    object      impulseMax;
}
// * * * * * * * * * * * * * * * * * * * * * * * * * * * * * * * * * * * * * //

dimensions      [1 -1 -1 0 0 0 0];

internalField   nonuniform List<scalar> 
39804
(
0
0
0
0
0
0
0
0
0
0
0
0
0
0
0
0
0
0
0
0
0
0
0
0
0
0
0
0
0
0
0
0
0
0
0
0
0
0
0
0
0
0
0
0
0
0
0
0
0
0
0
0
0
0
0
0
0
0
0
0
0
0
0
0
0
0
0
0
0
0
0
0
0
0
0
0
0
0
0
0
0
0
0
0
0
0
0
0
0
0
0
0
0
0
0
0
0
0
0
0
0
0
0
0
0
0
0
0
0
0
0
0
0
0
0
0
0
0
0
0
0
0
0
0
0
0
0
0
0
0
0
0
0
0
0
0
0
0
0
0
0
0
0
0
0
7.27596e-16
0
0
0
0
0
0
0
0
0
0
0
0
0
0
0
0
0
0
0
0
0
1.00044e-15
4.6839e-14
1.85628e-13
3.21506e-13
1.27602e-13
1.64619e-14
0
0
0
0
0
0
0
0
0
0
0
0
0
0
0
0
0
0
1.93722e-14
4.08363e-13
4.23963e-12
1.43797e-11
2.32993e-11
1.06525e-11
1.9513e-12
1.10776e-13
1.63709e-15
0
0
0
0
0
0
0
0
0
0
0
0
0
0
0
7.07587e-14
2.24942e-12
4.53309e-11
2.89909e-10
8.80435e-10
1.41852e-09
6.89022e-10
1.72809e-10
9.54782e-12
4.46835e-13
0
0
0
0
0
0
0
0
0
0
0
0
0
9.09495e-17
1.15051e-13
5.72321e-12
1.66638e-10
3.6094e-09
9.99462e-09
3.28605e-08
6.27021e-08
3.15379e-08
8.44061e-09
7.10642e-10
4.21315e-11
0
0
0
0
0
0
0
0
0
0
0
0
9.09495e-17
1.2069e-13
8.41065e-12
4.04007e-10
4.0967e-09
1.1286e-07
3.28114e-06
5.01848e-05
0.000195581
9.40549e-05
4.14637e-06
8.21715e-08
2.83775e-09
0
0
0
0
0
0
0
0
0
0
0
0
8.58563e-14
7.35841e-12
5.26002e-10
6.5366e-09
7.88105e-07
0.00315458
7.86888
67.8077
101.959
82.1345
15.8978
0.0194615
9.98408e-07
0
0
0
0
0
0
0
0
0
0
0
3.27418e-14
3.57965e-12
2.87805e-10
7.03132e-09
1.36502e-06
0.133803
198.402
440.199
549.544
581.334
556.27
454.653
246.449
1.87525
0
0
0
0
0
0
0
0
0
0
3.54703e-15
6.75482e-13
6.20842e-11
2.69609e-09
3.22326e-07
0.0165724
239.817
604.576
830.015
938.022
956.266
918.403
818.127
621.846
310.247
0
0
0
0
0
0
0
0
0
0
6.27551e-14
5.19814e-12
3.371e-10
1.10472e-08
1.28157e-05
44.8348
513.496
884.277
1208.68
1486.14
1546.95
1458.65
1208.91
900.942
570.304
0
0
0
0
0
0
0
0
0
7.27596e-16
3.26236e-13
2.38303e-11
1.66834e-09
1.03685e-07
0.00144782
175.01
651.26
1059.07
1588.71
2442.51
3146.51
2653.56
1696.62
1122.62
727.372
0
0
0
0
0
0
0
0
0
2.09184e-15
5.22959e-13
3.70528e-11
2.42066e-09
1.72674e-07
0.00574282
217.541
693.366
1118.16
1700.53
3308.58
11080
4609.84
1937.82
1206.49
860.774
0
0
0
0
0
0
0
0
0
2.72848e-16
2.98132e-13
2.27776e-11
1.2496e-09
1.05162e-07
0.00252578
189.015
667.522
1110.4
1727.22
3399.84
9473.29
5921.14
3926.12
3077.88
1550.18
0
0
0
0
0
0
0
0
0
0
1.00044e-15
2.44654e-13
2.47259e-11
1.359e-08
0.000133435
101.588
588.646
1082.84
1833.04
2752.21
522.609
0
0
0
0
0
0
0
1.18234e-13
5.34101e-10
1.70713e-06
6.07503
437.067
814.974
1104.16
1034.26
94.4403
0
0
0
0
0
0
0
638.876
510.523
115.872
0.0253817
2.31333e-07
3.99917e-05
0.00221267
0
0
0
0
0
0
0
0
0
0
0
0
238.192
170.024
1.92068
1.33848e-06
2.08888e-09
2.31499e-08
1.22016e-08
0
0
0
0
0
0
0
0
0
0
0
0
0
0
0
7.04858e-14
8.40342e-10
1.82039e-05
0.0123929
0.00524412
5.95045e-07
2.14197e-09
5.71323e-11
2.67461e-10
1.14561e-10
0
0
0
0
0
0
0
0
0
0
0
0
0
0
0
6.64841e-14
1.12032e-11
1.79109e-09
2.66372e-08
1.09493e-08
6.84149e-10
4.14734e-11
1.10408e-12
2.77541e-12
1.16458e-12
0
0
0
0
0
0
0
0
0
0
0
0
0
0
0
2.72848e-16
1.41699e-13
1.61188e-11
1.73619e-10
7.82887e-11
1.23718e-11
6.53917e-13
1.39153e-14
2.13731e-14
6.73026e-15
0
0
0
0
0
0
0
0
0
0
0
0
0
0
0
0
0
0
0
0
0
0
0
0
0
0
0
0
0
0
0
0
0
0
0
0
0
0
0
0
0
0
0
0
0
0
0
0
0
0
0
0
0
0
0
0
0
0
0
0
0
0
0
0
0
0
0
0
0
0
0
0
0
0
0
0
0
0
0
0
0
0
0
0
0
0
0
0
0
0
0
0
0
0
0
0
0
0
0
0
0
0
0
0
0
0
0
0
0
0
0
0
0
0
0
0
0
0
0
0
0
0
0
0
0
0
0
0
0
0
0
0
0
0
0
0
0
0
0
0
0
0
0
0
0
0
0
0
0
0
0
0
0
0
0
0
0
0
0
0
0
0
0
0
0
0
0
0
5.91172e-15
5.26597e-14
8.15817e-14
2.43745e-14
7.27596e-16
0
0
0
0
0
0
0
0
0
0
0
0
0
0
0
0
0
0
1.27329e-15
7.54881e-14
7.25403e-13
3.66684e-12
5.44397e-12
1.97603e-12
3.02225e-13
1.75532e-14
0
0
0
0
0
0
0
0
0
0
0
0
0
0
0
0
6.73026e-15
3.06954e-13
5.75398e-12
4.5651e-11
2.31864e-10
3.44536e-10
1.21404e-10
1.97479e-11
1.80128e-12
7.42148e-14
0
0
0
0
0
0
0
0
0
0
0
0
0
0
1.14596e-14
7.11952e-13
2.19584e-11
3.39496e-10
2.96739e-09
1.51606e-08
1.89478e-08
7.55272e-09
1.20398e-09
1.38066e-10
6.11533e-12
0
0
0
0
0
0
0
0
0
0
0
0
0
1.17325e-14
9.54424e-13
5.41085e-11
1.68168e-09
7.72257e-09
1.05141e-07
1.03669e-06
1.6976e-06
9.3283e-07
1.22648e-07
6.59458e-09
4.08918e-10
0
0
0
0
0
0
0
0
0
0
0
0
6.91216e-15
8.12634e-13
6.0436e-11
2.66094e-09
2.70427e-08
1.50469e-06
0.00369094
0.175026
0.506671
0.23647
0.00905849
6.56329e-06
2.18072e-08
0
0
0
0
0
0
0
0
0
0
0
1.54614e-15
4.00087e-13
3.18741e-11
2.03068e-09
2.94408e-08
1.53619e-05
6.49872
156.016
261.165
291.561
266.438
174.148
21.529
0.000240095
0
0
0
0
0
0
0
0
0
0
0
1.01227e-13
7.78448e-12
4.95058e-10
1.05542e-08
4.5349e-06
13.061
325.524
472.972
435.002
378.521
399.748
463.374
370.326
56.6082
0
0
0
0
0
0
0
0
0
0
1.24601e-14
1.31089e-12
1.02286e-10
5.37671e-09
3.83994e-07
0.0410763
217.363
490.305
468.704
402.245
348.747
368.216
436.874
501.622
315.382
0
0
0
0
0
0
0
0
0
0
8.44921e-14
6.80414e-12
4.76866e-10
1.96394e-08
2.53771e-06
3.37911
328.201
436.98
419.068
516.711
712.081
591.213
424.167
405.709
409.89
0
0
0
0
0
0
0
0
0
0
1.31058e-13
9.80878e-12
6.65543e-10
2.76286e-08
4.44209e-06
8.0798
352.459
373.541
357.372
693.02
3485.71
1193.92
401.508
338.67
432.459
0
0
0
0
0
0
0
0
0
0
6.28461e-14
4.79811e-12
3.23273e-10
1.25242e-08
2.36383e-06
4.1082
328.507
381.29
360.456
591.499
1717.47
885.774
525.551
798.885
866.086
0
0
0
0
0
0
0
0
0
0
0
1.67074e-13
1.10104e-11
4.21333e-10
5.41413e-07
0.303648
261.229
463.299
417.654
524.436
410.943
0
0
0
0
0
0
0
8.00355e-15
8.81117e-12
3.29398e-08
0.000982598
113.064
443.203
485.724
355.57
27.3245
0
0
0
0
0
0
0
354.269
252.594
15.6701
6.30488e-05
1.40387e-08
3.92911e-06
3.33322e-05
0
0
0
0
0
0
0
0
0
0
0
0
13.1287
3.64893
0.00038432
1.70978e-08
2.50711e-10
1.75848e-09
7.62962e-10
0
0
0
0
0
0
0
0
0
0
0
0
0
0
0
0
2.82398e-12
1.94773e-08
3.12904e-06
6.28713e-07
9.76301e-09
3.51243e-10
9.78589e-12
1.95117e-11
1.06631e-11
0
0
0
0
0
0
0
0
0
0
0
0
0
0
0
2.27374e-15
5.30781e-13
5.48994e-11
1.2095e-09
9.80245e-10
2.01897e-10
8.0042e-12
2.24918e-13
2.01999e-13
1.46429e-13
0
0
0
0
0
0
0
0
0
0
0
0
0
0
0
0
1.10958e-14
9.88075e-13
1.91836e-11
1.77713e-11
3.93096e-12
1.47156e-13
7.27596e-16
3.63798e-16
0
0
0
0
0
0
0
0
0
0
0
0
0
0
0
0
0
0
0
0
0
0
0
0
0
0
0
0
0
0
0
0
0
0
0
0
0
0
0
0
0
0
0
0
0
0
0
0
0
0
0
0
0
0
0
0
0
0
0
0
0
0
0
0
0
0
0
0
0
0
0
0
0
0
0
0
0
0
0
0
0
0
0
0
0
0
0
0
0
0
0
0
0
0
0
0
0
0
0
0
0
0
0
0
0
0
0
0
0
0
0
0
0
0
0
0
0
0
0
0
0
0
0
0
0
0
0
0
0
0
0
0
0
0
0
0
0
0
0
0
0
0
0
0
0
0
0
0
0
0
0
0
0
0
0
0
0
0
0
0
0
0
0
0
0
0
0
0
0
0
1.45519e-15
5.36602e-15
3.63798e-16
0
0
0
0
0
0
0
0
0
0
0
0
0
0
0
0
0
0
0
0
3.72893e-15
7.87622e-14
4.31828e-13
8.06095e-13
2.66209e-13
3.13776e-14
0
0
0
0
0
0
0
0
0
0
0
0
0
0
0
0
0
0
1.92813e-14
5.47425e-13
6.37406e-12
2.88543e-11
5.20234e-11
1.8697e-11
3.23987e-12
1.66165e-13
2.27374e-15
0
0
0
0
0
0
0
0
0
0
0
0
0
0
0
4.92946e-14
2.01159e-12
4.59131e-11
3.94484e-10
1.60417e-09
2.88154e-09
1.04453e-09
2.51554e-10
1.19972e-11
4.50382e-13
0
0
0
0
0
0
0
0
0
0
0
0
0
0
5.98448e-14
3.92618e-12
1.58851e-10
2.90865e-09
1.11251e-08
6.2612e-08
1.50275e-07
6.19738e-08
1.091e-08
7.5539e-10
2.95683e-11
0
0
0
0
0
0
0
0
0
0
0
0
0
5.7571e-14
4.32581e-12
2.75406e-10
5.53413e-09
6.49869e-08
2.26303e-06
0.000168198
0.00085199
0.00036388
8.36001e-06
7.61556e-08
1.76704e-09
0
0
0
0
0
0
0
0
0
0
0
0
2.73758e-14
2.84837e-12
2.22519e-10
7.38718e-09
1.87896e-07
0.000137596
4.27997
68.4078
103.863
84.8707
18.6641
0.00589528
2.40322e-07
0
0
0
0
0
0
0
0
0
0
0
8.00355e-15
9.45056e-13
7.98556e-11
4.14305e-09
9.0717e-08
0.000237389
55.9785
293.171
380.955
391.919
387.34
333.957
143.545
0.0305872
0
0
0
0
0
0
0
0
0
0
0
1.46156e-13
1.04117e-11
6.23717e-10
1.49367e-08
5.24436e-06
13.6024
312.93
455.458
427.063
396.081
405.236
437.455
389.107
100.976
0
0
0
0
0
0
0
0
0
0
3.81988e-15
6.93752e-13
4.453e-11
2.77205e-09
1.4249e-07
0.00196931
121.241
399.71
437.278
422.998
381.455
400.828
429.523
421.023
252.771
0
0
0
0
0
0
0
0
0
0
9.91349e-15
1.18496e-12
7.32219e-11
4.33948e-09
3.29489e-07
0.0106944
161.162
401.29
399.989
376.943
327.421
343.147
389.301
392.222
296.281
0
0
0
0
0
0
0
0
0
0
1.45519e-15
4.50382e-13
2.90829e-11
1.39099e-09
1.11757e-07
0.00325279
130.494
389.307
395.812
381.343
367.646
404.896
531.059
783.424
504.278
0
0
0
0
0
0
0
0
0
0
0
1.18234e-14
1.19295e-12
4.02703e-11
7.32042e-09
3.3436e-05
37.5932
344.379
445.356
478.541
237.713
0
0
0
0
0
0
0
0
1.17507e-13
1.67256e-10
1.69657e-07
0.0261582
173.866
394.622
351.872
0.114349
0
0
0
0
0
0
0
0
0
4.54747e-15
1.07805e-11
5.28311e-08
0.119959
102.097
106.614
0.486994
8.85833e-07
8.52713e-10
9.39501e-08
6.28798e-08
0
0
0
0
0
0
0
0
0
0
0
0
0
0
0
0
3.7744e-14
2.2617e-08
0.000709618
0.00209027
8.33551e-07
1.32797e-09
2.22603e-11
5.87005e-11
1.2289e-10
0
0
0
0
0
0
0
0
0
0
0
0
0
0
0
0
8.18545e-15
4.0818e-11
7.52926e-09
8.01307e-09
1.37143e-09
3.41125e-11
7.29415e-13
5.88443e-13
1.53123e-12
0
0
0
0
0
0
0
0
0
0
0
0
0
0
0
0
1.69166e-14
2.23008e-12
8.19803e-11
1.07946e-10
2.5902e-11
6.92671e-13
9.27685e-15
3.91083e-15
1.17325e-14
0
0
0
0
0
0
0
0
0
0
0
0
0
0
0
0
0
2.43745e-14
9.08949e-13
1.63332e-12
3.94721e-13
7.82165e-15
0
0
0
0
0
0
0
0
0
0
0
0
0
0
0
0
0
0
0
0
0
0
0
0
0
0
0
0
0
0
0
0
0
0
0
0
0
0
0
0
0
0
0
0
0
0
0
0
0
0
0
0
0
0
0
0
0
0
0
0
0
0
0
0
0
0
0
0
0
0
0
0
0
0
0
0
0
0
0
0
0
0
0
0
0
0
0
0
0
0
0
0
0
0
0
0
0
0
0
0
0
0
0
0
0
0
0
0
0
0
0
0
0
0
0
0
0
0
0
0
0
0
0
0
0
0
0
0
0
0
0
0
0
0
0
0
0
0
0
0
0
0
0
0
0
0
0
0
0
0
0
0
0
0
0
0
0
0
0
0
0
0
0
0
0
0
0
0
0
0
0
0
0
0
0
0
0
0
0
0
0
0
0
0
0
0
0
0
0
0
0
0
0
0
0
0
7.27596e-16
1.48248e-14
3.21961e-14
7.54881e-15
0
0
0
0
0
0
0
0
0
0
0
0
0
0
0
0
0
0
0
0
1.63709e-14
2.53658e-13
1.29643e-12
2.48406e-12
8.59371e-13
1.33969e-13
4.72937e-15
0
0
0
0
0
0
0
0
0
0
0
0
0
0
0
0
9.09495e-17
7.0122e-14
1.92855e-12
1.68932e-11
7.84209e-11
1.49475e-10
5.38768e-11
1.06201e-11
5.72072e-13
1.2551e-14
0
0
0
0
0
0
0
0
0
0
0
0
0
0
2.72848e-16
1.25237e-13
5.83446e-12
1.62192e-10
9.79389e-10
4.81125e-09
8.9448e-09
3.23729e-09
6.69754e-10
3.93221e-11
1.24983e-12
0
0
0
0
0
0
0
0
0
0
0
0
0
9.09495e-17
1.24055e-13
8.44116e-12
4.15567e-10
6.9914e-09
2.64568e-08
2.48873e-07
6.91627e-07
3.16833e-07
3.81737e-08
2.85083e-09
7.98035e-11
0
0
0
0
0
0
0
0
0
0
0
0
0
8.24002e-14
6.74468e-12
4.57042e-10
1.00733e-08
2.31328e-07
2.20844e-05
0.00756016
0.0565313
0.0246399
0.000311778
4.5106e-07
4.59055e-09
0
0
0
0
0
0
0
0
0
0
0
0
2.85581e-14
2.55701e-12
1.96483e-10
6.78486e-09
3.21737e-07
0.00063801
16.1132
117.765
166.404
147.838
57.4472
0.065386
6.58465e-07
0
0
0
0
0
0
0
0
0
0
0
1.63709e-15
4.01178e-13
2.54117e-11
1.58545e-09
4.8909e-08
6.61625e-05
24.9831
239.449
339.35
366.362
358.978
300.415
113.189
0.0146772
0
0
0
0
0
0
0
0
0
0
0
2.6921e-14
2.23305e-12
1.52496e-10
1.10924e-08
8.14984e-07
0.0522352
148.513
341.588
366.947
338.328
349.531
375.138
258.825
8.93531
0
0
0
0
0
0
0
0
0
0
0
4.97494e-14
3.52637e-12
2.32541e-10
1.68773e-08
2.58963e-06
0.374334
193.67
360.778
329.989
287.039
301.391
361.394
297.011
24.7376
0
0
0
0
0
0
0
0
0
0
0
1.48248e-14
1.29228e-12
8.14761e-11
4.9853e-09
7.34709e-07
0.105048
163.747
356.844
418.07
495.332
591.608
688.884
545.488
131.364
0
0
0
0
0
0
0
0
0
0
0
2.72848e-16
2.59024e-13
1.88233e-11
7.70189e-10
5.79897e-08
0.000705642
64.4559
323.58
395.191
119.289
122.164
113.164
76.9716
18.1685
0
0
0
0
0
0
0
9.09495e-16
3.37786e-13
1.80828e-11
1.0062e-09
6.70697e-07
0.123492
125.494
196.741
3.50581
0.291746
0.0576376
0.00162657
8.25298e-06
0
0
0
0
0
0
0
0
0
7.54881e-15
1.22027e-12
9.04645e-10
8.53985e-07
0.0148926
0.189702
9.81735e-05
1.45854e-06
3.21692e-07
8.5521e-09
1.86499e-10
0
0
0
0
0
0
0
0
0
0
0
0
0
0
0
0
5.26325e-13
4.2631e-10
9.77133e-08
1.67873e-07
3.41276e-09
5.19572e-10
4.46174e-11
1.15688e-12
2.24354e-12
0
0
0
0
0
0
0
0
0
0
0
0
0
0
0
0
6.73936e-14
9.41891e-12
4.17688e-10
4.54079e-10
5.32349e-11
5.87424e-12
3.93538e-13
8.8221e-15
2.04636e-14
0
0
0
0
0
0
0
0
0
0
0
0
0
0
0
0
9.09495e-17
1.23782e-13
4.55818e-12
6.19935e-12
8.20455e-13
5.9481e-14
2.00089e-15
0
0
0
0
0
0
0
0
0
0
0
0
0
0
0
0
0
0
0
9.09495e-17
3.97449e-14
7.17591e-14
8.54925e-15
0
0
0
0
0
0
0
0
0
0
0
0
0
0
0
0
0
0
0
0
0
0
0
0
0
0
0
0
0
0
0
0
0
0
0
0
0
0
0
0
0
0
0
0
0
0
0
0
0
0
0
0
0
0
0
0
0
0
0
0
0
0
0
0
0
0
0
0
0
0
0
0
0
0
0
0
0
0
0
0
0
0
0
0
0
0
0
0
0
0
0
0
0
0
0
0
0
0
0
0
0
0
0
0
0
0
0
0
0
0
0
0
0
0
0
0
0
0
0
0
0
0
0
0
0
0
0
0
0
0
0
0
0
0
0
0
0
0
0
0
0
0
0
0
0
0
0
0
0
0
0
0
0
0
0
0
0
0
0
0
0
0
0
0
0
0
0
0
0
0
0
0
0
0
0
0
0
0
0
0
0
0
0
0
0
0
0
0
0
0
0
0
0
0
0
0
0
0
0
0
0
0
0
0
0
0
0
0
0
0
0
0
0
0
0
0
0
0
0
0
0
0
2.36469e-15
2.81034e-14
5.78439e-14
1.84627e-14
7.27596e-16
0
0
0
0
0
0
0
0
0
0
0
0
0
0
0
0
0
0
0
3.43789e-14
4.08272e-13
2.04155e-12
3.67093e-12
1.32043e-12
2.2219e-13
7.27596e-15
0
0
0
0
0
0
0
0
0
0
0
0
0
0
0
0
2.72848e-16
9.84073e-14
2.60446e-12
2.32536e-11
1.12437e-10
1.93936e-10
7.18204e-11
1.39701e-11
7.79983e-13
2.26464e-14
0
0
0
0
0
0
0
0
0
0
0
0
0
0
7.27596e-16
1.36151e-13
6.36828e-12
1.70507e-10
1.163e-09
6.15162e-09
1.01591e-08
3.89753e-09
6.92113e-10
4.28705e-11
1.36497e-12
0
0
0
0
0
0
0
0
0
0
0
0
0
9.09495e-17
1.08412e-13
6.8505e-12
3.28986e-10
4.36529e-09
2.52706e-08
2.76296e-07
6.55083e-07
3.46386e-07
3.4348e-08
1.99057e-09
6.31915e-11
0
0
0
0
0
0
0
0
0
0
0
0
0
4.15639e-14
3.20228e-12
2.03611e-10
5.51693e-09
8.98876e-08
4.92269e-06
0.000913075
0.0059794
0.00290678
6.03335e-05
1.65786e-07
1.5372e-09
0
0
0
0
0
0
0
0
0
0
0
0
6.18456e-15
5.90353e-13
3.17053e-11
1.58916e-09
4.0528e-08
9.34418e-06
0.0767013
5.53529
15.5883
10.1233
0.815396
0.000516049
7.31941e-08
0
0
0
0
0
0
0
0
0
0
0
0
4.93856e-14
3.56212e-12
2.20699e-10
1.07783e-08
5.70384e-07
0.00298161
7.42692
50.4185
80.6819
65.0375
22.9858
0.137781
1.97123e-06
0
0
0
0
0
0
0
0
0
0
0
0
9.1768e-14
5.65644e-12
3.43559e-10
1.69169e-08
1.66448e-06
0.0167901
17.6076
77.6222
118.845
102.189
41.1785
0.524951
1.02932e-05
0
0
0
0
0
0
0
0
0
0
0
0
2.71029e-14
1.88245e-12
1.01283e-10
5.34884e-09
5.24267e-07
0.00586835
11.9246
112.005
222.208
229.353
144.294
17.4918
0.000619272
0
0
0
0
0
0
0
0
0
0
0
0
3.63798e-15
4.5884e-13
2.09635e-11
7.41979e-10
4.73987e-08
8.95106e-05
1.91312
71.8921
124.411
124.943
48.6794
0.371304
6.74265e-06
0
0
0
0
0
0
0
0
0
0
0
0
0
7.9126e-15
6.10908e-13
2.85982e-11
1.96001e-09
1.89481e-07
0.000900433
0.0597754
0.00894333
0.00683381
0.000210397
2.71089e-07
3.69376e-10
0
0
0
0
0
0
0
0
0
0
0
0
0
0
6.63931e-15
4.43561e-13
2.51496e-11
1.76984e-09
8.52754e-08
2.61574e-07
5.84777e-08
2.2242e-08
1.33362e-09
3.94689e-11
4.74802e-12
0
0
0
0
0
0
0
0
0
0
0
0
0
0
0
3.09228e-15
3.51974e-13
2.09991e-11
5.2898e-10
9.47975e-10
4.15431e-10
1.42879e-10
1.24318e-11
3.62979e-13
5.12046e-14
0
0
0
0
0
0
0
0
0
0
0
0
0
0
0
0
2.45564e-15
2.88946e-13
7.54357e-12
1.32293e-11
4.47431e-12
1.32459e-12
1.08048e-13
9.09495e-16
0
0
0
0
0
0
0
0
0
0
0
0
0
0
0
0
0
0
1.00044e-15
8.55835e-14
1.55069e-13
4.39286e-14
9.64064e-15
0
0
0
0
0
0
0
0
0
0
0
0
0
0
0
0
0
0
0
0
0
0
9.09495e-17
0
0
0
0
0
0
0
0
0
0
0
0
0
0
0
0
0
0
0
0
0
0
0
0
0
0
0
0
0
0
0
0
0
0
0
0
0
0
0
0
0
0
0
0
0
0
0
0
0
0
0
0
0
0
0
0
0
0
0
0
0
0
0
0
0
0
0
0
0
0
0
0
0
0
0
0
0
0
0
0
0
0
0
0
0
0
0
0
0
0
0
0
0
0
0
0
0
0
0
0
0
0
0
0
0
0
0
0
0
0
0
0
0
0
0
0
0
0
0
0
0
0
0
0
0
0
0
0
0
0
0
0
0
0
0
0
0
0
0
0
0
0
0
0
0
0
0
0
0
0
0
0
0
0
0
0
0
0
0
0
0
0
0
0
0
0
0
0
0
0
0
0
0
0
0
0
0
0
0
0
0
0
0
0
0
0
0
0
0
0
0
0
0
0
0
0
0
0
0
0
0
0
0
0
0
0
0
0
0
0
0
0
0
0
0
0
0
0
0
0
0
0
0
0
0
0
0
0
0
0
0
0
0
0
0
0
0
0
0
0
0
0
0
0
0
0
0
0
3.27418e-15
3.26509e-14
5.88443e-14
1.89175e-14
1.27329e-15
0
0
0
0
0
0
0
0
0
0
0
0
0
0
0
0
0
0
0
3.0559e-14
4.09545e-13
1.99362e-12
3.34734e-12
1.23885e-12
2.16733e-13
7.27596e-15
0
0
0
0
0
0
0
0
0
0
0
0
0
0
0
0
9.09495e-17
7.82165e-14
2.04151e-12
1.89535e-11
8.7879e-11
1.39161e-10
5.35634e-11
1.06896e-11
6.18729e-13
1.80989e-14
0
0
0
0
0
0
0
0
0
0
0
0
0
0
0
7.69433e-14
3.78712e-12
8.57852e-11
6.53402e-10
2.61839e-09
3.69666e-09
1.5087e-09
3.51045e-10
2.3862e-11
8.38008e-13
0
0
0
0
0
0
0
0
0
0
0
0
0
0
3.51974e-14
2.37688e-12
1.0188e-10
1.55926e-09
1.17904e-08
5.20701e-08
1.17688e-07
6.31007e-08
7.44068e-09
4.57561e-10
1.99669e-11
0
0
0
0
0
0
0
0
0
0
0
0
0
5.91172e-15
5.34146e-13
2.31541e-11
7.09799e-10
1.20813e-08
2.31314e-07
2.87002e-06
7.82776e-06
3.67978e-06
3.32806e-07
8.12958e-09
2.49151e-10
0
0
0
0
0
0
0
0
0
0
0
0
0
5.91172e-14
3.33432e-12
1.58768e-10
3.96731e-09
8.20762e-08
3.31502e-06
7.97068e-05
0.00032561
0.000152786
9.14298e-06
8.42079e-08
1.03485e-09
0
0
0
0
0
0
0
0
0
0
0
0
0
1.00135e-13
5.43492e-12
2.52648e-10
6.49166e-09
1.80158e-07
9.59078e-06
0.000322399
0.00145461
0.000738148
3.74437e-05
1.31629e-07
1.17227e-09
0
0
0
0
0
0
0
0
0
0
0
0
0
3.21052e-14
1.71009e-12
7.34031e-11
2.00378e-09
7.52379e-08
4.9472e-06
0.000458384
0.0110303
0.0101123
0.000668734
1.43616e-06
1.47405e-09
0
0
0
0
0
0
0
0
0
0
0
0
0
3.54703e-15
3.07682e-13
1.14838e-11
3.35315e-10
8.8995e-09
6.36082e-07
9.91936e-05
0.00153787
0.00123585
3.40267e-05
4.88638e-08
2.32427e-10
0
0
0
0
0
0
0
0
0
0
0
0
0
0
5.54792e-15
4.64843e-13
2.02963e-11
5.48962e-10
1.09699e-08
6.15502e-08
8.84001e-08
4.35675e-08
1.7717e-09
8.19911e-11
4.79613e-12
0
0
0
0
0
0
0
0
0
0
0
0
0
0
0
9.004e-15
4.29463e-13
1.83693e-11
3.27154e-10
8.22701e-10
6.62618e-10
2.68762e-10
2.30509e-11
1.09721e-12
6.99401e-14
0
0
0
0
0
0
0
0
0
0
0
0
0
0
0
0
6.91216e-15
3.24962e-13
6.79605e-12
1.44375e-11
8.44621e-12
3.08529e-12
2.73667e-13
9.3678e-15
0
0
0
0
0
0
0
0
0
0
0
0
0
0
0
0
0
0
2.72848e-15
1.00954e-13
1.99816e-13
9.64974e-14
2.80124e-14
5.45697e-16
0
0
0
0
0
0
0
0
0
0
0
0
0
0
0
0
0
0
0
0
0
7.27596e-16
0
0
0
0
0
0
0
0
0
0
0
0
0
0
0
0
0
0
0
0
0
0
0
0
0
0
0
0
0
0
0
0
0
0
0
0
0
0
0
0
0
0
0
0
0
0
0
0
0
0
0
0
0
0
0
0
0
0
0
0
0
0
0
0
0
0
0
0
0
0
0
0
0
0
0
0
0
0
0
0
0
0
0
0
0
0
0
0
0
0
0
0
0
0
0
0
0
0
0
0
0
0
0
0
0
0
0
0
0
0
0
0
0
0
0
0
0
0
0
0
0
0
0
0
0
0
0
0
0
0
0
0
0
0
0
0
0
0
0
0
0
0
0
0
0
0
0
0
0
0
0
0
0
0
0
0
0
0
0
0
0
0
0
0
0
0
0
0
0
0
0
0
0
0
0
0
0
0
0
0
0
0
0
0
0
0
0
0
0
0
0
0
0
0
0
0
0
0
0
0
0
0
0
0
0
0
0
0
0
0
0
0
0
0
0
0
0
0
0
0
0
0
0
0
0
0
0
0
0
0
0
0
0
0
0
0
0
0
0
0
0
0
0
0
0
0
0
0
0
0
0
0
0
0
0
0
0
0
0
0
0
0
0
0
0
0
0
0
0
0
0
0
0
0
0
0
0
0
0
0
0
0
0
0
0
0
0
0
0
0
0
0
0
0
0
0
0
0
2.63753e-15
2.6921e-14
4.66571e-14
1.48248e-14
2.72848e-16
0
0
0
0
0
0
0
0
0
0
0
0
0
0
0
0
0
0
0
1.69166e-14
2.68665e-13
1.29816e-12
2.02202e-12
7.6151e-13
1.32331e-13
4.82032e-15
0
0
0
0
0
0
0
0
0
0
0
0
0
0
0
0
0
3.64707e-14
9.3678e-13
9.50713e-12
3.92007e-11
5.51707e-11
2.26082e-11
4.75401e-12
2.98496e-13
5.54792e-15
0
0
0
0
0
0
0
0
0
0
0
0
0
0
0
2.27374e-14
1.01836e-12
1.86198e-11
2.41382e-10
6.81633e-10
1.05318e-09
4.76423e-10
1.11654e-10
6.02912e-12
2.52658e-13
0
0
0
0
0
0
0
0
0
0
0
0
0
0
3.36513e-15
3.22507e-13
1.03546e-11
2.46295e-10
1.15065e-09
4.54357e-09
7.43889e-09
2.65321e-09
5.6548e-10
8.52126e-11
3.36493e-12
0
0
0
0
0
0
0
0
0
0
0
0
0
0
4.10182e-14
2.01277e-12
5.41332e-11
8.03658e-10
4.75055e-09
2.03355e-08
3.38914e-08
1.22016e-08
2.53025e-09
3.48795e-10
1.5708e-11
0
0
0
0
0
0
0
0
0
0
0
0
0
0
7.80346e-14
3.37093e-12
9.29535e-11
1.36921e-09
8.4368e-09
3.88235e-08
4.89862e-08
1.75938e-08
2.44988e-09
3.95495e-10
1.85169e-11
0
0
0
0
0
0
0
0
0
0
0
0
0
0
2.21917e-14
1.04079e-12
2.94344e-11
4.98835e-10
3.42561e-09
2.23404e-08
8.33103e-08
3.81137e-08
3.35366e-09
2.41588e-10
1.54414e-11
0
0
0
0
0
0
0
0
0
0
0
0
0
0
1.27329e-15
1.47702e-13
4.77114e-12
1.25455e-10
7.92455e-10
3.5723e-09
7.35391e-09
3.24098e-09
4.69982e-10
6.42214e-11
2.98096e-12
0
0
0
0
0
0
0
0
0
0
0
0
0
0
0
3.54703e-15
2.44654e-13
7.11237e-12
1.06584e-10
3.121e-10
4.27781e-10
1.83638e-10
1.74724e-11
1.18362e-12
5.98448e-14
0
0
0
0
0
0
0
0
0
0
0
0
0
0
0
0
2.45564e-15
2.09729e-13
3.6388e-12
9.41907e-12
7.94854e-12
3.12263e-12
3.06773e-13
1.28239e-14
0
0
0
0
0
0
0
0
0
0
0
0
0
0
0
0
0
0
1.90994e-15
7.29415e-14
1.64255e-13
1.20326e-13
4.1473e-14
1.90994e-15
0
0
0
0
0
0
0
0
0
0
0
0
0
0
0
0
0
0
0
0
0
7.27596e-16
0
0
0
0
0
0
0
0
0
0
0
0
0
0
0
0
0
0
0
0
0
0
0
0
0
0
0
0
0
0
0
0
0
0
0
0
0
0
0
0
0
0
0
0
0
0
0
0
0
0
0
0
0
0
0
0
0
0
0
0
0
0
0
0
0
0
0
0
0
0
0
0
0
0
0
0
0
0
0
0
0
0
0
0
0
0
0
0
0
0
0
0
0
0
0
0
0
0
0
0
0
0
0
0
0
0
0
0
0
0
0
0
0
0
0
0
0
0
0
0
0
0
0
0
0
0
0
0
0
0
0
0
0
0
0
0
0
0
0
0
0
0
0
0
0
0
0
0
0
0
0
0
0
0
0
0
0
0
0
0
0
0
0
0
0
0
0
0
0
0
0
0
0
0
0
0
0
0
0
0
0
0
0
0
0
0
0
0
0
0
0
0
0
0
0
0
0
0
0
0
0
0
0
0
0
0
0
0
0
0
0
0
0
0
0
0
0
0
0
0
0
0
0
0
0
0
0
0
0
0
0
0
0
0
0
0
0
0
0
0
0
0
0
0
0
0
0
0
0
0
0
0
0
0
0
0
0
0
0
0
0
0
0
0
0
0
0
0
0
0
0
0
0
0
0
0
0
0
0
0
0
0
0
0
0
0
0
0
0
0
0
0
0
0
0
0
0
0
0
0
0
0
0
0
0
0
0
0
0
0
0
0
0
0
0
0
0
0
0
0
0
0
0
0
0
0
0
0
0
0
0
0
0
0
0
0
0
0
0
0
0
0
0
0
0
0
0
0
7.27596e-16
1.18234e-14
2.23736e-14
6.00267e-15
0
0
0
0
0
0
0
0
0
0
0
0
0
0
0
0
0
0
0
0
6.63931e-15
1.05229e-13
5.18321e-13
7.63935e-13
3.00497e-13
4.59295e-14
7.27596e-16
0
0
0
0
0
0
0
0
0
0
0
0
0
0
0
0
0
6.73026e-15
2.09002e-13
2.63004e-12
1.01657e-11
1.5807e-11
6.6875e-12
1.17337e-12
6.45741e-14
3.63798e-16
0
0
0
0
0
0
0
0
0
0
0
0
0
0
0
1.27329e-15
1.26056e-13
2.87498e-12
1.87276e-11
7.12918e-11
1.23694e-10
4.49109e-11
9.6135e-12
8.26872e-13
3.13776e-14
0
0
0
0
0
0
0
0
0
0
0
0
0
0
0
2.21917e-14
7.07405e-13
1.23321e-11
7.31065e-11
3.0187e-10
5.10948e-10
1.82878e-10
4.02445e-11
4.30778e-12
1.91085e-13
0
0
0
0
0
0
0
0
0
0
0
0
0
0
0
3.88354e-14
1.28063e-12
2.18187e-11
1.43364e-10
6.05273e-10
7.08517e-10
2.3836e-10
3.65866e-11
5.21478e-12
2.3374e-13
0
0
0
0
0
0
0
0
0
0
0
0
0
0
0
9.54969e-15
3.99996e-13
7.48293e-12
5.30958e-11
2.95879e-10
6.5325e-10
2.46358e-10
3.56289e-11
3.13019e-12
1.47975e-13
0
0
0
0
0
0
0
0
0
0
0
0
0
0
0
0
4.98403e-14
1.31617e-12
1.19351e-11
4.85217e-11
8.84535e-11
3.72518e-11
5.85647e-12
6.86214e-13
2.53749e-14
0
0
0
0
0
0
0
0
0
0
0
0
0
0
0
0
2.72848e-16
7.65795e-14
1.03633e-12
3.33404e-12
4.37412e-12
1.7765e-12
2.00998e-13
9.09495e-15
0
0
0
0
0
0
0
0
0
0
0
0
0
0
0
0
0
0
3.63798e-16
3.17414e-14
9.46784e-14
9.04947e-14
2.85581e-14
1.00044e-15
0
0
0
0
0
0
0
0
0
0
0
0
0
0
0
0
0
0
0
0
0
9.09495e-17
0
0
0
0
0
0
0
0
0
0
0
0
0
0
0
0
0
0
0
0
0
0
0
0
0
0
0
0
0
0
0
0
0
0
0
0
0
0
0
0
0
0
0
0
0
0
0
0
0
0
0
0
0
0
0
0
0
0
0
0
0
0
0
0
0
0
0
0
0
0
0
0
0
0
0
0
0
0
0
0
0
0
0
0
0
0
0
0
0
0
0
0
0
0
0
0
0
0
0
0
0
0
0
0
0
0
0
0
0
0
0
0
0
0
0
0
0
0
0
0
0
0
0
0
0
0
0
0
0
0
0
0
0
0
0
0
0
0
0
0
0
0
0
0
0
0
0
0
0
0
0
0
0
0
0
0
0
0
0
0
0
0
0
0
0
0
0
0
0
0
0
0
0
0
0
0
0
0
0
0
0
0
0
0
0
0
0
0
0
0
0
0
0
0
0
0
0
0
0
0
0
0
0
0
0
0
0
0
0
0
0
0
0
0
0
0
0
0
0
0
0
0
0
0
0
0
0
0
0
0
0
0
0
0
0
0
0
0
0
0
0
0
0
0
0
0
0
0
0
0
0
0
0
0
0
0
0
0
0
0
0
0
0
0
0
0
0
0
0
0
0
0
0
0
0
0
0
0
0
0
0
0
0
0
0
0
0
0
0
0
0
0
0
0
0
0
0
0
0
0
0
0
0
0
0
0
0
0
0
0
0
0
0
0
0
0
0
0
0
0
0
0
0
0
0
0
0
0
0
0
0
0
0
0
0
0
0
0
0
0
0
0
0
0
0
0
0
0
0
0
0
0
0
0
0
0
0
0
0
0
0
0
0
0
0
0
0
0
0
0
0
0
0
0
0
0
0
0
0
0
0
0
0
0
0
0
0
0
0
0
0
0
0
0
0
0
0
0
0
2.63753e-15
3.81988e-15
3.63798e-16
0
0
0
0
0
0
0
0
0
0
0
0
0
0
0
0
0
0
0
0
0
2.18279e-14
1.20144e-13
1.9445e-13
7.32143e-14
6.73026e-15
0
0
0
0
0
0
0
0
0
0
0
0
0
0
0
0
0
0
0
2.32831e-14
2.64572e-13
1.08731e-12
1.9578e-12
7.09719e-13
1.28239e-13
5.00222e-15
0
0
0
0
0
0
0
0
0
0
0
0
0
0
0
0
0
4.63842e-15
1.5043e-13
1.14076e-12
4.62088e-12
7.82198e-12
2.81172e-12
5.74609e-13
4.16549e-14
0
0
0
0
0
0
0
0
0
0
0
0
0
0
0
0
0
1.15506e-14
2.85763e-13
2.35599e-12
9.51637e-12
1.06268e-11
3.43949e-12
5.41766e-13
4.93856e-14
0
0
0
0
0
0
0
0
0
0
0
0
0
0
0
0
0
1.27329e-15
8.96762e-14
7.9509e-13
3.71072e-12
7.01531e-12
2.52961e-12
3.97358e-13
2.79215e-14
0
0
0
0
0
0
0
0
0
0
0
0
0
0
0
0
0
0
8.8221e-15
1.50612e-13
6.47681e-13
1.07284e-12
4.27725e-13
6.87578e-14
3.27418e-15
0
0
0
0
0
0
0
0
0
0
0
0
0
0
0
0
0
0
0
6.63931e-15
3.00133e-14
4.19277e-14
1.40062e-14
9.09495e-17
0
0
0
0
0
0
0
0
0
0
0
0
0
0
0
0
0
0
0
0
0
0
0
0
0
0
0
0
0
0
0
0
0
0
0
0
0
0
0
0
0
0
0
0
0
0
0
0
0
0
0
0
0
0
0
0
0
0
0
0
0
0
0
0
0
0
0
0
0
0
0
0
0
0
0
0
0
0
0
0
0
0
0
0
0
0
0
0
0
0
0
0
0
0
0
0
0
0
0
0
0
0
0
0
0
0
0
0
0
0
0
0
0
0
0
0
0
0
0
0
0
0
0
0
0
0
0
0
0
0
0
0
0
0
0
0
0
0
0
0
0
0
0
0
0
0
0
0
0
0
0
0
0
0
0
0
0
0
0
0
0
0
0
0
0
0
0
0
0
0
0
0
0
0
0
0
0
0
0
0
0
0
0
0
0
0
0
0
0
0
0
0
0
0
0
0
0
0
0
0
0
0
0
0
0
0
0
0
0
0
0
0
0
0
0
0
0
0
0
0
0
0
0
0
0
0
0
0
0
0
0
0
0
0
0
0
0
0
0
0
0
0
0
0
0
0
0
0
0
0
0
0
0
0
0
0
0
0
0
0
0
0
0
0
0
0
0
0
0
0
0
0
0
0
0
0
0
0
0
0
0
0
0
0
0
0
0
0
0
0
0
0
0
0
0
0
0
0
0
0
0
0
0
0
0
0
0
0
0
0
0
0
0
0
0
0
0
0
0
0
0
0
0
0
0
0
0
0
0
0
0
0
0
0
0
0
0
0
0
0
0
0
0
0
0
0
0
0
0
0
0
0
0
0
0
0
0
0
0
0
0
0
0
0
0
0
0
0
0
0
0
0
0
0
0
0
0
0
0
0
0
0
0
0
0
0
0
0
0
0
0
0
0
0
0
0
0
0
0
0
0
0
0
0
0
0
0
0
0
0
0
0
0
0
0
0
0
0
0
0
0
0
0
0
0
0
0
0
0
0
0
0
0
0
0
0
0
0
0
0
0
0
0
0
0
0
0
0
0
0
0
0
0
0
0
0
0
0
0
0
0
0
0
0
0
0
0
0
0
0
0
0
0
0
0
0
0
0
0
0
0
0
0
0
0
0
0
0
0
0
0
0
0
0
0
0
7.00311e-15
2.04636e-14
3.54703e-15
0
0
0
0
0
0
0
0
0
0
0
0
0
0
0
0
0
0
0
0
0
8.91305e-15
5.71163e-14
1.0441e-13
3.14685e-14
1.90994e-15
0
0
0
0
0
0
0
0
0
0
0
0
0
0
0
0
0
0
0
0
2.72848e-14
1.31877e-13
1.46883e-13
3.83807e-14
1.27329e-15
0
0
0
0
0
0
0
0
0
0
0
0
0
0
0
0
0
0
0
0
4.54747e-15
3.99268e-14
7.28505e-14
1.83718e-14
2.72848e-16
0
0
0
0
0
0
0
0
0
0
0
0
0
0
0
0
0
0
0
0
0
2.63753e-15
6.00267e-15
5.45697e-16
0
0
0
0
0
0
0
0
0
0
0
0
0
0
0
0
0
0
0
0
0
0
0
0
0
0
0
0
0
0
0
0
0
0
0
0
0
0
0
0
0
0
0
0
0
0
0
0
0
0
0
0
0
0
0
0
0
0
0
0
0
0
0
0
0
0
0
0
0
0
0
0
0
0
0
0
0
0
0
0
0
0
0
0
0
0
0
0
0
0
0
0
0
0
0
0
0
0
0
0
0
0
0
0
0
0
0
0
0
0
0
0
0
0
0
0
0
0
0
0
0
0
0
0
0
0
0
0
0
0
0
0
0
0
0
0
0
0
0
0
0
0
0
0
0
0
0
0
0
0
0
0
0
6698.02
2366.7
1541.24
4254.37
1202.62
679.905
3297.62
642.388
804.417
0
0
0
0
0
0
0
0
0
0
0
0
0
0
0
0
0
1244.36
582.894
405.612
459.808
144.14
394.425
111
0
0
0
0
0
0
0
0
0
0
0
0
0
0
5.45697e-16
0
0
0
0
0
0
7.27332e-12
0
1.05501e-14
3.47427e-14
1.91076e-12
0
1.00044e-15
3.7639e-08
1.80808e-13
5.88895e-11
9.53355e-11
6.61334e-09
2.42835e-14
9.81963e-12
0.106313
1.43504e-09
0.000155895
4.16641e-07
0.000466186
1.26271e-10
3.4375e-07
321.458
0.0131836
176.244
0.0302289
113.385
2.55451e-05
8.73459
725.628
427.762
1191.45
218.127
461.011
78.0949
583.128
112.333
1.02565
52.1579
0.0420427
0.0538189
5.27083e-06
0.00194074
2.51402e-07
2.2868e-07
4.00952e-05
1.59438e-08
6.1527e-06
0
0
0
0
0
0
0
0
0
0
0
0
0
0
0
0
0
0
0
0
0
0
0
0
0
0
0
0
0
0
0
0
0
0
0
0
0
0
0
0
0
0
0
0
630.011
347.981
415.783
141.371
0
0
0
0
0
0
0
0
0
0
0
0
0
0
0
0
0
0
0
0
0
0
0
0
0
0
0
0
0
0
0
0
0
0
0
0
0
0
0
0
0
0
0
0
0
0
0
0
0
0
0
0
0
0
0
0
0
0
0
5.45697e-16
1.16461e-12
0
5.46606e-14
6.5807e-11
1.93884e-05
1.68448e-12
5.41036e-08
217.554
0.00135797
0.280434
48.6648
3.02698e-06
0.00171091
0
0
0
0
0
0
0
0
0
0
0
0
0
0
0
0
0
0
0
0
0
9.09495e-17
0
0
0
0
0
0
7.73507e-12
2.09184e-15
2.77305e-13
8.73115e-15
1.12732e-12
2.72848e-16
4.33829e-14
1.12963e-07
1.75242e-11
1.29731e-09
9.71424e-11
9.63073e-09
2.74695e-12
2.00814e-10
1122.04
432.392
446.326
560.488
450.779
470.248
649.941
490.566
671.319
0
0
0
0
0
0
0
0
0
0
0
0
0
0
0
0
0
373.066
489.63
374.942
360.531
81.9884
265.845
14.6237
0
0
0
0
0
0
0
0
0
0
0
0
0
0
0
0
0
0
0
0
0
1.43518e-13
0
0
2.72848e-16
2.41926e-14
0
0
5.31727e-10
5.09317e-15
1.80116e-12
6.92125e-13
3.10844e-11
0
4.82942e-14
1.47942e-05
3.15808e-11
1.17534e-08
1.2591e-09
5.82503e-08
4.10637e-13
1.35777e-10
34.9329
7.15007e-07
0.217892
1.12193e-06
0.00744056
1.57499e-09
1.38172e-06
386.798
8.71794
331.35
0.370868
150.825
6.09968e-05
3.41845
32.4446
0.012772
10.1218
0.00140651
0.000602782
7.61722e-08
6.06668e-05
1.2213e-08
4.49207e-09
2.6352e-06
7.66036e-10
2.27957e-07
0
0
0
0
0
0
0
0
0
0
0
0
0
0
0
0
0
0
0
0
0
0
0
0
0
0
0
0
0
0
0
0
0
0
0
0
0
0
0
0
0
0
0
0
340.205
54.9528
118.351
0.0666041
0
0
0
0
0
0
0
0
0
0
0
0
0
0
0
0
0
0
0
0
0
0
0
0
0
0
0
0
0
0
0
0
0
0
0
0
0
0
0
0
0
0
0
0
0
0
0
0
0
0
0
0
0
0
0
0
0
0
0
0
1.54614e-15
0
0
7.67614e-14
2.37266e-09
2.09184e-15
7.50324e-12
7.54551
1.33775e-07
7.08681e-05
0.00129796
3.34081e-10
8.02715e-07
0
0
0
0
0
0
0
0
0
0
0
0
0
0
0
0
0
0
0
0
0
0
0
0
0
0
0
0
2.91038e-14
0
1.45519e-15
0
9.09495e-16
0
0
1.8116e-10
1.18234e-13
6.6423e-12
1.55342e-13
6.10398e-12
2.57387e-14
1.17452e-12
386.102
431.916
486.186
486.105
520.499
674.11
734.152
721.509
714.665
0
0
0
0
0
0
0
0
0
0
0
0
0
0
0
0
0
376.286
425.215
322.002
236.94
6.00274
110.858
0.0444429
0
0
0
0
0
0
0
0
0
0
0
0
0
0
5.29824
0.000478974
0.0388375
9.78083e-06
1.90463e-05
2.47682e-09
4.74773e-06
2.26089e-06
1.67761e-10
7.12096e-08
6.63333e-07
2.01425e-07
0
0
0
0
0
0
0
0
0
0
0
0
0
0
0
0
0
0
0
0
0
0
0
0
0
0
0
0
0
0
0
0
0
0
0
0
0
0
0
0
0
0
0
0
0
0
0
0
0
0
0
0
0
0
0
7.93807e-13
0
0
2.63753e-15
1.63618e-13
0
2.00089e-15
1.62428e-09
0
5.32054e-14
8.62847e-12
4.50964e-10
1.8008e-13
8.95225e-12
0.0034308
9.4069e-13
2.99834e-08
2.62417e-08
9.73214e-07
4.57303e-10
2.32896e-08
0
0
0
0
0
0
0
0
0
0
0
0
0
0
0
0
0
0
0
0
0
0
0
0
0
0
0
0
0
0
0
0
0
0
0
0
0
0
0
0
0
0
0
0
0
0
0
0
0
0
0
0
0
0
0
0
0
0
0
0
0
0
0
1.09139e-15
0
0
2.00089e-15
1.68984e-13
0
1.72804e-15
7.61176e-10
0
3.15422e-12
7.96208e-12
3.55838e-10
1.35606e-13
5.8717e-12
0
0
0
0
0
0
0
0
0
0
0
0
0
0
0
0
0
0
0
0
0
0
0
0
0
0
121.772
16.1014
4.71158
197.218
205.205
2.96159
3.08816
116.768
4.18275
1.84262
199.996
154.713
2.37817
0.372198
90.1972
1.17369
0.126666
129.328
34.0462
0.141458
0.00201955
0
0
0
0
0
0
0
0
0
0
0
0
0
0
0
0
0
0
0
0
0
0
0
0
0
0
0
0
0
0
0
0
0
0
0
0
0
0
0
0
0
0
0
0
0
0
0
0
0
0
0
0
0
0
0
0
0
0
0
0
0
0
0
0
0
0
0
0
0
0
0
0
0
0
0
0
0
0
0
0
0
0
0
0
0
0
0
0
0
0
0
0
0
0
0
0
0
0
0
0
0
0
0
0
0
0
0
0
0
0
0
0
0
0
0
0
0
0
0
0
0
0
0
0
0
0
0
0
0
0
0
0
0
0
0
0
0
0
0
0
0
0
0
0
0
0
0
0
0
0
0
0
0
0
0
0
0
0
0
0
0
0
0
0
0
0
0
0
0
0
0
0
0
0
0
0
0
0
0
0
0
0
0
0
0
0
0
0
0
0
0
0
0
0
0
0
0
0
0
0
0
0
0
0
0
0
0
0
0
0
0
0
0
0
0
0
0
0
6366.18
3613.21
652.453
1941.14
649.733
1932.26
831.397
975.394
1119.09
625.756
0
0
0
0
0
0
0
0
0
0
0
0
0
0
0
0
0
0
0
0
0
0
0
0
0
0
0
0
0
0
0
0
0
0
0
0
0
0
0
0
0
0
0
0
0
0
0
99.8803
180.332
167.336
103.179
468.617
184.032
205.684
454.138
389.187
141.819
111.298
0
0
0
0
0
0
0
0
0
0
0
0
0
0
0
0
0
0
0
0
0
1047.46
1134.89
716.187
513.096
558.993
634.096