/*--------------------------------*- C++ -*----------------------------------*\
  =========                 |
  \\      /  F ield         | OpenFOAM: The Open Source CFD Toolbox
   \\    /   O peration     | Website:  https://openfoam.org
    \\  /    A nd           | Version:  9
     \\/     M anipulation  |
\*---------------------------------------------------------------------------*/
FoamFile
{
    format      ascii;
    class       volVectorField;
    location    "0.00075";
    object      U;
}
// * * * * * * * * * * * * * * * * * * * * * * * * * * * * * * * * * * * * * //

dimensions      [0 1 -1 0 0 0 0];

internalField   nonuniform List<vector> 
39804
(
(0 0 0)
(-7.91761e-54 0 0)
(2.23526e-55 0 0)
(3.33347e-62 0 0)
(6.02622e-62 0 0)
(3.15011e-62 0 0)
(2.9051e-62 0 0)
(8.18661e-62 0 0)
(1.89458e-53 0 0)
(-1.20317e-50 0 0)
(-2.83062e-43 0 0)
(-6.22231e-41 0 0)
(-3.31278e-38 0 0)
(-1.30532e-35 0 0)
(-2.27676e-33 0 0)
(-2.64937e-31 0 0)
(-9.4043e-29 0 0)
(-6.53698e-27 0 0)
(-4.7748e-26 0 0)
(-4.33184e-25 0 0)
(5.6695e-26 0 0)
(1.73946e-25 0 0)
(1.87618e-27 0 0)
(1.06064e-28 0 0)
(0 0 0)
(0 0 0)
(-1.18541e-51 0 0)
(2.81429e-53 0 0)
(7.38387e-60 0 0)
(1.35242e-59 0 0)
(6.76001e-60 0 0)
(6.51058e-60 0 0)
(1.76224e-59 0 0)
(3.11965e-51 0 0)
(-7.12516e-48 0 0)
(-1.34915e-40 0 0)
(-2.17796e-38 0 0)
(-9.81513e-36 0 0)
(-3.68523e-33 0 0)
(-6.62997e-31 0 0)
(-7.36272e-29 0 0)
(-2.40475e-26 0 0)
(-1.32825e-24 0 0)
(-8.60041e-24 0 0)
(-7.02684e-23 0 0)
(7.15042e-24 0 0)
(2.95965e-23 0 0)
(3.95359e-25 0 0)
(2.52085e-26 0 0)
(0 0 0)
(0 0 0)
(-1.6798e-49 0 0)
(3.38227e-51 0 0)
(1.58337e-57 0 0)
(2.93361e-57 0 0)
(1.36778e-57 0 0)
(1.41014e-57 0 0)
(3.68856e-57 0 0)
(4.87073e-49 0 0)
(-4.45924e-45 0 0)
(-5.76184e-38 0 0)
(-7.48087e-36 0 0)
(-2.87675e-33 0 0)
(-1.02935e-30 0 0)
(-1.9307e-28 0 0)
(-1.97287e-26 0 0)
(-5.90788e-24 0 0)
(-2.54944e-22 0 0)
(-1.50455e-21 0 0)
(-1.05762e-20 0 0)
(8.38969e-22 0 0)
(4.72722e-21 0 0)
(8.22363e-23 0 0)
(5.83019e-24 0 0)
(0 0 0)
(0 0 0)
(-2.24562e-47 0 0)
(3.83918e-49 0 0)
(3.2824e-55 0 0)
(2.47469e-55 0 1.31305e-14)
(1.27062e-55 0 -1.32465e-14)
(1.18769e-55 0 1.67381e-14)
(3.02076e-55 0 1.90251e-14)
(3.63145e-47 0 1.75932e-14)
(-2.78961e-42 0 0)
(-2.30186e-35 0 0)
(-2.53193e-33 0 0)
(-8.39401e-31 0 0)
(-2.88732e-28 0 0)
(-5.61789e-26 0 0)
(-5.12952e-24 0 0)
(-5.54783e-22 0 1.63856e-14)
(-4.59658e-20 0 0)
(-2.56488e-19 0 0)
(-5.95704e-19 0 1.30145e-14)
(4.73188e-20 0 -1.67381e-14)
(6.78876e-19 0 -3.64133e-15)
(1.70991e-20 0 0)
(1.32689e-21 0 0)
(0 0 0)
(0 0 0)
(-2.82153e-45 0 0)
(4.10189e-47 0 0)
(2.64605e-53 0 -1.31305e-14)
(1.91422e-53 0 0)
(2.34251e-53 0 -1.74735e-14)
(9.17199e-54 0 0)
(1.97776e-53 0 0)
(2.26948e-45 0 0)
(-1.66293e-39 0 0)
(-8.65874e-33 0 0)
(-8.50827e-31 0 0)
(-2.45962e-28 0 0)
(-8.2282e-26 0 0)
(-1.62172e-23 0 0)
(-1.31771e-21 0 0)
(-4.9029e-20 0 0)
(-3.2284e-18 0 -1.67381e-14)
(-1.55894e-17 0 -1.66757e-14)
(-3.28952e-17 -3.47528e-16 0)
(6.99692e-18 -1.26993e-15 -1.8922e-14)
(3.69108e-17 0 -1.68072e-14)
(3.58017e-18 0 0)
(3.02601e-19 0 0)
(0 0 0)
(0 0 0)
(-3.31774e-43 0 0)
(4.10954e-45 0 0)
(1.93537e-51 0 1.32465e-14)
(1.42913e-51 0 1.74735e-14)
(1.70009e-51 0 0)
(6.83581e-52 0 1.63856e-14)
(3.09181e-51 0 0)
(2.68554e-43 0 0)
(-9.31839e-37 0 0)
(-3.08179e-30 0 0)
(-2.85918e-28 0 0)
(-7.27512e-26 0 0)
(-2.37463e-23 0 0)
(-4.55863e-21 0 0)
(-3.39332e-19 0 0)
(-1.00947e-17 0 0)
(-2.34238e-16 -1.26993e-15 1.45226e-14)
(-1.68749e-15 -3.69268e-14 1.6965e-14)
(-5.52426e-15 -1.43703e-13 1.93876e-14)
(1.17259e-15 -2.42811e-13 3.48021e-15)
(5.45778e-15 -9.9663e-14 1.53351e-14)
(7.48207e-16 -1.38172e-14 0)
(6.94595e-17 0 0)
(0 0 0)
(0 0 0)
(-3.63277e-41 0 0)
(3.84425e-43 0 0)
(1.24404e-49 0 -1.67381e-14)
(7.87452e-50 0 0)
(1.19528e-49 0 -1.63856e-14)
(3.76035e-50 0 0)
(4.69922e-49 0 0)
(3.11879e-41 0 0)
(-4.8855e-34 0 0)
(-1.05079e-27 0 0)
(-9.59027e-26 0 0)
(-2.16106e-23 0 0)
(-6.78763e-21 0 0)
(-1.21289e-18 0 0)
(-8.5817e-17 0 0)
(-2.09077e-15 -1.78482e-14 0)
(-4.52257e-14 -3.07515e-13 -1.3722e-14)
(-3.15896e-13 -3.23061e-12 4.98988e-14)
(-6.93826e-13 -1.09811e-11 1.993e-13)
(1.22406e-13 -1.76175e-11 3.42621e-13)
(7.73302e-13 -8.14679e-12 1.5686e-13)
(1.50915e-13 -1.47657e-12 2.63336e-14)
(1.57819e-14 -9.13201e-14 9.86059e-16)
(0 -1.84677e-15 0)
(0 0 0)
(-3.68213e-39 0 0)
(3.34155e-41 0 0)
(1.49578e-47 0 -1.90251e-14)
(9.99207e-48 0 0)
(5.84344e-48 0 0)
(4.76373e-48 0 0)
(7.15781e-47 0 0)
(2.47623e-39 0 0)
(-2.42628e-31 0 0)
(-1.40475e-25 0 -1.63856e-14)
(-3.15473e-23 0 0)
(-6.33633e-21 0 0)
(-1.85903e-18 0 0)
(-2.9615e-16 0 0)
(-2.00117e-14 -6.09745e-14 6.38038e-16)
(-3.83819e-13 -1.7784e-12 3.74703e-14)
(-4.71018e-12 -3.34651e-11 6.29293e-13)
(-2.48524e-11 -2.24212e-10 6.4379e-12)
(-4.55296e-11 -6.77978e-10 1.85582e-11)
(7.11953e-12 -1.07939e-09 3.17879e-11)
(5.31329e-11 -5.33996e-10 1.60775e-11)
(1.46633e-11 -1.3281e-10 3.11778e-12)
(1.74306e-12 -7.67033e-12 1.78767e-13)
(9.82579e-14 -3.63417e-13 5.91636e-15)
(0 0 0)
(-3.43014e-37 0 0)
(2.6844e-39 0 0)
(1.65461e-45 0 -1.75932e-14)
(1.17685e-45 0 0)
(6.50209e-46 0 0)
(5.60218e-46 0 0)
(1.07198e-44 0 0)
(-1.4398e-36 0 0)
(-1.18773e-28 0 0)
(-1.84431e-23 0 0)
(-9.88208e-21 0 0)
(-1.78737e-18 0 0)
(-4.71891e-16 -1.16007e-16 0)
(-6.48095e-14 -1.03361e-13 1.7401e-15)
(-2.06923e-12 -4.8829e-12 1.30276e-13)
(-3.96625e-11 -1.37256e-10 4.02401e-12)
(-5.93209e-10 -4.30706e-09 1.0364e-10)
(-1.4663e-09 -1.18331e-08 5.21654e-10)
(-2.38163e-09 -3.60976e-08 1.41072e-09)
(3.99188e-10 -5.72907e-08 2.34297e-09)
(2.73487e-09 -2.75504e-08 1.23821e-09)
(1.24187e-09 -9.44015e-09 3.40301e-10)
(1.55441e-10 -5.7433e-10 1.7193e-11)
(9.15082e-12 -3.33303e-11 7.90175e-13)
(0 0 0)
(-2.91083e-35 0 0)
(1.98093e-37 0 0)
(6.76792e-44 0 0)
(1.27622e-43 0 0)
(6.63613e-44 0 0)
(6.06776e-44 0 0)
(1.45258e-42 0 0)
(-3.77161e-33 0 0)
(-6.06134e-26 0 0)
(-5.73661e-21 0 0)
(-2.86728e-18 0 0)
(-4.70834e-16 -1.16007e-16 0)
(-1.07975e-13 -1.13159e-13 2.55215e-15)
(-5.35238e-12 -7.52754e-12 2.34508e-13)
(-1.70781e-10 -3.39629e-10 1.19423e-11)
(-3.77953e-09 -9.08123e-09 3.83862e-10)
(-4.0378e-08 -2.01441e-07 6.40473e-09)
(-3.64836e-08 -3.1938e-07 8.85048e-09)
(-1.26924e-07 -1.83241e-06 4.27794e-08)
(-5.03804e-08 -3.5469e-06 9.46346e-08)
(9.41712e-08 -1.92641e-06 4.64992e-08)
(3.89444e-08 -3.23384e-07 9.53982e-09)
(1.48792e-08 -4.58103e-08 1.85096e-09)
(1.04999e-09 -3.50531e-09 1.00399e-10)
(0 0 0)
(-2.22472e-33 0 0)
(1.33377e-35 0 0)
(6.12191e-42 0 0)
(1.26074e-41 0 0)
(6.15929e-42 0 0)
(5.98978e-42 0 0)
(8.33994e-41 0 1.63856e-14)
(-6.85981e-30 0 0)
(-3.27322e-23 0 0)
(-1.57509e-18 0 0)
(-4.21831e-16 0 1.70346e-14)
(-1.11841e-13 -7.68122e-14 7.15435e-15)
(-7.75074e-12 -6.69379e-12 2.72688e-13)
(-3.94794e-10 -4.56164e-10 1.9189e-11)
(-1.53423e-08 -2.32408e-08 1.12992e-09)
(-4.47967e-08 -1.08697e-07 3.19056e-09)
(-3.30393e-06 -1.08698e-05 3.46608e-07)
(-2.80025e-05 -0.000185043 3.66254e-06)
(-0.000526967 -0.00678378 9.27301e-05)
(-0.000253361 -0.0268305 0.0004444)
(0.000613905 -0.0128877 0.00019529)
(3.36866e-05 -0.000374247 5.40655e-06)
(2.28541e-06 -7.02839e-06 1.84533e-07)
(6.89704e-08 -1.58604e-07 5.53709e-09)
(0 0 0)
(-1.50841e-31 0 0)
(8.13364e-34 0 0)
(4.88981e-40 0 0)
(1.11757e-39 0 0)
(5.13888e-40 0 0)
(5.3099e-40 0 0)
(3.06496e-39 0 0)
(-9.54856e-27 0 0)
(-1.75928e-20 0 0)
(-1.41112e-16 0 -1.70346e-14)
(-7.44286e-14 -2.85726e-14 9.28056e-16)
(-6.42584e-12 -3.20586e-12 1.85e-13)
(-4.5232e-10 -2.78379e-10 1.62763e-11)
(-3.00027e-08 -2.54924e-08 1.56977e-09)
(-1.40597e-07 -1.60451e-07 5.52573e-09)
(-2e-05 -3.61072e-05 1.11034e-06)
(-0.151067 -0.523991 0.0101336)
(-147.584 -377.851 20.9605)
(-199.644 -1052.85 70.1469)
(-34.7709 -1213.12 86.3485)
(165.28 -1130.26 80.1107)
(193.509 -547.94 33.0593)
(0.889031 -2.974 0.0711606)
(3.8415e-05 -7.50012e-05 2.20484e-06)
(0 0 0)
(-8.88266e-30 0 0)
(4.45813e-32 0 0)
(3.37038e-38 0 0)
(8.68694e-38 0 0)
(3.78286e-38 0 0)
(4.13238e-38 0 0)
(2.27365e-37 0 0)
(-1.01406e-23 0 0)
(-8.66198e-18 0 0)
(-2.67029e-14 -3.46056e-15 -5.58181e-15)
(-2.83303e-12 -6.62254e-13 4.17809e-14)
(-2.32423e-10 -6.67869e-11 6.76874e-12)
(-1.57611e-08 -5.98828e-09 6.82216e-10)
(-1.95334e-07 -9.70527e-08 5.45926e-09)
(-5.89774e-05 -4.34246e-05 2.06461e-06)
(-14.0184 -16.0172 0.68169)
(-939.312 -1295.4 108.577)
(-831.795 -1689.41 114.773)
(-493.076 -1847.66 67.2368)
(-80.4339 -1896.61 43.0585)
(337.625 -1878.78 45.5212)
(706.98 -1731.86 103.179)
(901.128 -1357.06 117.303)
(122.365 -140.725 8.54631)
(0 0 0)
(-4.40031e-28 0 0)
(2.17854e-30 0 0)
(1.95638e-36 0 0)
(5.69139e-36 0 0)
(2.37059e-36 0 0)
(2.71478e-36 0 0)
(1.44765e-35 0 0)
(-7.97752e-21 0 0)
(-3.48031e-15 0 0)
(-5.12854e-13 -6.75679e-14 -1.09826e-14)
(-4.80544e-11 -6.96333e-12 1.09416e-12)
(-3.53652e-09 -6.37286e-10 1.22802e-10)
(-8.20811e-08 -2.18332e-08 2.46321e-09)
(-2.88073e-05 -7.3455e-06 9.28088e-07)
(-2.67825 -1.08989 0.0676115)
(-1311.53 -1069.19 117.471)
(-1372.74 -1405.4 6.92006)
(-1072.12 -1645.19 -159.962)
(-651.795 -1804.11 -162.887)
(-102.978 -1810.46 -174.759)
(450.305 -1807 -170.155)
(906.952 -1701.24 -153.594)
(1187.81 -1436.28 -55.3399)
(1274 -1107.99 121.723)
(0 0 0)
(-1.73831e-26 0 0)
(9.66409e-29 0 0)
(3.99484e-35 0 0)
(2.89706e-34 0 0)
(1.16907e-34 0 0)
(1.38861e-34 0 0)
(7.72052e-34 0 0)
(-4.35889e-18 0 0)
(-5.00394e-14 -2.76503e-15 1.7401e-16)
(-4.02701e-12 -4.75551e-13 6.7498e-14)
(-2.61699e-10 -3.36601e-11 6.98264e-12)
(-1.73008e-08 -1.92127e-09 5.75206e-10)
(-6.62717e-07 -1.02777e-07 1.47777e-08)
(-0.00177861 -0.000307732 2.05319e-05)
(-886.424 -397.439 57.6972)
(-1736.36 -915.633 91.6186)
(-1614.35 -1140.93 -193.005)
(-1197.23 -1250.21 -161.319)
(-655.735 -1267.08 -165.739)
(-100.572 -1260.72 -153.316)
(454.873 -1259.81 -155.907)
(995.444 -1251.72 -131.657)
(1478.86 -1192.16 -166.91)
(1600.17 -932.733 33.0012)
(0 0 0)
(-4.92531e-25 0 0)
(1.88407e-27 0 0)
(-1.04904e-33 0 0)
(3.79715e-33 0 0)
(1.51685e-33 0 0)
(1.83598e-33 0 0)
(1.24832e-32 0 0)
(-1.39093e-15 0 0)
(-2.4675e-13 -1.04947e-14 3.13219e-15)
(-1.79883e-11 -1.19421e-12 3.60311e-13)
(-1.24746e-09 -7.90386e-11 3.09596e-11)
(-9.58678e-08 -5.16921e-09 3.44509e-09)
(-6.7276e-06 -5.21569e-07 2.20761e-07)
(-0.215625 -0.0186453 0.00407537)
(-1470.72 -329.805 110.47)
(-1874.69 -567.561 -16.2314)
(-1742.77 -704.941 -208.612)
(-1215.55 -714.393 -191.99)
(-653.481 -713.723 -173.938)
(-95.4862 -685.044 -86.0763)
(450.886 -700.503 -110.98)
(1004.4 -711.519 -149.961)
(1524.85 -700.861 -163.15)
(1809.71 -535.897 -80.2079)
(0 0 0)
(-3.27954e-24 -1.39208e-14 0)
(-1.7684e-27 -1.39208e-14 0)
(-6.12622e-32 -1.39208e-14 1.88189e-14)
(-1.29003e-33 -1.39208e-14 1.88189e-14)
(4.02326e-36 -1.39208e-14 0)
(1.24014e-35 -1.39208e-14 0)
(-8.62134e-32 0 -7.39222e-15)
(-3.01073e-15 0 0)
(-3.94483e-13 6.93848e-16 4.64028e-15)
(-2.7958e-11 7.67458e-14 6.02063e-13)
(-1.81798e-09 9.04735e-12 4.94876e-11)
(-1.26318e-07 1.41514e-09 4.87608e-09)
(-1.03764e-05 -2.109e-08 3.33011e-07)
(-0.820148 -0.00135674 0.0184635)
(-1553.6 -46.9102 117.073)
(-1904.86 -154.281 -15.6565)
(-1742.1 -151.768 -208.37)
(-1211.26 -144.474 -163.593)
(-627.281 -125.133 -43.3151)
(-147.493 -202.32 66.1572)
(415.516 -151.725 103.327)
(989.209 -166.321 -73.6461)
(1527.82 -208.747 -131.589)
(1871.05 -348.166 -71.638)
(0 0 0)
(0 0 0)
(0 0 0)
(0 0 0)
(0 0 0)
(0 0 0)
(0 0 0)
(0 0 0)
(0 0 -1.37822e-14)
(-2.24135e-13 2.43615e-14 -1.52693e-14)
(-1.70372e-11 1.37449e-12 4.04256e-13)
(-1.25679e-09 9.85231e-11 3.52007e-11)
(-6.37025e-08 4.88081e-09 2.26691e-09)
(-6.87228e-06 2.2452e-07 2.34352e-07)
(-0.367449 0.0195678 0.00762681)
(-1487.47 195.412 113.267)
(-1868.72 295.468 11.1417)
(-1746.19 359.461 -178.765)
(-1277.59 250.565 -140.07)
(-801.781 -39.5484 18.2266)
(-256.745 -319.784 72.4156)
(386.585 -406.553 118.53)
(1021.91 -436.029 116.197)
(1612.88 -423.336 135.115)
(2216.67 -243.572 150.912)
(0 0 1.39208e-14)
(0 0 1.21538e-14)
(0 0 0)
(0 0 0)
(0 0 0)
(0 0 0)
(0 0 0)
(0 0 0)
(1.57289e-14 -2.18093e-14 -1.75299e-14)
(-5.98138e-15 0 0)
(-2.79322e-13 2.44079e-13 6.38038e-15)
(-1.33625e-11 1.30766e-11 3.26173e-13)
(-1.08355e-09 8.61751e-10 3.40473e-11)
(-1.70191e-06 1.54633e-07 4.49755e-08)
(-0.0198503 0.00171511 0.000290203)
(-1218.46 353.67 88.8307)
(-1840.48 700.621 44.7811)
(-1804.69 771.66 -121.977)
(-1465.42 836.178 26.6556)
(-872.392 1031.23 133.121)
(2127.86 1008.65 125.855)
(0 0 1.39208e-14)
(0 0 0)
(0 0 0)
(0 0 0)
(0 0 0)
(-5.56833e-15 6.53926e-15 0)
(-5.45308e-15 1.29928e-14 0)
(-1.09342e-11 2.12362e-12 2.57187e-13)
(-5.67104e-08 6.12999e-09 1.33897e-09)
(-0.000123302 1.70755e-05 2.46097e-06)
(-327.897 155.143 19.7382)
(-1687.25 1058.67 131.776)
(-1682.63 1325.58 -30.8167)
(-1275.83 1619.18 101.7)
(-585.79 1803.8 124.917)
(61.3537 791.145 35.9963)
(0 0 1.39208e-14)
(0 0 0)
(0 0 1.3241e-14)
(0 0 0)
(0 0 5.50964e-15)
(0 0 0)
(0 0 0)
(-986.786 1877.91 4.30616)
(-417.321 1875.98 69.9521)
(536.813 383.238 73.1059)
(1.70608 0.515707 0.0702838)
(7.21368e-06 1.04851e-06 4.64025e-07)
(-0.000904649 0.00203168 4.20228e-05)
(0.00198125 0.205546 0.0025426)
(0 0 1.39208e-14)
(0 0 0)
(0 3.0874e-14 1.88233e-14)
(0 2.78417e-14 0)
(0 2.78417e-14 0)
(0 2.78417e-14 0)
(0 2.78417e-14 -6.7861e-15)
(0 2.78417e-14 -7.68838e-15)
(0 0 0)
(0 0 0)
(0 0 0)
(0 0 0)
(-481.209 1578.88 124.87)
(183.172 1359.11 118.871)
(99.8951 119.604 10.6694)
(8.96282e-05 6.3816e-05 6.07621e-06)
(4.47368e-08 5.43396e-08 5.53248e-09)
(-5.91648e-08 1.30222e-06 6.63738e-08)
(7.14455e-08 1.48189e-06 3.93046e-08)
(0 0 0)
(0 1.39208e-14 0)
(0 1.39208e-14 -7.32133e-15)
(0 1.39208e-14 0)
(0 1.39208e-14 0)
(0 1.39208e-14 0)
(0 1.39208e-14 0)
(0 0 0)
(0 0 0)
(-1.39208e-14 -1.23809e-14 0)
(0 0 -5.34039e-15)
(0 -2.05866e-14 9.79614e-15)
(0 -9.63667e-15 0)
(0 -2.07772e-14 0)
(0 0 0)
(-9.88921e-12 1.10959e-12 2.45239e-13)
(-1.18646e-07 5.70309e-08 4.01202e-09)
(-0.00164961 0.00339245 5.22129e-05)
(-0.190762 1.69694 0.0401496)
(0.0958834 0.635297 0.0162764)
(2.36025e-05 4.99653e-05 2.55081e-06)
(4.63756e-08 7.16237e-08 5.18969e-09)
(1.75494e-09 2.3524e-09 1.46008e-10)
(-3.18958e-10 1.6986e-08 5.72269e-10)
(4.94115e-10 9.11619e-09 2.67017e-10)
(0 0 0)
(0 0 0)
(0 0 0)
(0 0 0)
(0 0 0)
(0 0 0)
(0 0 0)
(0 0 0)
(0 0 0)
(0 0 0)
(0 -2.08813e-14 -7.91425e-15)
(0 0 0)
(0 1.39208e-14 0)
(0 0 0)
(-4.66425e-14 -8.93254e-15 1.19487e-14)
(-6.98995e-12 3.37696e-12 1.98256e-13)
(-1.0365e-09 1.15239e-09 4.96463e-11)
(-2.14548e-08 1.60185e-07 5.22237e-09)
(-1.68826e-07 2.35763e-06 7.70504e-08)
(1.43468e-07 1.30541e-06 4.13033e-08)
(7.79788e-09 2.45009e-08 1.13592e-09)
(8.2417e-10 1.82636e-09 7.97021e-11)
(3.47198e-11 5.55899e-11 2.16641e-12)
(-7.59542e-13 1.94703e-10 4.83358e-12)
(3.8367e-12 8.46422e-11 1.93212e-12)
(0 0 0)
(0 0 0)
(0 0 0)
(0 0 0)
(0 0 0)
(0 0 0)
(0 0 0)
(0 0 0)
(0 0 0)
(0 0 0)
(0 0 0)
(0 0 0)
(0 0 0)
(0 0 0)
(-4.63535e-16 1.16007e-16 0)
(-1.41711e-13 1.13223e-13 2.95818e-15)
(-1.00621e-11 1.25292e-11 3.90595e-13)
(-2.79264e-10 1.72599e-09 4.40342e-11)
(-2.72261e-10 1.2143e-08 3.97374e-10)
(4.79674e-10 5.66564e-09 1.62841e-10)
(1.11909e-10 5.36142e-10 1.54574e-11)
(1.28923e-11 3.45059e-11 1.01219e-12)
(5.64799e-13 1.0109e-12 2.85377e-14)
(1.24183e-14 1.9814e-12 3.83983e-14)
(3.17859e-14 8.56531e-13 1.45009e-14)
(0 0 0)
(-3.91656e-52 0 0)
(1.04486e-53 0 0)
(2.78159e-61 0 0)
(3.24781e-61 0 0)
(2.7007e-61 0 0)
(1.56318e-61 0 0)
(1.37135e-60 0 0)
(1.75323e-52 0 0)
(2.50821e-50 0 0)
(2.64017e-46 0 0)
(-1.26465e-42 0 0)
(-1.88411e-39 0 0)
(-9.86689e-37 0 0)
(-2.66088e-34 0 0)
(-3.7402e-32 0 0)
(-2.54206e-30 0 0)
(-8.01371e-29 0 0)
(-1.37796e-27 0 0)
(-8.22356e-27 0 0)
(4.44917e-27 0 0)
(5.25773e-27 0 0)
(4.37988e-28 0 0)
(2.14859e-29 0 0)
(0 0 0)
(0 0 0)
(-5.86303e-50 0 0)
(1.32283e-51 0 0)
(4.92876e-59 0 0)
(5.87614e-59 0 0)
(4.77178e-59 0 0)
(2.82407e-59 0 0)
(2.42649e-58 0 0)
(2.68901e-50 0 0)
(4.85049e-48 0 0)
(-1.27647e-44 0 0)
(-4.61565e-40 0 0)
(-6.26893e-37 0 0)
(-3.02062e-34 0 0)
(-7.7021e-32 0 0)
(-1.01452e-29 0 0)
(-6.2239e-28 0 0)
(-1.79068e-26 0 0)
(-2.99651e-25 0 0)
(-1.56721e-24 0 0)
(7.71668e-25 0 0)
(1.08794e-24 0 0)
(9.30861e-26 0 0)
(4.90822e-27 0 0)
(0 0 0)
(0 0 0)
(-8.31037e-48 0 0)
(1.59906e-49 0 0)
(8.29671e-57 0 0)
(1.01266e-56 0 0)
(8.00761e-57 0 0)
(4.85912e-57 0 0)
(4.07929e-56 0 0)
(4.2408e-48 0 0)
(4.00373e-46 0 0)
(-1.95595e-41 0 0)
(-1.65541e-37 0 0)
(-2.0365e-34 0 0)
(-9.00492e-32 0 0)
(-2.16574e-29 0 0)
(-2.68487e-27 0 0)
(-1.49456e-25 0 0)
(-3.9197e-24 0 0)
(-6.42616e-23 0 0)
(-2.92152e-22 0 0)
(1.29457e-22 0 0)
(2.19857e-22 0 0)
(1.95488e-23 0 0)
(1.10013e-24 0 0)
(0 0 0)
(0 0 0)
(-1.11182e-45 0 0)
(1.82614e-47 0 0)
(1.32316e-54 0 0)
(1.65855e-54 0 0)
(1.27278e-54 0 0)
(7.94477e-55 0 0)
(6.49849e-54 0 0)
(6.32142e-46 0 0)
(-7.48668e-44 0 0)
(-1.00483e-38 0 0)
(-5.81337e-35 0 0)
(-6.42951e-32 0 0)
(-2.61038e-29 0 0)
(-5.86953e-27 0 0)
(-6.86671e-25 0 0)
(-3.53832e-23 0 0)
(-8.4005e-22 0 0)
(-1.34011e-20 0 0)
(-5.24298e-20 0 0)
(2.05819e-20 0 0)
(4.27591e-20 0 0)
(4.05588e-21 0 0)
(2.40076e-22 0 0)
(0 0 0)
(0 0 0)
(-1.39902e-43 0 0)
(1.96339e-45 0 0)
(1.99219e-52 0 0)
(2.57414e-52 0 0)
(1.90953e-52 0 0)
(1.23079e-52 0 0)
(9.77663e-52 0 0)
(8.38623e-44 0 0)
(-6.3474e-41 0 0)
(-4.47989e-36 0 0)
(-1.99188e-32 0 0)
(-1.97412e-29 0 0)
(-7.41012e-27 0 0)
(-1.53237e-24 0 0)
(-1.67528e-22 0 0)
(-8.23709e-21 0 0)
(-1.78141e-19 0 0)
(-2.65456e-18 0 0)
(-8.84199e-18 0 0)
(2.99147e-18 0 0)
(7.83864e-18 0 0)
(8.2118e-19 0 0)
(5.02582e-20 0 0)
(0 0 0)
(0 0 0)
(-1.64906e-41 0 0)
(1.9796e-43 0 0)
(2.82027e-50 0 0)
(3.7735e-50 0 0)
(2.69337e-50 0 0)
(1.80065e-50 0 0)
(1.38365e-49 0 0)
(9.9958e-42 0 0)
(-3.64582e-38 0 0)
(-1.88139e-33 0 0)
(-6.66963e-30 0 0)
(-5.95866e-27 0 0)
(-2.10192e-24 0 0)
(-3.93378e-22 0 0)
(-3.85186e-20 0 0)
(-1.8519e-18 0 0)
(-3.79195e-17 0 0)
(-4.86538e-16 -6.12987e-15 1.7401e-16)
(-1.4103e-15 -4.23655e-14 1.91412e-15)
(4.49372e-16 -6.51003e-14 3.82823e-15)
(1.32441e-15 -2.12524e-14 1.04406e-15)
(1.58436e-16 -1.38913e-15 0)
(9.92025e-18 0 0)
(0 0 0)
(0 0 0)
(-1.81239e-39 0 0)
(1.86339e-41 0 0)
(3.7358e-48 0 0)
(5.20491e-48 0 0)
(3.55545e-48 0 0)
(2.47833e-48 0 0)
(1.83385e-47 0 0)
(1.0835e-39 0 0)
(-2.1354e-35 0 0)
(-7.49686e-31 0 0)
(-2.20835e-27 0 0)
(-1.80053e-24 0 0)
(-6.09729e-22 0 0)
(-1.04085e-19 0 0)
(-8.45743e-18 0 0)
(-3.89176e-16 -1.50543e-15 0)
(-7.83506e-15 -6.40054e-14 3.94424e-15)
(-8.05266e-14 -6.04403e-13 7.72606e-14)
(-2.00472e-13 -2.87003e-12 3.38205e-13)
(5.81885e-14 -4.24627e-12 5.39909e-13)
(2.02102e-13 -1.60407e-12 2.06602e-13)
(2.86096e-14 -2.47694e-13 2.86537e-14)
(1.93959e-15 -1.60736e-14 8.12049e-16)
(0 0 0)
(0 0 0)
(-1.84712e-37 0 0)
(1.62916e-39 0 0)
(4.60316e-46 0 0)
(6.72517e-46 0 0)
(4.36994e-46 0 0)
(3.19474e-46 0 0)
(2.26425e-45 0 0)
(1.07052e-37 0 0)
(-1.22825e-32 0 0)
(-2.83415e-28 0 0)
(-7.36729e-25 0 0)
(-5.48398e-22 0 0)
(-1.79631e-19 0 0)
(-2.89572e-17 0 0)
(-1.97067e-15 -6.94298e-15 4.06024e-16)
(-7.35529e-14 -2.68562e-13 3.61942e-14)
(-8.12796e-13 -4.77285e-12 6.49484e-13)
(-5.58151e-12 -3.85433e-11 5.99947e-12)
(-1.23415e-11 -1.80553e-10 2.25587e-11)
(3.62835e-12 -2.69915e-10 3.43585e-11)
(1.26916e-11 -9.94319e-11 1.48444e-11)
(2.34366e-12 -1.66236e-11 2.75416e-12)
(3.11097e-13 -1.49766e-12 1.88859e-13)
(1.7169e-14 -6.69213e-14 5.33632e-15)
(0 0 0)
(-1.73433e-35 0 0)
(1.31519e-37 0 0)
(5.23753e-44 0 0)
(8.09668e-44 0 0)
(4.97138e-44 0 0)
(3.83662e-44 0 0)
(2.58833e-43 0 0)
(9.6115e-36 0 0)
(-6.64621e-30 0 0)
(-1.03605e-25 0 0)
(-2.49287e-22 0 0)
(-1.64233e-19 0 0)
(-5.08102e-17 0 0)
(-7.67117e-15 -1.12215e-14 1.10207e-15)
(-2.99298e-13 -6.494e-13 1.18211e-13)
(-5.87392e-12 -1.91259e-11 3.30889e-12)
(-5.51184e-11 -2.9599e-10 5.41452e-11)
(-3.21494e-10 -2.39274e-09 3.48253e-10)
(-8.06687e-10 -1.36536e-08 1.53928e-09)
(2.84579e-10 -1.97483e-08 2.27131e-09)
(7.76181e-10 -7.11986e-09 9.51799e-10)
(1.4668e-10 -1.01047e-09 1.80453e-10)
(2.41482e-11 -1.15523e-10 1.55103e-11)
(1.64509e-12 -5.36654e-12 7.63667e-13)
(0 0 0)
(-1.48828e-33 0 0)
(9.73716e-36 0 0)
(5.45117e-42 0 0)
(9.02391e-42 0 0)
(5.19981e-42 0 0)
(4.26443e-42 0 0)
(2.71939e-41 0 0)
(7.80666e-34 0 0)
(-3.27579e-27 0 0)
(-3.85442e-23 0 0)
(-8.34391e-20 0 0)
(-4.63905e-17 0 0)
(-1.28624e-14 -1.26082e-14 1.50809e-15)
(-6.92654e-13 -9.20065e-13 2.02316e-13)
(-2.37437e-11 -4.85395e-11 9.54432e-12)
(-4.80589e-10 -1.68501e-09 2.64446e-10)
(-3.35256e-09 -1.61722e-08 3.38807e-09)
(-2.10408e-08 -1.86692e-07 3.6676e-08)
(-4.70099e-08 -8.01512e-07 1.28579e-07)
(1.1798e-08 -7.42318e-07 1.16444e-07)
(3.82648e-08 -3.90806e-07 7.521e-08)
(9.85169e-09 -6.72358e-08 1.3766e-08)
(1.82169e-09 -7.53436e-09 1.09229e-09)
(1.38792e-10 -3.7779e-10 6.49405e-11)
(0 0 0)
(-1.1555e-31 0 0)
(6.55983e-34 0 0)
(5.12367e-40 0 0)
(9.23354e-40 0 0)
(4.9617e-40 0 0)
(4.35057e-40 0 0)
(2.60331e-39 0 0)
(5.45882e-32 0 0)
(-1.43001e-24 0 0)
(-1.51704e-20 0 0)
(-2.62466e-17 0 0)
(-1.21271e-14 -7.2899e-15 1.27608e-15)
(-9.2947e-13 -7.86733e-13 2.15483e-13)
(-5.34176e-11 -5.83443e-11 1.48236e-11)
(-2.37644e-09 -3.83347e-09 8.66694e-10)
(-3.98896e-08 -1.11178e-07 2.64503e-08)
(-8.06439e-08 -2.49562e-07 5.02246e-08)
(-1.0676e-06 -7.06317e-06 2.03634e-06)
(-5.54761e-06 -7.66135e-05 1.82267e-05)
(2.49282e-07 -8.96116e-05 1.96947e-05)
(4.3319e-06 -6.88575e-05 1.74232e-05)
(9.4333e-07 -8.07261e-06 2.17417e-06)
(8.38057e-08 -2.9227e-07 6.33128e-08)
(1.01486e-08 -2.04641e-08 4.55879e-09)
(0 0 0)
(-8.00984e-30 0 0)
(3.98578e-32 0 0)
(4.26889e-38 0 0)
(8.57811e-38 0 0)
(4.2773e-38 0 0)
(4.02784e-38 0 0)
(2.24828e-37 0 0)
(3.27932e-30 0 0)
(-5.38981e-22 0 0)
(-5.97804e-18 0 0)
(-7.41283e-15 -1.96778e-15 5.22031e-16)
(-7.50715e-13 -3.83791e-13 1.44719e-13)
(-5.61398e-11 -3.29752e-11 1.21969e-11)
(-4.07073e-09 -3.13444e-09 1.04909e-09)
(-7.71278e-08 -8.30087e-08 3.35268e-08)
(-1.26762e-06 -2.47375e-06 7.84647e-07)
(-3.73721e-05 -0.000131557 4.11959e-05)
(-0.10511 -0.552254 0.185793)
(-2.65115 -21.1357 8.56636)
(-0.532842 -52.7712 22.9216)
(2.95663 -27.1285 11.5159)
(0.22676 -1.27904 0.454957)
(0.000217496 -0.000881605 0.000276085)
(8.83899e-07 -1.54786e-06 4.27887e-07)
(0 0 0)
(-4.86669e-28 0 0)
(2.16307e-30 0 0)
(3.05975e-36 0 0)
(7.11832e-36 0 0)
(3.28353e-36 0 0)
(3.32728e-36 0 0)
(1.73436e-35 0 0)
(1.80033e-28 0 0)
(-1.71447e-19 0 0)
(-2.18329e-15 0 0)
(-3.45505e-13 -1.0077e-13 5.30152e-14)
(-2.77342e-11 -8.72589e-12 5.20497e-12)
(-2.48355e-09 -8.48577e-10 4.69345e-10)
(-9.24661e-08 -4.85966e-08 2.86275e-08)
(-1.98547e-06 -1.54769e-06 9.22186e-07)
(-0.00152293 -0.00177093 0.00089782)
(-235.204 -320.468 192.906)
(-487.354 -1032.81 449.989)
(-260.421 -1090.39 366.903)
(-37.0695 -1076.16 333.542)
(188.297 -1075.94 345.463)
(414.925 -1024 406.346)
(387.863 -570.955 315.414)
(0.0253361 -0.0350699 0.0166466)
(0 0 0)
(-2.5212e-26 0 0)
(1.03832e-28 0 0)
(1.78346e-34 0 0)
(5.13214e-34 0 0)
(2.18876e-34 0 0)
(2.3826e-34 0 0)
(1.20247e-33 0 0)
(6.47051e-27 0 0)
(-4.53812e-17 0 0)
(-8.66379e-14 -1.19059e-14 7.54045e-15)
(-6.6238e-12 -1.33465e-12 9.8903e-13)
(-4.26076e-10 -1.01567e-10 7.18675e-11)
(-2.77122e-08 -7.85123e-09 7.40337e-09)
(-5.87756e-07 -1.46302e-07 1.26641e-07)
(-0.000435897 -0.000164295 0.000154405)
(-441.743 -367.741 281.473)
(-797.55 -845.851 387.493)
(-514.485 -820.894 265.684)
(-488.344 -1399.39 340.743)
(-88.9075 -1630.11 361.258)
(321.077 -1536.89 359.463)
(389.656 -857.114 300.575)
(659.789 -795.929 315.49)
(743.707 -663.661 434.063)
(0 0 0)
(-1.06325e-24 0 0)
(4.37119e-27 0 0)
(7.32438e-33 0 0)
(3.03472e-32 0 0)
(1.20398e-32 0 0)
(1.39547e-32 0 0)
(7.13753e-32 0 0)
(-3.64881e-25 0 0)
(-1.02794e-14 -2.31915e-16 4.06024e-16)
(-1.04722e-12 -1.3018e-13 1.12295e-13)
(-8.20496e-11 -1.05412e-11 9.19534e-12)
(-6.45501e-09 -8.04303e-10 7.43188e-10)
(-1.93652e-07 -2.83177e-08 2.96333e-08)
(-4.46505e-05 -7.02148e-06 1.2722e-05)
(-5.87345 -1.56146 2.52671)
(-1043.46 -555.5 448.762)
(-798.848 -502.627 252.231)
(-1198.05 -1266.42 382.022)
(-618.433 -1235.93 384.257)
(-96.6008 -1228.38 382.75)
(408.871 -1229.93 379.749)
(997.979 -1239.98 381.086)
(782.201 -553.795 343.502)
(950.923 -555.585 350.501)
(0 0 0)
(-3.32577e-23 0 0)
(1.6665e-25 0 0)
(3.98029e-32 0 0)
(5.11554e-31 0 0)
(1.9939e-31 0 0)
(2.36936e-31 0 0)
(1.63834e-30 0 0)
(-2.88173e-22 0 0)
(-6.82755e-14 -1.73461e-15 3.77023e-15)
(-5.2538e-12 -3.25597e-13 5.75478e-13)
(-3.7381e-10 -2.25483e-11 4.16255e-11)
(-2.25557e-08 -1.44644e-09 2.74995e-09)
(-5.68455e-07 -4.87787e-08 8.22371e-08)
(-0.000138326 -1.3133e-05 3.35272e-05)
(-232.782 -46.4872 112.152)
(-1030.58 -290.991 332.482)
(-1467.52 -568.714 342.028)
(-1184.86 -670.111 379.453)
(-638.983 -690.794 376.238)
(-99.3399 -686.269 366.302)
(428.309 -688.628 367.893)
(963.67 -698.906 363.394)
(1547.41 -694.604 375.436)
(945.507 -258.945 322.174)
(0 0 0)
(-2.57212e-22 -1.39208e-14 0)
(2.64928e-24 -1.39208e-14 -5.85088e-17)
(-3.09314e-30 -1.39208e-14 3.93605e-17)
(-8.00899e-32 -1.39208e-14 5.20151e-16)
(1.13974e-33 -1.39208e-14 2.24372e-16)
(1.02731e-34 -1.39208e-14 1.19196e-16)
(-4.18318e-30 0 2.5426e-16)
(-5.90917e-20 0 8.96415e-16)
(-1.03732e-13 0 6.6704e-15)
(-7.62351e-12 6.52347e-14 8.89967e-13)
(-5.22756e-10 7.69779e-12 6.04392e-11)
(-3.08007e-08 5.62767e-10 3.71971e-09)
(-8.14886e-07 -7.25795e-10 1.23953e-07)
(-0.000313747 -2.00261e-06 8.38287e-05)
(-389.642 -4.64886 184.25)
(-990.774 -66.9535 309.789)
(-1645.93 -159.247 361.661)
(-1172.82 -159.233 374.687)
(-634.211 -158.58 338.411)
(-142.706 -189.225 275.992)
(434.171 -153.594 329.236)
(962.371 -155.05 345.471)
(1508.72 -158.959 377.091)
(1010.48 -322.178 348.525)
(0 0 0)
(0 0 0)
(0 0 0)
(0 0 2.76748e-15)
(0 0 0)
(0 0 0)
(0 0 0)
(0 0 0)
(0 0 -1.2286e-14)
(-5.02926e-14 1.54289e-14 2.7304e-15)
(-3.76395e-12 3.32823e-13 4.78516e-13)
(-2.59578e-10 2.08236e-11 3.42647e-11)
(-1.59742e-08 1.44703e-09 2.27953e-09)
(-4.24239e-07 3.71786e-08 7.9213e-08)
(-0.000153878 8.97795e-06 4.37013e-05)
(-262.777 37.2749 130.946)
(-995.368 159.919 325.484)
(-1560.45 287.271 349.961)
(-1165.85 346.41 364.898)
(-831.735 33.3991 500.913)
(-270.002 -564.045 729.854)
(404.492 -539.006 777.544)
(936.509 -596.609 826.619)
(1398.64 -715.627 857.209)
(1746.36 -400.12 644.425)
(0 0 -5.88853e-16)
(0 0 1.71148e-14)
(0 0 0)
(0 0 0)
(0 0 0)
(0 0 0)
(0 0 0)
(0 0 0)
(1.57289e-14 -2.18093e-14 -1.22011e-14)
(-2.32014e-16 0 0)
(-8.20588e-14 7.52168e-14 8.001e-15)
(-9.19377e-12 9.14928e-12 1.18001e-12)
(-5.37763e-10 5.46009e-10 7.22003e-11)
(-2.60818e-08 1.59272e-08 5.18284e-09)
(-5.10428e-05 5.18436e-06 1.6348e-05)
(-34.1488 7.5499 18.4471)
(-1043.04 384.812 418.673)
(-1005.53 437.499 245.752)
(-1452.3 765.767 499.795)
(-1056.01 943.185 724.308)
(1570.66 765.495 490.109)
(0 0 2.00672e-17)
(0 0 0)
(0 0 0)
(0 0 0)
(0 0 0)
(-6.96042e-16 2.32014e-16 0)
(-1.51366e-15 6.7284e-15 2.81097e-17)
(-4.53675e-13 4.86533e-13 9.08122e-14)
(-8.76419e-10 1.10544e-10 2.24395e-10)
(-2.63191e-06 4.30789e-07 8.58641e-07)
(-0.156671 0.0340389 0.0719834)
(-927.104 549.894 593.372)
(-778.893 658.59 239.145)
(-1286.36 1356.88 453.159)
(-685.774 1698.63 582.052)
(92.6636 588.256 219.036)
(0 0 -5.28439e-16)
(0 0 0)
(0 0 1.43096e-14)
(0 0 0)
(0 0 1.70013e-14)
(0 0 3.0207e-15)
(0 0 0)
(-485.193 1057.89 310.606)
(-49.496 908.863 262.689)
(313.272 250.76 133.579)
(0.00612528 0.00219905 0.00119943)
(7.63412e-07 7.83126e-08 1.16902e-07)
(-5.49408e-05 0.00029088 4.36316e-05)
(0.000143854 0.00419802 0.000627358)
(0 0 -2.91682e-16)
(0 0 0)
(0 3.0874e-14 1.8533e-14)
(0 2.78417e-14 5.75286e-18)
(0 2.78417e-14 0)
(0 2.78417e-14 0)
(0 2.78417e-14 -1.872e-14)
(0 2.78417e-14 -1.87171e-14)
(0 0 0)
(0 0 0)
(0 0 0)
(0 0 0)
(-113.473 465.426 283.834)
(64.3355 209.116 124.798)
(0.025982 0.0360426 0.0189165)
(7.66811e-07 7.29615e-07 1.96126e-07)
(1.0799e-08 6.65924e-09 2.16959e-09)
(-3.8231e-09 1.27254e-07 1.60143e-08)
(4.65579e-09 5.3247e-08 7.98827e-09)
(0 0 0)
(0 1.39208e-14 -1.31232e-16)
(0 1.39208e-14 5.70752e-17)
(0 1.39208e-14 0)
(0 1.39208e-14 0)
(0 1.39208e-14 0)
(0 1.39208e-14 0)
(0 0 0)
(0 0 0)
(-1.39208e-14 -1.23809e-14 5.8192e-16)
(0 0 -1.09304e-14)
(0 -2.0588e-14 1.64482e-14)
(0 -1.17263e-14 0)
(0 -1.83153e-14 0)
(0 0 0)
(-5.12759e-14 1.64777e-14 1.77561e-14)
(-3.49183e-10 1.2824e-10 1.98407e-10)
(-6.87322e-07 2.63628e-06 1.17339e-06)
(-3.95396e-05 0.000498194 0.000173658)
(7.48162e-06 5.81576e-05 2.11626e-05)
(1.49213e-07 4.0178e-07 8.9951e-08)
(1.04962e-08 1.52796e-08 2.8457e-09)
(4.14641e-10 3.68594e-10 1.06029e-10)
(-1.25324e-11 1.45111e-09 2.87537e-10)
(3.77931e-11 6.53698e-10 1.3101e-10)
(0 0 0)
(0 0 0)
(0 0 0)
(0 0 0)
(0 0 0)
(0 0 0)
(0 0 0)
(0 0 0)
(0 0 0)
(0 0 0)
(0 -2.08813e-14 0)
(0 0 -1.69452e-16)
(0 1.39208e-14 -1.35228e-16)
(0 0 0)
(-2.51867e-15 -2.00692e-14 1.73711e-16)
(-4.19463e-13 1.27724e-13 7.9946e-14)
(-3.33107e-11 2.38926e-11 8.56673e-12)
(-1.25618e-09 3.62203e-09 1.15289e-09)
(-2.67149e-09 5.36638e-08 1.23601e-08)
(2.53189e-09 3.3457e-08 5.90635e-09)
(1.89903e-09 7.84445e-09 1.14743e-09)
(1.96525e-10 3.51293e-10 6.56202e-11)
(8.1252e-12 9.95815e-12 2.12413e-12)
(9.44615e-14 1.59727e-11 3.54162e-12)
(2.79229e-13 8.74481e-12 1.63273e-12)
(0 0 0)
(0 0 0)
(0 0 0)
(0 0 0)
(0 0 0)
(0 0 0)
(0 0 0)
(0 0 0)
(0 0 0)
(0 0 0)
(0 0 0)
(0 0 0)
(0 0 0)
(0 0 0)
(0 0 0)
(-1.50368e-14 7.19243e-15 1.45009e-15)
(-8.2242e-13 7.54741e-13 2.23603e-13)
(-3.04341e-11 6.59435e-11 1.91081e-11)
(-4.20557e-11 9.89328e-10 2.0515e-10)
(3.8527e-11 7.73942e-10 1.16897e-10)
(3.62307e-11 1.66209e-10 2.3475e-11)
(3.68765e-12 7.48079e-12 1.23536e-12)
(1.49135e-13 2.19137e-13 3.20759e-14)
(1.3908e-15 1.64498e-13 3.254e-14)
(1.16007e-15 1.18095e-13 1.38048e-14)
(0 0 0)
(-1.54206e-50 0 0)
(4.04108e-52 0 0)
(1.50093e-59 0 0)
(1.61521e-59 0 0)
(1.4676e-59 0 0)
(7.76609e-60 0 0)
(7.46116e-59 0 0)
(6.6512e-51 0 0)
(8.23053e-49 0 0)
(-8.55305e-47 0 0)
(-8.99244e-45 0 0)
(-2.39614e-41 0 0)
(-1.57725e-38 0 0)
(-5.50821e-36 0 0)
(-9.88341e-34 0 0)
(-8.95585e-32 0 0)
(-3.2517e-30 0 0)
(-4.43357e-29 0 0)
(-3.72457e-28 0 0)
(1.57048e-28 0 0)
(2.63511e-28 0 0)
(2.23489e-29 0 0)
(1.0605e-30 0 0)
(0 0 0)
(0 0 0)
(-2.30511e-48 0 0)
(5.15245e-50 0 0)
(2.69397e-57 0 0)
(2.94611e-57 0 0)
(2.6274e-57 0 0)
(1.41439e-57 0 0)
(1.33712e-56 0 0)
(9.96264e-49 0 0)
(1.07057e-46 0 0)
(-1.10201e-44 0 0)
(-3.79232e-42 0 0)
(-8.51657e-39 0 0)
(-5.15083e-36 0 0)
(-1.66699e-33 0 0)
(-2.79137e-31 0 0)
(-2.35224e-29 0 0)