/*--------------------------------*- C++ -*----------------------------------*\
  =========                 |
  \\      /  F ield         | OpenFOAM: The Open Source CFD Toolbox
   \\    /   O peration     | Website:  https://openfoam.org
    \\  /    A nd           | Version:  9
     \\/     M anipulation  |
\*---------------------------------------------------------------------------*/
FoamFile
{
    format      ascii;
    class       volScalarField;
    location    "0.00195";
    object      impulse;
}
// * * * * * * * * * * * * * * * * * * * * * * * * * * * * * * * * * * * * * //

dimensions      [1 -1 -1 0 0 0 0];

internalField   nonuniform List<scalar> 
14499
(
0.877884
6.6725e-08
3.12165e-08
9.18476e-10
2.38326e-11
2.81576e-07
8.71841e-09
2.44479e-10
1.04652e-07
33.083
5.01096e-06
3.35399e-06
1.61234e-05
4.67239e-07
7.17383e-08
0.000277469
5.86238e-07
6.13607e-07
5.77701e-08
2.35883e-05
7.22642e-06
9.55939e-07
10.4839
0.0164045
4.29373
0.334302
0.0215798
19.2372
1.56435e-05
20.9811
26.5586
18.0397
3.18146
6.56553
3.1788
7.65734
1.4062e-05
1.61225e-07
2.5427e-07
1.03489e-06
6.78449e-07
3.49187e-06
4.43223e-06
0.000287181
1.76458e-05
0.00144827
0.00108928
7.4558e-05
7.33244e-05
0.00529174
3.60929
10.2933
4.47405
0.974223
0.369819
1.20579
0.252143
3.08612e-07
1.91459e-05
7.25539e-06
1.42149e-06
3.25319e-05
0.000220106
0.00036381
1.94926e-05
0.00419946
0.000231511
7.0579e-05
0.0220195
4.23971e-05
0.00101103
0.00159674
0.0249003
0.066055
0.00596729
0.0869715
0.00422982
6.04511
0.00267987
1.00589
3.94271e-05
18.5617
0.210589
0.240282
0.000358833
2.6456e-08
3.78409e-07
9.78177e-10
3.39896e-12
1.04768e-09
3.38065e-08
3.71115e-10
1.12009e-07
2.92393e-09
7.28503e-11
2.79688e-12
5.43114e-12
4.84045e-12
1.20573e-08
4.02345e-10
1.20866e-11
3.17353e-13
5.40846e-14
5.83289e-14
5.71154e-10
1.98297e-11
6.26702e-13
7.63976e-15
0
0
2.19808e-11
7.82772e-13
1.54008e-14
0
0
0
7.03464e-13
1.3218e-14
0
0
0
0
8.48862e-15
0
0
0
0
0
1.39206e-05
2.7749e-09
8.44904e-08
2.14867e-10
8.43283e-13
3.546e-11
3.32882e-09
4.0565e-11
2.39876e-08
6.83742e-10
1.94475e-11
5.29083e-13
3.142e-13
5.49941e-13
2.85497e-09
9.96264e-11
3.18942e-12
8.3431e-14
2.66785e-15
3.27418e-15
1.32183e-10
4.9331e-12
1.49521e-13
0
0
0
5.1378e-12
1.86386e-13
4.85064e-16
0
0
0
1.57039e-13
4.85064e-16
0
0
0
0
0
0
0
0
0
0
2.71519e-08
5.64386e-11
2.73335e-11
1.40062e-13
1.97664e-14
1.01775e-11
9.31444e-13
6.97795e-09
1.7616e-10
4.07927e-12
8.01568e-14
7.27596e-16
8.97368e-15
5.79985e-10
1.87914e-11
5.18655e-13
6.0633e-15
0
0
2.12736e-11
7.40692e-13
1.44306e-14
0
0
0
6.82121e-13
1.33393e-14
0
0
0
0
1.26117e-14
0
0
0
0
0
0
0
0
0
0
0
1.7852e-11
1.9462e-12
3.86194e-11
2.97102e-14
0
9.58001e-15
2.93464e-14
1.89514e-09
3.3557e-11
6.00752e-13
4.72937e-15
0
0
7.66093e-11
2.36651e-12
5.12955e-14
0
0
0
2.46728e-12
7.27596e-14
0
0
0
0
6.22094e-14
0
0
0
0
0
0
0
0
0
0
0
0
0
0
0
0
0
0.000241203
9.41743e-09
2.35061e-11
2.04697e-13
1.78746e-13
2.97496e-06
7.61284e-09
5.57241e-12
6.79089e-15
0
0
6.28787e-09
9.19305e-11
1.35418e-12
1.51582e-14
0
0
1.85657e-10
3.63058e-12
7.33659e-14
0
0
0
4.69978e-12
9.51938e-14
0
0
0
0
9.50725e-14
0
0
0
0
0
0
0
0
0
0
0
0
0
0
0
0
0
0.00123815
3.44952e-08
6.38859e-10
3.23974e-11
1.71228e-12
6.25732e-14
9.82393e-08
1.82973e-09
3.10437e-11
5.17199e-13
3.37119e-14
0
2.55058e-09
6.20279e-11
1.32604e-12
1.64922e-14
0
0
6.52692e-11
1.78431e-12
3.58947e-14
0
0
0
1.54359e-12
3.79562e-14
0
0
0
0
2.52233e-14
0
0
0
0
0
0
0
0
0
0
0
0
0
0
0
0
0
8.0521e-08
2.8653e-09
1.35661e-10
6.19596e-12
2.85824e-13
1.69772e-15
3.71288e-09
1.35726e-10
5.72412e-12
2.17066e-13
2.54659e-15
0
1.30032e-10
5.31642e-12
2.00574e-13
1.69772e-15
0
0
3.85141e-12
1.5134e-13
9.70128e-16
0
0
0
9.39811e-14
1.21266e-16
0
0
0
0
0
0
0
0
0
0
0
0
0
0
0
0
0
0
0
0
0
0
2.47188e-09
1.30908e-10
7.32083e-12
3.35179e-13
6.0633e-15
0
1.25435e-10
6.19463e-12
3.02074e-13
6.0633e-15
0
0
4.84652e-12
2.34407e-13
2.78912e-15
0
0
0
1.48308e-13
1.69772e-15
0
0
0
0
1.21266e-16
0
0
0
0
0
0
0
0
0
0
0
0
0
0
0
0
0
0
0
0
0
0
0
7.58751e-11
4.71943e-12
2.62662e-13
4.72937e-15
0
0
3.93108e-12
2.1549e-13
2.78912e-15
0
0
0
1.50491e-13
1.21266e-15
0
0
0
0
1.21266e-16
0
0
0
0
0
0
0
0
0
0
0
0
0
0
0
0
0
0
0
0
0
0
0
0
0
0
0
0
0
2.09038e-12
1.27572e-13
3.63798e-16
0
0
0
9.3011e-14
4.85064e-16
0
0
0
0
0
0
0
0
0
0
0
0
0
0
0
0
0
0
0
0
0
0
0
0
0
0
0
0
0
0
0
0
0
0
0
0
0
0
0
0
1.49768e-07
1.87731e-09
8.02522e-08
1.53513e-09
2.66106e-10
3.30425e-12
1.98913e-10
4.48539e-12
6.52653e-13
1.28294e-10
5.53943e-13
2.43566e-11
0.00956305
3.26443e-09
2.72883e-07
0.00562832
6.5493e-10
6.76066e-08
2.21385e-06
1.26057e-06
9.07752e-08
0.000162548
1.03597e-06
6.12861e-07
3.47877e-08
1.96635e-08
1.80962e-07
1.50044e-08
2.21841e-07
1.14362e-08
1.05237e-07
1.10449e-08
5.40895e-11
8.88713e-10
1.9589e-10
5.73452e-10
3.24538e-11
6.92895e-10
1.55915e-10
1.32897e-11
1.3747e-11
4.86289e-12
1.97106e-12
4.59622e-12
1.17681e-11
3.73075e-12
1.17969e-08
2.04716e-11
2.06765e-10
3.60986e-10
4.37817e-09
7.01936e-12
7.45451e-11
3.51365e-08
6.32326e-10
1.71583e-10
8.12626e-11
1.27535e-12
2.25917e-11
5.32358e-13
2.16824e-13
6.47766e-12
5.56611e-14
1.92813e-14
0.00120677
1.82007e-10
1.81044e-08
6.81722e-05
6.00267e-13
5.95034e-10
2.65996e-07
1.68536e-07
1.01168e-08
7.15318e-07
3.0816e-08
1.54656e-08
8.85158e-10
4.38447e-09
3.62769e-08
3.2323e-09
1.3132e-09
1.22271e-08
1.17621e-09
1.28248e-11
2.12716e-10
5.53266e-11
6.61223e-11
3.92744e-12
1.00692e-10
2.05273e-11
5.08226e-13
4.0886e-12
1.43033e-12
2.53446e-13
3.85626e-14
2.16351e-12
5.24718e-13
5.23283e-10
7.22139e-13
8.83447e-12
1.15409e-12
2.55087e-11
7.45786e-14
5.55156e-13
6.71081e-11
2.97213e-11
9.05699e-12
1.52068e-13
3.48167e-12
6.85153e-14
2.02514e-14
8.48862e-16
1.94026e-15
0
1.33851e-07
4.77788e-14
3.10061e-11
5.76768e-10
0
4.92825e-13
1.62737e-09
5.43843e-10
4.5449e-11
5.73446e-10
5.10662e-11
1.32883e-11
2.03399e-12
5.71367e-10
4.88361e-09
6.01081e-10
2.38834e-10
2.44349e-09
2.7769e-10
1.64085e-12
3.81089e-11
1.10541e-11
1.10573e-11
6.17729e-13
2.06677e-11
4.17567e-12
7.88229e-15
6.90488e-13
2.34771e-13
2.58296e-14
0
3.59675e-13
7.74889e-14
6.40769e-13
7.88229e-15
1.61284e-14
0
1.44306e-14
1.69772e-15
0
5.57371e-11
1.53358e-07
5.01313e-12
2.66785e-14
1.367e-08
6.51259e-12
7.27596e-16
0
6.85759e-13
3.63798e-15
9.93277e-12
0
3.85626e-14
9.89409e-13
0
1.69772e-15
2.75807e-12
5.44363e-13
1.83597e-13
1.99434e-12
5.82804e-13
6.85153e-14
3.94114e-14
1.2522e-09
3.65363e-09
1.94617e-10
4.43962e-08
5.26584e-08
1.9926e-09
1.14875e-12
8.71866e-12
1.49691e-12
1.07248e-09
2.39069e-11
6.1932e-11
2.39318e-12
0
7.46998e-14
1.96451e-14
5.42059e-13
9.82254e-15
9.44662e-14
6.66963e-15
0
0
0
0
0
0
0
1.11633e-06
1.02799e-07
6.9406e-11
9.08277e-06
3.8054e-07
3.9011e-07
1.86632e-08
4.07305e-10
8.31072e-12
9.8953e-14
1.62454e-08
7.73644e-10
8.39004e-10
4.09345e-11
1.29173e-12
1.90388e-14
0
4.37176e-11
4.36194e-12
2.40628e-12
2.21917e-13
1.87444e-05
6.42192e-08
4.10708e-09
1.57923e-08
8.70738e-11
0.000655699
1.99813e-07
3.47342e-12
7.34799e-12
3.07316
3.85396e-07
8.92164e-09
5.13645e-10
8.36203e-11
2.58685e-12
9.09824e-06
6.30953e-08
3.66015e-09
1.70481e-10
7.17967e-12
2.02393e-13
3.02748e-08
2.29089e-09
1.38496e-10
6.72298e-12
2.6824e-13
1.69772e-15
1.01488e-09
7.61573e-11
4.64242e-12
2.14398e-13
1.69772e-15
0
2.84101e-11
2.18873e-12
1.20053e-13
0
0
0
0.186519
0.11777
0.00636766
0.179632
0.000426512
0.00291301
0.00454551
0.000183283
0.0307942
0.0022602
5.02423e-05
0.00303778
9.53209e-06
5.32662e-06
6.32018e-05
8.43383e-07
4.02003e-06
4.71113e-06
1.57143e-08
5.44422e-07
1.48099e-06
4.37537e-08
1.00983e-06
2.10364e-08
2.40448e-08
1.30212e-09
3.3828e-07
1.43004e-10
2.13458e-08
1.19111e-11
9.21282e-10
5.68798e-10
5.75964e-11
1.2701e-09
1.65052e-10
5.17382e-11
1.01966e-11
0.378258
0.643718
0.00391976
1.66605e-05
0.153667
5.34289e-05
0.00417933
6.81447e-06
1.85354e-06
1.03568e-07
4.25668e-09
2.93079e-06
1.75887e-07
2.64806e-07
1.28362e-08
8.03861e-09
2.30026e-10
1.1234e-11
1.05154e-08
1.14563e-09
7.18196e-10
7.4096e-11
0.000259208
0.0240091
4.64731e-06
6.28195e-06
1.73803e-05
0.000794644
5.89441e-05
1.35554e-06
4.22262e-05
3.14432e-06
1.40957e-05
2.63757e-09
1.36814e-08
1.80174e-09
5.28917e-10
9.89758e-10
1.53519e-10
1.94237e-09
8.44217e-12
1.6669e-11
4.97494e-12
1.8521e-12
1.70694e-12
5.11864e-13
5.78839e-12
6.37915e-09
3.01652e-08
4.75991e-08
1.4505e-07
2.79164e-08
4.28951e-08
7.06516e-09
1.01922e-09
2.6069e-10
6.3678e-09
1.67924e-09
2.35129e-10
5.8976e-09
1.12457e-09
4.51947e-09
8.85484e-08
1.38921e-08
2.05166e-08
1.8338e-08
3.14588e-08
2.98569e-09
7.07465e-10
1.65396e-09
1.72809e-10
2.87755e-09
2.05156e-10
3.94877e-09
4.76517e-10
8.74449e-12
4.1858e-11
7.7425e-11
2.49375e-10
3.85156e-11
6.95363e-11
9.72165e-12
1.46623e-12
3.78592e-13
1.28423e-11
2.84441e-12
3.26327e-13
1.12363e-11
1.69045e-12
6.74918e-12
2.01186e-10
2.81059e-11
3.81943e-11
3.19653e-11
5.15057e-11
5.14337e-12
1.11286e-12
4.37928e-12
4.18731e-13
6.8816e-12
4.1473e-13
8.05776e-12
9.01006e-13
6.45741e-13
9.43449e-14
3.57977e-13
5.22656e-13
7.72464e-14
2.97465e-13
7.17288e-13
2.17221e-11
7.86692e-10
4.65382e-12
1.11251e-10
7.12527e-10
4.07951e-12
2.40298e-11
3.70589e-13
4.62751e-13
6.20882e-14
1.52553e-13
6.40284e-14
1.9354e-13
1.38607e-13
1.2823e-11
6.41239e-11
1.69144e-10
8.64262e-13
4.31895e-10
2.26828e-12
4.76721e-12
0.00817587
0.0037195
0.00309356
0.000362749
0.000158717
0.000130268
0.000431883
5.38067e-07
2.43891e-08
6.85285e-08
2.79609e-09
2.21423e-08
5.47918e-08
6.63673e-07
0.00198336
0.00300809
0.000942215
0.000238203
3.62895e-05
8.05535e-05
0.000117635
3.26911e-07
1.65107e-09
5.72762e-09
1.32543e-08
1.3802e-08
3.19726e-08
1.42794e-07
9.81834e-10
6.77776e-09
1.26585e-08
1.70702e-09
6.8696e-09
1.59232e-10
7.85454e-11
1.56912e-09
2.58433e-10
2.63711e-10
3.50968e-11
1.034e-09
8.07113e-11
1.92495e-10
1.82915e-11
2.96668e-10
2.29509e-11
4.91434e-10
4.75671e-11
1.46465e-12
1.28376e-11
2.70191e-11
4.43295e-11
3.13339e-12
6.20045e-12
1.22143e-11
2.35862e-13
1.48187e-13
3.71862e-12
5.79045e-13
4.87489e-13
5.32358e-14
2.01908e-12
8.8985e-13
2.31196e-11
2.95622e-12
4.42754e-12
3.49961e-12
8.29326e-12
5.38906e-13
1.34484e-13
5.25445e-13
4.02603e-14
8.00113e-13
4.1958e-14
1.10886e-12
8.76753e-14
6.30583e-15
2.21917e-14
7.51849e-14
1.06835e-13
3.74712e-14
7.15469e-15
3.58947e-14
2.55507e-13
4.69491e-11
2.24706e-13
1.35891e-12
1.26577e-12
9.89761e-12
5.05679e-14
3.63798e-16
4.89914e-14
1.21266e-15
4.9719e-15
1.69772e-15
7.88229e-15
0
3.43183e-14
1.86022e-13
1.49278e-13
3.63798e-16
1.45737e-12
4.85064e-15
2.78912e-15
0.000327432
0.000350264
8.17635e-05
1.11082e-05
1.16569e-05
4.25996e-05
2.83913e-06
1.02582e-08
1.68252e-09
3.80817e-09
3.86009e-11
4.4302e-08
3.68468e-10
8.96711e-10
1.36791e-05
1.57126e-06
8.25567e-06
1.96597e-06
6.67881e-08
4.48145e-07
2.28792e-07
1.60825e-09
5.61959e-12
5.89777e-12
1.50235e-11
5.61663e-11
1.27944e-10
1.86332e-10
1.8987e-11
8.40155e-12
1.94327e-10
3.21395e-11
3.10732e-11
4.20611e-12
1.30614e-10
1.13089e-11
3.05874e-11
5.19588e-12
6.34371e-11
3.34027e-12
6.5556e-11
3.11754e-11
1.56069e-13
1.35321e-12
2.71769e-12
5.51384e-12
3.0462e-13
7.18743e-13
1.43797e-12
1.37031e-14
1.18841e-14
4.01269e-13
6.17244e-14
4.06241e-14
1.69772e-15
1.82869e-13
8.97368e-14
3.51053e-12
6.1688e-13
6.7727e-13
4.75484e-13
7.60095e-13
7.66401e-14
6.66963e-15
4.3777e-14
1.69772e-15
1.04167e-13
1.21266e-16
1.25753e-13
6.79089e-15
0
0
2.78912e-15
9.09495e-15
0
0
9.70128e-16
0
1.00651e-14
0
0
0
1.21266e-16
0
0
9.70128e-16
0
0
0
0
0
0
0
0
0
0
0
0
1.03633e-08
7.07585e-07
4.81366e-08
1.36836e-09
5.1134e-09
1.95044e-08
8.40038e-10
1.09479e-12
4.9428e-13
1.2494e-12
2.06152e-15
1.59251e-11
2.6436e-14
8.25821e-14
7.39011e-11
2.5429e-09
1.35329e-10
7.38267e-11
9.33154e-12
4.47692e-11
5.07825e-12
6.12393e-14
0
0
1.21266e-16
8.48862e-16
3.88051e-15
2.78912e-15
1.65123e-08
6.89396e-11
2.86763e-10
4.85002e-10
6.46293e-10
1.7521e-09
4.17832e-09
4.19864e-07
9.42101e-09
1.11612e-06
1.39637e-06
4.6084e-08
8.32935e-08
9.64905e-06
1.18842e-11
6.02886e-12
9.79465e-13
4.18243e-11
5.11379e-13
1.53505e-10
5.44957e-12
8.10663e-13
1.33393e-15
1.08169e-13
1.04774e-13
3.4197e-14
5.52973e-14
4.03816e-13
3.1569e-10
8.24061e-10
1.02689e-07
1.06715e-09
4.09652e-09
9.23975e-11
8.10708e-09
2.13626e-11
1.34266e-12
3.00113e-11
7.58668e-11
1.39783e-12
6.4642e-12
5.56092e-10
0
0
0
5.21444e-15
0
3.75924e-15
9.70128e-16
0
0
0
0
0
0
0
1.98876e-14
9.94381e-14
2.48632e-12
1.46247e-13
1.23085e-13
1.34605e-14
4.51231e-13
1.69772e-15
0
1.89175e-14
2.23129e-14
0
1.21266e-16
8.45224e-14
5.09596e-12
4.2796e-12
1.13637e-11
3.11168e-13
1.61514e-12
7.26019e-13
6.45377e-13
0
0
0
0
0
0
0
1.51461e-12
8.96034e-13
1.35333e-12
1.01742e-13
1.46368e-13
2.47989e-13
6.90003e-14
0
0
1.69772e-15
0
0
0
0
9.88219e-08
3.62543e-06
2.10705e-07
1.02721e-07
1.28872e-08
1.99521e-07
1.62933e-08
1.34382e-10
3.01379e-10
7.88e-11
9.26328e-11
7.27256e-12
2.80241e-11
2.76879e-11
0.0511208
4.56658
0.373512
0.197572
0.796665
1.97171e-06
4.83664e-05
5.06235e-05
4.9026e-05
3.79947e-06
1.52478e-05
9.41472e-06
7.73945e-09
9.11e-08
2.15071e-08
1.90913e-07
7.67418e-09
9.27676e-08
2.09901e-08
0.16257
0.0801199
0.0676009
2.81649
1.59773
1.37032
3.14133
0.0448746
0.0683816
0.0226349
2.1764
0.502529
0.943253
1.38919
0.00843866
0.0102293
0.0022522
0.272227
0.201519
0.704293
0.0580634
0.000404985
4.71846e-05
0.000295328
0.0708623
0.00134003
0.01109
0.010369
2.84609e-07
2.54361e-05
1.70521e-06
5.94225e-05
0.000113386
0.000900873
7.62399e-06
0.000101188
7.92846e-05
0.000111797
5.40617e-07
0.00260284
1.00584e-05
4.64664e-06
1.39943e-09
8.98573e-08
4.33241e-09
3.12538e-06
2.35721e-08
4.13565e-07
1.44927e-07
6.88535e-11
6.07654e-11
2.26893e-10
8.88122e-10
1.89493e-09
5.35151e-09
7.4463e-10
1.82794e-11
1.11091e-11
1.71188e-11
2.07665e-10
1.26804e-10
2.01529e-10
1.37613e-10
0.0446022
0.896939
0.140584
5.25961
2.28906
10.3044
0.696181
0.00277209
0.00103024
0.000648604
0.0205253
0.0112559
0.000143322
0.000274913
0.0147657
0.00109599
0.00407226
0.266744
0.0199832
0.0602645
1.20915e-06
6.59092e-05
3.60136e-06
0.000232976
6.0436e-05
0.00116713
1.29376e-05
3.86435e-07
4.56016e-06
1.56607e-07
1.68486e-06
4.18817e-07
3.26205e-06
1.47968e-07
2.63823e-08
2.05244e-07
2.32971e-08
1.95809e-07
3.11513e-06
2.92258e-07
9.24851e-07
1.30506e-09
3.55595e-09
9.85202e-10
3.68525e-08
1.24638e-08
3.95795e-08
1.2025e-08
7.05089e-11
1.84212e-10
5.45705e-11
6.31145e-10
2.01135e-09
6.31002e-10
1.9571e-09
1.43164e-08
4.47524e-06
3.37418e-08
1.63588e-07
1.34438e-07
3.07854e-07
1.09449e-08
2.53477e-09
2.57018e-08
2.30105e-08
1.68011e-09
3.36419e-08
2.4655e-09
1.75742e-09
0.00272933
0.0588402
0.00815591
0.000451469
0.00357977
0.000161231
0.00144952
1.07974e-08
3.30242e-08
0.190952
9.3938e-09
2.53208e-08
4.42168e-09
1.65537e-09
4.90289e-09
1.16914e-08
5.70306e-05
1.3344e-06
9.6643
2.8156
0.828487
0.000204036
2.8218e-05
3.05255e-08
4.80449e-09
5.28593e-10
1.14039e-08
1.49502e-09
1.9985e-09
2.0974e-09
3.99062e-09
2.96269e-10
1.0893e-10
7.74931e-10
1.57626e-09
2.63066e-09
2.01884e-10
4.46788e-10
7.98996e-10
7.07544e-11
1.43991e-09
1.53115e-09
5.69196e-10
3.0276e-10
4.37119e-10
2.5163e-10
1.25188e-07
3.24016e-08
2.65798e-09
2.0609e-07
5.17536e-09
7.42195e-07
3.28979e-08
3.00723e-06
3.73394e-06
0.000339481
1.00851e-05
1.66556e-05
6.23266e-07
6.54749e-05
2.36296
4.06482
11.9096
19.1677
41.0126
24.7795
40.5244
0.0553221
0.0953048
1.3393
0.158862
0.3096
0.020856
0.0101211
1.87598e-13
6.48045e-13
7.87986e-13
2.63147e-14
9.70128e-15
8.98581e-14
2.18279e-14
9.50508e-06
1.40312e-07
3.4056e-07
3.1139e-07
1.31205e-08
2.75867e-07
1.32824e-08
1.92151e-10
4.13881e-10
1.50852e-11
1.69801e-08
8.7474e-10
7.93557e-10
8.48555e-11
2.20704e-13
5.56611e-13
6.40284e-14
4.17323e-11
2.92942e-12
4.29427e-12
8.53712e-13
0
4.85064e-16
0
1.48793e-13
2.06152e-14
3.832e-14
2.54659e-15
6.11391e-06
3.4825e-07
5.25248e-06
4.52129e-07
8.94077e-06
5.23517e-07
3.06028e-08
6.09727e-07
3.77091e-09
4.15848e-08
4.20213e-08
2.64596e-09
2.52748e-09
3.59731e-10
2.62501e-09
2.37354e-10
3.82788e-10
1.64992e-10
2.10447e-11
5.01535e-11
1.7002e-11
3.88623e-11
9.78071e-12
9.76725e-12
2.26125e-12
5.15502e-13
2.22147e-12
6.90973e-13
1.38489e-05
6.3093e-06
6.1346e-07
2.28572e-07
5.10391e-06
4.98988e-07
1.67443e-05
8.71411e-06
1.25951e-07
1.32752e-06
1.31443e-07
3.06615e-06
3.016e-07
4.01516e-06
3.22332e-07
4.01916e-07
4.00472e-08
6.31941e-09
1.33198e-06
9.84562e-08
9.73797e-09
5.30897e-08
9.50656e-10
2.733e-09
1.95117e-10
1.45051e-08
1.43723e-09
6.07512e-09
3.75034e-11
1.91852e-10
1.47538e-11
7.19762e-12
5.14165e-10
4.16179e-11
1.31173e-12
2.13853e-12
6.5229e-13
8.15392e-13
2.11003e-14
2.38664e-12
8.50074e-14
2.14883e-13
1.69772e-14
1.29512e-13
1.69772e-15
8.97368e-15
4.09879e-14
6.01479e-14
0
3.51671e-15
2.54659e-15
8.36735e-15
0
1.62496e-14
0
7.27596e-16
9.51536e-08
2.05463e-06
8.16163e-09
7.66126e-08
1.55259e-07
8.2479e-07
1.45847e-08
7.88957e-09
7.58782e-10
6.02312e-10
4.90199e-10
1.02645e-08
1.88267e-09
1.81203e-09
7.82021e-11
6.92031e-11
1.95978e-12
7.46185e-11
1.31882e-11
2.12173e-10
2.20186e-11
1.06948e-11
6.95824e-13
3.70468e-13
1.18586e-12
2.44969e-12
4.29742e-12
3.90743e-12
7.87259e-13
2.10045e-12
1.35345e-12
5.9675e-13
1.25753e-13
1.50612e-13
2.64845e-13
2.98799e-13
1.53523e-13
2.54659e-15
2.51142e-13
4.71725e-14
7.02736e-13
7.21532e-14
6.33008e-14
6.18456e-15
0
4.72937e-15
1.00651e-14
3.20142e-14
1.62496e-14
2.69841e-12
1.10987e-11
1.72291e-11
3.74507e-10
5.60323e-11
1.22294e-10
2.37632e-11
0.01594
3.39507e-05
4.8205e-06
0.00192413
0.0467357
0.000351415
9.18057e-05
7.57878e-06
4.07092e-08
4.51488e-07
0.000339443
3.60956e-06
2.67288e-06
3.28463e-07
3.25709e-08
4.08283e-09
6.59909e-09
2.7008e-07
1.03345e-07
1.17478e-07
7.22321e-08
6.13701e-10
1.88382e-10
1.89163e-10
8.5807e-09
3.83733e-09
7.34445e-09
3.86464e-09
1.2797e-09
1.25207e-08
8.17044e-10
6.79964e-09
1.38258e-09
1.18438e-08
6.32857e-10
7.92546e-12
1.85876e-11
1.38452e-11
1.28193e-10
7.72685e-11
1.37148e-10
6.31178e-11
8.40553e-05
1.01788e-05
0.000192652
1.15218e-06
2.27095e-05
7.80199e-07
9.34761e-06
3.44824e-05
0.000608146
6.97814e-05
0.00123773
0.000373399
0.00349583
0.00605022
3.25533e-09
7.7836e-10
9.38457e-11
1.54089e-08
1.22777e-09
3.31161e-10
3.81648e-11
2.79913e-10
6.3263e-11
7.26674e-12
2.89632e-10
2.70419e-11
5.70205e-12
1.0401e-12
1.15518e-12
1.88447e-13
4.70512e-14
2.75516e-13
7.82165e-14
4.36557e-15
5.3357e-15
3.63798e-15
0
0
0
0
0
0
0
0
0
4.85064e-16
0
0
0
1.41069e-08
5.43171e-10
1.7219e-11
4.42742e-13
3.17007e-09
1.2035e-10
3.82182e-12
9.17983e-14
4.81044e-10
1.53745e-11
4.20065e-13
3.51671e-15
7.19256e-11
1.80298e-12
3.56522e-14
0
1.67445e-10
3.37762e-12
5.52973e-14
0
2.79871e-07
7.02269e-08
1.3168e-08
2.77753e-09
7.62164e-09
5.50785e-08
1.52436e-09
3.59255e-11
7.67614e-13
7.88229e-15
0
2.38395e-09
7.16327e-11
1.91382e-12
3.94114e-14
0
0
1.99088e-09
7.82051e-11
2.58369e-12
6.71813e-14
0
0
0
5.53121e-11
2.3357e-12
7.16682e-14
0
0
0
0
1.40802e-12
5.19018e-14
0
0
0
0
0
208.841
264.671
61.4582
0.00419007
262.485
8.92299
1.42716e-05
375.889
3.30582
4.02829
213.948
3.91876e-05
4.38371e-06
178.72
0.442941
1.61133e-07
274.674
0.0621801
33.2564
1.63306
65.0979
2.93444e-05
2.03268e-07
13.3554
0.000110865
2.27218e-08
67.6765
4.72654e-05
0.0383557
0.0129588
68.6007
0.159172
1.27431e-06
4.00535e-08
15.3302
0.00181282
6.15131e-07
2.36222e-09
57.7391
0.00330657
6.99614e-05
3.36373e-06
1.27554e-07
4.82328e-09
39.3143
0.0820598
4.15027e-06
3.25105e-08
2.74189e-10
25.8249
7.40611e-06
2.33708e-07
9.99411e-09
3.56655e-10
0.0959823
5.74839e-06
4.72334e-08
1.42714e-09
4.13928e-11
2.24636e-07
1.13053e-08
4.89098e-10
1.77926e-11
8.74969e-07
5.3332e-08
2.00665e-09
7.17554e-11
2.34043e-12
2.64325e-08
1.6109e-09
7.20488e-11
2.89559e-12
8.77966e-14
442.764
387.964
45.619
351.482
58.1766
243.294
18.4147
292.827
30.3698
474.864
411.836
67.4617
313.439
38.6539
0.0767178
353.216
193.899
372.972
207.374
22.6992
122.465
0.265782
0.00122095
53.2757
126.505
54.3799
14.083
112.312
1.04779
0.00289842
52.7038
0.0246434
0.0116665
3.90832e-05
0.0417842
6.0639e-05
142.031
136.907
2.38589
0.0229664
0.0960222
52.5139
90.5798
103.209
36.5546
67.7799
0.146232
0.0309534
38.1202
0.03388
0.648769
0.000243299
0.010007
4.88656e-06
1.11214e-05
0.00144046
1.59135e-06
3.33377e-05
1.85707e-06
7.85736e-07
1.59446e-07
118.23
85.3476
0.243248
0.0808915
0.0153297
2.95608e-06
2.0469e-07
74.01
0.963215
0.0114306
268.361
364.947
258.356
7.50705
255.891
16.4564
46.3345
0.0317966
106.194
0.137435
177.011
228.812
136.875
15.6868
22.4521
1.71048
16.9809
10.1586
0.942048
0.000124709
0.000108153
4.38537e-06
1.69123
21.6892
0.0123866
1.47264
0.147384
0.899954
0.000162053
5.3121e-05
0.000841554
1.22628e-05
0.000105637
7.18874e-06
2.12554e-05
1.27851e-06
3.53242e-07
6.63482e-07
4.4423e-08
5.23887e-07
1.37922e-07
8.15501e-08
1.31072e-08
3.54571
2.9711
425.291
432.982
415.396
414.511
368.77
396.248
217.424
333.525
246.261
341.039
322.735
236.376
227.712
197.658
321.487
273.034
190.841
302.612
217.754
168.856
463.801
442.265
343.903
211.774
239.306
23.4464
52.855
112.377
8.74025
133.048
13.4111
18.5129
333.393
309.865
289.004
256.561
167.255
233.368
325.622
269.791
6.52498
85.9329
4.32789
9.29055
12.4344
56.1493
1.45566
177.452
49.9793
93.3745
102.684
97.4243
213.534
61.8249
185.202
36.8375
134.278
95.065
207.434
78.329
52.039
172.433
128.573
27.2501
35.1075
15.6965
0.225984
13.3305
5.51253
61.165
4.18626
0.195283
30.9449
9.32103
14.1
3.16994
5.08847
0.794364
0.0088977
1.11005
0.00941666
0.00152426
0.252979
0.0379187
0.000382175
226.43
77.7827
150.977
228.638
71.0438
148.179
25.0315
22.5982
78.5702
0.00191846
0.798741
0.00283562
0.00151019
0.0298585
0.0513698
0.000188061
2.42221
0.0034178
0.0842531
55.3872
61.243
157.715
24.9234
127.177
14.4954
71.2123
60.6711
69.161
19.2654
64.0538
25.7591
18.8
2.31015
0.393305
2.11708
2.50753
18.3676
4.53357
0.125997
18.1781
8.75897
4.47328
2.39375
1.63698
0.358669
0.00835326
0.00818601
0.697698
0.00110455
0.155487
0.00052107
0.0215366
0.0143772
0.181732
0.0292492
0.000666926
0.199919
0.0126392
0.00205139
0.000965229
4.3915e-05
2.27748e-05
4.33146e-05
7.56848e-05
0.000769549
0.000146993
1.03797e-05
0.000391873
5.68538e-05
5.17405e-05
2.70673e-05
3.81836e-05
2.9338e-06
4.55423e-06
2.85552e-06
5.83971e-06
1.97422e-07
9.22501e-06
4.96359e-07
1.77672e-06
193.083
41.3757
96.9461
28.0823
85.323
5.25181
3.77836
29.9043
1.72682
0.00250449
0.0520965
0.426408
0.000930569
0.0276657
7.7933e-05
5.22082e-05
0.00155927
3.60995e-06
2.78618e-08
1.87276e-07
26.8342
134.196
20.2033
20.4026
45.1401
57.9013
7.1404
0.206843
26.7241
153.949
18.6416
62.7842
147.004
16.961
28.3097
2.24723
2.11854
7.51356
0.034491
27.4304
0.2921
0.37305
116.854
246.255
65.6055
234.388
98.712
230.593
34.6574
0.00145089
0.49291
0.0161481
1.6444
0.000214554
0.228188
0.00722771
5.7164e-05
0.0280614
3.40143e-05
0.00153979
1.14099e-05
0.00100308
4.43753e-06
114.802
134.589
123.947
71.3621
86.1844
43.2499
0.0157285
38.9709
0.0106706
0.829987
0.000275934
0.0418805
5.72199e-05
1.34718e-06
2.83919e-05
6.29524e-07
3.45458e-06
2.32797e-07
1.29797e-06
5.24633e-08
2.33682
47.1252
0.11265
3.57242
0.0170705
2.35879
0.00072494
4.93521e-05
0.00702301
3.33211e-05
0.00112087
1.96974e-05
9.38089e-05
7.15125e-06
9.68043e-08
9.23225e-08
8.69757e-09
1.44529e-07
5.03104e-08
1.31318e-08
2.73956e-09
234.474
157.411
211.877
133.39
187.969
118.845
93.8646
161.352
79.6535
36.9067
135.195
77.0037
19.7935
53.4662
57.0601
159.149
18.6529
110.624
2.119
122.858
0.121471
1.18545e-08
3.81304e-09
8.2572e-10
1.98284e-08
4.49804e-09
1.60299e-09
3.24736e-10
0.0109772
0.000658712
1.05286e-06
3.28825e-08
8.12895e-10
464.13
624.944
468.567
556.194
752.917
412.576
200.456
509.66
366.277
660.632
469.11
638.328
189.522
325.787
238.945
464.941
215.798
405.455
66.4656
215.992
160.418
0.0808025
0.337761
5.31522
4.99192e-06
6.92703e-05
1.14928e-07
7.99148e-09
4.22054e-10
1.88097e-11
6.94005e-13
2.23308e-07
3.48685e-09
2.48317e-10
1.36298e-11
6.09119e-13
1.15203e-14
7.02733e-09
7.45479e-10
4.79341e-11
2.3391e-12
8.76753e-14
0
9.19099e-11
6.76919e-12
3.67921e-13
7.88229e-15
0
1.9916e-10
1.99503e-11
1.29112e-12
5.04466e-14
0
0
706.199
749.055
681.281
634.698
695.787
343.842
676.057
501.641
324.49
622.974
846.882
766.998
679.07
525.77
665.274
575.57
380.7
537.393
258.353
593.068
296.413
106.947
460.109
724.806
562.563
475.919
287.01
472.864
259.759
190.134
185.467
392.41
492.561
215.184
660.255
739.669
648.157
897.991
848.897
551.636
590.883
505.146
662.47
582.428
316.3
322.167
233.158
276.765
170.992
5.25816
760.548
706.755
819.865
740.471
700.514
811.141
766.243
801.037
834.11
860.108
778.792
743.431
721.238
661.733
766.562
683.696
791.45
721.768
569.551
643.694
600.979
667.097
636.825
591.817
577.183
496.579
524.018
514.587
505.169
552.27
648.019
597.61
548.572
620.122
573.124
528.28
478.424
471.69
496.329
452.25
941.896
832.16
925.526
944.337
985.872
803.388
855.52
894.345
568.218
556.805
713.217
591.351
623.672
502.867
533.966
722.177
804.835
752.45
769.871
665.576
635.177
736.355
629.536
695.981
602.515
699.769
686.252
675.449
727.345
638.938
628.048
588.07
513.332
609.452
562.499
658.725
580.904
459.969
569.199
518.827
557.461
497.353
533.922
481.344
379.684
439.787
419.541
399.797
414.336
513.704
438.767
377.676
491.034
434.897
356.91
329.727
287.721
350.158
264.577
811.335
676.188
762.209
733.404
795.192
622.9
648.371
709.166
464.058
417.821
536.978
388.614
450.842
298.328
362.589
497.127
611.071
576.499
532.567
436.969
448.642
546.456
391.201
518.1
362.418
467.838
403.396
338.59
441.204
301.353
337.171
291.323
148.227
263.317
255.864
372.285
227.194
186.941
369.539
304.875
306.121
279.923
277.056
217.975
578.504
411.653
498.772
388.46
491.875
317.221
301.355
406.895
117.994
233.363
201.653
137.793
512.612
672.524
632.033
600.562
437.941
637.622
596.14
309.964
529.733
309.409
397.983
276.394
467.599
290.154
402.319
610.268
485.124
416.262
302.913
479.668
330.438
255.741
432.071
208.556
277.676
163.854
227.328
175.855
263.996
368.481
206.36
261.465
159.582
265.326
155.781
182.044
109.207
165.891
87.6917
130.65
54.9954
121.745
48.0353
177.625
0.127119
0.000123929
1.95377e-06
1.27577e-06
1.08887e-07
5.73199e-08
3.78672e-09
1.56921e-09
70.8848
72.4349
40.8253
77.158
31.5515
57.7538
52.3819
44.8908
99.9618
77.0592
72.4419
112.676
23.6567
34.8907
23.1811
83.564
54.9166
65.276
63.2752
133.157
119.698
163.955
147.446
27.1456
88.0804
237.6
95.6252
56.4906
191.125
72.1206
103.981
760.03
1136.66
985.322
743.087
362.431
960.078
900.178
1033.74
869.436
737.057
816.877
667.785
405.075
467.531
215.35
369.615
123.464
136.894
308.132
437.518
164.031
1038.31
1116.14
1019.99
935.334
659.537
258.636
106.393
61.7708
16.0673
819.063
883.296
890.374
950.494
877.743
881.143
824.642
928.19
833.349
857.587
1078.61
805.375
835.004
773.534
792.494
684.883
735.13
880.208
619.055
587.834
539.073
499.633
360.395
451.579
567.558
305.814
326.352
418.003
287.119
373.194
250.768
346.156
243.686
209.596
125.516
209.203
183.513
279.094
185.146
269.98
214.904
187.07
498.271
342.683
413.948
251.966
248.127
333.521
789.979
1028.79
761.82
964.936
1237.29
1124.6
696.618
931.914
605.649
789.336
1073.87
896.679
498.889
714.663
313.686
456.737
815.91
534.404
995.346
942.069
1097.35
1018.92
936.766
1087.4
999.752
968.878
994.957
885.334
1028.18
913.547
1061.2
935.084
1342.01
1214.43
1316.53
1173.16
1217.32
1270.72
857.293
854.803
992.806
894.978
900.414
818.607
951.234
804.086
849.25
717.517
829.977
773.687
898.302
740.594
1164.34
1021.33
1107.92
963.908
969.412
1045.95
592.247
647.202
748.53
631.651
666.689
568.941
663.294
518.584
545.076
406.789
496.299
488.625
578.889
444.945
877.865
725.796
780.318
630.47
588.916
683.885
61.8459
139.099
113.745
183.967
127.412
213.398
116.266
486.285
324.658
377.84
489.414
402.115
309.594
397.789
264.668
286.939
316.3
326.794
269.674
271.23
169.305
450.316
481.461
445.726
464.013
433.77
459.119
429.117
412.225
372.426
407.325
361.316
397.871
393.586
356.789
632.399
592.515
602.172
604.698
574.496
576.872
604.503
408.228
348.969
306.646
286.748
319.872
456.618
393.793
792.637
855.741
858.098
901.752
819.207
827.388
900.075
447.365
458.868
422.294
479.867
442.004
454.636
423.693
361.311
345.434
384.366
365.847
402.025
388.398
351.13
346.313
340.828
311.054
327.048
322.194
295.613
290.726
572.878
540.953
568.273
569.417
509.012
542.598
536.25
669.247
705.342
707.044
662.092
666.868
635.361
636.746
829.089
729.717
798.63
873.302
762.551
796.905
838.722
296.509
309.013
276.793
333.807
304.218
315.971
284.377
537.179
465.913
494.249
459.871
476.252
502.671
434.464
84.6545
165.656
155.367
242.6
148.875
224.488
120.814
443.651
367.963
390.015
409.333
344.192
389.17
356.566
569.536
548.38
535.355
504.63
544.362
526.223
574.791
674.486
633.947
643.078
601.937
607.318
601.123
569.012
289.504
259.735
284.381
241.794
267.184
262.209
236.863
713.066
708.278
753.808
754.579
752.912
806.204
810.955
460.105
460.202
455.579
430.507
424.097
419.176
425.867
439.152
388.516
412.604
408.029
434.386
408.105
384.099
384.661
285.312
301.607
265.986
176.226
285.359
368.679
339.485
290.76
295.151
263.753
303.451
306.199
268.745
765.692
655.296
725.449
682.252
757.865
728.612
803.968
359.395
344.219
380.61
376.45
320.631
355.177
340.123
625.028
584.255
574.839
596.575
559.569
549.902
602.601
534.381
471.853
475.036
460.428
509.152
494.063
500.749
676.379
553.274
623.013
576.869
628.862
647.334
703.625
245.606
222.852
248.072
253.331
277.678
255.791
230.496
731.997
723.452
781.979
693.694
754.804
653.336
706.82
570.397
529.246
570.33
573.266
533.136
493.502
534.944
427.616
372.448
397.725
402.427
428.852
402.549
378.469
414.064
448.707
405.876
455.423
449.751
412.104
419.161
154.25
158.554
263.706
127.603
246.941
135.633
83.9689
522.017
424.562
468.014
428.014
484.863
442.419
385.109
496.649
562.696
441.601
475.289
526.39
527.519
587.622
343.557
329.254
365.563
371.189
315.602
349.759
335.043
307.631
282.669
303.248
250.331
273.566
268.786
245.643
36.5987
7.20899
77.8928
147.097
18.7528
108.255
0.780577
434.005
403.987
429.707
378.081
402.064
397.511
373.766
419.742
418.37
487.047
458.458
408.011
475.672
431.555
520.002
548.966
566.628
563.698
488.405
520.27
531.623
420.413
439.614
421.435
369.509
463.668
401.475
379.188
410.679
314.952
350.156