/*--------------------------------*- C++ -*----------------------------------*\
  =========                 |
  \\      /  F ield         | OpenFOAM: The Open Source CFD Toolbox
   \\    /   O peration     | Website:  https://openfoam.org
    \\  /    A nd           | Version:  9
     \\/     M anipulation  |
\*---------------------------------------------------------------------------*/
FoamFile
{
    format      ascii;
    class       volScalarField;
    location    "0.00195";
    object      rho.c4;
}
// * * * * * * * * * * * * * * * * * * * * * * * * * * * * * * * * * * * * * //

dimensions      [1 -3 0 0 0 0 0];

internalField   nonuniform List<scalar> 
14499
(
29.8423
1.581e-14
3.75035e-16
2.22045e-16
2.22045e-16
1.19548e-09
2.22045e-16
2.22045e-16
4.32944e-11
22.7768
2.18754e-06
3.39861e-07
0.000628046
1.21143e-09
1.46127e-13
1.9267
1.62868e-07
3.82335e-10
6.49299e-14
0.0217317
4.01761e-05
1.40437e-07
51.0844
99.2682
55.9194
87.6305
93.6018
76.4062
0.00222683
34.2171
17.3613
25.8424
54.6404
33.1683
44.8878
40.771
0.00296266
3.97384e-12
2.17651e-12
1.31103e-09
1.46559e-08
8.60408e-06
2.88942e-06
7.83166
0.000355067
69.9427
35.775
0.287447
0.082413
81.4744
73.0766
38.8549
57.8701
71.2618
79.6025
60.4181
89.9296
1.41734e-10
0.000252431
2.31322e-06
5.23025e-08
0.0174859
1.98961
3.46911
0.00198633
104.646
1.63564
0.00677996
92.7038
0.00716793
18.3442
37.3175
93.0592
83.9009
86.2367
76.4328
91.6954
93.4947
90.6165
83.245
0.000395561
62.7009
77.0111
95.4068
12.5403
9.88685e-15
4.46831e-08
2.22045e-16
2.22045e-16
2.22045e-16
4.56528e-15
2.22045e-16
1.50249e-09
2.22045e-16
2.22045e-16
2.22045e-16
2.22045e-16
2.22045e-16
6.70241e-16
2.22045e-16
2.22045e-16
2.22045e-16
2.22045e-16
2.22045e-16
2.22045e-16
2.22045e-16
2.22045e-16
2.22045e-16
2.22045e-16
2.22045e-16
2.22045e-16
2.22045e-16
2.22045e-16
2.22045e-16
2.22045e-16
2.22045e-16
2.22045e-16
2.22045e-16
2.22045e-16
2.22045e-16
2.22045e-16
2.22045e-16
2.22045e-16
2.22045e-16
2.22045e-16
2.22045e-16
2.22045e-16
2.22045e-16
0.0107095
2.22045e-16
4.51155e-11
2.22045e-16
2.22045e-16
2.22045e-16
2.22045e-16
2.22045e-16
1.2136e-11
2.22045e-16
2.22045e-16
2.22045e-16
2.22045e-16
2.22045e-16
2.22045e-16
2.22045e-16
2.22045e-16
2.22045e-16
2.22045e-16
2.22045e-16
2.22045e-16
2.22045e-16
2.22045e-16
2.22045e-16
2.22045e-16
2.22045e-16
2.22045e-16
2.22045e-16
2.22045e-16
2.22045e-16
2.22045e-16
2.22045e-16
2.22045e-16
2.22045e-16
2.22045e-16
2.22045e-16
2.22045e-16
2.22045e-16
2.22045e-16
2.22045e-16
2.22045e-16
2.22045e-16
2.22045e-16
2.22045e-16
1.91318e-13
2.22045e-16
2.22045e-16
2.22045e-16
2.22045e-16
2.22045e-16
2.22045e-16
3.8133e-16
2.22045e-16
2.22045e-16
2.22045e-16
2.22045e-16
2.22045e-16
2.22045e-16
2.22045e-16
2.22045e-16
2.22045e-16
2.22045e-16
2.22045e-16
2.22045e-16
2.22045e-16
2.22045e-16
2.22045e-16
2.22045e-16
2.22045e-16
2.22045e-16
2.22045e-16
2.22045e-16
2.22045e-16
2.22045e-16
2.22045e-16
2.22045e-16
2.22045e-16
2.22045e-16
2.22045e-16
2.22045e-16
2.22045e-16
2.22045e-16
2.22045e-16
2.22045e-16
2.22045e-16
2.22045e-16
2.22045e-16
2.22045e-16
2.22045e-16
2.22045e-16
2.22045e-16
2.22045e-16
2.22045e-16
2.22045e-16
2.22045e-16
2.22045e-16
2.22045e-16
2.22045e-16
2.22045e-16
2.22045e-16
2.22045e-16
2.22045e-16
2.22045e-16
2.22045e-16
2.22045e-16
2.22045e-16
2.22045e-16
2.22045e-16
2.22045e-16
2.22045e-16
2.22045e-16
2.22045e-16
2.22045e-16
2.22045e-16
2.22045e-16
2.22045e-16
2.22045e-16
2.22045e-16
2.22045e-16
2.22045e-16
2.22045e-16
2.22045e-16
2.22045e-16
2.22045e-16
2.22045e-16
2.22045e-16
2.22045e-16
2.22045e-16
2.22045e-16
2.22045e-16
0.38715
2.22045e-16
2.22045e-16
2.22045e-16
2.22045e-16
6.03055e-08
2.22045e-16
2.22045e-16
2.22045e-16
2.22045e-16
2.22045e-16
2.22045e-16
2.22045e-16
2.22045e-16
2.22045e-16
2.22045e-16
2.22045e-16
2.22045e-16
2.22045e-16
2.22045e-16
2.22045e-16
2.22045e-16
2.22045e-16
2.22045e-16
2.22045e-16
2.22045e-16
2.22045e-16
2.22045e-16
2.22045e-16
2.22045e-16
2.22045e-16
2.22045e-16
2.22045e-16
2.22045e-16
2.22045e-16
2.22045e-16
2.22045e-16
2.22045e-16
2.22045e-16
2.22045e-16
2.22045e-16
2.22045e-16
2.22045e-16
2.22045e-16
2.22045e-16
2.22045e-16
2.22045e-16
26.1897
2.22045e-16
2.22045e-16
2.22045e-16
2.22045e-16
2.22045e-16
5.12922e-14
2.22045e-16
2.22045e-16
2.22045e-16
2.22045e-16
2.22045e-16
2.22045e-16
2.22045e-16
2.22045e-16
2.22045e-16
2.22045e-16
2.22045e-16
2.22045e-16
2.22045e-16
2.22045e-16
2.22045e-16
2.22045e-16
2.22045e-16
2.22045e-16
2.22045e-16
2.22045e-16
2.22045e-16
2.22045e-16
2.22045e-16
2.22045e-16
2.22045e-16
2.22045e-16
2.22045e-16
2.22045e-16
2.22045e-16
2.22045e-16
2.22045e-16
2.22045e-16
2.22045e-16
2.22045e-16
2.22045e-16
2.22045e-16
2.22045e-16
2.22045e-16
2.22045e-16
2.22045e-16
2.22045e-16
8.78856e-14
2.22045e-16
2.22045e-16
2.22045e-16
2.22045e-16
2.22045e-16
2.22045e-16
2.22045e-16
2.22045e-16
2.22045e-16
2.22045e-16
2.22045e-16
2.22045e-16
2.22045e-16
2.22045e-16
2.22045e-16
2.22045e-16
2.22045e-16
2.22045e-16
2.22045e-16
2.22045e-16
2.22045e-16
2.22045e-16
2.22045e-16
2.22045e-16
2.22045e-16
2.22045e-16
2.22045e-16
2.22045e-16
2.22045e-16
2.22045e-16
2.22045e-16
2.22045e-16
2.22045e-16
2.22045e-16
2.22045e-16
2.22045e-16
2.22045e-16
2.22045e-16
2.22045e-16
2.22045e-16
2.22045e-16
2.22045e-16
2.22045e-16
2.22045e-16
2.22045e-16
2.22045e-16
2.22045e-16
2.22045e-16
2.22045e-16
2.22045e-16
2.22045e-16
2.22045e-16
2.22045e-16
2.22045e-16
2.22045e-16
2.22045e-16
2.22045e-16
2.22045e-16
2.22045e-16
2.22045e-16
2.22045e-16
2.22045e-16
2.22045e-16
2.22045e-16
2.22045e-16
2.22045e-16
2.22045e-16
2.22045e-16
2.22045e-16
2.22045e-16
2.22045e-16
2.22045e-16
2.22045e-16
2.22045e-16
2.22045e-16
2.22045e-16
2.22045e-16
2.22045e-16
2.22045e-16
2.22045e-16
2.22045e-16
2.22045e-16
2.22045e-16
2.22045e-16
2.22045e-16
2.22045e-16
2.22045e-16
2.22045e-16
2.22045e-16
2.22045e-16
2.22045e-16
2.22045e-16
2.22045e-16
2.22045e-16
2.22045e-16
2.22045e-16
2.22045e-16
2.22045e-16
2.22045e-16
2.22045e-16
2.22045e-16
2.22045e-16
2.22045e-16
2.22045e-16
2.22045e-16
2.22045e-16
2.22045e-16
2.22045e-16
2.22045e-16
2.22045e-16
2.22045e-16
2.22045e-16
2.22045e-16
2.22045e-16
2.22045e-16
2.22045e-16
2.22045e-16
2.22045e-16
2.22045e-16
2.22045e-16
2.22045e-16
2.22045e-16
2.22045e-16
2.22045e-16
2.22045e-16
2.22045e-16
2.22045e-16
2.22045e-16
2.22045e-16
2.22045e-16
2.22045e-16
2.22045e-16
2.22045e-16
2.22045e-16
2.22045e-16
2.22045e-16
2.22045e-16
2.22045e-16
2.22045e-16
2.22045e-16
2.22045e-16
2.22045e-16
2.22045e-16
2.22045e-16
2.22045e-16
2.22045e-16
2.22045e-16
2.22045e-16
2.22045e-16
2.22045e-16
2.22045e-16
2.22045e-16
2.22045e-16
2.22045e-16
2.22045e-16
2.22045e-16
2.22045e-16
2.22045e-16
2.22045e-16
2.22045e-16
2.22045e-16
2.22045e-16
2.22045e-16
2.22045e-16
2.22045e-16
2.22045e-16
2.22045e-16
2.22045e-16
2.22045e-16
2.22045e-16
2.22045e-16
2.22045e-16
2.22045e-16
2.22045e-16
2.22045e-16
2.22045e-16
2.22045e-16
2.22045e-16
2.22045e-16
2.22045e-16
2.22045e-16
2.22045e-16
2.22045e-16
2.22045e-16
2.22045e-16
2.22045e-16
2.22045e-16
2.22045e-16
2.22045e-16
2.22045e-16
2.22045e-16
2.35499e-12
2.22045e-16
1.49598e-13
2.22045e-16
2.22045e-16
2.22045e-16
2.22045e-16
2.22045e-16
2.22045e-16
2.22045e-16
2.22045e-16
2.22045e-16
155.268
2.22045e-16
1.36768e-10
155.182
2.22045e-16
4.36128e-14
1.16784e-07
2.9604e-08
3.52809e-14
3.78065
1.22552e-08
5.19034e-09
2.25141e-15
1.82154e-14
4.27242e-10
1.389e-15
5.55221e-09
1.15557e-15
3.40481e-11
1.33635e-15
2.22045e-16
2.22045e-16
2.22045e-16
2.22045e-16
2.22045e-16
2.22045e-16
2.22045e-16
2.22045e-16
2.22045e-16
2.22045e-16
2.22045e-16
2.22045e-16
2.22045e-16
2.22045e-16
5.67212e-16
2.22045e-16
2.22045e-16
2.22045e-16
2.22045e-16
2.22045e-16
2.22045e-16
2.66024e-16
2.22045e-16
2.22045e-16
2.22045e-16
2.22045e-16
2.22045e-16
2.22045e-16
2.22045e-16
2.22045e-16
2.22045e-16
2.22045e-16
68.91
2.22045e-16
2.22045e-16
0.334811
2.22045e-16
2.22045e-16
4.14721e-09
5.69208e-10
2.22045e-16
1.53248e-08
1.75551e-15
7.05686e-16
2.22045e-16
2.22045e-16
2.73738e-13
2.22045e-16
2.22045e-16
2.22045e-16
2.22045e-16
2.22045e-16
2.22045e-16
2.22045e-16
2.22045e-16
2.22045e-16
2.22045e-16
2.22045e-16
2.22045e-16
2.22045e-16
2.22045e-16
2.22045e-16
2.22045e-16
2.22045e-16
2.22045e-16
2.22045e-16
2.22045e-16
2.22045e-16
2.22045e-16
2.22045e-16
2.22045e-16
2.22045e-16
2.22045e-16
2.22045e-16
2.22045e-16
2.22045e-16
2.22045e-16
2.22045e-16
2.22045e-16
2.22045e-16
2.22045e-16
2.22045e-16
2.50711e-12
2.22045e-16
2.22045e-16
2.22045e-16
2.22045e-16
2.22045e-16
2.22045e-16
2.22045e-16
2.22045e-16
2.22045e-16
2.22045e-16
2.22045e-16
2.22045e-16
2.22045e-16
2.22045e-16
2.22045e-16
2.22045e-16
2.22045e-16
2.22045e-16
2.22045e-16
2.22045e-16
2.22045e-16
2.22045e-16
2.22045e-16
2.22045e-16
2.22045e-16
2.22045e-16
2.22045e-16
2.22045e-16
2.22045e-16
2.22045e-16
2.22045e-16
2.22045e-16
2.22045e-16
2.22045e-16
2.22045e-16
2.22045e-16
2.22045e-16
2.22045e-16
2.22045e-16
2.22045e-16
6.56643e-16
2.22045e-16
2.22045e-16
2.22045e-16
2.22045e-16
2.22045e-16
2.22045e-16
2.22045e-16
2.22045e-16
2.22045e-16
2.22045e-16
2.22045e-16
2.22045e-16
2.22045e-16
2.22045e-16
2.22045e-16
2.22045e-16
2.22045e-16
2.22045e-16
2.22045e-16
2.22045e-16
2.22045e-16
2.22045e-16
2.22045e-16
2.22045e-16
1.41132e-14
2.4146e-14
2.22045e-16
2.22045e-16
2.22045e-16
2.22045e-16
2.22045e-16
2.22045e-16
2.22045e-16
2.22045e-16
2.22045e-16
2.22045e-16
2.22045e-16
2.22045e-16
2.22045e-16
2.22045e-16
2.22045e-16
2.22045e-16
2.22045e-16
2.22045e-16
2.22045e-16
2.22045e-16
2.22045e-16
2.22045e-16
8.23637e-11
5.90295e-16
2.22045e-16
3.40358e-05
1.06142e-11
8.36199e-12
2.22045e-16
2.22045e-16
2.22045e-16
2.22045e-16
2.22045e-16
2.22045e-16
2.22045e-16
2.22045e-16
2.22045e-16
2.22045e-16
2.22045e-16
2.22045e-16
2.22045e-16
2.22045e-16
2.22045e-16
0.0234043
1.72639e-12
2.22045e-16
5.28845e-15
2.22045e-16
16.6852
2.22045e-16
2.22045e-16
2.22045e-16
117.183
1.26655e-12
2.22045e-16
2.22045e-16
2.22045e-16
2.22045e-16
0.000171428
1.04135e-15
2.22045e-16
2.22045e-16
2.22045e-16
2.22045e-16
2.22045e-16
2.22045e-16
2.22045e-16
2.22045e-16
2.22045e-16
2.22045e-16
2.22045e-16
2.22045e-16
2.22045e-16
2.22045e-16
2.22045e-16
2.22045e-16
2.22045e-16
2.22045e-16
2.22045e-16
2.22045e-16
2.22045e-16
2.22045e-16
128.845
131.979
173.325
155.2
16.6433
171.21
165.376
4.87355
169.349
150.853
0.0878194
206.702
0.00766115
0.000122827
0.0912245
1.6484e-08
1.124e-05
4.88628e-06
2.22045e-16
2.25816e-09
5.17639e-06
1.92276e-13
1.09357e-06
6.49181e-15
1.5961e-13
2.22045e-16
1.93032e-12
2.22045e-16
2.22045e-16
2.22045e-16
2.22045e-16
2.22045e-16
2.22045e-16
2.22045e-16
2.22045e-16
2.22045e-16
2.22045e-16
132.438
139.857
102.871
4.41612e-05
158.241
0.00506589
119.167
1.65795e-05
3.59337e-11
2.22045e-16
2.22045e-16
1.49085e-08
1.32939e-15
2.46851e-12
2.22045e-16
2.22045e-16
2.22045e-16
2.22045e-16
2.22045e-16
2.22045e-16
2.22045e-16
2.22045e-16
0.371704
136.029
1.8621e-07
1.88686e-06
4.06143e-05
11.2399
0.0111426
1.32618e-10
0.00296376
7.58097e-08
1.60245e-05
2.22045e-16
2.22045e-16
2.22045e-16
2.22045e-16
2.22045e-16
2.22045e-16
2.22045e-16
2.22045e-16
2.22045e-16
2.22045e-16
2.22045e-16
2.22045e-16
2.22045e-16
2.22045e-16
2.22045e-16
2.22045e-16
1.3938e-13
2.32175e-12
2.22045e-16
8.85477e-14
2.22045e-16
2.22045e-16
2.22045e-16
2.22045e-16
2.22045e-16
2.22045e-16
2.22045e-16
2.22045e-16
2.22045e-16
1.52193e-13
2.22045e-16
2.01582e-15
2.22045e-16
1.31847e-14
2.22045e-16
2.22045e-16
2.22045e-16
2.22045e-16
2.22045e-16
2.22045e-16
2.22045e-16
2.22045e-16
2.22045e-16
2.22045e-16
2.22045e-16
2.22045e-16
2.22045e-16
2.22045e-16
2.22045e-16
2.22045e-16
2.22045e-16
2.22045e-16
2.22045e-16
2.22045e-16
2.22045e-16
2.22045e-16
2.22045e-16
2.22045e-16
2.22045e-16
2.22045e-16
2.22045e-16
2.22045e-16
2.22045e-16
2.22045e-16
2.22045e-16
2.22045e-16
2.22045e-16
2.22045e-16
2.22045e-16
2.22045e-16
2.22045e-16
2.22045e-16
2.22045e-16
2.22045e-16
2.22045e-16
2.22045e-16
2.22045e-16
2.22045e-16
2.22045e-16
2.22045e-16
2.22045e-16
2.22045e-16
2.22045e-16
2.22045e-16
2.22045e-16
2.22045e-16
2.22045e-16
2.22045e-16
2.22045e-16
2.22045e-16
2.22045e-16
2.22045e-16
2.22045e-16
2.22045e-16
2.22045e-16
2.22045e-16
2.22045e-16
2.22045e-16
153.28
160.653
157.769
14.5523
2.91222
2.05005
17.8836
8.91423e-08
1.7449e-14
1.0802e-13
2.22045e-16
7.26883e-15
4.50107e-14
1.68293e-07
124.757
165.499
47.1054
8.148
0.0414677
0.537118
2.26226
1.36305e-08
2.22045e-16
2.22045e-16
2.22045e-16
5.41752e-16
3.35695e-15
2.4847e-10
2.22045e-16
2.22045e-16
2.22045e-16
2.22045e-16
2.22045e-16
2.22045e-16
2.22045e-16
2.22045e-16
2.22045e-16
2.22045e-16
2.22045e-16
2.22045e-16
2.22045e-16
2.22045e-16
2.22045e-16
2.22045e-16
2.22045e-16
2.22045e-16
2.22045e-16
2.22045e-16
2.22045e-16
2.22045e-16
2.22045e-16
2.22045e-16
2.22045e-16
2.22045e-16
2.22045e-16
2.22045e-16
2.22045e-16
2.22045e-16
2.22045e-16
2.22045e-16
2.22045e-16
2.22045e-16
2.22045e-16
2.22045e-16
2.22045e-16
2.22045e-16
2.22045e-16
2.22045e-16
2.22045e-16
2.22045e-16
2.22045e-16
2.22045e-16
2.22045e-16
2.22045e-16
2.22045e-16
2.22045e-16
2.22045e-16
2.22045e-16
2.22045e-16
2.22045e-16
2.22045e-16
2.22045e-16
2.22045e-16
2.22045e-16
2.22045e-16
2.22045e-16
2.22045e-16
2.22045e-16
2.22045e-16
2.22045e-16
2.22045e-16
2.22045e-16
2.22045e-16
2.22045e-16
2.22045e-16
2.22045e-16
2.22045e-16
2.22045e-16
2.22045e-16
2.22045e-16
2.22045e-16
2.22045e-16
2.22045e-16
9.84935
13.2673
0.37636
0.0024254
0.00171443
0.0834674
5.69931e-06
2.97273e-16
2.22045e-16
2.22045e-16
2.22045e-16
5.69762e-13
2.22045e-16
2.22045e-16
0.00198432
4.38749e-07
0.00113339
3.76156e-06
4.0643e-14
2.90185e-09
8.31842e-10
2.22045e-16
2.22045e-16
2.22045e-16
2.22045e-16
2.22045e-16
2.22045e-16
2.22045e-16
2.22045e-16
2.22045e-16
2.22045e-16
2.22045e-16
2.22045e-16
2.22045e-16
2.22045e-16
2.22045e-16
2.22045e-16
2.22045e-16
2.22045e-16
2.22045e-16
2.22045e-16
2.22045e-16
2.22045e-16
2.22045e-16
2.22045e-16
2.22045e-16
2.22045e-16
2.22045e-16
2.22045e-16
2.22045e-16
2.22045e-16
2.22045e-16
2.22045e-16
2.22045e-16
2.22045e-16
2.22045e-16
2.22045e-16
2.22045e-16
2.22045e-16
2.22045e-16
2.22045e-16
2.22045e-16
2.22045e-16
2.22045e-16
2.22045e-16
2.22045e-16
2.22045e-16
2.22045e-16
2.22045e-16
2.22045e-16
2.22045e-16
2.22045e-16
2.22045e-16
2.22045e-16
2.22045e-16
2.22045e-16
2.22045e-16
2.22045e-16
2.22045e-16
2.22045e-16
2.22045e-16
2.22045e-16
2.22045e-16
2.22045e-16
2.22045e-16
2.22045e-16
2.22045e-16
2.22045e-16
2.22045e-16
2.22045e-16
2.22045e-16
2.22045e-16
2.22045e-16
2.22045e-16
2.22045e-16
2.22045e-16
2.22045e-16
2.22045e-16
2.22045e-16
8.7575e-08
1.71872e-13
2.22045e-16
2.22045e-16
2.31123e-15
2.22045e-16
2.22045e-16
2.22045e-16
2.22045e-16
2.22045e-16
2.22045e-16
2.22045e-16
2.22045e-16
2.22045e-16
2.22045e-16
2.22045e-16
2.22045e-16
2.22045e-16
2.22045e-16
2.22045e-16
2.22045e-16
2.22045e-16
2.22045e-16
2.22045e-16
2.22045e-16
2.22045e-16
2.22045e-16
2.22045e-16
2.22045e-16
2.22045e-16
2.22045e-16
2.22045e-16
2.22045e-16
2.22045e-16
4.14482e-11
2.22045e-16
2.2777e-09
3.28105e-10
2.22045e-16
2.22045e-16
4.58039e-05
2.22045e-16
2.22045e-16
2.22045e-16
2.22045e-16
2.22045e-16
2.22045e-16
2.22045e-16
2.22045e-16
2.22045e-16
2.22045e-16
2.22045e-16
2.22045e-16
2.22045e-16
2.22045e-16
2.22045e-16
2.22045e-16
2.90164e-15
2.22045e-16
2.22045e-16
2.22045e-16
2.22045e-16
2.22045e-16
2.22045e-16
2.22045e-16
2.22045e-16
2.22045e-16
2.22045e-16
2.22045e-16
2.22045e-16
2.22045e-16
2.22045e-16
2.22045e-16
2.22045e-16
2.22045e-16
2.22045e-16
2.22045e-16
2.22045e-16
2.22045e-16
2.22045e-16
2.22045e-16
2.22045e-16
2.22045e-16
2.22045e-16
2.22045e-16
2.22045e-16
2.22045e-16
2.22045e-16
2.22045e-16
2.22045e-16
2.22045e-16
2.22045e-16
2.22045e-16
2.22045e-16
2.22045e-16
2.22045e-16
2.22045e-16
2.22045e-16
2.22045e-16
2.22045e-16
2.22045e-16
2.22045e-16
2.22045e-16
2.22045e-16
2.22045e-16
2.22045e-16
2.22045e-16
2.22045e-16
2.22045e-16
2.22045e-16
2.22045e-16
2.22045e-16
2.22045e-16
2.22045e-16
2.22045e-16
2.22045e-16
2.22045e-16
2.22045e-16
2.22045e-16
2.22045e-16
2.22045e-16
2.22045e-16
2.22045e-16
2.22045e-16
2.22045e-16
2.22045e-16
2.17309e-07
6.53184e-14
2.22045e-16
2.22045e-16
3.5101e-14
2.22045e-16
2.22045e-16
2.22045e-16
2.22045e-16
2.22045e-16
2.22045e-16
2.22045e-16
2.22045e-16
164.172
158.452
169.699
166.295
162.423
6.96953e-12
0.0117301
0.022711
0.00561485
2.07708e-07
9.76631e-07
3.35978e-06
2.22045e-16
2.22045e-16
2.22045e-16
2.22045e-16
2.22045e-16
2.22045e-16
2.22045e-16
128.159
146.282
144.298
92.1558
124.603
123.388
91.8567
145.4
144.799
154.493
97.0269
135.076
125.723
110.068
175.078
202.725
138.969
177.463
156.181
136.352
189.691
12.8018
0.0628136
11.3128
225.199
81.3843
230.601
270.461
4.07188e-11
0.0270606
2.17778e-06
0.255623
0.632638
61.2449
7.75139e-05
1.01464
0.16273
0.387074
1.39446e-10
154.435
0.000161327
3.82823e-05
2.22045e-16
3.38085e-12
2.22045e-16
1.95067e-05
2.22045e-16
1.4049e-10
1.30639e-11
2.22045e-16
2.22045e-16
2.22045e-16
2.22045e-16
2.22045e-16
2.22045e-16
2.22045e-16
2.22045e-16
2.22045e-16
2.22045e-16
2.22045e-16
2.22045e-16
2.22045e-16
2.22045e-16
147.951
120.884
145.426
119.514
137.418
92.477
148.073
76.5815
26.6219
12.6357
168.919
161.462
0.154168
0.683605
158.363
21.562
115.469
159.956
164.154
158.159
8.0326e-11
0.0210277
2.96405e-07
0.516172
0.0223908
27.8545
1.99762e-05
2.22045e-16
2.10233e-07
2.22045e-16
3.56966e-11
4.39406e-14
4.29926e-11
2.22045e-16
2.22045e-16
6.16605e-14
2.22045e-16
2.22045e-16
2.48039e-07
4.00351e-14
1.445e-11
2.22045e-16
2.22045e-16
2.22045e-16
2.22045e-16
2.22045e-16
2.22045e-16
2.22045e-16
2.22045e-16
2.22045e-16
2.22045e-16
2.22045e-16
2.22045e-16
2.22045e-16
2.22045e-16
2.22045e-16
8.5823e-06
2.22045e-16
5.87306e-14
9.60626e-12
2.26646e-12
2.22045e-16
2.22045e-16
2.22045e-16
2.22045e-16
2.22045e-16
2.22045e-16
2.22045e-16
2.22045e-16
60.8773
131.813
149.097
3.27129
84.5566
0.106428
24.2262
2.22045e-16
4.15057e-14
113.551
2.22045e-16
5.10357e-14
2.22045e-16
2.22045e-16
2.22045e-16
2.22045e-16
0.0135248
1.85978e-07
74.1952
105.598
97.2431
0.499003
5.28522e-05
2.52757e-16
2.22045e-16
2.22045e-16
2.22045e-16
2.22045e-16
2.22045e-16
2.22045e-16
2.22045e-16
2.22045e-16
2.22045e-16
2.22045e-16
2.22045e-16
2.22045e-16
2.22045e-16
2.22045e-16
2.22045e-16
2.22045e-16
2.22045e-16
2.22045e-16
2.22045e-16
2.22045e-16
2.22045e-16
2.22045e-16
2.90647e-13
2.22045e-16
2.22045e-16
5.72792e-14
2.22045e-16
5.12664e-09
2.22045e-16
1.30759e-06
1.91769e-07
7.04483
1.02493e-05
0.00168623
2.31053e-11
0.0777588
106.635
86.1584
54.142
76.8428
28.0521
51.9901
43.6207
108.216
100.621
82.4708
119.145
109.312
119.985
125.157
2.22045e-16
2.22045e-16
2.22045e-16
2.22045e-16
2.22045e-16
2.22045e-16
2.22045e-16
0.000140051
6.25373e-15
7.30076e-11
7.24615e-11
2.22045e-16
2.64939e-13
2.22045e-16
2.22045e-16
2.22045e-16
2.22045e-16
2.22045e-16
2.22045e-16
2.22045e-16
2.22045e-16
2.22045e-16
2.22045e-16
2.22045e-16
2.22045e-16
2.22045e-16
2.22045e-16
2.22045e-16
2.22045e-16
2.22045e-16
2.22045e-16
2.22045e-16
2.22045e-16
2.22045e-16
2.22045e-16
2.85972e-07
4.1328e-13
5.64703e-07
1.83193e-12
8.15892e-06
2.18257e-12
2.22045e-16
1.00977e-11
2.22045e-16
2.22045e-16
2.22045e-16
2.22045e-16
2.22045e-16
2.22045e-16
2.22045e-16
2.22045e-16
2.22045e-16
2.22045e-16
2.22045e-16
2.22045e-16
2.22045e-16
2.22045e-16
2.22045e-16
2.22045e-16
2.22045e-16
2.22045e-16
2.22045e-16
2.22045e-16
0.00464223
0.000193259
2.75564e-08
5.27148e-11
0.000100345
1.45911e-08
0.00701563
0.0013886
3.43642e-12
3.74035e-07
4.06073e-11
1.1838e-05
2.22926e-09
0.000101693
3.7162e-09
2.95232e-09
9.29912e-14
2.22045e-16
9.01151e-07
1.18503e-12
2.22045e-16
4.24956e-13
2.22045e-16
2.22045e-16
2.22045e-16
2.22045e-16
2.22045e-16
2.22045e-16
2.22045e-16
2.22045e-16
2.22045e-16
2.22045e-16
2.22045e-16
2.22045e-16
2.22045e-16
2.22045e-16
2.22045e-16
2.22045e-16
2.22045e-16
2.22045e-16
2.22045e-16
2.22045e-16
2.22045e-16
2.22045e-16
2.22045e-16
2.22045e-16
2.22045e-16
2.22045e-16
2.22045e-16
2.22045e-16
2.22045e-16
2.22045e-16
2.22045e-16
2.22045e-16
2.22045e-16
2.22045e-16
2.22045e-16
1.06962e-08
2.22045e-16
2.22045e-16
8.04196e-15
1.34032e-11
2.22045e-16
2.22045e-16
2.22045e-16
2.22045e-16
2.22045e-16
2.22045e-16
2.22045e-16
2.22045e-16
2.22045e-16
2.22045e-16
2.22045e-16
2.22045e-16
2.22045e-16
2.22045e-16
2.22045e-16
2.22045e-16
2.22045e-16
2.22045e-16
2.22045e-16
2.22045e-16
2.22045e-16
2.22045e-16
2.22045e-16
2.22045e-16
2.22045e-16
2.22045e-16
2.22045e-16
2.22045e-16
2.22045e-16
2.22045e-16
2.22045e-16
2.22045e-16
2.22045e-16
2.22045e-16
2.22045e-16
2.22045e-16
2.22045e-16
2.22045e-16
2.22045e-16
2.22045e-16
2.22045e-16
2.22045e-16
2.22045e-16
2.22045e-16
2.22045e-16
2.22045e-16
2.22045e-16
2.22045e-16
2.22045e-16
2.22045e-16
122.018
0.00189577
3.24366e-07
46.291
136.615
4.05445
0.125388
8.46593e-06
2.22045e-16
3.53502e-12
4.47317
1.66876e-08
6.43775e-09
8.71356e-14
2.22045e-16
2.22045e-16
2.22045e-16
9.0281e-15
7.41862e-15
7.76718e-15
8.58781e-15
2.22045e-16
2.22045e-16
2.22045e-16
2.22045e-16
2.22045e-16
2.22045e-16
2.22045e-16
2.22045e-16
2.22045e-16
2.22045e-16
2.22045e-16
2.22045e-16
2.22045e-16
2.22045e-16
2.22045e-16
2.22045e-16
2.22045e-16
2.22045e-16
2.22045e-16
2.22045e-16
2.22045e-16
0.017257
9.30082e-06
0.284119
4.74695e-10
0.000326837
3.87805e-12
2.71575e-06
0.00128631
5.98669
0.0161368
21.9846
3.19386
88.8425
110.956
2.22045e-16
2.22045e-16
2.22045e-16
4.87389e-16
2.22045e-16
2.22045e-16
2.22045e-16
2.22045e-16
2.22045e-16
2.22045e-16
2.22045e-16
2.22045e-16
2.22045e-16
2.22045e-16
2.22045e-16
2.22045e-16
2.22045e-16
2.22045e-16
2.22045e-16
2.22045e-16
2.22045e-16
2.22045e-16
2.22045e-16
2.22045e-16
2.22045e-16
2.22045e-16
2.22045e-16
2.22045e-16
2.22045e-16
2.22045e-16
2.22045e-16
2.22045e-16
2.22045e-16
2.22045e-16
2.22045e-16
9.43605e-16
2.22045e-16
2.22045e-16
2.22045e-16
2.22045e-16
2.22045e-16
2.22045e-16
2.22045e-16
2.22045e-16
2.22045e-16
2.22045e-16
2.22045e-16
2.22045e-16
2.22045e-16
2.22045e-16
2.22045e-16
2.22045e-16
2.22045e-16
2.22045e-16
2.22045e-16
3.49018e-09
3.4376e-11
1.07997e-15
2.22045e-16
2.22045e-16
1.86049e-14
2.22045e-16
2.22045e-16
2.22045e-16
2.22045e-16
2.22045e-16
2.22045e-16
2.22045e-16
2.22045e-16
2.22045e-16
2.22045e-16
2.22045e-16
2.22045e-16
2.22045e-16
2.22045e-16
2.22045e-16
2.22045e-16
2.22045e-16
2.22045e-16
2.22045e-16
2.22045e-16
2.22045e-16
2.22045e-16
2.22045e-16
2.22045e-16
2.22045e-16
2.22045e-16
2.22045e-16
2.22045e-16
2.22045e-16
2.22045e-16
2.22045e-16
2.22045e-16
5.04457
4.36191
16.4412
42.5086
11.1896
39.7101
0.0108209
22.8573
149.108
71.8892
6.50495
0.0124139
7.65562e-05
17.054
61.6183
3.82625e-11
33.7547
201.159
22.8105
65.2187
38.0241
0.00776791
5.06042e-09
117.885
1.97736
5.19684e-15
162.414
0.037862
48.0892
44.7848
15.4892
39.8059
9.77357e-09
2.83283e-15
59.9183
51.4105
1.32351e-11
2.22045e-16
202.72
207.585
0.0535954
1.24933e-06
3.17068e-13
2.22045e-16
45.7851
80.3753
1.03542e-07
2.22045e-16
2.22045e-16
141.122
1.4361e-05
1.82029e-11
2.22045e-16
2.22045e-16
82.7582
1.2244e-06
3.44062e-15
2.22045e-16
2.22045e-16
2.52144e-11
2.22045e-16
2.22045e-16
2.22045e-16
1.09822e-09
3.09558e-15
2.22045e-16
2.22045e-16
2.22045e-16
3.77589e-16
2.22045e-16
2.22045e-16
2.22045e-16
2.22045e-16
14.9518
18.3281
25.0575
20.774
84.9723
11.9833
38.3785
26.2333
110.267
16.2579
19.5296
88.2895
27.8957
112.358
163.219
22.331
65.792
23.4128
60.3791
140.924
94.2436
264.988
62.6779
81.3757
110.78
98.7669
160.523
130.061
369.907
112.987
185.715
329.61
72.7925
0.00566448
367.763
0.0615756
96.5697
125.978
392.312
304.684
392.303
37.2976
112.348
15.6282
42.2539
71.8046
133.504
60.2916
196.233
363.989
77.1412
0.604434
139.599
1.06915e-07
8.92319e-06
80.6528
1.85971e-07
0.00575484
9.87489e-08
1.22904e-13
9.15243e-14
119.875
92.3525
210.684
395.044
244.695
1.02218e-06
4.2678e-13
83.3618
140.897
175.608
34.9908
23.2684
35.3405
53.6653
32.7644
138.677
72.9808
105.51
105.831
252.84
51.5978
43.7442
68.7934
266.911
287.417
340.469
329.148
288.512
350.719
0.482365
0.327716
7.67331e-06
84.8906
107.836
110.495
84.4827
84.603
99.711
0.0443728
0.00102236
11.6052
1.9054e-05
0.0265998
5.16852e-07
0.000466426
6.95498e-10
1.37762e-13
1.16348e-11
2.22045e-16
8.41658e-13
1.50292e-13
2.22045e-16
2.22045e-16
173.994
164.79
12.7117
15.2764
13.0386
16.2077
16.001
13.9518
25.863
17.0208
31.8211
21.2093
17.4485
32.272
25.2775
28.5569
22.7321
22.4321
40.399
18.9484
34.6375
35.1172
16.575
17.4587
24.6703
42.1957
37.2991
66.8254
95.9967
65.4394
118.603
56.4146
105.719
78.057
19.9283
29.4435
27.5582
42.1478
74.4558
42.9963
29.9938
41.0586
140.749
83.4204
141.823
180.833
100.801
116.507
177.124
61.2238
164.703
100.981
148.236
135.788
72.3687
198.581
84.0393
240.237
122.395
144.342
86.619
114.779
218.635
85.8059
132.739
202.484
241.32
329.482
296.883
337.044
317.764
214.463
281.025
299.93
222.739
278.335
306.179
271.831
308.322
332.814
298.947
361.163
293.478
86.3076
312.408
357.396
12.8848
65.3828
172.368
107.099
82.6212
205.964
120.812
312.566
333.466
191.151
184.406
301.676
211.153
75.878
305.109
342.22
1.8963
373.517
213.701
374.138
56.7151
79.6222
66.7271
156.982
47.8201
87.4191
92.2583
45.9052
41.8833
113.08
78.5118
66.2744
70.6391
161.007
89.5773
128.416
86.7306
125.342
89.3972
132.339
135.826
306.358
232.092
195.334
113.531
295.763
137.762
239.9
352.649
55.0005
236.673
9.00263
332.243
86.7233
202.819
87.0071
12.5721
87.9759
244.097
39.2867
13.8064
0.0220253
8.42347e-06
0.00844699
0.010575
28.4523
0.091667
4.27791e-06
11.7351
0.070515
0.0485965
0.00235809
0.00282681
5.37213e-07
3.33118e-07
2.70164e-07
2.15229e-07
2.39676e-14
4.80667e-07
2.37799e-13
1.92502e-07
74.8237
184.841
109.416
151.438
99.1293
229.604
188.163
163.988
386.48
149.03
381.38
283.786
35.7997
334.624
0.138328
0.0422121
81.2066
3.67854e-06
2.22045e-16
1.30893e-12
90.2481
47.3597
107.598
133.881
58.3687
79.963
140.395
175.698
62.3727
52.4255
100.246
89.3027
52.9391
100.573
61.6811
198.464
223.437
247.097
266.275
174.024
220.697
259.871
9.62385
6.80839
17.2112
5.28406
11.2462
6.96291
28.2317
55.6974
137.065
138.585
50.6784
6.92464
137.494
139.6
0.342343
165.058
0.0275333
80.8764
0.00389668
46.3799
1.72183e-05
22.1265
22.9505
8.18761
19.5979
20.5698
36.5086
74.1743
65.0016
102.855
43.2134
3.90821
63.327
0.00955118
8.49223e-08
0.00735851
6.59029e-10
4.96565e-07
4.0846e-13
3.60062e-08
6.98123e-16
39.2163
26.9334
54.3586
51.9794
51.7237
70.2789
11.4904
0.00318381
53.3429
0.00907406
29.3689
0.0019058
0.0262151
4.40376e-06
5.71258e-15
5.64322e-15
2.22045e-16
1.14849e-14
6.86085e-15
2.22045e-16
2.22045e-16
29.4231
51.5081
44.2218
48.4439
43.2412
71.7288
74.1258
65.3248
125.42
181.56
70.9554
109.794
203.622
123.021
21.6953
12.1979
42.7109
24.6402
77.3364
21.0961
97.5631
2.22045e-16
2.22045e-16
2.22045e-16
2.22045e-16
2.22045e-16
2.22045e-16
2.22045e-16
55.9168
18.944
1.63277e-07
1.46753e-13
2.22045e-16
1.62262
2.26364
3.52013
5.80008
8.23649
2.10615
9.08735
3.43167
4.31262
5.08241
8.94857
12.061
3.82255
4.00535
6.05436
10.2967
52.869
36.1365
17.8905
3.29759
16.3846
60.6375
76.5792
98.3
2.28883e-05
0.0272908
2.03815e-12
2.22045e-16
2.22045e-16
2.22045e-16
2.22045e-16
2.10701e-11
2.22045e-16
2.22045e-16
2.22045e-16
2.22045e-16
2.22045e-16
2.22045e-16
2.22045e-16
2.22045e-16
2.22045e-16
2.22045e-16
2.22045e-16
2.22045e-16
2.22045e-16
2.22045e-16
2.22045e-16
2.22045e-16
2.22045e-16
2.22045e-16
2.22045e-16
2.22045e-16
2.22045e-16
2.22045e-16
4.56438
6.52347
4.0114
4.69443
8.18348
9.58178
7.92877
7.3959
10.226
9.79389
6.74525
8.37553
10.0911
7.80587
9.87998
7.76718
16.6187
21.468
14.1594
11.708
32.1801
47.8073
25.7464
10.0773
21.9874
26.1478
31.9449
28.8075
11.9098
35.36
80.223
36.9546
29.0824
81.759
10.1359
8.45058
10.3911
7.15333
9.10382
14.5577
15.1717
18.1241
18.6737
22.4393
47.3962
54.0663
74.798
47.0618
66.32
93.7381
5.17179
6.00699
5.37797
6.72111
6.19992
5.55484
4.99521
4.69274
5.73681
4.97489
5.44927
5.59026
7.19704
7.6419
6.84941
6.66932
5.97673
6.4586
8.90053
7.23139
9.6557
8.15225
7.44069
9.90614
8.67223
10.631
11.8338
12.1121
10.3734
9.45449
8.68407
9.01958
11.7475
7.95427
10.4981
10.6259
11.2726
14.2997
12.8058
12.6814
5.54564
6.9309
5.71371
5.85587
5.1
7.39859
6.99403
6.13301
12.6595
12.9472
8.97619
12.2845
10.9931
15.1453
13.6351
8.57056
7.0312
6.71964
8.96558
10.0645
9.28516
8.33752
12.5001
7.91946
11.7203
10.6024
10.9927
14.8975
11.6309
13.8056
12.956
16.2493
19.9926
17.9894
15.1427
13.8034
16.627
15.9964
10.8313
13.9397
14.6892
12.6771
13.5978
17.4125
19.7859
16.976
15.2624
21.5016
21.5431
19.0921
24.545
32.3926
17.779
22.8859
32.2989
28.5866
44.5215
29.4836
47.2576
8.48379
12.7662
10.7673
15.1157
11.7995
16.6735
18.3698
14.0532
17.8488
22.2764
19.6968
31.9792
23.4772
42.4666
29.6324
19.6428
18.336
16.7115
21.8111
26.4896
27.1028
23.0461
40.0307
21.0839
38.1422
29.2162
22.8984
32.3138
26.0537
26.5494
33.2317
57.4278
65.9503
50.4142
52.2212
38.1654
40.2398
92.4565
36.9666
50.4755
56.7179
54.6208
58.6836
81.884
23.5248
39.6379
29.8047
35.0397
27.2737
57.0553
53.7365
39.2505
36.8445
41.2087
31.1071
54.9854
3.15901
3.12536
3.66531
2.64313
3.99028
3.64408
4.24189
4.02158
5.17332
6.83342
4.19906
4.59313
6.71718
7.0899
4.34274
4.7081
7.1359
4.27001
4.32986
6.25198
12.7987
5.48179
8.21065
9.57359
5.39866
15.383
11.0584
14.1796
4.71395
7.49812
11.8857
3.21859
5.55461
6.91827
11.0298
14.0146
9.17168
6.6243
15.0976
8.04118
22.7115
11.323
33.5324
4.22486
46.7548
0.190967
1.08119e-06
3.28761e-07
9.79462e-11
4.61871e-13
2.22045e-16
2.22045e-16
20.2973
11.7205
27.9776
23.4152
56.4143
17.6487
8.03229
12.1394
10.4052
4.7108
6.67383
7.34528
45.99
19.2285
31.9767
15.7412
16.073
9.99383
25.4248
47.4101
30.9919
59.1715
26.4999
89.0417
29.3982
17.2639
18.3904
50.5958
27.631
31.763
45.0861
3.83724
3.79409
6.02234
14.5716
29.8007
3.695
4.80475
4.90456
5.9154
12.1554
12.2906
14.4003
21.6978
23.2662
14.1793
18.1372
16.0146
43.4618
26.4279
19.7625
54.7901
4.57526
3.93474
4.72976
7.68724
16.729
40.5568
15.922
64.6232
70.9387
4.32673
3.49196
4.44714
3.83767
3.63461
4.6059
4.16812
4.15373
4.58951
3.94749
4.25341
5.67308
7.56522
7.24825
9.73537
11.3528
9.2333
9.86783
13.2976
16.4136
15.0601
18.6427
18.9708
16.9148
19.3225
13.8994
15.9976
13.3896
22.261
12.2347
18.5167
15.5782
16.5023
29.8637
28.4804
27.5173
22.264
19.6731
20.6443
21.6505
34.2471
25.5109
14.1122
25.3857
17.0639
35.7331
32.9743
22.4057