/*--------------------------------*- C++ -*----------------------------------*\
  =========                 |
  \\      /  F ield         | OpenFOAM: The Open Source CFD Toolbox
   \\    /   O peration     | Website:  https://openfoam.org
    \\  /    A nd           | Version:  9
     \\/     M anipulation  |
\*---------------------------------------------------------------------------*/
FoamFile
{
    format      ascii;
    class       volVectorField;
    location    "0.00215";
    object      U;
}
// * * * * * * * * * * * * * * * * * * * * * * * * * * * * * * * * * * * * * //

dimensions      [0 1 -1 0 0 0 0];

internalField   nonuniform List<vector> 
61399
(
(0 0 0)
(0 0 0)
(0 0 0)
(0 0 0)
(0 0 0)
(0 0 0)
(0 0 0)
(3.65724e-50 0 0)
(-4.27705e-40 0 0)
(-4.43729e-35 0 0)
(-9.78604e-32 0 0)
(-1.3491e-29 0 0)
(-3.70338e-27 0 0)
(-6.10415e-25 0 0)
(-6.33555e-23 0 0)
(-6.44031e-21 0 0)
(-2.92876e-19 0 0)
(-6.18129e-18 0 0)
(-1.02101e-16 0 0)
(-1.1934e-15 -6.36381e-15 0)
(-7.61291e-15 -7.25209e-14 -1.65724e-15)
(-4.12161e-14 -3.37555e-13 -1.15344e-14)
(-1.0368e-13 -9.56321e-13 -4.24751e-14)
(-3.56255e-14 -1.51909e-12 -7.54487e-14)
(-1.32579e-15 -1.59525e-12 -8.22876e-14)
(0 0 0)
(0 0 0)
(0 0 0)
(0 0 0)
(0 0 0)
(0 0 0)
(0 0 0)
(-2.05984e-46 0 0)
(-1.17569e-37 0 0)
(-7.67978e-33 0 0)
(-1.47576e-29 0 0)
(-1.79969e-27 0 0)
(-4.66334e-25 0 0)
(-7.16849e-23 0 0)
(-6.9471e-21 0 0)
(-5.61e-19 0 0)
(-2.40258e-17 0 0)
(-5.99094e-16 -6.83918e-16 0)
(-8.57115e-15 -4.7827e-14 -8.61766e-16)
(-9.59462e-14 -4.59491e-13 -1.77656e-14)
(-5.48342e-13 -2.59359e-12 -1.30482e-13)
(-2.0677e-12 -1.06414e-11 -5.21374e-13)
(-3.69465e-12 -2.81849e-11 -1.47084e-12)
(-1.06197e-12 -4.46505e-11 -2.46103e-12)
(-8.89829e-14 -4.74568e-11 -2.74079e-12)
(0 0 0)
(0 0 0)
(0 0 0)
(0 0 0)
(0 0 0)
(0 0 0)
(0 0 1.90767e-15)
(-1.72257e-43 0 6.292e-15)
(-3.08618e-35 0 3.36789e-15)
(-1.306e-30 0 0)
(-2.19949e-27 0 0)
(-2.35388e-25 0 0)
(-5.76702e-23 0 0)
(-8.32087e-21 0 0)
(-7.55149e-19 0 0)
(-4.71948e-17 0 0)
(-1.89803e-15 -3.53057e-15 1.28897e-16)
(-5.38523e-14 -1.39309e-13 -3.31449e-15)
(-5.73574e-13 -1.73861e-12 -7.55703e-14)
(-3.68745e-12 -1.41416e-11 -6.87943e-13)
(-1.7683e-11 -7.57657e-11 -3.81257e-12)
(-5.75643e-11 -2.95194e-10 -1.40714e-11)
(-9.93435e-11 -7.41626e-10 -4.18358e-11)
(-3.33056e-11 -1.17247e-09 -6.95502e-11)
(-3.5568e-12 -1.27871e-09 -7.69531e-11)
(0 0 0)
(0 0 0)
(0 0 0)
(0 0 0)
(0 0 1.31295e-14)
(0 0 -1.51716e-14)
(0 0 2.19454e-14)
(-4.74785e-41 0 3.49899e-14)
(-3.10021e-33 0 2.6841e-14)
(-8.88176e-29 0 7.7338e-16)
(-3.21466e-25 0 0)
(-3.03868e-23 0 0)
(-7.09516e-21 0 0)
(-9.69629e-19 0 0)
(-8.45207e-17 0 0)
(-4.59487e-15 -8.93213e-15 1.28897e-16)
(-1.48816e-13 -2.78913e-13 1.62383e-14)
(-2.00261e-12 -4.4299e-12 -1.94757e-13)
(-1.75524e-11 -5.02854e-11 -2.30017e-12)
(-1.06665e-10 -3.89211e-10 -1.90433e-11)
(-5.03496e-10 -2.17601e-09 -9.42924e-11)
(-1.51294e-09 -7.67983e-09 -3.61665e-10)
(-2.46158e-09 -1.8243e-08 -1.13266e-09)
(-1.03487e-09 -2.91441e-08 -1.81687e-09)
(-1.6825e-10 -3.45021e-08 -1.92532e-09)
(0 0 0)
(0 0 0)
(0 0 0)
(0 0 -1.31295e-14)
(0 0 0)
(0 0 -2.21088e-14)
(0 0 3.31449e-16)
(-1.19474e-38 0 6.6124e-15)
(-2.93645e-31 0 3.44338e-15)
(-5.95585e-27 0 0)
(-4.58685e-23 0 0)
(-3.9364e-21 0 0)
(-8.75725e-19 0 0)
(-1.1389e-16 0 0)
(-9.88511e-15 -1.13581e-14 0)
(-2.92667e-13 -4.11835e-13 -1.7169e-14)
(-4.83441e-12 -8.00768e-12 -3.59196e-13)
(-5.78983e-11 -1.22319e-10 -5.24652e-12)
(-4.95029e-10 -1.40764e-09 -5.99074e-11)
(-3.02815e-09 -1.02287e-08 -4.84736e-10)
(-1.42288e-08 -6.14309e-08 -1.79638e-09)
(-3.64472e-08 -1.83152e-07 -9.2864e-09)
(-5.54915e-08 -4.27061e-07 -2.60736e-08)
(-3.50884e-08 -7.10818e-07 -3.71914e-08)
(-1.28297e-08 -1.09663e-06 -3.20536e-08)
(0 0 0)
(0 0 0)
(0 0 0)
(0 0 1.51716e-14)
(0 0 2.21088e-14)
(0 0 0)
(0 0 1.64666e-14)
(-6.96836e-36 0 0)
(-6.50807e-29 0 0)
(-9.50329e-25 0 0)
(-6.50079e-21 0 0)
(-5.15975e-19 0 0)
(-1.07377e-16 0 0)
(-1.31992e-14 -1.18875e-14 0)
(-4.22079e-13 -4.56955e-13 -2.16104e-14)
(-8.38861e-12 -1.05809e-11 -4.91796e-13)
(-1.33126e-10 -2.05078e-10 -8.41237e-12)
(-1.65219e-09 -3.31947e-09 -1.1886e-10)
(-1.42481e-08 -4.0896e-08 -1.28385e-09)
(-8.50076e-08 -2.61263e-07 -1.00109e-08)
(-3.82381e-07 -1.50231e-06 -2.02882e-08)
(-8.08843e-07 -4.02786e-06 -1.9174e-07)
(-1.21676e-06 -1.04778e-05 -2.36647e-07)
(-1.10097e-06 -1.87383e-05 -1.44571e-07)
(-4.99743e-07 -2.10523e-05 7.86012e-08)
(0 0 0)
(0 0 0)
(0 0 -1.90767e-15)
(0 0 -2.19454e-14)
(0 0 -3.31449e-16)
(0 0 -1.64666e-14)
(0 0 0)
(-3.82341e-33 0 0)
(-1.42173e-26 0 0)
(-1.4489e-22 0 0)
(-9.62818e-19 0 0)
(-6.63904e-17 0 0)
(-1.27195e-14 -7.28911e-15 0)
(-4.5993e-13 -3.90633e-13 -1.98869e-14)
(-1.07093e-11 -1.03757e-11 -5.22919e-13)
(-2.13103e-10 -2.40665e-10 -1.00966e-11)
(-3.63791e-09 -5.09431e-09 -1.59682e-10)
(-4.9393e-08 -8.78857e-08 -1.93339e-09)
(-4.52517e-07 -1.19201e-06 -1.26837e-08)
(-2.50841e-06 -6.94729e-06 -2.12198e-08)
(-4.32824e-06 -1.48206e-05 1.53885e-07)
(-1.38512e-05 -5.05252e-05 1.06418e-06)
(-3.33392e-05 -0.000198431 6.27588e-06)
(-4.08574e-05 -0.000479918 1.74332e-05)
(-8.76089e-05 -0.000981401 4.11893e-05)
(0 0 0)
(0 0 0)
(0 0 -6.292e-15)
(0 0 -3.49899e-14)
(0 0 -6.6124e-15)
(0 0 0)
(0 0 0)
(-2.02363e-30 0 0)
(-3.16963e-24 0 0)
(-2.0537e-20 0 0)
(-6.12213e-17 0 -1.65329e-14)
(-8.21077e-15 -2.44084e-15 -4.64028e-16)
(-3.82587e-13 -2.47852e-13 -1.36557e-14)
(-1.01674e-11 -7.56461e-12 -4.27136e-13)
(-2.39562e-10 -1.99052e-10 -9.16605e-12)
(-5.23766e-09 -5.08932e-09 -1.56046e-10)
(-9.6758e-08 -1.16654e-07 -1.66676e-09)
(-1.39257e-06 -1.91087e-06 -7.56602e-09)
(-6.40239e-06 -1.20641e-05 1.20642e-07)
(-2.81314e-05 -8.32015e-05 2.40643e-06)
(-0.000277821 -0.000832483 3.69105e-05)
(-0.00485364 -0.0154111 0.000283296)
(-0.0569131 -0.362707 0.00705403)
(-0.241012 -2.36474 0.0509608)
(-1.32556 -11.7908 0.282963)
(0 0 0)
(0 0 0)
(0 0 -3.36789e-15)
(0 0 -2.6841e-14)
(0 0 -3.44338e-15)
(0 0 0)
(0 0 0)
(-1.07082e-27 0 0)
(-7.20202e-22 0 0)
(-2.64803e-18 0 0)
(-3.55028e-15 -1.42186e-16 0)
(-2.39087e-13 -1.15236e-13 -5.83349e-15)
(-7.15241e-12 -4.01012e-12 -2.69129e-13)
(-1.89699e-10 -1.14796e-10 -6.3617e-12)
(-4.90556e-09 -3.28113e-09 -1.16989e-10)
(-1.1668e-07 -9.26795e-08 -9.62358e-10)
(-2.07351e-06 -2.10309e-06 1.91998e-08)
(-8.2424e-06 -9.69927e-06 8.1419e-08)
(-0.000199473 -0.000280579 1.45221e-05)
(-0.0064738 -0.0144331 0.000273038)
(-5.20676 -12.147 0.301261)
(-110.723 -310.519 12.8762)
(-105.453 -483.688 21.5631)
(-72.7659 -539.693 23.3799)
(-53.2962 -587.888 24.1909)
(0 0 0)
(0 0 0)
(0 0 0)
(0 0 -7.7338e-16)
(0 0 0)
(0 0 0)
(0 0 0)
(-5.74111e-25 0 0)
(-1.55308e-19 0 0)
(-3.04853e-16 0 0)
(-1.09166e-13 -3.24212e-14 -1.78982e-15)
(-3.63593e-12 -1.50872e-12 -1.26689e-13)
(-1.04163e-10 -4.55823e-11 -3.31118e-12)
(-2.95197e-09 -1.34382e-09 -6.86027e-11)
(-8.31027e-08 -4.1912e-08 -6.33207e-10)
(-1.96776e-06 -1.26186e-06 2.69636e-08)
(-1.17291e-05 -9.44703e-06 2.49207e-07)
(-0.000454592 -0.000458096 2.67593e-05)
(-0.12078 -0.156377 0.00343694)
(-187.754 -258.956 10.9381)
(-258.503 -469.922 23.0589)
(-179.642 -453.268 15.0569)
(-113.036 -421.286 3.97422)
(-73.0386 -400.381 -1.1944)
(-24.4127 -395.422 -5.16484)
(0 0 0)
(0 0 0)
(0 0 0)
(0 0 0)
(0 0 0)
(0 0 0)
(0 0 0)
(-1.19299e-22 0 1.64003e-14)
(-2.81185e-17 0 0)
(-2.96749e-14 -4.05402e-15 0)
(-1.28741e-12 -3.80022e-13 -4.14918e-14)
(-3.89516e-11 -1.26656e-11 -1.21967e-12)
(-1.12048e-09 -3.70992e-10 -2.97419e-11)
(-3.32585e-08 -1.10256e-08 -4.75677e-10)
(-9.81302e-07 -3.56281e-07 5.92945e-09)
(-1.01128e-05 -5.09844e-06 2.4348e-07)
(-0.000259598 -0.000162214 1.34586e-05)
(-0.135431 -0.0975602 0.00288786)
(-311.952 -304.618 16.0631)
(-315.202 -372.285 20.4423)
(-223.326 -331.339 -5.30289)
(-131.039 -263.868 -11.5264)
(-80.5983 -205.577 -3.506)
(-60.1869 -168.218 1.72235)
(-28.3323 -154.262 2.37607)
(0 0 0)
(0 0 0)
(0 0 0)
(0 0 0)
(0 0 0)
(0 0 0)
(0 0 0)
(-2.15729e-20 0 0)
(-3.64956e-15 0 0)
(-3.05209e-13 -5.41944e-14 -8.94911e-15)
(-1.00178e-11 -2.38887e-12 -3.44149e-13)
(-2.87375e-10 -7.28179e-11 -8.40916e-12)
(-7.84192e-09 -2.18553e-09 -1.87927e-10)
(-2.06801e-07 -6.5624e-08 -2.7602e-09)
(-5.53955e-06 -1.96627e-06 8.02258e-08)
(-6.22301e-05 -2.07733e-05 1.82236e-06)
(-0.00942023 -0.00407527 0.000182456)
(-226.156 -158.73 9.13781)
(-381.651 -301.749 20.9673)
(-271.748 -253.831 -10.2201)
(-142.219 -164.767 -5.96905)
(-54.8269 -77.6487 8.97104)
(-31.8354 -19.9331 21.3763)
(-38.119 16.5174 25.5324)
(-31.4336 26.4553 26.7084)
(0 0 0)
(0 0 0)
(0 0 0)
(0 0 0)
(0 0 0)
(0 0 0)
(0 0 0)
(-7.51786e-18 0 0)
(-3.95751e-14 -3.11029e-15 0)
(-1.62438e-12 -3.1195e-13 -5.05459e-14)
(-5.02837e-11 -1.11968e-11 -1.51571e-12)
(-1.5431e-09 -3.36981e-10 -3.49267e-11)
(-4.82613e-08 -1.0293e-08 -4.01018e-10)
(-1.35387e-06 -3.11018e-07 1.51425e-08)
(-1.46585e-05 -4.22888e-06 3.28239e-07)
(-0.000915948 -0.000291188 4.77162e-05)
(-6.21538 -2.47365 0.13955)
(-460.662 -241.911 22.6108)
(-352.221 -208.205 0.87095)
(-191.223 -129.514 -8.73541)
(-57.4269 -39.2394 14.5008)
(11.9783 32.9632 27.5492)
(20.1465 80.0721 32.2383)
(-10.3387 110.872 35.0627)
(-19.6109 121.417 36.0344)
(0 0 0)
(0 0 0)
(0 0 0)
(0 0 0)
(0 0 0)
(0 0 0)
(0 0 0)
(-1.81066e-15 0 0)
(-1.86513e-13 -1.69806e-14 -2.91675e-15)
(-6.51818e-12 -1.13959e-12 -1.84952e-13)
(-1.95314e-10 -3.49045e-11 -4.36916e-12)
(-5.48879e-09 -1.01113e-09 -7.44446e-11)
(-1.38215e-07 -2.62317e-08 -5.57535e-10)
(-3.01491e-06 -5.66262e-07 1.80603e-08)
(-3.64541e-05 -8.99567e-06 9.33432e-07)
(-0.00722427 -0.00213445 0.000139293)
(-228.5 -79.1266 8.63688)
(-458.049 -161.083 18.8877)
(-308.517 -119.716 -12.8626)
(-118.238 -50.5111 5.53153)
(4.66116 19.7043 26.5912)
(54.5841 91.1321 32.1797)
(56.2928 122.889 37.5376)
(5.27672 138.494 40.1651)
(-0.553781 135.073 41)
(0 0 0)
(0 0 0)
(0 0 0)
(0 0 0)
(0 0 0)
(0 0 0)
(0 0 0)
(-6.20593e-15 0 0)
(-4.46409e-13 -2.33961e-14 -7.62332e-15)
(-1.48564e-11 -1.16455e-12 -3.06665e-13)
(-4.34784e-10 -3.55645e-11 -6.62897e-12)
(-1.17798e-08 -1.01051e-09 -9.99529e-11)
(-2.94171e-07 -2.60959e-08 -3.15471e-10)
(-7.3915e-06 -6.49611e-07 1.18907e-07)
(-0.000160746 -2.18709e-05 5.99515e-06)
(-0.132173 -0.0192965 0.00230458)
(-436.092 -79.9553 18.3242)
(-449.656 -83.8094 13.7413)
(-271.189 -56.7305 -11.7889)
(-77.1318 -19.9961 15.4115)
(32.9005 35.6418 28.6475)
(91.2895 102.061 32.6235)
(51.6668 113.387 37.6658)
(-17.24 78.7817 38.0283)
(-5.62734 78.2464 38.5056)
(0 -3.99064e-14 0)
(0 -3.99064e-14 0)
(0 -3.99064e-14 0)
(0 -3.99064e-14 0)
(0 -3.99064e-14 0)
(0 -3.99064e-14 0)
(0 -3.99064e-14 0)
(-9.89935e-15 0 0)
(-5.91898e-13 1.29472e-15 -7.62332e-15)
(-1.9331e-11 1.47951e-13 -2.88854e-13)
(-5.63814e-10 3.93914e-12 -5.4558e-12)
(-1.52017e-08 1.04098e-10 -5.16057e-11)
(-3.82759e-07 2.73631e-09 1.50093e-09)
(-1.00168e-05 7.88954e-08 2.31318e-07)
(-0.000271072 -7.2275e-06 1.00023e-05)
(-0.474454 -0.0133662 0.00858072)
(-483.43 -17.7119 20.7514)
(-445.407 -11.7498 11.1939)
(-258.178 -6.87338 -12.1103)
(-68.0222 -4.89934 16.6829)
(25.5589 -28.87 28.0175)
(-98.6075 -603.374 33.0116)
(-74.9919 -954.109 32.9788)
(59.6005 -965.17 32.6809)
(228.167 -760.927 34.3786)
(0 0 0)
(0 -1.403e-14 0)
(0 -2.59898e-14 0)
(0 -1.36533e-14 0)
(0 -1.35694e-14 0)
(0 -1.38086e-14 0)
(0 -1.23745e-14 0)
(0 0 0)
(-3.29898e-13 3.5332e-14 -2.85046e-15)
(-1.1443e-11 1.95675e-12 -1.00884e-13)
(-3.47064e-10 5.98848e-11 -1.13088e-12)
(-9.67989e-09 1.69521e-09 3.49978e-11)
(-2.46215e-07 4.29448e-08 3.04131e-09)
(-6.2194e-06 9.3024e-07 1.86841e-07)
(-0.00020552 1.24665e-05 8.00242e-06)
(-0.344366 0.0269473 0.00609157)
(-477.397 52.7316 20.3488)
(-456.538 62.7548 12.475)
(-276.639 45.0545 -12.6535)
(-285.442 -337.751 22.6457)
(-225.043 -645.566 30.6574)
(-113.317 -768.811 29.3072)
(-18.1156 -808.14 30.5804)
(105.784 -779.591 31.3834)
(226.191 -708.828 33.3177)
(0 -1.0791e-15 -2.20082e-14)
(0 -1.08428e-14 0)
(0 -1.9584e-14 7.36552e-16)
(0 -1.05816e-14 0)
(0 -1.06645e-14 0)
(0 -1.12007e-14 1.50257e-15)
(0 -1.02838e-14 0)
(3.74304e-14 0 -1.50036e-14)
(-1.87969e-14 0 -1.6616e-14)
(-2.50691e-13 2.3666e-13 -2.22197e-14)
(-9.57512e-12 9.04156e-12 -8.88208e-14)
(-3.0431e-10 2.84506e-10 -1.19696e-12)
(-9.18706e-09 8.35729e-09 4.41723e-11)
(-4.58002e-07 3.70768e-07 1.089e-08)
(-5.14656e-05 1.19327e-05 2.19822e-06)
(-0.0440815 0.00587391 0.000740503)
(-382.574 101.046 15.2617)
(-488.768 121.381 18.5497)
(-563.073 -254.197 8.51941)
(-345.736 -400.452 14.849)
(-215.18 -468.943 16.0191)
(-117.016 -502.483 18.8818)
(6.16445 -506.192 21.5153)
(144.411 -479.03 23.7877)
(251.159 -411.689 27.1204)
(0 0 -2.31572e-14)
(5.35897e-14 0 2.23579e-14)
(-1.19737e-24 -1.16928e-14 0)
(-5.8671e-17 0 1.5057e-14)
(-1.54839e-14 3.81829e-14 -1.56591e-14)
(-1.22877e-12 1.78479e-12 -3.77229e-14)
(-6.4385e-11 6.51375e-11 -1.622e-13)
(-1.05406e-08 4.02613e-09 4.35935e-10)
(-5.60962e-06 1.25575e-06 2.63277e-07)
(-0.00145955 0.000310134 6.10837e-05)
(-63.5492 17.3522 1.71795)
(-666.898 103.18 29.1665)
(-606.949 -39.7414 13.2386)
(-361.045 -167.964 4.71037)
(-227.248 -186.929 8.38091)
(-115.865 -192.501 10.497)
(17.3811 -189.824 14.2469)
(176.964 -175.445 16.25)
(334.57 -112.608 18.2387)
(0 0 0)
(0 -6.67765e-16 0)
(0 0 0)
(0 0 3.25556e-15)
(0 0 0)
(0 0 0)
(-1.36748e-14 4.66679e-14 0)
(-4.57311e-12 5.93123e-12 7.60932e-14)
(-3.20058e-09 2.16542e-09 5.81056e-11)
(-3.18686e-05 8.78285e-06 4.62025e-07)
(-3.98912 1.57551 0.0630934)
(-556.711 381.631 24.4586)
(-399.781 380.027 19.7051)
(0 0 -2.10359e-14)
(0 0 0)
(0 0 2.38794e-15)
(0 0 0)
(0 0 0)
(0 0 0)
(0 0 0)
(-1.54379e-17 0 9.79983e-15)
(-0.000605787 0.000545377 3.64572e-05)
(-3.45993 6.39033 0.116483)
(2.23401 69.746 1.51068)
(0 2.89014e-14 -1.74784e-14)
(0 1.19498e-14 0)
(0 2.35837e-14 -4.5077e-15)
(0 9.77006e-15 0)
(0 9.40972e-15 -1.21531e-15)
(0 9.60045e-15 0)
(0 7.61882e-15 0)
(0 2.19865e-14 -2.18938e-14)
(0 0 6.74645e-15)
(0 0 -1.89271e-14)
(0 0 0)
(0 0 0)
(0 0 -9.20322e-15)
(0 0 0)
(-3.50703e-16 0 0)
(-3.6355e-10 5.99171e-11 1.34367e-11)
(-3.50517e-06 6.45196e-06 4.85043e-07)
(-0.000116681 0.000306757 1.20264e-05)
(-0.000174864 0.00525037 6.73499e-05)
(1.90859e-06 6.09998e-07 2.86858e-08)
(-1.4459e-10 -1.90502e-10 5.34358e-12)
(-2.93002e-07 -1.1759e-07 6.45893e-09)
(-0.00376053 0.000120671 6.3426e-05)
(-18.6541 1.27195 0.409011)
(-265.059 412.192 7.0613)
(0 1.07901e-17 0)
(0 3.99064e-14 0)
(0 3.99064e-14 -7.29187e-15)
(0 3.99064e-14 0)
(0 3.99064e-14 0)
(0 3.99064e-14 0)
(-2.18093e-14 2.888e-14 0)
(0 0 0)
(0 9.16409e-15 -6.5242e-15)
(0 9.87873e-15 -7.82789e-15)
(0 -9.38214e-15 -6.84883e-15)
(0 -8.94797e-15 0)
(0 1.00934e-14 0)
(0 -1.77959e-14 0)
(-1.05888e-13 1.94845e-14 3.97738e-16)
(-9.53003e-11 4.01176e-11 2.59571e-12)
(-1.70034e-08 3.39857e-08 2.2463e-09)
(-8.70338e-08 1.04477e-06 7.14564e-08)
(1.64676e-07 8.10448e-07 2.59272e-08)
(3.05424e-09 3.14049e-09 1.47803e-10)
(-9.57731e-09 3.11431e-09 3.22342e-10)
(-3.83034e-06 1.70544e-06 1.55339e-07)
(-0.000867365 0.000506383 5.06438e-05)
(-1.81138 1.11232 0.0391507)
(-251.003 390.927 16.8393)
(0 0 0)
(0 1.07901e-17 0)
(0 0 0)
(0 0 0)
(0 0 0)
(0 0 0)
(0 0 -7.7338e-17)
(0 0 -2.19171e-14)
(0 0 -7.7338e-17)
(0 -3.99064e-14 0)
(0 -4.93057e-14 -1.04167e-14)
(0 0 0)
(0 3.57964e-14 0)
(-6.5625e-15 2.65159e-15 0)
(-5.90069e-13 2.53058e-13 3.49457e-14)
(-3.1245e-11 3.51922e-11 1.98133e-12)
(-6.87996e-10 1.18075e-09 6.25015e-11)
(-7.89007e-10 2.09221e-08 1.03241e-09)
(8.3022e-10 1.52265e-09 9.92645e-11)
(-4.62906e-10 5.80105e-11 1.54571e-11)
(-2.09531e-08 5.43459e-09 8.4685e-10)
(-8.623e-07 4.69676e-07 5.35606e-08)
(-2.69137e-05 3.04114e-05 3.03249e-06)
(-0.000854439 0.00120947 7.02704e-05)
(-0.412434 0.96781 0.0184497)
(0 0 0)
(0 0 0)
(0 0 0)
(0 0 0)
(0 0 0)
(0 0 0)
(0 0 0)
(0 0 -7.7338e-17)
(0 0 0)
(0 0 0)
(0 -5.91083e-15 0)
(0 0 0)
(0 0 0)
(0 0 0)
(-1.4443e-14 5.87032e-15 3.31449e-16)
(-6.08759e-13 8.20534e-13 3.40729e-14)
(-1.47939e-11 2.81548e-11 1.23265e-12)
(-6.96115e-12 3.84914e-10 1.52424e-11)
(1.41427e-11 3.46195e-11 1.66068e-12)
(-4.99609e-11 2.50868e-11 1.56235e-12)
(-1.55442e-09 1.02836e-09 5.76202e-11)
(-3.44928e-08 2.85858e-08 1.61962e-09)
(-6.37589e-07 1.01984e-06 5.58412e-08)
(-4.56901e-06 1.18725e-05 6.61796e-07)
(-3.01121e-05 0.000158111 7.64835e-06)
(0 0 0)
(0 0 0)
(0 0 0)
(0 0 0)
(0 0 0)
(0 0 0)
(0 0 0)
(1.49374e-48 0 0)
(-3.10618e-40 0 0)
(-1.65323e-35 0 0)
(-4.5848e-32 0 0)
(-3.02654e-29 0 0)
(-8.68298e-27 0 0)
(-1.36887e-24 0 0)
(-1.36747e-22 0 0)
(-8.8015e-21 0 0)
(-4.0978e-19 0 0)
(-1.24409e-17 0 0)
(-2.10082e-16 0 0)
(-2.32979e-15 -1.56444e-14 0)
(-1.61071e-14 -1.36119e-13 -1.2595e-15)
(-7.98233e-14 -5.83942e-13 -8.75024e-15)
(-2.00782e-13 -1.64355e-12 -3.43951e-14)
(-7.32042e-14 -2.67424e-12 -6.26327e-14)
(-5.1706e-15 -2.88274e-12 -6.68532e-14)
(0 0 0)
(0 0 0)
(0 0 0)
(0 0 0)
(0 0 0)
(0 0 0)
(0 0 0)
(-9.83145e-46 0 0)
(-8.01199e-38 0 0)
(-3.00799e-33 0 0)
(-7.01278e-30 0 0)
(-4.08325e-27 0 0)
(-1.08281e-24 0 0)
(-1.60049e-22 0 0)
(-1.48688e-20 0 0)
(-8.93813e-19 0 0)
(-3.76923e-17 0 0)
(-1.13561e-15 -2.24481e-15 0)
(-1.94424e-14 -8.52841e-14 -6.62897e-17)
(-1.77403e-13 -7.90545e-13 -1.35231e-14)
(-9.89709e-13 -4.46137e-12 -1.05633e-13)
(-3.45635e-12 -1.76305e-11 -4.26219e-13)
(-6.47565e-12 -4.89103e-11 -1.23163e-12)
(-2.34609e-12 -7.94159e-11 -2.0862e-12)
(-2.46517e-13 -8.61521e-11 -2.27893e-12)
(0 0 0)
(0 0 0)
(0 0 0)
(0 0 0)
(0 0 0)
(0 0 0)
(0 0 0)
(-7.81875e-43 0 0)
(-1.96747e-35 0 0)
(-5.32507e-31 0 0)
(-1.03635e-27 0 0)
(-5.3999e-25 0 0)
(-1.32789e-22 0 0)
(-1.851e-20 0 0)
(-1.61541e-18 0 0)
(-9.28053e-17 0 0)
(-3.19151e-15 -9.24692e-15 0)
(-9.39454e-14 -2.32234e-13 -1.9224e-15)
(-9.79536e-13 -2.87456e-12 -5.71325e-14)
(-6.30501e-12 -2.36851e-11 -5.43156e-13)
(-2.98215e-11 -1.23371e-10 -3.16555e-12)
(-9.64456e-11 -4.83953e-10 -1.19315e-11)
(-1.81354e-10 -1.3326e-09 -3.65709e-11)
(-6.93289e-11 -2.13861e-09 -6.19152e-11)
(-7.77798e-12 -2.32237e-09 -6.71376e-11)
(0 0 0)
(0 0 0)
(0 0 0)
(0 0 0)
(0 0 0)
(0 0 0)
(0 0 0)
(-1.87492e-40 0 7.23663e-15)
(-4.62016e-33 0 0)
(-9.14006e-29 0 0)
(-1.47865e-25 0 0)
(-7.0671e-23 0 0)
(-1.60883e-20 0 0)
(-2.12636e-18 0 0)
(-1.77262e-16 0 0)
(-1.03873e-14 -1.80922e-14 0)
(-2.48431e-13 -4.52185e-13 -5.36947e-15)
(-3.29278e-12 -7.05024e-12 -1.42081e-13)
(-2.92134e-11 -8.10893e-11 -1.74431e-12)
(-1.76987e-10 -6.4681e-10 -1.54625e-11)
(-8.13024e-10 -3.19024e-09 -8.1943e-11)
(-2.65411e-09 -1.31778e-08 -3.32417e-10)
(-4.77851e-09 -3.43369e-08 -1.08351e-09)
(-1.85878e-09 -5.33852e-08 -1.79147e-09)
(-2.28275e-10 -5.75548e-08 -1.86715e-09)
(0 0 0)
(0 0 0)
(0 0 0)
(0 0 0)
(0 0 0)
(0 0 0)
(0 0 0)
(-4.12934e-38 0 0)
(-1.05442e-30 0 0)
(-1.51343e-26 0 0)
(-2.06021e-23 0 0)
(-9.18629e-21 0 0)
(-1.91396e-18 0 0)
(-2.37716e-16 0 0)
(-1.90855e-14 -2.15176e-14 0)
(-4.75262e-13 -6.55706e-13 -1.03412e-14)
(-7.66433e-12 -1.23162e-11 -2.45734e-13)
(-9.25339e-11 -1.85691e-10 -3.7671e-12)
(-8.10408e-10 -2.15166e-09 -4.63983e-11)
(-4.80037e-09 -1.67473e-08 -4.2319e-10)
(-2.106e-08 -7.8939e-08 -1.83337e-09)
(-7.25128e-08 -3.51212e-07 -1.01155e-08)
(-1.11307e-07 -7.89151e-07 -3.10363e-08)
(-4.36564e-08 -1.17343e-06 -4.75736e-08)
(-6.28924e-09 -1.26594e-06 -4.40704e-08)
(0 0 0)
(0 0 0)
(0 0 0)
(0 0 0)
(0 0 0)
(0 0 0)
(0 0 0)
(-2.18482e-35 0 0)
(-2.37526e-28 0 0)
(-2.37823e-24 0 0)
(-2.87075e-21 0 0)
(-1.16943e-18 0 0)
(-2.1871e-16 0 0)
(-2.43672e-14 -2.16423e-14 0)
(-6.70829e-13 -7.20086e-13 -1.39208e-14)
(-1.28625e-11 -1.58526e-11 -3.28541e-13)
(-2.00461e-10 -2.94015e-10 -5.77158e-12)
(-2.47001e-09 -4.56199e-09 -8.66129e-11)
(-2.17039e-08 -5.32181e-08 -1.0886e-09)
(-1.25819e-07 -3.94992e-07 -1.1146e-08)
(-5.34135e-07 -1.8884e-06 -3.63731e-08)
(-1.77833e-06 -8.07325e-06 -3.10932e-07)
(-2.02745e-06 -1.48206e-05 -7.6785e-07)
(-9.6247e-07 -2.19469e-05 -1.02564e-06)
(-2.20856e-07 -2.51288e-05 -8.16994e-07)
(0 0 0)
(0 0 0)
(0 0 0)
(0 0 0)
(0 0 0)
(0 0 0)
(0 0 0)
(-1.12423e-32 0 0)
(-5.32471e-26 0 0)
(-3.56632e-22 0 0)
(-4.02694e-19 0 0)
(-1.41547e-16 0 0)
(-2.2903e-14 -1.35992e-14 0)
(-7.21378e-13 -6.09327e-13 -1.14018e-14)
(-1.60136e-11 -1.52637e-11 -3.3889e-13)
(-3.03676e-10 -3.31526e-10 -6.63208e-12)
(-4.90074e-09 -6.37589e-09 -1.08404e-10)
(-6.20466e-08 -1.02139e-07 -1.4793e-09)
(-5.43719e-07 -1.17058e-06 -1.72448e-08)
(-2.91088e-06 -7.70034e-06 -2.53566e-07)
(-1.45157e-05 -4.62304e-05 -6.79557e-07)
(-1.78541e-05 -7.03197e-05 -6.30656e-06)
(-1.96896e-05 -0.000121779 -1.19137e-05)
(-1.99356e-05 -0.00025246 -1.37157e-05)
(-8.51815e-06 -0.000312853 -1.30532e-05)
(0 0 0)
(0 0 0)
(0 0 0)
(0 0 -7.23663e-15)
(0 0 0)
(0 0 0)
(0 0 0)
(-5.55555e-30 0 0)
(-1.16431e-23 0 0)
(-5.49874e-20 0 0)
(-5.38201e-17 0 0)
(-1.5701e-14 -6.07277e-15 0)
(-5.91656e-13 -3.86339e-13 -7.29187e-15)
(-1.49258e-11 -1.10201e-11 -2.67831e-13)
(-3.28803e-10 -2.69032e-10 -5.77594e-12)
(-6.46935e-09 -6.034e-09 -9.88125e-11)
(-1.08686e-07 -1.2046e-07 -1.03654e-09)
(-1.4937e-06 -2.18331e-06 -2.33564e-09)
(-1.28019e-05 -2.23974e-05 2.57849e-09)
(-2.08367e-05 -4.42849e-05 -4.50872e-06)
(-0.000121198 -0.00031627 -2.87497e-06)
(-0.000499744 -0.0017934 -8.43674e-06)
(-0.00204639 -0.0103125 0.000799152)
(-0.0054109 -0.0538067 0.00780917)
(-0.0200011 -0.212565 0.0470836)
(0 0 0)
(0 0 0)
(0 0 0)
(0 0 0)
(0 0 0)
(0 0 0)
(0 0 0)
(-2.55405e-27 0 0)
(-2.35654e-21 0 0)
(-1.00453e-17 0 0)
(-6.49073e-15 -1.4541e-15 0)
(-3.68221e-13 -1.82207e-13 -2.65159e-15)
(-1.0408e-11 -5.85567e-12 -1.64783e-13)
(-2.5616e-10 -1.55974e-10 -3.86093e-12)
(-5.79574e-09 -3.87973e-09 -6.99047e-11)
(-1.17589e-07 -8.88237e-08 -4.56096e-10)
(-2.23627e-06 -1.92599e-06 2.78598e-08)
(-2.80713e-05 -3.12099e-05 6.1387e-07)
(-6.07985e-05 -8.86247e-05 -2.42274e-06)
(-0.000643464 -0.00122853 3.50329e-05)
(-0.0823202 -0.220425 0.054468)
(-8.22741 -25.1724 7.69269)
(-51.0779 -223.974 67.3577)
(-47.1003 -367.398 100.338)
(-49.5976 -460.002 127.478)
(0 0 0)
(0 0 0)
(0 0 0)
(0 0 0)
(0 0 0)
(0 0 0)
(0 0 0)
(-1.0468e-24 0 0)
(-4.12163e-19 0 0)
(-1.99241e-15 0 0)
(-1.69948e-13 -5.55814e-14 -5.96607e-16)
(-5.30343e-12 -2.23702e-12 -7.7106e-14)
(-1.41705e-10 -6.35239e-11 -1.96021e-12)
(-3.51789e-09 -1.68718e-09 -3.95923e-11)
(-7.9757e-08 -4.21236e-08 -3.10055e-10)
(-1.62304e-06 -9.75318e-07 2.31431e-08)
(-3.20884e-05 -2.42509e-05 1.72873e-06)
(-0.000103106 -9.1091e-05 5.46323e-06)
(-0.00288683 -0.00353056 0.000582685)
(-11.1725 -17.7325 6.51868)
(-207.878 -377.34 122.493)
(-165.768 -424.538 97.4018)
(-94.9505 -381.505 79.7675)
(-59.7381 -351.03 79.7758)
(-25.4782 -338.783 80.2043)
(0 0 0)
(0 0 0)
(0 0 0)
(0 0 0)
(0 0 0)
(0 0 0)
(0 0 0)
(-3.65006e-22 0 0)
(-5.87475e-17 0 0)
(-5.01136e-14 -7.65329e-15 0)
(-1.90136e-12 -5.77367e-13 -2.20082e-14)
(-5.44212e-11 -1.7992e-11 -7.19269e-13)
(-1.43191e-09 -4.97937e-10 -1.66406e-11)
(-3.49313e-08 -1.31755e-08 -2.69354e-10)
(-7.58746e-07 -3.25879e-07 3.04391e-09)
(-1.45156e-05 -7.44873e-06 3.41663e-07)
(-6.50298e-05 -3.77912e-05 5.22858e-07)
(-0.00298175 -0.0021632 0.000535975)
(-60.7341 -58.9593 30.7739)
(-304.904 -361.426 122.417)
(-184.165 -275.742 68.0753)
(-109.427 -223.103 70.659)
(-72.6822 -187.907 88.4562)
(-57.2076 -161.27 95.456)
(-26.7406 -151.258 105.615)
(0 0 0)
(0 0 0)
(0 0 0)
(0 0 0)
(0 0 0)
(0 0 0)
(0 0 0)
(-1.02748e-19 0 0)
(-6.89766e-15 0 0)
(-4.53497e-13 -8.69413e-14 -2.5853e-15)
(-1.42143e-11 -3.44666e-12 -1.68926e-13)
(-3.8868e-10 -9.97113e-11 -4.2173e-12)
(-1.00007e-08 -2.73816e-09 -8.83934e-11)
(-2.35648e-07 -7.20607e-08 -1.50113e-09)
(-4.62774e-06 -1.64646e-06 -1.25895e-08)
(-3.03899e-05 -1.27151e-05 -1.67495e-06)
(-0.000888975 -0.000418741 8.99554e-05)
(-12.023 -6.95685 4.55937)
(-373.616 -293.756 134.642)
(-221.071 -210.65 59.0059)
(-123.291 -148.468 77.5262)
(-51.8361 -87.3872 123.586)
(-26.9771 -31.0179 156.906)
(-30.1684 16.3038 176.875)
(-15.7658 27.9507 186.999)
(0 0 0)
(0 0 0)
(0 0 0)
(0 0 0)
(0 0 0)
(0 0 0)
(0 0 0)
(-2.17955e-17 0 0)
(-6.30093e-14 -5.8007e-15 0)
(-2.36632e-12 -4.85179e-13 -2.04172e-14)
(-6.82925e-11 -1.55831e-11 -7.24569e-13)
(-1.80032e-09 -4.2489e-10 -1.52074e-11)
(-4.35627e-08 -1.08618e-08 3.71069e-11)
(-9.60725e-07 -2.59909e-07 2.18567e-08)
(-2.04213e-05 -5.93135e-06 1.03432e-06)
(-0.00017978 -6.52683e-05 1.16822e-05)
(-0.11186 -0.0400917 0.0306495)
(-364.032 -189.168 145.05)
(-300.088 -179.542 66.109)
(-162.161 -120.445 67.2054)
(-58.4015 -56.9227 128.304)
(21.7202 25.9245 177.284)
(42.5093 101.201 238.126)
(3.83709 152.721 271.464)
(-17.8928 161.156 283.316)
(0 0 0)
(0 0 0)
(0 0 0)
(0 0 0)
(0 0 0)
(0 0 0)
(0 0 0)
(-3.11035e-15 0 0)
(-2.72374e-13 -2.71587e-14 -8.61766e-16)
(-8.68368e-12 -1.54203e-12 -7.71023e-14)
(-2.35377e-10 -4.33584e-11 -1.59583e-12)
(-6.00153e-09 -1.14102e-09 -3.76644e-12)
(-1.48302e-07 -2.87453e-08 1.3821e-09)
(-3.40645e-06 -6.82716e-07 6.98053e-08)
(-3.35224e-05 -6.83129e-06 3.66676e-07)
(-0.00096272 -0.000228249 0.000139993)
(-12.1784 -3.55454 4.2707)
(-444.254 -158.321 141.036)
(-253.808 -105.605 47.7543)
(-121.344 -68.7082 105.581)
(-2.63502 11.179 167.182)
(92.0601 99.5119 232.667)
(104.491 154.471 293.618)
(29.2591 180.694 343.554)
(1.11446 172.49 356.798)
(0 0 0)
(0 0 0)
(0 0 0)
(0 0 0)
(0 0 0)
(0 0 0)
(0 0 0)
(-9.50425e-15 0 0)
(-5.88509e-13 -2.9136e-14 -8.61766e-16)
(-1.81111e-11 -1.1982e-12 -8.75079e-14)
(-4.90316e-10 -3.41591e-11 -7.24239e-13)
(-1.26083e-08 -9.28778e-10 6.42212e-11)
(-3.05403e-07 -2.39115e-08 4.20856e-09)
(-6.35765e-06 -5.37937e-07 1.68684e-07)
(-5.90452e-05 -6.94142e-06 1.25744e-06)
(-0.00360564 -0.000595662 0.000663716)
(-143.956 -28.8674 62.7921)
(-438.157 -82.177 108.787)
(-233.227 -55.8394 47.3512)
(-100.562 -32.4695 116.521)
(51.1847 32.4053 184.637)
(170.483 95.4475 234.442)
(106.739 136.645 312.409)
(-14.6318 62.9944 341.88)
(-0.325544 59.4253 349.134)
(0 -3.99064e-14 0)
(0 -3.99064e-14 8.06995e-18)
(0 -3.99064e-14 2.23368e-17)
(0 -3.99064e-14 0)
(0 -3.99064e-14 0)
(0 -3.99064e-14 7.07498e-16)
(0 -3.99064e-14 7.77534e-16)
(-1.41317e-14 0 0)
(-7.23535e-13 6.60194e-15 1.65724e-15)
(-2.20224e-11 3.03115e-13 -2.45769e-14)
(-5.9645e-10 8.31041e-12 2.32909e-12)
(-1.53184e-08 2.2747e-10 1.81185e-10)
(-3.66228e-07 6.08992e-09 8.1559e-09)
(-7.39736e-06 1.57268e-07 2.80728e-07)
(-7.65239e-05 -3.43436e-07 4.19351e-06)
(-0.0114751 -0.000379235 0.0024619)
(-259.445 -10.8716 110.843)
(-417.473 -13.1124 88.6016)
(-224.303 -7.88383 41.0239)
(-86.2456 -4.05305 107.258)
(75.1108 -6.34958 178.884)
(14.2999 -431.554 267.274)
(-64.8726 -947.35 327.651)
(39.5504 -962.243 301.783)
(230.871 -766.968 331.94)
(0 0 0)
(0 -1.24185e-14 0)
(0 -2.49444e-14 0)
(0 -1.36622e-14 0)
(0 -1.34238e-14 0)
(0 -1.31373e-14 0)
(0 -1.1405e-14 0)
(0 0 0)
(-3.78801e-13 4.7e-14 8.6231e-16)
(-1.19028e-11 2.33504e-12 1.09381e-14)
(-3.26291e-10 6.66317e-11 2.48992e-12)
(-8.50628e-09 1.7653e-09 1.55507e-10)
(-2.08876e-07 4.39319e-08 6.01101e-09)
(-4.38759e-06 9.55194e-07 1.73967e-07)
(-5.0641e-05 7.2336e-06 3.22876e-06)
(-0.00837145 0.000481546 0.00179556)
(-235.694 26.0966 102.676)
(-429.161 55.7001 95.3081)
(-237.122 43.1792 40.6781)
(-205.714 -126.151 144.186)
(-218.033 -579.051 241.745)
(-73.2992 -755.262 240.198)
(-0.61385 -837.268 251.091)
(114.219 -817.379 262.965)
(233.693 -751.268 284.671)
(0 -7.59081e-16 -1.91613e-14)
(0 -1.00318e-14 0)
(0 -1.91368e-14 0)
(0 -1.14191e-14 0)
(0 -1.06395e-14 0)
(0 -1.06291e-14 0)
(0 -9.00234e-15 0)
(3.66324e-14 0 -1.2368e-14)
(-2.4646e-14 2.65159e-16 -1.66347e-14)
(-3.0968e-13 2.87543e-13 -3.6846e-14)
(-1.09109e-11 9.99957e-12 -7.77412e-13)
(-3.12725e-10 2.83365e-10 -1.9232e-11)
(-8.54188e-09 7.6292e-09 -3.69192e-10)
(-2.34763e-07 2.01044e-07 -3.94043e-09)
(-1.13517e-05 6.30356e-06 8.87516e-07)
(-0.00165231 0.000264886 0.000331185)
(-76.9154 20.4531 33.4629)
(-454.153 135.501 132.172)
(-445.077 -130.67 114.566)
(-360.023 -381.22 155.16)
(-204.104 -441.303 140.272)
(-98.6429 -485.47 141.503)
(17.0545 -506.773 157.719)
(146.674 -495.849 173.774)
(253.709 -442.171 193.286)
(0 0 -1.94525e-14)
(5.20245e-14 0 2.19728e-14)
(-3.25662e-19 -6.87203e-15 3.54922e-16)
(-3.42309e-16 0 1.61824e-14)
(-3.52552e-14 6.23123e-14 -1.32128e-14)
(-1.98657e-12 2.77403e-12 -7.85506e-13)
(-7.29675e-11 8.91615e-11 -2.38349e-11)
(-3.936e-09 3.04014e-09 -5.19788e-10)
(-7.92265e-07 2.412e-07 1.21981e-07)
(-0.000266413 6.40636e-05 6.8897e-05)
(-2.46926 0.34881 0.750682)
(-583.306 93.4211 223.793)
(-515.089 -41.6367 84.1658)
(-302.863 -163.404 71.5655)
(-197.453 -176.9 100.651)
(-107.009 -182.801 124.249)
(16.3702 -184.226 134.06)
(170.866 -175.52 140.093)
(318.611 -121.614 136.036)
(0 0 0)
(1.6655e-15 0 0)
(0 0 0)
(0 0 0)
(0 0 0)
(-1.59932e-17 0 2.65159e-16)
(-5.85761e-14 1.36292e-13 -6.57888e-14)
(-7.62143e-12 8.4625e-12 -4.69157e-12)
(-1.2101e-09 9.06184e-10 -2.45245e-10)
(-4.99508e-06 2.20383e-06 1.05478e-06)
(-0.13677 0.0466004 0.0347645)
(-452.377 324.539 191.653)
(-366.164 385.705 101.211)
(0 0 -2.11652e-14)
(0 0 0)
(0 0 0)
(0 0 0)
(0 0 0)
(0 0 0)
(0 0 0)
(-6.09141e-18 0 0)
(-0.000125624 0.000140848 4.58835e-05)
(-0.146107 0.264663 0.0782517)
(-1.17608 18.3483 5.09326)
(0 2.888e-14 1.33754e-15)
(0 1.01866e-14 0)
(0 1.7139e-14 0)
(0 9.40678e-15 0)
(0 9.61455e-15 0)
(0 9.60769e-15 0)
(0 7.13473e-15 0)
(-3.66803e-15 2.13411e-14 -1.60396e-14)
(0 0 1.18217e-14)
(0 0 -2.36838e-14)
(0 0 0)
(0 0 0)
(0 0 -2.1592e-14)
(0 0 0)
(-4.27222e-17 0 0)
(-5.07179e-11 9.01319e-12 1.18086e-11)
(-4.48763e-07 8.76065e-07 1.86875e-07)
(-2.5177e-05 6.4158e-05 1.44585e-05)
(-2.24294e-05 0.000578852 0.00011572)
(1.53615e-07 4.50862e-08 3.52428e-08)
(-4.1325e-11 -4.70868e-11 6.02546e-12)
(-4.1281e-08 -2.89762e-08 6.80972e-09)
(-0.000484602 8.4284e-06 9.31984e-05)
(-5.51294 0.615603 1.39799)
(-257.319 366.135 65.5402)
(0 3.56501e-16 0)
(0 3.99064e-14 8.26685e-16)
(0 3.99064e-14 4.67536e-15)
(0 3.99064e-14 -1.35665e-16)
(0 3.99064e-14 1.81254e-18)
(0 3.99064e-14 8.05459e-18)
(-2.18093e-14 2.888e-14 3.00925e-17)
(0 0 0)
(0 1.08855e-14 -1.6635e-14)
(0 1.19858e-14 -1.71948e-14)
(0 -9.64906e-15 -2.06824e-14)
(0 -1.10963e-14 0)
(0 9.62638e-15 0)
(-4.53475e-17 -1.73228e-14 0)
(-1.09232e-14 1.84474e-15 -1.32579e-15)
(-1.13617e-11 4.56272e-12 2.97745e-12)
(-1.87784e-09 3.60511e-09 8.41203e-10)
(-8.64941e-09 1.32851e-07 2.1924e-08)
(1.83346e-08 7.26351e-08 1.38662e-08)
(1.931e-10 1.86955e-10 5.62627e-11)
(-2.06989e-09 6.38592e-10 1.72367e-10)
(-8.07641e-07 3.57402e-07 8.90177e-08)
(-0.000211418 0.000108319 2.87215e-05)