/*--------------------------------*- C++ -*----------------------------------*\
  =========                 |
  \\      /  F ield         | OpenFOAM: The Open Source CFD Toolbox
   \\    /   O peration     | Website:  https://openfoam.org
    \\  /    A nd           | Version:  9
     \\/     M anipulation  |
\*---------------------------------------------------------------------------*/
FoamFile
{
    format      ascii;
    class       volScalarField::Internal;
    location    "0.0003";
    object      tIgn.c4;
}
// * * * * * * * * * * * * * * * * * * * * * * * * * * * * * * * * * * * * * //

dimensions      [0 0 1 0 0 0 0];

value           nonuniform List<scalar> 
2391
(
0.000272361
0.000284416
0.000309384
0.000344468
0.000322927
0.000458055
0.00045674
0.000461088
0.000514985
0.000513816
0.000517684
0.00057334
0.00057229
0.000575766
0.000632726
0.000631775
0.000634925
0.00031928
0.000317391
0.000266623
0.000323616
0.000274004
0.000337506
0.000290278
0.000329624
0.000281074
0.000327794
0.000278926
0.000333825
0.000285989
0.000347307
0.000301617
0.000351394
0.000306314
0.000349678
0.000304344
0.000355338
0.000310831
0.000368033
0.000325267
0.000382645
0.000341713
0.00038107
0.000339949
0.00038627
0.000345768
0.000397979
0.000358801
0.000421273
0.000384476
0.000419843
0.000382908
0.000424568
0.000388084
0.000435249
0.00039974
0.000465444
0.000432423
0.00046415
0.00043103
0.000468429
0.000435634
0.000478131
0.000446049
0.000513731
0.000484015
0.000512559
0.000482771
0.000516437
0.000486886
0.000525253
0.000496227
0.00056508
0.000538206
0.000564015
0.000537088
0.000567541
0.00054079
0.000575574
0.000549214
0.000618728
0.000594286
0.000617756
0.000593273
0.000620977
0.000596626
0.000628327
0.000604273
0.000674127
0.000651766
0.000673235
0.000650842
0.000676192
0.000653901
0.000682948
0.000660885
0.00036984
0.000368211
0.00037359
0.000385684
0.000378806
0.000377215
0.000382467
0.00039429
0.000397894
0.00039638
0.000401381
0.000412662
0.000425746
0.000424331
0.000429007
0.000439579
0.000460774
0.000459467
0.000463789
0.000473586
0.000501478
0.000500278
0.00050425
0.000513275
0.000546591
0.00054549
0.000549135
0.000557434
0.000595111
0.0005941
0.000597449
0.000605085
0.000646271
0.00064534
0.000648424
0.000655467
0.000699493
0.000698632
0.000701482
0.000707997
0.000268869
0.00036788
0.000417736
0.00047094
0.000526479
0.000583686
0.000642116
0.000694062
0.000716084
0.000742929
0.000774096
0.000809086
0.000847425
0.000888681
0.000428502
0.000473238
0.000519122
0.000436263
0.000480277
0.000525547
0.000452936
0.000495471
0.000539467
0.000477589
0.000518104
0.000560326
0.000509063
0.000547252
0.000587383
0.00054618
0.000581939
0.000619827
0.000587872
0.000621236
0.000656862
0.000633237
0.000664326
0.000697756
0.000681541
0.00071052
0.000741871
0.000732203
0.000759251
0.000788667
0.000565874
0.000571774
0.000584595
0.000603897
0.000629083
0.000659479
0.000694402
0.000733205
0.000775305
0.000820196
0.000613297
0.000661245
0.000618745
0.000666301
0.000630611
0.000677335
0.000648545
0.00067206
0.000700594
0.000733562
0.000770395
0.000810566
0.000853605
0.000358171
0.000314065
0.000384519
0.000343811
0.000415472
0.000378111
0.000450079
0.000415839
0.000487564
0.000456147
0.000527314
0.000498408
0.000568852
0.000542166
0.000367421
0.000324575
0.00039315
0.000353437
0.000423472
0.000386884
0.000457475
0.000423833
0.0004944
0.000463446
0.00053364
0.000505096
0.000574722
0.000548321
0.000387071
0.000346662
0.000411574
0.000373823
0.00044063
0.000405593
0.000473402
0.000440976
0.000509173
0.000479174
0.000547355
0.000519565
0.000587478
0.000561677
0.000415648
0.000378305
0.000438557
0.00040334
0.000465934
0.000432949
0.00049704
0.000466261
0.000531222
0.000502541
0.000567923
0.000541191
0.000606688
0.00058174
0.000451461
0.000417334
0.000472637
0.000440156
0.000498144
0.000467438
0.000527354
0.000498451
0.000559688
0.000532542
0.000594635
0.000569159
0.000631763
0.000607844
0.000492935
0.000461883
0.0005124
0.000482602
0.000536018
0.000507608
0.000563267
0.000536303
0.000593648
0.000568127
0.000626704
0.000602585
0.000662036
0.000639251
0.000538764
0.000510507
0.000556628
0.000529326
0.000578444
0.000552221
0.000603781
0.000578708
0.000632218
0.000608317
0.000663355
0.000640617
0.000696831
0.000675221
0.00058793
0.00056215
0.000604343
0.000579294
0.000624494
0.000600286
0.000648033
0.000624738
0.000674607
0.000652262
0.000703872
0.000682485
0.000735506
0.000715066
0.000639665
0.000616053
0.000654782
0.000631736
0.000673425
0.000651039
0.00069531
0.000673652
0.000720142
0.000699253
0.000747626
0.000727527
0.000777482
0.000758175
0.000693393
0.000671673
0.000707363
0.000686086
0.000724655
0.0007039
0.000745037
0.000724866
0.000768262
0.000748718
0.000794083
0.000775189
0.000822254
0.000804022
0.000611816
0.000587086
0.000617277
0.000592775
0.000629172
0.000605151
0.000647145
0.000623817
0.000670709
0.000648229
0.000699298
0.000677767
0.000732325
0.000711794
0.000769217
0.000749697
0.000809447
0.00079092
0.000852542
0.000834972
0.000700964
0.000705735
0.000716162
0.000732003
0.000655926
0.000661022
0.000672143
0.000688996
0.000711175
0.000738199
0.000769557
0.000804745
0.000843281
0.00088473
0.000632921
0.000679486
0.000638202
0.000684407
0.000649713
0.000695154
0.000667133
0.000711462
0.000690015
0.000717836
0.000750046
0.000786107
0.000825514
0.000867812
0.000752915
0.000778492
0.000808289
0.000841859
0.000878769
0.000918618
0.000732961
0.00075921
0.000789735
0.000824061
0.000861734
0.000902336
0.000471216
0.000469938
0.000474165
0.000483751
0.000498389
0.000517649
0.000541038
0.000478285
0.000477026
0.00048119
0.00049064
0.000505077
0.000524092
0.000547205
0.000493541
0.000492321
0.000496357
0.000505523
0.000519547
0.00053805
0.000560589
0.000516258
0.000515092
0.000518951
0.000527724
0.000541173
0.000558961
0.000580689
0.000545505
0.000544402
0.000548054
0.000556369
0.000569142
0.000586081
0.000606839
0.000580296
0.000579259
0.000582693
0.00059052
0.000602569
0.000618594
0.000638295
0.000619698
0.000618726
0.000621942
0.000629282
0.000640602
0.000655698
0.000674316
0.000662888
0.00066198
0.000664987
0.000671856
0.000682471
0.00069666
0.000714211
0.000709175
0.000708327
0.000711138
0.000717565
0.000727514
0.000740841
0.000757368
0.000757993
0.000757199
0.000759829
0.000765848
0.000775177
0.000787698
0.000803262
0.000752481
0.000756928
0.000766659
0.000781476
0.000801099
0.000825183
0.000853351
0.000885214
0.000920387
0.000958507
0.000710715
0.000715421
0.000725709
0.000702619
0.000741345
0.000724381
0.000762002
0.000750929
0.000787283
0.000781778
0.000816759
0.000816439
0.000849995
0.000854448
0.000886567
0.00089538
0.00092608
0.000420496
0.000419064
0.000423798
0.000434497
0.000450736
0.000471945
0.000497488
0.000455477
0.000428403
0.000426997
0.000431644
0.000442153
0.000458121
0.000479003
0.000504188
0.000462786
0.00044537
0.000444018
0.000448489
0.000458612
0.000474026
0.000494237
0.000518683
0.000478536
0.000470419
0.000469139
0.000473373
0.000482975
0.000497635
0.000516923
0.000540344
0.000501933
0.000502343
0.000501144
0.000505109
0.000514119
0.000527915
0.000546135
0.000568353
0.000531968
0.000539922
0.000538807
0.000542497
0.000550896
0.000563792
0.000580888
0.000601824
0.000567589
0.000582063
0.000581029
0.000584452
0.000592256
0.000604271
0.000620252
0.000639902
0.000607815
0.000627847
0.000626889
0.000630063
0.000637309
0.00064849
0.000663406
0.000681813
0.000651793
0.000676537
0.000675647
0.000678594
0.000685326
0.000695736
0.00070966
0.000726897
0.000698816
0.000727547
0.00072672
0.00072946
0.000735728
0.000745434
0.000758446
0.000774598
0.000748309
0.000487251
0.000522074
0.000559376
0.000494091
0.000528463
0.000565344
0.000508873
0.000542309
0.000578307
0.000530934
0.000563062
0.000597812
0.000559415
0.000589993
0.000623244
0.00059339
0.000622302
0.000653912
0.000631976
0.000659197
0.000689117
0.000674381
0.000699955
0.000728201
0.000719929
0.00074394
0.000770575
0.000768064
0.000790613
0.000815727
0.000598695
0.000604274
0.000616419
0.000634754
0.000658761
0.000687847
0.000721398
0.000758822
0.000799575
0.000843174
0.000725391
0.000730003
0.000740088
0.000755427
0.000775709
0.000800557
0.000829562
0.000862304
0.000898375
0.00093739
0.000681968
0.000686872
0.00069758
0.000713833
0.000735263
0.000761432
0.000791872
0.000826109
0.000863693
0.000904206
0.000631245
0.000670221
0.000639657
0.000636539
0.00067521
0.000644882
0.00064808
0.000686101
0.000656277
0.000665543
0.000673527
0.000688477
0.000696199
0.000716358
0.000723782
0.000748632
0.000755739
0.000784758
0.000791541
0.00082423
0.00083069
0.00086659
0.000872737
0.000594085
0.000599707
0.000611943
0.000630408
0.000654575
0.000683839
0.000717577
0.00075519
0.000796129
0.000839908
0.000526734
0.000559103
0.000533067
0.000565074
0.000546796
0.000578043
0.000567385
0.000597556
0.000594121
0.000622999
0.000626217
0.000653678
0.000662894
0.000688895
0.000703437
0.000727992
0.000747217
0.000770377
0.000793698
0.000815539
0.000403891
0.000427431
0.000412117
0.000435212
0.000429728
0.000451924
0.000455638
0.000476628
0.000488528
0.000508162
0.000527093
0.00054534
0.000570183
0.000587092
0.00061685
0.000632513
0.000666343
0.000680869
0.000718078
0.000731577
0.000306185
0.000344255
0.000385313
0.000316957
0.000353869
0.000393926
0.00033954
0.000374231
0.000412315
0.000371789
0.000403719
0.000439253
0.000386926
0.000411437
0.000440502
0.000473283
0.000434602
0.000456561
0.000482918
0.000512996
0.000485964
0.000505697
0.000529614
0.000557177
0.000539959
0.000557786
0.000579557
0.000604848
0.000595874
0.000612074
0.000631978
0.000655249
0.000653214
0.000668025
0.000686309
0.000707795
0.000631003
0.000666107
0.000703153
0.000741852
0.000636299
0.000671126
0.00070791
0.000746362
0.000647844
0.000682082
0.000718305
0.000756228
0.000665314
0.000698696
0.000734099
0.000771246
0.000688256
0.000720576
0.000754954
0.000791122
0.000716145
0.000747259
0.000780463
0.000815501
0.000748428
0.000778253
0.000810188
0.000843993
0.000784564
0.000813064
0.000843682
0.000876196
0.000824045
0.000851224
0.000880516
0.000911717
0.000866414
0.000892304
0.000920289
0.000950185
0.000568046
0.000598184
0.000573924
0.000603768
0.000586698
0.000615924
0.000605932
0.000634273
0.000631037
0.000658297
0.000661344
0.000687403
0.000696173
0.000720975
0.000734882
0.000758419
0.000776892
0.000799193
0.000821696
0.000842812
0.000781956
0.000786236
0.000795609
0.000809897
0.000828847
0.000852147
0.000879452
0.000910402
0.000944638
0.000981817
0.000849846
0.000867924
0.000890202
0.000916374
0.000946116
0.000979105
0.00101502
0.000908179
0.000929493
0.000954588
0.000983176
0.00101496
0.00104965
0.000823262
0.000827329
0.000836241
0.0008158
0.000849073
0.000885683
0.000925234
0.000848314
0.000880359
0.000915719
0.000954025
0.000830654
0.000863355
0.000899384
0.000938357
0.000891355
0.000921905
0.000955729
0.000992492
0.000868607
0.00089993
0.000934549
0.000972114
0.000822806
0.000841465
0.000864426
0.000740289
0.000760974
0.000786288
0.000746764
0.000751244
0.000761048
0.000775972
0.000726641
0.000709613
0.000731244
0.000714326
0.000741312
0.000724629
0.000756627
0.00079573
0.000819972
0.000776877
0.000801689
0.000769739
0.000774086
0.000783604
0.000798107
0.00081733
0.00084095
0.000795319
0.000799528
0.000808746
0.000930597
0.000959899
0.000992429
0.00102788
0.000904837
0.000521983
0.000520829
0.000524646
0.000533326
0.000546637
0.000564253
0.000585784
0.000528373
0.000527233
0.000531004
0.000539581
0.000552742
0.000570169
0.000591485
0.000542221
0.000541111
0.000544785
0.000553149
0.000565995
0.000583025
0.000603888
0.000562977
0.000561908
0.000565447
0.00057351
0.000585909
0.000602377
0.000622592
0.000589913
0.000588892
0.00059227
0.000599973
0.000611836
0.000627624
0.00064705
0.000622225
0.000621258
0.000624461
0.000631771
0.000643048
0.000658088
0.00067664
0.000659125
0.000658212
0.000661236
0.000668144
0.000678817
0.000693081
0.00071072
0.000699887
0.000699027
0.000701875
0.000708387
0.000718462
0.000731954
0.000748678
0.000743875
0.000743066
0.000745747
0.000751878
0.000761378
0.000774123
0.000789954
0.000790553
0.000789792
0.000792314
0.000798088
0.000807044
0.000819078
0.000834057
0.000966154
0.000917328
0.000868746
0.000820452
0.000772499
0.000724957
0.000981534
0.000933512
0.000885818
0.000838508
0.00079165
0.00074533
0.000699656
0.000999278
0.000952151
0.00090544
0.000859211
0.000813546
0.000768547
0.000724338
0.00101926
0.000973105
0.000927449
0.000882374
0.000837973
0.000794359
0.000751669
0.00104136
0.000996226
0.00095168
0.000907809
0.000864715
0.00082252
0.00078137
0.00106544
0.00102137
0.000977968
0.000935331
0.000893565
0.000852799
0.000813182
0.00109136
0.00104839
0.00100615
0.00096476
0.000924325
0.000884977
0.000846868
0.000969622
0.000920979
0.0008726
0.000824532
0.000776831
0.000729572
0.000984947
0.0009371
0.000889599
0.000842501
0.000795878
0.00074982
0.000704436
0.00100263
0.00095567
0.000909139
0.000863108
0.000817661
0.000772902
0.000728956
0.00102255
0.000976547
0.00093106
0.000886169
0.000841968
0.000798572
0.00075612
0.00104458
0.000999589
0.0009552
0.000911498
0.000868587
0.00082659
0.000785653
0.00106858
0.00102465
0.000981394
0.000938912
0.000897312
0.000856725
0.000817299
0.00109443
0.00105158
0.00100948
0.000968233
0.000927949
0.000888761
0.000850821
0.000977237
0.000928993
0.000881054
0.000833474
0.000786316
0.000739662
0.000992445
0.000944978
0.000897893
0.000851254
0.000805138
0.000759641
0.000714882
0.00101
0.000963395
0.000917256
0.000871654
0.000826677
0.000782434
0.000739056
0.00102977
0.000984109
0.000938989
0.000894495
0.000850727
0.000807801
0.000765861
0.00105165
0.00100698
0.000962929
0.000919595
0.00087708
0.00083551
0.000795033
0.0010755
0.00103186
0.000988918
0.000946774
0.000905536
0.000865334
0.000826319
0.00110119
0.00105861
0.0010168
0.000975859
0.000935903
0.000897063
0.00085949
0.000988904
0.000941259
0.000893978
0.000847123
0.00080077
0.00075501
0.00100394
0.000957038
0.000910577
0.000864623
0.00081926
0.000774593
0.00073075
0.00102129
0.000975228
0.000929677
0.000884715
0.000840437
0.000796958
0.000754416
0.00104085
0.000995696
0.000951125
0.000907227
0.000864104
0.000821878
0.000780694
0.0010625
0.0010183
0.000974768
0.000931984
0.000890061
0.000849127
0.000809331
0.00108611
0.00104291
0.00100045
0.000958812
0.000918115
0.000878489
0.000840085
0.00111155
0.00106939
0.00102802
0.000987542
0.000948079
0.000909759
0.000872733
0.00100448
0.000957612
0.000911181
0.000865258
0.000819931
0.000775302
0.00101928
0.000973127
0.000927472
0.000882398
0.000837998
0.000794386
0.000751697
0.00103638
0.000991021
0.000946231
0.000902094
0.000858713
0.000816208
0.000774724
0.00105566
0.00101117
0.000967312
0.000924183
0.00088189
0.000840557
0.000800336
0.00107702
0.00103344
0.000990569
0.000948498
0.000907338
0.00086722
0.000828294
0.00110031
0.0010577
0.00101585
0.000974871
0.000934874
0.000895989
0.000858369
0.00112544
0.00108381
0.00104301
0.00100314
0.000964317
0.000926669
0.000890346
0.00102379
0.000977849
0.000932426
0.000887603
0.000843477
0.000800163
0.00103832
0.000993048
0.000948352
0.00090432
0.000861051
0.000818667
0.000777314
0.00105511
0.00101059
0.000966706
0.000923548
0.000881224
0.000839859
0.000799602
0.00107406
0.00103036
0.00098735
0.000945136
0.000903823
0.000863542
0.000824442
0.00109505
0.00105222
0.00101015
0.000968925
0.000928671
0.000889515
0.000851609
0.00111797
0.00107605
0.00103495
0.000994757
0.000955592
0.000917586
0.000880888
0.0011427
0.00110173
0.00106162
0.00102248
0.000984416
0.000947567
0.000912076
0.00104663
0.00100173
0.000957444
0.000913849
0.000871054
0.000829182
0.00106084
0.00101658
0.000972961
0.000930094
0.000888082
0.000847052
0.000807154
0.00107728
0.00103372
0.000990859
0.000948801
0.000907655
0.000867551
0.000828641
0.00109585
0.00105305
0.00101101
0.000969827
0.000929612
0.000890497
0.000852635
0.00111643
0.00107445
0.00103328
0.000993024
0.000953788
0.000915707
0.000878931
0.00113892
0.0010978
0.00105755
0.00101825
0.000980019
0.000942998
0.000907329
0.00116321
0.00112298
0.00108366
0.00104534
0.00100815
0.000972196
0.000937638
0.00107277
0.00102901
0.000985949
0.000943672
0.000902292
0.000861939
0.00108664
0.00104347
0.00100102
0.000959412
0.000918741
0.000879143
0.00084077
0.00110269
0.00106017
0.00101843
0.000977557
0.000937674
0.000898911
0.000861418
0.00112084
0.00107903
0.00103804
0.000997977
0.000958944
0.000921076
0.000884523
0.00114097
0.00109993
0.00105975
0.00102054
0.000982399
0.00094547
0.000909898
0.00116298
0.00112275
0.00108342
0.00104509
0.00100789
0.000971926
0.000937359
0.00118678
0.00114738
0.00110893
0.00107151
0.00103525
0.00100028
0.000966727
0.00110197
0.00105942
0.00101765
0.000976742
0.000936824
0.000898024
0.00111548
0.00107347
0.00103226
0.000991958
0.000952678
0.00091455
0.000877726
0.00113112
0.00108971
0.00104915
0.00100952
0.000970949
0.000933568
0.000897525
0.00114882
0.00110807
0.0010682
0.0010293
0.000991505
0.00095493
0.000919723
0.00116847
0.00112843
0.0010893
0.00105119
0.00101421
0.00097848
0.000944153
0.00118998
0.00115069
0.00111234
0.00107505
0.00103891
0.00100407
0.000970644
0.00121324
0.00117473
0.0011372
0.00110075
0.00106549
0.00103154
0.000999034
0.001134
0.0010927
0.00105225
0.00101274
0.000974301
0.000937054
0.00114713
0.00110632
0.00106639
0.00102743
0.000989554
0.000952904
0.00091762
0.00116235
0.0011221
0.00108274
0.00104439
0.00100716
0.000971171
0.000936575
0.00117958
0.00113993
0.00110121
0.00106353
0.00102699
0.000991723
0.00095787
0.00119872
0.00115973
0.0011217
0.00108472
0.00104892
0.00101442
0.00098135
0.0012197
0.0011814
0.00114408
0.00110786
0.00107283
0.00103912
0.00100686
0.00124241
0.00120483
0.00116827
0.00113282
0.00109858
0.00106569
0.00103426
0.000928858
0.00087796
0.000827068
0.000776185
0.000725313
0.000674452
0.000623607
0.000572782
0.00092821
0.000877274
0.000826341
0.00077541
0.000724483
0.00067356
0.000622642
0.000571731
0.000930357
0.000879546
0.000828752
0.000777979
0.000727231
0.000676515
0.000625838
0.00057521
0.000935279
0.000884751
0.000834274
0.000783858
0.000733518
0.000683269
0.000633132
0.000583138
0.000942934
0.000892838
0.000842845
0.000792975
0.000743253
0.000693709
0.000644385
0.000595337
0.000953254
0.00090373
0.000854375
0.00080522
0.000756303
0.000707673
0.000659395
0.000677911
0.000932464
0.000881774
0.000831116
0.000780497
0.000729925
0.00067941
0.000628966
0.000578612
0.000931819
0.000881092
0.000830392
0.000779726
0.0007291
0.000678524
0.000628009
0.000577571
0.000933957
0.000883353
0.000832791
0.000782281
0.000731832
0.000681458
0.000631178
0.000581015
0.000938861
0.000888536
0.000838287
0.000788128
0.000738079
0.000688163
0.000638411
0.000588865
0.000946486
0.000896589
0.000846818
0.000797196
0.000747754
0.00069853
0.000649573
0.000600947
0.000956768
0.000907436
0.000858294
0.000809377
0.000760727
0.000712399
0.000664465
0.000682843
0.00094038
0.000890141
0.000839988
0.000789938
0.000740011
0.000690234
0.000640643
0.000591284
0.00093974
0.000889465
0.000839272
0.000789176
0.000739198
0.000689363
0.000639704
0.000590266
0.000941861
0.000891705
0.000841645
0.0007917
0.000741892
0.000692251
0.000642815
0.000593637
0.000946724
0.00089684
0.000847083
0.000797478
0.000748055
0.000698852
0.000649919
0.000601322
0.000954286
0.000904819
0.000855527
0.000806441
0.000757603
0.000709063
0.000660886
0.000613159
0.000964484
0.000915569
0.000866888
0.000818484
0.00077041
0.00072273
0.000675529
0.000693614
0.000952499
0.000902934
0.000853533
0.000804326
0.000755351
0.000706656
0.000658304
0.000610374
0.000951868
0.000902268
0.000852829
0.000803578
0.000754555
0.000705805
0.000657389
0.000609388
0.000953961
0.000904477
0.000855165
0.000806057
0.000757194
0.000708626
0.000660417
0.000612654
0.000958762
0.000909539
0.000860517
0.000811734
0.000763234
0.000715076
0.000667334
0.000620103
0.00096623
0.000917408
0.00086883
0.000820541
0.000772594
0.000725058
0.000678019
0.000631588
0.000976304
0.000928012
0.00088002
0.00083238
0.000785157
0.00073843
0.0006923
0.000709958
0.000968663
0.00091997
0.000871535
0.000823404
0.000775635
0.000728297
0.000681482
0.000635304
0.000968042
0.000919316
0.000870845
0.000822674
0.000774859
0.000727471
0.000680599
0.000634356
0.000970101
0.000921483
0.000873133
0.000825095
0.00077743
0.000730208
0.000683524
0.000637493
0.000974822
0.000926453
0.000878375
0.000830641
0.000783313
0.000736469
0.000690208
0.000644656
0.000982168
0.000934179
0.000886521
0.00083925
0.000792437
0.000746166
0.000700545
0.000655711
0.00099208
0.000944595
0.00089749
0.000850829
0.000804689
0.000759165
0.000714376
0.000731501
0.000988674
0.000941016
0.000893723
0.000846854
0.000800485
0.000754708
0.000709637
0.000665416
0.000988065
0.000940377
0.00089305
0.000846144
0.000799734
0.000753911
0.000708789
0.000664511
0.000990082
0.000942496
0.000895281
0.000848498
0.000802225
0.000756553
0.000711598
0.000667507
0.000994709
0.000947355
0.000900395
0.000853893
0.000807928
0.000762597
0.000718022
0.00067435
0.00100191
0.000954913
0.000908343
0.000862269
0.000816776
0.000771966
0.000727964
0.000684927
0.00101163
0.000965105
0.000919052
0.000873543
0.000828669
0.000784538
0.000741283
0.000757801
0.0010123
0.000965812
0.000919795
0.000874325
0.000829493
0.000785408
0.000742204
0.000700043
0.00101171
0.000965189
0.000919141
0.000873637
0.000828768
0.000784642
0.000741393
0.000699183
0.00101368
0.000967254
0.000921309
0.000875917
0.000831171
0.000787181
0.000744079
0.000702031
0.0010182
0.00097199
0.000926279
0.000881144
0.000836677
0.000792992
0.000750224
0.000708541
0.00102523
0.000979357
0.000934007
0.000889264
0.000845225
0.000802005
0.000759745
0.000718614
0.00103473
0.000989297
0.000944424
0.000900199
0.000856723
0.000814114
0.000772516
0.00078838
0.0010393
0.000994077
0.00094943
0.00090545
0.000862238
0.000819915
0.000778628
0.000738549
0.00103873
0.000993472
0.000948796
0.000904785
0.00086154
0.000819182
0.000777855
0.000737735
0.00104064
0.000995478
0.000950897
0.000906988
0.000863852
0.000821613
0.000780416
0.000740434
0.00104505
0.00100008
0.000955713
0.000912036
0.000869151
0.000827183
0.000786277
0.000746609
0.0010519
0.00100724
0.000963205
0.000919883
0.000877383
0.000835828
0.000795367
0.000756176
0.00106116
0.00101691
0.00097331
0.000930459
0.000888464
0.000847453
0.000807575
0.000822763
0.00106942
0.00102552
0.000982307
0.000939866
0.000898311
0.000857771
0.000818395
0.000780362
0.00106886
0.00102494
0.000981694
0.000939226
0.000897642
0.000857069
0.00081766
0.000779591
0.00107072
0.00102688
0.000983725
0.000941348
0.000899861
0.000859394
0.000820097
0.000782146
0.001075
0.00103134
0.000988381
0.000946213
0.000904949
0.00086472
0.000825676
0.000787994
0.00108167
0.00103829
0.000995627
0.000953779
0.000912858
0.000872993
0.000834336
0.000797064
0.00109068
0.00104767
0.00100541
0.000963983
0.000923514
0.00088413
0.000845982
0.000860493
0.0011024
0.00105987
0.00101811
0.000977227
0.000937329
0.000898551
0.000861043
0.000824977
0.00110185
0.0010593
0.00101752
0.000976611
0.000936688
0.000897881
0.000860344
0.000824248
0.00110366
0.00106118
0.00101948
0.000978652
0.000938815
0.000900101
0.00086266
0.000826665
0.00110782
0.0010655
0.00102397
0.000983332
0.000943693
0.000905187
0.000867966
0.000832201
0.00111429
0.00107223
0.00103097
0.000990615
0.000951279
0.000913094
0.000876208
0.000840794
0.00112303
0.00108131
0.00104042
0.00100044
0.00096151
0.000923747
0.000887305
0.00090115
0.000611551
0.000631472
0.000617014
0.000636764
0.000628914
0.000648301
0.000646894
0.000665758
0.000670467
0.000688685
0.000699066
0.000716558
0.000732103
0.000748824
0.000769006
0.000784941
0.000809246
0.000824404
0.000852351
0.000866755
0.00065476
0.000610817
0.000681072
0.000638941
0.00071007
0.000669765
0.00074144
0.000702936
0.000774893
0.000738136
0.000810172
0.00077509
0.000659866
0.000616287
0.000685982
0.000644172
0.000714781
0.000674757
0.000745952
0.000707694
0.000779212
0.000742669
0.000814303
0.000779408
0.000671006
0.0006282
0.000696704
0.000655578
0.000725077
0.000685655
0.000755824
0.000718092
0.000788668
0.000752584
0.000823357
0.000788861
0.000687887
0.0006462
0.000712977
0.000672847
0.000740727
0.000702184
0.00077085
0.000733891
0.000803079
0.000767674
0.000837171
0.00080327
0.0007101
0.000669797
0.000734432
0.00069554
0.0007614
0.000723959
0.000790736
0.000754752
0.000822186
0.00078764
0.000855517
0.000822372
0.000737163
0.000698424
0.00076063
0.000723148
0.000786701
0.000750523
0.000815127
0.000780268
0.00084567
0.000812123
0.00087811
0.000845851
0.000768564
0.00073149
0.0007911
0.000755133
0.000816198
0.000781387
0.000843631
0.000809999
0.000873178
0.000840729
0.000904632
0.000873353
0.000803795
0.000768422
0.000825369
0.000790962
0.000849456
0.000816064
0.000875847
0.000843501
0.000904342
0.000873053
0.000934748
0.000904511
0.000842375
0.000808692
0.000862985
0.000830138
0.00088605
0.00085409
0.000911382
0.000880343
0.000938799
0.000908697
0.000968123
0.000938962
0.000883866
0.000851825
0.00090353
0.000872212
0.000925585
0.000895038
0.000949864
0.000920123
0.0009762
0.000947287
0.00100443
0.000976357
0.00116914
0.00112912
0.00109002
0.00105194
0.00118919
0.00114987
0.0011115
0.00107418
0.00121226
0.00117371
0.00113615
0.00109966
0.00123817
0.00120046
0.00116376
0.00112817
0.00126677
0.00122993
0.00119414
0.00115948
0.000847048
0.000813558
0.000851001
0.000817673
0.000859667
0.000826689
0.000872908
0.000840449
0.000890518
0.000858724
0.000912244
0.000881235
0.000937801
0.000907666
0.000966885
0.000937684
0.000999187
0.000970959
0.00103441
0.00100717
0.00101498
0.000979283
0.00103801
0.00100313
0.00106436
0.00103037
0.00109379
0.00106075
0.00112605
0.00109399
0.000882211
0.000886007
0.000894335
0.000907069
0.000924028
0.000944984
0.000969679
0.000997834
0.00102917
0.00106339
0.00111901
0.00107714
0.00103608
0.000995929
0.00112201
0.00108025
0.00103931
0.000999293
0.00112859
0.00108709
0.00104642
0.00100668
0.00113871
0.00109759
0.00105732
0.00101801
0.00115227
0.00111165
0.00107191
0.00103315
0.00117898
0.00113931
0.00110057
0.00106286
0.00118182
0.00114225
0.00110362
0.00106602
0.00118808
0.00114872
0.00111031
0.00107295
0.00119769
0.00115866
0.0011206
0.00108358
0.00109782
0.00111552
0.00113651
0.00126782
0.00123102
0.00119525
0.00116063
0.00129262
0.00125655
0.00122153
0.00118767
0.00132004
0.00128473
0.00125051
0.00121745
0.00121059
0.00117199
0.00113437
0.00124186
0.00120426
0.00116768
0.00113221
0.00122666
0.00118858
0.0011515
0.00125753
0.00122042
0.00118433
0.00114938
0.00124578
0.00120831
0.00117185
0.00127619
0.00123964
0.00120413
0.00116976
0.00129771
0.00126178
0.00122692
0.00119321
0.00132196
0.0012867
0.00125253
0.00121953
0.00134877
0.00131424
0.0012808
0.00124855
0.000885322
0.000853336
0.000924821
0.000889105
0.000857259
0.000928442
0.000897404
0.000865863
0.000936393
0.000910095
0.00087901
0.000948562
0.000926999
0.0008965
0.000964792
0.000935527
0.000947889
0.000918085
0.000984882
0.000956231
0.00097251
0.000943484
0.0010086
0.000980643
0.00100059
0.000972398
0.00103183
0.00100452
0.00106598
0.00103956
0.000956812
0.000918856
0.00114826
0.00110749
0.00106759
0.00102868
0.000990855
0.000954255
0.0010263
0.000991009
0.000960313
0.000922501
0.00115118
0.00111051
0.00107073
0.00103194
0.000994236
0.000957765
0.00102956
0.00099439
0.000968001
0.000930502
0.0011576
0.00111717
0.00107763
0.00103909
0.00100166
0.000965474
0.00103674
0.00100182
0.000979779
0.000942748
0.00116746
0.00112739
0.00108823
0.00105007
0.00101305
0.000977281
0.00104774
0.0010132
0.0009955
0.000959076
0.00118069
0.00114108
0.0011024
0.00106476
0.00102826
0.000993042
0.00106246
0.00102841
0.00119716
0.00115811
0.00112003
0.00108299
0.00104714
0.00101257
0.00108074
0.00104728
0.00121675
0.00117835
0.00114094
0.00110461
0.00106947
0.00103566
0.00110239
0.00106962
0.0012393
0.00120163
0.00116496
0.0011294
0.00109507
0.00106206
0.00126467
0.00122777
0.00119191
0.00115718
0.00112369
0.00109155
0.00129267
0.0012566
0.00122158
0.00118772
0.00115512
0.00112388
0.000919022
0.000957131
0.000922667
0.000960631
0.000930666
0.000968317
0.00094291
0.000980091
0.000959236
0.000995807
0.000979439
0.00101528
0.00100329
0.00103831
0.00103052
0.00106089
0.00109413
0.0010357
0.00100849
0.00106592
0.0010395
0.001099
0.0010734
0.00112724
0.00109521
0.00115507
0.00112383
0.00118566
0.00115525
0.00106465
0.00109407
0.00112633
0.00104593
0.00101899
0.000993947
0.00107208
0.00104582
0.00102143
0.0011013
0.00107576
0.00105206
0.00113335
0.00110855
0.00108557
0.00109796
0.00106505
0.00111565
0.00108328
0.00113665
0.00110488
0.00116076
0.00112968
0.0011878
0.00115744
0.00121758
0.00118798
0.00105237
0.0010746
0.00110008
0.00112857
0.00115987
0.00100375
0.000975654
0.000949463
0.00102308
0.000995525
0.00096987
0.0010336
0.000970928
0.000999048
0.00103034
0.00106453
0.000946267
)
;


// ************************************************************************* //
