/*--------------------------------*- C++ -*----------------------------------*\
  =========                 |
  \\      /  F ield         | OpenFOAM: The Open Source CFD Toolbox
   \\    /   O peration     | Website:  https://openfoam.org
    \\  /    A nd           | Version:  9
     \\/     M anipulation  |
\*---------------------------------------------------------------------------*/
FoamFile
{
    format      ascii;
    class       volVectorField;
    location    "0.0001";
    object      rhoU;
}
// * * * * * * * * * * * * * * * * * * * * * * * * * * * * * * * * * * * * * //

dimensions      [1 -2 -1 0 0 0 0];

internalField   nonuniform List<vector> 
18069
(
(0 0 0)
(-6.57402e-75 0 0)
(4.82046e-78 0 0)
(8.93272e-88 0 0)
(1.66601e-87 0 0)
(9.32874e-88 0 0)
(8.30935e-88 0 0)
(2.28835e-87 0 0)
(1.10969e-74 0 0)
(3.04315e-72 0 0)
(2.75209e-61 0 0)
(0 0 0)
(0 0 0)
(0 0 0)
(-2.90052e-62 0 0)
(-2.05529e-56 0 0)
(-1.04873e-51 0 0)
(-3.22394e-47 0 0)
(-3.46964e-45 0 0)
(-1.61426e-43 0 0)
(3.59274e-44 0 0)
(4.30756e-44 0 0)
(2.42625e-48 0 0)
(5.70436e-50 0 0)
(0 0 0)
(0 0 0)
(-7.94335e-72 0 0)
(4.96662e-75 0 0)
(1.55621e-84 0 0)
(3.12633e-84 0 0)
(1.73216e-84 0 0)
(1.5591e-84 0 0)
(4.1185e-84 0 0)
(1.59967e-71 0 0)
(3.31383e-69 0 0)
(3.23484e-58 0 0)
(0 0 0)
(0 0 0)
(0 0 0)
(-1.08943e-58 0 0)
(-3.86026e-53 0 0)
(-1.65235e-48 0 0)
(-4.35738e-44 0 0)
(-4.37284e-42 0 0)
(-1.78783e-40 0 0)
(3.42502e-41 0 0)
(5.3452e-41 0 0)
(6.99941e-45 0 0)
(8.26526e-47 0 0)
(0 0 0)
(0 0 0)
(-9.03338e-69 0 0)
(4.8226e-72 0 0)
(2.54115e-81 0 0)
(5.63872e-81 0 0)
(3.09752e-81 0 0)
(2.81168e-81 0 0)
(7.1671e-81 0 0)
(2.21148e-68 0 0)
(3.39591e-66 0 0)
(3.58348e-55 0 0)
(0 0 0)
(0 0 0)
(0 0 0)
(-3.69198e-55 0 0)
(-6.77276e-50 0 0)
(-2.44273e-45 0 0)
(-5.51294e-41 0 0)
(-5.08762e-39 0 0)
(-1.83153e-37 0 0)
(3.00899e-38 0 0)
(6.32747e-38 0 0)
(1.14649e-41 0 0)
(1.24621e-43 0 0)
(0 0 0)
(0 0 0)
(-9.63989e-66 0 0)
(4.39637e-69 0 0)
(3.90463e-78 0 0)
(3.90804e-78 0 4.54747e-15)
(2.13233e-78 0 -4.54747e-15)
(1.94842e-78 0 4.54747e-15)
(4.8227e-78 0 4.54747e-15)
(1.17206e-65 0 4.54747e-15)
(3.26368e-63 0 0)
(3.73061e-52 0 0)
(0 0 0)
(0 0 0)
(0 0 0)
(-1.1249e-51 0 0)
(-1.10434e-46 0 0)
(-1.34896e-42 0 4.54747e-15)
(-6.53051e-38 0 0)
(-5.4442e-36 0 0)
(-7.03088e-35 0 4.54747e-15)
(1.1776e-35 0 -4.54747e-15)
(7.13264e-35 0 0)
(1.61772e-38 0 0)
(1.85558e-40 0 0)
(0 0 0)
(0 0 0)
(-9.62007e-63 0 0)
(3.75039e-66 0 0)
(2.33334e-75 0 -4.54747e-15)
(2.45739e-75 0 0)
(3.23719e-75 0 -4.54747e-15)
(1.22509e-75 0 0)
(2.56318e-75 0 0)
(4.73821e-63 0 0)
(2.93011e-60 0 0)
(3.63814e-49 0 0)
(0 0 0)
(0 0 0)
(0 0 0)
(-3.07116e-48 0 0)
(-1.66473e-43 0 0)
(-6.90536e-40 0 0)
(-2.90261e-35 0 -4.54747e-15)
(-2.13896e-33 0 -4.54747e-15)
(-2.4711e-32 0 0)
(9.94019e-33 0 -4.54747e-15)
(3.05179e-32 0 -4.54747e-15)
(2.10154e-35 0 0)
(2.66908e-37 0 0)
(0 0 0)
(0 0 0)
(-8.94211e-60 0 0)
(2.98278e-63 0 0)
(1.3735e-72 0 4.54747e-15)
(1.49023e-72 0 4.54747e-15)
(1.90911e-72 0 0)
(7.42861e-73 0 4.54747e-15)
(3.27381e-72 0 0)
(4.45422e-60 0 0)
(2.44632e-57 0 0)
(3.31139e-46 0 0)
(0 0 0)
(0 0 0)
(0 0 0)
(-7.48598e-45 0 0)
(-2.30748e-40 0 0)
(-8.12474e-37 0 0)
(-1.20844e-32 0 4.54747e-15)
(-7.68881e-31 0 4.54747e-15)
(-7.95447e-30 0 4.54747e-15)
(3.37823e-30 0 0)
(1.2265e-29 0 4.51937e-15)
(2.54416e-32 0 0)
(3.6454e-34 0 0)
(0 0 0)
(0 0 0)
(-7.70597e-57 0 0)
(2.20241e-60 0 0)
(8.72138e-70 0 -4.54747e-15)
(6.5925e-70 0 0)
(1.08984e-69 0 -4.54747e-15)
(3.28776e-70 0 0)
(4.04428e-69 0 0)
(3.88447e-57 0 0)
(1.88917e-54 0 0)
(2.80123e-43 0 0)
(0 0 0)
(0 0 0)
(0 0 0)
(-1.62225e-41 0 0)
(-2.92453e-37 0 0)
(-8.73634e-34 0 0)
(-4.70456e-30 0 -4.54747e-15)
(-2.53495e-28 0 -4.54747e-15)
(-2.36311e-27 0 0)
(1.0945e-27 0 -4.54747e-15)
(4.5722e-27 0 -4.54747e-15)
(2.85914e-29 0 0)
(4.6423e-31 0 0)
(0 0 0)
(0 0 0)
(-6.12233e-54 0 0)
(1.50256e-57 0 0)
(1.0632e-66 0 -4.54747e-15)
(6.76957e-67 0 0)
(4.28667e-67 0 0)
(3.3785e-67 0 0)
(4.85735e-66 0 0)
(3.12471e-54 0 0)
(1.34086e-51 0 0)
(8.78477e-41 0 -4.54747e-15)
(0 0 0)
(0 0 0)
(0 0 0)
(-3.11e-38 0 0)
(-3.36995e-34 0 0)
(-8.52545e-31 0 0)
(-1.70677e-27 0 0)
(-1.93497e-25 0 -4.54747e-15)
(-1.6071e-24 0 0)
(3.50108e-25 0 0)
(3.88487e-24 0 -4.54747e-15)
(2.94516e-26 0 0)
(5.40919e-28 0 0)
(0 0 0)
(0 0 0)
(-4.45414e-51 0 0)
(9.42023e-55 0 0)
(9.46557e-64 0 -4.54747e-15)
(6.42754e-64 0 0)
(3.87093e-64 0 0)
(3.21153e-64 0 0)
(5.69712e-63 0 0)
(2.30213e-51 0 0)
(8.67941e-49 0 0)
(2.5345e-38 0 0)
(0 0 0)
(0 0 0)
(0 0 0)
(-5.24493e-35 0 0)
(-3.51104e-31 0 0)
(-7.50607e-28 0 0)
(-1.43382e-24 0 0)
(-1.40567e-22 0 -4.54747e-15)
(-1.05579e-21 0 0)
(2.39692e-22 0 0)
(2.96314e-21 0 -4.54747e-15)
(2.7231e-23 0 0)
(5.65841e-25 0 0)
(0 0 0)
(0 0 0)
(-2.94239e-48 0 0)
(5.3942e-52 0 0)
(3.0659e-61 0 0)
(5.60073e-61 0 0)
(3.19059e-61 0 0)
(2.80367e-61 0 0)
(6.53946e-60 0 0)
(1.53944e-48 0 0)
(5.07479e-46 0 0)
(1.66664e-35 0 0)
(0 0 0)
(0 0 0)
(0 0 0)
(-7.73644e-32 0 0)
(-3.29203e-28 0 0)
(-5.94518e-25 0 0)
(-1.11447e-21 0 0)
(-4.03265e-20 0 0)
(-6.86788e-19 0 0)
(1.70389e-19 0 0)
(8.00331e-19 0 0)
(2.19594e-20 0 0)
(5.21094e-22 0 0)
(0 0 0)
(0 0 0)
(-1.74591e-45 0 0)
(2.80207e-49 0 0)
(2.22891e-58 0 0)
(4.43412e-58 0 0)
(2.37627e-58 0 0)
(2.22656e-58 0 0)
(2.93871e-57 0 4.54747e-15)
(9.23202e-46 0 0)
(2.64771e-43 0 0)
(9.93262e-33 0 0)
(0 0 4.54747e-15)
(0 0 0)
(0 0 4.54747e-15)
(-3.97845e-29 0 4.54747e-15)
(-2.77182e-25 0 0)
(-4.25396e-22 0 0)
(-3.21884e-19 0 -4.54747e-15)
(-2.90233e-17 0 0)
(-4.54763e-16 -1.19827e-14 0)
(1.42545e-16 -9.31201e-14 1.9673e-16)
(4.71859e-16 -7.14717e-15 0)
(1.49749e-17 0 0)
(1.65723e-19 0 2.27374e-15)
(0 0 0)
(0 0 0)
(-9.17193e-43 0 0)
(1.31088e-46 0 0)
(1.44492e-55 0 0)
(3.14461e-55 0 0)
(1.57745e-55 0 0)
(1.5874e-55 0 0)
(7.89184e-55 0 0)
(4.8824e-43 0 0)
(1.21309e-40 0 0)
(2.13151e-30 0 -4.54747e-15)
(0 0 0)
(0 0 4.54747e-15)
(0 0 0)
(-1.77989e-26 0 0)
(-2.10444e-22 0 0)
(-2.80308e-19 0 0)
(-1.30188e-16 0 0)
(-2.13293e-14 -8.43591e-14 1.12417e-16)
(-2.89507e-13 -4.01726e-12 1.36368e-14)
(1.09692e-13 -2.89297e-11 1.22956e-13)
(2.47713e-13 -1.56732e-12 1.14272e-14)
(8.49409e-15 -2.29302e-14 0)
(4.43529e-17 0 0)
(0 0 0)
(0 0 0)
(-4.18057e-40 0 0)
(5.48358e-44 0 0)
(8.29929e-53 0 0)
(1.95465e-52 0 0)
(9.14893e-53 0 0)
(9.96065e-53 0 0)
(4.66308e-52 0 0)
(2.22017e-40 0 0)
(4.7746e-38 0 0)
(4.05866e-28 0 0)
(0 0 -4.54747e-15)
(0 0 0)
(0 0 -4.54747e-15)
(-1.74244e-23 0 0)
(-1.46695e-19 0 0)
(-1.7844e-16 0 0)
(-9.57985e-14 -1.29056e-13 2.55478e-15)
(-1.2018e-11 -3.48565e-11 9.67322e-14)
(-8.86587e-11 -1.03418e-09 2.5938e-12)
(5.84111e-11 -7.36581e-09 2.36116e-11)
(4.75348e-11 -2.57337e-10 1.81156e-12)
(2.1918e-12 -4.2989e-12 3.44144e-14)
(2.44007e-14 -2.95033e-14 2.81043e-17)
(0 0 0)
(0 0 0)
(-1.60385e-37 0 0)
(2.0391e-41 0 0)
(4.22928e-50 0 0)
(1.02592e-49 0 0)
(4.48582e-50 0 0)
(5.32484e-50 0 0)
(2.36611e-49 0 0)
(8.32077e-38 0 0)
(1.56359e-35 0 0)
(6.75335e-26 0 -4.54747e-15)
(0 0 0)
(0 0 4.54747e-15)
(0 0 0)
(-1.5295e-20 0 0)
(-9.81683e-17 0 0)
(-1.25949e-13 -8.53166e-14 2.81043e-16)
(-3.81924e-11 -3.56576e-11 1.38655e-13)
(-4.08574e-09 -7.27828e-09 9.89002e-12)
(-3.40818e-09 -9.77274e-09 -2.27504e-10)
(-1.24478e-08 -1.14946e-06 -4.02458e-08)
(1.22244e-08 -5.41538e-08 -1.07501e-09)
(5.99406e-10 -7.39071e-10 4.51819e-12)
(4.75601e-12 -3.97593e-12 4.39255e-14)
(3.07812e-14 -2.10145e-14 2.81043e-17)
(0 0 0)
(-4.92478e-35 0 0)
(6.72468e-39 0 0)
(1.95151e-47 0 0)
(4.21555e-47 0 0)
(1.74271e-47 0 0)
(2.2808e-47 0 0)
(9.6642e-47 0 0)
(2.36274e-35 0 0)
(4.04971e-33 0 0)
(2.39491e-23 0 -4.54747e-15)
(0 0 0)
(0 0 0)
(0 0 0)
(-1.25034e-17 0 0)
(-7.15577e-14 -1.72087e-14 8.43129e-17)
(-3.03608e-11 -1.04643e-11 9.44933e-14)
(-6.31852e-09 -3.10551e-09 1.05985e-11)
(-2.43141e-08 -2.27491e-08 -7.49276e-10)
(-2.75623e-06 -5.49449e-06 -3.48187e-07)
(-0.0397769 -0.676481 -0.0468344)
(0.00033456 -0.00134415 -7.02643e-05)
(1.82085e-07 -1.49884e-07 -5.32367e-09)
(6.02396e-10 -2.81627e-10 4.3375e-12)
(3.78581e-12 -1.3608e-12 2.98688e-14)
(0 0 0)
(-1.09735e-32 0 0)
(1.9821e-36 0 0)
(8.61584e-45 0 0)
(4.42886e-45 0 0)
(1.82167e-45 0 0)
(2.72954e-45 0 0)
(9.64332e-45 0 0)
(1.62576e-33 0 0)
(7.55899e-31 0 0)
(2.84401e-21 0 0)
(0 0 0)
(0 0 0)
(0 0 0)
(-9.76097e-15 -1.68531e-16 0)
(-3.56223e-12 -1.82333e-13 1.42582e-14)
(-9.26588e-10 -6.02511e-11 3.61789e-12)
(-8.49428e-09 -2.6512e-09 -1.39496e-10)
(-4.56961e-06 -2.05904e-06 -2.58184e-07)
(-289.801 -291.894 -74.7984)
(-3702.43 -16211.6 -5883.33)
(4189 -5036.65 -1352.95)
(0.00302558 -0.00125417 -0.000152932)
(4.56128e-08 -8.86442e-09 -8.03387e-10)
(1.62078e-10 -7.90032e-12 1.3972e-12)
(0 0 0)
(-5.53612e-31 -2.27374e-15 0)
(2.60707e-34 -2.27374e-15 0)
(1.57733e-42 -2.27374e-15 4.54747e-15)
(-3.49992e-45 -2.27374e-15 4.54747e-15)
(-1.73632e-45 -2.27374e-15 0)
(2.35913e-45 -2.27374e-15 0)
(-2.30625e-42 0 -2.27374e-15)
(-1.54171e-38 0 0)
(3.26799e-29 0 0)
(6.694e-19 0 0)
(0 0 0)
(0 0 0)
(0 0 0)
(-5.30831e-14 0 2.81043e-17)
(-1.78056e-11 2.72166e-14 7.2868e-14)
(-5.15168e-09 2.71897e-11 2.12402e-11)
(-1.0796e-06 -9.77711e-09 -2.04765e-08)
(-0.725013 -0.0448364 -0.0524352)
(-20008.6 -5592.26 -8292.14)
(-63513.4 -82324.9 -124269)
(56737.3 -19234.7 -36588.3)
(322.87 -89.6697 -84.7318)
(8.84567e-06 -1.31267e-07 -2.03342e-07)
(1.53068e-10 1.88766e-12 5.62181e-13)
(0 0 0)
(0 0 0)
(0 0 0)
(0 0 0)
(0 0 0)
(0 0 0)
(0 0 0)
(0 0 0)
(0 0 -7.91457e-15)
(0 2.27374e-15 -4.54747e-15)
(4.76654e-17 0 4.54747e-15)
(0 0 0)
(0 -2.27374e-15 -2.27374e-15)
(0 0 0)
(-1.69855e-14 3.91648e-15 0)
(-4.32423e-12 3.35204e-13 3.06436e-14)
(-3.78985e-10 4.43989e-11 2.80024e-12)
(-9.50406e-08 1.27535e-08 -1.55848e-09)
(-0.00332545 0.000513028 -0.000212368)
(-8171.35 6176.76 -3207.32)
(-42318.6 95904 -86948.4)
(29648.3 27531.6 -17435.5)
(15.1664 4.90193 -1.7846)
(3.30057e-08 1.72723e-08 -1.51599e-09)
(1.54145e-12 1.12649e-12 -8.09404e-15)
(0 0 2.27374e-15)
(0 0 4.54747e-15)
(0 0 0)
(0 0 0)
(0 0 0)
(0 0 0)
(0 0 0)
(0 0 0)
(4.18168e-15 -4.54747e-15 -4.54747e-15)
(0 0 0)
(2.27374e-15 3.28677e-15 0)
(0 0 0)
(0 0 0)
(0 0 -4.54747e-15)
(0 0 0)
(-1.12887e-14 1.23337e-14 0)
(-3.77812e-12 4.09668e-12 2.92264e-14)
(-2.12331e-10 2.50615e-10 6.41413e-13)
(-2.34e-07 2.52152e-07 -5.58672e-09)
(-0.0252436 0.0362019 -0.00321886)
(4.57109e-15 0 9.09495e-15)
(0 0 2.27374e-15)
(0 0 0)
(0 0 0)
(0 0 0)
(0 0 0)
(0 0 0)
(0 0 0)
(0 0 0)
(0 6.73419e-15 0)
(0 0 0)
(0 0 4.54747e-15)
(-3.42488e-17 0 0)
(-1.08721e-14 5.11446e-14 4.54747e-15)
(-7.5021e-12 1.21924e-11 -7.92307e-14)
(-2.47052e-12 5.76819e-11 -3.59763e-12)
(4.54747e-15 0 -8.25182e-15)
(0 0 2.27374e-15)
(0 0 0)
(0 0 1.55012e-14)
(0 0 0)
(0 0 4.54747e-15)
(0 0 0)
(0 0 0)
(4.54747e-15 0 0)
(0 1.12795e-16 0)
(0 4.54747e-15 -4.54747e-15)
(0 4.54747e-15 -4.54747e-15)
(0 4.54747e-15 -4.54747e-15)
(0 9.09495e-15 0)
(0 2.22606e-15 0)
(0 0 2.27374e-15)
(0 0 0)
(0 6.53915e-15 9.09495e-15)
(0 4.54747e-15 0)
(0 4.54747e-15 0)
(0 4.54747e-15 0)
(0 4.54747e-15 -4.54747e-15)
(0 4.54747e-15 -4.54747e-15)
(0 0 0)
(0 0 0)
(0 0 0)
(0 0 0)
(4.54747e-15 0 0)
(2.27374e-15 2.22607e-15 0)
(0 2.27374e-15 0)
(0 2.27374e-15 0)
(0 2.27374e-15 -2.27374e-15)
(0 2.27374e-15 0)
(0 0 0)
(0 0 0)
(0 2.27374e-15 0)
(0 2.27374e-15 -2.27374e-15)
(0 2.27374e-15 0)
(0 2.27374e-15 0)
(0 2.27374e-15 0)
(0 2.27374e-15 0)
(0 0 0)
(0 0 0)
(-2.27374e-15 -2.23785e-15 0)
(0 0 -4.54747e-15)
(0 -4.36203e-15 4.54747e-15)
(0 4.54747e-15 0)
(0 -6.82121e-15 0)
(0 0 0)
(0 4.54747e-15 0)
(0 4.54747e-15 1.26869e-14)
(0 4.54747e-15 0)
(2.22606e-15 2.27374e-15 0)
(0 0 0)
(0 0 0)
(0 0 0)
(0 0 0)
(0 0 0)
(0 0 0)
(0 0 0)
(0 0 0)
(0 0 0)
(0 0 0)
(0 0 0)
(0 0 0)
(0 0 0)
(0 0 0)
(0 0 0)
(0 0 0)
(0 -3.41061e-15 -2.27374e-15)
(0 0 0)
(0 2.27374e-15 0)
(0 0 0)
(0 -3.41061e-15 2.27374e-15)
(0 -2.27374e-15 0)
(0 0 -4.54747e-15)
(0 0 0)
(0 0 0)
(0 0 0)
(0 0 0)
(0 0 0)
(0 0 0)
(0 0 0)
(0 0 0)
(0 0 0)
(0 0 0)
(0 0 0)
(0 0 0)
(0 0 0)
(0 0 0)
(0 0 0)
(0 0 0)
(0 0 0)
(0 0 0)
(0 0 0)
(0 0 0)
(0 0 0)
(0 0 0)
(0 0 0)
(0 0 0)
(0 0 0)
(0 0 0)
(0 0 0)
(0 0 0)
(0 0 0)
(0 0 0)
(0 0 0)
(0 0 0)
(0 0 0)
(0 0 0)
(-2.63433e-72 0 0)
(1.87186e-75 0 0)
(6.413e-86 0 0)
(7.31524e-86 0 0)
(6.36699e-86 0 0)
(3.64203e-86 0 0)
(3.17695e-85 0 0)
(1.20824e-72 0 0)
(1.38651e-69 0 0)
(2.27151e-63 0 0)
(0 0 0)
(0 0 0)
(0 0 0)
(-2.91057e-65 0 0)
(-1.23714e-58 0 0)
(-4.07917e-54 0 0)
(-8.18514e-51 0 0)
(-3.51413e-48 0 0)
(-2.49374e-46 0 0)
(1.38872e-46 0 0)
(5.19949e-47 0 0)
(2.90418e-49 0 0)
(8.47261e-52 0 0)
(0 0 0)
(0 0 0)
(-3.16373e-69 0 0)
(1.92788e-72 0 0)
(9.42268e-83 0 0)
(1.09724e-82 0 0)
(9.35048e-83 0 0)
(5.46204e-83 0 0)
(4.66088e-82 0 0)
(1.46254e-69 0 0)
(1.47888e-66 0 0)
(2.42823e-60 0 0)
(0 0 0)
(0 0 0)
(0 0 0)
(-1.03421e-61 0 0)
(-2.8008e-55 0 0)
(-6.8668e-51 0 0)
(-1.26243e-47 0 0)
(-5.03423e-45 0 0)
(-3.1057e-43 0 0)
(1.59109e-43 0 0)
(7.11005e-44 0 0)
(3.76762e-46 0 0)
(1.13804e-48 0 0)
(0 0 0)
(0 0 0)
(-3.57811e-66 0 0)
(1.87225e-69 0 0)
(1.30809e-79 0 0)
(1.55909e-79 0 0)
(1.2977e-79 0 0)
(7.75997e-80 0 0)
(6.46073e-79 0 0)
(1.66853e-66 0 0)
(1.48643e-63 0 0)
(2.44646e-57 0 0)
(0 0 0)
(0 0 0)
(0 0 0)
(-3.3346e-58 0 0)
(-6.22536e-52 0 0)
(-1.11745e-47 0 0)
(-1.84911e-44 0 0)
(-6.91201e-42 0 0)
(-3.73332e-40 0 0)
(1.71499e-40 0 0)
(9.20771e-41 0 0)
(4.8741e-43 0 0)
(1.45458e-45 0 0)
(0 0 0)
(0 0 0)
(-3.80008e-63 0 0)
(1.70788e-66 0 0)
(1.71083e-76 0 0)
(2.0939e-76 0 0)
(1.69745e-76 0 0)
(1.04204e-76 0 0)
(8.44229e-76 0 0)
(1.7891e-63 0 0)
(1.40308e-60 0 0)
(2.31646e-54 0 0)
(0 0 0)
(0 0 0)
(0 0 0)
(-9.76649e-55 0 0)
(-1.35159e-48 0 0)
(-1.75382e-44 0 0)
(-2.56694e-41 0 0)
(-9.00518e-39 0 0)
(-4.29749e-37 0 0)
(1.72608e-37 0 0)
(1.12536e-37 0 0)
(6.14226e-40 0 0)
(1.77204e-42 0 0)
(0 0 0)
(0 0 0)
(-3.77752e-60 0 0)
(1.45853e-63 0 0)
(2.10089e-73 0 0)
(2.65112e-73 0 0)
(2.08624e-73 0 0)
(1.31919e-73 0 0)
(1.03625e-72 0 0)
(1.79744e-60 0 0)
(1.23918e-57 0 0)
(2.0547e-51 0 0)
(0 0 0)
(0 0 0)
(0 0 0)
(-2.606e-51 0 0)
(-2.82557e-45 0 0)
(-2.64301e-41 0 0)
(-3.37049e-38 0 0)
(-1.10144e-35 0 0)
(-4.68394e-34 0 0)
(1.61033e-34 0 0)
(1.29476e-34 0 0)
(7.50803e-37 0 0)
(2.06501e-39 0 0)
(0 0 0)
(0 0 0)
(-3.50167e-57 0 0)
(1.16168e-60 0 0)
(2.41254e-70 0 0)
(3.15499e-70 0 0)
(2.40061e-70 0 0)
(1.56977e-70 0 0)
(1.19044e-69 0 0)
(1.68592e-57 0 0)
(1.0196e-54 0 0)
(1.70105e-48 0 0)
(0 0 0)
(0 0 0)
(0 0 0)
(-6.38975e-48 0 0)
(-5.57702e-42 0 0)
(-3.79461e-38 0 0)
(-4.17306e-35 0 0)
(-1.25012e-32 0 0)
(-4.76406e-31 0 0)
(1.38279e-31 0 0)
(1.40008e-31 0 0)
(8.88768e-34 0 0)
(2.31481e-36 0 0)
(0 0 0)
(0 0 0)
(-3.01382e-54 0 0)
(8.59152e-58 0 0)
(2.57837e-67 0 0)
(3.51693e-67 0 0)
(2.57548e-67 0 0)
(1.74977e-67 0 0)
(1.27471e-66 0 0)
(1.47016e-54 0 0)
(7.77601e-52 0 0)
(1.30889e-45 0 0)
(0 0 0)
(0 0 0)
(0 0 0)
(-1.4689e-44 0 0)
(-1.01815e-38 0 0)
(-5.13012e-35 0 0)
(-4.8437e-32 0 0)
(-1.30047e-29 0 0)
(-4.44403e-28 0 0)
(1.08521e-28 0 0)
(1.41998e-28 0 0)
(1.01444e-30 0 0)
(2.51924e-33 0 0)
(0 0 0)
(0 0 0)
(-2.39615e-51 0 0)
(5.87031e-55 0 0)
(2.55005e-64 0 0)
(3.65731e-64 0 0)
(2.5635e-64 0 0)
(1.81968e-64 0 0)
(1.26576e-63 0 0)
(1.18601e-51 0 0)
(5.46379e-49 0 0)
(9.31544e-43 0 0)
(0 0 0)
(0 0 0)
(0 0 0)
(-3.27675e-41 0 0)
(-1.68714e-35 0 0)
(-6.43389e-32 0 0)
(-5.21718e-29 0 0)
(-1.22525e-26 0 0)
(-3.7278e-25 0 0)
(7.72826e-26 0 0)
(1.34307e-25 0 0)
(1.10659e-27 0 0)
(2.70383e-30 0 0)
(0 0 0)
(0 0 0)
(-1.74906e-48 0 0)
(3.68381e-52 0 0)
(2.31824e-61 0 0)
(3.53083e-61 0 0)
(2.35337e-61 0 0)
(1.75706e-61 0 0)
(1.15899e-60 0 0)
(8.79861e-49 0 0)
(3.51124e-46 0 0)
(6.09744e-40 0 0)
(0 0 0)
(0 0 0)
(0 0 0)
(-7.34308e-38 0 0)
(-2.49565e-32 0 0)
(-7.35623e-29 0 0)
(-5.13449e-26 0 0)
(-1.03647e-23 0 0)
(-2.75174e-22 0 0)
(4.96956e-23 0 0)
(1.16894e-22 0 0)
(1.1363e-24 0 0)
(2.92216e-27 0 0)
(0 0 0)
(0 0 0)
(-1.16338e-45 0 0)
(2.10854e-49 0 0)
(1.92172e-58 0 0)
(3.14558e-58 0 0)
(1.97845e-58 0 0)
(1.56598e-58 0 0)
(9.71754e-58 0 0)
(5.95811e-46 0 0)
(2.04518e-43 0 0)
(3.64608e-37 0 0)
(0 0 0)
(0 0 0)
(0 0 0)
(-1.65567e-34 0 0)
(-3.24594e-29 0 0)
(-7.52317e-26 0 0)
(-4.52454e-23 0 0)
(-7.86537e-21 0 0)
(-1.7478e-19 0 0)
(2.89839e-20 0 0)
(9.13909e-20 0 0)
(1.07227e-21 0 0)
(3.20968e-24 0 0)
(0 0 0)
(0 0 0)
(-6.98422e-43 0 0)
(1.09199e-46 0 0)
(1.43872e-55 0 0)
(2.56621e-55 0 0)
(1.50967e-55 0 0)
(1.2786e-55 0 0)
(7.39901e-55 0 0)
(3.64757e-43 0 0)
(1.06741e-40 0 0)
(1.97584e-34 0 0)
(0 0 0)
(0 0 0)
(0 0 0)
(-3.58992e-31 0 0)
(-3.65873e-26 0 0)
(-6.74342e-23 0 0)
(-3.49031e-20 0 0)
(-5.39162e-18 0 0)
(-9.56543e-17 -2.302e-15 0)
(1.89668e-17 -9.31811e-15 3.37252e-16)
(6.20012e-17 -3.93233e-16 0)
(8.97065e-19 0 0)
(3.46619e-21 0 0)
(0 0 0)
(0 0 0)
(-3.7372e-40 0 0)
(5.06934e-44 0 0)
(9.61566e-53 0 0)
(1.89722e-52 0 0)
(1.03378e-52 0 0)
(9.46784e-53 0 0)
(5.06759e-52 0 0)
(1.99262e-40 0 0)
(4.9175e-38 0 0)
(9.60902e-32 0 0)
(0 0 0)
(0 0 0)
(0 0 0)
(-7.01654e-28 0 0)
(-3.52284e-23 0 0)
(-5.1874e-20 0 0)
(-2.31091e-17 0 0)
(-3.29024e-15 -1.20658e-14 6.18295e-16)
(-4.51228e-14 -6.35816e-13 5.06844e-14)
(1.18818e-14 -2.77565e-12 2.54133e-13)
(3.52242e-14 -2.57972e-13 2.60888e-14)
(6.32128e-16 -2.75178e-15 8.43129e-17)
(3.36781e-18 0 0)
(0 0 0)
(0 0 0)
(-1.75158e-37 0 0)
(2.08756e-41 0 0)
(5.65586e-50 0 0)
(1.25162e-49 0 0)
(6.25539e-50 0 0)
(6.26547e-50 0 0)
(3.09081e-49 0 0)
(9.52895e-38 0 0)
(1.95905e-35 0 0)
(4.14317e-29 0 0)
(0 0 0)
(0 0 0)
(0 0 0)
(-1.16907e-24 0 0)
(-2.85654e-20 0 0)
(-3.35933e-17 0 0)
(-1.31097e-14 -1.86229e-14 1.57384e-15)
(-1.09068e-12 -2.59312e-12 3.2847e-13)
(-1.26375e-11 -1.38996e-10 1.55387e-11)
(5.96678e-12 -8.4995e-10 8.72096e-11)
(9.4347e-12 -4.57646e-11 7.19327e-12)
(3.48791e-13 -6.72378e-13 9.2557e-14)
(2.63181e-15 -3.20107e-15 2.81043e-16)
(0 0 0)
(0 0 0)
(-7.00542e-35 0 0)
(7.54341e-39 0 0)
(2.87759e-47 0 0)
(7.17838e-47 0 0)
(3.26695e-47 0 0)
(3.61683e-47 0 0)
(1.66552e-46 0 0)
(3.86518e-35 0 0)
(6.5501e-33 0 0)
(1.55953e-26 0 0)
(0 0 0)
(0 0 0)
(0 0 0)
(-1.59976e-21 0 0)
(-1.92588e-17 0 0)
(-1.83065e-14 -1.24923e-14 1.46142e-15)
(-2.91974e-12 -2.69707e-12 4.92599e-13)
(-3.67047e-10 -5.15912e-10 1.04265e-10)
(-1.10872e-09 -3.55003e-09 5.60604e-10)
(-5.28863e-09 -3.71361e-07 4.90169e-08)
(1.72393e-09 -4.93346e-09 9.41071e-10)
(7.59333e-11 -9.93621e-11 2.1159e-11)
(7.47357e-13 -6.35971e-13 1.19582e-13)
(3.42872e-15 -2.07821e-15 2.24834e-16)
(0 0 0)
(-2.2891e-32 0 0)
(2.37056e-36 0 0)
(1.24394e-44 0 0)
(3.39031e-44 0 0)
(1.40679e-44 0 0)
(1.73499e-44 0 0)
(7.95092e-44 0 0)
(1.24919e-32 0 0)
(1.75331e-30 0 0)
(5.02194e-24 0 0)
(0 0 0)
(0 0 0)
(0 0 0)
(-1.78165e-18 0 0)
(-1.06859e-14 -2.18974e-15 5.05877e-16)
(-2.30429e-12 -8.09762e-13 2.7388e-13)
(-4.30208e-10 -2.47167e-10 8.26049e-11)
(-5.09731e-09 -4.34138e-09 1.48985e-09)
(-2.40414e-06 -5.09894e-06 1.3957e-06)
(-0.0128433 -0.228096 0.0434177)
(6.57841e-05 -0.000262914 3.68489e-05)
(1.06946e-08 -9.26591e-09 2.6552e-09)
(1.01676e-10 -4.49314e-11 1.72011e-11)
(6.53151e-13 -2.40366e-13 7.51869e-14)
(0 0 0)
(-5.60671e-30 0 0)
(6.49427e-34 0 0)
(4.5653e-42 0 0)
(4.49554e-42 0 0)
(1.74368e-42 0 0)
(2.42218e-42 0 0)
(1.39473e-41 0 0)
(1.08379e-30 0 0)
(3.45689e-28 0 0)
(1.34506e-21 0 0)
(0 0 0)
(0 0 0)
(0 0 0)
(-1.62299e-15 0 0)
(-4.79157e-13 -3.96436e-14 3.51975e-14)
(-9.16573e-11 -9.93522e-12 1.05749e-11)
(-2.72557e-09 -6.58655e-10 3.95708e-10)
(-3.30537e-06 -1.21375e-06 8.24979e-07)
(-55.7929 -52.0711 31.1015)
(-2531.75 -11443.7 6634.12)
(2099.88 -2538.21 1620.08)
(0.000588507 -0.000263636 9.24978e-05)
(4.25025e-09 -8.5601e-10 6.70203e-10)
(3.09634e-11 -1.35312e-12 3.71174e-12)
(0 0 0)
(-3.28193e-28 -2.27374e-15 0)
(7.75336e-32 -2.27374e-15 5.69906e-19)
(6.25377e-40 -2.27374e-15 5.69795e-19)
(-1.36679e-42 -2.27374e-15 1.93923e-18)
(-1.82491e-42 -2.27374e-15 1.28259e-18)
(-9.0875e-42 -2.27374e-15 6.36152e-19)
(-9.00298e-40 0 7.4918e-19)
(2.58273e-34 0 4.41991e-17)
(1.69068e-26 0 0)
(2.89096e-19 0 0)
(0 0 0)
(0 0 0)
(0 0 0)
(-1.18055e-14 0 2.52939e-16)
(-3.09253e-12 2.40898e-15 1.78191e-13)
(-8.0061e-10 2.55902e-12 5.85633e-11)
(-2.98773e-07 -5.46422e-09 2.68624e-08)
(-0.154771 -0.0139841 0.024281)
(-14284.4 -4900.45 8566.2)
(-31879.2 -49022.5 60361.2)
(44434.5 -16881.3 34763.2)
(134.644 -36.0254 61.7938)
(4.41287e-07 -1.11684e-08 6.46939e-08)
(8.35276e-12 2.10929e-13 6.63731e-13)
(0 0 0)
(0 0 0)
(0 0 0)
(0 0 1.64719e-16)
(0 0 0)
(0 0 0)
(0 0 0)
(0 0 0)
(0 0 -9.09495e-15)
(0 2.27374e-15 0)
(4.66233e-17 0 0)
(0 0 -8.71844e-20)
(0 -2.27374e-15 4.25323e-18)
(0 0 2.20908e-17)
(-2.68714e-15 3.41061e-15 0)
(-9.23486e-13 8.45753e-14 5.92014e-14)
(-7.86536e-11 1.19519e-11 7.28821e-12)
(-1.0031e-08 2.26412e-09 1.24508e-09)
(-0.00100984 0.00021955 0.000134183)
(-4459.11 3384.5 2764.47)
(-25898.5 63390.9 51698.4)
(15243.8 13635.9 11444.8)
(3.78116 1.12313 0.870738)
(2.11113e-08 1.40475e-08 2.77582e-09)
(3.36541e-13 1.45247e-13 2.26942e-14)
(0 0 -2.21059e-17)
(0 0 4.35943e-15)
(0 0 0)
(0 0 0)
(0 0 0)
(0 0 0)
(0 0 0)
(0 0 0)
(4.18168e-15 -4.54747e-15 -3.97861e-15)
(0 0 0)
(2.27374e-15 3.28677e-15 1.09454e-20)
(0 0 0)
(0 0 0)
(0 0 -4.54747e-15)
(0 0 0)
(-5.70636e-15 4.3786e-15 2.81043e-16)
(-4.78341e-13 5.2691e-13 5.12626e-14)
(-6.89999e-11 8.48695e-11 1.24185e-11)
(-2.79563e-08 2.52e-08 4.92e-09)
(-0.00186069 0.00329219 0.000695706)
(4.55579e-15 0 8.68633e-15)
(0 0 2.11065e-20)
(0 0 0)
(0 0 0)
(0 0 0)
(0 0 0)
(0 0 0)
(0 0 -1.85113e-17)
(0 0 0)
(0 6.73419e-15 -4.16322e-18)
(0 0 0)
(0 0 4.20511e-15)
(-6.17369e-18 0 3.09687e-17)
(-1.91162e-15 8.54371e-15 4.82544e-15)
(-4.28301e-13 7.63264e-13 1.12384e-13)
(-8.56391e-13 5.84745e-12 7.92634e-13)
(4.54747e-15 0 -8.8109e-15)
(0 0 8.71305e-19)
(0 0 0)
(0 0 1.7403e-14)
(0 0 0)
(0 0 4.35943e-15)
(0 0 1.74689e-16)
(0 0 0)
(4.54747e-15 0 0)
(0 0 0)
(0 4.54747e-15 -4.40545e-15)
(0 4.54747e-15 -4.40545e-15)
(0 4.54747e-15 -4.40545e-15)
(0 9.09495e-15 0)
(0 2.22606e-15 -4.07845e-32)
(0 0 -2.61238e-19)
(0 0 0)
(0 6.53915e-15 8.26692e-15)
(0 4.54747e-15 0)
(0 4.54747e-15 0)
(0 4.54747e-15 0)
(0 4.54747e-15 -4.40545e-15)
(0 4.54747e-15 -4.40545e-15)
(0 0 0)
(0 0 0)
(0 0 0)
(0 0 0)
(4.54747e-15 0 0)
(2.27374e-15 2.22607e-15 0)
(0 2.27374e-15 0)
(0 2.27374e-15 0)
(0 2.27374e-15 0)
(0 2.27374e-15 -6.0835e-32)
(0 0 0)
(0 0 0)
(0 2.27374e-15 2.44408e-31)
(0 2.27374e-15 2.51117e-21)
(0 2.27374e-15 0)
(0 2.27374e-15 0)
(0 2.27374e-15 0)
(0 2.27374e-15 0)
(0 0 0)
(0 0 0)
(-2.27374e-15 -2.23785e-15 2.20001e-17)
(0 0 -4.54747e-15)
(0 -4.35986e-15 4.24185e-15)
(0 4.54747e-15 0)
(0 -6.82121e-15 0)
(0 0 0)
(0 4.54747e-15 0)
(0 4.54747e-15 1.32702e-14)
(0 4.54747e-15 9.46812e-17)
(2.22606e-15 2.27374e-15 0)
(0 0 0)
(0 0 0)
(0 0 0)
(0 0 0)
(0 0 0)
(0 0 0)
(0 0 0)
(0 0 0)
(0 0 0)
(0 0 0)
(0 0 0)
(0 0 0)
(0 0 0)
(0 0 0)
(0 0 0)
(0 0 0)
(0 -3.41061e-15 0)
(0 0 -6.65556e-19)
(0 2.27374e-15 -6.63793e-19)
(0 0 0)
(0 -3.41061e-15 0)
(0 -2.27374e-15 0)
(0 0 0)
(0 0 0)
(0 0 0)
(0 0 0)
(0 0 0)
(0 0 0)
(0 0 0)
(0 0 0)
(0 0 0)
(0 0 0)
(0 0 0)
(0 0 0)
(0 0 0)
(0 0 0)
(0 0 0)
(0 0 0)
(0 0 0)
(0 0 0)
(0 0 0)
(0 0 0)
(0 0 0)
(0 0 0)
(0 0 0)
(0 0 0)
(0 0 0)
(0 0 0)
(0 0 0)
(0 0 0)
(0 0 0)
(0 0 0)
(0 0 0)
(0 0 0)
(0 0 0)
(0 0 0)
(0 0 0)
(-8.39139e-70 0 0)
(5.88083e-73 0 0)
(2.90118e-83 0 0)
(3.03791e-83 0 0)
(2.89048e-83 0 0)
(1.51188e-83 0 0)
(1.44626e-82 0 0)
(3.70591e-70 0 0)
(4.50912e-67 0 0)
(-2.24043e-63 0 0)
(0 0 0)
(0 0 0)
(0 0 0)
(0 0 0)
(-7.53891e-64 0 0)
(-3.6865e-58 0 0)
(-4.3969e-54 0 0)
(-4.34854e-51 0 0)
(-5.1057e-49 0 0)
(3.35181e-49 0 0)
(6.58631e-50 0 0)
(3.95264e-52 0 0)
(1.08552e-54 0 0)
(0 0 0)
(0 0 0)
(-1.00047e-66 0 0)
(6.06605e-70 0 0)
(4.28916e-80 0 0)
(4.56484e-80 0 0)
(4.27196e-80 0 0)
(2.27131e-80 0 0)
(2.13631e-79 0 0)
(4.44543e-67 0 0)
(4.65276e-64 0 0)
(-2.39379e-60 0 0)
(0 0 0)
(0 0 0)
(0 0 0)
(0 0 0)
(-2.21955e-60 0 0)
(-7.86415e-55 0 0)
(-7.35533e-51 0 0)
(-6.71692e-48 0 0)
(-6.78171e-46 0 0)
(4.12367e-46 0 0)
(9.57836e-47 0 0)
(5.41447e-49 0 0)
(1.55954e-51 0 0)
(0 0 0)
(0 0 0)
(-1.12362e-63 0 0)
(5.90475e-67 0 0)
(6.00015e-77 0 0)
(6.50426e-77 0 0)
(5.97456e-77 0 0)
(3.23554e-77 0 0)
(2.98514e-76 0 0)
(5.02675e-64 0 0)
(4.53394e-61 0 0)
(-2.41054e-57 0 0)
(0 0 0)
(0 0 0)
(0 0 0)
(0 0 0)
(-6.09073e-57 0 0)
(-1.63345e-51 0 0)
(-1.18783e-47 0 0)
(-9.90471e-45 0 0)
(-8.7212e-43 0 0)
(4.79244e-43 0 0)
(1.35221e-43 0 0)
(7.16454e-46 0 0)
(2.11025e-48 0 0)
(0 0 0)
(0 0 0)
(-1.18543e-60 0 0)
(5.40347e-64 0 0)
(7.92161e-74 0 0)
(8.7694e-74 0 0)
(7.88696e-74 0 0)
(4.36123e-74 0 0)
(3.93841e-73 0 0)
(5.34404e-61 0 0)
(4.15598e-58 0 0)
(-2.28128e-54 0 0)
(0 0 0)
(0 0 0)
(0 0 0)
(0 0 0)
(-1.57311e-53 0 0)
(-3.29705e-48 0 0)
(-1.85178e-44 0 0)
(-1.391e-41 0 0)
(-1.08059e-39 0 0)
(5.2295e-40 0 0)
(1.84463e-40 0 0)
(9.18521e-43 0 0)
(2.6874e-45 0 0)
(0 0 0)
(0 0 0)
(-1.17116e-57 0 0)
(4.63329e-61 0 0)
(9.84003e-71 0 0)
(1.11605e-70 0 0)
(9.79851e-71 0 0)
(5.54887e-71 0 0)
(4.88978e-70 0 0)
(5.32569e-58 0 0)
(3.57095e-55 0 0)
(-2.02249e-51 0 0)
(0 0 0)
(0 0 0)
(0 0 0)
(0 0 0)
(-3.87666e-50 0 0)
(-6.40838e-45 0 0)
(-2.78337e-41 0 0)
(-1.85703e-38 0 0)
(-1.27932e-36 0 0)
(5.32607e-37 0 0)
(2.41294e-37 0 0)
(1.14401e-39 0 0)
(3.2211e-42 0 0)
(0 0 0)
(0 0 0)
(-1.0797e-54 0 0)
(3.70853e-58 0 0)
(1.14592e-67 0 0)
(1.33704e-67 0 0)
(1.14177e-67 0 0)
(6.64559e-68 0 0)
(5.69203e-67 0 0)
(4.95862e-55 0 0)
(2.86446e-52 0 0)
(-1.67359e-48 0 0)
(0 0 0)
(0 0 0)
(0 0 0)
(0 0 0)
(-9.24361e-47 0 0)
(-1.18181e-41 0 0)
(-4.01367e-38 0 0)
(-2.3511e-35 0 0)
(-1.42995e-33 0 0)
(5.03643e-34 0 0)
(2.99609e-34 0 0)
(1.38549e-36 0 0)
(3.64073e-39 0 0)
(0 0 0)
(0 0 0)
(-9.25086e-52 0 0)
(2.75867e-55 0 0)
(1.24582e-64 0 0)
(1.5031e-64 0 0)
(1.24288e-64 0 0)
(7.46843e-65 0 0)
(6.18761e-64 0 0)
(4.29719e-52 0 0)
(2.13496e-49 0 0)
(-1.28721e-45 0 0)
(0 0 0)
(0 0 0)
(0 0 0)
(0 0 0)
(-2.1474e-43 0 0)
(-2.032e-38 0 0)
(-5.49521e-35 0 0)
(-2.80852e-32 0 0)
(-1.4859e-30 0 0)
(4.40229e-31 0 0)
(3.49087e-31 0 0)
(1.63109e-33 0 0)
(3.90782e-36 0 0)
(0 0 0)
(0 0 0)
(-7.33212e-49 0 0)
(1.89732e-52 0 0)
(1.25808e-61 0 0)
(1.57997e-61 0 0)
(1.25797e-61 0 0)
(7.84742e-62 0 0)
(6.25004e-61 0 0)
(3.45125e-49 0 0)
(1.47023e-46 0 0)
(-9.15783e-43 0 0)
(0 0 0)
(0 0 0)
(0 0 0)
(0 0 0)
(-4.82713e-40 0 0)
(-3.20031e-35 0 0)
(-7.03047e-32 0 0)
(-3.13216e-29 0 0)
(-1.40948e-27 0 0)
(3.54086e-28 0 0)
(3.77062e-28 0 0)
(1.86948e-30 0 0)
(4.06042e-33 0 0)
(0 0 0)
(0 0 0)
(-5.34655e-46 0 0)
(1.19914e-49 0 0)
(1.17296e-58 0 0)
(1.5464e-58 0 0)
(1.17721e-58 0 0)
(7.67743e-59 0 0)
(5.83251e-58 0 0)
(2.55607e-46 0 0)
(9.29166e-44 0 0)
(-5.99275e-40 0 0)
(0 0 0)
(0 0 0)
(0 0 0)
(0 0 0)
(-1.02881e-36 0 0)
(-4.54075e-32 0 0)
(-8.23875e-29 0 0)
(-3.20221e-26 0 0)
(-1.19548e-24 0 0)
(2.60412e-25 0 0)
(3.72706e-25 0 0)
(2.10141e-27 0 0)
(4.25115e-30 0 0)
(0 0 0)
(0 0 0)
(-3.56363e-43 0 0)
(6.91362e-47 0 0)
(1.00215e-55 0 0)
(1.40254e-55 0 0)
(1.01164e-55 0 0)
(6.95974e-56 0 0)
(4.99156e-55 0 0)
(1.73558e-43 0 0)
(5.34469e-41 0 0)
(-3.58314e-37 0 0)
(0 0 0)
(0 0 0)
(0 0 0)
(0 0 0)
(-2.0236e-33 0 0)
(-5.71481e-29 0 0)
(-8.64923e-26 0 0)
(-2.92497e-23 0 0)
(-8.86102e-22 0 0)
(1.7349e-22 0 0)
(3.32055e-22 0 0)
(2.34064e-24 0 0)
(4.71402e-27 0 0)
(0 0 0)
(0 0 0)
(-2.15399e-40 0 0)
(3.60399e-44 0 0)
(7.77249e-53 0 0)
(1.1721e-52 0 0)
(7.91746e-53 0 0)
(5.81287e-53 0 0)
(3.88145e-52 0 0)
(1.07295e-40 0 0)
(2.76922e-38 0 0)
(-1.94192e-34 0 0)
(0 0 0)
(0 0 0)
(0 0 0)
(0 0 0)
(-3.57545e-30 0 0)
(-6.28718e-26 0 0)
(-7.95114e-23 0 0)
(-2.31768e-20 0 0)
(-5.60021e-19 0 0)
(1.03709e-19 0 0)
(2.61407e-19 0 0)
(2.56374e-21 0 0)
(5.5594e-24 0 0)
(0 0 0)
(0 0 0)
(-1.1689e-37 0 0)
(1.68025e-41 0 0)
(5.40506e-50 0 0)
(8.96573e-50 0 0)
(5.58648e-50 0 0)
(4.44325e-50 0 0)
(2.70989e-49 0 0)
(5.98812e-38 0 0)
(1.27506e-35 0 0)
(-9.44767e-32 0 0)
(0 0 0)
(0 0 0)
(0 0 0)
(0 0 0)
(-5.53498e-27 0 0)
(-5.96243e-23 0 0)
(-6.26463e-20 0 0)
(-1.55489e-17 0 0)
(-3.02144e-16 -7.39003e-15 2.01648e-15)
(6.70229e-17 -2.45732e-14 8.70124e-15)
(1.77012e-16 -2.1904e-15 4.49669e-16)
(2.60557e-18 0 0)
(6.44199e-21 0 0)
(0 0 0)
(0 0 0)
(-5.61939e-35 0 0)
(6.91281e-39 0 0)
(3.31327e-47 0 0)
(6.22824e-47 0 0)
(3.51136e-47 0 0)
(3.0838e-47 0 0)
(1.6722e-46 0 0)
(2.98477e-35 0 0)
(5.12229e-33 0 0)
(-4.07684e-29 0 0)
(0 0 0)
(0 0 0)
(0 0 0)
(0 0 0)
(-7.31924e-24 0 0)
(-4.81369e-20 0 0)
(-4.16804e-17 0 0)
(-8.8285e-15 -2.23169e-14 1.15967e-14)
(-1.39442e-13 -1.43717e-12 7.11631e-13)
(4.05107e-14 -6.09221e-12 3.12183e-12)
(9.96249e-14 -5.07746e-13 2.62434e-13)
(2.16297e-15 -5.11022e-15 2.24834e-15)
(6.5337e-18 0 0)
(0 0 0)
(0 0 0)
(-2.3476e-32 0 0)
(2.46925e-36 0 0)
(1.74595e-44 0 0)
(3.89321e-44 0 0)
(1.94127e-44 0 0)
(1.92529e-44 0 0)
(8.93229e-44 0 0)
(1.30978e-32 0 0)
(1.74785e-30 0 0)
(-1.53675e-26 0 0)
(0 0 0)
(0 0 0)
(0 0 0)
(0 0 0)
(-8.01538e-21 0 0)
(-3.28312e-17 0 0)
(-2.3513e-14 -2.19805e-14 1.6172e-14)
(-2.28079e-12 -3.69631e-12 2.67751e-12)
(-3.62916e-11 -3.04803e-10 2.51863e-10)
(1.68015e-11 -1.39831e-09 1.20062e-09)
(2.23202e-11 -7.40994e-11 5.49573e-11)
(6.50314e-13 -8.32504e-13 6.31488e-13)
(5.17718e-15 -3.9312e-15 2.81043e-15)
(0 0 0)
(0 0 0)
(-8.25922e-30 0 0)
(7.51827e-34 0 0)
(7.59742e-42 0 0)
(2.16691e-41 0 0)
(9.3724e-42 0 0)
(1.0697e-41 0 0)
(4.02392e-41 0 0)
(4.95586e-30 0 0)
(4.84893e-28 0 0)
(-4.96001e-24 0 0)
(0 0 0)
(0 0 0)
(0 0 0)
(0 0 0)
(-6.97256e-18 0 0)
(-1.90698e-14 -6.27328e-15 1.02008e-14)
(-3.54242e-12 -1.68101e-12 2.37469e-12)
(-5.92913e-10 -5.1435e-10 6.83833e-10)
(-2.43402e-09 -4.62455e-09 5.31065e-09)
(-7.4448e-09 -3.57877e-07 3.93916e-07)
(3.46683e-09 -7.60727e-09 8.08547e-09)
(9.75264e-11 -6.59686e-11 9.31921e-11)
(8.51219e-13 -3.76573e-13 5.48943e-13)
(3.70977e-15 -1.0673e-15 1.65815e-15)
(0 0 0)
(-2.29834e-27 0 0)
(1.93019e-31 0 0)
(2.5365e-39 0 0)
(4.26089e-39 0 0)
(1.62033e-39 0 0)
(2.0975e-39 0 0)
(1.49725e-38 0 0)
(6.28292e-28 0 0)
(1.01197e-25 0 0)
(-1.33385e-21 0 0)
(0 0 0)
(0 0 0)
(0 0 0)
(0 0 0)
(-4.53509e-15 0 1.40521e-15)
(-8.84402e-13 -1.10728e-13 4.57008e-13)
(-1.73294e-10 -2.34491e-11 1.36883e-10)
(-3.10601e-09 -1.28818e-09 2.99699e-09)
(-3.18586e-06 -2.84112e-06 7.77093e-06)
(-0.0118354 -0.056003 0.17118)
(7.43148e-05 -0.000107097 0.000264379)
(6.96296e-09 -2.38338e-09 6.34198e-09)
(4.10107e-11 -3.329e-12 2.7539e-11)
(2.2627e-13 -8.64694e-15 1.09852e-13)
(0 0 0)
(-1.69883e-25 -2.27374e-15 0)
(2.0687e-29 -2.27374e-15 5.69906e-19)
(2.1878e-37 -2.27374e-15 5.69796e-19)
(-9.8064e-40 -2.27374e-15 1.93923e-18)