/*--------------------------------*- C++ -*----------------------------------*\
  =========                 |
  \\      /  F ield         | OpenFOAM: The Open Source CFD Toolbox
   \\    /   O peration     | Website:  https://openfoam.org
    \\  /    A nd           | Version:  9
     \\/     M anipulation  |
\*---------------------------------------------------------------------------*/
FoamFile
{
    format      ascii;
    class       volVectorField;
    location    "0.0011";
    object      rhoU;
}
// * * * * * * * * * * * * * * * * * * * * * * * * * * * * * * * * * * * * * //

dimensions      [1 -2 -1 0 0 0 0];

internalField   nonuniform List<vector> 
9436
(
(-117.162 74.3644 921.329)
(-0.00369955 0.000996146 0.0253585)
(-79.4883 71.5728 967.429)
(-83.9238 129.849 847.786)
(-0.126468 0.397626 3.22683)
(-0.289087 0.29076 6.13577)
(-0.00312902 0.423534 3.56035)
(-1.99436 14.1669 83.9783)
(-0.488132 53.0026 978.452)
(0.000671679 0.00610953 0.264131)
(-0.408795 0.271298 5.13129)
(-0.00952704 0.0024844 0.0543262)
(-166.588 65.3073 716.063)
(-111.344 126.818 780.09)
(-0.180711 0.201484 1.47981)
(-3.0365 2.33179 12.4232)
(-0.0913179 0.0704131 0.467875)
(-128.537 35.4189 348.671)
(-0.000215672 3.10542e-05 0.000700828)
(-6.92029 1.46291 15.4421)
(-0.53414 0.327651 1.76583)
(-0.0334631 0.0187394 0.104094)
(-0.0161293 0.00999053 0.0623356)
(-6.48285e-05 1.82596e-05 0.000203904)
(-148.785 72.6383 841.016)
(-14.0173 9.09737 121.711)
(-115.955 103.059 865.626)
(-12.0196 10.9019 100.246)
(-142.079 98.4515 774.83)
(-14.612 7.15833 91.8012)
(-11.8528 8.29125 73.77)
(-10.2328 9.71245 142.759)
(-83.3558 101.919 921.15)
(-9.81012 12.4071 121.867)
(-43.1644 64.9628 985.57)
(-49.627 96.8706 950.451)
(-5.28946 8.99763 152.976)
(-5.99166 12.5034 135.091)
(-19.137 56.7382 984.558)
(-2.2159 84.585 955.377)
(-22.4998 88.991 958.64)
(0.305104 7.1313 152.884)
(-2.10821 7.76699 154.737)
(-2.47369 11.673 140.05)
(-0.0815882 10.9745 139.742)
(-24.9195 152.731 812.072)
(-3.66504 150.457 814.899)
(-0.217558 14.1867 85.3286)
(-3.14728 121.629 903.404)
(-24.4297 124.926 903.774)
(-2.43594 14.5967 115.297)
(-0.203653 14.3359 116.151)
(-8.26612 13.1169 94.4871)
(-79.4516 148.699 738.411)
(-6.07053 11.5699 65.8849)
(-4.42142 13.3486 77.533)
(-53.0232 152.788 788.337)
(-53.3347 128.86 887.301)
(-5.65381 14.3827 108.513)
(-9.34341 10.8357 75.2212)
(-100.34 139.122 659.271)
(-6.49083 9.13258 51.1131)
(-130.225 116.537 677.55)
(-111.193 121.784 548.859)
(-8.77769 7.94149 54.0831)
(-5.86505 6.48725 35.9705)
(-161.286 52.2412 545.026)
(-153.361 86.3851 641.477)
(-142.475 67.2264 469.987)
(-8.49354 2.72671 35.393)
(-12.2202 4.77155 60.8607)
(-9.65235 5.46199 48.1575)
(-6.65155 3.1473 27.7939)
(-87.4453 66.7128 262.682)
(-4.6065 4.1602 22.7528)
(-107.674 96.7977 410.602)
(-133.772 97.8741 538.051)
(-117.351 72.434 371.901)
(-6.96105 5.11833 34.7181)
(-4.75842 2.95279 19.76)
(-76.8001 18.9354 175.662)
(-108.215 44.1027 286.504)
(-58.5159 21.6227 133.778)
(-5.01492 1.37809 18.0398)
(-3.86811 1.59827 13.8973)
(-2.30261 0.574073 7.42418)
(-1.65842 0.624915 5.37474)
(-19.0465 11.5304 45.859)
(-1.48149 1.008 5.32325)
(-52.1027 35.0916 132.514)
(-81.9542 44.3356 211.078)
(-36.892 18.0866 85.4)
(-2.61692 1.43809 9.37567)
(-1.01927 0.507362 3.3277)
(-4.7048 1.52386 10.8111)
(-26.9915 6.07988 58.2658)
(-18.5918 6.27994 41.181)
(-0.194878 0.0423545 0.563838)
(-0.749982 0.170712 2.25239)
(-0.523679 0.180542 1.58005)
(-0.130239 0.0436898 0.384386)
(-0.00882881 0.00904971 0.239625)
(-0.281123 0.367385 5.14009)
(-0.00885574 0.0118289 0.200049)
(-0.00362952 0.00798533 0.260844)
(-0.134703 0.263407 6.65714)
(-0.164738 0.36689 5.76483)
(-0.00485823 0.011612 0.225006)
(-0.000918595 0.00668611 0.266211)
(0.017084 0.205764 6.69958)
(-0.0435672 0.225246 6.77185)
(-0.0574949 0.34038 6.01606)
(0.000181343 0.00995123 0.236172)
(0.00231121 0.317928 6.01803)
(-0.0015052 0.0106371 0.235475)
(-0.00395412 0.0130785 0.125288)
(-0.178826 0.346175 2.73381)
(-0.00599608 0.0114131 0.10576)
(-0.239585 0.387846 3.93957)
(-0.00788416 0.01218 0.152948)
(-0.159174 0.424296 4.55001)
(-0.00487961 0.0132401 0.177149)
(-0.0511917 0.421704 3.49911)
(-0.00156198 0.0138526 0.136119)
(-2.47866e-05 0.0139592 0.138689)
(-0.0605396 0.431675 4.85703)
(3.24121e-05 0.0133739 0.191892)
(-0.00209847 0.426008 4.90608)
(-0.00179067 0.013512 0.189552)
(-0.0126953 0.00854992 0.199582)
(-0.349203 0.322873 4.18104)
(-0.0109465 0.0106635 0.16222)
(-0.0142938 0.00671725 0.147872)
(-0.430127 0.211752 3.82019)
(-0.349968 0.246932 3.06223)
(-0.0116751 0.00819783 0.118171)
(-0.194308 0.277292 2.11655)
(-0.00599094 0.00977651 0.0810224)
(-0.00628016 0.00706212 0.0558573)
(-0.273531 0.322203 3.12493)
(-0.00834596 0.00989416 0.120878)
(-0.263127 0.239977 2.24003)
(-0.00913859 0.0074095 0.0859793)
(-0.0109304 0.00426246 0.0968103)
(-0.262579 0.0835754 1.44847)
(-0.366213 0.142258 2.51818)
(-0.293219 0.166218 1.98999)
(-0.00748192 0.0034367 0.0416972)
(-0.00877242 0.00587264 0.0760641)
(-0.206973 0.0981821 1.12492)
(-1.18929 0.645543 3.02701)
(-0.156704 0.0879203 0.482442)
(-5.59418 3.10184 13.4964)
(-2.6332 1.14478 6.32384)
(-10.9679 4.90312 25.2771)
(-0.312672 0.141996 0.949861)
(-0.0723046 0.0323747 0.219239)
(-0.143303 0.130065 0.909712)
(-0.00402746 0.0047958 0.0335763)
(-0.00338213 0.0025304 0.016678)
(-0.21562 0.158915 1.42477)
(-0.00547122 0.00255578 0.0284154)
(-0.00612863 0.00451949 0.0539044)
(-0.147045 0.0916238 0.778406)
(-0.152809 0.0421046 0.702014)
(-0.00281843 0.00185307 0.0188354)
(-0.116088 0.0485802 0.527306)
(-0.00287903 0.000396384 0.00948098)
(-0.0672015 0.0167973 0.26818)
(-0.0486521 0.0185513 0.192532)
(-0.00210598 0.000724738 0.00680926)
(-0.0435447 0.0300155 0.190935)
(-0.00109299 0.00117051 0.00673884)
(-0.000733755 0.000385927 0.00224974)
(-0.0018857 0.000982713 0.0121699)
(-0.0769982 0.0426605 0.344026)
(-0.0303828 0.0152471 0.118743)
(-0.00134262 0.0003572 0.00422177)
(0.0452044 0.411309 3.46479)
(0.00602959 0.00983517 0.0893943)
(16.65 149.081 805.602)
(8.08114 10.5659 79.2869)
(10.8508 7.58982 119.529)
(34.8031 55.0477 965.358)
(0.316657 0.221428 5.06061)
(0.00231748 0.00577918 0.256909)
(92.0337 64.5669 912.555)
(9.92362 9.93853 101.921)
(93.7293 93.8507 866.954)
(60.2644 60.3398 948.534)
(64.4673 92.1698 912.523)
(7.52494 7.53992 135.844)
(7.56859 10.8671 119.487)
(15.6783 53.7836 973.389)
(17.0296 86.0864 948.334)
(37.9572 88.0512 936.682)
(2.27853 7.02825 149.532)
(2.32739 10.9068 136.459)
(4.47608 7.03855 144.63)
(4.68791 10.9005 130.463)
(1.52936 13.7618 82.9832)
(37.4292 147.519 787.417)
(17.5314 121.803 894.819)
(38.9684 122.17 879.811)
(2.05899 14.0456 113.107)
(4.20793 13.4723 106.804)
(3.18716 12.925 77.7142)
(91.6038 119.647 793.915)
(5.83952 9.44227 55.924)
(84.2938 136.141 685.913)
(62.0653 144.01 749.643)
(65.2791 122.474 848.82)
(6.5657 12.3991 95.5705)
(4.90185 11.5088 68.6406)
(0.292253 0.292756 4.2733)
(0.010374 0.00677617 0.197684)
(0.00970642 0.00971434 0.166409)
(0.00634872 0.00636486 0.228239)
(0.213758 0.214399 5.82591)
(0.22057 0.317232 5.05842)
(0.00676209 0.0103807 0.197602)
(0.0723966 0.197914 6.52204)
(0.00225182 0.00980696 0.230086)
(0.00396223 0.00575415 0.246153)
(0.071537 0.3127 5.86347)
(0.126249 0.19694 6.2633)
(0.13543 0.314663 5.5713)
(0.00438863 0.00997628 0.218299)
(0.00143885 0.013614 0.135036)
(0.00315554 0.0127921 0.126153)
(0.0930514 0.386122 3.24096)
(0.00195863 0.0129548 0.186865)
(0.0615201 0.416375 4.77593)
(0.122612 0.398576 4.49259)
(0.00410793 0.0124255 0.175546)
(0.00451485 0.0118716 0.110479)
(0.144959 0.343796 2.85475)
(0.17558 0.284305 2.32079)
(0.239816 0.313192 3.30601)
(0.00818122 0.00957347 0.128274)
(0.193347 0.366317 4.00142)
(0.00595353 0.0111436 0.155823)
(-0.000672876 0.000122066 0.0028016)
(-0.00581578 0.00126387 0.0193193)
(-0.0224133 0.00516018 0.0798074)
(-0.0157211 0.00552771 0.0555336)
(-0.00014918 5.22515e-05 0.000494016)
(-0.000480117 0.000215568 0.00196197)
(-0.00387011 0.0013664 0.0130254)
(-0.00102037 0.000608684 0.00348643)
(-0.00459421 0.00266438 0.0161405)
(-0.000157928 9.99458e-05 0.000632968)
(-0.00931194 0.00426295 0.0327329)
(-9.86246e-05 2.7108e-05 0.000312501)
(-0.000288982 0.000103723 0.00118159)
(-0.0021656 0.000924291 0.00736224)
(-28.3764 102.008 58.362)
(-2.21871 22.2268 0.70655)
(-180.339 122.988 11.6864)
(-96.1415 69.9157 86.9562)
(-203.995 318.369 -6.42661)
(-44.1287 70.8692 13.603)
(-37.6924 316.213 2.8216)
(-6.15689 70.4899 12.3131)
(-67.4568 153.303 151.932)
(-24.1635 103.958 174.579)
(-69.136 114.366 48.3869)
(-30.7232 164.327 37.8648)
(-67.742 113.192 165.135)
(-25.308 149.132 159.423)
(-75.5027 174.058 21.9395)
(-45.452 102.889 99.881)
(-14.0887 113.024 209.547)
(-16.077 22.4502 3.14656)
(-1.75245 35.9526 0.523421)
(-56.2268 94.1369 143)
(-16.5039 110.774 118.806)
(-18.5571 46.0575 16.2081)
(-46.0696 32.871 16.0563)
(-68.9025 96.5062 85.5187)
(-33.9181 34.2916 19.4175)
(-44.8672 45.159 13.3284)
(-78.1373 79.2008 107.421)
(-32.3547 46.127 15.2623)
(-89.8909 90.435 77.2416)
(-13.7199 142.173 78.9297)
(-40.2483 119.183 81.2293)
(-5.92218 56.6188 13.0326)
(-18.7495 71.143 12.5426)
(-14.0249 119.858 87.6846)
(-38.6475 141.565 76.7624)
(-18.6748 57.8764 13.1369)
(-9.92319 51.8749 39.4597)
(-4.55709 57.2577 56.8068)
(-6.85012 21.6632 1.15267)
(-2.02233 25.6492 -0.746892)
(-6.38243 25.555 -0.28122)
(-14.6219 53.6631 57.5926)
(-3.5341 54.5841 37.6759)
(-18.9861 93.6305 134.023)
(-8.86581 101.528 171.992)
(-47.365 108.832 211.129)
(-13.6522 132.592 190.169)
(-45.116 131.098 189.801)
(-27.8029 94.6477 165.978)
(-7.53488 98.6599 138.565)
(-22.8251 53.6335 44.8323)
(-12.3347 23.0126 2.18499)
(-34.3167 45.6741 47.8617)
(-16.0711 27.0479 3.51394)
(-11.4993 26.7459 2.29373)
(-27.5072 50.5066 53.9142)
(-32.6387 52.4609 40.527)
(-10.9656 56.5798 34.4486)
(-2.13923 30.9512 -0.152795)
(-4.59912 61.7229 29.1735)
(-5.25069 35.6998 1.67074)
(-4.73725 31.1345 1.18656)
(-12.0983 61.7257 28.5242)
(-5.10956 57.5849 34.4225)
(-147.018 103.99 142.878)
(-106.389 147.14 143.174)
(-121.64 117.371 29.6999)
(-189.731 184.986 0.697622)
(-112.427 111.217 154.901)
(-130.27 179.435 9.76145)
(-141.656 140.3 136.371)
(-63.9302 116.204 76.5088)
(-44.4219 57.7616 11.2662)
(-87.1132 137.991 75.938)
(-31.3693 70.979 12.7272)
(-62.7281 139.587 75.2656)
(-31.6699 58.0189 12.5046)
(-87.7363 113.745 73.2807)
(-25.7786 230.723 144.921)
(-64.7863 187.761 142.89)
(-33.6823 236.674 17.1782)
(-90.5069 318.313 -2.8545)
(-25.0493 188.364 149.641)
(-64.4659 228.438 140.558)
(-82.7715 243.976 6.28764)
(-102.053 183.279 137.846)
(-197.401 251.011 -4.56605)
(-141.315 221.57 137.436)
(-145.807 318.134 -5.87319)
(-102.554 224.348 137.877)
(-138.151 247.44 -0.0254883)
(-140.524 179.862 134.91)
(-2.09726 18.0973 1.84104)
(-29.3985 21.0023 5.98237)
(-27.2511 19.5618 24.1006)
(-3.82488 19.6325 33.8817)
(-28.7387 45.9676 6.01806)
(-25.865 41.6034 32.1623)
(-4.10775 45.8672 5.60884)
(-11.3664 42.2042 32.8791)
(-11.8594 28.07 14.326)
(-13.8543 17.8551 1.8887)
(-1.94843 17.7315 17.3914)
(-1.57631 30.9365 1.16637)
(-12.1233 20.4348 14.9323)
(-12.2902 29.2949 5.49361)
(-3.98241 28.1785 14.5399)
(-27.2085 19.5373 13.7532)
(-19.4847 27.4806 13.8077)
(-20.8409 20.9312 5.67168)
(-29.2142 29.3583 6.08147)
(-19.8144 19.9271 14.2617)
(-20.9364 29.5964 5.92587)
(-26.8768 27.0392 13.621)
(-11.7542 27.8075 24.541)
(-3.89551 19.9542 24.5033)
(-11.7221 19.8077 34.1657)
(-3.79949 27.3758 33.6638)
(-11.9208 20.0882 24.8594)
(-3.86977 27.7423 24.3558)
(-11.6337 27.5116 33.9402)
(-3.79216 42.695 13.4244)
(-11.6115 35.3636 13.7629)
(-4.06323 36.9061 5.31373)
(-12.3852 46.2948 5.78193)
(-12.4096 37.7996 5.74521)
(-3.89353 35.5593 13.9641)
(-11.3864 42.5274 13.3359)
(-6.15921 20.8143 7.21691)
(-6.07924 17.6116 1.90458)
(-2.20796 17.6003 7.04529)
(-2.02164 22.0232 1.40484)
(-6.47135 16.8597 7.44927)
(-6.00087 21.4725 1.67929)
(-2.03816 21.5166 6.87081)
(-9.3677 21.9545 7.24987)
(-10.2369 18.4426 2.03655)
(-13.6387 17.1964 6.76198)
(-14.4181 22.7095 1.28923)
(-10.2127 18.2837 6.92751)
(-9.69247 22.4389 1.42957)
(-13.8899 21.5017 7.42026)
(-6.53115 22.7796 11.4639)
(-2.13785 18.8282 12.7318)
(-6.15207 17.3344 17.3461)
(-1.05881 22.4113 17.6485)
(-6.07131 18.8399 12.8093)
(-6.55442 21.8473 17.4199)
(-1.72867 22.861 11.6212)
(-6.12153 24.5552 6.88854)
(-2.13888 26.1057 1.90806)
(-6.03866 30.0256 1.37252)
(-1.36354 29.0515 7.02876)
(-5.39457 25.5568 2.19849)
(-6.42212 27.9579 7.34719)
(-2.21939 25.3483 6.39705)
(-27.0681 19.4551 33.6695)
(-19.4895 27.5663 24.1973)
(-19.5197 19.7001 34.0255)
(-26.9086 27.0757 33.4283)
(-19.7473 19.9214 24.5682)
(-19.382 27.3684 33.7838)
(-26.957 27.1287 23.8568)
(-19.1434 34.7882 13.5203)
(-28.9333 37.4838 5.69289)
(-25.9397 41.3495 12.9618)
(-20.6065 46.1962 5.94899)
(-20.7889 37.8451 5.85643)
(-18.7734 41.9251 13.2356)
(-26.4594 34.2678 13.3502)
(-3.75044 42.3108 32.908)
(-3.76582 42.5802 23.5029)
(-11.5823 35.227 24.0369)
(-3.79325 34.9533 33.3743)
(-3.82203 35.3193 24.0149)
(-11.4384 42.3827 23.4252)
(-11.5889 34.9682 33.5361)
(-18.7742 41.9185 32.6839)
(-19.1964 34.9149 23.7692)
(-26.7406 34.4498 33.0702)
(-26.157 41.3741 22.807)
(-18.9377 41.9845 23.2484)
(-19.2846 34.7585 33.3433)
(-26.601 34.3885 23.5478)
(17.325 141.314 312.665)
(47.9342 75.6929 246.526)
(72.4337 149.235 347.607)
(97.4353 72.2645 282.343)
(26.7265 19.2241 84.1845)
(29.4083 37.5281 93.7063)
(4.3829 44.8501 91.5517)
(3.89994 18.689 81.2002)
(11.3253 18.7168 81.6463)
(3.94977 26.2629 82.2865)
(11.4941 26.3911 82.9511)
(5.97715 27.6703 120.394)
(16.9759 27.818 122.467)
(17.6824 40.1041 129.657)
(6.2176 39.4824 126.799)
(27.6074 27.6061 87.4536)
(18.8336 18.8317 82.3122)
(19.2252 26.7249 84.1872)
(41.3939 29.8832 135.528)
(28.3658 28.3564 126.716)
(29.8942 41.3902 135.539)
(43.2104 43.2012 144.884)
(7.74485 71.6062 152.873)
(22.0207 74.0476 156.881)
(12.868 45.6856 93.2327)
(4.0808 34.5615 85.4077)
(11.9093 34.884 86.4353)
(19.0351 53.915 141.388)
(6.70994 53.2532 138.346)
(33.5046 52.4044 104.359)
(55.6291 87.8853 176.763)
(37.9634 79.6815 164.98)
(22.1263 47.7753 96.9823)
(20.1217 35.7289 88.7113)
(32.3205 55.6556 147.167)
(48.2278 60.8024 158.952)
(37.0968 60.5533 198.902)
(17.1859 75.2332 238.868)
(13.3104 60.4064 195.135)
(38.0776 84.9352 204.868)
(16.4218 97.122 256.864)
(45.7219 97.3179 266.106)
(13.464 84.1474 201.186)
(75.247 75.2174 259.944)
(85.637 63.1385 209.772)
(61.3356 61.3052 205.403)
(63.174 85.6201 209.76)
(96.9797 96.9136 304.596)
(72.3368 97.4148 282.364)
(83.9661 83.9353 208.663)
(45.7127 145.239 325.823)
(14.6312 115.465 194.103)
(39.002 115.996 196.443)
(39.2247 104.382 203.927)
(16.133 116.68 279.64)
(44.9409 118.692 291.196)
(13.8847 104.291 201.697)
(100.227 153.827 368.611)
(69.977 106.239 215.737)
(58.839 112.799 202.267)
(62.8622 103.006 206.045)
(97.5911 122.845 336.022)
(71.8833 121.409 310.436)
(79.6233 98.1629 203.435)
(190.31 135.191 1394.98)
(186.241 298.874 1418.05)
(65.6023 104.201 1463.11)
(76.4363 291.097 1440.55)
(131.953 96.382 486.843)
(30.0658 127.066 812.148)
(22.8096 196.178 519.691)
(99.3954 207.531 558.774)
(79.5219 125.933 835.602)
(61.9629 98.4018 445.685)
(22.1562 99.4946 431.589)
(21.5571 130.788 452.879)
(60.7291 131.427 465.985)
(29.0701 169.228 852.678)
(77.8724 170.36 873.272)
(173.684 125.441 900.253)
(125.957 125.923 866.269)
(97.6103 97.5807 463.186)
(132.127 132.04 513.965)
(96.4786 131.929 486.896)
(125.534 173.674 900.437)
(176.179 176.112 933.325)
(61.6117 201.403 535.63)
(21.4766 159.74 482.661)
(59.9882 162.817 497.945)
(30.3236 271.85 952.69)
(29.1347 215.856 898.861)
(78.7823 219.767 917.567)
(81.3765 277.262 971.934)
(138.89 212.107 588.917)
(134.293 169.883 547.446)
(96.8435 167.015 520.365)
(128.006 225.915 943.973)
(188.398 291.547 1034.71)
(180.529 230.404 977.865)
(132.958 284.855 998.222)
(27.3727 102.066 1459.56)
(31.9668 125.138 1359.93)
(79.4568 126.025 1370.57)
(29.2929 157.421 1461.48)
(32.6324 180.919 1376.94)
(81.5588 183.533 1385.81)
(70.009 160.877 1463.42)
(168.534 118.732 1462)
(111.947 112.024 1464.82)
(131.012 131.046 1382.87)
(135.177 190.426 1395.19)
(175.241 175.416 1454.9)
(118.648 168.721 1462.15)
(196.563 196.664 1403.77)
(88.9788 324.125 1416.01)
(31.8834 288.063 1439.91)
(35.3622 319.597 1407.34)
(30.9892 221.514 1455.09)
(33.9523 246.303 1391.54)
(85.0328 250.153 1399.52)
(73.6688 224.921 1456.18)
(214.381 339.662 1430.73)
(129.322 295.396 1433.37)
(148.487 331.541 1422.92)
(141.138 257.661 1407.94)
(181.587 236.546 1442.72)
(124.44 231.262 1452.7)
(204.587 264.796 1416.74)
(-432.693 232.803 1119.98)
(-588.933 171.382 1476.84)
(-571.666 383.205 1309.33)
(-46.2286 24.1542 79.2502)
(-776.173 176.131 1439.09)
(-791.578 186.647 1404.51)
(-356.285 110.923 708.587)
(-699.195 383.144 1151.97)
(-502.817 152.556 1197.46)
(-627.623 167.349 1301.27)
(-443.617 124.25 812.872)
(-368.296 158.18 740.83)
(-460.541 178.597 849.837)
(-516.74 219.045 1224.71)
(-645.084 242.286 1321.85)
(-410.563 273.843 842.894)
(-526.604 317.943 975.346)
(-385.197 211.141 784.943)
(-486.542 240.851 902.64)
(-538.922 294.678 1262.83)
(-675.388 328.453 1353.24)
(-719.196 430.003 1392.59)
(-575.955 144.445 968.792)
(-775.826 173.012 1172.96)
(-959.058 204.199 1474.01)
(-809.623 253.759 1210.53)
(-601.123 210.05 1010.46)
(-811.911 272.521 1417.51)
(-968.595 297.458 1469.63)
(-694.704 176.97 1486.28)
(-468.408 132.088 1275.14)
(-470.502 116.306 1062.44)
(-454.835 186.312 1216.33)
(-596.347 247.644 1477.97)
(-698.114 255.993 1473.76)
(-441.858 160.314 973.731)
(-935.671 466.197 1329.28)
(-863.536 349.539 1264.2)
(-640.992 287.445 1071.52)
(-841.815 370.005 1437.34)
(-974.987 486.934 1431.55)
(-978.879 394.812 1460.43)
(-875.069 475.858 1453.93)
(-393.65 262.293 969.837)
(-622.087 415.424 1468.89)
(-608.486 329.71 1478.5)
(-701.965 337.716 1453.17)
(-318.296 189.961 643.477)
(-394.796 189.483 838.011)
(-696.839 415.555 1409.28)
(-200.532 41.4257 322.915)
(-773.868 159.938 1259.32)
(-384.95 85.465 720.454)
(-766.11 253.4 1404.72)
(-152.446 47.5474 244.055)
(-333.474 109.903 609.348)
(-734.083 223.199 1175.04)
(-745.57 325.681 1341.73)
(-169.168 92.8156 292.086)
(-96.9788 40.6868 157.723)
(-546.132 274.319 822.866)
(-258.939 113.576 459.348)
(-663.503 267.428 1034.6)
(-699.544 379.162 1225.6)
(-6.44846 100.063 1456.4)
(-10.631 288.072 1443)
(-145.578 124.708 1471.05)
(-168.519 306.852 1431.85)
(-133.035 87.9586 465.85)
(-66.0348 93.5751 424.186)
(-134.39 202.546 572.562)
(-20.1028 194.2 518.413)
(-77.3785 121.231 804.527)
(-23.7462 125.158 797.327)
(-21.9281 97.8424 416.203)
(-21.771 128.869 444.692)
(-62.6945 126.825 452.73)
(-73.5107 165.643 853.219)
(-22.9028 166.586 844.844)
(-100.231 90.3084 444.855)
(-165.295 118.508 861.338)
(-122.263 119.507 830.085)
(-130.902 122.393 495.146)
(-97.6448 125.455 470.89)
(-118.87 167.49 873.281)
(-166.52 168.512 898.685)
(-20.8963 157.568 478.965)
(-58.7485 197.47 530.819)
(-59.465 158.188 489.821)
(-71.4258 215.611 903.544)
(-21.8204 269.652 948.959)
(-22.1279 213.178 894.248)
(-72.0187 274.377 959.168)
(-131.192 160.126 530.118)
(-96.3786 200.878 548.405)
(-95.1488 159.747 507.819)
(-118.784 220.275 920.673)
(-175.529 284.22 1004.22)
(-122.168 280.018 976.411)
(-169.46 223.224 944.209)
(-88.567 56.7142 204.602)
(-99.3775 143.242 358.876)
(-16.5744 139.668 311.786)
(-51.7063 70.352 235.459)
(-32.3393 50.6989 101.506)
(-12.4535 45.1233 92.195)
(-25.9468 18.6428 82.0653)
(-10.9939 18.5864 81.104)
(-3.53488 18.632 81.0044)
(-3.58003 26.1686 81.9905)
(-11.1204 26.1632 82.2012)
(-5.38679 27.5487 119.693)
(-16.8903 27.359 120.701)
(-5.72244 39.4215 125.994)
(-17.576 39.628 127.756)
(-18.387 18.5196 81.1449)
(-26.6855 26.726 84.9459)
(-18.6944 26.2285 82.7352)
(-40.8184 28.0961 130.422)
(-28.3103 27.3333 123.426)
(-29.6917 40.2237 132.14)
(-42.805 41.2081 140.628)
(-4.03928 44.6271 91.1149)
(-7.52174 71.2768 152.026)
(-3.72202 34.4182 85.0252)
(-11.517 34.512 85.5014)
(-6.34746 53.1331 137.41)
(-18.9618 53.333 139.568)
(-21.9139 72.9078 155.334)
(-38.7772 58.3297 192.583)
(-17.7205 73.7994 229.021)
(-12.7743 59.7216 190.481)
(-17.9408 96.1632 251.229)
(-13.6902 84.0437 197.416)
(-39.8123 83.416 200.089)
(-49.4047 94.3015 257.711)
(-21.4287 46.671 95.1071)
(-28.3178 36.1774 90.7688)
(-19.5185 34.9624 86.961)
(-32.1053 54.0052 144.162)
(-55.0077 82.9033 172.894)
(-37.5483 77.0272 162.255)
(-47.4519 57.2856 154.432)
(-102.667 65.0001 268.904)
(-80.3964 68.7755 249.57)
(-63.6815 57.2154 198.907)
(-65.6013 81.8762 205.206)
(-99.3169 88.2413 293.215)
(-76.0826 92.0549 272.389)
(-87.8861 77.6132 205.121)
(-15.6336 114.221 192.999)
(-17.4033 115.344 276.762)
(-15.0205 103.614 198.997)
(-41.3858 102.434 201.183)
(-45.1828 140.877 323.59)
(-46.7471 115.089 286.114)
(-40.5219 111.712 195.593)
(-65.9628 98.6197 203.494)
(-97.9321 113.169 325.826)
(-72.297 142.134 342.184)
(-72.8066 96.2318 209.815)
(-73.2979 114.975 302.991)
(-60.7816 105.247 199.638)
(-83.2907 90.1679 200.284)
(-42.8134 104.904 1461.03)
(-62.1932 125.375 1355.79)
(-14.2574 123.284 1352.58)
(-63.1551 181.114 1377.39)
(-7.99705 153.592 1461.7)
(-47.4606 159.6 1466.04)
(-15.0632 177.348 1373.93)
(-168.853 136.474 1375.93)
(-86.4553 115.674 1468.3)
(-111.093 131.458 1365.02)
(-153.97 181.018 1465.62)
(-115.039 189.722 1383.16)
(-94.809 171.669 1469.07)
(-175.665 196.768 1388.19)
(-16.893 318.077 1406.26)
(-54.9184 294.012 1446.69)
(-65.6437 248.535 1394.32)
(-9.16918 219.379 1457.45)
(-51.3154 225.46 1461.71)
(-15.716 243.381 1390.52)
(-69.5132 323.783 1410.58)
(-161.982 242.889 1453.94)
(-109.692 300.701 1442.49)
(-121.075 257.233 1398.18)
(-194.095 339.777 1418.8)
(-102.853 235.09 1460.99)
(-128.69 331.671 1414.22)
(-184.052 264.666 1402.42)
(-292.177 100.578 634.87)
(-485.668 163.959 1449.11)
(-236.022 142.554 1386.02)
(-200.83 88.3523 532.862)
(-354.913 258.598 1378.43)
(-370.956 324.925 1160.65)
(-225.586 251.356 1440.87)
(-174.179 206.99 605.151)
(-164.983 86.0956 496.405)
(-214.306 120.353 896.813)
(-166.264 122.986 524.882)
(-204.383 126.059 562.965)
(-218.02 172.389 933.403)
(-268.03 124.875 946.46)
(-274.352 179.442 983.524)
(-233.84 293.601 1040.84)
(-298.164 307.094 1092.48)
(-219.392 216.131 645.275)
(-168.322 162.373 560.342)
(-209.751 167.95 599.917)
(-223.559 229.285 981.285)
(-284.379 239.776 1030.55)
(-241.889 92.4026 577.877)
(-301.1 143.373 666.784)
(-248.562 132.391 609.693)
(-407.18 141.616 1096.59)
(-330.92 132.133 1013.13)
(-340.124 189.665 1047.72)
(-417.948 202.31 1132.6)
(-270.286 229.584 695.431)
(-460.264 349.622 1233.22)
(-331.156 247.464 755.612)
(-313.587 192.471 706.711)
(-257.4 178.228 647.277)
(-353.066 253.383 1097.01)
(-435.103 270.885 1178.68)
(-212.284 131.693 1466.21)
(-282.556 137.254 1455.24)
(-310.264 149.515 1401.68)
(-218.568 189.781 1457.86)
(-286.535 196.574 1440.98)
(-243.491 205.566 1397.67)
(-318.4 215.656 1410.16)
(-230.424 312.956 1413.42)
(-290.853 257.021 1419.31)
(-292.91 316.511 1382.22)
(-266.241 351.738 1427.4)
(-344.695 366.113 1444.55)
(-253.909 275.351 1409.93)
(-330.299 287.582 1423.68)
(-353.722 139.732 1431.62)
(-392.852 156.858 1422.13)
(-420.432 138.511 1382.3)
(-354.416 199.329 1411.04)
(-416.249 197.291 1348.68)
(-401.088 225.736 1429.73)
(-494.545 236.572 1455.83)
(-96.5059 33.1336 15.9707)
(-52.8016 17.9617 22.2923)
(-97.6389 72.0442 22.7595)
(-437.741 141.902 4.13871)
(-439.648 316.498 16.1132)
(-264.022 318.739 -4.7334)
(-57.429 71.2509 17.103)
(-57.9221 32.1616 13.6632)
(-244.063 128.477 3.25571)
(-51.5614 38.4911 29.2962)
(-60.39 20.8366 6.57572)
(-59.4597 44.2405 7.71891)
(-36.9981 45.9783 6.73213)
(-32.7513 40.9612 31.3129)
(-41.2332 18.6611 32.3275)
(-37.474 20.8404 5.96526)
(-70.8443 31.7945 13.9904)
(-137.52 87.4035 77.0844)
(-57.5363 44.7221 11.6389)
(-115.8 64.6953 78.4827)
(-70.5461 44.4883 14.1859)
(-139.148 62.962 77.4963)
(-113.472 88.1889 73.974)
(-45.6175 20.6332 6.02701)
(-34.2984 19.1112 13.4237)
(-41.1831 18.6655 13.0706)
(-40.7956 25.8718 12.8428)
(-37.1724 29.0133 5.7167)
(-45.4963 28.7882 6.01142)
(-33.9298 26.4969 13.2919)
(-220.893 138.176 136.728)
(-309.701 133.604 -1.18121)
(-252.251 190.074 -3.00425)
(-181.765 98.8562 136.981)
(-315.465 194.243 -3.58861)
(-221.334 98.2602 136.604)
(-180.187 138.261 134.483)
(-34.403 19.1635 23.5886)
(-41.247 18.8298 22.9734)
(-34.286 19.2692 33.1028)
(-40.8327 26.0913 22.6205)
(-34.1302 26.7998 32.9391)
(-41.0895 25.7736 31.9221)
(-34.0495 26.6437 23.4457)
(-83.7808 31.7916 15.718)
(-190.354 63.7715 82.4148)
(-162.266 87.8489 81.3943)
(-97.3339 46.4519 15.8667)
(-190.789 89.1298 83.8917)
(-83.3938 44.735 17.1863)
(-163.773 63.2242 79.6622)
(-136.344 111.807 80.8837)
(-69.9738 70.1988 16.6924)
(-111.585 136.818 80.1572)
(-57.2352 57.566 12.8624)
(-70.9565 57.87 17.6218)
(-137.386 137.451 81.964)
(-112.011 112.457 75.3991)
(-53.0432 18.226 12.8665)
(-53.6284 20.1966 6.40938)
(-47.7718 18.0951 12.7681)
(-47.1887 25.1647 12.6505)
(-60.1277 29.2934 6.45316)
(-52.3205 25.4389 12.8598)
(-53.3798 28.3645 6.75279)
(-40.472 32.9909 12.5553)
(-44.4339 44.6575 6.90044)
(-32.9557 40.8192 12.6394)
(-37.1163 37.325 5.75405)
(-45.6469 37.1529 6.73962)
(-39.2657 39.4517 12.9353)
(-33.4742 33.6463 12.9574)
(-52.8076 18.7693 31.1433)
(-47.5219 17.6625 31.2875)
(-47.673 18.0511 22.2414)
(-47.023 24.9708 21.9589)
(-52.6628 26.3995 31.1861)
(-52.1713 25.1871 22.27)
(-46.8414 24.8125 30.8702)
(-307.199 100.789 144.213)
(-262.935 139.453 140.66)
(-438.219 200.71 6.50934)
(-374.836 138.087 -0.70744)
(-307.559 141.486 146.984)
(-377.793 198.206 -1.10594)
(-263.154 99.1953 139.189)
(-221.305 178.873 139.47)
(-323.605 318.461 0.279212)
(-181.548 220.778 139.915)
(-258.775 254.1 -5.09132)
(-223.426 221.336 143.34)
(-319.923 256.298 -3.51295)
(-180.362 178.849 136.188)
(-40.5528 33.085 21.9188)
(-38.4663 38.5603 30.8785)
(-33.0647 40.91 22.0343)
(-33.8553 34.0316 32.3239)
(-40.6322 32.7175 31.1858)
(-39.2114 39.3787 22.2745)
(-33.6544 33.8338 22.9143)
(-194.126 141.244 97.5814)
(-162.791 113.366 82.5083)
(-97.7648 59.9253 17.5418)
(-84.4571 72.5255 16.3308)
(-192.818 115.504 88.52)
(-82.8851 58.1845 16.5781)
(-166.751 141.296 86.3532)
(-51.2517 38.3006 12.5728)
(-45.9905 32.0478 12.931)
(-59.9417 37.6765 6.30213)
(-51.4062 44.5571 6.00067)
(-51.7791 32.5587 12.6458)
(-52.2533 36.4619 6.8575)
(-44.3213 38.3901 12.6176)
(-313.771 226.585 159.439)
(-264.137 180.95 144.03)
(-438.905 259.254 10.3625)
(-382.048 318.883 8.82119)
(-309.855 183.465 151.754)
(-267.82 224.479 150.231)
(-379.785 258.805 2.47266)
(-50.5861 38.2489 20.8812)
(-45.9456 31.7077 22.2391)
(-51.9126 33.6333 30.9593)
(-44.6514 39.2973 30.9915)
(-51.5849 32.5025 22.0691)
(-45.1035 31.918 30.785)
(-44.0111 38.0713 22.1878)
(-26.734 19.3317 42.3972)
(-3.77116 19.4373 42.6734)
(-24.2125 17.1974 57.7092)
(-3.23169 17.0283 60.5004)
(-23.8971 37.9255 66.8208)
(-24.7391 38.4816 49.1417)
(-10.6897 39.4852 50.0799)
(-10.1722 38.0762 63.163)
(-10.9944 25.9246 51.2593)
(-11.5297 19.5427 42.8264)
(-3.64977 18.6224 51.4667)
(-3.74801 27.0745 42.4103)
(-11.0667 18.6656 51.5359)
(-11.4784 27.1754 42.5919)
(-3.61762 25.9347 51.257)
(-25.5628 18.3899 50.9867)
(-18.2752 25.7927 51.1048)
(-19.2151 19.4782 42.6843)
(-26.6491 26.9169 42.2225)
(-18.3933 18.5722 51.2906)
(-19.1483 27.0941 42.5071)
(-25.3772 25.5263 50.8821)
(-11.0497 41.9331 41.6798)
(-3.50688 39.677 50.2468)
(-3.63585 41.9829 41.7064)
(-10.8215 32.9738 50.9927)
(-3.7313 34.593 42.1249)
(-11.3891 34.6504 42.2952)
(-3.55885 33.0426 50.9919)
(-10.4252 24.4797 58.116)
(-3.49224 17.6407 58.602)
(-9.91553 17.0267 60.4442)
(-3.19229 23.73 59.969)
(-10.5285 17.569 58.5983)
(-3.43696 24.5702 58.217)
(-9.84724 23.6668 59.7965)
(-23.0676 16.8141 59.2328)
(-17.2824 24.2819 57.7638)
(-16.5015 16.9129 59.8897)
(-23.2365 23.6159 59.2754)
(-17.4442 17.405 58.2372)
(-16.4713 23.551 59.3956)
(-23.9494 23.9592 56.8612)
(-17.7968 39.1128 49.7374)
(-25.6482 41.2033 40.8567)
(-18.3698 41.6891 41.4367)
(-17.9664 32.7618 50.8)
(-26.268 34.3015 41.9309)
(-18.9402 34.5317 42.1804)
(-24.934 32.3153 50.4202)
(-3.25825 38.1243 62.7851)
(-9.94052 36.6202 54.0548)
(-3.26128 36.938 54.526)
(-10.2779 31.1159 56.9)
(-3.19541 30.6509 59.9692)
(-3.37395 31.2817 57.1825)
(-9.94717 30.5987 59.9562)
(-17.0979 38.066 64.4618)
(-22.4812 35.33 51.9478)
(-16.3978 36.0477 53.1707)
(-17.0226 30.7465 56.1416)
(-23.937 31.1042 61.7265)
(-16.8012 30.6467 60.1207)
(-23.417 30.0731 54.5059)
(-45.2133 17.2775 67.5889)
(-29.9333 17.0247 59.3297)
(-44.3014 17.521 48.7792)
(-32.4636 17.9348 50.535)
(-90.3387 52.5606 139.814)
(-48.6497 34.8988 36.2904)
(-31.7691 39.3676 69.6363)
(-32.6356 39.6641 39.6265)
(-40.9867 18.2357 40.9877)
(-34.0127 19.0229 41.8925)
(-33.9027 26.3896 41.7762)
(-40.6381 25.5348 40.5371)
(-32.1156 24.9058 50.2946)
(-38.6695 17.6801 49.3067)
(-38.1253 24.671 48.788)
(-38.8832 39.0721 39.6095)
(-31.0666 37.6134 48.5445)
(-33.3458 33.5409 41.1516)
(-39.3304 32.6068 39.4438)
(-31.5672 31.6017 49.2673)
(-37.4294 31.115 48.3462)
(-36.697 36.8402 48.6028)
(-37.2657 17.2482 62.72)
(-35.8208 16.4778 53.2069)
(-30.6051 16.9611 56.1997)
(-30.5904 24.2321 61.2162)
(-29.9754 23.4439 54.542)
(-35.0816 22.5726 51.8746)
(-37.361 23.9216 66.0218)
(-52.8804 18.9267 40.1609)
(-49.7779 15.7631 48.0553)
(-46.5703 18.6027 39.6877)
(-52.5317 25.4755 40.2348)
(-45.9627 26.1635 39.5622)
(-43.8157 23.8685 48.7787)
(-47.5983 21.6122 45.6193)
(-52.0971 37.6617 47.1265)
(-51.5876 30.6332 39.1277)
(-46.112 39.5845 40.1746)
(-45.4885 33.3451 40.0462)
(-43.0389 29.5408 48.1698)
(-45.5398 27.5646 42.6736)
(-39.9538 33.8079 43.8275)
(-28.3218 34.7243 50.6522)
(-30.7186 31.0189 65.6444)
(-29.0542 29.187 52.1397)
(-34.3757 28.3606 50.4798)
(-42.439 42.5239 75.7158)
(-38.8463 31.7543 69.1861)
(-34.8739 35.0756 51.4291)
(-40.7833 15.7491 51.2238)
(-57.0011 18.3566 73.4515)
(-47.158 16.0932 50.8308)
(-40.4116 22.0093 50.2603)
(-62.5801 28.0575 81.015)
(-49.8756 23.4269 54.5844)
(-47.1872 24.8975 70.0926)
(-63.9373 45.1074 72.046)
(-41.4332 29.0245 51.9436)
(-76.0622 40.8776 102.33)
(-62.0846 50.7579 96.6309)
(-54.0831 31.6271 58.6192)
(-50.8533 34.7044 76.4048)
(-45.7161 38.4076 57.446)
(-75.6253 32.8091 158.539)
(-105.767 35.1354 175.717)
(-247.038 175.874 494.384)
(-219.007 67.1048 411.875)
(-126.457 143.23 389.943)