/*--------------------------------*- C++ -*----------------------------------*\
  =========                 |
  \\      /  F ield         | OpenFOAM: The Open Source CFD Toolbox
   \\    /   O peration     | Website:  https://openfoam.org
    \\  /    A nd           | Version:  9
     \\/     M anipulation  |
\*---------------------------------------------------------------------------*/
FoamFile
{
    format      ascii;
    class       volScalarField;
    location    "0.0032";
    object      T;
}
// * * * * * * * * * * * * * * * * * * * * * * * * * * * * * * * * * * * * * //

dimensions      [0 0 0 1 0 0 0];

internalField   nonuniform List<scalar> 
27422
(
718.274
715.36
820.403
683.357
762.742
783.76
659.076
738.824
682.656
544.212
418.759
433.503
903.062
825.95
874.512
812.54
806.352
798.849
776.029
769.074
806.591
771.163
705.749
648.617
719.418
730.82
853.324
901.254
870.487
881.892
871.119
880.772
851.994
829.601
852.959
828.783
803.969
853.98
826.327
809.438
795.537
811.324
789.968
795.732
797.961
803.693
784.648
800.012
793.715
809.484
794.932
802.912
786.802
810.247
840.229
820.328
807.461
810.842
826.188
829.391
818.606
840.727
798.933
808.792
809.916
821.266
816.978
851.554
559.464
485.547
535.02
778.168
737.808
783.511
653.888
813.511
683.388
737.445
803.824
973.927
751.62
892.247
598.849
606.074
563.186
485.872
696.869
561.461
845.918
876.481
799.257
828.026
950.551
987.623
935.548
984.31
803.745
902.315
655.599
606.026
786.724
953.468
663.781
838.711
550.178
721.416
572.581
468.185
633.497
652.488
507.053
574.844
590.722
600.871
453.327
586.905
724.451
461.402
537.264
524.236
458.848
479.656
993.246
1018.32
945.21
970.681
1016.06
939.244
997.479
814.309
953.963
826.56
822.633
892.604
889.305
748.749
555.377
669.08
551.488
564.295
598.121
623.858
512.734
461.4
538.264
439.138
469.868
476.247
520.534
426.98
549.944
452.453
620.096
604.173
561.302
576.042
463.231
611.246
553.475
840.167
808.671
912.829
843.665
807.559
911.552
840.893
838.749
838.215
796.478
901.588
804.241
908.408
834.964
978.635
959.859
991.695
885.797
1008.13
921.377
947.957
785.413
776.497
881.15
752.186
820.777
735.885
835.122
730.872
679.041
621.771
700.488
677.736
768.027
676.404
729.548
739.748
730.809
602.596
808.281
669.481
655.444
609.067
581.755
647.381
512.72
635.954
556.543
607.621
591.007
487.199
528.857
556.769
540.525
578.676
578.106
522.552
532.783
561.319
458.313
589.381
482.51
496.571
489.299
548.534
523.575
586.614
497.579
541.985
515.362
465.078
492.976
472.897
485.88
484.667
588.219
549.997
521.72
540.591
511.894
491.915
458.783
494.739
481.437
471.585
565.782
519.205
540.87
444.09
569.348
512.343
531.665
567.865
443.995
523.748
533.368
510.285
529.642
575.248
449.558
460.617
496.735
417.14
507.593
420.015
439.148
508.315
419.72
518.196
477.254
492.747
517.878
549.11
505.167
431.355
436.137
587.236
459.092
418.871
415.329
583.959
509.545
551.144
538.441
533.854
573.169
530.915
296.571
471.281
431.703
828.375
828.039
823.553
752.287
735.682
731.554
691.119
721.714
741.353
783.555
785.195
805.59
714.516
737.693
782.61
805.243
854.933
831.937
847.027
829.576
833.313
848.557
852.997
853.239
829.152
829.284
847.179
831.738
848.121
850.265
825.934
823.815
841.394
807.363
842.628
809.967
824.246
802.462
778.662
768.763
776.16
787.584
798.429
784.122
773.896
759.25
763.076
728.181
774.831
758.087
759.02
778.785
727.306
772.462
769.212
762.551
761.493
789.757
831.151
790.191
783.975
755.415
809.469
811.853
801.026
839.142
768.47
845.759
811.45
826.299
807.609
855.429
743.86
795.321
635.393
695.23
735.947
809.235
633.975
754.697
704.034
838.774
651.186
821.381
637.351
772.302
829.13
842.06
798.746
777.275
839.715
841.382
773.613
835.521
674.483
752.208
783.19
837.255
800.309
705.93
595.039
427.429
439.792
472.58
591.301
725.748
717.117
462.17
329.666
420.497
331.122
354.834
321.096
353.745
300.059
476.669
356.406
287.93
288.048
618.352
868.328
574.178
846.626
362.577
324.761
356.011
326.614
533.445
718.052
425.303
490.749
348.24
328.898
402.919
487.991
370.974
431.119
370.249
407.725
376
401.303
449.629
376.175
490.516
428.008
657.159
329.161
389.296
441.678
638.805
330.574
388.343
542.349
331.187
375.216
365.446
418.013
335.277
363.832
387.14
337.553
358.518
348.868
377.301
341.764
360.981
378.559
340.497
342.168
355.992
368.855
320.945
290.249
432.104
378.449
394.55
428.538
382.477
872.541
798.66
701.751
615.813
793.208
697.374
878.036
852.915
602.595
735.577
643.124
774.322
679.62
812.308
326.488
322.535
351.395
362.857
322.853
352.052
325.986
326.762
361.035
322.108
348.884
322.749
351.301
326.718
668.677
677.02
588.925
490.986
747.145
610.615
531.332
594.984
454.333
501.348
445.854
550.002
482.762
536.341
326.012
320.881
344.692
340.149
326.302
319.705
340.627
459.612
463.781
418.183
386.761
492.428
434.854
397.813
435.326
376.256
396.233
376.05
412.674
383.829
417.9
399.997
385.456
373.664
371.924
406.494
378.563
375.644
397.311
373.519
384.34
379.293
379.126
378.239
398.271
456.19
426.835
417.956
491.879
413.893
483.831
450.385
421.436
391.667
379.537
385.127
394.712
412.755
391.769
544.525
390.151
462.254
543.32
390.802
430.922
430.401
473.962
370.883
398.658
439.921
360.75
381.237
397.344
375.101
343.669
348.529
364.556
342.47
351.87
354.135
362.474
346.702
356.435
363.984
346.14
355.154
355.94
487.305
427.247
489.811
430.509
439.793
429.181
479.107
340.462
301.05
288.138
352.379
307.721
291.346
288.178
438.341
403.289
403.337
299.118
456.115
508.154
381.218
532.267
388.045
425.787
413.979
379.978
390.806
347.061
411.978
352.694
368.545
359.656
346.555
359.161
345.841
359.34
343.715
352.629
354.727
356.362
360.647
336.061
362.645
342.439
351.294
343.241
396.112
378.297
380.362
397.789
404.012
397.661
376.903
345.981
312.139
325.754
330.21
347.341
309.2
322.243
348.347
302.36
313.226
329.92
345.341
294.215
299.717
337.749
289.629
290.753
301.29
310.254
288.025
288.041
290.294
287.957
287.934
289.241
288.22
287.928
287.931
287.946
287.934
287.927
287.926
386.647
408.721
401.566
424.059
408.408
395.482
434.88
417.509
398.637
407.82
409.153
418.135
477.276
562.715
606.976
617.323
464.463
387.981
384.999
287.932
396.639
401.951
381.706
464.196
389.212
368.717
601.158
457.17
388.522
370.346
419.498
376.805
371.275
429.318
393.849
367.706
371.802
390.25
364.386
360.729
382.715
392.373
364.476
297.589
348.722
334.02
290.157
364.417
293.038
288.931
288.014
295.226
412.156
395.928
354.955
353.626
380.846
324.186
317.883
290.185
288.008
287.928
287.926
287.926
287.926
287.926
287.926
287.926
287.926
287.926
287.926
287.926
287.926
287.927
287.926
287.926
287.926
364.689
357.266
334.908
288.351
351.799
287.949
287.926
287.926
287.926
287.926
750.955
897.721
850.859
883.699
836.262
818.771
872.898
803.339
890.442
287.926
287.926
287.926
287.926
287.926
287.926
287.926
287.926
287.926
287.926
287.926
288.88
287.928
287.926
287.926
287.926
695.853
440.23
427.321
425.201
449.683
426.992
451.392
414.561
420.972
403.816
288.109
869.4
872.113
923.052
860.708
759.27
686.063
590.642
533.412
495.421
446.008
711.086
516.042
675.907
626.861
643.032
668.933
701.36
645.927
629.606
738.442
671.025
718.236
589.983
626.59
553.675
663.397
714.625
695.465
685.976
695.717
684.613
660.996
649.811
679.631
682.616
646.055
616.322
638.303
592.225
563.992
639.173
612.398
568.41
602.043
549.623
597.762
553.582
507.17
555.715
527.809
530.454
531.481
531.44
505.024
493.319
514.298
516.948
492.362
755.779
731.023
558.747
506.031
552.479
804.855
747.304
806.242
797.702
595.396
675.731
642.218
513.781
597.949
499.971
754.898
775.664
735.248
755.8
775.71
734.729
755.479
678.642
754.441
701.525
696.151
719.29
718.851
664.151
514.482
577.751
528.247
535.814
536.756
554.235
506.182
476.555
522.334
477.62
499.161
484.623
515.726
469.181
476.923
537.533
773.823
792.715
791.524
805.937
792.926
791.157
774.269
730.035
716.642
715.577
731.144
755.266
791.541
790.35
756.677
751.367
753.602
769.413
721.956
774.227
731.418
741.319
770.648
806.595
791.124
782.941
792.941
789.093
762.173
724.077
700.441
710.583
712.348
748.447
770.807
784.121
734.679
701.963
779.278
765.141
768.793
741.882
745.583
727.755
649.917
680.432
689.266
644.399
664.938
745.72
708.457
701.544
624.144
645.214
615.066
564.083
666.103
613.225
573.14
645.93
721.668
643.862
622.005
693.903
673.974
592.82
597.558
546.983
594.696
548.995
608.952
586.936
642.077
558.217
531.178
607.141
584.317
620.719
554.676
583.38
560.505
494.805
513.025
515.072
492.443
501.748
548.545
522.927
525.127
501.533
522.565
530.529
485.415
540.159
493.651
492.737
517.067
607.267
557.628
533.953
568.388
545.465
506.854
483.514
472.651
480.869
475.15
489.564
501.398
511.203
480.848
458.11
464.521
466.97
454.743
470.933
495.31
519.678
465.355
512.956
462.385
475.905
450.776
452.602
445.312
461.11
451.739
446.858
383.942
398.648
460.296
470.139
494.79
737.24
756.196
742.967
735.098
716.357
766.831
770.824
755.781
689.122
644.592
594.03
587.525
648.92
789.204
760.174
820.765
775.824
823.937
820.79
735.446
712.74
689.977
851.014
891.223
892.102
850.122
848.364
887.424
889.694
843.828
822.596
879.83
835.925
867.046
803.222
849.53
840.237
827.238
851.588
806.062
822.331
852.765
807.388
826.082
827.075
823.385
849.123
810.452
851.581
808.769
826.163
807.975
844.715
806.308
802.361
822.06
831.606
784.293
782.542
768.304
789.587
705.686
809.202
745.071
757.859
731.677
778.152
676.245
699.271
740.896
774.249
657.347
728.526
692.396
782.977
639.382
776.075
646.094
730.257
423.876
289.52
295.467
287.928
287.932
439.786
358.952
440.698
355.376
420.307
326.822
296.605
287.928
288.912
287.927
288.669
287.928
288.02
719.472
722.281
934.497
550.462
321.837
351.671
298.815
288.114
287.929
725.327
723.374
865.323
523.287
323.478
347.139
288.018
288.002
287.927
578.495
578.026
649.37
447.642
323.649
318.094
287.931
287.927
287.926
520.685
506.807
487.389
413.067
315.475
298.599
288.135
287.926
287.926
543.684
518.722
477.365
352.577
381.039
383.942
287.948
288.215
431.925
550.659
369.703
458.192
287.973
291.884
719.803
749.356
725.002
750.502
719.576
769.102
724.573
730.367
775.773
741.614
728.854
733.828
754.459
921.404
742.784
350.247
405.768
337.929
548.488
351.229
405.731
341.482
313.258
329.224
313.5
323.121
310.836
331.334
305.539
735.097
697.411
728.56
761.59
669.718
628.426
678.576
613.974
694.395
758.577
617.535
350.163
399.844
343.109
483.612
345.282
390.257
349.212
309.01
332.506
300.739
323.822
300.236
333.977
292.617
642.477
620.337
609.758
594.247
569.421
550.08
537.173
520.259
520.103
507.404
543.723
566.335
483.664
343.562
390.509
350.34
418.232
338.168
391.791
339.963
296.93
332.058
289.451
319.86
289.986
312.064
288.236
606.298
606.019
612.747
620.846
522.367
487.416
511.807
495.717
454.206
499.39
485.375
489.699
462.488
476.31
431.289
336.621
386.604
328.574
412.034
344.162
342.113
291.937
289.132
301.41
288.025
325.752
314.734
289.718
289.356
363.997
443.949
407.285
470.888
456.256
430.132
437.702
368.78
399.629
388.976
453.342
472.954
433.941
440.61
945.582
432.51
939.018
422.885
748.597
414.901
546.996
351.345
469.49
355.324
815.786
817.169
897.848
977.737
856.602
948.957
900.798
970.532
838.825
814.865
705.05
882.22
848.491
772.476
864.039
796.895
805.099
671
636.431
596.945
646.484
602.582
577.151
639.382
576.001
561.337
505.42
562.473
546.477
520.396
468.824
468.051
488.857
490.003
464.433
438.629
720.984
724.135
723.413
724.344
725.653
723.96
721.086
932.557
901.358
903.892
884.91
854.288
857.244
886.127
317.248
314.065
327.323
322.298
314.156
327.85
317.102
668.586
715.91
709.236
699.519
699.858
688.718
679.319
864.963
816.201
822.55
774.032
812.636
820.725
769.433
317.365
313.806
329.91
323.74
317.479
313.531
330.569
510.464
563.208
545.799
552.424
536.11
537.895
518.693
604.73
648.948
602.465
571.712
600.884
615.995
554.599
312.458
311.212
331.272
323.199
314.778
309.094
330.726
456.811
498.489
471.555
494.213
469.007
488.411
456.761
486.849
505.558
506.623
451.001
452.611
471.787
433.199
293.904
297.959
320.363
310.149
297.993
294.88
311.682
489.873
571.715
494.506
528.212
353.299
567.335
471.589
534.983
349.724
463.261
566.501
599.408
469.047
522.57
422.921
350.895
374.148
419.686
371.861
419.415
424.792
288.169
292.774
423.118
393.739
291.776
416.174
288.946
386.121
291.666
320.735
416.794
403.511
290.589
290.67
734.801
718.961
726.362
722.594
722.739
727.179
733.367
773.588
729.007
731.414
728.767
693.65
697.365
727.544
752.393
734.219
733.86
752.617
735.387
726.02
733.711
726.332
727.428
727.596
735.395
734.054
774.322
735.193
728.949
695.609
698.564
726.9
750.974
726.05
732.244
745.78
721.393
730.973
725.214
741.669
731.533
724.896
721.569
716.86
724.27
723.618
717.629
711.747
710.399
709.385
712.661
719.547
726.661
725.581
721.064
726.461
723.711
714.41
719.189
739.667
727.471
713.908
731.048
722.163
712.383
713.922
713.356
721.245
705.801
708.04
697.059
705.571
699.426
752.901
868.457
865.245
816.657
685.878
685.78
818.772
899.999
900.136
889.485
874.422
839.068
852.94
854.169
852.348
723.795
829.695
806.423
666.957
679.353
788.113
408.816
427.881
352.2
351.051
428.926
353.205
407.294
408.829
351.356
425.008
354.531
427.896
353.98
407.897
315.278
314.101
314.414
312.841
313.819
313.917
315.589
317.386
322.706
314.063
329.265
314.173
328.523
317.452
314.643
312.068
312.264
311.516
313.238
312.98
313.599
701.771
735.473
716.575
708.658
727.694
719.508
688.759
727.446
728.985
700.864
686.881
682.233
715.924
650.571
698.074
709.991
730.949
676.641
657.472
670.332
643.853
595.056
683.843
643.09
610.272
656.322
608.599
623.542
640.918
548.861
602.188
592.427
648.944
576.45
627.287
598.052
655.191
696.107
688.657
662.659
621.97
658.046
599.785
584.343
645.356
632.729
573.875
606.411
563.482
613.558
556.925
794.828
657.361
749.685
718.873
645.783
758.559
617.173
765.486
701.159
704.6
719.948
654.826
713.45
666.013
579.107
699.752
650.91
673.541
552.872
585.044
627.53
399.17
418.913
354.409
348.597
404.253
410.123
354.171
393.597
346.931
390.012
354.103
400.168
354.033
388.067
310.331
310.856
309.452
306.507
312.16
309.01
306.718
316.988
323.864
312.493
331.383
313.171
331.128
316.229
308.026
303.528
304.08
299.842
306.74
303.434
305.084
544.847
611.636
556.38
569.886
572.189
589.418
528.755
540.909
574.749
534.993
523.931
502.236
552.927
465.417
526.369
535.77
556.827
506.194
524.897
552.136
560.462
493.053
573.778
509.081
508.35
503.416
504.333
480.567
502.663
414.871
437.153
485.267
503.976
468.795
485.15
485.604
493.552
524.401
518.861
497.316
493.724
534.361
509.154
485.666
521.241
500.123
481.076
491.867
516.547
506.142
482.631
516.321
491.541
481.018
477.314
464.684
478.977
465.34
478.891
470.627
479.584
468.496
511.891
606.296
567.014
544.903
521.909
584.198
492.497
563.831
531.6
533.484
532.961
480.868
515.055
499.463
459.535
532.945
503.839
509.962
441.91
465.423
480.009
377.912
379.838
354.128
341.685
382.761
369.811
353.709
374.125
339.75
355.829
351.752
361.18
352.708
371.946
298.068
301.088
296.34
293.968
301.715
297.881
293.344
308.981
322.156
302.259
326.526
306.075
329.422
303.937
294.46
291.615
291.956
289.604
294.707
291.092
291.535
474.138
546.705
477.558
507.608
491.901
531.728
461.692
471.695
448.381
461.592
450.949
396.537
468.456
382.094
449.876
453.221
468.018
436.415
459.16
496.592
518.247
446.622
519.578
448.731
457.306
464.805
460.928
444.577
436.476
385.443
375.42
438.665
433.821
425.694
421.25
436.845
460.797
497.228
474.259
491.859
471.233
488.522
464.926
439.266
450.948
453.561
435.407
445.399
461.805
457.928
450.848
446.791
485.176
481.643
443.986
480.898
445.128
445.938
451.617
486.748
483.67
458.081
482.085
456.782
451.642
425.35
425.469
420.448
430.509
432.927
445.019
439.626
437.813
430.269
441.037
480.091
438.716
424.579
456.022
416.271
479.324
467.748
475.017
439.048
428.63
425.408
435.091
444.471
450.659
427.038
427.63
423.18
416.454
422.267
372.442
354.168
349.91
334.105
371.962
355.975
344.005
369.624
333.734
371.014
337.284
360.205
336.468
369.422
289.421
290.259
288.843
289.243
289.886
289.858
288.895
294.712
308.199
319.843
318.469
296.771
305.594
314.601
293.118
293.827
317.248
311.306
294.489
292.668
313.282
442.303
393.23
383.85
428.833
403.628
447.46
431.478
432.783
394.037
415.748
423.309
403.842
425.135
430.995
428.127
356.812
386.547
438.418
376.836
426.445
436.875
415.917
386.801
393.687
416.47
382.31
418.899
411.441
417.401
385.194
390.324
407.526
381.685
421.414
409.097
309.082
316.384
287.938
307.416
288.172
287.932
300.774
287.933
287.926
290.543
288.122
287.926
384.012
379.043
288.121
457.871
290.767
317.072
308.125
317.192
316.953
303.062
328.409
315.941
324.534
324.7
291.918
333.597
292.494
323.296
288.819
334.508
323.661
288.114
326.556
312.334
325.048
289.227
306.052
388.156
482.602
436.672
314.327
310.385
311.195
308.948
310.485
311.049
314.166
314.437
310.059
309.313
306.433
314.391
309.894
308.164
311.688
309.146
302.147
298.112
313.485
307.76
298.725
293.732
297.578
290.067
289.979
297.492
294.734
289.496
453.315
402.996
396.925
452.576
405.75
468.731
445.674
352.856
315.062
299.955
382.115
371.427
289.593
293.819
314.43
308.646
310.331
310.157
310.487
310.723
314.429
314.466
304.959
309.711
304.778
309.843
306.694
314.244
325.942
333.54
318.202
335.79
318.842
337.65
325.97
326.107
317.701
334.832
322.833
326.053
317.336
334.774
308.187
295.225
301.588
291.923
305.202
295.067
303.091
325.103
322.621
314.818
335.549
316.597
335.483
321.897
308.431
311.609
333.447
322.153
316.086
307.46
328.996
293.709
293.584
310.915
308.856
295.389
292.471
307.094
302.668
321.385
313.794
319.687
305.104
322.839
308.559
425.587
390.669
384.969
404.709
394.969
424.82
399.113
417.146
370.325
418.027
428.868
436.961
454.584
442.327
416.106
355.405
412.292
420.484
416.209
443.629
439.936
437.346
436.916
372.764
363.482
428.171
425.512
452.391
551.921
652.125
652.351
482.683
555.423
556.698
480.919
350.69
365.637
366.606
341.62
313.434
344.217
307.669
288.15
288.058
297.101
333.252
297.01
333.346
293.943
503.532
608.459
579.657
455.877
533.317
468.133
514.584
368.089
337.58
378.693
345.172
303.863
345.188
292.306
293.805
287.945
289.56
333.036
292.397
327.322
289.023
431.626
492.947
467.865
406.013
452.352
417.804
432.449
367.765
290.878
378.668
342.91
290.214
318.495
288.086
288.005
287.939
288.37
322.204
288.492
296.758
287.965
409.04
406.292
415.941
392.398
392.253
388.411
393.305
287.937
288.835
353.149
304.372
287.977
288.495
287.93
287.928
287.929
287.947
291.45
287.939
288.177
287.93
478.031
456.197
460.64
453.233
447.994
442.432
468.829
378.999
353.33
401.18
351.418
396.155
369.666
371.321
421.437
465.732
461.13
502.291
469.44
429.542
430.95
499.738
433.692
435.797
510.902
468.16
429.4
432.016
288.752
450.383
343.492
455.747
435.923
380.292
301.907
419.383
442.405
315.153
453.464
436.021
407.532
310.041
645.794
539.55
631.632
481.467
546.941
553.862
477.401
465.056
549.264
520.182
442.928
472.857
493.789
430.262
409.36
445.473
427.219
396.077
399.79
414.136
389.692
426.508
418.958
413.072
396.051
414.565
403.523
396.892
439.193
437.252
439.848
439.139
430.394
427.847
436.368
431.94
609.664
605.106
814.682
449.849
801.778
451.314
407.028
568.439
515.578
726.838
440.87
620.204
428.046
415.738
471.04
436.483
536.571
425.028
481.851
427.343
424.369
408.403
427.634
454.821
422.997
456.38
306.672
415.964
472.578
449.717
473.279
459.269
435.279
303.772
287.965
290.196
425.498
433.035
290.29
290.031
287.953
476.487
483.123
424.308
448.484
468.997
478.131
510.131
404.475
428.109
422.023
394.683
420.844
383.057
386.192
408.433
360.189
407.185
377.882
414.707
377.113
372.946
358.91
343.376
370.712
374.821
348.29
391.65
365.685
288.524
288.281
315.582
326.329
303.068
326.155
300.53
313.298
287.974
307.432
325.135
295.467
320.704
290.925
288.152
287.951
289.157
309.077
288.733
294.087
287.974
287.929
287.931
287.966
293.288
287.942
288.556
287.928
350.822
337.147
364.866
357.329
331.107
370.602
342.892
414.009
414.349
389.029
352.159
327.666
359.023
327.429
363.463
336.561
331.675
289.309
719.789
741.914
702.746
729.937
832.407
463.69
729.139
742.295
716.433
743.206
752.946
732.752
723.966
755.804
772.826
737.979
723.952
740.809
665.474
714.902
705.216
691.781
639.038
717.135
683.821
602.204
708.93
719.339
742.445
701.815
592.869
735.634
575.102
729.98
779.169
522.063
777.952
785.984
813.775
820.663
803.072
766.45
813.648
750.118
715.887
704.169
703.551
686.391
720.653
748.101
680.466
659.423
726.157
722.32
725.103
743.106
725.992
729.877
739.106
747.047
742.095
746.254
721.182
722.323
727.464
716.612
733.483
728.798
737.735
748.824
744.519
734.496
759.924
753.135
765.621
762.44
728.234
743.437
733.784
741.205
753.618
749.835
747.933
772.62
754.99
770.984
754.594
765.237
767.818
758.46
746.403
750.316
750.582
742.952
742.623
718.338
736.805
757.069
714.852
737.456
734.637
712.28
732.832
703.235
725.23
687.786
717.751
698.521
711.792
712.566
706.898
713.271
699.172
718.608
693.53
683.329
681.334
670.811
670.264
665.003
678.666
652.989
709.401
727.859
717.712
715.173
700.081
694.931
723.08
689.714
669.329
673.135
670.76
649.603
649.182
676.12
729.248
757.767
742.936
747.488
707.951
735.423
716.216
718.999
680.323
688.271
700.586
651.744
686.516
652.968
758.492
690.496
699.492
714.379
659.516
652.433
731.997
781.674
781.461
784.812
790.641
799.381
793.111
792.702
796.068
784.941
737.18
758.769
729.43
705.73
707.637
696.568
708.923
694.134
697.318
737.872
705.406
715.196
769.178
715.693
718.573
814.482
686.395
727.912
727.652
719.34
717.192
721.045
724.31
722.449
723.403
732.667
724.992
738.314
736.848
728.832
727.293
743.63
753.526
747.126
744.943
727.533
754.487
743.319
738.089
734.362
698.697
694.572
680.833
721.451
712.091
708.761
680.101
674.734
656.153
621.999
689.177
664.974
641.475
679.981
611.068
663.25
628.776
662.576
634.065
683.224
698.181
664.445
623.671
582.777
689.718
664.505
618.262
701.794
574.635
664.84
614.587
661.99
613.133
514.229
539.217
288.394
287.929
287.926
288.375
287.929
287.934
287.927
287.928
288.623
287.928
288.37
287.929
287.948
287.928
287.927
288.024
296.407
289.637
399.732
288.197
287.928
290.768
393.809
288.144
287.933
405.393
288.714
287.93
287.929
288.527
287.928
288.191
287.93
288.015
287.928
289.389
342.408
288.076
287.933
321.051
288.503
287.947
287.926
287.926
287.926
287.927
287.928
287.926
287.926
287.926
287.928
287.926
287.926
287.926
287.926
287.926
287.926
287.926
287.926
287.926
287.926
287.926
287.926
287.926
287.926
287.926
287.926
287.926
287.926
287.926
287.926
287.926
287.926
287.926
287.926
287.926
287.926
287.926
287.926
287.926
287.926
287.926
287.926
287.926
287.926
287.926
287.926
287.926
287.926
287.926
287.926
287.926
287.926
287.926
287.926
287.926
287.926
287.926
287.926
287.926
287.926
287.926
287.926
287.926
287.926
427.666
755.757
431.856
768.157
756.065
783.656
733.715
582.676
622.492
724.914
613.384
677.717
702.843
685.734
734.007
711.819
768.984
744.034
693.456
752.7
794.927
770.388
754.312
730.857
721.364
767.454
804.861
797.386
663.876
691.248
475.965
428.744
461.942
499.477
437.653
506.153
427.719
708.559
775.623
780.006
783.346
749.857
732.727
747.43
743.643
719.443
690.415
671.99
713.119
655.67
718.129
652.527
703.042
668.839
616.103
603.88
701.969
683.084
626.575
733.45
519.475
637.621
704.995
701.757
670.345
661.523
429.864
701.525
563.53
758.761
858.711
853.992
834.516
737.935
837.96
842.551
737.392
864.978
858.792
893.881
894.169
889.487
845.38
881.12
869.158
856.199
822.585
800.666
844.258
809.355
836.415
787.138
801.341
838.399
798.788
777.423
832.137
778.944
833.987
819.424
850.399
807.362
780.54
853.278
788.866
788.664
821.383
821.65
778.225
779.113
810.89
810.016
766.911
762.844
790.676
789.416
799.957
769.688
800.23
784.264
817.099
808.966
776.068
772.498
804.896
808.462
738.173
760.792
760.011
753.076
754.222
732.69
734.522
749.813
722.289
744.582
776.233
769.478
749.329
764.238
573.861
422.034
514.838
594.872
585.882
640.066
517.849
653.448
521.237
585.423
288.192
288.03
287.927
287.926
825.635
819.743
823.526
821.86
831.488
837.061
829.209
839.886
830.62
839.756
842.696
827.383
802.229
766.089
798.879
769.643
725.29
739.083
742.821
721.119
717.768
710.684
712.05
718.884
739.184
715.189
726.979
721.439
744.131
713.363
718.985
757.093
287.926
287.926
287.926
287.926
287.926
287.926
287.926
287.926
287.926
287.926
287.926
287.926
287.926
287.926
287.926
287.926
287.926
686.474
707.617
641.856
364.833
290.519
296.145
288.728
288.191
287.95
288.871
287.926
287.926
287.926
287.926
287.926
287.926
287.926
287.926
287.926
749.203
735.072
731.945
751.366
733.047
748.816
733.311
740.484
731.431
745.212
733.685
748.48
736.278
735.007
730.483
728.496
696.354
705.563
735.885
729.847
758.711
724.571
705.37
728.422
717.269
728.681
718.685
696.205
770.075
771.277
767.804
787.281
788.279
797.128
795.97
722.275
724.124
722.354
720.239
723.082
719.546
723.062
724.72
732.014
726.811
724.252
729.037
726.673
735.271
713.49
677.824
687.778
705.9
708.705
679.648
670.843
767.718
771.367
766.664
788.815
789.212
797.297
796.971
749.538
750.8
750.405
731.113
733.009
733.325
734.866
733.008
737.257
745.337
735.988
735.367
745.359
744.236
780.813
769.863
758.275
732.039
782.753
757.886
794.85
729.404
716.626
734.124
717.755
694.743
725.933
702.886
724.453
751.94
720.564
687.675
641.835
714.551
670.183
750.516
733.556
751.654
749.792
736.422
737.397
735.99
722.853
718.728
717.048
721.464
722.071
722.874
725.08
771.524
733.79
694.463
730.531
693.069
729.374
762.396
751.575
742.067
738.683
727.859
710.496
732.871
716.585
706.73
698.119
664.273
627.147
669.882
673.88
629.403
705.318
703.696
705.738
678.881
671.422
687.598
681.537
661.907
696.875
682.113
585.335
607.36
637.003
615.73
730.363
731.119
725.258
725.496
733.135
731.253
727.395
672.968
714.496
673.36
710.711
706.744
667.06
666.365
858.886
861.79
759.944
655.64
913.438
915.353
866.95
908.344
802.495
847.15
760.292
686.378
700.571
675.854
869.163
914.594
864.5
915.69
916.892
867.967
865.725
873.474
914.997
915.558
879.894
916.251
872.28
880.539
868.777
908.948
882.173
886.179
882.516
886.543
868.586
837.161
847.626
802.126
798.196
847.523
837.026
798.704
736.641
759.998
762.347
726.779
763.512
726.693
734.089
721.023
702.689
689.182
709.461
703.489
716.601
715.581
723.612
680.234
709.343
662.29
719.3
671.723
709.412
620.254
572.546
718.603
643.116
649.352
678.954
660.776
698.457
714.176
963.356
587.391
473.244
397.284
287.926
287.926
287.926
994.353
959.34
608.269
454.255
394.465
925.914
991.553
918.82
847.02
839.956
594.725
521.48
508.507
415.433
409.089
431.775
403.8
342.41
384.439
405.274
832.537
791.913
812.206
774.092
593.964
507.19
518.931
423.812
406.787
396.266
421.179
399.296
403.326
379.831
403.414
313.169
290.671
313.482
391.195
369.83
330.483
287.928
287.926
287.926
287.926
287.926
382.565
287.928
287.926
293.995
287.926
287.926
287.942
287.926
287.926
288.82
287.926
287.926
424.136
287.927
287.926
288.068
287.926
287.926
287.926
287.926
287.926
287.926
287.926
287.926
287.926
287.926
287.926
287.926
287.926
287.926
287.926
287.926
287.926
287.926
287.927
287.926
287.926
287.926
287.926
287.926
287.926
287.926
287.926
287.926
287.926
287.926
287.926
287.926
287.926
287.926
287.926
287.926
287.926
287.926
287.926
287.926
287.926
287.926
287.926
287.926
287.926
287.926
287.926
287.926
287.926
287.926
287.926
287.926
287.926
287.926
287.926
287.926
287.926
287.926
287.926
287.926
287.926
287.926
404.577
288.063
288.655
287.926
287.926
287.927
287.926
287.926
287.926
362.677
287.935
287.926
428.632
287.933
287.926
432.352
289.511
287.926
287.926
287.926
287.926
287.926
287.926
287.926
287.926
287.926
287.926
287.982
287.926
287.926
424.178
287.928
287.926
287.972
287.926
287.926
287.926
287.926
287.926
287.926
287.926
287.926
287.926
287.926
287.926
287.926
287.926
287.926
287.926
287.926
287.926
287.928
287.926
287.926
287.926
287.926
287.926
287.926
287.926
287.926
287.926
287.926
287.926
287.926
287.926
287.926
287.926
287.926
287.926
287.926
287.926
287.926
287.926
287.926
287.926
803.919
814.694
815.669
823.914
824.271
832.911
834.121
643.814
638.273
621.963
572.775
571.92
593.923
595.143
704.303
713.51
706.902
669.344
670.017
681.546
684.474
786.958
768.172
743.579
700.35
710.687
757.212
803.782
725.748
711.39
729.949
739.808
732.049
732.865
717.522
665.716
634.187
674.314
706.171
676.749
684.356
647.735
802.937
816.186
816.14
824.086
834.426
822.208
834.266
670.693
628.873
634.431
674.017
563.307
572.062
602.724
628.554
580.875
602.418
655.76
644.5
618.734
599.203
744.974
676.292
683.29
732.135
719.553
672.678
668.251
616.201
612.216
550.314
559.259
558.193
605.789
548.804
785.209
810.053
786.999
811.971
828.584
808.097
783.54
717.99
737.099
724.44
676.517
694.543
672.443
688.933
702.602
748.069
710.194
775.404
745.227
739.427
697.085
423.261
430.216
287.926
287.926
287.926
287.926
288.451
287.929
287.926
287.926
287.926
287.926
287.926
287.926
287.926
287.926
287.926
287.926
287.926
287.926
287.926
287.926
287.926
287.926
287.926
287.926
287.926
287.926
287.926
287.926
287.926
287.926
287.926
287.926
920.314
914.336
912.217
909.853
886.802
920.054
881.641
921.346
921.096
883.017
885.093
884.75
919.594
912.998
878.659
918.845
881.743
880.384
943.929
887.508
767.972
685.782
943.614
661.745
933.776
661.33
726.221
951.743
923.262
941.569
824.09
968.76
916.372
915.919
640.644
820.846
540.427
783.169
929.092
854.101
815.479
615.221
804.272
637.02
794.903
518.887
770.899
498.624
543.407
727.152
569.961
752.305
508.136
579.568
499.361
768.452
510.449
449.013
454.035
937.716
944.273
940.02
944.232
944.873
940.998
936.836
825.899
641.586
836.299
665.798
645.724
839.358
822.537
932.721
940.225
933.66
921.593
940.712
935.877
917.899
823.604
667.398
641.635
824.296
647.34
836.83
810.966
850.99
915.184
894.97
888.045
890.347
887.139
856.469
738.219
622.065
795.218
607.606
781.417
591.355
752.154
805.535
853.964
822.48
768.793
854.128
811.511
763.338
689.909
571.445
531.269
657.052
558.457
703.025
645.488
705.774
797.8
733.764
778.501
729.152
782.701
709.008
588.563
513.802
620.436
507.481
611.105
507.306
595.121
693.423
771.788
779.213
683.995
778.195
694.073
685.581
577.549