/*--------------------------------*- C++ -*----------------------------------*\
  =========                 |
  \\      /  F ield         | OpenFOAM: The Open Source CFD Toolbox
   \\    /   O peration     | Website:  https://openfoam.org
    \\  /    A nd           | Version:  9
     \\/     M anipulation  |
\*---------------------------------------------------------------------------*/
FoamFile
{
    format      ascii;
    class       volScalarField;
    location    "0.0033";
    object      impulseMax;
}
// * * * * * * * * * * * * * * * * * * * * * * * * * * * * * * * * * * * * * //

dimensions      [1 -1 -1 0 0 0 0];

internalField   nonuniform List<scalar> 
28352
(
261.519
317.657
317.165
262.853
322.142
263.693
320.992
261.769
314.569
310.427
313.537
295.408
293.367
296.232
298.013
320.116
320.611
318.004
300.164
298.515
300.034
301.365
318.228
315.088
315.157
295.276
296.139
298.423
297.222
319.665
322.259
320.655
300.136
299.561
301.221
298.65
263.494
277.655
279.313
278.991
263.841
280.526
264.451
280.489
281.087
263.321
281.557
264.197
282.036
264.598
263.388
277.568
279.029
280.407
262.041
263.966
278.78
281.286
262.109
263.642
279.864
281.649
264.049
279.536
191.746
207.314
231.263
228.98
246.083
188.825
183.069
244.341
191.905
191.714
245.121
243.937
243.397
194.142
193.983
231.09
228.52
230.062
245.27
229.753
244.583
246.311
231.239
246.699
231.482
247.581
232.547
248.454
247.639
232.206
230.43
247.915
247.745
232.314
248.752
248.605
231.524
267.965
261.813
296.813
286.74
257.674
283.793
311.97
260.674
292.55
296.249
300.401
279.836
283.262
285.701
282.352
301.297
305.902
290.16
309.373
304.856
292.412
289.095
283.83
300.925
299.066
303.046
304.334
286.882
287.023
311.516
307.349
308.273
292.899
293.431
290.03
290.3
256.233
257.503
269.68
258.405
270.678
272.333
259.602
260.299
273.261
275.636
277.12
262.872
274.856
261.434
271.639
255.722
269.136
257.295
270.122
272.712
259.325
262.476
276.01
277.296
259.377
274.018
275.168
261.102
245.744
242.426
244.132
229.483
227.944
230.85
229.193
226.867
247.061
245.789
246.748
247.963
230.154
228.157
245.829
247
247.77
230.278
232.067
231.755
230.01
248.042
230.054
231.84
245.983
247.919
231.102
229.363
245.387
246.176
247.304
229.807
226.458
227.941
228.167
193.277
213.435
213.229
214.301
193.488
214.388
194.118
211.988
194.32
212.974
193.393
212.635
213.796
194.035
189.535
212.392
210.888
213.565
192.169
212.169
190.117
212.182
191.04
211.1
192.573
212.442
213.616
193.407
212.661
192.157
212.736
214.185
193.146
214.231
193.635
183.709
205.831
182.992
186.635
208.717
210.098
187.316
210.805
190.607
212.009
213.512
191.962
212.205
190.05
206.613
207.646
183.909
186.336
209.023
210.256
187.385
157.491
0.0452581
0.000155672
155.198
67.1416
165.621
53.9327
52.3253
163.368
39.7194
319.893
318.042
290.234
306.646
344.301
316.093
354.461
362.629
321.637
324.805
320.149
329.979
334.079
323.039
328.12
337.126
329.003
333.267
352.659
342.119
335.077
342.735
356.242
342.095
345.114
338.03
330.498
334.883
341.476
371.024
361.894
352.444
341.256
354.613
348.461
347.498
285.339
300.582
306.104
291.081
306.62
311.899
295.881
302.159
295.903
312.759
318.367
307.601
301.506
325.198
323.148
301.729
318.307
296.52
312.446
317.59
301.393
335.784
312.196
329.225
323.826
312.893
306.95
330.444
1919.93
4145.12
1815.2
554.093
1717.89
338.282
1709.71
404.056
688.959
960.276
1899.42
1823.52
835.737
719.996
1823.9
679.644
1336.53
1520.76
784.317
1110.67
796.396
813.607
600.893
548.578
944.858
464.903
739.435
590.764
459.436
403.739
492.118
561.15
380.816
528.66
389.014
511.668
1514.29
2805.53
3038.06
1919.63
1868.8
2732.16
1803.73
1215.63
2045.95
1286.46
950.637
896.056
1757.73
1254.83
1262.23
2352.69
1408.34
1048.09
1321.42
1846.01
914.925
1120.15
1245.87
766.383
778.248
1112.54
715.588
1072.25
639.06
633.442
1858.57
1786.63
714.55
1812.58
591.653
438.376
385.763
360.222
357.248
374.046
438.28
396.748
543.399
595.995
1759.41
1718.18
604.773
544.7
1766.95
579.186
1754.73
553.619
1726.36
549.33
1770.04
564.843
3687.94
585.778
492.041
469.311
338.012
366.871
404.072
359.396
692.876
1517.95
1395.57
797.423
1144.2
800.066
810.167
558.546
558.085
945.01
460.437
758.943
590.704
458.972
545.419
823.659
469.845
428.79
704.009
580.393
426.406
400.444
490.782
566.763
377.837
509.115
528.874
384.882
1535.94
3075.51
3125.33
2114.91
2576.4
1761.52
1656.04
1231.94
2286.45
1409.33
1042.67
1845.99
1322.26
915.957
1219.87
2034.08
1344.8
984.048
1843.8
928.099
1311.81
1057.58
1155.43
756.751
756.544
1154.23
723.166
1147.96
420.083
489.456
449.616
399.099
575.87
416.611
437.62
439.031
382.838
352.66
355.869
436.822
369.285
393.121
358.021
382.855
443.932
388.146
457.192
378.667
387.704
365.999
422.454
381.702
367.328
375.959
388.482
396.401
302.199
390.681
361.514
311.619
312.33
297.102
272.639
251.112
247.046
260.051
264.121
257.126
260.372
267.05
270.613
259.866
283.983
272.243
277.181
267.324
277.199
286.494
293.648
295.538
276.437
280.239
280.305
283.819
298.809
273.624
302.398
271.156
319.208
279.074
282.109
328.939
303.416
297.805
287.427
289.828
329.9
305.423
298.333
343.304
326.154
280.843
299.057
359.077
343.197
321.146
328.141
340.298
294.699
307.09
369.779
349.609
340.117
325.111
375.598
380.582
377.15
362.39
357.142
347.445
360.137
333.957
288.446
242.236
319.211
343.735
322.486
301.254
300.395
343.829
271.876
343.36
281.426
348.733
293.909
316.03
313.953
354.993
361.244
297.635
357.238
328.236
339.495
319.138
336.516
314.535
342.316
345.65
310.071
274.42
247.353
247.613
259.357
254.921
268.679
264.21
275.33
287.019
258.945
289.281
268.974
274.469
303.748
332.518
356.746
349.062
325.845
360.011
354.468
337.724
297.792
309.947
306.351
294.141
279.265
289.584
283.36
308.68
330.589
318.683
304.78
304.825
292.203
318.699
168.564
164.557
167.383
140.31
136.918
136.543
133.17
161.938
156.372
160.903
126.575
131.962
128.554
123.087
166.095
161.428
164.08
129.681
133.48
129.792
126.095
159.756
153.347
157.875
125.198
116.088
119.697
121.568
0.101043
8.85097
5.89883
0.0348014
5.05621
0.0148853
12.0716
104.826
62.3567
100.071
63.3373
100.69
96.0276
58.6528
90.2522
58.9152
95.8164
91.2253
49.4001
85.6997
54.3175
57.4359
90.483
95.3411
91.4225
48.7921
86.6776
53.8204
86.7017
76.5183
44.6477
44.57
81.2
82.0184
49.5405
165.787
9.55948
0.000204607
170.377
11.7514
0.000256154
135.752
3.32382
0.000119279
173.355
12.0963
0.000232493
94.5608
0.00497347
3.37487e-05
71.4789
173.001
75.6031
59.0198
168.01
54.4967
163.993
75.3914
70.283
172.273
59.1286
169.045
55.1349
165.876
68.6555
56.2126
151.074
51.7276
158.122
40.0789
145.805
115.706
127.828
141.038
18.8284
32.2557
50.8991
35.2102
189.485
184.378
237.851
231.702
223.7
217.357
191.474
187.295
240.984
226.413
237.996
227.66
242.333
239.438
224.864
220.677
230.949
234.64
232.364
236.118
221.649
218.007
290.816
259.123
265.131
292.819
245.16
298.324
253.473
280.799
285.748
285.571
290.298
269.164
271.193
273.937
272.289
289.061
286.778
290.96
273.809
276.673
276.326
279.191
298.577
295.278
294.796
276.237
277.118
275.977
274.717
280.694
298.954
296.235
298.357
295.02
278.641
277.994
262.192
250.691
253.672
252.098
255.024
266.906
263.989
247.357
256.059
243.759
245.435
248.884
261
258.125
250.792
266.524
263.799
252.084
254.913
267.416
264.546
247.999
261.267
259.094
245.849
249.042
261.724
259.13
240.447
242.029
239.278
227.542
226.134
224.865
223.618
234.932
232.613
236.152
221.73
217.148
220.636
218.091
193.058
208.259
210.429
192.128
210.859
208.388
190.153
189.583
203.074
205.821
205.575
185.161
202.386
187.843
209.386
187.15
206.917
191.086
210.649
208.116
188.874
203.974
181.043
200.461
205.134
183.176
201.682
186.243
281.996
298.453
280.513
300.887
347.766
326.622
377.565
357.58
316.706
314.252
320.985
331.764
338.332
325.187
321.968
336.38
330.719
322.89
358.465
348.098
331.529
339.076
344.761
363.62
351.373
334.285
338.971
330.475
343.019
368.722
371.073
360.268
340.252
354.144
348.467
346.869
280.074
297.525
297.608
304.116
287.827
286.1
303.888
304.555
279.539
300.107
287.646
307.133
285.949
312.014
316.592
297.474
310.948
293.228
291.733
310.114
318.224
294.242
298.356
314.283
326.384
292.015
321.727
319.197
171.157
173.073
171.232
147.551
146.796
143.032
143.525
82.4764
104.465
110.574
7.44017
2.40957
13.4471
18.8143
171.895
170.432
168.959
147.563
146.702
142.206
143.275
168.321
167.078
164.73
143.161
145.272
140.569
138.273
170.769
169.414
170.694
143.25
145.39
141.824
139.796
161.966
158.787
162.776
140.379
136.896
135.355
131.779
166.221
165.33
163.289
137.578
134.293
132.666
138.946
166.574
167.073
169.39
139.187
135.054
139.458
134.973
161.261
160.765
157.68
135.639
127.521
130.42
133.054
167.98
166.872
169.079
138.158
132.339
136.264
134.098
155.177
155.283
159.29
127.785
132.705
127.532
122.577
154.111
150.155
154.599
124.011
129.867
126.087
119.915
141.025
146.304
150.676
121.686
109.974
115.247
116.62
146.396
145.452
150.699
122.115
116.876
115.677
110.396
129.877
135.844
141.4
104.052
110.84
104.301
97.424
134.892
132.591
139.45
100.417
108.45
103.115
95.0246
122.201
123.243
129.487
96.9723
81.89
90.0445
88.8459
12.6829
0.131887
0.164896
0.0576043
26.0435
0.0461415
23.0015
1.57713
0.121532
10.1801
0.056707
25.9836
0.0421658
5.96511
109.141
73.5773
111.393
105.893
66.2386
103.597
68.3108
74.9285
113.635
112.854
107.425
70.3533
69.6603
108.287
113.471
74.4201
112.481
107.368
70.1885
108.231
69.2954
72.7255
108.183
110.74
105.754
65.3863
103.319
67.7066
6.6402
0.0530734
0.112158
0.0390242
21.051
13.2915
0.0179635
106.122
65.1399
102.336
63.4674
100.558
96.7938
60.0339
115.83
119.749
124.751
91.5754
86.1356
81.9308
76.4538
101.628
64.7839
96.8317
58.1438
95.6031
64.0162
102.653
99.9415
60.5258
56.6452
91.1129
93.7108
97.5288
62.6134
102.127
64.7436
97.1982
58.5169
102.791
96.7468
63.9906
100.698
60.3501
57.1994
93.4274
98.4364
95.512
62.5377
57.7778
87.8483
94.4123
90.6174
48.3777
83.9521
54.4054
97.5447
107.15
113.876
72.969
79.9205
70.2375
63.339
60.9761
92.5852
97.8133
92.3231
51.3348
55.9755
87.1616
88.9142
100.285
105.763
60.4218
71.5137
66.0489
55.0322
86.1623
45.9277
44.4825
74.3163
79.4406
50.4444
81.0489
0.00353764
0.0102155
8.84887
3.79481
0.0375713
10.4368
0.0125956
86.6719
46.1528
81.3182
45.0882
80.0953
74.8062
40.4851
265.219
259.343
288.254
282.701
271.883
276.784
257.673
240.117
286.388
277.797
291.916
281.341
287.027
268.084
274.203
272.564
278.474
282.539
260.915
267.303
264.511
270.735
276.5
292.447
283.672
287.761
272.445
275.801
279.861
297.037
286.832
301.725
296.991
292.242
279.218
283.321
264.128
244.153
250.059
242.939
255.088
261.595
248.493
249.952
244.596
241.634
255.993
252.593
258.891
246.666
253.577
255.832
267.928
249.514
261.388
264.176
251.854
257.769
270.5
272.936
269.159
255.44
266.762
253.832
82.6629
0.248842
0.000270294
0.368246
0.000338675
43.9471
0.0854454
0.000158683
90.382
85.0278
0.274957
0.000297221
163.455
33.4375
0.000200833
99.371
0.00165782
4.46574e-05
85.7084
183.766
177.635
175.032
76.1211
175.081
80.3633
69.4203
164.223
172.003
166.402
73.2282
60.5023
158.879
179.362
90.2652
180.728
176.007
80.1458
74.9152
172.518
67.8325
81.7544
171.57
163.371
71.7055
170.108
58.2098
142.279
63.7908
156.265
36.0104
139.751
55.0775
152.106
214.019
238.152
240.553
216.822
193.327
189.788
227.064
209.387
232.215
212.352
194.354
195.005
228.519
236.038
211.501
233.588
213.125
208.345
187.417
178.215
225.449
219.776
204.562
198.555
191.413
228.552
236.14
191.463
226.135
203.585
215.73
199.377
226.748
228.506
228.645
219.248
220.846
219.767
218.022
234.901
235.308
232.518
221.123
224.44
222.862
222.116
224.792
223.652
222.815
217.299
215.086
216.025
213.831
226.274
227.614
242.467
236.924
238.582
224.99
224.142
219.578
228.968
232.231
227.354
229.973
219.181
217.031
230.819
229.825
230.527
222.829
222.052
221.228
222.356
231.938
235.548
232.012
222.575
220.996
222.065
223.103
234.711
231.853
231.436
222.988
222.705
223.211
222.975
211.191
225.678
222.437
224.758
222.264
214.767
212.403
243.961
228.834
244.92
240.73
239.876
225.484
225.481
231.567
221.667
219.567
217.824
230.895
235.833
220.316
221.808
218.671
220.823
210.091
212.717
211.464
208.843
227.65
245.33
245.184
241.116
224.993
240.971
223.928
205.427
219.328
216.346
217.428
219.86
209.912
207.238
229.883
213.202
228.363
233.655
235.041
218.48
216.097
223.94
244.495
243.181
238.948
240.276
222.29
220.016
211.137
196.591
198.447
209.533
194.774
207.742
196.624
213.123
199.71
200.523
210.809
198.627
211.665
197.848
194.5
208.354
210.051
209.265
196.466
210.465
195.587
191.796
204.181
206.416
207.743
192.401
205.83
194.278
211.188
194.923
211.793
211.165
196.619
211.069
196.184
209.927
196.736
198.539
195.093
209.413
210.72
196.818
212.539
199.765
200.479
211.49
198.599
211.834
197.948
207.117
191.214
194.134
192.373
205.557
203.081
189.544
193.168
211.959
211.528
193.771
210.001
210.846
195.273
184.704
201.731
199.072
190.069
203.648
201.168
187.344
201.714
184.338
187.953
200.286
182.802
186.359
197.185
181.647
196.217
193.126
198.41
180.768
184.248
195.361
205.385
207.846
194.361
192.824
207.664
205.491
190.031
189.027
210.495
208.827
191.719
208.673
206.792
189.117
184.326
188.099
202.583
202.865
183.053
199.752
186.764
201.316
186.028
182.383
182.36
186.009
206.535
204.346
106.472
126.653
120.235
39.0618
36.543
9.43437
21.9828
262.324
274.953
256.135
242.664
262.35
270.514
269.122
238.604
251.326
268.996
255.274
263.967
270.351
252.031
258.019
266.328
275.225
272.55
257.707
254.795
261.025
264.104
282.405
284.863
273.4
280.414
277.841
266.382
269.337
260.732
280.474
265.408
267.752
280.773
275.86
263.477
234.544
244.402
235.158
235.73
243.543
247.17
237.51
236.985
247.482
245.075
250.136
242.385
253.078
240
244.453
252.907
240.942
248.752
237.775
252.012
240.858
259.321
247.818
250.899
255.275
246.855
258.429
243.914
180.846
181.636
182.911
157.742
160.938
158.576
160.05
179.57
179.574
181.567
156.33
156.386
154.19
158.581
177.369
179.551
181.549
155.937
156.163
153.636
158.429
182.918
183.709
181.54
160.864
158.453
157.521
159.975
175.106
173.868
177.011
153.559
151.392
147.889
150.053
166.022
168.361
170.194
143.678
140.954
138.77
145.849
167.781
165.679
169.998
142.507
140.089
137.368
145.186
171.848
173.769
176.928
153.331
147.544
149.593
151.253
175.936
178.169
178.927
154.676
151.674
150.92
155.442
175.425
178.098
178.853
151.529
155.273
154.313
150.629
174.305
176.803
174.864
152.718
146.828
149.101
150.401
174.779
173.779
176.971
153.219
150.643
146.934
149.564
169.512
172.557
169.394
144.797
148.486
144.994
141.324
167.075
169.148
172.315
143.807
147.385
143.639
140.028
161.853
162.898
165.936
140.785
132.211
137.13
135.867
158.995
161.033
165.375
139.159
130.247
135.521
133.956
154.471
159.605
161.39
135.373
133.165
126.847
129.086
149.121
154.307
157.26
126.561
130.236
123.879
120.162
144.179
150.565
148.733
119.778
114.236
111.923
122.054
136.539
146.306
143.231
116.762
105.023
112.991
108.856
128.764
134.974
136.969
105.593
103.244
96.1057
93.7277
0.29277
52.4201
48.473
14.0588
15.115
0.171775
0.215236
125.427
89.5551
128.925
87.832
87.0369
126.294
128.019
123.33
123.474
87.5527
82.4319
84.9528
120.729
126.054
0.364019
47.7686
52.3027
14.4937
2.06313
0.159427
12.3729
123.867
88.0216
124
83.2684
121.493
85.5412
126.418
120.495
80.0682
114.04
78.2759
116.303
118.178
82.2868
128.821
87.6856
126.15
125.115
89.2846
86.6902
127.815
123.826
132.309
128.919
96.2371
100.127
90.5715
86.6397
120.837
80.261
118.365
114.464
78.9058
76.5411
116.919
0.119037
45.888
34.9006
11.5859
8.23256
0.0695831
0.146
121.996
84.4792
79.6645
118.523
117.757
83.7315
122.806
84.2939
118.309
122.613
121.548
79.1361
117.256
83.2833
0.103802
0.229415
44.9698
0.0598158
0.132715
10.8714
7.45335
119.739
79.0194
77.4015
112.879
115.47
81.5356
117.126
120.111
79.1675
117.349
113.197
77.7655
75.1987
115.974
75.7738
109.49
113.739
109.583
67.8088
105.313
71.8379
109.808
74.4754
106.856
67.1422
72.1522
104.435
112.248
77.1103
110.994
115.088
111.215
69.6303
107.163
73.442
108.302
105.465
73.1063
65.3461
102.695
70.5724
111.082
106.586
64.1591
65.3702
97.2856
102.58
69.1088
101.243
104.687
62.0945
94.7959
63.287
100.395
99.0826
67.2596
72.2236
108.816
74.6215
117.18
119.409
85.7763
83.3778
0.0238321
15.7989
30.3916
0.0135717
10.892
4.84779
0.0495801
100.784
61.5622
98.3851
91.686
57.6364
55.4633
94.0653
103.333
65.1055
69.0453
110.394
114.187
80.1947
76.2355
58.6454
91.3113
95.2221
88.5506
49.1489
84.6807
52.6214
84.3514
78.723
51.004
41.908
48.8938
76.3893
86.7086
81.2447
39.2467
69.518
42.7682
77.4114
46.1345
73.3134
40.8937
68.5697
75.2698
68.8265
29.9545
62.1944
35.4063
93.9838
75.3273
86.9189
59.8874
42.4539
53.1099
49.0056
38.8401
65.0284
72.8731
67.6421
28.0614
34.4119
59.8699
1.13627
0.00791477
4.36211
0.00248772
1.8206
0.0139552
11.2158
70.1175
34.5986
67.8111
28.946
60.9288
58.6611
27.1321
29.0088
52.0127
61.0289
32.0682
64.7722
55.6792
24.7876
61.7422
47.7004
23.5362
24.4312
55.2177
29.5686
54.0738
0.828682
0.00593644
3.32049
0.000885462
0.228571
1.90879
0.00219195
25.4964
47.7003
56.6093
21.6286
51.5499
42.7908
15.4195
51.747
50.2118
49.5682
20.7949
20.3581
18.851
19.2614
50.4402
46.3777
48.2987
18.1432
19.4693
18.0077
16.7453
50.0747
51.4604
49.2347
20.6952
19.1555
20.1204
18.5991
43.8806
14.775
43.317
47.3508
46.7437
16.9621
17.3395
49.948
45.5808
47.7355
17.599
19.0747
17.5927
16.1789
42.8667
14.9953
43.6948
47.1872
46.3481
17.2262
16.6948
43.8398
42.7241
40.7305
16.4371
15.1195
14.4315
13.2109
13.0183
14.3639
41.1684
21.4096
51.2297
49.0241
19.7826
12.9768
42.1514
40.3567
43.659
45.5236
16.176
14.9957
39.3425
13.6049
41.4114
42.7437
44.8636
15.7415
14.4092
42.8186
41.6043
39.5023
15.7667
14.4296
13.6665
12.4348
38.9028
12.5592
39.7019
35.3326
34.5818
9.64704
10.0552
39.8945
12.3863
39.3633
35.5081
34.9942
9.92315
10.1724
15.2818
32.9567
42.5845
36.3065
11.3394
46.1297
17.7086
39.0382
33.046
37.1082
9.92726
12.222
11.1183
8.96286
9.97
37.9623
35.0196
41.1848
38.1477
13.4743
11.6943
9.19595
36.7055
33.5547
40.0342
36.7904
12.77
10.9158
10.7901
38.2521
36.5324
32.2823
33.927
9.38194
8.5632
39.7442
17.546
45.9003
37.3584
8.6655
31.5123
11.9674
35.4963
11.287
37.4958
7.98809
31.334
33.2452
8.94189
37.734
31.4916
35.7002
9.10175
11.4029
10.3006
8.15399
7.39019
32.9488
29.9115
6.85831
28.8924
25.9807
5.63948
8.1433
34.2344
31.411
30.0921
27.4106
7.52008
6.33223
6.48767
31.5953
27.7708
30.6506
34.6103
9.75935
7.78858
29.9672
26.0319
5.75648
28.9957
33.0828
8.95596
7.0125
12.6225
29.0813
38.4402
33.7659
5.50871
9.88145
24.7793
30.8472
25.5229
30.3362
7.55356
5.61257
5.44375
7.75934
30.7171
25.3849
30.0351
7.32566
5.55325
7.66291
5.30001
28.6286
25.612
23.9593
7.67912
6.87224
4.97286
5.61071
27.7263
24.5054
29.298
7.10846
4.56881
5.08886
6.43994
26.9804
22.5769
4.26447
24.2453
28.7852
6.74441
4.85763
5.15631
28.1301
24.4794
20.8734
24.3075
5.09162
3.89456
26.4628
22.6969
4.48383
19.1111
22.6807
4.42596
3.30147
25.6511
18.7198
23.131
3.92915
5.59901
4.65722
3.22584
3.41773
19.3256
23.6404
26.3578
21.8396
5.90182
4.21971
24.6602
20.4293
3.57643
17.8824
21.8948
4.09505
2.8553
28.6642
15.5127
3.79345
4.90369
23.2798
7.24079
20.1866
17.0866
16.0971
20.2409
3.69338
1.86653
2.51961
2.77992
2.63145
16.5173
20.5592
17.2307
13.5399
2.8186
1.92098
20.6839
14.4705
19.1701
3.37567
2.45437
2.13417
3.84457
15.475
15.0483
18.7875
3.15472
1.55418
2.30425
2.16247
1.39571
2.25676
15.003
12.805
17.2488
2.82861
1.76795
378.773
403.052
347.01
338.68
333.836
348.882
356.475
379.833
368.106
345.34
363.533
373.736
350.457
353.208
358.074
388.423
371.269
380.618
361.938
355.743
363.173
369.354
388.973
392.852
383.677
368.709
361
365.712
373.06
382.389
376.461
396.273
397.399
389.564
370.626
377.538
314.524
326.957
308.414
313.735
332.086
338.963
319.797
340.662
320.391
325.593
345.526
330.502
325.459
351.682
329.537
323.89
342.352
318.907
337.187
343.851
324.804
360.255
334.897
356.05
355.076
334.58
350.261
330.252
304.789
314.201
286.12
261.418
260.477
275.541
245.737
260.001
291.412
281.28
296.833
296.289
301.656
278.949
284.624
309.829
300.891
306.083
284.565
282.081
287.575
289.895
301.847
290.189
306.416
310.89
306.538
289.355
293.268
317.837
314.759
310.745
292.124
297.687
295.797
294.224
266.367
245.079
251.246
245.709
262.003
268.33
252.069
261.18
275.073
276.852
271.347
256.656
273.206
257.43
264.812
246.001
263.696
269.875
252.162
270.844
252.414
278.165
278.889
261.093
274.629
257.431
275.475
257.716
1.05014
1.71117
12.5392
6.81291
9.98928
1.23549
0.753194
13.7992
7.70294
10.5411
1.3122
1.97706
1.33064
0.876905
10.1155
7.23893
6.41236
1.45615
1.25943
0.812796
0.700866
7.25678
0.814856
8.76388
5.42329
1.03767
0.57486
0.448426
4.92726
5.27662
7.51222
0.849442
0.331633
0.555544
0.513712
5.7056
0.609258
4.23393
2.3781
0.433224
0.331762
0.232383
0.355623
3.70222
3.57754
3.1439
0.321417
0.310563
3.2533
0.0195666
0.000311433
0.0157125
0.000395549
0.0335942
0.000376071
0.0267628
0.315608
2.80141
3.20018
2.80164
0.239518
0.275061
2.44749
0.0145583
0.000332873
0.0183659
0.000350099
0.0249852
0.000387369
0.0331696
0.329781
2.95971
3.32367
2.9195
0.255903
2.59718
0.288147
3.66645
0.346579
0.317558
3.21929
3.49918
3.06859
0.302202
2.12567
4.16613
3.62567
0.207461
0.426524
0.36595
0.176765
2.52379
0.217518
2.21121
0.202841
2.06014
1.80253
0.177306
0.0132393
0.000219884
0.00639101
0.000314782
0.0226481
0.000252757
0.00193475
0.0054487
0.000222301
0.00196833
0.000246851
0.0119923
0.000281811
0.0207159
0.193315
1.97313
1.75179
2.45403
0.214098
2.18047
0.241027
0.208178
2.20086
2.12673
2.64429
0.268632
0.259688
2.73634
0.201675
0.212258
2.17187
0.265182
2.70465
2.57464
0.252215
0.090283
1.06832
0.929314
0.140777
1.44734
1.25926
0.122478
1.63049
1.87515
0.183323
2.3458
0.199703
0.229473
2.04405
0.118986
1.48863
1.21236
0.181949
1.8537
1.50988
0.148294
2.34738
0.199744
2.04603
0.183624
1.88264
1.63875
0.159832
2.34514
1.47716
2.99684
0.297643
0.108802
0.22953
0.142426
2.94609
1.00882
1.59626
0.184574
0.291193
0.153513
0.0959136
0.0147976
0.000243122
0.0118408
0.00521004
0.000190167
0.00423288
0.000182577
0.0109114
0.000251076
0.013854
0.0038791
0.000173177
0.0051041
0.000192308
0.148325
1.51657
1.34737
1.11609
0.097144
0.9929
0.109151
0.159622
1.68897
1.63333
1.20022
0.121088
0.117337
1.23957
0.15409
0.1624
1.6634
1.1545
0.119108
1.21908
0.112887
0.158515
1.20881
1.61066
1.40858
0.104013
0.13855
1.05687
0.106118
1.35846
1.08631
0.166361
1.70531
1.36455
0.133076
1.24244
1.43071
0.139878
0.0888394
0.907596
1.04621
0.102376
0.00400995
0.000196153
0.00888252
0.00312326
0.000146149
0.000118102
0.00149828
0.0806799
1.03419
0.82628
0.0737075
0.754475
0.601441
0.0586806
0.00995344
0.000164924
0.00473056
0.00350587
0.000866126
0.000151672
0.000125199
0.0913638
1.1454
0.932901
0.0826341
0.84481
0.688107
0.0672436
0.092909
0.946732
0.70935
1.1795
0.0869114
0.115862
0.884582
0.0751564
0.773309
0.614973
0.0812641
0.834066
1.04804
0.101982
1.7321
0.572985
1.20916
0.0785497
0.16744
0.115792
0.053761
0.846093
0.0850428
0.593839
0.0558143
0.574588
0.0824615
0.873352
0.813175
0.0835822
0.585352
0.0537542
0.858812
0.555074
0.0791591
0.870278
0.0745638
0.760431
0.523741
0.0587679
0.0511927
0.600392
0.00436522
0.000112327
0.00138476
0.000181915
0.00131598
0.000132995
0.001037
0.787274
0.0683358
0.0519226
0.474095
0.533697
0.700827
0.0767764
0.0621261
0.638365
0.435537
0.736595
0.0487249
0.503098
0.0717265
0.0711219
0.727989
0.544248
0.536083
0.0388031
0.0521925
0.399032
0.465495
0.0616691
0.633341
0.458946
0.0326379
0.334789
0.0446688
0.05798
0.402112
0.596254
0.484939
0.031586
0.325493
0.0470587
0.0338486
0.508282
0.347079
0.0621334
0.635523
0.436296
0.0425552
0.0513815
0.529186
0.359694
0.419659
0.027473
0.283326
0.0407139
0.3737
0.498681
0.798325
0.0755289
0.0210431
0.0466204
0.0345334
0.00306467
8.30654e-05
0.000957973
0.000457451
5.98861e-05
0.000654813
8.67819e-05
0.376139
0.0268705
0.0242868
0.183943
0.250765
0.0362974
0.278012
0.0255315
0.387931
0.262841
0.0273422
0.282278
0.189602
0.0185319
0.342448
0.0381632
0.244625
0.020686
0.0331554
0.211656
0.394018
0.317361
0.0222672
0.0205637
0.151382
0.228924
0.212193
0.0306623
0.0217583
0.136692
0.223869
0.283523
0.0171001
0.0274458
0.174197
0.0188391
0.127888
0.194754
0.129752
0.00856887
0.0845716
0.0127579
0.0163223
0.101817
0.167937
0.1202
0.00746296
0.011852
0.0723228
0.000252772
6.59578e-05
0.00063422
0.000324512
4.98608e-05
7.83783e-05
0.00062155
0.142353
0.0120878
0.122704
0.0079688
0.0782999
0.0672484
0.00691633
0.0782191
0.00994396
0.100338
0.0546571
0.00460921
0.0423125
0.00571898
0.0813766
0.0308931
0.00510288
0.00545532
0.0524702
0.00803204
0.0484355
0.00016922
4.57653e-05
0.000377299
0.000108301
2.97096e-05
0.000218514
3.68626e-05
0.0575703
0.00440206
0.0404289
0.00351439
0.0308322
0.0214665
0.002681
0.0191389
0.0043335
0.0396271
0.033842
0.0022382
0.0163189
0.00380805
0.0324865
0.0293227
0.0283802
0.00396811
0.00355065
0.00361833
0.00388975
0.0315848
0.0289398
0.0275575
0.00391478
0.00377147
0.00356871
0.00344136
0.0300778
0.0234317
0.0263064
0.00340704
0.00345165
0.00316629
0.0037283
0.0286508
0.021817
0.0250023
0.00319095
0.00350428
0.00319843
0.00292313
0.0271188
0.0100087
0.00260542
0.00190489
0.020806
0.0130175
0.00314775
0.0166725
0.00301617
0.026448
0.0139163
0.00149613
0.0087877
0.00192131
0.0189691
0.0243271
0.0235677
0.0031384
0.00281318
0.00275634
0.00320604
0.0176061
0.0194894
0.0218696
0.00293025
0.0024107
0.00257028
0.00272914
0.0166704
0.0181209
0.0207641
0.00278065
0.00225177
0.00243955
0.00254697
0.0192854
0.0239943
0.0228551
0.00277311
0.00316111
0.00304765
0.00267773
0.0198278
0.0185461
0.0162561
0.00300624
0.00277017
0.00265745
0.00246623
0.0180877
0.0166419
0.0145428
0.00273331
0.00239012
0.00250754
0.00220987
4.36865e-11
9.42599e-10
1.80387e-08
3.20598e-07
5.15961e-06
0.00138647
0.0123321
4.51995e-12
9.70963e-11
1.84554e-09
3.31174e-08
5.47712e-07
8.22951e-06
0.000102834
3.21961e-13
7.9428e-12
1.49149e-10
2.61969e-09
4.28326e-08
6.3263e-07
8.16272e-06
3.39545e-15
4.93067e-13
1.00679e-11
1.72939e-10
2.73215e-09
3.91213e-08
4.84057e-07
0
6.4271e-15
5.25567e-13
9.59784e-12
1.47125e-10
2.02094e-09
2.41412e-08
0.00739774
5.89758e-05
4.70897e-06
2.32553e-07
19.4771
168.883
5.43345
0.000946015
2.42456e-05
1.71914e-06
199.646
94.3137
31.5472
0.000133277
7.12657e-06
21.1726
164.465
291.025
345.693
7.72412
140.961
173.36
318.687
393.09
0.157126
80.397
207.817
245.856
320.152
0.00182913
0.000280162
1.55001e-05
1.24487e-06
0.000223629
5.64957
31.5446
179.389
214.55
1.59626e-07
3.46362e-06
6.72223e-08
1.30702e-06
1.712e-08
4.0193e-07
3.05936e-09
6.71962e-08
4.54945e-10
9.865e-09
1.86544e-07
3.20609e-06
5.91423e-05
9.14079
115.708
125.144
5.85712e-11
1.25796e-09
2.38439e-08
4.15359e-07
6.50641e-06
0.00161059
8.16846
103.127
6.05614e-12
1.3094e-10
2.49613e-09
4.47619e-08
7.38737e-07
1.11339e-05
0.00442469
10.5818
4.50746e-13
1.07821e-11
2.02145e-10
3.55077e-09
5.7709e-08
8.41226e-07
1.07461e-05
8.25141e-05
7.88229e-15
6.84425e-13
1.36855e-11
2.34156e-10
3.68178e-09
5.2044e-08
6.31249e-07
5.85004e-06
0
1.34605e-14
7.33174e-13
1.29801e-11
1.9785e-10
2.68822e-09
3.15262e-08
2.93806e-07
202.416
170.105
200.253
92.2818
152.654
0.00175531
42.0601
2.53362e-05
0.000213744
2.19753e-06
1.00351e-05
267.805
309.91
240.516
293.583
282.247
303.592
227.912
256.098
362.792
428.128
386.259
365.788
320.739
366.784
407.934
363.626
327.744
277.059
345.891
311.983
261.693
306.725
330.038
404.014
392.823
367.898
281.658
297.969
379.326
329.108
317.887
318.833
300.13
307.615
288.07
297.317
309.839
287.908
292.341
295.603
299.73
282.189
279.735
446.972
437.148
455.526
436.359
427.839
410.538
419.588
427.905
418.34
437.873
409.011
418.815
400.796
390.627
181.654
132.131
180.407
178.657
202.19
161.416
138.029
159.357
244.321
197.502
143.134
206.195
220.863
186.039
182.718
133.448
181.549
200.837
182.659
182.108
133.254
289.863
260.868
280.924
268.689
253.721
276.134
249.329
257.533
272.327
274.987
265.185
247.024
263.811
247.885
407.772
397.422
417.831
391.57
381.836
401.711
370.641
386.572
375.293
397.037
381.042
351.856
360.188
371.133
369.414
290.504
316.267
303.21
352.543
243.048
272.158
415.465
384.665
406.992
391.023
378.755
400.064
369.769
388.567
375.903
398.08
381.463
351.48
360.519
371.764
227.596
281.234
257.154
275.935
243.429
216.759
171.217
306.033
286.172
296.496
276.869
271.454
284.359
267.042
283.218
288.704
290.826
273.614
265.184
265.789
272.441
400.704
396.322
392.91
365.689
376.305
368.727
373.347
375.943
388.206
384.772
357.694
352.177
349.175
360.743
375.347
351.857
340.414
360.059
348.677
326.812
337.147
353.245
327.529
331.838
334.09
339.535
320.503
317.988
263.87
307.006
273.288
201.231
210.653
226.362
219.122
177.9
302.653
288.246
314.426
335.035
206.136
233.002
281.715
238.44
225.258
256.183
234.269
270.473
280.839
312.563
265.016
277.215
308.438
270.113
260.58
301.023
229.577
167.667
192.343
92.5251
181.455
231.703
10.9503
210.241
41.2398
101.27
125.017
157.441
182.853
205.382
72.5922
55.9256
60.1148
68.6929
59.1575
78.6651
1.22752e-05
8.94034e-07
3.96294e-08
3.93913e-06
2.28851e-07
1.02457e-08
166.063
149.922
197.539
135.274
89.2264
91.2112
129.747
140.236
97.3218
93.9116
144.745
145.634
177.97
230.585
271.884
163.167
204.948
223.524
190.466
239.171
252.577
83.1895
182.197
0.00110636
5.70174e-05
191.748
130.092
73.1117
84.5613
82.5132
58.1574
52.8209
104.665
60.9298
63.2852
98.051
48.5701
120.647
4.91845
22.7062
85.0018
0.707092
35.58
27.7625
46.1383
95.3067
110.881
58.4732
80.9692
58.0044
38.4155
62.0745
54.3888
49.8709
90.2351
106.002
75.692
80.8369
93.9403
115.55
87.0799
84.4691
123.267
105.865
46.5934
0.306551
0.016752
0.233553
20.1669
0.00170837
0.0336604
0.000582069
38.071
8.51118e-05
6.51702e-06
2.98622e-07
93.6387
0.963665
3.6765e-05
3.18672e-05
1.78194e-06
1.68663e-06
8.77839e-08
234.394
112.86
240.641
319.996
102.738
163.087
6.25895e-08
1.2159e-06
8.25094e-09
1.72464e-08
1.25874e-08
1.84401e-07
1.37117e-06
9.29202e-08
3.6469e-07
2.15814e-05
0.00331672
3.09987e-05
0.012694
3.0502e-06
2.67448e-05
2.84613
9.22532e-05
10.0553
0.0451339
136.594
0.462571
1.32614e-10
3.03804e-09
2.23025e-10
7.8745e-09
2.6185e-12
8.60867e-13
6.30583e-13
2.96131e-13