/*--------------------------------*- C++ -*----------------------------------*\
  =========                 |
  \\      /  F ield         | OpenFOAM: The Open Source CFD Toolbox
   \\    /   O peration     | Website:  https://openfoam.org
    \\  /    A nd           | Version:  9
     \\/     M anipulation  |
\*---------------------------------------------------------------------------*/
FoamFile
{
    format      ascii;
    class       volVectorField;
    location    "0.0033";
    object      rhoU;
}
// * * * * * * * * * * * * * * * * * * * * * * * * * * * * * * * * * * * * * //

dimensions      [1 -2 -1 0 0 0 0];

internalField   nonuniform List<vector> 
28352
(
(-10.4839 28.9312 78.4441)
(-33.1204 8.85273 70.918)
(-33.8085 -9.45706 70.9351)
(-10.7462 -13.342 87.769)
(-29.5378 -13.77 81.1196)
(-0.835547 -15.5104 107.778)
(-30.2523 7.95458 79.776)
(-0.493786 29.3492 103.667)
(-33.8657 -18.981 72.6119)
(-36.2383 -17.5913 65.6715)
(-35.5734 -8.28905 65.4465)
(-28.264 -4.08787 67.5135)
(-28.5591 -14.3211 67.2948)
(-25.847 -15.693 76.753)
(-26.164 -5.02195 75.8453)
(-31.9024 -11.4672 75.9899)
(-28.2052 -23.6074 84.0046)
(-31.137 -21.0672 78.623)
(-18.681 -19.6309 95.4326)
(-22.3763 -17.5427 86.1569)
(-23.2563 -6.4242 83.9395)
(-20.0178 -8.05092 91.8016)
(-33.6942 -0.420379 70.1698)
(-34.0992 8.63873 66.8226)
(-34.9897 0.529809 65.4765)
(-27.5636 15.8424 67.5768)
(-27.9731 5.9819 67.397)
(-26.397 5.51418 74.5429)
(-26.3935 15.9919 74.0023)
(-32.1199 8.37559 75.1987)
(-30.4554 -3.42922 80.0426)
(-32.4904 -1.90247 74.9589)
(-24.101 4.67364 81.6447)
(-22.1983 15.561 86.809)
(-21.4077 3.50972 88.7569)
(-24.5816 15.8202 80.3149)
(-6.18415 -14.2294 97.1316)
(-19.1259 -12.5903 71.7635)
(-15.9907 -13.6656 81.667)
(-19.1197 -0.680648 70.7336)
(-10.5971 1.35329 84.0398)
(-16.7195 -1.61791 80.1307)
(-6.93723 0.556949 92.9737)
(-11.9953 -15.2714 92.2009)
(-7.48048 -17.345 103.475)
(5.34434 -17.3157 119.763)
(-13.2062 -2.83556 89.8628)
(3.22457 -1.84371 114.011)
(-9.09835 -4.32316 99.9504)
(-2.19326 -0.447184 102.901)
(-10.7817 14.9665 81.2251)
(-19.1487 22.4958 69.2144)
(-19.2943 10.7153 70.1411)
(-17.3663 10.3301 78.51)
(-8.0435 29.2281 86.0928)
(-7.87808 14.6699 89.551)
(-17.673 22.724 76.7982)
(-14.2421 9.78402 87.1014)
(-4.39986 29.4468 94.3758)
(0.945563 13.4419 108.726)
(-12.2225 22.6184 92.5908)
(-10.7815 8.91826 96.0491)
(-3.63883 14.2606 98.5962)
(-15.1368 22.8123 84.5059)
(30.4347 7.12663 284.918)
(51.7925 3.83654 269.847)
(5.80603 -20.9745 176.121)
(23.9879 -23.271 198.411)
(-2.1582 35.9487 102.688)
(42.37 59.0059 328.945)
(72.0176 60.5913 367.267)
(12.6279 36.5212 129.456)
(-1.99918 54.8701 292.431)
(18.9165 57.2676 305.267)
(-10.1026 34.5813 93.1141)
(-13.6521 33.438 90.4793)
(-25.3241 -21.255 105.718)
(9.21656 10.6587 260.337)
(-7.84227 16.9392 239.159)
(-9.86883 -20.4578 162.811)
(-22.956 -19.7584 153.331)
(-16.7585 -20.2798 157.865)
(-20.1988 -18.6119 107.072)
(-21.5627 -1.05606 150.365)
(-22.3031 -0.0917906 97.6834)
(-17.7309 1.75331 99.1997)
(-14.9691 1.02389 151.325)
(-14.8254 -16.9995 110.061)
(-2.36044 -20.6418 168.769)
(-9.52697 -16.556 115.087)
(-1.48872 3.13408 158.158)
(-8.63764 2.76761 107.224)
(-13.1192 2.58269 102.242)
(-8.34421 2.49071 153.829)
(14.3937 -21.8861 185.974)
(-3.21581 -16.5167 121.48)
(2.94069 -17.2941 130.467)
(5.82524 3.23366 164.159)
(-3.08447 2.61584 113.369)
(2.02425 1.85077 122.115)
(13.2771 2.61301 173.087)
(-27.2274 -13.1198 44.8651)
(-15.6719 -13.1193 80.413)
(-39.1892 -14.7486 42.6627)
(-31.4843 -12.3992 50.0363)
(-18.2761 26.8648 63.1598)
(-25.7111 12.0952 47.7032)
(-35.1678 8.42978 62.5873)
(-13.4886 28.3846 72.3602)
(-35.2233 -15.3817 36.8287)
(-33.4877 -8.87905 42.4316)
(-38.1532 -7.1463 45.8794)
(-30.1502 -12.8108 36.4009)
(-32.0765 -12.3076 42.3363)
(-31.5421 -2.61169 43.9393)
(-28.7937 -3.06705 38.4704)
(-38.9398 -15.3412 50.4126)
(-38.1494 -16.3755 58.2745)
(-30.6944 -13.2427 58.4124)
(-37.3602 -7.60287 59.4574)
(-38.4646 -7.16654 52.705)
(-30.3142 -3.49694 59.544)
(-30.8962 -2.82199 51.5288)
(-27.5441 5.01037 42.2336)
(-21.1246 -4.97726 72.3729)
(-29.5004 -5.17139 53.4634)
(-36.2652 -0.349836 50.3654)
(-32.8093 4.2442 58.9098)
(-29.6735 14.3995 49.4167)
(-31.0217 5.99344 46.5221)
(-36.404 0.750113 60.4336)
(-37.6932 0.338658 54.8007)
(-35.8038 7.76578 58.5305)
(-28.9826 15.2711 61.4381)
(-29.7214 6.01336 60.5491)
(-29.9934 14.7788 55.2177)
(-30.4966 5.96089 53.4265)
(-25.5357 -15.5692 66.1364)
(-23.3414 0.12608 62.4633)
(-25.1849 -1.01658 44.348)
(-22.2029 -13.7761 69.3823)
(-26.0801 -11.929 49.8362)
(-25.0089 0.0248788 49.278)
(-20.6104 1.36666 66.186)
(-18.9979 -13.0708 74.0607)
(-24.3486 -11.6863 55.9734)
(-22.3619 -12.0538 63.3455)
(-21.8927 -0.194599 62.5455)
(-14.9354 1.62019 77.03)
(-23.4492 0.131998 55.268)
(-17.9082 1.68264 70.8814)
(-23.3436 20.6063 50.3359)
(-20.0858 25.1199 59.7228)
(-22.1349 19.2704 47.2995)
(-21.6478 12.9277 60.8662)
(-23.5733 9.34956 45.3879)
(-24.2045 10.4525 49.8312)
(-19.4539 14.228 64.5438)
(-14.3427 14.897 74.6415)
(-21.0593 21.8894 62.3206)
(-21.5399 10.746 62.6109)
(-15.9758 27.723 67.1548)
(-22.3251 21.2432 55.794)
(-22.8407 10.7244 55.6154)
(-17.0034 14.6672 68.9544)
(-15.7084 18.1104 94.0757)
(-17.5057 31.593 88.8077)
(-19.8973 16.4748 92.4146)
(-18.6382 19.454 142.903)
(-15.5644 37.5999 137.154)
(-12.4812 21.5432 142.909)
(-9.86674 39.8632 137.04)
(34.892 -25.2352 213.226)
(9.94612 -18.6023 141.705)
(18.1953 -20.5462 155.056)
(15.6611 -0.709018 144.769)
(8.3201 0.823298 132.564)
(21.8858 1.54508 184.475)
(31.663 -0.162002 198.28)
(-6.39384 35.3676 97.2524)
(-11.8336 18.9261 96.9663)
(-7.83958 19.326 101.559)
(1.40608 42.7113 142.205)
(-0.250293 23.7718 148.504)
(-6.40392 22.982 144.762)
(-4.15241 41.5667 138.685)
(-3.05202 19.4222 107.381)
(7.31048 43.5166 147.383)
(6.32986 24.1137 153.882)
(1.68597 36.2985 110.384)
(1.28655 19.1262 115.634)
(12.925 23.9824 162.199)
(13.1481 43.9857 155.37)
(6.91642 36.5443 119.127)
(13.4353 17.8259 136.249)
(7.04681 18.7024 125.148)
(20.753 23.5398 172.602)
(28.3569 44.3135 177.185)
(29.5195 22.6492 185.273)
(20.2547 44.2317 165.12)
(19.3486 8.53783 272.167)
(-1.12619 -9.81765 211.18)
(7.75684 -11.1931 220.639)
(7.66032 6.30892 222.515)
(18.6555 19.6912 292.062)
(-1.34171 6.40177 215.946)
(7.84741 20.3236 281.586)
(-16.154 -6.27536 193.892)
(0.136542 13.3862 249.321)
(-9.11318 -8.40702 202.344)
(-11.1227 22.5759 263.614)
(-17.7412 6.39778 206.003)
(-9.83368 6.36389 210.616)
(-2.08338 21.1239 272.232)
(42.5067 6.30281 298.745)
(17.5644 -12.5 231.096)
(28.2457 -13.8321 243.105)
(17.2893 6.15353 230.705)
(30.3994 19.205 304.074)
(27.6346 5.69507 241.329)
(43.2033 18.8446 317.984)
(-6.19738 46.1181 204.431)
(-12.0738 53.6738 288.714)
(-14.2613 43.8267 204.116)
(-12.4434 35.9489 279.536)
(-16.5275 23.983 206.816)
(-8.47044 25.7072 208.5)
(-2.7057 36.191 285.638)
(9.61779 49.3991 210.808)
(8.26676 56.1086 297.834)
(1.65514 48.029 206.676)
(8.3526 28.1908 216.381)
(18.5315 36.9421 301.601)
(-0.205594 27.2411 211.578)
(7.60377 36.6815 292.839)
(72.8947 18.763 352.104)
(52.9115 -16.2235 271.841)
(70.2434 6.92472 329.615)
(55.7309 6.20335 313.68)
(39.9655 -15.0599 256.748)
(39.034 4.89901 254.424)
(57.268 18.6399 334.002)
(26.4655 50.9255 226.596)
(30.1418 58.2003 315.447)
(17.7833 50.3452 217.217)
(17.3486 28.6919 223.27)
(30.2306 36.9562 312.608)
(26.9512 28.755 233.068)
(42.957 36.8994 326.421)
(47.9046 51.4013 253.641)
(49.6562 27.737 260.87)
(72.9356 36.8321 363.576)
(56.1449 59.7536 346.045)
(36.4214 51.2495 238.568)
(37.6312 28.408 245.528)
(57.0356 36.8159 343.305)
(89.4267 39.4884 414.677)
(0.251735 0.222403 1.47636)
(0.000374486 0.000381437 0.00242892)
(101.288 59.9856 505.012)
(75.3173 104.032 635.36)
(58.086 35.7988 377.682)
(116.156 98.9852 604.222)
(71.247 122.044 641.024)
(62.35 56.1005 453.057)
(115.008 114.054 596.489)
(-50.4804 -58.0413 38.9387)
(-44.4887 -29.2639 53.6578)
(-51.3405 -58.6596 45.3851)
(-45.1427 -26.7939 41.0689)
(-65.6649 -82.8468 3.51401)
(-41.4564 -58.8992 13.5234)
(11.9681 -106.691 56.3969)
(-40.7984 -67.9921 26.1075)
(-50.5371 -56.6452 10.9905)
(-50.3373 -77.4224 -4.90144)
(-30.7535 -86.1082 4.59497)
(-18.8259 -97.2842 20.8653)
(-44.0739 -80.6554 5.38032)
(-37.0212 -61.4179 22.0416)
(-48.6254 -55.3479 16.0088)
(-55.6733 -65.0317 20.5476)
(-53.7522 -60.2951 14.2978)
(-59.6886 -79.3294 -2.90813)
(-60.4089 -77.404 7.55229)
(-55.3153 -75.9998 3.5587)
(-52.0603 -56.8399 17.6738)
(-54.6113 -60.1292 22.4171)
(-18.3987 -85.9043 40.1346)
(-3.11373 -105.704 38.5323)
(-33.4505 -83.0504 20.9084)
(-13.3761 -75.637 60.14)
(-27.9511 -67.8779 39.0776)
(-44.4947 -55.401 25.0418)
(-36.6654 -55.0998 38.3511)
(-49.4467 -62.939 23.4867)
(-54.2344 -71.1989 14.9105)
(-49.0011 -71.7522 13.0608)
(-50.1296 -52.6157 23.4113)
(-48.644 -48.0912 31.7282)
(-51.7604 -54.6882 26.4831)
(-45.9477 -47.864 30.9866)
(-50.4763 -60.7012 41.9148)
(-47.2798 -52.5143 27.4104)
(-51.0721 -52.4985 28.2151)
(-45.9613 -45.2846 34.7774)
(-44.9298 -46.501 27.5918)
(-49.9933 -45.0814 27.7473)
(-47.9567 -44.8904 39.3485)
(-48.9179 -59.9842 57.0094)
(-50.3247 -58.7285 50.7489)
(-51.6204 -54.8652 33.054)
(-50.5226 -47.2057 32.5874)
(-47.4109 -47.5593 53.1569)
(-48.4286 -45.8995 46.1982)
(-50.3195 -50.3915 38.3468)
(-45.8207 -36.9063 40.1018)
(-40.6424 -29.0341 37.6988)
(-35.3906 -45.1493 49.112)
(-43.0044 -35.1621 34.0395)
(-42.0946 -44.4069 34.2916)
(-48.7313 -40.2741 32.3202)
(-46.3812 -34.7366 38.5239)
(-46.9548 -36.2104 42.6922)
(-45.4811 -27.5146 47.634)
(-47.7713 -34.9031 40.1302)
(-49.949 -41.2129 35.7238)
(-45.6557 -37.6795 52.5314)
(-46.8855 -35.7592 45.7193)
(-49.1385 -43.5974 40.4552)
(-12.5275 -31.785 1.43843)
(-11.1978 -33.9421 4.78501)
(13.3186 -79.1139 1.90892)
(13.4378 -85.8804 -5.23687)
(-10.4619 -123.375 4.48055)
(-13.1247 -128.66 9.3907)
(17.9336 -142.924 4.1915)
(23.2708 -144.928 19.629)
(6.81444 -110.026 3.85326)
(-12.0834 -34.6941 3.40763)
(-5.57358 -55.607 1.90653)
(-2.52529 -79.863 2.62972)
(-3.71715 -59.9983 2.1996)
(-0.764318 -83.3495 5.5423)
(4.5705 -106.422 3.1364)
(10.3427 -114.486 2.10053)
(-13.2997 -25.7702 5.72061)
(10.0683 -76.6264 -10.993)
(13.3164 -116.808 8.71232)
(1.19534 -70.7643 0.189009)
(4.0775 -91.3703 7.17679)
(12.1455 -117.22 -0.826019)
(12.1278 -88.3205 -11.2371)
(11.0674 -113.509 -0.249704)
(12.3861 -87.7301 -10.4055)
(6.52867 -91.4587 -5.8111)
(10.9375 -85.7521 -3.89915)
(11.0947 -108.069 -3.86814)
(7.84891 -94.1401 -2.06039)
(21.3504 -144.426 15.6688)
(12.3432 -142.048 7.79933)
(20.1863 -137.992 13.436)
(10.9587 -142.985 16.5804)
(16.0435 -134.886 11.8745)
(11.5051 -143.209 12.6022)
(12.3761 -140.473 9.54571)
(1.39997 -67.1461 2.09235)
(-12.9689 -27.6198 6.17316)
(-2.26066 -52.4733 -0.597808)
(-5.05341 -55.262 4.14884)
(6.03297 -74.0505 -1.44425)
(-7.40749 -42.5112 3.91591)
(-8.35154 -46.013 7.71926)
(-4.92034 -57.3432 4.8206)
(-13.2647 -26.4113 5.865)
(-11.0181 -33.9921 4.36435)
(-10.1842 -40.2678 5.44202)
(-7.20675 -51.8645 2.6767)
(-9.60751 -37.2678 5.32168)
(-9.69517 -44.2773 7.28237)
(5.86173 -86.4625 -3.41072)
(5.02572 -70.8645 -6.41667)
(7.85227 -74.2055 -7.805)
(10.4441 -89.847 -8.49568)
(8.47089 -88.3751 -5.52568)
(2.11429 -65.2157 0.591519)
(8.34684 -89.9058 -8.70756)
(10.64 -95.8571 2.48276)
(5.17748 -89.0685 5.33314)
(11.4575 -112.873 7.68186)
(13.1884 -122.885 5.86497)
(12.9281 -100.309 0.266479)
(12.7924 -122.276 3.61871)
(2.14774 -81.8553 9.64218)
(13.8568 -83.2084 -0.570257)
(9.08069 -114.778 1.61727)
(7.03603 -77.4289 2.06433)
(9.81433 -93.9166 2.15064)
(8.62555 -81.6664 0.38659)
(7.50121 -113.021 2.98261)
(9.77798 -95.3036 0.0494718)
(5.89053 -132.439 6.69301)
(-3.88204 -111.842 1.4877)
(-12.2838 -125.249 8.4491)
(1.35699 -134.903 13.4602)
(1.09567 -135.166 11.8588)
(6.32532 -129.151 5.86271)
(-3.12532 -113.218 2.85456)
(19.3575 -143.349 10.0478)
(10.4041 -140.837 6.36077)
(9.97199 -130.058 3.95173)
(9.01942 -142.865 4.34021)
(12.049 -131.92 8.78695)
(10.3992 -142.767 8.02754)
(8.55909 -139.425 4.11019)
(3.72515 -134.595 4.92537)
(-0.75351 -114.803 3.29312)
(-10.6556 -123.556 6.38796)
(-2.26849 -137.291 4.6662)
(-0.386763 -136.035 7.35032)
(2.00662 -135.01 4.21012)
(-1.16755 -114.743 3.13068)
(-6.08126 -48.5218 0.972637)
(11.413 -93.5953 -15.941)
(19.6746 -117.443 -23.1816)
(5.27906 -113.18 -7.99092)
(-11.8319 -134.464 8.45317)
(8.99412 -129.935 -6.87209)
(23.0496 -144.85 21.6573)
(9.6608 -143.818 13.2717)
(10.9786 -112.744 -4.4926)
(11.1929 -80.0832 -13.6025)
(6.57154 -80.9624 -6.28117)
(15.732 -120.636 7.61575)
(10.5528 -92.7276 -12.7967)
(12.5872 -114.785 -3.55658)
(12.9481 -111.696 -0.684842)
(13.4402 -103.762 -16.789)
(8.55257 -107.143 -7.0932)
(12.7076 -89.8158 -14.7725)
(7.27815 -94.3013 -8.68075)
(11.4521 -97.5021 -14.6807)
(9.39222 -105.235 -6.74916)
(9.21628 -102.654 -9.6466)
(9.50731 -113.609 -5.60568)
(5.93664 -99.9309 -8.47222)
(8.72126 -117.35 -14.5491)
(6.65778 -115.056 -2.6758)
(9.68513 -104.396 -12.9244)
(9.14177 -113.114 -1.46719)
(8.53505 -115.932 -8.74886)
(20.6031 -145.321 23.1478)
(10.894 -136.13 7.85004)
(20.9224 -138.776 13.1892)
(10.3417 -143.276 18.3433)
(11.9635 -137.704 9.2631)
(17.7717 -137.126 12.5269)
(9.34337 -144.9 18.4861)
(11.0838 -84.0111 -6.40763)
(4.45699 -63.986 -5.35746)
(0.365317 -62.212 -4.47022)
(1.09062 -70.0227 0.385961)
(7.15323 -71.749 -9.03515)
(9.82606 -80.4519 -4.84519)
(5.98774 -76.6123 -3.49765)
(11.0273 -90.2794 -9.2755)
(8.19634 -76.867 -10.0022)
(11.248 -83.1639 -14.1206)
(10.8894 -90.6864 -11.1995)
(9.1105 -78.9252 -12.5624)
(10.113 -90.2564 -8.67561)
(10.467 -91.387 -11.7738)
(9.71768 -89.6747 -7.64983)
(4.71753 -75.6071 -4.79561)
(8.36756 -86.6968 -10.3718)
(8.86353 -88.5703 -4.07076)
(9.05078 -80.2206 -9.55433)
(7.76865 -93.0358 -8.1552)
(7.15398 -85.9922 -4.26446)
(14.7714 -104.454 -2.90669)
(9.75855 -97.9103 2.46167)
(14.3811 -124.626 5.41515)
(16.1468 -120.785 8.29067)
(14.9044 -103.16 -1.20803)
(14.2287 -123.255 5.17083)
(11.8782 -98.514 -0.471736)
(28.0205 -133.927 -29.8243)
(9.21165 -110.479 -10.6582)
(12.6041 -122.097 -20.8803)
(19.8709 -122.781 -21.2829)
(11.7923 -109.493 -17.7093)
(10.153 -116.279 -14.8473)
(14.156 -111.839 -15.5182)
(3.38089 -129.359 2.17996)
(-2.38144 -113.937 -1.02707)
(-7.14033 -138.899 4.20819)
(-0.248729 -138.2 13.6839)
(3.89894 -127.709 4.50938)
(-1.06408 -143.414 12.0123)
(2.47541 -117.819 -3.96896)
(13.9052 -143.967 20.8863)
(16.6332 -146.714 22.6185)
(10.3616 -134.005 4.61535)
(10.7042 -129.087 7.73499)
(13.642 -134.254 10.9965)
(9.15319 -146.804 15.8021)
(10.1884 -130.185 0.661859)
(3.58323 -140.931 3.93796)
(5.66764 -128.495 -2.18309)
(15.8115 -118.826 -15.8908)
(0.589858 -137.326 -1.37248)
(0.500289 -145.779 8.45852)
(8.58333 -125.462 -7.53103)
(9.66829 -118.875 -9.95727)
(44.4417 -198.325 15.3239)
(26.107 -126.026 47.0047)
(26.3205 -127.499 39.2151)
(35.4758 -156.693 18.5657)
(22.1937 -140.318 4.28657)
(10.891 -133.775 -4.69668)
(36.8939 -224.998 -17.0788)
(6.41525 -208.434 -43.8002)
(2.17267 -205.681 -42.7199)
(4.29039 -178.453 -27.0587)
(6.28544 -179.861 -29.4634)
(12.2482 -209.333 -43.1436)
(18.9663 -208.348 -44.2831)
(14.0186 -182.519 -27.234)
(18.2573 -184.094 -28.6389)
(14.2976 -214.556 -38.135)
(28.2609 -193.932 -8.65425)
(11.3509 -185.107 -25.5437)
(39.8045 -223.321 -5.83354)
(25.3822 -212.653 -33.6828)
(22.6639 -188.447 -21.1045)
(34.0865 -196.239 1.13709)
(10.4451 -133.003 -2.50778)
(17.1725 -132.921 1.76369)
(8.46441 -153.543 -14.0269)
(8.70421 -155.068 -15.7992)
(14.9925 -155.602 -12.6542)
(17.5171 -158.531 -13.9503)
(17.888 -134.919 -0.101266)
(29.8512 -190.392 -19.1806)
(17.604 -154.271 7.11741)
(18.3147 -193.871 -20.4524)
(23.4905 -154.703 20.1023)
(20.6371 -177.019 -9.67947)
(27.0873 -173.619 -11.6784)
(34.3601 -153.856 22.9522)
(13.8188 -136.493 -3.51218)
(22.8695 -164.823 -3.65233)
(11.6232 -158.863 -13.9133)
(20.4554 -162.985 -8.33023)
(26.718 -143.311 14.7787)
(20.0013 -138.646 3.45333)
(29.3946 -169.227 8.25668)
(42.9299 -158.049 42.9336)
(41.0356 -156.047 29.1989)
(36.5494 -190.248 -7.29817)
(31.4577 -174.661 -3.13765)
(36.2197 -152.075 41.7997)
(36.5968 -151.202 29.3675)
(36.7189 -180.838 16.8611)
(21.786 -130.199 13.6459)
(26.2945 -145.187 31.0366)
(21.3897 -152.922 1.08089)
(24.5597 -153.334 0.0812042)
(28.2767 -125.743 36.4165)
(31.8454 -142.605 28.987)
(22.7973 -131.618 12.3462)
(27.3248 -155.081 5.92949)
(30.7888 -140.898 43.4037)
(26.513 -123.99 38.2304)
(28.4209 -138.825 29.0391)
(31.5298 -139.946 32.516)
(24.0293 -134.147 16.7663)
(32.5445 -160.421 22.2674)
(35.7312 -154.504 -33.7108)
(3.84611 -128.551 -11.4057)
(32.6441 -194.918 -31.2953)
(-4.67283 -190.826 -32.8656)
(16.9799 -134.108 -2.80696)
(15.7012 -122.759 -11.4012)
(5.80746 -129.626 1.16755)
(4.55188 -130.514 -6.18516)
(3.30937 -135.77 -17.3348)
(6.09192 -132.449 -16.9778)
(1.33649 -148.172 -18.068)
(5.36754 -120.483 -6.51432)
(2.01912 -151.203 -23.173)
(6.71158 -123.244 -12.2906)
(3.62918 -133.509 -12.4158)
(36.595 -174.999 -33.9016)
(6.71055 -139.874 -21.5499)
(12.063 -138.405 -23.8793)
(24.2573 -136.193 -25.1159)
(8.73841 -158.062 -27.9346)
(9.59838 -126.638 -18.3394)
(23.777 -150.413 -25.2947)
(8.75372 -136.729 8.21926)
(8.69109 -129.672 7.87215)
(11.5201 -137.385 16.1015)
(4.83129 -129.023 -9.59486)
(8.45186 -125.633 2.59194)
(8.17806 -127.124 -3.90761)
(6.19719 -127.464 -4.23642)
(-0.80096 -152.007 -20.6369)
(-3.82908 -170.404 -24.6109)
(-3.12051 -191.789 -36.1826)
(-0.980027 -167.328 -21.2039)
(-3.41703 -172.11 -28.8001)
(0.462847 -151.028 -16.7614)
(-1.18628 -167.348 -24.3727)
(33.6883 -212.011 -24.3857)
(2.97182 -155.346 -22.8521)
(5.29114 -197.916 -35.0885)
(21.6457 -181.372 -17.2309)
(3.66169 -178.389 -31.2623)
(3.2045 -170.782 -23.8716)
(20.7414 -166.293 -22.5294)
(6.42093 -126.984 -6.48496)
(15.2202 -123.556 -10.4123)
(5.7944 -132.167 -1.83086)
(6.83054 -129.715 -14.7913)
(19.1128 -124.144 -18.3761)
(9.51047 -125.107 -11.5596)
(17.9145 -133.705 -17.8317)
(5.70687 -130.415 -3.74407)
(3.26508 -127.912 -4.79584)
(5.73018 -127.398 -0.526073)
(1.74739 -136.695 -13.7832)
(3.21659 -146.126 -12.3699)
(3.51316 -135.889 -9.9952)
(2.42849 -146.306 -14.991)
(7.08281 -131.258 -6.66379)
(15.0761 -127.634 -8.28485)
(5.68566 -127.019 -8.14182)
(4.149 -138.361 -16.0658)
(17.5871 -155.32 -9.88883)
(5.25522 -148.58 -15.0361)
(15.8827 -144.132 -15.3531)
(44.1852 35.5745 361.459)
(60.3921 41.9316 417.445)
(45.0878 41.6832 398.896)
(61.536 69.7979 499.675)
(64.4168 79.0317 548.319)
(78.3913 71.639 518.329)
(82.7126 81.1285 567.159)
(73.0848 37.0263 395.486)
(95.8737 45.3128 461.546)
(77.2555 43.0087 438.384)
(114.523 78.7444 555.677)
(96.0891 74.7111 537.334)
(101.879 84.2798 585.112)
(121.713 88.0278 600.72)
(45.9523 55.3491 432.486)
(63.8063 78.9025 481.063)
(46.707 76.984 458.972)
(68.1053 111.17 632.81)
(66.8984 93.0122 595.486)
(86.3817 94.3822 613.014)
(88.3976 111.781 647.535)
(80.6671 57.5681 477.354)
(105.064 84.6123 537.483)
(83.0923 81.4121 507.501)
(106.789 96.2709 628.661)
(132.088 113.691 672.532)
(127.949 98.4147 641.289)
(109.741 112.543 661.067)
(0.344611 0.493579 3.33025)
(28.3283 40.5534 244.265)
(28.8213 29.7396 174.126)
(0.120442 0.232591 1.13684)
(18.3208 31.6608 153.032)
(0.0864162 0.103221 0.47147)
(61.2043 64.9651 309.986)
(76.0165 100.818 628.804)
(74.3661 110.871 636.333)
(76.9609 109.34 646.55)
(89.9637 102.518 628.3)
(92.8723 101.225 631.269)
(94.3584 108.748 648.487)
(89.1556 108.903 628.75)
(125.785 102.148 629.911)
(103.645 100.797 618.128)
(109.471 101.654 631.802)
(111.656 108.401 648.253)
(115.734 105.413 602.353)
(128.773 108.479 645.447)
(103.028 107.083 617.639)
(72.9547 116.288 639.445)
(75.9182 126.401 684.881)
(76.8167 116.359 666.364)
(95.2066 114.757 668.489)
(87.2392 119.503 632.413)
(95.4349 124.889 687.589)
(88.3325 114.014 631.678)
(113.68 113.601 668.609)
(134.905 123.83 685.74)
(115.758 110.165 601.733)
(102.091 116.93 618.207)
(132.152 113.386 666.177)
(115.199 124.077 688.067)
(102.789 112.025 619.604)
(-42.6824 60.309 298.375)
(-27.0606 41.7935 259.456)
(-0.000350997 0.000521855 0.00336597)
(-25.9067 54.4693 295.132)
(-16.3658 48.7496 304.293)
(-3.16369e-05 0.000664337 0.004412)
(-105.572 115.82 419.16)
(-31.9873 27.2796 102.571)
(-0.000371358 0.000328062 0.0019459)
(-0.183563 43.7095 311.496)
(13.1083 50.4588 311.327)
(0.000237612 0.000556877 0.00389523)
(-250.525 110.932 550.904)
(-0.0614606 0.0323736 0.161425)
(-0.000127442 6.79188e-05 0.00033196)
(-52.1467 106.313 635.015)
(-9.12362 47.0047 303.364)
(-3.99164 107.092 642.917)
(-9.14513 135.021 634.199)
(-17.7142 58.884 367.579)
(-53.155 139.598 608.742)
(-36.731 65.9837 356.079)
(11.7906 107.116 643.744)
(60.0416 105.24 640.06)
(19.7997 38.0417 333.492)
(6.10795 132.347 640.242)
(-6.76653 56.7995 376.319)
(54.6461 124.667 645.399)
(31.3543 75.5331 441.115)
(-67.7788 105.523 629.848)
(-110.774 101.038 602.476)
(-77.6396 80.2132 349.503)
(-66.7282 139.722 596.757)
(-54.2317 75.6975 351.787)
(-102.41 134.019 547.456)
(-81.2047 100.301 392.738)
(-165.178 141.574 499.581)
(-150.103 102.448 454.063)
(-107.885 89.6275 391.696)
(-117.545 100.247 390.444)
(-147.171 87.3884 506.074)
(-123.073 98.7929 587.09)
(-111.694 129.295 523.077)
(-22.0431 52.8612 286.781)
(-40.5507 54.0161 285.081)
(-26.328 28.0416 90.302)
(-34.277 21.7681 101.715)
(-33.2638 -16.0623 144.276)
(-39.4556 -6.91283 132.587)
(-21.0273 26.5 222.626)
(-32.0032 36.5114 212.381)
(-30.5798 -23.5333 105.274)
(-28.5295 -18.6132 148.857)
(-35.5565 -24.0065 105.027)
(-28.1163 -2.83583 150.178)
(-27.2969 -2.17535 97.6376)
(-32.8616 -3.93346 98.806)
(-34.5051 -2.99611 150.116)
(-36.9748 -12.2114 138.982)
(-42.4686 -20.5497 101.937)
(-39.588 -22.6495 104.06)
(-42.7164 -8.19414 103.38)
(-38.193 -5.93789 100.731)
(-40.1668 -1.98643 149.254)
(-44.8062 -0.445764 146.905)
(11.2016 -50.1355 119.102)
(-31.5121 -19.4365 46.7112)
(-29.3215 -14.6628 42.13)
(-24.61 -15.6475 48.6414)
(-25.4756 15.264 77.4484)
(17.9676 -38.7399 143.177)
(-22.2908 23.3274 58.801)
(-18.9697 6.11017 53.8761)
(3.95848 -51.892 98.1932)
(-7.81244 -39.0444 70.9046)
(3.63773 -41.1535 96.2214)
(-19.6208 -30.4967 57.133)
(-25.1749 -22.3246 43.6556)
(-17.8681 -15.3752 52.5101)
(-10.2581 -24.964 70.532)
(-30.2632 -19.0474 37.1628)
(-19.6943 -26.1183 47.8562)
(-9.23943 -27.332 68.4308)
(-28.1504 -17.0279 36.6577)
(-29.8349 -13.8874 34.4486)
(-23.4898 -8.67989 41.4721)
(-27.4634 -5.15221 37.297)
(14.7881 -40.0246 149.421)
(14.3933 -46.0911 136.612)
(12.5326 -41.7613 122.579)
(4.52811 -18.7699 112.349)
(0.074792 -11.6623 92.7726)
(-9.22583 -12.8467 69.3828)
(-1.71845 -22.2822 90.2166)
(-24.4968 1.71938 43.3155)
(-2.79605 -20.0656 99.056)
(-15.1409 -17.3363 70.2988)
(12.8586 -31.9231 125.743)
(2.67581 -31.0341 97.3645)
(-8.43055 -1.92174 70.1964)
(-16.9445 -3.70682 51.798)
(-30.5136 -16.7459 42.7289)
(-33.0302 -19.4649 64.9231)
(-29.0747 -17.5825 64.6163)
(-29.8355 -2.92579 60.7914)
(-26.6281 -1.36947 60.5104)
(-26.9192 -2.32708 42.0717)
(-27.2534 -4.2257 43.6476)
(-36.5094 -21.961 66.6471)
(-31.9869 -23.9421 54.4244)
(-39.218 -25.0501 70.3052)
(-35.0403 -9.09818 69.6618)
(-32.7189 -5.44477 63.4659)
(-27.3101 -7.31766 49.1047)
(-26.0044 -12.5678 57.83)
(-23.7346 21.5569 61.6182)
(-22.2228 17.2035 48.16)
(-20.036 14.6688 53.1033)
(-26.8845 9.77047 60.0687)
(-24.5196 11.448 59.0833)
(-24.625 7.84968 44.3457)
(-23.9816 5.647 47.6462)
(-24.9421 19.1338 67.8375)
(-17.1223 10.1632 62.4293)
(-12.9679 3.80553 75.1554)
(-30.5323 3.60865 72.2909)
(-28.8998 7.41554 64.5987)
(-22.6278 2.23089 54.4822)
(-19.6729 -3.33979 64.8718)
(-21.7654 29.7792 88.6056)
(-24.4077 14.7085 92.2479)
(-29.5716 13.1965 93.5473)
(-25.0966 17.1922 144.216)
(-21.8094 35.3322 138.647)
(-32.0786 15.4385 146.458)
(-28.6745 33.4977 141.421)
(-30.5245 25.5054 94.351)
(-39.03 7.67706 101.767)
(-34.5349 10.9929 96.2656)
(-38.9426 13.7649 148.907)
(-42.2987 28.7043 150.533)
(-35.5861 31.3922 145.249)
(-45.3281 12.4403 151.396)
(-14.9144 21.1805 230.146)
(-27.29 2.0698 178.455)
(-22.2868 -3.02883 185.867)
(-19.4493 24.7323 255.918)
(-25.0757 6.76618 201.782)
(-31.6134 8.42259 197.583)
(-26.6485 28.4231 249.153)
(-26.6364 31.7989 216.646)
(-34.3407 14.8153 164.733)
(-31.2936 8.22446 171.423)
(-37.1832 11.4359 192.77)
(-38.437 37.9095 237.615)
(-41.6216 15.7589 187.118)
(-32.8516 32.9779 243.027)
(-22.3467 41.617 205.401)
(-31.521 53.1074 285.906)
(-30.713 40.189 207.757)
(-21.7082 36.4151 274.684)
(-24.5746 22.7392 206.27)
(-32.375 22.7618 206.206)
(-30.1906 38.1309 270.732)
(-38.9927 39.2292 210.218)
(-49.0453 55.882 283.638)
(-46.948 38.5998 212.327)
(-39.6908 23.1929 205.653)
(-44.6562 44.1408 262.416)
(-46.144 24.3385 203.718)
(-37.7728 40.6976 266.727)
(-47.9618 -65.428 43.8544)
(-29.999 -35.8025 44.9294)
(-19.6923 -104.648 106.751)
(16.1544 -75.2879 121.563)
(40.2418 -130.925 82.3261)
(28.8653 -121.07 45.8515)
(23.8699 -112.745 76.7716)
(27.5426 -118.788 71.1603)
(1.64289 -88.3167 56.5271)
(-22.7713 -70.3601 27.0931)
(0.878377 -106.085 25.6458)
(12.6367 -118.53 40.6685)
(34.5276 -127.64 57.0034)
(14.6045 -97.4397 72.6253)
(-12.3338 -78.0027 43.8831)
(40.7773 -128.847 66.3106)
(29.9899 -119.146 115.569)
(22.6376 -107.047 87.1132)
(36.3406 -129.442 80.6614)
(40.1047 -131.108 72.4603)
(30.986 -109.68 96.7969)
(33.6159 -116.416 116.265)
(22.4167 -123.689 56.8621)
(34.1864 -120.285 73.9704)
(35.564 -127.892 67.1437)
(24.3984 -105.252 87.5)
(12.4004 -97.0755 84.4926)
(-0.00665634 -90.0641 64.9805)
(30.6577 -106.729 101.479)
(29.9289 -123.782 78.6427)
(31.5216 -117.569 75.8762)
(37.171 -128.498 75.2555)
(33.3009 -112.966 107.28)
(28.1468 -107.622 119.204)
(32.8941 -110.728 115.292)
(32.8355 -113.926 119.209)
(-43.0742 -72.932 52.3067)
(-26.8658 -71.5409 52.1897)
(-39.46 -58.1748 33.9009)
(-13.9031 -70.0085 60.5934)
(-40.7139 -48.853 36.1367)
(-33.4994 -57.2002 44.5749)
(-32.3405 -54.6613 36.5299)
(6.14751 -112.395 124.478)
(-34.2996 -85.5382 73.0111)
(-8.61895 -91.638 86.4554)
(-5.40275 -89.9252 103.983)
(6.02933 -88.2237 94.4578)
(-21.1491 -71.844 68.427)
(18.2462 -102.705 123.085)
(-12.5588 -62.9133 74.2824)
(-11.7347 -49.5944 66.7354)
(-0.719896 -74.2797 79.8042)
(-35.7486 -40.0945 35.6409)
(-23.2718 -49.9016 49.2321)
(-24.1914 -55.5001 50.9436)
(11.3728 -80.8248 101.378)
(7.696 -80.2611 109.716)
(4.94956 -66.223 97.2551)
(16.9699 -89.1063 108.659)
(27.0041 -92.9773 133.792)
(-7.38805 -65.2306 77.6829)
(24.0939 -90.8079 122.29)
(25.6775 -97.1315 127.023)
(-3.94865 46.9329 344.382)
(9.34684 40.5646 321.679)
(6.75907 44.583 355.446)
(5.96891 73.1674 446.717)
(18.4498 71.1518 455.753)
(16.7294 78.4392 498.735)
(3.01741 80.4554 486.614)
(-258.851 147.411 556.462)
(-209.336 136.959 534.487)
(-202.314 117.599 519.124)
(-88.9313 39.4669 204.929)
(-34.6443 22.26 76.0265)
(-106.5 83.475 317.359)
(-137.861 69.8698 390.325)
(-17.6064 50.8634 297.859)
(-13.828 49.9805 335.278)
(-22.678 54.2154 328.393)
(-6.13299 75.2315 441.243)
(-18.1463 77.708 439.698)
(-21.8975 87.0075 473.497)
(-9.77687 83.2921 478.01)
(-34.2992 57.5621 295.111)
(-31.0056 58.7424 323.713)
(-39.2382 63.1647 321.336)
(-42.2981 82.6112 448.209)
(-30.3515 80.1869 441.974)
(-34.0522 90.9487 472.621)
(-46.6306 94.9234 475.609)
(31.427 36.3298 346.732)
(31.1927 42.0753 382.525)
(18.4683 43.1023 368.133)
(45.7741 69.1787 482.463)
(31.5247 69.7723 467.697)
(31.4172 77.5973 513.355)
(47.2627 77.8827 530.061)
(-47.5493 67.6065 321.967)
(-56.1508 71.86 326.492)
(-51.9143 62.7253 305.411)
(-55.3473 85.0845 458.497)
(-69.6492 87.631 472.874)
(-59.1569 98.9878 483.13)
(-73.0692 102.862 494.81)
(-27.6129 62.1154 361.004)
(-20.5214 73.7302 398.33)
(-31.5722 75.7164 393.364)
(-26.7942 98.8493 515.084)
(-17.2012 112.677 565.073)
(-31.4613 115.407 557.692)
(-13.6556 95.2654 521.903)
(-8.45557 73.0953 405.345)
(4.0671 73.4766 414.989)
(4.94778 55.6233 387.302)
(15.4214 91.9359 545.77)
(-1.92708 110.978 575.422)
(0.499205 93.0542 532.305)
(14.1252 110.551 588.269)
(-45.5075 70.4397 352.726)
(-42.0675 78.5422 389.848)
(-51.979 82.3349 387.078)
(-39.3818 103.095 511.512)
(-58.3952 123.355 549.773)
(-45.0561 119.058 552.734)
(-51.9804 107.664 511.002)
(31.1521 55.0557 414.991)
(17.2592 74.3745 426.735)
(17.5196 55.0995 400.139)
(31.3522 91.7162 561.089)
(48.9527 110.775 617.387)
(48.5016 92.0492 577.844)
(30.9888 110.554 602.406)
(-65.9888 76.0049 335.606)
(-74.0408 67.5034 331.772)
(-62.2552 65.0415 316.572)
(-101.963 93.0553 510.013)
(-85.1947 90.2843 490.52)
(-88.3295 106.652 510.028)
(-105.051 110.339 527.338)
(-61.9079 87.2541 385.942)
(-71.3563 93.4688 387.524)
(-62.9042 81.3784 354.284)
(-71.6075 128.491 549.216)
(-65.0605 112.804 514.187)
(-78.3332 118.032 521.681)
(-85.1233 134.294 551.851)
(-92.3458 107.78 402.752)
(-83.6789 93.408 372.692)
(-72.4204 87.2801 361.026)
(-93.0127 123.09 532.545)
(-114.416 145.476 564.145)
(-99.2201 140.084 557.216)
(-109.118 127.83 545.722)
(-91.4596 84.6655 368.097)
(-103.447 73.9879 373.585)
(-87.6307 70.3683 350.843)
(-119.897 96.0326 530.152)
(-123.054 113.904 545.244)
(-138.882 99.2063 549.349)
(-142.114 117.345 561.169)
(-121.976 124.351 442.065)
(-113.829 106.446 414.066)
(-97.2224 99.7513 390.146)
(-130.993 150.222 570.951)
(-126.636 132.065 559.086)
(-145.379 135.828 570.011)
(-148.783 154.124 576.437)
(-127.339 95.4729 420.903)
(-143.282 84.3993 433.067)
(-121.811 78.569 400.745)
(-178.884 105.653 575.603)
(-158.66 102.478 565.101)
(-161.892 120.675 572.68)
(-181.776 123.642 579.314)
(-157.373 121.68 476.064)
(-142.009 133.053 469.878)
(-134.022 113.849 443.771)
(-164.742 139.047 577.353)
(-186.15 159.36 578.864)
(-167.404 157.21 579.401)
(-184.266 141.721 580.386)
(-1.4006 51.6405 321.698)
(-0.314998 0.632262 4.36794)
(-0.0140825 0.804211 5.48395)
(-0.00447728 0.391224 1.88375)
(-4.58561 104.761 489.816)
(-0.109175 0.319449 1.5052)
(-37.1439 102.262 453.028)
(2.20598 8.63093 52.4393)
(0.336115 0.596044 4.01801)
(24.9513 44.8577 272.882)
(0.0252885 0.383335 1.86093)
(5.97003 102.951 492.355)
(0.118244 0.28036 1.38082)
(16.6411 36.4115 177.295)
(-51.7407 104.756 611.034)
(-36.1405 106.802 638.726)
(-35.953 103.93 609.535)
(-37.4156 118.465 618.588)
(-51.7626 119.953 626.815)
(-53.1191 119.966 617.333)
(-36.0953 120.13 632.063)
(-20.1932 107.043 641.248)
(-4.88151 102.178 609.728)
(-20.3951 103.055 609.034)
(-21.8997 116.731 620.591)