/*--------------------------------*- C++ -*----------------------------------*\
  =========                 |
  \\      /  F ield         | OpenFOAM: The Open Source CFD Toolbox
   \\    /   O peration     | Website:  https://openfoam.org
    \\  /    A nd           | Version:  9
     \\/     M anipulation  |
\*---------------------------------------------------------------------------*/
FoamFile
{
    format      ascii;
    class       surfaceScalarField;
    location    "0.0021";
    object      phi;
}
// * * * * * * * * * * * * * * * * * * * * * * * * * * * * * * * * * * * * * //

dimensions      [0 3 -1 0 0 0 0];

internalField   nonuniform List<scalar> 
50999
(
-7.10543e-15
0
0
0
0
-3.33955e-13
3.55271e-15
0
-3.55271e-14
0
-9.4289e-12
1.1724e-13
-2.84217e-14
-1.15108e-12
1.42109e-13
-2.5549e-10
3.43903e-12
-1.0516e-12
-3.37081e-11
4.36984e-12
-6.87767e-09
9.69287e-11
-3.62306e-11
-9.64647e-10
1.24508e-10
-1.63138e-07
2.82614e-09
-1.18308e-09
-3.07744e-08
3.4649e-09
8.24225e-08
-2.99788e-08
8.42238e-08
-4.16317e-07
-6.82101e-07
-8.16979e-07
-4.37618e-07
-2.44678e-07
-2.81387e-07
-2.87487e-07
-2.75718e-07
0
0
0
0
-1.42109e-14
0
0
0
-5.54223e-13
7.10543e-15
0
0
-1.42677e-11
2.52243e-13
-6.39488e-14
2.4869e-13
-3.51797e-10
6.93845e-12
-2.07478e-12
6.72173e-12
-8.19484e-09
1.85452e-10
-6.05453e-11
1.67759e-10
4.90201e-09
-1.53989e-07
-1.63117e-09
4.05991e-09
0
0
0
0
0
0
0
0
-2.13163e-14
0
0
0
-6.46594e-13
1.06581e-14
0
1.42109e-14
-1.46727e-11
3.76588e-13
-9.23706e-14
3.05533e-13
-3.07637e-10
9.44667e-12
-2.54374e-12
7.41096e-12
2.25636e-10
-5.59022e-09
-5.98988e-11
1.63524e-10
0
0
0
0
0
0
0
0
0
0
0
0
-2.13163e-14
0
0
0
-5.47118e-13
1.42109e-14
0
1.42109e-14
-1.05871e-11
4.05009e-13
-9.23706e-14
2.91323e-13
8.85336e-12
-1.74097e-10
-2.03215e-12
6.06803e-12
0
0
0
0
0
0
0
0
0
0
0
0
-1.42109e-14
0
0
-3.41061e-13
0
7.10543e-15
-5.31486e-12
-6.39488e-14
2.06057e-13
1.08588e-07
-4.31472e-07
-3.13242e-08
9.6496e-08
-2.536e-07
-5.13194e-07
-2.57245e-07
-3.56612e-07
-5.40394e-07
-6.3776e-07
-3.40732e-07
4.92091e-09
-7.77217e-08
-1.19996e-09
3.34599e-09
1.74481e-10
-2.22137e-09
-3.63087e-11
1.10902e-10
-6.38352e-11
-1.08002e-12
3.56692e-12
3.11028e-07
-4.7478e-06
-2.585e-06
1.33492e-06
-2.74417e-07
-0.0114886
-0.282149
-0.199133
0.0147084
0.0333556
0.0222146
3.68713e-07
2.23934e-07
-1.62683e-06
-2.71495e-06
7.7767e-07
-1.91854e-07
7.81936e-08
-1.44088e-08
5.43908e-08
-2.33413e-07
-4.37373e-07
-2.45577e-07
-2.23412e-07
-1.94769e-07
-2.2942e-07
-2.13293e-07
2.76937e-09
-2.11555e-08
-4.73001e-10
1.63752e-09
-5.67837e-10
-1.33795e-11
4.96314e-11
-0.346605
-2.8854
-3.64455
0.521885
2.4382
3.22653
9.28312e-06
6.24893e-06
9.72643e-06
-7.62308e-05
-3.47678e-06
-0.00012484
-2.46658e-05
-1.8045e-05
-8.91508e-06
-2.34766e-05
-1.02012e-05
-3.45707e-05
-1.50926e-06
-1.60795e-06
-1.61004e-06
1.9783e-07
-2.58684e-07
8.88032e-07
5.94097e-07
3.10092e-08
-3.39847e-09
1.58774e-08
-1.90733e-07
-2.66574e-07
-2.07601e-07
-2.54786e-07
-1.00115e-10
4.77435e-10
2.38289e-08
9.7918e-08
7.32854e-10
2.22298e-08
-8.71499e-07
-4.33119e-07
-5.01397e-07
-9.95701e-07
5.75044e-07
-9.63797e-05
4.7296e-07
-5.55577e-07
1.47022e-05
0.116317
-3.59755
0.0604105
-0.0480368
0.490128
-7.37732
0.481836
-0.387012
6.51759
-0.237063
0.818305
9.67664e-09
3.54489e-08
8.95022e-09
8.90264e-09
-1.84316e-07
-1.33159e-07
-2.18439e-07
-1.44658e-07
-7.66525e-06
2.36907e-07
-1.18592e-06
1.31588e-06
4.05118e-07
-9.15827e-08
-8.43525e-06
-3.30409e-06
-3.70333e-06
9.11531e-07
-5.6064e-06
-9.90942e-05
-8.98957e-07
2.92682e-06
-1.40293
0.339388
-6.2111
1.38959
3.60308
-0.158267
6.86238
-6.35381
-0.24657
1.95213
0.492161
-1.56319
-1.66658e-07
6.60625e-09
1.83367e-09
5.16152e-10
9.05636e-10
5.63356e-08
9.93133e-09
3.50694e-08
-1.40765e-06
-4.47251e-07
-4.53041e-07
-1.6625e-06
-1.23053e-07
-6.03271e-08
-1.37874e-07
-6.47438e-08
5.50506e-06
-0.000619701
-9.75096e-05
-1.34812e-06
1.32475e-05
3.4728e-05
0.000512728
-0.0381254
-0.0154971
-0.000133389
0.00253167
0.00132836
-5.78101
0.401729
5.05892
-2.92175
-0.180624
2.64134
0
0
0
0
0
0
0
0
0
0
0
0
0
0
0
0
0
0
-4.26326e-14
-9.9476e-14
0
-6.25278e-13
-2.30216e-12
1.06581e-14
-7.16938e-12
-4.3805e-11
2.0961e-13
-6.14861e-10
2.90612e-12
0
0
0
0
0
0
0
0
0
0
0
0
0
0
0
-7.81597e-14
-1.06581e-13
0
-1.49214e-12
-3.02691e-12
1.77636e-14
-2.29861e-11
-7.56515e-11
4.12115e-13
-2.6872e-10
-1.54266e-09
7.77334e-12
-2.29473e-08
1.10504e-10
0
0
0
0
0
0
0
0
0
0
0
0
-9.9476e-14
-8.52651e-14
0
-2.52953e-12
-2.83507e-12
2.13163e-14
-5.23457e-11
-8.60609e-11
6.00409e-13
-8.65796e-10
-2.33501e-09
1.44631e-11
-1.06642e-08
-4.70824e-08
2.93724e-10
-1.36285e-07
4.31227e-09
-1.53753e-07
-1.52545e-07
-1.81894e-07
0
0
0
0
0
0
0
0
0
-1.06581e-13
-5.68434e-14
0
-3.06244e-12
-1.89715e-12
2.13163e-14
-8.09024e-11
-6.50857e-11
6.32383e-13
-1.83804e-09
-2.15431e-09
1.8634e-11
-3.24118e-08
-5.63003e-08
5.02595e-10
-1.57745e-07
1.06045e-08
-2.97873e-07
-1.58612e-07
-2.30128e-07
-1.09862e-07
-1.14122e-07
-1.06624e-07
-9.69244e-08
2.95686e-08
-2.46714e-08
-6.94561e-07
1.81087e-07
0
0
0
0
0
0
-8.52651e-14
-2.13163e-14
0
-2.67164e-12
-9.09495e-13
1.06581e-14
-8.32969e-11
-3.30331e-11
4.93827e-13
-2.38898e-09
-1.23696e-09
1.66125e-11
-5.38969e-08
-4.17027e-08
5.47015e-10
-1.3956e-07
-1.38845e-07
1.57845e-08
-3.09917e-07
-1.35811e-07
-2.51976e-07
-2.83333e-07
-1.61159e-07
-2.1547e-07
-4.33508e-07
-6.31753e-07
2.59691e-08
8.02936e-07
2.17993e-06
-9.18866e-07
-9.44117e-06
3.08958e-06
0
0
0
-4.26326e-14
-7.10543e-15
0
-1.64846e-12
-3.19744e-13
7.10543e-15
-5.68008e-11
-1.17808e-11
2.84217e-13
-1.90172e-09
-4.44018e-10
1.02354e-11
-5.14529e-08
-1.81886e-08
3.79156e-10
-1.44026e-07
-1.15887e-07
1.30876e-08
-3.07106e-07
-1.37659e-07
-2.52821e-07
-1.79384e-07
-1.2424e-07
-1.42956e-07
-5.82518e-07
-4.97554e-07
2.29265e-08
8.00382e-07
2.86244e-06
-1.80094e-05
-4.68053e-06
-4.45208e-06
-2.27388e-05
3.01383e-06
-1.47232e-05
-4.50808e-06
-4.30446e-06
-1.82742e-05
0.0118981
0.0270378
-0.0310035
-0.358588
0.0197091
-1.42109e-14
0
0
-7.17648e-13
-7.81597e-14
0
-2.5679e-11
-3.2756e-12
1.13687e-13
-9.36062e-10
-1.21013e-10
4.38405e-12
-3.19945e-08
-4.83644e-09
1.68676e-10
-1.31723e-07
6.31432e-09
-2.04949e-07
-1.46322e-07
-1.67209e-07
-7.05394e-08
-5.58733e-08
-6.96933e-08
-5.24714e-08
-5.04426e-07
-2.68856e-07
2.23476e-08
5.90325e-07
1.94478e-06
-1.37141e-05
-3.89539e-06
-3.72077e-06
-1.71731e-05
2.31603e-06
-7.37599e-06
-2.86725e-06
-2.765e-06
-8.84808e-06
-5.01238
-5.37827
0.397892
5.01692
5.36818
1.63546
5.53038
-1.25701
-5.526
4.62972
-2.27374e-13
0
-7.10543e-15
-8.1215e-12
3.55271e-14
-6.03961e-13
-2.84729e-10
1.35358e-12
-2.34266e-11
-1.14205e-08
5.04414e-11
-8.59387e-10
2.01638e-09
-3.18094e-08
-9.78903e-08
-1.01103e-07
-1.42768e-07
-1.4083e-07
-9.8569e-07
-1.65444e-06
3.63548e-08
5.25792e-07
1.87952e-07
-1.61771e-06
-2.30854e-06
-2.2831e-06
-0.00669546
-0.0305776
0.000132402
0.000953171
0.00161662
-4.08131
-5.93999
0.351764
3.91415
5.42056
-3.96877
0.439285
4.15371
5.18668
-4.98605
0
0
0
0
0
0
0
0
0
0
0
0
0
0
0
0
0
0
-7.10543e-15
-2.84217e-14
0
-1.77636e-13
-6.32383e-13
3.55271e-15
-2.02505e-12
-1.12763e-11
8.52651e-14
-1.49441e-10
1.14753e-12
0
0
0
0
0
0
0
0
0
0
0
0
0
0
0
-2.13163e-14
-2.84217e-14
0
-4.12115e-13
-8.2423e-13
3.55271e-15
-6.22435e-12
-1.8666e-11
1.66978e-13
-7.15374e-11
-3.47939e-10
2.98073e-12
-4.38726e-09
3.97158e-11
0
0
0
0
0
0
0
0
0
0
0
0
-2.84217e-14
-2.13163e-14
0
-6.89226e-13
-7.81597e-13
7.10543e-15
-1.33298e-11
-2.11031e-11
2.38032e-13
-2.02924e-10
-5.25276e-10
5.35394e-12
-2.33261e-09
-1.16544e-08
9.67049e-11
-1.23983e-07
1.2593e-09
0
0
0
0
0
0
0
0
0
-2.84217e-14
-1.42109e-14
0
-8.31335e-13
-5.40012e-13
7.10543e-15
-1.99023e-11
-1.64064e-11
2.52243e-13
-4.11099e-10
-4.87603e-10
6.79279e-12
-6.97339e-09
-1.60266e-08
1.58259e-10
-8.13491e-08
-1.21258e-07
3.1139e-09
-8.69552e-08
-1.18604e-07
-1.02173e-07
-2.62272e-06
3.84704e-08
-7.22417e-07
-4.10587e-07
-1.8942e-07
-7.73667e-08
-2.74037e-08
-3.42341e-08
0
0
0
0
0
0
-2.13163e-14
-7.10543e-15
0
-7.31859e-13
-2.70006e-13
3.55271e-15
-2.04778e-11
-8.81784e-12
1.98952e-13
-5.38783e-10
-2.80018e-10
6.1533e-12
-1.42773e-08
-9.91066e-09
1.72317e-10
-9.08106e-08
-1.34401e-07
4.66033e-09
-7.01089e-08
-8.87926e-08
-6.95777e-08
-1.01843e-07
-1.32369e-07
-1.06373e-07
-4.2533e-08
-1.69612e-07
-2.47027e-07
5.0346e-08
7.77137e-07
1.43165e-06
-2.72673e-05
-8.1051e-06
-4.75023e-06
-2.9183e-06
-1.23136e-06
-6.69893e-07
-7.23717e-07
0
0
0
-1.42109e-14
0
0
-4.68958e-13
-9.23706e-14
3.55271e-15
-1.44453e-11
-3.39639e-12
1.1724e-13
-4.32458e-10
-1.12038e-10
3.95772e-12
-1.45752e-08
-3.66217e-09
1.24416e-10
-1.49841e-07
-1.47541e-07
3.95317e-09
-1.10158e-07
-1.47553e-07
-1.22231e-07
-4.65263e-08
-2.99484e-07
-2.60493e-07
6.54529e-08
-7.01177e-07
1.8972e-07
6.70756e-07
6.39041e-07
-1.96989e-06
-1.69973e-06
-1.44264e-06
-1.91125e-06
-2.80998e-06
-2.3828e-06
-2.04114e-06
-2.78598e-06
0.00759459
-0.126524
0.00296773
0.00528334
-7.10543e-15
0
0
-2.13163e-13
-2.84217e-14
0
-6.96332e-12
-9.45022e-13
4.9738e-14
-2.13561e-10
-3.40208e-11
1.77991e-12
-6.39276e-09
-1.14378e-09
5.95115e-11
-2.08746e-07
-3.64966e-08
1.90545e-09
-7.00225e-07
6.67051e-08
-6.17516e-06
-3.05763e-07
-1.21269e-06
-2.13111e-07
-1.68967e-06
-1.12295e-07
-4.22017e-07
-3.19742e-08
-5.60137e-08
-4.3932e-08
-1.657e-07
-4.23278e-07
-3.42732e-06
1.80091e-07
4.32448e-07
-2.36975e-06
-2.00542e-06
-1.76216e-06
-2.42787e-06
-5.0528
-4.67571
-1.53917
1.70468
4.2824
4.57571
5.30515
-5.36077
1.91116
4.43508
-6.39488e-14
0
0
-2.38032e-12
1.42109e-14
-1.77636e-13
-7.68381e-11
5.68434e-13
-6.672e-12
-2.26322e-09
1.97851e-11
-2.46324e-10
-6.3529e-08
6.3644e-10
-8.15652e-09
2.04875e-08
-1.65359e-07
-1.35297e-06
-3.01825e-07
-2.0776e-07
-1.05087e-07
-5.28335e-08
-6.53087e-08
-4.87908e-08
-2.64202e-08
-1.57057e-08
-1.53942e-08
-1.53552e-08
-0.000266776
-0.0014186
-8.57476e-05
2.07449e-05
3.77428e-05
7.025e-05
-3.37411
-5.20949
-1.29197
1.25163
2.47646
2.89384
-4.75742
-3.69894
-1.77462
4.08491
5.34142
2.15697
3.4578
1.29479
3.77719
-3.16188
-1.09668
0
0
0
0
0
0
0
0
0
0
0
0
0
0
0
0
0
0
0
0
0
-2.13163e-14
-7.81597e-14
0
-2.4869e-13
-1.41398e-12
7.10543e-15
-1.92486e-11
1.45661e-13
0
0
0
0
0
0
0
0
0
0
0
0
0
0
0
0
0
0
-4.9738e-14
-9.9476e-14
0
-7.74492e-13
-2.32347e-12
2.13163e-14
-8.74678e-12
-4.42597e-11
3.83693e-13
-6.22762e-10
5.21183e-12
0
0
0
0
0
0
0
0
0
0
0
0
0
0
0
-8.52651e-14
-9.9476e-14
0
-1.64846e-12
-2.65743e-12
3.19744e-14
-2.54516e-11
-6.55191e-11
6.78568e-13
-2.90591e-10
-1.36056e-09
1.24878e-11
-1.96007e-08
1.75106e-10
0
0
0
0
0
0
0
0
0
0
0
0
-9.9476e-14
-7.10543e-14
0
-2.47979e-12
-2.14584e-12
3.19744e-14
-5.11022e-11
-6.28475e-11
8.63309e-13
-8.4929e-10
-1.74306e-09
2.02789e-11
-1.00793e-08
-3.64751e-08
4.11866e-10
6.1813e-09
-8.35997e-08
-1.29494e-07
-8.24982e-08
-1.14119e-07
0
0
0
0
0
0
0
0
0
-9.23706e-14
-3.55271e-14
0
-2.60769e-12
-1.20792e-12
2.4869e-14
-6.75016e-11
-3.91793e-11
7.92255e-13
-1.55708e-09
-1.27907e-09
2.22862e-11
-2.79082e-08
-3.82909e-08
6.03588e-10
-1.0406e-07
1.41962e-08
-2.34817e-07
-1.27815e-07
-1.10371e-07
-7.00102e-08
-1.13615e-07
-7.48692e-08
-6.30144e-08
-3.15253e-08
-3.21053e-08
-3.14037e-08
-3.06492e-08
7.40948e-08
-1.6411e-06
3.38418e-07
-4.25908e-07
1.95427e-07
0
0
0
0
0
0
-5.68434e-14
-7.10543e-15
0
-1.93268e-12
-4.76064e-13
1.42109e-14
-5.79661e-11
-1.62217e-11
5.22249e-13
-1.68291e-09
-5.50862e-10
1.65556e-11
-4.05405e-08
-2.03422e-08
5.32381e-10
-9.71732e-08
-9.35094e-08
1.73693e-08
-2.38724e-07
-1.17057e-07
-1.06477e-07
-2.04778e-07
-1.14006e-07
-9.87127e-08
-4.1354e-08
-4.22491e-08
-4.21471e-08
-4.10547e-08
-9.37697e-08
-3.57012e-07
-4.3849e-07
9.18623e-08
-0.000115454
-7.32385e-05
8.33216e-06
1.16224e-05
7.17943e-06
0
0
0
-2.84217e-14
0
0
-9.87654e-13
-1.27898e-13
3.55271e-15
-3.20171e-11
-4.76064e-12
2.45137e-13
-1.03357e-09
-1.62323e-10
8.27782e-12
-3.15595e-08
-5.94972e-09
2.80725e-10
-1.1015e-07
1.0316e-08
-2.11149e-07
-1.45427e-07
-1.14251e-07
-7.77071e-08
-6.71934e-08
-7.71289e-08
-7.2408e-08
-9.07227e-08
-4.7026e-07
-2.89642e-07
9.60185e-08
-2.08799e-06
1.28521e-06
2.23076e-06
-4.17212e-06
-2.1693e-05
-4.33796e-06
-2.88148e-06
2.38163e-06
-3.7672e-06
-1.637e-05
-3.96447e-06
-3.05485e-06
-2.06414e-06
-1.9977e-06
-5.53574e-06
-1.43157
-1.14653
0.191491
0.200227
0.140649
-7.10543e-15
0
0
-3.41061e-13
0
-2.84217e-14
-1.1525e-11
8.17124e-14
-9.52127e-13
-3.71472e-10
2.85283e-12
-3.32818e-11
-1.36049e-08
9.71063e-11
-1.14149e-09
-1.53312e-07
3.70239e-09
-3.82516e-08
-1.09073e-07
-1.52055e-07
-1.50742e-07
5.30769e-08
-1.13563e-07
-3.24467e-07
-9.4063e-08
1.33072e-07
-3.60812e-06
5.8137e-07
5.32115e-07
-2.22843e-06
-4.06534e-06
-2.33293e-06
-2.68388e-06
1.01658e-06
-1.48985e-06
-1.43248e-06
-1.15503e-06
-1.44935e-06
-0.489743
-0.787581
-0.615829
0.0815672
0.0948294
0.0652072
4.04933
-3.57325
-4.18461
-3.07808
3.52453
2.74906
0
0
0
0
0
0
0
0
0
0
0
0
0
0
0
0
0
0
0
0
0
0
-7.10543e-15
0
-3.55271e-14
-1.56319e-13
0
-2.26663e-12
1.77636e-14
0
0
0
0
0
0
0
0
0
0
0
0
0
0
0
0
0
0
-7.10543e-15
-7.10543e-15
0
-9.23706e-14
-2.4869e-13
0
-1.08713e-12
-4.62563e-12
4.26326e-14
-6.69047e-11
6.2883e-13
0
0
0
0
0
0
0
0
0
0
0
0
0
0
0
-7.10543e-15
-7.10543e-15
0
-1.84741e-13
-2.77112e-13
3.55271e-15
-2.86349e-12
-6.39488e-12
7.81597e-14
-3.39355e-11
-1.25013e-10
1.43174e-12
-1.88388e-09
2.0254e-11
0
0
0
0
0
0
0
0
0
0
0
0
-7.10543e-15
-7.10543e-15
0
-2.62901e-13
-2.27374e-13
3.55271e-15
-5.20828e-12
-6.10356e-12
9.59233e-14
-8.40714e-11
-1.48532e-10
2.24532e-12
-1.0204e-09
-3.13327e-09
4.35598e-11
-4.78899e-08
6.51596e-10
0
0
0
0
0
0
0
0
0
-7.10543e-15
0
0
-2.77112e-13
-1.35003e-13
3.55271e-15
-6.53699e-12
-4.0572e-12
9.23706e-14
-1.37206e-10
-1.13019e-10
2.45848e-12
-2.3878e-09
-2.99577e-09
6.07479e-11
-3.10331e-08
-6.22022e-08
1.30906e-09
2.09744e-08
-1.50365e-07
-2.5559e-07
-1.47242e-07
-1.89221e-07
-4.29774e-08
-4.7533e-08
-4.06726e-08
0
0
0
0
0
0
-7.10543e-15
0
0
-2.06057e-13
-5.68434e-14
0
-5.69855e-12
-1.88294e-12
6.03961e-14
-1.44006e-10
-5.63816e-11
1.89715e-12
-3.28834e-09
-1.67032e-09
5.48255e-11
-5.85785e-08
-4.74114e-08
1.52892e-09
-1.35966e-07
3.37795e-08
-6.3641e-08
-5.85777e-08
-6.05328e-08
-1.58694e-07
-3.09061e-07
-1.59019e-07
-1.43977e-07
-1.25915e-07
-2.5004e-07
-1.51997e-07
-1.3196e-07
1.6348e-07
-2.50992e-06
5.79384e-07
-1.06944e-06
4.30387e-07
0
0
0
0
0
0
-1.13687e-13
-1.42109e-14
0
-3.42482e-12
-6.18172e-13
2.84217e-14
-9.65272e-11
-1.9746e-11
1.01608e-12
-2.60665e-09
-6.03563e-10
3.19709e-11
-5.90078e-08
-1.90696e-08
1.01518e-09
-1.476e-07
3.01685e-08
-3.08379e-07
-1.75346e-07
-1.51126e-07
-6.49862e-08
-5.86014e-08
-5.57203e-08
-1.31326e-07
-1.38162e-07
-1.63962e-07
-1.37924e-07
-1.15308e-07
-2.19423e-07
-5.49618e-07
-4.60421e-07
1.57257e-07
-8.25957e-05
-4.17962e-05
1.42415e-05
1.58557e-05
5.83736e-06
0
0
0
-4.26326e-14
0
0
-1.40687e-12
7.10543e-15
-1.35003e-13
-4.19362e-11
3.73035e-13
-4.68958e-12
-1.2066e-09
1.2264e-11
-1.49576e-10
-3.50767e-08
3.94653e-10
-4.63206e-09
-1.65055e-07
1.41241e-08
-1.38308e-07
-1.92539e-07
-1.48036e-07
-2.00011e-07
-4.5043e-08
-5.22326e-08
-4.7844e-08
1.0163e-07
-2.4101e-07
-4.92334e-07
-2.13623e-07
2.26109e-07
3.69899e-06
-2.76414e-05
-5.65724e-05
-1.9551e-05
1.06637e-05
1.53447e-05
0.0437417
-0.470347
0.0712545
0.0753782
-0.266203
0
0
0
0
0
0
0
0
0
0
0
0
0
0
0
0
0
0
0
0
0
0
0
0
0
-1.42109e-14
0
-2.34479e-13
0
0
0
0
0
0
0
0
0
0
0
0
0
0
0
0
0
0
0
0
0
0
-7.10543e-15
-2.13163e-14
0
-1.13687e-13
-4.54747e-13
3.55271e-15
-6.87095e-12
6.75016e-14
0
0
0
0
0
0
0
0
0
0
0
0
0
0
0
0
0
0
-1.42109e-14
-2.13163e-14
0
-2.91323e-13
-5.96856e-13
7.10543e-15
-3.65219e-12
-1.16671e-11
1.49214e-13
-1.83739e-10
2.17426e-12
0
0
0
0
0
0
0
0
0
0
0
0
0
0
0
-2.13163e-14
-2.13163e-14
0
-4.9738e-13
-5.68434e-13
7.10543e-15
-8.27782e-12
-1.32871e-11
2.20268e-13
-1.04876e-10
-2.73829e-10
4.20641e-12
-4.74054e-09
6.35545e-11
0
0
0
0
0
0
0
0
0
0
0
0
-2.13163e-14
-1.42109e-14
0
-6.11067e-13
-3.90799e-13
7.10543e-15
-1.25411e-11
-1.03384e-11
2.38032e-13
-2.17355e-10
-2.53607e-10
5.53513e-12
-2.93158e-09
-5.85499e-09
1.11353e-10
-1.17895e-07
1.81187e-09
0
0
0
0
0
0
0
0
0
-2.13163e-14
-7.10543e-15
0
-5.32907e-13
-1.91847e-13
3.55271e-15
-1.28964e-11
-5.54934e-12
1.84741e-13
-2.80714e-10
-1.49562e-10
5.01288e-12
-5.4527e-09
-3.97319e-09
1.23311e-10
-8.75341e-08
-1.02514e-07
2.74032e-09
5.05956e-08
-1.07928e-07
-1.02438e-07
-1.08754e-07
-3.84389e-07
-5.88307e-07
-3.97677e-07
-4.99064e-07
0
0
0
0
0
0
-7.10543e-15
0
0
-3.33955e-13
-6.39488e-14
3.55271e-15
-9.04521e-12
-2.10321e-12
1.06581e-13
-2.26891e-10
-6.04388e-11
3.13349e-12
-5.46589e-09
-1.65763e-09
8.67608e-11
-1.20833e-07
-4.65374e-08
2.32563e-09
5.55429e-08
-1.04954e-07
-1.23072e-07
-1.23977e-07
-1.99857e-07
-3.92291e-07
-5.72452e-07
-4.605e-07
-3.59545e-07
-2.51222e-07
-3.70272e-07
-2.71622e-07
-2.25043e-07
3.67764e-07
-4.52875e-06
-1.90353e-06
1.35056e-06
1.22033e-06
0
0
0
-7.10543e-15
0
0
-1.42109e-13
0
-1.42109e-14
-4.29878e-12
4.26326e-14
-5.61329e-13
-1.15769e-10
1.34293e-12
-1.72449e-11
-3.01395e-09
3.95382e-11
-4.97558e-10
-7.587e-08
1.13306e-09
-1.35458e-08
3.27112e-08
-3.95126e-07
-2.71014e-07
-3.977e-07
-2.67546e-07
-3.59211e-07
-1.11278e-07
-1.02487e-07
-7.97688e-08
-5.07922e-06
1.29228e-06
2.58514e-06
1.9957e-06
-1.06155e-05
-5.127e-06
-5.0507e-06
-5.64881e-06
-2.43818e-06
-2.74581e-06
-3.01041e-06
-3.41998e-06
-4.04348e-06
-4.0842e-06
-0.0752307
0.00568276
0.00920125
0.00996072
0
0
0
0
0
0
0
0
0
0
0
0
0
0
0
0
0
0
0
0
0
0
0
0
0
0
0
-1.42109e-14
0
0
0
0
0
0
0
0
0
0
0
0
0
0
0
0
0
0
0
0
0
0
0
0
0
-7.10543e-15
-2.84217e-14
0
-4.76064e-13
3.55271e-15
0
0
0
0
0
0
0
0
0
0
0
0
0
0
0
0
0
0
0
0
0
-1.42109e-14
-3.55271e-14
0
-2.62901e-13
-7.88702e-13
1.06581e-14
-1.23421e-11
1.91847e-13
0
0
0
0
0
0
0
0
0
0
0
0
0
0
0
0
0
0
-2.84217e-14
-3.55271e-14
0
-5.68434e-13
-8.88178e-13
1.77636e-14
-7.35412e-12
-1.76001e-11
3.51719e-13
-2.91699e-10
5.41078e-12
0
0
0
0
0
0
0
0
0
0
0
0
0
0
0
-3.55271e-14
-2.13163e-14
0
-8.3844e-13
-7.03437e-13
2.13163e-14
-1.42677e-11
-1.64562e-11
4.47642e-13
-1.90674e-10
-3.47178e-10
8.82849e-12
-6.49507e-09
1.42556e-10
0
0
0
0
0
0
0
0
0
0
0
0
-3.55271e-14
-1.42109e-14
0
-8.66862e-13
-3.97904e-13
1.42109e-14
-1.79909e-11
-1.02958e-11
4.08562e-13
-3.25102e-10
-2.49052e-10
9.56035e-12
-4.78376e-09
-5.83925e-09
2.0032e-10
-1.23497e-07
3.63928e-09
0
0
0
0
0
0
0
0
0
-2.13163e-14
0
0
-6.25278e-13
-1.56319e-13
7.10543e-15
-1.49925e-11
-4.41958e-12
2.66454e-13
-3.29486e-10
-1.15101e-10
6.98819e-12
-6.74115e-09
-2.88168e-09
1.71759e-10
-1.13812e-07
-7.59973e-08
4.05374e-09
8.62106e-08
-4.93062e-07
-2.7385e-07
-2.61457e-07
-3.10778e-07
-2.27246e-07
-2.61943e-07
-2.17259e-07
0
0
0
0
0
0
-7.10543e-15
0
0
-3.12639e-13
3.55271e-15
-4.26326e-14
-8.25651e-12
1.1724e-13
-1.32161e-12
-2.0129e-10
3.44258e-12
-3.70122e-11
-4.7345e-09
9.15996e-11
-9.59282e-10
-1.04852e-07
2.38499e-09
-2.48745e-08
6.17719e-08
-1.97509e-07
-4.85581e-07
-2.92075e-07
-2.76143e-07
-3.41695e-07
-2.33511e-07
-1.5726e-07
-1.69578e-07
-1.40093e-07
-2.28052e-07
-2.23948e-07
-2.26937e-07
-7.18624e-06
2.55995e-06
2.86631e-06
2.0904e-06
-9.37473e-06
-3.69793e-06
-3.46765e-06
-3.44208e-06
-3.48092e-06
-3.49962e-06
-3.27073e-06
0
0
0
0
0
0
0
0
0
0
0
0
0
0
0
0
0
0
0
0
0
0
0
0
0
0
0
0
0
0
0
0
0
0
0
0
0
0
0
0
0
0
0
0
0
0
0
0
0
0
0
0
0
0
0
0
-2.13163e-14
0
0
0
0
0
0
0
0
0
0
0
0
0
0
0
0
0
0
0
0
0
0
0
0
0
-1.42109e-14
-3.55271e-14
0
-6.11067e-13
1.06581e-14
0
0
0
0
0
0
0
0
0
0
0
0
0
0
0
0
0
0
0
0
0
-2.13163e-14
-4.9738e-14
0
-3.76588e-13
-8.66862e-13
2.13163e-14
-1.36282e-11
3.37508e-13
0
0
0
0
0
0
0
0
0
0
0
0
0
0
0
0
0
0
-4.26326e-14
-2.84217e-14
0
-7.03437e-13
-8.17124e-13
2.84217e-14
-9.22995e-12
-1.60441e-11
5.32907e-13
-2.64144e-10
8.43414e-12
0
0
0
0
0
0
0
0
0
0
0
0
0
0
0
-3.55271e-14
-1.42109e-14
0
-8.81073e-13
-5.25802e-13
2.4869e-14
-1.50422e-11
-1.20082e-11
5.7554e-13
-2.02455e-10
-2.43169e-10
1.14717e-11
-4.28349e-09
1.91196e-10
0
0
0
0
0
0
0
0
0
0
0
0
-2.84217e-14
-7.10543e-15
0
-7.53175e-13
-2.34479e-13
1.42109e-14
-1.53904e-11
-5.92593e-12
4.33431e-13
-2.73317e-10
-1.34015e-10
1.00648e-11
-3.92868e-09
-2.779e-09
2.1101e-10
-5.13966e-08
3.91056e-09
0
0
0
0
0
0
0
0
0
-1.42109e-14
0
0
-4.33431e-13
7.10543e-15
-7.10543e-14
-9.98313e-12
2.20268e-13
-1.98952e-12
-2.07635e-10
5.75184e-12
-4.91127e-11
-3.85366e-09
1.36087e-10
-1.09194e-09
-5.74771e-08
3.03631e-09
-2.31463e-08
5.766e-08
-1.91978e-07
-3.24056e-07
-1.92712e-07
-2.4867e-07
-1.60592e-07
-1.19494e-07
-1.59939e-07
-1.6072e-07
0
0
0
0
0
0
0
0
0
0
0
0
0
0
0
0
0
0
0
0
0
0
0
0
0
0
0
0
0
0
0
0
0
0
0
0
0
0
0
0
0
0
0
0
0
0
0
0
0
0
0
0
0
0
0
0
0
0
0
0
0
0
0
0
0
0
0
0
0
0
0
0
0
0
0
0
0
0
0
0
0
0
0
0
0
-2.13163e-14
0
0
0
0
0
0
0
0
0
0
0
0
0
0
0
0
0
0
0
0
0
0
0
0
0
-1.42109e-14
-2.84217e-14
0
-5.32907e-13
1.42109e-14
0
0
0
0
0
0
0
0
0
0
0
0
0
0
0
0
0
0
0
0
0
-2.13163e-14
-2.84217e-14
0
-3.69482e-13
-6.25278e-13
2.13163e-14
-9.6847e-12
3.90799e-13
0
0
0
0
0
0
0
0
0
0
0
0
0
0
0
0
0
0
-2.84217e-14
-2.13163e-14
0
-5.82645e-13
-4.83169e-13
2.84217e-14
-7.5886e-12
-9.08784e-12
5.25802e-13
-1.40581e-10
8.30269e-12
0
0
0
0
0
0
0
0
0
0
0
0
0
0
0
-2.84217e-14
-7.10543e-15
0
-6.03961e-13
-2.4869e-13
1.77636e-14
-1.00329e-11
-5.31486e-12
4.68958e-13
-1.29781e-10
-9.82894e-11
9.1589e-12
-1.48844e-09
1.48475e-10
0
0
0
0
0
0
0
0
0
0
0
0
-1.42109e-14
0
0
-4.05009e-13
1.06581e-14
-7.81597e-14
-7.95097e-12
2.80664e-13
-2.03926e-12
-1.30619e-10
6.24567e-12
-4.26681e-11
-1.64537e-09
1.22352e-10
-7.58625e-10
2.00152e-09
-1.10748e-08
0
0
0
0
0
0
0
0
0
0
0
0
0
0
0
0
0
0
0
0
0
0
0
0
0
0
0
0
0
0
0
0
0
0
0
0
0
0
0
0
0
0
0
0
0
0
0
0
0
0
0
0
0
0
0
0
0
0
0
0
0
0
0
0
0
0
0
0
0
0
0
0
0
0
0
0
0
0
0
0
0
0
0
0
0
0
0
0
0
0
0
0
0
0
0
0
0
0
0
0
0
0
0
0
0
0
0
0
0
0
0
0
0
0
-1.42109e-14
0
0
0
0
0
0
0
0
0
0
0
0
0
0
0
0
0
0
0
0
0
0
0
0
0
-7.10543e-15
-2.13163e-14
0
-3.19744e-13
1.42109e-14
0
0
0
0
0
0
0
0
0
0
0
0
0
0
0
0
0
0
0
0
0
-1.42109e-14
-1.42109e-14
0
-2.4869e-13
-3.05533e-13
1.77636e-14
-4.448e-12
3.09086e-13
0
0
0
0
0
0
0
0
0
0
0
0
0
0
0
0
0
0
-1.42109e-14
-7.10543e-15
0
-3.33955e-13
-1.77636e-13
1.77636e-14
-4.12825e-12
-3.23297e-12
3.44613e-13
-4.53397e-11
5.22604e-12
0
0
0
0
0
0
0
0
0
0
0
0
0
0
0
-1.42109e-14
0
0
-2.70006e-13
1.06581e-14
-7.10543e-14
-4.1922e-12
2.41585e-13
-1.47082e-12
-4.98659e-11
4.448e-12
-2.47198e-11
6.6148e-11
-3.25279e-10
0
0
0
0
0
0
0
0
0
0
0
0
0
0
0
0
0
0
0
0
0
0
0
0
0
0
0
0
0
0
0
0
0
0
0
0
0
0
0
0
0
0
0
0
0
0
0
0
0
0
0
0
0
0
0
0
0
0
0
0
0
0
0
0
0
0
0
0
0
0
0
0
0
0
0
0
0
0
0
0
0
0
0
0
0
0
0
0
0
0
0
0
0
0
-7.10543e-15
0
0
0
0
0
0
0
0
0
0
0
0
0
0
0
0
-7.10543e-15
-7.10543e-15
-1.20792e-13
0
0
0
0
0
0
0
0
0
0
0
0
0
0
-7.10543e-15
-7.10543e-15
-1.20792e-13
-9.23706e-14
-1.3074e-12
0
0
0
0
0
0
0
0
0
0
0
0
-7.10543e-15
0
-1.20792e-13
-4.26326e-14
-1.42819e-12
-7.38964e-13
-9.35074e-12
7.88695e-10
1.66196e-10
3.85847e-09
3.65034e-10
3.26981e-10
8.74181e-11
1.3229e-09
9.29603e-11
5.67013e-11
2.15366e-11
2.32426e-10
2.22542e-11
-1.04829e-09
4.29878e-12
3.91793e-11
9.79128e-12
5.44276e-12
-2.62417e-08
1.16238e-10
2.96485e-10
1.67461e-10
-6.6523e-07
2.78823e-09
8.7003e-09
4.46784e-09
5.59958e-08
3.17365e-07
1.05636e-07
-2.18484e-06
-6.42929e-06
-7.16365e-06
-1.95454e-06
-1.21089e-06
-2.92505e-07
-1.30539e-06
-2.9589e-07
1.32119e-06
-1.78151e-05
-0.000136049
5.16401e-06
-7.01436e-07
2.05165e-05
-0.0275563
0.000456069
-0.00458224
0.000839374
0.00203182
-0.000124266
-2.02505e-12
-7.81597e-14
7.10543e-15
-7.29798e-11
-3.18323e-12
3.19744e-13
-2.32097e-09
-1.20444e-10
1.24523e-11
-6.50648e-08
-4.71424e-09
4.53092e-10
-7.67371e-08
1.49735e-08
-2.51505e-07
-1.79632e-07
-1.01112e-06
-4.99592e-07
-6.27711e-08
-7.64242e-08
-6.34407e-08
-5.77256e-06
4.32939e-07
2.32828e-06
-5.35094e-06
-1.44619e-05
-1.20848e-05
-1.97089e-06
-1.92301e-06
-2.08279e-06
-2.10676e-06
-0.17957
0.000993025
-0.0425174
0.0109393
-6.06098
0.398701
-4.03005
5.96828
0.449779
-3.76357
5.1748
-5.00668
-9.8197e-12
-3.12639e-13
3.90799e-14
-3.58476e-10
-1.34222e-11
1.59162e-12
-1.51426e-08
-5.32474e-10
6.11244e-11
-2.82901e-07
-2.05226e-08
2.50557e-09
-1.78422e-07
-2.81576e-07
-2.83224e-07
-5.7147e-07
-1.30288e-07
3.12265e-08
4.40292e-07
1.18225e-06
-1.32659e-05
-6.86589e-06
-6.22365e-06
-1.60658e-05
2.26497e-06
-1.50054e-06
-1.62107e-06
-1.61205e-06
-1.76036e-06
0.00058011
0.0010163
-0.0202643
-0.00255519
7.94059e-05
-2.42614
0.479416
2.66043
6.2649
-6.17671
-4.44089e-11
-9.02389e-13
1.7053e-13
-1.63797e-09
-3.39639e-11
7.09477e-12
-4.8686e-08
-1.10331e-09
2.92395e-10
-2.44164e-07
-3.23165e-08
1.12301e-08
-3.08066e-07
-2.02791e-07
-2.54103e-07
-1.6711e-06
-1.19327e-07
3.12178e-08
1.27704e-07
2.60657e-06
5.20936e-06
-2.54031e-05
-3.03572e-06
4.61247e-07
0.092181
0.122848
-1.2645
-0.231268
0.0138104
0.478992
-2.17929
6.34394
-6.29468
-1.04528e-10
-3.2685e-13
4.36984e-13
-3.43663e-09
-8.71125e-12
1.74687e-11
-9.27522e-08
6.61913e-10
2.29417e-08
-4.73654e-07
-7.27677e-07
-5.00341e-07
-3.68845e-07
-2.26589e-05
-7.36605e-07
-1.94349e-06
4.9749e-06
1.33147e-06
-4.97167e-05
-1.81098e-05
-3.74906e-05
1.38704e-06
-1.05338
-0.0259936
0.046962
-0.112245
0.0334132
0.0967268
-0.885651
-7.23077
-0.801692
1.31191
7.33216
1.07198
-1.3182e-10
6.43041e-13
1.63425e-13
2.36895e-11
8.5052e-12
-5.7554e-13
-2.13163e-14
0
-2.11458e-11
-9.09495e-13
1.27898e-13
-7.21528e-10
-3.5854e-11
4.91696e-12
-2.04638e-08
-1.33124e-09
1.72154e-10
-4.12579e-08
5.343e-09
-8.60271e-08
-7.31937e-08
-1.48377e-07
-8.82154e-08
-2.10976e-06
-3.16701e-07
5.0688e-07
1.25588e-07
-7.65347e-07
-1.95927e-06
-2.52552e-06
-1.85487e-06
-0.0100699
-0.000667184
-0.00175243
0.000172819
0.000502175
-5.6983
-1.52717
-3.64358
1.67593
4.90526
-1.42803
-3.44584
1.7178
4.94458
-4.62255
3.69519
-2.85638e-12
-9.9476e-14
1.77636e-14
-9.40048e-11
-3.87246e-12
6.6791e-13
-2.88712e-09
-1.36637e-10
2.36788e-11
-8.59915e-08
-4.76529e-09
7.81831e-10
-6.45959e-07
-4.92463e-08
2.48793e-08
-1.49336e-06
-1.9793e-07
-3.96107e-07
-4.94322e-08
-4.86093e-08
-4.31392e-08
-2.37864e-08
-2.21959e-08
-2.39339e-08
-2.76952e-08
-3.42275e-07
-7.2489e-07
1.77315e-07
2.01665e-07
-2.32658e-06
-2.42701e-06
-2.40085e-06
-3.1694e-06
-5.39171e-05
2.26824e-05
4.62654e-05
-0.000932299
-0.000102309
1.60407e-05
-2.21345
-1.47443
1.76065
2.43775
5.77505
-5.38277
-1.07576e-11
-2.62901e-13
6.75016e-14
-3.9315e-10
-9.54259e-12
2.68585e-12
-1.65503e-08
-3.47953e-10
9.66587e-11
-1.67562e-07
-1.20236e-08
3.50606e-09
-1.4741e-07
-2.11239e-07
-2.12578e-07
-5.9784e-08
-5.12674e-07
-7.46977e-08
6.83678e-08
-8.7698e-07
1.16479e-06
1.67518e-06
-2.32599e-05
-5.65198e-05
-1.68575e-05
-9.2723e-06
-1.54299e-06
-8.92521e-07
-1.85727e-06
3.60192e-06
-1.39182e-06
-2.29287e-06
-1.51153e-06
-1.22084e-06
-0.00958297
0.00383402
0.00654145
-0.119158
-0.0103708
0.00252744
-1.44599
-1.99486
1.70864
5.69276
-5.34278
-2.88978e-11
-1.13687e-13
1.81188e-13
-1.09009e-09
-3.46034e-12
6.81766e-12
-3.69541e-08
2.45965e-10
8.42333e-09
-2.39317e-07
-1.78584e-07
-2.16961e-07
-1.79729e-07
1.08979e-07
-6.85968e-06
-7.21929e-08
-4.09916e-07
8.30947e-07
8.88849e-08
-0.00418657
-4.97783e-05
7.52687e-05
-0.000508282
6.17881e-05
0.000223089
-5.96087
-0.401557
2.16248
-2.46909
0.587305
4.28096
-1.80136
-0.702512
5.68555
0.922204
-5.05951
2.34407
-4.07283e-11
2.80664e-13
3.55271e-14
9.86944e-12
1.82609e-12
-8.52651e-14
0
0
-2.89901e-12
-1.35003e-13
1.77636e-14
-9.58593e-11
-5.00222e-12
6.85674e-13
-2.90215e-09
-1.69059e-10
2.47873e-11
-7.92498e-08
-5.95697e-09
8.57018e-10
-1.3821e-07
-5.06161e-08
2.78808e-08
-3.01196e-07
-1.20153e-06
-2.33855e-07
-4.32992e-08
-3.06014e-08
-3.52713e-08
-1.11586e-07
-7.23255e-08
-4.85523e-08
-4.71999e-08
8.89895e-08
-4.84517e-07
-1.35619e-07
-1.16e-07
0.00138183
-0.0327702
-0.00685444
-0.0203706
0.00141452
0.00220471
0.000152074
0.000150977
0.000239802
-0.00358048
-0.00226129
-0.000900929
-4.33431e-13
-1.42109e-14
0
-1.43388e-11
-6.53699e-13
9.9476e-14
-4.81165e-10
-2.22968e-11
3.54561e-12
-1.69949e-08
-7.43995e-10
1.22981e-10
-9.29344e-08
-2.5991e-08
4.72875e-09
-1.14454e-07
-1.32946e-07
-1.07605e-07
-7.96814e-08
-4.16215e-07
-7.55557e-08
7.43463e-08
-1.55353e-06
1.49587e-06
1.91528e-06
-1.79384e-05
-6.32264e-05
-9.00559e-06
-5.21356e-06
-3.02573e-06
-2.31778e-06
-8.50923e-06
3.4386e-06
-1.54568e-06
-3.48601e-06
-1.8745e-06
-1.41551e-06
0.0666433
0.0940342
-0.972071
-0.274862
-0.591502
0.107156
-1.79057e-12
-4.9738e-14
1.06581e-14
-5.85132e-11
-1.79057e-12
4.08562e-13
-1.76846e-09
-5.88471e-11
1.41327e-11
-4.5073e-08
-1.83303e-09
4.86452e-10
-2.26613e-07
-4.87423e-08
1.59431e-08
-3.66652e-07
-1.19241e-07
-1.42885e-07
-4.13613e-08
-3.30469e-08
-4.21616e-08
-3.69758e-08
-2.67477e-07
-2.06526e-06
-1.5977e-07
1.20764e-07
8.99086e-08
-1.47908e-05
3.19971e-06
8.82504e-06
-8.93651e-05
-8.08618e-06
5.01719e-06
-5.60554
-1.65212
-2.96995
5.52206
1.82189
2.96866
-4.82459e-12
-2.84217e-14
2.84217e-14
-1.55659e-10
-7.74492e-13
1.08713e-12
-4.60336e-09
3.80744e-11
-1.19401e-07
1.31457e-09
4.17394e-08
-3.5005e-07
-1.39155e-06
-9.99595e-07
-2.88245e-07
-6.68143e-08
-6.51277e-08
-8.67818e-08
1.08847e-06
-5.5186e-06
-4.71673e-07
2.46217e-06
6.41769e-07
-9.72241e-06
-5.32257e-06
-8.41382e-06
-2.26956e-06
-2.03256e-06
-1.61267e-06
-1.66711e-06
0.00100567
-0.0292315
-0.000565832
-0.0119246
0.00066718
0.00191913
-5.71346
-2.9334
-1.24233
5.72258
1.45842
2.94727
-7.41807e-12
4.26326e-14
7.10543e-15
1.69109e-12
2.91323e-13
-7.10543e-15
0
0
-3.97904e-13
-2.13163e-14
0
-1.27187e-11
-8.02913e-13
9.59233e-14
-3.76808e-10
-2.63185e-11
3.29692e-12
-1.00754e-08
-8.35449e-10
1.07754e-10
-2.37439e-07
-2.64763e-08
3.32646e-09
-1.94071e-07
1.0285e-07
-3.65447e-07
-9.1707e-07
-3.02987e-06
-6.88698e-07
-2.22962e-07
-1.5861e-07
-9.83773e-07
-3.53226e-07
-1.63907e-07
-1.83237e-07
-0.0021976
-0.000427093
9.23461e-05
8.86309e-05
0.000150378
1.8167e-05
-0.000436091
-0.00017911
-0.000151052
3.89284e-05
-7.10543e-14
0
0
-2.31637e-12
-1.06581e-13
1.42109e-14
-7.29514e-11
-3.68061e-12
5.47118e-13
-2.30132e-09
-1.19364e-10
1.81437e-11
-6.78932e-08
-3.61417e-09
6.1258e-10
-2.9127e-07
-1.09504e-07
2.11103e-08
-3.95793e-07
-3.70728e-07
-2.75134e-07
-4.67857e-08
-4.21687e-08
-4.8925e-08
-5.3785e-08
-2.63108e-07
-1.3632e-06
-2.69933e-07
2.01678e-07
0.00662722
-0.113988
-0.021748
0.00521029
0.00872194
-2.95257
-1.17662
-1.26693
0.619378
0.658366
0.421761
-3.05533e-13
-7.10543e-15
0