/*--------------------------------*- C++ -*----------------------------------*\
  =========                 |
  \\      /  F ield         | OpenFOAM: The Open Source CFD Toolbox
   \\    /   O peration     | Website:  https://openfoam.org
    \\  /    A nd           | Version:  9
     \\/     M anipulation  |
\*---------------------------------------------------------------------------*/
FoamFile
{
    format      ascii;
    class       volVectorField;
    location    "0.0021";
    object      rhoU;
}
// * * * * * * * * * * * * * * * * * * * * * * * * * * * * * * * * * * * * * //

dimensions      [1 -2 -1 0 0 0 0];

internalField   nonuniform List<vector> 
17182
(
(-2.84217e-15 0 1.51441e-15)
(-2.90717e-13 1.64846e-14 9.60961e-14)
(-9.15351e-12 9.10063e-13 3.41987e-12)
(-2.5325e-10 2.72153e-11 1.00219e-10)
(-6.8417e-09 8.14148e-10 2.84966e-09)
(-1.83869e-07 2.47024e-08 8.48703e-08)
(-4.26686e-06 6.97462e-07 2.52312e-06)
(0 0 -9.74768e-20)
(-1.05351e-14 0 2.97483e-15)
(-5.28479e-13 4.56642e-14 2.4943e-13)
(-1.49394e-11 1.77806e-12 7.91754e-12)
(-3.78844e-10 5.07449e-11 2.17356e-10)
(-9.29847e-09 1.39107e-09 5.88879e-09)
(-2.14289e-07 3.63191e-08 1.58205e-07)
(0 0 0)
(0 0 0)
(-1.63487e-14 0 8.42107e-15)
(-6.75651e-13 7.86334e-14 4.38746e-13)
(-1.70824e-11 2.45412e-12 1.22879e-11)
(-3.82795e-10 6.19364e-11 3.0879e-10)
(-7.91775e-09 1.42985e-09 7.47425e-09)
(0 0 0)
(0 0 0)
(0 0 0)
(-1.78926e-14 5.68434e-16 1.3109e-14)
(-6.40158e-13 9.00021e-14 5.45158e-13)
(-1.42295e-11 2.39311e-12 1.35728e-11)
(-2.6819e-10 5.09491e-11 2.98751e-10)
(0 0 0)
(0 0 0)
(0 0 0)
(0 0 0)
(-1.34832e-14 1.89478e-16 1.40214e-14)
(-4.51663e-13 6.74542e-14 4.89327e-13)
(-8.62523e-12 1.66741e-12 1.03553e-11)
(-3.86005e-06 7.43683e-07 3.50114e-06)
(-1.39733e-07 2.87889e-08 1.65028e-07)
(-4.26792e-09 9.26317e-10 5.94385e-09)
(-1.28716e-10 2.86296e-11 1.89798e-10)
(-4.43433e-05 8.10486e-06 3.47469e-05)
(-12.3949 1.49147 10.5845)
(-2.25066e-05 5.42404e-06 3.05464e-05)
(-1.81746e-06 4.19209e-07 2.61648e-06)
(-5.0968e-08 1.3119e-08 9.4939e-08)
(-1.44682e-09 3.8147e-10 2.83422e-09)
(-737.651 93.449 724.613)
(-0.0007538 0.000216252 0.0012482)
(-2.51394e-05 5.9563e-06 4.73602e-05)
(-4.41903e-07 1.19176e-07 1.07072e-06)
(-1.1653e-08 3.27842e-09 2.9076e-08)
(-2.60166e-06 4.39229e-08 1.65279e-07)
(-0.00166174 5.69196e-05 5.18775e-05)
(-257.06 13.3907 6.7464)
(-1614.63 83.8187 179.091)
(-9.42422e-07 1.10062e-08 1.99333e-07)
(-0.000111735 9.42822e-06 2.37852e-05)
(-0.00227647 0.000122841 0.000405411)
(-1133.28 57.9477 403.877)
(-1066.37 59.7951 353.767)
(-1.77549e-07 -1.22848e-10 4.22976e-08)
(-4.40833e-06 1.91686e-08 1.35257e-06)
(-0.013161 0.000475449 0.00524997)
(-1.01588 0.0427113 0.610339)
(-1388.06 75.738 906.164)
(0 0 0)
(-2.95917e-25 0 0)
(-1.90916e-22 0 0)
(-5.46989e-20 0 0)
(-7.49763e-18 0 0)
(-7.20084e-16 0 0)
(-4.93399e-14 -7.7686e-14 1.42109e-15)
(-1.02877e-12 -1.82827e-12 6.78331e-14)
(-1.50108e-11 -3.32528e-11 1.2426e-12)
(-1.60847e-10 -4.54738e-10 1.79395e-11)
(0 0 0)
(-5.37379e-23 0 0)
(-2.96975e-20 0 0)
(-6.94245e-18 0 0)
(-8.98446e-16 0 0)
(-7.84636e-14 -9.45199e-14 2.08426e-15)
(-1.9851e-12 -2.7449e-12 1.07813e-13)
(-3.78171e-11 -6.37e-11 2.48548e-12)
(-5.5536e-10 -1.21667e-09 4.92687e-11)
(-6.02137e-09 -1.71064e-08 7.47068e-10)
(0 0 0)
(-9.48743e-21 0 0)
(-4.23202e-18 0 0)
(-8.19481e-16 0 0)
(-9.76841e-14 -8.79701e-14 2.84217e-15)
(-2.79922e-12 -2.93753e-12 1.34624e-13)
(-6.66486e-11 -8.23998e-11 3.65626e-12)
(-1.34466e-09 -2.07603e-09 9.41739e-11)
(-2.1219e-08 -4.25723e-08 2.13415e-09)
(-2.41369e-07 -6.34504e-07 3.65227e-08)
(0 0 0)
(-1.5694e-18 0 0)
(-5.38252e-16 0 0)
(-8.77335e-14 -6.20161e-14 1.7053e-15)
(-2.91576e-12 -2.36099e-12 1.47186e-13)
(-8.28795e-11 -7.55683e-11 3.81373e-12)
(-2.16019e-09 -2.32147e-09 1.22949e-10)
(-4.78388e-08 -6.3465e-08 3.80804e-09)
(-8.01176e-07 -1.27369e-06 9.35226e-08)
(-4.46603e-06 -9.51046e-06 9.8056e-07)
(0 0 0)
(-2.31548e-16 0 0)
(-6.03079e-14 -3.00917e-14 4.73695e-16)
(-2.27198e-12 -1.3892e-12 6.36081e-14)
(-7.31652e-11 -4.90358e-11 2.97916e-12)
(-2.27337e-09 -1.70178e-09 1.08651e-10)
(-6.43266e-08 -5.69088e-08 4.16091e-09)
(-1.39548e-06 -1.47343e-06 1.33613e-07)
(-7.66766e-06 -9.92687e-06 7.0952e-07)
(-0.000302448 -0.0006164 0.000119315)
(0 0 0)
(-2.9071e-14 -8.62655e-15 0)
(-1.29303e-12 -5.91173e-13 4.32957e-14)
(-4.55842e-11 -2.24125e-11 1.67933e-12)
(-1.56776e-09 -8.20224e-10 6.52824e-11)
(-5.21853e-08 -3.11946e-08 2.80218e-09)
(-1.37007e-06 -1.05025e-06 1.09596e-07)
(-8.60682e-06 -7.89424e-06 6.34127e-07)
(-0.000267195 -0.000282258 1.27097e-05)
(-7.19059 -11.4837 2.96724)
(-7.95808e-15 -9.44173e-16 0)
(-5.30469e-13 -1.7398e-13 1.36424e-14)
(-1.99468e-11 -7.40706e-12 6.82311e-13)
(-7.11462e-10 -2.72243e-10 2.68205e-11)
(-2.59642e-08 -1.03706e-08 1.17752e-09)
(-8.7658e-07 -4.31414e-07 5.61854e-08)
(-8.51026e-06 -5.37393e-06 5.81199e-07)
(-0.000217451 -0.000170313 8.62211e-06)
(-1306.33 -1217.8 59.0501)
(-1097.25 -1319.44 430.156)
(-1.53856e-13 -3.20218e-14 1.89478e-15)
(-6.2774e-12 -1.80175e-12 2.02836e-13)
(-2.24956e-10 -7.06674e-11 8.04499e-12)
(-7.88847e-09 -2.61985e-09 3.26272e-10)
(-3.17699e-07 -1.06315e-07 1.63772e-08)
(-2.42155e-05 -8.96322e-06 9.88253e-07)
(-0.677576 -0.310047 0.0090332)
(-1432.44 -1012.66 53.5833)
(-604.037 -482.533 35.5209)
(0 0 0)
(-2.51098e-26 0 0)
(-2.08915e-23 0 0)
(-6.63478e-21 0 0)
(-1.16756e-18 0 0)
(-1.40878e-16 0 0)
(-1.04749e-14 -1.95162e-14 1.7053e-15)
(-2.8954e-13 -5.3016e-13 1.03171e-13)
(-4.27845e-12 -9.29485e-12 2.16734e-12)
(-4.53019e-11 -1.24839e-10 2.89712e-11)
(0 0 0)
(-4.6739e-24 0 0)
(-3.54452e-21 0 0)
(-1.05499e-18 0 0)
(-1.7161e-16 0 0)
(-1.89113e-14 -2.14846e-14 2.74743e-15)
(-5.6334e-13 -7.7569e-13 1.75836e-13)
(-1.05369e-11 -1.74238e-11 4.25681e-12)
(-1.49265e-10 -3.1033e-10 7.52341e-11)
(-1.59638e-09 -4.10023e-09 9.87765e-10)
(0 0 0)
(-8.85986e-22 0 0)
(-5.88878e-19 0 0)
(-1.60637e-16 0 0)
(-2.34325e-14 -2.09191e-14 2.93691e-15)
(-7.87644e-13 -8.34427e-13 2.07857e-13)
(-1.81549e-11 -2.23023e-11 6.065e-12)
(-3.37892e-10 -5.05997e-10 1.35042e-10)
(-4.88893e-09 -9.49736e-09 2.40825e-09)
(-5.19784e-08 -1.18675e-07 2.9961e-08)
(0 0 0)
(-1.73943e-19 0 0)
(-9.30251e-17 0 0)
(-2.16048e-14 -1.28232e-14 2.27374e-15)
(-8.31163e-13 -6.77347e-13 1.98573e-13)
(-2.24476e-11 -2.06624e-11 6.40284e-12)
(-5.23841e-10 -5.61514e-10 1.70801e-10)
(-1.05908e-08 -1.42131e-08 3.94109e-09)
(-1.71378e-07 -3.18578e-07 7.51277e-08)
(-1.80726e-06 -3.35089e-06 8.07602e-07)
(0 0 0)
(-3.34524e-17 0 0)
(-1.33505e-14 -4.71977e-15 8.52651e-16)
(-6.50367e-13 -4.03181e-13 1.32066e-13)
(-2.00615e-11 -1.37859e-11 5.07735e-12)
(-5.51369e-10 -4.22841e-10 1.5406e-10)
(-1.44483e-08 -1.28138e-08 4.27083e-09)
(-3.7872e-07 -4.33012e-07 1.13755e-07)
(-4.07037e-06 -5.62399e-06 1.54535e-06)
(-0.000120934 -0.000198756 5.10394e-05)
(0 0 0)
(-5.62295e-15 -5.68004e-16 0)
(-3.81579e-13 -1.69304e-13 6.53699e-14)
(-1.29003e-11 -6.57062e-12 2.96183e-12)
(-3.93679e-10 -2.16031e-10 9.82824e-11)
(-1.17812e-08 -6.93006e-09 3.05334e-09)
(-3.98935e-07 -2.52868e-07 9.48713e-08)
(-6.94394e-06 -6.15207e-06 1.96255e-06)
(-4.73662e-05 -5.63785e-05 1.41771e-05)
(-1.90287 -3.20214 0.944364)
(-5.68434e-16 0 0)
(-1.53115e-13 -4.50041e-14 2.00847e-14)
(-5.85731e-12 -2.2053e-12 1.23303e-12)
(-1.91032e-10 -7.79438e-11 4.39625e-11)
(-5.81412e-09 -2.57556e-09 1.44168e-09)
(-1.73928e-07 -8.48229e-08 4.37624e-08)
(-5.7787e-06 -3.5324e-06 1.43777e-06)
(-4.35786e-05 -2.6679e-05 9.42241e-06)
(-1234.18 -1148.6 530.919)
(-1112.75 -1340.64 557.791)
(-4.05483e-14 -5.11591e-15 3.78389e-15)
(-1.87593e-12 -5.10454e-13 3.57036e-13)
(-6.58772e-11 -2.01351e-11 1.40705e-11)
(-2.10111e-09 -7.30428e-10 4.79654e-10)
(-6.12816e-08 -2.47148e-08 1.46309e-08)
(-1.71222e-06 -7.79781e-07 3.68623e-07)
(-0.0282133 -0.0119451 0.00642363)
(-975.972 -685.005 383.366)
(-883.64 -685.823 434.051)
(-318.305 -291.418 130.713)
(0 0 0)
(-4.46156e-28 0 0)
(-5.72664e-25 0 0)
(-2.47421e-22 0 0)
(-5.28714e-20 0 0)
(-6.68757e-18 0 0)
(-5.24759e-16 0 0)
(-2.82655e-14 -5.96856e-14 8.90547e-15)
(-5.14742e-13 -1.15809e-12 2.6669e-13)
(-5.65497e-12 -1.56693e-11 3.80958e-12)
(0 0 0)
(-8.66204e-26 0 0)
(-9.9924e-23 0 0)
(-3.74932e-20 0 0)
(-7.19862e-18 0 0)
(-8.29067e-16 0 0)
(-6.0182e-14 -8.91955e-14 1.80004e-14)
(-1.28724e-12 -2.13133e-12 5.47118e-13)
(-1.85914e-11 -3.89192e-11 9.84954e-12)
(-1.94012e-10 -5.30049e-10 1.33841e-10)
(0 0 0)
(-1.66329e-23 0 0)
(-1.67726e-20 0 0)
(-5.29133e-18 0 0)
(-8.8746e-16 0 0)
(-9.14861e-14 -9.80294e-14 2.179e-14)
(-2.22312e-12 -2.7582e-12 7.82829e-13)
(-4.19964e-11 -6.31269e-11 1.765e-11)
(-6.14718e-10 -1.20807e-09 3.25624e-10)
(-6.45563e-09 -1.70348e-08 4.55974e-09)
(0 0 0)
(-3.16441e-21 0 0)
(-2.60561e-18 0 0)
(-6.75114e-16 0 0)
(-9.77232e-14 -7.71607e-14 2.16952e-14)
(-2.78576e-12 -2.60253e-12 8.42514e-13)
(-6.51996e-11 -7.10222e-11 2.24972e-11)
(-1.31285e-09 -1.76681e-09 5.34318e-10)
(-2.08439e-08 -3.70261e-08 1.10127e-08)
(-2.25366e-07 -5.3312e-07 1.64986e-07)
(0 0 0)
(-5.79854e-19 0 0)
(-3.59731e-16 0 0)
(-7.60394e-14 -4.44357e-14 1.26003e-14)
(-2.5313e-12 -1.79351e-12 6.69615e-13)
(-7.02957e-11 -5.5639e-11 2.05241e-11)
(-1.79916e-09 -1.65224e-09 5.86859e-10)
(-4.07013e-08 -4.65657e-08 1.63741e-08)
(-6.92169e-07 -9.70756e-07 3.92852e-07)
(-6.66562e-06 -1.20774e-05 5.93118e-06)
(0 0 0)
(-9.82328e-17 0 0)
(-4.30839e-14 -1.54595e-14 5.5896e-15)
(-1.69234e-12 -8.76613e-13 3.94209e-13)
(-5.28093e-11 -3.01063e-11 1.33969e-11)
(-1.57529e-09 -9.83343e-10 4.29765e-10)
(-4.54876e-08 -3.27382e-08 1.43044e-08)
(-1.06196e-06 -9.88154e-07 4.86864e-07)
(-5.48684e-06 -6.22724e-06 2.65111e-06)
(-0.00212208 -0.00330242 0.00264149)
(0 0 0)
(-1.45093e-14 -2.4542e-15 1.23161e-15)
(-7.8932e-13 -2.93862e-13 1.53951e-13)
(-2.72424e-11 -1.11558e-11 6.14127e-12)
(-8.77608e-10 -3.78057e-10 2.09223e-10)
(-2.83157e-08 -1.30152e-08 7.2701e-09)
(-8.54863e-07 -4.91663e-07 2.78756e-07)
(-7.02942e-06 -5.11213e-06 2.70975e-06)
(-0.00022317 -0.000205782 0.000141332)
(-79.3899 -87.622 84.2062)
(-2.08426e-15 0 3.25711e-17)
(-2.58658e-13 -6.04435e-14 4.01484e-14)
(-9.56503e-12 -2.87287e-12 1.9809e-12)
(-3.16734e-10 -1.01472e-10 7.0359e-11)
(-1.0197e-08 -3.46618e-09 2.43359e-09)
(-3.76186e-07 -1.30043e-07 9.88537e-08)
(-7.13915e-06 -3.15067e-06 2.84199e-06)
(-9.02413e-05 -4.24651e-05 5.17242e-05)
(-39.7878 -28.8148 35.9177)
(-1106.61 -954.129 976.666)
(0 0 0)
(-1.61132e-30 0 0)
(-1.44201e-26 0 0)
(-7.60579e-24 0 0)
(-1.90011e-21 0 0)
(-2.66024e-19 0 0)
(-2.32838e-17 0 0)
(-1.36709e-15 -2.65269e-15 0)
(-5.5506e-14 -1.31308e-13 2.359e-14)
(-7.17364e-13 -1.92652e-12 4.62325e-13)
(0 0 0)
(-1.148e-27 0 0)
(-2.40306e-24 0 0)
(-1.11659e-21 0 0)
(-2.64948e-19 0 0)
(-3.50995e-17 0 0)
(-2.66083e-15 -4.72321e-15 2.84217e-16)
(-1.36987e-13 -2.27997e-13 5.4096e-14)
(-2.22996e-12 -4.36936e-12 1.1814e-12)
(-2.45359e-11 -6.20834e-11 1.6365e-11)
(0 0 0)
(-2.57532e-25 0 0)
(-3.79216e-22 0 0)
(-1.63204e-19 0 0)
(-3.86383e-17 0 0)
(-5.32088e-15 -5.10002e-15 7.57912e-16)
(-2.38111e-13 -2.91325e-13 8.3844e-14)
(-4.66895e-12 -6.74426e-12 2.08018e-12)
(-6.94019e-11 -1.24996e-10 3.81868e-11)
(-7.63566e-10 -1.81056e-09 5.34763e-10)
(0 0 0)
(-5.07101e-23 0 0)
(-5.66999e-20 0 0)
(-2.52944e-17 0 0)
(-5.85712e-15 -3.21339e-15 5.68434e-16)
(-2.92109e-13 -2.77045e-13 9.00968e-14)
(-6.9278e-12 -7.43734e-12 2.65061e-12)
(-1.32672e-10 -1.6998e-10 6.08705e-11)
(-2.05344e-09 -3.34826e-09 1.19511e-09)
(-2.31471e-08 -5.07292e-08 1.78254e-08)
(0 0 0)
(-9.22797e-21 0 0)
(-8.90626e-18 0 0)
(-4.13831e-15 -9.461e-16 9.4739e-17)
(-2.7277e-13 -1.92115e-13 7.32333e-14)
(-7.38215e-12 -5.95327e-12 2.45914e-12)
(-1.7193e-10 -1.58238e-10 6.70525e-11)
(-3.53465e-09 -3.89258e-09 1.70019e-09)
(-5.92316e-08 -8.29056e-08 3.73597e-08)
(-7.11421e-07 -1.26492e-06 5.92167e-07)
(0 0 0)
(-1.51833e-18 0 0)
(-1.80427e-15 0 0)
(-1.82629e-13 -9.4226e-14 4.20641e-14)
(-5.69091e-12 -3.42101e-12 1.6693e-12)
(-1.52794e-10 -1.00949e-10 5.12703e-11)
(-3.82281e-09 -2.84411e-09 1.53264e-09)
(-8.5758e-08 -7.64818e-08 4.43205e-08)
(-1.45305e-06 -1.57679e-06 9.70205e-07)
(-1.50707e-05 -2.11744e-05 1.26943e-05)
(0 0 0)
(-2.18339e-16 0 0)
(-8.89159e-14 -3.05083e-14 1.42109e-14)
(-3.13331e-12 -1.37703e-12 7.97608e-13)
(-9.28967e-11 -4.41323e-11 2.69503e-11)
(-2.60046e-09 -1.32849e-09 8.72955e-10)
(-6.97416e-08 -3.99332e-08 2.89779e-08)
(-1.53089e-06 -1.14569e-06 8.80559e-07)
(-8.4552e-06 -7.4514e-06 4.8273e-06)
(-0.00259077 -0.00297254 0.00194697)
(0 0 0)
(-2.65501e-14 -3.22113e-15 2.8052e-15)
(-1.20119e-12 -3.82746e-13 2.61668e-13)
(-3.84631e-11 -1.34617e-11 9.66161e-12)
(-1.13691e-09 -4.28782e-10 3.21126e-10)
(-3.2594e-08 -1.31908e-08 1.0724e-08)
(-9.43703e-07 -4.23356e-07 4.0925e-07)
(-9.4733e-06 -5.47611e-06 5.6377e-06)
(-0.00203026 -0.00135931 0.00118474)
(-29.1192 -26.1729 19.2064)
(0 0 0)
(1.3816e-31 0 0)
(-1.32332e-28 0 0)
(-1.23412e-25 0 0)
(-4.38293e-23 0 0)
(-7.83789e-21 0 0)
(-8.70967e-19 0 0)
(-5.53556e-17 0 0)
(-2.27089e-15 -7.95808e-15 8.52651e-16)
(-6.76437e-14 -1.99539e-13 4.617e-14)
(0 0 0)
(2.32737e-31 0 0)
(-2.38382e-26 0 0)
(-1.95622e-23 0 0)
(-6.54499e-21 0 0)
(-1.1021e-18 0 0)
(-1.19963e-16 0 0)
(-7.89392e-15 -1.56528e-14 2.55795e-15)
(-2.16073e-13 -4.18577e-13 1.19182e-13)
(-2.71503e-12 -6.52572e-12 1.93947e-12)
(0 0 0)
(-1.04267e-27 0 0)
(-4.09446e-24 0 0)
(-3.11318e-21 0 0)
(-9.83489e-19 0 0)
(-1.5659e-16 0 0)
(-1.64172e-14 -2.07342e-14 4.45273e-15)
(-4.47592e-13 -6.37352e-13 2.12405e-13)
(-7.16794e-12 -1.22217e-11 4.15431e-12)
(-8.34373e-11 -1.85224e-10 6.01952e-11)
(0 0 0)
(-2.62375e-25 0 0)
(-6.8749e-22 0 0)
(-5.00672e-19 0 0)
(-1.44681e-16 0 0)
(-2.1097e-14 -1.94173e-14 5.11591e-15)
(-6.49681e-13 -6.87143e-13 2.68396e-13)
(-1.28425e-11 -1.59695e-11 6.30356e-12)
(-2.02987e-10 -3.10251e-10 1.18656e-10)
(-2.4073e-09 -4.91364e-09 1.78056e-09)
(0 0 0)
(-5.43469e-23 0 0)
(-1.19926e-19 0 0)
(-7.93286e-17 0 0)
(-1.96106e-14 -1.15082e-14 3.8843e-15)
(-6.84135e-13 -5.55072e-13 2.50964e-13)
(-1.60908e-11 -1.48037e-11 6.81581e-12)
(-3.21527e-10 -3.4514e-10 1.57506e-10)
(-5.39787e-09 -7.18767e-09 3.19424e-09)
(-6.85457e-08 -1.26212e-07 5.1997e-08)
(0 0 0)
(-1.00626e-20 0 0)
(-2.20962e-17 0 0)
(-1.17298e-14 -2.83016e-15 1.7053e-15)
(-5.32699e-13 -3.21071e-13 1.71478e-13)
(-1.4365e-11 -9.80562e-12 5.3411e-12)
(-3.39638e-10 -2.58704e-10 1.42593e-10)
(-7.28112e-09 -6.42195e-09 3.56345e-09)
(-1.38498e-07 -1.51205e-07 8.02654e-08)
(-2.12539e-06 -3.10739e-06 1.47741e-06)
(0 0 0)
(-1.64968e-18 0 0)
(-3.66145e-15 0 2.84217e-16)
(-2.99412e-13 -1.31573e-13 7.9486e-14)
(-9.12658e-12 -4.56847e-12 2.98958e-12)
(-2.41866e-10 -1.31246e-10 8.81357e-11)
(-6.0158e-09 -3.56011e-09 2.48008e-09)
(-1.43938e-07 -9.63219e-08 6.79988e-08)
(-3.12608e-06 -2.53476e-06 1.61411e-06)
(-4.04195e-05 -4.52251e-05 2.96725e-05)
(0 0 0)
(-2.3463e-16 0 2.24563e-17)
(-1.19416e-13 -3.35376e-14 2.43709e-14)
(-4.04021e-12 -1.49271e-12 1.16869e-12)
(-1.16063e-10 -4.62107e-11 3.71121e-11)
(-3.09779e-09 -1.32771e-09 1.1027e-09)
(-8.0264e-08 -3.65787e-08 3.23435e-08)
(-2.00455e-06 -1.03911e-06 9.55166e-07)
(-0.000211464 -0.0001514 0.000124224)
(-3.66679 -3.22068 2.43052)
(0 0 0)
(-6.1997e-35 0 0)
(-2.28888e-31 0 0)
(-6.53369e-28 0 0)
(-3.95607e-25 0 0)
(-1.04143e-22 0 0)
(-1.59306e-20 0 0)
(-1.31764e-18 0 0)
(-6.03257e-17 0 0)
(-9.4739e-16 -7.64036e-15 1.87468e-15)
(0 0 0)
(-3.20349e-33 0 0)
(-4.98511e-29 0 0)
(-1.14202e-25 0 0)
(-6.30415e-23 0 0)
(-1.57592e-20 0 0)
(-2.27784e-18 0 0)
(-1.84703e-16 0 0)
(-8.59494e-15 -2.28017e-14 6.25278e-15)
(-1.82278e-13 -4.45067e-13 1.76002e-13)
(0 0 0)
(-4.6054e-31 0 0)
(-1.03561e-26 0 0)
(-1.96118e-23 0 0)
(-9.99952e-21 0 0)
(-2.34538e-18 0 0)
(-3.09174e-16 0 0)
(-2.47405e-14 -3.55842e-14 1.31687e-14)
(-4.87944e-13 -8.32338e-13 3.69861e-13)
(-6.06292e-12 -1.29157e-11 5.80165e-12)
(0 0 0)
(-1.25001e-28 0 0)
(-2.06595e-24 0 0)
(-3.36121e-21 0 0)
(-1.55106e-18 0 0)
(-3.22429e-16 0 0)
(-3.66962e-14 -3.85937e-14 1.83794e-14)
(-8.69536e-13 -1.06989e-12 5.54887e-13)
(-1.40217e-11 -2.08738e-11 1.07409e-11)
(-1.6981e-10 -3.27982e-10 1.64593e-10)
(0 0 0)
(-3.65753e-26 0 0)
(-4.11276e-22 0 0)
(-5.75623e-19 0 0)
(-2.24346e-16 0 0)
(-3.7938e-14 -2.80662e-14 1.57267e-14)
(-1.07646e-12 -9.90317e-13 5.91456e-13)
(-2.15206e-11 -2.30407e-11 1.37674e-11)
(-3.52703e-10 -4.58208e-10 2.70527e-10)
(-4.44604e-09 -7.66572e-09 4.39213e-09)
(0 0 0)
(-9.91899e-24 0 0)
(-8.62839e-20 0 0)
(-9.64688e-17 0 0)
(-2.77913e-14 -1.54646e-14 1.09897e-14)
(-9.60023e-13 -6.624e-13 4.64695e-13)
(-2.27367e-11 -1.77136e-11 1.2491e-11)
(-4.62798e-10 -4.14294e-10 2.93333e-10)
(-8.15038e-09 -8.85082e-09 6.22049e-09)
(-1.14352e-07 -1.68973e-07 1.1489e-07)
(0 0 0)
(-2.369e-21 0 0)
(-1.84283e-17 0 0)
(-1.47735e-14 -2.83017e-15 3.31587e-15)
(-6.24776e-13 -3.13495e-13 2.64985e-13)
(-1.67254e-11 -9.44874e-12 8.05803e-12)
(-3.94482e-10 -2.45566e-10 2.12808e-10)
(-8.56298e-09 -5.99827e-09 5.30676e-09)
(-1.72888e-07 -1.43981e-07 1.28149e-07)
(-2.79201e-06 -3.10604e-06 2.78019e-06)
(0 0 0)
(-4.85283e-19 0 0)
(-3.29751e-15 0 8.60167e-16)
(-2.81035e-13 -9.81496e-14 1.0146e-13)
(-8.46817e-12 -3.47939e-12 3.61845e-12)
(-2.20095e-10 -9.78359e-11 1.03564e-10)
(-5.31291e-09 -2.54813e-09 2.78281e-09)
(-1.24342e-07 -6.44757e-08 7.40161e-08)
(-2.71468e-06 -1.74833e-06 1.96439e-06)
(-0.000225017 -0.000188115 0.000212584)
(0 0 0)
(-3.58861e-37 0 0)
(-3.16582e-35 0 0)
(-7.68834e-31 0 0)
(-1.35522e-27 0 0)
(-6.58783e-25 0 0)
(-1.32327e-22 0 0)
(-1.506e-20 0 0)
(-9.15001e-19 0 0)
(-1.43865e-25 -9.62975e-18 4.0103e-18)
(0 0 0)
(-1.77432e-35 0 0)
(-9.95795e-33 0 0)
(-1.60896e-28 0 0)
(-2.38181e-25 0 0)
(-1.06634e-22 0 0)
(-1.99606e-20 0 0)
(-2.15663e-18 0 0)
(-1.30321e-16 0 0)
(-2.65269e-15 -1.71957e-14 7.34496e-15)
(0 0 0)
(-8.19312e-34 0 0)
(-2.96671e-30 0 0)
(-3.21197e-26 0 0)
(-4.14953e-23 0 0)
(-1.71295e-20 0 0)
(-2.92899e-18 0 0)
(-2.95305e-16 0 0)
(-1.81939e-14 -3.37106e-14 1.78109e-14)
(-3.0506e-13 -6.45603e-13 3.75861e-13)
(0 0 0)
(-3.51327e-32 0 0)
(-8.21468e-28 0 0)
(-6.2288e-24 0 0)
(-7.17802e-21 0 0)
(-2.62621e-18 0 0)
(-3.92031e-16 0 0)
(-3.54201e-14 -4.49885e-14 2.96533e-14)
(-6.93751e-13 -1.03621e-12 6.91784e-13)
(-8.7177e-12 -1.63136e-11 1.08225e-11)
(0 0 0)
(-1.42864e-30 0 0)
(-2.07444e-25 0 0)
(-1.21206e-21 0 0)
(-1.20459e-18 0 0)
(-3.60974e-16 0 0)
(-4.51938e-14 -4.27372e-14 3.27797e-14)
(-1.06775e-12 -1.14906e-12 8.77473e-13)
(-1.7423e-11 -2.243e-11 1.72079e-11)
(-2.1381e-10 -3.54127e-10 2.72079e-10)
(0 0 0)
(-7.56868e-29 0 0)
(-4.69715e-23 0 0)
(-2.41189e-19 0 0)
(-1.86217e-16 0 0)
(-4.21834e-14 -2.56282e-14 2.36848e-14)
(-1.13822e-12 -8.96817e-13 8.01492e-13)
(-2.26571e-11 -2.05417e-11 1.86139e-11)
(-3.71906e-10 -4.0368e-10 3.71109e-10)
(-4.72974e-09 -6.7055e-09 6.24729e-09)
(0 0 0)
(-1.31303e-26 0 0)
(-9.58153e-21 0 0)
(-4.76625e-17 0 0)
(-2.47544e-14 -9.06088e-15 1.26003e-14)
(-8.44747e-13 -4.79826e-13 5.22391e-13)
(-1.97177e-11 -1.26422e-11 1.39223e-11)
(-3.94534e-10 -2.86772e-10 3.24594e-10)
(-6.82388e-09 -5.85635e-09 6.89633e-09)
(-9.33665e-08 -1.04799e-07 1.30311e-07)
(0 0 0)
(-4.52901e-24 0 0)
(-2.16599e-18 0 0)
(-8.7729e-15 -9.4739e-16 3.23999e-15)
(-4.35563e-13 -1.75078e-13 2.37354e-13)
(-1.14897e-11 -5.2745e-12 7.14573e-12)
(-2.61234e-10 -1.31104e-10 1.84151e-10)
(-5.33919e-09 -2.96357e-09 4.40437e-09)
(-9.71397e-08 -6.19173e-08 1.00363e-07)
(-1.36871e-06 -1.15088e-06 1.93605e-06)
(0 0 0)
(0 0 0)
(-2.3392e-42 0 0)
(-6.28471e-35 0 0)
(-1.03602e-30 0 0)
(-1.49252e-27 0 0)
(-5.63808e-25 0 0)
(-8.96782e-23 0 0)
(-7.733e-21 0 0)
(-3.14514e-28 0 0)
(0 0 0)
(0 0 0)
(-1.57794e-39 0 0)
(-1.89999e-32 0 0)
(-2.16951e-28 0 0)
(-2.63099e-25 0 0)
(-9.05038e-23 0 0)
(-1.36228e-20 0 0)
(-1.09686e-18 0 0)
(-6.89649e-26 -1.43736e-17 1.35931e-17)
(0 0 0)
(0 0 0)
(-9.52263e-37 0 0)
(-5.45575e-30 0 0)
(-4.38139e-26 0 0)
(-4.65253e-23 0 0)
(-1.45816e-20 0 0)
(-2.05789e-18 0 0)
(-1.60009e-16 0 0)
(-4.73695e-15 -2.04557e-14 1.41068e-14)
(0 0 0)
(0 0 0)
(-5.13248e-34 0 0)
(-1.46147e-27 0 0)
(-8.75246e-24 0 0)
(-8.26482e-21 0 0)
(-2.27392e-18 0 0)
(-2.89571e-16 0 0)
(-2.17613e-14 -3.37068e-14 2.78533e-14)
(-3.45987e-13 -6.50491e-13 5.26029e-13)
(0 0 0)
(0 0 0)
(-2.48766e-31 0 0)
(-3.58082e-25 0 0)
(-1.78334e-21 0 0)
(-1.41726e-18 0 0)
(-3.21064e-16 0 0)
(-3.4754e-14 -3.78486e-14 3.64745e-14)
(-6.88081e-13 -8.83906e-13 8.28588e-13)
(-8.56138e-12 -1.38577e-11 1.30753e-11)
(0 0 0)
(0 0 0)
(-1.12523e-28 0 0)
(-7.92892e-23 0 0)
(-3.6788e-19 0 0)
(-2.1836e-16 0 0)
(-3.8333e-14 -2.80711e-14 3.54324e-14)
(-8.96269e-13 -8.2415e-13 8.99642e-13)
(-1.4473e-11 -1.57612e-11 1.75754e-11)
(-1.7502e-10 -2.42338e-10 2.7698e-10)
(0 0 0)
(0 0 0)
(-5.20747e-26 0 0)
(-1.662e-20 0 0)
(-7.18082e-17 0 0)
(-2.79137e-14 -1.20743e-14 1.90425e-14)
(-7.92802e-13 -5.11933e-13 6.85058e-13)
(-1.54976e-11 -1.15328e-11 1.56601e-11)
(-2.46321e-10 -2.16039e-10 3.05314e-10)
(-2.99662e-09 -3.34573e-09 4.99543e-09)
(0 0 0)
(0 0 0)
(-2.67396e-23 0 0)
(-4.10511e-18 0 4.02051e-18)
(-1.20787e-14 -1.51582e-15 7.46382e-15)
(-4.64864e-13 -2.06342e-13 3.51788e-13)
(-1.06283e-11 -5.4816e-12 9.26473e-12)
(-2.01745e-10 -1.16852e-10 2.07185e-10)
(-3.20357e-09 -2.14869e-09 4.09752e-09)
(-3.77493e-08 -3.23009e-08 6.79777e-08)
(0 0 0)
(0 0 0)
(0 0 0)
(-1.72218e-42 0 0)
(-4.42282e-35 0 0)
(-8.08796e-31 0 0)
(-9.06061e-28 0 0)
(-2.55537e-25 0 0)
(-3.29381e-23 0 0)
(-2.14377e-31 0 0)
(0 0 0)
(0 0 0)
(0 0 0)
(-1.24191e-39 0 0)
(-1.3852e-32 0 0)
(-1.71326e-28 0 0)
(-1.58518e-25 0 0)
(-4.09065e-23 0 0)
(-4.82595e-21 0 0)
(-5.42451e-29 0 0)
(0 0 0)
(0 0 0)
(0 0 0)
(-8.01529e-37 0 0)
(-4.16334e-30 0 0)
(-3.44583e-26 0 0)
(-2.76123e-23 0 0)
(-6.64315e-21 0 0)
(-7.25181e-19 0 0)
(-1.30768e-26 -1.20002e-17 2.23768e-17)
(0 0 0)
(0 0 0)
(0 0 0)
(-4.61332e-34 0 0)
(-1.17687e-27 0 0)
(-6.75192e-24 0 0)
(-4.89292e-21 0 0)
(-1.08805e-18 0 0)
(-1.11974e-16 0 0)
(-4.92643e-15 -1.58846e-14 1.72444e-14)
(0 0 0)
(0 0 0)
(0 0 0)
(-2.37819e-31 0 0)
(-3.05291e-25 0 0)
(-1.35464e-21 0 0)
(-8.66444e-19 0 0)
(-1.69107e-16 0 0)
(-1.64476e-14 -2.20499e-14 2.65269e-14)
(-2.77964e-13 -4.52819e-13 5.1131e-13)
(0 0 0)
(0 0 0)
(0 0 0)
(-1.13269e-28 0 0)
(-7.08501e-23 0 0)
(-2.83773e-19 0 0)
(-1.42667e-16 0 0)
(-2.27109e-14 -1.99789e-14 2.87059e-14)
(-4.69916e-13 -5.14918e-13 6.78426e-13)
(-5.82816e-12 -7.979e-12 1.06131e-11)
(0 0 0)
(0 0 0)
(0 0 0)
(-5.41067e-26 0 0)
(-1.45344e-20 0 0)
(-5.74827e-17 0 0)
(-1.99035e-14 -9.43513e-15 2.34005e-14)
(-5.07106e-13 -3.81804e-13 6.14383e-13)
(-8.11122e-12 -7.20978e-12 1.17381e-11)
(-9.4078e-11 -1.04698e-10 1.78647e-10)
(0 0 0)
(0 0 0)
(0 0 0)
(-2.84046e-23 0 0)
(-3.0063e-18 0 7.23582e-18)
(-9.77077e-15 -1.51582e-15 9.25621e-15)
(-3.5511e-13 -1.80004e-13 3.67129e-13)
(-6.81269e-12 -4.05009e-12 8.24421e-12)
(-1.01489e-10 -7.03462e-11 1.51743e-10)
(-1.12242e-09 -9.69648e-10 2.26778e-09)
(0 0 0)
(0 0 0)
(0 0 0)
(0 0 0)
(-2.95997e-43 0 0)
(-1.54465e-35 0 0)
(-2.69909e-31 0 0)
(-2.80058e-28 0 0)
(-6.79763e-26 0 0)
(-1.21403e-35 0 0)
(0 0 0)
(0 0 0)
(0 0 0)
(0 0 0)
(-2.59457e-40 0 0)
(-4.76076e-33 0 0)
(-5.91598e-29 0 0)
(-5.06133e-26 0 0)
(-1.06906e-23 0 0)
(-4.14385e-33 0 0)
(0 0 0)
(0 0 0)
(0 0 0)
(0 0 0)
(-2.01281e-37 0 0)
(-1.4402e-30 0 0)
(-1.23179e-26 0 0)
(-8.89141e-24 0 0)
(-1.66682e-21 0 0)
(-1.34988e-30 0 0)
(0 0 0)
(0 0 0)
(0 0 0)
(0 0 0)
(-1.37375e-34 0 0)
(-4.23777e-28 0 0)
(-2.43942e-24 0 0)
(-1.55427e-21 0 0)
(-2.64952e-19 0 0)
(-4.12254e-28 -3.21568e-18 2.15854e-17)
(0 0 0)
(0 0 0)
(0 0 0)
(0 0 0)
(-8.18997e-32 0 0)
(-1.18374e-25 0 0)
(-4.74462e-22 0 0)
(-2.75087e-19 0 0)
(-4.25805e-17 0 0)
(-2.27374e-15 -6.5373e-15 1.29615e-14)
(0 0 0)
(0 0 0)
(0 0 0)
(0 0 0)
(-4.22736e-29 0 0)
(-3.03494e-23 0 0)
(-9.67667e-20 0 0)
(-4.83179e-17 0 0)
(-6.69127e-15 -7.57912e-15 1.62951e-14)
(-1.58214e-13 -2.17188e-13 3.38372e-13)
(0 0 0)
(0 0 0)
(0 0 0)
(0 0 0)
(-1.88708e-26 0 0)
(-6.88809e-21 0 0)
(-2.11315e-17 0 0)
(-7.89831e-15 -3.78956e-15 1.54425e-14)
(-2.19929e-13 -1.98952e-13 3.73177e-13)
(-2.72185e-12 -3.02697e-12 5.57837e-12)
(0 0 0)
(0 0 0)
(0 0 0)
(0 0 0)
(-7.77389e-24 0 0)
(-1.33498e-18 0 0)
(-4.35581e-15 -1.89478e-16 7.57912e-15)
(-1.88426e-13 -1.07245e-13 2.69817e-13)
(-2.96084e-12 -2.09279e-12 4.82525e-12)
(-3.20174e-11 -2.79095e-11 6.86608e-11)
(-1.03956e-07 3.51827e-10 5.17837e-09)
(-3.60965e-08 -6.03571e-11 7.54917e-09)
(-6.32431e-09 -3.20671e-11 1.26071e-09)
(-1.05658e-09 -6.51407e-12 2.24528e-10)
(-2.79671e-08 -1.61681e-10 6.87649e-09)
(-6.94333e-07 -3.75271e-09 1.98457e-07)
(-1.76791e-05 -7.71647e-08 6.43716e-06)
(-0.00297183 0.000107055 0.000961046)
(-0.787579 0.0380049 0.290757)
(-1.4154e-12 -2.55414e-13 4.04536e-14)
(-5.66313e-11 -1.12108e-11 1.89128e-12)
(-2.01689e-09 -4.34057e-10 7.81417e-11)
(-6.33446e-08 -1.58652e-08 3.04672e-09)
(-1.75065e-06 -5.39332e-07 1.11851e-07)
(-0.000220705 -8.52385e-05 8.70397e-06)
(-4.60721 -2.13381 0.0721003)
(-1463.09 -987.779 58.8348)
(-516.59 -392.327 31.0939)
(-7.20244e-12 -1.29022e-12 2.39784e-13)
(-2.73539e-10 -5.11198e-11 9.53605e-12)
(-1.00257e-08 -1.93726e-09 3.99457e-10)
(-4.18786e-07 -8.17169e-08 2.0442e-08)
(-1.34425e-05 -3.21941e-06 9.27192e-07)
(-0.000221411 -6.94699e-05 7.52427e-06)
(-0.426586 -0.142844 0.00535009)
(-597.926 -244.656 30.4014)
(-3.02972e-11 -4.44792e-12 1.00035e-12)
(-1.2446e-09 -1.86772e-10 4.5908e-11)
(-4.5305e-08 -7.40723e-09 2.12908e-09)
(-1.31202e-06 -2.26067e-07 8.28276e-08)
(-1.6729e-05 -3.01247e-06 8.33294e-07)
(-0.00136756 -0.00030732 4.27264e-05)
(-55.1923 -17.7124 1.19811)
(-555.706 -202.746 27.6034)
(-7.61707e-11 -6.8487e-12 2.62579e-12)
(-2.90684e-09 -2.27125e-10 1.12343e-10)
(-9.38514e-08 -6.41984e-09 4.52446e-09)
(-2.47175e-06 -1.68982e-07 1.55917e-07)
(-0.000484054 -3.42331e-05 7.29041e-05)
(-42.5365 -3.53809 11.4261)
(-1283.51 -163.429 241.204)
(-1.05899e-10 -7.04479e-13 3.84887e-12)
(-3.62438e-09 -1.01507e-11 1.47816e-10)
(-4.03778e-13 -6.73842e-14 5.78855e-14)
(-1.60692e-11 -3.25264e-12 3.26348e-12)
(-5.86175e-10 -1.23865e-10 1.22727e-10)
(-1.98089e-08 -4.62116e-09 4.18742e-09)
(-5.48514e-07 -1.50361e-07 1.17358e-07)
(-3.85186e-05 -1.14601e-05 6.90323e-06)
(-0.211313 -0.0863352 0.0525658)
(-1319.64 -875.965 512.439)
(-635.553 -474.728 261.098)
(-2.17237e-12 -3.83429e-13 4.21589e-13)
(-7.90876e-11 -1.4936e-11 1.63938e-11)
(-2.57598e-09 -5.16399e-10 5.73973e-10)
(-7.87059e-08 -1.67528e-08 1.80964e-08)
(-2.33292e-06 -5.37966e-07 4.69223e-07)
(-4.71052e-05 -1.28501e-05 7.6873e-06)
(-0.0190039 -0.00615651 0.00401243)
(-733.343 -306.669 265.964)
(-8.12596e-12 -1.26763e-12 1.72084e-12)
(-2.99029e-10 -4.63172e-11 6.59405e-11)
(-1.0945e-08 -1.78412e-09 2.40231e-09)
(-4.61684e-07 -7.57187e-08 8.83557e-08)
(-1.01065e-05 -1.87823e-06 2.05586e-06)
(-0.000386442 -9.40482e-05 8.79847e-05)
(-2.76374 -0.703985 0.748802)
(-671.538 -256.426 239.129)
(-2.10421e-11 -2.13535e-12 4.34142e-12)
(-8.05441e-10 -7.40093e-11 1.66549e-10)
(-3.02617e-08 -2.44087e-09 5.99998e-09)
(-1.01136e-06 -7.24101e-08 1.95013e-07)
(-3.28109e-05 -2.0706e-06 8.62669e-06)
(-0.0903739 -0.00599357 0.0318285)
(-1238 -119.766 707.267)
(-891.648 -135.718 426.669)
(-3.15568e-11 -2.78154e-13 6.63367e-12)
(-1.12562e-09 -6.98056e-12 2.35313e-10)
(-5.17275e-14 -4.52345e-15 4.358e-15)
(-2.27972e-12 -4.75896e-13 4.30589e-13)
(-8.02103e-11 -1.75972e-11 1.6782e-11)
(-2.62762e-09 -6.12344e-10 6.14919e-10)
(-7.87209e-08 -2.10371e-08 2.16809e-08)
(-2.03548e-06 -6.56683e-07 7.17895e-07)
(-6.57116e-06 -2.42134e-06 2.69092e-06)
(-0.89153 -0.380293 0.696259)
(-0.0958675 -0.0466982 0.0760748)
(-3.33292e-13 -4.57289e-14 4.9738e-14)
(-1.19621e-11 -2.40591e-12 2.34612e-12)
(-3.93577e-10 -8.20701e-11 8.36007e-11)
(-1.32267e-08 -2.73592e-09 2.96429e-09)
(-4.67638e-07 -9.93891e-08 1.19305e-07)
(-6.52762e-06 -1.82758e-06 2.23623e-06)
(-0.000364581 -0.000111547 0.000158219)
(-46.3258 -20.0745 35.7022)
(-1.40157e-12 -2.21063e-13 2.37132e-13)
(-4.94566e-11 -8.40578e-12 9.184e-12)
(-1.601e-09 -2.81834e-10 3.24336e-10)
(-4.79359e-08 -9.08793e-09 1.15675e-08)
(-1.19167e-06 -2.47924e-07 3.95547e-07)
(-1.5481e-05 -3.4868e-06 4.88922e-06)
(-0.00243044 -0.00069501 0.000909526)
(-1477 -458.614 995.312)
(-3.83523e-12 -4.29472e-13 6.48489e-13)
(-1.32961e-10 -1.47513e-11 2.3966e-11)
(-4.25246e-09 -4.69872e-10 8.74345e-10)
(-1.24405e-07 -1.3981e-08 3.20026e-08)
(-3.17302e-06 -3.62244e-07 1.06195e-06)
(-0.00021624 -1.35893e-05 9.73621e-05)
(-0.770498 -0.0679592 0.464701)
(-1489.27 -349.255 959.82)
(-5.9966e-12 -5.41907e-14 1.02174e-12)
(-2.03922e-10 -1.65509e-12 3.63894e-11)
(-2.84217e-15 0 0)
(-3.10727e-13 -5.9803e-14 5.02117e-14)
(-1.09941e-11 -2.72521e-12 2.37776e-12)
(-3.47146e-10 -8.96201e-11 8.28308e-11)
(-1.01947e-08 -2.86091e-09 2.75471e-09)
(-2.68844e-07 -8.87902e-08 8.67871e-08)
(-6.22594e-06 -2.52047e-06 2.82028e-06)
(-0.0587554 -0.0236287 0.0446059)
(-0.0131851 -0.00834736 0.00708259)
(-4.79379e-14 -3.2057e-15 3.8843e-15)
(-1.96017e-12 -3.76633e-13 3.62282e-13)
(-6.35561e-11 -1.37277e-11 1.28775e-11)
(-1.98971e-09 -4.45123e-10 4.31179e-10)
(-6.2731e-08 -1.4318e-08 1.5164e-08)
(-1.82975e-06 -4.59597e-07 5.50206e-07)
(-1.91991e-05 -6.17551e-06 6.00992e-06)
(-3.47421 -1.35557 2.47667)
(-278.939 -155.704 161.83)
(-2.31353e-13 -2.40856e-14 2.99375e-14)
(-8.47769e-12 -1.50883e-12 1.58044e-12)
(-2.69642e-10 -4.83837e-11 5.35593e-11)
(-7.9103e-09 -1.44906e-09 1.74431e-09)
(-2.02218e-07 -3.92098e-08 5.25145e-08)
(-4.32262e-06 -9.18854e-07 1.38303e-06)
(-5.61074e-05 -1.66423e-05 1.96633e-05)
(-32.0231 -12.0945 21.1436)
(-6.97658e-13 -6.84454e-14 1.04402e-13)
(-2.3134e-11 -2.89001e-12 4.39172e-12)
(-6.74691e-10 -8.60978e-11 1.44245e-10)
(-1.80467e-08 -2.33041e-09 4.52067e-09)
(-4.51517e-07 -5.65768e-08 1.32215e-07)
(-1.17645e-05 -1.35054e-06 4.21646e-06)
(-0.0853253 -0.00746183 0.041455)
(-886.231 -101.349 483.65)
(-1.12531e-12 -9.09495e-15 1.76596e-13)
(-3.67082e-11 -3.17376e-13 6.96844e-12)
(0 0 0)
(-2.80974e-14 -2.83017e-15 3.03165e-15)
(-1.23368e-12 -3.23164e-13 3.04775e-13)
(-3.84543e-11 -1.11753e-11 1.08298e-11)
(-1.08828e-09 -3.42556e-10 3.41414e-10)
(-2.81189e-08 -9.90308e-09 1.01062e-08)
(-6.66497e-07 -2.67663e-07 2.79043e-07)
(-1.62882e-05 -7.92155e-06 8.08765e-06)
(-0.00203079 -0.00126722 0.00106563)
(-2.08426e-15 0 0)
(-2.45102e-13 -3.36719e-14 4.64221e-14)
(-8.44604e-12 -1.80246e-12 2.01823e-12)