/*--------------------------------*- C++ -*----------------------------------*\
  =========                 |
  \\      /  F ield         | OpenFOAM: The Open Source CFD Toolbox
   \\    /   O peration     | Website:  https://openfoam.org
    \\  /    A nd           | Version:  9
     \\/     M anipulation  |
\*---------------------------------------------------------------------------*/
FoamFile
{
    format      ascii;
    class       volScalarField;
    location    "0.00295";
    object      rho.c4;
}
// * * * * * * * * * * * * * * * * * * * * * * * * * * * * * * * * * * * * * //

dimensions      [1 -3 0 0 0 0 0];

internalField   nonuniform List<scalar> 
27787
(
2.22045e-16
2.22045e-16
2.22045e-16
2.22045e-16
2.22045e-16
5.34611e-10
4.10003e-05
2.22045e-16
2.22045e-16
2.22045e-16
2.22045e-16
2.22045e-16
2.22045e-16
1.59797e-11
2.22045e-16
2.22045e-16
2.22045e-16
2.22045e-16
2.22045e-16
2.22045e-16
2.22045e-16
2.22045e-16
2.22045e-16
2.22045e-16
2.22045e-16
2.22045e-16
2.22045e-16
2.22045e-16
2.22045e-16
2.22045e-16
2.22045e-16
2.22045e-16
2.22045e-16
2.22045e-16
2.22045e-16
4.71917e-05
2.54886e-11
2.22045e-16
2.22045e-16
79.9588
8.70699
73.3104
8.03618e-08
2.79003e-13
2.22045e-16
4.44631
38.835
58.2363
5.15093e-10
7.44472e-16
33.0187
11.1103
3.1945
2.91217
35.912
17.4396
10.5425
3.27622
2.79215
0.000881813
69.884
13.2692
8.94022
4.11786
2.22045e-16
2.22045e-16
2.22045e-16
2.22045e-16
2.22045e-16
2.22045e-16
2.22045e-16
2.22045e-16
2.22045e-16
2.22045e-16
2.22045e-16
2.22045e-16
2.22045e-16
2.22045e-16
2.22045e-16
2.22045e-16
2.22045e-16
2.22045e-16
2.22045e-16
2.22045e-16
2.22045e-16
2.22045e-16
2.22045e-16
2.22045e-16
2.22045e-16
2.22045e-16
3.73028e-13
2.22045e-16
2.22045e-16
2.22045e-16
2.22045e-16
2.22045e-16
2.22045e-16
2.22045e-16
3.05207e-13
3.88486e-06
2.22045e-16
2.22045e-16
2.22045e-16
2.22045e-16
2.22045e-16
2.22045e-16
1.57867e-13
1.84306e-05
113.691
2.22045e-16
2.22045e-16
2.22045e-16
2.22045e-16
2.22045e-16
1.03585e-12
3.92248e-06
115.914
45.268
2.22045e-16
2.22045e-16
2.22045e-16
2.22045e-16
9.45964e-13
3.30498e-07
59.7503
49.4803
3.67766
2.22045e-16
2.22045e-16
2.22045e-16
1.0689e-13
19.6785
39.7533
7.41291
3.78352
2.37396
2.22045e-16
2.22045e-16
2.22045e-16
2.22045e-16
2.22045e-16
2.22045e-16
2.22045e-16
2.22045e-16
2.22045e-16
2.22045e-16
2.22045e-16
2.22045e-16
2.22045e-16
2.22045e-16
2.22045e-16
2.22045e-16
2.22045e-16
2.22045e-16
2.22045e-16
2.22045e-16
2.22045e-16
2.22045e-16
2.22045e-16
2.22045e-16
2.22045e-16
2.22045e-16
1.51283e-14
2.22045e-16
2.22045e-16
2.22045e-16
2.22045e-16
2.22045e-16
2.22045e-16
2.22045e-16
1.43085e-14
7.20299e-10
2.22045e-16
2.22045e-16
2.22045e-16
2.22045e-16
2.22045e-16
2.22045e-16
5.55839e-15
2.06024e-07
8.53563
2.22045e-16
2.22045e-16
2.22045e-16
2.22045e-16
2.22045e-16
4.55872e-14
3.64583e-08
18.1364
69.3321
2.22045e-16
2.22045e-16
2.22045e-16
2.22045e-16
3.7606e-14
1.15461e-11
0.936184
74.792
4.80002
2.22045e-16
2.22045e-16
2.22045e-16
2.22045e-16
0.122432
58.7826
9.81553
4.93419
4.07153
2.22045e-16
2.22045e-16
2.22045e-16
2.22045e-16
2.22045e-16
2.22045e-16
2.22045e-16
2.22045e-16
2.22045e-16
2.22045e-16
2.22045e-16
2.22045e-16
2.22045e-16
2.22045e-16
2.22045e-16
2.22045e-16
2.22045e-16
2.22045e-16
2.22045e-16
2.22045e-16
2.22045e-16
2.22045e-16
2.22045e-16
2.22045e-16
2.22045e-16
2.22045e-16
2.22045e-16
2.22045e-16
2.22045e-16
2.22045e-16
2.22045e-16
2.22045e-16
2.22045e-16
2.22045e-16
2.22045e-16
3.26017e-16
2.22045e-16
2.22045e-16
2.22045e-16
2.22045e-16
2.22045e-16
2.22045e-16
2.22045e-16
3.82609e-16
1.33399e-07
2.22045e-16
2.22045e-16
2.22045e-16
2.22045e-16
2.22045e-16
2.22045e-16
1.16466e-15
9.21324e-07
203.541
2.22045e-16
2.22045e-16
2.22045e-16
2.22045e-16
2.22045e-16
1.7638e-14
1.44155e-07
195.461
50.627
2.22045e-16
2.22045e-16
2.22045e-16
2.22045e-16
5.47653e-15
0.0163175
28.1411
129.402
18.0513
2.22045e-16
2.22045e-16
2.22045e-16
2.22045e-16
2.22045e-16
2.22045e-16
2.22045e-16
2.22045e-16
2.22045e-16
2.22045e-16
2.22045e-16
2.22045e-16
2.22045e-16
2.22045e-16
2.22045e-16
2.22045e-16
2.22045e-16
2.22045e-16
2.22045e-16
2.22045e-16
2.22045e-16
2.22045e-16
2.22045e-16
2.22045e-16
2.22045e-16
2.22045e-16
2.22045e-16
2.22045e-16
2.22045e-16
2.22045e-16
2.22045e-16
2.22045e-16
2.22045e-16
2.22045e-16
2.22045e-16
2.22045e-16
2.22045e-16
2.22045e-16
2.22045e-16
2.22045e-16
2.22045e-16
2.22045e-16
2.22045e-16
2.22045e-16
4.89721e-15
2.22045e-16
2.22045e-16
2.22045e-16
2.22045e-16
2.22045e-16
2.22045e-16
2.22045e-16
1.75345e-14
2.65397e-06
2.22045e-16
2.22045e-16
2.22045e-16
2.22045e-16
2.22045e-16
2.22045e-16
6.81604e-16
4.5358e-07
360.627
2.22045e-16
2.22045e-16
2.22045e-16
2.22045e-16
2.22045e-16
1.52129e-13
0.123845
64.9466
48.7214
2.22045e-16
2.22045e-16
2.22045e-16
2.22045e-16
2.22045e-16
2.22045e-16
2.22045e-16
2.22045e-16
2.22045e-16
2.22045e-16
2.22045e-16
2.22045e-16
2.22045e-16
2.22045e-16
2.22045e-16
2.22045e-16
2.22045e-16
2.22045e-16
2.22045e-16
2.22045e-16
2.22045e-16
2.22045e-16
2.22045e-16
2.22045e-16
2.22045e-16
2.22045e-16
2.22045e-16
2.22045e-16
2.22045e-16
2.22045e-16
2.22045e-16
2.22045e-16
2.22045e-16
2.22045e-16
2.22045e-16
2.22045e-16
2.22045e-16
2.22045e-16
2.22045e-16
2.22045e-16
2.22045e-16
2.22045e-16
2.22045e-16
2.22045e-16
2.22045e-16
2.22045e-16
2.22045e-16
2.22045e-16
2.22045e-16
2.22045e-16
2.22045e-16
2.22045e-16
2.22045e-16
3.93418e-15
2.22045e-16
2.22045e-16
2.22045e-16
2.22045e-16
2.22045e-16
2.22045e-16
2.22045e-16
1.31601e-15
4.95818e-08
2.22045e-16
2.22045e-16
2.22045e-16
2.22045e-16
2.22045e-16
2.22045e-16
9.33452e-15
0.000715679
73.2638
2.22045e-16
2.22045e-16
2.22045e-16
2.22045e-16
2.22045e-16
2.22045e-16
2.22045e-16
2.22045e-16
2.22045e-16
2.22045e-16
2.22045e-16
2.22045e-16
2.22045e-16
2.22045e-16
2.22045e-16
2.22045e-16
2.22045e-16
2.22045e-16
2.22045e-16
2.22045e-16
2.22045e-16
2.22045e-16
2.22045e-16
2.22045e-16
2.22045e-16
2.22045e-16
2.22045e-16
2.22045e-16
2.22045e-16
2.22045e-16
2.22045e-16
2.22045e-16
2.22045e-16
2.22045e-16
2.22045e-16
2.22045e-16
2.22045e-16
2.22045e-16
2.22045e-16
2.22045e-16
2.22045e-16
2.22045e-16
2.22045e-16
2.22045e-16
2.22045e-16
2.22045e-16
2.22045e-16
2.22045e-16
2.22045e-16
2.22045e-16
2.22045e-16
2.22045e-16
2.22045e-16
2.22045e-16
2.22045e-16
2.22045e-16
2.22045e-16
2.22045e-16
2.22045e-16
2.22045e-16
2.22045e-16
2.22045e-16
2.22045e-16
2.22045e-16
2.22045e-16
2.22045e-16
2.22045e-16
2.22045e-16
4.53022e-16
228.118
2.22045e-16
2.22045e-16
2.22045e-16
2.22045e-16
2.22045e-16
2.22045e-16
2.22045e-16
3.34154e-15
215.306
79.0944
2.22045e-16
2.22045e-16
2.22045e-16
2.22045e-16
2.22045e-16
2.22045e-16
2.22045e-16
2.22045e-16
2.22045e-16
2.22045e-16
2.22045e-16
2.22045e-16
2.22045e-16
2.22045e-16
2.22045e-16
2.22045e-16
2.22045e-16
2.22045e-16
2.22045e-16
2.22045e-16
2.22045e-16
2.22045e-16
2.22045e-16
2.22045e-16
2.22045e-16
2.22045e-16
2.22045e-16
2.22045e-16
2.22045e-16
2.22045e-16
2.22045e-16
2.22045e-16
2.22045e-16
2.22045e-16
2.22045e-16
2.22045e-16
2.22045e-16
2.22045e-16
2.22045e-16
2.22045e-16
2.22045e-16
2.22045e-16
2.22045e-16
2.22045e-16
2.22045e-16
2.22045e-16
2.22045e-16
2.22045e-16
2.22045e-16
2.22045e-16
2.22045e-16
2.22045e-16
2.22045e-16
2.22045e-16
2.22045e-16
2.22045e-16
2.22045e-16
2.22045e-16
2.22045e-16
2.22045e-16
2.22045e-16
2.22045e-16
2.22045e-16
2.22045e-16
2.22045e-16
2.22045e-16
2.22045e-16
2.22045e-16
2.22045e-16
4.37876e-16
2.22045e-16
2.22045e-16
2.22045e-16
2.22045e-16
2.22045e-16
2.22045e-16
2.22045e-16
2.22045e-16
2.22045e-16
2.57836e-12
2.22045e-16
2.22045e-16
2.22045e-16
2.22045e-16
2.22045e-16
2.22045e-16
2.22045e-16
2.22045e-16
2.22045e-16
2.22045e-16
2.22045e-16
2.22045e-16
2.22045e-16
2.22045e-16
2.22045e-16
2.22045e-16
2.22045e-16
2.22045e-16
2.22045e-16
2.22045e-16
2.22045e-16
2.22045e-16
2.22045e-16
2.22045e-16
2.22045e-16
2.22045e-16
2.22045e-16
2.22045e-16
2.22045e-16
2.22045e-16
2.22045e-16
2.22045e-16
2.22045e-16
2.22045e-16
2.22045e-16
2.22045e-16
2.22045e-16
2.22045e-16
2.22045e-16
2.22045e-16
2.22045e-16
2.22045e-16
2.22045e-16
2.22045e-16
2.22045e-16
2.22045e-16
2.22045e-16
2.22045e-16
2.22045e-16
2.22045e-16
2.22045e-16
2.22045e-16
2.22045e-16
2.22045e-16
2.22045e-16
2.22045e-16
2.22045e-16
2.22045e-16
2.22045e-16
2.22045e-16
2.22045e-16
2.22045e-16
2.22045e-16
2.22045e-16
2.22045e-16
2.22045e-16
2.22045e-16
2.22045e-16
2.22045e-16
2.22045e-16
2.22045e-16
2.22045e-16
2.22045e-16
2.22045e-16
2.22045e-16
2.22045e-16
2.22045e-16
2.22045e-16
2.22045e-16
1.08458e-15
2.22045e-16
2.22045e-16
2.22045e-16
2.22045e-16
2.22045e-16
2.22045e-16
2.22045e-16
2.22045e-16
2.22045e-16
2.22045e-16
2.22045e-16
2.22045e-16
2.22045e-16
2.22045e-16
2.22045e-16
2.22045e-16
2.22045e-16
2.22045e-16
2.22045e-16
2.22045e-16
2.22045e-16
2.22045e-16
2.22045e-16
2.22045e-16
2.22045e-16
2.22045e-16
2.22045e-16
2.22045e-16
2.22045e-16
2.22045e-16
2.22045e-16
2.22045e-16
2.22045e-16
2.22045e-16
2.22045e-16
2.22045e-16
2.22045e-16
2.22045e-16
2.22045e-16
2.22045e-16
2.22045e-16
2.22045e-16
2.22045e-16
2.22045e-16
2.22045e-16
2.22045e-16
2.22045e-16
2.22045e-16
2.22045e-16
2.22045e-16
2.22045e-16
2.22045e-16
2.22045e-16
2.22045e-16
2.22045e-16
2.22045e-16
2.22045e-16
2.22045e-16
2.22045e-16
2.22045e-16
2.22045e-16
2.22045e-16
2.22045e-16
2.22045e-16
2.22045e-16
2.22045e-16
2.22045e-16
2.22045e-16
2.22045e-16
2.22045e-16
2.22045e-16
2.22045e-16
2.22045e-16
2.22045e-16
2.22045e-16
2.22045e-16
2.22045e-16
2.22045e-16
2.22045e-16
2.22045e-16
2.22045e-16
2.22045e-16
2.22045e-16
2.22045e-16
2.22045e-16
2.22045e-16
2.22045e-16
2.22045e-16
2.22045e-16
2.22045e-16
2.22045e-16
2.22045e-16
2.22045e-16
2.22045e-16
2.22045e-16
2.22045e-16
2.22045e-16
2.22045e-16
2.22045e-16
2.22045e-16
2.22045e-16
2.22045e-16
2.22045e-16
2.22045e-16
2.22045e-16
2.22045e-16
2.22045e-16
2.22045e-16
2.22045e-16
2.22045e-16
2.22045e-16
2.22045e-16
2.22045e-16
2.22045e-16
2.22045e-16
2.22045e-16
2.22045e-16
2.22045e-16
2.22045e-16
2.22045e-16
2.22045e-16
2.22045e-16
2.22045e-16
2.22045e-16
2.22045e-16
2.22045e-16
2.22045e-16
2.22045e-16
2.22045e-16
2.22045e-16
2.22045e-16
2.22045e-16
2.22045e-16
2.22045e-16
2.22045e-16
2.22045e-16
2.22045e-16
2.22045e-16
2.22045e-16
2.22045e-16
2.22045e-16
2.22045e-16
2.22045e-16
2.22045e-16
2.22045e-16
2.22045e-16
2.22045e-16
2.22045e-16
2.22045e-16
2.22045e-16
2.22045e-16
2.22045e-16
2.22045e-16
2.22045e-16
2.22045e-16
2.22045e-16
2.22045e-16
2.22045e-16
2.22045e-16
2.22045e-16
2.80523e-08
5.95393e-10
2.22045e-16
2.22045e-16
1.21729e-14
10.4435
84.4703
21.8513
9.14026
2.22045e-16
2.22045e-16
2.22045e-16
1.06034e-09
68.0065
27.9094
6.22627
3.3824
2.11741
2.22045e-16
2.22045e-16
4.82195e-14
7.49564e-09
1.94057
38.3798
6.315
1.69231
2.22045e-16
2.22045e-16
2.53577e-09
2.02294e-05
40.4345
15.1684
3.82122
1.5456
2.22045e-16
1.58668e-14
7.51294e-08
32.7423
13.6998
3.50285
2.01943
2.22045e-16
4.73527e-16
2.22045e-16
2.22045e-16
2.22045e-16
6.68078e-12
6.71812
42.349
8.16502
4.43236
3.11118
2.22045e-16
2.22045e-16
2.22045e-16
2.21304e-10
0.00224139
51.5485
8.84778
2.50457
2.22045e-16
2.22045e-16
1.20087e-13
4.75654e-08
29.6304
23.4611
4.99116
2.33181
2.22045e-16
2.22045e-16
6.00192e-10
35.328
51.4876
8.88828
4.30186
2.42592
2.22045e-16
2.22045e-16
2.22045e-16
2.22045e-16
2.22045e-16
2.22045e-16
1.35931e-12
2.27821
230.341
19.635
27.4562
2.22045e-16
2.22045e-16
2.22045e-16
1.63197e-13
2.96218e-07
104.935
39.3593
10.4068
2.22045e-16
2.22045e-16
2.22045e-16
1.73747e-11
1.82371e-05
83.7533
17.3178
4.06433
2.22045e-16
2.22045e-16
2.22045e-16
1.69835e-09
99.2414
52.4713
8.94545
3.16289
2.22045e-16
2.22045e-16
2.22045e-16
2.22045e-16
2.22045e-16
2.22045e-16
3.11296e-15
2.80991e-11
12.28
25.4218
34.7326
2.22045e-16
2.22045e-16
2.22045e-16
2.22045e-16
1.34115e-13
1.11725e-06
215.961
12.0957
8.52093
2.22045e-16
2.22045e-16
2.22045e-16
2.22045e-16
1.01758e-10
0.174785
130.976
7.60078
2.22045e-16
2.22045e-16
2.22045e-16
1.13569e-15
8.18621
77.1245
11.2223
3.52058
2.22045e-16
2.22045e-16
2.22045e-16
2.22045e-16
2.22045e-16
2.22045e-16
2.22045e-16
2.22045e-16
8.45157e-12
0.162391
50.3604
2.22045e-16
2.22045e-16
2.22045e-16
2.22045e-16
2.22045e-16
8.65696e-14
6.89997e-06
106.774
47.0046
2.22045e-16
2.22045e-16
2.22045e-16
2.22045e-16
2.11524e-15
3.01842e-10
1.25963
84.8067
2.22045e-16
2.22045e-16
2.22045e-16
2.22045e-16
6.26186e-13
2.62862e-06
70.8372
28.587
2.22045e-16
2.22045e-16
2.22045e-16
2.22045e-16
3.627e-12
34.3285
49.3625
28.3726
2.22045e-16
2.22045e-16
2.22045e-16
2.22045e-16
2.22045e-16
2.22045e-16
1.44075e-15
1.43964e-11
209.179
53.5001
2.22045e-16
2.22045e-16
2.22045e-16
2.22045e-16
2.22045e-16
2.22045e-16
5.33011e-12
0.333225
74.3075
46.9466
2.22045e-16
2.22045e-16
2.22045e-16
2.22045e-16
2.22045e-16
1.26376e-14
3.23305e-09
8.66782
2.22045e-16
2.22045e-16
2.22045e-16
2.22045e-16
2.22045e-16
7.97378e-11
5.33736e-06
77.1008
2.22045e-16
2.22045e-16
2.22045e-16
2.22045e-16
2.22045e-16
2.10587e-10
72.882
44.4485
2.22045e-16
2.22045e-16
2.22045e-16
2.22045e-16
2.22045e-16
2.22045e-16
2.22045e-16
7.60757e-16
1.84695e-12
123.629
2.22045e-16
2.22045e-16
2.22045e-16
2.22045e-16
2.22045e-16
2.22045e-16
2.22045e-16
2.75354e-12
0.00628326
93.7257
2.22045e-16
2.22045e-16
2.22045e-16
2.22045e-16
2.22045e-16
2.22045e-16
2.69138e-13
2.52938e-09
2.22045e-16
2.22045e-16
2.22045e-16
2.22045e-16
2.22045e-16
2.22045e-16
1.69283e-11
75.4853
2.22045e-16
2.22045e-16
2.22045e-16
2.22045e-16
2.22045e-16
2.22045e-16
4.9294e-09
78.0877
2.22045e-16
2.22045e-16
2.22045e-16
2.22045e-16
2.22045e-16
2.22045e-16
2.22045e-16
2.22045e-16
1.63911e-15
1.85107e-14
2.22045e-16
2.22045e-16
2.22045e-16
2.22045e-16
2.22045e-16
2.22045e-16
2.22045e-16
2.22045e-16
6.69942e-12
0.337908
2.22045e-16
2.22045e-16
2.22045e-16
2.22045e-16
2.22045e-16
2.22045e-16
2.22045e-16
5.24732e-14
2.22045e-16
2.22045e-16
2.22045e-16
2.22045e-16
2.22045e-16
2.22045e-16
2.22045e-16
7.94473e-12
2.22045e-16
2.22045e-16
2.22045e-16
2.22045e-16
2.22045e-16
2.22045e-16
2.22045e-16
1.68044e-11
2.22045e-16
2.22045e-16
2.22045e-16
2.22045e-16
2.22045e-16
2.22045e-16
2.22045e-16
2.22045e-16
2.22045e-16
2.22045e-16
2.22045e-16
2.22045e-16
2.22045e-16
2.22045e-16
2.22045e-16
2.22045e-16
2.22045e-16
2.22045e-16
2.22045e-16
5.28376e-12
2.22045e-16
2.22045e-16
2.22045e-16
2.22045e-16
2.22045e-16
2.22045e-16
2.22045e-16
2.22045e-16
2.22045e-16
2.22045e-16
2.22045e-16
2.22045e-16
2.22045e-16
2.22045e-16
2.22045e-16
2.22045e-16
2.22045e-16
2.22045e-16
2.22045e-16
2.22045e-16
2.22045e-16
2.22045e-16
2.22045e-16
2.22045e-16
2.22045e-16
2.22045e-16
2.22045e-16
2.22045e-16
2.22045e-16
2.22045e-16
2.22045e-16
2.22045e-16
2.22045e-16
2.22045e-16
2.22045e-16
2.22045e-16
2.22045e-16
2.22045e-16
2.22045e-16
2.22045e-16
2.22045e-16
2.22045e-16
2.22045e-16
2.22045e-16
2.22045e-16
2.22045e-16
2.22045e-16
2.22045e-16
2.22045e-16
2.22045e-16
2.22045e-16
2.22045e-16
2.22045e-16
2.22045e-16
2.22045e-16
2.22045e-16
2.22045e-16
2.22045e-16
2.22045e-16
2.22045e-16
2.22045e-16
2.22045e-16
2.22045e-16
2.22045e-16
2.22045e-16
2.22045e-16
2.22045e-16
2.22045e-16
5.78575
2.87422
14.8768
17.9958
5.36406
21.6349
7.12
9.94233
4.89645
8.59527
4.41
0.150387
31.1207
76.2098
14.4104
50.7183
11.9158
1.51861e-09
81.6158
1.05138e-08
57.8452
8.02921e-07
57.711
3.28294e-15
7.60736e-10
3.63605e-13
1.39144e-08
8.31654e-13
8.6608e-10
2.22045e-16
5.35116e-16
2.22045e-16
2.85642e-14
2.22045e-16
1.16244e-15
2.96778
1.98021
1.24432
1.61438
2.27417
1.85846
2.63422
2.18765
2.16385
4.23155
2.88637
2.85687
1.78269
5.14149
2.92769
1.80101
5.72804
3.24577
5.14522
2.93876
2.0478
3.26982
3.57372
2.43763
2.59398
2.35504
3.70146
2.24613
1.99435
2.64232
3.01776
3.51306
2.23068
1.49818
2.69864
2.01935
3.73317
2.21862
1.94075
2.11908
2.44455
2.37048
4.13753
2.13583
3.18849
2.27541
2.45346
3.67407
2.72064
2.83388
3.50146
11.1295
6.02263
6.37987
4.16648
2.25423
4.11447
2.2637
4.15623
2.64669
2.98488
2.48483
5.63653
4.41739
1.29377
1.32345
1.37773
1.41298
1.46637
1.56555
1.50973
2.60252
2.93628
4.98836
2.51901
2.8691
6.49983
4.39851
3.99917
6.1484
7.73379
3.12474
2.46009
5.58311
4.80525
2.54364
2.90391
6.53669
4.43655
3.60026
5.01224
7.64922
1.56733
1.67619
1.74939
1.71416
1.78664
1.99394
1.91974
3.08586
2.37005
2.51551
2.07991
2.98895
2.64231
2.01796
1.40544
1.71992
1.49703
1.78797
1.57734
1.68212
1.90232
2.0487
2.16037
1.83448
2.0549
2.05908
2.34484
2.39319
1.79243
2.02676
2.02775
2.03632
2.03479
2.32942
2.33422
2.1005
2.46895
2.07465
2.29453
2.3068
2.6446
2.73004
1.8763
2.24971
2.06174
1.98007
2.21146
2.37714
2.16519
1.60826
1.42366
1.48247
1.68676
1.7722
1.82893
1.63013
3.01054
2.64927
1.91488
2.86997
2.00244
3.25456
2.12792
1.84232
2.0456
2.08441
2.05693
2.0989
2.35223
2.39075
1.72505
2.20753
1.90754
2.22907
1.93884
2.14399
2.43525
1.68397
1.92347
1.70412
1.85823
1.85605
2.13365
2.15538
5.04373
4.17068
3.74857
3.21056
8.16963
5.99102
6.14592
1.73741
1.8421
1.60789
1.80713
2.18279
1.95149
2.03417
1.91784
2.29707
2.15964
2.32726
2.17999
2.47339
2.63258
2.00721
1.72033
1.79898
1.97757
1.89604
2.22465
2.33422
2.86469
3.34957
3.8722
4.83217
3.28553
5.50997
3.50044
2.19048
1.88302
1.95858
2.22186
2.40189
2.46911
2.15092
3.90519
5.18258
5.91711
3.53844
2.50863
4.0742
2.70084
1.75696
1.86511
1.92879
1.93574
1.99272
2.17726
2.12071
2.53975
3.02501
2.10105
4.36272
2.90912
3.43108
2.2304
1.62308
1.89982
1.67128
1.78344
1.97741
2.01931
1.7344
1.96154
2.29507
2.03317
2.25708
2.4702
2.53253
2.18912
1.9062
2.03331
2.42995
2.08811
2.21983
2.47589
2.64188
5.82692
21.2346
6.76171
7.19099
4.65058
9.06691
17.689
11.7867
3.64436
6.7178
17.7319
6.57844
4.39192
6.60957
4.38889
9.06968
5.84973
7.55402
6.65759
25.9127
21.0302
5.77931
20.8484
6.68882
4.37847
5.74625
6.63628
20.7399
3.0607
2.6584
2.66453
3.28323
3.2681
2.88246
3.51399
2.19481
2.36548
2.15556
2.76762
2.44655
2.49372
2.83621
6.77985
5.58796
4.66623
7.38999
5.44533
15.5411
8.70479
5.74168
14.1531
7.38138
11.4925
8.53637
33.0489
12.8108
22.4627
7.41791
6.58557
4.38881
4.87215
7.52839
6.62769
2.46943
2.9379
2.41978
2.81444
3.49895
2.84697
3.47681
1.9807
1.99955
1.7786
1.89393
2.31403
2.12088
2.10143
2.92908
2.40632
2.40302
2.8074
3.45945
2.80913
3.46502
2.62377
2.99475
2.83256
2.81358
3.2722
3.13002
2.88585
2.16406
2.38967
2.29538
2.51828
2.74806
2.76879
2.44501
2.34418
2.41577
2.11454
2.37058
2.90284
2.61687
2.65941
2.43276
2.45663
2.17692
2.40043
2.93908
2.67093
2.67831
1.88744
2.3107
2.05959
2.34972
2.116
2.30072
2.53696
2.55595
2.52351
2.56898
2.86262
2.93069
2.90248
3.31507
3.02739
4.43807
3.9786
4.26876
2.52198
6.91682
3.38744
2.53634
2.68802
2.51283
2.8122
3.21667
2.9866
2.92255
2.17517
2.80561
2.61098
2.53243
2.36821
2.82638
3.02707
2.44483
6.94399
3.41256
3.67958
2.59248
7.5505
4.7008
1.91677
2.02012
2.11636
2.31757
2.0693
2.15869
1.86758
2.42324
2.97778
2.46165
3.46764
2.82282
2.86184
3.50891
2.09885
2.42383
2.33482
2.50041
2.57932
2.64628
2.36218
2.03201
2.23166
2.03902
2.57746
2.3524
2.37925
2.61181
6.68967
3.53204
5.7223
3.50513
7.63477
6.52443
19.9038
2.43421
2.85494
2.38788
2.75807
3.36688
2.79037
3.34473
2.85243
2.38222
2.37594
2.75297
3.33782
3.33865
2.7565
2.73808
2.54632
2.29233
2.59383
3.16644
2.74419
2.96498
2.0608
2.33614
2.12255
2.38102
2.55064
2.60528
2.32583
4.39737
6.62403
8.50506
6.25488
4.33529
12.2885
8.40571
7.67817
7.35437
3.98049
6.53112
20.0874
9.07083
24.3914
2.40206
2.92115
2.4451
3.34966
2.77156
2.8116
3.39399
2.02914
2.3989
2.42494
2.46231
2.18302
2.26248
2.24079
2.28452
2.16926
2.08516
2.4503
2.78719
2.55709
2.68299
2.44251
2.65027
2.71411
2.67239
2.73573
3.02871
2.9677
2.87649
3.78862
3.52556
3.36735
3.11583
3.77879
4.06429
14.9162
10.2015
10.4389
8.89315
7.81119
12.4577
10.0005
3.07494
2.70551
2.54506
2.9562
3.85376
3.14575
3.6211
2.49966
2.69922
3.07797
2.72972
2.76161
2.79028
2.43436
2.96719
3.95378
3.3336
4.09877
3.43374
3.89897
4.68088
3.00822
3.34865
2.88559
3.44651
2.94161
3.17551
3.79407
2.40795
2.35037
2.37948
2.57441
2.65433
2.56113
2.68601
2.02979
2.23189
2.24264
2.34877
2.16388
2.18532
2.34629
3.63295
4.23155
2.74083
7.39901
4.17955
4.84446
3.14418
6.75118
8.57885
13.914
4.63121
4.04466
9.12536
6.51215
3.01502
2.69434
2.71416
3.24018
2.91631
3.24501
3.48383
3.28532
3.88368
2.71361
11.2637
6.33213
8.07222
4.9885
6.20733
18.8367
10.2775
59.5364
11.1036
7.6938
30.1628
3.03095
2.71194
2.53707
2.90767
3.74918
3.51026
3.10045
2.19201
2.49875
2.2412
2.43369
2.65954
2.70751
2.38406
2.50544
2.46745
2.25372
2.50602
2.9841
2.73389
2.74714
2.28146
2.62524
2.416
2.92527
2.69574
2.86171
3.09694
2.91655
2.84543
2.71462
3.25692
3.07012
3.30046
3.36942
2.53478
2.68682
2.68551
3.02667
3.03181
3.28243
3.28909
2.88809
3.75632
3.50162
3.37861
3.12021
3.76759
4.04822
3.84923
5.25549
4.14029
5.18643
4.09811
4.40821
5.64096
1.9438
1.90793
1.93909
2.12294
2.15107
2.15697
2.12667
25.2377
25.8796
19.2436
33.0282
24.3957
14.3274
18.5029
22.4657
25.1849
11.8401
13.439
15.3397
53.1665
23.0937
14.9595
145.543
115.369
159.591
153.095
96.4234
88.4748
64.4148
100.783
93.2507
67.0777
107.923
115.261
74.1843
180.306
52.6618
197.176
96.7463
74.136
144.103
76.6454
235.494
34.3204
370.626
261.958
248.139
150.342
162.309
417.514
347.561
359.64
191.093
302.199
277.011
2.22045e-16
2.22045e-16
2.22045e-16
2.22045e-16
2.22045e-16
2.22045e-16
51.5231
33.314
52.1642
24.4102
23.1796
17.2446
33.6867
18.2394
10.2194
13.1473
14.0502
160.887
66.7433
103.985
49.034
100.709
96.7652
65.8708
46.248
46.7999
33.9485
366.329
77.1807
5.69558e-10
1.37918e-15
30.8075
58.5198
77.9235
82.9375
51.4134
38.5108
57.4111
30.977
31.2655
21.7226
45.5351
170.64
114.447
4.82498
173.934
108.314
0.000543031
204.25
291.323
85.136
205.354
133.497
171.541
107.748
46.6256
124.902
114.877
72.3419
163.499
69.0066
114.066
115.492
72.0976
183.731
72.3832
32.2354
47.1237
48.0409
143.629
262.029
6.87743e-05
7.94918e-08
1.69556e-06
111.189
6.70668e-09
2.50452e-07
4.68964e-12
122.826
3.0878e-12
2.22045e-16
2.22045e-16
60.4385
3.32272
9.55127e-15
2.66798e-12
2.22045e-16
2.22045e-16
2.22045e-16
19.4377
43.4904
144.405
37.9944
226.745
137.629
2.22045e-16
2.22045e-16
2.22045e-16
2.22045e-16
2.22045e-16
2.22045e-16
2.22045e-16
2.22045e-16
2.22045e-16
1.2957e-15
3.09167e-09
2.22045e-16
2.22045e-16
2.22045e-16
2.22045e-16
5.82002e-08
2.22045e-16
9.39584e-05
8.46215e-09
448.382
2.37287e-10
2.22045e-16
2.22045e-16
2.22045e-16
2.22045e-16
2.22045e-16
2.22045e-16
2.22045e-16
2.22045e-16
2.22045e-16
2.22045e-16
2.22045e-16
2.22045e-16
2.22045e-16
2.22045e-16
2.22045e-16
2.22045e-16
2.22045e-16
2.22045e-16
2.22045e-16
2.22045e-16
2.22045e-16
2.22045e-16
2.22045e-16
2.22045e-16
2.22045e-16
2.22045e-16
2.22045e-16
2.22045e-16
2.22045e-16
2.22045e-16
2.22045e-16
2.22045e-16
2.22045e-16
2.22045e-16
2.22045e-16
2.22045e-16
2.22045e-16
2.22045e-16
2.22045e-16
2.22045e-16
2.22045e-16
2.22045e-16
2.22045e-16
2.22045e-16
2.22045e-16
2.22045e-16
2.22045e-16
2.22045e-16
2.22045e-16
2.22045e-16
2.22045e-16
2.22045e-16
2.22045e-16
2.22045e-16
2.22045e-16
2.22045e-16
2.22045e-16
2.22045e-16
2.22045e-16
2.22045e-16
2.22045e-16
2.22045e-16
2.22045e-16
2.22045e-16
2.22045e-16
2.22045e-16
2.22045e-16
2.22045e-16
2.22045e-16
2.22045e-16
2.22045e-16
2.22045e-16
2.22045e-16
2.22045e-16
2.22045e-16
2.22045e-16
2.22045e-16
2.22045e-16
2.22045e-16
2.22045e-16
2.22045e-16
2.22045e-16
2.22045e-16
2.22045e-16
2.22045e-16
2.22045e-16
2.22045e-16
2.22045e-16
2.22045e-16
2.22045e-16
2.22045e-16
2.22045e-16
2.22045e-16
2.22045e-16
2.22045e-16
2.22045e-16
2.22045e-16
2.22045e-16
2.22045e-16
2.22045e-16
2.22045e-16
2.22045e-16
2.22045e-16
2.33202e-16
2.22045e-16
1.82834e-10
1.529e-10
0.000129674
2.22045e-16
5.0293e-05
2.22045e-16
2.22045e-16
2.22045e-16
2.22045e-16
2.22045e-16
2.22045e-16
2.22045e-16
2.22045e-16
2.22045e-16
2.22045e-16
2.22045e-16
2.22045e-16
2.22045e-16
2.22045e-16
2.22045e-16
2.22045e-16
2.22045e-16
2.22045e-16
215.059
0.000111792
420.85
422.577
374.328
246.315
387.043
1.33526
2.14558
309.148
106.068
1.54499e-10
2.22045e-16
0.0904787
0.00789262
0.895041
3.02543
0.863853
1.92674
0.00108263
0.0230445
0.159978
7.46217e-07
0.0220444
0.000672183
0.0673963
0.0172914
0.000629852
1.03783e-06
2.71476e-07
0.0291193
0.00240252
0.000229815
0.00879914
0.000231301
4.04044e-08
2.55627e-11
0.000268722
4.33263e-06
4.76954e-05
1.38427e-09
4.40817e-06
4.19738e-06
0.000202044
2.31205
6.16564e-07
0.0519578
1.9421e-12
1.64962e-09
2.22045e-16
8.22377e-16
5.128e-14
6.53925e-15
3.46617e-16
1.13647e-08
1.72987e-09
9.37245e-10
2.31003e-09
1.88444e-10
5.70067e-10
0.000281606
8.06491e-05
0.000123223
2.22045e-16
2.22045e-16
3.12532e-12
3.95094e-16
6.12271e-09
2.60425e-13
2.59902e-12
2.22045e-16
2.22045e-16
7.54346e-06
3.04771e-10
8.42525e-05
8.89384e-10
0.000360114
2.22045e-16
2.22045e-16
2.22045e-16
4.39199e-11
2.22045e-16
2.22045e-16
2.22045e-16
2.22045e-16
2.22045e-16
9.84954e-07
3.16891e-14
3.69826e-08
2.22045e-16
1.42461e-15
1.02815e-09
2.22045e-16
2.22045e-16
2.22045e-16
2.22045e-16
2.22045e-16
2.22045e-16
2.22045e-16
2.22045e-16
2.22045e-16
4.25172e-14
2.22045e-16
2.22045e-16
2.22045e-16
326.469
262.64
20.9096
3.9052e-15
3.18238e-09
4.67853e-15
7.96823e-11
3.85548e-09
2.22045e-16
2.22045e-16
6.33091e-16
6.45798e-15
2.22045e-16
6.33091e-16
2.22045e-16
2.22045e-16
2.22045e-16
2.22045e-16
2.22045e-16
2.22045e-16
2.22045e-16
2.22045e-16
1.12501e-12
5.9007e-15
3.21102e-08
1.13647e-08
5.77426e-15
2.68529e-08
1.76376e-12
2.72815e-13
5.90174e-10
2.95808e-16
4.53304e-09
2.22045e-16
4.91162e-09
2.75163e-14
2.22045e-16
2.22045e-16
2.22045e-16
2.22045e-16
2.22045e-16
2.22045e-16
2.22045e-16
2.22045e-16
2.22045e-16
2.22045e-16
2.22045e-16
2.22045e-16
2.22045e-16
2.22045e-16
2.22045e-16
2.22045e-16
2.53074e-11
3.12497e-12
3.27722e-16
2.22045e-16
2.2775e-11
2.22045e-16
3.95397e-16
2.22045e-16
6.7039e-16
2.22045e-16
3.09241e-15
2.22045e-16
1.94779e-14
3.78295e-07
9.12301e-11
7.82112e-10
4.39378e-08
1.97966e-09
2.6449e-16
2.22045e-16
2.22045e-16
2.22045e-16
2.22045e-16
2.22045e-16
2.22045e-16
2.22045e-16
2.22045e-16
2.22045e-16
2.22045e-16
2.22045e-16
2.22045e-16
2.22045e-16
2.22045e-16
2.22045e-16
2.22045e-16
2.22045e-16
2.22045e-16
2.22045e-16
2.22045e-16
2.22045e-16
2.22045e-16
3.84837e-14
2.11342e-11
3.55185e-11
2.22045e-16
2.22045e-16
7.22484e-12
2.22045e-16
2.22045e-16
2.22045e-16
2.22045e-16
2.22045e-16
2.22045e-16
2.22045e-16
2.22045e-16
2.22045e-16
2.22045e-16
2.22045e-16
2.22045e-16
2.22045e-16
2.22045e-16
2.22045e-16
2.22045e-16
1.88086e-14
2.22045e-16
2.22045e-16
2.22045e-16
2.22045e-16
2.22045e-16
2.22045e-16
2.22045e-16
2.22045e-16
2.22045e-16
2.22045e-16
2.22045e-16
6.71235e-13
2.22045e-16
3.8269e-10
5.16614e-12
2.22045e-16
2.22045e-16
1.57055e-06
382.219
269.408
103.298
209.39
361.012
311.893
8.95692
3.95513e-09
0.130076
0.00678175
0.884389
2.62148e-06
0.00131136
4.67635e-05
2.22045e-16
2.22045e-16
2.22045e-16
2.14131e-14
2.22201e-15
2.22045e-16
2.80684e-16
3.82976e-08
2.22045e-16
2.22045e-16
9.58464e-13
5.79201e-11
2.22045e-16
0.00125515
6.48404e-05
3.27153e-07
3.46286e-13
0.0239348
8.52237e-07
4.5514e-09
2.22045e-16
4.02236e-11
2.22045e-16
1.49639e-13
2.22045e-16
5.29982e-16
2.22045e-16
2.22045e-16
2.22045e-16
2.22045e-16
2.22045e-16
2.22045e-16
2.56109e-16
2.22045e-16
2.22045e-16
2.22045e-16
2.22045e-16
2.22045e-16
2.22045e-16
2.22045e-16
2.22045e-16
2.22045e-16
2.22045e-16
2.22045e-16
2.22045e-16
2.22045e-16
2.22045e-16
2.22045e-16
2.22045e-16
2.22045e-16
2.22045e-16
2.22045e-16
2.22045e-16
2.22045e-16
2.22045e-16
2.22045e-16
2.22045e-16
2.22045e-16
2.22045e-16
2.22045e-16
2.22045e-16
2.22045e-16
2.22045e-16
2.22045e-16
2.22045e-16
2.22045e-16
2.22045e-16
2.22045e-16
2.22045e-16
2.22045e-16
2.22045e-16
2.22045e-16
2.22045e-16
2.22045e-16
2.22045e-16
2.22045e-16
2.22045e-16
2.22045e-16
2.22045e-16
2.22045e-16
2.22045e-16
2.22045e-16
2.22045e-16
2.22045e-16
2.22045e-16
2.22045e-16
2.22045e-16
2.22045e-16
2.22045e-16
2.22045e-16
2.22045e-16
2.22045e-16
2.22045e-16
2.22045e-16
2.22045e-16
2.22045e-16
2.22045e-16
2.22045e-16
2.22045e-16
2.22045e-16
2.22045e-16
2.22045e-16
2.22045e-16
2.22045e-16
2.22045e-16
2.22045e-16
2.22045e-16
2.22045e-16
2.22045e-16
2.22045e-16
2.22045e-16
2.22045e-16
2.22045e-16
2.22045e-16
2.22045e-16
2.22045e-16
2.22045e-16
2.22045e-16
2.22045e-16
2.22045e-16
2.22045e-16
2.22045e-16
2.22045e-16
2.22045e-16
2.22045e-16
2.22045e-16
2.22045e-16
2.22045e-16
2.22045e-16
2.22045e-16
2.22045e-16
2.22045e-16
2.22045e-16
2.22045e-16
2.22045e-16
2.22045e-16
2.22045e-16
2.22045e-16
2.22045e-16
2.22045e-16
2.22045e-16
2.22045e-16
2.22045e-16
2.22045e-16
2.22045e-16
2.22045e-16
2.22045e-16
2.22045e-16
2.22045e-16
2.22045e-16
2.22045e-16
2.22045e-16
2.22045e-16
2.22045e-16
2.22045e-16
2.22045e-16
2.22045e-16
2.22045e-16
2.22045e-16
2.22045e-16
2.22045e-16
2.22045e-16
2.22045e-16
2.22045e-16
2.22045e-16
2.22045e-16
2.22045e-16
2.22045e-16
2.22045e-16
2.22045e-16
2.22045e-16
2.22045e-16
2.22045e-16
2.22045e-16
2.22045e-16
2.22045e-16
2.22045e-16
2.22045e-16
2.22045e-16
2.22045e-16
2.22045e-16
2.22045e-16
2.22045e-16
2.22045e-16
2.22045e-16
2.22045e-16
2.22045e-16
2.22045e-16
2.22045e-16
2.22045e-16
2.22045e-16
2.22045e-16
2.22045e-16
2.22045e-16
2.22045e-16
2.22045e-16
2.22045e-16
2.22045e-16
2.22045e-16
2.22045e-16
2.22045e-16
2.22045e-16
2.22045e-16
2.22045e-16
2.22045e-16
2.22045e-16
2.22045e-16
2.22045e-16
2.22045e-16
2.22045e-16
2.22045e-16
2.22045e-16
2.22045e-16
2.22045e-16
2.22045e-16
2.22045e-16
2.22045e-16
2.22045e-16
2.22045e-16
2.22045e-16
2.22045e-16
2.22045e-16
28.6528
0.0553287
2.15189e-14
2.22045e-16
2.22045e-16
31.0519
9.50203e-05
2.22045e-16
2.22045e-16
2.22045e-16
1.89957e-08
1.69104e-11
2.22045e-16
2.22045e-16
2.22045e-16
2.4771e-14
2.22045e-16
2.22045e-16
2.22045e-16
2.22045e-16
2.22045e-16
2.22045e-16
2.22045e-16
2.22045e-16
2.22045e-16
2.22045e-16
2.22045e-16
2.22045e-16
2.22045e-16
2.22045e-16
2.22045e-16
2.22045e-16
2.22045e-16
2.22045e-16
2.22045e-16
2.22045e-16
2.22045e-16
2.22045e-16
2.22045e-16
2.22045e-16
2.22045e-16
2.22045e-16
2.22045e-16
2.22045e-16
2.22045e-16
2.22045e-16
2.22045e-16
2.22045e-16
2.22045e-16
2.22045e-16
2.22045e-16
2.22045e-16
2.22045e-16
2.22045e-16
2.22045e-16
2.22045e-16
2.22045e-16
2.22045e-16
2.22045e-16
2.22045e-16
2.22045e-16
2.22045e-16
2.22045e-16
2.22045e-16
2.22045e-16
7.97784e-15
2.63801e-06
2.22045e-16
2.22045e-16
2.22045e-16
2.22045e-16
2.22045e-16
2.22045e-16
2.22045e-16