/*--------------------------------*- C++ -*----------------------------------*\
  =========                 |
  \\      /  F ield         | OpenFOAM: The Open Source CFD Toolbox
   \\    /   O peration     | Website:  https://openfoam.org
    \\  /    A nd           | Version:  9
     \\/     M anipulation  |
\*---------------------------------------------------------------------------*/
FoamFile
{
    format      ascii;
    class       volScalarField;
    location    "0.00295";
    object      rho.air;
}
// * * * * * * * * * * * * * * * * * * * * * * * * * * * * * * * * * * * * * //

dimensions      [1 -3 0 0 0 0 0];

internalField   nonuniform List<scalar> 
27787
(
1.225
1.225
1.225
1.225
1.225
1.225
1.22502
1.225
1.225
1.225
1.225
1.225
1.225
1.225
1.225
1.225
1.225
1.225
1.225
1.225
1.225
1.225
1.225
1.225
1.225
1.225
1.225
1.225
1.225
1.225
1.225
1.225
1.225
1.225
1.225
1.22502
1.225
1.225
1.225
1.24741
1.73407
1.2289
1.225
1.225
1.225
1.23804
2.32453
1.33634
1.225
1.225
1.23915
2.67284
1.33022
0.938983
1.22727
2.70464
2.64103
1.10932
0.820031
1.22502
1.76429
2.34325
2.02918
1.29019
1.225
1.225
1.225
1.225
1.225
1.225
1.225
1.225
1.225
1.225
1.225
1.225
1.225
1.225
1.225
1.225
1.225
1.225
1.225
1.225
1.225
1.225
1.225
1.225
1.225
1.225
1.225
1.225
1.225
1.225
1.225
1.225
1.225
1.225
1.225
1.22501
1.225
1.225
1.225
1.225
1.225
1.225
1.225
1.22501
1.2357
1.225
1.225
1.225
1.225
1.225
1.225
1.22501
1.24234
2.87469
1.225
1.225
1.225
1.225
1.225
1.22501
1.22918
2.86039
0.77575
1.225
1.225
1.225
1.225
1.22626
2.77341
1.83807
0.878051
0.444237
1.225
1.225
1.225
1.225
1.225
1.225
1.225
1.225
1.225
1.225
1.225
1.225
1.225
1.225
1.225
1.225
1.225
1.225
1.225
1.225
1.225
1.225
1.225
1.225
1.225
1.225
1.225
1.225
1.225
1.225
1.225
1.225
1.225
1.225
1.225
1.225
1.225
1.225
1.225
1.225
1.225
1.225
1.225
1.22501
1.22643
1.225
1.225
1.225
1.225
1.225
1.225
1.225
1.2273
2.78588
1.225
1.225
1.225
1.225
1.225
1.225
1.22556
2.70762
0.952938
1.225
1.225
1.225
1.225
1.22517
2.5262
2.07815
1.07214
0.777741
1.225
1.225
1.225
1.225
1.225
1.225
1.225
1.225
1.225
1.225
1.225
1.225
1.225
1.225
1.225
1.225
1.225
1.225
1.225
1.225
1.225
1.225
1.225
1.225
1.225
1.225
1.225
1.225
1.225
1.225
1.225
1.225
1.225
1.225
1.225
1.225
1.225
1.225
1.225
1.225
1.225
1.225
1.225
1.225
1.22501
1.225
1.225
1.225
1.225
1.225
1.225
1.225
1.22502
1.3829
1.225
1.225
1.225
1.225
1.225
1.225
1.22501
1.31726
2.84072
1.225
1.225
1.225
1.225
1.225
1.22527
1.22864
2.87407
1.6791
1.225
1.225
1.225
1.225
1.225
1.225
1.225
1.225
1.225
1.225
1.225
1.225
1.225
1.225
1.225
1.225
1.225
1.225
1.225
1.225
1.225
1.225
1.225
1.225
1.225
1.225
1.225
1.225
1.225
1.225
1.225
1.225
1.225
1.225
1.225
1.225
1.225
1.225
1.225
1.225
1.225
1.225
1.225
1.225
1.225
1.225
1.225
1.225
1.225
1.225
1.225
1.225
1.225
1.22508
1.225
1.225
1.225
1.225
1.225
1.225
1.225
1.22505
1.6502
1.225
1.225
1.225
1.225
1.225
1.225
1.22559
1.23112
2.75994
1.225
1.225
1.225
1.225
1.225
1.225
1.225
1.225
1.225
1.225
1.225
1.225
1.225
1.225
1.225
1.225
1.225
1.225
1.225
1.225
1.225
1.225
1.225
1.225
1.225
1.225
1.225
1.225
1.225
1.225
1.225
1.225
1.225
1.225
1.225
1.225
1.225
1.225
1.225
1.225
1.225
1.225
1.225
1.225
1.225
1.225
1.225
1.225
1.225
1.225
1.225
1.225
1.225
1.225
1.225
1.225
1.225
1.225
1.225
1.225
1.225
1.225
1.22503
1.225
1.225
1.225
1.225
1.225
1.225
1.225
1.22518
2.87099
1.225
1.225
1.225
1.225
1.225
1.225
1.225
1.225
1.225
1.225
1.225
1.225
1.225
1.225
1.225
1.225
1.225
1.225
1.225
1.225
1.225
1.225
1.225
1.225
1.225
1.225
1.225
1.225
1.225
1.225
1.225
1.225
1.225
1.225
1.225
1.225
1.225
1.225
1.225
1.225
1.225
1.225
1.225
1.225
1.225
1.225
1.225
1.225
1.225
1.225
1.225
1.225
1.225
1.225
1.225
1.225
1.225
1.225
1.225
1.225
1.225
1.225
1.225
1.225
1.225
1.225
1.225
1.225
1.225
1.36241
1.225
1.225
1.225
1.225
1.225
1.225
1.225
1.225
1.30151
2.4827
1.225
1.225
1.225
1.225
1.225
1.225
1.225
1.225
1.225
1.225
1.225
1.225
1.225
1.225
1.225
1.225
1.225
1.225
1.225
1.225
1.225
1.225
1.225
1.225
1.225
1.225
1.225
1.225
1.225
1.225
1.225
1.225
1.225
1.225
1.225
1.225
1.225
1.225
1.225
1.225
1.225
1.225
1.225
1.225
1.225
1.225
1.225
1.225
1.225
1.225
1.225
1.225
1.225
1.225
1.225
1.225
1.225
1.225
1.225
1.225
1.225
1.225
1.225
1.225
1.225
1.225
1.225
1.225
1.225
1.225
1.225
1.225
1.225
1.225
1.225
1.225
1.225
1.225
1.225
1.225
1.225
1.225
1.225
1.225
1.225
1.225
1.225
1.225
1.225
1.225
1.225
1.225
1.225
1.225
1.225
1.225
1.225
1.225
1.225
1.225
1.225
1.225
1.225
1.225
1.225
1.225
1.225
1.225
1.225
1.225
1.225
1.225
1.225
1.225
1.225
1.225
1.225
1.225
1.225
1.225
1.225
1.225
1.225
1.225
1.225
1.225
1.225
1.225
1.225
1.225
1.225
1.225
1.225
1.225
1.225
1.225
1.225
1.225
1.225
1.225
1.225
1.225
1.225
1.225
1.225
1.225
1.225
1.225
1.225
1.225
1.225
1.225
1.225
1.225
1.225
1.225
1.225
1.225
1.225
1.225
1.225
1.225
1.225
1.225
1.225
1.225
1.225
1.225
1.225
1.225
1.225
1.225
1.225
1.225
1.225
1.225
1.225
1.225
1.225
1.225
1.225
1.225
1.225
1.225
1.225
1.225
1.225
1.225
1.225
1.225
1.225
1.225
1.225
1.225
1.225
1.225
1.225
1.225
1.225
1.225
1.225
1.225
1.225
1.225
1.225
1.225
1.225
1.225
1.225
1.225
1.225
1.225
1.225
1.225
1.225
1.225
1.225
1.225
1.225
1.225
1.225
1.225
1.225
1.225
1.225
1.225
1.225
1.225
1.225
1.225
1.225
1.225
1.225
1.225
1.225
1.225
1.225
1.225
1.225
1.225
1.225
1.225
1.225
1.225
1.225
1.225
1.225
1.225
1.225
1.225
1.225
1.225
1.225
1.225
1.225
1.225
1.225
1.225
1.225
1.225
1.225
1.225
1.225
1.225
1.225
1.225
1.225
1.225
1.225
1.225
1.225
1.225
1.225
1.225
1.225
1.225
1.225
1.225
1.225
1.225
1.225
1.225
1.225
1.225
1.225
1.225
1.225
1.225
1.225
1.225
1.225
1.225
1.225
1.225
1.225
1.225
1.225
1.225
1.225
1.225
1.225
1.225
1.225
1.225
1.225
1.225
1.225
1.225
1.225
1.225
1.225
1.225
1.225
1.225
1.225
1.225
1.225
1.225
1.225
1.225
1.225
1.225
1.225
1.225
1.225
1.22566
1.23977
2.88421
2.4329
1.225
1.225
1.225
1.225
1.23005
2.80727
1.64998
0.768724
0.384688
1.225
1.225
1.225
1.225
1.22521
2.50568
1.95342
0.313224
1.225
1.225
1.225
1.225
1.23218
2.7336
1.41203
0.275184
1.225
1.225
1.225
1.22934
2.69872
1.39484
0.539084
1.225
1.225
1.225
1.225
1.225
1.225
1.22574
2.73529
1.87778
0.966145
0.628498
1.225
1.225
1.225
1.225
1.22503
1.93246
2.25521
0.626515
1.225
1.225
1.225
1.225
1.22609
2.70572
1.66544
0.60261
1.225
1.225
1.225
1.227
2.20066
2.10244
1.2181
0.83982
1.225
1.225
1.225
1.225
1.225
1.225
1.225
1.2261
1.23978
1.93454
2.02083
1.225
1.225
1.225
1.225
1.225
1.23572
2.80757
1.73132
1.225
1.225
1.225
1.225
1.22501
1.53827
2.49712
1.17576
1.225
1.225
1.225
1.225
1.22926
2.80648
2.05413
1.09456
1.225
1.225
1.225
1.225
1.225
1.225
1.225
1.225
1.22729
2.2247
2.59533
1.225
1.225
1.225
1.225
1.225
1.22501
1.41453
1.98003
1.75861
1.225
1.225
1.225
1.225
1.225
1.22525
2.51026
1.83549
1.225
1.225
1.225
1.225
1.22556
2.63678
2.4222
1.45669
1.225
1.225
1.225
1.225
1.225
1.225
1.225
1.225
1.225
1.22575
2.76547
1.225
1.225
1.225
1.225
1.225
1.225
1.22502
2.06038
2.45656
1.225
1.225
1.225
1.225
1.225
1.225
1.22547
2.27246
1.225
1.225
1.225
1.225
1.225
1.22501
1.23699
2.44247
1.225
1.225
1.225
1.225
1.225
1.22647
2.61112
2.43684
1.225
1.225
1.225
1.225
1.225
1.225
1.225
1.225
1.53264
2.42598
1.225
1.225
1.225
1.225
1.225
1.225
1.225
1.2256
2.46695
2.42132
1.225
1.225
1.225
1.225
1.225
1.225
1.225
1.22646
1.225
1.225
1.225
1.225
1.225
1.225
1.22501
1.28143
1.225
1.225
1.225
1.225
1.225
1.225
1.2299
2.41116
1.225
1.225
1.225
1.225
1.225
1.225
1.225
1.225
1.225
2.13013
1.225
1.225
1.225
1.225
1.225
1.225
1.225
1.225
1.22514
2.31324
1.225
1.225
1.225
1.225
1.225
1.225
1.225
1.225
1.225
1.225
1.225
1.225
1.225
1.225
1.225
1.23154
1.225
1.225
1.225
1.225
1.225
1.225
1.225
1.23302
1.225
1.225
1.225
1.225
1.225
1.225
1.225
1.225
1.225
1.225
1.225
1.225
1.225
1.225
1.225
1.225
1.225
1.225
1.225
1.22546
1.225
1.225
1.225
1.225
1.225
1.225
1.225
1.225
1.225
1.225
1.225
1.225
1.225
1.225
1.225
1.225
1.225
1.225
1.225
1.225
1.225
1.225
1.225
1.225
1.225
1.225
1.225
1.225
1.225
1.225
1.225
1.225
1.225
1.225
1.225
1.225
1.225
1.225
1.225
1.225
1.225
1.225
1.225
1.225
1.225
1.225
1.225
1.225
1.225
1.225
1.225
1.225
1.225
1.225
1.225
1.225
1.225
1.225
1.225
1.225
1.225
1.225
1.225
1.225
1.225
1.225
1.225
1.225
1.225
1.225
1.225
1.225
1.225
1.225
1.225
1.225
1.225
1.225
1.225
1.225
1.225
1.225
1.225
1.225
1.225
1.225
1.225
1.225
1.225
1.225
1.225
1.225
1.225
1.225
1.225
1.225
1.225
1.225
1.225
1.225
1.225
1.225
1.225
1.225
1.225
1.225
1.225
1.225
1.225
1.225
1.225
1.225
1.54968
1.24492
1.97506
2.31155
1.44043
2.22095
1.41669
1.86359
1.32425
1.71793
1.2307
1.22532
2.38855
1.27147
2.22074
2.33547
2.06554
1.225
1.23879
1.225
1.33149
1.22501
1.48578
1.225
1.225
1.225
1.225
1.225
1.225
1.225
1.225
1.225
1.225
1.225
1.225
1.12968
0.476173
0.195703
0.409209
0.557192
0.422789
0.696292
0.582956
0.900779
1.51164
1.23361
1.23385
0.747797
1.74875
1.12748
0.75386
1.90072
1.35206
1.76382
1.13493
0.827684
1.22944
1.10106
0.804747
0.920022
0.833195
1.0978
0.667581
0.657306
0.528333
0.643318
0.749913
0.436818
0.248894
0.581849
0.44379
1.10315
0.657686
0.631182
0.652122
0.766954
0.683338
1.15144
0.503043
0.845183
0.464775
0.614865
0.966813
0.609138
0.747818
1.10912
2.27552
1.65044
1.97787
1.49617
0.88015
1.36942
0.670414
0.992679
0.788838
0.811401
0.706583
1.29124
1.17821
0.222829
0.216783
0.244427
0.249448
0.275555
0.301665
0.275767
0.954085
1.1544
1.62203
0.921859
1.1339
1.81854
1.25353
0.841727
0.983701
1.25306
0.688768
0.55395
1.00929
0.88016
0.926641
1.14848
1.83227
1.26113
1.37901
1.31834
1.93142
0.276746
0.286944
0.312618
0.298365
0.323984
0.367823
0.344612
1.03144
0.565165
0.648919
0.556184
1.10352
0.983809
0.505638
0.294284
0.429383
0.315475
0.451635
0.341594
0.366297
0.474088
0.856171
0.929614
0.77117
0.857545
0.888714
0.998398
1.01722
0.752387
0.846558
0.846761
0.879352
0.878466
0.994107
0.997439
0.63153
0.8176
0.616664
0.676551
0.683937
0.845544
0.877983
0.568306
0.73901
0.621229
0.591466
0.656536
0.759748
0.69466
0.302441
0.243231
0.270972
0.333828
0.347929
0.37171
0.308756
1.1101
0.985007
0.479735
1.0789
0.51077
1.20685
0.571478
0.767239
0.853984
0.868059
0.887756
0.903047
1.00663
1.02302
0.343835
0.466279
0.372695
0.478759
0.383754
0.420172
0.50737
0.50953
0.632592
0.518637
0.555662
0.551178
0.681593
0.681245
1.06004
1.07574
0.846923
0.860325
1.55008
1.13716
1.34112
0.36872
0.45181
0.340395
0.395908
0.528961
0.430152
0.499916
0.790589
0.933036
0.892828
0.971512
0.92938
1.05231
1.09945
0.637988
0.51325
0.524563
0.566594
0.55501
0.688683
0.702505
0.559417
0.732825
0.832904
1.11254
0.672001
1.21152
0.711196
0.404878
0.332073
0.355315
0.418045
0.457655
0.474907
0.397934
0.872536
1.37278
1.48363
0.950316
0.52719
1.06912
0.584656
0.339252
0.357756
0.381717
0.393133
0.41541
0.464873
0.444366
0.699864
1.14278
0.54535
1.5404
0.827962
1.27035
0.604387
0.324388
0.442101
0.347394
0.379081
0.46088
0.479425
0.356736
0.360701
0.456533
0.383715
0.434994
0.498082
0.515368
0.415041
0.541048
0.56022
0.690383
0.583885
0.604724
0.720774
0.741924
1.45963
2.32672
1.54558
1.59448
1.27418
1.84128
2.27628
1.99695
1.25643
1.72004
2.2926
1.85934
1.35176
1.55412
1.24032
1.8584
1.48541
1.65317
1.54854
2.38691
2.33017
1.44761
2.31716
1.53298
1.22678
1.4489
1.5275
2.31901
0.663208
0.573382
0.589252
0.683214
0.703658
0.614227
0.728813
0.738288
0.832058
0.735589
0.91638
0.79997
0.804433
0.925217
1.60817
1.26392
1.49018
1.47349
1.34928
2.17207
1.98208
1.45057
2.39695
1.62668
1.77914
1.65914
2.78662
1.99355
2.40552
2.01242
1.876
1.36319
1.45205
1.67921
1.57476
1.00076
1.12412
0.983401
1.14935
1.3042
1.1566
1.30431
0.507611
0.492852
0.406352
0.435934
0.614638
0.527878
0.533871
1.12496
0.981877
0.979288
1.15061
1.30919
1.15449
1.30605
0.903758
1.0675
0.984446
0.926255
1.09564
1.0372
0.965293
0.743488
0.848394
0.78951
0.830897
0.914814
0.924479
0.804644
0.450368
0.494079
0.407868
0.463534
0.584574
0.514371
0.542143
0.502131
0.523814
0.435809
0.480568
0.627363
0.555468
0.559813
0.401013
0.533417
0.438138
0.561866
0.469367
0.513944
0.599639
0.946576
0.990333
1.03084
1.063
1.10513
1.16552
1.24791
0.911223
1.35426
1.21121
1.21122
0.767969
1.76071
1.22498
0.74222
0.791786
0.736928
0.877461
0.99403
0.93617
0.903674
0.580688
0.733447
0.711232
0.653659
0.627987
0.765235
0.790696
0.739153
1.77366
1.23362
1.33242
0.773499
1.88361
1.27304
0.417409
0.44161
0.505971
0.573795
0.461619
0.523533
0.396112
0.99009
1.15161
1.00565
1.3182
1.16386
1.18261
1.33851
0.62132
0.71846
0.687192
0.78373
0.800995
0.823239
0.74144
0.600484
0.657967
0.59866
0.797216
0.734834
0.736343
0.801694
2.12099
1.43475
1.85612
1.43859
2.10256
2.009
2.85351
1.05864
1.22578
1.04041
1.17797
1.39676
1.18606
1.39708
1.22829
1.04148
1.03727
1.17958
1.40609
1.40062
1.18449
0.875422
0.854545
0.74943
0.815934
0.959701
0.832755
0.939826
0.40842
0.484165
0.430007
0.520019
0.564926
0.581539
0.501531
0.923027
1.03083
1.33698
1.30761
0.850876
1.73153
1.24047
2.12194
2.18538
1.56706
2.0287
2.86222
2.2545
2.90278
1.05152
1.26504
1.06896
1.41826
1.19505
1.21481
1.44206
0.471256
0.600025
0.61692
0.652285
0.511858
0.569297
0.564654
0.666745
0.617707
0.604283
0.74535
0.830035
0.760202
0.812923
0.461376
0.510686
0.525099
0.524088
0.538733
0.611374
0.598765
0.598049
0.739805
0.708425
0.681421
0.644413
0.759325
0.796265
1.59926
1.26007
1.41877
1.29141
1.15579
1.63671
1.4501
1.18211
1.07917
1.03387
1.21647
1.42737
1.26933
1.37414
0.492697
0.542383
0.656562
0.566199
0.557288
0.581266
0.475352
1.02392
1.24248
1.14798
1.28041
1.18995
1.34257
1.44508
0.901652
0.931144
0.81278
0.984725
0.853805
0.877807
1.01346
0.586696
0.572819
0.591934
0.735119
0.735182
0.723697
0.752451
0.517826
0.5545
0.568196
0.678628
0.621039
0.632507
0.671796
1.04952
1.52613
0.768069
2.10881
1.1723
1.65564
0.894253
1.5893
1.393
2.05298
1.17797
0.887507
1.64662
1.18323
0.757615
0.653004
0.682426
0.784004
0.715407
0.818824
0.850632
0.941859
1.39589
0.803169
2.24276
1.44206
1.94794
1.30421
1.42976
2.2037
1.93002
2.39645
1.73761
1.5898
2.40209
1.2997
1.14772
1.0995
1.25004
1.54309
1.4828
1.30513
0.492941
0.630635
0.51153
0.567469
0.6804
0.695453
0.550268
0.568376
0.529418
0.480829
0.564467
0.69543
0.621946
0.643605
0.637114
0.735605
0.660894
0.852752
0.779836
0.803355
0.881008
1.06431
1.07723
1.03205
1.10705
1.0435
1.15199
1.17425
0.928548
1.02251
1.02146
1.02701
1.0291
1.14723
1.15087
0.633626
0.812657
0.753117
0.728297
0.664413
0.783628
0.85061
0.771568
0.910884
0.795664
0.940724
0.820821
0.849048
0.974078
0.495629
0.478454
0.494677
0.608715
0.621878
0.624018
0.610442
1.9309
2.28336
1.7841
2.08514
1.94623
1.64342
1.8013
2.88559
3.40271
1.49026
2.49692
1.93389
3.42866
2.8544
1.6383
3.14033
3.55324
3.69195
3.1548
3.00339
2.98229
2.74071
3.05266
3.03654
2.82233
3.16599
3.1868
3.00527
3.19788
2.8646
2.59889
1.49199
2.90403
3.63573
1.23084
3.21363
1.22785
1.77441
2.39452
2.72849
2.78281
3.01561
1.28277
1.31351
1.39257
1.86592
1.66808
1.75044
1.225
1.225
1.225
1.225
1.225
1.225
2.41429
2.32307
2.67149
1.68994
1.28934
1.18537
1.84943
1.53807
0.995765
1.09001
1.3982
2.5963
2.36959
2.90754
2.6337
2.51976
2.62674
2.4129
2.22729
2.24425
2.08388
1.34566
2.75262
1.225
1.225
2.85011
2.57029
2.06515
2.23017
2.14404
1.86815
1.84703
1.92088
1.5588
1.41747
2.05999
1.35379
2.58913
1.22601
1.24129
2.2363
1.22512
1.25906
1.23683
1.71451
2.03111
2.34499
1.57821
2.06404
1.68152
1.54856
1.83953
1.75002
1.5459
2.11953
2.21596
1.85036
1.71692
2.10841
2.1358
1.40368
1.54533
1.98416
1.63379
1.27796
1.22504
1.225
1.22503
1.23201
1.225
1.22501
1.225
1.30139
1.225
1.225
1.225
2.34733
1.22561
1.225
1.225
1.225
1.225
1.225
2.14353
2.46825
3.45645
3.84525
1.37269
2.87943
1.225
1.225
1.225
1.225
1.225
1.225
1.225
1.225
1.225
1.225
1.225
1.225
1.225
1.225
1.225
1.22501
1.225
1.22506
1.225
1.62947
1.22501
1.225
1.225
1.225
1.225
1.225
1.225
1.225
1.225
1.225
1.225
1.225
1.225
1.225
1.225
1.225
1.225
1.225
1.225
1.225
1.225
1.225
1.225
1.225
1.225
1.225
1.225
1.225
1.225
1.225
1.225
1.225
1.225
1.225
1.225
1.225
1.225
1.225
1.225
1.225
1.225
1.225
1.225
1.225
1.225
1.225
1.225
1.225
1.225
1.225
1.225
1.225
1.225
1.225
1.225
1.225
1.225
1.225
1.225
1.225
1.225
1.225
1.225
1.225
1.225
1.225
1.225
1.225
1.225
1.225
1.225
1.225
1.225
1.225
1.225
1.225
1.225
1.225
1.225
1.225
1.225
1.225
1.225
1.225
1.225
1.225
1.225
1.225
1.225
1.225
1.225
1.225
1.225
1.225
1.225
1.225
1.225
1.225
1.225
1.225
1.225
1.225
1.225
1.225
1.225
1.225
1.225
1.225
1.22507
1.225
1.22505
1.225
1.225
1.225
1.225
1.225
1.225
1.225
1.225
1.225
1.225
1.225
1.225
1.225
1.225
1.225
1.225
1.225
1.225
1.23605
1.22506
1.32572
1.40154
2.15779
1.23791
2.16907
1.22589
1.22606
1.24019
1.23147
1.225
1.225
1.22502
1.22501
1.22503
1.22506
1.22503
1.22505
1.22501
1.22501
1.22502
1.225
1.22501
1.225
1.22502
1.22501
1.225
1.225
1.225
1.22501
1.22501
1.225
1.22501
1.225
1.225
1.225
1.225
1.225
1.225
1.225
1.225
1.225
1.225
1.22507
1.225
1.22501
1.225
1.225
1.225
1.225
1.225
1.225
1.225
1.225
1.225
1.225
1.225
1.225
1.225
1.225
1.225
1.225
1.225
1.225
1.225
1.225
1.225
1.225
1.225
1.225
1.225
1.225
1.225
1.225
1.225
1.225
1.225
1.225
1.225
1.225
1.225
1.225
1.225
1.225
1.225
1.225
1.225
1.225
1.225
1.225
1.225
1.225
1.225
1.225
1.225
1.225
1.225
1.225
1.225
1.225
1.225
1.225
1.225
1.225
1.24611
1.23663
1.22684
1.225
1.22501
1.225
1.225
1.225
1.225
1.225
1.225
1.225
1.225
1.225
1.225
1.225
1.225
1.225
1.225
1.225
1.225
1.225
1.225
1.225
1.225
1.225
1.225
1.225
1.225
1.225
1.225
1.225
1.225
1.225
1.225
1.225
1.225
1.225
1.225
1.225
1.225
1.225
1.225
1.225
1.225
1.225
1.225
1.225
1.225
1.225
1.225
1.225
1.225
1.225
1.225
1.225
1.225
1.225
1.225
1.225
1.225
1.225
1.225
1.225
1.225
1.225
1.225
1.225
1.225
1.225
1.225
1.225
1.225
1.225
1.225
1.225
1.225
1.225
1.225
1.225
1.225
1.225
1.225
1.225
1.225
1.225
1.225
1.225
1.225
1.225
1.225
1.225
1.225
1.225
1.225
1.225
1.225
1.225
1.225
1.225
1.225
1.225
1.225
1.225
1.225
1.225
1.225
1.225
1.225
1.225
1.225
1.225
1.225
1.225
1.225
1.225
1.225
1.225
1.225
1.225
1.225
1.225
1.225
1.225
1.225
1.225
1.225
1.225
1.225
1.225
1.225
1.225
1.225
1.22501
1.2442
1.40507
1.23005
1.23395
1.28247
1.3157
1.22667
1.22501
1.22537
1.22514
1.22576
1.22502
1.22513
1.22506
1.225
1.225
1.225
1.225
1.225
1.225
1.225
1.22501
1.225
1.225
1.225
1.225
1.225
1.22509
1.22504
1.22501
1.225
1.22516
1.22502
1.22501
1.225
1.225
1.225
1.225
1.225
1.225
1.225
1.225
1.225
1.225
1.225
1.225
1.225
1.225
1.225
1.225
1.225
1.225
1.225
1.225
1.225
1.225
1.225
1.225
1.225
1.225
1.225
1.225
1.225
1.225
1.225
1.225
1.225
1.225
1.225
1.225
1.225
1.225
1.225
1.225
1.225
1.225
1.225
1.225
1.225
1.225
1.225
1.225
1.225
1.225
1.225
1.225
1.225
1.225
1.225
1.225
1.225
1.225
1.225
1.225
1.225
1.225
1.225
1.225
1.225
1.225
1.225
1.225
1.225
1.225
1.225
1.225
1.225
1.225
1.225
1.225
1.225
1.225
1.225
1.225
1.225
1.225
1.225
1.225
1.225
1.225
1.225
1.225
1.225
1.225
1.225
1.225
1.225
1.225
1.225
1.225
1.225
1.225
1.225
1.225
1.225
1.225
1.225
1.225
1.225
1.225
1.225
1.225
1.225
1.225
1.225
1.225
1.225
1.225
1.225
1.225
1.225
1.225
1.225
1.225
1.225
1.225
1.225
1.225
1.225
1.225
1.225
1.225
1.225
1.225
1.225
1.225
1.225
1.225
1.225
1.225
1.225
1.225
1.225
1.225
1.225
1.225
1.225
1.225
1.225
1.225
1.225
1.225
1.225
1.225
1.225
1.225
1.225
1.225
1.225
1.225
1.225
1.225
1.225
1.225
1.225
1.225
1.225
1.225
1.225
1.225
1.225
1.225
1.225
1.225
1.225
1.225
1.225
1.225
1.225
1.225
1.225
1.225
1.225
1.225
1.225
1.225
1.225
1.225
1.225
1.225
1.225
1.225
1.225
1.225
1.225
1.225
1.225
1.225
1.225
1.225
1.225
1.225
1.225
1.225
1.225
1.225
1.23168
1.22508
1.225
1.225
1.225
1.22673
1.22501
1.225
1.225
1.225
1.225
1.225
1.225
1.225
1.225
1.225
1.225
1.225
1.225
1.225
1.225
1.225
1.225
1.225
1.225
1.225
1.225
1.225
1.225
1.225
1.225
1.225
1.225
1.225
1.225
1.225
1.225
1.225
1.225
1.225
1.225
1.225
1.225
1.225
1.225
1.225
1.225
1.225
1.225
1.225
1.225
1.225
1.225
1.225
1.225
1.225
1.225
1.225
1.225
1.225
1.225
1.225
1.225
1.225
1.225
1.225
1.225
1.225
1.225
1.225
1.225
1.225
1.225
1.225
1.225
1.225
1.225
1.225
1.225
1.225
1.225
1.225
1.225
1.225
1.225
1.225
1.225
1.225
1.225
1.225
1.225
1.225
1.225
1.225
1.225
1.225
1.225
1.225
1.225
1.225
1.225
1.225
1.225
1.225
1.225
1.225
1.225
1.225
1.225
1.225
1.225
1.225
1.225
1.225
1.225
1.225
1.225
1.225
1.225
1.225
1.225
1.225
1.225
1.225
1.225
1.225
1.225
1.225
1.225
1.225
1.225
1.225
1.225
1.225
1.225
1.225
1.225
1.225
1.225
1.225
1.225
1.225
1.225
1.225
1.225
1.225
1.225
1.225
1.225
1.225
1.225
1.225
1.225
1.225
1.225
1.225
1.225
1.225
1.225
1.225
1.225
1.225
1.225
1.225
1.225
1.225
1.225
1.225
1.225
1.225
1.225
1.225
1.225
1.225
1.225
1.225
1.225
1.225
1.225
1.225
1.225
1.225
1.225
1.225
1.225
1.225
1.225
1.225
1.225
1.225
1.225
1.225
1.225
1.225
1.225
1.225
1.225
1.225
1.225
1.225
1.225
1.225
1.225
1.225
1.225
1.225
1.225
1.225
1.225
1.225
1.225
1.225
1.225
1.225
1.225
1.225
1.225
1.225
1.225
1.225
1.225
1.225
1.225
1.225
1.225
1.225
1.225
1.225
1.225
1.225
1.225
1.225
1.225
1.225
1.225
1.225
1.225
1.225
1.225
1.225
1.225
1.225
1.225
1.225
1.225
1.225
1.225
1.225
1.225
1.225
1.225
1.225
1.225
1.225
1.225
1.225
1.225
1.225
1.225
1.225
1.225
1.225
1.225
1.225
1.225
1.225
1.225
1.225
1.225
1.225
1.225
1.225
1.225
1.225
1.225
1.225
1.225
1.225
1.225
1.225
1.225
1.225
1.225
1.225
1.225
1.225
1.225
1.225
1.225
1.225
1.225
1.225
1.225
1.225
1.225
1.225
1.225
1.225
1.225
1.225
1.225
1.225
1.225
1.225
1.225
1.225
1.225
1.225
1.225
1.225
1.225
1.225
1.225
1.225
1.225
1.225
1.225
1.225
1.225
1.225
1.225
1.225
1.225
1.225
1.225
1.225
1.225
1.225
1.225
1.225
1.225
1.225
1.225
1.225
1.225
1.225
1.225
1.225
1.225
1.225
1.225
1.225
1.225
1.225
1.225
1.225
1.225
1.225
1.225
1.225
1.225
1.225
1.225
1.225
1.225
1.225
1.225
1.225
1.225
1.225
1.225
1.225
1.225
1.225
1.225
1.225
1.225
1.225
1.225
1.225
1.225
1.225
1.225
1.225
1.225
1.225
1.225
1.225
1.225
1.225
1.225
1.225
1.225
1.225
1.225
1.225
1.225
1.225
1.225
1.225
1.225
1.225
1.225
1.225
1.225
1.225
1.225
1.225
1.225
1.225
1.225
1.225
1.225
1.225
1.225
1.225
1.225
1.225
1.225
1.225
1.225
1.225
1.225
1.225
1.225
1.225
1.225
1.225
1.225
1.225
1.225
1.225
1.225
1.225
1.225
1.225
1.225
1.225
1.225
1.225
1.225
1.225
1.225
1.225
1.225
1.225
1.225
1.225
1.225
1.225
1.225
1.225
1.225
1.225
1.225
1.225
1.225
1.225
1.225
1.225
1.225
1.225
1.225
1.225
1.225
1.225
1.225
1.225
1.225
1.225
1.225
1.225
1.225
1.225
1.225
1.225
1.225
1.225
1.225
1.225
1.225
1.225
1.225
1.225
1.225
1.225
1.225
1.225
1.225
1.225
1.225
1.225
1.225
1.225
1.225
1.225
1.225
1.225
1.225
1.225
1.225
1.225
1.225
1.225
1.225
1.225
1.225
1.225
1.225
1.225
1.225
1.225
1.225
1.225
1.225
1.225
1.225
1.225
1.225
1.225
1.225
1.225
1.225
1.225
1.225
1.225
1.225
1.225
1.225
1.225
1.225
1.225
1.225
1.225
1.225
1.225
1.225
1.225
1.225
1.225
1.225
1.225
1.225
1.225
1.225
1.225
1.225
1.225
1.225
1.225
1.225
1.225
1.225
1.225
1.225
1.225
1.225
1.225
1.225
1.225
1.225
1.225
1.225
1.225
1.225
1.225
1.225
1.225
1.225
1.225
1.225
1.225
1.225
1.225
1.225
1.225
1.225
1.225
1.225
1.225
1.225
1.225
1.225
1.225
1.225
1.225
1.225
1.225
1.225
1.225
1.225
1.225
1.225
1.225
1.225
1.225
1.225
1.225
1.225
1.225
1.225
1.225
1.225
1.225
1.225
1.225
1.225
1.225
1.225
1.225
1.225
1.225
1.225
1.225
1.225
1.225
1.225
1.225
1.225
1.225
1.225
1.225
1.225
1.225
1.225
1.225
1.225
1.225
1.225
1.225
1.225
1.225
1.225
1.225
1.225
1.225
1.225
1.225
1.225
1.225
1.225
1.225
1.225
1.225
1.225
1.225
1.225
1.225
1.225
1.225
1.225
1.225
1.225
1.225
1.225
1.225
1.225
1.225
1.225
1.225
1.225
1.225
1.225
1.225
1.225
1.225
1.225
1.225
1.225
1.225
1.225
1.225
1.225
1.225
1.225
1.225
1.225
1.225
1.225
1.225
1.225
1.225
1.225
1.225
1.225
1.225
1.225
1.225
1.225
1.225
1.225
1.225
1.225
1.225
1.225
1.225
1.225
1.225
1.225
1.225
1.225
1.225
1.225
1.225
1.225
1.225
1.225
1.225
1.225
1.225
1.225
1.225
1.225
1.225
1.225
1.225
1.225
1.225
1.225
1.225
1.225
1.225
1.225
1.225
1.225
1.225
1.225
1.225
1.225
1.225
1.225
1.225
1.225
1.225
1.225
1.225
1.225
1.225
1.225
1.225
1.225
1.225
1.225
1.225
1.225
1.225
1.225
1.225
1.225
1.225
1.225
1.225
1.225
1.225
1.225
1.225
1.225
1.225
1.225
1.225
1.225
1.225
1.225
1.225
1.225
1.225
1.225
1.225
1.225
1.225
1.225
1.225
1.225
1.225
1.225
1.225
1.225
1.225
1.225
1.225
1.225
1.225
1.225
1.225
1.225
1.225
1.225
1.225
1.225
1.225
1.225
1.225
1.225
1.225
1.225
1.225
1.225
1.225
1.225
1.225
1.225
1.225
1.225
1.225
1.225
1.225
1.225
1.225
1.225
1.225
1.225
1.225
1.225
1.225
1.225
1.225
1.225
1.225
1.225
1.225
1.225
1.225
1.225
1.225
1.225
1.225
1.225
1.225
1.225
1.225
1.225
1.225
1.225
1.225
1.225
1.225
1.225
1.225
1.225
1.225
1.225
1.225
1.225
1.225
1.225
1.225
1.225
1.225
1.225
1.225
1.225
1.225
1.225
1.225
1.225
1.225
1.225
1.225
1.225
1.225
1.225
1.225
1.225
1.225
1.225
1.225
1.225
1.225
1.225
1.225
1.225
1.225
1.225
1.225
1.225
1.225
1.225
1.225
1.225
1.225
1.225
1.225
1.225
1.225
1.225
1.225
1.225
1.225
1.225
1.225
1.225
1.225
1.225
1.225
1.225
1.225
1.225
1.225
1.225
1.225
1.225
1.225
1.225
1.225
1.225
1.225
1.225
1.225
1.225
1.225
1.225
1.225
1.225
1.225
1.225
1.225
1.225
1.225
1.225
1.225
1.225
1.225
1.225
1.225
1.225
1.225
1.225
1.225
1.225
1.225
1.225
1.225
1.225
1.225
1.225
1.225
1.225
1.225
1.225
1.225
1.225
1.225
1.225
1.225
1.225
1.225
1.225
1.225
1.225
1.225
1.225
1.225
1.225
1.225
1.225
1.225
1.225
1.225
1.225
1.225
1.225
1.225
1.225
1.225
1.225
1.225
1.225
1.225
1.225
1.225
1.225
1.225
1.225
1.225
1.225
1.225
1.225
1.225
1.225
1.225
1.225
1.225
1.225
1.225
1.225
1.225
1.225
1.225
1.225
1.225
1.225
1.225
1.225
1.225
1.225
1.225
1.225
1.225
1.225
1.225
1.225
1.225
1.225
1.225
1.225
1.225
1.225
1.225
1.225
1.225
1.225
1.225
1.225
1.225
1.225
1.225
1.225
1.225
1.225
1.225
1.225
1.225
1.22501
1.225
1.225
1.225
1.225
1.225
1.225
1.225
1.225
1.225
1.225
1.225
1.225
1.225
1.225
1.225
1.225
1.225
1.225
1.225
1.225
1.225
1.225
1.225
1.225
1.225
1.225
1.225
1.225
1.225
1.225
1.225
1.225
1.225
1.225
1.225
1.225
1.225
1.225
1.225
1.225
1.225
1.225
1.225
1.225
1.225
1.225
1.225
1.225
1.225
1.225
1.225
1.225
1.225
1.225
1.225
1.225
1.225
1.225
1.225
1.225
1.225
1.225
1.225
1.225
1.225
1.225
1.225
1.225
1.225
1.225
1.225
1.225
1.225
1.225
1.225
1.225
1.225
1.225
1.225
1.225
1.225
1.225
1.225
1.225
1.225
1.225
1.225
1.225
1.225
1.225
1.225
1.225
1.225
1.225
1.225
1.225
1.225
1.225
1.225
1.225
1.225
1.225
1.225
1.225
1.225
1.225
1.225
1.225
1.225
1.225
1.225
1.225
1.225
1.225
1.225
1.225
1.22501
1.225
1.225
1.225
1.225
1.225
1.225
1.225
1.225
1.225
1.225
1.225
1.225
1.225
1.225
1.225
1.22501
1.225
1.225
1.225
1.225
1.225
1.225
1.225
1.225
1.225
1.225
1.225
1.225
1.225
1.22505
1.225
1.225
1.225
1.22502
1.225
1.225
1.225
1.225
1.225
1.225
1.225
1.225
1.225
1.225
1.225
1.225
1.225
1.225
1.225
1.225
1.225
1.225
1.225
1.225
1.225
1.225
1.225
1.225
1.225
1.225
1.225
1.225
1.225
1.225
1.225
1.225
1.225
1.225
1.225
1.225
1.225
1.225
1.225
1.225
1.225
1.225
1.225
1.225
1.225
1.225
1.225
1.225
1.225
1.225
1.225
1.225
1.225
1.225
1.225
1.225
1.225
1.225
1.225
1.225
1.225
1.225
1.225
1.225
1.225
1.225
1.225
1.225
1.225
1.225
1.225
1.225
1.225
1.225
1.225
1.225
1.225
1.225
1.225
1.225
1.225
1.225
1.225
1.225
1.225
1.225
1.225
1.225
1.225
1.225
1.225
1.225
1.225
1.225
1.225
1.225
1.225
1.225
1.225
1.225
1.225
1.225
1.225
1.225
1.225
1.225
1.225
1.225
1.225
1.225
1.225
1.225
1.225
1.225
1.225
1.225
1.225
1.225
1.225
1.225
1.225
1.225
1.225
1.225
1.225
1.225
1.225
1.225
1.225
1.225
1.225
1.225
1.225
1.225
1.225
1.225
1.225
1.225
1.225
1.225
1.225
1.225
1.225
1.225
1.225
1.225
1.225
1.225
1.225
1.225
1.225
1.225
1.225
1.225
1.225
1.225
1.225
1.225
1.225
1.225
1.225
1.225
1.225
1.225
1.225
1.225
1.225
1.225
1.225
1.225
1.225
1.225
1.225
1.225
1.225
1.225
1.225
1.225
1.225
1.225
1.225
1.225
1.225
1.225
1.225
1.225
1.225
1.225
1.225
1.225
1.225
1.225
1.225
1.225
1.225
1.225
1.225
1.225
1.225
1.225
1.225
1.225
1.225
1.225
1.225
1.225
1.225
1.225
1.225
1.225
1.225
1.225
1.225
1.225
1.225
1.225
1.225
1.225
1.225
1.225
1.225
1.225
1.225
1.225
1.225
1.225
1.225
1.225
1.225
1.225
1.225
1.225
1.225
1.225
1.225
1.225
1.225
1.225
1.225
1.225
1.225
1.225
1.225
1.225
1.225
1.225
1.225
1.225
1.225
1.225
1.225
1.225
1.225
1.225
1.225
1.225
1.225
1.225
1.225
1.225
1.225
1.225
1.225
1.225
1.225
1.225
1.225
1.225
1.225
1.225
1.225
1.225
1.225
1.225
1.225
1.225
1.225
1.225
1.225
1.225
1.225
1.225
1.22511
1.225
1.225
1.22501
1.22502
1.225
1.225
1.225
1.225
1.225
1.225
1.225
1.225
1.225
1.225
1.225
1.225
1.225
1.225
1.225
1.225
1.225
1.225
1.225
1.225
1.225
1.225
1.225
1.225
1.225
1.225
1.225
1.225
1.225
1.225
1.225
1.225
1.225
1.225
1.225
1.225
1.225
1.225
1.225
1.225
1.225
1.225
1.225
1.225
1.225
1.225
1.225
1.225
1.225
1.225
1.225
1.225
1.225
1.225
1.225
1.225
1.225
1.225
1.225
1.225
1.225
1.225
1.225
1.225
1.225
1.225
1.225
1.225
1.225
1.225
1.225
1.225
1.225
1.225
1.225
1.225
1.225
1.225
1.225
1.225
1.225
1.225
1.225
1.225
1.225
1.225
1.225
1.225
1.225
1.225
1.225
1.225
1.225
1.225
1.225
1.225
1.225
1.225
1.225
1.225
1.225
1.225
1.225
1.225
1.225
1.225
1.225
1.225
1.225
1.225
1.225
1.225
1.225
1.225
1.225
1.225
1.225
1.225
1.225
1.225
1.225
1.225
1.225
1.225
1.225
1.225
1.225
1.225
1.225
1.225
1.225
1.225
1.225
1.225
1.225
1.225
1.225
1.225
1.225
1.225
1.225
1.225
1.225
1.225
1.225
1.225
1.225
1.225
1.225
1.225
1.225
1.225
1.225
1.225
1.225
1.225
1.225
1.225
1.225
1.225
1.225
1.225
1.225
1.225
1.225
1.225
1.225
1.225
1.225
1.225
1.225
1.225
1.225
1.225
1.225
1.225
1.225
1.225
1.225
1.225
1.225
1.225
1.225
1.225
1.225
1.225
1.225
1.225
1.225
1.225
1.225
1.225
1.225
1.225
1.225
1.225
1.225
1.225
1.225
1.225
1.225
1.225
1.225
1.225
1.225
1.225
1.225
1.225
1.225
1.225
1.225
1.225
1.225
1.225
1.225
1.225
1.225
1.225
1.225
1.225
1.225
1.225
1.225
1.2254
1.225
1.22508
1.22699
1.22522
1.25404
1.24347
1.36986
1.22806
1.22778
1.22628
1.22579
1.22502
1.23633
1.22529
1.22522
1.22502
1.22661
1.22512
1.22525
1.225
1.225
1.225
1.225
1.225
1.22501
1.225
1.22506
1.225
1.225
1.225
1.225
1.225
1.225
1.225
1.225
1.225
1.23186
1.22501
1.225
1.225
1.225
1.22503
1.225
1.225
1.22515
1.22787
1.22539
1.22612
1.24589
1.22559
1.22838
1.22706
1.23729
1.22528
1.225
1.225
1.225
1.225
1.225
1.225
1.225
1.225
1.225
1.225
1.225
1.225
1.225
1.225
1.225
1.225
1.22514
1.22501
1.22501
1.225
1.22504
1.22501
1.225
1.225
1.22509
1.225
1.225
1.225
1.225