# vtk DataFile Version 2.0
sampleSurface
ASCII
DATASET POLYDATA
POINTS 2690 float
-5 -5 0 -5 -4.6 0 -4.6 -4.6 0 -4.6 -5
0 -5 -4.2 0 -4.6 -4.2 0 -5 -3.8 0
-4.6 -3.8 0 -5 -3.4 0 -4.6 -3.4 0 -5
-3 0 -4.6 -3 0 -5 -2.6 0 -4.6 -2.6
0 -5 -2.2 0 -4.6 -2.2 0 -5 -1.8 0
-4.6 -1.8 0 -5 -1.4 0 -4.6 -1.4 0 -5
-1 0 -4.6 -1 0 -5 -0.6 0 -4.6 -0.6
0 -5 -0.2 0 -4.6 -0.2 0 -5 0.2 0
-4.6 0.2 0 -5 0.6 0 -4.6 0.6 0 -5
1 0 -4.6 1 0 -5 1.4 0 -4.6 1.4
0 -5 1.8 0 -4.6 1.8 0 -5 2.2 0
-4.6 2.2 0 -4.6 2 0 -5 2.6 0 -4.6
2.6 0 -4.6 2.4 0 -5 3 0 -4.6 3
0 -4.6 2.8 0 -5 3.4 0 -4.6 3.4 0
-4.6 3.2 0 -5 3.8 0 -4.6 3.8 0 -4.6
3.6 0 -5 4.2 0 -4.6 4.2 0 -5 4.6
0 -4.6 4.6 0 -5 5 0 -4.6 5 0
-4.2 -4.6 0 -4.2 -5 0 -4.2 -4.2 0 -4.2
-3.8 0 -4.2 -3.4 0 -4.2 -3 0 -4.2 -2.6
0 -4.2 -2.2 0 -4.2 -1.8 0 -4.2 -1.4 0
-4.2 -1 0 -4.2 -0.6 0 -4.2 -0.2 0 -4.2
0.2 0 -4.2 0.6 0 -4.2 1 0 -4.2 1.4
0 -4.4 1.8 0 -4.2 1.8 0 -4.4 2 0
-4.4 2.4 0 -4.4 2.2 0 -4.4 2.8 0 -4.4
2.6 0 -4.4 3.2 0 -4.4 3 0 -4.4 3.6
0 -4.4 3.4 0 -4.2 4.2 0 -4.2 3.8 0
-4.4 3.8 0 -4.2 4.6 0 -4.2 5 0 -3.8
-4.6 0 -3.8 -5 0 -3.8 -4.2 0 -3.8 -3.8
0 -3.8 -3.4 0 -3.8 -3 0 -3.8 -2.6 0
-3.8 -2.2 0 -3.8 -1.8 0 -3.8 -1.4 0 -3.8
-1 0 -3.8 -0.6 0 -3.8 -0.2 0 -3.8 0.2
0 -3.8 0.6 0 -3.8 1 0 -3.8 1.4 0
-4 1.8 0 -3.8 1.8 0 -4.2 2 0 -4
2 0 -4.2 2.2 0 -4.2 2.3 0 -4.1 2.3
0 -4.1 2.2 0 -4.2 2.6 0 -4.2 2.7 0
-4.1 2.7 0 -4.1 2.6 0 -4.2 3 0 -4.2
3.1 0 -4.1 3.1 0 -4.1 3 0 -4.2 3.4
0 -4.2 3.6 0 -4 3.6 0 -4 3.4 0
-4.1 3.4 0 -3.8 4.2 0 -3.8 3.8 0 -4
3.8 0 -3.8 4.6 0 -3.8 5 0 -3.4 -4.6
0 -3.4 -5 0 -3.4 -4.2 0 -3.4 -3.8 0
-3.4 -3.4 0 -3.4 -3 0 -3.4 -2.6 0 -3.4
-2.2 0 -3.4 -1.8 0 -3.4 -1.4 0 -3.4 -1
0 -3.4 -0.6 0 -3.4 -0.2 0 -3.4 0.2 0
-3.4 0.6 0 -3.4 1 0 -3.4 1.4 0 -3.6
1.8 0 -3.4 1.8 0 -3.8 2 0 -3.6 2
0 -3.8 2.2 0 -3.8 2.3 0 -3.7 2.3 0
-3.7 2.2 0 -3.8 3.4 0 -3.8 3.6 0 -3.6
3.6 0 -3.6 3.4 0 -3.7 3.4 0 -3.4 4.2
0 -3.4 3.8 0 -3.6 3.8 0 -3.4 4.6 0
-3.4 5 0 -3 -4.6 0 -3 -5 0 -3
-4.2 0 -3 -3.8 0 -3 -3.4 0 -3 -3
0 -3 -2.6 0 -3 -2.2 0 -3 -1.8 0
-3 -1.4 0 -3 -1 0 -3 -0.6 0 -3
-0.2 0 -3 0.2 0 -3 0.6 0 -3 1
0 -3 1.4 0 -3.2 1.8 0 -3 1.8 0
-3.4 2 0 -3.2 2 0 -3.4 2.2 0 -3.4
2.3 0 -3.3 2.3 0 -3.3 2.2 0 -3.4 3.4
0 -3.4 3.6 0 -3.2 3.6 0 -3.2 3.4 0
-3.3 3.4 0 -3 4.2 0 -3 3.8 0 -3.2
3.8 0 -3 4.6 0 -3 5 0 -2.6 -4.6
0 -2.6 -5 0 -2.6 -4.2 0 -2.6 -3.8 0
-2.6 -3.4 0 -2.6 -3 0 -2.6 -2.6 0 -2.6
-2.2 0 -2.6 -1.8 0 -2.6 -1.4 0 -2.6 -1
0 -2.6 -0.6 0 -2.6 -0.2 0 -2.6 0.2 0
-2.6 0.6 0 -2.6 1 0 -2.6 1.4 0 -2.8
1.8 0 -2.6 1.8 0 -3 2 0 -2.8 2
0 -3 2.2 0 -3 2.3 0 -2.9 2.3 0
-2.9 2.2 0 -3 3.4 0 -3 3.6 0 -2.8
3.6 0 -2.8 3.4 0 -2.9 3.4 0 -2.6 4.2
0 -2.6 3.8 0 -2.8 3.8 0 -2.6 4.6 0
-2.6 5 0 -2.2 -4.6 0 -2.2 -5 0 -2.2
-4.2 0 -2.2 -3.8 0 -2.2 -3.4 0 -2.2 -3
0 -2.2 -2.6 0 -2.2 -2.2 0 -2.2 -1.8 0
-2.2 -1.4 0 -2.2 -1 0 -2.2 -0.6 0 -2.2
-0.2 0 -2.2 0.2 0 -2.2 0.6 0 -2.2 1
0 -2.2 1.4 0 -2.4 1.8 0 -2.2 1.8 0
-2.6 2 0 -2.4 2 0 -2.6 2.2 0 -2.6
2.3 0 -2.5 2.3 0 -2.5 2.2 0 -2.6 3.4
0 -2.6 3.6 0 -2.4 3.6 0 -2.4 3.4 0
-2.5 3.4 0 -2.2 4.2 0 -2.2 3.8 0 -2.4
3.8 0 -2.2 4.6 0 -2.2 5 0 -1.8 -4.6
0 -1.8 -5 0 -1.8 -4.2 0 -1.8 -3.8 0
-1.8 -3.4 0 -1.8 -3 0 -1.8 -2.6 0 -1.8
-2.2 0 -1.8 -1.8 0 -1.8 -1.4 0 -1.8 -1
0 -1.8 -0.6 0 -1.8 -0.2 0 -1.8 0.2 0
-1.8 0.6 0 -1.8 1 0 -1.8 1.4 0 -2
1.8 0 -1.8 1.8 0 -2.2 2 0 -2 2
0 -2.2 2.2 0 -2.2 2.3 0 -2.1 2.3 0
-2.1 2.2 0 -2.2 3.4 0 -2.2 3.6 0 -2
3.6 0 -2 3.4 0 -2.1 3.4 0 -1.8 4.2
0 -1.8 3.8 0 -2 3.8 0 -1.8 4.6 0
-1.8 5 0 -1.4 -4.6 0 -1.4 -5 0 -1.4
-4.2 0 -1.4 -3.8 0 -1.4 -3.4 0 -1.4 -3
0 -1.4 -2.6 0 -1.4 -2.2 0 -1.4 -1.8 0
-1.4 -1.4 0 -1.4 -1 0 -1.4 -0.6 0 -1.4
-0.2 0 -1.4 0.2 0 -1.4 0.6 0 -1.4 1
0 -1.4 1.4 0 -1.6 1.8 0 -1.4 1.8 0
-1.8 2 0 -1.6 2 0 -1.8 2.2 0 -1.8
2.3 0 -1.8 2.4 0 -1.7 2.4 0 -1.6 2.4
0 -1.6 2.2 0 -1.8 2.6 0 -1.8 2.7 0
-1.7 2.7 0 -1.7 2.6 0 -1.8 3 0 -1.8
3.1 0 -1.7 3.1 0 -1.7 3 0 -1.8 3.4
0 -1.8 3.6 0 -1.6 3.6 0 -1.6 3.4 0
-1.4 4.2 0 -1.4 3.8 0 -1.6 3.8 0 -1.4
4.6 0 -1.4 5 0 -1 -4.6 0 -1 -5
0 -1 -4.2 0 -1 -3.8 0 -1 -3.4 0
-1 -3 0 -1 -2.6 0 -1 -2.2 0 -1
-1.8 0 -1 -1.4 0 -1 -1 0 -1 -0.6
0 -1 -0.2 0 -1 0.2 0 -1 0.6 0
-1 1 0 -1 1.4 0 -1 1.8 0 -1.4
2 0 -1.4 2.2 0 -1.2 2.2 0 -1 2.2
0 -1.4 2.4 0 -1.2 2.4 0 -1.4 2.6 0
-1.4 2.8 0 -1.2 2.8 0 -1.2 2.6 0 -1.4
3 0 -1.4 3.2 0 -1.2 3.2 0 -1.2 3
0 -1.4 3.4 0 -1.4 3.6 0 -1.2 3.6 0
-1.2 3.4 0 -1 4.2 0 -1 4 0 -1
3.8 0 -1.2 3.8 0 -1 4.6 0 -1 5
0 -0.6 -4.6 0 -0.6 -5 0 -0.6 -4.2 0
-0.6 -3.8 0 -0.6 -3.4 0 -0.6 -3 0 -0.6
-2.6 0 -0.6 -2.2 0 -0.6 -1.8 0 -0.6 -1.4
0 -0.6 -1 0 -0.6 -0.6 0 -0.6 -0.2 0
-0.6 0.2 0 -0.6 0.6 0 -0.6 1 0 -0.6
1.4 0 -0.6 1.8 0 -0.6 2.2 0 -1 2.4
0 -1 2.6 0 -0.8 2.6 0 -0.6 2.6 0
-0.6 2.4 0 -1 2.8 0 -0.8 2.8 0 -1
3 0 -1 3.2 0 -0.8 3.2 0 -0.8 3.1
0 -0.8 3 0 -1 3.4 0 -1 3.6 0
-0.8 3.6 0 -0.8 3.5 0 -0.8 3.4 0 -0.8
4 0 -0.8 3.8 0 -0.6 4.6 0 -0.6 4.2
0 -0.8 4.2 0 -0.6 5 0 -0.2 -4.6 0
-0.2 -5 0 -0.2 -4.2 0 -0.2 -3.8 0 -0.2
-3.4 0 -0.2 -3 0 -0.2 -2.6 0 -0.2 -2.2
0 -0.2 -1.8 0 -0.2 -1.4 0 -0.2 -1 0
-0.2 -0.6 0 -0.2 -0.2 0 -0.2 0.2 0 -0.2
0.6 0 -0.2 1 0 -0.2 1.4 0 -0.2 1.8
0 -0.4 2.2 0 -0.2 2.2 0 -0.4 2.4 0
-0.6 2.8 0 -0.5 2.8 0 -0.4 2.8 0 -0.4
2.6 0 -0.6 3 0 -0.6 3.1 0 -0.5 3.1
0 -0.5 3 0 -0.6 3.4 0 -0.6 3.5 0
-0.5 3.5 0 -0.5 3.4 0 -0.6 3.8 0 -0.6
4 0 -0.4 4 0 -0.4 3.8 0 -0.5 3.8
0 -0.2 4.6 0 -0.2 4.2 0 -0.4 4.2 0
-0.2 5 0 0.2 -4.6 0 0.2 -5 0 0.2
-4.2 0 0.2 -3.8 0 0.2 -3.4 0 0.2 -3
0 0.2 -2.6 0 0.2 -2.2 0 0.2 -1.8 0
0.2 -1.4 0 0.2 -1 0 0.2 -0.6 0 0.2
-0.2 0 0.2 0.2 0 0.2 0.6 0 0.2 1
0 0.2 1.4 0 0.2 1.2 0 0.2 1.8 0
0.2 1.6 0 0 2.2 0 0.2 2.2 0 -0.2
2.4 0 -7.22801e-18 2.4 0 -0.2 2.6 0 -0.2 2.8
0 -0.1 2.8 0 0 2.8 0 0 2.6 0
-0.2 3.8 0 -0.2 4 0 0 4 0 0
3.8 0 -0.1 3.8 0 0.2 4.6 0 0.2 4.2
0 0 4.2 0 0.2 5 0 0.6 -4.6 0
0.6 -5 0 0.6 -4.2 0 0.6 -3.8 0 0.6
-3.4 0 0.6 -3 0 0.6 -2.6 0 0.6 -2.2
0 0.6 -1.8 0 0.6 -1.4 0 0.6 -1 0
0.6 -0.6 0 0.6 -0.2 0 0.6 0.2 0 0.6
0.6 0 0.6 0.4 0 0.4 1 0 0.6 1
0 0.6 0.8 0 0.4 1.2 0 0.4 1.6 0
0.4 1.4 0 0.4 2.2 0 0.6 2.2 0 0.6
2 0 0.6 1.8 0 0.4 1.8 0 0.2 2.4
0 0.4 2.4 0 0.2 2.6 0 0.2 2.8 0
0.3 2.8 0 0.4 2.8 0 0.4 2.6 0 0.2
3.8 0 0.2 4 0 0.4 4 0 0.4 3.8
0 0.3 3.8 0 0.6 4.6 0 0.6 4.2 0
0.4 4.2 0 0.6 5 0 1 -4.6 0 1
-5 0 1 -4.2 0 1 -3.8 0 1 -3.4
0 1 -3 0 1 -2.6 0 1 -2.2 0
1 -1.8 0 1 -1.4 0 1 -1 0 1
-0.6 0 1 -0.2 0 0.8 0.2 0 1 0.2
0 1 0 0 0.8 0.4 0 0.8 0.8 0
0.8 0.7 0 0.8 0.6 0 0.6 1.2 0 0.7
1.2 0 0.8 1.2 0 0.8 1.1 0 0.8 1
0 0.6 1.4 0 0.6 1.5 0 0.7 1.5 0
0.7 1.4 0 0.8 2 0 0.8 1.9 0 0.8
1.8 0 0.7 1.8 0 0.6 2.4 0 0.8 2.4
0 0.8 2.3 0 0.8 2.2 0 0.6 2.6 0
0.6 2.8 0 0.7 2.8 0 0.8 2.8 0 0.8
2.6 0 0.6 3.8 0 0.6 4 0 0.8 4
0 0.8 3.8 0 0.7 3.8 0 1 4.6 0
1 4.2 0 0.8 4.2 0 1 5 0 1.4
-4.6 0 1.4 -5 0 1.4 -4.2 0 1.4 -3.8
0 1.4 -3.4 0 1.4 -3 0 1.4 -2.6 0
1.4 -2.2 0 1.4 -1.8 0 1.4 -1.4 0 1.4
-1 0 1.4 -0.6 0 1.2 -0.2 0 1.4 -0.2
0 1.4 -0.4 0 1.2 7.22801e-18 0 1 0.3 0
1.1 0.3 0 1.1 0.2 0 1 0.6 0 1
0.7 0 1.1 0.7 0 1.1 0.6 0 1 1
0 1 1.1 0 1.1 1.1 0 1.1 1 0
1 1.4 0 1 1.5 0 1.1 1.5 0 1.1
1.4 0 1 1.8 0 1 1.9 0 1.1 1.9
0 1.1 1.8 0 1 2.2 0 1 2.3 0
1.1 2.3 0 1.1 2.2 0 1 2.6 0 1
2.7 0 1.1 2.7 0 1.1 2.6 0 1 3.8
0 1 4 0 1.2 4 0 1.2 3.8 0
1.1 3.8 0 1.4 4.6 0 1.4 4.2 0 1.2
4.2 0 1.4 5 0 1.8 -4.6 0 1.8 -5
0 1.8 -4.2 0 1.8 -3.8 0 1.8 -3.4 0
1.8 -3 0 1.8 -2.6 0 1.8 -2.2 0 1.8
-1.8 0 1.8 -1.4 0 1.8 -1 0 1.6 -0.6
0 1.8 -0.6 0 1.8 -0.8 0 1.6 -0.4 0
1.4 -0.1 0 1.5 -0.1 0 1.5 -0.2 0 1.4
0.2 0 1.4 0.3 0 1.5 0.3 0 1.5 0.2
0 1.4 0.6 0 1.4 0.7 0 1.5 0.7 0
1.5 0.6 0 1.4 1 0 1.4 1.1 0 1.5
1.1 0 1.5 1 0 1.4 1.4 0 1.4 1.5
0 1.5 1.5 0 1.5 1.4 0 1.4 1.8 0
1.4 1.9 0 1.5 1.9 0 1.5 1.8 0 1.4
2.2 0 1.4 2.3 0 1.5 2.3 0 1.5 2.2
0 1.4 2.6 0 1.4 2.7 0 1.5 2.7 0
1.5 2.6 0 1.4 3.8 0 1.4 4 0 1.6
4 0 1.6 3.8 0 1.5 3.8 0 1.8 4.6
0 1.8 4.2 0 1.6 4.2 0 1.8 5 0
2.2 -4.6 0 2.2 -5 0 2.2 -4.2 0 2.2
-3.8 0 2.2 -3.4 0 2.2 -3 0 2.2 -2.6
0 2.2 -2.2 0 2.2 -1.8 0 2.2 -1.4 0
2 -1 0 2.2 -1 0 2 -0.8 0 1.8
-0.5 0 1.9 -0.5 0 1.9 -0.6 0 1.8 -0.2
0 1.8 -0.1 0 1.9 -0.1 0 1.9 -0.2 0
1.8 0.2 0 1.8 0.3 0 1.9 0.3 0 1.9
0.2 0 1.8 0.6 0 1.8 0.7 0 1.9 0.7
0 1.9 0.6 0 1.8 1 0 1.8 1.1 0
1.9 1.1 0 1.9 1 0 1.8 1.4 0 1.8
1.5 0 1.9 1.5 0 1.9 1.4 0 1.8 1.8
0 1.8 1.9 0 1.9 1.9 0 1.9 1.8 0
1.8 2.2 0 1.8 2.3 0 1.9 2.3 0 1.9
2.2 0 1.8 2.6 0 1.8 2.7 0 1.9 2.7
0 1.9 2.6 0 1.8 3.8 0 1.8 4 0
2 4 0 2 3.8 0 1.9 3.8 0 2.2
4.6 0 2.2 4.2 0 2 4.2 0 2.2 5
0 2.6 -4.6 0 2.6 -5 0 2.6 -4.2 0
2.6 -3.8 0 2.6 -3.4 0 2.6 -3 0 2.6
-2.6 0 2.6 -2.2 0 2.6 -1.8 0 2.6 -1.4
0 2.4 -1 0 2.6 -1 0 2.2 -0.8 0
2.3 -0.8 0 2.4 -0.8 0 2.2 -0.6 0 2.2
-0.5 0 2.3 -0.5 0 2.3 -0.6 0 2.2 -0.2
0 2.2 -0.1 0 2.3 -0.1 0 2.3 -0.2 0
2.2 0.2 0 2.2 0.3 0 2.3 0.3 0 2.3
0.2 0 2.2 0.6 0 2.2 0.7 0 2.3 0.7
0 2.3 0.6 0 2.2 1 0 2.2 1.1 0
2.3 1.1 0 2.3 1 0 2.2 1.4 0 2.2
1.5 0 2.3 1.5 0 2.3 1.4 0 2.2 1.8
0 2.2 1.9 0 2.3 1.9 0 2.3 1.8 0
2.2 2.2 0 2.2 2.3 0 2.3 2.3 0 2.3
2.2 0 2.2 2.6 0 2.2 2.7 0 2.3 2.7
0 2.3 2.6 0 2.2 3 0 2.2 3.1 0
2.3 3.1 0 2.3 3 0 2.2 3.4 0 2.2
3.5 0 2.3 3.5 0 2.3 3.4 0 2.2 3.8
0 2.2 4 0 2.4 4 0 2.4 3.8 0
2.3 3.8 0 2.6 4.6 0 2.6 4.2 0 2.4
4.2 0 2.6 5 0 3 -4.6 0 3 -5
0 3 -4.2 0 3 -3.8 0 3 -3.4 0
3 -3 0 3 -2.6 0 3 -2.2 0 3
-1.8 0 3 -1.4 0 2.8 -1 0 3 -1
0 2.6 -0.8 0 2.7 -0.8 0 2.8 -0.8 0
2.6 -0.6 0 2.6 -0.5 0 2.7 -0.5 0 2.7
-0.6 0 2.6 -0.2 0 2.6 -0.1 0 2.7 -0.1
0 2.7 -0.2 0 2.6 0.2 0 2.6 0.3 0
2.7 0.3 0 2.7 0.2 0 2.6 0.6 0 2.6
0.7 0 2.7 0.7 0 2.7 0.6 0 2.6 1
0 2.6 1.1 0 2.7 1.1 0 2.7 1 0
2.6 1.4 0 2.6 1.5 0 2.7 1.5 0 2.7
1.4 0 2.6 1.8 0 2.6 1.9 0 2.7 1.9
0 2.7 1.8 0 2.6 2.2 0 2.6 2.3 0
2.7 2.3 0 2.7 2.2 0 2.6 2.6 0 2.6
2.7 0 2.7 2.7 0 2.7 2.6 0 2.6 3
0 2.6 3.1 0 2.7 3.1 0 2.7 3 0
2.6 3.4 0 2.6 3.5 0 2.7 3.5 0 2.7
3.4 0 2.6 3.8 0 2.6 4 0 2.8 4
0 2.8 3.8 0 2.7 3.8 0 3 4.6 0
3 4.2 0 2.8 4.2 0 3 5 0 3.4
-4.6 0 3.4 -5 0 3.4 -4.2 0 3.4 -3.8
0 3.4 -3.4 0 3.4 -3 0 3.4 -2.6 0
3.4 -2.2 0 3.4 -1.8 0 3.4 -1.4 0 3.2
-1 0 3.4 -1 0 3 -0.8 0 3.1 -0.8
0 3.2 -0.8 0 3 -0.6 0 3 -0.5 0
3.1 -0.5 0 3.1 -0.6 0 3 -0.2 0 3
-0.1 0 3.1 -0.1 0 3.1 -0.2 0 3 0.2
0 3 0.3 0 3.1 0.3 0 3.1 0.2 0
3 0.6 0 3 0.7 0 3.1 0.7 0 3.1
0.6 0 3 1 0 3 1.1 0 3.1 1.1
0 3.1 1 0 3 1.4 0 3 1.45 0
3.05 1.45 0 3.05 1.4 0 3 1.8 0 3
1.85 0 3.05 1.85 0 3.05 1.8 0 3 3
0 3 3.1 0 3.1 3.1 0 3.1 3 0
3 3.4 0 3 3.5 0 3.1 3.5 0 3.1
3.4 0 3 3.8 0 3 4 0 3.4 4.2
0 3.4 3.8 0 3.2 3.8 0 3.4 4.6 0
3.4 5 0 3.8 -4.6 0 3.8 -5 0 3.8
-4.2 0 3.8 -3.8 0 3.8 -3.4 0 3.8 -3
0 3.8 -2.6 0 3.8 -2.2 0 3.8 -1.8 0
[...]
CELL_DATA 2440
FIELD attributes 1
p 1 2440 float
101298 101298 101298 101298 101298 101298 101298 101298 101298 101298 101298
101298 101298 101298 101298 101298 101298 101298 101298 101298 101298
101298 101298 101298 101298 101298 101298 101298 101298 101298 101298
101298 101298 101298 101298 101298 101298 101298 101298 101298 101298
101298 101298 101298 101298 101298 101298 101298 101298 101298 101298
101298 101298 101298 101298 101298 101298 101298 101298 101298 101298
101298 101298 101298 101298 101298 101298 101298 101298 101298 101298
101298 101298 101298 101298 101298 101298 101298 101298 101298 101298
101298 101298 101298 101298 101298 101298 101298 101298 101298 101298
101298 101298 101298 101298 101298 101298 101298 101298 101298 101298
101298 101298 101298 101298 101298 101298 101298 101298 101298 101298
101298 101298 101298 101298 101298 101298 101298 101298 101298 101298
101298 101298 101298 101298 101298 101298 101298 101298 101298 101298
101298 101298 101298 101298 101298 101298 101298 101298 101298 101298
101298 101298 101298 101298 101298 101298 101298 101298 101298 101298
101298 101298 101298 101298 101298 101298 101298 101298 101298 101298
101298 101298 101298 101298 101298 101298 101298 101298 101298 101298
101298 101298 101298 101298 101298 101298 101298 101298 101298 101298
101298 101298 101298 101298 101298 101298 101298 101298 101298 101298
101298 101298 101298 101298 101298 101298 101298 101298 101298 101298
101298 101298 101298 101298 101298 101298 101298 101298 101298 101298
101298 101298 101298 101298 101298 101298 101298 101298 101298 101298
101298 101298 101298 101298 101298 101298 101298 101298 101298 101298
101298 101298 101298 101298 101298 101298 101298 101298 101298 101298
101298 101298 101298 101298 101298 101298 101298 101298 101298 101298
101298 101298 101298 101298 101298 101298 101298 101298 101298 101298
101298 101298 101298 101298 101298 101298 101298 101298 101298 101298
101298 101298 101298 101298 101298 101298 101298 101298 101298 101298
101298 101298 101298 101298 101298 101298 101298 101298 101298 101298
101298 101298 101298 101298 101298 101298 101298 101298 101298 101298
101298 101298 101298 101298 101298 101298 101298 101298 101298 101298
101298 101298 101298 101298 101298 101298 101298 101298 101298 101298
101298 101298 101298 101298 101298 101298 101298 101298 101298 101298
101298 101298 101298 101298 101298 101298 101298 101298 101298 101298
101298 101298 101298 101298 101298 101298 101298 101298 101298 101298
101298 101298 101298 101298 101298 101298 101298 101298 101298 101298
101298 101298 101298 101298 101298 101298 101298 101298 101298 101298
101298 101298 101309 107648 138616 116164 101724 101298 101298 101298
101298 101298 101298 101298 101298 101298 101298 101298 101298 101298
101298 101298 101298 101298 103771 3.14128e+06 3.04968e+06 2.83648e+06 2.89566e+06 3.23718e+06
1.86126e+06 101298 101298 101298 101298 101298 101298 101298 101298 101298
101298 101298 101298 101298 101298 101298 102285 3.71257e+06 2.29888e+06 1.50391e+06
1.36951e+06 1.47244e+06 2.12074e+06 2.69603e+06 101298 101298 101298 101298 101298 101298
101298 101298 101298 101298 101298 101298 101298 101298 101299 2.2577e+06
2.41544e+06 1.23984e+06 1.25314e+06 1.34682e+06 1.41876e+06 2.18054e+06 1.54063e+06 2.54896e+06 184657 101298
101298 101298 101298 101298 101298 101298 101298 101298 101298 101298
101298 101298 101298 101548 3.04136e+06 1.58173e+06 1.2309e+06 1.54062e+06 1.64388e+06 2.78266e+06
1.9072e+06 786860 1.58927e+06 209944 101298 101298 101298 101298 101298 101298
101298 101298 101298 101298 101298 101298 101298 101298 102762 2.87532e+06
1.33495e+06 1.27247e+06 1.58635e+06 1.75463e+06 4.08742e+06 688397 101309 101298 101298 101298
101298 101298 101298 101298 101298 101298 101298 101298 101298 101298
101298 101900 2.90641e+06 1.3763e+06 1.17554e+06 1.44265e+06 1.47877e+06 6.5855e+06 101301 101298
101298 101298 101298 101298 101298 101298 101298 101298 101298 101298
101298 101298 101298 101298 101305 2.5969e+06 1.99502e+06 1.05749e+06 1.20011e+06 1.28105e+06
6.64268e+06 101298 101298 101298 101298 101298 101298 101298 101298 101298
101298 101298 101298 101298 101298 101298 101298 101298 119333 3.09212e+06
1.76364e+06 1.15705e+06 1.04137e+06 5.79306e+06 101298 101298 101298 101298 101298 101298
101298 101298 101298 101298 101298 101298 101298 101298 101298 101298
101298 101298 212942 3.22611e+06 2.47897e+06 2.34199e+06 4.37928e+06 1.16763e+06 238813 101298
101298 101298 101298 101298 101298 101298 101298 101298 101298 101298
101298 101298 101298 101298 101298 101298 101298 101298 101298 101298
101298 101298 101298 101298 101298 101298 101298 101298 101298 101298
101298 101298 101298 101298 101298 101298 101298 101298 101298 101298
101298 101298 101298 101298 101298 101298 101298 101298 101298 101298
101298 101298 101298 101298 101298 101298 101298 101298 101298 101298
101298 101298 101298 101298 101298 101298 101298 101298 101298 101298
101298 101298 101298 101298 101298 101298 101298 101298 101298 101298
101298 101298 101298 101298 101298 101298 101298 101311 238293 101298
101298 101298 101298 101298 102383 5.03152e+06 3.09683e+06 101298 101298 101298
101298 101298 821560 2.85692e+06 101298 101298 119580 801508 6.32872e+06 693584
101737 6.78173e+06 101315 101298 5.97206e+06 101298 101298 849111 708948 101298
101298 101298 101298 101298 101298 101298 101298 101298 101298 101298
101298 101298 101298 101298 101298 101298 101298 101298 101298 101298
101298 101298 101298 101298 101298 101298 101298 101298 101298 101298
101298 101298 101298 101298 101298 101298 101298 101298 101298 101298
101298 101298 101298 101298 101298 101298 101298 101298 101298 101298
101298 101298 101298 101298 6.13661e+06 2.48372e+06 1.80686e+06 3.84304e+06 5.46818e+06 101300
101473 2.92145e+06 4.44115e+06 1.2827e+06 771664 237376 176372 101343 101300 101298
101298 1.23574e+06 4.6482e+06 232837 149121 101298 101301 215198 1.12022e+06 206202
2.92813e+06 101298 101298 101298 101298 101298 101298 101298 101298 101298
101298 101298 101298 101298 101298 101298 101298 101298 101298 101298
101298 101298 101298 101298 101298 101298 101298 101298 101298 101298
101298 101298 101298 101298 101298 101298 101298 101298 101298 101298
101298 101298 101298 101298 101298 101298 101298 101298 101298 101298
101298 101298 101298 101298 101298 101298 101298 101298 101298 101298
101298 101298 101298 101298 101298 101298 101298 101298 101298 101298
101298 101298 101298 101298 101298 101298 101298 101298 101298 101298
101298 101298 101298 101298 101298 101298 101298 101298 101298 101298
101298 101298 101298 101298 101298 101298 101298 101298 101298 101298
101298 101298 101298 101298 101298 101298 101298 101298 101298 101298
101298 101694 101303 101298 101298 101298 101298 101298 101298 101298
194402 1.17238e+06 136275 3.92677e+06 3.18562e+06 1.92749e+06 101298 101298 101298 101298
101298 101298 116938 887739 354361 268035 920429 543539 1.17965e+07 1.06333e+07
1.33554e+07 1.29037e+07 111302 102035 1.29372e+07 1.33142e+07 1.13555e+07 1.22645e+07 101298 101298
9.24265e+06 1.03045e+07 7.17498e+06 8.13854e+06 101298 101299 294880 477856 1.15086e+06 797785
531414 347662 447603 740906 101298 101298 101298 101298 101298 101298
101298 101298 101298 101318 102155 120613 101298 101298 101298 101298
101298 101298 101298 101298 101298 101298 101298 101298 101298 101298
101298 3.57522e+06 2.91113e+06 3.57624e+06 9.17029e+06 5.92513e+06 2.22295e+06 264868 336297 158369
745265 4.194e+06 6.06414e+06 101298 101298 101298 101298 101298 101298 101298
101298 101298 101298 101298 101298 101298 101298 101298 101298 101298
101298 101298 101298 101298 101298 101298 101298 101298 101298 101298
101298 101298 101298 101298 101298 101298 101298 101298 101304 101301
825880 2.72063e+06 2.78267e+06 2.83251e+06 2.37373e+06 2.51123e+06 1.77662e+06 2.02499e+06 2.23899e+06 3.01456e+06
2.3372e+06 1.53751e+06 973056 2.17894e+06 2.18696e+06 1.48276e+06 942682 1.41964e+06 1.62548e+06 1.81293e+06
101298 101299 327277 1.92215e+06 2.03575e+06 1.59233e+06 1.3355e+06 968679 1.47407e+06 839334
593180 522089 1.23053e+06 111558 1.19156e+06 2.28868e+06 2.8063e+06 1.44843e+06 7.42808e+06 8.31855e+06
5.12299e+06 101718 101298 101387 2.9147e+06 3.1921e+06 1.35426e+06 9.76078e+06 9.72782e+06 6.76838e+06
101298 101298 101298 3.31123e+06 3.68295e+06 1.05571e+06 8.69176e+06 8.11161e+06 6.40902e+06 101298
101298 101298 3.91489e+06 4.60019e+06 1.72562e+06 6.15817e+06 5.36147e+06 5.58377e+06 101298 101298
101298 1.52158e+06 2.84563e+06 3.91511e+06 101300 101298 102763 101298 101298 101298
101298 101298 101298 2.67287e+06 1.92974e+06 266790 3.47439e+06 3.46127e+06 3.29285e+06 103417
101324 101534 529700 685724 997645 6.04105e+06 9.08805e+06 9.52236e+06 274881 246691
438729 102129 117109 112289 6.82114e+06 9.52512e+06 9.16345e+06 101299 101300 101337
101298 101298 101298 6.21381e+06 7.535e+06 6.83257e+06 101298 101298 101298 101298
101298 101298 101298 101298 101298 2.67506e+06 4.68534e+06 4.18103e+06 3.87216e+06 5.73814e+06
6.70721e+06 376810 539032 792772 2.21763e+06 2.80381e+06 1.00597e+06 101299 101332 101301
156691 103485 105166 101298 101298 101298 101298 101298 101298 101298
101298 101298 101298 101298 101298 1.34331e+06 1.72045e+06 1.59646e+06 1.66434e+06 1.67839e+06
1.61101e+06 1.57821e+06 1.59001e+06 1.66197e+06 1.65347e+06 1.53557e+06 1.48125e+06 1.43119e+06 1.40362e+06 1.59532e+06
6.4249e+06 6.45576e+06 4.14399e+06 1.51368e+06 1.36768e+06 1.26759e+06 1.46524e+06 1.48504e+06 1.4658e+06 1.42125e+06
1.62146e+06 2.1507e+06 1.65161e+06 1.56402e+06 1.45629e+06 2.76345e+06 1.44122e+06 1.40325e+06 1.65659e+06 1.46844e+06
2.54012e+06 1.57256e+06 1.39565e+06 1.5488e+06 4.61718e+06 6.93458e+06 7.38141e+06 1.58403e+06 1.51572e+06 1.67742e+06
2.07852e+06 1.62323e+06 1.57444e+06 2.19434e+06 1.64214e+06 1.68668e+06 3.01226e+06 1.75377e+06 1.73685e+06 1.68324e+06
1.69326e+06 1.69197e+06 1.55073e+06 1.57907e+06 1.64518e+06 1.53916e+06 1.55805e+06 1.55578e+06 1.42651e+06 1.46621e+06
1.47957e+06 1.40772e+06 1.43754e+06 1.41998e+06 1.63181e+06 1.46271e+06 1.43335e+06 1.53416e+06 1.75554e+06 1.56154e+06
1.54542e+06 1.64931e+06 1.55774e+06 1.88828e+06 1.7055e+06 2.36799e+06 1.4162e+06 1.46489e+06 1.53679e+06 1.44108e+06
1.42922e+06 1.39185e+06 1.72384e+06 1.92581e+06 1.53542e+06 1.43158e+06 1.45728e+06 1.60539e+06 1.39804e+06 1.39242e+06
1.40506e+06 1.48976e+06 1.424e+06 1.44233e+06 1.52613e+06 1.42392e+06 1.2074e+06 1.62298e+06 1.58679e+06 1.5642e+06
1.34187e+06 1.60578e+06 1.4784e+06 1.462e+06 1.54022e+06 1.27326e+06 1.51306e+06 1.54216e+06 1.51819e+06 1.48089e+06
1.47448e+06 1.51132e+06 1.69038e+06 1.68451e+06 1.64727e+06 1.60909e+06 1.6641e+06 1.65879e+06 1.41918e+06 1.44999e+06
1.38779e+06 4.08707e+06 4.82334e+06 3.28988e+06 1.38116e+06 1.21188e+06 1.06473e+06 1.48649e+06 1.44307e+06 1.39271e+06
1.70773e+06 1.7396e+06 3.09669e+06 1.51201e+06 1.43474e+06 1.44424e+06 1.29337e+06 1.07032e+06 1.07278e+06 1.52399e+06
1.4901e+06 1.54403e+06 1.35042e+06 1.38759e+06 1.4606e+06 1.52746e+06 1.47499e+06 1.57027e+06 1.35785e+06 1.4236e+06
1.43169e+06 1.60329e+06 1.6463e+06 1.58603e+06 1.58291e+06 1.5024e+06 1.52596e+06 1.44974e+06 1.43918e+06 1.53216e+06
1.19756e+06 1.14181e+06 1.33205e+06 1.31406e+06 1.24004e+06 1.20173e+06 3.42264e+06 1.62599e+06 1.6682e+06 1.35277e+06
1.345e+06 1.26486e+06 1.92613e+06 2.58581e+06 3.31915e+06 1.33251e+06 1.38637e+06 1.31975e+06 1.32893e+06 1.26075e+06
1.30835e+06 1.41553e+06 1.26092e+06 1.2658e+06 1.33684e+06 1.41995e+06 1.43878e+06 1.23425e+06 1.30628e+06 1.27524e+06
1.21157e+06 1.20218e+06 1.28314e+06 1.20808e+06 1.40524e+06 1.20291e+06 1.1788e+06 1.1987e+06 1.36164e+06 1.45051e+06
1.4086e+06 1.32725e+06 1.37251e+06 1.25914e+06 1.19544e+06 1.40691e+06 1.46155e+06 1.53865e+06 1.50635e+06 1.41441e+06
1.37586e+06 1.43631e+06 1.41404e+06 1.32243e+06 1.26631e+06 1.34626e+06 1.35482e+06 3.65003e+06 3.07158e+06 2.93936e+06
1.93981e+06 1.95595e+06 1.30671e+06 1.65965e+06 2.0339e+06 1.61439e+06 1.11639e+06 1.07857e+06 1.77207e+06 1.15353e+06
1.09723e+06 1.50044e+06 1.60707e+06 1.59836e+06 3.55799e+06 1.11917e+06 1.17057e+06 1.12945e+06 1.24005e+06 1.20037e+06
1.14007e+06 1.2475e+06 1.17056e+06 1.13002e+06 1.16366e+06 1.2117e+06 1.27068e+06 1.19072e+06 1.14755e+06 1.15234e+06
1.3303e+06 1.28334e+06 1.3431e+06 1.29204e+06 1.37794e+06 1.33098e+06 1.3008e+06 1.32823e+06 1.25255e+06 1.0615e+06
1.67287e+06 2.08693e+06 1.07713e+06 1.12236e+06 1.12873e+06 1.23058e+06 1.22863e+06 1.2615e+06 1.11245e+06 1.12701e+06
1.16469e+06 1.25289e+06 1.2247e+06 1.23614e+06 1.15925e+06 1.16504e+06 1.19465e+06 1.24312e+06 1.21392e+06 1.22481e+06
2.33322e+06 1.81436e+06 1.59646e+06 2.62486e+06 2.52524e+06 2.02599e+06 1.27504e+06 1.39389e+06 1.45041e+06 1.08765e+06
1.05248e+06 1.1051e+06 1.63787e+06 1.1742e+06 1.40003e+06 1.40747e+06 1.17568e+06 1.72907e+06 1.10279e+06 1.15879e+06
1.11118e+06 1.07432e+06 1.10053e+06 1.07288e+06 1.09185e+06 1.10048e+06 1.10154e+06 1.13934e+06 1.26134e+06 1.10535e+06
4.21338e+06 2.05135e+06 1.72044e+06 1.27924e+06 1.22449e+06 1.16766e+06 1.17275e+06 1.22295e+06 1.26694e+06 1.18743e+06
1.17433e+06 1.19307e+06 1.19953e+06 1.20304e+06 1.22119e+06 2.86142e+06 1.7009e+06 1.62569e+06 1.37174e+06 1.25159e+06
1.2524e+06 1.68249e+06 1.70056e+06 2.86577e+06 1.12645e+06 1.18011e+06 1.08648e+06 1.18084e+06 1.17479e+06 1.32569e+06
1.31789e+06 1.16029e+06 1.1575e+06 1.2774e+06 1.25642e+06 1.38733e+06 2.85004e+06 1.6391e+06 1.86745e+06 1.94669e+06
1.95039e+06 2.35792e+06 2.03007e+06 1.72329e+06 2.90167e+06 1.21391e+06 1.40811e+06 1.13486e+06 1.40622e+06 1.21746e+06
1.19572e+06 1.25062e+06 1.25035e+06 1.38757e+06 1.70418e+06 1.61501e+06 1.85484e+06 1.13632e+06 1.72528e+06 2.71817e+06
1.0586e+06 1.05211e+06 1.11958e+06 1.18439e+06 1.11983e+06 1.07446e+06 3.13043e+06 2.20241e+06 1.77516e+06 1.23786e+06
2.26309e+06 2.7984e+06 1.16686e+06 1.06407e+06 1.05563e+06 1.57807e+06 1.42567e+06 1.32034e+06 1.16595e+06 1.17099e+06
1.17271e+06 1.18013e+06 1.28667e+06 1.21958e+06 1.23065e+06 1.30948e+06 1.19281e+06 1.7769e+06 2.23124e+06 2.8454e+06
1.16942e+06 1.20493e+06 1.4585e+06 1.11384e+06 1.25212e+06 1.34877e+06 1.42712e+06 1.25973e+06 1.29153e+06 1.31008e+06
1.2525e+06 1.47682e+06 4.77784e+06 4.28793e+06 2.70055e+06 1.30209e+06 1.54936e+06 2.09684e+06 1.97216e+06 1.99803e+06
1.95666e+06 1.31791e+06 1.55271e+06 1.66138e+06 1.09817e+06 1.17028e+06 1.00263e+06 3.32116e+06 2.62616e+06 4.44213e+06
2.1921e+06 2.47632e+06 2.07811e+06 1.05677e+06 774603 1.00292e+06 5.13077e+06 4.35974e+06 3.60314e+06 1.82911e+06
1.61405e+06 1.74399e+06 1.7594e+06 1.39074e+06 1.30896e+06 1.27385e+06 1.51256e+06 1.31348e+06 2.6053e+06 1.63289e+06
2.67309e+06 1.58797e+06 1.27549e+06 1.40736e+06 1.2716e+06 1.12889e+06 1.30359e+06 1.64705e+06 1.43132e+06 1.24713e+06
1.2596e+06 1.45094e+06 1.66397e+06 1.65777e+06 2.09974e+06 2.14816e+06 2.06206e+06 2.06811e+06 1.62985e+06 1.66499e+06
2.14116e+06 2.16097e+06 2.18449e+06 2.1436e+06 1.66554e+06 1.48528e+06 1.66065e+06 1.37256e+06 3.17274e+06 2.03597e+06
2.71605e+06 2.77647e+06 2.20114e+06 3.04107e+06 1.36602e+06 1.50431e+06 1.82464e+06 1.92818e+06 1.54694e+06 1.40003e+06
1.67821e+06 2.13582e+06 2.08219e+06 2.20263e+06 2.27108e+06 1.79202e+06 1.65967e+06 1.51359e+06 1.91328e+06 2.22104e+06
2.32225e+06 1.88659e+06 2.26799e+06 2.09598e+06 1.99201e+06 1.64253e+06 1.38392e+06 1.29395e+06 1.81526e+06 1.98846e+06
2.00591e+06 2.35925e+06 2.2281e+06 1.75143e+06 1.89414e+06 2.36008e+06 2.25982e+06 2.00066e+06 3.16155e+06 1.56317e+06
1.18289e+06 1.36932e+06 1.68714e+06 1.8933e+06 2.36445e+06 2.4786e+06 1.99781e+06 1.74273e+06 1.48472e+06 2.40699e+06
3.13955e+06 378963 1.59777e+06 1.82685e+06 2.22621e+06 1.55725e+06 1.86089e+06 2.0845e+06 2.85597e+06 3.44741e+06
2.89503e+06 2.03257e+06 2.43887e+06 2.55947e+06 4.81605e+06 4.36181e+06 3.99179e+06 1.91421e+06 2.19001e+06 1.89867e+06
2.0491e+06 1.707e+06 1.94167e+06 1.99773e+06 1.75189e+06 2.16644e+06 2.59328e+06 1.71623e+06 164808 2.42174e+06
2.03223e+06 1.83417e+06 2.58053e+06 2.47117e+06 2.05045e+06 2.653e+06 2.59657e+06 2.2224e+06 135932 3.09601e+06
3.13474e+06 124283 3.07426e+06 3.09242e+06 2.83897e+06 2.53048e+06 2.52863e+06 1.93254e+06 1.78117e+06 1.34802e+06
3.26378e+06 3.17153e+06 4.27679e+06 2.06112e+06 2.19668e+06 1.91209e+06 1.20104e+06 1.64123e+06 1.09596e+06 2.58035e+06
2.5507e+06 2.849e+06 2.54886e+06 2.59831e+06 2.88943e+06 2.24604e+06 2.68716e+06 2.52044e+06 2.605e+06 2.73889e+06
2.39475e+06 102666 2.92267e+06 3.07518e+06 2.95162e+06 2.68446e+06 2.62488e+06 2.3376e+06 2.63257e+06 102516
2.6531e+06 2.57978e+06 102331 2.5439e+06 2.52908e+06 2.86041e+06 2.34662e+06 2.66335e+06 2.77246e+06 2.67777e+06
2.79802e+06 2.52768e+06 2.2352e+06 2.1703e+06 2.38993e+06 1.92067e+06 1.5902e+06 1.8506e+06 1.93131e+06 2.26137e+06
2.12922e+06 2.84825e+06 2.52511e+06 2.55422e+06 2.94284e+06 2.62723e+06 2.57635e+06 2.95576e+06 2.67556e+06 2.77227e+06
2.48553e+06 1.59004e+06 101328 2.60686e+06 2.67415e+06 2.94948e+06 2.03625e+06 2.34906e+06 2.12386e+06 2.37402e+06
2.69971e+06 2.33997e+06 2.45131e+06 2.99813e+06 3.39346e+06 3.28951e+06 3.0267e+06 1.37894e+06 2.78736e+06 2.69732e+06
2.99525e+06 2.45531e+06 2.07692e+06 2.37139e+06 2.46017e+06 2.24009e+06 2.57337e+06 2.20208e+06 2.5565e+06 2.96561e+06
2.97561e+06 2.58523e+06 2.2653e+06 2.56753e+06 2.9069e+06 2.70368e+06 2.9915e+06 2.56981e+06 2.33726e+06 1.21449e+06
1.95344e+06 1.77387e+06 2.1389e+06 2.48859e+06 2.86859e+06 2.83135e+06 2.75285e+06 3.02963e+06 3.37721e+06 3.90816e+06
3.15883e+06 3.0685e+06 2.85134e+06 2.4746e+06 2.58747e+06 2.89301e+06 3.12741e+06 103337 3.04437e+06 1.48316e+06
2.94717e+06 2.62207e+06 2.2861e+06 2.66664e+06 2.95204e+06 3.19702e+06 4.36474e+06 3.32992e+06 3.24062e+06 2.94569e+06
2.76809e+06 2.9048e+06 3.88754e+06 4.69886e+06 5.00986e+06 2.87695e+06 2.99552e+06 3.30948e+06 2.92014e+06 3.0905e+06
2.71758e+06 480928 2.06829e+06 101395 101299 101298 101536 335017 110364 181219
683463 1.78472e+06 2.17291e+06 2.9168e+06 2.71692e+06 2.60542e+06 2.37067e+06 3.04532e+06 3.11605e+06 2.95338e+06
3.06717e+06 2.9095e+06 3.2847e+06 3.09026e+06 2.93266e+06 3.38716e+06 237271 101298 2.69556e+06 3.07899e+06
3.42291e+06 3.11597e+06 2.51836e+06 2.58396e+06 3.0887e+06 2.53377e+06 2.45122e+06 2.59659e+06 2.56993e+06 3.09054e+06
3.36066e+06 2.95884e+06 3.36813e+06 3.27015e+06 106143 101298 2.43617e+06 2.67703e+06 1.81558e+06 381186
1.11032e+06 246739 3.0832e+06 3.07537e+06 2.27198e+06 3.40096e+06 3.10436e+06 2.72871e+06 3.22729e+06 3.19699e+06
2.78202e+06 2.33493e+06 2.15213e+06 3.0658e+06 2.66283e+06 1.36717e+06 1.34272e+06 1.20694e+06 1.32452e+06 2.63204e+06
3.37835e+06 3.69427e+06 3.42213e+06 3.43284e+06 3.48407e+06 3.4021e+06 3.35797e+06 3.18529e+06 3.4738e+06 992777
105415 101298 3.05668e+06 3.09192e+06 2.0981e+06 2.92767e+06 3.15652e+06 2.92715e+06 3.56217e+06 3.73243e+06
3.44156e+06 1.09033e+06 2.21987e+06 1.65749e+06 2.67537e+06 2.92499e+06 2.86736e+06 2.12018e+06 2.37831e+06 3.14259e+06
1.27667e+06 1.15211e+06 2.58556e+06 3.27931e+06 3.22998e+06 2.72797e+06 3.54244e+06 3.33345e+06 3.17779e+06 3.02288e+06
1.87953e+06 1.49219e+06 2.49687e+06 960353 714387 2.314e+06 738546 1.00484e+06 1.73782e+06 2.8432e+06
2.89212e+06 1.15637e+06 2.75032e+06 2.98863e+06 2.8209e+06 1.12167e+06 1.70453e+06 1.00824e+06 538038 2.33542e+06
237792 461455 2.0289e+06 457493 243359 1.64909e+06 2.96572e+06 1.28721e+06 2.66802e+06 101299
505349 101328 101347 1.89601e+06 101326 3.05549e+06 3.42561e+06 2.98229e+06 1.21939e+06 2.83357e+06
2.09226e+06 3.55062e+06 3.03954e+06 1.0942e+06 1.92124e+06 3.32478e+06 3.71714e+06 3.66723e+06 2.96281e+06 1.57489e+06
2.18739e+06 875520 2.71309e+06 101298 101806 101385 101298 101638 101850 136161
985680 1.01724e+06 643508 2.71684e+06 3.42752e+06 101310 164227 101298 1.35424e+06 2.26576e+06
527864 991057 880523 126925 827830 930241 131535 457199 2.33977e+06 3.04823e+06
101298 101318 101515 115800 685163 451134 109522 506211 679062 103336
101791 126305 101298 101298 101298 104892 102865 182390 1.47058e+06 2.31345e+06
682236 370846 106477 105768 101313 101725 115774 104084 101556 101305