# vtk DataFile Version 2.0
sampleSurface
ASCII
DATASET POLYDATA
POINTS 1015 float
-4.6 0 0 -5 0 0 -5 0 0.5 -4.6 0
0.5 -4.2 0 0 -4.2 0 0.5 -3.8 0 0
-3.8 0 0.5 -3.4 0 0 -3.4 0 0.5 -3
0 0 -3 0 0.5 -2.6 0 0 -2.6 0
0.5 -2.2 0 0 -2.2 0 0.5 -1.8 0 0
-1.8 0 0.5 -1.4 0 0 -1.4 0 0.5 -1
0 0 -1 0 0.5 -0.6 0 0 -0.6 0
0.5 -0.2 0 0 -0.2 0 0.5 0.2 0 0
0.2 0 0.5 0.6 0 0 0.6 0 0.5 1
0 0 1 0 0 1 0 0.5 1 0
0.5 1 0 0.25 1.2 0 0 1.2 0 0.25
1.2 0 0.25 -5 0 1 -4.6 0 1 -4.2
0 1 -3.8 0 1 -3.4 0 1 -3 0
1 -2.6 0 1 -2.2 0 1 -1.8 0 1
-1.4 0 1 -1 0 1 -0.6 0 1 -0.2
0 1 0.2 0 1 0.6 0 1 1 0
0.5 1 0 1 1 0 1 1 0 0.75
1.06598 1.54074e-33 0.75 1.2 1.17455e-17 0.75 1.2 0 0.5 1.4
0 0.5 1.4 0 0.5 1.44848 1.92593e-34 0.625 1.46957 0
0.75 1.6 0 0.75 1.6 -2.06721e-18 0.625 1.6 0 0.5
4.6 0 0.5 4.7 0 0.515432 4.8 1.92593e-34 0.519231 4.8
0 0.5 4.6 0 0.5 -5 0 1.5 -4.6 0
1.5 -4.2 0 1.5 -3.8 0 1.5 -3.4 0 1.5
-3 0 1.5 -2.6 0 1.5 -2.2 0 1.5 -1.8
0 1.5 -1.4 0 1.5 -1 0 1.5 -0.6 0
1.5 -0.2 0 1.5 0.2 0 1.5 0.6 0 1.5
1 0 1.5 1.4 0 1 1.4 0 1 1.2
0 1 1.4 0 1.5 1.4 0 1.5 1.4 0
1.25 1.6 0 1.09639 1.6 0 1 2 -7.70372e-34 1.25
2 6.77626e-18 1.125 2 0 1 1.9 3.61401e-18 1 1.8
0 1 1.8 0 1 1.85981 -1.92593e-34 1.125 1.89552 0
1.25 4.4 0 1 4.3 1.807e-18 1 4.2 0 1
4.2 0 1 4.22759 7.70372e-34 1.125 4.23019 1.54074e-33 1.25 4.4
1.03216e-17 1.25 4.6 0 1 4.6 0 1 4.8 0
1.08333 4.8 0 1 -5 0 2 -4.6 0 2
-4.2 0 2 -3.8 0 2 -3.4 0 2 -3
0 2 -2.6 0 2 -2.2 0 2 -1.8 0
2 -1.4 0 2 -1 0 2 -0.6 0 2
-0.2 0 2 0.2 0 2 0.6 0 2 1
0 2 1.4 0 2 1.8 0 1.5 1.8 0
1.5 1.6 0 1.5 1.8 0 2 1.8 0 2
1.8 0 1.75 2 0 1.66327 2 0 1.5 2.4
0 1.5 2.3 2.25875e-18 1.5 2.2 0 1.5 2.2 0
1.5 2.3 3.85186e-34 1.56443 2.4 -1.92593e-34 1.59615 3.8 0 1.5
3.9 0 1.51761 4 1.92593e-34 1.52273 4 0 1.5 3.9
9.03502e-19 1.5 3.8 0 1.5 4.2 0 1.5 4.2 0
1.5 4.24848 0 1.75 4.4 -4.13442e-18 1.75 4.4 0 1.5
5 0 2 5 0 1.5 4.8 0 1.5 4.6
0 1.5 4.6 0 1.5 4.6 -5.78241e-18 1.75 4.6 0
2 4.6 0 2 -5 0 2.5 -4.6 0 2.5
-4.2 0 2.5 -3.8 0 2.5 -3.4 0 2.5 -3
0 2.5 -2.6 0 2.5 -2.2 0 2.5 -1.8 0
2.5 -1.4 0 2.5 -1 0 2.5 -0.6 0 2.5
-0.2 0 2.5 0.2 0 2.5 0.6 0 2.5 1
0 2.5 1.4 0 2.5 1.8 0 2.5 2.2 0
2.5 2.2 0 2 2 0 2 2.6 0 2
2.6 0 2 2.4 4.51751e-18 2 2.6 0 2.5 2.6
0 2.5 2.6 0 2.25 2.67356 -7.70372e-34 2.25 2.8 9.93852e-18
2.25 2.8 -7.70372e-34 2 3 0 2 3 0 2
3 0 2 3.4 0 2 3.4 0 2 3.46957
-7.70372e-34 2.25 3.6 1.0842e-17 2.25 3.6 0 2 4.2 0
2.5 4.2 0 2 4 1.807e-18 2 3.8 0 2
3.8 0 2 3.8 0 2.25 3.8 0 2.5 3.8
0 2.5 4.6 0 2.5 4.4 0 2 5 0
2.5 -5 0 3 -4.6 0 3 -4.2 0 3
-3.8 0 3 -3.4 0 3 -3 0 3 -2.6
0 3 -2.2 0 3 -1.8 0 3 -1.4 0
3 -1 0 3 -0.6 0 3 -0.2 0 3
0.2 0 3 0.6 0 3 1 0 3 1.4
0 3 1.8 0 3 2.2 0 3 2.6 0
3 3 0 3 3 0 2.5 2.8 6.32451e-18 2.5
3.4 0 3 3.4 0 2.5 3.4 0 2.5 3.2
0 2.5 3 0 2.5 3.8 0 3 3.6 4.51751e-18
2.5 4.2 0 3 4.6 0 3 5 0 3
-5 0 3.5 -4.6 0 3.5 -4.2 0 3.5 -3.8
0 3.5 -3.4 0 3.5 -3 0 3.5 -2.6 0
3.5 -2.2 0 3.5 -1.8 0 3.5 -1.4 0 3.5
-1 0 3.5 -0.6 0 3.5 -0.2 0 3.5 0.2
0 3.5 0.6 0 3.5 1 0 3.5 1.4 0
3.5 1.8 0 3.5 2.2 0 3.5 2.6 0 3.5
3 0 3.5 3.4 0 3.5 3.8 0 3.5 4.2
0 3.5 4.6 0 3.5 5 0 3.5 -5 0
4 -4.6 0 4 -4.2 0 4 -3.8 0 4
-3.4 0 4 -3 0 4 -2.6 0 4 -2.2
0 4 -1.8 0 4 -1.4 0 4 -1 0
4 -0.6 0 4 -0.2 0 4 0.2 0 4
0.6 0 4 1 0 4 1.4 0 4 1.8
0 4 2.2 0 4 2.6 0 4 3 0
4 3.4 0 4 3.8 0 4 4.2 0 4
4.6 0 4 5 0 4 -5 0 4.5 -4.6
0 4.5 -4.2 0 4.5 -3.8 0 4.5 -3.4 0
4.5 -3 0 4.5 -2.6 0 4.5 -2.2 0 4.5
-1.8 0 4.5 -1.4 0 4.5 -1 0 4.5 -0.6
0 4.5 -0.2 0 4.5 0.2 0 4.5 0.6 0
4.5 1 0 4.5 1.4 0 4.5 1.8 0 4.5
2.2 0 4.5 2.6 0 4.5 3 0 4.5 3.4
0 4.5 3.8 0 4.5 4.2 0 4.5 4.6 0
4.5 5 0 4.5 -5 0 5 -4.6 0 5
-4.2 0 5 -3.8 0 5 -3.4 0 5 -3
0 5 -2.6 0 5 -2.2 0 5 -1.8 0
5 -1.4 0 5 -1 0 5 -0.6 0 5
-0.2 0 5 0.2 0 5 0.6 0 5 1
0 5 1.4 0 5 1.8 0 5 2.2 0
5 2.6 0 5 3 0 5 3.4 0 5
3.8 0 5 4.2 0 5 4.6 0 5 5
0 5 3.1 7.70372e-34 0.125 3.1 1.66064e-18 0.25 3.2 0
0.25 3.2 0 0.125 3 -2.89121e-18 0.125 3.1 -3.61401e-18 0
3 0 0 3 0 0 3 7.70372e-34 0.25 3.2
1.54074e-33 0 3.3 1.66064e-18 0.25 3.3 7.70372e-34 0.125 3.4 -2.89121e-18
0.125 3.4 0 0 3.4 0 0 3.3 0 0
3.4 7.70372e-34 0.25 3.1 1.54074e-33 0.375 3.2 -1.91542e-19 0.375 3
-2.89121e-18 0.375 3 0 0.5 3 0 0.5 3.1 0
0.5 3.2 0 0.5 3.3 0 0.375 3.4 -2.89121e-18 0.375
3.3 -4.74338e-18 0.5 3.4 0 0.5 3.4 0 0.5 2.96279
0 0.125 2.95152 0 0.25 2.96168 0 0.375 3.1 0
0.625 3 0 0.5 3 -2.89121e-18 0.625 3.2 -4.51751e-18 0.625
3.1 -2.66533e-18 0.75 3.18551 -4.81482e-35 0.75 3.2 1.92593e-34 0.738636 3
7.70372e-34 0.75 3.3 0 0.625 3.4 -2.89121e-18 0.625 3.4 0
0.5 3.21449 -4.81482e-35 0.75 3.3 0 0.75 3.4 7.70372e-34 0.75
2.96139 -3.85186e-34 0.625 2.95105 -7.70372e-34 0.75 3.5 0 0.125 3.5
0 0 3.5 -4.69821e-18 0.25 3.6 0 0.25 3.6 0
0.125 3.6 0 0 2.6 0 0.125 2.63721 0 0.125
2.6 0 0 2.64848 0 0.25 2.6 7.70372e-34 0.25 3.5
0 0.375 3.5 0 0.418831 3.57297 0 0.375 3.6 -4.81482e-34
0.361111 2.63832 0 0.375 2.6 3.85186e-34 0.375 2.6 0 0.5
2.6 3.85186e-34 0.625 2.63861 0 0.625 2.6 0 0.5 2.64895
-7.70372e-34 0.75 2.6 7.70372e-34 0.75 3.7 -4.69821e-18 0.25 3.7 0
0.125 3.8 -2.89121e-18 0.125 3.8 0 0 3.7 0 0
3.8 7.70372e-34 0.25 3.5 0 0.625 3.5 4.81482e-35 0.609649 3.5
-2.89121e-18 0.75 3.51228 4.81482e-35 0.625 3.6 0 0.75 3.1 0
0.875 3.2 -4.51751e-18 0.875 3.2 1.92593e-34 0.761364 3 -2.89121e-18 0.875
3 0 1 3 0 1 3.1 0 1 3.2
0 1 2.5 0 0.125 2.5 9.62965e-35 0.108696 2.5 -4.69821e-18
0.25 2.47692 -4.81482e-35 0.125 2.4 3.85186e-34 0.166667 2.4 0 0.25
3 0 0 3.4 0 0 2.9 0 0.125 2.9
3.61401e-18 0 2.9 6.14381e-18 0.25 2.8 0 0.125 2.8 0
0.25 2.8 -1.54074e-33 0 3.3 0 0.875 3.4 -2.89121e-18 0.875
3.3 -4.74338e-18 1 3.4 0 1 3.4 0 1 2.96139
-3.85186e-34 0.875 3.7 0 0.375 3.62703 -4.81482e-35 0.375 3.8 -2.89121e-18
0.375 3.7 -9.62965e-35 0.418831 3.8 0 0.5 3.5 0 0
3.6 0 0 3 0 0.5 2.5 0 0.375 2.5
-9.62965e-35 0.418831 2.4 3.37038e-34 0.361111 2.42703 4.81482e-35 0.375 2.7 6.14381e-18
0.25 2.7 0 0.125 2.7 3.61401e-18 0 2.6 0 0
3.4 0 0.5 2.9 0 0.375 2.9 3.16226e-18 0.5 2.8
1.09504e-18 0.375 2.8 -1.54074e-33 0.5 2.63861 -3.85186e-34 0.875 2.6 0
0.875 2.6 0 1 3.7 0 0.609649 3.7 0 0.625
3.8 -2.89121e-18 0.625 3.8 0 0.5 3.68772 0 0.625 3.6
0 0.75 3.7 0 0.75 3.8 7.70372e-34 0.75 3.5 0
0.875 3.5 -4.81482e-35 0.890351 3.51228 -4.81482e-35 0.875 2.56306 0 0.625
2.55683 -3.85186e-34 0.75 3.9 0 0.125 3.9 0 0 3.9
-4.69821e-18 0.25 4 0 0.25 4 0 0.125 4 0
0 3.2 0 0.75 2.3 0 0.125 2.3 -4.69821e-18 0.25
2.32308 4.81482e-35 0.125 2.2 -2.89121e-18 0.125 2.3 0 0.108696 2.2
0 0 2.2 7.70372e-34 0.25 2.7 0 0.375 2.6 0
0.5 2.7 3.16226e-18 0.5 2.9 0 0.625 2.8 9.82106e-19 0.625
2.9 6.03087e-18 0.75 2.8 0 0.75 3.7 0 0 3.8
0 0 3.5 0 0.5 3.6 0 0.375 3.6 0
0.5 3.6 0 0.625 3.6 0 0.75 3.7 0 0.875
3.68772 4.81482e-35 0.875 3.8 -2.89121e-18 0.875 3.7 4.81482e-35 0.890351 3.8
0 1 2.5 0 0 2.4 0 0.125 2.4 -1.54074e-33
0 2.3 0 0.375 2.37297 -4.81482e-35 0.375 2.2 -2.89121e-18 0.375
2.2 0 0.5 2.3 0 0.418831 3.9 0 0.375 3.9
-9.62965e-35 0.459677 4 -9.03502e-19 0.375 4 -9.62965e-35 0.416667 2.9 -1.92593e-34
1.06272 2.9 0 1.125 3 -2.89121e-18 1.125 3 0 1
2.8 -3.38813e-18 1.125 2.8 -3.85186e-34 1.0814 2.8 0 1.25 2.9
0 1.25 3 7.70372e-34 1.25 3.1 0 1.125 3.2 -4.51751e-18
1.125 3.1 -2.66533e-18 1.25 3.18551 -3.37038e-34 1.25 3.2 2.88889e-34 1.23864
3.3 0 1.125 3.4 -2.89121e-18 1.125 3.4 0 1 3.21449
-3.37038e-34 1.25 3.3 0 1.25 3.4 7.70372e-34 1.25 2.7 0
0.625 2.7 6.03087e-18 0.75 2.56306 0 0.875 3.86275 -3.85186e-34 0.625
3.86957 7.70372e-34 0.75 3 0 1 3.4 0 1 2.9
0 0.875 2.9 3.16226e-18 1 2.8 9.82106e-19 0.875 2.8 -1.54074e-33
1 3.7 0 0.5 3.8 0 0.5 2.5 0 0.5
2.4 0 0.375 2.4 0 0.5 2.2 3.85186e-34 0.625 2.23694
3.85186e-34 0.625 2.2 0 0.5 2.24317 -3.85186e-34 0.75 2.2 7.70372e-34
0.75 4.1 -4.69821e-18 0.25 4.1 0 0.125 4.2 -2.89121e-18 0.125
4.2 0 0 4.1 0 0 4.2 7.70372e-34 0.25 2.7
0 1.125 2.7 -1.92593e-34 1.06272 2.6 0 1 2.6 -2.89121e-18
1.125 2.7 1.66064e-18 1.25 2.6 7.70372e-34 1.25 3.44076 1.92593e-34 1.125
3.44848 -7.70372e-34 1.25 2.1 0 0.125 2.1 1.92593e-34 0.0787402 2.1
3.24176e-18 0.25 2 -1.35525e-18 0.125 2 0 0.25 2 1.92593e-34
0.105263 3.9 0 0 4 0 0 4.2 0 1.5
4.1 0 1.48457 4 -1.92593e-34 1.48077 2.3 0 0 2.2
0 0 2.7 0 0.875 2.6 0 1 2.7 3.16226e-18
1 3.5 0 1 3.6 0 0.875 3.6 0 1
2.5 0 0.625 2.5 -3.49023e-18 0.75 2.4 1.65973e-18 0.625 2.4
0 0.75 3.86275 1.92593e-34 0.875 3.75924 3.85186e-34 1.125 3.8 -3.85186e-34
1.125 3.8 0 1 3.75152 -7.70372e-34 1.25 3.8 7.70372e-34 1.25
2.23694 -3.85186e-34 0.875 2.2 0 0.875 2.2 0 1 4.1
0 0.375 4.2 -2.89121e-18 0.375 4.1 9.62965e-35 0.459677 4.2 0
0.5 2.1 0 0.375 2.1 0 0.42126 2 0 0.375
2 1.92593e-34 0.394737 2.54349 -3.85186e-34 1.125 2.52748 0 1.25 4.4
-4.39463e-18 0.75 4.56667 -1.54074e-33 0.75 4.56981 3.85186e-34 0.625 4.5 0
0.5 4.4 0 0.5 4.4 -3.08149e-33 0.625 4.6 0 1
4.56981 3.85186e-34 0.875 4.4 0 0.875 3.2 0 1.75 3.18551
-4.81482e-35 1.75 3.2 0 1.76136 3 0 2 3.4 0
2 3.4 0 2 3.21449 -4.81482e-35 1.75 2.3 0 0.5
2.2 0 0.5 3.9 0 0.5 4 0 0.5 3.1
0 1.375 3.2 -4.51751e-18 1.375 3.2 2.88889e-34 1.26136 3 -2.89121e-18
1.375 3 0 1.5 3 0 1.5 3.1 0 1.5
3.2 0 1.5 4.13725 -1.92593e-34 0.625 4.2 3.85186e-34 0.625 4.2
0 0.5 4.2 7.70372e-34 0.75 4.13043 7.70372e-34 0.75 4.24848 1.92593e-34
0.125 4.24848 3.85186e-34 0.25 1.4 0 0.5 1.6 -3.64834e-18 0.375
1.6 0 0.25 1.5 0 0.25 1.48591 0 0.25 1.4559
0 0.375 2.8 -7.70372e-34 1.9125 2.7 1.92593e-34 1.93371 2.6 0
2 2.9 0 1.93371 3.7 0 1 3.8 0 1
2.5 0 0.875 2.5 2.25875e-18 1 2.4 1.65973e-18 0.875 2.4
0 1 4.1 0 0 4.2 0 0 2.9 1.54074e-33
1.375 2.8 0 1.375 2.9 -4.51751e-18 1.5 3 0 1.5
2.8 0 1.5 3.3 0 1.375 3.4 -2.89121e-18 1.375 3.3
-4.74338e-18 1.5 3.4 0 1.5 3.4 0 1.5 1.9 0
0.125 1.9 3.24176e-18 0.25 1.8 -2.89121e-18 0.125 1.9 0 0.0787402
1.8 0 0 1.8 7.70372e-34 0.25 2.10448 -2.16667e-34 0.625 2.1
-2.16667e-34 0.62987 2.1 3.85186e-34 0.75 2 9.62965e-35 0.722222 2 0
0.75 3.9 -1.92593e-34 0.625 3.9 2.52981e-18 0.75 4 6.32451e-18 0.625
4 0 0.75 3.2 0 1.25 3.7 0 1.54562 3.7
0 1.5 3.6 0 1.5 3.6 -3.85186e-34 1.55952 3.6 -3.85186e-34
1.94048 3.5 0 1.95438 3.8 0 2 3.8 7.70372e-34 1.75
3.7 0 1.75 3.6 3.08149e-33 1.75 3.6 -4.96926e-18 1.875 3.44076
3.85186e-34 1.375 2.1 0 0 2 0 0 2.3 0
0.625 2.3 -3.49023e-18 0.75 1.8 0 1.5 2.2 0 1.5
2.14019 0 1.375 2.10448 -1.44445e-34 1.25 2.1 0 1.25 1.8
[...]
POINT_DATA 1015
FIELD attributes 1
p 1 1015 float
101298 101298 101298 101298 101298 101298 101298 101298 101298 101298 101298
101298 101298 101298 101298 101298 101298 101298 101298 101298 101298
101298 101298 101298 101298 101298 101298 101298 101298 101298 101298
101298 101298 101298 101298 101298 101298 101298 101298 101298 101298
101298 101298 101298 101298 101298 101298 101298 101298 101298 101298
101298 101298 101298 101298 101298 101298 101298 101298 101298 101298
101298 101298 101298 101298 101298 101298 101298 101298 101298 101298
101298 101298 101298 101298 101298 101298 101298 101298 101298 101298
101298 101298 101298 101298 101298 101298 101298 101298 101298 101298
101298 101298 101298 101298 101298 101298 101300 101332 101299 101298
101298 101298 101298 101298 101301 101371 101371 101303 101298 101298
101298 101298 101298 101298 101298 101298 101298 101298 101298 101298
101298 101298 101298 101298 101298 101298 101298 101298 101298 101298
101298 101298 101298 101298 101298 101298 101298 101298 101298 101300
101298 101298 101298 101298 101299 101303 101299 101298 101298 101299
101303 101298 101298 101298 101298 101298 101298 101298 101298 101298
101298 101298 101298 101298 101298 101298 101298 101298 101298 101298
101298 101298 101298 101298 101298 101298 101298 101298 101298 101298
101298 101298 101298 101298 101298 101298 101298 101298 101298 101298
101298 101298 101298 101298 101298 101298 101298 101298 101298 101298
101298 101298 101298 101298 101298 101298 101298 101298 101298 101298
101298 101298 101298 101298 101298 101298 101298 101298 101298 101298
101298 101298 101298 101298 101298 101298 101298 101298 101298 101298
101298 101298 101298 101298 101298 101298 101298 101298 101298 101298
101298 101298 101298 101298 101298 101298 101298 101298 101298 101298
101298 101298 101298 101298 101298 101298 101298 101298 101298 101298
101298 101298 101298 101298 101298 101298 101298 101298 101298 101298
101298 101298 101298 101298 101298 101298 101298 101298 101298 101298
101298 101298 101298 101298 101298 101298 101298 101298 101298 101298
101298 101298 101298 101298 101298 101298 101298 101298 101298 101298
101298 101298 101298 101298 101298 101298 101298 101298 101298 101298
101298 101298 101298 101298 101298 101298 101298 101298 101298 101298
101298 101298 101298 101298 101298 101298 101298 101298 101298 101298
101298 101298 101298 101298 101298 101298 101298 101298 101298 101298
101298 101298 101298 101298 101298 101298 101298 101298 101298 101298
2.21401e+06 2.15944e+06 2.15237e+06 2.20455e+06 2.24749e+06 2.34378e+06 2.37096e+06 2.37096e+06 2.19654e+06 2.33474e+06
2.18367e+06 2.22765e+06 2.28567e+06 2.40135e+06 2.40135e+06 2.35186e+06 2.25001e+06 2.238e+06 2.23424e+06 2.26694e+06
2.14784e+06 2.14784e+06 2.12944e+06 2.12447e+06 2.26321e+06 2.31818e+06 2.13757e+06 2.16001e+06 2.16001e+06 2.26833e+06
2.22664e+06 2.28673e+06 1.91781e+06 2.14784e+06 1.92601e+06 1.91031e+06 1.73718e+06 1.72957e+06 1.74483e+06 1.73488e+06
1.90363e+06 1.88886e+06 2.16001e+06 1.72492e+06 1.70509e+06 1.65971e+06 1.92939e+06 1.72823e+06 2.37137e+06 2.47523e+06
2.33936e+06 2.44252e+06 2.47971e+06 2.56837e+06 2.61299e+06 2.56605e+06 2.69511e+06 2.51036e+06 2.5678e+06 2.37652e+06
2.30246e+06 2.40905e+06 2.42348e+06 2.49599e+06 2.51964e+06 2.2188e+06 1.81591e+06 1.84797e+06 2.2188e+06 1.53836e+06
1.47308e+06 2.55184e+06 2.60848e+06 2.74815e+06 2.81142e+06 2.68115e+06 2.64889e+06 1.84179e+06 1.88152e+06 1.57238e+06
1.82927e+06 1.427e+06 1.54573e+06 1.53534e+06 1.71074e+06 1.53324e+06 1.2169e+06 1.2169e+06 1.23629e+06 1.2254e+06
2.7598e+06 2.76897e+06 2.69324e+06 2.79619e+06 2.88137e+06 2.80908e+06 2.37096e+06 2.40135e+06 2.3035e+06 2.41932e+06
2.25862e+06 2.38346e+06 2.34442e+06 2.49002e+06 1.49679e+06 1.42328e+06 1.17824e+06 1.08897e+06 1.08897e+06 1.51915e+06
2.43917e+06 2.42598e+06 2.40279e+06 2.29877e+06 1.85321e+06 2.47523e+06 2.56837e+06 2.14784e+06 2.55994e+06 2.41657e+06
2.57844e+06 2.5524e+06 2.44932e+06 2.48685e+06 2.58193e+06 2.69511e+06 2.16001e+06 2.31859e+06 2.17907e+06 2.38677e+06
2.21343e+06 1.20704e+06 1.14234e+06 751814 1.62259e+06 1.56433e+06 1.29601e+06 1.85321e+06 1.58588e+06 1.427e+06
1.21542e+06 934576 1.30433e+06 1.26156e+06 1.28352e+06 1.75784e+06 1.38441e+06 2.87231e+06 2.9398e+06 2.68947e+06
2.57094e+06 2.90904e+06 3.00735e+06 1.72828e+06 3.06152e+06 2.8718e+06 3.02828e+06 3.11982e+06 3.07077e+06 3.22195e+06
2.77559e+06 2.45793e+06 2.2188e+06 2.23262e+06 1.93477e+06 1.932e+06 1.72129e+06 1.68401e+06 2.68115e+06 2.81142e+06
2.16533e+06 2.4211e+06 2.13126e+06 1.73986e+06 1.427e+06 914120 941235 645879 872766 363691
2.83014e+06 2.91751e+06 2.98226e+06 2.41726e+06 2.51384e+06 2.06642e+06 1.18521e+06 2.1548e+06 2.24566e+06 1.75913e+06
1.88347e+06 1.60918e+06 932328 702399 755529 1.2169e+06 612959 772216 245321 291477
321470 775174 766338 332878 329021 368183 724045 644255 1.08897e+06 325111
305895 265011 1.89896e+06 1.60645e+06 1.05837e+06 1.06663e+06 701516 1.2169e+06 1.08897e+06 1.49676e+06
1.16391e+06 1.42569e+06 1.0695e+06 2.03876e+06 1.85321e+06 2.15108e+06 2.54961e+06 1.9871e+06 579898 740498
1.18521e+06 437599 299144 2.14346e+06 2.67435e+06 1.9983e+06 2.20377e+06 2.83753e+06 1.40687e+06 494855
712404 751814 361279 192935 145419 598771 240034 2.90707e+06 2.96967e+06 2.35776e+06
2.23054e+06 1.5933e+06 2.2653e+06 2.9398e+06 3.00735e+06 101298 101298 101299 3.13243e+06 3.22195e+06
1.30991e+06 751814 931519 956098 1.13491e+06 782883 1.65871e+06 1.26769e+06 1.39579e+06 976976
472526 210572 169097 363691 115301 106683 232585 165240 111809 1.30673e+06
683415 807626 237329 1.47039e+06 1.16785e+06 791741 709733 290475 123457 101302
101298 101298 101315 101902 101327 101298 101298 101299 101298 101298
101298 101298 101298 101298 101298 1.66876e+06 1.18521e+06 1.52745e+06 1.06062e+06 127775
126820 310045 125217 101962 101962 102042 102012 187782 116887 237329
103588 126814 1.54582e+06 1.0377e+06 101298 101311 101452 101301 101300 101298
101298 101298 101298 101298 577384 363691 915037 538344 631464 324386
2.83753e+06 2.20377e+06 119127 111725 101778 101962 101569 122287 115154 101878
101673 101673 1.24206e+06 759426 441395 1.31348e+06 534784 247737 266371 247193
136643 107406 103453 930436 599553 526754 295310 328368 101315 101325
101378 101341 101298 101298 101298 101298 101298 101298 101298 112415
3.07623e+06 2.4507e+06 1.01465e+06 619862 101298 101298 101298 101301 101300 101298
532678 401230 213496 162411 106075 103005 101343 101343 101419 101787
106990 101371 102019 106068 111809 101329 101556 506679 116541 186823
102898 116450 102126 101382 569957 237329 307537 125178 102121 239667
110159 108710 103044 101298 101298 101298 101298 101298 101298 101298
101300 101343 101302 101298 101298 101298 101298 101304 101343 101343
101311 101298 101298 101298 101298 101298 101298 101298 101298 196721
369599 178023 118914 101482 101763 101303 652889 272361 102293 110474
101670 101866 101400 103743 1.06505e+06 1.23473e+06 645443 363888 210640 438911
101298 101298 101298 101299 101298 101298 347546 111809 172528 270840
124459 235990 147545 115135 103962 101327 102182 102121 102189 101382
101301 112401 102857 267843 128663 1.43505e+06 534784 101298 101298 101298
101298 101298 102486 101409 101305 101304 101298 101298 101298 101298
101298 101298 101298 229876 136976 251675 121245 101325 101302 101301
101645 101315 101962 101313 101314 101298 101300 101298 101311 101306
101673 101298 101298 112171 101309 101304 101298 101298 101614 101962
101673 124143 102121 117211 263667 117401 101307 101472 101301 101299
101298 101302 101420 101300 101298 109183 101642 110078 102638 101488
108435 104166 101304 101299 101312 101309 101298 101298 101298 101298
101298 101298 101298 101298 101298 107577 101997 101613 101298 101303
101299 101298 101461 101298 101298 101298 101298 101298 101298 101298
101298 101298 101298 102172 106233 119829 101866 129265 101298 146024
130900 109128 101893 102220 101298 101298 101313 102222 102027 101394
101298 101298 101298 101745 101379 101298 101298 101298 101698 101298
101298 101908 101318 101341 101298 101298 101298 101298 101298 101298
101298 101298 101298 101308 101310 101318 101298 101298 101298 101298
101308 101313 101304 101308 101298 101298 101298 101298 101298 101298
101298 101298 101298 101298 101298 101298 101298 101298 101298 101298
101298 101298 101299 101298 
