# vtk DataFile Version 2.0
sampleSurface
ASCII
DATASET POLYDATA
POINTS 3236 float
-4.6 -4.6 0.5 -5 -4.6 0.5 -5 -5 0.5 -4.6 -5
0.5 -4.2 -4.6 0.5 -4.2 -5 0.5 -3.8 -4.6 0.5
-3.8 -5 0.5 -3.4 -4.6 0.5 -3.4 -5 0.5 -3
-4.6 0.5 -3 -5 0.5 -2.6 -4.6 0.5 -2.6 -5
0.5 -2.2 -4.6 0.5 -2.2 -5 0.5 -1.8 -4.6 0.5
-1.8 -5 0.5 -1.4 -4.6 0.5 -1.4 -5 0.5 -1
-4.6 0.5 -1 -5 0.5 -0.6 -4.6 0.5 -0.6 -5
0.5 -0.2 -4.6 0.5 -0.2 -5 0.5 0.2 -4.6 0.5
0.2 -5 0.5 0.6 -4.6 0.5 0.6 -5 0.5 1
-4.6 0.5 1 -5 0.5 1.4 -4.6 0.5 1.4 -5
0.5 1.8 -4.6 0.5 1.8 -5 0.5 2.2 -4.6 0.5
2.2 -5 0.5 2.6 -4.6 0.5 2.6 -5 0.5 3
-4.6 0.5 3 -5 0.5 3.4 -4.6 0.5 3.4 -5
0.5 3.8 -4.6 0.5 3.8 -5 0.5 4.2 -4.6 0.5
4.2 -5 0.5 4.6 -4.6 0.5 4.6 -5 0.5 5
-5 0.5 5 -4.6 0.5 -4.6 -4.2 0.5 -5 -4.2
0.5 -4.2 -4.2 0.5 -3.8 -4.2 0.5 -3.4 -4.2 0.5
-3 -4.2 0.5 -2.6 -4.2 0.5 -2.2 -4.2 0.5 -1.8
-4.2 0.5 -1.4 -4.2 0.5 -1 -4.2 0.5 -0.6 -4.2
0.5 -0.2 -4.2 0.5 0.2 -4.2 0.5 0.6 -4.2 0.5
1 -4.2 0.5 1.4 -4.2 0.5 1.8 -4.2 0.5 2.2
-4.2 0.5 2.6 -4.2 0.5 3 -4.2 0.5 3.4 -4.2
0.5 3.8 -4.2 0.5 4.2 -4.2 0.5 4.6 -4.2 0.5
5 -4.2 0.5 -4.6 -3.8 0.5 -5 -3.8 0.5 -4.2
-3.8 0.5 -3.8 -3.8 0.5 -3.4 -3.8 0.5 -3 -3.8
0.5 -2.6 -3.8 0.5 -2.2 -3.8 0.5 -1.8 -3.8 0.5
-1.4 -3.8 0.5 -1 -3.8 0.5 -0.6 -3.8 0.5 -0.2
-3.8 0.5 0.2 -3.8 0.5 0.6 -3.8 0.5 1 -3.8
0.5 1.4 -3.8 0.5 1.8 -3.8 0.5 2.2 -3.8 0.5
2.6 -3.8 0.5 3 -3.8 0.5 3.4 -3.8 0.5 3.8
-3.8 0.5 4.2 -3.8 0.5 4.6 -3.8 0.5 5 -3.8
0.5 -4.6 -3.4 0.5 -5 -3.4 0.5 -4.2 -3.4 0.5
-3.8 -3.4 0.5 -3.4 -3.4 0.5 -3 -3.4 0.5 -2.6
-3.4 0.5 -2.2 -3.4 0.5 -1.8 -3.4 0.5 -1.4 -3.4
0.5 -1 -3.4 0.5 -0.6 -3.4 0.5 -0.2 -3.4 0.5
0.2 -3.4 0.5 0.6 -3.4 0.5 1 -3.4 0.5 1.4
-3.4 0.5 1.8 -3.4 0.5 2.2 -3.4 0.5 2.6 -3.4
0.5 3 -3.4 0.5 3.4 -3.4 0.5 3.8 -3.4 0.5
4.2 -3.4 0.5 4.6 -3.4 0.5 5 -3.4 0.5 -4.6
-3 0.5 -5 -3 0.5 -4.2 -3 0.5 -3.8 -3
0.5 -3.4 -3 0.5 -3 -3 0.5 -2.6 -3 0.5
-2.2 -3 0.5 -1.8 -3 0.5 -1.4 -3 0.5 -1
-3 0.5 -0.6 -3 0.5 -0.2 -3 0.5 0.2 -3
0.5 0.6 -3 0.5 1 -3 0.5 1.4 -3 0.5
1.8 -3 0.5 2.2 -3 0.5 2.6 -3 0.5 3
-3 0.5 3.4 -3 0.5 3.8 -3 0.5 4.2 -3
0.5 4.6 -3 0.5 5 -3 0.5 -4.6 -2.6 0.5
-5 -2.6 0.5 -4.2 -2.6 0.5 -3.8 -2.6 0.5 -3.4
-2.6 0.5 -3 -2.6 0.5 -2.6 -2.6 0.5 -2.2 -2.6
0.5 -1.8 -2.6 0.5 -1.4 -2.6 0.5 -1 -2.6 0.5
-0.6 -2.6 0.5 -0.2 -2.6 0.5 0.2 -2.6 0.5 0.6
-2.6 0.5 1 -2.6 0.5 1.4 -2.6 0.5 1.8 -2.6
0.5 2.2 -2.6 0.5 2.6 -2.6 0.5 3 -2.6 0.5
3.4 -2.6 0.5 3.8 -2.6 0.5 4.2 -2.6 0.5 4.6
-2.6 0.5 5 -2.6 0.5 -4.6 -2.2 0.5 -5 -2.2
0.5 -4.2 -2.2 0.5 -3.8 -2.2 0.5 -3.4 -2.2 0.5
-3 -2.2 0.5 -2.6 -2.2 0.5 -2.2 -2.2 0.5 -1.8
-2.2 0.5 -1.4 -2.2 0.5 -1 -2.2 0.5 -0.6 -2.2
0.5 -0.2 -2.2 0.5 0.2 -2.2 0.5 0.6 -2.2 0.5
1 -2.2 0.5 1.4 -2.2 0.5 1.8 -2.2 0.5 2.2
-2.2 0.5 2.6 -2.2 0.5 3 -2.2 0.5 3.4 -2.2
0.5 3.8 -2.2 0.5 4.2 -2.2 0.5 4.6 -2.2 0.5
5 -2.2 0.5 -4.6 -1.8 0.5 -5 -1.8 0.5 -4.2
-1.8 0.5 -3.8 -1.8 0.5 -3.4 -1.8 0.5 -3 -1.8
0.5 -2.6 -1.8 0.5 -2.2 -1.8 0.5 -1.8 -1.8 0.5
-1.4 -1.8 0.5 -1 -1.8 0.5 -0.6 -1.8 0.5 -0.2
-1.8 0.5 0.2 -1.8 0.5 0.6 -1.8 0.5 1 -1.8
0.5 1.4 -1.8 0.5 1.8 -1.8 0.5 2.2 -1.8 0.5
2.6 -1.8 0.5 3 -1.8 0.5 3.4 -1.8 0.5 3.8
-1.8 0.5 4.2 -1.8 0.5 4.6 -1.8 0.5 5 -1.8
0.5 -4.6 -1.4 0.5 -5 -1.4 0.5 -4.2 -1.4 0.5
-3.8 -1.4 0.5 -3.4 -1.4 0.5 -3 -1.4 0.5 -2.6
-1.4 0.5 -2.2 -1.4 0.5 -1.8 -1.4 0.5 -1.4 -1.4
0.5 -1 -1.4 0.5 -0.6 -1.4 0.5 -0.2 -1.4 0.5
0.2 -1.4 0.5 0.6 -1.4 0.5 1 -1.4 0.5 1.4
-1.4 0.5 1.8 -1.4 0.5 2.2 -1.4 0.5 2.6 -1.4
0.5 3 -1.4 0.5 3.4 -1.4 0.5 3.8 -1.4 0.5
4.2 -1.4 0.5 4.6 -1.4 0.5 5 -1.4 0.5 -4.6
-1 0.5 -5 -1 0.5 -4.2 -1 0.5 -3.8 -1
0.5 -3.4 -1 0.5 -3 -1 0.5 -2.6 -1 0.5
-2.2 -1 0.5 -1.8 -1 0.5 -1.4 -1 0.5 -1
-1 0.5 -0.6 -1 0.5 -0.2 -1 0.5 0.2 -1
0.5 0.6 -1 0.5 1 -1 0.5 1.4 -1 0.5
1.8 -1 0.5 2.2 -1 0.5 2 -1 0.5 2.6
-1 0.5 2.4 -1 0.5 3 -1 0.5 2.8 -1
0.5 3.4 -1 0.5 3.2 -1 0.5 3.8 -1 0.5
3.6 -1 0.5 4.2 -1 0.5 4 -1 0.5 4.6
-1 0.5 5 -1 0.5 -4.6 -0.6 0.5 -5 -0.6
0.5 -4.2 -0.6 0.5 -3.8 -0.6 0.5 -3.4 -0.6 0.5
-3 -0.6 0.5 -2.6 -0.6 0.5 -2.2 -0.6 0.5 -1.8
-0.6 0.5 -1.4 -0.6 0.5 -1 -0.6 0.5 -0.6 -0.6
0.5 -0.2 -0.6 0.5 0.2 -0.6 0.5 0.6 -0.6 0.5
1 -0.6 0.5 1.4 -0.6 0.5 1.6 -0.6 0.5 1.8
-0.8 0.5 1.8 -0.6 0.5 4.6 -0.6 0.5 4.4 -0.6
0.5 4.2 -0.6 0.5 4.2 -0.8 0.5 4.8 -0.6 0.5
5 -0.6 0.5 -4.6 -0.2 0.5 -5 -0.2 0.5 -4.2
-0.2 0.5 -3.8 -0.2 0.5 -3.4 -0.2 0.5 -3 -0.2
0.5 -2.6 -0.2 0.5 -2.2 -0.2 0.5 -1.8 -0.2 0.5
-1.4 -0.2 0.5 -1 -0.2 0.5 -0.6 -0.2 0.5 -0.2
-0.2 0.5 0.2 -0.2 0.5 0.6 -0.2 0.5 1 -0.2
0.5 1.2 -0.2 0.5 1.4 -0.4 0.5 1.4 -0.2 0.5
-4.6 0.2 0.5 -5 0.2 0.5 -4.2 0.2 0.5 -3.8
0.2 0.5 -3.4 0.2 0.5 -3 0.2 0.5 -2.6 0.2
0.5 -2.2 0.2 0.5 -1.8 0.2 0.5 -1.4 0.2 0.5
-1 0.2 0.5 -0.6 0.2 0.5 -0.2 0.2 0.5 0.2
0.2 0.5 0.6 0.2 0.5 1 0 0.5 1 0.2
0.5 0.8 0.2 0.5 -4.6 0.6 0.5 -5 0.6 0.5
-4.2 0.6 0.5 -3.8 0.6 0.5 -3.4 0.6 0.5 -3
0.6 0.5 -2.6 0.6 0.5 -2.2 0.6 0.5 -1.8 0.6
0.5 -1.4 0.6 0.5 -1 0.6 0.5 -0.6 0.6 0.5
-0.2 0.6 0.5 0.2 0.6 0.5 0.6 0.4 0.5 0.6
0.6 0.5 -4.6 1 0.5 -5 1 0.5 -4.2 1
0.5 -3.8 1 0.5 -3.4 1 0.5 -3 1 0.5
-2.6 1 0.5 -2.2 1 0.5 -1.8 1 0.5 -1.4
1 0.5 -1 1 0.5 -0.6 1 0.5 -0.2 1
0.5 0.2 1 0.5 0.6 0.8 0.5 0.6 1 0.5
0.4 1 0.5 -4.6 1.4 0.5 -5 1.4 0.5 -4.2
1.4 0.5 -3.8 1.4 0.5 -3.4 1.4 0.5 -3 1.4
0.5 -2.6 1.4 0.5 -2.2 1.4 0.5 -1.8 1.4 0.5
-1.4 1.4 0.5 -1 1.4 0.5 -0.6 1.4 0.5 -0.2
1.4 0.5 0.2 1.2 0.5 0.2 1.4 0.5 -4.6 1.8
0.5 -5 1.8 0.5 -4.2 1.8 0.5 -4.4 1.8 0.5
-3.8 1.8 0.5 -4 1.8 0.5 -3.4 1.8 0.5 -3.6
1.8 0.5 -3 1.8 0.5 -3.2 1.8 0.5 -2.6 1.8
0.5 -2.8 1.8 0.5 -2.2 1.8 0.5 -2.4 1.8 0.5
-1.8 1.8 0.5 -2 1.8 0.5 -1.4 1.8 0.5 -1.6
1.8 0.5 -1 1.8 0.5 -0.6 1.8 0.5 -0.2 1.8
0.5 0.2 1.6 0.5 0.2 1.8 0.5 -5 2.2 0.5
-4.6 2 0.5 -4.6 2.2 0.5 -1 2.2 0.5 -1.2
2.2 0.5 -1.4 2.2 0.5 -1.4 2 0.5 -0.6 2.2
0.5 -0.2 2.2 0.5 -0.4 2.2 0.5 0.2 2.2 0.5
0 2.2 0.5 0.4 2.2 0.5 0.4 1.8 0.5 0.6
1.8 0.5 0.6 2 0.5 0.6 2.2 0.5 -5 2.6
0.5 -4.6 2.4 0.5 -4.6 2.6 0.5 -0.8 2.6 0.5
-1 2.6 0.5 -1 2.4 0.5 -0.6 2.4 0.5 -0.6
2.6 0.5 -5 3 0.5 -4.6 2.8 0.5 -4.6 3
0.5 -5 3.4 0.5 -4.6 3.2 0.5 -4.6 3.4 0.5
-5 3.8 0.5 -4.6 3.6 0.5 -4.6 3.8 0.5 3.8
3.8 0.5 3.4 3.8 0.5 3.4 3.6 0.5 3.4 3.4
0.5 3.6 3.4 0.5 3.8 3.4 0.5 4.2 3.8 0.5
4 3.4 0.5 4.2 3.4 0.5 4.6 3.8 0.5 4.4
3.4 0.5 4.6 3.4 0.5 4.8 3.4 0.5 5 3.4
0.5 5 3.8 0.5 -4.6 4.2 0.5 -5 4.2 0.5
-4.2 4.2 0.5 -4.4 3.8 0.5 -4.2 3.8 0.5 -3.8
4.2 0.5 -4 3.8 0.5 -3.8 3.8 0.5 -3.4 4.2
0.5 -3.6 3.8 0.5 -3.4 3.8 0.5 -3 4.2 0.5
-3.2 3.8 0.5 -3 3.8 0.5 -2.6 4.2 0.5 -2.8
3.8 0.5 -2.6 3.8 0.5 -2.2 4.2 0.5 -2.4 3.8
0.5 -2.2 3.8 0.5 -1.8 4.2 0.5 -2 3.8 0.5
-1.8 3.8 0.5 -1.4 4.2 0.5 -1.6 3.8 0.5 -1.4
3.8 0.5 -1.2 3.8 0.5 -1 3.8 0.5 -1 4
0.5 -1 4.2 0.5 3.4 4.2 0.5 3 4.2 0.5
3 4 0.5 3 3.8 0.5 3.2 3.8 0.5 3.8
4.2 0.5 4.2 4.2 0.5 4.6 4.2 0.5 5 4.2
0.5 -4.6 4.6 0.5 -5 4.6 0.5 -4.2 4.6 0.5
-3.8 4.6 0.5 -3.4 4.6 0.5 -3 4.6 0.5 -2.6
4.6 0.5 -2.2 4.6 0.5 -1.8 4.6 0.5 -1.4 4.6
0.5 -1 4.6 0.5 -0.6 4.6 0.5 -0.8 4.2 0.5
-0.6 4.2 0.5 -0.2 4.6 0.5 -0.4 4.2 0.5 -0.2
4.2 0.5 0.2 4.6 0.5 0 4.2 0.5 0.2 4.2
0.5 0.6 4.6 0.5 0.4 4.2 0.5 0.6 4.2 0.5
1 4.6 0.5 0.8 4.2 0.5 1 4.2 0.5 1.4
4.6 0.5 1.2 4.2 0.5 1.4 4.2 0.5 1.8 4.6
0.5 1.6 4.2 0.5 1.8 4.2 0.5 2.2 4.6 0.5
2 4.2 0.5 2.2 4.2 0.5 2.6 4.6 0.5 2.4
4.2 0.5 2.6 4.2 0.5 3 4.6 0.5 2.8 4.2
0.5 3.4 4.6 0.5 3.8 4.6 0.5 4.2 4.6 0.5
4.6 4.6 0.5 5 4.6 0.5 -4.6 5 0.5 -5
5 0.5 -4.2 5 0.5 -3.8 5 0.5 -3.4 5
0.5 -3 5 0.5 -2.6 5 0.5 -2.2 5 0.5
-1.8 5 0.5 -1.4 5 0.5 -1 5 0.5 -0.6
5 0.5 -0.2 5 0.5 0.2 5 0.5 0.6 5
0.5 1 5 0.5 1.4 5 0.5 1.8 5 0.5
2.2 5 0.5 2.6 5 0.5 3 5 0.5 3.4
5 0.5 3.8 5 0.5 4.2 5 0.5 4.6 5
0.5 5 5 0.5 1.8 -0.8 0.5 2 -1 0.5
2.2 -0.8 0.5 2 -0.6 0.5 2.2 -0.8 0.5 2.4
-1 0.5 2.4 -0.8 0.5 2.6 -0.8 0.5 2.8 -1
0.5 2.8 -0.8 0.5 3 -0.8 0.5 3.2 -1 0.5
3.2 -0.8 0.5 4.2 -0.4 0.5 4.4 -0.6 0.5 4.4
-0.4 0.5 1 0 0.5 1.2 -0.2 0.5 1.2 8.13152e-18
0.5 2.6 -0.1 0.5 2.7 -0.2 0.5 2.7 -0.1 0.5
3 -0.1 0.5 3.1 -0.2 0.5 3.1 -0.1 0.5 4.2
-0.1 0.5 4.3 -0.2 0.5 4.3 -0.1 0.5 3.4 0.3
0.5 3.5 0.2 0.5 3.5 0.3 0.5 1.8 0.7 0.5
1.9 0.6 0.5 1.9 0.7 0.5 4.6 0.7 0.5 4.7
0.6 0.5 4.7 0.7 0.5 0.2 1.2 0.5 0.4 1
0.5 0.6 1.2 0.5 0.4 1.4 0.5 1.8 1.1 0.5
1.9 1 0.5 1.9 1.1 0.5 4.2 1.1 0.5 4.3
1 0.5 4.3 1.1 0.5 1 1.5 0.5 1.1 1.4
0.5 1.1 1.5 0.5 1.4 1.5 0.5 1.5 1.4 0.5
1.5 1.5 0.5 1.8 1.5 0.5 1.9 1.4 0.5 1.9
1.5 0.5 3.8 1.5 0.5 3.9 1.4 0.5 3.9 1.5
0.5 0.6 2 0.5 0.8 1.8 0.5 0.8 2 0.5
1.4 1.9 0.5 1.5 1.8 0.5 1.5 1.9 0.5 4.6
1.9 0.5 4.7 1.8 0.5 4.7 1.9 0.5 1 2.7
0.5 1.1 2.6 0.5 1.2 2.7 0.5 1.1 2.8 0.5
1.4 2.7 0.5 1.5 2.6 0.5 1.5 2.7 0.5 3
3.1 0.5 3.1 3 0.5 3.1 3.1 0.5 2.2 4
0.5 2.4 3.8 0.5 2.6 4 0.5 2.4 4.2 0.5
2.6 4 0.5 2.8 3.8 0.5 3 4 0.5 2.8
4.2 0.5 3 1.85 0.5 3 1.8 0.5 3.05 1.8
0.5 3.05 1.85 0.5 3.4 1.8 0.5 3.4 1.85 0.5
3.35 1.85 0.5 3.35 1.8 0.5 3.5 1.8 0.5 3.5
1.9 0.5 3.4 1.9 0.5 3.8 1.8 0.5 3.8 1.9
0.5 3.7 1.9 0.5 3.7 1.8 0.5 3.9 1.8 0.5
3.9 1.9 0.5 4.2 1.8 0.5 4.2 1.9 0.5 4.1
1.9 0.5 4.1 1.8 0.5 -3.8 2.2 0.5 -3.7 2.2
0.5 -3.7 2.3 0.5 -3.8 2.3 0.5 -3.4 2.2 0.5
-3.4 2.3 0.5 -3.5 2.3 0.5 -3.5 2.2 0.5 -3.3
2.2 0.5 -3.3 2.3 0.5 -3 2.2 0.5 -3 2.3
0.5 -3.1 2.3 0.5 -3.1 2.2 0.5 -2.9 2.2 0.5
-2.9 2.3 0.5 -2.6 2.2 0.5 -2.6 2.3 0.5 -2.7
2.3 0.5 -2.7 2.2 0.5 -2.5 2.2 0.5 -2.5 2.3
0.5 -2.2 2.2 0.5 -2.2 2.3 0.5 -2.3 2.3 0.5
-2.3 2.2 0.5 -2.1 2.2 0.5 -2.1 2.3 0.5 -1.9
2.2 0.5 -1.8 2.2 0.5 -1.8 2.3 0.5 -1.9 2.3
0.5 -1.8 2.6 0.5 -1.9 2.6 0.5 -1.9 2.5 0.5
-1.8 2.5 0.5 2.6 2.2 0.5 2.7 2.2 0.5 2.7
2.3 0.5 2.6 2.3 0.5 2.7 2.6 0.5 2.6 2.6
0.5 2.6 2.5 0.5 2.7 2.5 0.5 4.5 2.2 0.5
4.6 2.2 0.5 4.6 2.3 0.5 4.5 2.3 0.5 4.6
2.5 0.5 4.6 2.6 0.5 4.5 2.6 0.5 4.5 2.5
0.5 -4.2 2.6 0.5 -4.1 2.6 0.5 -4.1 2.7 0.5
-4.2 2.7 0.5 -4.1 3 0.5 -4.2 3 0.5 -4.2
2.9 0.5 -4.1 2.9 0.5 -1.8 2.7 0.5 -1.9 2.7
0.5 -1.8 2.9 0.5 -1.8 3 0.5 -1.9 3 0.5
-1.9 2.9 0.5 -1.7 2.6 0.5 -1.7 2.7 0.5 -1.4
2.8 0.5 -1.6 2.8 0.5 -1.6 2.7 0.5 -1.6 2.6
0.5 -1.4 2.6 0.5 -1.7 3 0.5 -1.7 2.9 0.5
-1.4 3 0.5 -1.6 3 0.5 -1.6 2.9 0.5 -0.4
2.6 0.5 -0.4 2.8 0.5 -0.5 2.8 0.5 -0.6 2.8
0.5 -0.2 2.6 0.5 -0.2 2.8 0.5 -0.3 2.8 0.5
-0.5 3 0.5 -0.6 3 0.5 -0.6 2.9 0.5 -0.5
2.9 0.5 -0.2 2.9 0.5 -0.2 3 0.5 -0.3 3
0.5 -0.3 2.9 0.5 0 2.6 0.5 0 2.8 0.5
-0.1 2.8 0.5 0.2 2.6 0.5 0.2 2.8 0.5 0.1
2.8 0.5 -0.1 2.9 0.5 -0.1 3 0.5 0.2 2.9
0.5 0.2 3 0.5 0.1 3 0.5 0.1 2.9 0.5
0.4 2.6 0.5 0.4 2.8 0.5 0.3 2.8 0.5 0.6
2.6 0.5 0.6 2.8 0.5 0.5 2.8 0.5 0.3 2.9
0.5 0.3 3 0.5 0.6 2.9 0.5 0.6 3 0.5
0.5 3 0.5 0.5 2.9 0.5 0.8 2.6 0.5 0.8
2.8 0.5 0.7 2.8 0.5 1 2.6 0.5 1 2.7
[...]
POINT_DATA 3236
FIELD attributes 1
p 1 3236 float
101298 101298 101298 101298 101298 101298 101298 101298 101298 101298 101298
101298 101298 101298 101298 101298 101298 101298 101298 101298 101298
101298 101298 101298 101298 101298 101298 101298 101298 101298 101298
101298 101298 101298 101298 101298 101298 101298 101298 101298 101298
101298 101298 101298 101298 101298 101298 101298 101298 101298 101298
101298 101298 101298 101298 101298 101298 101298 101298 101298 101298
101298 101298 101298 101298 101298 101298 101298 101298 101298 101298
101298 101298 101298 101298 101298 101298 101298 101298 101298 101298
101298 101298 101298 101298 101298 101298 101298 101298 101298 101298
101298 101298 101298 101298 101298 101298 101298 101298 101298 101298
101298 101298 101298 101298 101298 101298 101298 101298 101298 101298
101298 101298 101298 101298 101298 101298 101298 101298 101298 101298
101298 101298 101298 101298 101298 101298 101298 101298 101298 101298
101298 101298 101298 101298 101298 101298 101298 101298 101298 101298
101298 101298 101298 101298 101298 101298 101298 101298 101298 101298
101298 101298 101298 101298 101298 101298 101298 101298 101298 101298
101298 101298 101298 101298 101298 101298 101298 101298 101298 101298
101298 101298 101298 101298 101298 101298 101298 101298 101298 101298
101298 101298 101298 101298 101298 101298 101298 101298 101298 101298
101298 101298 101298 101298 101298 101298 101298 101298 101298 101298
101298 101298 101298 101298 101298 101298 101298 101298 101298 101298
101298 101298 101298 101298 101298 101298 101298 101298 101298 101298
101298 101298 101298 101298 101298 101298 101298 101298 101298 101298
101298 101298 101298 101298 101298 101298 101298 101298 101298 101298
101298 101298 101298 101298 101298 101298 101298 101298 101298 101298
101298 101298 101298 101298 101298 101298 101298 101298 101298 101298
101298 101298 101298 101298 101298 101298 101298 101298 101298 101298
101298 101298 101298 101298 101298 101298 101298 101298 101298 101298
101298 101298 101298 101298 101298 101298 101298 101298 101298 101298
101298 101298 101298 101298 101298 101298 101298 101298 101298 101298
101298 101298 101298 101298 101298 101298 101298 101298 101298 101298
101298 101298 101298 101298 101298 101298 101298 101298 101298 101298
101298 101298 101298 101298 101298 101298 101298 101298 101298 101298
101298 101298 101298 101298 101298 101298 101298 101298 101298 101298
101298 101298 101298 101298 101298 101298 101298 101298 101298 101298
101298 101298 101298 101298 101298 101298 101298 101298 101298 101298
101298 101298 101298 101298 101298 101298 101298 101298 101298 101298
101298 101298 101298 101298 101298 101298 101298 101298 101298 101298
101298 101298 101298 101298 101298 101298 101298 101298 101298 101298
101298 101298 101298 101298 101298 101298 101298 101298 101298 101298
101298 101298 101298 101298 101298 101298 101298 101298 101298 101298
101298 101298 101298 101298 101298 101298 101298 101298 101298 101298
101298 101298 101298 101298 101298 101298 101298 101298 101298 101298
101298 101298 101298 101298 101298 101298 101298 101298 101298 101298
101298 101298 101298 101298 101298 101298 101298 101298 101298 101298
101298 101298 101298 101298 101298 101298 101298 101298 101298 101298
101298 101298 101298 101298 101298 101298 101298 101298 101298 101298
101298 101298 101298 101298 101298 101298 101298 101298 101298 101298
101298 101298 101298 101298 101298 101298 101298 101298 101298 101298
101298 101298 101298 101298 101298 101298 101298 101298 101298 101298
101298 101298 101298 101298 101298 101298 101298 101298 101298 101298
101298 101298 101298 101298 101298 101298 101298 101298 101298 101298
101298 101298 101298 101298 101298 101298 101298 101298 101298 101298
101298 101298 101298 101298 101298 101298 101298 101298 101298 101298
101298 101298 101298 101298 101298 101298 101298 101298 101298 101298
101298 101298 101298 101298 101298 101298 101298 101298 101298 101298
101298 101298 101298 101298 101298 101298 101298 101298 101298 101298
101298 101298 101298 101298 101298 101298 101298 101298 101298 101298
101298 101298 101298 101298 101298 101298 101298 101298 101298 101298
101298 101298 101298 101298 101298 101298 101298 101298 101298 101298
101298 101298 101298 1.45156e+06 641355 1.6078e+06 1.80444e+06 863119 1.80845e+06 105983
101302 101528 443050 1.27169e+06 588210 2.32801e+06 2.25698e+06 1.72984e+06 2.2161e+06 640660
1.1978e+06 101298 101298 101298 101298 916188 561740 361428 89717.1 444931
252697 101316 102326 102331 1.56883e+06 2.19497e+06 2.18012e+06 489318 168799 158611
61898 59020.8 58995 101298 101298 101298 1.24023e+06 2.13313e+06 2.08717e+06 3.33481e+06
4.1742e+06 3.69938e+06 101298 101298 101298 101298 102386 328919 157214 139179
119925 103147 101298 101298 101298 101298 101298 101298 101298 101298
134404 79663.5 74602.4 126275 142521 240185 220321 111343 186093 928854
842062 228138 1.05209e+06 999795 210038 255276 1.12763e+06 651785 1.81112e+06 1.46609e+06
409127 101298 101298 101298 101298 101298 101298 101298 101298 101298
101298 101298 101298 101298 101298 101298 101298 101298 101298 101298
101298 101298 101298 101298 101298 101298 101298 101298 101298 101298
101298 101298 101298 101298 101298 101298 101298 387793 502136 341043
318650 204843 243239 202635 176963 1.14022e+06 1.74084e+06 1.78129e+06 1.14112e+06 710164
184788 172736 573864 101298 101298 101298 101298 101298 101298 101298
101298 101298 101298 101298 101298 101298 101298 101298 101298 101298
101298 101298 101298 101298 101298 101298 101298 101298 101298 101298
101298 101298 101298 101298 101298 101298 101298 101298 101298 101298
101298 101298 101298 101298 101298 101298 101298 101298 101298 101298
101298 101298 101298 101298 101298 101298 101298 101298 101298 101298
101298 101298 101298 101298 101298 101298 101298 101298 101298 101298
101298 101298 101298 101298 101298 101298 101298 101298 101298 101298
101298 101298 113818 102386 101312 101468 101298 101298 101300 101298
101298 101298 328919 2.78064e+06 2.46299e+06 1.47909e+06 2.1471e+06 101468 101307 873464
493334 138599 284577 271037 398891 158373 119925 101306 101299 101329
101469 101298 101298 101298 101298 101298 101298 101298 101298 101298
101298 101298 101298 101298 101298 101298 101298 101298 101298 101298
101298 101298 101298 101298 101298 101298 101298 101298 101298 101298
101298 101298 101298 101298 101298 101298 101298 101298 101298 101298
101298 101298 101298 101298 101298 101298 101298 101298 101298 101298
101298 101298 101298 101298 101298 101298 101298 101298 101298 101298
101298 101298 101298 101298 101298 101298 101298 101298 101298 101298
101298 101298 101298 101298 101298 101298 101298 101298 101298 101298
101298 2.16517e+06 2.4209e+06 1.57797e+06 1.12788e+06 102564 101518 116896 163980 101298
101298 101298 101298 101298 101298 101298 101298 101298 101298 101298
101298 101298 101298 101298 101298 101298 101298 101298 101298 101298
101298 101298 101298 101298 101298 101298 101298 101298 101298 101298
101298 101298 101298 101298 101298 101298 101298 101298 101298 101298
101298 101298 101298 101298 101298 101298 101298 101298 101298 101298
101298 101298 101298 101298 101298 101298 101298 101298 101298 101298
101298 101298 101316 101301 101298 101298 101298 101298 101298 101298
101298 101298 101298 101298 101298 101298 101298 101298 101298 101298
101298 101298 101298 101298 101298 101298 101298 101298 101298 101298
101298 101298 101298 101298 101298 101298 101298 101298 101298 101298
101298 101298 101298 101298 101298 70721.3 82271.4 188888 109893 82175.3
148779 369583 633130 1.14678e+06 2.20458e+06 3.33481e+06 2.8046e+06 2.8046e+06 3.63482e+06 3.33481e+06
2.03102e+06 1.70065e+06 101298 101298 101298 101298 101298 101298 101298 101298
101298 101298 101298 101298 101298 101298 101298 2.40495e+06 2.33322e+06 2.66493e+06
2.15074e+06 1.19229e+06 1.76944e+06 710164 154953 154953 103087 112577 112577 101442
103087 101298 101298 101298 101298 101298 101298 2.67386e+06 2.87253e+06 1.51763e+06
986252 1.53448e+06 2.07831e+06 1.76903e+06 727805 2.54512e+06 2.72855e+06 420481 351170 1.71894e+06
1.37634e+06 1.20399e+06 1.45964e+06 664030 778669 103733 103797 101298 101299 101299
101298 101298 101300 101298 101298 101298 101298 101298 101298 2.9439e+06
641893 183811 4.69426e+06 3.95059e+06 2.54437e+06 2.6262e+06 2.96679e+06 5.13339e+06 3.01231e+06 3.28387e+06
5.2984e+06 3.40207e+06 3.42927e+06 5.32464e+06 5.30242e+06 3.43703e+06 3.43135e+06 5.24732e+06 5.14671e+06 3.40706e+06
3.36997e+06 5.00297e+06 4.82012e+06 3.32748e+06 3.31192e+06 4.63138e+06 4.35731e+06 3.29567e+06 3.23991e+06 3.92198e+06
101298 101298 101298 101298 101298 101298 101298 101298 101298 101298
101298 101298 101298 101298 101298 101298 101298 101298 101298 101298
101298 101298 101298 101298 101298 233039 282937 535399 523113 128781
165367 94540.2 119015 149413 124611 421217 509812 688352 628680 655792
466492 1.08973e+06 1.51635e+06 281775 372260 138408 122811 101298 101298 101298
101298 101298 101298 101298 101298 101298 101298 101298 101298 101298
101298 101298 101298 101298 101298 101298 101298 101299 101358 105864
113175 101946 226666 760106 1.71682e+06 173278 352437 276453 164843 108687
107951 101678 101775 101324 101318 101299 101299 101298 101298 101298
101298 101298 101298 101298 101298 101298 101298 101298 101298 101299
101299 101298 101298 101298 101298 101298 101298 101298 101298 101298
101298 101298 101298 101298 101298 101298 101298 101298 101298 101298
101298 101298 101298 101298 101298 101298 101298 101298 101298 101298
101298 101298 101298 101298 386114 1.56202e+06 617523 172577 115157 101477
102859 101319 101300 101298 101298 101298 101298 101298 101298 101298
101298 101298 101298 101298 101298 101298 101298 101298 101298 101298
101298 101298 101298 101298 101298 101298 101298 101298 101298 101298
101298 101298 101298 101298 101298 101298 101298 101298 101298 101298
101298 101298 101298 101298 101298 101298 101298 2.12553e+06 1.72961e+06 1.01269e+06
921331 2.93816e+06 2.1817e+06 1.61254e+06 2.55084e+06 101298 101298 101298 101298 101298
2.57362e+06 2.49305e+06 2.85308e+06 242885 288042 528542 619005 102252 102807 101317
101347 62458.7 64809.3 64443.9 62863.5 71467.3 70286.9 68604.8 69494.7 63616.8
65049.8 69705.5 68358.4 71749.9 70536 68387 66449.1 67419.2 68304.4 69539.3
102328 72235.3 71825 69863.8 72362.2 68351.5 65903.1 66688.7 68571.4 62134.2
61898 64147 64643.9 76299.2 74978.7 75570.4 59020.8 54336.4 52567 47727.1
48165.2 74978.7 255276 153465 409127 153465 91496.4 87908.7 1.626e+06 771238
771238 1.54389e+06 1.626e+06 153465 1.14678e+06 2.8046e+06 3.05592e+06 3.05592e+06 101298 47941.3
53893.3 53622.2 48233.5 109893 63797 63797 84873.3 83159.5 60059.8 66931.2
253902 201325 4.1742e+06 3.0277e+06 3.26566e+06 3.26566e+06 2.54026e+06 3.0277e+06 2.03102e+06 2.40495e+06
2.66493e+06 2.67148e+06 2.67148e+06 101298 101298 101298 101298 101298 101298 101298
101298 101298 101298 101298 101298 101298 101298 101298 101298 101323
101305 688325 480277 131660 176825 101298 101298 169757 102714 1.66683e+06
1.38952e+06 1.61137e+06 1.96991e+06 2.42004e+06 2.19499e+06 169757 328919 2.68014e+06 2.52454e+06 947358
1.32881e+06 139619 313803 158138 2.23612e+06 551270 1.01244e+06 109362 241533 589949
294112 278148 202149 1.07668e+06 420481 278148 2.36895e+06 2.20732e+06 1.95252e+06 1.59813e+06
102499 101323 101300 101299 101298 101298 101298 101298 101298 101298
101298 101298 101298 101298 1.79511e+06 1.42069e+06 1.42069e+06 1.95252e+06 105059 229691
208306 105044 107576 259441 1.08817e+06 139179 320101 208306 102654 102654
101372 101300 101329 102495 101298 101301 101298 101302 101298 101298
101298 101298 101298 101298 101298 101298 101298 101298 101298 101298
101298 101298 101298 101298 101358 101373 101415 101298 101298 101298
101298 101298 101298 101298 74115.1 85430 786683 393829 1.97523e+06 77008.2
3.53708e+06 2.52654e+06 3.06813e+06 101298 640588 526852 101298 101298 101298 1.6635e+06
149161 86773 167285 141782 76893 1.19442e+06 1.32886e+06 1.52971e+06 1.55214e+06 93508.8
202202 767443 684816 623014 662035 197918 961859 303730 1.25306e+06 223225
236177 101298 104979 102084 101298 101298 354086 611342 101298 101298
442407 448808 463885 123387 87054.7 85745 133039 310434 327414 235618
478043 1.90737e+06 2.5675e+06 2.45906e+06 2.61499e+06 701751 824759 1.12239e+06 1.04899e+06 101365
101352 101299 101298 101298 101298 101298 101298 59320.7 62342.5 63837.3
60262.8 70714.5 73218.2 70791.8 68507.9 62100.2 65336.7 74437.5 67766.7 71698.8
71632.1 74241.2 68357.4 70836.7 70836.7 70210.5 70210.5 72029.8 75523.3 71832.7
70748.4 73910.8 65943.7 68096.6 60714.8 56684.9 59310 62229.3 69680.4 64643.9
61613.5 61613.5 46462.6 52651 53693.8 47242 59842.7 60567.5 47803.7 54336.4
61652.3 72885.4 64368.2 74467.2 130164 407310 476691 205570 141769 84781.9
65531.4 63702.7 64434.9 64460.2 63237.1 64611.2 65000.6 65192.2 64055.5 70527.3
70138.4 70192.7 70519.7 66626.8 66232.1 65552.9 64405.4 66733.6 69454.1 67918.2
70988 70609.2 66463.3 71981.8 70339 70274.2 71498.3 70520 70275.2 70624.9
71231 71223.3 70842 71352.8 70330.5 68840.6 70304.2 70941.7 69887.3 71372.7
70905.7 71224.7 70276.3 71058.8 71930.4 71788.8 70751.1 66478.9 68024.2 71800.4
66886.1 65760.1 66517.9 66338.9 65151.4 65516.1 64469.8 63480.9 61219.8 76367.4
482318 1.3964e+06 66301.9 70432.3 69812.5 67921.3 70380.5 70952.5 70238 70240.2
70074.4 69796.4 69775.3 70614.1 69514.6 70988.4 70979.7 68501.6 72132.3 74673.4
68775.2 75225.9 75736.7 75498.6 74305.5 72202.5 67212 69552.4 66495.1 65358.1
69075.1 69040.1 69760.2 70183.3 70361.1 70365.3 70616.4 70385.4 71356.3 71263.5
71637.4 72100.1 71062.6 71708.7 71084.1 57158 54065.5 54120.5 57765.4 54191.7
53129.4 53129.4 53338.1 54191.7 67879.1 67879.1 71632.1 65369.7 67056.9 71317.1
74004.9 74004.9 74305.5 58906.8 54816.4 51688.1 49999.8 57158 53591.6 53591.6
57589.6 60462.3 68507.9 67879.1 46435.8 45620.2 48096.6 44961.7 56499.7 57372.3
45679.8 51369.9 59135.3 67542.7 65581.6 65027.4 61336.9 55753 68651.1 68200.1
68200.1 64511.2 64511.2 63802.5 63913.8 54949.8 52657.3 59912.4 74331.1 74331.1
124007 59912.4 65369.7 65943.7 51326.6 57201.4 63349.3 65041.3 62593.3 60767
49851.9 53946.4 89717.1 65272.4 65272.4 154368 89717.1 58113.2 48165.2 58380
58380 67212 63437.8 63437.8 60631.8 61151.1 57988.4 57124.7 58699.5 55498.9
65920.3 59139.6 59724.6 63321 63321 61915.1 61915.1 59382.3 58232.5 56254
55205.5 51682 63196.2 337067 902389 863567 316775 1.07972e+06 443050 360939
946849 64877.6 63668.5 53129.4 70156.8 70156.8 73196.9 73196.9 58405.1 58405.1
52862.4 123127 123127 63638.5 63638.5 77959.7 53602.5 57099.3 60689.5 60689.5
58358.5 58358.5 55292.1 52604 48239.7 53337.6 53337.6 53028.1 58405.1 57099.3
62593.3 517190 168799 489318 47111.9 47242 47111.9 224965 654732 555027
183542 51450 48909.1 58113.2 53028.1 58113.2 60631.8 848530 1.56768e+06 1.32525e+06
620806 989509 384572 109084 82454 53591.6 64877.6 581298 265062 96916.7
241020 49999.8 72278.3 72278.3 55919.3 45620.2 55919.3 53828.9 54342.2 47732
61915.1 53528.1 53528.1 53586.1 53149.7 56496.2 54101.3 52015.1 1.18938e+06 561740
916188 71863.5 56166.6 588057 168799 588057 48007 45120 49841.5 65329.3
47100.8 143072 109583 51713.3 56534.4 49973.3 49511.9 44051.8 1.27169e+06 1.46495e+06
1.77896e+06 1.77896e+06 2.06052e+06 1.46495e+06 80840.5 74331.1 350917 350917 266058 99364.6
1.0373e+06 1.60715e+06 1.06714e+06 558617 51326.6 49851.9 65272.4 312327 312327 805931
297799 56008.2 1.28942e+06 639329 90650.7 67227.2 73196.9 49019.4 49019.4 59954.3
56363.5 50672.9 59782.8 51384.5 51330.3 48219.5 53946.4 47771.5 47771.5 53946.4
195335 63547.7 117078 111359 112582 48772.4 47612.5 45244.6 63547.7 122928
122928 147897 444931 2.0464e+06 1.69664e+06 1.69664e+06 2.23335e+06 2.0464e+06 110846 771238
1.65009e+06 1.65009e+06 66981.4 66981.4 47732 67959 67959 48909.1 81371.9 81371.9
48909.1 1.11314e+06 181968 46884.7 111314 48127.8 53586.1 117078 204789 154578
162297 49636.9 45120 64762.4 67959 1.38548e+06 893598 49018.8 47659.6 66254.5
67396.3 72013.2 54375.5 54375.5 55808 55808 96005.8 56008.2 50672.9 56008.2
81371.9 51384.5 51330.3 72126.2 130277 157037 2.34834e+06 2.66033e+06 2.43135e+06 1.90906e+06
848530 1.83898e+06 1.83898e+06 1.11688e+06 265062 1.11688e+06 182340 2.71028e+06 2.25698e+06 2.32801e+06
1.0675e+06 584731 1.52233e+06 561740 1.52233e+06 123711 266015 260499 125720 412806
983200 983200 125720 48772.4 56908.9 56908.9 120682 47612.5 52021.4 52021.4
97981.7 80840.5 59782.8 80840.5 147897 50451.9 73140 85614.1 82454 322433
322433 82454 56166.6 56166.6 194607 194607 65728 100574 142919 1.80444e+06
853315 863119 1.66604e+06 800559 800559 716826 1.66604e+06 1.673e+06 1.63338e+06 946849
1.82455e+06 1.82455e+06 1.57718e+06 2.19497e+06 1.56883e+06 1.19872e+06 1.16189e+06 1.47825e+06 2.13313e+06 2.13313e+06
1.37807e+06 1.47825e+06 1.37451e+06 1.25164e+06 1.15333e+06 668400 875695 322706 500505 500505
259812 266015 140655 66981.4 108183 201311 311387 868895 183542 183542
211333 1.45156e+06 518438 641355 814449 1.77656e+06 2.1699e+06 1.32525e+06 2.1699e+06 1.75733e+06
1.1509e+06 2.10362e+06 2.18119e+06 1.33741e+06 916188 1.8749e+06 1.8749e+06 1.54574e+06 2.19497e+06 1.54574e+06
1.19872e+06 588057 2.15684e+06 162422 160538 275910 367072 209224 384572 384572
1.13006e+06 1.13006e+06 717040 717040 90650.7 90650.7 421821 421821 117082 2.34468e+06
1.85611e+06 1.91727e+06 2.65847e+06 2.64282e+06 2.45301e+06 658372 1.0373e+06 2.20306e+06 2.20306e+06 1.74666e+06
1.70913e+06 570096 235658 334295 155560 470380 2.22082e+06 1.67222e+06 2.2161e+06 2.53347e+06
2.53347e+06 1.66422e+06 2.2161e+06 312327 444931 1.69664e+06 2.38083e+06 2.38083e+06 1.24023e+06 1.54301e+06
889629 1.86334e+06 2.19499e+06 1.28942e+06 832607 832607 55808 250349 250349 617950
297799 297799 1.01702e+06 1.01702e+06 531080 352905 854743 270548 364654 674361
2.02276e+06 1.61646e+06 1.63991e+06 2.20673e+06 1.29079e+06 472413 251289 1.00905e+06 1.00905e+06 236237
605135 1.53914e+06 229658 871968 1.1429e+06 347332 1.82455e+06 1.27169e+06 1.77896e+06 2.32234e+06
2.32234e+06 2.59327e+06 760117 2.02186e+06 1.51152e+06 1.51152e+06 516640 2.13172e+06 2.28655e+06 1.03631e+06
464828 542669 1.16001e+06 3.73515e+06 2.38668e+06 1.56947e+06 694341 1.9656e+06 425828 260499
1.14007e+06 1.14007e+06 2.13946e+06 983200 1.14007e+06 620806 620806 1.96391e+06 2.22842e+06 812914
726732 599025 1.13241e+06 2.20484e+06 2.24634e+06 212898 467295 467295 147257 212898
1.65009e+06 2.13172e+06 939698 392088 1.01197e+06 1.01197e+06 732894 732894 1.29201e+06 1.84027e+06
1.84027e+06 1.16189e+06 500505 1.16189e+06 1.94454e+06 1.94454e+06 474514 1.21796e+06 2.26852e+06 1.30574e+06
2.60261e+06 2.7301e+06 2.77771e+06 2.25698e+06 2.77771e+06 1.64759e+06 2.5675e+06 2.45906e+06 639329 639329
1.64268e+06 2.14784e+06 2.12944e+06 2.12447e+06 1.25164e+06 2.05237e+06 2.05237e+06 1.25164e+06 1.23496e+06 1.09353e+06
1.70218e+06 346666 113091 158874 642587 383818 1.2397e+06 2.24157e+06 2.43135e+06 2.24157e+06
2.31079e+06 164161 644167 1.1601e+06 333872 2.58777e+06 2.63787e+06 902660 2.10362e+06 902660
1.8749e+06 1.52233e+06 649798 2.14962e+06 1.10773e+06 352905 1.26679e+06 1.26679e+06 1.73936e+06 1.11776e+06
1.64544e+06 1.64268e+06 2.13757e+06 2.13757e+06 2.16001e+06 1.8388e+06 1.13006e+06 2.03849e+06 2.14784e+06 717040
1.94454e+06 1.17952e+06 1.91769e+06 1.92977e+06 1.17979e+06 1.17979e+06 1.38933e+06 1.38933e+06 1.81297e+06 531080
1.5114e+06 1.5114e+06 2.12886e+06 364654 1.26567e+06 1.26567e+06 1.90178e+06 1.9763e+06 1.44053e+06 2.00855e+06
2.10325e+06 2.73441e+06 1.67766e+06 1.01702e+06 1.94458e+06 2.05237e+06 1.87953e+06 2.17907e+06 2.21343e+06 1.09062e+06
2.11919e+06 134961 140899 140899 102230 134961 2.20306e+06 2.22082e+06 927644 1.99185e+06
2.45219e+06 1.93554e+06 2.13843e+06 1.60569e+06 2.12896e+06 2.32715e+06 2.32715e+06 1.51152e+06 2.16001e+06 1.74498e+06
2.14536e+06 2.23177e+06 146594 569081 101367 105983 151148 102229 2.31656e+06 863336