/*--------------------------------*- C++ -*----------------------------------*\
  =========                 |
  \\      /  F ield         | OpenFOAM: The Open Source CFD Toolbox
   \\    /   O peration     | Website:  https://openfoam.org
    \\  /    A nd           | Version:  9
     \\/     M anipulation  |
\*---------------------------------------------------------------------------*/
FoamFile
{
    format      ascii;
    class       volScalarField;
    location    "0.00145";
    object      alpha.c4;
}
// * * * * * * * * * * * * * * * * * * * * * * * * * * * * * * * * * * * * * //

dimensions      [0 0 0 0 0 0 0];

internalField   nonuniform List<scalar> 
13417
(
0.297164
2.39289e-06
0.0113088
2.05362e-07
0.0018934
3.86401e-05
6.84991e-09
0.00116102
3.97818e-05
0.0231826
2.33967e-09
3.95059e-05
0.00018072
6.87195e-05
0.0393351
0.0276035
0.00454456
0.000134444
0.000247856
1.361e-06
2.50856e-07
0.00463317
0.00292512
0.000312538
2.12126e-06
9.77672e-06
1.66388e-05
5.2306e-08
8.19692e-12
5.16202e-08
2.15382e-13
0.080308
3.72176e-07
0.00726115
2.87801e-08
0.000836274
3.97507e-08
7.43439e-10
0.183815
0.0908501
0.128874
0.00348077
0.0130678
0.0590144
0.0148549
0.0481268
0.00495032
0.000793322
3.6851e-05
0.0027994
0.0119881
0.000213139
0.0333879
0.28599
0.261478
0.0113409
0.00966481
0.0934206
0.0815524
0.00373997
0.0271873
0.0115742
0.00129821
3.92131e-05
0.00629863
0.00130134
0.00828065
0.237649
0.115085
0.0078052
0.00203265
0.0686044
0.0258885
0.00378264
0.0460674
0.0390095
0.00024692
0.000134005
0.0140949
0.010091
0.00754216
1.01185e-05
6.69357e-08
0.000258348
0.0027616
0.00164905
1.17811e-05
0.243087
0.207537
0.260571
0.208534
0.177569
0.131354
0.157086
0.000190415
0.0358538
0.0270682
0.0663837
0.00277964
0.0186864
0.000624023
0.000644677
0.0316249
0.010666
7.46511e-05
3.14633e-06
0.00714917
0.00126029
0.0390224
0.00187516
0.00695808
0.000671695
0.00015347
0.0138967
0.00397725
0.282979
0.255785
0.253152
0.15774
0.184395
0.159835
0.181765
0.000410521
0.0743683
0.0124276
0.00105015
6.24875e-05
0.0167639
0.00339496
0.275747
0.232053
0.246276
0.152497
0.163394
0.141387
0.175661
0.153283
0.126965
0.104512
0.0893578
0.0677388
0.0563318
0.107856
0.172282
0.0590241
0.0850356
0.0511365
0.110398
0.0788361
0.0350998
0.0562945
0.0405374
0.0350819
0.0251491
0.0212517
0.0169792
0.0144123
0.208367
0.203322
0.175366
0.143054
0.122907
0.0982227
0.115269
3.12247e-07
0.00477076
0.000711415
9.56039e-08
1.24206e-09
0.00055997
4.44276e-05
0.178044
0.0927439
0.176415
0.102976
0.051089
0.104001
0.0507705
0.0357183
0.0170185
0.0262759
0.00967827
0.0154465
0.01046
0.00645006
0.00212112
6.04275e-06
1.52398e-09
0.00552828
5.07488e-05
0.000185123
2.41423e-08
0.15876
0.0895185
0.171017
0.0997187
0.0449925
0.0919561
0.0491977
4.33861e-05
0.00119783
0.00479463
0.00066495
9.11965e-05
0.0245152
0.0138369
0.050105
0.122441
0.102829
0.0706528
0.0383457
0.0326957
0.0844605
0.0158577
0.0413623
0.0254786
0.0236674
0.0134948
0.0155858
0.00835138
0.160591
0.0964324
0.136163
0.071294
0.0554477
0.0470285
0.0841158
0.00204079
0.000659238
1.0616e-05
4.04657e-05
0.00164154
8.62505e-05
2.53903e-08
0.0607972
0.0261574
0.0396641
0.0529712
0.0150633
0.0232853
0.0338369
0.00942908
0.0195447
0.0165419
0.00723866
0.00941697
0.00542383
0.00390924
0.138511
0.053067
0.112276
0.0378362
0.078836
0.0619598
0.0290284
0.00571053
1.68471e-08
0.000546848
0.00398267
0.000167338
0.00114159
2.63608e-07
0.0662523
0.0472689
0.0395894
0.0396276
0.0334188
0.0188848
0.0219886
0.0237762
0.010374
0.0207048
0.00427647
0.00928769
0.00786051
0.00356803
0.0457091
0.0270783
0.0267063
0.0239018
0.0237489
0.0125167
0.0126813
0.000112263
0.0144178
0.0119911
1.37326e-05
6.36009e-06
0.00406276
0.00328021
0.0798524
0.0386723
0.0941244
0.0344725
0.0339372
0.0810639
0.0925505
1.20658e-05
0.00677917
0.00128175
6.56471e-07
1.64467e-09
0.000592873
3.11978e-05
0.0448705
0.0314469
0.0113253
0.0231241
0.0198586
0.0267305
0.0534011
0.0315819
0.0288453
0.0629087
0.0429968
0.00972798
0.0207505
0.019492
0.076812
0.0370058
0.0811017
0.0293564
0.0325249
0.0701552
0.0888355
0.0583848
0.038153
0.0841502
0.0445147
0.0134724
0.0294198
0.0204855
0.043772
0.0217279
0.0251625
0.0204919
0.0228454
0.0117992
0.0101825
0.018869
0.0136492
0.0184366
0.00748568
0.00494221
0.0076723
0.00476445
0.0136696
0.00987813
0.00529744
0.00540324
0.00348646
0.00275387
0.00170197
0.0101032
0.00775771
0.0156078
0.00566833
0.00150666
0.00344654
0.00252823
0.0142211
0.0124058
0.0170336
0.0068648
0.00336689
0.00564606
0.00426277
0.0573497
0.0583762
0.050498
0.0203364
0.0265666
0.0233501
0.023141
0.0622084
0.0438125
0.0369703
0.0334232
0.0285255
0.0161082
0.0186987
0.0175785
0.00589236
0.0097037
0.00637396
0.0100444
0.00504267
0.00298
8.07419e-05
1.03098e-07
1.92981e-12
1.4145e-05
0.00113751
1.58203e-06
3.57495e-10
0.000244924
1.46549e-06
1.42756e-11
0.000582882
4.08996e-08
1.73722e-05
2.19701e-10
3.17378e-06
0.00966511
0.00252242
3.09203e-06
7.04925e-08
0.00252934
0.000518443
0.0685551
0.0242379
0.0592271
0.0453907
0.0205485
0.0179985
0.0525939
4.49611e-05
0.00695695
0.00213617
0.000520315
1.58509e-06
0.000130009
5.16225e-08
1.72111e-06
7.37856e-09
8.55501e-05
8.89808e-06
3.10134e-07
1.43972e-09
3.7633e-12
0.00944867
0.00222663
0.00777502
0.0015335
0.00577342
0.0047389
0.00119958
0.0168008
0.0234039
0.011738
0.016698
0.0123339
0.00784324
0.00541426
0.0170427
0.0109251
0.0241492
0.00950267
0.0207149
0.0121568
0.00578192
4.58764e-07
0.00607974
0.000423845
1.5356e-05
1.14144e-08
0.00171993
9.3235e-05
0.0276385
0.00785402
0.00738187
0.00599997
0.0127584
0.0126192
0.016868
0.0518655
0.0229747
0.011233
0.0256501
0.0226953
0.0524209
0.0254813
0.00666062
0.00266576
0.00513463
0.00299384
0.000923551
0.00197066
0.00158197
0.0310187
0.0477952
0.0413548
0.0163132
0.0135694
0.0118746
0.018593
0.000389518
2.7716e-06
2.22539e-11
1.6097e-05
0.00254626
4.06464e-09
0.000331426
9.0361e-11
0.000298295
6.6837e-06
1.95682e-10
4.17847e-13
1.20038e-05
2.9512e-08
0.0031924
0.00146692
0.00541573
0.0032736
0.000383912
0.00189552
0.000762223
0.0501297
0.0196879
0.0107916
0.0224915
0.021818
0.0458491
0.0246837
0.0128479
0.00273721
0.00656146
0.00396188
0.00838456
0.00397199
0.0015718
0.0374634
0.0164532
0.0330813
0.0136335
0.00777955
0.0156681
0.00670879
0.0104706
0.0044341
0.00686429
0.00228342
0.00405717
0.00256376
0.00133893
0.0263037
0.0121436
0.0224942
0.0101788
0.00584466
0.00518843
0.0116364
0.0377282
0.0103951
0.0229102
0.00832148
0.0180617
0.0103713
0.00482306
0.0832154
0.00940468
0.0212237
0.376116
0.216634
0.417949
0.142037
0.313533
0.0385957
0.0607932
0.0013777
0.0316238
0.107465
0.0187908
0.0640528
0.0043908
0.400911
0.391623
0.372296
0.339786
0.308296
0.288045
0.32045
0.34182
0.307091
0.344459
0.259317
0.255093
0.22181
0.292674
0.289898
0.181562
0.204862
0.12744
0.22431
0.204433
0.112494
0.0762127
0.125214
0.0900295
0.0702607
0.047319
0.0606666
0.0402443
0.257044
0.116773
0.150685
0.177186
0.0710164
0.144592
0.0926247
0.0568142
0.075928
0.0670839
0.0317133
0.0377205
0.0318202
0.0267183
0.242805
0.121691
0.21264
0.194334
0.12717
0.108731
0.223485
0.0842336
0.0395586
0.0576548
0.034657
0.0478063
0.0305551
0.0209886
0.168948
0.0706502
0.161727
0.107116
0.13729
0.0912336
0.196464
0.0274839
0.0475842
0.0420152
0.023555
0.012478
0.0155037
0.0195218
0.0779977
0.0728421
0.14189
0.127719
0.0342022
0.0695148
0.0644403
0.108385
0.0445586
0.040452
0.0280788
0.0857227
0.0579153
0.0530249
0.0373851
0.0104386
0.023294
0.0163764
0.032521
0.019845
0.00882955
0.00659433
0.0130987
0.0170176
0.014242
0.00352649
0.00540768
0.0108469
0.0188178
0.0129998
0.0258241
0.0150765
0.00445046
0.0103198
0.00663114
0.0103958
0.00235316
0.00470056
0.00239162
0.00668416
0.00382546
0.0076973
0.00391821
0.00119454
0.00262902
0.000551332
0.00128814
0.000757876
0.000298301
1.0714e-05
0.000569407
0.00238453
1.55358e-08
3.52984e-10
0.000157506
2.25977e-05
0.0314231
0.0137227
0.0228916
0.00720525
0.0119864
0.019795
0.0363984
0.0161731
0.0187093
0.0385857
0.0294292
0.00559536
0.0119028
0.0140371
0.00578154
0.00138863
0.00300941
0.000774367
0.00181935
0.000863078
0.000346366
0.0175134
0.00608527
0.0151107
0.00812196
0.00347812
0.00305705
0.00928004
0.00470309
0.00223259
0.00185398
0.00173258
0.00141866
0.000594836
0.000469017
0.00391586
0.00255703
0.000693809
0.00214018
0.000308949
0.000663406
0.00127145
0.0202559
0.0133149
0.0098054
0.0108759
0.00366797
0.0078381
0.00524621
0.0161722
0.00472381
0.00762857
0.00534816
0.00839222
0.00342653
0.00202426
0.0240181
0.010824
0.0205771
0.00851991
0.00479872
0.00421367
0.00978374
0.00284244
0.00282182
0.00164318
0.0013041
0.000714658
0.000655616
0.000331804
0.0212238
0.0153613
0.0133275
0.00895699
0.00780941
0.0046559
0.00536578
0.00355529
0.00461602
0.00396378
0.00210836
0.00171238
0.00237172
0.000936436
0.000658704
0.00118903
0.00286795
0.00234423
0.000153604
0.000497706
0.000948766
0.00678148
0.0080786
0.0143447
0.00678105
0.00175082
0.00353748
0.00332109
3.2772e-07
1.39275e-09
2.92734e-12
6.95503e-13
5.33764e-10
3.53667e-07
4.0058e-12
0.0203144
0.00463819
0.00356112
0.00593423
0.00783491
0.0127983
0.00954072
0.000357561
0.000156597
0.000941907
0.000134994
0.000765692
0.000404854
5.16496e-05
0.00703376
0.00233125
0.00933972
0.00241115
0.00201
0.00822459
0.00801271
0.00232261
0.00247025
0.0041264
0.00146342
0.000322006
0.000770566
0.00069533
0.00466706
0.00400998
0.00980461
0.00539724
0.000918429
0.00201541
0.00260531
0.00711793
0.0061359
0.0131482
0.0055737
0.00126793
0.00277529
0.00259551
0.00343229
0.000777903
0.00130947
0.000558852
0.000979652
0.000304109
0.000157683
0.0141634
0.0127577
0.0125388
0.00390437
0.0045475
0.00398729
0.00445359
0.0132318
0.00393227
0.0114752
0.00615261
0.00226909
0.00195069
0.00707566
5.53845e-07
0.00145562
0.00112076
1.91496e-10
6.49379e-11
2.08987e-05
8.64128e-06
0.00458078
0.0114186
0.0113363
0.00513502
0.00173329
0.00170002
0.00521127
0.00160474
0.000329259
0.000141522
8.66781e-05
0.000903391
0.000300062
0.000624049
0.00320079
0.00234716
0.00527853
0.00230672
0.000423093
0.00084423
0.00127887
0.00434374
0.00970251
0.0108809
0.00481037
0.00130536
0.00157096
0.00409811
0.0041739
0.00890906
0.00774792
0.00253186
0.00146741
0.00125952
0.00293515
0.00658673
0.00406233
0.00868392
0.00229612
0.00508283
0.0029813
0.00129884
0.0134823
0.0105922
0.0119324
0.0036717
0.00365505
0.00318629
0.00419612
0.00280931
0.00413913
0.00159419
0.00320689
0.00111774
0.00179123
0.000571257
0.00618755
0.00326786
0.0029332
0.00275077
0.00245963
0.00104903
0.00117824
0.00547308
0.000978319
0.00439795
0.00175492
0.00381737
0.00149911
0.00626596
0.00084835
5.0476e-06
1.87306e-09
7.29445e-06
3.97305e-09
2.71323e-08
3.53234e-13
0.000622564
0.000635641
0.0014347
0.000362689
3.93152e-05
0.000130297
0.000127105
0.00412003
0.00160581
0.00058659
0.0021793
0.00193425
0.00140981
0.00465597
0.00149903
0.000363868
0.000831585
0.000128866
0.000331045
0.000137708
4.62087e-05
0.00130279
0.000587368
0.00106775
0.000400419
0.000792524
0.000370573
0.000157996
0.00849692
0.00732771
0.00330129
0.00316143
0.0026513
0.00120972
0.000974959
4.99187e-09
0.000824219
0.000131224
2.6173e-11
8.13133e-13
3.87311e-06
7.51689e-08
0.00780049
0.00198618
0.00560956
0.000946015
0.0030852
0.00205017
0.000596191
8.42e-10
0.000611609
2.34466e-05
1.59817e-10
1.96791e-13
7.8616e-06
7.61665e-09
0.00109941
0.000243193
0.000134961
0.000119438
0.000313517
0.000582747
0.00053033
0.00248628
0.000671362
0.000232355
0.00136693
0.000648088
0.00255758
0.00130893
0.0013999
0.000293963
0.00078799
7.69232e-05
0.000259661
0.000122263
3.24321e-05
0.00856227
0.00400031
0.00842676
0.00253283
0.00112191
0.00258672
0.00109591
0.00849939
0.00694039
0.00606189
0.00285164
0.00246793
0.00166931
0.00195227
0.00536549
0.00278261
0.00247066
0.00217913
0.00191545
0.000782462
0.000895356
0.000490894
0.000332979
0.000209085
0.000173552
9.5958e-05
6.48699e-05
2.37908e-05
0.0022511
0.000442566
0.000193456
0.000867993
0.000574144
0.0018083
0.00114587
0.00463681
0.000491427
0.00152341
0.00254926
0.00124844
0.00546265
0.00212873
0.0024869
0.00339304
0.00742862
0.0039756
0.000487982
0.00121093
0.00177125
0.00269726
0.0023041
0.00503806
0.00159284
0.000306001
0.000667853
0.000776501
0.0028446
0.000627924
0.00119882
0.000663534
0.0013259
0.000471354
0.000210024
0.00400207
0.0024055
0.00154679
0.00131032
0.00198108
0.000681678
0.00041293
0.00205359
0.000874313
0.00163797
0.000177342
0.000481577
0.000362242
0.000122894
0.00706498
0.00377827
0.00800935
0.00237139
0.000840863
0.00203346
0.00101176
0.000546254
0.000393625
0.000265444
0.00017092
0.000104966
6.61789e-05
2.20803e-05
0.00424414
0.00101204
0.00203324
0.000814555
0.0016848
0.000703805
0.00032204
0.000172298
4.46535e-07
3.0756e-12
2.7242e-11
3.95212e-06
2.86289e-13
4.7874e-10
0.000140565
5.22801e-05
0.000423508
0.000165191
2.79308e-06
1.47059e-05
4.91067e-05
0.00356054
0.000565329
0.00104601
0.000332944
0.0024383
0.000905007
0.00159015
0.0027761
0.000403585
0.000373996
0.000600804
0.00129759
0.000918519
0.00133024
0.00303385
0.00102752
0.00157119
0.000344398
0.000877143
0.00136241
0.00348759
0.000739769
0.000139764
0.000596649
2.17864e-05
0.000150695
0.000110947
1.41022e-05
0.00184647
0.000195867
0.00066733
0.000303478
0.00098647
0.000320423
8.14418e-05
0.001232
0.000255796
0.000612708
0.000131022
0.000376346
0.000168974
4.56006e-05
0.00359767
0.000769398
0.00165839
0.00055054
0.00125076
0.000500643
0.000208174
2.20935e-05
1.05776e-09
1.16527e-12
2.20459e-09
5.71474e-12
1.58038e-12
3.31629e-13
0.000107747
4.18056e-05
0.000313375
0.000145502
2.36145e-06
1.303e-05
4.20565e-05
0.00119391
0.00215797
0.00364247
0.00122503
0.000163848
0.0003319
0.000669346
0.00028732
0.000549869
0.00125489
0.000756721
3.32941e-05
0.000157297
0.000290046
0.000401827
3.37104e-05
0.000304503
6.99192e-06
9.98147e-05
7.08579e-05
4.12437e-06
0.000548942
0.00276265
0.00237985
0.00132909
0.000323267
0.000259677
0.0015593
0.00239604
0.000412283
0.000848901
0.000418684
0.000913883
0.00026764
0.000112604
0.000425412
0.000248042
0.000174146
5.88639e-05
3.7195e-05
1.64589e-05
9.68397e-06
0.00442482
0.0021669
0.00383418
0.000974505
0.000590654
0.00048407
0.00115921
0.00559745
0.00170728
0.00391896
0.000602592
0.00153893
0.00100405
0.000361586
0.000897989
0.00148252
0.000478695
0.000774469
0.000411563
0.000219714
0.000103339
0.0020724
0.00108743
0.00094214
0.000666614
0.000565941
0.000218892
0.000263546
0.000147674
0.000126456
0.000374098
4.55866e-05
2.47471e-06
1.29222e-05
1.04053e-05
0.00111342
0.000647864
0.000277719
0.000224618
2.76501e-05
0.000115559
6.61997e-05
0.00140081
0.000459099
0.00125395
0.000386872
0.000137445
0.00011763
0.000440194
0.000237414
2.1573e-05
7.16822e-05
8.93003e-06
3.49532e-05
6.80872e-06
1.26635e-06
0.000221708
8.43555e-05
0.000402373
6.46192e-05
2.35406e-06
2.86899e-05
6.77842e-06
0.000212499
0.000923956
0.000815255
0.000301146
7.24435e-05
5.9664e-05
0.000345496
0.00194356
0.000195148
0.00019513
0.000355464
0.000528473
0.000860039
0.000838
8.93893e-05
1.67614e-05
0.000185783
3.88325e-05
5.49548e-07
1.57658e-05
1.76285e-06
0.000298339
0.000601734
0.00148569
0.000802004
3.55419e-05
0.000132122
0.000299434
0.00133355
0.00100795
0.00242416
0.000555988
7.45658e-05
0.000257107
0.00018035
0.00115877
0.000370145
0.00102381
0.000280743
9.62746e-05
7.98861e-05
0.000325902
0.000132834
0.000105639
3.89448e-05
4.13734e-05
1.18494e-05
1.05305e-05
2.20127e-06
0.000222986
5.7225e-06
3.51464e-06
0.000102104
7.99975e-05
3.19401e-05
1.0743e-06
1.80963e-08
9.49082e-11
6.61798e-13
8.38886e-11
1.4043e-13
1.67784e-12
6.9778e-14
0.000240272
0.000229266
0.000521008
0.000158717
1.42306e-05
5.97373e-05
5.31558e-05
0.000230962
1.75658e-05
6.16835e-05
8.3459e-06
3.39566e-05
5.48254e-06
9.39434e-07
0.000109893
3.71317e-05
9.35136e-05
5.80288e-06
1.71935e-05
4.08395e-06
1.24607e-06
0.00132461
0.000241572
0.00059298
0.000118682
0.000335296
0.000120424
3.71618e-05
0.0014298
0.000442409
0.000429978
0.000329291
0.000319056
6.432e-05
6.7614e-05
0.000287888
0.000371544
0.000284929
0.000110899
8.08348e-05
0.000102556
2.46238e-05
0.000957895
0.000171942
0.00116511
0.000140717
0.000133266
0.00098774
0.00113199
0.00116712
6.9209e-05
0.000335794
0.000132001
0.000575092
0.000152865
2.38722e-05
1.13777e-13
9.26183e-07
3.09712e-10
1.8545e-13
3.58051e-14
2.33817e-09
7.37264e-13
5.26081e-05
4.63547e-07
2.56798e-06
4.89478e-07
3.1107e-06
1.32545e-05
1.28052e-05
0.000405077
2.88523e-05
1.15985e-05
4.94819e-05
7.37123e-05
0.000194505
0.000129586
0.000657808
3.21877e-05
0.000343057
0.000131705
0.000102474
0.000280718
0.000784123
8.87501e-05
5.12325e-05
0.000239081
9.82611e-05
2.0962e-06
1.61482e-05
2.68949e-05
0.000123388
0.000198495
0.000472392
0.000138871
7.03614e-06
5.19603e-05
2.7843e-05
0.000876209
0.000149684
0.000865054
8.41083e-05
0.000114508
0.000719328
0.00104163
0.000127213
0.000235512
0.00053512
0.000189258
9.31761e-06
3.21644e-05
7.43155e-05
0.000402578
0.000300035
0.000854576
0.000249948
2.46119e-05
7.01646e-05
0.000104661
0.000793341
0.000103427
0.000234152
7.93875e-05
0.000194887
4.14429e-05
1.35773e-05
0.00133081
0.00030845
0.000387622
0.000225205
0.000285981
5.47491e-05
3.92246e-05
6.17146e-10
1.18407e-08
5.28699e-09
4.74843e-06
4.75995e-09
1.09364e-11
1.62155e-10
2.79378e-13
1.0982e-05
1.05253e-05
2.46065e-06
1.44757e-06
2.92177e-07
2.94841e-07
5.57458e-08
0.000311853
7.80266e-05
0.000513661
0.000128369
4.33583e-06
6.83227e-05
1.06569e-05
0.000640393
0.000108904
0.000551628
0.000189972
3.38025e-05
2.62081e-05
0.000225829
0.000124762
0.000901586
0.000728567
3.01304e-05
0.000264872
0.000200512
2.01638e-05
0.000119672
9.76354e-05
0.000283409
6.78048e-05
2.80299e-06
2.23186e-05
1.31208e-05
9.95918e-05
3.73696e-06
3.61693e-05
6.02512e-07
9.56045e-06
2.3477e-06
1.23476e-07
7.91884e-05
1.05613e-05
5.21845e-05
5.12218e-07
3.44808e-06
1.94419e-06
2.79526e-07
2.9867e-05
0.000113405
4.73022e-05
2.49648e-06
1.55927e-05
3.90244e-06
3.63243e-07
0.000234016
0.000296217
0.000672756
0.000170359
1.30393e-05
4.373e-05
6.18028e-05
0.000117992
4.22158e-05
0.000150566
8.95132e-06
5.07884e-05
1.84895e-05
2.23324e-06
0.000449395
0.000131178
0.000385299
6.73736e-05
2.04835e-05
1.55719e-05
8.39413e-05
0.000178647
0.00025371
0.000169599
6.69191e-05
3.94521e-05
5.64378e-05
1.01995e-05
3.16867e-05
3.83171e-06
2.67429e-05
0.000116557
2.268e-05
2.86801e-06
2.57031e-07
0.000620831
5.01653e-05
0.000507193
0.000299591
3.31307e-05
2.32239e-05
0.000374388
1.51616e-10
1.81e-13
1.71291e-13
7.65237e-14
3.81461e-12
4.03761e-13
1.90372e-14
1.484e-06
1.07278e-05
3.73548e-05
9.62903e-06
4.99725e-08
2.55817e-07
2.20771e-06
6.67087e-07
4.05362e-06
2.18994e-05
7.77158e-06
2.76484e-08
1.9663e-07
1.27302e-06
0.000552039
6.35948e-05
1.26232e-05
0.000191825
5.95937e-05
0.000572127
0.000183639
3.3954e-05
3.25209e-07
9.73948e-06
1.30958e-07
4.72136e-06
1.05153e-06
2.54943e-08
2.9849e-05
2.99829e-07
9.06325e-06
2.03607e-07
6.27346e-06
1.25658e-06
2.96188e-08
4.74456e-05
2.32655e-06
1.15934e-05
4.36705e-07
2.75494e-06
4.14076e-07
6.02226e-08
0.000521452
0.000208845
0.000117696
0.000149391
8.11161e-05
2.24431e-05
9.94284e-06
0.000377774
1.31174e-05
4.42425e-05
1.07332e-05
4.75538e-05
0.000125961
0.000149793
0.000496513
3.47171e-05
9.98486e-06
0.000121789
4.97213e-05
0.000395874
0.000160712
4.55963e-05
9.84073e-05
0.000256146
5.99157e-05
1.12408e-06
6.29784e-06
1.84391e-05
5.62185e-05
0.000126604
0.000337613
0.000107423
2.38842e-06
1.16919e-05
3.44294e-05
4.19608e-06
3.48917e-06
1.34517e-06
4.18254e-07
1.13291e-07
1.41328e-07
1.05322e-08
9.13489e-06
1.55977e-05
8.31483e-05
2.99334e-05
1.07842e-07
2.18461e-06
3.79114e-06
9.14899e-06
4.63877e-06
2.56924e-05
7.90463e-07
3.18043e-08
2.32879e-07
1.09663e-07
8.97786e-05
1.49245e-05
2.34484e-05
1.07238e-06
1.84995e-05
1.14323e-05
0.000106456
3.02497e-05
1.20737e-06
8.5443e-06
2.3198e-07
1.88448e-06
2.84293e-07
2.85726e-08
8.43337e-05
7.25509e-05
0.00023266
3.38361e-05
1.27206e-06
6.63916e-06
8.72584e-06
0.000283614
2.10301e-05
5.5016e-05
1.19648e-05
3.53618e-05
3.35134e-06
8.45416e-07
3.89836e-05
6.47509e-05
2.64731e-05
1.15951e-05
3.35835e-06
6.67782e-06
5.62017e-07
5.00948e-07
9.35336e-07
1.44638e-05
8.9954e-06
1.31026e-08
2.76828e-07
5.26643e-07
2.96327e-06
1.13714e-05
6.30609e-05
4.29727e-05
1.42511e-07
1.71382e-06
6.67937e-06
0.000145128
1.20251e-05
7.52619e-05
2.00851e-06
7.98417e-06
5.58275e-05
0.000186933
1.90878e-05
7.5675e-05
0.0002675
0.000148181
1.13937e-06
7.8991e-06
3.70404e-05
0.000162262
5.00486e-06
7.18693e-05
1.34666e-06
3.00151e-05
1.0638e-05
3.26198e-07
7.48833e-06
0.000124491
9.87946e-05
2.72059e-05
1.75303e-06
1.13366e-06
3.58251e-05
0.000110743
1.90259e-05
0.000105252
7.1209e-06
5.90003e-07
7.7762e-06
5.23587e-07
2.7801e-05
8.81969e-05
2.4616e-05
2.62885e-06
1.79958e-05
3.70878e-06
2.56818e-07
3.45122e-05
3.73228e-05
0.00013316
4.93711e-06
2.82584e-05
4.96037e-06
4.67854e-07
6.98664e-05
1.08815e-06
1.46855e-05
1.35963e-06
1.8295e-05
2.6863e-06
8.73384e-08
2.02788e-06
8.81459e-09
6.40547e-09
6.0638e-08
4.52883e-08
4.17219e-07
3.08918e-07
3.47962e-05
2.72184e-07
5.76048e-07
1.00831e-06
9.50367e-06
3.86084e-06
6.47171e-06
2.04511e-06
3.54458e-06
1.58744e-05
7.82767e-07
7.52378e-09
5.76737e-08
1.12551e-07
2.0464e-05
1.24135e-05
6.00926e-05
5.37082e-06
6.86686e-08
4.36464e-07
1.18212e-06
6.33477e-05
1.45148e-05
8.92609e-05
5.49173e-06
2.0358e-07
3.32832e-06
3.75089e-07
8.87616e-05
3.5829e-06
1.91945e-05
1.99968e-06
1.38448e-05
1.64551e-06
1.31866e-07
2.39241e-05
0.00271307
2.03115e-11
1.09959e-05
4.27536e-05
1.7626e-09
0.005906
0.000362257
0.000188171
2.16082e-08
0.00019129
3.17452e-06
1.00359e-10
3.2145e-08
9.54427e-07
4.35238e-06
9.82691e-11
0.00522358
0.00191351
0.00238176
0.00203491
0.00163765
0.000637507
0.000523541
0.00405591
0.000937337
0.00150019
0.000763871
0.00121363
0.000363769
0.000208877
0.00041087
0.000826412
0.00158548
0.000505257
0.000239489
9.91036e-05
3.80883e-05
1.16818e-06
1.37239e-09
1.63625e-12
3.04989e-12
7.08783e-09
7.15791e-12
4.65868e-13
0.000765148
0.000144198
0.000629203
2.20255e-05
0.00015788
0.000120952
1.47168e-05
4.20568e-05
0.000446684
5.71886e-05
7.18557e-06
0.000107219
8.11255e-05
4.66726e-06
0.000159012
7.58483e-05
0.000385889
3.21901e-05
9.83882e-05
1.13545e-05
2.44308e-06
0.000138435
0.000246924
2.45193e-05
4.9265e-05
8.54994e-07
2.32087e-05
2.30285e-06
0.000254351
8.88438e-05
0.000438682
7.47756e-05
2.73766e-06
3.61189e-05
7.42145e-06
0.00135088
0.00711921
0.028903
0.000258468
0.00612494
0.0978995
0.0140309
0.0137733
0.000800682
0.00213946
0.00381902
2.94911e-06
0.00173636
0.00252898
0.0115127
0.000121954
0.00358268
0.0891887
0.0545824
0.055734
0.049812
0.0503248
0.029635
0.0267394
0.0515998
0.0722108
0.0404394
0.0282307
0.0402156
0.0213636
0.0149609
0.0209608
0.0187641
0.0336952
0.0180099
0.0108705
0.00945448
0.00558464
0.0287698
0.0126787
0.0262193
0.00663527
0.0148521
0.0133262
0.00585185
0.0291617
0.0120887
0.0260457
0.00641959
0.0147553
0.0131075
0.00555168
0.0151622
0.0101644
0.0212679
0.0105625
0.0030062
0.0072965
0.00452037
0.0140778
0.00926093
0.0204891
0.0102292
0.00265408
0.00693105
0.00415721
0.000333408
0.000597797
1.19006e-06
2.12527e-07
0.000124187
2.43309e-06
1.96161e-10
0.00738926
0.0067861
0.012649
0.00347296
0.00629991
0.00311099
0.00160872
0.00443926
0.00584579
0.00974723
0.00174484
0.00449025
0.00253214
0.000904108
0.00870871
0.00189922
0.00501931
0.00147476
0.00417936
0.00230474
0.000732671
0.00260829
0.00255413
0.00680204
0.00595222
0.000654915
0.00214922
0.0022159
0.000946449
0.0020058
0.00412302
0.00177705
0.000807191
0.000744193
0.000297418
0.000615409
0.00330399
0.00131737
0.00130881
0.000174334
0.000420058
0.000606733
0.00271659
0.000398408
0.000916119
0.00116049
0.000126654
0.000327777
0.000524752
0.00454152
0.00100025
0.000938567
0.000452575
0.00297365
0.00154689
0.00161854
0.000533287
0.000491491
0.00169817
0.000866677
4.64532e-05
0.000225235
0.000251815
2.5231e-05
0.000378535
9.81955e-05
0.000986475
0.000379257
0.000311313
9.93018e-05
0.000819724
0.000251841
8.84838e-05
6.06801e-05
0.000246756
8.54141e-05
1.5613e-05
0.000149956
4.40418e-05
0.00023061
3.90518e-05
0.000208837
6.84352e-05
8.88738e-06
0.000397267
2.73194e-05
3.34084e-05
1.38034e-05
8.8121e-05
0.000102849
0.000161437
3.72544e-06
2.33502e-05
6.36472e-05
2.42948e-07
8.33875e-06
2.21856e-06
5.51674e-08
4.75625e-05
1.58582e-05
0.000122295
7.44454e-07
1.33954e-05
3.679e-06
1.60257e-07
2.52611e-06
3.99946e-06
2.38279e-05
3.07397e-05
3.68277e-06
0.000114123
2.25683e-05
1.38616e-05
7.76974e-06
5.45239e-05
5.53063e-06
7.96409e-07
3.49486e-07
3.62356e-08
3.97784e-08
8.0237e-06
4.06883e-07
6.18477e-06
5.41738e-05
1.34675e-05
8.47253e-07
1.61711e-05
8.72862e-08
1.09129e-06
9.42256e-06
7.17548e-05
1.67574e-05
1.1721e-06
4.70097e-07
8.95195e-07
1.46909e-05
9.72761e-06
1.25341e-08
5.30769e-07
2.82779e-07
1.28636e-07
8.7408e-07
1.44399e-05
7.48277e-07
3.80626e-09
2.74274e-08
1.1333e-07
1.32539e-06
1.97892e-07
6.55007e-06
4.5272e-07
1.57996e-09
1.04121e-08
7.08963e-08
3.05167e-07
5.24513e-08
2.05738e-06
1.78623e-07
5.18848e-10
4.00814e-09
2.37598e-08
2.28894e-06
7.92963e-09
3.81897e-07
7.33373e-09
3.62895e-07
5.26253e-08
1.04865e-09
2.56943e-06
1.19812e-05
4.82539e-05
1.17005e-05
4.48971e-08
3.39649e-07
2.28627e-06
4.09426e-06
6.53816e-08
3.28646e-08
5.18118e-09
1.34332e-06
1.10944e-07
2.16461e-07
1.97811e-06
1.00695e-05
7.21331e-07
4.24834e-07
2.64243e-09
1.997e-08
5.86512e-08
6.55456e-05
5.72225e-07
3.21212e-07
3.90658e-06
2.42503e-06
2.24218e-05
1.40241e-05
5.12076e-05
1.00526e-06
3.5367e-07
2.02447e-06
8.7994e-06
5.02522e-06
1.66466e-05
5.35512e-08
3.31187e-07
2.12108e-06
2.29754e-07
6.80419e-10
5.01634e-09
3.20927e-08
5.00778e-05
5.5158e-06
1.18295e-05
2.9357e-07
3.88849e-06
8.80387e-06
6.20054e-05
4.39399e-05
1.30243e-06
1.23428e-05
3.85186e-07
5.58912e-06
8.80428e-07
3.61568e-08
7.68927e-08
4.32514e-08
5.41576e-09
2.34245e-07
1.2749e-07
4.8683e-06
1.80049e-06
2.28622e-05
2.48805e-07
9.14239e-07
5.61661e-08
9.46227e-06
7.44294e-07
2.85867e-06
2.11471e-07
3.01619e-07
1.93439e-06
4.85083e-08
6.26231e-10
4.61169e-09
6.71326e-09
2.3679e-06
6.87888e-08
4.81536e-07
7.33039e-09
5.30904e-08
1.01622e-08
1.40604e-09
3.60541e-05
1.30826e-06
1.63015e-05
8.24413e-08
1.52912e-06
5.36772e-07
2.57134e-08
7.38574e-06
1.16445e-06
2.62413e-05
2.88351e-06
1.05284e-08
6.51191e-08
5.78202e-07
1.27574e-07
8.27196e-09
4.40914e-07
8.8719e-08
4.76314e-10
2.52922e-08
1.69461e-09
1.22949e-06
3.84215e-05
3.61419e-05
3.37646e-06
7.35262e-08
6.6026e-08
3.70155e-06
2.96638e-05
1.28403e-07
4.12946e-06
2.17113e-07
6.42098e-06
5.4238e-07
1.07933e-08
5.24588e-07
9.0466e-07
5.48648e-06
2.20877e-07
2.29743e-08
1.2982e-08
1.173e-09
3.24517e-14
2.65299e-13
1.48778e-11
4.5571e-14
2.9092e-13
4.84535e-14
3.90413e-15
8.62749e-06
4.6533e-08
1.44085e-08
8.40329e-08
3.68477e-07
1.78609e-06
6.58643e-07
2.03203e-06
2.1745e-08
1.11844e-06
8.42626e-09
4.25424e-07
2.29465e-07
4.46372e-09
2.54038e-05
8.7069e-08
2.01234e-07
6.21787e-07
1.3651e-06
3.57289e-06
6.46037e-06
2.15503e-06
5.65432e-08
4.19499e-07
6.50522e-09
4.77569e-08
8.68009e-09
1.12515e-09
9.29097e-07
2.06844e-05
3.00367e-05
2.5906e-06
2.81319e-08
4.88421e-08
1.56826e-06
1.90909e-05
3.10687e-07
2.4653e-06
1.12399e-07
1.10189e-06
6.50596e-08
5.77071e-09
2.85519e-07
3.21526e-07
5.08076e-06
5.44383e-10
1.55323e-08
3.73802e-07
1.35098e-08
3.5487e-10
1.51404e-07
1.03196e-08
2.93115e-07
3.20646e-06
1.52554e-07
1.03797e-08
1.71354e-07
2.01283e-06
6.85556e-08
3.19902e-09
2.19267e-10
1.16828e-07
8.00559e-09
1.99431e-10
5.15833e-09
1.86765e-07
1.06246e-07
2.20497e-06
7.39411e-08
2.95697e-09
6.87424e-09
4.66373e-09
1.65109e-07
3.05958e-09
7.24891e-08
1.05716e-07
2.05596e-06
1.54074e-08
7.6667e-09
3.31144e-07
6.60339e-08
7.13077e-11
1.50065e-09
3.05288e-09
1.86931e-08
7.19438e-08
8.27087e-07
1.15799e-07
1.69759e-10
8.23447e-09
2.42944e-09
5.19969e-06
1.90922e-07
9.61014e-09
9.01133e-07
5.84693e-07
1.19622e-07
7.37148e-06
5.51347e-06
5.53215e-08
1.06138e-06
9.00612e-09
1.90426e-07
2.42737e-08
1.02736e-09
1.11383e-05
8.57848e-08
4.52014e-06
1.23081e-08
7.21632e-07
2.53655e-07
4.13231e-09
6.5921e-08
2.29192e-07
3.05563e-06
7.62528e-07
8.48236e-10
1.45807e-08
4.79421e-08
1.37598e-09
9.58766e-09
6.79582e-08
8.99209e-09
2.59118e-11
1.81765e-10
1.25464e-09
5.35107e-07
6.73612e-07
6.10674e-06
3.8222e-07
6.21799e-10
1.92558e-08
1.44858e-08
1.55363e-06
3.44842e-07
5.76293e-06
1.47995e-07
1.38208e-09
3.30381e-08
6.44468e-09
3.42469e-08
3.11706e-08
4.48643e-07
7.24841e-10
1.11588e-08
8.06991e-10
5.24044e-11
1.13489e-07
8.26033e-08
2.18161e-08
8.1823e-09
2.38224e-09
1.69738e-09
1.68909e-10
1.96614e-10
4.49619e-10
4.21406e-09
1.90026e-07
2.0557e-08
8.77944e-09
8.84975e-10
4.13119e-11
4.34087e-10
1.4712e-08
4.53688e-08
4.52134e-07
1.33981e-08
1.28985e-09
1.49227e-06
1.45115e-09
8.77788e-08
3.32817e-09
2.0541e-07
1.06403e-08
1.69813e-10
1.83554e-06
4.33199e-09
2.69193e-09
2.40249e-08
1.77899e-07
3.35782e-08
2.7449e-07
9.11264e-08
2.07043e-07
2.94884e-06
2.32289e-07
1.99176e-10
1.0876e-08
4.64751e-09
2.43977e-08
1.15328e-08
2.56159e-07
2.89385e-10
6.46151e-09
5.8854e-10
2.67764e-11
6.98023e-09
8.61269e-10
1.41032e-07
4.21129e-10
3.31416e-09
1.62677e-10
2.06317e-11
4.14021e-09
2.50002e-09
4.47454e-10
1.94275e-08
1.13683e-08
4.99655e-07
1.10462e-07
0.0794199
3.34949e-07
0.059309
2.87056e-10
0.000206301
0.0595626
0.000241298
0.0125612
0.00301258
0.00305926
0.0125419
0.000246071
0.0214097
0.00341985
0.000768481
0.071842
0.00307098
0.0199738
0.000709711
0.0595742
0.0423321
0.0423625
0.0266413
0.0268026
0.0179783
0.0179092
0.0592083
0.042219
0.0423511
0.026518
0.0267787
0.0179574
0.0178008
3.16041e-08
5.96178e-05
0.0058556
0.00584465
6.11856e-05
0.000208541
3.33085e-08
0.00442183
0.000207998
0.00125222
0.00445283
0.00019585
0.00130842
3.6203e-07
0.0247308
0.0125932
0.0247688
0.00985836
0.00454768
0.0046039
0.00976729
0.0125784
0.0247538
0.0247586
0.00986566
0.00456287
0.00981625
0.00460517
0.0682505
0.0782908
0.0672987
0.0276018
0.0320285
0.0315185
0.028019
5.22621e-08
2.11866e-05
0.000647639
0.000686582
5.63574e-08
2.20182e-05
3.0354e-10
0.0100462
0.00309621
0.0102264
0.00624362
0.00165876
0.00170907
0.00613117
0.00310862
0.0101453
0.0102501
0.00625974
0.00168664
0.0061998
0.00171614
0.0756132
0.0619198