/*--------------------------------*- C++ -*----------------------------------*\
  =========                 |
  \\      /  F ield         | OpenFOAM: The Open Source CFD Toolbox
   \\    /   O peration     | Website:  https://openfoam.org
    \\  /    A nd           | Version:  9
     \\/     M anipulation  |
\*---------------------------------------------------------------------------*/
FoamFile
{
    format      ascii;
    class       volScalarField;
    location    "0.0028";
    object      alpha.c4;
}
// * * * * * * * * * * * * * * * * * * * * * * * * * * * * * * * * * * * * * //

dimensions      [0 0 0 0 0 0 0];

internalField   nonuniform List<scalar> 
20885
(
0.000352589
0.0001746
7.05348e-06
5.86776e-05
9.88982e-09
1.23282e-06
0.00171388
0.000584533
0.00228231
0.00450723
0.00585383
0.00105583
0.00180399
0.0023191
8.4047e-05
3.00934e-10
0.00905184
0.00178055
0.00060517
0.000616898
0.00237486
0.00605294
0.00181567
0.000869394
0.00102709
0.0023806
2.56126e-05
0.000122568
0.000210307
0.000781533
0.00902298
0.0052685
0.00525278
0.00591877
0.00594486
0.00336553
0.00335156
0.00921272
0.0034225
0.00535752
0.00913262
0.00531307
0.00600096
0.0033951
0.00602596
0.00917647
0.00892834
0.0034045
0.00533259
0.00517681
0.00329836
0.00537191
0.00692867
0.00821915
0.00397728
0.0047453
0.00301089
0.00250803
0.00341455
0.00371141
0.00528125
0.00301167
0.00209936
0.00188437
0.00130102
0.0038587
0.0012563
0.00211394
0.0023555
0.00382614
0.00209763
0.00124716
0.00372198
0.00236093
0.00383925
0.00120096
0.00124747
0.00210131
0.00203048
0.00122952
0.00376934
0.00206883
0.00233286
0.00378932
0.00207917
0.00123643
9.90362e-05
0.000673795
8.0607e-07
8.12001e-07
0.000100451
0.000681723
8.42175e-05
0.00146264
0.000873158
0.00287657
0.00146808
0.00288554
0.00178813
0.000877422
0.00293138
0.000888955
0.0014891
0.00147899
0.00290868
0.00180257
0.000883677
2.62817e-07
7.36308e-07
9.80469e-05
0.000678055
7.57262e-05
0.000575845
4.88815e-05
0.00291507
0.000881393
0.00147859
0.00142373
0.0028208
0.00174068
0.000845011
0.00158223
0.00164035
0.00249275
0.000903149
0.00139413
0.000853533
0.00054448
0.00283521
0.00207335
0.00340094
0.00088568
0.00108255
0.0018435
0.00152354
0.00213554
0.00128535
0.00256954
0.00157686
0.000615309
0.00130021
0.000757045
0.0558908
0.0211085
0.00709809
0.0160792
0.0573881
0.0219772
0.00424478
0.015094
0.0413938
0.0358749
0.0562774
0.0361338
0.0418324
0.0257881
0.0255546
0.0569763
0.0427064
0.0368645
0.0365489
0.0423923
0.026104
0.0263307
0.0120592
0.0299844
0.0178003
0.021453
0.0304015
0.01799
0.0122
0.0232705
0.0147617
0.00993876
0.0148186
0.0233904
0.0161849
0.00998975
0.021789
0.0310839
0.0308411
0.0182217
0.0124744
0.0123635
0.0183815
0.0149595
0.0238457
0.023632
0.016364
0.010182
0.016513
0.0100911
0.00347907
0.0570989
0.0298351
0.00310749
0.0157296
0.00409098
0.0417337
0.0180579
0.014657
0.00686331
0.00193403
0.00447885
0.00160346
0.00682799
0.014749
0.00408632
0.0553357
0.0424619
0.0367473
0.041082
0.035776
0.0262238
0.0254835
0.0504287
0.0309176
0.0276016
0.0373782
0.0328948
0.0233793
0.0195815
0.0209295
0.0217857
0.0160586
0.0311786
0.0230814
0.0148197
0.0104021
0.0210552
0.0308873
0.0218301
0.0124042
0.0182917
0.017741
0.0120073
0.0231764
0.0150433
0.0237754
0.010142
0.0164526
0.0160133
0.00986745
0.0223825
0.0270969
0.019084
0.016233
0.0091081
0.0109521
0.0135559
0.0114313
0.0135235
0.0213843
0.0147419
0.00764968
0.0124166
0.0090814
0.0100845
0.0102555
0.0149194
0.0108951
0.00739029
0.00705875
0.00475047
0.00472207
0.00800484
0.0116708
0.0115258
0.0166702
0.0102206
0.00712926
0.00582272
0.00617363
0.00874116
0.00975215
0.0137917
0.00945321
0.00665154
0.0041355
0.0108418
0.00651418
0.010925
0.00416346
0.00715782
0.00655388
0.00668221
0.00730794
0.0111517
0.0110512
0.00420787
0.00724234
0.00662299
0.00646027
0.00422233
0.00665196
0.0072704
0.0111031
0.00704857
0.0107871
0.00529946
0.00516447
0.00773155
0.00204813
0.00318076
0.00313413
0.00479031
0.00664545
0.00418254
0.00278856
0.00299681
0.00180678
0.00274342
0.00449691
0.00496522
0.00373421
0.00592491
0.00644423
0.00537573
0.00990084
0.00830568
0.00261288
0.00232908
0.00375459
0.00404203
0.00279709
0.00629099
0.00439517
0.00119586
0.00184859
0.00112608
0.000670109
0.00105026
0.00173481
0.00294162
0.0014709
0.00213061
0.0012747
0.000651139
0.00113369
0.000773764
0.000438178
3.94975e-05
6.84542e-09
1.33817e-07
0.000137374
1.10806e-05
0.000336093
1.99343e-05
0.00160185
0.000530508
0.0011045
0.000449492
0.000965849
0.000658191
0.000300138
0.000616871
0.000562225
0.000965489
0.000500389
0.00017072
0.000313488
0.00027849
0.000267586
0.00106106
0.000497504
0.00106647
0.000269552
0.000608713
0.000500479
0.00108211
0.00027206
0.000506281
0.00107489
0.000271122
0.000613241
0.000503783
0.000611228
0.00107397
0.000268248
0.000253486
0.000500909
0.00103247
0.000477405
0.000459544
0.000340239
0.00072308
0.000424576
0.000113458
0.000264834
0.000188468
0.00042
0.000520942
0.000221782
0.000928757
0.000339411
0.00075835
0.00042342
1.8871e-06
3.75506e-06
2.39203e-06
0.000197768
0.000549606
4.14223e-06
0.000115958
2.07948e-07
1.05131e-05
4.21114e-05
1.17672e-06
8.31662e-06
4.46957e-06
3.12724e-06
0.00052452
0.000511103
3.57073e-06
4.57596e-06
0.000496504
4.04165e-06
0.000440423
0.000475655
0.000496858
4.55052e-06
4.5147e-06
0.000466996
0.000419861
0.000319849
9.57128e-07
0.000542347
4.0481e-06
2.66432e-06
0.000451495
1.92369e-06
0.000418364
0.000481267
2.01005e-06
0.000423499
0.000523317
4.16528e-06
0.000482992
0.00042229
2.84367e-06
5.45668e-07
0.00024068
7.15942e-07
0.000258571
0.000135259
8.57265e-08
6.1893e-07
1.97673e-06
0.000318936
4.15536e-07
0.000177905
0.000254224
0.000178675
5.49836e-07
1.31031e-07
0.00011531
0.000120278
4.97007e-08
0.0122345
0.0113951
0.0128678
0.00978582
0.0125575
0.0107504
0.0107114
0.000252073
0.0081219
0.00113822
0.0110189
0.00114729
0.00152096
0.0131102
0.00148836
0.00143613
0.0121315
0.0102665
0.00133405
0.0029918
0.0119019
0.00147752
0.00905501
0.00266606
0.00945096
0.00124553
0.0115241
0.00313741
0.0029524
0.0121264
0.00127374
0.0124352
0.00149522
0.0110769
0.0012676
0.00101925
0.0128858
0.00152396
0.0131193
0.00144928
0.00139226
0.00138702
0.0121551
0.000790252
0.00914467
0.00083243
0.00925525
0.000847837
0.00497039
0.00134439
0.0127375
0.00132777
0.00193024
0.00865845
0.000406964
0.00553592
0.000825378
0.0110052
0.000833873
0.00560034
0.000412012
0.00950147
0.00106005
0.000609761
0.00559627
0.000407308
0.0044213
0.00042875
0.000345161
0.00365964
0.000710745
0.000181095
0.00116178
0.00348697
0.000226281
0.0115112
0.0116871
0.0118193
0.00620173
0.00628953
0.00641297
0.00631652
0.0108358
0.00991872
0.00994735
0.00553172
0.00591101
0.00597607
0.00550244
0.0118875
0.0129574
0.0125479
0.00686172
0.00686667
0.00703068
0.00656356
0.000473574
0.000163853
0.000163119
0.000154188
0.00125827
0.00403885
0.00015676
0.0109977
0.0112065
0.0118856
0.0065485
0.00572373
0.0061945
0.00611969
0.0112224
0.0110037
0.0102714
0.00572636
0.00655707
0.00620305
0.00612299
0.00929533
0.00894377
0.00924977
0.00516819
0.00505687
0.00518276
0.00500436
0.0100551
0.00904006
0.00945116
0.00528817
0.00528826
0.00562482
0.00506107
0.000149433
0.00403157
0.000153638
0.000802496
0.00309457
9.94037e-05
0.000171487
0.0131135
0.0129567
0.0128694
0.00698452
0.00704622
0.00708292
0.00698874
0.012602
0.0118598
0.0124114
0.00676967
0.00659187
0.00682822
0.00648907
0.011886
0.0126282
0.012162
0.00678167
0.00650275
0.00660742
0.00684156
0.0131203
0.0129767
0.0131235
0.00699248
0.00708647
0.00699879
0.00705375
0.0117458
0.0116374
0.011877
0.00640204
0.00611083
0.00630834
0.00618773
0.011872
0.0125818
0.012186
0.00657257
0.00640413
0.00675933
0.0063027
0.0131962
0.0129097
0.0131278
0.00701404
0.00709935
0.00701923
0.00682228
0.0125545
0.0118425
0.0120986
0.00655669
0.00674489
0.00638911
0.00628721
0.012831
0.0121843
0.0128917
0.00643448
0.00685673
0.00685502
0.00637647
0.012806
0.0121527
0.012205
0.00684145
0.00684301
0.00641854
0.00635935
0.0118683
0.0122564
0.0127597
0.0067298
0.00565637
0.00636984
0.00614735
0.0122414
0.0118346
0.0110469
0.00671725
0.00636166
0.00612942
0.00564084
0.0107753
0.00921501
0.00922245
0.00556266
0.00560466
0.00468802
0.0046789
0.0108943
0.00930727
0.00916144
0.00568865
0.00559605
0.00461924
0.00471613
0.0108653
0.0092965
0.0109941
0.00567586
0.00461082
0.00471058
0.00558101
0.0108727
0.00931015
0.0109833
0.00568336
0.00470234
0.00472406
0.00564494
0.0108962
0.00931843
0.00926817
0.00569506
0.00565747
0.00470863
0.00472859
0.0112304
0.0081885
0.0097684
0.00492571
0.00574009
0.00491697
0.00406801
2.48659e-05
5.61077e-05
0.000742854
0.00059026
0.00238906
4.28787e-05
8.01528e-05
0.0104079
0.00771366
0.00946451
0.00432671
0.0052937
0.00475455
0.00381144
0.0104431
0.00774763
0.00868492
0.00477292
0.00531156
0.00433974
0.00382791
0.0065412
0.00643206
0.0049917
0.00402956
0.00320609
0.0031407
0.00240715
0.00652678
0.00639991
0.00809266
0.00401526
0.00239704
0.00312529
0.00319913
0.00735289
0.00552641
0.00734007
0.00365416
0.00269545
0.003657
0.00269393
0.00555619
0.00741285
0.00736813
0.00366918
0.00272936
0.00369024
0.00270931
0.00740663
0.00548389
0.00727522
0.00359849
0.00272252
0.00368189
0.00265318
0.00600557
0.00511896
0.00684393
0.00335517
0.00209288
0.00291101
0.00245306
0.00344998
0.00345223
0.00153559
0.00148847
0.00350968
0.00152013
0.00333639
0.00332
0.0014168
0.00140989
0.00294504
0.00315439
0.00147573
0.00314011
0.00281382
0.00132806
0.00126463
0.00283802
0.00135608
0.003037
0.00128145
0.00294653
0.00141197
0.00332419
0.0014176
0.00315882
0.00314183
0.00133485
0.0026064
0.00120642
0.00118241
0.00266556
0.00117655
0.00258541
0.00121067
0.00273305
0.00132385
0.00119214
0.00273309
0.00290654
0.00261655
0.00124556
0.00348631
0.00152839
0.00347444
0.00149488
0.00351907
0.00346313
0.00152252
0.00339639
0.00147699
0.00329183
0.0014406
0.0033997
0.00326596
0.00149293
0.00310318
0.00136016
0.00135952
0.00139247
0.00316148
0.00319889
0.00139385
0.00144341
0.00340197
0.00327257
0.00329917
0.00147967
0.00340596
0.00143923
0.00348981
0.00152917
0.00352085
0.00149718
0.00346807
0.00347853
0.00149039
0.00500389
0.00258346
0.00366829
0.00173829
0.0024191
0.00174235
0.00120259
0.00310622
0.00122529
0.0013255
0.00316475
0.00124862
0.00135681
0.00299817
0.00324755
0.00126616
0.00308029
0.00141274
0.00332192
0.00139039
0.00304769
0.00308154
0.00141625
0.00335088
0.00333058
0.00123456
0.00139545
0.00303334
0.00151106
0.00343058
0.00351054
0.00343351
0.00135729
0.00145062
0.00328375
0.00332351
0.00141304
0.0033438
0.00307367
0.001231
0.00126421
0.00302491
0.00140951
0.00323988
0.00331471
0.00307277
0.00126279
0.00304002
0.00127044
0.00485388
0.00253815
0.00363952
0.00162794
0.00232394
0.00171855
0.00116572
0.00273614
0.0039789
0.00188878
0.00397604
0.00273792
0.0018907
0.00126205
0.00400325
0.00278192
0.0027582
0.00191847
0.00190377
0.0012711
0.0012797
0.00393461
0.00277169
0.00269092
0.00191064
0.00185272
0.00127116
0.00122441
0.00323049
0.0026081
0.00115358
0.00120897
0.00133055
0.00300318
0.00288507
0.00322407
0.00120731
0.00299918
0.00115006
0.00287646
0.00260087
0.00101639
0.00265502
0.00101988
0.0020844
0.000823901
0.00214675
0.00105749
0.00259043
0.00266671
0.00106608
0.000832954
0.00215274
0.00215905
0.00265637
0.00106731
0.00266117
0.00102272
0.00259748
0.00208827
0.000825079
0.00214952
0.000791767
0.00363926
0.00206542
0.00246451
0.00142126
0.00169516
0.00110705
0.000912531
0.0022281
0.0010396
0.00265166
0.00222415
0.000665222
0.000846324
0.00180282
0.00176042
0.00174779
0.00258075
0.0011973
0.000507837
0.000797386
0.000785857
0.000117816
0.000259078
0.000255619
1.40859e-07
1.22989e-06
1.26683e-06
1.44241e-07
0.00167187
0.000607156
0.000718165
0.000809074
0.000937583
0.00242476
0.00214157
0.000831339
0.00106255
0.00104963
0.0021394
0.00261796
0.00264278
0.00214796
0.000834135
0.00106876
0.00106983
0.00267252
0.00266258
0.00215594
0.00216154
0.000812202
0.000720333
0.000940779
0.0021498
0.00243294
0.00193601
0.00167902
0.00169776
0.00156619
0.00109162
0.00107935
0.000752093
0.000678541
0.000461715
3.71448e-05
9.51726e-05
5.90972e-05
3.97111e-08
3.39276e-07
2.00775e-09
2.69245e-08
0.00114013
0.00182912
0.00181541
0.000803539
0.000481217
0.000807769
0.000479519
0.0010079
0.000474277
0.000343731
0.000492783
0.000652385
0.00177499
0.00138467
0.000409854
0.000599807
0.00060332
0.00115624
0.00162279
0.00162576
0.00115926
0.00060563
0.000412781
0.000606415
0.00163252
0.00117194
0.00163916
0.00116588
0.000599364
0.000573025
0.000387407
0.00157897
0.00116417
0.00162982
0.00112331
0.000493842
0.000476589
0.000654693
0.00178126
0.00138765
0.00135094
0.00101211
0.000794332
0.00112793
0.00179814
0.00113222
0.00180216
0.000798173
0.00047669
0.00181855
0.00109296
0.0017559
0.000474981
0.000800028
0.000765046
0.000450574
0.000280986
0.000516315
0.000345183
0.00145156
0.000854876
0.00123677
0.00102244
0.00131751
0.000982308
0.00159284
0.000683402
0.000316774
0.000554123
0.000397382
0.000458898
0.000180626
0.000310146
0.00114212
0.000720042
0.00049322
0.000295206
0.000474564
0.000148969
0.000233108
0.000233644
0.000349818
0.0010209
0.000712392
3.84809e-05
8.67776e-07
3.93306e-05
1.28497e-09
5.28082e-08
1.36133e-09
5.40289e-08
0.00013902
0.000324998
0.000206836
0.000649093
0.00096649
0.000696759
0.000451339
0.00025882
0.000155867
0.00026118
0.000492402
0.000777615
0.000781227
0.00049581
0.000262721
0.000156769
0.000263072
0.000790231
0.000786356
0.000498981
0.000500718
3.74332e-06
6.97237e-06
3.78597e-05
1.14361e-09
4.86538e-08
3.38799e-10
1.71558e-08
0.000258819
0.000244397
0.00014387
0.000783138
0.000750719
0.000494383
0.000469734
0.000983686
0.000397456
0.000674003
0.000226049
0.000403861
0.000268573
0.00014666
0.659727
0.659018
0.660637
0.655987
0.657436
0.653462
0.653296
0.652182
0.651823
0.659645
0.626544
0.543106
0.658143
0.650415
0.655113
0.655992
0.656371
0.660587
0.65895
0.658152
0.658789
0.659528
0.6567
0.655926
0.660131
0.634247
0.660621
0.66002
0.651569
0.643237
0.656746
0.66091
0.660837
0.660842
0.659426
0.659558
0.660357
0.656337
0.658026
0.658484
0.656397
0.658304
0.658838
0.655881
0.659615
0.660436
0.658708
0.656431
0.660624
0.658998
0.659876
0.653454
0.655213
0.655305
0.655058
0.655195
0.653661
0.653672
0.655448
0.655391
0.657023
0.652716
0.655446
0.654033
0.65664
0.651886
0.652443
0.652183
0.653896
0.656079
0.656588
0.653302
0.652357
0.653284
0.652232
0.654059
0.660153
0.657292
0.657349
0.659417
0.652584
0.656467
0.655626
0.659933
0.659619
0.651444
0.641657
0.557239
0.591872
0.640052
0.562161
0.594674
0.627962
0.64827
0.613605
0.559153
0.550857
0.639402
0.586227
0.620906
0.65746
0.652946
0.655961
0.65763
0.656086
0.656859
0.658087
0.623202
0.656831
0.64626
0.65356
0.64004
0.648531
0.620958
0.652671
0.657806
0.656354
0.657315
0.660342
0.658705
0.655167
0.653969
0.633336
0.623146
0.65244
0.566458
0.646568
0.6126
0.658907
0.659864
0.654971
0.660217
0.656821
0.660584
0.657684
0.661173
0.661132
0.660901
0.661028
0.661086
0.661221
0.661181
0.651962
0.651694
0.651935
0.652215
0.651713
0.651705
0.652769
0.656984
0.658731
0.656531
0.657851
0.657472
0.655707
0.658594
0.657816
0.653619
0.657117
0.657677
0.65561
0.656108
0.658768
0.650203
0.656352
0.64974
0.655074
0.652056
0.656074
0.646877
0.658453
0.657036
0.658419
0.65596
0.658877
0.657919
0.656613
0.659729
0.66034
0.660445
0.66041
0.660156
0.660121
0.660114
0.658866
0.659314
0.658217
0.657189
0.657253
0.65938
0.658775
0.658979
0.657813
0.659957
0.658405
0.6594
0.657446
0.65958
0.657802
0.658827
0.655533
0.652836
0.657969
0.652009
0.658867
0.659295
0.660109
0.66056
0.657862
0.657551
0.660638
0.65939
0.654269
0.647179
0.640495
0.638652
0.650222
0.644867
0.65172
0.659839
0.660634
0.660554
0.659886
0.660714
0.660042
0.659265
0.659965
0.659792
0.660499
0.660364
0.660654
0.659886
0.659987
0.657124
0.654366
0.646505
0.657598
0.6503
0.658587
0.655273
0.655235
0.648162
0.652069
0.64174
0.651087
0.655882
0.646991
0.660062
0.6575
0.657456
0.658798
0.659412
0.659485
0.658296
0.661014
0.661119
0.660842
0.660783
0.660627
0.661128
0.661084
0.661045
0.660915
0.660881
0.660954
0.661033
0.660821
0.661119
0.660925
0.661045
0.66066
0.66058
0.660987
0.660111
0.661103
0.660573
0.658476
0.660471
0.66013
0.660011
0.6593
0.660897
0.660622
0.658558
0.660571
0.66014
0.660835
0.66021
0.659345
0.66078
0.659848
0.660579
0.660742
0.66028
0.660416
0.660938
0.659534
0.657854
0.659969
0.65862
0.659572
0.657696
0.65995
0.658929
0.656274
0.657118
0.658541
0.659154
0.658288
0.656936
0.660255
0.660545
0.660648
0.660682
0.660508
0.660467
0.660503
0.659485
0.658684
0.657991
0.660241
0.659789
0.657706
0.659992
0.654608
0.656333
0.655988
0.65647
0.65576
0.655564
0.654822
0.653421
0.652735
0.653708
0.652788
0.653826
0.652533
0.653499
0.653508
0.652714
0.654422
0.65444
0.654722
0.653542
0.652782
0.653592
0.656367
0.654089
0.655268
0.655237
0.653176
0.654201
0.651798
0.651989
0.651803
0.652031
0.651917
0.651689
0.652088
0.652334
0.652352
0.654273
0.653764
0.654087
0.652472
0.652243
0.652636
0.653417
0.656123
0.654819
0.654834
0.653432
0.652658
0.652564
0.653755
0.655159
0.656252
0.654925
0.652626
0.653545
0.651775
0.651863
0.652223
0.651999
0.651828
0.651983
0.651707
0.652656
0.652316
0.6524
0.655757
0.651893
0.653917
0.654052
0.652115
0.652087
0.652136
0.652636
0.651871
0.652124
0.652985
0.652799
0.65233
0.654614
0.654591
0.655415
0.652565
0.65238
0.65512
0.658487
0.659383
0.659381
0.658152
0.656897
0.656997
0.65373
0.654311
0.655775
0.658301
0.656801
0.65296
0.655362
0.653791
0.654472
0.655764
0.658373
0.656807
0.65319
0.655514
0.659681
0.659949
0.659435
0.659371
0.659855
0.659899
0.659382
0.657429
0.655305
0.658558
0.652932
0.657506
0.652991
0.658389
0.658989
0.659875
0.660354
0.657895
0.659165
0.660162
0.658042
0.659497
0.659397
0.659503
0.660247
0.659637
0.660034
0.659328
0.622375
0.646885
0.633784
0.64142
0.63936
0.625015
0.631543
0.605374
0.590213
0.622327
0.619734
0.628859
0.598623
0.596197
0.582883
0.538101
0.587687
0.56086
0.598565
0.573524
0.546108
0.615965
0.644571
0.631192
0.618849
0.637112
0.62679
0.608236
0.655283
0.653722
0.653909
0.653624
0.654612
0.653977
0.655218
0.65748
0.656409
0.65685
0.658454
0.658216
0.656439
0.657751
0.657008
0.65783
0.655689
0.658808
0.655545
0.658624
0.657248
0.656656
0.652835
0.65371
0.653809
0.65432
0.65467
0.655649
0.658433
0.65816
0.657642
0.657864
0.657258
0.657892
0.658774
0.657848
0.655354
0.65706
0.657259
0.656159
0.657131
0.657714
0.658736
0.657595
0.658805
0.657319
0.659017
0.658337
0.657878
0.659232
0.659483
0.659988
0.659917
0.659856
0.658571
0.659622
0.658616
0.656329
0.659234
0.659429
0.65964
0.657424
0.65786
0.658926
0.657181
0.656791
0.65872
0.659042
0.657834
0.658959
0.647817
0.654971
0.652252
0.641468
0.640475
0.647779
0.655387
0.628952
0.584124
0.603085
0.577613
0.613906
0.621314
0.595041
0.646345
0.652062
0.650619
0.63008
0.637374
0.654566
0.640835
0.658648
0.658313
0.654227
0.654493
0.658057
0.658946
0.653089
0.652261
0.656028
0.65445
0.656354
0.656041
0.657498
0.656429
0.657
0.657283
0.65899
0.658363
0.657536
0.65842
0.657226
0.657653
0.653078
0.653362
0.653393
0.655329
0.655119
0.655244
0.655222
0.653364
0.652562
0.652579
0.655539
0.655847
0.655362
0.655681
0.653414
0.65233
0.652166
0.653438
0.653575
0.653173
0.652138
0.65303
0.652245
0.652263
0.652845
0.652878
0.652776
0.652103
0.653469
0.652747
0.652286
0.653736
0.654078
0.653102
0.652279
0.654732
0.653979
0.65597
0.656037
0.655993
0.654477
0.654259
0.65911
0.659184
0.659637
0.657559
0.658697
0.658011
0.658184
0.6543
0.65569
0.655776
0.655762
0.65662
0.656713
0.655669
0.658104
0.658135
0.658187
0.657053
0.656926
0.657014
0.656965
0.658744
0.658401
0.65884
0.657304
0.657811
0.657906
0.657214
0.659193
0.671981
0.660013
0.658839
0.658975
0.658582
0.65894
0.65873
0.661863
0.639341
0.663746
0.662796
0.664504
0.670238
0.659341
0.634471
0.658996
0.660244
0.660196
0.659373
0.661539
0.659338
0.661431
0.664351
0.668851
0.669088
0.667919
0.665411
0.665511
0.667336
0.659554
0.660146
0.660266
0.65949
0.660942
0.661147
0.659733
0.662918
0.669067
0.668308
0.668585
0.664567
0.665304
0.668445
0.658644
0.658668
0.658729
0.658917
0.65876
0.658854
0.658823
0.671015
0.66903
0.667093
0.667255
0.657119
0.665645
0.660501
0.660866
0.662324
0.662892
0.665293
0.664499
0.664884
0.664298
0.660075
0.660056
0.662068
0.659775
0.662349
0.659776
0.662333
0.671933
0.671806
0.671558
0.669221
0.665001
0.664388
0.669702
0.659182
0.658928
0.659278
0.659102
0.659308
0.659406
0.659007
0.660014
0.662002
0.662174
0.659792
0.661711
0.66207
0.6599
0.658937
0.658798
0.658992
0.658979
0.658777
0.65892
0.658842
0.663716
0.663503
0.663569
0.666488
0.66502
0.665247
0.66677
0.637556
0.649556
0.652694
0.661063
0.646037
0.658508
0.64995
0.659128
0.659233
0.659352
0.659138
0.659307
0.659411
0.659022
0.634797
0.656171
0.656852
0.664163
0.653043
0.653675
0.66514
0.674691
0.661344
0.654314
0.661636
0.661902
0.671996
0.653362
0.654966
0.656661
0.659229
0.655844
0.657756
0.658205
0.656476
0.661132
0.663054
0.661751
0.668004
0.658261
0.668037
0.658553
0.662543
0.652724
0.657441
0.655201
0.65682
0.655253
0.655242
0.656604
0.655487
0.650153
0.643288
0.662113
0.663092
0.6606
0.666055
0.653408
0.652711
0.655038
0.653171
0.652887
0.653983
0.653765
0.653455
0.652559
0.653383
0.653419
0.652943
0.653761
0.653369
0.654691
0.656892
0.656842
0.656684
0.655905
0.655646
0.655584
0.653898
0.653714
0.655573
0.655315
0.653737
0.655419
0.654149
0.661158
0.667496
0.666227
0.663149
0.659677
0.658943
0.663407
0.662433
0.657062
0.654942
0.663474
0.670208
0.667461
0.667227
0.672582
0.673865
0.672801
0.670333
0.671477
0.669268
0.673144
0.672872
0.672223
0.674926
0.670646
0.67413
0.674032
0.670627
0.0192237
0.00253107
0.0695257
0.0376538
0.0861206
0.0133871
0.0818771
0.0104696
0.0493088
0.0828692
0.0496923
0.0198222
0.0105792
0.0497568
0.0199007
0.0846119
0.0175523
0.0105789
0.040559
0.00850121
0.0151477
0.00700003
0.043411
0.0115976
0.00233597
0.0323027
0.00675894
0.0747336
0.0818559
0.07453
0.0527892
0.0528166
0.0476357
0.0477308
0.0271781
0.00235612
0.00765672
0.0376314
0.00776664
0.0136439
0.00456679
0.0848366
0.0758662
0.0749928
0.0546292
0.0534876
0.0479281
0.048412
0.00775988
0.0103531
0.0299614
0.0135995
0.00173238
0.00606875
0.00454575
0.0861876
0.0762417
0.0757052
0.0552579
0.0551668
0.04856
0.0481577
0.0794259
0.0666213
0.0731284
0.0504388
0.0539677
0.0464023
0.0421998
0.0627692
0.0491433
0.062514
0.0396196
0.0310232
0.0397576
0.0309315
0.0631172
0.0493369
0.0627086
0.0397445
0.031277
0.0399822
0.031058
0.0565207
0.0560079
0.0440735
0.0436234
0.0359338
0.0355375
0.0278204
0.0632196
0.0490555
0.0625042
0.0312969
0.0400102
0.0395348
0.0308441
0.000367326
0.0055857
0.00153682
0.00560895
0.023469
0.0012967
0.00472854
0.0463467
0.0530703
0.0596084
0.0376657
0.0255236
0.033548
0.029132
0.0321752
0.0232002
0.032257
0.0206165
0.0277413
0.0206678
0.0148689
0.0326136
0.0193043
0.0326858
0.0290811
0.0168693
0.0291037
0.0168696
0.0195469
0.0337132
0.0331153
0.0292537
0.0170757
0.0169624
0.0294959
0.0339671
0.0197489
0.0338135
0.0170739
0.0295324
0.0292371
0.0168634
0.0432577
0.023764
0.0326002
0.0203941
0.0274369
0.020779
0.0150526
0.0371517
0.0370956
0.0271701
0.023195
0.0231606
0.0167728
0.0167801
0.0373121
0.0276101
0.0273637
0.0234968
0.0232989
0.016892
0.0170447
0.0370154
0.0275875
0.0270293
0.0234964
0.0230851
0.017021
0.0166599
0.0190881
0.0305337
0.0329047
0.0280579
0.0144826
0.025407
0.0160966
0.0239049
0.0136929
0.0185418
0.0104473
0.0239686
0.0136631
0.0184964
0.0239818
0.0104983
0.0187125
0.0137908
0.0137102
0.024119
0.0185775
0.0346951
0.0215221
0.0251649
0.0186891
0.0216273
0.0154923
0.0132413
0.0187177
0.0137873
0.0241217
0.0238103
0.0103989
0.0184307
0.0135844
0.0265459
0.0122924
0.0216293
0.0121179
0.02136
0.016741
0.00947034
0.0164826
0.0167333
0.0234232
0.0149672
0.00729987
0.0105018
0.0105958
0.0226281
0.0113691
0.00976613
0.0151955
0.0201079
0.0173744
0.0128571
0.0169876
0.0166761
0.0146673
0.0119478
0.0106264
0.0102582
0.00733729
0.0193379
0.0134122
0.0193509
0.0117635
0.00798132
0.011758
0.00799472
0.0135239
0.019677
0.0195013
0.0118532
0.0081288
0.0119596
0.00805894
0.0196331
0.0132532
0.0191765
0.00809714
0.011926
0.0116322
0.0078766
0.00947499
0.0124174
0.0167212
0.0124476
0.00499951
0.00892983
0.0070168
0.00925803
0.0121338
0.016439
0.0124602
0.004963
0.00895015
0.00699421
0.0137336
0.00764712
0.0137143
0.00980198
0.00537891
0.00980678
0.00537745
0.00769735
0.0139203
0.0137997
0.0098727
0.00546669
0.00996327
0.00541702
0.0122347
0.0150966
0.0177644
0.010752
0.00610774
0.00911584
0.00724769
0.0139143
0.00759996
0.0136549
0.00545327
0.00994479
0.00971882
0.00531642
0.00809081
0.011803
0.00822474
0.00500155
0.00735964
0.00502197
0.00337402
0.00707612
0.0110061
0.0127655
0.00901209
0.00415229
0.00767617
0.00490613
0.00792974
0.0116187
0.00826716
0.00465622
0.00699837
0.00495903
0.00327289
0.00896588
0.00346299
0.00429043
0.00345728
0.00625659
0.00627859
0.00500739
0.00449379
0.00448572
0.00235046
0.00675665
0.00362849
0.00675328
0.00363208
0.00239215
0.00237391
0.00452894
0.00680794
0.00369083
0.0068686
0.00365952
0.00862199
0.00339579
0.00623022
0.00318341
0.00592573
0.0042182
0.00224787
0.0023785
0.00367538
0.00684544
0.00666353
0.002299
0.00441069
0.00356691
0.00380113
0.00379938
0.0056471
0.00336081
0.00144221
0.00223302
0.0021966
0.00613583
0.00338033
0.00273282
0.00208964
0.00517607
0.00403833
0.00326511
0.00288444
0.00231685
0.00428961
0.00286364
0.000984943
0.00189954
0.00150884
0.140402
0.27179
0.126202
0.322097
0.113299
0.245681
0.277713
0.111884
0.331228
0.319385
0.326828
0.246228
0.255258
0.254079
0.24655
0.264341
0.346879
0.334559
0.341618
0.333245
0.265704
0.261484
0.275898
0.305462
0.309371
0.242887
0.215839
0.218014
0.238303
0.309395
0.21691
0.274067
0.278131
0.311574
0.246038
0.218989
0.131378
0.180025
0.18723
0.186926
0.126614
0.180757
0.13111
0.200539
0.13743
0.195999
0.137013
0.1955
0.193222
0.135499
0.179688
0.123028
0.113397
0.159564
0.161587
0.175548
0.126118
0.128543
0.18296
0.161362
0.1827
0.114091
0.162573
0.128303
0.0848963
0.336273
0.10378
0.115244
0.131185
0.175637
0.348661
0.332944
0.361373
0.358832
0.211126
0.115953
0.0835652
0.216506
0.122344
0.273396
0.140584
0.118442
0.239215
0.341473
0.209759
0.11497
0.18919
0.224317
0.0801267
0.144474
0.355373
0.405405
0.429833
0.381874
0.404431
0.329745
0.323968
0.353561
0.43245
0.426219
0.402518
0.407369
0.328427
0.324941
0.405591
0.359868
0.384774
0.343361
0.311187
0.314763
0.288172
0.0400256
0.0510615
0.0199778
0.134801
0.170939
0.0585387
0.106134
0.262147
0.346527
0.328281
0.335788
0.269251
0.306036
0.250384
0.0638583
0.0966372
0.170056
0.0567029
0.0243903
0.111219
0.0682191
0.292457
0.211958
0.198025
0.27948
0.25858
0.240523
0.183358
0.266048
0.224266
0.307968
0.253578
0.265585
0.223856
0.186267
0.213476
0.246527
0.284032
0.210254
0.281088
0.244866
0.173827
0.351811
0.377007
0.380931
0.298267
0.265533
0.295761
0.267287
0.263394
0.293881
0.358455
0.349572
0.378221
0.298984
0.267623
0.210409
0.278144
0.276556
0.243465
0.175073
0.242529
0.174421
0.296855
0.207186
0.257592
0.222434
0.265611
0.219881
0.183885
0.361887
0.305179
0.325398
0.25891
0.2873
0.264721
0.240367
0.271624
0.2019
0.255164
0.173767
0.238284
0.224282
0.167177
0.132957
0.157625
0.147357
0.119073
0.111228
0.13411
0.0989108
0.132983
0.141599
0.202239
0.137037
0.195237
0.200472
0.188709
0.169682
0.175558
0.218762
0.186295
0.112226
0.146619
0.148885
0.251955
0.200587
0.266343
0.222691
0.156083
0.169719
0.204177
0.180214
0.1709
0.219663
0.193842
0.119836
0.150728
0.149406
0.219579
0.187031
0.176525
0.131742
0.146975
0.149747
0.112752
0.105559
0.067939
0.072149
0.0919562
0.0860524
0.0747841
0.0577735
0.104413
0.135014
0.122116
0.172187
0.191537
0.171866
0.145445
0.18134
0.143186
0.212777
0.211715
0.114708
0.142138
0.180604
0.211022
0.115487
0.180123
0.143378
0.210408
0.142851
0.180406
0.0992573
0.109337
0.126245
0.179325
0.155278
0.167238
0.13994
0.145828
0.0956765
0.106814
0.111106
0.122304
0.0880283
0.0780016
0.125152
0.0756285
0.0911842
0.0876065
0.109229
0.0783069
0.0618024
0.177394
0.142205
0.206863
0.195286
0.11055
0.168077
0.136767
0.128312
0.0716804
0.0968393
0.0819841
0.110565
0.0821781
0.0597057
0.140349
0.0795797
0.102107
0.0902775
0.117049
0.0855838
0.0648379
0.0837784
0.145034
0.115739
0.0833674
0.116178
0.0886514
0.0643714
0.0640573
0.103357
0.0828825
0.144446
0.0882202
0.115446
0.115499
0.169821
0.0991929
0.115489
0.0985583
0.132509
0.147152
0.122487
0.0517338
0.0544383
0.0678583
0.0573172
0.0319394
0.0429977
0.0439685
0.0609435
0.0691851
0.0799398
0.0648189
0.0407965
0.0488122
0.0557735
0.36689
0.330083
0.151089
0.149855
0.304038
0.363504
0.0843197
0.0836489
0.361296
0.230351
0.220752
0.341527
0.332035
0.202223
0.218505
0.330193
0.315244
0.317069
0.198468
0.227139
0.206088
0.217574
0.304937
0.314915
0.311188
0.186274
0.182979
0.189099
0.184075
0.220038
0.229368
0.376398
0.340974
0.330947
0.195034
0.197906
0.121514
0.0903629
0.120849
0.0802998
0.128679
0.116879
0.0842894
0.105724
0.113719
0.161852
0.133999
0.101413
0.144271
0.0935498
0.147734
0.102612
0.102678
0.0918331
0.136646
0.131832
0.0909849
0.0852077
0.130754
0.132125
0.121977
0.0800634
0.119811
0.0829127
0.634484
0.506554
0.564685
0.515814
0.454848
0.599745
0.613753
0.647681
0.562765
0.655811
0.593769
0.0976017
0.482439
0.349776
0.611957
0.649053
0.548721
0.538273
0.634982
0.300377
0.420119
0.647141
0.644506
0.655359
0.634392
0.655925
0.59335
0.648407
0.609643
0.643025
0.625923
0.615178
0.630944
0.609023
0.579419
0.410249
0.376454
0.43202
0.549512
0.517443
0.48166
0.434863
0.638498
0.622602
0.635367
0.645789
0.632084
0.636181
0.619422
0.56433
0.571376
0.599371
0.580737
0.489886
0.531016
0.5537
0.574165
0.591495
0.615305
0.589775
0.612016
0.597162
0.573631
0.392009
0.526699
0.488678
0.262602
0.344073
0.210567
0.247596
0.639571
0.622363
0.636859
0.648959
0.634151
0.615059
0.638009
0.650758
0.653699
0.647336
0.653816
0.655451
0.647047
0.650738
0.655922
0.652316
0.652396
0.656718
0.656351
0.652799
0.653435
0.559311
0.581058
0.613151
0.549174
0.600058
0.571823
0.518667
0.131603
0.274245
0.142441
0.306782
0.137402
0.261639
0.137295
0.591499
0.600242
0.616748
0.591576
0.521433
0.549512
0.573107
0.591138
0.627272