/*--------------------------------*- C++ -*----------------------------------*\
  =========                 |
  \\      /  F ield         | OpenFOAM: The Open Source CFD Toolbox
   \\    /   O peration     | Website:  https://openfoam.org
    \\  /    A nd           | Version:  9
     \\/     M anipulation  |
\*---------------------------------------------------------------------------*/
FoamFile
{
    format      ascii;
    class       volScalarField;
    location    "0.0028";
    object      rhoE;
}
// * * * * * * * * * * * * * * * * * * * * * * * * * * * * * * * * * * * * * //

dimensions      [1 -1 -2 0 0 0 0];

internalField   nonuniform List<scalar> 
20885
(
512726
730842
906836
883249
272055
508873
443236
550266
425901
381549
368306
525529
457628
416296
866419
253807
338368
452725
533090
534222
416745
361393
453471
471133
434893
403039
886638
765671
628397
542960
339720
374537
376213
361078
359476
398138
400089
340058
400635
376683
338470
374718
359583
398359
363948
342313
346168
403823
379416
384060
409140
374013
357791
351193
398082
390120
416067
425152
391148
376696
366213
408135
420476
436608
450638
386749
463562
429196
414273
384654
426527
460393
394662
420196
389698
475182
468033
432953
439068
462727
386405
428527
414085
384518
426248
460046
830836
590620
529977
528452
832098
586581
867775
488605
528174
424219
485594
422051
450195
524687
424821
529049
489310
485882
422298
450502
525044
400785
509047
840807
599064
871400
628783
873502
428291
534988
494195
501904
433975
464284
544309
417505
404982
389523
453282
435408
467669
488325
409796
433375
401182
496895
484546
447041
457476
451077
512080
441362
472978
573758
484436
556893
380075
418095
373685
325492
357517
414776
387275
316420
390238
321086
361783
318825
378175
339071
340627
358874
375314
318633
318576
375891
339127
339390
383783
402439
361274
414007
395265
360555
383723
305769
316117
336188
315113
305286
325033
334985
414125
394208
394067
360845
384809
384101
361302
315169
306318
305441
325185
336435
326174
335016
438400
356312
392751
408348
413841
394433
348627
317421
321421
346555
405130
351278
431480
396745
329588
370378
354257
374659
318985
373080
319423
339741
340212
351407
368988
321780
370914
320192
341064
342914
324730
348020
369985
347143
368361
346284
351713
414191
393920
414879
385392
361703
362365
386446
310099
318283
307734
338479
327639
330193
341978
390479
391381
413589
363575
391507
388237
365986
330856
325504
313243
333608
352610
338263
346548
336793
358666
351784
374481
382147
359650
370348
404435
420138
415759
393793
390981
370106
376471
360453
346514
337751
330186
322938
344473
352613
387139
348039
359723
347405
385317
372654
358243
359895
374063
348634
347493
385341
372666
358257
366143
389919
362194
375886
350228
379204
353086
427554
408482
399508
428910
397572
415034
385513
339552
357480
370912
376111
397782
382724
363068
378245
400381
371323
383688
389910
356934
362251
398482
418613
387205
398179
408858
369364
378630
438992
422350
429414
466460
447314
412437
390442
434205
420732
455734
512715
470685
487029
532552
896945
272159
357386
760745
852978
682009
865330
463409
565011
478712
595831
499061
517364
624153
470300
489933
450591
507160
587675
531899
557156
652093
487970
579882
484960
646894
529515
575672
488894
653531
580986
485340
647428
529968
576107
540480
493955
663800
679808
588616
501937
600606
520575
592832
497499
539958
706806
568033
660797
581170
563508
702017
512489
639791
526413
617182
367763
464107
385478
854211
869970
521971
847290
394834
754844
808366
337833
715609
478376
414247
870872
872434
444172
513029
871649
486908
876612
872901
871570
489641
525071
872447
866169
860389
324937
870653
455922
394865
865240
374053
869668
873516
376043
868909
871349
466640
869094
869172
413137
303687
857778
318904
862123
847071
270382
308134
367797
860414
294963
851950
859702
851955
303416
274671
845391
843477
264908
383983
356157
378764
408660
352143
349291
391838
681531
419798
548319
394388
542311
692124
370370
723811
709432
361497
340742
680378
513061
348865
687914
336115
503740
336499
676505
381574
528637
554649
381215
747375
355531
697846
400425
752318
781087
358496
702200
375971
735097
740931
725812
370113
799312
410681
788113
401357
794796
444099
665735
384189
751659
625635
416562
830240
432877
791362
391573
787761
432870
828163
411307
772488
816731
436181
832079
457231
833407
837842
457777
725930
828092
521474
468417
849143
354081
363796
361835
420633
418357
425770
427990
347136
343326
341049
405839
414148
411772
408399
346835
356975
352120
416069
416064
420596
411233
696197
845258
842743
855584
581703
452274
855172
343138
346738
348811
413052
405525
411334
407694
346897
343184
340887
405583
413049
411365
407705
338895
333788
336591
401418
401632
404055
398839
339171
333849
336588
401307
401258
403754
398682
854445
455974
856607
588802
479704
868088
856529
363014
366029
358475
422202
434264
426625
429838
363181
353688
355489
419339
425345
426921
417842
353817
363200
361575
419319
417835
425311
426890
363018
366043
370372
422191
426618
429820
434254
372260
379638
370355
434516
447330
436773
444945
379485
371796
370140
434154
446662
435912
444664
368811
382865
375974
440415
432637
440412
448448
371801
379487
381233
434203
435953
446712
444722
374599
388116
378767
449974
439000
443642
454900
374595
388115
383988
443654
439020
450002
454922
393562
390977
384195
450088
470315
458404
461670
390973
393555
400419
450093
458405
461680
470319
389842
403488
401393
459961
457407
472120
474864
398632
406213
410661
462896
468138
483883
478150
398639
406236
394399
462945
483940
478219
468176
389756
403361
391606
459479
472037
474503
457255
389733
403311
401322
459408
457178
471938
474403
399117
418421
408655
481051
468640
481052
494273
873553
872567
554485
612490
492522
875399
859018
404259
423940
411301
491774
475375
484570
501872
404262
423944
416558
484561
475354
491744
501860
430064
432991
444105
496146
510657
514785
531236
430061
432984
419791
496149
531235
514789
510657
416911
430443
414662
489909
515358
492889
512063
430449
416826
414633
489774
515093
492538
511967
419892
441454
424682
503075
519794
496671
527170
438974
448401
431009
511900
551009
523406
537422
513895
513868
699161
685210
518774
692169
508922
510883
681421
686800
504127
509574
688010
505670
507642
692007
685783
504735
688080
510281
681762
504103
686645
510836
681377
509509
505654
680282
501944
682034
681040
500713
676706
498700
677894
500226
677661
675231
500226
502100
498194
676463
520879
709734
535502
715903
525896
530088
702292
517682
711094
525146
696511
526695
516402
697994
519919
714299
701486
697574
517123
525760
710414
696303
517611
516298
525022
710911
526605
709174
520835
709693
525876
715780
530027
535465
723736
442523
474672
457780
552268
528927
552271
579399
539950
749847
730514
536956
746070
726605
551429
536286
745165
553112
727670
538170
725539
550856
557565
732849
542046
548173
759565
740818
564492
720839
543700
533376
543681
748859
735060
554917
548231
733009
542127
557671
759714
752517
564574
727882
536431
538281
553250
745465
551028
747620
448910
482428
461258
568848
538352
557638
592302
475811
452181
544074
449523
472897
540370
577412
449571
476040
472998
543907
540319
577414
581672
461883
480267
486999
549452
558250
588557
599533
557291
588805
769314
764368
751585
569626
574832
557327
764400
569642
769412
574889
588839
781140
577708
779126
612474
793426
603388
772706
585757
572547
766776
789719
594517
597605
569859
768568
577565
778962
585643
612334
793214
603212
799161
469668
507509
495901
587298
570573
614956
635524
606885
778794
586062
606900
809307
794815
629828
495537
499827
476584
582552
660642
615124
622512
848481
861912
861821
276540
342928
344429
276850
643200
816777
807256
799063
788099
597418
612921
788425
767228
770594
598792
573829
570180
594762
789435
766442
768288
572364
569641
594252
597377
799004
807163
787993
612871
597339
625541
643143
508628
522509
541656
609484
637829
662216
695296
814036
839988
826613
264713
290895
255483
261794
538331
505323
501885
627215
696626
632193
691031
693421
827318
837838
824040
811205
633097
658565
828404
811639
809241
669195
630152
625732
664483
808784
829510
810301
625256
668073
628817
664082
813489
818577
836124
645929
675458
635435
687113
824034
827304
811181
633071
658555
665706
693412
632029
541765
504942
538112
501725
627145
690869
510246
557861
518071
706283
640568
653899
721322
846889
825461
841300
660892
724128
680459
703429
542610
571030
528611
672505
765399
696769
741223
597524
775752
716197
528844
566169
673412
734110
760919
855272
847205
847213
836499
689660
725932
811039
424175
813697
254655
266278
254737
266410
857465
841565
852641
748361
704883
733530
774726
845223
855054
844103
764127
715410
710639
759967
844072
855795
845041
714661
710367
759892
763878
629560
688505
807264
254496
265165
253832
259561
846748
849494
857765
722430
734393
770912
781630
560990
643038
584813
792907
726566
760164
821318
100271
71192.5
72955
68510.4
71198.3
16692.5
26303.4
51007.4
66390.2
79799.4
188297
119552
70374.6
190662
72440.3
79575.1
92451.2
88161.5
99192.2
106851
97141.3
90985.1
99354.4
72121.6
69066.9
76642.1
71252.1
67516.7
73760.9
81424.7
87715.4
82756
70186.6
73876.4
90560.5
70439.2
81041.1
70898.9
94801.9
89912.7
85649.4
96285.7
89198.1
87095.7
80222.6
73829
68652.4
83769.4
69770.9
69157.8
78343.2
18985.9
9991.12
11459.3
29921.3
35682.3
57743.5
53083.6
16627.3
46740.7
64894.8
56346.4
32302.9
77630.5
69726.6
57859.3
30716
31310.3
86411.7
105332
98764.3
76660
21227.2
73825.1
64170
85039.7
73768
92284.9
70765.2
71324.2
113902
98182.8
74259.9
69649.3
66376.3
85662.8
164083
253386
259171
104493
206325
168982
132439
79694.4
85418.5
150865
112317
78946
123238
98787.2
107454
63729.6
65791.8
144561
78490.7
72712.9
66614.9
315321
292872
469006
134057
294568
100831
166910
67983.9
72593.8
73600.3
70720.2
71111.6
67772.4
73150.9
89254
163801
131233
77252.7
108847
77350.6
112427
69481.1
70073.8
71040.3
71332.5
70027
70096.5
70749.4
75950.5
75673
71984.7
73495.9
72459.4
76829.7
74912.1
76913
51349.9
71999.7
83909.8
62662.9
76401.9
81272.6
71402.7
78371.3
68251.5
66686.3
82238.4
66059.8
69636
69536.4
71658
70964.4
71562.8
70406
71014.9
70375.2
84267.5
79813.1
92917.2
76443.5
95491.1
75320.1
84459.5
98581.2
95427.5
93051.2
94743.3
93936.5
97127.7
99197
96504.6
91331.5
91576.8
87501.4
91302.1
90766.5
96021.9
103254
105415
105428
104692
103641
103718
104705
99553.1
96587.2
94394.3
101927
93983.6
101431
99209.8
69477.5
68393.9
71660
74095.2
69787.3
73085.5
68688.1
68568.7
69261.6
68402.7
69494.7
69360.4
69006.3
68473.2
70835
72773.2
75650.9
76672.7
72110.1
75038.7
71968.2
69047.4
71337.9
70030.8
70134.5
70071.9
68798.4
70390.3
67884.8
66783.2
67806.8
68630
68753.5
67492.1
67529.1
70113.6
72412
74638.8
71007.3
73498.4
69617.2
71392.8
70706.1
77753
75098.3
78061.6
72969.2
71929.8
75402.2
80855.5
88760.7
80902.2
86670.9
86837.1
79798.2
81896.1
80566.7
79421.1
85700.8
82742.9
85376.1
81313.4
78785.9
74737.4
70869.8
70384.7
73034.8
71267.6
73744.1
73721.4
76630.2
73813.3
78077.8
72743.1
72689.6
77089.6
77622.5
81903.2
89863.8
88243.1
83937.1
87654
83071.4
82776.2
75323.8
74806.7
70408.3
71409
71382.9
74194.1
75792.9
79733.2
84082.1
81855.9
77207.1
84517.1
78341
78278
70810.5
67815.2
71444.3
67317.8
71764.3
69869.1
68766.3
77317.7
77630.5
79124
83771.7
78496.1
81722.9
76047.9
71574.5
70134
69313.6
71642.3
72065.5
68887.2
71209.5
71810.8
68075
73286.9
69037.7
72516.2
72003.4
68182.4
57028.3
60034.5
57193.6
65824.3
45461
66476.8
63102.8
50341.5
40057.7
45296.9
66406.8
26779.1
60315.5
61388.2
58141.8
62111.6
68099.9
76509.8
71507.1
47267.9
68234.5
65830.7
68487
69783
73466.8
71199.4
70904.2
67565.3
66475.3
49309.7
38626.4
83320.7
30887
72390.1
80269.7
78701.8
67717.3
92659.1
85065.4
94313.4
61630.6
81376.4
85853.4
96378.8
104532
100939
100774
96935.2
84094.8
90764.4
95346.2
96785.8
102859
100342
90286.7
97673.6
69985.6
34512.9
35853
50262
50793.8
61619.7
64245.9
75739.7
74240.2
71894
74256.2
69762.9
77873.2
73345.1
72573.6
52679.7
68762.1
70093.8
62701
68184.4
72035.4
79396.2
74169
88364.9
80385.4
82219.8
75244.2
82000.7
77428.2
73842.2
78353.7
72756.7
77431.8
78549.3
73026.3
82595.2
90968.3
90784.4
84864.9
83762.3
87237.4
84679.8
75969.5
71246
75222.4
71620.4
76251.5
74008.1
72137.4
72609.7
74144.7
77268.7
67389.3
78742.6
69360.1
70134.6
75534.7
79777.5
69502.7
77846.5
71752.4
83430.5
72453.9
71136.6
71280.7
68152.2
71134.3
69093.6
69363.7
74120.7
68918
65973
66363.3
67040.5
67486
67269.1
67355.8
91118.5
77556.5
90455
85379.8
81398.9
95665.4
86297.8
92575.2
93461.9
82925.9
86566.1
83071.7
91207.7
95446.6
105333
115265
99417
114802
99620.9
103892
118797
89058.2
77498
80802.6
86417.8
79970.8
85694.2
88898
67919.6
56977.8
68031
67367.9
66021.8
65503.6
67208.7
71304.1
78252.4
72423.2
67915.2
71079.3
79500.3
67441.4
66887.9
65707.2
67441.7
65796.3
66362
66485.9
65884.2
68529.8
70285.7
68695.1
69282.9
69645
70356.1
67621
69436.7
70391.2
71054.3
72186.5
69134
70494
70803.8
67328.8
70465.1
71465.3
69964.6
69385.8
67342.5
69434.7
67988.1
69498
67353.6
70495.1
68196.3
66775.8
69623.4
69000.7
71074.5
70007.5
70059.1
68820.5
70232.9
70128.8
67791.4
68641.2
66438.9
68764.3
67538.1
69402.7
66766.1
69498.5
72728.8
71663.4
70857.6
69394.2
71132.9
70911.5
81537.5
75989.3
75228.4
86529.4
82948.9
85703
73890.1
93153.2
109247
95432
110298
94957.4
93564.2
109803
80743.3
76187.5
75729.3
84110.8
82794.1
74631.6
82244.9
8170.27
7841.56
8303.33
9530.88
7744.36
14562.9
13317.1
36052
8631.05
17954.4
12630.6
7938.08
9241.95
9512.97
7879.14
7836.1
13341.4
8352.02
10202.7
8315.89
7893.84
9540.92
13576.2
9613.68
9414.71
7776.46
8082.39
8109.54
7766.85
12205.4
70459.8
48772.7
8115.36
17033.3
8758.69
10903.8
13929.9
20832.5
51372.2
12883.8
9613.1
23864.2
37497.8
29571.8
64463.3
65995.8
60508.7
43765.8
50604.1
54585.8
18099.6
28012.6
58187.1
24328.9
12195
38073.4
41620.1
12020.8
39543.9
9711.55
11335.5
8818.43
19097.3
26591
8036.64
11315.4
9723.4
7851.38
8725.61
9023.28
7910.2
8462.7
7816.88
8003.53
7737.42
7660.92
7733.37
7643.93
7800.56
7738.07
7795.42
7733.07
7660.32
7715.54
7669.59
7909.59
7852.49
7947.09
7784.55
7795.01
7859.38
7714.8
9176.76
260555
50934.2
7919.88
8877.38
7814.29
9912.44
9121.12
86136.3
210685
75702.4
126727
84166.4
204644
134975
231332
9671.5
32674
29701.2
15939.2
56526.1
17157.6
54605.9
81605.9
135709
130938
131832
98289.3
97979
134379
8722.4
23416.6
16030.7
13447.8
38228.1
49172.4
10962.6
62227.6
128833
123851
129568
91984.9
97390
130301
7869.29
7915.35
7922.7
8633.87
7829.38
8684.7
7877.93
187085
281733
342042
164943
257009
176358
232165
131298
110331
109793
130206
106891
107025
132579
53919.4
53142.5
86672.8
33157.2
74126.7
34999.4
73696.9
178647
179155
259327
153977
199541
209260
151180
8009.53
7914.64
7967.88
8472.83
8047.44
8278.47
7936.09
44987
87242.5
88279.4
28621.9
66480.6
72397.8
21828.7
19982.7
9060
18954.7
10669.1
8078.62
11032.8
8096.29
112292
126076
109739
126738
108826
108126
127110
222393
178531
172615
165538
231745
170977
220936
16685.3
8717.28
13826.7
9968.88
8118.53
9345.79
8077.41
205356
162143
157475
154577
197994
206042
149688
583057
45474.4
45944.2
687899
65265.4
299424
71861.9
145916
48105.5
202532
91695.3
143734
30419.2
23236.1
219190
173411
57599.7
159078
44943.2
137018
34882.9
203607
61139
76706
78483.8
120587
37380.2
33404
122973
172947
447114
321984
410994
629379
351834
790844
69732.4
70116.7
71361.7
68364.6
64074.6
71237.8
70787.5
66531.6
66842
67999.6
41596.9
55072.2
59846.4
69746.7
75568.5
72286.9
76237.4
89993.3
92216.4
76042.6
71855
65486.2
58135.5
25246.5
64198.6
47584.7
55587.8
68594
30255.3
123887
119250
158417
22741.9
24382.2
195144
449933
299924
655963
561311
988004
1.03355e+06
619909
252263
462708
571374
396433
716255
430958
730693
253006
313167
486524
476176
1.01251e+06
910531
607333
343760
379665
270653
287442
258802
321866
255215
378241
277375
256044
277628
343422
378264
279206
345862
263762
360195
380763
287486
396864
367199
396988
279720
312286
443404
291484
405172
263139
255491
263075
278151
277290
285364
286364
295122
454732
393309
285794
393438
322275
400990
257112
263889
263240
277999
277203
285196
285931
396113
337943
296734
324306
488085
413666
403950
260906
265429
267418
279938
282545
287760
290288
267107
273068
270017
290153
285988
293556
297513
270260
276848
269892
293490
303373
294515
302372
270484
276863
269894
293364
303358
294210
302342
274706
276482
294793
280645
300179
302116
307676
272021
281343
274048
305125
296006
298530
307721
571118
340180
465950
354496
301376
502523
422902
284158
279741
276664
301819
315445
305838
311178
286058
293041
286073
314608
306680
314617
323206
306761
342092
305356
314393
353903
315793
352219
341956
306265
305177
314234
353691
352134
315364
308446
349517
311590
356118
317457
320536
359814
283302
296703
287877
320678
310618
316614
327335
285393
284740
294367
313434
312407
324151
325251
284844
295623
294517
313672
312478
324271
325621
289850
297353
300063
315458
318306
327533
330710
354289
320639
315663
324564
370675
329510
364656
324125
365267
336421
376410
325499
363522
335047
324027
376426
336393
365182
363493
325273
335029
292968
307899
303558
326760
322061
334862
340175
338435
367611
327348
330440
384833
341673
371430
326440
375457
333236
377867
335380
342454
386533
301714
303571
293940
324214
346209
333654
335773
334526
382722
390160
351390
339626
345972
376444
307406
313340
332654
320321
340152
346909
355420
307123
320742
306208
338077
356134
339314
354698
320861
307608
306350
338219
356578
339742
354856
309473
327730
312519
358963
341853
345432
363030
385268
351086
341346
351090
409624
361570
396991
390351
358083
345785
353385
415428
366418
399680
348942
391358
347508
361941
410972
363473
408873
391420
349082
347562
362045
411232
363740
408988
332175
321473
316456
350107
375302
356179
368341
351178
400551
354698
414212
366028
369921
419143
324995
315212
329201
361148
349583
365992
378822
406325
365247
359337
375011
433792
381591
425541
345284
327824
335871
384137
363907
373566
395067
362760
424885
389197
428014
374168
376706
411049
398607
400503
457346
378797
431955
380483
429650
457897
454962
398804
378947
432356
380863
429820
372663
434399
381906
444285
389902
400226
457413
461933
435775
383434
387799
468417
408897
441374
365877
358251
345939
385411
424213
399655
408325
393485
423742
458164
476907
400888
415331
448656
407000
448579
393270
412843
493660
428041
473616
233198
213698
225718
222065
250227
226067
228522
246548
215389
215021
213296
208377
208629
215449
213705
220569
210993
215993
212174
213648
210794
217982
228013
218509
219037
222800
227422
228279
221346
223743
230928
231897
229885
220901
224348
229362
227903
214049
216449
224471
233910
222527
235348
222409
239295
228405
230321
219254
226406
237100
230608
240803
247199
234371
235110
229376
241708
244891
233246
237717
231734
248522
236185
243073
307141
406810
252420
482777
239875
489129
423936
642364
735912
572543
337731
380843
255252
228852
248474
217322
240512
249833
228001
422911
333196
377570
366532
365517
360639
308588
830397
868001
820888
740223
684790
625342
713457
460018
675764
508573
452956
562228
499127
431763
433618
406501
416517
400070
406559
416508
405118
305897
329622
354849
351152
342128
354135
301979
223193
212624
219532
217030
221386
223199
225805
259095
245099
233310
265721
271803
257212
255541
387634
363871
367172
384038
389577
390270
370430
225943
227939
221647
224957
225904
227854
230108
510443
631446
711993
387842
576693
516907
392811
483934
433311
510121
466777
420269
423587
451553
635197
657779
672181
585645
617317
573448
548525
345439
447433
403403
427084
357630
405103
363977
226687
232737
234022
235570
228925
229751
234378
410810
394703
396205
410684
413014
402768
402016
391073
327180
380629
352737
397470
388367
346524
323710
343595
345145
327650
329794
351228
337369
245248
236560
225620
242021
230708
229266
233382
233256
236992
230567
231233
238000
233256
235778
382145
363878
381604
390107
377986
373454
391692
318500
347089
365850
375565
327920
359134
338022
230716
231358
237137
239940
233298
235878
238052
312510
318923
313102
317875
321803
329906
327133
251588
244529
248435
235827
232743
235762
238123
582870
484290
596604
491121
405072
400565
477615
421424
385614
406945
371244
406624
377047
418605
254581
252319
247247
235184
239545
237169
241351
346414
339372
332783
364442
357289
345526
354868
330826
299747
321758
319962
344015
334668
316258
401549
366779
400072
392743
373609
396019
361468
238003
252497
245126
242043
236707
242066
248048
245763
260384
248965
249789
241851
244631
253205
255280
239050
241170
257010
243141
245520
260025
259981
252366
256946
238970
245473
241138
243069
382613
367923
378041
345155
369100
388483
354170
319655
301254
318701
331007
320484
331346
316627
320647
332587
324551
339276
348837
337088
350172
520768
413714
205335
258717
485332
523148
191470
253021
519695
396341
420225
482078
497520
365292
329923
448863
441187
465585
304858
240602
260531
274281
462674
519736
490236
337976
313633
285169
373133
444448
470890
523276
539513
520350
398433
431211
215024
192673
204922
194395
199959
228852
194163
199798
202016
200834
207156
196208
199277
195732
218224
202153
211788
216445
294224
231937
200435
229908
332387
369843
255875
206687
289771
201648
436335
313522
379112
528079
425514
244086
237973
175447
258281
260001
190617
289494
264299
244188
164401
125140
204312
159590
125732
207442
200756
309428
180794
123463
218922
79213.7
154678
105946
464080
408657
435424
397850
372567
394196
420446
413048
612166
833413
335605
523360
574047
456456
184123
210097
208806
306853
341425
294390
319930
498211
509739
469769
420094
470788
445021
450918
285513
305205
252319
432229
382544
348258
385952
386123
267024
395319
235021
235013
345069
350029
134629
161032
153433
120384
147520
155986
130138
145239
111588
120396
103924
98843.3
111072
110687
194715
254173
373923
141364
99798.2
149620
257749
224655
224985
186452
210874
178541
182445
211343
213520
207257
230950
222822
242215
216217
229167
375664
377434
363262
377808
389840
392125
384555
241696
206489
223541
335392
306720
321728
337044
372389
451984
500455
592305
436608
502776
392410
567363
646521
655221
511097
496695
564731
571695
123964
150035
150303
158126
136807
133951
157696
105756
92664.1
96176
119021
114621
108312
108908
397311
404222
435671
418940
411601
398200
422985
282090
248911
281275
341487
367065
347989
368873
207482
174659
178482
182115
201903
179099
207543
274494
335920
251900
304686
248051
318060
295702
180798
147530
170172
163386
154346
141243
171316
233048
166351
138192
144683
124488
129534
158093
76032
78272.6
78089.6
112496
134057
111680
151126
199313
222485
307082
228939
222595
330871
327551
231178
196702
227141
187218
217967
193230
213669
448397
360150
487612
197174
360556
236893
333369
320791
395689
406871
456585
351279
435019
365743
833423
744680
765953
647075
717332
650153
694975
538235
724131
694547
571575
461807
442327
592049
470882
448833
459859
512726
500836
521936
491960
244360
280756
293111
232723
240515
285116
274504
301452
254380
222866
211980
207212
210487
208887
164514
156662
147660
170433
144582
163911
171313
428244
390002
356872
402896
368921
346038
380979
544527
226092
233994
555879
365927
206843
216883
222576
537079
361318
477388
463926
291418
260381
322474
425485
311822
381304
224148
249297
230802
216442
185833
212476
186867
203749
182661
190472
208897
150503
244132
182810
184601
148199
188056
209944
148256
135749
128970
126107
156999
130005
151567
264743
248788
246973
304345
309817
289878
287470
211013
216350
210312
211898
215849
212180
210846
558192
400603
434721
242979
276133
294466
235861
246247
215035
269866
299606
337717
223842
222643
265264
210643
222902
250020
261760
214022
250229
506631
388109
494019
430064
474955
406849
526889
575550
581535
645532
558167
587439
543841
617152
241232
232497
239189
279519
269457
270274
277905
369936
323765
340124
332383
346696
317961
364849
224945
212207
232566
217946
217380
212761
218700
387990
407091
371387
387228
343458
380866
285574
221135
417712
395070
393995
361741
378326
366124
360230
241418
174817
185826
304772
332808
325164
293990
364358
377445
392832
373944
352223
356184
385902
304208
337725
414793
379678
367832
371528
414155
366185
361219
371047
379579
353817
400273
356845
349165
265896
217621
351922
353308
400695
313306
387404
363423
373490
443038
353545
417213
411448
470819
429397
512688
398078
485221
438259
450492
349008
393254
357532
338128
371456
332322
375398
225801
216688
221168
218698
213712
216365
222539
303924
308729
285887
327383
301495
286888
311398
212356
216149
224873
213777
206664
213497
214061
206371
214398
209257
217236
203806
208058
209510
221261
204652
210302
226162
219178
208340
214358
203057
231642
238267
206282
208821
241358
236310
224944
261250
260144
224152
218315
251296
254275
325351
359170
309043
345109
312572
320757
361033
225160
213571
235687
231014
219790
224587
219361
222069
223994
229396
221307
229561
216307
220529
225531
230956
233798
221040
214047
213381
219198
236723
224179
216902
239418
232955
221012
227640
264955
296096
272503
275579
294640
268556
300594
297393
328663
298822
286844
318981
287562
314951
112551
108169
564277
361037
382009
472805
646623
425630
224276
135066
296833
351825
238409
232832
387598
101046
169919
173662
289376
180602
194669
244710
84278.6
611890
623168
503493
438292
453144
346669
433688
541321
301190
371167
241454
299201
275514
363378
457890
422603
340073
374025
269171
311892
374821
310528
433166
340386
312607
390738
443924
412601
329821
182626
277362
191285
404971
338897
407593
443310
394999
361687
192308
425061
535038
462593
574198
550538
422384
490328
450385
363922
429147
527581
633650
511326
524660
514705
614949
483813
591527
330102
412509
452408
446592
295277
352861
406082
257015
366097
313922
371491
256469
232860
384995
377639
356058
374764
429895
427335
440661
407928
447625
396753
414381
461460
430231
444504
439294
51550.4
8232.36
11404.8
58806.9
313752
316794
219413
40758
29123.8
52276
30508.3
25841
77881.1
13400.6
97623.5
86149.8
86421.9
70927.7
71196.4
139287
110639
140382
54084.7
106646
97272.2
78080.4
193809
89753.1
170405
8670.03
14823.6
18362.1
18085.9
8315.02
8580.53
19496.8
173748
241858
306806
336182
233277
290752
245422
91705.6
150477
306477
106683
39793.8
204197
213192
167582
279304
306281
245736
251268
177689
264265
60351.6
13413.3
135246
46656.3
13685.8
149414
64432.6
198454
113084
241339
321287
132149
184444
257147
488189
525215
628056
523458
559730
445923
616228
337245
296705
323096
372782
355291
383935
339011
508486
446862
473779
494335
570831
520240
599155
391360
228102
229721
345506
245862
379869
371257
445258
453054
451357
456607
441661
455135
442393
430317
240880
230698
348464
286878
388909
387278
471340
454325
485586
481845
449531
457516
477450
375927
417055
380934
427470
385814
428593
373937
502327
461625
290360
510194
367059
581415
444780
574256
514195
528856
538921
573120
606180
523465
378828
201357
282674
359542
250465
386920
319063
67085.5
17971.4
154717
514189
553778
8157.54
16525
25084.7
154193
111734
30131.2
96274.1
85836.7
174802
284809
237471
121736
114882
198987
67553
79296.3
140480
133373
96718.9
49260.2
94091.6
176880
136003
214549
167206
209561
122187
140844
355000
1.15201e+06
1.41164e+06
812314
263151
1.28239e+06
347250
8519.78
9966.13
25755.2
34982.2
57178.4
16082.5
10076.7
329666
380618
232101
388314
284536
179747
241565
101229
37129.9
128096
8960.24
23359.5
52028
87043.3
164360
83072
112479
72113
155903
107305
185022
111069
134529
106843
99470.3
112211
128140
119068
16347.6
47324.8
56084.6
36969.5
70605.1
34416.2
81676.1
132706
149515
161607
113765
113796
133468
138781
120000
113331
109388
71876.4
102264
87892.7
101436
9101.09
8342.27
9428.99
12216
9164.73
12818.7
8748.12
135238
213502
162157
157879
185740
147515
203722
281516
189203
213484
170774
212028
174096
218034
73653.2
143446
100157
34644.3
49497
63845.9
16491.4
1.25038e+06
1.1926e+06
919090
1.29753e+06
1.03356e+06
1.04382e+06
1.12826e+06
62815.1
87212.5
101143
76990
57690.6
83019.9
96715.5
106169
115723
111617
131618
139923
128616
140407
48537.5
54735.2
62738.4
35968.7
40243.1
48569.7
63518
92827.6
70641.3
83290.8
90276.3
105376
101298
79306.3
165120
194602
207196
168712
159606
173041
205759
119392
149999
116590
167844
133604
127220
157247
25324.5
12220.9
24166.8
50702.7
26302.3
50497.1
11054.9
1.46639e+06
1.20998e+06
1.42173e+06
1.01572e+06
1.1204e+06
1.09887e+06
785932
10910.4
10300.4
10640.3
16542.5
18110.8
30509.1
16450
1.21548e+06
1.25663e+06
1.34438e+06
1.14552e+06
1.13041e+06
1.13783e+06
993656
776111
478400
791167
508467
825706
783436
381243
57312.6
60925.4
47145.8
57310.2
74700
66790.7
67109.2
75096.8
71662
56160.8
60453.1
85399.8
73756
72565
104485
74745.6
95419.3
104523
91264.7
110669
83095.3
94462.1
131438
118753
113652
103959
90779.2
124963
258989
1.00651e+06
416258
269446
317226
257348
369832
252835
63474.4
157237
732525
16495
8339.38
12859.7
8751.71
37670.1
8112.28
8503.43
79256.2
59626.5
145852
200059
111748
45440.3
188226
8778.39
12225.3
12280.9
27241.6
9956.66
10220.8
23537.3
37670.3
111451
89717.6
80403.5
125944
104763
65371.8
458760
309351
243618
309337
384917
257893
286220
8224.14
8069.01
8156.77
8174.92
8196.17
8389.32
8269.89
246208
172611
136853
188692
148228
129205
166599
32273
9655.99
17877.6
12863.3
44553.3
32279.6
21832.3
82466.4
56547.9
16903.3
16404.9
71511.1
34574.4
48082.2
84208.2
46957.7
80084.8
85008.9
64414.7
59813.4
83187.8
127046
104281
126126
112576
100249
119680
88015.6
653926
393443
268118
443773
231852
385515
316768
9100.47
8297.13
8365.74
9103.68
8889.05
10686.9
8340.55
12252.3
8213.42
9146.53
9457.56
9216.56
12839.4
8372
108965
149374
110213
110047
143940
146579
108952
155916
191007
147847
136457
187373
148359
176355
8042.35
387697
1.33485e+06
8001.86
7669
49350
13006
10015.7
8122.55
10039.2
21696.3
385849
685461
633947
349628
64202.4
171240
17501.8
8539.69
8491.1
11379.6
8023.78
9792.23
22038.1
320193
194451
118419
310631
72327.7
272836
119810
1.59474e+06
555752
1.04885e+06
808338
1.2592e+06
249128
588675
7739.03
7857.16
7768.34
7725.56
7791.73
7796.17
7865.79
685898
544298
522320
514370