/*--------------------------------*- C++ -*----------------------------------*\
  =========                 |
  \\      /  F ield         | OpenFOAM: The Open Source CFD Toolbox
   \\    /   O peration     | Website:  https://openfoam.org
    \\  /    A nd           | Version:  9
     \\/     M anipulation  |
\*---------------------------------------------------------------------------*/
FoamFile
{
    format      ascii;
    class       volVectorField;
    location    "0.0002";
    object      U;
}
// * * * * * * * * * * * * * * * * * * * * * * * * * * * * * * * * * * * * * //

dimensions      [0 1 -1 0 0 0 0];

internalField   nonuniform List<vector> 
2193
(
(0 0 0)
(0 0 0)
(0 0 0)
(0 0 -7.42445e-15)
(0 0 0)
(0 0 -7.42445e-15)
(0 0 0)
(0 0 0)
(0 0 0)
(0 0 -7.42445e-15)
(0 0 0)
(0 0 0)
(0 0 0)
(0 0 0)
(0 0 0)
(0 0 0)
(0 0 -7.37562e-15)
(0 0 0)
(0 0 0)
(0 0 0)
(0 0 0)
(0 0 0)
(0 0 0)
(0 0 0)
(0 0 0)
(0 0 0)
(0 0 0)
(0 0 0)
(0 0 0)
(0 0 0)
(0 0 0)
(0 0 0)
(0 0 0)
(0 0 0)
(0 0 0)
(0 0 0)
(0 0 0)
(0 0 0)
(0 0 0)
(0 0 0)
(0 0 0)
(0 0 0)
(0 0 1.0669e-25)
(0 0 0)
(0 0 6.06288e-26)
(0 0 1.00461e-27)
(0 0 0)
(-8.31503e-49 0 0)
(0 0 0)
(0 0 0)
(0 0 0)
(0 0 0)
(0 0 0)
(0 0 0)
(0 0 0)
(0 0 0)
(0 0 0)
(0 0 0)
(0 0 0)
(0 0 0)
(0 0 0)
(0 0 0)
(0 0 0)
(0 0 0)
(0 0 0)
(0 0 0)
(0 0 0)
(0 0 0)
(0 0 0)
(0 0 0)
(0 0 0)
(0 0 0)
(0 0 0)
(0 0 0)
(0 0 0)
(0 0 0)
(0 0 0)
(0 0 0)
(0 0 0)
(0 0 0)
(0 0 0)
(0 0 0)
(0 0 0)
(0 0 0)
(0 0 0)
(0 0 0)
(0 0 0)
(0 0 0)
(0 0 0)
(0 0 0)
(0 0 -2.90843e-24)
(0 0 0)
(0 0 0)
(0 0 0)
(0 0 0)
(-2.38511e-46 0 0)
(0 0 0)
(0 0 0)
(0 0 0)
(0 0 0)
(0 0 0)
(0 0 0)
(0 0 0)
(0 0 0)
(0 0 0)
(0 0 0)
(0 0 0)
(0 0 0)
(0 0 0)
(0 0 0)
(0 0 0)
(0 0 0)
(0 0 0)
(0 0 0)
(0 0 0)
(0 0 0)
(0 0 0)
(0 0 0)
(0 0 0)
(0 0 0)
(0 0 0)
(0 0 0)
(0 0 0)
(0 0 0)
(0 0 0)
(0 0 0)
(0 0 0)
(0 0 0)
(0 0 0)
(0 0 0)
(0 0 0)
(0 0 0)
(0 0 0)
(0 0 0)
(0 0 0)
(0 0 0)
(0 0 0)
(0 0 0)
(0 0 0)
(0 0 0)
(0 0 -1.76043e-26)
(0 0 -8.49162e-29)
(0 0 0)
(-3.9089e-44 0 0)
(0 0 0)
(0 0 0)
(0 0 0)
(0 0 0)
(0 0 0)
(0 0 0)
(0 0 0)
(0 0 0)
(0 0 0)
(0 0 0)
(0 0 0)
(0 0 0)
(0 0 0)
(0 0 0)
(0 0 0)
(0 0 0)
(0 0 0)
(0 0 0)
(0 0 0)
(0 0 0)
(0 0 0)
(0 0 0)
(0 0 0)
(0 0 0)
(0 0 0)
(0 0 0)
(0 0 0)
(0 0 0)
(0 0 0)
(0 0 0)
(0 0 0)
(0 0 0)
(0 0 0)
(0 0 0)
(0 0 0)
(0 0 0)
(0 0 0)
(0 0 0)
(0 0 0)
(0 0 0)
(0 0 0)
(0 0 0)
(0 0 0)
(0 0 0)
(0 0 0)
(0 0 0)
(0 0 0)
(-4.20834e-42 0 0)
(0 0 0)
(0 0 0)
(0 0 0)
(0 0 0)
(0 0 0)
(0 0 0)
(0 0 0)
(0 0 0)
(0 0 0)
(0 0 0)
(0 0 0)
(0 0 0)
(0 0 0)
(0 0 0)
(0 0 0)
(0 0 0)
(0 0 0)
(0 0 0)
(0 0 0)
(0 0 0)
(0 0 0)
(0 0 0)
(0 0 0)
(0 0 0)
(0 0 0)
(0 0 0)
(0 0 0)
(0 0 0)
(0 0 0)
(0 0 0)
(0 0 0)
(0 0 0)
(0 0 0)
(0 0 0)
(0 0 0)
(0 0 0)
(0 0 0)
(0 0 0)
(0 0 0)
(0 0 0)
(0 0 0)
(0 0 -8.62538e-33)
(0 0 -8.7217e-30)
(0 0 -6.27441e-27)
(0 0 -2.10508e-24)
(0 0 -1.47287e-26)
(0 0 -5.68608e-30)
(-4.90602e-43 0 -8.14657e-33)
(0 0 0)
(0 0 0)
(0 0 0)
(0 0 0)
(0 0 0)
(0 0 0)
(0 0 0)
(0 0 0)
(0 0 0)
(0 0 0)
(0 0 0)
(0 0 0)
(0 0 0)
(0 0 0)
(0 0 0)
(0 0 0)
(0 0 0)
(0 0 0)
(0 0 0)
(0 0 0)
(0 0 0)
(0 0 0)
(0 0 0)
(0 0 0)
(0 0 0)
(0 0 0)
(0 0 0)
(0 0 0)
(0 0 0)
(0 0 0)
(0 0 0)
(0 0 0)
(0 0 0)
(0 0 0)
(0 0 0)
(0 0 0)
(0 0 0)
(0 0 0)
(0 0 0)
(0 0 0)
(0 0 0)
(0 0 0)
(0 0 0)
(0 0 0)
(0 0 0)
(0 0 0)
(0 0 0)
(-8.76717e-46 0 0)
(0 0 0)
(0 0 0)
(0 0 0)
(0 0 0)
(0 0 0)
(0 0 0)
(0 0 0)
(0 0 0)
(0 0 0)
(0 0 0)
(0 0 0)
(0 0 0)
(0 0 0)
(0 0 0)
(0 0 0)
(0 0 0)
(0 0 0)
(0 0 0)
(0 0 0)
(0 0 0)
(0 0 0)
(0 0 0)
(0 0 0)
(0 0 0)
(0 0 0)
(0 0 0)
(0 0 0)
(0 0 0)
(0 0 0)
(0 0 0)
(0 0 0)
(0 0 0)
(0 0 0)
(0 0 0)
(0 0 0)
(0 0 0)
(0 0 0)
(0 0 0)
(0 0 0)
(0 0 0)
(0 0 0)
(0 0 0)
(0 0 0)
(0 0 0)
(0 0 0)
(0 0 0)
(0 0 0)
(-2.2251e-48 0 0)
(0 0 0)
(0 0 0)
(0 0 0)
(0 0 0)
(0 0 0)
(0 0 0)
(0 0 0)
(0 0 0)
(0 0 0)
(0 0 0)
(0 0 0)
(0 0 0)
(0 0 0)
(0 0 0)
(0 0 0)
(0 0 0)
(0 0 0)
(0 0 0)
(0 0 0)
(0 0 0)
(0 0 0)
(0 0 0)
(0 0 0)
(0 0 0)
(0 0 0)
(0 0 0)
(0 0 0)
(0 0 0)
(0 0 0)
(0 0 0)
(0 0 0)
(0 0 0)
(0 0 0)
(0 0 0)
(0 0 0)
(0 0 0)
(0 0 0)
(0 0 0)
(0 0 0)
(0 0 0)
(0 0 0)
(0 0 0)
(0 0 0)
(0 0 0)
(0 0 0)
(0 0 0)
(0 0 0)
(-6.05176e-51 0 0)
(0 0 0)
(0 0 0)
(0 0 0)
(0 0 0)
(0 0 0)
(0 0 0)
(0 0 0)
(0 0 0)
(0 0 0)
(0 0 0)
(0 0 0)
(0 0 0)
(0 0 0)
(0 0 0)
(0 0 0)
(0 0 0)
(0 0 0)
(0 0 0)
(0 0 0)
(0 0 0)
(0 0 0)
(0 0 0)
(0 0 0)
(0 0 0)
(0 0 0)
(0 0 0)
(0 0 0)
(0 0 0)
(0 0 0)
(0 0 0)
(0 0 0)
(0 0 0)
(0 0 0)
(0 0 0)
(0 0 0)
(0 0 0)
(0 0 0)
(0 0 0)
(0 0 0)
(0 0 0)
(0 0 0)
(0 0 0)
(0 0 0)
(0 0 0)
(0 0 0)
(0 0 0)
(0 0 0)
(-1.06848e-53 0 0)
(0 0 0)
(0 0 0)
(0 0 0)
(0 0 0)
(0 0 0)
(0 0 0)
(0 0 0)
(0 0 0)
(0 0 0)
(0 0 0)
(0 0 0)
(0 0 0)
(0 0 0)
(0 0 0)
(0 0 0)
(0 0 0)
(0 0 0)
(0 0 0)
(0 0 0)
(0 0 0)
(0 0 0)
(0 0 0)
(0 0 0)
(0 0 0)
(0 0 0)
(0 0 0)
(0 0 0)
(0 0 0)
(0 0 0)
(0 0 0)
(0 0 0)
(0 0 0)
(0 0 0)
(0 0 0)
(0 0 0)
(0 0 0)
(0 0 0)
(0 0 0)
(0 0 0)
(0 0 0)
(0 0 0)
(0 0 0)
(0 0 0)
(0 0 0)
(0 0 0)
(0 0 0)
(0 0 0)
(-1.48824e-56 0 0)
(0 0 0)
(0 0 0)
(0 0 0)
(0 0 0)
(0 0 0)
(0 0 0)
(0 0 0)
(0 0 0)
(0 0 0)
(0 0 0)
(0 0 0)
(0 0 0)
(0 0 0)
(0 0 0)
(0 0 0)
(0 0 0)
(0 0 0)
(0 0 0)
(0 0 0)
(0 0 0)
(0 0 0)
(0 0 0)
(0 0 0)
(0 0 0)
(0 0 0)
(0 0 0)
(0 0 0)
(0 0 0)
(0 0 5.89392e-15)
(0 0 -5.89392e-15)
(0 0 6.49683e-15)
(0 0 7.42445e-15)
(0 0 0)
(0 0 0)
(0 0 0)
(0 0 -5.89392e-15)
(0 0 0)
(0 0 -7.27798e-15)
(0 0 0)
(0 0 0)
(0 0 0)
(0 0 0)
(0 0 0)
(0 0 5.89392e-15)
(0 0 7.27798e-15)
(0 0 0)
(0 0 7.37562e-15)
(0 0 0)
(0 0 0)
(0 0 0)
(0 0 0)
(0 0 0)
(0 0 0)
(0 0 0)
(0 0 0)
(0 0 0)
(0 0 0)
(0 0 0)
(0 0 0)
(0 0 0)
(0 0 0)
(0 0 0)
(0 0 0)
(0 0 0)
(0 0 0)
(0 0 0)
(0 0 0)
(0 0 0)
(0 0 0)
(0 0 0)
(0 0 0)
(0 0 0)
(0 0 0)
(0 0 0)
(0 0 0)
(0 0 0)
(0 0 0)
(0 0 0)
(0 0 0)
(0 0 0)
(0 0 0)
(0 0 0)
(0 0 0)
(0 0 0)
(0 0 0)
(0 0 0)
(0 0 0)
(0 0 0)
(0 0 0)
(0 0 0)
(0 0 0)
(0 0 0)
(0 0 0)
(0 0 0)
(0 0 0)
(0 0 0)
(0 0 0)
(0 0 0)
(0 0 0)
(0 0 0)
(0 0 0)
(0 0 0)
(0 0 0)
(0 0 0)
(0 0 0)
(0 0 0)
(0 0 0)
(0 0 0)
(0 0 0)
(0 0 0)
(0 0 0)
(0 0 0)
(0 0 0)
(0 0 0)
(0 0 0)
(0 0 0)
(0 0 0)
(0 0 0)
(0 0 0)
(0 0 0)
(0 0 0)
(0 0 0)
(0 0 0)
(0 0 0)
(0 0 0)
(0 0 0)
(0 0 0)
(0 0 0)
(0 0 0)
(0 0 0)
(0 0 0)
(0 0 0)
(0 0 0)
(0 0 0)
(0 0 0)
(0 0 0)
(0 0 0)
(0 0 0)
(0 0 0)
(0 0 0)
(0 0 0)
(0 0 0)
(0 0 0)
(0 0 0)
(0 0 0)
(0 0 0)
(0 0 0)
(0 0 0)
(0 0 0)
(0 0 0)
(0 0 0)
(0 0 0)
(0 0 0)
(0 0 0)
(0 0 0)
(0 0 0)
(0 0 0)
(0 0 0)
(0 0 0)
(0 0 0)
(0 0 0)
(0 0 0)
(0 0 0)
(0 0 0)
(0 0 0)
(0 0 0)
(0 0 0)
(0 0 0)
(0 0 0)
(0 0 0)
(0 0 0)
(0 0 0)
(0 0 0)
(0 0 0)
(0 0 0)
(0 0 0)
(0 0 0)
(0 0 0)
(0 0 0)
(0 0 0)
(0 0 0)
(0 0 0)
(0 0 0)
(0 0 0)
(0 0 0)
(0 0 0)
(0 0 0)
(0 0 0)
(0 0 0)
(0 0 0)
(0 0 0)
(0 0 0)
(0 0 0)
(0 0 0)
(0 0 0)
(0 0 0)
(0 0 0)
(0 0 0)
(0 0 0)
(0 0 0)
(0 0 0)
(0 0 0)
(0 0 0)
(0 0 0)
(0 0 0)
(0 0 0)
(0 0 0)
(0 0 0)
(0 0 0)
(0 0 0)
(0 0 0)
(0 0 0)
(0 0 0)
(0 0 0)
(0 0 0)
(0 0 0)
(0 0 0)
(0 0 0)
(0 0 0)
(0 0 0)
(0 0 0)
(0 0 0)
(0 0 0)
(0 0 0)
(0 0 0)
(0 0 0)
(0 0 0)
(0 0 0)
(0 0 0)
(0 0 0)
(0 0 0)
(0 0 0)
(0 0 0)
(0 0 0)
(0 0 0)
(0 0 0)
(0 0 0)
(0 0 0)
(0 0 0)
(0 0 0)
(0 0 0)
(0 0 0)
(0 0 0)
(0 0 0)
(0 0 0)
(0 0 0)
(0 0 0)
(0 0 0)
(0 0 0)
(0 0 0)
(0 0 0)
(0 0 0)
(0 0 0)
(0 0 0)
(0 0 0)
(0 0 0)
(0 0 0)
(0 0 0)
(0 0 0)
(0 0 0)
(0 0 0)
(0 0 0)
(0 0 0)
(0 0 0)
(0 0 0)
(0 0 0)
(0 0 0)
(0 0 0)
(0 0 0)
(0 0 0)
(0 0 0)
(0 0 0)
(0 0 0)
(0 0 0)
(0 0 0)
(0 0 0)
(0 0 0)
(0 0 0)
(0 0 0)
(0 0 0)
(0 0 0)
(0 0 0)
(0 0 0)
(0 0 0)
(0 0 0)
(0 0 0)
(0 0 0)
(0 0 0)
(0 0 0)
(0 0 0)
(0 0 0)
(0 0 0)
(0 0 0)
(0 0 0)
(0 0 0)
(0 0 0)
(0 0 0)
(0 0 0)
(0 0 0)
(0 0 0)
(0 0 0)
(0 0 0)
(0 0 0)
(0 0 0)
(0 0 0)
(0 0 0)
(0 0 0)
(0 0 0)
(0 0 0)
(0 0 0)
(0 0 0)
(0 0 0)
(0 0 0)
(0 0 0)
(0 0 0)
(0 0 0)
(0 0 0)
(0 0 0)
(0 0 0)
(0 0 0)
(0 0 0)
(0 0 0)
(0 0 0)
(0 0 0)
(0 0 0)
(0 0 0)
(0 0 0)
(0 0 0)
(0 0 0)
(0 0 0)
(0 0 0)
(0 0 0)
(0 0 0)
(0 0 0)
(0 0 0)
(0 0 0)
(0 0 0)
(0 0 0)
(0 0 0)
(0 0 0)
(0 0 0)
(0 0 0)
(0 0 0)
(0 0 0)
(0 0 0)
(0 0 0)
(0 0 0)
(0 0 0)
(0 0 0)
(0 0 0)
(0 0 0)
(0 0 0)
(0 0 0)
(0 0 0)
(0 0 0)
(0 0 0)
(0 0 0)
(0 0 0)
(0 0 0)
(0 0 0)
(0 0 0)
(0 0 0)
(0 0 0)
(0 0 0)
(0 0 0)
(0 0 0)
(0 0 0)
(0 0 0)
(0 0 0)
(0 0 0)
(0 0 0)
(0 0 0)
(0 0 0)
(0 0 0)
(0 0 0)
(0 0 0)
(0 0 0)
(0 0 0)
(0 0 0)
(0 0 0)
(0 0 0)
(0 0 0)
(0 0 0)
(0 0 0)
(0 0 0)
(0 0 0)
(0 0 0)
(0 0 0)
(0 0 0)
(0 0 0)
(0 0 0)
(0 0 0)
(0 0 0)
(0 0 0)
(0 0 0)
(0 0 0)
(0 0 0)
(0 0 0)
(0 0 0)
(0 0 0)
(0 0 0)
(0 0 0)
(0 0 0)
(0 0 0)
(0 0 0)
(0 0 0)
(0 0 0)
(0 0 0)
(0 0 0)
(0 0 0)
(0 0 0)
(0 0 0)
(0 0 0)
(0 0 0)
(0 0 0)
(0 0 0)
(0 0 0)
(0 0 0)
(0 0 0)
(0 0 0)
(0 0 0)
(0 0 0)
(0 0 0)
(0 0 0)
(0 0 0)
(0 0 0)
(0 0 0)
(0 0 0)
(0 0 0)
(0 0 0)
(0 0 0)
(0 0 0)
(0 0 0)
(0 0 0)
(0 0 0)
(0 0 0)
(0 0 0)
(0 0 0)
(0 0 0)
(0 0 0)
(0 0 0)
(0 0 0)
(0 0 0)
(0 0 0)
(0 0 0)
(0 0 0)
(0 0 0)
(0 0 0)
(0 0 0)
(0 0 0)
(0 0 0)
(0 0 0)
(0 0 0)
(0 0 0)
(0 0 0)
(0 0 0)
(0 0 0)
(0 0 0)
(0 0 0)
(0 0 0)
(0 0 0)
(0 0 0)
(0 0 0)
(0 0 0)
(0 0 0)
(0 0 0)
(0 0 0)
(0 0 0)
(0 0 0)
(0 0 0)
(0 0 0)
(0 0 0)
(0 0 0)
(0 0 0)
(0 0 0)
(0 0 0)
(0 0 0)
(0 0 0)
(0 0 0)
(0 0 0)
(0 0 0)
(0 0 0)
(0 0 0)
(0 0 0)
(0 0 0)
(0 0 0)
(0 0 0)
(0 0 0)
(0 0 0)
(0 0 0)
(0 0 0)
(0 0 0)
(0 0 0)
(0 0 0)
(0 0 0)
(0 0 0)
(0 0 0)
(0 0 0)
(0 0 0)
(0 0 0)
(0 0 0)
(0 0 0)
(0 0 0)
(0 0 0)
(0 0 0)
(0 0 0)
(0 0 0)
(0 0 6.45245e-15)
(0 0 0)
(0 0 0)
(0 0 0)
(0 0 0)
(0 0 -7.56756e-17)
(0 0 0)
(0 0 -1.33729e-21)
(0 0 -1.01046e-19)
(0 0 0)
(0 0 0)
(0 0 0)
(0 0 0)
(0 0 0)
(0 0 0)
(0 0 0)
(0 0 0)
(0 0 0)
(0 0 0)
(0 0 0)
(0 0 0)
(0 0 0)
(0 0 0)
(0 0 6.86226e-34)
(0 0 2.72911e-31)
(0 0 0)
(0 0 0)
(0 0 0)
(0 0 0)
(0 0 0)
(0 0 0)
(0 0 0)
(0 0 0)
(0 0 0)
(0 0 0)
(0 0 0)
(0 0 0)
(0 0 2.89832e-16)
(0 0 0)
(0 0 1.77017e-23)
(0 0 2.74769e-18)
(0 0 0)
(0 0 0)
(0 0 0)
(0 0 0)
(0 0 0)
(0 0 0)
(0 0 0)
(0 0 0)
(0 0 0)
(0 0 0)
(0 0 0)
(0 0 0)
(0 0 -7.09607e-17)
(0 0 0)
(0 0 -3.64974e-26)
(0 0 -1.59415e-20)
(0 0 0)
(0 0 0)
(0 0 0)
(0 0 0)
(0 0 0)
(0 0 0)
(0 0 0)
(0 0 0)
(0 0 0)
(0 0 0)
(0 0 0)
(0 0 0)
(0 0 2.58061e-27)
(0 0 4.10207e-36)
(0 0 4.70846e-26)
(0 0 1.27393e-23)
(0 0 0)
(0 0 0)
(0 0 0)
(0 0 0)
(0 0 0)
(0 0 0)
(0 0 0)
(0 0 0)
(0 0 0)
(0 0 0)
(0 0 0)
(0 0 0)
(0 0 0)
(0 0 0)
(0 0 -4.23706e-32)
(0 0 -1.99446e-29)
(0 0 0)
(0 0 0)
(0 0 0)
(0 0 0)
(0 0 0)
(0 0 0)
(0 0 0)
(0 0 0)
(0 0 0)
(0 0 0)
(0 0 0)
(0 0 0)
(0 0 0)
(0 0 0)
(0 0 0)
(0 0 0)
(0 0 0)
(0 0 0)
(0 0 0)
(0 0 0)
(0 0 0)
(0 0 0)
(0 0 0)
(0 0 0)
(0 0 0)
(0 0 0)
(0 0 0)
(0 0 0)
(0 0 0)
(0 0 0)
(0 0 0)
(0 0 0)
(0 0 0)
(0 0 0)
(0 0 0)
(0 0 0)
(0 0 0)
(0 0 0)
(0 0 0)
(0 0 0)
(0 0 0)
(0 0 0)
(0 0 0)
(0 0 0)
(0 0 0)
(0 0 0)
(0 0 0)
(0 0 0)
(0 0 0)
(0 0 0)
(0 0 0)
(0 0 0)
(0 0 0)
(0 0 0)
(0 0 0)
(0 0 0)
(0 0 0)
(0 0 0)
(0 0 0)
(0 0 0)
(0 0 0)
(0 0 0)
(0 0 0)
(0 0 0)
(0 0 -7.1018e-17)
(0 0 0)
(0 0 0)
(0 0 0)
(0 0 0)
(0 0 0)
(0 0 0)
(0 0 0)
(0 0 0)
(0 0 0)
(0 0 0)
(0 0 0)
(0 0 0)
(0 0 0)
(0 0 0)
(0 0 0)
(0 0 0)
(0 0 0)
(0 0 0)
(0 0 0)
(0 0 -9.65957e-17)
(0 0 8.24594e-29)
(0 0 1.68589e-18)
(0 0 -3.81599e-18)
(0 0 7.83779e-22)
(0 0 1.24963e-27)
(0 0 0)
(0 0 0)
(0 0 0)
(0 0 0)
(0 0 0)
(0 0 0)
(0 0 0)
(0 0 0)
(0 0 0)
(0 0 0)
(0 0 0)
(0 0 0)
(0 0 0)
(0 0 0)
(0 0 0)
(0 0 0)
(0 0 0)
(0 0 0)
(0 0 0)
(0 0 0)
(0 0 0)
(0 0 0)
(0 0 0)
(0 0 0)
(0 0 0)
(0 0 -1.39649e-19)
(0 0 0)
(0 0 1.79539e-31)
(0 0 0)
(0 0 5.18561e-21)
(0 0 0)
(0 0 -1.03206e-24)
(0 0 1.62931e-33)
(0 0 9.03955e-25)
(0 0 0)
(0 0 -4.51228e-30)
(0 0 0)
(0 0 0)
(0 0 0)
(0 0 0)
(0 0 0)
(0 0 0)
(0 0 0)
(0 0 0)
(0 0 0)
(0 0 0)
(0 0 0)
(0 0 0)
(0 0 0)
(0 0 0)
(0 0 0)
(0 0 0)
(0 0 0)
(0 0 0)
(-5.55447e-46 0 0)
(-1.41318e-43 0 0)
(-3.3008e-41 0 0)
(-8.39743e-39 0 0)
(-1.59338e-40 0 -2.2715e-30)
(-6.17078e-43 0 0)
(-1.29461e-45 0 0)
(-3.6963e-48 0 0)
(-7.28391e-51 0 0)
(-1.13516e-53 0 0)
(0 0 -1.38944e-16)
(0 0 4.44538e-23)
(0 0 1.11047e-24)
(0 0 0)
(0 0 0)
(0 0 0)
(0 0 0)
(0 0 0)
(0 0 4.3009e-24)
(0 0 0)
(0 0 2.99218e-24)
(0 0 0)
(0 0 -2.0087e-22)
(0 0 0)
(0 0 0)
(0 0 0)
(0 0 0)
(0 0 0)
(0 0 -1.20652e-24)
(0 0 0)
(0 0 0)
(0 0 0)
(0 0 0)
(0 0 -3.48557e-30)
(0 0 -2.50314e-27)
(0 0 -1.18075e-24)
(0 0 -1.2192e-22)
(-2.31597e-18 2.50093e-17 -6.66472e-15)
(0 0 0)
(0 0 7.15729e-17)
(0 0 0)
(0 0 7.694e-17)
(0 0 0)
(0 0 -3.03168e-16)
(0 0 0)
(0 0 0)
(0 0 0)
(0 0 0)
(0 0 0)
(0 0 -7.20034e-19)
(0 0 0)
(0 0 0)
(0 0 0)
(0 0 5.14486e-18)
(0 0 -2.77457e-16)
(0 0 0)
(0 0 0)
(0 0 0)
(0 0 0)
(0 0 0)
(0 0 0)
(0 0 0)
(0 0 0)
(0 0 0)
(0 0 0)
(0 0 0)
(0 0 0)
(0 0 0)
(0 0 0)
(-1.32455e-30 0 0)
(0 0 0)
(0 0 9.53933e-20)
(0 -1.28594e-20 0)
(0 0 8.90382e-17)
(0 0 0)
(0 0 0)
(0 0 0)
(0 -5.06474e-23 0)
(0 0 0)
(0 0 0)
(0 0 0)
(0 0 0)
(0 -1.64523e-25 0)
(0 0 0)
(0 0 0)
(0 0 0)
(0 0 0)
(0 -4.58227e-28 0)
(0 0 0)
(0 0 0)
(0 0 0)
(0 0 0)
(0 -2.73008e-22 0)
(0 -6.11178e-21 0)
(0 -6.38282e-21 0)
(0 -1.5767e-20 -6.49666e-15)
(0 0 6.2478e-15)
(0 0 -6.82757e-15)
(0 0 0)
(0 0 0)
(0 0 0)
(0 0 0)
(0 0 0)
(0 0 0)
(0 0 0)
(0 0 0)
(0 0 7.67018e-18)
(0 0 0)
(0 0 0)
(0 0 0)
(0 0 0)
(0 0 0)
(0 0 0)
(0 0 0)
(0 0 0)
(0 0 0)
(0 0 0)
(0 0 0)
(0 0 0)
(0 0 0)
(0 0 0)
(0 0 0)
(0 0 0)
(0 0 0)
(0 0 0)
(0 0 0)
(0 0 0)
(0 0 0)
(0 0 0)
(0 0 0)
(0 0 0)
(0 0 0)
(0 0 0)
(0 0 0)
(-1.31733e-34 0 0)
(-2.0027e-37 0 0)
(-2.36688e-40 0 0)
(-5.44493e-43 0 0)
(-1.15739e-45 0 0)
(0 6.44791e-18 0)
(0 5.40028e-31 0)
(0 -2.39034e-16 -7.49639e-16)
(0 0 0)
(0 2.2706e-16 7.22916e-15)
(0 3.21855e-18 0)
(0 3.83602e-17 0)
(0 3.98418e-20 0)
(0 1.722e-18 0)
(0 4.16405e-20 0)
(0 0 0)
(0 0 0)
(0 0 0)
(0 0 0)
(0 0 0)
(0 0 0)
(0 0 0)
(0 0 0)
(0 0 0)
(0 0 0)
(0 0 0)
(0 0 0)
(0 0 0)
(0 0 0)
(0 0 0)
(0 0 0)
(0 0 0)
(0 0 0)
(0 0 0)
(0 0 0)
(0 0 0)
(0 0 0)
(0 0 0)
(0 0 0)
(0 0 0)
(0 0 0)
(0 0 0)
(0 0 0)
(0 0 0)
(0 0 0)
(0 0 0)
(0 0 0)
(0 0 0)
(0 0 0)
(0 0 0)
(0 0 0)
(0 0 0)
(0 0 0)
(0 -1.32893e-16 1.74168e-16)
(0 -9.48714e-19 0)
(0 -8.47924e-19 0)
(0 -2.28643e-20 0)
(0 -4.09844e-21 0)
(0 -1.31436e-22 0)
(0 -1.59836e-23 0)
(0 -5.58811e-25 0)
(0 0 0)
(0 -6.00925e-17 0)
(0 -1.60554e-40 0)
(0 -2.19501e-36 -5.85861e-16)
(0 5.98956e-32 0)
(-6.17787e-19 2.47717e-20 -4.02122e-16)
(0 0 0)
(0 0 0)
(0 0 0)
(0 0 -3.90574e-16)
(0 1.66421e-27 0)
(-2.54358e-17 1.31009e-20 -1.40448e-15)
(0 0 0)
(0 -5.40594e-43 0)
(0 -1.87066e-39 0)
(0 -1.0764e-34 3.90574e-16)
(0 -8.24838e-27 0)
(-8.42312e-18 -7.57712e-20 1.15157e-15)
(0 0 0)
(0 5.97767e-17 0)
(0 0 0)
(0 0 0)
(0 5.00248e-22 5.85861e-16)
(-5.73379e-18 3.3739e-19 8.03475e-17)
(0 0 0)
(0 0 0)
(0 0 0)
(0 0 0)
(0 5.38027e-21 0)
(-2.76155e-25 7.89142e-19 -1.23899e-16)
(0 0 0)
(0 0 0)
(0 0 0)
(0 0 0)
(0 7.75039e-25 0)
(0 3.21195e-18 -1.73324e-19)
(0 0 0)
(0 0 0)
(0 0 0)
(0 0 0)
(0 0 0)
(0 0 0)
(0 0 0)
(0 0 0)
(0 0 0)
(0 0 0)
(0 0 0)
(0 0 2.18631e-16)
(0 0 0)
(0 0 0)
(0 0 0)
(0 0 0)
(0 0 0)
(0 0 0)
(0 6.9838e-17 6.59442e-15)
(0 0 0)
(0 0 0)
(0 0 0)
(0 0 0)
(0 0 0)
(0 0 0)
(0 -2.82419e-16 -8.99693e-17)
(0 0 0)
(0 0 0)
(0 0 0)
(0 0 0)
(0 0 0)
(0 0 0)
(0 2.72448e-16 -7.12268e-17)
(0 0 0)
(0 0 0)
(0 0 0)
(0 0 0)
(0 0 0)
(0 0 0)
(-1.39638e-20 4.11372e-18 0)
(0 0 0)
(0 0 0)
(0 0 0)
(0 0 0)
(0 0 0)
(0 0 0)
(0 1.15829e-17 0)
(0 0 0)
(0 0 0)
(0 0 0)
(0 0 0)
(0 0 0)
(0 0 0)
(0 0 0)
(0 0 0)
(0 0 0)
(0 0 0)
(0 0 0)
(0 0 0)
(0 0 3.10965e-18)
(0 0 0)
(0 0 0)
(0 0 0)
(0 0 0)
(0 0 0)
(0 0 0)
(0 2.13778e-18 2.20987e-16)
(0 0 0)
(0 0 0)
(0 0 0)
(0 0 0)
(0 0 0)
(0 0 0)
(0 -6.44593e-18 -5.65816e-17)
(0 0 0)
(0 0 0)
(0 0 0)
(0 0 0)
(0 0 0)
(0 0 0)
(0 6.08737e-18 3.06788e-16)
(0 0 0)
(0 0 0)
(0 0 0)
(0 0 0)
(0 0 0)
(0 0 0)
(0 1.28264e-19 0)
(0 0 0)
(0 0 0)
(0 0 0)
(0 0 0)
(0 0 0)
(0 0 0)
(0 2.80342e-20 0)
(0 0 0)
(0 0 0)
(0 0 0)
(0 0 0)
(0 0 0)
(0 0 0)
(0 0 0)
(0 0 0)
(0 0 0)
(0 0 0)
(0 0 0)
(0 0 0)
(0 0 0)
(0 0 0)
(0 0 0)
(0 0 0)
(0 0 0)
(0 0 0)
(0 0 0)
(0 0 0)
(0 0 0)
(0 0 0)
(0 0 0)
(0 0 0)
(0 0 0)
(0 0 0)
(0 0 0)
(0 0 0)
(0 0 0)
(0 0 0)
(0 0 0)
(0 0 0)
(0 0 0)
(0 0 0)
(0 0 0)
(0 0 0)
(0 0 0)
(0 0 0)
(0 0 0)
(0 0 0)
(0 0 0)
(0 0 0)
(0 0 0)
(0 0 0)
(0 0 0)
(0 0 0)
(0 0 0)
(0 0 0)
(0 0 0)
(0 0 0)
(0 0 0)
(0 0 0)
(0 0 0)
(0 0 0)
(0 0 0)
(0 0 0)
(0 0 0)
(0 0 0)
(0 0 0)
(0 0 0)
(0 0 0)
(0 0 0)
(0 0 0)
(0 0 0)
(0 0 0)
(0 0 0)
(0 0 0)
(0 0 0)
(0 0 0)
(0 0 0)
(0 0 0)
(0 0 0)
(0 0 0)
(0 0 0)
(0 0 0)
(0 0 0)
(0 0 0)
(0 0 0)
(0 0 0)
(0 0 0)
(0 0 0)
(0 0 0)
(0 0 0)
(0 0 0)
(0 0 0)
(0 0 0)
(0 0 0)
(0 0 0)
(0 0 0)
(0 0 0)
(0 0 0)
(0 0 0)
(0 0 0)
(0 0 0)
(0 0 0)
(0 0 0)
(0 0 0)
(0 0 0)
(0 0 0)
(0 0 0)
(0 0 0)
(0 0 0)
(0 0 0)
(0 0 0)
(0 0 0)
(0 0 0)
(0 0 0)
(0 0 0)
(0 0 0)
(0 0 0)
(0 0 0)
(0 0 0)
(0 0 0)
(0 0 0)
(0 0 0)
(0 0 0)
(0 0 0)
(0 0 0)
(0 0 0)
(0 0 0)
(0 0 0)
(0 0 0)
(0 0 0)
(0 0 0)
(0 0 0)
(0 0 0)
(0 0 0)
(0 0 0)
(0 0 0)
(0 0 0)
(0 0 0)
(0 0 0)
(0 0 0)
(0 0 0)
(0 0 0)
(0 0 0)
(0 0 0)
(0 0 0)
(0 0 0)
(0 0 0)
(0 0 0)
(0 0 0)
(0 0 0)
(0 0 0)
(0 0 0)
(0 0 0)
(0 0 0)
(0 0 0)
(0 0 0)
(0 0 0)
(0 0 0)
(0 -2.98618e-16 6.05912e-15)
(-1.63163e-37 0 2.85086e-16)
(-1.07011e-40 0 0)
(-1.70561e-43 0 0)
(-2.77219e-46 0 0)
(0 -4.98453e-30 0)
(0 -2.14501e-27 0)
(0 -1.07219e-24 0)
(0 -1.9456e-22 -5.85861e-16)
(0 -2.05236e-20 3.90574e-16)
(0 -3.20897e-18 -5.61762e-16)
(0 -1.81777e-31 0)
(0 -5.96582e-29 0)
(0 -1.7398e-26 0)
(0 -3.72539e-24 0)
(0 -7.17772e-22 0)
(0 -9.28718e-20 2.92725e-16)
(0 -1.6326e-33 0)
(0 -5.32203e-31 0)
(0 -1.51809e-28 0)
(0 -3.68148e-26 0)
(0 -7.54075e-24 0)
(0 -1.27427e-21 0)
(0 -9.79436e-36 0)
(0 -3.18511e-33 0)
(0 -8.97553e-31 0)
(0 -2.12699e-28 0)
(0 -4.04893e-26 0)
(0 -5.56869e-24 0)
(0 -4.32673e-38 0)
(0 -1.39553e-35 0)
(0 -3.86428e-33 0)
(0 -8.86719e-31 0)
(0 -1.59422e-28 0)
(0 -2.00138e-26 0)
(0 -1.50919e-40 0)
(0 -4.82316e-38 0)
(0 -1.31397e-35 0)
(0 -2.9376e-33 0)
(0 -5.08388e-31 0)
(0 -6.10431e-29 0)
(-4.32241e-28 5.70988e-17 6.14345e-15)
(-4.68434e-31 -2.33255e-16 -7.49639e-16)
(-3.86046e-34 2.23721e-16 7.27798e-15)
(-2.38546e-37 7.82768e-18 0)
(-3.60869e-41 1.70975e-18 0)
(-3.62051e-45 0 0)
(-1.31713e-30 0 0)
(-5.72179e-34 0 0)
(-3.32225e-37 0 0)
(-8.91575e-41 0 0)
(-1.09134e-44 0 0)
(0 0 0)
(-5.96238e-34 0 0)
(-2.6045e-37 0 0)
(-8.96679e-41 0 0)
(-1.4473e-44 0 0)
(0 0 0)
(0 0 0)
(-1.6701e-37 0 0)
(-6.39575e-41 0 0)
(-1.21947e-44 0 0)
(0 0 0)
(0 0 0)
(0 0 0)
(-7.54043e-25 -2.40371e-16 7.25028e-15)
(-8.69208e-28 0 0)
(-3.01477e-31 0 0)
(-7.9548e-35 0 0)
(-8.73543e-28 -8.46954e-19 0)
(0 -4.12819e-21 0)
(0 -1.61185e-23 0)
(0 -5.25461e-26 0)
(0 -3.32147e-20 0)
(0 -8.0705e-19 0)
(0 -8.46697e-19 0)
(0 -1.05221e-18 9.46938e-16)
(0 0 -5.85861e-16)
(0 0 5.58408e-16)
(-2.29421e-31 -5.09373e-18 7.24707e-15)
(-1.83359e-34 -7.45578e-20 0)
(-5.2274e-38 -3.41734e-22 0)
(-3.43168e-41 -1.27477e-24 0)
(-5.47839e-44 -4.00888e-27 0)
(0 0 0)
(0 0 -1.41409e-19)
(0 0 -1.49104e-16)
(0 0 -8.63741e-20)
(0 0 0)
(0 0 4.09661e-29)
(0 0 3.10549e-31)
(0 0 1.43471e-26)
(0 0 0)
(0 0 4.8707e-19)
(0 0 7.50795e-17)
(0 0 5.37227e-20)
(0 0 0)
(0 0 -1.6338e-24)
(0 0 -3.64275e-17)
(0 0 -4.13044e-17)
(0 0 0)
(0 0 3.94585e-26)
(-1.70378e-27 0 0)
(0 0 0)
(0 0 6.0751e-22)
(0 0 0)
(0 0 -1.2151e-28)
(-1.18298e-30 0 2.81735e-22)
(0 0 1.03037e-20)
(0 0 3.52347e-22)
(0 0 0)
(0 0 0)
(0 0 0)
(0 0 0)
(0 0 0)
(0 0 0)
(0 0 0)
(0 0 0)
(0 0 0)
(0 0 0)
(0 0 0)
(0 0 1.83427e-26)
(0 0 0)
(0 0 0)
(0 0 7.11911e-22)
(0 0 0)
(0 0 6.05504e-22)
(0 0 0)
(0 0 0)
(0 0 8.14846e-17)
(0 0 3.48632e-21)
(0 0 0)
(0 0 0)
(0 0 0)
(0 0 -6.82178e-21)
(0 0 0)
(0 0 0)
(0 0 0)
(0 0 0)
(0 0 0)
(0 0 0)
(0 0 -1.30068e-27)
(0 0 0)
(0 0 0)
(0 0 0)
(0 0 0)
(0 0 -4.30085e-23)
(0 0 0)
(0 0 0)
(0 0 -7.47976e-17)
(0 0 -2.9267e-18)
(0 0 0)
(0 0 0)
(0 0 0)
(0 0 0)
(0 0 0)
(0 0 0)
(0 0 0)
(0 0 0)
(0 0 0)
(0 0 0)
(0 0 -2.27538e-25)
(0 0 -1.01556e-27)
(0 0 0)
(0 0 0)
(0 0 0)
(0 0 -7.37438e-21)
(0 0 0)
(0 0 0)
(0 0 4.82099e-18)
(0 0 -4.47471e-18)
(0 0 0)
(0 0 0)
(0 0 0)
(0 0 0)
(0 0 0)
(0 0 0)
(0 0 0)
(0 0 8.87801e-24)
(0 0 0)
(0 0 0)
(0 0 0)
(0 0 0)
(0 0 0)
(0 0 0)
(0 0 0)
(0 0 0)
(0 0 0)
(0 0 0)
(0 0 0)
(0 0 0)
(0 0 0)
(0 0 0)
(0 0 0)
(0 0 0)
(0 0 0)
(0 0 0)
(0 0 0)
(0 0 0)
(0 0 0)
(0 0 0)
(0 0 0)
(0 0 0)
(0 0 0)
(0 0 0)
(-2.89674e-43 0 0)
(-1.16251e-40 0 -3.47403e-23)
(-8.32916e-41 0 0)
(-1.10555e-37 0 0)
(-6.51682e-38 0 0)
(-1.35204e-34 0 -4.1053e-17)
(-2.49925e-35 0 0)
(-6.27004e-32 0 0)
(-9.38546e-38 0 0)
(-2.14423e-34 0 0)
(-1.12031e-40 0 0)
(-6.09585e-38 0 0)
(-2.61391e-43 0 0)
(-4.01606e-41 0 0)
(-4.26892e-46 0 0)
(-6.16039e-49 0 0)
(-7.89547e-52 0 0)
(0 0 0)
(0 0 0)
(0 0 0)
(0 0 0)
(0 0 0)
(0 0 0)
(0 0 0)
(0 0 0)
(0 0 0)
(0 0 0)
(0 0 0)
(0 0 0)
(0 0 0)
(0 0 0)
(0 0 0)
(0 0 0)
(0 0 0)
(0 0 0)
(-1.18022e-24 3.36635e-25 0)
(0 9.40383e-22 0)
(0 2.39374e-19 3.75044e-19)
(0 2.31251e-17 1.5723e-16)
(-1.09109e-27 0 2.58011e-20)
(0 0 1.73854e-18)
(0 0 7.87568e-20)
(0 0 1.80429e-16)
(0 0 3.59604e-18)
(-4.11961e-31 0 0)
(-4.78315e-22 -7.20565e-15 9.1104e-16)
(-1.88836e-24 -1.30972e-16 0)
(-5.97894e-22 -5.35009e-15 -7.4613e-16)
(0 1.12457e-19 -5.5098e-16)
(-2.15425e-28 -1.6042e-16 -6.50064e-15)
(0 1.16885e-22 -9.89065e-16)
(0 3.90694e-20 -8.26554e-16)
(-1.18299e-28 0 0)
(0 -5.39845e-15 5.70597e-15)
(0 8.46118e-18 9.58517e-20)
(-1.79913e-23 1.09924e-16 -1.35286e-16)
(0 1.6551e-20 9.35124e-19)
(0 0 8.3047e-20)
(-1.7334e-15 -2.20917e-23 1.71753e-15)
(-1.74278e-15 2.9679e-17 -6.46718e-15)
(0 0 -2.38743e-16)
(0 0 2.82354e-18)
(0 0 8.04919e-27)
(0 0 2.15104e-24)
(0 0 7.40591e-17)
(0 0 8.88633e-19)
(0 0 -9.84424e-19)
(0 2.06326e-17 -2.28999e-17)
(0 2.25303e-16 0)
(0 0 0)
(0 2.25565e-16 0)
(0 0 0)
(0 8.02198e-16 -3.13212e-17)
(0 1.46549e-16 -5.98343e-17)
(-4.87311e-18 1.11233e-19 -3.54103e-15)
(0 2.90769e-16 -7.59801e-17)
(0 0 0)
(-2.7061e-18 1.18189e-18 2.12626e-16)
(0 0 1.0409e-17)
(0 7.26781e-15 -1.1669e-16)
(0 0 -3.12938e-20)
(0 7.36224e-15 -7.27488e-15)
(0 0 0)
(-1.81131e-23 0 1.02248e-14)
(0 0 0)
(-1.23077e-16 1.10455e-16 1.19802e-14)
(0 0 0)
(0 4.46476e-24 4.1623e-26)
(0 7.41586e-15 3.69913e-16)
(0 3.71205e-15 5.95788e-15)
(0 -5.07312e-16 3.50707e-15)
(0 0 2.19031e-16)
(0 0 1.12565e-16)
(0 0 -2.45504e-19)
(0 0 7.42445e-15)
(0 1.87927e-19 0)
(0 7.79539e-18 0)
(0 -3.67559e-15 -2.19132e-15)
(0 -7.26711e-15 -3.88077e-15)
(0 0 0)
(0 0 0)
(0 0 0)
(0 -3.01089e-16 -3.24166e-15)
(0 2.61559e-16 8.35189e-16)
(0 0 0)
(1.95287e-15 -2.47571e-16 1.51855e-16)
(0 2.66087e-16 1.97348e-16)
(-1.94247e-16 0 1.0292e-14)
(0 0 0)
(0 0 0)
(-1.36545e-14 0 -5.32921e-16)
(-2.4028e-18 0 6.97139e-16)
(0 0 4.04427e-16)
(0 0 4.65181e-15)
(0 0 1.09672e-15)
(0 0 -1.36698e-14)
(0 0 0)
(0 0 1.97171e-15)
(0 0 0)
(0 0 1.3965e-14)
(0 0 3.62925e-16)
(-5.83228e-16 9.40255e-21 9.91729e-15)
(0 0 0)
(0 0 1.46536e-14)
(-1.48489e-14 2.82474e-19 -5.07915e-19)
(0 1.1517e-19 0)
(0 0 2.70091e-16)
(0 2.87443e-19 3.71222e-15)
(0 0 -2.31865e-15)
(0 0 1.36431e-14)
(0 0 0)
(0 0 -1.91733e-15)
(0 0 0)
(0 0 -1.41907e-14)
(0 0 2.28623e-15)
(0 2.5281e-24 6.52778e-15)
(0 3.25702e-24 -1.65859e-14)
(0 0 0)
(0 0 0)
(0 2.70239e-16 1.66327e-15)
(0 0 0)
(0 0 -1.9104e-15)
(0 0 0)
(0 0 -9.33578e-15)
(0 0 0)
(0 0 2.04079e-15)
(0 0 -1.27995e-16)
(0 0 1.42545e-14)
(0 0 -6.31934e-18)
(0 0 -2.88087e-17)
(0 0 1.75901e-18)
(0 2.9538e-22 -9.23642e-18)
(-4.86186e-16 3.51616e-15 -8.99095e-18)
(-4.86587e-16 -4.24117e-18 3.43377e-15)
(-4.86783e-16 8.86943e-18 2.65202e-15)
(0 0 0)
(0 0 0)
(0 0 -1.53709e-15)
(0 0 -3.71045e-15)
(0 0 2.28924e-15)
(0 0 1.70496e-14)
(0 0 -1.21265e-14)
(0 0 0)
(0 0 -3.71045e-15)
(0 0 2.41228e-15)
(0 0 0)
(0 0 4.20473e-16)
(0 0 2.91644e-15)
(0 0 1.70258e-14)
(0 0 0)
(0 0 -1.28705e-14)
(0 0 6.20139e-16)
(0 0 -3.82029e-15)
(0 0 1.64765e-14)
(0 0 1.91744e-14)
(0 0 -1.18667e-14)
(0 1.36578e-27 -1.11246e-17)
(0 2.79045e-16 -3.81354e-24)
(0 5.87395e-16 -4.37605e-16)
(0 7.42445e-15 -6.99175e-15)
(0 -1.08216e-23 0)
(0 -2.7831e-21 7.54261e-21)
(0 9.16838e-22 1.52162e-23)
(0 -7.33598e-21 0)
(0 -7.87413e-19 2.12714e-18)
(0 -1.31493e-18 7.50652e-21)
(0 -4.60621e-16 0)
(0 0 -1.52599e-17)
(0 0 0)
(0 0 -5.15737e-16)
(0 0 0)
(0 0 5.67356e-16)
(0 -4.60621e-16 0)
(1.7617e-16 -2.38774e-16 4.13629e-17)
(0 -2.68983e-18 0)
(-1.93548e-16 2.12672e-16 3.48879e-19)
(0 0 -5.54082e-16)
(0 0 -1.40986e-16)
(0 -4.72222e-16 0)
(0 -4.63218e-16 -1.07911e-17)
(0 4.47443e-16 0)
(0 8.4877e-18 0)
(0 4.39201e-16 0)
(0 8.81196e-18 0)
(0 9.13338e-18 0)
(0 4.47566e-16 0)
(0 4.47088e-16 0)
(2.21122e-16 -2.00913e-16 5.04936e-21)
(0 1.05768e-17 0)
(0 2.17825e-16 0)
(0 4.54102e-16 0)
(0 4.48264e-16 0)
(0 4.19871e-16 0)
(0 4.13267e-16 0)
(0 0 -1.31647e-16)
(0 0 0)
(0 0 1.12663e-14)
(0 0 -9.48962e-17)
(0 0 4.53233e-15)
(0 0 -3.73417e-18)
(0 0 -7.62203e-18)
(0 0 0)
(0 0 9.76435e-16)
(0 0 -9.6432e-16)
(0 0 -2.10343e-14)
(0 0 1.64492e-17)
(0 0 1.32729e-18)
(0 0 -4.94747e-17)
(-7.10177e-20 0 -6.30484e-19)
(-1.15575e-16 0 -7.80085e-16)
(2.32385e-21 -1.20042e-24 3.84104e-17)
(-6.1872e-23 -1.6734e-24 6.85035e-17)
(-1.16728e-16 0 1.53246e-18)
(-1.51793e-20 -1.68531e-24 6.7889e-17)
(-4.31641e-18 -1.50082e-24 5.46505e-17)
(-1.25714e-18 1.51102e-22 2.75436e-18)
(-4.99068e-20 1.81122e-20 -3.77052e-16)
(0 3.24542e-19 -1.16317e-17)
(-1.15568e-16 2.2614e-19 3.16992e-18)
(-1.01283e-22 4.29848e-19 -3.77052e-16)
(-5.13112e-20 8.82857e-21 -3.77052e-16)
(-8.76659e-18 8.82857e-21 -3.77052e-16)
(0 -7.02282e-15 -6.63906e-15)
(0 6.95898e-15 -5.61265e-15)
(0 -7.16604e-15 -6.28342e-15)
(0 7.04436e-15 -9.05554e-16)
(0 1.09644e-16 0)
(0 8.6542e-18 0)
(0 0 0)
(0 9.09639e-16 1.08146e-16)
(1.00885e-16 2.26845e-21 1.63502e-14)
(0 0 0)
(-1.21747e-27 8.89148e-20 -6.69479e-15)
(-2.17764e-16 1.56899e-19 7.96634e-15)
(0 0 -8.50242e-16)
(0 0 0)
(0 0 1.46722e-14)
(0 0 -2.51356e-15)
(0 0 -2.87597e-16)
(0 0 -3.4541e-16)
(0 0 -1.29639e-14)
(-4.87459e-16 7.01513e-19 2.2926e-15)
(0 0 0)
(0 0 -3.90574e-15)
(0 0 2.57245e-15)
(0 0 -1.91298e-14)
(0 0 3.7398e-16)
(0 0 2.5485e-15)
(0 0 1.52651e-14)
(-2.0804e-19 1.91782e-15 -1.14075e-15)
(0 -9.6542e-16 2.59138e-15)
(-1.77423e-16 0 -3.46887e-16)
(-1.19008e-21 1.10831e-16 0)
(-1.48914e-24 0 -1.46056e-17)
(0 3.22327e-18 -3.86976e-16)
(0 1.07325e-16 0)
(0 5.63451e-18 -6.23003e-15)
(0 9.80947e-17 7.42445e-15)
(0 0 2.42853e-16)
(1.64938e-18 8.71598e-18 0)
(1.862e-16 0 4.53737e-16)
(0 1.98932e-18 7.42445e-15)
(-2.01922e-16 1.73487e-16 4.53737e-16)
(0 8.6624e-18 -6.15508e-15)
(0 6.4826e-18 -1.47831e-18)
(-1.68536e-17 1.15158e-20 -3.07586e-19)
(-1.12003e-22 6.79786e-24 1.10811e-16)
(-3.95735e-16 5.20263e-22 4.4492e-18)
(-4.47529e-20 -5.00015e-23 1.11763e-16)
(0 1.76879e-15 -4.46665e-16)
(0 9.75947e-16 3.50131e-15)
)
;

boundaryField
{
    ground
    {
        type            slip;
    }
    outlet
    {
        type            zeroGradient;
    }
    wall
    {
        type            slip;
    }
    wall2
    {
        type            slip;
    }
    wall3
    {
        type            slip;
    }
    internalPatch
    {
        type            internal;
    }
    procBoundary4to0
    {
        type            processor;
        value           nonuniform List<vector> 
160
(
(0 0 0)
(0 0 0)
(0 0 0)
(0 0 0)
(0 0 0)
(0 0 0)
(0 0 0)
(0 0 0)
(0 0 0)
(0 0 0)
(0 0 0)
(0 0 0)
(0 0 0)
(0 0 0)
(0 0 0)
(0 0 0)
(0 0 0)
(0 0 0)
(0 0 0)
(0 0 0)
(0 0 0)
(0 0 0)
(0 0 0)
(0 0 0)
(0 0 0)
(0 0 0)
(0 0 0)
(0 0 0)
(0 0 0)
(0 0 0)
(0 0 0)
(0 0 0)
(0 0 0)
(0 0 0)
(0 0 0)
(0 0 0)
(0 0 0)
(0 0 0)
(0 0 0)
(0 0 0)
(0 0 0)
(0 0 0)
(0 0 0)
(0 0 0)
(0 0 0)
(0 0 0)
(0 0 0)
(0 0 0)
(0 0 0)
(0 0 -1.5154e-26)
(0 0 1.34673e-19)
(0 0 -1.50676e-16)
(0 0 7.61465e-17)
(0 0 1.21429e-26)
(0 0 -7.3281e-15)
(0 0 -1.13035e-21)
(0 0 -7.25113e-15)
(0 0 0)
(0 0 0)
(0 0 0)
(0 0 -6.86926e-15)
(0 0 -3.87268e-19)
(0 0 0)
(0 0 0)
(0 0 0)
(0 0 0)
(0 0 7.37562e-15)
(0 0 0)
(0 0 0)
(0 0 0)
(0 0 0)
(0 0 0)
(0 0 0)
(0 0 0)
(0 0 0)
(0 0 0)
(0 0 0)
(0 0 0)
(0 0 0)
(0 0 0)
(0 0 0)
(0 0 0)
(0 0 0)
(0 0 0)
(0 0 0)
(0 0 0)
(0 0 0)
(0 0 0)
(0 0 0)
(0 0 0)
(0 0 0)
(0 0 0)
(0 0 0)
(0 0 0)
(0 0 0)
(0 0 0)
(0 0 0)
(0 0 0)
(0 0 0)
(0 0 0)
(0 0 0)
(0 0 0)
(0 0 0)
(0 0 0)
(0 0 0)
(0 0 0)
(0 0 -2.09316e-31)
(0 0 5.03345e-22)
(0 0 -1.02614e-22)
(0 0 2.79062e-16)
(0 0 1.39613e-33)
(0 0 0)
(0 0 0)
(0 0 0)
(0 0 0)
(0 0 0)
(0 0 0)
(0 0 0)
(0 0 0)
(0 0 0)
(0 0 0)
(0 0 0)
(0 0 0)
(0 0 0)
(0 0 0)
(0 0 0)
(0 0 0)
(0 0 0)
(0 0 0)
(0 0 0)
(0 0 0)
(0 0 0)
(0 0 0)
(0 0 0)
(0 0 0)
(0 0 0)
(0 0 0)
(0 0 0)
(0 0 0)
(0 0 0)
(0 0 0)
(0 0 0)
(0 0 0)
(0 0 0)
(0 0 0)
(0 0 0)
(0 0 0)
(0 0 0)
(0 0 6.75947e-15)
(0 0 -6.75705e-15)
(0 0 5.11142e-25)
(0 0 0)
(0 0 0)
(0 0 0)
(0 0 0)
(0 0 0)
(0 0 0)
(0 0 0)
(0 0 0)
(0 0 0)
)
;
    }
    procBoundary4to5
    {
        type            processor;
        value           nonuniform List<vector> 
183
(
(-2.23093e-15 5.94883e-23 1.05341e-16)
(-2.23093e-15 5.94883e-23 1.05341e-16)
(-2.23093e-15 5.94883e-23 1.05341e-16)
(-2.23093e-15 5.94883e-23 1.05341e-16)
(-2.20734e-20 1.06976e-24 5.21815e-20)
(-3.49991e-22 -1.19154e-26 4.35525e-21)
(-4.88047e-17 -3.92977e-25 1.90583e-20)
(-2.23931e-17 -1.09401e-24 1.95287e-15)
(0 -1.03781e-24 3.53511e-15)
(0 -1.03781e-24 3.53511e-15)
(0 3.5217e-25 2.0906e-15)
(0 9.56365e-30 1.12379e-15)
(-3.95348e-18 -2.69208e-18 -2.57083e-15)
(-5.17512e-16 -4.83838e-16 3.16579e-15)
(-6.55167e-18 2.61557e-25 6.89622e-17)
(-6.55167e-18 2.61557e-25 6.89622e-17)
(-2.63859e-25 4.09594e-25 1.10889e-16)
(-1.36588e-14 0 2.13968e-16)
(-6.94483e-15 2.40214e-23 0)
(-6.94238e-15 0 0)
(-6.94238e-15 0 1.95287e-15)
(2.48184e-24 -2.6256e-26 9.1625e-21)
(-3.64082e-17 -3.26013e-25 1.48666e-19)
(-3.08189e-17 -1.62668e-24 2.10193e-20)
(-2.31502e-15 3.57098e-15 3.31389e-15)
(0 1.66816e-19 -6.10075e-16)
(0 1.66816e-19 -6.10075e-16)
(0 0 -7.42445e-15)
(0 -2.18712e-32 2.5405e-15)
(0 0 -4.73837e-15)
(0 -4.31003e-34 -5.32423e-15)
(0 -2.03895e-25 -7.1415e-15)
(0 -4.17602e-23 -3.90018e-16)
(0 0 -6.67605e-15)
(-1.51026e-25 0 3.91139e-16)
(0 3.13852e-20 2.04541e-15)
(-7.84664e-22 5.63231e-17 0)
(-6.03806e-22 4.45002e-17 0)
(-4.87862e-25 0 -8.62483e-17)
(-8.62001e-16 4.43644e-22 -3.55985e-20)
(-8.62001e-16 4.43644e-22 -3.55985e-20)
(-4.87862e-25 0 -8.62483e-17)
(5.3201e-15 0 1.03722e-14)
(1.64419e-18 8.04101e-23 -9.21713e-18)
(1.66682e-18 7.90751e-23 -6.99072e-17)
(2.06492e-20 0 7.70374e-17)
(1.13645e-20 0 -5.9876e-17)
(-7.31097e-26 0 -9.63716e-18)
(-2.52919e-20 0 -5.19406e-17)
(-5.51949e-18 2.06747e-22 9.46881e-17)
(-6.94238e-15 1.45985e-17 0)
(8.45038e-25 2.24159e-16 2.2307e-16)
(-1.50609e-20 2.2518e-16 2.2307e-16)
(-4.88215e-16 3.49359e-15 -1.1344e-16)
(-1.60411e-25 1.12241e-16 -3.59894e-15)
(0 1.91085e-18 -2.56133e-18)
(0 1.91085e-18 -2.56133e-18)
(0 0 0)
(0 0 0)
(0 0 0)
(0 -4.09861e-37 -1.612e-15)
(0 0 0)
(0 -3.78931e-38 -2.10022e-15)
(0 -6.18607e-28 0)
(0 -6.18607e-28 0)
(0 -2.03895e-25 -7.1415e-15)
(0 -4.17602e-23 -3.90018e-16)
(0 0 -6.67605e-15)
(-1.51026e-25 0 3.91139e-16)
(0 3.13852e-20 2.04541e-15)
(0 2.58626e-20 2.11426e-15)
(0 2.58626e-20 2.11426e-15)
(0 1.45314e-20 1.38736e-28)
(0 3.49987e-20 -3.52662e-15)