/*--------------------------------*- C++ -*----------------------------------*\
  =========                 |
  \\      /  F ield         | OpenFOAM: The Open Source CFD Toolbox
   \\    /   O peration     | Website:  https://openfoam.org
    \\  /    A nd           | Version:  9
     \\/     M anipulation  |
\*---------------------------------------------------------------------------*/
FoamFile
{
    format      ascii;
    class       volScalarField;
    location    "0.0028";
    object      rho.c4;
}
// * * * * * * * * * * * * * * * * * * * * * * * * * * * * * * * * * * * * * //

dimensions      [1 -3 0 0 0 0 0];

internalField   nonuniform List<scalar> 
21664
(
15.6762
22.4436
36.2419
35.075
0.000307467
0.00547486
1.32413e-09
1.1864e-10
8.25775
3.25532
13.6284
17.5079
0.159973
0.0510145
9.21746e-05
2.8316e-06
2.7367
12.8256
3.6362
12.3978
3.55665
8.05008
2.68728
10.6309
8.96036
2.79172
17.9515
4.65288
13.3301
3.72713
4.15987
15.0717
4.05321
30.992
32.4285
5.67985
5.90361
5.49371
16.3647
4.51137
34.0163
6.597
46.2834
7.32977
2.70748
2.95365
2.92323
3.55503
3.51495
3.83286
3.8761
2.69429
2.90203
2.90997
3.48477
3.49563
3.81345
3.8011
2.88642
3.01479
3.1276
3.63171
3.76704
3.96618
4.13536
3.03623
3.59095
3.3137
4.31046
3.98499
4.41793
4.8514
3.57123
3.18461
3.19548
4.25143
4.8331
4.85906
4.23369
3.24613
3.59247
3.21147
4.27683
4.97812
4.89892
4.33067
3.31812
3.90267
3.45652
5.13976
4.44552
4.66863
5.44324
3.22475
4.15209
1.82712
3.14621
1.77836
5.00684
5.1789
2.54331
2.63166
3.31273
2.34435
1.98461
5.36774
5.16584
2.72022
3.00114
1.77223
1.97483
1.98307
2.09507
2.10216
2.36068
2.35117
1.7941
2.03934
2.00177
2.15327
2.11854
2.3805
2.42077
1.88612
2.10618
2.21758
2.21898
2.32943
2.49565
2.627
2.13508
2.63775
2.39311
2.75613
2.50554
2.83508
3.13286
2.22721
2.55687
2.23786
2.68714
3.08577
3.10179
2.67471
3.15903
2.53608
2.5453
2.88332
3.60216
2.8712
3.61872
2.30238
2.58268
2.25974
2.71101
3.18619
3.13078
2.7579
2.60151
3.18063
2.56345
2.90574
3.70188
2.95103
3.64649
2.37866
2.87323
2.50889
3.29063
2.84569
3.00086
3.4766
2.67465
3.47707
2.80675
3.81247
3.03873
3.19774
4.0181
3.46104
2.71221
3.11455
3.24828
4.20885
3.77512
3.60488
3.74915
3.33021
3.02031
3.45532
4.86095
3.83042
4.3575
3.31636
4.2029
5.03479
3.85559
3.87607
3.30061
4.22431
3.34419
4.33163
5.08326
3.97846
3.91109
3.39874
4.26046
4.47317
4.10957
3.50482
3.69785
5.71442
4.34844
4.73463
4.20069
4.04235
3.69023
5.04708
6.73185
5.95282
5.62611
5.81086
4.47083
5.31227
4.73783
7.1549
6.28711
4.01158
5.12366
8.11949
5.04147
5.6366
9.30271
5.72914
9.15054
13.2925
30.8051
34.405
21.0701
31.61
35.2565
20.4368
4.99837
8.01308
4.97472
5.59134
9.04482
5.56518
9.08163
4.07208
4.72933
4.75407
5.694
5.7294
6.98579
6.93867
4.87896
4.10115
4.79561
5.90744
5.78973
7.07549
7.25062
14.7875
32.8571
30.8675
28.9508
38.8497
34.4076
21.8458
8.51895
5.53411
5.2757
9.61169
5.91149
6.23432
10.1578
5.36112
4.28085
5.04727
6.13909
6.5608
7.58398
8.17156
6.42067
12.4608
7.51932
10.4618
7.56399
6.38621
10.5086
9.64081
6.52722
5.9371
6.75108
12.312
7.51604
11.0255
6.47661
10.7772
7.78887
12.5774
7.63913
6.58993
10.5924
4.90092
5.88883
6.69321
8.30669
7.25576
9.11786
10.5295
1.7198
2.05513
1.31826
1.59155
1.53739
1.36292
2.16089
2.24307
1.78326
1.64791
1.75465
1.41083
2.32209
2.94683
1.84668
2.30453
1.32572
1.44295
1.29539
1.45088
1.30341
1.44356
1.43462
1.33783
1.34986
1.49139
1.46439
1.31925
1.46091
1.49358
1.49112
1.40312
1.54232
1.62805
1.4876
1.54974
1.64016
1.60719
1.76698
1.91531
1.75341
1.60912
1.77258
1.94798
1.5739
1.72964
1.58266
1.60328
1.77612
1.78821
1.5928
1.55917
1.42586
1.39383
1.54249
1.76731
1.57798
1.731
1.3714
1.5434
1.37792
1.52424
1.70482
1.51618
1.71263
1.74797
1.62922
1.59837
1.62304
1.84926
1.81012
1.65873
1.4811
1.73845
1.56793
1.82963
1.63796
1.73319
1.93091
1.68574
1.95066
1.77961
1.91598
1.7193
1.81754
2.02497
1.86108
1.87276
1.6939
1.87332
2.29257
2.06253
2.08305
2.09645
2.1031
1.91702
1.96342
2.41177
2.18845
2.15982
1.70004
1.90031
1.9093
2.17325
1.91265
1.68995
1.91917
1.72096
1.98064
2.19746
1.97967
1.93625
1.76016
1.94019
2.05012
2.05278
1.82575
1.93122
2.45411
2.17202
2.16457
0.693029
0.607146
1.01377
0.813968
0.683186
0.644206
0.862374
0.904074
0.616241
0.699825
0.709234
0.621704
0.631373
0.719681
0.710059
0.643679
0.797883
0.740424
0.712367
0.659684
0.750733
0.809993
0.913789
0.92638
0.80573
0.923227
0.816146
0.824147
0.936069
0.909973
0.954368
0.849226
0.856339
1.02894
0.91796
0.967988
0.654232
0.676655
0.687043
0.76085
0.72986
0.739822
0.771287
0.738138
0.772044
0.716637
0.770717
0.862445
0.802441
0.831144
0.832217
0.981808
0.948526
0.842471
0.992008
0.872966
0.958272
1.02272
0.989719
1.08214
0.964632
1.05033
0.93543
0.873709
1.12198
1.73644
1.60129
1.32122
1.13705
1.35794
1.10541
1.664
1.15866
1.45747
1.40601
1.21575
1.73118
2.17086
1.29965
1.67554
1.02313
1.04699
1.02868
1.0534
1.14056
1.17983
1.17492
1.05375
1.20153
1.1339
1.0803
1.15974
1.20079
1.24477
1.18339
1.27512
1.27084
1.31575
1.36263
1.31743
1.41602
1.07893
1.13073
1.08678
1.22685
1.27506
1.28304
1.22019
1.24898
1.32604
1.2528
1.30938
1.40694
1.41277
1.30492
1.36809
1.56849
1.52677
1.42128
1.46498
1.52904
1.64757
1.3351
1.2964
1.26587
1.32464
1.45189
1.35914
1.42464
1.11445
1.21376
1.16918
1.24965
1.35687
1.3076
1.29605
1.35392
1.48663
1.44091
1.5055
1.4222
1.5168
1.59373
1.25356
1.41134
1.36012
1.4355
1.37158
1.47535
1.54402
1.67261
1.59955
1.5507
1.63684
1.86708
1.77207
1.71681
1.59814
1.53822
1.47672
1.59808
1.82546
1.67632
1.73198
1.37184
1.4368
1.49825
1.60886
1.44394
1.50481
1.36633
1.38955
1.6267
1.55173
1.50774
1.46489
1.42795
1.51944
1.61194
1.58088
1.49609
1.59772
1.83769
1.68966
1.70893
1.72843
2.01012
1.98575
1.99812
1.8313
1.87895
1.84387
2.08894
2.58302
2.65804
2.60453
2.35279
2.3055
2.33906
0.374382
0.353856
0.31645
0.596553
0.527667
0.500843
0.437842
0.689154
0.503441
0.307085
0.313504
0.258529
0.495592
0.480746
0.451084
0.420933
0.385045
0.322606
0.39143
0.417576
0.347942
0.356416
0.409698
0.266961
0.233638
0.244812
0.30066
0.285022
0.312961
0.301587
0.33452
0.423799
0.403876
0.432462
0.39513
0.371876
0.456668
0.45519
0.536204
0.462948
0.485756
0.545958
0.47695
0.555395
0.289243
0.282377
0.263197
0.360671
0.333372
0.325571
0.354191
0.331305
0.246824
0.263991
0.397594
0.323436
0.342851
0.412664
0.320618
0.355268
0.291114
0.366085
0.426104
0.387098
0.42372
0.507284
0.558303
0.479942
0.504843
0.622012
0.536843
0.579342
0.448504
0.38752
0.450405
0.478348
0.489567
0.398446
0.439171
0.355151
0.436811
0.439544
0.357798
0.370804
0.376814
0.454655
0.466945
0.443535
0.471089
0.548649
0.511976
0.416974
0.497415
0.537598
0.604034
0.570854
0.512822
0.614218
0.547894
0.580575
0.419352
0.457497
0.393189
0.399924
0.484149
0.470592
0.422435
0.492285
0.456809
0.394313
0.409866
0.495995
0.466045
0.45919
0.426385
0.463913
0.480288
0.497288
0.474829
0.438735
0.464062
0.534019
0.651966
0.614687
0.64075
0.571919
0.571393
0.605869
0.375569
0.456451
0.404109
0.377499
0.335594
0.484942
0.593363
0.491742
0.505298
0.376827
0.820335
0.645331
0.697083
0.539407
1.06845
0.624848
0.318284
0.359295
0.341296
0.389307
0.38024
0.398258
0.413493
0.44681
0.397881
0.470974
0.42298
0.488682
0.526725
0.451794
0.343346
0.373
0.355754
0.42236
0.400444
0.405572
0.415499
0.54061
0.697871
0.576748
0.68008
0.579841
0.631013
0.746759
0.373411
0.371231
0.363894
0.40799
0.412346
0.412159
0.410882
0.421969
0.549095
0.502378
0.573355
0.530766
0.634041
0.486209
0.376923
0.379935
0.359514
0.411194
0.463436
0.424387
0.436077
0.459031
0.482397
0.445067
0.446509
0.486858
0.482206
0.45225
0.445702
0.493534
0.439711
0.451111
0.530852
0.500509
0.470034
0.676177
0.753317
0.619133
0.68991
0.900947
0.762321
0.81918
0.476348
0.600408
0.539696
0.591275
0.584997
0.66436
0.514195
0.677816
0.718128
0.762162
0.690654
0.853969
0.756794
0.798023
0.4464
0.448292
0.487015
0.4837
0.482616
0.448892
0.447895
0.460094
0.526387
0.522238
0.559103
0.508407
0.472196
0.4954
0.652092
0.610969
0.636736
0.822741
0.737829
0.725436
0.558018
0.765564
0.982989
0.946808
0.956952
0.846356
0.852513
0.886259
1.35264
0.966495
0.757091
1.09611
1.00855
0.854562
1.17272
1.54209
0.825867
0.873176
0.785
0.953194
0.867081
0.892951
0.986063
0.893286
1.10603
1.02999
1.03912
0.950558
1.07818
1.17008
0.990846
1.18573
1.07709
1.11618
1.00469
1.10248
1.21633
0.816766
0.956799
0.90983
0.952205
0.918684
1.02185
1.0628
1.23629
1.27168
1.15861
1.19917
1.41402
1.29327
1.31664
1.1123
1.06942
1.18863
1.12763
1.30583
1.18189
1.23581
1.05644
1.1399
1.02565
1.13263
1.28689
1.17048
1.24804
1.24226
1.47524
1.41942
1.41129
1.29252
1.35305
1.36104
11.1602
8.08673
6.81775
7.22816
14.244
8.62478
11.8538
5.71384
7.12976
7.08104
8.81183
11.3629
11.4403
8.75068
7.42105
5.77688
7.22783
8.94009
11.9755
11.6178
9.19136
7.89586
14.6717
10.8413
15.7288
9.50726
8.89777
12.9794
8.42898
6.15083
7.78675
12.64
9.65986
10.4683
13.7731
25.508
37.0379
24.6441
43.8223
32.3483
19.5585
43.8494
15.1543
9.08705
9.14315
11.3681
18.7925
11.2977
18.8938
9.45728
15.3238
9.24741
11.5174
19.6203
11.821
19.1299
8.4398
11.0232
9.46548
11.7566
18.228
15.5656
13.6804
44.5115
36.3069
26.5095
12.6114
44.4824
51.5313
0.669364
9.86868
17.5803
10.6023
20.5512
12.4
13.4066
22.1644
13.2392
14.972
15.0216
21.4136
21.4749
24.046
24.0053
13.5773
19.5352
11.7917
15.0123
28.5664
17.4028
24.7379
13.4014
15.3712
15.1273
21.9354
21.6198
24.1592
24.4507
14.5383
23.9256
31.1365
18.9405
19.0538
14.4499
24.0469
14.7486
25.0335
31.5552
19.9541
19.348
15.1803
24.3658
14.0606
15.8705
16.7515
22.5408
23.5555
25.0768
26.2109
15.9004
20.2147
18.1482
27.2886
25.1014
28.0233
30.6035
26.2879
21.0662
15.9864
17.365
36.6598
22.9366
28.4445
17.7876
20.6929
17.5006
27.419
31.4967
31.2653
27.6908
20.5207
17.3124
17.3748
27.3256
31.2043
31.2081
27.2954
19.539
36.6888
40.6965
30.1791
25.8653
22.7457
31.8264
18.3887
23.2657
19.4853
32.0804
28.3268
29.5563
33.2702
23.9665
25.572
21.2755
31.5669
38.1393
35.2968
34.3596
24.7503
30.2089
30.306
35.4222
35.3463
39.1074
39.2883
24.9937
31.1749
30.5798
35.3608
35.2797
38.8643
38.7478
28.2722
32.325
34.3408
35.7747
36.8185
38.9571
39.8457
31.0727
41.7677
37.4966
41.5363
38.7512
41.7603
44.7329
30.2203
0.153359
0.0533347
0.0300402
34.0341
30.6355
34.7617
30.211
31.4243
30.1229
31.8172
32.51
31.9762
32.2923
29.9607
31.0921
30.0001
31.5555
31.5953
31.3698
31.9047
36.9311
43.7036
36.9681
42.1818
45.4443
45.1662
42.4412
3.80832
47.9609
58.116
3.56634e-07
5.03516e-13
3.55818
19.7636
0.00189935
4.26167e-09
2.94203
7.53077
4.7021
6.71491
3.92267
6.1508
15.8455
5.20836
20.3069
12.0298
38.3437
21.0883
7.25475
5.28946
2.61334
2.95577
3.08444
3.34919
3.49243
3.52582
4.01874
3.33574
4.40501
3.82603
4.59119
3.98829
4.62444
5.36965
3.38154
4.50929
3.85847
4.7937
4.08032
4.68435
5.54817
26.5284
11.2187
7.50113
53.1353
10.0292
26.2617
74.6914
3.74363
5.41807
4.26755
5.55406
4.33443
4.97898
6.47213
3.96361
3.97568
4.48993
4.77735
5.43426
5.47447
6.34215
5.16497
5.24018
4.44434
5.43721
7.7205
6.50471
6.37825
6.33669
5.72351
4.9172
5.78804
9.30074
6.80857
7.6792
4.49935
6.07355
5.16955
7.60411
6.34462
7.53678
9.17049
5.09383
6.10202
8.40302
5.90252
10.1357
7.14752
7.9441
4.53386
6.15198
5.1937
7.84719
6.45812
7.61203
9.38273
2.91059
2.6935
2.55973
1.92607
3.32685
2.55063
3.56228
5.10828
2.11625
1.95633
2.10619
2.32139
2.17228
2.16187
2.40993
2.41553
2.56286
2.32633
2.83888
2.56304
2.69405
3.02331
2.30802
2.28459
2.06684
2.56044
2.29952
2.58198
2.88673
2.31154
2.83874
2.5587
2.69413
2.40381
2.69227
3.0343
0.574214
1.21204
1.73377
0.435124
0.38568
0.43659
0.492563
0.564004
0.567734
0.814019
0.712011
0.505215
0.902064
0.810685
1.09335
1.0344
1.66391
1.35865
1.43508
1.05112
1.22753
1.68145
1.8009
2.18112
0.385339
0.398858
0.400557
0.419072
0.420713
0.434357
0.43062
0.396725
0.476357
0.420929
0.498223
0.442234
0.467142
0.53992
0.613147
0.56597
0.689932
0.586846
0.708702
0.795035
0.652395
0.750386
0.992342
0.836691
0.996363
0.849561
0.948483
1.10084
0.441637
0.414942
0.418659
0.453847
0.470427
0.481073
0.447334
0.454084
0.498395
0.457298
0.472761
0.507848
0.51876
0.466303
1.18865
1.14247
1.13895
1.27795
1.2698
1.24465
1.37509
0.485346
0.522073
0.45059
0.498343
0.644973
0.536478
0.58858
0.491184
0.54458
0.634452
0.518219
0.684284
0.575706
0.609
0.881106
0.634969
0.779355
0.893352
0.809188
0.726028
1.00439
0.673694
0.918083
0.766035
0.907193
0.844248
0.744949
1.02536
1.05125
1.09457
0.936513
1.0599
1.3496
1.18691
1.2172
0.496722
0.51407
0.532409
0.589693
0.548844
0.530217
0.485846
0.952959
1.19461
1.06079
1.06549
1.33261
1.18834
1.21366
1.31586
1.52398
1.40177
1.51368
1.39113
1.49501
1.61928
1.2428
1.48863
1.37563
1.49261
1.36069
1.48934
1.6202
1.32
1.44005
1.35294
1.46201
1.35023
1.47582
1.5838
0.552933
0.724296
0.74372
0.666928
0.616077
0.596659
0.662045
1.01555
0.91646
0.933142
1.28266
0.82527
1.1458
1.13796
1.19105
1.49934
1.4874
1.49403
1.33094
1.33397
1.34758
1.60764
1.6211
1.49696
1.60786
1.86523
1.73763
1.73378
1.59438
1.55551
1.4702
1.59316
1.82912
1.70016
1.71944
1.63888
1.62082
1.48595
1.61157
1.92641
1.7445
1.76506
1.72869
2.01287
1.99352
2.04585
1.86202
1.88256
1.85664
2.42118
1.87034
1.88746
1.54835
2.38642
1.82234
2.16809
3.22099
1.64498
1.6733
1.63498
1.78167
1.7481
1.76951
1.8953
1.74968
2.03263
1.89878
2.0103
1.87063
2.03212
2.18757
1.79912
2.04939
1.92981
2.035
1.91467
2.06407
2.21772
1.72524
1.97871
1.85806
1.98672
1.87267
2.02031
2.16059
2.22941
2.07094
2.22524
2.22696
2.64533
2.41082
2.41877
2.34875
2.00325
2.15156
2.18187
2.57217
2.35283
2.36538
2.19925
2.1836
2.04103
2.21463
2.6298
2.38695
2.4087
2.40549
2.90808
2.90495
2.87188
2.61334
2.62211
2.6423
3.26833
2.88407
2.5864
2.91277
3.74378
3.30275
3.27654
3.16676
2.84088
3.17255
3.02852
3.9162
3.43719
3.4234
2.89986
2.93012
2.5815
2.91595
3.80328
3.331
3.29159
3.31368
4.3422
4.38859
4.40027
3.81492
3.78864
3.76614
6.93658
11.9048
12.5253
10.3493
8.51969
8.27038
9.61625
8.89644
6.07089
7.31813
9.18367
14.2296
11.4506
11.306
34.665
42.6646
32.5948
52.3218
8.65227
33.5
41.7754
7.35958
13.977
8.51141
14.1412
8.60014
10.1005
16.6765
6.33945
7.84232
9.799
9.4302
11.8374
12.5283
15.2789
12.2752
16.663
10.0959
12.1589
24.7112
14.9638
20.114
17.0744
12.7434
10.3276
12.3054
25.3386
15.3569
20.3616
9.07578
14.5304
11.593
18.3082
14.5877
19.0078
24.0344
13.2406
16.3051
12.23
22.0025
16.4146
20.1787
27.1924
14.9939
30.5819
30.9877
23.5778
18.8748
18.6134
24.7583
19.2836
20.503
15.2188
25.2698
43.558
34.1826
32.1134
19.089
48.4742
48.1458
60.7533
0.00967024
24.431
0.00112637
16.1069
32.0513
19.5644
33.8825
20.7772
25.3583
40.7866
22.8855
23.1422
27.1354
30.2003
33.7902
33.8824
37.6955
39.2046
30.3158
24.1885
31.4518
58.6557
39.5224
49.204
43.1323
36.2492
27.2443
33.3411
60.6605
44.4028
51.0305
27.1253
38.646
32.3047
42.0603
37.8446
41.7821
45.8523
27.7145
39.1878
32.6052
41.5574
37.8074
41.6361
45.303
41.4746
68.1142
67.9599
66.9681
54.7394
51.9993
59.6882
45.5345
45.691
38.6373
45.5952
53.7774
49.3713
49.6811
1.6765
9.46872e-05
32.8224
0.000200098
0.558031
4.49299e-05
0.279672
6.38331e-06
2.19474
0.00144414
2.27343
4.79659e-06
1.03474
36.6596
32.907
33.8162
1.80832
3.30167
38.9422
3.26097
37.4192
41.4938
2.34731
37.7289
3.51962
41.0412
0.659332
0.0858761
35.2488
32.1612
30.6563
0.147499
32.1806
0.236135
1.7822
35.953
1.84234
36.0867
0.235355
32.7083
31.7931
32.5801
1.12842
0.0496654
29.7002
0.056758
30.1261
0.0365788
0.0138765
31.2273
30.4301
31.4639
0.0255666
30.1198
0.132548
32.7055
30.5429
15.577
0.000564
0.0075993
34.1701
30.6911
30.1013
30.5248
31.503
31.3893
31.7753
31.804
37.7298
43.6592
37.1864
41.8119
44.561
44.7752
41.5859
31.5642
34.4339
34.4685
32.7494
31.3873
32.7798
32.7828
46.889
44.9586
40.2495
46.1891
52.3501
48.9583
52.7527
38.8065
45.9142
40.7218
44.7624
41.7621
42.7476
45.8284
33.5598
35.0496
33.7629
35.4801
35.2649
33.7582
33.5482
34.6368
5.94548
1.06098e-05
1.3473e-05
0.204045
0.00467623
7.27767e-07
36.6836
36.7041
34.5755
36.925
36.8739
39.4315
39.3654
33.2113
32.8478
34.5967
34.6748
34.8879
32.9301
33.1552
48.0749
51.9613
47.6468
48.4186
43.7022
44.8769
48.1072
32.7831
34.586
32.8793
33.2896
34.9742
35.1546
33.201
52.3421
63.1496
57.735
58.0457
53.35
57.4717
62.5201
38.9907
36.5548
36.5037
34.5034
36.4751
36.642
34.4527
55.8544
52.0962
61.7504
56.481
52.2155
57.13
56.6973
35.3309
37.9643
36.2266
35.0963
35.4844
34.1589
36.8341
36.7781
38.7407
36.6915
37.8062
35.5749
35.6543
37.6212
39.1456
38.0502
39.9479
38.7309
36.1824
37.9481
36.8042
42.1504
40.7172
41.4863
40.2861
40.9543
40.2769
39.524
38.1909
39.4509
40.0888
38.8695
36.5224
36.9435
38.2772
42.0848
40.6389
41.5222
39.8562
40.8876
40.3106
39.4735
0.000160841
37.1526
37.0563
0.222254
0.0738707
9.18191e-06
1.03984e-05
36.8335
37.3813
37.1689
39.3863
39.0995
39.6162
38.8885
34.0873
33.4965
34.777
33.6114
31.7694
32.9107
32.3401
35.1583
33.7849
35.1135
33.9514
32.6475
32.6181
33.9942
36.3981
34.6721
35.0111
34.6772
35.1063
33.7278
33.4157
36.4816
34.6893
35.0541
34.8353
35.1872
33.7649
33.4452
36.5725
36.479
36.816
39.024
38.3181
38.7919
38.5373
34.2188
33.9734
33.1264
34.0347
33.0257
31.9667
32.7736
8.06248e-07
0.272108
6.47519e-06
3.5738e-05
28.1909
0.033815
2.8812e-06
36.626
37.0247
37.3144
38.4354
38.8948
39.7089
39.3547
39.6068
42.8021
39.6694
42.556
45.7592
45.9929
42.4308
33.5798
33.0424
33.8482
32.6552
31.8072
32.4131
31.9979
33.184
31.452
32.2718
31.0775
32.0238
31.1745
30.4641
33.0265
33.5203
33.8595
32.6607
31.7057
32.3672
31.9812
32.2886
30.8929
31.2865
30.7498
31.2082
30.3397
30.0039
31.5853
32.5467
31.5289
31.4897
31.4539
30.6306
30.569
41.946
39.2023
39.1107
42.2815
45.4653
45.3586
42.1434
32.9072
31.6023
32.2092
31.1443
31.2195
31.7926
30.6982
30.924
31.0679
31.5242
30.551
29.983
30.0809
30.2571
30.239
30.7553
30.8904
31.0262
30.9306
30.2153
30.1267
30.7619
30.5213
30.2992
30.2675
29.9307
29.7373
29.637
35.1294
41.3754
41.6101
38.7524
38.9976
41.6071
41.7489
68.4524
73.662
67.5877
68.41
62.5529
61.7282
67.8821
29.8874
30.1969
30.4754
30.3611
30.6777
29.897
29.6428
30.488
30.4084
30.2514
29.9028
29.7861
29.7081
30.1534
29.9712
29.683
30.0567
30.1427
30.0788
29.5096
29.5739
41.8382
41.4635
44.7396
30.4207
44.4737
42.0894
41.2948
41.457
41.0989
25.9255
43.8352
44.0681
41.2328
41.0361
30.7854
31.0447
31.2239
32.0811
31.8731
32.1786
32.0533
45.7198
35.2839
53.325
30.7864
49.2235
49.5525
45.4875
30.3773
30.437
30.7123
31.2089
31.4927
31.8499
32.0207
30.5263
30.6327
29.2205
30.7108
30.2223
29.8887
30.6378
41.7766
44.0034
41.3834
42.3248
6.56637
45.0477
34.129
0.000210967
5.83135e-08
5.77648e-08
0.0293294
6.94239e-07
0.00119736
7.12782e-08
14.3727
45.8136
44.9164
22.9636
48.7414
52.1789
4.47063
30.9918
30.2924
30.3387
31.1493
31.5123
26.2947
16.8453
3.24527
2.63777
3.1611
10.2306
3.37893
8.15888
3.16577
10.1604
7.45868
2.57806
7.8079
3.16324
10.9156
3.2942
10.1795
7.46909
2.57357
2.71685
4.55932
17.019
5.8251
8.14691
11.6767
3.45372
2.58937
3.55853
2.72079
2.59317
2.72452
3.37352
3.54913
2.58719
2.71061
2.71819
3.34504
3.35838
3.53283
3.52321
2.5771
2.70786
2.71414
3.34022
3.34482
3.522
3.53124
2.59465
2.79451
2.73876
3.41867
3.36551
3.56357
3.63799
4.20524
3.83029
2.90946
3.17316
2.91714
3.82357
4.20258
3.17134
2.90606
2.91286
3.8101
4.18696
3.80196
4.19331
2.83914
2.89438
3.04929
3.52273
3.69141
3.77649
3.998
2.9031
3.17283
2.91079
4.18642
3.80054
3.81202
4.2025
3.00872
3.20901
2.94054
3.8538
4.3892
3.95103
4.25852
3.01157
3.56696
3.26903
4.28631
3.93815
4.32307
4.7841
3.13387
3.70736
3.33124
4.63519
4.13339
4.4278
5.03703
5.0697
7.56937
4.74105
7.52937
4.71912
5.03999
8.11216
7.48452
4.67822
4.69324
5.0133
8.04616
5.00369
8.06672
7.51204
4.68115
4.70179
8.06257
5.01289
5.04436
8.11823
3.99419
4.06983
3.61304
4.86458
6.45929
5.62875
5.48426
4.86281
7.61218
4.75386
5.11964
8.51251
5.27013
8.25133
6.27156
9.02792
5.57042
5.54305
10.2069
8.98963
6.25031
5.52009
10.179
6.22821
8.9303
5.51237
8.95091
6.23346
6.24182
8.94648
5.52292
5.56191
10.2622
9.01253
6.29221
5.05945
5.37076
8.67447
8.95757
5.53233
5.94021
9.64179
5.65938
9.51628
6.67903
10.4779
5.85644
9.18037
6.41951
9.43961
10.5185
6.46577
6.53184
12.0292
10.6324
7.36239
10.094
7.13345
6.20023
6.73634
12.8653
10.9897
7.84175
2.11755
1.2461
1.77739
2.61884
1.97009
1.89605
2.0517
1.44476
2.5135
1.17901
2.05764
2.11637
1.44103
2.512
2.62326
1.55576
1.17245
2.05559
1.37841
1.47275
2.60567
2.18545
3.57312
2.7495
1.64362
1.67835
1.38508
1.46658
1.55206
1.42113
1.50499
1.63508
1.22662
1.25451
1.30383
1.38543
1.38382
1.46857
1.47028
1.18202
1.24782
1.25854
1.39285
1.40397
1.47812
1.4896
1.46093
1.20604
1.33058
1.28528
1.42396
1.51143
1.55385
2.099
2.84326
4.02667
6.27216
4.05123
3.33071
2.60945
1.82193
1.87665
1.63069
1.54844
1.60279
1.72327
1.71643
1.48956
1.34308
1.39163
1.57018
1.69502
1.57287
1.69052
1.337
1.45818
1.34963
1.70523
1.58133
1.59376
1.72103
1.30321
1.51942
1.39649
1.48418
1.5997
1.62224
1.71709
1.49603
1.43318
1.38097
1.61969
1.81176
1.66965
1.75295
1.58869
1.73432
1.59605
1.83147
1.70242
1.84102
1.99821
1.69155
2.05498
1.66557
1.76137
2.15897
1.78402
2.1649
2.05901
1.67561
1.6683
1.76493
2.16874
1.77269
2.16979
1.50916
1.76566
1.6123
1.90663
1.74976
1.86335
2.04398
1.67943
2.05901
1.68502
2.1669
1.77632
1.78206
2.17144
1.74025
2.07603
1.70219
1.80182
2.24209
1.84655
2.19302
1.90972
1.92391
1.74558
2.01416
2.45635
2.22686
2.20479
2.03312
2.48544
2.30152
1.88054
2.50441
2.31331
2.02746
1.88713
2.51386
2.0473
2.3196
1.89543
2.32048
2.03845
1.80327
2.28627
1.89175
2.32575
1.92106
2.02769
2.45034
1.90102
1.72916
1.89716
1.99233
2.193
2.19071
2.43085
2.05121
2.31749
1.89873
1.90557
2.52077
2.32364
2.06117
1.92984
2.40816
2.55277
2.15472
1.98281
2.34988
2.09162
2.15841
2.4237
2.0081
2.1711
2.85106
2.62274
2.35735
2.3378
2.34749
2.10596
2.7355
2.43874
2.72201
3.07188
2.33261
2.09623
2.33183
2.72649
2.43273
2.7188
3.0673
2.51002
2.26215
2.07152
2.20198
2.94471
2.66555
2.42301
2.37971
2.92317
3.1682
3.21679
2.88236
2.64227
2.60933
2.3506
3.1467
2.59348
3.15069
2.59363
2.88849
3.52532
2.94147
2.93892
2.6118
3.06396
3.97525
3.47888
3.47852
3.27197
3.53489
2.89724
3.25338
4.60032
3.70086
4.00068
3.54558
3.27451
2.89739
3.25373
4.62361
3.70525
4.00779
0.995913
1.877
1.34523
1.30721
1.6265
1.07714
1.34599
1.41185
0.979229
0.91622
0.91385
0.998685
1.09018
1.00371
1.102
1.34856
1.21736
1.21685
1.10094
1.09131
1.21602
1.21896
1.21959
1.10187
1.21381
1.22526
1.1086
1.2199
1.3471
0.995692
1.20716
1.13196
1.22114
1.08598
1.17864
1.30753
1.48385
1.63403
1.48469
1.48471
1.34835
1.34755
1.48501
1.52518
2.11927
1.66481
1.57484
1.73636
1.92646
1.33046
1.52109
1.08984
1.27604
1.93526
1.16946
1.27027
1.21578
0.937891
1.02936
1.46423
1.65525
1.38884
1.58294
1.10187
1.49664
1.17518
1.40414
1.46947
1.29579
1.36702
1.48133
1.53312
1.64809
1.46096
1.64963
1.5857
1.54799
1.56552
1.69099
1.67282
1.00913
1.03717
1.33631
0.876128
0.9088
0.964808
0.947344
1.84824
1.70045
1.52754
1.75779
1.61211
1.78361
1.93799
1.86876
1.78422
1.72313
1.83326
1.95053
1.80867
1.98676
1.79292
1.8081
1.70243
1.71158
1.60984
1.24394
1.3043
1.6234
1.83913
1.72454
1.60567
1.6359
1.75245
1.70879
1.31088
1.31561
1.56882
1.68085
1.16093
1.40518
1.39192
1.4185
1.08926
1.38607
1.03498
1.13766
1.03497
1.11884
1.03063
1.0164
0.931976
1.09858
1.10089
0.997196
1.08564
1.07158
1.031
0.917081
0.984107
1.152
1.01482
1.10409
2.02695
1.87063
1.97156
1.88992
1.92579
1.81792
2.04527
1.80524
1.54993
1.59069
1.24176
1.49904
1.47231
1.93532
1.25853
1.17898
1.17845
1.07316
1.2637
1.16755
1.16066
1.10817
1.2483
1.36057
1.06551
1.29688
1.19223
1.16188
1.28313
1.17291
1.2985
1.40829
1.54209
1.28728
1.41408
1.19048
1.32641
1.44826
1.29417
1.56282
1.42585
1.42244
1.7163
1.55609
1.69798
1.41643
1.70642
1.54987
1.55961
1.89245
1.77749
1.48209
1.55169
2.32034
2.32716
1.69886
1.76513
1.48352
1.34303
1.3476
1.48119
1.62349
1.47735
1.6284
1.79732
1.63218
1.6254
1.94139
1.77548
1.79413
1.97853
1.61887
1.93525
1.77239
1.77824
1.62092
1.78862
1.96797
1.40766
1.53745
1.69162
1.68674
1.54599
1.70719
1.86369
2.12249
1.93931
2.12099
1.97483
2.41755
2.17932
2.18264
1.71253
2.07407
1.86978
1.88775
2.30144
2.09155
2.06723
1.87003
1.85782
2.05454
1.88089
2.28958
2.0783
2.06101
2.58892
2.88384
2.5672
2.56318
2.29534
2.31567
2.08633
1.62975
1.56755
1.21936
1.37917
2.07151
1.74491
1.75211
1.54719
1.27741
1.31554
1.29333
1.36338
1.39496
1.40415
1.48642
0.840501
1.74414
1.85588
1.1759
1.18599
0.846662
1.23597
1.1091
0.687787
0.950239
1.59787
1.43868
1.91764
1.80191
1.49992
1.49244
1.53981
1.34444
1.18999
1.02548
1.07599
1.2833
1.33552
1.03886
1.29875
1.18417
1.25373
1.24313
1.30312
1.29446
1.35618
1.45876
1.31855
1.11622
0.714726
1.61553
1.12306
1.35472
1.0426
1.29808
1.5012
1.34694
1.18994
1.73582
1.65089
1.25751
0.852693
0.861002
1.08593
0.719644
0.795677
0.991643
0.88155
1.41371
1.68376
1.52565
1.74125
1.56998
1.52436
1.63897
1.16028
1.435
1.41993
0.913009
0.990671
1.22462
1.10709
1.26877
1.72722
1.48341
1.64252
1.43409
1.64806
1.8302
1.33657
1.62704
1.46244
1.6072
1.47665
1.63801
1.79334
1.43876
1.47728
1.4964
1.61603
1.4979
1.615
1.64674
0.873493
0.770365
0.786249
0.939975
0.924463
0.852112
1.00304
1.64094
1.79632
1.65259
1.40616
1.32748
1.47991
1.25523
0.8026
0.775023
0.771405
0.942881
0.996235
0.930377
0.959446
1.00428
1.37714
1.28698
1.14689
1.12257
1.01331
1.23283
1.78459
1.73916
1.84441
1.63876
1.64836
1.84237
1.50619
1.82943
1.86528
1.69796
1.82992
1.95832
1.931
1.94162
1.64751
1.51768
1.47277
1.7194
1.52573
1.78762
1.66646
0.630937
0.430931
0.478359
0.372398
0.480332
0.656322
0.706075
0.784457
0.369302
0.424914
0.443105
0.410531
0.477936
0.451964
0.39886
0.60936
0.495986
0.581357
0.526439
0.558366
0.533409
0.646481
0.385462
0.379234
0.419967
0.446696
0.401401
0.458998
0.395011
0.462698
0.558323
0.547948
0.445417
0.511117
0.489074
0.425275
0.508063
0.490422
0.587681
0.534715
0.725859
0.560022
0.662631
0.716151
0.667662
0.674706
0.826227
0.607204
0.596174
0.72484
0.463811
0.555212
0.582478
0.48907
0.430582
0.507691
0.420037
0.911698
0.986097
0.756567
0.605589
0.855295
0.644304
0.771798
0.198375
0.503446
0.204579
0.207013
0.200489
0.24665
0.342664
0.264843
0.436458
0.345842
0.547593
0.251812
0.43318
0.842328
0.499315
0.785195
0.221043
0.262072
0.228136
0.233308
0.329848
0.285093
0.261848
0.201731
0.21443
0.210821
0.221224
0.239361
0.252152
0.218077
0.334469
0.287763
0.236395
0.435747
0.284505
0.322712
0.366281
0.292139
0.448013
0.404017
0.492926
0.4149
0.379451
0.497071
0.196219
0.201014
0.196648
0.209883
0.209855
0.209318
0.211043
0.463931
0.617597
0.378303
0.57695
0.63749
0.719578
0.489564
0.199837
0.208
0.206287
0.213727
0.217201
0.213646
0.224313
0.537225
0.646556
0.663943
0.604741
0.686324
0.714441
0.589111
0.253583
0.282504
0.283724
0.38422
0.311769
0.244295
0.304998
0.279076
0.389833
0.424288
0.374343
0.357277
0.317739
0.341081
0.527043
0.352948
0.555373
0.484312
0.407164
0.461561
0.594086
0.548387
0.460086
0.505724
0.579049
0.453835
0.536771
0.592771
0.2372
0.234733
0.253213
0.305866
0.228621
0.256663
0.276334
0.657425
0.75448
0.698492
0.836312
0.782925
0.603373
0.713396
0.652441
0.734706
0.809237
0.680554
0.763216
0.631948
0.700221
0.229692
0.225275
0.254552
0.248058
0.22808
0.225907
0.259676
0.344483
0.220225
0.411074
0.421445
0.327115
0.405741
0.209947
0.326998
0.302422
0.250474
0.286448
0.352581
0.300677
0.329741
0.360705
0.210744
0.218397
0.235233
0.223025
0.246621
0.278676
0.23266
0.289681
0.344037
0.302863
0.336821
0.368603
0.327269
0.368285
0.391936
0.43372
0.431152
0.3921
0.348895
0.365355
0.395203
0.153351
0.196848
0.243345
0.29288
0.210939
0.275142
0.234817
0.36869
0.287456
0.338832
0.246763
0.289543
0.323135
0.269206
0.431983
0.406673
0.42657
0.369597
0.396333
0.364924
0.394624
0.395831
0.377389
0.386708
0.335857
0.291767
0.326021
0.294056
1.31008
1.44266
1.07776
0.90912
0.766248
1.82371
1.14139
0.800826
1.33362
0.708778
0.824936
0.692752
0.820223
0.771444
0.888813
0.909331
1.56692
1.19108
1.13724
1.23477
1.3762
1.82163
1.40213
0.712089
0.990533
0.853202
0.949545
0.823354
1.00596
1.19466
0.949681
1.07611
0.947491
1.14453
1.01844
1.05107
1.17918
0.830186
0.994793
0.866338
1.04557
0.961344
1.02961
1.17495
1.23351
1.11823
0.978969
1.20326
1.46914
1.37554
1.36797
1.17343
1.13329
0.997823
1.18183
1.58576
1.41552
1.3315
1.25319
1.11466
1.23089
1.21528
1.31158
1.32264
1.26782
1.20515
1.25947
1.23747
1.24114
1.29019
1.32723
1.32657
1.21926
1.1838
1.09465
1.18628
1.48498
1.32411
1.34124
1.40091
1.70684
1.67745
1.75448
1.59546
1.55914
1.56131
1.36426
1.41981
1.36816
1.40946
1.48713
1.48283
1.38687
1.14935
1.22597
1.19164
1.31477
1.30882
1.34758
1.27464
1.38281
1.31665
1.33999
1.40457
1.49811
1.41249
1.47456
1.27471
1.29832
1.23011
1.34758
1.54177
1.402
1.42811
1.24794
1.26479
1.17121
1.18861
0.89827
0.793805
0.97991
0.642165
0.747673
0.863461
0.778786
0.905185
0.830435
0.952825
0.911377
0.768224
0.783127
0.916136
0.784994
0.850532
0.982543
0.930674
1.0499
1.12358
0.996461
1.08651
1.16228
1.03762
1.20934
1.03948
1.07386
0.917422
1.18551
1.07008
1.12696
1.2463
0.844166
0.922081
0.878277
0.998003
1.02535
0.964657
1.04211
1.1125
1.0388
0.899177
0.960828
0.907761
1.035
1.08562
1.36634
1.29813
1.18274
1.17017
1.33182
1.28921
1.21377
1.12385
1.28083
1.21042
1.14803
1.09034
1.24569
1.16406
1.42881
1.5203
1.43599
1.60813
1.47605
1.53392
1.40087
1.46003
1.70532
1.66066
1.68127
1.53024
1.56453
1.56883
0.33026
0.401536
0.307416
0.357956
0.317939
0.472728
0.430573
0.204931
0.345567
0.145284
0.158324
0.509218
0.947345
0.6932
0.530115
0.263716
0.72334
0.46184
0.25866
0.339988
0.220146
0.375267
0.312844
0.288728
0.374644
0.401945
0.419156
0.496348
0.421745
0.492966
0.522709
0.438629
0.0895698
0.0508411
0.101644
0.153634
0.227687
0.187899
0.119583
0.559277
0.786503
0.61208
0.817342
0.617182
0.641745
0.808233
0.353636
0.227355
0.222543
0.511178
0.406031
0.352207
0.378755
0.770308
0.559364
0.270871
0.970091
0.623871
0.430405
0.809293
0.452551
0.408178
0.365751
0.350103
0.437078
0.40577
0.40722
0.267233
0.165369
0.165876
0.217043
0.238284
0.206834
0.296504
0.615277
0.456925
0.548848
0.548488
0.483263
0.462522
0.551037
0.335427
0.363235
0.447304
0.444283
0.288801
0.354367
0.371591
0.426267
0.278203
0.308445
0.29523
0.404477
0.398982
0.257426
0.14989
0.0716347
0.0990092
0.168522
0.216113
0.20676
0.147091
0.761589
0.904586
0.698486
0.655423
0.741114