/*--------------------------------*- C++ -*----------------------------------*\
  =========                 |
  \\      /  F ield         | OpenFOAM: The Open Source CFD Toolbox
   \\    /   O peration     | Website:  https://openfoam.org
    \\  /    A nd           | Version:  9
     \\/     M anipulation  |
\*---------------------------------------------------------------------------*/
FoamFile
{
    format      ascii;
    class       volScalarField;
    location    "0.0013";
    object      overpressure;
}
// * * * * * * * * * * * * * * * * * * * * * * * * * * * * * * * * * * * * * //

dimensions      [1 -1 -2 0 0 0 0];

internalField   nonuniform List<scalar> 
10529
(
0
0
0
0
0
0
0
0
0
0
0
0
0
0
0
0
0
0
0
0
0
0
0
0
0
0
0
0
0
0
0
0
0
0
0
1.71506e-05
0
6.28586e-06
1.62623e-05
5.73319e-06
2.51859e-06
2.07683e-06
8.26036e-05
3.76052e-05
8.52801e-05
3.75273e-05
0.0113775
2.8575
0.0176729
0.0115906
0.0137845
0.178731
0.14899
0.0254076
0.000502645
0.00724275
0.00113041
0.000673576
0.00120318
0.000677758
0.00332226
0.0945826
0.00802033
0.0127003
3.66228e-07
2.16493e-06
4.02899e-07
3.12328e-07
2.60799e-07
3.39157e-06
1.07889e-06
6.55823e-05
3.65718e-05
0.00372753
2.55418e-05
3.28549e-06
0.0001809
1.99068e-05
4.02069e-05
6.30681e-05
0.00024739
0.000258236
4.63636e-05
2.59512e-05
3.96144e-05
8.35236e-07
0
3.55125e-07
2.08529e-08
3.20142e-10
1.16415e-10
0
0
9.02219e-10
1.89175e-10
3.0559e-10
3.09956e-09
4.01633e-09
3.79805e-09
2.09548e-09
6.08698e-06
1.61293e-07
3.63796e-06
3.86589e-06
1.71771e-07
5.9235e-07
6.59347e-08
4.77303e-08
2.61934e-10
1.13505e-09
2.61934e-10
1.04774e-09
5.57338e-09
2.56114e-09
1.01863e-10
0
7.27596e-11
0
1.01863e-10
2.91038e-11
0
0
0
0
0
1.04352e-07
3.16475e-07
2.11585e-06
3.6147e-08
3.14467e-08
3.86353e-08
3.44153e-08
1.15411e-07
2.88725e-07
8.30623e-08
3.11236e-07
7.5961e-09
4.32046e-08
4.58385e-08
2.62022e-07
9.85165e-09
7.24685e-09
7.26141e-09
7.54662e-08
1.99943e-08
6.4596e-08
2.51748e-08
1.80604e-07
7.10133e-09
1.42201e-07
1.89175e-10
4.47819e-06
6.26655e-05
5.31189e-07
5.6049e-06
5.38421e-10
1.92085e-09
4.75848e-09
1.65164e-08
6.25732e-10
2.61934e-10
1.45519e-10
3.55067e-09
2.40107e-09
3.34694e-09
2.85218e-09
3.24508e-09
1.92085e-09
6.98492e-10
1.06083e-08
2.40689e-08
7.69796e-09
2.63826e-08
4.37591e-07
3.31929e-07
3.34432e-07
2.19297e-08
2.80124e-08
1.33441e-08
1.35333e-08
4.33694e-06
6.12796e-07
5.62475e-07
1.67565e-07
2.6077e-07
9.11296e-06
9.86713e-06
7.79983e-09
0
1.35333e-09
1.06083e-08
6.25732e-10
2.76486e-10
6.1118e-10
0
7.27596e-11
1.74623e-10
1.45519e-11
7.42148e-10
8.73115e-10
5.52973e-10
6.54836e-10
6.1118e-10
3.85626e-09
7.52334e-09
2.22644e-09
8.94943e-09
1.16823e-07
1.93832e-08
2.04018e-08
4.97676e-09
2.61934e-10
1.01863e-09
1.30967e-10
1.29512e-09
3.69619e-09
1.11759e-07
2.73576e-09
0
0
2.29603e-06
6.22967e-08
1.16415e-10
3.69619e-09
1.30967e-09
0
4.36557e-11
0
0
0
2.23954e-06
4.6608e-06
2.69052e-05
3.15806e-06
1.59827e-06
3.46736e-06
1.64086e-06
1.75787e-05
9.87915e-07
2.72894e-06
4.04107e-07
2.4246e-06
1.06375e-07
1.11395e-07
0
0
0
0
0
0
0
0
0
4.07454e-10
2.1435e-08
0
0
0
0
9.16771e-10
3.7835e-10
2.28465e-09
2.24099e-09
3.5594e-08
3.42698e-08
0
0
0
0
0
0
0
0
0
0
0
0
0
0
0
0
0
0
0
0
0
0
0
0
0
0
0
0
0
0
0
0
0
0
0
0
0
0
0
0
0
0
0
0
0
0
0
0
0
0
0
0
0
0
0
0
0
0
0
0
0
0
0
0
0
0
0
0
0
0
0
0
0
0
0
0
0
0
0
0
0
0
0
0
0
0
0
0
0
0
0
0
0
0
0
0
0
0
0
0
0
0
0
0
0
0
0
0
0
0
0
0
0
0
0
0
0
0
0
0
0
0
0
0
0
0
0
0
1.89175e-10
0
1.89175e-10
1.74623e-10
1.89175e-10
1.16415e-10
1.38243e-09
0
0
0
1.35333e-09
1.01863e-10
0
0
0
1.60071e-10
7.27596e-11
2.91038e-11
4.36557e-11
0
0
0
0
0
0
0
0
0
0
0
0
0
0
0
0
0
0
0
0
0
0
0
0
0
1.19326e-09
0
2.91038e-11
0
0
0
0
0
0
0
0
0
0
0
0
0
0
0
0
0
0
0
0
0
0
0
0
0
0
0
0
0
0
0
0
0
0
0
0
0
0
0
0
0
0
0
0
0
0
0
0
0
0
0
0
0
0
0
0
0
0
0
0
0
0
0
0
0
0
0
0
0
0
0
0
0
0
0
0
0
0
0
0
0
0
0
0
0
0
0
0
0
0
0
0
0
0
0
0
0
0
0
0
0
0
0
0
0
0
0
0
0
0
0
0
0
0
0
0
0
0
0
0
0
0
0
0
0
0
0
0
0
0
0
0
0
0
0
0
0
0
0
0
0
0
0
0
0
0
0
0
0
0
0
0
0
0
0
0
0
0
0
0
0
0
0
0
0
0
0
0
0
0
0
0
0
0
0
0
0
0
0
0
0
0
0
0
0
0
0
0
0
0
0
0
0
0
0
0
0
0
0
0
0
0
0
0
0
0
0
0
0
0
0
0
0
0
0
0
0
0
0
0
0
0
0
0
0
0
0
0
0
0
0
0
0
0
0
0
0
0
0
0
0
0
0
0
0
0
0
0
0
0
0
0
0
0
0
0
0
0
0
0
0
0
0
0
0
0
0
0
0
0
0
0
0
0
0
0
0
0
0
0
0
0
0
0
0
0
0
0
0
0
0
0
0
0
0
0
0
0
0
0
0
0
0
0
0
0
0
0
0
0
0
0
0
0
0
0
0
0
0
0
0
0
0
0
0
0
0
0
0
0
0
0
0
0
0
0
0
0
0
0
0
0
0
0
0
0
0
0
0
0
0
0
0
0
0
0
0
0
0
0
1.01863e-10
0
0
0
0
0
0
0
0
0
0
0
0
0
0
0
0
0
0
0
0
0
0
0
0
0
0
0
0
0
0
0
0
0
0
0
0
0
0
0
0
0
0
0
0
0
0
0
0
0
0
0
0
0
0
0
0
0
0
0
0
0
0
0
0
0
0
0
3.47791e-09
4.36557e-11
0
0
0
1.89175e-10
0
0
0
0
0
0
0
0
0
0
0
0
0
0
0
0
0
0
0
0
0
0
0
0
0
0
0
0
0
0
0
0
0
0
0
0
0
0
0
0
0
0
0
0
0
0
0
0
0
0
0
0
0
0
0
0
0
0
0
0
0
0
0
0
0
0
0
0
0
0
0
0
0
0
0
0
0
0
0
0
0
0
0
0
0
0
0
0
0
0
0
0
0
0
0
0
0
0
0
0
0
0
0
0
0
0
0
0
0
0
0
0
0
0
0
0
0
0
0
0
0
0
0
0
0
0
0
0
0
0
0
0
0
0
0
0
0
0
0
0
0
0
0
0
0
0
0
0
0
0
0
0
0
0
0
0
0
0
0
0
0
0
0
0
0
0
0
0
0
0
0
0
0
0
0
0
0
0
0
0
0
0
0
0
0
0
0
0
0
0
0
0
0
0
0
0
0
0
0
0
0
0
0
0
0
0
0
0
0
0
0
0
0
0
0
0
0
0
0
0
0
0
0
0
0
0
0
0
0
0
0
0
0
0
0
0
0
0
0
0
0
0
0
0
0
0
0
0
0
0
0
0
0
0
0
0
0
0
0
0
0
0
0
0
0
0
0
0
0
0
0
0
0
0
0
0
0
0
0
0
0
0
0
0
0
0
0
0
0
0
0
0
0
0
0
0
0
0
0
0
0
0
0
0
0
0
0
0
0
0
0
0
0
0
0
0
0
0
0
0
0
0
0
0
0
0
0
0
0
0
0
0
0
0
0
0
0
0
0
0
0
0
0
0
0
0
0
0
0
0
0
0
0
0
0
0
0
0
0
0
0
0
0
0
0
0
0
0
0
0
0
0
0
0
0
0
0
0
0
0
0
0
0
0
0
0
0
0
0
0
0
0
0
0
0
0
0
0
0
0
0
0
0
0
0
0
0
0
0
0
0
0
0
0
0
0
0
0
0
0
0
0
0
0
0
0
0
0
0
0
0
0
0
0
0
0
0
0
0
0
0
0
0
0
0
0
0
0
0
0
0
0
0
0
0
0
0
0
0
0
0
0
0
0
0
0
0
0
0
0
0
0
0
0
0
0
0
0
0
0
0
0
0
0
0
0
0
0
0
0
0
0
0
0
0
0
0
0
0
0
0
0
0
0
0
0
0
0
0
0
0
0
0
0
0
0
0
0
0
0
0
0
0
0
0
0
0
0
0
0
0
0
0
0
0
0
0
0
0
0
0
0
0
0
0
0
0
0
0
0
0
0
0
0
0
0
0
0
0
0
0
0
0
0
0
0
0
0
0
0
0
0
0
0
0
0
0
0
0
0
0
0
0
0
0
0
0
0
0
0
0
0
0
0
0
0
0
0
0
0
0
0
0
0
0
0
0
0
0
0
0
0
0
0
0
0
0
0
0
0
0
0
0
0
0
0
0
0
0
0
0
0
0
0
0
0
0
0
0
0
0
0
0
0
0
0
0
0
0
0
0
0
0
0
0
0
0
0
0
0
0
0
0
0
0
0
0
0
0
0
0
0
0
0
0
0
0
0
0
0
0
0
0
0
0
0
0
0
0
0
0
0
0
0
0
0
0
0
0
0
0
0
0
0
0
0
0
0
0
0
0
0
0
0
0
0
0
0
0
0
0
0
0
0
0
0
0
0
0
0
0
0
0
0
0
0
0
0
0
0
0
0
0
0
0
0
0
0
0
0
0
0
0
0
0
0
0
0
0
0
0
0
0
0
0
0
0
0
0
0
0
0
0
0
0
0
0
0
0
0
0
0
0
0
0
0
0
0
0
0
0
0
0
0
0
0
0
0
0
0
0
0
0
0
0
0
0
0
0
0
0
0
0
0
0
0
0
0
0
0
0
0
0
0
0
0
0
0
0
0
0
0
0
0
0
0
0
0
0
0
0
0
0
0
0
0
0
0
0
0
0
0
0
0
0
0
0
0
0
0
0
0
0
0
0
0
0
0
0
0
0
0
0
0
0
0
0
0
0
0
0
0
0
0
0
0
0
0
0
0
0
0
0
0
0
0
0
0
0
0
0
0
0
0
0
0
0
0
0
0
0
0
0
0
0
0
0
0
0
0
0
0
0
0
0
0
0
0
0
0
0
0
0
0
0
0
0
0
0
0
0
0
0
0
0
0
0
0
0
0
0
0
0
0
0
0
0
0
0
0
0
0
0
0
0
0
0
0
0
0
0
0
0
0
0
0
0
0
0
0
0
0
0
0
0
0
0
0
0
0
0
0
0
0
0
0
0
0
0
0
0
0
0
0
0
0
0
0
0
0
0
0
0
0
0
0
0
0
0
0
0
0
0
0
0
0
0
0
0
0
0
0
0
0
0
0
0
0
0
0
0
0
0
0
0
0
0
0
0
0
0
0
0
0
0
0
0
0
0
0
0
0
0
0
0
0
0
0
0
0
0
0
0
0
0
0
0
0
0
0
0
0
0
0
0
0
0
0
0
0
0
0
0
0
0
0
0
0
0
0
0
0
0
0
0
0
0
0
0
0
0
0
0
0
0
0
0
0
0
0
0
0
0
0
0
0
0
0
0
0
0
0
0
0
0
0
0
0
0
0
0
0
0
0
0
0
0
0
0
0
0
0
0
0
0
0
0
0
0
0
0
0
0
0
0
0
0
0
0
0
0
0
0
0
0
0
0
0
0
0
0
0
0
0
0
0
0
0
0
0
0
0
0
0
0
0
0
0
0
0
0
0
0
0
0
0
0
0
0
0
0
0
0
0
0
0
0
0
0
0
0
0
0
0
0
0
0
0
0
0
0
0
0
0
0
0
0
0
0
0
0
0
0
0
0
0
0
0
0
0
0
0
0
0
0
0
0
0
0
0
0
0
0
0
0
0
0
0
0
0
0
0
0
0
0
0
0
0
0
0
0
0
0
0
0
0
0
0
0
0
0
0
0
0
0
0
0
0
0
0
0
0
0
0
0
0
0
0
0
0
0
0
0
0
0
0
0
0
0
0
0
0
0
0
0
0
0
0
0
0
0
0
0
0
0
0
0
0
0
0
0
0
0
0
0
0
0
0
0
0
0
0
0
0
0
0
0
0
0
0
0
0
0
0
0
0
0
0
0
0
0
0
0
0
0
0
0
0
0
0
0
0
0
0
0
0
0
0
0
0
0
0
0
0
0
0
0
0
0
0
0
0
0
0
0
0
0
0
0
0
0
0
0
0
0
0
0
0
0
0
0
0
0
0
0
0
0
0
0
0
0
0
0
0
0
0
0
0
0
0
0
0
0
0
0
0
0
0
0
0
0
0
0
0
0
0
0
0
0
0
0
0
0
0
0
0
0
0
0
0
0
0
0
0
0
0
0
0
0
0
0
0
0
0
0
0
0
0
0
0
0
0
0
0
0
0
0
0
0
0
0
0
0
0
0
0
0
0
0
0
0
0
0
0
0
0
0
0
0
0
0
0
0
0
0
0
0
0
0
0
0
0
0
0
0
0
0
0
0
0
0
0
0
0
0
0
0
0
0
0
0
0
0
0
0
0
0
0
0
0
0
0
0
0
0
0
0
0
0
0
0
0
0
0
0
0
0
0
0
0
0
0
0
0
0
0
0
0
0
0
0
0
0
0
0
0
0
0
0
0
0
0
0
0
0
0
0
0
0
0
0
0
0
0
0
0
0
0
0
0
0
0
0
0
0
0
0
0
0
0
0
0
0
0
0
0
0
0
0
0
0
0
0
0
0
0
0
0
0
0
0
0
0
0
0
0
0
0
0
0
0
0
0
0
0
0
0
0
3.7835e-10
0
0
0
0
0
0
0
0
0
0
0
0
0
0
0
0
0
0
0
2.77942e-09
0
0
2.18279e-10
0
0
0
0
0
0
0
0
0
0
0
0
0
0
8.68749e-09
0
0
0
2.91038e-10
2.91038e-11
3.0268e-09
0
0
0
0
0
0
0
0
0
0
0
4.36557e-11
0
1.13505e-09
2.32831e-10
0
9.60426e-10
5.82077e-11
0
1.16415e-10
0
2.32831e-10
0
4.07454e-10
0
0
0
0
0
0
0
0
0
0
0
0
0
0
0
0
0
0
0
0
0
0
0
0
0
0
0
0
0
0
0
0
0
0
0
0
0
0
0
0
0
0
0
0
0
0
0
0
0
0
0
0
0
0
0
0
0
0
0
0
0
0
0
0
0
0
0
0
0
0
0
0
0
0
0
0
0
0
0
0
0
0
0
0
0
0
0
0
0
0
0
0
0
0
0
1.16415e-10
0
9.8953e-10
1.45519e-10
1.45519e-10
7.27596e-10
0
0
0
0
0
0
0
2.61934e-10
1.16415e-10
0
0
0
0
4.36557e-11
1.22236e-09
4.80213e-10
4.80213e-10
0
0
0
0
0
1.45519e-11
0
0
1.45519e-11
0
0
0
0
0
0
0
0
0
0
0
0
0
0
0
0
8.19444e-05
3.5594e-05
8.06966e-06
0
0
0
0
0
0
0
0
0
0
0
7.63687e-06
3.02534e-08
1.85755e-06
6.1118e-09
2.81434e-08
1.60071e-09
6.1738e-07
1.60071e-10
6.25732e-10
2.17406e-08
1.98474e-07
4.36557e-11
6.40284e-10
3.52011e-08
0
1.01863e-10
3.63798e-09
1.18016e-08
0
4.36557e-11
5.44242e-09
0
0
1.13505e-09
0
0
0
0
0
0
0
0
0
0
0
0
0
0
0
0
0
0
0
0
0
0
0
0
0
1.30967e-10
2.32831e-10
2.61934e-10
4.05998e-09
3.43425e-09
3.28873e-09
3.89991e-09
7.71252e-10
1.47847e-08
1.218e-08
1.89175e-10
5.82077e-11
1.30967e-10
3.34694e-09
1.77533e-09
1.42609e-09
2.91038e-09
2.32831e-10
1.26747e-08
4.67116e-09
4.36557e-11
0
1.45519e-11
9.02219e-10
4.51109e-10
1.01863e-09
2.61934e-10
1.01863e-10
1.64437e-09
1.44064e-09
0
0
0
6.54836e-10
1.74623e-10
2.18279e-10
5.38421e-10
7.27596e-11
1.65892e-09
1.07684e-09
0
0
0
2.61934e-10
2.91038e-11
2.76486e-10
4.36557e-11
0
7.85803e-10
7.71252e-10
0
0
0
1.45519e-10
1.45519e-11
5.82077e-11
1.30967e-10
0
0
1.9796e-05
4.29151e-07
2.93914e-06
7.29749e-06
1.29931e-05
3.70317e-07
1.30609e-06
3.96445e-06
9.48348e-08
3.1713e-07
1.66199e-06
2.31192e-06
7.25122e-08
1.46669e-07
6.17889e-07
6.66711e-07
1.46469e-06
3.3644e-08
9.53587e-08
9.57341e-07
5.5501e-08
0
0
0
0
3.8126e-09
0
6.40284e-10
0
5.38421e-10
0
6.54836e-09
8.73115e-11
1.30967e-10
1.30967e-10
4.36557e-11
1.45519e-11
0
0
0
0
0
0
0
0
0
0
0
0
0
0
0
0
0
0
3.12866e-09
3.20142e-09
5.4104e-08
5.96629e-08
1.36788e-09
7.42148e-10
1.15397e-08
2.47383e-10
1.60071e-10
3.52156e-09
2.50293e-09
5.82077e-11
1.01863e-10
8.87667e-10
1.45519e-11
0
4.80213e-10
7.567e-10
0
0
1.45519e-11
5.09317e-10
4.94765e-10
7.42148e-10
1.30967e-10
0
0
0
4.36557e-11
1.16415e-10
0
7.27596e-11
0
0
0
4.36557e-11
8.73115e-11
5.82077e-11
0
1.01863e-10
0
5.82077e-11
1.20781e-09
4.22006e-10
3.34694e-10
1.07684e-09
0
0
1.03464e-08
2.61934e-10
0
0
0
0
0
2.18279e-10
4.26371e-09
3.98722e-09
4.36557e-11
2.91038e-11
1.01863e-10
1.46974e-09
6.98492e-10
1.61526e-09
4.80213e-10
0
0
1.25146e-09
6.32572e-08
2.61037e-06
0
0
0
0
3.0559e-10
1.43918e-08
6.51504e-07
0
0
0
0
5.82077e-11
5.13683e-09
2.26719e-07
0
0
0
0
0
6.1118e-10
3.17814e-08
0
0
0
0
0
0
0
0
0
0
0
0
0
0
0
0
0
0
0
0
0
0
0
0
0
0
0
0
0
0
0
0
0
0
0
0
0
0
0
0
0
0
0
0
0
0
0
0
0
0
0
0
0
0
0
0
0
0
0
0
0
0
0
0
0
0
0
0
0
0
0
0
0
0
0
0
0
0
0
0
0
0
0
0
0
0
0
0
0
0
0
0
0
0
0
0
0
0
0
0
0
0
0
0
0
0
0
0
0
0
0
0
0
0
0
0
0
0
0
0
0
0
0
0
0
0
0
0
0
0
0
0
1.45519e-11
0
5.82077e-11
0
0
0
0
0
0
0
0
0
0
0
0
0
0
0
0
0
0
0
0
0
0
0
0
0
0
0
0
0
0
0
0
0
0
0
0
0
0
0
0
0
0
0
0
0
0
0
0
0
0
1.49885e-09
9.17789e-08
0
0
0
1.89175e-10
1.44064e-09
1.66037e-08
0
5.82077e-11
1.26747e-08
0
0
0
0
0
0
0
0
0
0
0
0
0
0
0
0
0
1.45519e-10
0
0
0
0
0
0
0
0
0
0
0
0
0
0
0
0
0
0
0
0
0
0
0
0
0
0
0
0
0
0
0
0
0
0
0
0
0
0
0
0
0
0
0
0
0
0
0
0
0
0
0
0
0
0
0
0
0
0
0
0
0
0
0
0
0
0
0
0
0
0
0
0
0
0
0
0
0
0
0
0
0
0
0
0
0
0
0
0
0
0
0
0
0
0
0
0
0
0
0
0
0
0
0
0
0
0
0
0
0
0
0
0
0
0
0
0
0
0
0
0
0
0
0
0
0
0
0
0
0
0
0
0
0
0
0
0
0
0
0
0
0
0
0
0
0
0
0
0
0
0
0
0
0
0
0
0
0
0
0
0
0
0
0
0
0
0
0
0
0
0
0
0
0
0
0
0
0
0
0
0
0
0
0
0
0
0
0
0
0
0
0
0
0
0
0
0
0
0
0
0
0
0
0
0
0
0
6.98492e-10
1.89175e-10
0
0
0
0
0
0
0
0
0
0
0
0
0
0
0
0
0
0
0
0
0
0
0
0
0
0
0
0
0
0
0
0
0
0
0
0
0
0
0
0
0
0
0
0
0
0
0
0
0
0
0
0
0
0
0
0
0
0
0
0
5.82077e-11
0
0
0
5.82077e-11
0
0
6.54836e-09
0
2.61934e-10
1.23691e-09
5.98084e-09
0
2.03727e-10
5.19838e-07
4.19095e-09
3.05881e-08
7.71688e-08
5.41389e-07
3.59432e-09
3.0006e-08
0
0
0
0
0
0
0
1.45519e-11
0
2.47383e-10
7.85803e-10
2.38651e-09
0
1.01863e-10
9.02219e-10
4.02069e-08
1.16532e-07
1.86265e-09
8.29459e-09
1.0879e-07
6.99947e-09
5.67525e-09
2.61934e-10
5.52973e-10
2.37196e-09
4.26953e-08
4.32192e-08
2.64845e-09
0
0
0
0
0
0
0
4.65661e-10
0
0
0
2.32831e-10
5.82077e-11
0
3.92902e-09
1.83354e-09
1.45519e-11
3.49246e-10
5.67525e-09
0
1.30967e-09
0
0
0
0
0
0
0
0
0
0
0
0
0
0
0
0
0
0
0
0
0
0
0
0
0
0
0
0
0
0
0
0
0
0
0
0
0
0
0
0
0
0
0
0
0
0
0
0
0
0
0
0
0
0
0
0
0
0
0
0
0
0
0
0
0
0
0
0
0
0
0
0
0
0
0
0
0
0
0
0
0
0
0
0
0
0
0
0
0
0
0
0
0
0
0
0
0
0
0
0
0
0
0
0
0
0
0
0
0
0
0
0
0
0
0
0
0
0
0
0
0
0
0
0
0
0
0
0
0
0
0
0
0
0
0
0
0
0
0
0
0
0
0
0
0
0
0
0
0
0
0
1.50671e-06
0
0
0
0
0
0
0
0
0
0
1.27038e-08
1.74623e-10
1.62981e-09
0
1.45519e-09
0
4.65661e-10
0
3.0559e-10
0
7.27596e-11
0
5.82077e-11
0
0
0
0
0
0
1.16415e-10
0
0
0
0
0
0
0
0
0
0
0
0
0
0
0
0
0
0
0
0
0
0
0
0
0
0
0
0
0
0
0
0
0
1.30967e-10
2.61934e-10
3.0559e-10
4.36557e-11
0
0
0
1.45519e-10
8.73115e-11
2.32831e-10
1.45519e-11
0
0
0
0
0
0
1.45519e-11
0
0
0
0
0
0
0
0
0
0
0
0
0
0
0
0
0
0
0
0
0
0
0
0
0
0
0
0
0
0
0
0
0
0
0
0
0
0
0
0
0
0
0
0
0
0
0
2.11643e-07
3.53612e-09
5.64905e-08
4.81668e-09
9.80217e-08
2.33456e-07
1.35915e-08
0.00215724
10706.8
0.000926493
0.129671
0.00021958
0.00457223
0.00142044
0.0192966
1.16251e-05
0.00102861
1.01071
4.07541e-07
0.000209497
0.0537794
0.000565851
4.3197e-05
0.000185437
0.00465738
0.145512
2.55191e-05
0.00112701
57.7017
1321.06
0.00712608
53.9677
1.55218e-06
9.62135e-05
0.000715921
5.37375
0.0181866
6.34188e-06
0.000343271
8.7273e-05
0.00250322
5.58081e-07
1.69745e-05
511.191
0.00256109
7.59302
0.0434459
3.03609
9.54179e-05
0.00707836
2.86634e-05
6.04196e-08
1.25714e-06
0.714171
6.9266e-06
0.000699198
0.00124186
2.31845e-05
9.5874e-06
1.77107e-05
8.91741e-07
2.65019e-07
4.80257e-07
0.00155629
0.000103234
0.000397946
0.0612513
0.00650126
0.00286961
0.000415273
0.018034
0.00659474
0.000780548
0.0077302
0.00211652
0.00875527
2.5167e-05
6.92044e-05
0.000367951
0.00368477
0.00272878
0.000304834
0.000161246
0.00370133
0.00252085
0.000263335
0.00116198
3.992e-05
0.00043401
4.5299e-05
0.000543053
9.52922e-05
0.000598034
0.01278
0.00199148
0.0135093
0.000292083
0.0204071
0.000764585
0.0044105
4.81524
0.0242003
0.0603968
0.102644
0.219186
0.502362
0.997256
113.246
269.205
528.022
2.36267
2586.83
11.8083
23.2581
2.76005e-06
3.39006e-06
7.28182e-06
0.000193407
2.11165e-05
4.90961e-05
0.00248531
0.00997529
0.0511241
29.413
0.229335
1.23143
0.000106455
9.73176e-05
1.11982e-05
4.6913e-06
0.000138451
8.55865e-05
7.08063e-06
0.00059863
0.00341674
7.42083e-05
0.000191401
0.000936481
0.00267435
3.92481e-05
1.7989e-05
7.86997e-07
7.65361e-06
8.13277e-07
1.02939e-05
1.52428e-06
9.97307e-06
0.000198709
3.43265e-05
0.000259367
4.30951e-06
0.000412476
1.15849e-05
7.00984e-05
0.0369205
0.0261771
0.0162585
0.00159275
0.154504
0.0210757
0.00422075
0.377523
76.6716
0.33304
0.790181
3.34392
8.14324
0.03916
0.0078069
0.000263086
0.00136713
0.000421004
0.00316368
0.000951135
0.0048179
0.053256
0.0661487
0.0639304
0.00251083
0.677365
0.00606598
0.0245141
5.55624e-06
1.32845e-05
2.60772e-06
5.38712e-08
9.01637e-08
1.19209e-07
2.69027e-06
3.13827e-07
7.24744e-07
0.0311892
0.0720681
0.00376096
1.96712e-05
3.14416e-05
9.15925e-05
0.00603014
0.000193713
0.000571889
0.000578451
0.00130659
0.00030699
3.00749e-06
1.94035e-07
4.27826e-09
1.89175e-10
1.54556e-07
4.85597e-08
1.05634e-06
8.36735e-09
1.5425e-09
2.0591e-08
1.0769e-06
3.63798e-10
1.01863e-10
1.98241e-07
7.567e-10
3.51429e-08
0
5.26779e-09
6.54836e-10
2.53203e-09
0.000401381
3.8459
0.0218962
6.47237e-05
0.0167711
0.00190933
2.03316e-05
0.000837168
3.33876e-05
1.90353e-05
1.33831e-06
0.000769024
3.3133e-06
0.000253907
9.76856e-07
5.44257e-05
0.0078655
2.0196e-05
4.16958e-05
1.57845e-07
4.53839e-06
2.45782e-08
3.89485e-06
0.000136859
0.00461268
3.24275e-07
1.70539e-05
1.1727e-06
6.51926e-09
3.58152e-07
2.16824e-09
0.000896849
6.33736e-08
2.74896e-06
6.52822e-06
0.000167617
1.12777e-08
4.86441e-07
5.732e-08
1.01863e-10
3.1654e-05
2.92493e-09
7.63539e-08
2.585e-07
3.35561e-06
3.33239e-09
1.62108e-08
2.51659e-06
2.12424e-05
1.76628e-05
8.92702e-07
8.47358e-08
4.42684e-07
2.37778e-08
6.70843e-09
3.03698e-08
8.14907e-10
3.34694e-10
1.29512e-09
1.43176e-07
3.5805e-07
3.09665e-07
1.17259e-07
3.53903e-08
7.09842e-08
7.47651e-06
5.61238e-07
4.08727e-06
2.22353e-08
5.22414e-09
1.12486e-08
3.0559e-09
1.09139e-09
1.9354e-09
1.25903e-07
1.05065e-08
5.83095e-08
5.24204e-07
5.29995e-06
3.57175e-06
7.567e-10
4.80213e-10
1.06229e-09
1.30967e-10
1.16415e-10
2.32831e-10
2.53334e-07
1.91736e-06
1.56619e-06
3.94357e-09
1.42609e-09
8.94943e-09
2.36134e-07
7.83475e-08
4.15821e-07
0
0
1.45519e-11
4.11819e-08
9.48785e-09
6.36355e-08
7.27596e-10
1.01863e-10
3.63798e-10
1.26311e-08
1.92085e-09
8.90577e-09
3.14681e-06
6.3037e-06
5.59556e-06
6.49445e-05
0.000101073
9.23281e-05
6.62416e-05
1.99409e-06
7.86036e-07
1.32783e-06
1.91393e-05
2.47581e-05
3.20254e-05
1.77787e-05
4.48879e-05
0.000263404
0.000240546
0.00325769
0.000955366
0.000723849
0.00352521
0.000108578
1.15275e-05
8.03842e-05
0.00148586
0.000229383
0.000368237
0.00144258
3.62634e-07
1.08776e-07
1.92391e-07
2.51133e-06
5.78247e-06
2.94187e-06
3.54782e-06
4.27972e-08
1.93104e-08
2.87982e-08
4.03481e-07
4.43877e-07
5.94766e-07
3.56056e-07
1.45009e-05
1.63578e-06
7.56171e-06
0.000144265
8.91068e-05
0.000218149
3.59132e-05
1.74111e-06
1.62108e-07
7.86313e-07
2.39258e-05
2.80335e-06
5.77704e-06
1.14672e-05
7.74999e-06
6.86251e-05
5.29323e-05
0.000308714
0.000810179
0.000874602
0.000127314
1.04192e-08
7.79983e-09
1.42754e-08
1.10216e-07
1.87676e-07
1.20126e-07
1.45694e-07
2.88128e-09
2.61934e-09
3.84171e-09
3.97704e-08
4.30882e-08
4.86034e-08
3.72384e-08
3.13405e-07
1.04425e-07
3.98461e-07
4.14402e-06
1.82807e-06
5.2422e-06
9.7572e-07
3.68137e-06
2.64823e-05
2.2166e-05
3.59653e-05
0.000295762
5.82619e-05
0.000247164
4.82833e-08
1.82918e-08
1.05108e-07
1.09796e-06
1.6921e-07
2.27665e-07
5.4593e-07
3.2899e-06
1.09036e-06
5.0196e-06
1.54795e-05
3.91673e-05
4.91357e-05
6.55468e-06
3.63798e-10
2.76486e-10
6.98492e-10
2.05182e-09
7.31961e-09
3.15777e-09
4.24916e-09
1.21654e-08
5.70435e-09
1.71276e-08
1.70781e-07
9.09931e-08
2.14146e-07
4.39468e-08
6.15284e-07
1.33427e-07
8.61124e-07
1.04122e-06
9.40144e-06
1.83632e-06
7.20988e-06
4.42378e-09
1.25146e-09
4.84579e-09
5.27943e-08
1.35042e-08
1.34169e-08
4.15603e-08
8.62929e-08
2.45491e-08
1.07815e-07
3.22878e-07
7.05477e-07
1.00984e-06
1.25787e-07
0.0101128
0.000100392
0.00413552
0.000186459
0.00437161
3.11866e-05
0.000968707
1289.21
0.120663
2.50566
0.253689
424.679
0.0375711
0.837178
0.000556793
6.16084e-06
0.000165421
2.39314e-05
0.000106144
1.48448e-06
2.06545e-05
27.0886
0.00615416
0.0854604
0.00225019
0.0689824
0.000584185
0.0155671
5.46791e-05
1.15362e-06
7.05603e-06
8.57131e-06
3.72897e-05
5.18834e-07
3.06711e-06
0.0181592
0.000149357
0.00378686
0.000329878
0.00401308
4.67632e-05
0.000977984
7.73504e-06
5.76474e-07
3.88596e-06
7.56665e-05
0.000142521
0.000102154
0.000741477
8.66801e-06
0.000154006
2.48097e-05
0.000325942
2.24272e-05
8.40189e-05
3.05289e-05
8.75532e-05
2.21189e-08
1.89175e-09
2.15368e-09
1.74623e-10
0
5.96629e-10
0
2.31194e-05
1.12118e-06
7.84494e-08
4.01924e-08
6.84445e-06
1.1496e-08
3.53612e-09
1.73561e-07
5.38421e-10
2.61934e-10
2.99042e-08
1.73168e-09
1.73022e-08
1.60362e-08
1.1205e-09
1.01863e-10
7.567e-10
4.36557e-11
0
1.01863e-10
5.48607e-09
4.51109e-10
4.24916e-09
0
2.18279e-10
1.74623e-10
0
0
3.34985e-08
3.21685e-07
3.04368e-07
4.73403e-06
7.1025e-07
5.93282e-07
4.99083e-06
9.22737e-08
8.97853e-09
7.62084e-08
1.31529e-06
1.57394e-07
1.98517e-07
1.14512e-06
1.67202e-08
1.8772e-09
1.25146e-08
1.87778e-07
6.20203e-08
2.12836e-07
3.09083e-08
6.8394e-10
3.66708e-09
2.99769e-09
3.60451e-08
6.57747e-09
7.58155e-09
3.16941e-08
1.33878e-09
3.20142e-10
1.57161e-09
1.70403e-08
4.43833e-09
1.7666e-08
3.76895e-09
4.07454e-10
4.65661e-10
4.5402e-09
4.9331e-09
6.03613e-08
1.33732e-08
4.23897e-07
1.49666e-07
2.91038e-09
1.94559e-08
7.13044e-10
3.88536e-09
1.98779e-08
5.27216e-08
3.23053e-09
1.61672e-08
8.73115e-10
3.34694e-10
2.29775e-08
7.13044e-10
3.20142e-09
1.45519e-09
8.25094e-09
1.01863e-10
1.45519e-11
1.30967e-10
9.74978e-10
2.25555e-09
1.45519e-11
1.16415e-10
9.31323e-10
1.9354e-09
2.17406e-08
5.6898e-09
3.21888e-08
1.07684e-09
9.74978e-10
4.80213e-10
5.67525e-10
0
4.36557e-11
4.65661e-10
1.83791e-08
7.10133e-09
4.904e-09
2.00816e-09
1.1496e-09
2.76486e-10
3.8126e-09
2.40834e-08
3.49959e-07
1.14014e-07
9.11285e-07
1.67056e-08
1.023e-08
7.39237e-09
2.30459e-07
2.42479e-07
3.17523e-07
1.12035e-07
9.01491e-08
1.41423e-06
5.23579e-06
1.64457e-06
5.06622e-06
0
0
0
0
0
0
0
0
1.45519e-11
0
0
1.22032e-07
3.49246e-10
5.45697e-09
0
4.36557e-11
4.36557e-11
4.36557e-11
0
3.92902e-09
7.12462e-08
2.48838e-09
2.85945e-08
0
0
8.73115e-11
1.30967e-10
2.67755e-09
0
1.26602e-09
1.45519e-11
3.7835e-10
0
0
0
0
1.16415e-10
0
0
0
0
0
0
0
0
0
0
0
0
0
0
0
1.01863e-10
0
0
0
0
1.30967e-10
1.09139e-09
0
0
2.91038e-11
0
0
0
1.45519e-11
0
0
0
0
0
0
0
0
1.74623e-10
0
0
0
4.36557e-11
0
0
0
0
0
0
0
0
0
0
0
0
0
0
0
0
0
0
0
0
0
0
0
0
0
0
0
0
0
0
0
0
0
0
0
0
0
0
0
0
0
0
0
0
0
0
0
0
0
0
0
0
0
0
0
0
0
0
0
0
0
0
0
0
0
0
0
0
0
0
0
0
0
0
0
0
0
1.45519e-10
2.91038e-11
0
5.82077e-11
0
2.91038e-10
0
3.28873e-09
2.68337e-08
2.72703e-08
7.15954e-09
1.06083e-08
3.7835e-10
1.09139e-09
3.0559e-10
1.10595e-09
8.73115e-11
0
0
3.37897
1264.86
0.0945249
0.00886774
125.892
0.0850829
1.5313
0.0553955
0.256347
305.956
1.39327
0.964408
1.84303
14.6073
28.9691
19.4339
0.125101
0.165381
2.61311
0.00862782
0.100361
645847
2.8314e+06
487766
41676.1
10972.1
16.283
820371
1.1437e+06
500488
1.29785e+06
1.24901e+06
1.56801e+06
526131
1.95954e+06
1.46384e+06
793679
510097
428434
1.58048e+06
1.88902e+06
544139
2.71997e+06
498206
89992.3
1.16371e+06
255436
486808
1181
515919
2.10274e+06
123.847
510241
578900
168.923
346816
214019
625.312
149584
57.8989
2.64849e+06
2.55845e+06
2.99753e+06
511387
3649.94
84665.8
364.082
1.59849
34.7046
1.1509e+06
1.01735e+06
1.26114e+06
1.18245e+06
1.05377e+06
1.30044e+06
1.11292e+06
1.19155e+06
1.22877e+06
1.12614e+06
1.45221e+06
1.08152e+06
1.35641e+06
1.24253e+06
1.45885e+06
1.30284e+06
1.52216e+06
1.39357e+06
1.83401e+06
1.63224e+06
1.29311e+06
1.29171e+06
1.91025e+06
1.75813e+06
1.33472e+06
1.18607e+06
2.01687e+06
1.28208e+06
1.20006e+06
1.68162e+06
1.72425e+06
1.30134e+06
1.2062e+06
1.95161e+06
1.1075e+06
1.16582e+06
622529
1.06282e+06
951649
1.69513e+06
848908
1.12763e+06
1.79652e+06
876410
1.47696e+06
1.07871e+06
1.89393e+06
906888
2.23968e+06
2.45123e+06
2.84459e+06
1.65819e+06
1.6023e+06
2.5756e+06
2.86121e+06
2.40752e+06
2.97957e+06
446431
320510
473740
22349.3
595511
152365
236993
590916
672097
888301
812596
693956
589975
565212
320351
5822.97
11450
24516.8
54962.9
101932
164273
524163
644155
564275
238392
569846
404513
437814
1.4634e+06
1.37511e+06
654492
691.089
2825.43
15868.7
914619
62144
258218
3877.86
1707.08
3611.05
17.4529
36467.9
180.752
370.865
73724.4
508820
67971.3
114541
278927
349603
7415.5
6070.71
10364
6573.79
35.2798
98176.8
572.487
373.061
8015.94
14972.1
734.432
1020.67
3.18072
52.7391
245342
433010
451391
243736
269900
257723
28078.1
223677
1.75606e+06
1.82309e+06
1.25379e+06
1.41319e+06
1.45376e+06
1.21803e+06
1.2865e+06
1.65098e+06
1.52056e+06
1.30986e+06
2.19295e+06
1.94978e+06
162481
311612
366847
520486
274634
390874
559290
452204
753924
435667
526785
235119
476551
551966
408796
399303
508993
573662
440668
419951
7569.61
63041.8
577773
493396
431691
206182
387260
246338
373060
249319
446129
249224
215523
347177
422811
236977
213789
390283
235312
243084
236211
294231
293265
296913
294974
226327
209610
227686
258488
281156
284862
264140
0.000847344
224289
411797
509117
512306
24.5146
214571
2367.26
0.595953
0.291309
0.0776245
878765
475550
502.578
887114
846379
0.73635
750017
2.19459e+06
3630.36
711004
3.05836
545336
0.00208973
8651.31
8.17689
449858
1003.73
0.0519492
0.0476807
68.6552
755898
1.99843
57639.9
161.216
366887
0.383766
2424.15
574168
550209
1.78195e+06
798030
654270
74763.7
1.81143e+06
1.61531e+06
526920
1.84018e+06
63644
0.133242
2144.11
2.617e+06
94092.5
2.58201e+06
2.59955e+06
37.9818
0.00910891
264.335
0.275672
0.0889116
972239
8528.17
1.6617e+06
868.626
644678
2.39573
42812.9
187.104
0.0218434
2.34655e+06
0.810735
41352.4
1.8027
0.0150683
22362.6
0.342492
4631.51
0.00197306
1465.25
0.448552
32.8952
20.0985
1.77918e+06
614077
1.64606e+06
2.25436e+06
0.000240358
0.0873276
0.00568031
280248
492.091
22117.6
1.54905
0.00980787
0.230871
1.23542
346.471
17.6049
64.1867
10.8901
39.9592
554.313
10416.5
272698
1997.33
37055.8
209820
1250.35
16589
0.0692559
110.664
0.607428
2.25205
3.38566
12.7408
19.5692
3501.74
12879.2
19110.9
74.3518
97355.7
413.352
621.841
952665
728559
1.26129e+06
454835
670786
1.1772e+06
976478
1.09816e+06
1.2538e+06
1.70673e+06
1.78335e+06
1.24865e+06
1.65976e+06
1.11761e+06
910390
267167
302374
650794
543030
995500
790082
1.06703e+06
1.7977e+06
1.18738e+06
1.40828e+06
1.21456e+06
1.57837e+06
1.0539e+06
1.28476e+06
1.65026e+06
1.30344e+06
1.71218e+06
1.2856e+06
1.30239e+06
1482.68
39819.4
902.307
0.0210612
0.959911
6.14286
12734.6
45.0932
283.028
2.47622e+06
2.60846e+06
2.37604e+06
346851
898099
1.38396e+06
2.61456e+06
1.95126e+06
2.22563e+06
2.3708e+06
0.00206306
0.174791
0.0798565
0.245421
2.13733
0.0198611
0.0204109
5.16683
2147.08
8.09084
19.5018
68.6194
158.066
0.613215
0.352673
1.19742
0.75893
0.00570569
9.85785
0.0422511
0.0472575
116917
63462.8
211765
614.839
493520
4701.89
19128
592481
1.15725e+06
975413
1.146e+06
928761
980987
344757
7743.77
36.1032
20.1958
65.3261
283.378
1070.94
529.714
158920
412468
209547
1737.22
629576
30844.4
13116.4
4.02184
10.9648
0.244607
0.494115
0.000834015
0.0121063
1.34649e+06
1.59011e+06
464807
20.9133
30.8858
882.01
550022
1167.19
36331.6
0.0191384
0.13225
0.0019764
0.00525113
0.0218851
0.0461609
0.00146016
19.1825
3.08676
8.36793
0.0895471
75.068
0.822237
2.03759
444.894
40122.1
201.104
1066.49
1778.81
9789.15
47.6126
0.000165304
0.000556045
9.92364e-05
47.8072
146.059
5.81558
841410
40158.2
2615.13
858813
13279.3
816.952
601690
388074
618127
570847
856256
500896
902604
588158
335823
267766
372348
419812
344023
863.049
16.0267
1133.36
1.54767
0.437164
6.73736
562470
482122
894005
736510
923132
4419.96
733612
93.4123
0.291491
0.11272
10.5551
0.127511
0.0239276
0.68562
593968
4504.42
47549.9
5536.33
102322
335.51
7451.14
0.0135296
0.380125
0.00204452
0.000464256
0.0183516
0.00443749
0.143878
148051
18.9136
3.2438
0.160503
163.997
6.0219
3058.11
0.000456939
0.0030062
7.30553e-05
0.00299665
0.0120735
0.000550965
0.0167626
0.0101849
0.000309944
0.000116875
0.000540082
4.71959e-05
8.55296e-06
2.13513e-05
3.36238e-06
0.0610492
0.0379336
0.00238088
0.0248906
0.539888
0.335849
0.0303721
0.001202
0.00293442
0.000780291
0.0144436
0.0269746
0.106884
0.0118366
0.000127871
0.000262894
5.34e-05
0.000883413
0.00476161
0.00169646
0.00285902
0.209033
0.0919839
0.0350848
64134.8
352931
222058
139574
209205
221819
294405
163275
221084
170939
264094
213960
218373
262760
95572
73785.3
107578
106822
146943
158004
117679
258066
314127
301765
258925
323621
244055
306998
104581
121558
87168.6
151583
194538
173259
132407
230278
191932
179416
240868
277678
267689
226947
309930
233962
291624
217995
234736
293992
274540
229249
166558
178448
185605
175243
237485
224805
125426
203588
250250
175440
220476
150906
190861
580881
719583
296303
433046
357207
540428
588007
278897
159284
207728
219222
235239
291563
170975
208702
278632
258608
291089
305809
258397
228683
330974
350536
280724
346538
375168
293457
307012
355906
405417
346433
350790
412647
443382
363528
537055
913859
482445
506774
587075
845927
591795
306101
318447
264205
308167
358066
269011
325407
332407
255409
314656
362665
281973
295503
344676
267061
255044
204020
196969
187623
249676
237744
259852
278902
333262
236238
254195
309552
187426
562172
511353
291907
141104
533414
570747
466330
314764
413372
338899
426431
400278
346656
323575
357740
252513
301695
243495
290719
187277
231584
289527
277333
224309
306433
260935
318105
249129
359752
423861
460672
439946
485646
395565
376447
197928
224824
175252
207698
184643
234886
260046
326319
315141
367346
381532
355029
278939
337484
319564
376022
330578
308689
327219
281003
260361
317034
236556
287451
308681
361209
341404
390861
373880
409137
355232
372375
408911
314535
335903
420227
475756
451160
379632
357785
359584
337254
270887
353651
283867
367702
363931
293729
281379
294396
265933
213240
220644
197258
248342
274610
472655
291018
21948.8
508982
528135
108690
12465.9
350081
452969
364441
402128
313316
326460
383990
358103
310671
370675
378543
437022
450019
394675
477225
513921
851335
427082
472369
757389
798749
413212
462516
493890
520925
570043
421934
457305
313884
341108
359946
401346
427068
377352
403081
322697
289091
233271
321228
284644
258132
366412
500818
586824
574186
408668
386771
450166
427847
409016
316942
327244
346707
291472
355689
279430
389908
425435
428045
327854
317575
307856
296249
415264
307783
353597
434127
474477
377278
422414
410924
444187
490980
331141
388203
468067
416645
839981
469707
478080
795385
449273
777692
798162
316017
374801
282996
394231
452514
294708
331568
382303
420241
391807
486287
454420
465277
497096
233494
285579
243805
297886
304682
369925
390381
477221
525648
541102
356123
349650
399206
398764
438120
476163
517469
546317
421346
467716
509617
432152
500702
364494
385846
458309
478834
432361
480513
490991
553708
588293
603499
728662
703421
449324
490362
739324
444511
713966
730005
658615
530585
552286
532367
753579
669851
684793
727830
451198
425672
501556
535504
406164
480963
513207
341099
276116
352534
257744
315449
323497
421905
401541
526854
428173
688151
518667
585650
651346
477653
505412
459449
390315
337911
311781
355229
509847
541181
864658
534977
818280
562844
825102
725413
483988
587806
441917
534916
637435
501782
580799
585605
793046
681329
666226
507526
488889
375889
443041
331185
370397
321162
289496
430378
104888
319113
536494
720919
879685
804700
852089
617660
474329
521321
535003
599260
632721
491874
578758
529909