/*--------------------------------*- C++ -*----------------------------------*\
  =========                 |
  \\      /  F ield         | OpenFOAM: The Open Source CFD Toolbox
   \\    /   O peration     | Website:  https://openfoam.org
    \\  /    A nd           | Version:  9
     \\/     M anipulation  |
\*---------------------------------------------------------------------------*/
FoamFile
{
    format      ascii;
    class       volScalarField;
    location    "0.0025";
    object      overpressure;
}
// * * * * * * * * * * * * * * * * * * * * * * * * * * * * * * * * * * * * * //

dimensions      [1 -1 -2 0 0 0 0];

internalField   nonuniform List<scalar> 
20771
(
214357
0.026128
0.0109072
0.00133037
5.63966e-05
0.126664
0.00931076
0.000314883
2.65901
53429.8
628.161
37513.9
34140.5
0.841935
23.9457
16669.7
135.533
4.33043
1.53666
7247.78
100.497
121.619
78384
131655
96580.7
139100
153877
140923
4177.63
64605.2
20460.5
28967.1
98984.3
58604.4
75757.3
79602.7
697.925
41.7621
48.2968
244.274
78.3213
416.807
456.445
5020.9
2216.98
22922.5
24474.8
3492.69
3776.44
25409.5
96980.4
40125.6
54931.2
120157
113309
94473.1
139250
18.4275
2933.88
2043.6
564.792
53138.1
46984.5
82653.3
4182.59
226794
187214
143234
208320
150920
92822.6
60595.3
98367
128028
74533.8
96252.6
107312
144174
262442
170142
152552
141985
274006
273512
153301
7236.68
0.536986
0.00343099
0.0128704
3.40846
49.741
0.147237
0.2012
0.00315133
0.000672635
0.0178015
0.00749709
0.00072619
0.0112232
0.000651436
4.92638e-05
0.000432703
0.000178144
2.43241e-05
0.00121881
6.55107e-05
4.00346e-06
9.26854e-06
3.68978e-06
6.2726e-07
8.47455e-05
4.7428e-06
2.50016e-07
1.80778e-07
6.90343e-08
1.43336e-08
4.93956e-06
2.80241e-07
1.43045e-08
3.49246e-09
1.16415e-09
2.32831e-10
2.34053e-07
1.34896e-08
6.1118e-10
0
0
0
132518
0.557687
0.249199
0.00123704
0.00336034
2.14591
15.9598
0.047775
0.0660085
0.00128319
0.0001598
0.00541229
0.00211157
0.000381568
0.00422598
0.000249693
1.54816e-05
0.000116348
4.42957e-05
8.11732e-06
0.000443923
2.44695e-05
1.34863e-06
2.25595e-06
8.62769e-07
1.79294e-07
3.10954e-05
1.72542e-06
8.83301e-08
4.19823e-08
1.59635e-08
4.05998e-09
1.76438e-06
1.00466e-07
5.15138e-09
8.14907e-10
2.18279e-10
1.45519e-11
8.25676e-08
4.81668e-09
1.60071e-10
0
0
0
10324.4
0.0643462
0.000406574
0.000165563
0.164692
0.287408
0.00132148
0.00723012
0.000361039
1.97445e-05
0.000301449
0.000139848
3.46762e-05
0.00118724
7.11597e-05
3.45746e-06
5.53258e-06
2.89363e-06
9.04445e-07
0.000101612
5.78575e-06
2.87633e-07
1.05443e-07
5.58794e-08
2.14932e-08
6.45949e-06
3.72311e-07
1.86847e-08
2.31375e-09
9.8953e-10
4.36557e-10
3.47558e-07
2.01253e-08
9.8953e-10
0
0
0
1.5556e-08
8.44011e-10
0
0
0
0
17.2857
0.00337881
0.151048
0.000644613
0.000841748
0.00623173
8.76746e-05
0.0538761
0.00401992
8.78352e-05
5.3015e-06
2.92136e-06
1.83399e-06
0.00305988
0.000154769
5.17216e-06
2.4843e-07
7.1348e-08
4.32919e-08
0.000111188
5.996e-06
2.47877e-07
1.07102e-08
1.65892e-09
9.45874e-10
4.07195e-06
2.31972e-07
1.04046e-08
3.7835e-10
0
0
1.47818e-07
8.54197e-09
3.34694e-10
0
0
0
4.84579e-09
2.03727e-10
0
0
0
0
171696
2560.06
2.94182
0.00104485
6.28996e-05
3929.82
65.9242
0.087592
0.0001037
1.78718e-05
1.66535e-06
0.306079
0.010526
0.000270309
6.35741e-06
1.75904e-07
5.05097e-08
0.00356387
0.000371588
1.31712e-05
4.97224e-07
1.53523e-08
1.5425e-09
0.000169224
1.32718e-05
5.41739e-07
2.05473e-08
6.1118e-10
0
6.43946e-06
4.5044e-07
1.99216e-08
6.98492e-10
0
0
2.15427e-07
1.44646e-08
6.1118e-10
0
0
0
6.38829e-09
3.34694e-10
0
0
0
0
252843
14.8526
0.0902345
0.000529967
1.81458e-05
1.66966e-06
0.205635
0.556972
0.00226324
5.92008e-05
1.83631e-06
9.25647e-08
0.0187813
0.00187186
0.000101639
3.55544e-06
1.17245e-07
4.77303e-09
0.00102377
8.68985e-05
4.46169e-06
1.74769e-07
5.86442e-09
1.60071e-10
3.91259e-05
3.42283e-06
1.76937e-07
7.31961e-09
1.89175e-10
0
1.51494e-06
1.24026e-07
6.4756e-09
2.03727e-10
0
0
5.43805e-08
4.11819e-09
1.60071e-10
0
0
0
1.70257e-09
5.82077e-11
0
0
0
0
0.115965
0.0223584
0.00165392
6.34279e-05
2.8495e-06
1.35566e-07
0.017659
0.00232136
0.000133487
5.61908e-06
2.51544e-07
9.82254e-09
0.00153309
0.000132641
7.37389e-06
3.46976e-07
1.55123e-08
5.52973e-10
6.90198e-05
6.21083e-06
3.50279e-07
1.67784e-08
6.69388e-10
0
2.97741e-06
2.60887e-07
1.49885e-08
6.69388e-10
0
0
1.218e-07
1.01572e-08
5.23869e-10
0
0
0
4.58385e-09
3.0559e-10
0
0
0
0
8.73115e-11
0
0
0
0
0
0.00680474
0.00101714
7.16995e-05
3.84881e-06
1.96742e-07
9.25502e-09
0.00111496
0.000102426
6.16314e-06
3.17261e-07
1.54396e-08
6.40284e-10
6.66632e-05
6.20251e-06
3.76473e-07
1.98925e-08
9.16771e-10
0
3.47733e-06
3.1761e-07
1.95869e-08
1.00408e-09
0
0
1.66081e-07
1.44501e-08
8.29459e-10
0
0
0
7.13044e-09
5.67525e-10
0
0
0
0
2.32831e-10
0
0
0
0
0
0
0
0
0
0
0
0.000396415
3.91631e-05
2.91089e-06
1.81506e-07
1.0099e-08
4.36557e-10
3.92518e-05
3.88183e-06
2.57016e-07
1.49157e-08
7.27596e-10
0
2.68393e-06
2.56376e-07
1.69093e-08
9.16771e-10
0
0
1.55473e-07
1.41154e-08
9.16771e-10
0
0
0
7.79983e-09
6.40284e-10
0
0
0
0
2.76486e-10
0
0
0
0
0
0
0
0
0
0
0
0
0
0
0
0
0
1.16117e-05
1.35311e-06
1.07932e-07
7.29051e-09
3.63798e-10
0
1.31218e-06
1.34489e-07
9.72068e-09
5.38421e-10
0
0
9.88948e-08
9.51695e-09
6.1118e-10
0
0
0
6.03904e-09
4.94765e-10
0
0
0
0
2.47383e-10
0
0
0
0
0
0
0
0
0
0
0
0
0
0
0
0
0
0
0
0
0
0
0
0.306401
0.00695057
0.196974
0.00669839
0.00137994
0.000254653
0.00124496
0.000151084
0.00210133
1.94281
0.00116822
1.13613
61894.3
17.1041
657.781
59940.6
10.39
403.067
151084
596.062
18.0597
148087
128313
332.418
6.93856
0.0467242
0.429448
0.040479
0.409098
0.0339903
0.332199
0.0302501
0.000924947
0.00319145
0.0005976
0.00247165
0.000632353
0.00234454
0.000488705
0.313192
0.00114437
0.0227971
0.00865457
0.241332
0.000743453
0.0154253
62.8174
0.342039
0.571926
3.0061
36.2409
0.278438
0.430664
0.13037
0.00348477
0.00124186
0.000654636
7.7335e-05
0.000228413
1.3822e-05
0.000628411
0.773583
8.64368e-05
0.123513
55591.8
7.2921
282.774
44223.2
1.37794
52.4467
12567.2
217.475
3.67578
60317.4
548.333
30.126
0.530843
0.0177226
0.186517
0.0147979
0.00690577
0.0675849
0.00640506
0.000271763
0.00109592
0.000188027
0.000502251
8.82669e-05
0.000501168
7.94217e-05
0.100659
0.000291232
0.00615028
0.000890912
0.0267064
8.75657e-05
0.00184095
23.7018
0.123959
0.27007
0.790375
3.92256
0.0375284
0.147811
0.00049088
0.0330309
0.000114094
4.59625e-06
0.00818223
0.000110201
2.39741e-05
0.0516059
1.52568e-05
0.00114876
38546.4
0.600053
23.0921
8077.97
0.0166084
0.782958
138.594
11.115
0.562196
678.531
1.0363
0.481249
0.148668
0.00449583
0.0280816
0.0026363
0.0435264
0.0490944
0.00801997
4.24574e-05
0.000241413
3.82011e-05
0.0060799
0.000470337
0.00121435
0.000125882
0.00492271
1.71003e-05
0.000290821
4.67469e-05
0.000459913
1.08313e-05
2.78908e-05
0.954332
0.00670384
0.0326253
0.0173663
0.107986
0.000756005
0.00397408
0.414294
616.334
0.104799
0.00137081
183.481
2.07928
0.00018509
0.000195423
0.354473
0.0012706
654.563
0.00317756
0.143607
1.07955
0.000148676
0.00089287
0.340113
0.171871
0.01868
0.26181
0.0267574
0.0139517
0.00109288
1.05387
0.539333
0.0862208
230.067
3.14599
0.957022
0.0123829
0.0182128
0.00176199
18.5206
0.332076
0.18927
0.0180038
5.59666e-05
0.000123158
9.37513e-06
0.016673
0.000636925
0.00099392
4.63478e-05
0.00562566
3.39121e-05
0.000187263
3.76101e-05
0.000150755
3.03813e-06
5.94319e-06
54911.9
743.121
9.90469
113135
4411.74
121.621
0.934816
112.049
1.9383
0.00943955
75.2055
1.41195
0.880813
0.0754194
0.00483384
0.00114808
6.33548e-05
0.111031
0.00613174
0.00552792
0.000304284
461794
655.229
4.99717
149024
0.0343205
495742
410954
0.0166312
0.000705472
205371
99.9374
0.512109
0.0046129
0.000616333
2.74326e-05
114567
261.624
0.00869585
0.000739652
3.91853e-05
1.80658e-06
1.45014
0.0126909
0.000608257
3.8215e-05
2.14909e-06
1.06098e-07
0.00117696
0.000248982
2.37691e-05
1.68347e-06
1.03348e-07
5.31145e-09
5.28261e-05
8.29854e-06
8.65679e-07
6.6444e-08
4.26371e-09
1.45519e-10
48127.1
52859.2
347965
169367
363611
363686
278817
375292
67782.7
86660.8
471104
239550
400801
413540
303343
298172
149342
517183
79034.5
300883
314554
68828.8
494648
4483.08
254272
13218
568973
9504.11
24562.9
19.224
481.396
257.233
1.66115
1234.86
0.237129
2.42486
0.210526
130028
157401
203932
185827
278281
403074
253185
43992.5
535790
29992.4
1602.69
358957
83124.4
794.561
15.0788
1104.15
52.5533
0.0685684
2583.04
0.156489
0.495686
0.142844
232326
172751
11172
33286
127316
134925
102491
23804.2
60510.7
23462.3
73453.4
541.668
4143.09
1076.78
40.1119
359.092
83.0382
207.584
0.320767
10.9879
1.28454
0.021132
0.532947
0.0588566
0.158348
0.0315176
0.160404
0.100314
0.290553
0.149002
0.0927983
0.0340916
0.0063707
0.00175008
0.0202795
0.00661286
0.00165882
0.0192235
0.00684049
0.0264945
0.2365
0.0933165
0.0611441
0.123344
0.0809913
0.0196703
0.00518563
0.00724518
0.00140372
0.0124163
0.0016427
0.0151468
0.00395317
9.99998e-05
0.00037763
0.000483899
0.00133806
0.000362598
0.000453564
0.000106068
4.70062e-05
0.00023014
0.000141927
0.000243541
0.000211488
0.000132482
5.03271e-05
9.19087e-05
0.00129394
0.000307932
0.00033629
0.000348201
0.000409301
7.45973e-05
3.87437e-05
0.000179526
0.000119984
8.24776e-05
0.000167747
0.000107592
2.96136e-05
0.0318194
0.00285317
0.0179242
0.00197346
0.0026145
0.0164208
0.034746
0.371939
4.20292
0.186543
1.78719
3.88625
0.172003
0.404795
0.0262232
0.00148477
0.00152437
0.00969267
0.00210962
0.0133188
0.0193088
0.311537
1.49777
2.58288
0.105851
3.31493
0.140399
0.235798
60967.6
107721
106101
24745.4
41922.2
39962.8
25819.9
351.19
41.1982
124.609
15.8567
38.3574
116.402
375.759
103853
58380.5
100148
22962.8
31381.1
36441.1
20389.2
307.838
13.4002
26.6805
80.3529
33.3235
101.063
251.617
0.00821758
0.0622286
0.0454852
0.0137118
0.0283164
0.00172992
0.000801771
0.00838673
0.0019355
0.00269032
0.000449666
0.00610446
0.00100218
0.00146081
0.000222347
0.00218251
0.000305187
0.00344879
0.000585256
2.69636e-05
0.000176198
0.000225869
0.000411694
4.83686e-05
0.00010082
0.000129964
1.03317e-05
7.03488e-05
5.75531e-05
5.47413e-05
1.81187e-05
3.84215e-05
3.32331e-05
1.72992e-05
0.000244311
4.87305e-05
5.62299e-05
6.19589e-05
8.62788e-05
1.12488e-05
5.48387e-06
2.20674e-05
7.36905e-06
1.18378e-05
1.73206e-05
2.0439e-05
3.18349e-06
0.00725333
0.000940043
0.00602132
0.000406888
0.0125549
0.000526224
0.00343731
0.0971964
1.82873
0.0675469
0.47582
0.160115
1.17162
0.0406793
0.00368458
0.000161771
0.000106927
0.000724321
0.000248411
0.00167197
0.00164296
0.0524743
0.259022
0.344948
0.00954097
0.674367
0.0204268
0.0249213
94011.9
50977.7
84983.6
13127.8
25051.5
16997
18439.7
134.565
19.7067
58.8458
4.63467
190.827
13.2816
39.4118
72783.4
57200.8
35878
9426.26
7176.21
12239.5
5982.97
87.3831
2.68328
4.51949
13.4763
8.1747
24.0378
51.8733
0.00123283
0.000119384
0.00142978
0.000944697
0.000420875
0.000358595
0.00206802
0.0140759
0.00440975
0.0569938
0.109769
0.00398225
0.0119641
0.195153
2.08935e-05
2.83406e-05
3.29103e-05
0.000174516
7.02649e-06
8.24447e-05
7.39329e-05
3.8455e-06
2.56056e-06
8.06422e-06
6.96519e-06
1.80995e-06
1.75973e-06
1.26028e-05
0.000229304
0.00107343
0.0144953
0.00237281
0.000984625
0.000333879
0.00339603
4.2626e-05
2.04906e-05
0.000117004
0.000402618
7.96636e-06
6.70438e-05
0.000656083
0.000199003
3.71369e-05
0.000259378
1.22637e-05
0.000622531
1.15035e-05
8.42972e-05
0.00346301
0.151286
0.00359771
0.0172126
0.01014
0.0559616
0.00122111
5.22404e-05
6.85256e-06
1.79633e-05
1.01783e-05
4.24517e-06
2.04521e-05
1.46955e-05
0.000969001
0.00503035
0.00417692
7.73241e-05
0.0168797
0.000310858
0.000223466
20625.4
25987.9
16350.2
1747.5
3792.16
3372.52
1695.41
11.8037
2.15531
6.01825
0.218695
27.0987
0.863259
2.42708
2614.1
8619.92
3350.22
766.476
182.691
620.389
268.982
4.21179
0.0681371
0.0750959
0.212703
0.282606
0.799454
1.2164
36.3952
0.848173
1.33384
5.15846
2.77781
11.7822
17.2177
464.794
61.3852
2124.62
1814.43
161.939
188.836
5601.87
0.821508
0.225393
0.0297037
1.40491
0.053536
3.31829
0.336454
0.179014
0.00201322
0.00538314
0.0120809
0.0110176
0.0338945
0.066989
12.5764
17.2237
665.787
47.7821
48.5529
4.24493
183.696
2.89502
0.163478
9.36699
10.3959
0.5835
0.869896
43.9011
0.000891274
0.000314819
4.29698e-05
0.00193889
4.86433e-05
0.00570898
0.000315425
0.000128949
0.000791423
1.89215e-05
3.38453e-05
4.65744e-05
0.000128268
4.17795e-05
0.0180149
0.027716
1.807
0.0599266
0.105698
0.00464296
0.33535
0.00279215
0.000102841
0.00874518
0.00922922
0.000389722
0.000643394
0.0576747
117.686
244.924
1053.28
14.7422
42.0742
73.4979
6.82776
0.0432645
0.0156716
0.0425699
0.00042013
0.271694
0.00227245
0.00611685
13.7042
3.21201
36.2589
1.88119
0.0672003
0.738697
0.157573
0.00476659
5.47259e-05
0.00109076
6.28887e-05
0.000291378
0.000622783
0.000502949
12389
53561.3
16709.5
5286.79
1543.29
6299.45
1067.93
20.5101
280.186
64.2362
7.40631
3.5928
18.5228
1.22525
204698
70628.9
103852
286682
156159
258242
546942
217404
453829
225921
449603
308310
1674.25
162685
73001
64801.9
14572.9
7738.05
13954.1
49236.6
128813
130410
2680.48
83151.9
85467.2
1420.78
134959
59256.2
142870
6620.7
102146
91293.1
14005.5
152496
77606.6
161163
36403.8
117185
24271.9
135398
165860
163160
90804.1
49943.5
179949
155971
66533.1
120839
87197.9
74626.4
106579
208669
86089.6
234568
129313
451010
517124
341759
457103
295074
175517
34682.9
54593.9
33021.9
125106
195266
237535
127723
1913.15
3682.21
13466.2
47352.6
107026
99834.2
29308.7
241.004
64.5897
658.241
10945.5
324.472
4030.96
1284.28
168836
61539.1
93718.5
92449.6
39339.5
18284.3
123736
262113
189318
419313
145842
355223
300314
217811
128923
153595
216303
71052.6
111307
166900
104583
146173
100016
250204
172225
149666
242353
155969
563253
152565
222652
206526
378292
61944.1
6892.08
42092.6
12745.5
74577.7
153418
98603.4
171390
331.144
3916.21
1063.91
21558.8
16241.3
46357.8
4984.2
5.90882
220.759
28.341
103.381
4153.73
623.143
881.847
221078
588061
331517
510136
221395
637734
212752
133818
242021
237221
5097.65
562628
59694.8
27517.9
182618
127180
142043
100317
124858
124644
150060
0.04823
3.61566
153585
0.0334889
0.0891296
0.0208169
0.945071
0.292287
10.5298
9618.71
1570.45
77480.3
117055
121329
65502.5
41330.6
0.0898487
0.0379117
0.00508475
0.052126
0.0119733
0.0106107
0.0213804
0.0194678
0.00275953
0.00449853
0.00788104
0.0061247
0.0211737
0.00185992
0.0135584
0.0105554
0.0457617
0.101703
1.56697
0.340365
0.126032
0.04569
0.590899
97.2966
19.4568
4.07975
115.609
7.83723
217.314
46.9689
1097.34
1135.97
17929.9
4569.44
2131.81
500.597
11314.6
98910.8
37006.9
20121.8
71617.1
-3838.8
4924.86
56683.9
153790
127837
75267.5
149138
101439
133313
158459
4.08538e-05
0.000554628
0.0137406
0.000474976
5.74436e-05
2.8436e-05
4.20534e-06
957.79
2.71721
86.4494
1052.26
5.59274
252.468
1.0165
1.20631
0.433935
0.0810266
9.98358
0.46609
0.217907
0.029038
0.00317515
0.00433872
0.000204015
0.0552965
0.00422176
0.00285542
0.000299836
6.94963e-06
8.82165e-06
8.26563e-07
0.000287122
1.79761e-05
2.08486e-05
3.59258e-06
21847.2
222.677
14487.4
100.697
197315
7211.77
0.440992
25685.7
0.525625
485.068
19.6474
0.715729
0.722575
0.0877984
5.44211
0.00682846
0.118603
0.115968
0.00891658
0.00728557
0.000684508
0.00833168
0.00059405
6.80156e-05
0.000705503
4.60431e-05
5.73657e-05
1.06097e-05
3752.58
6002.97
458.206
611.014
5595.13
428.111
4006.17
3288.18
520.413
3881.78
295.081
4843.74
370.353
2684.3
1442.03
2860.03
215.467
179.653
2040.04
1928.96
144.794
944.664
102.76
652.91
50.5126
1182.1
89.5715
565.458
145.412
313.941
25.7365
9.04426
307.603
127.893
11.249
56.6716
2.73876
11.7049
1.19819
43.1629
3.88474
17.7817
0.759855
2.5397
0.248622
0.0273974
4.31541
0.382036
0.0412716
0.087473
0.00278318
0.00413379
0.000354323
0.0395466
0.00417534
0.00717933
2140.75
7771.69
197.024
815.117
2200.48
8977.61
185.169
453.937
126.198
46.8019
6.67971
552.927
86.8302
36.7057
2.8673
26.735
0.358661
1.14505
5.52831
16.013
0.230715
0.474905
0.181222
0.0617681
0.0080104
1.07301
0.0738465
0.0340544
0.0637336
0.0309358
0.292787
0.00221569
0.00437052
0.0142773
0.000942657
0.00143506
0.0240895
0.00012829
0.000946014
0.00260875
0.00902144
0.000209322
0.000156702
0.000284185
3.68671e-05
2.22354e-05
0.000676574
8.69031e-05
3.20379e-05
0.000563672
0.00987235
0.136465
3.52569
0.062402
0.0449873
0.00232388
243952
71726.5
647.245
285616
301108
260225
266910
247843
0.499916
4437.9
343636
23538.5
4338.22
83.9589
65.9472
0.0597504
1.20516
426.12
8.67085
1.54737
0.17592
0.0933293
0.005972
0.000616955
0.421254
0.025073
0.0145294
0.00359579
127.779
16942.3
233.908
45.2108
2048.09
651.368
11.1147
1.08782
0.540669
5.86386
8.77179
17.0308
111.749
0.909787
75894.6
7618.51
54078.9
2551.97
25113.6
3221.48
33221.9
33169.1
111417
19953
80341.9
39985.2
128126
94764.6
1.56757
0.317902
0.101737
26.3763
0.902392
0.22917
0.0702666
0.537649
0.136705
0.032677
1.88259
0.169696
0.068261
0.0105124
0.0578687
0.0115309
0.00255786
0.056822
0.00803051
0.00264688
0.000483616
0.00091358
0.000231274
4.33157e-05
0.000442414
6.02687e-05
1.51895e-05
4.51881e-06
3.02595e-06
7.24714e-07
2.31332e-07
1.58131e-06
3.28393e-07
2.82176e-07
7.25995e-08
0.0250674
0.00135069
0.00703303
0.000476159
0.00179233
9.7159e-05
0.000761932
3.76768e-05
0.000709343
3.23695e-05
0.27192
0.0863204
0.0225646
0.0127454
0.0146999
0.493928
0.00325699
0.000187327
8.98322e-06
0.0076871
0.000380514
1.87688e-05
8.41435e-07
0.00537386
0.000381824
2.22474e-05
1.1448e-06
5.22705e-08
0.000207633
1.68688e-05
1.05608e-06
5.61267e-08
2.51748e-09
7.76576e-06
6.5114e-07
4.22733e-08
2.25555e-09
0
310376
268955
449659
365727
270986
443673
495729
251892
160502
276361
309674
284564
99229.4
306174
547135
1257.17
298056
220044
203149
265574
431305
277358
38.2375
439614
859368
8.94607
418015
439756
268120
266788
445323
342846
143.075
0.116975
426296
906331
198474
0.0347619
390571
596441
17220.9
282.334
21.7799
0.0063148
420638
627658
33257
1.81121
0.00154277
212807
2108.61
0.67543
0.0174486
0.000752701
299351
43767.8
0.00978854
0.00360687
0.000170726
0.720616
0.0204137
0.00119346
5.62816e-05
491.573
2.12404
0.00426395
0.000262612
1.33001e-05
0.0691416
0.00277254
0.000235622
1.50803e-05
7.80419e-07
230383
254560
383171
256125
265600
278047
421312
282473
295615
228843
253299
198826
279586
225531
260807
269982
340783
269228
352151
242691
383152
320246
292237
386064
371991
363717
417689
347570
483538
751711
411053
488719
774521
831560
534556
617142
388110
351924
492544
355532
527163
361897
346192
348085
423406
282897
513137
826262
393297
546593
722014
596785
615059
721346
580550
618160
697397
311279
495.421
665152
202870
338311
271341
494776
532893
581372
698389
673208
169271
229753
419428
267862
258773
276253
450069
300138
313806
394457
641530
379704
408687
320359
321927
343720
437505
453330
479870
440992
434431
484017
665130
689412
722536
504307
279018
548086
340192
395925
366401
512403
193485
646093
660574
153500
447.265
459861
104595
24.9681
389854
12524.6
41.4677
0.690383
2123.82
0.159229
268336
227063
230294
236541
236135
243161
254126
242772
298831
260646
272602
263101
267014
280652
291385
306733
270135
286558
304151
274064
288734
320986
234651
241555
266122
300569
284671
18016.4
212660
225278
96280.4
211781
88457.8
23160.8
269363
289924
289056
313800
341539
313447
290648
318719
37818.8
242879
106912
264478
29906.6
264591
120631
350694
401708
370845
360365
370874
330737
405383
329518
402266
362835
351437
310335
346396
391941
307657
353363
393301
395682
440423
487566
436474
438868
396745
440553
486754
410279
441567
444784
450132
443312
473898
538763
483097
544099
591725
484854
518282
620574
339543
424295
374807
315856
402994
364498
460665
449759
412331
99996.7
359566
196285
399060
79519.4
405933
240705
487978
588535
527986
346690
345838
299950
397584
297834
404627
344384
337774
312764
345774
325322
381440
403007
455682
567179
422250
479244
388325
464923
532413
397374
440467
451534
450231
468149
506522
597956
560149
490012
647862
502605
676250
569139
652225
526122
677310
697345
564938
603382
761926
729610
733199
754975
732098
776477
682355
790880
761852
640197
682183
716998
721570
746744
729164
698370
739438
643283
513157
770209
706602
414654
289692
380856
327989
333173
304788
428714
408729
365132
484396
616958
539335
491657
651413
560139
699727
688722
642785
723977
554983
714917
92526.6
134742
44379.3
181632
24383
145356
119655
337586
15346.6
196797
82301.1
205686
204391
84477.8
13857.5
47536
289932
321704
163070
290534
138749
60984.7
387400
271473
387863
291419
409809
278969
429003
770638
327769
398406
499301
751555
344811
411087
727944
382215
498889
796037
426418
439866
487176
443698
373839
480559
460182
451540
547527
398189
504229
783080
332461
371662
830757
694202
206853
528340
398799
570652
438.999
588878
8099.06
304809
499959
836350
198749
266997
604975
350910
96873.1
863368
346963
237583
1704.73
148770
196.111
30.722
225866
744.711
32.6984
0.208992
1394.29
0.231177
303714
325240
322854
340141
325695
351014
363762
349682
381107
411103
352220
380362
419521
390747
462680
332113
460409
441763
374852
371398
677346
0.0474235
3.12268
0.0696283
0.0824934
0.00740783
0.0530447
0.0035326
231047
167250
19.4412
0.0194562
0.00109618
204616
66826.3
161665
147550
142492
200129
127171
90227
185650
82083.3
174784
172804
181442
150850
296041
132425
288871
253863
161852
266253
256748
236557
238333
215719
789.253
154126
0.215432
0.0104437
0.000962035
5.95835e-05
3.2578e-06
4.30042
0.00330522
0.000434784
4.03565e-05
2.82764e-06
1.60464e-07
0.00692055
0.0013029
0.000132764
1.09442e-05
7.13553e-07
3.8126e-08
0.000140918
1.75026e-05
1.60444e-06
1.14844e-07
6.62112e-09
0.00025746
4.83313e-05
5.11433e-06
4.26051e-07
2.86091e-08
1.5134e-09
99488.4
119656
88908.5
110099
137208
237874
143988
165852
243478
162818
118455
136428
162033
148533
146374
103227
193423
193573
268358
173244
260845
346772
226093
145889
194241
227214
239121
215276
195728
270391
303861
250236
216817
301828
169526
149051
175417
99080.7
109292
202866
186964
219062
156673
174865
295400
283004
327854
246918
278618
272588
104603
120367
97772.9
126379
126863
104252
98361.1
87334.1
92804.8
86929.5
93218.5
108010
130036
137684
113993
130473
107505
114486
176648
144543
170829
150187
150732
176637
171125
204514
200038
205688
199222
181776
154873
162915
191172
154999
182260
190534
210342
221782
211852
220232
96973.6
125455
103659
92302.9
86449.1
129230
113312
106807
199219
204738
154000
190712
181498
221745
211396
110054
99682.8
100089
109762
133219
146462
121871
158714
122178
158604
133084
122970
138931
123026
138153
147178
174621
192721
164632
173991
147538
163770
217788
172994
202785
187076
201956
186673
218557
251434
234868
233546
252606
237569
204676
225250
262396
204014
238656
261062
273877
301431
275765
300260
121313
158441
132654
138985
122748
174724
164979
147416
235397
253345
205011
265102
239392
306252
276897
174201
156554
155137
176102
203948
213971
183878
239957
182596
237842
205814
196000
225487
198751
222214
228896
269178
301122
262536
266266
231692
259161
317866
249123
289115
278224
288247
276315
319987
184600
242410
205907
218010
194603
270452
256415
229253
295710
257656
255234
293958
138433
82475.1
103673
73724.6
152332
90284.6
111746
240272
150109
240341
177375
259280
167847
245833
159672
83429.2
150146
115399
215036
107125
195548
274740
176239
292400
255083
412754
273832
323587
244870
137930
245854
199711
394724
181468
283957
313586
485563
275847
399208
399187
255982
365762
541858
159397
225728
22974.2
3.96543
2.13644
0.034421
0.0167331
0.00281461
0.00149665
159455
32593.2
49870.4
73587.9
103854
40461.5
-8125.27
-4089.45
24918.8
-27493
-22767.7
17037.5
61815.2
1119.65
8638.92
34046.1
-10757.4
-17194.5
44568.7
269749
281960
250849
92300
153691
53831.8
84175.4
-1993.07
71013.8
106824
9428.48
115907
79102.3
59603.3
79062.1
132620
210033
59840.9
73509.3
73171.7
79617.8
115946
115948
132574
192328
186325
217363
185413
273272
232309
218900
178150
221979
77433.4
65470.2
83746
88223.6
149074
234096
282694
180073
297651
84223.5
59960.1
77940.6
65540.9
65531.9
84054.3
78310.4
68211.3
73779.7
68376.3
67910.4
80022.7
88700.1
89029.2
100828
115247
100923
100511
131028
150296
148150
169902
189979
167274
166339
177446
185785
156687
207179
157664
211177
173111
194400
223697
256067
190772
234120
185466
209897
218164
247467
250745
151492
195998
164394
206675
182337
170961
43967
43385.8
51393.4
55909.8
43323.9
55722.7
63434
61533.6
83177.3
95207.6
61137.3
95297.7
110862
111237
166828
163717
111407
158780
32841.6
43319.1
28585.2
48568.4
48418.2
33047.9
28344.1
35161.6
51115.9
56000.9
39860.1
51047.4
35395.3
39731.5
28652.6
48632.1
33161
50928.6
39836.6
35340.6
52892.2
61840.3
45222.3
69752.6
45370.6
70053.2
52698.9
62915
80825.7
94603.1
76316
80989.6
62789.1
75817.5
45038.8
69364.7
52461.3
80534.4
76555
62602.2
105465
109689
91868
127647
90380.5
125599
107490
121245
144704
162428
139110
142745
122947
138438
92389.4
126791
107251
141885
135749
121098
102427
28714.3
-11110.7
73262.6
-18873.8
57595.1
40079.4
122021
237359
178492
94417.2
121901
228995
164783
288484
236059
229878
159795
211021
263743
407273
138362
107633
123177
148207
163416
132371
148410
157540
162136
141473
202503
182007
168524
192019
69841.1
70270.2
72320.3
90692.2
92424.1
94090.2
87978.6
217348
270691
280957
264294
241766
166183
181644
48814
48443.5
43441.4
32687.4
28204.6
32679.2
28160.3
107416
116519
129633
99412.6
113651
122349
136719
139493
163534
144707
148755
129980
153990
174969
202304
186004
214416
224867
218551
247993
248697
76963.2
83698.4
80845
94576.3
105318
98461.8
101857
87010.7
62785.9
67370.7
64454.9
68388.4
88528.5
84795.7
51054.1
57212.8
56392.3
34926.7
40421.9
34976.8
39847.6
183358
186007
212551
170370
195727
199774
229165
87232
102345
98438.7
120084
111815
108306
124300
117418
152119
125383
303520
217653
282004
402397
110478
131773
125634
132506
155255
137807
148713
112918
115303
133348
140636
116952
136404
110312
70388.7
71751.2
77006.5
78742.1
97267.7
92060.6
99301.8
259875
285095
248109
288026
271320
282171
316546
80559.8
85786.8
84796.2
61431.7
66503.2
65810.3
60409.1
207204
184508
187359
227361
231114
212783
207682
174678
213366
188489
187034
159006
176446
206702
224906
276503
228412
281817
385700
275311
190858
143348
173378
164752
192311
176171
168172
201348
62477.2
72206
70933
54504.4
53508
46419.1
45729.3
228231
223981
206008
199479
259706
232824
225919
108266
126216
131067
110235
129379
133354
106536
116789
144857
128267
148361
121169
140224
124449
81933.6
96316.2
95137
77237.8
64743.2
76194
63646.5
243264
284098
244754
262133
226136
264934
307076
87888.1
69355.2
68663.5
75561.5
74453.2
95546.1
94147.4
85094.7
95548.3
93320.1
103932
114627
117001
105828
140040
180387
153886
172718
146843
162216
190736
187990
168910
192070
172090
174566
198099
193874
128355
140988
197630
359921
321347
425516
327066
104808
121457
118702
141382
126582
128929
144203
125290
109700
126820
106145
91163.7
104918
90196.4
200839
192665
170644
182295
249405
216361
208245
239550
280328
253272
226559
251798
280193
293130
139780
178177
100634
151437
217107
210979
234832
212699
204046
195591
240129
236153
222743
231585
186517
184998
157077
164877
189762
160864
181450
142640
134705
119134
113859
145133
137033
121454
143525
135029
155388
173996
131008
148131
169097
134375
157728
152779
158389
179084
184649
162223
189882
230386
219655
221148
267560
231395
255952
305140
219422
251433
284854
238391
272739
319323
322495
282173
337166
277737
338168
221146
319952
101311
106723
105455
123642
121650
129320
127933
157113
191348
182476
205849
162922
184686
175076
174827
207162
199174
189387
182061
207171
216238
80900
91623.9
90167.2
111267
102404
101112
112779
163144
142612
145099
142083
139103
122842
120871
333174
334256
389969
306093
350758
353800
376371
376443
382541
251528
292314
293127
297062
271683
252571
208565
260245
306267
290099
300196
325670
190720
169343
203164
173586
194754
164804
200299
282517
266889
225181
206458
232461
197204
235928
249238
274005
253076
239640
260780
266667
233313
108825
140617
132908
117216
138909
131444
115604
175249
155458
181525
183684
153222
157805
178050
237063
215638
238073
248464
244047
254166
267976
101934
117027
115832
123854
139738
125061
138659
126127
162835
137660
140213
152332
128195
165477
201772
209961
175006
236894
204969
212265
245983
354644
341024
291297
312093
370947
350437
354048
309950
295065
255090
350280
312193
298018
371962
236105
210896
216049
223199
244257
250565
217744
242363
282705
265187
186720
234302
287008
279594
218740
209800
242821
200258
222922
229962
258017
148231
131215
149852
174553
156414
155430
175860
159220
195023
185500
187691
170371
161570
197417
177159
166687
150487
153078
199390
180079
169878
225624
193578
188373
191540
164990
160417
183890
261745
278697
257932
249969
282367
275105
257610
234561
241017
234027
213646
208988
214896
206613
330482
368554
310405
259142
317863
272002
301785
91625.7
189115
103755
202038
299085
138409
236751
178366
173012
145684
153641
179792
152164
171739
227401
213152
181540
202118
209722
233046
197010
134328
124504
147273
161058
123191
135829
159599
255259
217539
185697
209643
216391
223494
190285
285374
145053
276572
171232
150549
281522
270271
252551
234509
224880
234124
275092
263210
245111
328943
236719
279180
295114
256213
297342
328112
282602
164620
269474
140165
246339
122600
202000
151138
170261
169291
231700
137317
179120
216304
210267
181378
137176
241981
168553
307467
255802
124213
156292
111786
177410
188474
165663
158951
212082
243702
316049
133888
153694
255401
177002
191245
167639
170475
224675
229792
196996
199737
285160
235602
245112
277355
325623
336326
287501
322144
353749
287295
372914
398322
354513
336868
182485
157447
193040
164086
183819
155949
191334
248730
247602
258331
218376
230155
221126
228433
435010
399556
425334
356751
380925
360284
284521
374366
368717
396956
325855
341408
332857
316330
201872
426288
190276
154958
241337
316891
372677
147930
175643
164993
192807
149007
174564
164208
232329
239024
231151
201800
209462
211407
203997
204776
190500
220934
223622
178384
206783
193205
305046
285737
250773
223780
242095
261585
215646
334092
279606
349677
296450
240479
249200
290047
267853
297600
271675
234818
254180
292232