/*--------------------------------*- C++ -*----------------------------------*\
  =========                 |
  \\      /  F ield         | OpenFOAM: The Open Source CFD Toolbox
   \\    /   O peration     | Website:  https://openfoam.org
    \\  /    A nd           | Version:  9
     \\/     M anipulation  |
\*---------------------------------------------------------------------------*/
FoamFile
{
    format      ascii;
    class       volScalarField;
    location    "0.0025";
    object      rhoE;
}
// * * * * * * * * * * * * * * * * * * * * * * * * * * * * * * * * * * * * * //

dimensions      [1 -1 -2 0 0 0 0];

internalField   nonuniform List<scalar> 
20771
(
936787
253245
253245
253245
253245
253245
253245
253245
253252
402766
254817
351646
342622
253247
253305
296177
253584
253256
253249
271582
253496
253549
478476
648880
541676
680834
725581
721946
263754
436176
312676
337311
542916
420393
471859
482740
254992
253349
253366
253856
253441
254288
254387
265954
258810
315012
317110
262047
262749
323303
537778
370337
415848
610441
585798
528745
671690
253291
260612
258370
254658
395507
378368
483100
263767
976165
831425
673626
917158
699274
516787
419140
540684
639553
462643
535677
566515
732202
1.11718e+06
805203
704191
718136
1.17638e+06
1.17877e+06
714511
271534
253246
253245
253245
253254
253369
253245
253246
253245
253245
253245
253245
253245
253245
253245
253245
253245
253245
253245
253245
253245
253245
253245
253245
253245
253245
253245
253245
253245
253245
253245
253245
253245
253245
253245
253245
253245
253245
253245
253245
253245
253245
253245
641619
253246
253246
253245
253245
253250
253285
253245
253245
253245
253245
253245
253245
253245
253245
253245
253245
253245
253245
253245
253245
253245
253245
253245
253245
253245
253245
253245
253245
253245
253245
253245
253245
253245
253245
253245
253245
253245
253245
253245
253245
253245
253245
253245
279462
253245
253245
253245
253245
253246
253245
253245
253245
253245
253245
253245
253245
253245
253245
253245
253245
253245
253245
253245
253245
253245
253245
253245
253245
253245
253245
253245
253245
253245
253245
253245
253245
253245
253245
253245
253245
253245
253245
253245
253245
253245
253245
253288
253245
253245
253245
253245
253245
253245
253245
253245
253245
253245
253245
253245
253245
253245
253245
253245
253245
253245
253245
253245
253245
253245
253245
253245
253245
253245
253245
253245
253245
253245
253245
253245
253245
253245
253245
253245
253245
253245
253245
253245
253245
253245
775115
259671
253252
253245
253245
263129
253410
253245
253245
253245
253245
253246
253245
253245
253245
253245
253245
253245
253245
253245
253245
253245
253245
253245
253245
253245
253245
253245
253245
253245
253245
253245
253245
253245
253245
253245
253245
253245
253245
253245
253245
253245
253245
253245
253245
253245
253245
1.07674e+06
253282
253245
253245
253245
253245
253246
253246
253245
253245
253245
253245
253245
253245
253245
253245
253245
253245
253245
253245
253245
253245
253245
253245
253245
253245
253245
253245
253245
253245
253245
253245
253245
253245
253245
253245
253245
253245
253245
253245
253245
253245
253245
253245
253245
253245
253245
253245
253245
253245
253245
253245
253245
253245
253245
253245
253245
253245
253245
253245
253245
253245
253245
253245
253245
253245
253245
253245
253245
253245
253245
253245
253245
253245
253245
253245
253245
253245
253245
253245
253245
253245
253245
253245
253245
253245
253245
253245
253245
253245
253245
253245
253245
253245
253245
253245
253245
253245
253245
253245
253245
253245
253245
253245
253245
253245
253245
253245
253245
253245
253245
253245
253245
253245
253245
253245
253245
253245
253245
253245
253245
253245
253245
253245
253245
253245
253245
253245
253245
253245
253245
253245
253245
253245
253245
253245
253245
253245
253245
253245
253245
253245
253245
253245
253245
253245
253245
253245
253245
253245
253245
253245
253245
253245
253245
253245
253245
253245
253245
253245
253245
253245
253245
253245
253245
253245
253245
253245
253245
253245
253245
253245
253245
253245
253245
253245
253245
253245
253245
253245
253245
253245
253245
253245
253245
253245
253245
253245
253245
253245
253245
253245
253245
253245
253245
253245
253245
253245
253245
253245
253245
253245
253245
253245
253245
253245
253245
253245
253245
253245
253245
253245
253245
253245
253245
253245
253245
253245
253245
253245
253245
253245
253245
253245
253245
253245
253245
253245
253245
253245
253245
253245
253245
253245
253245
253245
253245
253245
253245
253245
253246
253245
253245
253245
253245
253245
253245
253245
253245
253250
253245
253248
425773
253288
254891
419896
253271
254253
698598
254736
253290
696934
623985
254076
253262
253245
253246
253245
253246
253245
253246
253245
253245
253245
253245
253245
253245
253245
253245
253246
253245
253245
253245
253246
253245
253245
253402
253246
253246
253253
253336
253246
253246
253245
253245
253245
253245
253245
253245
253245
253245
253247
253245
253245
406843
253263
253952
373085
253248
253376
285242
253789
253254
415473
254617
253320
253246
253245
253245
253245
253245
253245
253245
253245
253245
253245
253245
253245
253245
253245
253245
253245
253245
253245
253245
253245
253245
253304
253245
253246
253247
253255
253245
253245
253245
253245
253245
253245
253245
253245
253245
253245
253245
253245
354426
253247
253303
273682
253245
253247
253592
253273
253246
254943
253248
253246
253245
253245
253245
253245
253245
253245
253245
253245
253245
253245
253245
253245
253245
253245
253245
253245
253245
253245
253245
253245
253245
253247
253245
253245
253245
253245
253245
253245
253246
254788
253245
253245
253704
253250
253245
253245
253246
253245
254883
253245
253245
253248
253245
253245
253246
253245
253245
253246
253245
253245
253245
253248
253246
253245
253820
253253
253247
253245
253245
253245
253291
253246
253245
253245
253245
253245
253245
253245
253245
253245
253245
253245
253245
253245
253245
253245
253245
253245
399928
255105
253270
575603
264347
253549
253247
253525
253250
253245
253433
253249
253247
253245
253245
253245
253245
253245
253245
253245
253245
2.00437e+06
254885
253257
681821
253245
2.20462e+06
1.63706e+06
253245
253245
937964
253495
253246
253245
253245
253245
580090
253899
253245
253245
253245
253245
253249
253245
253245
253245
253245
253245
253245
253245
253245
253245
253245
253245
253245
253245
253245
253245
253245
253245
416716
430367
1.59378e+06
847360
1.54881e+06
1.66273e+06
1.24013e+06
1.5943e+06
470934
519848
2.10062e+06
1.08262e+06
1.66216e+06
1.71026e+06
1.29419e+06
1.2274e+06
700467
2.37251e+06
471290
1.22869e+06
1.3009e+06
439907
2.24339e+06
264530
1.06066e+06
286924
2.47265e+06
277366
316540
253293
254449
253888
253249
256338
253246
253251
253246
664414
788685
913826
823498
1.2557e+06
1.72468e+06
1.13453e+06
369581
2.23247e+06
331400
257262
1.49104e+06
480844
255234
253283
256010
253376
253245
259727
253245
253246
253245
995289
788188
281617
340280
621113
652098
545363
314676
416552
313735
453742
254600
263668
255941
253345
254143
253453
253764
253246
253272
253248
253245
253246
253245
253245
253245
253245
253245
253246
253245
253245
253245
253245
253245
253245
253245
253245
253245
253245
253245
253246
253245
253245
253245
253245
253245
253245
253245
253245
253245
253245
253245
253245
253245
253245
253245
253245
253245
253245
253245
253245
253245
253245
253245
253245
253245
253245
253245
253245
253245
253245
253245
253245
253245
253245
253245
253245
253245
253245
253245
253245
253245
253245
253245
253245
253245
253245
253245
253246
253256
253245
253249
253255
253245
253246
253245
253245
253245
253245
253245
253245
253245
253246
253249
253251
253245
253253
253245
253246
423137
565284
560603
317518
364183
358740
320397
254124
253348
253557
253285
253341
253536
254186
553295
415170
541259
312691
334958
348888
305773
254015
253279
253312
253446
253328
253498
253875
253245
253245
253245
253245
253245
253245
253245
253245
253245
253245
253245
253245
253245
253245
253245
253245
253245
253245
253245
253245
253245
253245
253245
253245
253245
253245
253245
253245
253245
253245
253245
253245
253245
253245
253245
253245
253245
253245
253245
253245
253245
253245
253245
253245
253245
253245
253245
253245
253245
253245
253245
253245
253245
253245
253245
253250
253245
253246
253245
253248
253245
253245
253245
253245
253245
253245
253245
253245
253245
253246
253246
253245
253247
253245
253245
521368
393058
492347
286657
317908
296774
300432
253582
253294
253392
253257
253722
253278
253344
454122
407329
348781
277100
271369
284333
268326
253464
253252
253256
253279
253265
253305
253375
253245
253245
253245
253245
253245
253245
253245
253245
253245
253245
253245
253245
253245
253245
253245
253245
253245
253245
253245
253245
253245
253245
253245
253245
253245
253245
253245
253245
253245
253245
253245
253245
253245
253245
253245
253245
253245
253245
253245
253245
253245
253245
253245
253245
253245
253245
253245
253245
253245
253245
253245
253245
253245
253245
253245
253245
253245
253245
253245
253245
253245
253245
253245
253245
253245
253245
253245
253245
253245
253245
306187
321091
295137
257626
262779
261720
257494
253275
253250
253260
253246
253313
253247
253251
259807
275060
261666
255163
253702
254797
253918
253256
253245
253245
253246
253246
253247
253248
253336
253247
253248
253258
253252
253274
253288
254408
253398
258588
257798
253650
253717
267467
253247
253246
253245
253249
253245
253253
253246
253245
253245
253245
253245
253245
253245
253245
253276
253288
254913
253364
253366
253256
253704
253252
253245
253268
253271
253246
253247
253355
253245
253245
253245
253245
253245
253245
253245
253245
253245
253245
253245
253245
253245
253245
253245
253245
253250
253245
253245
253245
253246
253245
253245
253245
253245
253245
253245
253245
253539
253858
255883
253282
253350
253429
253262
253245
253245
253245
253245
253246
253245
253245
253279
253253
253336
253250
253245
253247
253245
253245
253245
253245
253245
253245
253245
253245
284766
397065
295986
266566
257112
269139
255919
253296
253946
253406
253264
253254
253291
253248
1.02083e+06
582377
710858
1.31644e+06
836642
1.11963e+06
2.40775e+06
1.14364e+06
1.98856e+06
1.12351e+06
1.91682e+06
1.36729e+06
257444
720857
456592
426831
290656
272804
288934
420436
647405
653245
347838
567802
579156
340855
667046
447920
691022
360384
631362
597523
383884
720109
496931
745777
456618
678848
416967
737545
758389
747586
527168
501145
881311
805370
553548
604451
510746
468343
659741
967848
609473
1.04156e+06
897919
2.14817e+06
2.42778e+06
1.5599e+06
2.18126e+06
1.42761e+06
1.04527e+06
344068
404940
340693
696635
863140
1.03299e+06
676900
258043
262509
287668
382279
559125
556088
329874
253848
253406
254892
281161
254057
263393
256463
798506
462886
568476
578746
446133
373304
684871
1.24332e+06
1.04919e+06
1.86339e+06
877091
1.59741e+06
1.38377e+06
948763
680222
746431
1.01035e+06
553886
690847
836640
548042
703076
541003
1.11662e+06
859446
812992
1.05461e+06
726077
2.42697e+06
730533
931436
976050
1.55427e+06
422418
270664
365152
285762
459297
752423
544933
775989
254073
263099
255909
309019
295032
379072
265812
253260
253797
253316
253504
263707
254805
255453
1.03827e+06
2.6792e+06
1.42785e+06
2.07609e+06
1.15467e+06
2.76846e+06
922558
656686
985856
966022
266104
2.27803e+06
414876
325228
816449
642001
681411
536948
615290
614879
703057
253245
253254
735616
253245
253245
253245
253247
253246
253271
277717
257181
490102
621759
618426
431506
362459
253245
253245
253245
253245
253245
253245
253245
253245
253245
253245
253245
253245
253245
253245
253245
253245
253245
253245
253249
253246
253245
253245
253246
253488
253294
253255
253534
253265
253788
253362
255995
256091
300487
264768
258599
254498
282443
559016
385381
334212
507515
290825
324251
455065
717987
629620
480495
711702
563720
643891
731751
253245
253245
253245
253245
253245
253245
253245
255643
253252
253461
255880
253259
253876
253248
253248
253246
253245
253270
253246
253246
253245
253245
253245
253245
253245
253245
253245
253245
253245
253245
253245
253245
253245
253245
253245
309512
253802
290207
253497
860249
271463
253246
319694
253246
254459
253294
253247
253247
253245
253259
253245
253245
253245
253245
253245
253245
253245
253245
253245
253245
253245
253245
253245
262678
268383
254391
254774
267348
254316
263319
261506
254547
263005
253983
265441
254171
259983
256858
260425
253784
253694
258361
258081
253607
255610
253502
254879
253371
256205
253469
254660
253609
254030
253309
253268
254014
253565
253273
253387
253252
253274
253248
253353
253255
253289
253247
253251
253246
253245
253256
253246
253245
253245
253245
253245
253245
253245
253245
253245
258614
272894
253738
255285
258764
275979
253708
254381
253561
253362
253262
254628
253462
253337
253252
253312
253246
253248
253259
253285
253246
253246
253245
253245
253245
253248
253245
253245
253245
253245
253246
253245
253245
253245
253245
253245
253245
253245
253245
253245
253245
253245
253245
253245
253245
253245
253245
253245
253245
253245
253245
253245
253254
253245
253245
253245
1.06995e+06
448795
254865
1.2359e+06
1.30026e+06
1.10442e+06
1.12729e+06
1.05174e+06
253246
264414
1.44669e+06
313998
264161
253455
253410
253245
253248
254311
253267
253249
253245
253245
253245
253245
253246
253245
253245
253245
253565
296539
253830
253358
258384
254875
253273
253248
253246
253260
253267
253288
253524
253247
461459
272515
398678
259650
318145
261337
339863
339790
574786
304617
477836
359301
633979
525590
253249
253246
253245
253311
253247
253246
253245
253246
253245
253245
253250
253245
253245
253245
253245
253245
253245
253245
253245
253245
253245
253245
253245
253245
253245
253245
253245
253245
253245
253245
253245
253245
253245
253245
253245
253245
253245
253245
253245
253245
253245
253245
253245
253245
253245
253246
253245
253245
253245
253245
253246
253245
253245
253245
253245
253245
253245
253245
253245
253245
253245
253245
253245
253245
253245
253245
253245
253245
253245
253245
253245
253245
253245
1.32005e+06
1.22195e+06
1.75868e+06
1.5286e+06
1.09578e+06
1.66153e+06
2.17016e+06
1.01254e+06
914575
1.14162e+06
1.23608e+06
1.18359e+06
530763
1.17561e+06
2.03047e+06
256394
1.16317e+06
1.13518e+06
869451
1.11094e+06
1.63611e+06
1.14358e+06
253341
1.63213e+06
3.35368e+06
253267
1.68729e+06
2.06684e+06
1.12058e+06
1.11601e+06
1.69975e+06
1.3755e+06
253603
253245
1.55904e+06
3.48906e+06
842467
253245
1.55162e+06
2.64475e+06
297342
253951
253299
253245
1.60379e+06
2.37764e+06
339480
253250
253245
1.00786e+06
258533
253247
253245
253245
1.22427e+06
369002
253245
253245
253245
253247
253245
253245
253245
254475
253250
253245
253245
253245
253245
253245
253245
253245
253245
936273
1.00819e+06
1.44197e+06
1.02619e+06
1.21809e+06
1.11255e+06
1.56747e+06
1.10966e+06
1.34527e+06
921588
994409
1.06686e+06
1.10318e+06
1.18296e+06
1.28557e+06
1.05253e+06
1.31365e+06
1.04242e+06
1.34719e+06
1.2567e+06
1.51082e+06
1.60764e+06
1.39484e+06
1.43792e+06
1.45246e+06
1.35906e+06
1.57159e+06
1.35399e+06
2.03625e+06
2.86198e+06
1.63895e+06
2.19523e+06
2.93233e+06
3.30739e+06
2.30707e+06
2.80644e+06
1.50864e+06
1.37837e+06
2.10159e+06
1.76376e+06
2.31009e+06
1.33408e+06
1.33007e+06
1.32038e+06
1.55914e+06
1.14794e+06
2.03054e+06
3.08311e+06
1.54059e+06
2.34774e+06
2.68514e+06
2.24773e+06
2.50878e+06
3.09843e+06
2.29795e+06
2.71456e+06
3.01192e+06
1.21829e+06
254484
2.80156e+06
856806
1.31559e+06
1.12738e+06
2.02268e+06
2.32918e+06
2.4466e+06
3.03735e+06
2.84579e+06
852501
1.04352e+06
1.86428e+06
1.13907e+06
1.03919e+06
1.17594e+06
1.66289e+06
1.16348e+06
1.42449e+06
1.46317e+06
2.38995e+06
1.48106e+06
1.87524e+06
1.33349e+06
1.24876e+06
1.42752e+06
1.89354e+06
1.88345e+06
2.1187e+06
1.81061e+06
1.75494e+06
2.03593e+06
2.98399e+06
3.06132e+06
3.17958e+06
1.92989e+06
1.1784e+06
2.23405e+06
1.34754e+06
1.55296e+06
1.45833e+06
2.08792e+06
813459
2.67957e+06
2.79014e+06
706031
254364
1.85723e+06
544161
253307
1.57041e+06
285112
253349
253247
258572
253245
1.21846e+06
1.08554e+06
947217
957609
965217
978107
1.01263e+06
984872
1.1753e+06
1.039e+06
1.1205e+06
1.0528e+06
1.06203e+06
1.15413e+06
1.14579e+06
1.20021e+06
1.07528e+06
1.1159e+06
1.23036e+06
1.08351e+06
1.18176e+06
1.24052e+06
941773
962858
1.06329e+06
1.26083e+06
1.20634e+06
439894
1.13027e+06
1.10217e+06
698596
1.05259e+06
669050
459670
1.05286e+06
1.11683e+06
1.11187e+06
1.20375e+06
1.30468e+06
1.19581e+06
1.11371e+06
1.2149e+06
520940
1.1714e+06
739490
1.35302e+06
486775
1.2641e+06
793197
1.36424e+06
1.7033e+06
1.54939e+06
1.39553e+06
1.43134e+06
1.27759e+06
1.6178e+06
1.26647e+06
1.57942e+06
1.42041e+06
1.35733e+06
1.20524e+06
1.3259e+06
1.55964e+06
1.18389e+06
1.38549e+06
1.52634e+06
1.55199e+06
1.80682e+06
1.99907e+06
1.78717e+06
1.76159e+06
1.58657e+06
1.75434e+06
1.99642e+06
1.60301e+06
1.83324e+06
1.82403e+06
1.79788e+06
1.77502e+06
2.02112e+06
2.26593e+06
2.03781e+06
2.28853e+06
2.62948e+06
1.99152e+06
2.26516e+06
2.67232e+06
1.30431e+06
1.6958e+06
1.46527e+06
1.2264e+06
1.61387e+06
1.42972e+06
1.9042e+06
1.85799e+06
1.65337e+06
795645
1.72769e+06
1.07618e+06
1.94553e+06
711615
1.95148e+06
1.23507e+06
2.08854e+06
2.65149e+06
2.36716e+06
1.30205e+06
1.30886e+06
1.14957e+06
1.52387e+06
1.13739e+06
1.51578e+06
1.30535e+06
1.27654e+06
1.21248e+06
1.36558e+06
1.24773e+06
1.44321e+06
1.50137e+06
1.75964e+06
2.13488e+06
1.65144e+06
1.78953e+06
1.47803e+06
1.73828e+06
2.09215e+06
1.51468e+06
1.78077e+06
1.7816e+06
1.7576e+06
1.78018e+06
2.0767e+06
2.44716e+06
2.34093e+06
2.04768e+06
2.82924e+06
2.03084e+06
2.86943e+06
2.41843e+06
2.58848e+06
2.10064e+06
2.62002e+06
2.94042e+06
2.15632e+06
2.51157e+06
3.0497e+06
3.01977e+06
3.21187e+06
3.13676e+06
3.14519e+06
3.29471e+06
2.94617e+06
3.2512e+06
3.27213e+06
2.74929e+06
3.04306e+06
3.16639e+06
3.1441e+06
3.22978e+06
3.19988e+06
2.90064e+06
3.2103e+06
2.64173e+06
2.06835e+06
3.26549e+06
2.99899e+06
1.65217e+06
1.1211e+06
1.4882e+06
1.26079e+06
1.34798e+06
1.18709e+06
1.69968e+06
1.64426e+06
1.41875e+06
2.06099e+06
2.7342e+06
2.34739e+06
2.02297e+06
2.81921e+06
2.40123e+06
3.10609e+06
3.01972e+06
2.83589e+06
3.17555e+06
2.23177e+06
3.03923e+06
605221
734423
484640
916577
412388
785886
702558
1.5029e+06
429210
987990
638484
1.10118e+06
1.02434e+06
653306
418492
565809
1.46888e+06
1.53799e+06
956559
1.3842e+06
864047
629015
1.5489e+06
1.14856e+06
1.46928e+06
1.22008e+06
1.61257e+06
1.15849e+06
1.59993e+06
3.04726e+06
1.559e+06
1.86703e+06
1.86057e+06
2.99843e+06
1.64968e+06
1.93636e+06
2.90437e+06
1.8158e+06
2.24067e+06
3.05247e+06
1.67103e+06
2.05843e+06
2.0277e+06
1.66777e+06
1.38564e+06
1.79619e+06
1.72984e+06
1.641e+06
1.9894e+06
1.60629e+06
1.85662e+06
2.93916e+06
1.32682e+06
1.51227e+06
3.06957e+06
2.6794e+06
871551
2.42772e+06
1.6038e+06
2.25256e+06
254343
2.6492e+06
273727
1.22127e+06
1.80569e+06
3.05938e+06
870883
1.11549e+06
2.29393e+06
1.35784e+06
522955
3.19653e+06
1.3556e+06
1.00404e+06
257517
677619
253735
253322
925964
255109
253327
253246
256738
253246
1.16486e+06
1.30109e+06
1.24175e+06
1.30021e+06
1.23615e+06
1.39713e+06
1.38481e+06
1.34728e+06
1.46036e+06
1.66745e+06
1.33562e+06
1.52054e+06
1.63512e+06
1.49735e+06
1.77e+06
1.26519e+06
1.70571e+06
1.66587e+06
1.4735e+06
1.39116e+06
2.51834e+06
253245
253253
253245
253245
253245
253245
253245
987349
757236
253294
253245
253245
1.15453e+06
554400
878924
729164
670510
1.00669e+06
625160
577575
848523
507495
772160
737417
797111
710253
1.1449e+06
628499
1.10431e+06
990107
736734
1.084e+06
1.01086e+06
1.01058e+06
1.01075e+06
946849
255220
707274
253246
253245
253245
253245
253245
253256
253245
253245
253245
253245
253245
253245
253245
253245
253245
253245
253245
253245
253245
253245
253245
253245
253245
253245
253245
253245
253245
253245
578140
615545
549866
609906
649780
996128
683160
759504
1.00811e+06
723584
605229
640123
712712
694641
667774
550728
799545
798540
1.05789e+06
746693
1.01382e+06
1.29829e+06
901439
659434
796022
900152
933598
866601
822435
1.03171e+06
1.1749e+06
982675
867783
1.1732e+06
745192
686206
760265
528770
551425
827218
775598
874307
682967
737966
1.13628e+06
1.09693e+06
1.26868e+06
965983
1.07444e+06
1.12733e+06
579541
626297
555727
631436
641362
570821
565215
527121
525766
519049
533603
584219
637769
658808
584304
647229
575264
592757
783448
694486
758847
697699
708687
773210
771088
865986
842743
859111
852811
796158
707991
732400
807390
717460
787653
814805
882176
900567
876611
905048
547887
621922
563421
518858
512437
628020
575989
567007
829824
846161
696805
796328
775577
890023
864702
563721
535672
542853
557599
629483
674991
597685
698051
605009
703498
623606
596142
636202
591969
637435
665460
742254
798434
711019
744671
662255
711412
883197
753548
835794
782718
841229
787548
879855
989051
935342
938361
988952
942199
834130
900594
1.02227e+06
836320
942202
1.01861e+06
1.06074e+06
1.16038e+06
1.06609e+06
1.15447e+06
590064
691108
616928
631552
586408
737123
707390
656755
927789
983937
829501
1.02567e+06
938817
1.16979e+06
1.06349e+06
742887
687169
686001
745705
831944
862943
768489
948490
766445
939682
837083
810080
899045
815299
892396
911431
1.05014e+06
1.1541e+06
1.02322e+06
1.03479e+06
920937
1.00994e+06
1.22465e+06
977757
1.12027e+06
1.08301e+06
1.11362e+06
1.07124e+06
1.24183e+06
766771
953958
834382
873165
799337
1.05465e+06
1.00524e+06
912134
1.13006e+06
1.00167e+06
997469
1.12408e+06
803311
556900
617858
554816
780799
566534
628020
1.13074e+06
754524
1.05394e+06
857223
1.11788e+06
776610
1.05738e+06
772792
519926
707602
617331
889862
575672
808168
1.12417e+06
784598
1.13522e+06
1.01344e+06
1.55263e+06
1.05465e+06
1.22711e+06
981236
655934
955427
865309
1.49443e+06
791067
1.074e+06
1.18048e+06
1.83864e+06
1.08828e+06
1.46296e+06
1.55111e+06
1.04667e+06
1.39321e+06
2.02772e+06
730650
974390
312486
253255
253250
253245
253245
253245
253245
731305
350897
404383
497944
599205
375198
244872
258650
348605
208118
224070
323449
441231
276122
299832
378217
265094
242803
413280
1.06259e+06
1.09402e+06
1.00184e+06
602605
767080
470059
568989
317421
529571
642062
358609
683197
521045
449532
474716
613365
843715
453632
473565
467813
480829
571204
566495
618242
795426
771204
891153
775689
1.0735e+06
980366
877365
746374
961899
496347
462647
510659
493699
660968
924433
1.11916e+06
865751
1.19991e+06
523572
459949
502149
466609
472702
516209
510065
468683
480659
475534
463343
487740
499362
505438
529981
573396
534830
524701
617981
669674
668091
727774
794960
725602
711738
764840
784493
691693
847137
702579
864817
745786
823341
916451
1.02911e+06
847676
943554
799698
885369
882095
971911
986555
668906
806566
713747
861972
834653
753998
434167
409686
446166
426977
406832
422220
457664
432578
497807
514024
427360
509727
572211
558688
742156
710567
554041
688965
384212
414663
370091
421361
426347
379986
373880
386682
423305
433264
385396
428980
382015
390748
368231
418508
377822
418937
381559
378560
408966
439019
390208
448195
396072
454154
403277
432603
475411
517068
463113
480657
427254
466856
385922
443156
398923
470520
459368
422881
550218
559236
506069
605425
507320
605090
550050
595633
654868
713969
640058
655481
593922
645620
502396
597350
543624
640426
623175
582267
597072
384848
284768
538733
257762
487058
423035
796411
1.03053e+06
913589
609078
648892
949009
807252
1.26188e+06
1.01204e+06
1.07764e+06
749171
913230
1.05961e+06
1.5589e+06
819777
706485
724279
876564
890922
781174
798516
858368
813693
759419
976558
924428
840513
905919
559049
589191
590836
620696
657804
657584
617359
1.10431e+06
1.34964e+06
1.22432e+06
1.15903e+06
1.17757e+06
929716
897082
445302
434002
422382
390831
390464
400738
380261
623521
671314
683369
648562
662887
714489
726842
690733
756361
709724
737604
691517
758855
813824
987167
888191
983662
1.04254e+06
989947
1.11291e+06
1.09015e+06
586431
580318
553441
615385
642090
650535
612653
566826
501141
511287
524948
532756
590719
583744
436221
451666
441400
392687
407322
401467
397896
823154
822790
907627
801796
883676
890311
987421
553660
593104
569753
627465
637518
611633
651911
597826
702710
616427
1.28191e+06
913752
1.15328e+06
1.54903e+06
593574
656160
629665
651368
718626
676351
690467
687249
729461
755268
803180
728402
758762
684623
510645
530135
515000
532249
571156
587955
589637
1.17563e+06
1.2284e+06
1.1001e+06
1.21846e+06
1.18072e+06
1.20289e+06
1.31676e+06
536229
548264
534173
482685
494328
481678
469202
1.15969e+06
1.0584e+06
1.06243e+06
1.23177e+06
1.2378e+06
1.15221e+06
1.14157e+06
948947
997226
949579
938280
859293
878086
959119
1.05427e+06
1.13672e+06
972263
1.16036e+06
1.47123e+06
1.09521e+06
882797
679061
780460
744839
819696
778844
745260
857922
447430
472809
462535
426722
416887
413286
403743
1.01753e+06
1.01975e+06
976808
929648
1.09821e+06
1.02015e+06
1.00492e+06
627861
683614
694282
654117
715418
722687
647456
681055
792671
708910
748109
719317
751734
677633
488487
531772
523378
482645
450029
473617
440447
1.02078e+06
1.14919e+06
1.01437e+06
1.11084e+06
985899
1.10946e+06
1.25693e+06
537083
495469
484113
501041
489811
556093
543803
535041
551382
536448
576063
593821
608662
591858
737254
823030
749280
857999
784181
797839
878002
1.00523e+06
930436
1.00948e+06
983982
984505
1.06731e+06
1.06194e+06
629353
665798
858696
1.38791e+06
1.24821e+06
1.6148e+06
1.2684e+06
561525
610504
596144
656159
619532
633159
670317
609517
564028
619117
565245
521506
555164
512678
868332
839793
781445
840188
1.03959e+06
940141
913716
1.05885e+06
1.1599e+06
1.0904e+06
966338
1.08733e+06
1.17704e+06
1.19444e+06
673990
805430
547322
700608
924697
893089
1.00074e+06
1.1495e+06
1.03867e+06
1.06354e+06
1.15192e+06
1.21424e+06
1.15227e+06
1.11723e+06
916018
956229
829425
881219
963159
834591
907053
701582
695052
633262
651264
722174
719864
652974
691400
702683
745282
788715
675350
716683
763075
639291
715684
693953
702864
764125
787830
720167
825558
965286
921982
912873
1.0764e+06
955787
1.02738e+06
1.1982e+06
921567
1.02621e+06
1.15453e+06
1.00964e+06
1.12414e+06
1.27006e+06
1.34923e+06
1.16654e+06
1.36843e+06
1.15308e+06
1.37265e+06
936017
1.28277e+06
595086
607662
591984
659253
640823
672631
655706
717892
825205
794409
851849
744622
795614
762963
920833
977031
1.00128e+06
954304
980584
1.06472e+06
1.03802e+06
496796
524440
514200
572314
563206
552334
582058
723686
661442
674818
674108
656331
615478
602149
1.33171e+06
1.32602e+06
1.5229e+06
1.26482e+06
1.41273e+06
1.41938e+06
1.48258e+06
1.53095e+06
1.52432e+06
1.04683e+06
1.38796e+06
1.23166e+06
1.25926e+06
1.27248e+06
1.05492e+06
893662
1.10056e+06
1.2593e+06
1.16101e+06
1.20834e+06
1.31461e+06
909571
870192
937659
824410
952478
827548
906849
1.10364e+06
1.03922e+06
913377
865250
930844
826548
959026
1.29749e+06
1.34393e+06
1.29863e+06
1.2414e+06
1.31453e+06
1.32047e+06
1.22941e+06
595761
684801
675738
617216
670817
660245
603932
830634
766709
845671
876343
787589
796511
864212
1.04075e+06
1.01426e+06
1.03917e+06
1.09811e+06
1.08556e+06
1.06799e+06
1.11532e+06
542141
585905
578615
602202
646729
609635
640945
638410
729094
657477
672253
724021
654558
743592
848736
882828
763242
947594
844769
875657
985532
1.36947e+06
1.33598e+06
1.16124e+06
1.25868e+06
1.44213e+06
1.37497e+06
1.4052e+06
1.23333e+06
1.17151e+06
1.03778e+06
1.35182e+06
1.22967e+06
1.16885e+06
1.44246e+06
1.17189e+06
1.08551e+06
1.09139e+06
1.15405e+06
1.23517e+06
1.24335e+06
1.14633e+06
1.03279e+06
1.15536e+06
1.10635e+06
816806
983056
1.16066e+06
1.12912e+06
966027
907682
1.00653e+06
937423
970016
1.02349e+06
1.07231e+06
671518
621584
679792
743888
692701
687777
749785
768358
858859
848528
875156
797745
794155
880392
760720
725457
685000
698533
825077
774548
740487
925450
825313
800766
824306
743660
720010
791805
1.19214e+06
1.30212e+06
1.26385e+06
1.23406e+06
1.24121e+06
1.29783e+06
1.18399e+06
1.12412e+06
1.09214e+06
1.07877e+06
1.00403e+06
1.03736e+06
1.04709e+06
988831
1.26676e+06
1.384e+06
1.18338e+06
1.02419e+06
1.23585e+06
1.07862e+06
1.16726e+06
515583
819739
550097
867653
1.20607e+06
659224
979500
802437
805053
709846
743887
821878
725495
786333
935919
931096
821897
869828
906894
962732
844118
637350
625376
684030
718722
614534
646381
710612
991894
870688
778324
849193
876837
894946
797917
1.1791e+06
701206
1.14172e+06
770076
723758
1.18194e+06
1.12346e+06
1.17729e+06
1.06435e+06
1.08664e+06
1.15351e+06
1.21418e+06
1.24391e+06
1.12665e+06
1.27224e+06
975920
1.10943e+06
1.18221e+06
1.05945e+06
1.18542e+06
1.28672e+06
1.1468e+06
743484
1.09226e+06
664375
1.00973e+06
610070
855934
711041
777761
770871
994046
657664
805691
928153
911107
810361
662349
1.01058e+06
755259
1.2111e+06
1.05317e+06
614785
717712
576617
786558
821236
746644
724311
903590
996219
1.26361e+06
646602
709188
1.04192e+06
779306
803663
730550
743095
899799
918341
812697
823137
1.12889e+06
957296
996688
1.08024e+06
1.2429e+06
1.29103e+06
1.12328e+06
1.28018e+06
1.39416e+06
1.1606e+06
1.46621e+06
1.54685e+06
1.40438e+06
1.33091e+06
810443
748280
841291
744877
827655
731631
826473
1.12911e+06
1.09183e+06
1.09104e+06
998424
1.02373e+06
1.03889e+06
995444
1.65952e+06
1.54688e+06
1.63603e+06
1.38704e+06
1.49192e+06
1.40917e+06
1.13438e+06
1.43e+06
1.41115e+06
1.51044e+06
1.28409e+06
1.33373e+06
1.30146e+06
1.24061e+06
877753
1.64004e+06
832263
714129
992361
1.26997e+06
1.4339e+06
670340
752896
716843
797937
676206
748418
713321
1.03514e+06
1.02099e+06
1.00186e+06
912086
931275
963558
945700
870570
810274
902416
916699
800789
886457
824543
1.17572e+06
1.10101e+06
995299
921340
961986
1.03874e+06
887004
1.23785e+06
1.07171e+06
1.30279e+06
1.12384e+06
944968
981385
1.11621e+06
1.13296e+06
1.21929e+06
1.15344e+06
968589
1.04619e+06
1.17793e+06
1.20401e+06
1.3758e+06
1.38796e+06
1.3845e+06
1.38537e+06
1.36382e+06
1.42721e+06
1.43386e+06
726216
687080
1.21764e+06
1.04801e+06
1.62257e+06
1.13558e+06
1.54592e+06
1.51321e+06
1.4248e+06
1.53247e+06
1.3411e+06
1.59587e+06
1.62668e+06
1.70995e+06
676071
878899
998755
684622
627646
758113
742038
765339
792838
843389
818973
821336
840654
887701
651062
786418
656101
1.02579e+06
990434
833268
1.01654e+06
1.76586e+06
1.97676e+06
1.6825e+06
1.63449e+06
1.45548e+06
1.35978e+06
1.70532e+06
1.12513e+06
983440
1.02866e+06
974856
903892
926591
861091