/*--------------------------------*- C++ -*----------------------------------*\
  =========                 |
  \\      /  F ield         | OpenFOAM: The Open Source CFD Toolbox
   \\    /   O peration     | Website:  https://openfoam.org
    \\  /    A nd           | Version:  9
     \\/     M anipulation  |
\*---------------------------------------------------------------------------*/
FoamFile
{
    format      ascii;
    class       volVectorField;
    location    "0.0025";
    object      rhoU;
}
// * * * * * * * * * * * * * * * * * * * * * * * * * * * * * * * * * * * * * //

dimensions      [1 -2 -1 0 0 0 0];

internalField   nonuniform List<vector> 
20771
(
(201.143 183.322 782.696)
(2.07304e-05 5.7031e-05 5.26522e-05)
(8.54362e-06 1.52177e-05 2.85639e-05)
(1.23976e-06 1.50336e-06 3.4828e-06)
(5.10097e-08 5.8386e-08 1.50175e-07)
(0.000103508 0.000134021 0.000336514)
(8.55816e-06 8.72491e-06 2.48055e-05)
(2.77642e-07 2.98745e-07 8.48139e-07)
(0.0023019 0.00734488 -0.00239499)
(98.2445 151.022 17.8349)
(0.623973 1.7733 -0.0265399)
(49.9944 83.0351 66.7444)
(41.575 90.5553 44.9225)
(0.000644347 0.00153354 0.00197864)
(0.0255108 0.0338633 -0.0650579)
(20.4937 42.7079 -34.1292)
(0.135187 0.276581 -0.308331)
(0.00457947 0.00921082 -0.00724797)
(0.00178794 0.00343628 -0.00265093)
(7.20348 19.1771 -11.795)
(0.0806129 0.249207 -0.157771)
(0.115278 0.323053 -0.157847)
(152.792 219.981 39.0119)
(206.413 471.956 -0.104511)
(141.267 333.13 66.1266)
(224.81 472.289 99.7194)
(242.908 540.949 94.2025)
(248.948 347.917 408.345)
(4.4146 3.14784 11.6129)
(122.828 180.526 27.0107)
(78.9831 77.6009 46.8957)
(98.1392 97.5817 56.9519)
(152.93 322.653 19.372)
(96.0085 206.387 27.2397)
(122.076 258.618 31.3745)
(118.957 262.147 12.2927)
(0.746533 0.60649 -2.11078)
(0.0441272 0.020458 -0.120604)
(0.0475457 0.0685101 -0.132804)
(0.264115 0.413357 -0.637127)
(0.0772649 0.0394315 -0.229321)
(0.476507 0.347209 -1.2329)
(0.459526 0.748744 -1.216)
(6.51067 8.88869 -16.5575)
(2.51657 4.52083 -5.35572)
(38.7779 74.899 -71.7825)
(28.1531 60.742 -55.4836)
(4.72731 5.72503 -10.9812)
(3.97912 7.33359 -9.40256)
(42.2926 90.5421 -89.7186)
(192.619 279.025 56.3205)
(121.926 126.781 69.8795)
(152.14 173.345 85.3625)
(191.811 392.393 25.8555)
(184.138 369.492 33.7977)
(151.79 315.769 33.4816)
(230.007 454.158 30.6626)
(0.0144142 0.0524465 -0.0117622)
(2.6385 8.58383 -0.48697)
(1.94809 5.80315 1.64515)
(0.582011 1.59787 0.190185)
(69.184 159.758 19.4704)
(57.7988 145.021 -6.38509)
(104.245 270.671 28.6014)
(4.40949 9.41117 7.49496)
(359.976 664.313 394.293)
(288.006 580.039 297.315)
(187.544 345.902 332.603)
(311.482 630.418 358.238)
(228.872 375.187 323.897)
(135.071 316.997 -5.63694)
(77.3576 194.454 -67.5175)
(137.522 351.699 -90.7551)
(192.822 466.59 -10.3249)
(91.039 252.56 -94.9882)
(131.81 347.246 -96.8949)
(151.799 389.919 -19.1614)
(268.913 389.575 383.138)
(393.71 560.196 760.514)
(260.864 432.354 440.186)
(253.132 296.73 383.9)
(212.214 331.056 426.919)
(430.455 397.986 921.199)
(496.599 411.727 877.771)
(129.559 532.653 9.25628)
(14.8899 16.7996 0.228882)
(0.00161338 -0.000175525 4.96398e-05)
(1.07684e-05 -1.30329e-06 3.11055e-07)
(-3.7632e-05 1.49043e-05 1.19838e-06)
(-0.00692506 0.00885321 0.000195983)
(0.0292551 0.148553 0.00108903)
(0.000278835 0.00035818 1.10101e-05)
(0.000583919 0.000177686 2.12251e-05)
(9.52542e-06 1.25384e-06 6.3236e-07)
(-7.39615e-07 1.45194e-06 1.15167e-07)
(-4.81062e-06 5.23367e-05 2.81185e-06)
(5.15625e-06 2.23104e-05 1.24577e-06)
(7.56805e-07 2.10063e-06 1.08613e-07)
(3.09427e-05 1.49115e-05 2.31596e-06)
(1.85423e-06 8.70341e-07 1.12889e-07)
(3.55862e-08 8.94553e-08 7.0314e-09)
(-5.49226e-08 1.26985e-06 5.13535e-08)
(9.55029e-08 5.25774e-07 2.18835e-08)
(1.56514e-08 7.09824e-08 2.81384e-09)
(3.1735e-06 2.089e-06 2.1849e-07)
(1.72127e-07 1.02351e-07 9.87609e-09)
(8.04438e-09 7.16895e-09 5.90903e-10)
(-6.30375e-11 2.68878e-08 9.11203e-10)
(1.66424e-09 1.08457e-08 3.68445e-10)
(2.57494e-10 1.8363e-09 5.91105e-11)
(1.96151e-07 1.80692e-07 1.34808e-08)
(1.14948e-08 9.08369e-09 6.50922e-10)
(5.66401e-10 4.56346e-10 3.06067e-11)
(3.14673e-11 5.20297e-10 1.58232e-11)
(2.4657e-11 2.03916e-10 6.00456e-12)
(3.89415e-12 4.21468e-11 1.17533e-12)
(1.01129e-08 1.15294e-08 6.82846e-10)
(6.18723e-10 6.00358e-10 3.45252e-11)
(3.21699e-11 2.86588e-11 1.58735e-12)
(1.64382e-12 9.7487e-12 2.90375e-13)
(3.81092e-13 3.59701e-12 9.67286e-14)
(5.74119e-14 8.98049e-13 2.01794e-14)
(4.46748e-10 5.62285e-10 2.98083e-11)
(2.83826e-11 3.00948e-11 1.5739e-12)
(1.50415e-12 1.44193e-12 7.47491e-14)
(6.21036e-14 1.89478e-13 3.8843e-15)
(2.06822e-15 5.60855e-14 4.73695e-16)
(0 1.25056e-14 0)
(125.342 442.38 81.3458)
(0.001338 0.00104577 0.000284566)
(0.000734961 -5.73297e-05 0.000150828)
(3.80008e-06 -4.12295e-07 8.51005e-07)
(-9.71923e-06 3.88497e-06 2.10475e-06)
(-0.00340283 0.00613172 0.0010876)
(0.0113477 0.0468996 0.00633297)
(7.53999e-05 0.000126115 1.93034e-05)
(0.000189584 4.72391e-05 3.42189e-05)
(3.78762e-06 4.50553e-07 7.65447e-07)
(-1.35257e-07 3.15095e-07 6.90924e-08)
(-1.06343e-06 1.58034e-05 2.20643e-06)
(1.29174e-06 6.22693e-06 8.29889e-07)
(3.64236e-07 1.10942e-06 1.76933e-07)
(1.16019e-05 5.32387e-06 2.8531e-06)
(7.07836e-07 3.04273e-07 1.72866e-07)
(2.02734e-08 2.36254e-08 9.98871e-09)
(-1.05329e-08 3.39042e-07 5.23558e-08)
(2.18942e-08 1.29888e-07 2.00215e-08)
(4.6062e-09 2.36396e-08 4.11073e-09)
(1.13114e-06 7.84171e-07 3.33088e-07)
(6.37261e-08 3.8397e-08 1.74769e-08)
(3.13128e-09 2.22647e-09 1.00455e-09)
(7.92214e-11 6.4928e-09 1.05482e-09)
(3.58836e-10 2.52426e-09 4.09129e-10)
(6.32626e-11 5.23424e-10 9.54421e-11)
(7.02343e-08 6.62698e-08 2.34178e-08)
(4.10829e-09 3.31241e-09 1.23591e-09)
(2.06739e-10 1.59079e-10 6.05038e-11)
(1.12052e-11 1.1901e-10 2.02166e-11)
(5.10008e-12 4.66835e-11 7.61617e-12)
(9.08358e-13 1.19254e-11 2.12632e-12)
(3.53677e-09 4.10086e-09 1.28866e-09)
(2.1786e-10 2.14941e-10 7.00063e-11)
(1.15987e-11 1.03026e-11 3.40502e-12)
(5.7419e-13 2.24618e-12 4.08515e-13)
(7.71539e-14 8.36204e-13 1.1994e-13)
(1.08002e-14 2.56587e-13 2.93691e-14)
(1.55068e-10 1.97395e-10 6.00381e-11)
(1.00216e-11 1.07667e-11 3.34978e-12)
(5.28509e-13 5.2277e-13 1.35098e-13)
(1.71408e-14 4.49063e-14 4.45273e-15)
(0 9.66338e-15 6.63173e-16)
(0 1.7053e-15 0)
(16.6978 26.259 9.33733)
(0.000156421 0.000117449 5.02237e-05)
(8.7465e-07 -2.19401e-09 -4.90116e-07)
(-4.80788e-07 1.84645e-07 1.50348e-07)
(-0.000238241 0.000470261 0.000120293)
(0.000267168 0.000820861 0.000209428)
(2.11137e-06 3.45328e-06 1.13299e-06)
(1.7435e-05 8.1878e-06 -1.65039e-06)
(9.92933e-07 2.46983e-07 -8.91775e-08)
(3.13929e-08 1.75247e-08 4.5681e-09)
(-5.05193e-08 8.61903e-07 2.4315e-07)
(6.45994e-08 4.05912e-07 1.0149e-07)
(2.8755e-08 9.96371e-08 2.59737e-08)
(3.0681e-06 1.74981e-06 4.20204e-07)
(1.93276e-07 1.02816e-07 1.71583e-08)
(8.91175e-09 4.15635e-09 1.09809e-09)
(-5.44515e-11 1.54625e-08 4.95617e-09)
(9.35783e-10 8.33732e-09 2.10601e-09)
(3.94491e-10 2.60933e-09 5.72939e-10)
(2.38505e-07 1.91014e-07 5.10737e-08)
(1.41423e-08 1.01805e-08 2.48533e-09)
(7.17012e-10 4.60394e-10 1.25215e-10)
(3.03168e-11 2.84405e-10 9.56031e-11)
(1.35554e-11 1.59891e-10 4.03533e-11)
(5.08389e-12 6.22215e-11 1.25752e-11)
(1.34183e-08 1.402e-08 3.6445e-09)
(8.29081e-10 7.48214e-10 1.91253e-10)
(4.38736e-11 3.49329e-11 9.33369e-12)
(2.02606e-12 5.84743e-12 1.90899e-12)
(2.46059e-13 2.94514e-12 7.43796e-13)
(5.98751e-14 1.33125e-12 2.58448e-13)
(6.4835e-10 8.10872e-10 2.0387e-10)
(4.13441e-11 4.41949e-11 1.11197e-11)
(2.21457e-12 2.08485e-12 5.39918e-13)
(9.17645e-14 1.4896e-13 3.95062e-14)
(1.69567e-15 4.56315e-14 7.7686e-15)
(0 2.24383e-14 2.08426e-15)
(2.73324e-11 3.72144e-11 9.6274e-12)
(1.76492e-12 2.05982e-12 5.31202e-13)
(8.4803e-14 9.32232e-14 1.65793e-14)
(0 1.89478e-16 0)
(0 0 0)
(0 0 0)
(0.0288047 0.0405833 0.0192482)
(7.86731e-06 6.32087e-06 4.50598e-06)
(0.000229236 0.000257783 -0.000359777)
(1.56781e-06 6.45431e-07 -1.30107e-06)
(-1.13474e-06 2.17766e-06 1.17746e-06)
(3.19785e-06 1.74337e-05 7.0008e-06)
(1.19235e-07 2.39473e-07 1.12522e-07)
(5.68347e-05 0.000142349 -5.8743e-05)
(7.4505e-06 9.73171e-06 -3.00181e-06)
(2.47873e-07 1.31398e-07 -5.75337e-08)
(5.28134e-09 9.41988e-09 6.6565e-09)
(8.80042e-10 7.733e-09 4.67305e-09)
(1.18635e-09 5.10667e-09 2.37121e-09)
(3.16138e-06 8.35432e-06 -1.37571e-06)
(2.93272e-07 3.83144e-07 -7.4684e-08)
(1.33068e-08 9.86192e-09 -2.02995e-09)
(4.63028e-10 4.45784e-10 1.28773e-10)
(2.5757e-11 1.84664e-10 1.09718e-10)
(1.39291e-11 1.20797e-10 5.41432e-11)
(1.24654e-07 3.0077e-07 -2.36433e-08)
(1.109e-08 1.48857e-08 -1.49924e-09)
(5.69204e-10 5.25711e-10 -4.82327e-11)
(2.28886e-11 2.09297e-11 2.00941e-12)
(9.08947e-13 4.27342e-12 2.17436e-12)
(1.76215e-13 2.75473e-12 1.14956e-12)
(5.03289e-09 1.09044e-08 -2.28929e-10)
(4.12558e-10 5.77778e-10 -2.19291e-11)
(2.19404e-11 2.34172e-11 -6.897e-13)
(9.13869e-13 8.76516e-13 4.15904e-14)
(2.92039e-14 9.05132e-14 3.7043e-14)
(1.32635e-15 5.3144e-14 1.91373e-14)
(1.87952e-10 3.95439e-10 8.1219e-12)
(1.45441e-11 2.16237e-11 1.64372e-13)
(7.64592e-13 9.08785e-13 1.06108e-14)
(2.53745e-14 2.75956e-14 0)
(0 0 0)
(0 0 0)
(6.35509e-12 1.30657e-11 7.21121e-13)
(4.53321e-13 7.21911e-13 3.33481e-14)
(1.70197e-14 2.44427e-14 0)
(0 0 0)
(0 0 0)
(0 0 0)
(351.532 520.19 107.737)
(3.91102 6.48201 2.45651)
(0.00397791 0.00758307 0.00308194)
(1.86879e-06 1.82066e-06 2.15896e-06)
(9.92498e-08 9.20824e-08 1.68639e-07)
(5.03899 10.4096 3.95823)
(0.0843212 0.178203 -0.0157665)
(0.000177231 0.00019476 -2.87825e-06)
(2.68922e-07 1.4167e-07 -3.66592e-08)
(4.66266e-09 4.39812e-08 3.33123e-08)
(1.3795e-09 3.85273e-09 3.96353e-09)
(0.00032982 0.000840595 0.000191478)
(1.53409e-05 2.76144e-05 1.66176e-06)
(7.06769e-07 5.00582e-07 1.60783e-08)
(1.8419e-08 6.00838e-09 -7.12705e-13)
(4.19791e-10 1.3401e-10 8.14496e-11)
(2.74783e-11 1.17696e-10 9.62536e-11)
(3.62308e-06 9.98846e-06 5.89957e-07)
(5.51772e-07 9.9541e-07 3.01723e-08)
(3.20159e-08 2.84622e-08 3.76835e-10)
(1.32801e-09 9.19198e-10 3.1027e-13)
(4.26873e-11 2.28808e-11 3.95791e-12)
(1.2191e-12 3.51518e-12 2.25318e-12)
(1.51041e-07 4.7919e-07 1.6422e-08)
(2.00217e-08 3.5648e-08 5.82441e-10)
(1.18489e-09 1.24848e-09 8.99433e-12)
(4.83325e-11 4.16728e-11 4.47168e-14)
(1.6502e-12 1.20572e-12 9.9097e-14)
(4.24431e-14 9.6294e-14 4.30115e-14)
(5.44778e-09 1.82553e-08 4.71404e-10)
(6.65154e-10 1.21229e-09 1.55125e-11)
(3.97229e-11 4.77645e-11 3.25808e-13)
(1.66086e-12 1.64122e-12 7.48438e-15)
(5.30053e-14 4.05619e-14 4.73695e-16)
(0 0 0)
(1.87668e-10 6.09821e-10 1.37349e-11)
(2.07424e-11 3.91414e-11 5.13865e-13)
(1.22333e-12 1.64248e-12 1.73372e-14)
(4.41983e-14 5.31984e-14 0)
(0 0 0)
(0 0 0)
(5.97614e-12 1.81595e-11 4.30004e-13)
(5.81762e-13 1.15146e-12 1.82846e-14)
(2.5433e-14 4.62326e-14 0)
(0 0 0)
(0 0 0)
(0 0 0)
(469.462 680.552 498.702)
(0.022937 0.0226298 0.0316315)
(0.000168883 0.000132427 0.00017795)
(1.02896e-06 8.12548e-07 8.90295e-07)
(3.3373e-08 4.06626e-08 1.92427e-08)
(2.37171e-09 2.75155e-09 2.96412e-09)
(0.000232188 0.000507148 0.000282795)
(0.000802793 0.00131704 0.00069693)
(4.80815e-06 4.69409e-06 2.4732e-06)
(1.64935e-07 7.31879e-08 3.80152e-08)
(4.57534e-09 2.11687e-09 5.3988e-10)
(1.49732e-10 1.50058e-10 1.00607e-10)
(1.97826e-05 5.00704e-05 1.99278e-05)
(3.00632e-06 4.72932e-06 1.69289e-06)
(2.1999e-07 2.33938e-07 8.04993e-08)
(9.4541e-09 6.35864e-09 1.93813e-09)
(3.03066e-10 1.73724e-10 3.67487e-11)
(9.19215e-12 7.92179e-12 3.29294e-12)
(9.7971e-07 2.84865e-06 8.947e-07)
(1.238e-07 2.31022e-07 7.38359e-08)
(9.07291e-09 1.06312e-08 3.12088e-09)
(4.19164e-10 3.53609e-10 9.92736e-11)
(1.4978e-11 1.06024e-11 2.38989e-12)
(4.57779e-13 3.79433e-13 1.02697e-13)
(3.74363e-08 1.09189e-07 3.47773e-08)
(4.73021e-09 9.16611e-09 2.66258e-09)
(3.37972e-10 4.30524e-10 1.14923e-10)
(1.61213e-11 1.58712e-11 4.03655e-12)
(5.97234e-13 4.87525e-13 8.97179e-14)
(1.38319e-14 1.0192e-14 7.57912e-16)
(1.44244e-09 4.24327e-09 1.24275e-09)
(1.70023e-10 3.32914e-10 8.84333e-11)
(1.17879e-11 1.61479e-11 3.98776e-12)
(5.57993e-13 6.17292e-13 1.29792e-13)
(1.611e-14 1.39579e-14 1.13687e-15)
(0 0 0)
(5.11574e-11 1.53282e-10 4.1238e-11)
(5.66723e-12 1.14008e-11 2.77993e-12)
(3.62915e-13 5.50459e-13 1.08571e-13)
(1.21864e-14 1.58388e-14 1.51582e-15)
(0 0 0)
(0 0 0)
(1.65339e-12 4.90148e-12 1.23022e-12)
(1.59724e-13 3.47882e-13 5.86435e-14)
(3.96319e-15 1.13687e-14 6.63173e-16)
(0 0 0)
(0 0 0)
(0 0 0)
(0.000136922 0.000201446 0.000260134)
(3.3454e-05 2.78772e-05 5.32664e-05)
(3.295e-06 2.33921e-06 3.081e-06)
(1.54083e-07 9.40837e-08 7.12424e-08)
(6.75202e-09 4.68685e-09 2.73928e-09)
(2.95073e-10 2.26316e-10 1.52829e-10)
(2.03097e-05 3.43547e-05 3.78385e-05)
(3.99784e-06 4.47171e-06 4.33692e-06)
(2.93325e-07 2.32908e-07 2.14157e-07)
(1.39952e-08 8.33088e-09 6.62978e-09)
(6.0331e-10 3.65845e-10 2.63783e-10)
(2.19705e-11 1.60278e-11 9.04578e-12)
(1.69239e-06 3.78294e-06 2.56363e-06)
(2.05565e-07 3.13939e-07 2.08972e-07)
(1.5468e-08 1.57117e-08 1.01209e-08)
(8.36011e-10 6.48829e-10 4.05704e-10)
(3.74679e-11 2.69369e-11 1.54766e-11)
(1.33904e-12 1.01096e-12 4.61095e-13)
(7.11404e-08 1.77261e-07 9.57823e-08)
(8.83691e-09 1.52974e-08 8.28509e-09)
(6.76038e-10 7.9208e-10 4.06877e-10)
(3.64182e-11 3.46609e-11 1.6357e-11)
(1.62333e-12 1.42016e-12 5.74971e-13)
(5.51381e-14 4.59249e-14 1.26003e-14)
(3.01481e-09 7.76412e-09 3.74332e-09)
(3.61452e-10 6.5686e-10 3.04828e-10)
(2.71933e-11 3.53062e-11 1.53047e-11)
(1.45098e-12 1.57687e-12 6.16088e-13)
(5.6313e-14 5.38168e-14 1.47793e-14)
(0 0 0)
(1.19979e-10 3.23191e-10 1.39226e-10)
(1.38043e-11 2.61245e-11 1.06151e-11)
(9.88162e-13 1.4054e-12 5.24381e-13)
(4.42312e-14 5.62642e-14 1.55372e-14)
(0 0 0)
(0 0 0)
(4.40082e-12 1.23949e-11 4.77016e-12)
(4.60046e-13 9.39821e-13 3.27892e-13)
(2.4664e-14 4.21682e-14 1.07055e-14)
(0 0 0)
(0 0 0)
(0 0 0)
(1.28845e-13 4.14654e-13 1.3276e-13)
(6.59536e-15 2.33058e-14 4.16852e-15)
(0 0 0)
(0 0 0)
(0 0 0)
(0 0 0)
(7.44907e-06 8.47803e-06 1.74564e-05)
(1.61321e-06 1.23012e-06 2.38069e-06)
(1.3702e-07 9.27339e-08 1.54226e-07)
(8.61424e-09 5.54178e-09 6.85296e-09)
(4.51446e-10 2.94936e-10 2.98959e-10)
(2.10525e-11 1.4355e-11 1.36366e-11)
(1.23575e-06 1.91879e-06 2.69662e-06)
(1.56108e-07 1.65983e-07 2.34916e-07)
(1.22595e-08 9.72025e-09 1.2119e-08)
(6.92392e-10 4.9124e-10 5.11454e-10)
(3.44547e-11 2.441e-11 2.17486e-11)
(1.5018e-12 1.11347e-12 8.64683e-13)
(7.26582e-08 1.43201e-07 1.41819e-07)
(9.05548e-09 1.27722e-08 1.23607e-08)
(7.21346e-10 7.23111e-10 6.5334e-10)
(4.18936e-11 3.59251e-11 2.97201e-11)
(2.07652e-12 1.6772e-12 1.26344e-12)
(8.2044e-14 6.07547e-14 3.99799e-14)
(3.70039e-09 8.07503e-09 6.37758e-09)
(4.49255e-10 7.11653e-10 5.46371e-10)
(3.55093e-11 4.13889e-11 2.99154e-11)
(2.0588e-12 2.0677e-12 1.37893e-12)
(9.18043e-14 8.23595e-14 4.82222e-14)
(0 0 0)
(1.70411e-10 4.03688e-10 2.70586e-10)
(2.0044e-11 3.42738e-11 2.21325e-11)
(1.52438e-12 2.00157e-12 1.21209e-12)
(7.56326e-14 9.26997e-14 4.73695e-14)
(1.89478e-16 0 0)
(0 0 0)
(7.06317e-12 1.8049e-11 1.05432e-11)
(7.85071e-13 1.45361e-12 8.12387e-13)
(5.01557e-14 7.46785e-14 3.61903e-14)
(0 0 0)
(0 0 0)
(0 0 0)
(2.40827e-13 6.99809e-13 3.57389e-13)
(1.90616e-14 4.70472e-14 2.02742e-14)
(0 0 0)
(0 0 0)
(0 0 0)
(0 0 0)
(3.22113e-15 1.76236e-14 5.79131e-15)
(0 0 0)
(0 0 0)
(0 0 0)
(0 0 0)
(0 0 0)
(3.8074e-07 3.81766e-07 1.06632e-06)
(5.20092e-08 4.12062e-08 9.88085e-08)
(5.02461e-09 3.49925e-09 6.65075e-09)
(3.56033e-10 2.40188e-10 3.69604e-10)
(2.1511e-11 1.40329e-11 1.88689e-11)
(1.07282e-12 6.91026e-13 8.69933e-13)
(3.99423e-08 5.48532e-08 9.98431e-08)
(5.32024e-09 5.55425e-09 9.28427e-09)
(4.59028e-10 3.79076e-10 5.44703e-10)
(2.93721e-11 2.27637e-11 2.79059e-11)
(1.62317e-12 1.21163e-12 1.32483e-12)
(7.10543e-14 4.68418e-14 4.88853e-14)
(2.83557e-09 4.97927e-09 6.17621e-09)
(3.55871e-10 4.67649e-10 5.53095e-10)
(2.96991e-11 3.00574e-11 3.27195e-11)
(1.84408e-12 1.66767e-12 1.65718e-12)
(8.59913e-14 7.14435e-14 6.84016e-14)
(1.89478e-16 0 9.4739e-17)
(1.60898e-10 3.26116e-10 3.2045e-10)
(1.94252e-11 2.91028e-11 2.74808e-11)
(1.55518e-12 1.83643e-12 1.63046e-12)
(8.46918e-14 8.74329e-14 7.43701e-14)
(5.67468e-16 0 1.89478e-16)
(0 0 0)
(7.80536e-12 1.76743e-11 1.46387e-11)
(8.89861e-13 1.48816e-12 1.18462e-12)
(5.94354e-14 8.29337e-14 5.97803e-14)
(1.89478e-16 0 9.4739e-17)
(0 0 0)
(0 0 0)
(3.08849e-13 8.00872e-13 5.74486e-13)
(2.78315e-14 5.60681e-14 3.9222e-14)
(0 0 0)
(0 0 0)
(0 0 0)
(0 0 0)
(4.92643e-15 2.523e-14 1.47302e-14)
(0 0 0)
(0 0 0)
(0 0 0)
(0 0 0)
(0 0 0)
(0 0 1.09327e-17)
(0 0 0)
(0 0 0)
(0 0 0)
(0 0 0)
(0 0 0)
(1.14431e-08 1.14687e-08 3.06063e-08)
(1.72306e-09 1.42563e-09 3.39934e-09)
(1.76126e-10 1.29147e-10 2.48636e-10)
(1.34908e-11 9.41839e-12 1.5511e-11)
(8.48629e-13 5.43802e-13 8.52841e-13)
(3.58114e-14 1.78109e-14 3.42955e-14)
(1.34045e-09 1.74276e-09 3.31768e-09)
(1.79923e-10 1.86162e-10 3.20341e-10)
(1.63495e-11 1.41451e-11 2.09567e-11)
(1.10958e-12 8.94336e-13 1.19636e-12)
(5.53433e-14 3.77061e-14 5.63697e-14)
(0 0 0)
(1.02786e-10 1.70714e-10 2.31068e-10)
(1.29522e-11 1.64099e-11 2.08471e-11)
(1.08879e-12 1.12739e-12 1.33648e-12)
(5.98613e-14 5.64645e-14 6.74542e-14)
(0 0 9.4739e-17)
(0 0 0)
(6.14951e-12 1.19811e-11 1.28891e-11)
(7.14582e-13 1.05918e-12 1.10731e-12)
(4.73113e-14 5.94961e-14 6.68858e-14)
(0 0 9.4739e-17)
(0 0 0)
(0 0 0)
(2.84407e-13 6.52898e-13 6.10688e-13)
(2.51863e-14 4.52853e-14 4.37694e-14)
(0 0 0)
(0 0 0)
(0 0 0)
(0 0 0)
(5.68434e-15 2.35482e-14 1.94215e-14)
(0 0 0)
(0 0 0)
(0 0 0)
(0 0 0)
(0 0 0)
(0 1.35825e-17 4.21229e-18)
(0 0 0)
(0 0 0)
(0 0 0)
(0 0 0)
(0 0 0)
(0 0 0)
(0 0 0)
(0 0 0)
(0 0 0)
(0 0 0)
(0 0 0)
(0.000872067 -0.000430462 1.84049e-05)
(1.88724e-05 -1.40215e-05 4.45567e-07)
(0.000553437 -0.000304534 0.000110123)
(1.83728e-05 -1.6767e-05 3.13102e-06)
(3.89719e-06 -2.54576e-06 7.82569e-08)
(-4.91451e-07 -2.35058e-07 7.78816e-09)
(3.59959e-06 -2.41068e-06 5.55235e-07)
(-2.61036e-07 -1.72605e-07 5.67983e-08)
(-7.15114e-06 -5.71516e-07 1.23655e-07)
(-0.00538392 0.00318511 5.26385e-05)
(-4.04129e-06 -5.05139e-07 5.32782e-07)
(-0.00314507 0.00185617 0.000482573)
(39.7454 227.681 4.81469)
(-0.0434549 0.038241 0.00047132)
(0.0488729 1.97114 0.0162729)
(37.4134 220.351 23.2222)
(-0.0266762 0.0232889 0.0039489)
(0.0468416 1.20111 0.135041)
(289.758 437.456 7.6852)
(0.310978 1.79219 0.0146183)
(0.024485 0.0481051 0.000409284)
(130.862 512.405 51.824)
(248.026 360.261 46.6428)
(0.208859 0.989604 0.117748)
(0.00977423 0.0182375 0.00277504)
(0.000139995 -1.57679e-05 5.21911e-06)
(0.00130977 0.000214421 3.92199e-05)
(0.000123906 6.63287e-06 3.69937e-06)
(0.001229 -0.00012765 0.000177924)
(0.000101702 -9.31606e-06 1.15466e-05)
(0.00101088 0.000156854 0.000153138)
(9.22185e-05 1.98612e-06 1.34182e-05)
(-7.935e-07 5.59049e-09 3.77368e-08)
(9.90191e-06 -5.75441e-08 2.71955e-07)
(1.29366e-06 -6.90743e-07 6.79943e-08)
(7.7402e-06 -8.61546e-07 9.78938e-07)
(-4.64706e-07 -3.02626e-08 1.31978e-07)
(7.30151e-06 -4.53515e-07 1.11035e-06)
(1.12116e-06 -6.90672e-07 1.77656e-07)
(-0.00084946 0.00062319 2.13316e-05)
(-2.94549e-06 1.98777e-06 6.63649e-08)
(-5.15163e-05 5.60163e-05 1.34419e-06)
(-2.52672e-05 1.00713e-05 1.89487e-06)
(-0.00065971 0.000485181 7.77935e-05)
(-1.86571e-06 1.25032e-06 2.85464e-07)
(-3.48447e-05 3.77805e-05 5.92322e-06)
(0.00475649 0.187266 0.00139463)
(-0.000415898 0.00101407 2.10809e-05)
(1.92483e-05 0.0017204 3.89458e-05)
(-0.00547611 0.00824123 0.000935941)
(0.00392454 0.107728 0.0121563)
(-0.000326048 0.000823498 9.13213e-05)
(1.80196e-05 0.00129257 0.000140873)
(0.000370033 -0.000187398 7.10867e-05)
(9.1496e-06 -7.61882e-06 2.38059e-06)
(3.24562e-06 -3.09935e-06 8.05795e-07)
(1.83278e-06 -1.14473e-06 4.98563e-07)
(-1.29731e-07 -7.21887e-08 2.51125e-08)
(6.27255e-07 -4.428e-07 1.24995e-07)
(-1.22593e-08 -2.18329e-08 7.05467e-09)
(-2.0719e-06 -7.19408e-08 3.10796e-07)
(-0.00212174 0.00128137 0.000247086)
(-3.04463e-07 -7.41096e-08 7.45746e-08)
(-0.000333253 0.000193828 9.96723e-05)
(30.1691 205.093 35.4367)
(-0.0184881 0.0166515 0.00298683)
(0.0423574 0.838537 0.113756)
(21.4247 160.331 36.1293)
(-0.00348724 0.00300379 0.00105303)
(0.0169111 0.153888 0.0351374)
(23.7795 30.0617 7.30637)
(0.149413 0.642166 0.0907314)
(0.00535907 0.00963559 0.00113676)
(97.4998 157.305 48.9416)
(1.0556 1.25773 0.418652)
(0.0261406 0.0857993 0.0214905)
(0.000937692 0.00133441 0.000324884)
(5.19499e-05 -5.14208e-06 1.22985e-05)
(0.000548983 9.76747e-05 0.000111217)
(4.46624e-05 2.59698e-06 9.54546e-06)
(1.97503e-05 -1.73588e-06 3.43096e-06)
(0.000195651 3.08383e-05 5.33773e-05)
(1.95491e-05 -2.00446e-06 4.81289e-06)
(-1.27866e-07 -1.88474e-08 9.73207e-08)
(3.30677e-06 5.12128e-08 5.95022e-07)
(4.54631e-07 -2.25746e-07 1.16001e-07)
(1.45967e-06 -1.71848e-07 2.32194e-07)
(6.06428e-09 -1.7845e-08 2.55665e-08)
(1.47703e-06 -2.60512e-07 3.63266e-07)
(2.0265e-07 -1.13931e-07 5.85031e-08)
(-0.000272036 0.000203227 5.42663e-05)
(-7.22282e-07 4.90415e-07 1.20398e-07)
(-1.38905e-05 1.48454e-05 2.45211e-06)
(-2.58989e-06 1.0137e-06 4.75977e-07)
(-7.11323e-05 5.35435e-05 1.83118e-05)
(-1.87541e-07 1.17177e-07 6.49892e-08)
(-4.15202e-06 4.29616e-06 1.5613e-06)
(0.00292508 0.0702766 0.00906719)
(-0.000151425 0.000364878 4.56197e-05)
(1.20837e-05 0.000802478 8.61825e-05)
(-0.00118589 0.0022648 0.000530152)
(0.00110568 0.0114924 0.00227553)
(-4.63241e-05 0.000107684 2.98096e-05)
(2.71214e-06 0.000432395 9.74501e-05)
(1.17656e-06 -9.69227e-07 6.30262e-08)
(4.8145e-05 1.36608e-05 -8.85166e-05)
(2.81591e-07 -2.04909e-07 -2.94982e-09)
(-5.85895e-10 -5.75415e-09 8.31831e-10)
(1.12208e-05 4.49847e-06 -2.16776e-05)
(2.08921e-07 -8.39315e-08 -2.74548e-07)
(-7.87794e-08 -8.22962e-09 2.15368e-08)
(-0.000138645 8.34166e-05 3.28634e-05)
(2.70507e-08 -8.90034e-09 -3.19014e-08)
(-3.09624e-06 1.69124e-06 1.07271e-06)
(24.9297 110.647 36.9001)
(-0.00148646 0.00132534 0.000430815)
(0.0118184 0.0687589 0.0119766)
(6.83935 22.3608 8.66631)
(-4.11404e-05 3.3988e-05 1.70613e-05)
(0.000399479 0.0022447 0.000880006)
(0.274194 0.308068 0.112681)
(0.00830334 0.0318033 0.00592139)
(0.000910917 0.00141339 0.000356082)
(1.02959 1.69465 0.638087)
(0.00223865 0.00205629 0.00102516)
(0.000332187 0.00135293 0.000518652)
(0.000249976 0.000356838 0.000154947)
(1.02314e-05 -2.03531e-07 -3.14716e-06)
(7.72021e-05 1.66195e-05 8.05278e-06)
(7.45165e-06 1.72622e-07 -2.4457e-08)
(5.96079e-05 4.0628e-05 -0.000113937)
(6.7932e-05 8.80613e-05 -8.72313e-05)
(1.28495e-05 1.23444e-05 -1.60404e-05)
(5.62337e-08 -8.47505e-09 -3.40256e-08)
(6.46777e-07 -9.04168e-09 -5.71555e-08)
(1.09655e-07 -5.31788e-08 -6.454e-10)
(8.59498e-06 4.91761e-06 -1.59577e-05)
(8.97006e-07 2.81311e-07 -1.15893e-06)
(1.9104e-06 1.73601e-06 -2.56061e-06)
(2.92443e-07 6.23249e-08 -2.06906e-07)
(-1.31033e-05 9.8031e-06 3.71762e-06)
(-1.85736e-08 1.47892e-08 8.54286e-09)
(-6.43079e-07 6.75605e-07 2.28183e-07)
(2.79369e-08 8.65846e-09 -3.59618e-08)
(-1.22776e-06 9.02546e-07 4.82945e-07)
(2.13557e-08 3.36994e-09 -1.07259e-08)
(-6.22737e-08 5.85405e-08 3.16907e-08)
(7.96046e-06 0.00275912 0.000630345)
(-7.71559e-06 1.90456e-05 4.60082e-06)
(3.67657e-07 9.47465e-05 1.96128e-05)
(-2.42125e-05 4.82399e-05 1.65358e-05)
(-2.77685e-06 0.000309108 8.7753e-05)
(-8.84988e-07 2.0525e-06 9.62266e-07)
(-2.63786e-07 1.11119e-05 4.60815e-06)
(0.000641059 0.000361019 -0.00117194)
(0.945073 1.64457 -1.17063)
(0.000155274 0.000103999 -0.000286995)
(3.25916e-06 -7.07495e-07 -3.87363e-06)
(0.290234 0.488166 -0.346337)
(0.00325105 0.00506289 -0.0034811)
(3.98318e-07 -1.22876e-08 -4.28996e-07)
(-5.34738e-07 3.08535e-07 2.05484e-07)
(0.000551107 0.000856737 -0.000555849)
(1.97809e-06 2.92017e-06 -1.99178e-06)
(0.714245 1.78506 0.716934)
(-7.52587e-06 6.53883e-06 3.3325e-06)
(7.1087e-05 0.00041251 0.000143224)
(0.00113385 0.00270701 0.00175687)
(2.34333e-07 3.55075e-07 -2.26105e-07)
(-1.76435e-06 2.62714e-06 1.64579e-06)
(0.000668036 0.00072869 0.000405428)
(0.00016908 0.000455994 0.000200759)
(2.79518e-05 4.76419e-05 2.12755e-05)
(0.000390161 0.000596536 0.000412921)
(5.09959e-05 5.54045e-05 4.52689e-05)
(1.10889e-05 3.72285e-05 1.94333e-05)
(1.56749e-06 2.85271e-06 1.94902e-06)
(0.00149155 0.0018708 -0.00235319)
(0.000601922 0.00128112 -0.000985422)
(0.000124185 0.000192766 -0.000166297)
(0.297447 0.590407 -0.355379)
(0.00285654 0.0088733 -0.00260992)
(0.00125157 0.00252857 -0.00102721)
(2.49618e-05 1.771e-05 -2.82495e-05)
(2.63102e-05 3.97564e-05 -3.97347e-05)
(3.91085e-06 3.21189e-06 -3.66396e-06)
(0.0250909 0.0479204 -0.0263405)
(0.000607908 0.000783748 -0.000396873)
(0.000245553 0.000502676 -0.000155467)
(3.31552e-05 4.40667e-05 -1.40697e-05)
(9.58351e-09 3.26504e-08 -5.51349e-09)
(2.98886e-07 1.84196e-07 -2.14686e-07)
(2.34529e-08 2.14634e-10 -7.5655e-09)
(3.81363e-05 3.10724e-05 -1.7787e-05)
(1.62659e-06 8.43474e-07 -5.9782e-07)
(2.27759e-06 2.03109e-06 -6.90532e-07)
(1.26833e-07 6.37177e-08 -3.20035e-08)
(-6.16114e-07 1.54601e-05 6.78049e-06)
(-3.68377e-08 8.44318e-08 5.34576e-08)
(-2.92127e-08 4.90676e-07 2.64146e-07)
(3.02746e-08 4.54497e-08 2.37974e-08)
(-7.0787e-08 3.65672e-07 2.91786e-07)
(4.56036e-09 3.85985e-09 1.43741e-09)
(-1.82993e-09 1.35722e-08 1.15353e-08)
(102.742 135.203 37.5912)
(1.00633 2.0135 -0.175496)
(0.012941 0.0263193 -0.00191426)
(221.22 270.983 177.083)
(7.67062 9.44137 5.96797)
(0.169007 0.300089 0.130694)
(0.00163426 0.0022612 0.00104221)
(0.143968 0.290557 0.125622)
(0.00247072 0.00515194 -0.0003731)
(1.15149e-05 2.40296e-05 -1.69323e-06)
(0.126964 0.154984 0.108939)
(0.00218031 0.00294645 0.00221268)
(0.00144226 0.00207916 0.000778133)
(0.000140495 0.000168587 5.13578e-05)
(3.64798e-06 1.11387e-05 7.51488e-06)
(1.48151e-06 2.95222e-06 -2.07362e-07)
(-1.04162e-07 1.50667e-07 1.54031e-07)
(0.0001961 0.00024586 0.000134743)
(1.33906e-05 1.27206e-05 5.29156e-06)
(1.03403e-05 1.27841e-05 2.73117e-06)
(6.45544e-07 6.55917e-07 9.55348e-08)
(1753.34 506.262 41.4384)
(1.9233 0.519608 0.350326)
(0.0144184 0.00296384 0.00349139)
(378.25 100.688 245.356)
(9.0985e-05 1.06022e-05 4.75016e-05)
(1434.73 382.165 1437.85)
(960.056 63.9524 1016.97)
(3.35896e-05 1.89668e-05 3.7174e-05)
(1.56799e-06 3.39934e-07 1.42239e-06)
(407.164 366.46 601.482)
(0.153428 0.1284 0.2255)
(0.000888431 0.000570722 0.00112127)
(8.41801e-06 5.1981e-06 9.2672e-06)
(1.31313e-06 6.37267e-07 1.05785e-06)
(5.87341e-08 2.82133e-08 4.2286e-08)
(210.288 113.479 317.804)
(0.395717 0.165009 0.655618)
(1.48688e-05 8.13335e-06 1.99708e-05)
(1.67176e-06 8.91109e-07 1.25502e-06)
(9.42078e-08 4.80813e-08 5.85099e-08)
(4.31709e-09 2.20369e-09 2.54196e-09)
(0.00149826 0.000889014 0.0038834)
(1.52352e-05 1.0808e-05 3.29345e-05)
(1.02075e-06 6.28308e-07 1.41936e-06)
(7.89537e-08 4.39282e-08 8.01535e-08)
(4.86647e-09 2.52606e-09 3.96553e-09)
(2.44916e-10 1.23981e-10 1.83104e-10)
(1.3735e-06 1.18121e-06 3.02396e-06)
(2.95832e-07 2.47286e-07 6.49339e-07)
(3.51371e-08 2.39054e-08 5.83925e-08)
(3.10629e-09 1.81595e-09 3.78797e-09)
(2.13932e-10 1.11533e-10 2.12459e-10)
(1.15322e-11 5.79253e-12 1.05479e-11)
(5.6817e-08 5.18038e-08 1.3889e-07)
(1.02024e-08 8.27029e-09 2.12969e-08)
(1.26866e-09 8.72062e-10 2.11548e-09)
(1.16946e-10 6.9003e-11 1.51282e-10)
(8.49018e-12 4.39002e-12 9.10613e-12)
(4.67632e-13 2.07668e-13 4.66495e-13)
(156.21 252.205 9.82445)
(158.082 261.169 43.0941)
(1216.27 597.397 38.3989)
(468.635 436.586 23.4394)
(1027.09 787.975 31.9308)
(1266.58 611.314 184.215)
(749.126 636.056 136.004)
(1052.2 813.886 166.49)
(157.843 289.107 78.9772)
(153.072 319.515 115.519)
(1759 508.137 432.655)
(560.218 579.132 252.536)
(1057.02 882.842 309.635)
(1364.86 426.931 528.705)
(653.599 720.106 382.467)
(752.823 671.904 335.463)
(160.819 463.122 176.774)
(1682.39 387.306 1056.91)
(92.6966 216.327 108.149)
(924.796 305.108 400.29)
(634.699 762.37 442.106)
(157.14 126.326 82.0783)
(1631.74 445.352 920.542)
(12.4769 2.98778 5.486)
(507.7 598.849 380)
(30.0035 23.1019 15.2368)
(1716.17 340.093 1183.55)
(12.7616 24.4117 13.027)
(53.7446 4.95153 47.0671)
(0.026087 0.0460206 0.0329141)
(1.32253 0.222975 0.60265)
(0.486235 0.561274 0.307307)
(0.00388585 0.00288174 0.00181991)
(3.1167 0.312662 2.07031)
(0.000593379 3.28562e-05 0.000408376)
(0.00460686 0.00475941 0.00374875)
(0.000466534 0.000298863 0.00036429)
(322.027 378.188 155.853)
(391.783 442.65 344.973)
(494.763 585.57 228.112)
(421.65 505.77 191.788)
(692.924 480.535 826.346)
(1103.65 431.157 1173.69)
(655.17 636.182 535.309)
(82.9902 85.1735 71.9182)
(1349.4 143.038 1459.77)
(54.7869 69.3231 35.2119)
(2.30405 4.00459 2.16845)
(911.947 297.516 1007.24)
(159.165 32.9842 195.473)
(1.38076 1.50522 1.32028)
(0.022637 0.028921 0.0278197)
(2.30795 0.196553 2.41304)
(0.0747506 0.132295 0.0711432)
(7.56061e-05 0.000146791 0.000127264)
(3.97703 0.445195 6.76662)
(0.000294948 4.53472e-05 0.000360934)
(0.000759056 0.000947022 0.000957882)
(0.000280271 0.000230346 0.000265491)
(460.539 653.55 369.443)
(352.651 531.684 95.4738)
(15.8891 30.1442 1.35551)
(53.5363 81.5648 41.557)
(255.334 359.591 79.4604)
(277.677 407.499 56.8976)
(202.571 304.241 39.8857)
(40.6002 60.2992 10.8027)
(102.385 171.92 9.67752)
(38.3929 60.5928 4.4215)
(131.669 202.082 27.4281)
(0.748088 1.39143 0.575375)
(6.57322 10.889 1.70871)
(1.54711 2.88758 0.444207)
(0.0528253 0.104173 0.0371802)
(0.495747 0.954042 0.0843121)
(0.105734 0.223629 0.0204968)
(0.291774 0.53499 0.17587)
(0.000488752 0.000811891 0.000293157)
(0.0134015 0.0300074 0.00403497)
(0.0017117 0.00342682 0.000444577)
(3.76159e-05 5.60426e-05 1.01778e-06)
(0.000643664 0.00144466 0.000119444)
(7.65721e-05 0.000155539 1.21571e-05)
(0.000222543 0.000414371 0.000124819)
(7.5032e-05 -3.03906e-05 5.31591e-06)
(0.000422714 -8.98743e-05 5.82184e-06)
(0.000271414 -0.000198916 6.01583e-06)
(0.000826947 -0.00042455 6.17515e-05)
(0.000393234 -8.62606e-05 2.51396e-05)
(0.000253983 -0.000184696 1.6836e-05)
(8.0777e-05 -3.25362e-05 1.32902e-06)
(1.51893e-05 -6.72588e-06 1.15723e-06)
(3.93856e-06 -2.25306e-06 7.94967e-08)
(5.7141e-05 -3.62807e-05 1.41331e-06)
(1.79367e-05 -1.32837e-05 6.13103e-07)
(3.72473e-06 -2.15455e-06 1.52261e-07)
(5.40485e-05 -3.52209e-05 4.36296e-06)