/*--------------------------------*- C++ -*----------------------------------*\
  =========                 |
  \\      /  F ield         | OpenFOAM: The Open Source CFD Toolbox
   \\    /   O peration     | Website:  https://openfoam.org
    \\  /    A nd           | Version:  9
     \\/     M anipulation  |
\*---------------------------------------------------------------------------*/
FoamFile
{
    format      ascii;
    class       volScalarField;
    location    "0.0024";
    object      rhoE;
}
// * * * * * * * * * * * * * * * * * * * * * * * * * * * * * * * * * * * * * //

dimensions      [1 -1 -2 0 0 0 0];

internalField   nonuniform List<scalar> 
19970
(
362697
391207
365821
298515
298026
401799
357753
347448
403410
750950
555354
257364
1.12511e+06
1.16927e+06
893996
896038
1.1622e+06
856561
957976
975503
666809
581511
810630
669628
626006
520685
1.38156e+06
1.38605e+06
1.04834e+06
1.1427e+06
1.32581e+06
1.47143e+06
1.05765e+06
1.45889e+06
1.16631e+06
1.56837e+06
1.12803e+06
1.55473e+06
1.08811e+06
1.53797e+06
1.53053e+06
1.4753e+06
1.16995e+06
1.12546e+06
1.57426e+06
1.27749e+06
1.21617e+06
1.36645e+06
1.02147e+06
698624
1.10649e+06
985188
1.20982e+06
1.06236e+06
478687
529830
906742
549312
705217
473628
664112
422776
541729
479041
520160
486757
534758
410609
627084
1.06555e+06
741936
468682
475582
549968
662410
442321
494247
593628
572685
140947
625605
163790
884280
228958
1.30048e+06
561721
619321
1.03653e+06
151278
509007
589252
165219
508030
445123
155930
458578
174190
600726
720815
224522
646151
474637
202578
511394
252641
794536
1.18662e+06
460030
1.05136e+06
767398
450420
1.08353e+06
1.55632e+06
917976
566761
930798
834620
725782
596779
798276
634261
406568
269249
229571
178432
144805
235406
183548
261800
314285
262905
203211
172371
298501
277746
213648
551446
368864
298797
273164
443422
434589
378774
767594
813896
682601
626521
863696
854247
649208
772829
734463
814827
874395
914173
862200
355638
892288
828518
467335
445054
238960
154248
449280
243680
462714
472941
158842
467453
259796
457442
250568
479087
275739
149120
251359
196171
241424
188125
287022
498506
480376
271892
186925
486050
499702
288713
519730
203803
572337
340987
530814
311444
551654
338149
184729
326933
253567
298435
228495
378393
678718
627230
384145
296852
600925
706083
450449
791328
365684
971409
661383
821559
544162
924717
714283
345166
686199
625873
539118
504497
839192
1.82785e+06
1.75374e+06
1.54661e+06
1.48582e+06
1.7538e+06
1.72825e+06
1.55578e+06
1.92711e+06
1.50952e+06
1.70037e+06
1.65192e+06
1.61971e+06
1.25061e+06
1.11097e+06
1.08346e+06
1.51641e+06
1.34812e+06
1.26989e+06
1.83484e+06
1.40527e+06
1.55338e+06
1.62562e+06
1.05688e+06
1.11392e+06
786611
661417
1.03055e+06
1.17478e+06
881079
979816
703076
1.02985e+06
853978
1.10307e+06
886386
924995
619131
640120
724631
480718
799942
567746
480848
1.04021e+06
753515
863053
1.11909e+06
894706
953544
918495
584300
257272
437507
939661
298032
424274
253683
892847
828182
940843
832377
846024
894967
764849
253246
1.10118e+06
258541
853254
852818
856286
1.01487e+06
1.11805e+06
1.35182e+06
1.46099e+06
655984
1.27718e+06
544368
467951
486134
578797
501120
582833
552058
1.1892e+06
1.12551e+06
960345
855962
1.13024e+06
962463
1.17856e+06
1.20926e+06
854771
1.14673e+06
960150
1.13777e+06
963169
1.23475e+06
1.30747e+06
1.15976e+06
962758
880738
1.26252e+06
1.19174e+06
983394
1.37396e+06
933480
1.33792e+06
1.0801e+06
1.25142e+06
1.0255e+06
1.45485e+06
1.52956e+06
1.42705e+06
1.14364e+06
1.23524e+06
1.51647e+06
1.48031e+06
1.22594e+06
1.47158e+06
1.33314e+06
1.35696e+06
1.2626e+06
1.47786e+06
1.29223e+06
1.272e+06
622958
1.06818e+06
1.13689e+06
1.0806e+06
945830
746612
895912
411442
794590
368159
477371
496458
620268
341098
1.15024e+06
1.26983e+06
1.60384e+06
1.291e+06
1.37805e+06
992107
1.49132e+06
839126
984478
507407
806048
700304
1.20412e+06
601343
436378
391712
472089
486253
400045
429059
510563
428956
559639
486099
481109
430811
453226
505058
682903
757097
744894
1.08373e+06
641308
701668
677462
406333
255836
487615
253900
583324
253260
266410
253246
699387
253528
253245
253245
325898
478293
369807
492499
328086
306546
340034
293436
404380
565566
619720
843727
347279
271075
694155
986707
508091
726968
369896
302082
259313
256476
637571
258106
497128
256569
583671
376186
637827
456155
603755
353980
620196
691652
305782
543991
591265
792002
356417
370030
491244
271199
254152
298264
265024
254823
253288
253791
253374
253250
253838
253283
253254
253247
267271
256260
253441
259628
253302
324584
258619
359640
332847
263626
368322
316935
332236
345791
279724
407419
269518
381644
346082
324126
305471
405825
329736
304197
406470
327054
318586
333557
300154
406364
302809
407079
310161
390970
290845
445383
457651
363416
309793
504971
434730
532476
400329
686083
342319
590018
507982
287000
294647
400363
352376
299169
287192
385164
765655
498073
767701
714193
626094
623035
792636
840180
648211
699290
556768
707237
728379
815825
487572
594597
374857
296125
672695
466621
289947
356493
269024
304674
257428
366330
265493
291157
553346
637203
475656
737347
518109
780257
473292
309635
298641
261248
256252
324854
284024
258699
452315
486162
414888
463695
491076
548752
541768
559276
526479
526510
607948
529848
611339
598222
688475
389585
512723
610134
308649
340090
468430
266229
254601
257742
257138
253701
253636
254539
654984
453953
671418
375439
378897
295078
517201
253250
253246
253246
253251
253247
253245
253245
258179
253294
253292
253247
430880
516979
513253
483402
499296
560484
579059
565589
688809
470488
655111
513706
606740
567840
392638
305903
257734
439068
269367
274429
258312
254872
253665
253303
254533
253404
253368
253285
282304
254624
254469
266862
266212
257280
253631
281482
253274
253268
255006
271397
253265
253259
259231
253253
253250
253377
253323
253249
253248
253252
253246
253246
253247
253248
253245
253245
253246
253245
253245
253245
253245
253245
253245
253245
253245
253245
253245
253250
350610
272151
724420
253420
422380
911492
266833
254706
300003
253663
673811
1.07246e+06
626045
715374
819034
773017
267040
253346
253245
253263
254989
253261
618820
618915
254314
826014
552239
579275
253642
387478
451603
253419
668498
271159
295779
253264
254271
253494
253249
255763
253252
253256
253247
253249
253247
253245
253253
253246
253246
253245
253246
254590
253369
253248
253249
253250
253246
253247
253246
253245
253245
253245
253245
253245
253245
253245
253245
253245
253245
253245
253245
253245
253245
253245
253245
253245
253257
253249
253246
253245
253246
253245
253245
253245
253245
253245
758272
668929
673091
810289
762100
827007
1.1006e+06
1.03996e+06
839085
253245
253245
253245
253245
253245
253245
253245
253245
253245
253245
253245
253245
253245
253245
253245
253245
603602
253655
253577
317509
1.03138e+06
254693
799754
262124
253256
253249
253245
585819
602053
744037
867621
1.18151e+06
1.65601e+06
675625
269924
254250
253252
568537
932545
403218
469871
621631
504427
661521
771644
650300
821704
991968
672192
828716
1.26813e+06
949935
669243
673888
651436
698315
650242
698492
671744
643746
630437
626248
648543
710971
747677
826818
784510
746825
714067
780755
681443
748452
686172
743862
1.045e+06
947503
891286
1.12497e+06
886825
1.12298e+06
1.04936e+06
992435
846791
841801
997314
624568
665993
946343
2.04863e+06
766493
624645
650693
643641
655036
826192
795564
900554
1.71294e+06
1.47638e+06
1.61289e+06
597782
609550
606966
630416
616290
612991
591907
661426
658649
648632
693733
638278
688210
669918
1.02368e+06
940859
886977
1.11894e+06
875278
1.10914e+06
1.04156e+06
2.16313e+06
1.94315e+06
2.09589e+06
2.11712e+06
1.98174e+06
1.96499e+06
2.3945e+06
1.1809e+06
1.02208e+06
573390
595951
562034
629448
602328
568530
565884
582248
591086
599852
573712
553666
555986
563568
546456
608361
638533
640834
636154
626338
622881
623348
584555
635365
627388
589967
612473
577311
599911
592676
621261
609603
606101
564837
585186
573628
579003
642348
645922
605375
678625
616898
676025
629072
635361
630017
617085
648006
610668
597596
591794
616563
704696
744642
822372
782039
740602
712371
773512
685877
723622
805657
729903
727731
669377
751246
671870
745870
684747
731324
645240
701801
650306
700150
978623
915924
815353
1.04519e+06
844688
1.0716e+06
935689
963486
842499
823717
989704
906759
777300
783176
887605
1.24352e+06
1.36366e+06
1.67988e+06
1.6223e+06
1.34845e+06
1.27167e+06
1.57553e+06
1.17481e+06
1.24622e+06
1.58343e+06
1.34484e+06
1.29408e+06
1.10748e+06
1.46122e+06
1.17438e+06
1.55801e+06
1.21363e+06
1.49415e+06
1.09119e+06
1.26718e+06
1.04798e+06
1.36146e+06
2.27667e+06
2.0547e+06
1.9307e+06
2.55286e+06
1.99183e+06
1.9882e+06
1.38192e+06
1.92715e+06
1.79901e+06
2.29579e+06
1.58961e+06
2.24276e+06
2.41021e+06
2.63356e+06
1.98926e+06
1.08574e+06
1.564e+06
949548
824813
1.30348e+06
968602
1.04042e+06
911341
902006
895680
940975
989305
670746
755883
805353
984594
1.26573e+06
1.66045e+06
1.73927e+06
795448
879981
921559
744951
894382
757706
766989
941057
1.06242e+06
1.49163e+06
888129
1.1666e+06
1.17883e+06
878968
898022
1.23511e+06
1.19755e+06
919830
993027
1.27333e+06
943824
1.33305e+06
1.07706e+06
1.42273e+06
1.60384e+06
804028
923202
691845
751072
930466
698102
795531
809826
753259
937264
710521
933728
702459
818428
862937
940567
724422
795437
829616
969953
752188
931588
852089
1.14125e+06
897084
1.03849e+06
807091
1.03635e+06
1.30464e+06
1.26139e+06
1.02514e+06
1.21149e+06
1.16509e+06
1.37635e+06
1.19338e+06
1.42689e+06
1.38325e+06
1.42816e+06
1.57327e+06
1.45288e+06
1.39906e+06
1.46573e+06
253606
253245
253246
253245
253245
255067
253358
253463
253268
253247
253246
253245
253245
253245
253245
253245
253245
253245
527552
654365
216125
617544
283428
253342
253258
253245
253245
567152
667366
261596
746991
273064
253268
253245
253245
253245
937790
932090
406581
840739
256985
253247
253245
253245
253245
1.95019e+06
2.10653e+06
1.52237e+06
263504
253271
253245
253245
253245
253245
735125
988427
361573
970567
253246
253520
253245
253245
253716
1.06524e+06
253247
258402
253245
253245
827900
690256
824897
776582
650131
253958
542272
657389
259884
638074
660457
658890
344111
232485
371707
340155
630040
278807
657142
336127
613261
267557
254072
257201
253502
276927
253733
255394
253293
819469
908052
662520
268048
631736
805658
290738
814689
433178
307280
561734
330886
534538
262681
844138
297025
313245
254473
253579
254627
253267
259968
253294
253408
253253
1.13188e+06
1.39056e+06
1.53163e+06
926221
642402
1.45342e+06
1.68452e+06
960216
1.71303e+06
1.73244e+06
860104
691580
1.20021e+06
282535
258492
253692
455826
255113
253434
253252
253263
253301
253248
253385
253245
253249
253246
1.24755e+06
1.51938e+06
770618
822676
2.02608e+06
1.59073e+06
1.43397e+06
1.59068e+06
1.63985e+06
2.12453e+06
1.79152e+06
1.79967e+06
956038
1.19047e+06
255690
253608
253249
253248
253258
253255
253247
253246
253245
253246
253245
253261
253303
253245
253245
923638
253997
255578
254743
320131
253247
253275
792174
256984
263440
380006
582302
253305
257345
641997
725034
739445
611282
1.2053e+06
255387
1.01137e+06
253246
253502
253245
496078
509057
381838
691139
403551
677307
408045
710899
433808
548302
714267
456703
960566
504094
869634
547915
1.03921e+06
652837
986439
1.5442e+06
883286
1.44143e+06
972770
1.69703e+06
1.55942e+06
1.31383e+06
1.30705e+06
1.79534e+06
940045
1.65055e+06
258134
824989
265647
409194
253249
254107
621119
654272
609290
656801
656625
616348
613949
223154
179545
183992
136530
100005
102356
132808
257764
259047
285319
281992
258673
283350
258094
658670
669804
635766
690732
642179
692954
650103
215993
280777
231626
170582
120233
160054
128434
254802
256346
270104
268628
255570
255446
265225
1.02421e+06
939030
846634
1.10661e+06
867871
1.11448e+06
997419
508217
346425
435941
307804
190129
242960
244871
253316
253637
255338
254935
253453
253397
254040
2.70758e+06
2.14631e+06
2.12428e+06
2.24247e+06
2.17045e+06
2.30325e+06
2.66409e+06
1.43784e+06
1.18253e+06
1.3706e+06
1.11894e+06
754421
967931
1.05904e+06
253245
253247
253254
253249
253246
253245
253246
267708
858552
772132
923490
1.49472e+06
1.21432e+06
665597
874090
1.56352e+06
1.39389e+06
1.23237e+06
913458
821643
1.09666e+06
608594
948049
561298
1.12634e+06
600811
1.13075e+06
544649
253245
253245
253249
253409
253245
253248
253245
253828
253246
253248
253250
253272
253245
253246
599366
653239
597038
652897
656496
604453
593346
256563
406525
411691
466852
188499
190077
462802
573090
567581
571757
567223
606390
655802
662290
621345
659451
612268
615332
420159
263201
431815
469318
193779
191640
472568
579746
580178
575238
590338
623094
648786
612947
642485
651991
619355
616558
594453
575701
581666
587217
602477
593210
602052
594445
628007
658991
661539
631113
658729
623364
635930
631067
648895
663008
640395
656206
628252
641383
602626
596885
588879
611021
612017
623283
612397
621273
355744
279325
289635
204805
274089
282919
195920
191519
245976
202777
142372
112890
106474
150816
301525
398101
320624
213361
319742
297113
228364
479491
348536
379849
339130
352561
376903
476982
485124
338251
376194
362676
362270
371914
492148
253903
254179
253852
254006
254111
253801
253957
257174
279940
257267
275237
258071
279885
256403
253803
253885
253841
253582
253993
253703
253675
642472
670648
628542
682503
624633
694441
642919
444297
275512
463731
489272
196267
477386
198921
619290
583652
601107
592930
679553
727221
826921
732059
744628
676782
739556
498718
555291
319973
510791
220138
206097
545719
652521
664885
619379
703575
626577
600022
613215
609491
697707
737534
819486
748277
740527
685968
764480
660613
688840
637925
719755
343239
484341
372783
262337
349394
243755
392368
254283
346022
289907
184764
158380
139920
206571
681732
413572
473312
287836
565792
458926
327305
494995
391406
348053
322664
497453
406332
329412
478312
311080
425459
288716
419507
308753
441130
253432
253675
253465
253448
253544
253527
253371
254174
263986
254055
257643
254663
260994
253727
253349
253352
253329
253272
253409
253309
253294
973139
947748
822683
1.10252e+06
832432
1.11899e+06
965049
772222
369285
451346
703361
246585
603157
292334
909797
740716
783126
867703
1.18826e+06
1.35013e+06
1.65387e+06
1.53034e+06
1.35098e+06
1.18449e+06
1.52121e+06
1.23261e+06
586536
804804
867953
521046
373196
1.13122e+06
1.11038e+06
1.41927e+06
1.07681e+06
1.42685e+06
964289
776194
815059
917757
1.26318e+06
1.35916e+06
1.72772e+06
1.59254e+06
1.36705e+06
1.22877e+06
1.63557e+06
1.28444e+06
1.37335e+06
1.73518e+06
1.65055e+06
1.37359e+06
1.28654e+06
1.65384e+06
1.19694e+06
1.50861e+06
1.14275e+06
1.5679e+06
1.22552e+06
1.58932e+06
1.22894e+06
1.5929e+06
1.06818e+06
569759
744110
532466
726097
397368
914537
579290
810498
1.02338e+06
432896
496266
338502
668104
1.14797e+06
1.03139e+06
1.29122e+06
761525
977230
1.03329e+06
1.00964e+06
323006
415518
272097
269489
385438
384325
261244
278205
259949
278851
253850
329401
255784
259364
253251
253280
253255
253251
253265
253257
253248
253264
253815
253255
253297
253290
253477
253249
253247
253247
253246
253245
253248
253246
253245
2.38513e+06
1.95239e+06
2.03628e+06
2.1146e+06
2.00145e+06
2.00608e+06
2.50614e+06
1.9004e+06
1.53116e+06
1.13384e+06
2.04007e+06
769897
1.54465e+06
1.11279e+06
2.58865e+06
1.97365e+06
1.91704e+06
2.74374e+06
2.39553e+06
1.99876e+06
1.42924e+06
2.30035e+06
1.85082e+06
2.56058e+06
2.11557e+06
1.83871e+06
1.99513e+06
1.78054e+06
2.30277e+06
1.49836e+06
1.41152e+06
2.27329e+06
3.02614e+06
3.31494e+06
3.22886e+06
3.09788e+06
2.67341e+06
2.14982e+06
2.16368e+06
2.23933e+06
2.1806e+06
2.30006e+06
2.57851e+06
2.92942e+06
2.0871e+06
2.1414e+06
2.89747e+06
2.88767e+06
2.12759e+06
2.15208e+06
2.76683e+06
2.79879e+06
2.1518e+06
1.89732e+06
2.51883e+06
2.22707e+06
2.75688e+06
2.56384e+06
2.7263e+06
2.14295e+06
1.90031e+06
2.25205e+06
2.22516e+06
2.56137e+06
2.46702e+06
3.38618e+06
3.52085e+06
3.41008e+06
3.44125e+06
3.24808e+06
2.86167e+06
2.99069e+06
3.21429e+06
391178
803843
1.31178e+06
822891
697070
1.0744e+06
379662
1.53847e+06
555875
1.07889e+06
940370
1.06824e+06
1.20529e+06
575731
283099
460401
270382
459428
256748
272960
293252
253428
258220
253355
253305
254375
254065
253262
253272
253255
253270
253247
253374
253248
253250
253245
253245
253245
253245
253245
253245
253245
253245
253247
253271
253248
253247
253245
253250
253246
253249
253287
253259
253248
253246
253255
361553
854059
492786
1.03151e+06
409856
855500
456437
261516
280940
254498
254505
268668
270235
253841
646726
878006
605559
985492
612946
1.07219e+06
659463
295479
296167
258775
255395
313217
281344
256633
313301
348434
261073
260255
331172
330945
258377
256904
253660
253245
254955
253247
253245
253382
253245
253245
253246
253245
253245
715709
253946
253245
259865
253245
255655
255588
254968
253951
253576
344707
254209
259816
324835
253248
259011
253249
258051
253249
253798
254715
253246
253264
253315
253329
253246
253247
264990
598550
257976
269581
271295
256319
256629
270232
256078
270801
258794
263306
254523
254377
261631
260421
254029
253469
254521
253317
253292
253906
253730
253268
253247
253258
253246
253246
253251
253250
253245
611394
663195
585230
900624
551916
829887
650391
253693
253249
253248
253279
253270
253246
253246
267472
256175
266290
255094
268592
255646
264683
256473
253907
255940
253435
257957
253663
254845
275229
352303
271267
325303
279329
359445
265286
255250
263512
290893
294187
258706
257820
268182
253314
253259
253289
253247
253394
253252
253264
253861
269365
253714
254609
254817
257960
253425
253262
253391
253670
253737
253300
253294
253381
253247
253250
253313
253262
253251
253246
253262
253252
253422
253301
253267
253265
253292
253259
332230
357095
263980
261471
345925
341263
260800
2.39732e+06
1.39022e+06
1.54e+06
2.2489e+06
1.37937e+06
1.60074e+06
1.76113e+06
2.53481e+06
1.48495e+06
1.63855e+06
2.45005e+06
1.58608e+06
1.81558e+06
1.87734e+06
1.25122e+06
1.90316e+06
1.13433e+06
1.32699e+06
2.23044e+06
1.43606e+06
1.63593e+06
631502
432453
448122
568433
378639
389523
559374
253310
265728
263066
257027
253253
255189
253250
253246
253246
253253
253874
253250
253560
253248
797973
585280
672429
682661
503616
648394
571806
255240
253250
257734
254459
253249
253376
253248
253249
253245
253247
253435
253247
253263
253246
704463
983583
1.02654e+06
533325
813145
656510
831967
253270
253245
253258
253290
253246
253247
253245
253245
253245
253245
253247
253245
253246
253245
253976
259020
335437
253957
316513
257867
262836
253245
253245
253246
253246
253245
253245
253245
253245
253245
253245
253245
253245
253245
253245
723986
262467
314845
290400
913631
384356
617564
253676
253264
253397
253276
253499
253262
253255
253253
330751
254434
918244
307323
265695
253270
551670
256242
397539
1.04013e+06
358974
279273
253297
253245
253259
253247
258689
253249
253246
253245
253283
253714
253247
264099
253253
253248
253246
474934
697809
520535
587147
450633
412944
615248
868062
774507
883591
711519
737495
650258
710974
293335
938554
631489
368900
518112
743588
279550
253431
254539
253337
253356
253508
254748
253264
253304
253623
258090
256013
254095
264145
253449
706717
701360
747596
982452
572405
1.0322e+06
490781
318016
854959
967836
1.22278e+06
335428
1.33852e+06
263573
253291
934171
430877
978832
253850
300060
253259
253251
253246
258869
253641
253246
253247
253245
253248
255349
253398
253409
253249
253248
253246
253245
253245
253247
253245
253245
253245
253245
1.26975e+06
1.48142e+06
1.47538e+06
1.86009e+06
1.15885e+06
1.38678e+06
1.09964e+06
253247
253274
253307
253249
253260
253246
253245
253332
253256
253331
253251
253285
253248
253250
253290
253317
254136
253897
253295
253653
253275
253250
253249
253529
254275
253261
253948
253256
253345
253246
253258
253507
253252
253301
253248
253245
253245
253247
253253
253246
253248
253245
253245
253245
253245
253246
253245
253245
253245
253300
253332
254295
254232
253328
253909
253298
253297
253309
253249
253984
253284
253516
253309
253733
253285
253267
253245
887538
883816
891313
675530
579536
1.1171e+06
866507
767185
746617
903525
787111
742454
916617
922282
981380
746484
896348
1.1611e+06
937846
949374
732247
1.39406e+06
1.07293e+06
657854
1.38336e+06
1.64566e+06
713926
784817
665911
856245
1.73849e+06
396485
891764
741832
675026
408514
805408
833417
734537
758672
1.09498e+06
1.3061e+06
847481
970467
1.53528e+06
1.43702e+06
1.1753e+06
1.51458e+06
764220
435874
1.12861e+06
735935
846773
836331
850078
982391
909038
917325
969358
777530
864964
889092
822253
747814
756226
804179
886125
861671
865896
989307
912662
918034
994649
909428
940230
801675
839783
770117
762333
863823
909891
879010
863214
1.04706e+06
915200
1.00444e+06
950105
1.05288e+06
828730
880806
951115
788005
894860
830580
929147
879668
899126
1.12606e+06
1.09042e+06
1.01976e+06
1.18944e+06
1.29252e+06
965244
1.07877e+06
1.03776e+06
1.00615e+06
904104
1.14547e+06
750604
826473
814343
1.14192e+06
1.11602e+06
1.19093e+06
1.09637e+06
1.43032e+06
1.20696e+06
1.33345e+06
1.30446e+06
1.12626e+06
1.24543e+06
1.26271e+06
673937
691668
706020
1.04851e+06
906734
1.02596e+06
938428
1.17945e+06
1.44483e+06
1.48783e+06
1.29757e+06
1.56663e+06
1.43068e+06
1.17798e+06
661502
695330
691351
800305
807489
857776
747883
552553
1.3884e+06
1.11417e+06
637860
1.54065e+06
929975
1.31109e+06
370739
756896
580160
434864
636500
909623
382448
818415
960519
982404
1.00483e+06
1.04141e+06
855510
1.18153e+06
889912
947351
1.44504e+06
1.03348e+06
1.14152e+06
1.54655e+06
1.25826e+06
1.37222e+06
1.15606e+06
1.44153e+06
1.42043e+06
496171
1.24712e+06
921750
463672
673120
632838
577085
649100
690494
869073
853057
758746
748201
857475
762621
861885
872388
746956
850911
763337
856559
763880
874292
925535
855684
772488
776411
885906
888977
806870
996542
838610
1.05312e+06
968788
955837
871712
1.08718e+06
1.27217e+06
1.16326e+06
1.09582e+06
1.24189e+06
1.18323e+06
1.26792e+06
1.25544e+06
1.32371e+06
1.43815e+06
1.36085e+06
1.61941e+06
1.35128e+06
1.44288e+06
1.29145e+06
892512
1.23459e+06
1.65605e+06
1.63739e+06
1.13379e+06
1.00234e+06
1.50014e+06
696141
1.28004e+06
670374
807480
791679
1.13327e+06
270852
545717
253245
253245
253245
253245
253245
253245
253245
253245
253245
253245
253245
253245
253245
253245
253245
253245
253245
253245
253245
253245
253245
253245
253247
253245
253245
253246
253245
253245
253245
253245
253245
253245
253245
253245
253245
253245
253247
253245
253245
253247
253245
253245
253245
253245
253245
253245
253245
253245
253245
253245
253245
253245
253245
253245
253245
253245
253245
253245
253245
253245
253245
253245
253245
253245
253245
253245
253245
253245
253245
253245
253245
253245
253245
253245
253245
253245
253245
253245
253245
253245
253245
253245
253245
253245
253245
253245
253245
253245
253245
253245
253245
253245
253245
253245
253245
253245
253245
253245
253245
253245
253245
253245
253245
253245
253245
296638
535211
622078
638978
643722
583436
497247
720521
777964
731212
1.07601e+06
897066
373382
414294
582187
373041
523066
557314
399016
659667
662609
682502
733816
645870
698689
678151
628416
612579
688631
829104
1.12749e+06
256561
605828
1.10479e+06
921291
1.18618e+06
331992
616587
581297
551773
573513
595825
593107
570006
605641
654701
614700
743732
621319
614691
484625
701580
632350
622819
689145
722971
599282
640056
708746
627392
974808
746748
772119
728048
862935
852232
260149
636761
748640
1.07589e+06
879076
901556
980260
1.00016e+06
1.51813e+06
1.37568e+06
807150
977093
888689
1.15245e+06
1.16116e+06
1.18043e+06
937494
1.22781e+06
1.2823e+06
1.35762e+06
1.04256e+06
1.18225e+06
1.44791e+06
1.12228e+06
1.52992e+06
1.18624e+06
1.1192e+06
1.5027e+06
1.17852e+06
1.36063e+06
1.61887e+06
1.29251e+06
1.66e+06
867066
1.1845e+06
1.00291e+06
1.35955e+06
1.40141e+06
1.25115e+06
870174
867468
879130
830931
838632
852266
841241
900110
898995
982916
930974
950249
864561
891815
887909
893616
923144
845520
852273
875735
861707
918099
898771
891415
865139
870905
906513
909588
961397
1.04908e+06
963394
1.02699e+06
1.0071e+06
1.10907e+06
1.06623e+06
392529
288968
281237
800605
565360
616713
414350
692599
663663
672529
253245
253245
253245
253245
1.07742e+06
886826
900237
1.05848e+06
1.10085e+06
941524
915746
1.14093e+06
1.29974e+06
978038
1.20187e+06
1.03029e+06
1.43389e+06
1.21413e+06
1.10992e+06
1.59428e+06
1.63026e+06
1.33706e+06
1.68487e+06
1.43706e+06
1.39222e+06
1.31167e+06
1.43533e+06
986586
557259
1.03922e+06
663186
773474
546351
665432
667774
571650
253245
253245
253245
253245
253245
253245
253245
253245
253245
253245
253245
253245
253245
253245
253245
253245
253245
754272
735656
844352
253246
253245
253245
253245
253245
253245
253245
253245
253245
253245
253245
253245
253245
253245
253245
253245
900444
917974
910805
875311
908324
877607
900147
907958
898783
907941
905578
883019
895233
913515
1.01819e+06
990838
1.2073e+06
1.13244e+06
1.20492e+06
1.28264e+06
1.04268e+06
975978
1.0405e+06
962019
968571
937697
965697
1.04115e+06
744853
751394
678015
658087
665378
755475
748759
908224
916064
898138
925232
927886
931654
936288
902320
895969
907630
923048
909248
931473
918889
960708
1.18929e+06
1.11968e+06
939690
974522
1.11475e+06
1.17669e+06
683087
759474
689576
673269
684659
768167
759746
768659
773353
695764
802494
804247
710475
713878
891831
897211
898313
899836
917629
914853
941126
821697
769904
701913
733246
701876
737172
783852
928372
933612
932016
970822
1.04287e+06
1.00248e+06
1.0755e+06
874976
894372
1.00329e+06
792691
889437
799327
895946
698979
803867
779130
703016
800756
713849
714253
828820
735292
844167
846129
736573
725496
727739
840902
1.26105e+06
1.21688e+06
902068
1.26193e+06
1.32236e+06
949501
788711
713120
804810
832410
746422
720041
742230
887303
894714
996929
897444
803023
800318
895930
939056
814474
892214
1.10694e+06
1.15895e+06
1.1275e+06
1.15137e+06
1.12083e+06
1.13884e+06
1.28096e+06
1.20919e+06
1.02658e+06
1.02936e+06
1.20715e+06
818069
721102
842295
733745
835285
728786
725273
1.20213e+06
874256
1.2441e+06
753670
847720
1.21851e+06
1.16916e+06
821945
937185
1.31761e+06
538926
1.09139e+06
1.16442e+06
846508
1.21906e+06
1.49083e+06
1.10839e+06
1.4546e+06
831607
1.38753e+06
626051
1.17512e+06
1.35673e+06
968665
1.1044e+06
1.37056e+06
982462
1.15892e+06
1.20104e+06
1.12635e+06
1.46531e+06
1.03149e+06
1.40297e+06
1.00088e+06
1.24901e+06
1.44291e+06
1.5645e+06
1.07206e+06
1.30017e+06
1.3239e+06
1.70234e+06
1.12687e+06
1.61308e+06
1.40909e+06
1.77599e+06
1.33902e+06
1.82163e+06
1.21831e+06
1.7685e+06
1.50625e+06
1.52665e+06
1.44864e+06
1.31073e+06
1.74405e+06
1.13438e+06
1.45376e+06
1.10421e+06
1.08242e+06
652250
1.09455e+06
830139
1.33061e+06
793322
557259
530192
837330
482721
644560
433775
657988
349003
294028
503528
391932
359462
538074
370298
567415
501277
1.0095e+06
420461
254216
253245
253245
253245
253245
547593
554268
1.02915e+06
285190
254052
821480
554644
829780
858556
595178
774633
614339
648660
259419
254576
255995
253373
253265
253431
254086
722208
846615
754616
851571
899523
648186
895970
383393
382739
261590
452344
253291
261239
253251
253742
253254
253248
253249
253282
253252
253249
253245
253245
253245
253245
253245
253250
253245
253245
253245
253245
253245
253245
253245
253245
253245
253245
253245
253600
253245
253245
253245
253245
253245
253245
253245
253245
253245
253245
253245
253245
253245
253245
253245
253245
253245
253245
253245
253245
253245
253245
253245
253245
253245
253245
253245
253245
253245
253245
253245
253245
253245
253245
253245
253245
253245
253245
253245
253245
253245
253245
253245
253245
253245
253245
253245
253245
253245
253245
253245
253245
253245
253245
253245
253245
253245
253245
253245
253245
253245
253245
253245
253245
253245
253268
253245
253245
253245
253245
253245
253245
253245
253245
253246
253245
253245
263596
253245
253245
273598
253245
253245
253245
253245
253245
253245
253245
253245
253245
253245
253245
253245
253245
253245
253523
253245
253245
253245
253245
253245
253245
253245
253245
253245
253245
253245
253245
253245
253245
253245
253245
253245
253245
253245
253245
253245
253245
253245
253245
253245
253245
253245
253245
253245
253245
253245
253245
253245
253245
253245
253245
253245
253245
253245
253245
253245
253245
253245
253245
568631
678478
682026
605427
608570
767588
768619
1.12623e+06
1.128e+06
1.26554e+06
1.21615e+06
1.21781e+06
1.03443e+06
1.03284e+06
794480
672594
722992
1.18013e+06
1.11051e+06
1.12712e+06
1.0172e+06
769913
735584
1.09089e+06
1.07126e+06
899931
889480
718843
845542
750468
724711
839158
870067
732839
761010
1.00826e+06
902902
807188
935648
1.03579e+06
820611
918478
579833
685616
690951
612132
767411
615475
764448
1.51813e+06
1.52603e+06
1.41918e+06
1.42921e+06
1.7003e+06
1.44394e+06
1.43374e+06
1.26046e+06
1.22478e+06
1.0419e+06
1.15275e+06
1.2723e+06
1.05895e+06
1.23887e+06
728220
1.05571e+06
891890
698396
709603
853968
1.01532e+06
1.41838e+06
1.40677e+06
1.7233e+06
1.45309e+06
1.45259e+06
1.51458e+06
1.72426e+06
601786
701920
726862
619845
768084
787706
630484
683480
663118
663378
804072
759569
949270
864895
665615
772372
837120
822496
863466
651510
683034
257830
646992
253245
253245
253245
253245
253245
253245
253245
253245
253245
253245
253245
253245
253245
253245
253245
253245
253245
253245
253245
253245
253245
253245
253245
253245
253245
253245
253245
253245
253245
253245
253245
253245
1.09287e+06
1.11798e+06
749995
746928
1.22449e+06
1.26528e+06
1.05013e+06
1.09615e+06
1.27743e+06
1.05087e+06
1.21001e+06
1.25107e+06
1.10636e+06
1.33084e+06
1.05064e+06
1.30026e+06
1.05191e+06
1.28752e+06
825140
933504
960762
627671
1.15312e+06
921406
1.17923e+06
826245
931357
695998
843554
818035
884997
615879
850513
1.18952e+06
764626
1.08519e+06
536929
864057
675719
871400
891762
721107
723714
803752
1.00646e+06
435590
651684
276715
518333
949266
682321
807744
307508
779737
334122
538720
347485
260707
264990
1.48543e+06
1.40154e+06
1.19981e+06
1.15487e+06
1.40884e+06
1.19466e+06
1.49541e+06
1.30528e+06
971567
1.11592e+06
905619
943184
1.10248e+06
1.33211e+06
1.47967e+06
1.16606e+06
1.46652e+06
1.18258e+06
1.43319e+06
1.19421e+06
1.46024e+06
1.26284e+06
874936
816161
1.03743e+06
892417
1.08e+06
1.1835e+06
1.28181e+06
1.51368e+06
1.14953e+06
1.18861e+06
1.40524e+06
1.53069e+06
1.07856e+06