/*--------------------------------*- C++ -*----------------------------------*\
  =========                 |
  \\      /  F ield         | OpenFOAM: The Open Source CFD Toolbox
   \\    /   O peration     | Website:  https://openfoam.org
    \\  /    A nd           | Version:  9
     \\/     M anipulation  |
\*---------------------------------------------------------------------------*/
FoamFile
{
    format      ascii;
    class       volScalarField;
    location    "0.00165";
    object      overpressure;
}
// * * * * * * * * * * * * * * * * * * * * * * * * * * * * * * * * * * * * * //

dimensions      [1 -1 -2 0 0 0 0];

internalField   nonuniform List<scalar> 
13678
(
63774.2
334.164
35715.2
267938
24.2502
513.225
0.867653
7.66779
161490
255364
327037
135681
59304.5
50013.3
13977.6
13700.8
169764
63745
3355.83
15470.9
3354.14
682.969
8725.92
53205.7
137309
1783.71
10287.7
2717.02
435.608
10396
144.799
3056.96
121.33
2531.83
682.206
32.4111
341657
288296
132125
337789
228814
200916
11285
202287
303931
333882
141388
182406
99936.3
190350
220202
80645.7
118701
155374
304432
190956
238734
165512
212306
361945
186542
274598
172427
209301
183911
371569
369879
39366
22366.7
50008.9
48827.3
76931.7
87839.2
60546.7
100316
212527
239242
156120
190010
290021
317033
93934.5
74092.6
66799.2
120053
96544
105093
126838
63806.5
53129
36212.8
101963
94033.3
119599
75553
153150
124704
120692
145149
176527
180125
150054
183642
179061
185243
219491
209200
215072
227773
174270
257703
395139
303318
204700
339646
576239
92376.4
162108
117692
129362
154469
174663
104862
191567
179981
185703
218604
212096
227148
220815
354571
138922
237525
218334
129857
321325
378864
107974
97540.7
84390.7
116322
147949
130342
136041
226467
414298
407155
295161
315604
636857
379006
159365
139202
130698
185474
167052
193251
157268
73621.2
98030.7
122717
116372
140102
163043
141929
167723
149006
130265
139730
192113
178325
157127
144336
170805
208509
140456
162454
190264
120885
199755
198676
190135
222775
254297
232604
239158
355967
199186
335743
146097
251828
180767
345214
314611
187635
215296
421050
319081
467009
348937
113312
148475
131740
162939
147079
166730
180989
171437
230900
201231
206894
211011
239537
177909
213653
196146
200708
255098
238976
232665
248463
151834
204634
208028
181522
166939
191673
167806
277567
258182
240772
248615
318573
287525
269100
159794
151447
164890
182802
196214
204748
192042
125970
173811
147372
187933
199339
214455
170051
229000
163380
183119
205874
236554
251629
188584
150449
164653
186306
180002
204289
197389
219099
209328
249385
222482
273697
244916
260448
297771
256629
293718
248731
319584
268139
259710
308743
214589
223121
199278
266538
225547
251054
187009
167739
176268
152723
188970
226464
213990
202144
127572
150620
163466
166215
153267
196049
192982
258457
337192
317364
302377
270496
300204
283521
195359
182441
170455
215902
220691
230608
204264
227424
198229
184829
205653
261882
250041
218311
133436
177229
163608
170579
157366
201160
209165
230652
262148
243713
303234
276469
257775
215448
230828
253020
276314
248266
269029
303886
296408
202083
219586
232469
229590
243133
274146
261164
522092
334958
230036
512671
374383
720295
661140
341442
304526
283566
274444
363369
294861
330497
155062
186000
171844
182388
197415
220288
235840
274247
219238
230539
240675
297056
290241
231316
229473
287958
268968
304375
275776
256722
241753
183082
223421
202080
242470
217942
239639
265439
202480
244376
231915
254599
242256
274138
286852
211622
222953
232261
243300
250420
278163
276045
215749
286831
240350
280740
235396
260549
311957
274229
260030
238773
281412
362811
310196
326862
299524
252469
265288
306678
330489
340359
295316
340930
326183
286106
308032
439966
372500
356255
166414
233571
214022
196095
212670
258242
289347
254804
329299
275172
355206
275468
315886
248769
221655
179264
182288
238486
303647
307732
234875
280875
311527
275842
385500
339307
333729
386649
273750
331431
286771
317284
349757
360969
305554
237273
330793
227208
280230
386585
380143
293338
194595
227698
187130
245331
333013
317133
256730
324202
217745
221058
272522
374977
268823
376159
332865
414052
323426
475098
370497
364824
482497
301643
277773
265222
309008
360604
346676
322123
299887
335745
287040
320394
384351
368998
333470
249992
259956
271520
282187
296757
305579
334524
308066
287416
259208
285821
379852
342740
316662
251653
372917
271605
393409
312245
337260
397815
204637
272918
218118
354942
273379
296967
380662
252623
296021
259216
318531
394398
379849
326212
289044
382680
410067
325457
346446
390631
472129
349017
373488
383470
431904
394033
383675
338482
337458
500001
448073
461997
412463
374815
395656
315629
406789
306592
355289
429697
458120
370497
183453
310256
243006
287812
118360
101038
64737.9
93352.5
266228
170966
374279
204069
304288
124763
106858
99847.9
154840
78408.7
63171.5
76694.7
91739.3
93520.8
107865
105897
71594.4
85450
67458.7
81232.2
96494.7
111003
115777
76843.8
90869.6
83086.5
97385.6
113813
121938
129379
395325
111000
163301
159951
338097
246831
420175
91512.3
110226
108203
123977
140492
142945
121794
100798
96322
113445
127408
152609
146788
132605
173316
125634
127736
143859
192760
195385
141547
90664.1
115312
105425
132768
122328
138622
150129
136194
177208
131079
147510
207890
200053
153063
106599
132653
113686
160209
139353
147639
169720
192204
142859
150990
219058
160320
169308
234293
127397
124441
145546
142084
161200
164449
182314
133432
142534
122511
158050
197582
171207
181875
220582
173849
161099
180863
282670
255087
196181
162952
269415
184319
223521
187147
226531
160426
167010
242006
199356
276204
191887
232290
173250
255965
209752
181548
192318
325321
274991
224171
140529
181859
159929
205113
180532
205095
235978
146833
189257
170124
218417
187845
209388
247389
212413
190323
272848
316842
217000
246630
352611
206846
329892
349213
272434
300012
227177
244589
344677
281358
209463
213712
183670
238684
288776
403894
385523
286969
349742
243717
286963
385530
361011
309369
255772
294119
403089
353681
389219
399879
298800
389485
366319
385666
396622
395173
303538
262681
236598
329635
420717
369317
404628
295081
366738
320885
385318
343832
379098
430501
344292
374409
403190
401070
402969
341000
399034
554498
493655
422197
426840
601642
554490
510470
355989
411297
445361
423315
405371
394242
370471
320423
423843
353883
413168
356973
397835
474904
352170
394866
407641
366809
404749
397327
365006
353025
390489
396761
394589
404030
390867
342047
421198
422540
447130
489636
493747
486133
422595
389773
409078
381260
397938
307384
378470
406446
441941
426358
370023
446657
660046
520403
553866
442200
457955
396863
448472
625735
537915
508990
515946
525233
420488
478691
725788
606573
602651
120563
109027
187521
112270
172616
101250
57519.1
50904.8
44016.9
63626.7
45635.3
65325.8
59109.3
77794.3
76058.6
47529.5
65101.2
71852.6
67875.4
61414.9
80574.9
84833.5
87551
110212
85764.4
99377.2
121984
124228
97422.1
99338.9
76087.9
77760
96823.2
119719
94916.7
121912
95004.2
115561
90513.1
102547
133223
127790
107377
104307
84546.9
80423.2
99887.1
130700
125371
104585
118934
175552
142351
143590
144893
116742
146128
122435
155002
156210
180268
148882
150116
127795
322018
553548
404526
321250
295240
406259
449660
284692
310876
175666
203194
188150
213254
210415
221735
225276
259967
247290
343740
486980
751114
506447
309868
216303
308054
181491
428389
278342
341393
389621
336018
417955
189830
237751
234590
221890
225159
259914
272401
636241
74469.4
632883
478626
620010
329335
412712
306591
252371
265199
299477
330463
340308
288264
295912
245635
258232
295899
324005
333284
284689
232327
252332
248600
267513
272429
288776
312627
308901
277676
265118
301574
360530
314543
346604
297998
270686
258214
297975
352637
310852
339046
201050
206798
218073
230603
250978
245599
289953
264141
364284
354981
304028
311280
357655
424141
335069
367090
417240
363956
373298
376762
325682
331444
396615
386566
397130
407647
476272
507847
124790
81210.1
155272
117779
146397
237591
218211
148813
138432
83609.6
66371
142032
104830
132942
48915.4
124737
142161
62779.7
57763.2
93599
63903.6
88808.8
97137.6
94050.8
73529.1
83779.6
72849.7
112583
102977
101712
112048
50823.2
55757.7
58254.5
71818.4
78308.1
85204.1
78722
155087
149703
119507
158972
127868
124246
154876
96733.1
124921
96136
110977
111758
140004
140060
98117.3
78585.6
74509.6
87443.3
64233.8
67624.5
94010.4
174170
176809
143449
162922
166007
133690
131597
130485
103598
122780
135221
96307.6
106294
113065
118091
124555
230319
217598
141837
326600
225489
110991
91471.1
86837.1
101414
106429
133167
126428
188924
191465
156376
210148
172882
171796
207617
128236
149427
129076
180737
158427
158399
180632
124019
152495
162955
151289
140275
112754
121935
96177.6
101462
98563.7
120125
113864
116801
136049
137777
167534
177600
162837
185970
154475
195769
118497
143871
123716
151444
166485
173306
144760
-1299.56
-11097.9
-36393.5
-48147.2
27373.1
36727.2
54202.3
31518.7
-33578.5
-36014.2
-57485.3
-12264.5
-21503.4
-21435.2
-13756.4
-11323.9
8517.72
-23306.1
-22540.2
-3741.11
9161.3
-4045.01
-30069.2
-20610.1
-25727.4
-10885.8
-19492.4
-12349.7
-4179.11
10287
33514.2
6577.96
28401.6
2112.54
8661.6
34818.1
-8230.85
-20814.5
-12125.8
10648.6
15226.2
-1916.12
4658.38
56688.6
45156.4
18835.8
57152.5
32095
18982.1
44855.7
7177.47
24575.3
760.92
9012.17
34353.4
32546.2
14274
52990.2
31448.5
33316.2
19390.1
42901.4
42622
23020.5
-14137.2
92872.5
21403
10587.6
-5728.11
60534.8
47842.3
122377
50606.3
95916
36911
14943.1
33381.8
81715.6
114616
157996
12565.7
84604.8
81125.7
123753
188748
255052
172511
101476
145122
-11296.7
6891.75
3343.52
9052.3
12217.8
20775.1
26159.7
71954.6
57559
135594
63364.9
108868
81195.2
136914
1431.07
25738.6
27291.9
16479.7
18925.8
33076.9
41582.4
-33403.6
-20959.6
1302.04
-16391
7070.3
24781.1
-1208.57
64253.5
27508.7
56417.2
32951.6
41082.2
46626.8
70159.7
19413.9
43090.7
25297.5
52075.2
35795.2
41406
58113.7
42912.4
54941.5
28269.7
60984.7
34231
48898.3
73904.7
64328.1
74778.5
91757.4
81577.1
101720
111585
92615.9
89154.9
107262
103322
121338
116486
130401
136317
36508.2
37309.7
33732.2
49026.3
48971
51816.3
63937.5
-5985.38
40163.7
19320.6
45228.6
40397.2
68274.6
17362.1
-27471.6
77732.2
2794.53
-66822.8
-20695.6
18632.2
92909.8
-19093
41039
72139.9
47866.5
62789.5
114168
174422
98400.3
147796
61688.4
49023.8
62909.2
64437
84501.5
83429.8
62632
-34364.7
18347.1
11059.8
32022.6
-8617.66
1058.81
35060.4
-61600.8
-50226.7
-59460
-57441.7
-43322.2
-32850.7
-49584
65173.8
60564.7
62477.8
92577.8
88155.6
90510.5
95341.6
-44194.9
-53826.2
-39321.7
-21307.5
-29065.5
-8161.21
-40027.8
32567.3
-8572.14
24448.6
10588.9
50035.1
21569.3
41218.9
55800.5
49919.8
65463.1
87321.5
72804.6
93471.6
66344.3
81170.5
71956.1
68805.8
96066.5
109397
104749
100654
-41655.7
6536.87
-21186.7
-10697.3
-8750.53
17037.5
-32238.5
16304.7
70022.9
50230.1
23060.2
75338.1
46988.9
53689.7
79868.5
129647
106792
106823
101329
130901
80265
117378
123203
153546
120097
157233
151567
125709
1621.74
-8695.7
45849.7
3673.43
16249.7
30102.2
-21431.7
31889.9
70088.5
68575.2
82918.1
43322.6
56324.2
60578.8
110364
92038.3
139909
106579
116020
134377
85153.7
125698
140350
166478
163901
134834
157773
131078
50943.9
42218.9
33002.6
48585.1
75264.9
57476.2
65806.6
71795.9
63436.5
39713.7
53512.7
86242.7
61870.6
77392
64467.6
6641.55
36820.5
53082
58624.4
85851.2
25272.7
79150.5
71866.6
55764.8
61528.6
102838
78141.5
85402.4
105261
57038.9
83331.7
72950.5
120114
95488.5
100462
68773.5
60940.5
43597.5
65697
105944
84688.6
88842.4
147842
101499
124462
133651
137388
113442
158293
87048.7
117188
103550
123454
121679
105986
137754
75327.1
84504
135495
75127.8
100057
109538
47893.6
153098
146243
176983
158908
207067
169449
189153
124475
136208
119416
145183
176822
160990
154755
53274.3
86711.3
85491.9
66189.6
68210.7
81030.9
100443
81945.4
97121.3
94209.6
69188.4
72073.3
84428.1
110348
47652.4
78195.8
79756.7
63354.4
62537.6
78181.4
94716.7
-97755.5
-53678.8
-42743.3
-91970.2
21343.1
37252.6
9927.98
18015.7
-96804.4
-87181.1
-83730.1
-65584.2
-62269.3
-44779.9
-48218.5
-78718.4
-62853
-75875
-36859.9
-52000.6
-38806.8
-30316
-27524.7
-57593.6
-29420.4
-23730.6
-16124.6
-15433.8
-25620.5
15844.9
69240.6
83137.1
-142.94
39576.4
35136.5
79.2556
-28505.7
-48843.4
-28402.5
-23878
-13963.3
-14858.3
-23289.1
5961.71
6007.15
50228.6
-985.565
27018
29907.8
-783.856
-5323.34
105.061
17813.6
17701.2
16737.7
-311.755
-5331.31
-5150.58
2271.73
19242.5
18412.7
16751.2
-14.4874
-3575.01
-14039.9
-15047.1
45884.8
90392.2
31989.4
40006.5
67609.3
26634.8
-16226.7
-894.018
-3134.43
-2976.68
247.804
13348.7
12586.5
-14535.7
3320.11
-416.793
-2280.04
1607.51
14387.3
16784.7
53227.5
38477.1
51682.4
17237.7
30402.9
18992.5
31972.6
41217.3
11914.7
27201.9
28114.6
11936.7
27758.8
42708.4
59426.5
42315.8
55720
23440.2
20731.3
33721.3
36831.9
14782.6
29189.6
12418.8
28855.6
47533.8
44406.6
31552.6
66003.7
44462.6
83383.4
81670.7
59534.1
45915.2
61032.2
74118.2
70219
86156
47935
67009.3
63335.6
51307.3
68801.5
95991.3
102965
111564
77801.6
86111.9
93246.9
91081.9
137644
142177
130129
111702
111559
120051
172811
229091
221214
213218
188904
189514
203614
146045
153045
189019
144959
127910
161228
171891
108030
114879
88810.6
102137
151638
122589
129359
82985.1
126265
99178.7
99160.2
145181
116539
126243
101446
98559.4
120120
96154
136034
116772
113854
193203
233572
262412
192140
259543
217032
230868
146822
136929
167709
171145
140074
160759
195006
144891
173406
151047
168164
140571
161801
192065
118640
134533
167049
158650
141837
158655
185242
167691
194975
160734
118059
171093
140031
146783
182841
208681
245609
198623
206951
174563
218018
247334
284786
412750
143198
134882
115240
197266
103345
128931
144959
252008
84025.1
272453
146805
181301
138114
36093
172968
102716
62485.2
77164.2
55937.6
70136.5
76689.1
90420.7
97589.9
424213
288815
195093
185809
118289
264896
169316
116361
159803
287708
434779
206805
144888
230278
64099.3
68789.6
65586.2
94040.6
91197.1
122776
101914
236003
297653
508018
278809
173305
261054
161694
80756.8
92662.1
70739.5
95233.4
84982.9
106688
117953
80839.2
125490
123265
106344
103700
130951
147765
108003
126861
100695
140210
113624
121563
149059
90008.2
123031
96996.4
137717
110778
118635
146541
163512
106599
127513
156880
179979
193364
140955
100330
153630
121241
153660
174391
186510
138159
132958
139976
137623
154281
150878
161275
174241
153949
202467
197057
178912
173887
200255
231659
92809
107659
107286
122618
132135
131648
148205
157928
145114
117307
131618
174356
144111
160284
116810
132827
105845
128539
171532
140788
157662
167061
151468
135080
161167
207684
175733
194554
158254
146555
129573
158284
201758
188329
172995
173728
207703
202426
202668
207463
240131
239753
188206
260012
213345
210445
221762
225354
175747
162969
164216
134834
143711
210251
173130
174422
211383
165372
179752
221428
188884
203342
239009
159945
199294
172423
214623
185824
199292
230049
124539
161784
140538
173406
151032
168129
192048
167628
188763
195543
192055
199350
230108
222358
243670
240640
208206
232488
319452
271693
273627
173729
193312
160562
192016
159384
178005
214837
189889
259969
237829
234618
221919
203249
225244
226762
228571
197555
226749
304162
260880
264891
130129
178023
146221
188827
155678
173774
210967
248635
295474
247359
340672
285233
284483
342293
237277
278764
237180
325501
278825
278789
327879
154885
227753
203343
204665
168760
186252
187583
200775
240609
282845
196161
165630
188950
224861
262320
232367
196465
168665
199856
186939
221704
193085
225503
268384
215907
185382
159120
185393
252385
248619
216336
232334
312654
267522
272456
225996
227176
185960
207851
340007
258053
257070
181477
250998
218065
201015
289936
230587
245563
188919
200715
165580
196109
282791
224827
240543
227936
281389
276938
271980
336134
266167
331194
220598
267272
228150
267296
318088
317325
261072
264134
364348
357682
354999
304032
308065
311295
340941
403218
430126
399209
354611
382982
386768
295007
378998
320827
385249
334899
366681
430412
360491
286708
330465
376065
330445
360473
416315
397187
476416
386612
396759
329393
331517
407818
370972
304377
237176
400707
303784
370598
434744
410370
270849
363537
415970
325443
387196
418661
284059
271595
238933
373185
299070
357520
423234
322264
395074
320684
423209
406992
508209
478013
422252
264487
348354
271798
337174
258344
218055
478034
508319
395129
320753
423304
322317
407154
237117
400633
370536
370898
278298
304279
303698
446508
441777
369958
426281
659771
521915
520249
418302
353516
416426
416401
624797
506391
494394
432034
427031
378334
419835
572823
482545
491199
497775
632522
529880
707799
606051
626202
629865
499834
589356
469232
698272
589266
619940
649227
410137
324834
264026
372221
358102
413336
395874
433049
342821
430001
427459
359936
426645
421693
426622
436637
396833
426600
299078
412404
385894
402272
355663
416272
429536
262474
398340
378882
554891
749501
753128
747434
695495
653311
695461
530539
473069
518434
549020
264525
434475
459283
500779
743377
728731
737685
634136
603825
620676
448820
556299
503751
556280
314671
448837
498710
148914
434419
209806
190967
139612
285353
230693
211987
391136
261004
404542
165026
304592
244200
379085
336057
263731
389393
143263
162770
156647
180888
174429
190801
198151
137239
150021
152624
167529
170279
186036
182991
156053
170639
189089
180745
199664
207887
221195
385118
175721
404660
398469
325484
280643
34005.6
360413
359192
606315
653558
689438
216385
283255
176421
211637
194010
233122
213760
240135
268390
215339
173067
176031
217821
275880
214427
280063
220426
272346
212534
238224
338087
323384
248885
187984
221221
180740
223772
305247
289312
233407
264743
204340
207504
231905
310776
314512
228450
235048
235513
261219
269693
304314
309930
364671
231101
331366
246489
356653
265062
288813
377091
197658
264103
210682
328377
247441
268702
358707
281372
387693
237255
394568
428677
366430
260646
362609
209479
246860
238715
213761
183708
288823
344707
294157
253409
228466
299993
414545
342941
390165
361688
305424
270250
322475
398018
363071
393271
360138
417106
448477
429533
464494
534808
561598
288708
376007
401311
380550
381491
284588
378029
297975
392152
394089
397529
385638
384327
314110
270848
387173
321195
415991
363534
410350
418683
349563
439342
430295
450444
460617
526394
457827
429973
421814
322569
304069
255712
358927
412418
352961
390422
404006
390869
342062
396771
420153
433482
405691
295750
340109
244142
295765
405699
397769
404194
337136
365093
357695
398272
410142
290612
422315
343930
421304
389306
419058
403751
352505
396137
396698
384211
397896
410628
344979
4675.01
230228
426671
361519
238954
413524
217597
384763
271770
186933
196470
168669
199866
221700
232380
262319
368961
431317
343615
24.0684
3008.18
285795
13672.7
325777
351582
277516
259455
230275
277524
325775
337157
258336
218039
348307
264465
326578
422238
299113
357509
271591
373235
284085
336011
423229
392010
322082
390510
365055
409442
389573
407544
498076
626385
530193
707994
636646
632767
629916
584125
600902
591290
695062
669744
627967
549199
360018
433087
421765
427453
429996
342778
417937
430059
425917
437325
431319
435269
357057
416601
437706
437717
418575
436419
410940
321463
410934
416607
435262
357032
437312
425913
430066
361520
431574
408770
324472
434562
401085
371920
432759
411134
282783
161218
356885
282738
419584
411108
429573
428491
402217
416348
262699
378985
355870
358365
403122
417457
394272
149063
270674
340989
393945
341417
126071
268423
339874
420146
406158
473085
549060
518619
530549
264364
459187
404429
427797
439133
519465
495911
128501
319300
356320
352928
319491
407832
382568
78388.2
239965
284389
67375.9
96662.1
43093.2
126811
116820
69172.2
140996
124705
106993
71829.2
66766.4
128538
120250
96321.8
100496
81354.9
56467.8
60423
96851.6
108671
90954.4
87359.5
37105.2
58152.8
43156.9
37899.7
42198.9
69145.2
59762.1
145681
159802
161019
147814
148041
125694
123508
44953.5
39453.9
42280.1
69999.6
66344.7
62131.1
73153.9
134028
154962
157409
147453
147182
120204
118544
123614
96094.8
108721
106887
81394.2
96889.8
83182.6
130369
90722.6
111963
126830
86146.8
98428.7
101843
292426
175772
259511
144944
171709
136410
275289
240633
179880
179397
170901
203481
205042
198092
196464
182422
173126
180690
212416
207814
200898
205659
152659
151172
134360
181564
163883
179587
166282
159387
139781
155274
184700
175615
169938
189710
234763
278467
237163
229928
266472
269574
227535
247899
283795
241247
233814
282790
274594
240285
213008
243864
196446
247918
250914
210473
199312
216806
263471
210371
249600
255746
203604
222828
707249
714967
701187
644816
357028
569416
548839
225315
434177
378850
57744.4
246454
381238
230200
149128
343598
433902
36349.7
203979
368439
203981
144426
293943
181930
23306.6
120542
410436
323105
548741
688589
709615
600339
218615
426525
504044
57768.2
246480
368992
225390
378889
381249
434187
108246
324733
416592
339437
139398
22752.4
181485
101932
242739
45526.7
6522.5
36726
152055
357627
253940
274025
72634.7
428717
39342.1
449529
560988
6383.2
97.4073
43629.5
807.627
174903
259426
369787
188892
27072.5
46022.4
361945
213440
258003
342320
2727.98
371081
303078
379835
169002
18101.7
382798
1098.92
314900
330839
1920.2
255474
32.4801
260287
292346
294491
346758
346478
358671
359515
311343
282008
313064
964.975
300679
353577
2264.67
265232
308210
299459
350548
347622
358635
359365
503756
684361
691456
325662
354650
463589
521836
286715
319880
334182
354597
358620
360361
359706
217480
334204
280665
34.6048
534.054
418186
88756.7
362330
328339
329758
362177
351072
348190
363787
321812
368520
351052
359449
361393
354279
341493
335084
363959
367128
373305
376792
417255
406282
341105
364878
333746
360318
336153
343570
357506
700441
506432
726924
634281
378370
593070
629221
340979
399224
403264
382994
386809
430144
449686
209917
333010
330899
310296
164297
159620
312967
363301
375576
351275
324774
352624
343827
307854
286218
390969
379260
381446
392283
411209
414162
230296
36783.4
110231
1.34612
4937.64
9095.96
119135
321704
202059
327243
305126
133268
149490
296800
381321
363792
380240
348083
325308
319314
284102
295486
404552
397706
387914
396986
407680
401937
323244
181471
412410
8790.71
146950
1.36471
5804.52
462184
404608
415502
462193
504034
518173
449540
10.2549
426050
102327
22273.1
189063
5575.54
0.272715
382232
379713
374976
329061
245040
283077
306131
313473
141991
301319
111140
284366
266301
84718.7
411574
475404
422663
466451
516856
531300
454066
363810
412267
408366
415661
416069
391430
372669
419876
427046
432080
482566
491264
487010
572876
99381.6
33.5241
12116
310561
701302
604179
46805.8
478202
447535
428254
478210
586808
541698
503769
456042
491956
435760
482626
608127
557596
509371
256992
108550
283474
239786
30792.6
56787.5
201570
276408
42703.2
226422
102171
221168
97497.6
280106
366772
366754
383699
226787
288189
226812
142596
394614
395768
400624
415058
412151
340830
288322
431575
434573
371887
408799
432787
401174
324550
268779
191770
73521.5
35978.3
210145
87854.3
256255
361872
350528
379323
188205
270669
214706
115429
436648
426600
396884
426622
385910
389579
299076
164831
55640.1
237605
210919
10706.4
129947
36349.6
293097
405013
401556
333815
150929
340640
141137
413122
346807
410347
350497
206541
195529
357078
680614
610719
593683
521071
603581
620053
507034
388353
278104
396578
320629
93897.8
121708
299133
676422
754025
690673
483994
566794
561012
690697
401969
334031
407152
338041
140439
173628
317790
500848
737723
743479
603868
620805
728777
751117
496132
723209
592237
695074
571235
703334
747224
217181
16351.6
160171
13734.1
148172
88061.3
5475.95
410010
360030
366847
295277
303294
206376
104515
380137
329409
199026
392279
147863
400631
412398
406240
222830
263454
238158
272503
304765
331581
381943
304020
358854
255649
387630
322472
421808
430040
406459
372560
398428
360036
414396
415743
314733
300751
425883
353445
421135
406948
427547
400464
436397
430574
409549
421163
257981
383450
350908
268558
340009
420201
394092
126244
341572
237489
644741
690538
686368
545528
695049
652450
592043
374493
166808
351959
62196.5
266601
218414
33287.1
392172
232593
373797
98371.4
286478
240139
54969.3
256513
46822.8
117497
185653
270553
402142
370588
172702
9669.54
51402.9
5730.77
89811.6
20087.3
124089
161579
267974
327087
135743
13991.5
50076.6
59327.8
644856
714981
707283
569400
548778
632843
356901
0.419808
17240
345.81
0.0974924
0.259392
901.33
0.403306
28206.1
371.024
0.47648
0.514702
922.439
0.0918376
0.216962
368471
368500
431389
331764
178530
178573
38320.6
301515
326459
419807
187410
355594
157920
23945.9
341449
182054
410494
120698
294044
144494
23339.1
324679
339433
416567
108168
285705
139380
22745.5
52035.5
107204
316073
153251
5357.72
14334.7
82019.3
5952.36
38001.6
93275.8
38012.3
563.56
11447.5
1920.73
165062
288449
341872
173864
8237.25
97076.3
23671.7
763834
497487
682605
753966
723387
763825
682579
684232
458597
626658
723023
681550
752917
668686
242888
152152
357700
260694
45550.2
102006
6528.77
346320
40544.3
235079
34749.2
225222
87366.2
6141.29
4246.41
22055.7
73276.5
31854.3
390.568
7838.73
1596.53
741374
747478
741314
759406
432325
669218
665948
364928
70361.9
275993
74451.6
197016
29882.1
5930.4
12081.2
48701.4
2699.35
87999.1
23752.7
204620
310124
219841
58838.9
173392
124634
19739.2
3893.63
325369
91321.7
489033
302150
278356
74388.2
68037
7638.24
278529
68103.8
7644.92
310620
91353.6
302229
489070
48545.9
203413
24723
3122.63
24850.8
136480
404556
17759.6
81593.6
5059.92
1691.06
29736.5
7967.64
453.565
182016
1982.31
25355.5
35280.4
30915.2
192761
22262.4
8118.44
31571.2
205229
2492.55
35999
9357.58
632.542
160704
11147.4
15117
1494.63
23394.2
16962
128870
464.947
54040.7
5665.96
63895.3
5664.8
240797
54034.8
4537.04
197624
41915
27651.2
307.145
3008.95
2901.64
55593.2
44954.2
219701
34196.7
334.875
3878.56
3085.3
375261
444983
641774
143352
8717.77
444913
99335.4
306.999
2899.1
27638.3
4534.54
41879.3
197578
43617.4
6368.79
8419.21
89190.6
49809.5
251.487
3130.63
4074.73
172901
13535.5
164735
692987
143974
477309
481902
302976
47731.6
337678
94343.6
408816
78731
5215.65
2763.91
32286.8
138007
13662.1
2224.44
1230.28
190.035
135178
13761.5
13185
1950.03
1991.71
995.915
142.214
1231.04
190.178
2225.04
17244.5
2764.13
138053
32291.4
10403.9
121.495
144.866
682.8
2535
3058.18
513.577
18182.7
7279.37
967.574
18191.5
119.503
2222.75
967.945
499.831
4705.09
79241.5
14406.7
77.6871
776.413
1412.86
69530.3
546.519
4706.64
12916.9
88.388
792.658
1457.93
83469.8
10353.4
644.975
13806.9
91.6225
845.729
1500.45
2353.82
12183.6
1881.06
608.042
16.4461
115.891
92.9263
21522.9
457.032
100.682
566.482
1288.16
7665.3
1639.35
1224.3
4639.51
258.106
1867.79
21.6856
374.237
106.255
28498.6
1840.86
355.164
2146.64
27.3412
142.138
417.027
162.748
747.702
35.4785
162.648
1.55271
33.0843
7.64062
635.819
76756.6
8584.28
491.515
47.4393
6379.68
635.519
5424.11
3017.07
336.738
4956.08
32.0339
307.846
512.436
509.335
85.8583
4.03746
130.588
1.00214
20.8867
6.04779
595.713
722.772
36.1379
9395.77
129529
7651.58
467.865
137.673
166.481
2360.71
609.945
2.70107
42.2702
35.6544
34.7311
4186.04
418.922
28.7017
282.452
23.766
2.49033
3513.53
26.0633
241.939
25.7621
242.736
17.4086
1.91307
282.41
345.626
34.9135
2.82306
28.9249
418.571
4184.16
14.802
1366.52
209.405
7.20989
97.3486
14.7693
1.21391
45.27
6.82326
118.973
3.75536
62.7974
9.08426
0.649393
1983.69
12.6719
20.4925
10.3229
227.666
106.882
183.114
1752.06
19.7102
11.5388
11.2854
105.17
189.545
184.013
55.2926
8.80586
141.913
5.17119
80.4673
12.4004
0.971115
57.7755
8.24011
130.128
4.60248
68.2923
9.74196
0.828668
138.747
0.748866
1.73806
1.9422
9.51497
27.1202
8.24987
3.39299
0.393547
2.25017
435.912
2.83546
26.881
42.6314
0.00726583
1.31695
0.000451249
0.00619097
1.38952e-05
0.000111124
3.79208e-07
2.73457e-06
8.89122e-09
6.06087e-08
0.00160846
4.72926e-05
1.33645e-06
3.48227e-08
7.85803e-10
138.548
0.282013
0.0200889
0.0915674
4.06426
0.286022
0.17525
2.98046
187268
0.117059
14386.3
147545
350668
196667
21.5144
0.639877
1988.5
430469
421039
409606
436351
383296
400485
257717
25.8176
38.2027
55576.6
0.124764
0.425368
1.24633
0.458299
355505
157795
419724
301354
326301
118951
23905.8
12036.6
87783.7
309878
204370
23688.3
48564.5
2691.35
29755.1
188702
364701
5911.44
74260.7
275742
70171.4
4934.89
44912.5
219629
34168.7
3877.21
3082.07
334.694
79110.6
775.433
4696
9075.23
77.5118
1410.61
498.729
28159.1
13729.4
134987
142.083
993.594
13152.7
1946.66
257.225
105.79
1219.27
22180.6
1859.89
373.028
4624.87
621.723
1203.1
5145.94
254.941
59.4472
30.7525
6.91601
0.0105042
0.00224605
0.00998127
0.112233
0.00907084
2.51486
0.106407
242.821
370.691
3509.62
17.4806
241.677
26.0409
1.94829
459.009
5522.69
458.789
31.9143
372.739
31.8845
2.82217
0.0790867
0.0673997
0.769566
0.00357328
0.0013821
0.00411109
0.0300841
12.5945
10.2181
106.835
1982.55
227.651
182.986
20.4037
6.7742
3.71914
45.0212
9.08459
62.6567
805.73
118.777
39.636
25.6918
240.543
1.99731
11.7023
1.34044
0.287944
611140
615337
330622
352765
410458
578965
493489
377123
406625
509764
603998
440665
344263
169896
189561
351851
367475
201567
214537
390460
200715
246409
377860
426587
223680
266301
394198
219998
231191
666251
672727
327809
344796
471420
239855
282737
678023
663345
356908
429656
173880
187082
190252
241323
222565
238238
226096
505114
265310
329439
451674
596913
285782
360378
180454
204754
196193
247021
240907
255144
232204
215687
213850
228287
252024
265595
277550
265004
512469
366193
463775
146606
20556.9
368866
419532
189233
203779
192009
238919
245845
236043
248367
204411
207963
197107
244244
260545
251989
253150
229173
259056
242787
290916
294711
305834
279409
214004
235371
226050
270607
262127
274785
283274
221653
246990
248361
263794
265994
296139
294042
614013
382849
396539
628174
603932
411649
428258
294675
332858
277664
341747
344014
291864
280994
669033
303200
385243
633983
353116
474368
673647
299765
337494
294340
354584
348429
306981
286673
257109
249550
240433
289737
316023
306746
298421
225172
257314
251611