/*--------------------------------*- C++ -*----------------------------------*\
  =========                 |
  \\      /  F ield         | OpenFOAM: The Open Source CFD Toolbox
   \\    /   O peration     | Website:  https://openfoam.org
    \\  /    A nd           | Version:  9
     \\/     M anipulation  |
\*---------------------------------------------------------------------------*/
FoamFile
{
    format      ascii;
    class       volScalarField;
    location    "0.00165";
    object      overpressureMax;
}
// * * * * * * * * * * * * * * * * * * * * * * * * * * * * * * * * * * * * * //

dimensions      [1 -1 -2 0 0 0 0];

internalField   nonuniform List<scalar> 
13678
(
63774.2
334.164
35715.2
267938
24.2502
513.225
0.867653
7.66779
161490
255364
327037
135681
59304.5
50013.3
13977.6
13700.8
169764
63745
3355.83
15470.9
3354.14
682.969
8725.92
53205.7
137309
1783.71
10287.7
2717.02
435.608
10396
144.799
3056.96
121.33
2531.83
682.206
32.4111
429115
1.14458e+06
1.3895e+06
855059
726761
556254
1.85943e+06
1.12593e+06
577841
456021
1.3878e+06
1.21504e+06
1.44987e+06
1.29085e+06
1.14885e+06
1.64231e+06
1.41666e+06
1.01225e+06
698089
722842
1.08479e+06
1.07463e+06
712778
753235
653869
458079
639689
611973
578806
620607
435858
1.77753e+06
1.81004e+06
1.73899e+06
1.68066e+06
1.62656e+06
1.59123e+06
1.64334e+06
1.58799e+06
1.24491e+06
1.12285e+06
1.43489e+06
1.27908e+06
1.09485e+06
1.02461e+06
1.45813e+06
1.6111e+06
1.63819e+06
1.38848e+06
1.52277e+06
1.49569e+06
1.37297e+06
1.69298e+06
1.69736e+06
1.75634e+06
1.54853e+06
1.55039e+06
1.5001e+06
1.59996e+06
991748
1.25285e+06
1.23835e+06
1.22639e+06
1.01389e+06
1.03331e+06
1.22887e+06
815138
814968
733510
689231
810910
828552
687163
1.10718e+06
1.06313e+06
772728
831452
1.20787e+06
982991
788838
1.5254e+06
1.34548e+06
1.48142e+06
1.44926e+06
1.36197e+06
1.31685e+06
1.49442e+06
677447
673871
694261
630661
600300
621785
587479
354571
626124
510153
527932
641854
440266
378864
1.43616e+06
1.5429e+06
1.57858e+06
1.46457e+06
1.32753e+06
1.43008e+06
1.35249e+06
595391
645058
431538
494720
681549
698976
379006
1.04082e+06
1.27534e+06
1.26713e+06
1.0556e+06
1.22125e+06
1.07499e+06
1.22804e+06
1.63672e+06
1.57248e+06
1.52741e+06
1.49521e+06
1.44665e+06
1.39003e+06
1.43591e+06
1.29454e+06
1.30446e+06
1.40885e+06
1.38323e+06
1.1958e+06
1.26969e+06
1.28633e+06
1.40927e+06
1.3295e+06
1.24242e+06
1.41447e+06
1.36428e+06
1.28155e+06
1.45813e+06
714764
859648
829332
853941
711882
884739
693081
424417
199186
335743
616100
502397
576393
472389
1.07271e+06
1.36339e+06
1.23594e+06
893039
1.04347e+06
856932
985648
1.50405e+06
1.35619e+06
1.45994e+06
1.29716e+06
1.39002e+06
1.34514e+06
1.26419e+06
1.18428e+06
1.0108e+06
1.02556e+06
1.0368e+06
1.11607e+06
1.0107e+06
1.17869e+06
646107
632643
660075
612691
615286
574859
563728
1.35191e+06
1.17358e+06
1.20569e+06
1.23623e+06
1.31705e+06
1.23996e+06
1.26283e+06
854330
676624
836871
854464
713023
867254
688842
622159
640545
659424
567808
584063
569307
553140
1.50502e+06
1.39332e+06
1.46183e+06
1.33231e+06
1.31333e+06
1.2734e+06
1.37543e+06
1.19954e+06
1.36477e+06
1.31673e+06
1.26653e+06
1.19685e+06
1.15548e+06
1.31147e+06
1.27247e+06
1.25895e+06
1.12582e+06
1.20734e+06
1.08633e+06
1.18687e+06
1.08546e+06
900541
757662
940597
742396
916754
942924
777648
590729
513744
547037
585964
589429
540248
512201
1.04519e+06
1.10223e+06
1.15567e+06
1.00244e+06
1.04797e+06
1.00825e+06
1.16975e+06
1.3196e+06
1.35419e+06
1.4102e+06
1.29687e+06
1.1921e+06
1.24386e+06
1.22959e+06
647967
607795
569070
564520
602168
534812
539363
875854
732514
889735
735068
897365
880364
708818
594457
617247
600956
553168
519766
536883
536688
1.16935e+06
1.20714e+06
1.27691e+06
1.23475e+06
1.09348e+06
1.12986e+06
1.17743e+06
634454
551598
587401
558561
595365
529118
522537
1.21565e+06
1.14553e+06
1.20027e+06
1.06366e+06
1.11004e+06
1.16315e+06
1.25641e+06
639251
639502
617903
583072
556506
636512
554699
1.324e+06
1.29054e+06
1.25377e+06
1.24917e+06
1.21218e+06
1.15118e+06
1.18438e+06
837688
1.03478e+06
1.17136e+06
844143
952053
720295
780844
600576
604430
592677
535247
523236
532593
514648
604326
543827
578393
567633
534754
515143
506587
478722
506799
523529
513197
450397
473263
495637
1.18817e+06
1.06093e+06
1.10731e+06
1.04292e+06
1.08712e+06
1.13943e+06
1.1443e+06
1.23698e+06
1.11483e+06
1.12787e+06
1.13004e+06
1.16119e+06
1.07435e+06
1.05513e+06
1.29247e+06
1.18693e+06
1.22688e+06
1.15007e+06
1.1866e+06
1.12703e+06
1.1027e+06
572095
533968
552064
502909
522577
512208
487019
1.13658e+06
991876
1.04424e+06
1.03865e+06
1.11277e+06
1.03385e+06
976796
796666
988545
972551
955834
830958
954950
808794
1.113e+06
1.21825e+06
1.18283e+06
1.08942e+06
1.05392e+06
1.02822e+06
1.11877e+06
893062
763984
915906
924312
786496
890822
789913
590907
512829
541856
555444
524317
497032
486248
503054
442662
471936
467781
494391
469313
483656
523068
567849
562465
504046
477326
473070
508608
654422
580414
577350
695593
665274
562262
579812
1.14236e+06
1.01678e+06
1.10994e+06
1.05665e+06
993271
969825
1.08472e+06
486163
433461
491517
469522
412635
416841
464214
548636
517108
556033
498708
462336
468082
492563
437141
500180
496223
474112
423529
477951
420436
625043
538032
535633
668672
653086
547388
559068
1.09031e+06
1.13192e+06
1.15801e+06
1.06701e+06
997104
1.00838e+06
1.05152e+06
1.06634e+06
997855
1.08734e+06
1.03568e+06
944163
952819
1.02168e+06
1.0922e+06
1.12967e+06
1.09441e+06
1.06264e+06
1.03069e+06
1.05576e+06
1.0003e+06
1.01175e+06
1.05453e+06
1.08524e+06
1.01678e+06
934213
957339
994946
479987
418933
472910
407968
458175
451390
402620
540241
493469
530509
455896
485709
477829
448639
512942
526434
536651
506089
464485
506617
473493
986391
862165
839106
972044
944090
926003
834709
1.00257e+06
969963
942583
876890
923324
949292
1.02703e+06
923140
791067
815548
869375
882553
913972
808381
460883
470484
488510
486563
430525
478953
452016
481375
442615
459966
444522
664118
643253
770081
715487
455674
490394
421241
472591
439700
653566
635767
695156
609838
745896
773620
750160
656649
653817
636892
640358
755889
730800
763667
739141
648810
631560
625313
744514
718986
729881
704452
626041
617583
607564
413278
675960
602434
607333
459177
528782
427327
720946
680545
686478
616142
596692
591987
620551
699648
708383
673116
610524
579346
586110
604073
488144
564183
561710
549426
480789
478213
552348
712988
670011
687731
601741
614595
595940
582939
553678
484908
557910
545121
470912
474676
540365
688554
640619
674315
571105
595939
586089
561527
477341
548472
541839
466536
534665
527696
461399
650772
655052
587739
630073
571899
568826
552930
641179
625743
658266
574553
538233
561813
550498
466760
524692
533931
519467
448382
455380
510071
534262
452427
520076
469190
516408
466323
537732
529708
458475
506201
448705
511680
462640
524368
453762
500125
518442
511253
434253
448495
492914
631952
582856
607371
535819
554630
535851
517119
622653
572749
592122
524803
547710
532388
509910
501878
513913
451967
440192
499200
487168
430898
502994
435437
428136
475427
442422
493502
484685
475898
497124
556385
551435
580090
515367
493544
409053
420521
473674
432117
488451
473697
420539
427254
465215
482948
470998
404374
453615
418139
406025
464927
412811
443884
385666
396622
435407
483456
506953
519347
468983
431302
459016
440405
1.08377e+06
985414
1.02655e+06
969016
1.01392e+06
965270
926842
450627
374409
429822
405561
426402
454215
402543
687797
703406
681281
567603
602401
582148
591867
983807
925102
863896
900621
908337
933072
973753
1.02102e+06
908065
968919
918650
985288
938960
879269
446260
395044
417663
366809
422321
399046
441203
353025
390489
440957
394589
407901
443660
457919
491250
422540
447130
489636
493747
503400
446850
389773
412329
435564
429202
307384
378470
406446
854270
919522
949164
901769
803399
872191
822482
905826
882795
946753
905934
816416
848748
870252
812491
851817
898847
878402
768088
829800
802868
704358
709208
559881
725772
580752
728107
923511
981022
1.02111e+06
917544
1.01225e+06
908915
914846
830145
837864
998958
889516
882282
897456
904106
819833
807024
813217
733457
821500
751250
685447
678271
759033
735152
828246
820269
752389
682084
759536
675278
789196
716354
802876
742091
659151
669589
730597
719424
798520
810629
743348
658050
667299
732261
688215
575021
633904
630821
627262
695077
624498
679700
610114
608292
568071
619447
616944
669591
1.05176e+06
822390
404526
475949
1.11913e+06
927760
887790
1.15776e+06
1.08512e+06
1.43453e+06
1.29635e+06
1.39395e+06
1.32334e+06
1.34076e+06
1.30208e+06
1.28455e+06
1.20482e+06
1.24068e+06
1.01412e+06
874097
751114
846024
1.05065e+06
1.23015e+06
895172
602707
428513
512948
341393
389621
484728
460347
1.35932e+06
1.21386e+06
1.22914e+06
1.27288e+06
1.25685e+06
1.17929e+06
1.15116e+06
733462
74469.4
632883
481892
653412
740644
489726
1.08971e+06
1.2185e+06
1.18308e+06
1.11319e+06
1.05416e+06
1.02845e+06
1.14478e+06
1.12576e+06
1.24776e+06
1.21289e+06
1.12581e+06
1.07741e+06
1.04929e+06
1.15783e+06
1.14601e+06
1.15631e+06
1.17099e+06
1.10157e+06
1.0879e+06
1.10251e+06
1.04431e+06
1.06728e+06
1.13211e+06
1.15823e+06
1.09048e+06
997283
1.07284e+06
1.00858e+06
1.10203e+06
1.15734e+06
1.18687e+06
1.10207e+06
1.01794e+06
1.08517e+06
1.02903e+06
573224
570179
545158
544149
518331
522433
497506
1.03558e+06
881390
892859
1.00696e+06
994493
964839
868573
1.04464e+06
990724
909356
1.00007e+06
977210
967945
1.07133e+06
619435
749918
758532
632073
625850
759246
642763
818362
881731
725746
803726
712772
537407
693536
784515
722589
989603
1.1023e+06
763446
847461
749375
1.03545e+06
887889
723609
1.16083e+06
1.14075e+06
1.01646e+06
1.08891e+06
1.00108e+06
967403
957385
1.04556e+06
983413
1.03682e+06
873106
918608
911633
865518
1.09849e+06
998510
1.05446e+06
923294
971904
932988
890655
780466
765632
875018
753771
850693
839690
738759
926756
829564
934244
879769
869790
789484
771723
816916
958548
915761
854747
958143
1.00738e+06
890698
678701
701102
776256
708800
725512
811891
801814
701455
791147
724294
749192
818885
853738
821109
727426
733894
549167
567461
700539
495587
555576
777756
907260
870556
822817
853599
758889
737043
651315
680751
744705
669526
718372
691229
628643
829185
758484
812709
730522
754757
728468
690270
727459
648294
665463
694979
675586
759909
785525
806211
805971
820927
753701
757192
743976
701180
693841
619861
635952
676524
591467
659625
607638
773725
743890
798958
714285
653215
670682
695385
1.37329e+06
1.6034e+06
1.72064e+06
1.88421e+06
1.15365e+06
1.25901e+06
1.08063e+06
1.28248e+06
1.80629e+06
1.90355e+06
2.00503e+06
1.66164e+06
1.7521e+06
1.67225e+06
1.59729e+06
1.65212e+06
1.45933e+06
1.71044e+06
1.78355e+06
1.56485e+06
1.4285e+06
1.51842e+06
1.6571e+06
1.49272e+06
1.54658e+06
1.40799e+06
1.54731e+06
1.49004e+06
1.3579e+06
1.44366e+06
1.32737e+06
1.52302e+06
1.29733e+06
1.47446e+06
1.40641e+06
1.23713e+06
1.5049e+06
1.58825e+06
1.43793e+06
1.35663e+06
1.25225e+06
1.42839e+06
1.30826e+06
1.12478e+06
1.19258e+06
1.36457e+06
1.11611e+06
1.26537e+06
1.3382e+06
1.17776e+06
1.27802e+06
1.2378e+06
1.38871e+06
1.33289e+06
1.11228e+06
1.18771e+06
1.23358e+06
1.02148e+06
1.21415e+06
1.13438e+06
1.27554e+06
1.06853e+06
1.13486e+06
1.1853e+06
2.25908e+06
946543
1.16916e+06
1.22722e+06
1.32023e+06
944519
936081
689159
875670
747376
1.05649e+06
2.00308e+06
1.89134e+06
1.5663e+06
1.56709e+06
1.37238e+06
2.03558e+06
1.67137e+06
1.10639e+06
1.0889e+06
743136
820644
1.28656e+06
1.49622e+06
848698
1.36359e+06
1.18869e+06
1.26097e+06
1.2199e+06
1.15344e+06
1.11369e+06
1.07986e+06
901923
901085
665992
959490
721701
881812
688778
1.27621e+06
1.13156e+06
1.07718e+06
1.17773e+06
1.11676e+06
1.04397e+06
1.00611e+06
2.44665e+06
2.29802e+06
2.17411e+06
2.18504e+06
2.07009e+06
1.98765e+06
2.07418e+06
839330
1.02482e+06
855270
996723
971862
944742
818912
1.15764e+06
1.02215e+06
1.12003e+06
952453
1.03424e+06
1.00232e+06
923645
1.70277e+06
1.72106e+06
1.96611e+06
1.64202e+06
1.87535e+06
1.83207e+06
1.64056e+06
1.36215e+06
1.42946e+06
1.1356e+06
1.36304e+06
1.08018e+06
1.13715e+06
1.41673e+06
992935
903208
975324
855050
924618
925354
830088
1.08008e+06
1.03225e+06
1.1052e+06
1.02255e+06
981378
963932
917680
2.16296e+06
1.9681e+06
2.07098e+06
1.90346e+06
1.8659e+06
1.81386e+06
1.96777e+06
2.30433e+06
1.02216e+06
2.01678e+06
2.97722e+06
2.01337e+06
1.86366e+06
1.49876e+06
2.07752e+06
1.7508e+06
1.1061e+06
1.2863e+06
1.11703e+06
1.30578e+06
747571
1.22614e+06
867583
1.16554e+06
1.31571e+06
1.21378e+06
1.24162e+06
1.11265e+06
1.0746e+06
1.23011e+06
2.0161e+06
1.57025e+06
1.56474e+06
1.54251e+06
1.93535e+06
1.92439e+06
1.55541e+06
2.86198e+06
2.3558e+06
2.38951e+06
2.63741e+06
2.22753e+06
2.20126e+06
2.53556e+06
1.10619e+06
1.17911e+06
1.17017e+06
1.03055e+06
1.05229e+06
1.00177e+06
977200
2.59366e+06
2.734e+06
2.32928e+06
2.17588e+06
2.30318e+06
2.1383e+06
2.42328e+06
1.65985e+06
2.01434e+06
1.605e+06
1.9163e+06
1.62224e+06
1.90238e+06
1.58982e+06
1.30288e+06
1.27593e+06
1.12972e+06
1.04789e+06
1.30129e+06
1.04841e+06
1.25124e+06
995274
1.04786e+06
1.06285e+06
961212
888197
937353
928712
2.34131e+06
1.94439e+06
2.08809e+06
2.06057e+06
2.00856e+06
1.90001e+06
2.25292e+06
1.84891e+06
1.50713e+06
1.53462e+06
1.83163e+06
1.50786e+06
1.72543e+06
1.54398e+06
1.21464e+06
983235
1.02837e+06
1.00787e+06
1.24633e+06
990684
1.22933e+06
945960
907749
807431
912553
783244
850480
868948
2.01836e+06
2.06045e+06
1.79167e+06
1.93595e+06
1.95806e+06
1.84701e+06
2.15679e+06
1.81068e+06
1.56947e+06
1.66055e+06
1.50738e+06
1.78245e+06
1.69607e+06
1.5585e+06
1.00769e+06
1.31027e+06
1.05695e+06
1.27549e+06
1.03726e+06
1.01613e+06
1.26241e+06
889459
804414
847037
760575
876844
839367
832674
984660
1.03744e+06
1.08002e+06
968726
858022
932704
891587
807651
831998
967088
915350
771856
884754
795928
1.73317e+06
1.97092e+06
1.79179e+06
1.82154e+06
1.72034e+06
1.66994e+06
1.88352e+06
796016
848760
912193
887275
729944
825700
776179
1.48066e+06
1.74624e+06
1.62022e+06
1.69954e+06
1.45266e+06
1.54836e+06
1.57697e+06
1.70981e+06
1.83334e+06
1.90873e+06
1.77481e+06
1.57314e+06
1.70848e+06
1.61536e+06
1.10363e+06
1.35502e+06
1.32518e+06
1.14498e+06
1.32675e+06
1.38283e+06
1.14551e+06
1.48044e+06
1.2396e+06
1.18894e+06
1.19446e+06
1.43738e+06
1.44366e+06
1.23897e+06
1.74874e+06
1.64595e+06
1.52648e+06
1.71197e+06
1.66873e+06
1.60281e+06
1.79778e+06
786961
881095
878747
911453
751783
779284
925573
869270
989722
969966
951785
815788
997783
816513
990222
822774
855602
938855
893708
851985
784932
781634
746049
752963
862397
851225
814593
718156
1.03497e+06
867159
890860
959549
925988
867219
813250
2.1526e+06
1.8436e+06
1.77584e+06
2.10394e+06
1.18934e+06
1.393e+06
1.6793e+06
1.24796e+06
2.12503e+06
2.03429e+06
2.00776e+06
1.92516e+06
1.89903e+06
1.81088e+06
1.83334e+06
2.07045e+06
1.94587e+06
1.98188e+06
1.82267e+06
1.86791e+06
1.7807e+06
1.73696e+06
1.65436e+06
1.86666e+06
1.67272e+06
1.67149e+06
1.53026e+06
1.51238e+06
1.69163e+06
1.70323e+06
1.47327e+06
1.4928e+06
1.61789e+06
1.44293e+06
1.42547e+06
1.63808e+06
1.59356e+06
1.81381e+06
1.62899e+06
1.64083e+06
1.453e+06
1.48833e+06
1.60014e+06
1.59586e+06
1.64682e+06
1.44212e+06
1.58506e+06
1.35332e+06
1.39664e+06
1.53681e+06
1.5051e+06
1.38624e+06
1.23568e+06
1.35553e+06
1.34225e+06
1.37118e+06
1.52162e+06
1.47645e+06
1.31812e+06
1.28219e+06
1.2168e+06
1.3166e+06
1.34951e+06
1.43822e+06
1.40139e+06
1.45208e+06
892302
761472
1.08482e+06
912228
831583
1.10183e+06
1.46546e+06
1.26867e+06
1.35657e+06
1.34457e+06
1.25834e+06
1.1797e+06
1.18975e+06
1.43113e+06
1.21997e+06
1.29687e+06
1.32496e+06
1.24337e+06
1.16458e+06
1.14274e+06
876287
916686
881202
1.08316e+06
1.02817e+06
1.0772e+06
1.02201e+06
1.01236e+06
1.24324e+06
1.13082e+06
1.12013e+06
1.23161e+06
1.09318e+06
1.0043e+06
856037
903683
867665
1.04875e+06
1.06551e+06
1.01055e+06
994461
1.19017e+06
1.10555e+06
1.21458e+06
1.07971e+06
975605
992118
1.06052e+06
837942
965907
781410
788281
898461
958172
890702
811459
822776
772472
947538
867446
880913
932500
859595
772875
731688
710280
830264
800130
754786
1.64697e+06
1.41551e+06
1.4685e+06
1.47182e+06
1.5867e+06
1.51618e+06
1.52676e+06
959992
780800
1.00595e+06
808362
1.00629e+06
783317
971380
1.19098e+06
1.31183e+06
1.17039e+06
1.36427e+06
1.38426e+06
1.21447e+06
1.16908e+06
743446
707193
798501
764305
640929
712387
680451
819962
687515
774737
774783
655155
732609
687556
806049
820951
753731
806308
701229
744092
757229
700701
665984
676456
661075
600964
637545
610743
651476
688743
620730
613736
678910
643563
585204
689220
627627
666262
627585
684272
646479
593898
759899
706299
648403
656301
700544
656283
611162
620764
585269
643627
727510
613846
679027
651558
641022
563664
560686
590492
608538
624810
581287
1.24057e+06
855786
489726
665371
669549
696707
550773
772653
694725
644869
514188
834524
1.15107e+06
1.4872e+06
1.32466e+06
1.54998e+06
1.91197e+06
1.37853e+06
1.61326e+06
925804
861040
956277
869051
843837
789826
768560
868625
1.10244e+06
1.2512e+06
1.30318e+06
1.47443e+06
890879
840727
738940
623539
498726
444431
570174
689238
549244
1.85787e+06
1.76201e+06
1.78977e+06
1.71696e+06
1.74458e+06
1.61422e+06
1.65468e+06
581503
700131
642844
727254
751104
536892
671271
855833
804484
892209
786175
815729
744596
718063
1.7501e+06
1.5154e+06
1.54038e+06
1.63421e+06
1.65902e+06
1.5501e+06
1.44904e+06
748163
688636
770791
646151
715678
697287
630318
782362
681396
762253
646716
718248
701212
633195
1.44629e+06
1.61936e+06
1.57882e+06
1.48523e+06
1.40522e+06
1.36561e+06
1.52739e+06
1.66929e+06
1.50765e+06
1.62605e+06
1.50763e+06
1.44405e+06
1.40265e+06
1.54996e+06
1.27423e+06
1.40662e+06
1.42942e+06
1.25329e+06
1.2756e+06
1.36018e+06
1.23757e+06
1.02742e+06
834470
850479
1.03979e+06
1.0592e+06
1.06583e+06
865503
817759
754470
777024
720645
703521
689873
659818
623852
647512
722521
676267
591944
652943
611957
715720
663939
739997
681733
600358
659931
617742
1.40329e+06
1.41798e+06
1.51728e+06
1.44108e+06
1.27193e+06
1.35884e+06
1.33221e+06
1.46108e+06
1.45969e+06
1.56259e+06
1.46105e+06
1.30532e+06
1.36829e+06
1.3785e+06
710271
716513
729780
671332
659186
715131
636973
1.39386e+06
1.2047e+06
1.32317e+06
1.34071e+06
1.30203e+06
1.2844e+06
1.43445e+06
599333
597868
657118
642374
539977
586202
585921
1.15323e+06
1.33044e+06
1.2096e+06
1.20663e+06
1.28416e+06
1.18401e+06
1.12435e+06
1.37049e+06
1.20059e+06
1.24674e+06
1.23892e+06
1.30317e+06
1.20059e+06
1.15445e+06
733953
646530
684384
627633
666302
627679
593943
690367
621735
641533
611028
629938
595790
571854
1.02132e+06
846058
1.0401e+06
1.04951e+06
878186
877757
1.01468e+06
598490
572253
634819
569972
627976
601505
546754
1.35923e+06
1.17918e+06
1.21375e+06
1.2291e+06
1.27284e+06
1.29627e+06
1.2567e+06
1.0664e+06
873242
1.07578e+06
1.06645e+06
902072
1.04272e+06
890927
689212
600452
660743
580992
636324
610812
559872
698291
599241
622057
728175
717043
615528
608689
721410
624860
642011
745198
727276
624837
623653
625508
527790
554641
556758
606193
571215
572271
575478
537168
513380
583566
630366
598706
554931
525029
550135
597831
643299
588591
607102
559570
588671
555546
525206
569544
607095
648566
607069
1.15622e+06
1.17096e+06
1.23011e+06
1.14602e+06
1.04427e+06
1.10155e+06
1.08787e+06
536154
539387
585220
562645
481889
520546
516072
602732
518321
545175
573311
497543
544191
522507
598777
575601
630487
583687
513471
555005
537289
557984
545778
513944
561078
496218
528930
537896
576469
569440
600650
569414
509018
551326
536877
1.03562e+06
881502
964852
892896
1.00697e+06
895247
994532
1.0241e+06
942511
895073
951787
1.01228e+06
959611
950960
1.08392e+06
965367
1.02661e+06
969167
1.03489e+06
985486
926944
995980
1.10873e+06
1.04625e+06
988768
1.04629e+06
996003
945234
632098
759325
758575
750041
740724
619450
625928
478295
499916
538303
463621
494698
472603
444351
434996
495026
452788
438058
474083
455216
418890
506706
514259
537594
469540
492721
472171
448090
506006
543870
548177
484513
538152
545727
479687
463329
525555
488656
521960
494214
532113
565862
479693
545759
543876
548162
484505
505987
538155
538423
463731
472672
478376
513020
500036
494807
901778
854174
949144
919521
803344
837639
872214
873482
970233
929179
929178
817708
846008
889123
922513
931152
983579
940701
844478
894664
886354
747642
638827
634961
725081
745901
648036
629865
646045
753080
763281
737177
753046
653377
649227
422084
324834
264026
372221
358102
414148
395874
433049
486758
456019
449856
359936
426645
421693
426622
440149
455262
435053
299078
412404
385894
453676
355663
416272
434812
262474
398340
378882
853302
766859
777006
750540
804502
824144
787582
530539
473069
539075
549020
264525
434475
459283
884548
779000
802668
785583
813880
846236
838452
448820
556299
548212
556280
314671
448837
498710
627864
434419
538716
559926
647314
448550
513770
532633
391136
464775
405465
598272
441038
505477
379085
473064
263731
415504
638672
593331
602808
559393
568867
541763
533276
653817
617336
610773
582486
576423
548845
554463
614510
581966
547920
568069
534595
523237
511523
459379
175721
407488
398469
474072
280643
34005.6
481571
711988
745996
653558
701062
216385
283255
579656
535173
552273
503229
519412
498169
483699
527501
576195
569931
516762
487234
522191
482324
499368
455089
507437
486548
431847
438072
479116
554374
521139
562778
510347
470201
476739
503003
460325
519109
513983
492774
447557
443154
497868
516774
516424
486315
496638
469211
468122
451710
489973
432748
479054
424698
470705
460833
416746
544989
496154
533541
462993
494506
484475
454554
497097
471493
237255
394568
428677
480166
260646
362609
556356
528723
515308
551339
580015
493458
475844
485330
505692
520436
473021
434189
460440
444951
424164
454754
467170
449807
398845
437966
407953
594119
735815
719334
615159
603260
733029
624760
467827
444671
401774
427772
423602
472662
440461
462340
413224
429846
397529
418872
435558
455776
495034
455247
476002
438045
452789
435034
418914
522927
474114
527724
460830
515329
530298
457827
430506
446275
490893
500197
521446
470282
453469
352961
390422
407869
443635
457873
440884
427280
437413
457108
504881
477543
531123
504854
457085
406766
423312
448215
439650
357695
399505
415945
489542
444672
472263
422269
446659
432009
403751
442288
396137
430178
384211
425562
412852
344979
4675.01
230228
426671
361519
537577
459676
567468
384763
522004
607125
597830
643299
588581
559589
550126
525036
368961
431317
343615
24.0684
3008.18
285795
13672.7
491358
482194
514041
528563
554299
514036
491360
494235
532128
565900
488714
525595
495612
463360
492700
472185
514276
469516
506689
484732
448094
429871
322082
390510
365055
419183
389573
407544
747813
648136
635087
725186
733617
638980
629916
716254
600902
613342
695062
718155
627967
549199
360018
433087
421765
449900
456075
486801
460370
430059
425917
450221
431319
455399
479054
456791
437706
437717
465892
436780
465664
498520
465672
456790
455401
479063
450226
425913
430066
361520
455177
408770
324472
450990
401085
478036
435669
411134
282783
161218
356885
282738
428705
411108
434880
428626
453766
416348
262699
378985
355870
358365
403122
419507
394272
149063
270674
340989
393945
341417
126071
268423
339874
423129
406158
473085
549060
539153
530549
264364
459187
404429
427797
439133
519465
495911
128501
319300
356320
352928
319491
407832
382568
78388.2
239965
284389
1.21579e+06
1.28733e+06
1.06623e+06
921984
742572
1.05358e+06
968437
796687
1.30185e+06
1.26117e+06
1.24859e+06
1.13314e+06
1.1196e+06
1.08751e+06
1.09853e+06
1.2576e+06
1.18706e+06
1.22245e+06
1.05993e+06
1.09532e+06
1.06794e+06
1.03855e+06
1.1152e+06
991728
1.19883e+06
1.10483e+06
1.18658e+06
1.04474e+06
982653
978455
837400
845159
818530
825376
952376
944557
1.13736e+06
1.08878e+06
1.16682e+06
1.02756e+06
949890
969092
1.00394e+06
949116
805323
824085
789097
806599
928463
905845
803711
921892
766776
773914
877618
913780
869399
770490
841213
756480
785971
857652
900029
880761
575062
691092
465264
655909
714191
676877
583931
481274
732986
739085
719758
660719
655748
630198
634948
710053
704739
723367
640225
648717
622459
612300
697919
703935
683178
615190
603935
620585
598202
676254
667869
688919
607326
580190
590289
596953
608756
579912
604513
567408
529921
525907
571706
594433
576476
599425
561449
517083
521511
554346
547811
477120
536432
499851
495828
552583
531568
541274
484761
516544
471832
490700
524932
533156
707249
714967
733967
644816
357028
569416
548839
225315
434204
378850
57744.4
246454
381238
230200
149128
343598
433902
36349.7
203979
368439
203981
144426
293943
181930
23306.6
120542
410436
323105
548741
688589
712208
600339
218615
426525
504044
57768.2
246480
368992
225390
378889
381249
434215
108246
324733
416592
339437
139398
22752.4
181485
101932
242739
45526.7
6522.5
36726
152055
357627
253940
422254
72634.7
428717
39342.1
868082
824831
6383.2
97.4073
43629.5
807.627
174903
259426
392478
188892
27072.5
46022.4
401345
213440
430185
405577
2727.98
371081
415109
384479
169002
18101.7
382798
1098.92
314900
330839
1920.2
255474
32.4801
428121
421885
419621
380303
378431
371019
372953
472676
488795
313064
964.975
300679
353577
2264.67
425328
413549
416717
373356
376060
368634
365960
834508
703167
695634
1.0712e+06
1.01217e+06
844645
813980
418892
410021
405979
370464
367306
363010
359709
217480
465524
280665
34.6048
534.054
438615
88756.7
398824
412293
409821
362742
351072
348190
364762
410695
396235
401501
359449
363708
354279
341493
1.04453e+06
1.00001e+06
990533
977157
967764
909244
927638
403582
395885
406880
360389
336153
343570
357506
700441
506432
728809
813901
983495
804478
629221
1.024e+06
951740
942379
959562
950801
894970
887693
209917
333010
330899
310296
164297
159620
312967
395791
388729
399910
324774
352624
343827
307854
484421
445956
451156
447105
442141
411754
415187
230296
36783.4
110231
1.34612
4937.64
9095.96
119135
321704
202059
327243
305126
133268
149490
296800
389980
399394
392116
348083
325308
319314
284102
479013
432286
436608
442286
437563
407680
401937
323244
181471
412410
8790.71
146950
1.36471
5804.52
853607
932366
913900
853560
812076
800528
868023
10.2549
427355
102327
22273.1
189063
5575.54
0.272715
385793
379775
391117
329061
245040
283077
306131
313473
141991
301319
111140
284366
266301
84718.7
914410
831916
896818
846098
797876
787618
860246
457665
426293
430247
423085
419700
391430
372669
940652
931111
922385
894639
886271
874021
844423
99381.6
33.5241
12116
310561
734015
604179
46805.8
841073
892049
899090
841025
784302
790217
834459
875587
820338
882876
834110
771459
777521
827585
256992
108550
283474
239786
30792.6
56787.5
201570
276408
42703.2
226422
102171
221168
97497.6
280106
366772
366754
383804
226787
288189
226812
142596
448679
395768
400624
415058
412151
340830
288322
455197
451047
478084
408799
435711
401174
324550
268779
191770
73521.5
35978.3
210145
87854.3
256255
361872
350528
379323
188205
270669
214706
115429
440144
435065
455241
426622
385910
389579
299076
164831
55640.1
237605
210919
10706.4
129947
36349.6
293097
405013
401556
333815
150929
340640
141137
415210
346807
411666
350497
206541
195529
357078
709971
750229
759043
797404
752962
744498
808041
388353
278104
396578
320629
93897.8
121708
299133
776150
759449
802205
877937
848040
824791
802180
401969
334031
407368
338041
140439
173628
317790
884538
785589
779020
846226
838419
802642
751117
862607
782811
833431
763831
817982
795360
747535
217181
16351.6
160171
13734.1
148172
88061.3
5475.95
410010
360030
366847
295277
303294
206376
104515
380137
329409
559846
459846
147863
400631
453539
406240
541507
500009
526565
509460
485968
474420
461085
500276
470381
521561
471579
491018
446385
430584
435090
446180
398428
360036
426066
415743
314733
493058
445792
477386
421135
447847
435458
400464
442651
430574
460604
421163
257981
383450
350908
268558
340009
423214
394092
126244
341572
237489
741472
735922
686368
786837
730193
735853
780726
374493
166808
351959
62196.5
266601
218414
33287.1
392172
232593
373797
98371.4
286478
240139
54969.3
256513
46822.8
117497
185653
270553
402142
370588
172702
9669.54
51402.9
5730.77
89811.6
20087.3
124089
161579
267974
327087
135743
13991.5
50076.6
59327.8
644856
714981
707283
569400
548778
632843
356901
0.419808
17240
345.81
0.0974924
0.259392
901.33
0.403306
28206.1
371.024
0.487596
0.514702
922.439
0.0918376
0.216962
368471
368500
431389
331764
178530
178573
38320.6
301515
326459
419807
187410
355594
157920
23945.9
341449
182054
410494
120698
294044
144494
23339.1
324679
339433
416567
108168
285705
139380
22745.5
52035.5
107204
316073
153251
5357.72
14334.7
82019.3
5952.36
38001.6
93275.8
38012.3
563.56
11447.5
1920.73
165062
288449
341872
173864
8237.25
97076.3
23671.7
765766
497487
682605
753966
805960
765752
682579
684232
458597
626658
723276
773113
756465
668686
242888
152152
357700
260694
45550.2
102006
6528.77
346320
40544.3
235079
34749.2
225222
87366.2
6141.29
4246.41
22055.7
73276.5
31854.3
390.568
7838.73
1596.53
741374
747478
792576
759733
432325
669218
665948
364928
70361.9
275993
74451.6
197016
29882.1
5930.4
12081.2
48701.4
2699.35
87999.1
23752.7
204620
310124
219841
58838.9
173392
124634
19739.2
3893.63
325369
91321.7
489033
302150
278356
74388.2
68037
7638.24
278529
68103.8
7644.92
310620
91353.6
302229
489070
48545.9
203413
24723
3122.63
24850.8
136480
404556
17759.6
81593.6
5059.92
1691.06
29736.5
7967.64
453.565
182016
1982.31
25355.5
35280.4
30915.2
192761
22262.4
8118.44
31571.2
205229
2492.55
35999
9357.58
632.542
160704
11147.4
15117
1494.63
23394.2
16962
128870
464.947
54040.7
5665.96
63895.3
5664.8
240797
54034.8
4537.04
197624
41915
27651.2
307.145
3008.95
2901.64
55593.2
44954.2
219701
34196.7
334.875
3878.56
3085.3
375261
444983
641774
143352
8717.77
444913
99335.4
306.999
2899.1
27638.3
4534.54
41879.3
197578
43617.4
6368.79
8419.21
89190.6
49809.5
251.487
3130.63
4074.73
172901
13535.5
164735
692987
143974
477309
481902
302976
47731.6
337678
94343.6
408816
78731
5215.65
2763.91
32286.8
138007
13662.1
2224.44
1230.28
190.035
135178
13761.5
13185
1950.03
1991.71
995.915
142.214
1231.04
190.178
2225.04
17244.5
2764.13
138053
32291.4
10403.9
121.495
144.866
682.8
2535
3058.18
513.577
18182.7
7279.37
967.574
18191.5
119.503
2222.75
967.945
499.831
4705.09
79241.5