/*--------------------------------*- C++ -*----------------------------------*\
  =========                 |
  \\      /  F ield         | OpenFOAM: The Open Source CFD Toolbox
   \\    /   O peration     | Website:  https://openfoam.org
    \\  /    A nd           | Version:  9
     \\/     M anipulation  |
\*---------------------------------------------------------------------------*/
FoamFile
{
    format      ascii;
    class       volScalarField;
    location    "0.00165";
    object      p;
}
// * * * * * * * * * * * * * * * * * * * * * * * * * * * * * * * * * * * * * //

dimensions      [1 -1 -2 0 0 0 0];

internalField   nonuniform List<scalar> 
13678
(
165072
101632
137013
369236
101322
101811
101299
101306
262788
356662
428335
236979
160603
151311
115276
114999
271062
165043
104654
116769
104652
101981
110024
154504
238607
103082
111586
104015
101734
111694
101443
104355
101419
103830
101980
101330
442955
389594
233423
439087
330112
302214
112583
303585
405229
435180
242686
283704
201234
291648
321500
181944
219999
256672
405730
292254
340032
266810
313604
463243
287840
375896
273725
310599
285209
472867
471177
140664
123665
151307
150125
178230
189137
161845
201614
313825
340540
257418
291308
391319
418331
195232
175391
168097
221351
197842
206391
228136
165105
154427
137511
203261
195331
220897
176851
254448
226002
221990
246447
277825
281423
251352
284940
280359
286541
320789
310498
316370
329071
275568
359001
496437
404616
305998
440944
677537
193674
263406
218990
230660
255767
275961
206160
292865
281279
287001
319902
313394
328446
322113
455869
240220
338823
319632
231155
422623
480162
209272
198839
185689
217620
249247
231640
237339
327765
515596
508453
396459
416902
738155
480304
260663
240500
231996
286772
268350
294549
258566
174919
199329
224015
217670
241400
264341
243227
269021
250304
231563
241028
293411
279623
258425
245634
272103
309807
241754
263752
291562
222183
301053
299974
291433
324073
355595
333902
340456
457265
300484
437041
247395
353126
282065
446512
415909
288933
316594
522348
420379
568307
450235
214610
249773
233038
264237
248377
268028
282287
272735
332198
302529
308192
312309
340835
279207
314951
297444
302006
356396
340274
333963
349761
253132
305932
309326
282820
268237
292971
269104
378865
359480
342070
349913
419871
388823
370398
261092
252745
266188
284100
297512
306046
293340
227268
275109
248670
289231
300637
315753
271349
330298
264678
284417
307172
337852
352927
289882
251747
265951
287604
281300
305587
298687
320397
310626
350683
323780
374995
346214
361746
399069
357927
395016
350029
420882
369437
361008
410041
315887
324419
300576
367836
326845
352352
288307
269037
277566
254021
290268
327762
315288
303442
228870
251918
264764
267513
254565
297347
294280
359755
438490
418662
403675
371794
401502
384819
296657
283739
271753
317200
321989
331906
305562
328722
299527
286127
306951
363180
351339
319609
234734
278527
264906
271877
258664
302458
310463
331950
363446
345011
404532
377767
359073
316746
332126
354318
377612
349564
370327
405184
397706
303381
320884
333767
330888
344431
375444
362462
623390
436256
331334
613969
475681
821593
762438
442740
405824
384864
375742
464667
396159
431795
256360
287298
273142
283686
298713
321586
337138
375545
320536
331837
341973
398354
391539
332614
330771
389256
370266
405673
377074
358020
343051
284380
324719
303378
343768
319240
340937
366737
303778
345674
333213
355897
343554
375436
388150
312920
324251
333559
344598
351718
379461
377343
317047
388129
341648
382038
336694
361847
413255
375527
361328
340071
382710
464109
411494
428160
400822
353767
366586
407976
431787
441657
396614
442228
427481
387404
409330
541264
473798
457553
267712
334869
315320
297393
313968
359540
390645
356102
430597
376470
456504
376766
417184
350067
322953
280562
283586
339784
404945
409030
336173
382173
412825
377140
486798
440605
435027
487947
375048
432729
388069
418582
451055
462267
406852
338571
432091
328506
381528
487883
481441
394636
295893
328996
288428
346629
434311
418431
358028
425500
319043
322356
373820
476275
370121
477457
434163
515350
424724
576396
471795
466122
583795
402941
379071
366520
410306
461902
447974
423421
401185
437043
388338
421692
485649
470296
434768
351290
361254
372818
383485
398055
406877
435822
409364
388714
360506
387119
481150
444038
417960
352951
474215
372903
494707
413543
438558
499113
305935
374216
319416
456240
374677
398265
481960
353921
397319
360514
419829
495696
481147
427510
390342
483978
511365
426755
447744
491929
573427
450315
474786
484768
533202
495331
484973
439780
438756
601299
549371
563295
513761
476113
496954
416927
508087
407890
456587
530995
559418
471795
284751
411554
344304
389110
219658
202336
166036
194650
367526
272264
475577
305367
405586
226061
208156
201146
256138
179707
164469
177993
193037
194819
209163
207195
172892
186748
168757
182530
197793
212301
217075
178142
192168
184385
198684
215111
223236
230677
496623
212298
264599
261249
439395
348129
521473
192810
211524
209501
225275
241790
244243
223092
202096
197620
214743
228706
253907
248086
233903
274614
226932
229034
245157
294058
296683
242845
191962
216610
206723
234066
223626
239920
251427
237492
278506
232377
248808
309188
301351
254361
207897
233951
214984
261507
240651
248937
271018
293502
244157
252288
320356
261618
270606
335591
228695
225739
246844
243382
262498
265747
283612
234730
243832
223809
259348
298880
272505
283173
321880
275147
262397
282161
383968
356385
297479
264250
370713
285617
324819
288445
327829
261724
268308
343304
300654
377502
293185
333588
274548
357263
311050
282846
293616
426619
376289
325469
241827
283157
261227
306411
281830
306393
337276
248131
290555
271422
319715
289143
310686
348687
313711
291621
374146
418140
318298
347928
453909
308144
431190
450511
373732
401310
328475
345887
445975
382656
310761
315010
284968
339982
390074
505192
486821
388267
451040
345015
388261
486828
462309
410667
357070
395417
504387
454979
490517
501177
400098
490783
467617
486964
497920
496471
404836
363979
337896
430933
522015
470615
505926
396379
468036
422183
486616
445130
480396
531799
445590
475707
504488
502368
504267
442298
500332
655796
594953
523495
528138
702940
655788
611768
457287
512595
546659
524613
506669
495540
471769
421721
525141
455181
514466
458271
499133
576202
453468
496164
508939
468107
506047
498625
466304
454323
491787
498059
495887
505328
492165
443345
522496
523838
548428
590934
595045
587431
523893
491071
510376
482558
499236
408682
479768
507744
543239
527656
471321
547955
761344
621701
655164
543498
559253
498161
549770
727033
639213
610288
617244
626531
521786
579989
827086
707871
703949
221861
210325
288819
213568
273914
202548
158817
152203
145315
164925
146933
166624
160407
179092
177357
148827
166399
173151
169173
162713
181873
186131
188849
211510
187062
200675
223282
225526
198720
200637
177386
179058
198121
221017
196215
223210
196302
216859
191811
203845
234521
229088
208675
205605
185845
181721
201185
231998
226669
205883
220232
276850
243649
244888
246191
218040
247426
223733
256300
257508
281566
250180
251414
229093
423316
654846
505824
422548
396538
507557
550958
385990
412174
276964
304492
289448
314552
311713
323033
326574
361265
348588
445038
588278
852412
607745
411166
317601
409352
282789
529687
379640
442691
490919
437316
519253
291128
339049
335888
323188
326457
361212
373699
737539
175767
734181
579924
721308
430633
514010
407889
353669
366497
400775
431761
441606
389562
397210
346933
359530
397197
425303
434582
385987
333625
353630
349898
368811
373727
390074
413925
410199
378974
366416
402872
461828
415841
447902
399296
371984
359512
399273
453935
412150
440344
302348
308096
319371
331901
352276
346897
391251
365439
465582
456279
405326
412578
458953
525439
436367
468388
518538
465254
474596
478060
426980
432742
497913
487864
498428
508945
577570
609145
226088
182508
256570
219077
247695
338889
319509
250111
239730
184908
167669
243330
206128
234240
150213
226035
243459
164078
159061
194897
165202
190107
198436
195349
174827
185078
174148
213881
204275
203010
213346
152121
157056
159553
173116
179606
186502
180020
256385
251001
220805
260270
229166
225544
256174
198031
226219
197434
212275
213056
241302
241358
199415
179884
175808
188741
165532
168923
195308
275468
278107
244747
264220
267305
234988
232895
231783
204896
224078
236519
197606
207592
214363
219389
225853
331617
318896
243135
427898
326787
212289
192769
188135
202712
207727
234465
227726
290222
292763
257674
311446
274180
273094
308915
229534
250725
230374
282035
259725
259697
281930
225317
253793
264253
252587
241573
214052
223233
197476
202760
199862
221423
215162
218099
237347
239075
268832
278898
264135
287268
255773
297067
219795
245169
225014
252742
267783
274604
246058
99998.4
90200.1
64904.5
53150.8
128671
138025
155500
132817
67719.5
65283.8
43812.7
89033.5
79794.6
79862.8
87541.6
89974.1
109816
77991.9
78757.8
97556.9
110459
97253
71228.8
80687.9
75570.6
90412.2
81805.6
88948.3
97118.9
111585
134812
107876
129700
103411
109960
136116
93067.1
80483.5
89172.2
111947
116524
99381.9
105956
157987
146454
120134
158450
133393
120280
146154
108475
125873
102059
110310
135651
133844
115572
154288
132747
134614
120688
144199
143920
124319
87160.8
194170
122701
111886
95569.9
161833
149140
223675
151904
197214
138209
116241
134680
183014
215914
259294
113864
185903
182424
225051
290046
356350
273809
202774
246420
90001.3
108190
104642
110350
113516
122073
127458
173253
158857
236892
164663
210166
182493
238212
102729
127037
128590
117778
120224
134375
142880
67894.4
80338.4
102600
84907
108368
126079
100089
165551
128807
157715
134250
142380
147925
171458
120712
144389
126595
153373
137093
142704
159412
144210
156239
129568
162283
135529
150196
175203
165626
176077
193055
182875
203018
212883
193914
190453
208560
204620
222636
217784
231699
237615
137806
138608
135030
150324
150269
153114
165236
95312.6
141462
120619
146527
141695
169573
118660
73826.4
179030
104093
34475.2
80602.4
119930
194208
82205
142337
173438
149164
164088
215466
275720
199698
249094
162986
150322
164207
165735
185800
184728
163930
66933.3
119645
112358
133321
92680.3
102357
136358
39697.2
51071.3
41838
43856.3
57975.8
68447.3
51714
166472
161863
163776
193876
189454
191808
196640
57103.1
47471.8
61976.3
79990.5
72232.5
93136.8
61270.2
133865
92725.9
125747
111887
151333
122867
142517
157098
151218
166761
188619
174103
194770
167642
182469
173254
170104
197365
210695
206047
201952
59642.3
107835
80111.3
90600.7
92547.5
118336
69059.5
117603
171321
151528
124358
176636
148287
154988
181166
230945
208090
208121
202627
232199
181563
218676
224501
254844
221395
258531
252865
227007
102920
92602.3
147148
104971
117548
131400
79866.3
133188
171386
169873
184216
144621
157622
161877
211662
193336
241207
207877
217318
235675
186452
226996
241648
267776
265199
236132
259071
232376
152242
143517
134301
149883
176563
158774
167105
173094
164734
141012
154811
187541
163169
178690
165766
107940
138118
154380
159922
187149
126571
180448
173165
157063
162827
204136
179440
186700
206559
158337
184630
174248
221412
196786
201760
170071
162238
144896
166995
207242
185987
190140
249140
202797
225760
234949
238686
214740
259591
188347
218486
204848
224752
222977
207284
239052
176625
185802
236793
176426
201355
210836
149192
254396
247541
278281
260206
308365
270747
290451
225773
237506
220714
246481
278120
262288
256053
154572
188009
186790
167488
169509
182329
201741
183243
198419
195508
170486
173371
185726
211646
148950
179494
181055
164652
163836
179479
196015
3542.54
47619.2
58554.7
9327.84
122641
138551
111226
119314
4493.57
14116.9
17567.9
35713.8
39028.7
56518.1
53079.5
22579.6
38445
25423
64438.1
49297.4
62491.2
70982
73773.3
43704.4
71877.6
77567.4
85173.4
85864.2
75677.5
117143
170539
184435
101155
140874
136435
101377
72792.3
52454.6
72895.5
77420
87334.7
86439.7
78008.9
107260
107305
151527
100312
128316
131206
100514
95974.7
101403
119112
118999
118036
100986
95966.7
96147.4
103570
120540
119711
118049
101284
97723
87258.1
86250.9
147183
191690
133287
141305
168907
127933
85071.3
100404
98163.6
98321.3
101546
114647
113884
86762.3
104618
100881
99018
102906
115685
118083
154526
139775
152980
118536
131701
120290
133271
142515
113213
128500
129413
113235
129057
144006
160725
143614
157018
124738
122029
135019
138130
116081
130488
113717
130154
148832
145705
132851
167302
145761
184681
182969
160832
147213
162330
175416
171517
187454
149233
168307
164634
152605
170100
197289
204263
212862
179100
187410
194545
192380
238942
243475
231427
213000
212857
221349
274109
330389
322512
314516
290202
290812
304912
247343
254343
290317
246257
229208
262526
273189
209328
216177
190109
203435
252936
223887
230657
184283
227563
200477
200458
246479
217837
227541
202744
199857
221418
197452
237332
218070
215152
294501
334870
363710
293438
360841
318330
332166
248120
238227
269007
272443
241372
262057
296304
246189
274704
252345
269462
241869
263099
293363
219938
235831
268347
259948
243135
259953
286540
268989
296273
262032
219357
272391
241329
248081
284139
309979
346907
299921
308249
275861
319316
348632
386084
514048
244496
236180
216538
298564
204643
230229
246257
353306
185323
373751
248103
282599
239412
137391
274266
204014
163783
178462
157236
171434
177987
191719
198888
525511
390113
296391
287107
219587
366194
270614
217659
261101
389006
536077
308103
246186
331576
165397
170088
166884
195339
192495
224074
203212
337301
398951
609316
380107
274603
362352
262992
182055
193960
172037
196531
186281
207986
219251
182137
226788
224563
207642
204998
232249
249063
209301
228159
201993
241508
214922
222861
250357
191306
224329
198294
239015
212076
219933
247839
264810
207897
228811
258178
281277
294662
242253
201628
254928
222539
254958
275689
287808
239457
234256
241274
238921
255579
252176
262573
275539
255247
303765
298355
280210
275185
301553
332957
194107
208957
208584
223916
233433
232946
249503
259226
246412
218605
232916
275654
245409
261582
218108
234125
207143
229837
272830
242086
258960
268359
252766
236378
262465
308982
277031
295852
259552
247853
230871
259582
303056
289627
274293
275026
309001
303724
303966
308761
341429
341051
289504
361310
314643
311743
323060
326652
277045
264267
265514
236132
245009
311549
274428
275720
312681
266670
281050
322726
290182
304640
340307
261243
300592
273721
315921
287122
300590
331347
225837
263082
241836
274704
252330
269427
293346
268926
290061
296841
293353
300648
331406
323656
344968
341938
309504
333786
420750
372991
374925
275027
294610
261860
293314
260682
279303
316135
291187
361267
339127
335916
323217
304547
326542
328060
329869
298853
328047
405460
362178
366189
231427
279321
247519
290125
256976
275072
312265
349933
396772
348657
441970
386531
385781
443591
338575
380062
338478
426799
380123
380087
429177
256183
329051
304641
305963
270058
287550
288881
302073
341907
384143
297459
266928
290248
326159
363618
333665
297763
269963
301154
288237
323002
294383
326801
369682
317205
286680
260418
286691
353683
349917
317634
333632
413952
368820
373754
327294
328474
287258
309149
441305
359351
358368
282775
352296
319363
302313
391234
331885
346861
290217
302013
266878
297407
384089
326125
341841
329234
382687
378236
373278
437432
367465
432492
321896
368570
329448
368594
419386
418623
362370
365432
465646
458980
456297
405330
409363
412593
442239
504516
531424
500507
455909
484280
488066
396305
480296
422125
486547
436197
467979
531710
461789
388006
431763
477363
431743
461771
517613
498485
577714
487910
498057
430691
432815
509116
472270
405675
338474
502005
405082
471896
536042
511668
372147
464835
517268
426741
488494
519959
385357
372893
340231
474483
400368
458818
524532
423562
496372
421982
524507
508290
609507
579311
523550
365785
449652
373096
438472
359642
319353
579332
609617
496427
422051
524602
423615
508452
338415
501931
471834
472196
379596
405577
404996
547806
543075
471256
527579
761069
623213
621547
519600
454814
517724
517699
726095
607689
595692
533332
528329
479632
521133
674121
583843
592497
599073
733820
631178
809097
707349
727500
731163
601132
690654
570530
799570
690564
721238
750525
511435
426132
365324
473519
459400
514634
497172
534347
444119
531299
528757
461234
527943
522991
527920
537935
498131
527898
400376
513702
487192
503570
456961
517570
530834
363772
499638
480180
656189
850799
854426
848732
796793
754609
796759
631837
574367
619732
650318
365823
535773
560581
602077
844675
830029
838983
735434
705123
721974
550118
657597
605049
657578
415969
550135
600008
250212
535717
311104
292265
240910
386651
331991
313285
492434
362302
505840
266324
405890
345498
480383
437355
365029
490691
244561
264068
257945
282186
275727
292099
299449
238537
251319
253922
268827
271577
287334
284289
257351
271937
290387
282043
300962
309185
322493
486416
277019
505958
499767
426782
381941
135304
461711
460490
707613
754856
790736
317683
384553
277719
312935
295308
334420
315058
341433
369688
316637
274365
277329
319119
377178
315725
381361
321724
373644
313832
339522
439385
424682
350183
289282
322519
282038
325070
406545
390610
334705
366041
305638
308802
333203
412074
415810
329748
336346
336811
362517
370991
405612
411228
465969
332399
432664
347787
457951
366360
390111
478389
298956
365401
311980
429675
348739
370000
460005
382670
488991
338553
495866
529975
467728
361944
463907
310777
348158
340013
315059
285006
390121
446005
395455
354707
329764
401291
515843
444239
491463
462986
406722
371548
423773
499316
464369
494569
461436
518404
549775
530831
565792
636106
662896
390006
477305
502609
481848
482789
385886
479327
399273
493450
495387
498827
486936
485625
415408
372146
488471
422493
517289
464832
511648
519981
450861
540640
531593
551742
561915
627692
559125
531271
523112
423867
405367
357010
460225
513716
454259
491720
505304
492167
443360
498069
521451
534780
506989
397048
441407
345440
397063
506997
499067
505492
438434
466391
458993
499570
511440
391910
523613
445228
522602
490604
520356
505049
453803
497435
497996
485509
499194
511926
446277
105973
331526
527969
462817
340252
514822
318895
486061
373068
288231
297768
269967
301164
322998
333678
363617
470259
532615
444913
101322
104306
387093
114971
427075
452880
378814
360753
331573
378822
427073
438455
359634
319337
449605
365763
427876
523536
400411
458807
372889
474533
385383
437309
524527
493308
423380
491808
466353
510740
490871
508842
599374
727683
631491
809292
737944
734065
731214
685423
702200
692588
796360
771042
729265
650497
461316
534385
523063
528751
531294
444076
519235
531357
527215
538623
532617
536567
458355
517899
539004
539015
519873
537717
512238
422761
512232
517905
536560
458330
538610
527211
531364
462818
532872
510068
425770
535860
502383
473218
534057
512432
384081
262516
458183
384036
520882
512406
530871
529789
503515
517646
363997
480283
457168
459663
504420
518755
495570
250361
371972
442287
495243
442715
227369
369721
441172
521444
507456
574383
650358
619917
631847
365662
560485
505727
529095
540431
620763
597209
229799
420598
457618
454226
420789
509130
483866
179686
341263
385687
168674
197960
144391
228109
218118
170470
242294
226003
208291
173127
168064
229836
221548
197620
201794
182653
157766
161721
198150
209969
192252
188658
138403
159451
144455
139198
143497
170443
161060
246979
261100
262317
249112
249339
226992
224806
146251
140752
143578
171298
167643
163429
174452
235326
256260
258707
248751
248480
221502
219842
224912
197393
210019
208185
182692
198188
184481
231667
192021
213261
228128
187445
199727
203141
393724
277070
360809
246242
273007
237708
376587
341931
281178
280695
272199
304779
306340
299390
297762
283720
274424
281988
313714
309112
302196
306957
253957
252470
235658
282862
265181
280885
267580
260685
241079
256572
285998
276913
271236
291008
336061
379765
338461
331226
367770
370872
328833
349197
385093
342545
335112
384088
375892
341583
314306
345162
297744
349216
352212
311771
300610
318104
364769
311669
350898
357044
304902
324126
808547
816265
802485
746114
458326
670714
650137
326613
535475
480148
159042
347752
482536
331498
250426
444896
535200
137648
305277
469737
305279
245724
395241
283228
124605
221840
511734
424403
650039
789887
810913
701637
319913
527823
605342
159066
347778
470290
326688
480187
482547
535485
209544
426031
517890
440735
240696
124050
282783
203230
344037
146825
107820
138024
253353
458925
355238
375323
173933
530015
140640
550827
662286
107681
101395
144927
102106
276201
360724
471085
290190
128371
147320
463243
314738
359301
443618
104026
472379
404376
481133
270300
119400
484096
102397
416198
432137
103218
356772
101330
361585
393644
395789
448056
447776
459969
460813
412641
383306
414362
102263
401977
454875
103563
366530
409508
400757
451846
448920
459933
460663
605054
785659
792754
426960
455948
564887
623134
388013
421178
435480
455895
459918
461659
461004
318778
435502
381963
101333
101832
519484
190055
463628
429637
431056
463475
452370
449488
465085
423110
469818
452350
460747
462691
455577
442791
436382
465257
468426
474603
478090
518553
507580
442403
466176
435044
461616
437451
444868
458804
801739
607730
828222
735579
479668
694368
730519
442277
500522
504562
484292
488107
531442
550984
311215
434308
432197
411594
265595
260918
414265
464599
476874
452573
426072
453922
445125
409152
387516
492267
480558
482744
493581
512507
515460
331594
138081
211529
101299
106236
110394
220433
423002
303357
428541
406424
234566
250788
398098
482619
465090
481538
449381
426606
420612
385400
396784
505850
499004
489212
498284
508978
503235
424542
282769
513708
110089
248248
101299
107103
563482
505906
516800
563491
605332
619471
550838
101308
527348
203625
123571
290361
106874
101298
483530
481011
476274
430359
346338
384375
407429
414771
243289
402617
212438
385664
367599
186017
512872
576702
523961
567749
618154
632598
555364
465108
513565
509664
516959
517367
492728
473967
521174
528344
533378
583864
592562
588308
674174
200680
101332
113414
411859
802600
705477
148104
579500
548833
529552
579508
688106
642996
605067
557340
593254
537058
583924
709425
658894
610669
358290
209848
384772
341084
132091
158086
302868
377706
144001
327720
203469
322466
198796
381404
468070
468052
484997
328085
389487
328110
243894
495912
497066
501922
516356
513449
442128
389620
532873
535871
473185
510097
534085
502472
425848
370077
293068
174820
137276
311443
189152
357553
463170
451826
480621
289503
371967
316004
216727
537946
527898
498182
527920
487208
490877
400374
266129
156938
338903
312217
112004
231245
137648
394395
506311
502854
435113
252227
441938
242435
514420
448105
511645
451795
307839
296827
458376
781912
712017
694981
622369
704879
721351
608332
489651
379402
497876
421927
195196
223006
400431
777720
855323
791971
585292
668092
662310
791995
503267
435329
508450
439339
241737
274926
419088
602146
839021
844777
705166
722103
830075
852415
597430
824507
693535
796372
672533
804632
848522
318479
117650
261469
115032
249470
189359
106774
511308
461328
468145
396575
404592
307674
205813
481435
430707
300324
493577
249161
501929
513696
507538
324128
364752
339456
373801
406063
432879
483241
405318
460152
356947
488928
423770
523106
531338
507757
473858
499726
461334
515694
517041
416031
402049
527181
454743
522433
508246
528845
501762
537695
531872
510847
522461
359279
484748
452206
369856
441307
521499
495390
227542
442870
338787
746039
791836
787666
646826
796347
753748
693341
475791
268106
453257
163494
367899
319712
134585
493470
333891
475095
199669
387776
341437
156267
357811
148121
218795
286951
371851
503440
471886
274000
110968
152701
107029
191110
121385
225387
262877
369272
428385
237041
115290
151375
160626
746154
816279
808581
670698
650076
734141
458199
101298
118538
101644
101298
101298
102199
101298
129504
101669
101298
101299
102220
101298
101298
469769
469798
532687
433062
279828
279871
139619
402813
427757
521105
288708
456892
259218
125244
442747
283352
511792
221996
395342
245792
124637
425977
440731
517865
209466
387003
240678
124043
153334
208502
417371
254549
106656
115633
183317
107250
139300
194574
139310
101862
112746
103219
266360
389747
443170
275162
109535
198374
124970
865132
598785
783903
855264
824685
865123
783877
785530
559895
727956
824321
782848
854215
769984
344186
253450
458998
361992
146848
203304
107827
447618
141842
336377
136047
326520
188664
107439
105544
123354
174575
133152
101689
109137
102895
842672
848776
842612
860704
533623
770516
767246
466226
171660
377291
175750
298314
131180
107228
113379
149999
103997
189297
125051
305918
411422
321139
160137
274690
225932
121037
105192
426667
192620
590331
403448
379654
175686
169335
108936
379827
169402
108943
411918
192652
403527
590368
149844
304711
126021
104421
126149
237778
505854
119058
182892
106358
102989
131035
109266
101752
283314
103280
126654
136578
132213
294059
123560
109416
132869
306527
103791
137297
110656
101931
262002
112445
116415
102793
124692
118260
230168
101763
155339
106964
165193
106963
342095
155333
105835
298922
143213
128949
101605
104307
104200
156891
146252
320999
135495
101633
105177
104383
476559
546281
743072
244650
110016
546211
200633
101605
104197
128936
105833
143177
298876
144915
107667
109717
190489
151107
101549
104429
105373
274199
114833
266033
794285
245272
578607
583200
404274
149030
438976
195642
510114
180029
106514
104062
133585
239305
114960
103522
102528
101488
236476
115059
114483
103248
103290
102294
101440
102529
101488
103523
118542
104062
239351
133589
111702
101419
101443
101981
103833
104356
101812
119481
108577
102266
119489
101418
103521
102266
101798
106003
180540
115705
101376
102074
102711
170828
101845
106005
114215
101386
102091
102756
184768
111651
101943
115105
101390
102144
102798
103652
113482
103179
101906
101314
101414
101391
122821
101755
101399
101864
102586
108963
102937
102522
105938
101556
103166
101320
101672
101404
129797
103139
101653
103445
101325
101440
101715
101461
102046
101333
101461
101300
101331
101306
101934
178055
109882
101790
101345
107678
101934
106722
104315
101635
106254
101330
101606
101810
101807
101384
101302
101429
101299
101319
101304
101894
102021
101334
110694
230827
108950
101766
101436
101464
103659
101908
101301
101340
101334
101333
105484
101717
101327
101580
101322
101300
104812
101324
101540
101324
101541
101315
101300
101580
101644
101333
101301
101327
101717
105482
101313
102665
101507
101305
101395
101313
101299
101343
101305
101417
101302
101361
101307
101299
103282
101311
101318
101308
101526
101405
101481
103050
101318
101310
101309
101403
101488
101482
101353
101307
101440
101303
101378
101310
101299
101356
101306
101428
101303
101366
101308
101299
101437
101299
101300
101300
101308
101325
101306
101301
101298
101300
101734
101301
101325
101341
101298
101299
101298
101298
101298
101298
101298
101298
101298
101298
101298
101298
101298
101298
101298
101437
101298
101298
101298
101302
101298
101298
101301
288566
101298
115684
248843
451966
297965
101320
101299
103287
531767
522337
510904
537649
484594
501783
359015
101324
101336
156875
101298
101298
101299
101298
456803
259093
521022
402652
427599
220249
125204
113335
189082
411176
305668
124986
149862
103989
131053
290000
465999
107209
175559
377040
171469
106233
146210
320927
135467
105175
104380
101633
180409
102073
105994
110373
101376
102709
101797
129457
115027
236285
101440
102292
114451
103245
101555
101404
102517
123479
103158
101671
105923
101920
102501
106444
101553
101357
101329
101305
101298
101298
101298
101298
101298
101301
101298
101541
101669
104808
101315
101540
101324
101300
101757
106821
101757
101330
101671
101330
101301
101298
101298
101299
101298
101298
101298
101298
101311
101308
101405
103281
101526
101481
101318
101305
101302
101343
101307
101361
102104
101417
101338
101324
101539
101300
101310
101299
101298
712438
716635
431920
454063
511756
680263
594787
478421
507923
611062
705296
541963
445561
271194
290859
453149
468773
302865
315835
491758
302013
347707
479158
527885
324978
367599
495496
321296
332489
767549
774025
429107
446094
572718
341153
384035
779321
764643
458206
530954
275178
288380
291550
342621
323863
339536
327394
606412
366608
430737
552972
698211
387080
461676
281752
306052
297491
348319
342205
356442
333502
316985
315148
329585
353322
366893
378848
366302
613767
467491
565073
247904
121855
470164
520830
290531
305077
293307
340217
347143
337341
349665
305709
309261
298405
345542
361843
353287
354448
330471
360354
344085
392214
396009
407132
380707
315302
336669
327348
371905
363425
376083
384572
322951
348288
349659
365092
367292
397437
395340
715311
484147
497837
729472
705230
512947
529556
395973
434156
378962
443045
445312
393162
382292
770331
404498
486541
735281
454414
575666
774945
401063
438792
395638
455882
449727
408279
387971
358407
350848
341731
391035
417321
408044
399719
326470
358612
352909
378944
371750
402050
409621
394583
431898
396240
454332
504272
451866
507810
406339
437382
399985
459863
528503
469071
515528
378055
386803
397046
412688
423314
441063
430981
665127
507416
555327
683265
520715
541599
614120
405210
463629
417290
427550
464113
472885
416347
367014
352482
378427
389086
401951
420656
435202
393063
443898
455868
398448
446492
390223
401130
172386
624348
769074
108112
101407
517606
331756
398439
458645
461117
414103
451496
406299
406318
415450
475130
427914
547867
482576
501419
576106
377461
409302
398950
437400
426803
447259
460085
439170
476097
442278
500404
484864
452213
428718
467870
424445
416396
428456
492200
479228
437199
366758
412562
393443
436613
417694
453963
477585
407834
440270
417753
461281
476275
485556
451792
488810
462829
489041
580718
615741
580014
606193
442112
510364
508227
469971
493201
457849
452283
467603
498587
444770
527153
667570
561902
616410
447820
434110
422426
470473
514954
496966
485710
486299
492052
494034
557573
549795
555375
552011
458075
519701
467732
487142
535315
543122
477904
632776
555538
577124
124308
112587
769839
747887
481052
417456
419950
461474
545737
548617
458907
486728