/*--------------------------------*- C++ -*----------------------------------*\
  =========                 |
  \\      /  F ield         | OpenFOAM: The Open Source CFD Toolbox
   \\    /   O peration     | Website:  https://openfoam.org
    \\  /    A nd           | Version:  9
     \\/     M anipulation  |
\*---------------------------------------------------------------------------*/
FoamFile
{
    format      ascii;
    class       volScalarField;
    location    "0.00165";
    object      rho.air;
}
// * * * * * * * * * * * * * * * * * * * * * * * * * * * * * * * * * * * * * //

dimensions      [1 -3 0 0 0 0 0];

internalField   nonuniform List<scalar> 
13678
(
1.63609
1.22772
1.46634
2.58115
1.2252
1.22917
1.22501
1.22506
2.15585
2.54238
2.70236
2.03137
1.6125
1.556
1.32528
1.32302
2.19434
1.63593
1.25044
1.3354
1.25042
1.23047
1.28893
1.57368
2.03804
1.23897
1.30003
1.24592
1.22852
1.30125
1.2262
1.24853
1.226
1.24453
1.23046
1.22527
2.0741
0.600021
0.442868
1.7815
1.11203
1.20048
0.0272226
0.788764
1.39589
2.06136
0.12312
0.520108
0.221557
0.217033
0.737069
0.0866703
0.356767
0.595892
1.35189
0.760681
1.02592
0.780803
0.982016
1.78833
0.780859
1.59756
0.796911
1.00486
1.06356
1.8949
2.24825
0.0409928
0.0330182
0.0505895
0.0452525
0.0674603
0.0821776
0.0545914
0.116702
0.273784
0.817748
0.190526
0.705952
0.570915
1.08233
0.176951
0.101654
0.081177
0.266679
0.128773
0.158304
0.322481
0.0652257
0.0548473
0.0417727
0.103648
0.088526
0.133779
0.0684554
0.518238
0.407598
0.339168
0.469358
0.666698
0.746054
0.54441
0.720276
0.636344
0.674766
0.858501
0.805363
0.891684
0.950234
0.878086
1.1092
1.99637
1.59335
0.95297
1.38364
2.82175
0.0751579
0.169063
0.108401
0.129595
0.144516
0.198023
0.0895732
0.77365
0.698535
0.688761
0.875981
0.889656
0.966823
0.97808
2.74024
0.880162
1.51512
1.42638
0.845251
1.96359
2.74997
0.281609
0.174413
0.131993
0.199293
0.475431
0.252456
0.393237
1.14201
2.16263
2.53464
1.83435
1.68291
3.28624
2.95805
0.685564
0.585919
0.491551
0.837177
0.727772
0.934115
0.633033
0.0740979
0.101706
0.156776
0.117038
0.173906
0.224789
0.156085
0.289511
0.383032
0.197728
0.236017
0.584054
0.334742
0.445913
0.159364
0.174967
0.289016
0.139901
0.199256
0.237519
0.110502
0.864907
0.923051
0.818235
0.993403
1.19527
1.10459
1.0638
2.17521
2.33742
2.73087
0.922405
1.60265
1.17941
2.15945
1.06784
0.256282
0.788403
1.28147
0.718911
1.66567
1.18821
0.229433
0.532854
0.295197
0.562591
0.316304
0.387928
0.648953
0.622034
1.01893
0.833705
0.913223
0.861434
1.09856
0.698315
0.997998
0.884909
0.878646
1.2196
1.08224
1.0934
1.23249
0.286123
0.658097
0.459091
0.603324
0.347143
0.391762
0.521255
1.22689
1.08031
1.00042
1.08971
1.46476
1.3203
1.17977
0.851124
0.778054
0.719513
0.974776
0.912195
0.995878
1.05767
0.139885
0.268724
0.207462
0.286752
0.275767
0.361306
0.208028
0.354053
0.180252
0.250257
0.313474
0.348975
0.434999
0.234165
0.684085
0.778734
0.974496
0.821092
1.03197
0.908816
1.12815
1.0326
1.25696
1.14675
1.34493
1.22267
1.34524
1.51312
1.10485
1.42754
1.12462
1.51758
1.20603
1.2245
1.55161
1.00502
0.942815
0.87471
1.28768
1.10222
1.19076
0.78537
0.620953
0.44518
0.368122
0.464515
0.814662
0.545644
0.732623
0.842185
0.991199
1.06749
1.07298
0.995934
1.26471
1.25717
1.19696
1.61112
1.56305
1.45771
1.3153
1.43408
1.30655
1.01411
0.896946
0.947512
1.10724
1.3108
1.24356
1.16991
0.535161
0.68664
0.416722
0.492944
0.900436
0.620005
0.768831
0.855909
1.12046
1.03989
1.0885
1.01004
1.28528
1.32642
0.390805
0.446917
0.397759
0.653812
0.534491
0.48584
0.305144
1.1328
1.28834
1.38115
1.30133
1.39747
1.57234
1.59625
0.341737
0.341733
0.430411
0.364128
0.452457
0.565087
0.479206
2.55505
1.33673
1.04009
2.01258
1.49367
3.50062
3.1434
1.6834
1.50463
1.33927
1.3589
1.9569
1.52872
1.72483
0.986273
1.1737
1.09043
1.16589
1.25326
1.3947
1.49717
1.46552
1.22695
1.14919
1.24634
1.75406
1.59598
1.33086
0.575745
0.987704
0.936062
0.822547
0.715167
0.667491
0.851078
0.866998
1.16513
1.06925
1.07964
0.993623
1.22456
1.32646
0.525572
0.870961
0.61249
0.89779
0.634319
0.736105
0.988374
1.1491
1.36447
1.30727
1.48556
1.40832
1.61214
1.70927
0.961015
1.3872
1.19973
1.19457
1.04494
1.29764
1.49222
1.41801
1.38676
1.26464
1.47206
1.89641
1.60712
1.69748
0.677034
0.453991
0.541136
0.700977
0.796677
0.858696
0.625224
1.70293
1.63156
1.44171
1.57566
2.23606
1.85364
1.82664
1.07214
1.50412
1.39706
1.26764
1.36202
1.64081
1.83048
1.38003
1.97318
1.66996
2.04754
1.55347
1.78614
1.47587
1.43584
1.17808
1.18495
1.52585
1.89962
1.91404
1.5151
1.46975
1.71888
1.4899
2.06698
1.79844
1.84151
2.15564
0.517173
0.792145
0.601688
0.738685
0.886002
0.946952
0.664229
1.47997
2.00784
1.4297
1.73395
2.41377
2.35381
1.80181
1.24208
1.46238
1.20388
1.55566
2.04155
1.95759
1.61461
1.97412
1.39543
1.40447
1.69956
2.31637
1.68763
2.32345
1.70654
2.2693
1.74071
2.49871
1.9501
2.01141
2.66415
0.832567
0.961162
0.712856
0.855499
1.21867
0.994863
1.09352
1.02835
0.944043
0.771832
0.891998
1.31216
1.08246
1.13326
1.26763
1.12885
1.16778
1.37912
1.43693
1.26227
1.55654
1.28529
1.21958
1.13052
1.40045
1.73314
1.60681
1.51215
1.5624
2.30839
1.68399
2.49782
1.91057
2.06303
2.59255
1.30546
1.73444
1.39971
2.17011
1.71092
1.85229
2.33512
1.56776
1.73831
1.49815
1.87469
2.40629
2.2314
2.01193
1.51906
1.99272
2.11855
1.6655
1.75466
1.92145
2.37747
0.894611
1.01963
1.0706
1.32885
1.12233
1.07116
0.832984
1.71673
2.50983
2.28739
2.2104
2.02031
1.87102
2.04345
1.93106
2.37716
1.77842
2.082
2.78473
2.73152
2.26607
1.14526
1.90817
1.50078
1.74452
0.749852
0.643188
0.461011
0.618867
1.64527
1.10527
2.33097
1.26046
1.84165
0.786315
0.670341
0.665578
1.01017
0.532614
0.461699
0.532427
0.62523
0.62522
0.704989
0.703863
0.473842
0.550095
0.463289
0.536568
0.629413
0.71136
0.728666
0.498272
0.578513
0.539796
0.6246
0.71445
0.760723
0.810986
2.52054
0.744729
1.08618
1.06933
2.10216
1.63309
2.69069
0.61788
0.721757
0.719861
0.802815
0.919289
0.923115
0.800418
0.641324
0.624727
0.729802
0.811724
0.960892
0.934987
0.832954
1.10805
0.829633
0.830814
0.923918
1.22927
1.234
0.921286
0.596795
0.761132
0.686575
0.852146
0.775731
0.879639
0.965129
0.856029
1.11903
0.837711
0.933746
1.28534
1.24987
0.956695
0.673464
0.84234
0.723983
1.00503
0.870421
0.927712
1.07141
1.19025
0.888459
0.93905
1.34515
0.99605
1.05619
1.43623
0.847802
0.835678
0.943412
0.949056
1.05204
1.0682
1.1926
0.873821
0.917505
0.791602
1.00539
1.27563
1.10286
1.16133
1.36247
1.10173
1.00996
1.13965
1.73402
1.56446
1.24848
1.04278
1.65487
1.19042
1.40388
1.19669
1.41124
1.0385
1.056
1.4804
1.25106
1.68441
1.21445
1.43356
1.08462
1.55818
1.31236
1.13284
1.2058
1.9768
1.67342
1.40522
0.94201
1.21533
1.06939
1.34565
1.18316
1.34572
1.54194
0.970906
1.25579
1.12146
1.41926
1.22202
1.36918
1.604
1.36349
1.21716
1.68158
1.94526
1.38792
1.57075
2.18074
1.30715
2.02167
2.14245
1.70736
1.82959
1.44196
1.5356
2.16381
1.80812
1.39672
1.42117
1.22516
1.55676
1.84799
2.63302
2.42536
1.80708
2.16226
1.55542
1.80715
2.42539
2.23647
1.9273
1.61886
1.84544
2.67288
2.19075
2.45805
2.60137
1.84976
2.45918
2.25022
2.7478
2.68207
2.45486
1.91815
1.6991
1.52865
2.04536
2.67584
2.28204
2.51235
1.22415
1.6393
1.50034
1.50408
1.37179
1.69191
1.85752
2.10411
2.74148
2.50654
2.60554
2.50986
2.0913
2.60371
2.89429
2.60992
2.24748
2.36895
3.4219
3.08682
2.81857
1.03029
1.40851
1.44684
1.46558
1.246
1.19337
1.25669
1.31536
1.87559
1.6336
1.62337
1.42407
1.77008
2.04634
2.14473
2.65425
2.58675
2.73943
2.53528
2.6194
2.22201
2.76752
2.76079
2.46894
2.75202
2.64412
2.42768
2.12427
2.47055
2.93716
2.88803
3.23245
3.05044
2.88366
2.61685
2.70088
2.65597
2.33495
2.47097
2.69022
2.74032
2.72975
2.24205
2.03038
1.83281
2.11668
3.06922
2.36419
2.69266
1.7145
1.78731
1.5532
1.93482
2.58617
2.26926
2.14882
2.56871
2.4327
2.04525
2.24855
3.38584
2.70224
2.89739
0.680849
0.69599
1.20103
0.65076
1.13841
0.668847
0.406448
0.324262
0.310917
0.403697
0.30989
0.403208
0.405965
0.509063
0.508845
0.310907
0.423785
0.422464
0.406517
0.408964
0.514412
0.532161
0.516554
0.649549
0.516446
0.631524
0.774444
0.776983
0.630332
0.667457
0.524633
0.524886
0.638395
0.794445
0.6372
0.797007
0.54087
0.658872
0.522165
0.639379
0.812925
0.787722
0.660426
0.676297
0.546698
0.529926
0.645883
0.83101
0.807138
0.666068
0.773086
1.14493
0.93193
0.947651
0.936183
0.770617
0.951869
0.78345
0.980091
0.994921
1.16346
0.950092
0.965518
0.807852
1.09284
2.69158
3.05492
2.07417
0.623958
1.20063
1.57025
0.587554
1.05529
0.237103
0.759928
0.32229
0.327606
0.321744
0.41056
0.416429
0.527114
0.439169
1.37135
1.88672
3.47532
2.48605
1.45379
0.993435
1.64163
1.17251
2.83356
1.84419
2.82874
2.9207
2.16188
2.6271
0.505664
0.85353
0.845623
0.593098
0.59882
0.699466
0.945194
3.22476
1.69907
3.5172
2.95
3.33681
1.78015
2.48906
0.699798
0.453006
0.54017
0.676318
0.795763
0.857844
0.599258
0.665383
0.434896
0.523089
0.665145
0.768056
0.830584
0.5873
1.19592
1.10219
1.08902
1.31809
1.33876
1.20091
1.46551
0.854527
0.960565
0.71203
0.831979
1.21817
1.06744
0.994155
0.821511
0.940305
0.695609
0.821316
1.18905
1.05515
0.967522
1.34342
1.34133
1.4127
1.5395
1.6286
1.63076
1.90152
1.41063
1.90635
1.86227
1.57122
1.60334
1.77829
2.16006
0.83722
0.986577
1.24752
0.971072
1.0221
1.03782
0.774828
1.84603
2.13411
2.08275
2.21433
2.2718
2.51194
2.77961
0.632617
0.59982
0.773558
0.640355
0.779885
1.47204
1.155
0.810125
0.859874
0.416713
0.268429
0.669651
0.548367
0.678104
0.282795
0.404919
0.633387
0.217027
0.217341
0.299948
0.27109
0.301557
0.363732
0.366419
0.336333
0.421409
0.340742
0.533666
0.443288
0.447496
0.53776
0.23481
0.337097
0.289334
0.372317
0.319126
0.383013
0.432738
0.533695
0.539938
0.408287
0.613348
0.478183
0.481631
0.618301
0.509178
0.628821
0.504771
0.597841
0.602069
0.729255
0.733429
0.588351
0.43574
0.478449
0.506761
0.404127
0.357968
0.461787
0.822024
0.817625
0.665898
0.715019
0.710474
0.567624
0.571536
0.684616
0.54731
0.616772
0.559244
0.482852
0.426414
0.496911
0.831023
0.83159
1.5463
1.45866
0.938757
2.11877
1.51848
0.676995
0.520056
0.558812
0.646853
0.610561
0.739798
0.77549
0.939379
0.934346
0.769614
1.06445
0.882201
0.886884
1.07181
0.697847
0.815535
0.702531
0.966029
0.839857
0.844886
0.973336
0.717429
0.872398
0.830183
0.726094
0.771515
0.627488
0.58343
0.701207
0.705814
0.695411
0.812762
0.805858
0.817715
0.936176
0.817218
0.987576
0.945874
0.892476
1.12094
0.930341
1.0776
0.745753
0.822816
0.709944
0.851096
1.01985
0.980437
0.887944
0.17248
0.113003
0.0530034
0.0325094
0.211946
0.191056
0.338338
0.230598
0.0531963
0.0453007
0.0223977
0.0833598
0.0577496
0.0646114
0.0881121
0.107988
0.161364
0.0784656
0.073203
0.116146
0.166216
0.12079
0.0709485
0.100977
0.0802192
0.112863
0.0821727
0.106468
0.141635
0.130265
0.151915
0.100452
0.152422
0.102948
0.133816
0.193979
0.133126
0.0967202
0.131263
0.187303
0.231041
0.141003
0.180814
0.315787
0.246402
0.172965
0.320483
0.235301
0.177594
0.250764
0.156089
0.169676
0.119894
0.153523
0.258205
0.213722
0.193639
0.383423
0.255685
0.3012
0.198655
0.316596
0.270683
0.242495
0.0203216
0.495644
0.288013
0.229844
0.145058
0.456362
0.40073
0.816556
0.360544
0.615389
0.276625
0.0436967
0.0480214
0.240024
0.129017
0.600639
0.0344428
0.303577
0.39176
0.610046
0.919216
1.34042
0.834595
0.504844
0.797111
0.118698
0.17465
0.159029
0.192993
0.206548
0.224759
0.263789
0.531231
0.467905
0.911703
0.508248
0.763157
0.599931
0.949643
0.181739
0.294854
0.30558
0.238718
0.25072
0.315611
0.376557
0.013069
0.0172801
0.0286628
0.0187805
0.0307759
0.0438955
0.0257133
0.431878
0.253694
0.400362
0.290532
0.314942
0.357388
0.476123
0.210897
0.325785
0.252828
0.364738
0.287591
0.332848
0.415019
0.112572
0.16255
0.0643579
0.167131
0.0678042
0.0986848
0.231391
0.245975
0.324551
0.478853
0.331953
0.495364
0.585511
0.420385
0.469995
0.587318
0.561945
0.617603
0.588505
0.68576
0.717095
0.359182
0.368654
0.354192
0.430233
0.438538
0.444484
0.519133
0.0238999
0.0608977
0.0414878
0.0636515
0.0536515
0.0922621
0.0366017
0.0148825
0.384612
0.0302175
0.00613684
0.0159556
0.0337689
0.255475
0.0168603
0.0506812
0.310525
0.0968105
0.246715
0.456481
0.804673
0.237072
0.489847
0.188164
0.0729049
0.149656
0.112045
0.210901
0.259324
0.143304
0.0120771
0.0375039
0.0273695
0.0456134
0.0194104
0.0250668
0.0601537
0.00700225
0.00886603
0.00726723
0.00787833
0.0103341
0.0127781
0.00931611
0.265417
0.199795
0.215858
0.296407
0.274305
0.332545
0.358071
0.0102934
0.00835519
0.0112631
0.0165134
0.0143185
0.0221714
0.0113556
0.076636
0.021603
0.0527833
0.0335804
0.117817
0.0470194
0.0830956
0.180727
0.131502
0.241622
0.326228
0.253467
0.407008
0.190136
0.409574
0.33147
0.308856
0.407431
0.523587
0.494409
0.43548
0.0111115
0.0249967
0.015692
0.0194417
0.0203835
0.0309733
0.0133139
0.0313899
0.113967
0.0727695
0.0398993
0.146431
0.0638251
0.0946327
0.163831
0.391169
0.289055
0.350183
0.294331
0.46318
0.206789
0.369175
0.397684
0.522818
0.43904
0.602531
0.569097
0.469496
0.0253763
0.0213509
0.0546175
0.0256926
0.0343871
0.0403785
0.0165124
0.0531225
0.176113
0.115185
0.192909
0.0739077
0.0843832
0.128068
0.429249
0.345197
0.642131
0.368666
0.517857
0.54936
0.268089
0.525545
0.654235
0.764392
0.698719
0.621838
0.663398
0.557389
0.387441
0.370064
0.307176
0.391031
0.54992
0.457358
0.478453
0.518498
0.454473
0.34085
0.413177
0.603184
0.477777
0.53467
0.0755334
0.0287911
0.0460483
0.068275
0.0644143
0.105163
0.0402891
0.51618
0.47696
0.388861
0.435576
0.666969
0.527329
0.563935
0.332885
0.104889
0.158328
0.148129
0.420554
0.317992
0.214144
0.226625
0.138045
0.0951141
0.141807
0.396311
0.197668
0.308985
0.737346
0.434337
0.55287
0.703106
0.651379
0.53003
0.832853
0.41172
0.658944
0.567719
0.67686
0.611235
0.514617
0.769908
0.0973141
0.0912333
0.195599
0.0842348
0.136857
0.144957
0.0579078
0.756929
0.721389
0.867743
0.821759
1.04527
0.867786
0.973393
0.686338
0.75813
0.658497
0.784427
0.948737
0.886395
0.826203
0.439669
0.628624
0.613425
0.515725
0.530224
0.610661
0.71675
0.590528
0.680575
0.671137
0.542053
0.549474
0.629255
0.768639
0.427294
0.602056
0.595504
0.508307
0.515653
0.602116
0.696291
0.00114345
0.0261492
0.0394831
0.00315759
0.18177
0.12836
0.0615702
0.174866
0.00149257
0.00607522
0.00726275
0.0153902
0.0168415
0.0295619
0.0279992
0.0091522
0.0184436
0.0105069
0.0360934
0.0228897
0.0347463
0.0465253
0.0599272
0.0241059
0.0593322
0.0571917
0.0891601
0.0882877
0.0567603
0.0627857
0.124693
0.132083
0.0692601
0.120471
0.116759
0.0695875
0.0667373
0.0305903
0.060736
0.0586719
0.0954762
0.0886945
0.0663027
0.0796825
0.0659868
0.120419
0.0718552
0.126633
0.116264
0.0825045
0.0895034
0.126834
0.171577
0.133805
0.130867
0.124205
0.0906948
0.0901447
0.132515
0.141608
0.170828
0.13076
0.123715
0.0988485
0.10352
0.0987574
0.338011
0.582644
0.245748
0.329674
0.469625
0.252842
0.0993096
0.153896
0.134403
0.132061
0.15256
0.19527
0.197574
0.09854
0.156884
0.138639
0.131416
0.151792
0.194147
0.201835
0.392665
0.330625
0.393131
0.229384
0.282198
0.228622
0.281454
0.321548
0.18007
0.237472
0.235191
0.176878
0.251073
0.320576
0.40543
0.33009
0.394643
0.233506
0.227596
0.28144
0.290207
0.184835
0.234617
0.175646
0.250335
0.333494
0.321373
0.260136
0.469614
0.348635
0.560989
0.560415
0.429108
0.347854
0.42868
0.486655
0.473192
0.566311
0.349228
0.445516
0.431651
0.360526
0.496041
0.66731
0.70088
0.735046
0.565489
0.59221
0.626799
0.204092
0.51156
0.354552
0.496966
0.271069
0.405722
0.280754
0.924144
1.18501
1.19787
1.1275
1.03173
0.990411
1.08314
0.796757
0.74587
1.02168
0.721704
0.627501
0.890648
0.927507
0.752333
0.78579
0.642911
0.73031
1.02347
0.849975
0.884121
0.624908
0.870931
0.719743
0.719803
0.992307
0.824978
0.870993
0.705971
0.695463
0.812857
0.701312
0.936249
0.817851
0.805902
1.00852
1.2139
1.38867
1.01559
1.408
1.16666
1.2256
0.999839
0.949612
1.13839
1.15649
0.964065
1.09954
1.31767
0.95366
1.12599
0.984177
1.12896
0.957685
1.09398
1.28854
0.806606
0.92921
1.08995
1.07715
0.938799
1.07713
1.24736
1.13841
1.31767
1.09957
0.831115
1.15655
0.964163
0.999921
1.02162
1.27878
1.41561
1.21776
1.17386
1.06172
1.23128
0.439662
1.51063
2.48923
0.912383
0.788974
0.732799
1.26402
0.670866
0.809071
0.9564
1.64968
0.517411
0.945492
0.179206
0.686941
0.168872
0.0512592
0.668428
0.390845
0.413349
0.459403
0.358794
0.457981
0.51195
0.568926
0.626135
2.16035
1.2011
0.922092
0.890254
0.601521
1.42075
0.922855
0.761417
1.06508
1.86895
2.76905
1.34151
0.953788
1.54623
0.0893721
0.0797405
0.0774962
0.131708
0.129203
0.183216
0.11755
1.3573
1.59505
2.78034
1.50245
0.939712
1.61828
0.994848
0.555362
0.589571
0.480708
0.657263
0.579896
0.699315
0.78461
0.193922
0.487754
0.483117
0.264935
0.261833
0.340668
0.5788
0.640914
0.723176
0.579886
0.858362
0.700548
0.762357
0.927735
0.581208
0.789511
0.635221
0.873381
0.704349
0.763217
0.937566
0.256914
0.121729
0.187844
0.249695
0.244092
0.329456
0.172325
0.116102
0.24603
0.181623
0.246209
0.235273
0.32045
0.169023
0.753281
0.705662
0.697488
0.865
0.851752
0.797227
0.963564
0.86266
1.08712
1.06617
0.995242
0.976224
1.11431
1.24355
0.636775
0.743907
0.727618
0.842702
0.864509
0.882317
0.995629
0.978331
0.875146
0.718727
0.843002
1.1317
0.939471
1.01959
0.787816
0.864775
0.705221
0.840423
1.1286
0.93335
1.02309
0.432424
0.586865
0.345775
0.424688
0.770629
0.674725
0.512999
0.420748
0.576023
0.338859
0.420962
0.756781
0.503773
0.668635
0.947287
1.11383
1.09265
1.10487
1.12575
1.29013
1.31018
0.322698
0.5276
0.32826
0.321964
0.410788
0.417106
0.237474
1.03182
1.04527
0.851592
0.917889
1.3576
1.10944
1.12056
1.1186
0.811367
0.985936
1.01135
0.901141
1.08603
1.22372
0.792387
1.06899
0.955889
0.987611
0.8904
1.06906
1.18644
0.831782
1.09407
0.957835
1.12615
0.984395
1.1291
1.28862
0.955405
1.15771
1.11484
1.17773
1.1347
1.32169
1.37085
1.31904
1.28117
1.14667
1.27116
1.69576
1.45171
1.45267
1.09899
1.24129
1.03205
1.26555
1.05223
1.18479
1.42764
0.506094
0.699881
0.854033
0.845792
0.593311
0.760306
0.599456
1.24604
1.23047
1.1031
1.24607
1.62316
1.39616
1.42081
0.883155
1.19453
0.994274
1.25581
1.04244
1.17119
1.41085
1.32803
1.62959
1.34772
1.83899
1.53414
1.56879
1.90751
1.27721
1.53725
1.29736
1.76031
1.50257
1.53738
1.82566
1.0056
1.48431
1.34248
1.34787
1.11282
1.21301
1.22129
1.35104
1.60582
1.86402
1.32573
1.12551
1.28301
1.51689
1.73992
1.50866
1.2748
1.09893
1.29659
1.25747
1.48452
1.30687
1.51851
1.78465
1.46408
1.26251
1.09111
1.2625
1.10253
1.08914
0.993701
1.19607
1.46564
1.31816
1.33899
1.50266
1.50525
1.24092
1.39577
2.16318
1.70628
1.70643
1.17273
1.62881
1.41292
1.34353
1.90151
1.53955
1.63079
1.28303
1.35104
1.12559
1.32577
1.86384
1.51686
1.60572
1.40827
1.64535
1.72154
1.58473
2.06884
1.65203
1.94762
1.35863
1.55409
1.3097
1.55421
1.96391
1.86154
1.61836
1.41072
1.9067
1.77842
1.86238
1.57128
1.6418
1.60353
0.973989
1.3719
1.36183
1.35449
1.19619
1.14334
1.1594
1.22377
1.69158
1.50007
1.50377
1.33648
1.63913
1.85727
1.61258
1.19331
1.3191
1.46499
1.31902
1.61253
1.79601
2.21459
2.51252
2.08297
2.13478
1.78047
1.8464
2.2726
2.34206
1.97765
1.58945
2.50715
1.98175
2.35042
2.76922
2.62872
1.75025
2.28793
2.63565
2.07014
2.45069
2.81521
1.83235
1.79593
1.55168
2.33568
1.92084
2.27878
2.67889
1.98906
2.30683
1.88276
2.55419
2.37319
2.92858
2.96544
2.64271
1.76578
2.22555
1.8036
2.16902
1.73002
1.47683
2.96561
2.92911
2.30708
1.88308
2.55464
1.9893
2.37394
1.58939
2.50668
2.35013
2.34171
1.84407
1.97731
1.98148
2.1162
2.24138
1.83249
2.03014
3.06844
2.55445
2.36379
2.13276
1.75989
1.98725
1.98718
2.91898
2.48586
2.2564
1.66798
1.64542
1.47459
1.81133
2.37619
2.03587
2.07279
2.61616
3.47356
2.89501
3.5346
3.07808
3.3897
3.61321
2.73859
2.99861
2.47724
3.45004
2.99829
3.33652
3.60456
2.60755
2.7291
2.58057
2.81255
2.75703
2.72618
2.78913
2.87515
2.20302
2.69912
2.70435
2.8644
2.87403
2.88849
2.84996
2.80313
2.47955
2.75216
2.72523
2.88866
2.87686
2.53893
2.84467
2.84009
2.78277
2.60759
2.89085
2.87161
2.50226
3.43862
3.24206
3.49603
3.00708
2.83177
3.22761
3.35062
2.99786
3.01232
3.34347
2.64863
3.10423
3.31196
2.28317
3.37552
3.09073
3.33417
2.9584
2.63552
2.70199
3.122
3.33079
2.89654
3.33064
2.83928
3.12201
3.38591
0.847363
3.10419
1.3376
1.19086
0.809591
1.7379
1.4794
1.39168
2.76454
1.61566
2.72568
0.970228
1.8625
1.56575
2.79375
2.12491
2.60474
2.49857
0.820733
0.998165
0.967167
1.05228
1.01872
1.19356
1.23418
0.80694
0.948376
0.952771
0.998855
1.00348
1.17372
1.16673
0.895818
1.05215
1.1111
1.13378
1.20047
1.30321
1.40711
2.41305
2.24507
2.69934
2.89085
2.07041
2.67451
1.45729
2.20697
1.93411
3.07904
3.60163
3.55205
2.41802
2.71546
1.0692
1.38056
1.24318
1.47548
1.32127
1.55013
1.74202
1.40127
1.13317
1.13989
1.41247
1.77132
1.40256
1.78599
1.32239
1.66354
1.27694
1.50728
2.10885
2.01818
1.56813
1.19735
1.42745
1.15886
1.43967
1.91311
1.82892
1.49396
1.62747
1.24791
1.25525
1.4776
1.95685
1.97158
1.46723
1.51796
1.55174
1.67397
1.77337
1.94129
1.99705
2.31938
1.4005
2.04432
1.52023
2.24264
1.67235
1.82875
2.41058
1.26234
1.69595
1.35947
2.04751
1.58545
1.72519
2.23337
1.80812
2.4236
2.48822
2.75205
2.87878
2.31077
2.57841
2.81416
1.39671
1.63312
1.55671
1.42114
1.22509
1.84805
2.16391
1.8804
1.66338
1.49122
1.92053
2.64265
2.17703
2.44317
2.26537
1.92234
1.69123
2.04391
2.7259
2.30592
2.58281
2.00847
2.23756
2.39342
2.38945
2.57291
2.79122
3.07053
1.83541
2.34279
2.72202
2.40837
2.41625
1.82045
2.35367
1.8802
2.52222
2.47209
2.7359
2.45233
2.39495
1.96908
1.75045
2.45055
2.07401
2.6358
2.28803
2.62851
2.81511
2.05847
2.66672
2.50439
2.78878
2.68701
3.11943
3.0225
2.80943
2.64039
2.06187
1.96534
1.68295
2.24041
2.5668
2.76753
2.76088
2.64416
2.42772
2.12427
2.46909
2.69078
2.77451
2.52269
1.92108
2.13919
1.6176
1.92113
2.52275
2.61543
2.57632
2.10946
2.29454
2.80173
2.71098
2.68702
1.89281
2.67224
2.1967
2.79081
2.46426
2.70411
2.86681
2.21696
2.82026
2.52185
2.80938
2.56446
2.75247
2.80281
1.26065
2.49138
2.87394
2.87549
1.55182
2.59665
1.45866
2.90337
1.8035
1.25751
1.27483
1.09901
1.29669
1.48455
1.50872
1.73991
2.88213
2.87037
2.87733
1.2252
1.24829
2.70197
1.32351
2.10656
2.21297
1.79176
1.72231
1.49476
1.79178
2.10653
2.16893
1.72999
1.47681
2.22532
1.7657
2.11865
2.64258
1.92106
2.27871
1.79593
2.33588
1.83245
2.16182
2.67879
2.49649
2.7583
2.83939
2.81302
2.67823
2.78655
2.78355
2.61737
3.39048
2.89636
3.53525
3.22625
3.4747
3.61359
3.02446
3.57456
3.26616
3.64447
3.40251
3.54976
3.53432
2.86448
2.87508
2.88841
2.70418
2.69894
2.20282
2.62694
2.94753
2.87992
2.75118
2.87034
2.71587
2.24377
2.61942
2.86755
2.86752
2.61987
2.8573
2.58012
2.09195
2.58006
2.61949
2.71585
2.24369
2.75112
2.87998
2.94753
2.87554
2.70471
2.87205
2.77474
2.73477
2.8743
2.33921
2.78362
2.81034
2.63452
2.15438
2.76936
2.63444
2.67736
2.81037
2.78262
2.83343
2.53854
2.83993
2.60828
2.87161
2.8449
2.84055
2.87657
2.75558
2.84716
2.10962
2.62922
2.81221
2.83012
2.78917
1.98102
2.59309
2.75489
2.72498
2.81954
2.99812
3.34386
3.01326
3.35107
2.64799
3.31189
3.05483
3.01755
3.23601
3.2042
3.32788
2.00242
2.88068
2.94811
2.82711
2.75884
2.8016
2.85148
1.72895
2.52257
2.67489
0.188024
0.186763
0.24759
0.36173
0.573976
0.268898
0.352556
0.492184
0.195919
0.182932
0.176431
0.271124
0.260841
0.253453
0.26129
0.1809
0.184656
0.173663
0.263556
0.254952
0.249712
0.261973
0.236821
0.317967
0.192054
0.234248
0.187667
0.264473
0.316554
0.360143
0.464281
0.468188
0.472991
0.476861
0.358669
0.352138
0.199576
0.234305
0.186801
0.263684
0.333697
0.31811
0.278528
0.349188
0.484058
0.46543
0.491571
0.473657
0.349272
0.364131
0.494749
0.369154
0.54807
0.548371
0.421346
0.365617
0.420564
0.513361
0.442073
0.553874
0.494847
0.424296
0.365903
0.382657
1.31682
0.646517
1.49648
0.731796
0.620352
0.700364
1.24933
1.40659
0.603346
0.60491
0.622559
0.776764
0.777379
0.798965
0.799271
0.63344
0.624361
0.608598
0.816034
0.786325
0.806414
0.83319
0.644945
0.646227
0.699604
0.825727
0.879766
0.825334
0.88214
0.67144
0.708527
0.650133
0.834002
0.921776
0.893521
0.859616
0.987852
1.25477
0.99068
1.01583
1.28208
1.28696
1.01381
1.03854
1.27333
1.00369
1.02766
1.34811
1.30498
1.06055
1.04251
1.41441
1.10175
1.31347
1.31884
1.03991
1.10649
1.0551
1.38321
1.16001
1.43993
1.33831
1.12282
1.08747
3.61179
3.60334
3.47335
3.60873
2.89887
3.52414
3.49101
2.46947
2.86206
2.89476
1.60774
2.5563
2.90099
2.4913
2.10993
2.87727
2.94409
1.4725
2.37625
2.88762
2.37628
2.08867
2.70925
2.27561
1.38839
1.96449
2.88653
2.78561
3.38395
3.61791
3.60356
3.6
2.34423
3.19007
3.4008
1.60788
2.55638
2.88211
2.46974
2.89477
2.90098
2.86199
1.89263
2.82639
2.94691
2.82976
2.06133
1.38447
2.27179
1.85463
2.51582
1.52604
1.27355
1.47194
2.11066
2.80998
2.54353
1.63989
1.6963
2.87874
1.49384
1.45827
2.2128
1.27045
1.22581
1.51941
1.23147
2.23213
2.57715
2.33642
2.25902
1.41432
1.53518
2.25755
2.35113
1.57502
2.10696
1.24619
2.67295
1.81442
2.50858
2.18026
1.35496
2.63147
1.23376
2.68548
2.70663
1.24008
2.54261
1.22527
1.57941
1.76921
1.77479
2.16982
2.16874
2.32649
2.3278
1.93532
1.796
2.72337
1.23272
2.67702
2.79935
1.24268
1.59777
1.84611
1.79704
2.21537
2.18103
2.33908
2.37292
1.84387
2.93318
3.04904
0.775274
1.19644
1.53767
1.94455
1.71084
1.92434
2.03367
2.27466
2.35568
2.43046
2.50183
2.41395
2.06594
2.64602
1.22529
1.22933
2.63889
1.7895
2.2611
2.00062
2.00556
2.48065
2.59228
2.5864
2.48305
1.94709
2.33678
2.17403
2.5473
2.45256
2.57028
2.62116
0.83764
0.971247
0.987129
1.02227
1.03835
1.24782
1.20093
2.08071
2.28447
2.0287
2.49055
2.6002
2.58895
2.51665
3.35552
3.11469
3.15318
2.95881
1.47474
2.35626
3.39404
0.974341
1.3546
1.37224
1.14349
1.15987
1.3621
1.57047
2.3356
2.51343
2.5079
2.54464
2.16315
2.13965
2.5518
2.27898
2.41499
2.16502
2.61314
2.556
2.59691
2.6149
1.81051
2.4017
2.33921
2.35024
2.40967
2.72371
2.7263
2.48633
1.47228
1.8995
1.22501
1.26254
1.29186
1.9529
2.51585
2.30625
2.5072
2.5393
2.01591
2.09219
2.53736
2.49927
2.2913
2.47539
2.61603
2.64529
2.64065
2.60245
1.85283
2.50958
2.46481
2.39063
2.44373
2.73733
2.76588
2.78585
2.2717
2.88858
1.28991
2.09978
1.22501
1.26877
1.50586
1.19153
1.23825
1.506
1.79882
1.85088
1.45841
1.22509
2.78739
1.86477
1.3806
2.30086
1.26709
1.225
2.54449
2.60133
2.41179
2.62532
2.49412
2.58803
2.62615
2.53122
2.06007
2.54424
1.90595
2.53271
2.51246
1.76454
1.23008
1.58488
1.27735
1.53141
1.87142
1.92513
1.48398
2.24492
2.59962
2.56665
2.67762
2.69623
2.79823
2.81538
1.81144
1.64549
1.66821
2.03593
2.07299
1.88688
2.37636
1.766
1.22528
1.30235
2.82443
3.47373
3.4823
1.51876
1.62319
1.55912
1.35201
1.62332
2.26477
1.98984
1.84399
1.60498
1.70731
1.39287
1.65034
2.36798
2.07381
1.87597
2.50264
1.89389
2.54183
2.45477
1.43874
1.60241
2.32946
2.52733
1.51393
2.41232
1.85909
2.39103
1.83267
2.53915
2.70481
2.70481
2.62471
2.43691
2.61122
2.43697
2.066
2.44733
2.83725
2.84223
2.77835
2.78246
2.79001
2.67325
2.70465
2.73464
2.33904
2.87204
2.78356
2.87429
2.77488
2.51029
2.28286
1.69978
1.47142
2.35145
1.7798
2.48539
2.70744
2.70751
2.64947
2.2796
2.56954
2.39071
1.92682
2.80321
2.75204
2.4798
2.85003
2.87678
2.92063
2.72516
2.16927
1.59496
2.4418
2.35983
1.30389
2.00371
1.47464
2.65288
2.74707
2.7426
2.75134
2.11578
2.76927
2.06497
2.71744
2.78256
2.71558
2.78557
2.37974
2.32947
2.80138
2.89893
2.36624
2.30254
1.86831
2.35499
2.41782
1.81626
2.76977
2.61245
2.75096
2.72499
1.81425
1.96461
2.68017
2.72222
3.18177
2.81809
1.87214
2.35144
2.21291
2.81818
2.76276
2.76067
2.73099
2.7651
2.06904
2.23007
2.73066
2.28334
3.33427
3.37575
2.63562
2.70231
3.09084
3.4753
1.93191
2.9707
2.45363
2.82479
2.25917
2.87365
3.22217
2.38836
1.34297
2.15274
1.32496
2.09515
1.78203
1.26644
2.867
2.83082
2.84672
2.69837
2.72599
2.37819
1.87517
2.77066
2.76607
1.31074
2.43729
2.09897
2.89055
2.56661
2.81947
1.47353
1.69099
1.56113
1.77549
1.93344
2.07589
2.3688
1.96517
2.24013
1.68286
2.42325
2.06153
2.64012
2.80932
2.54499
2.3034
2.71153
2.76892
2.63766
2.76747
2.7148
1.92585
2.68039
2.22203
2.79763
2.52815
2.72518
2.86008
2.7833
2.83442
2.54958
2.84088
2.5827
2.8676
2.82661
2.59339
2.75493
2.72481
2.83003
1.98184
2.78933
2.48891
2.54361
2.83482
3.20594
2.0102
2.87793
2.59286
2.29005
2.78691
2.19206
2.78334
1.63201
2.59453
2.42384
1.45282
2.79963
2.4894
2.82065
1.84462
2.65838
2.51424
1.5899
2.56911
1.53595
1.94009
2.27515
2.60262
2.80593
2.8236
2.2071
1.29652
1.56754
1.26833
1.7918
1.36835
1.97454
2.15621
2.58122
2.70237
2.03164
1.32538
1.55636
1.61263
3.60896
3.60339
3.61191
3.52413
3.49092
3.51712
2.89836
1.225
1.34741
1.22783
1.225
1.225
1.23223
1.225
1.42036
1.22803
1.225
1.225
1.23239
1.225
1.225
2.87336
2.87338
2.87493
2.79034
2.25118
2.25137
1.48473
2.71878
2.78983
2.88875
2.29879
2.85151
2.15206
1.39208
2.82876
2.27614
2.88646
1.96528
2.70946
2.08898
1.3886
2.82621
2.82969
2.94688
1.8922
2.70164
2.06121
1.38442
1.56918
1.8866
2.73042
2.12941
1.26542
1.32818
1.74671
1.26989
1.48319
1.81098
1.48325
1.22957
1.30857
1.24009
2.19399
2.67914
2.79764
2.23315
1.28618
1.8352
1.39113
3.30723
3.13663
3.44226
3.46935
3.06448
3.30722
3.44221
3.30137
3.01237
3.26049
3.17565
2.74898
3.19334
3.29581
2.5163
2.11109
2.81002
2.57854
1.52618
1.85502
1.27359
2.84898
1.49788
2.50189
1.46109
2.46727
1.77791
1.27117
1.25746
1.38052
1.69788
1.44404
1.22817
1.28307
1.23762
3.48938
3.34332
3.15816
3.32151
2.97386
3.34097
3.43083
2.85688
1.67895
2.64939
1.7046
2.34045
1.43023
1.26957
1.31242
1.54753
1.24575
1.77713
1.38981
2.36224
2.72697
2.44229
1.6121
2.23337
1.98543
1.36464
1.25484
2.7826
1.79519
3.36992
2.79421
2.69419
1.6986
1.64037
1.28129
2.69494
1.64076
1.28134
2.82467
1.79537
2.7945
3.36989
1.5451
2.3802
1.38805
1.24896
1.39641
2.02218
3.17125
1.35104
1.74316
1.26322
1.23829
1.42945
1.28407
1.22868
2.26504
1.24053
1.40135
1.46572
1.43749
2.31565
1.38101
1.2853
1.44239
2.37762
1.24442
1.47014
1.29393
1.2301
2.16506
1.30641
1.33381
1.23682
1.38893
1.34594
2.00622
1.22878
1.5847
1.26791
1.64513
1.2679
2.53562
1.58467
1.25962
2.34831
1.50888
1.41671
1.22752
1.2483
1.24749
1.59384
1.52799
2.44194
1.45835
1.22773
1.25468
1.2488
2.96346
3.07859
3.52532
1.94481
1.28316
3.07835
1.76576
1.22751
1.24747
1.41663
1.25961
1.50866
2.34815
1.51934
1.27281
1.28749
1.79027
1.5572
1.22707
1.24917
1.25621
2.06354
1.31037
2.03413
3.35315
1.93899
3.05586
3.10184
2.69632
1.50259
2.73581
1.72162
2.96959
1.66403
1.261
1.24646
1.44636
2.05233
1.32344
1.2424
1.23479
1.22657
2.04113
1.3244