/*--------------------------------*- C++ -*----------------------------------*\
  =========                 |
  \\      /  F ield         | OpenFOAM: The Open Source CFD Toolbox
   \\    /   O peration     | Website:  https://openfoam.org
    \\  /    A nd           | Version:  9
     \\/     M anipulation  |
\*---------------------------------------------------------------------------*/
FoamFile
{
    format      ascii;
    class       volScalarField;
    location    "0.00255";
    object      impulseMax;
}
// * * * * * * * * * * * * * * * * * * * * * * * * * * * * * * * * * * * * * //

dimensions      [1 -1 -1 0 0 0 0];

internalField   nonuniform List<scalar> 
22221
(
389.017
402.144
355.471
371.418
294.436
315.754
154.857
382.363
471.915
442.311
420.596
353.063
400.361
337.367
342.117
462.496
413.693
367.182
325.504
430.253
392.331
466.946
455.794
451.666
449.435
445.392
429.935
433.198
427.298
364.326
328.448
376.581
328.196
343.536
289.634
315.94
414.991
380.75
313.209
277.363
362.397
336.315
456.875
446.88
442.296
438.78
434.18
419.309
422.948
454.79
429.762
441.079
423.619
434.882
420.779
410.5
443.874
418.908
431.06
410.716
423.012
409.661
398.593
438.63
417.893
435.286
413.519
398.575
396.308
416.196
399.58
426.078
422.884
407.396
386.397
384.17
410.025
430.646
410.769
426.957
403.868
390.218
387.737
406.834
269.249
309.015
237.751
299.637
268.718
245.094
243.387
411.156
416.155
410.226
401.332
395.797
398.276
385.004
258.99
339.621
316.657
226.866
216.26
262.193
239.694
391.693
403.607
413.818
399.386
368.393
377.067
389.992
415.764
409.91
426.125
405.52
380.379
389.148
396.058
204.589
214.596
249.752
255.815
231.344
187.073
239.426
163.819
414.159
385.825
410.406
395.49
373.655
370.965
398.503
402.294
406.251
417.212
395.381
371.011
380.204
385.33
399.248
404.96
396.769
390.518
382.703
385.924
372.896
264.888
254.492
276.869
284.934
275.659
267.796
245.485
377.518
389.63
400.851
387.122
354.168
363.577
376.953
391.069
370.019
376.041
351.169
374.02
368.013
393.322
384.122
392.931
371.661
359.718
378.983
369.117
350.732
389.844
389.065
403.399
369.992
384.872
372.573
358.482
391.563
359.585
378.628
358.205
378.917
366.85
346.997
393.582
368.413
380.29
360.317
373.765
361.602
348.858
383.932
353.379
345.098
359.327
367.504
361.524
375.225
380.053
358.082
366.376
339.922
355.678
364.093
382.654
381.902
355.351
373.893
348.437
366.433
357.539
340.036
376.919
343.441
364.081
343.362
365.343
353.291
331.905
341.144
321.189
346.986
337.185
312.213
329.611
305.358
111.22
126.131
181.012
119.692
137.979
127.112
94.2367
372.594
333.635
340.281
348.732
348.955
357.314
363.327
233.779
226.414
245.043
203.843
216.052
235.189
223.786
224.899
259.276
235.735
246.172
268.43
259.229
235.697
243.408
265.899
255.252
246.95
221.77
257.848
234.237
354.871
361.4
373.607
357.675
327.547
344.569
340.017
314.843
333.876
327.744
309.546
303.954
320.24
297.285
343.79
349.657
364.931
353.572
317.689
338.795
333.033
289.412
262.468
295.134
258.856
286
279.145
251.267
345.44
345.204
363.147
352.323
317.132
333.608
334.974
353.674
346.623
364.548
347.215
318.784
335.335
330.181
330.193
338.725
352.596
341.167
305.243
319.199
327.773
329.726
331.959
349.095
339.254
302.781
318.826
322.496
288.957
256.023
283.549
250.199
278.101
271.438
243.022
323.131
308.65
333.314
307.993
319.867
296.657
285.659
191.94
212.895
224.507
200.785
178.704
191.941
212.874
201.515
208.199
221.555
197.497
175.312
190.341
211.336
192.407
198.346
209.173
196.857
179.47
185.466
167.34
227.969
212.712
199.214
237.921
211.071
249.012
224.094
339.904
304.203
305.2
309.605
325.806
320.2
323.118
324.614
286.552
300.81
298.039
315.154
292.325
276.114
326.268
294.071
302.755
299.813
310.898
288.749
278.101
312.625
272.802
290.19
284.14
303.541
281.744
262.63
327.903
292.728
290.86
299.163
306.488
314.998
311.613
273.359
282.309
254.572
270.521
231.041
259.874
242.147
1.08274e-07
1.76159e-08
2.74301e-09
2.81671e-10
2.11943e-11
1.2585e-12
4.77788e-14
8.43875e-06
4.69919e-07
8.52146e-08
8.43905e-09
6.14308e-10
3.58636e-11
1.7187e-12
0.00117219
1.34154e-05
1.74606e-06
2.26268e-07
1.6036e-08
9.01933e-10
4.19712e-11
5.05885
0.0280475
9.9215e-05
3.87753e-06
3.68413e-07
2.06107e-08
9.18975e-10
155.451
70.2653
2.13222
0.000677512
6.17662e-06
3.88059e-07
1.7469e-08
283.103
220.851
131.921
14.9924
0.00183744
5.53412e-06
2.63927e-07
325.589
251.928
153.392
16.4471
0.000816234
2.87677e-06
341.991
254.107
137.487
3.26469
0.000104325
302.516
186.881
12.2957
0.000281759
3.13268e-08
6.07096e-09
8.60271e-10
8.97073e-11
6.87808e-12
3.98844e-13
8.48862e-15
7.81473e-07
1.51897e-07
2.32153e-08
2.53725e-09
1.90761e-10
1.14805e-11
5.55519e-13
4.15671e-05
3.81031e-06
5.77888e-07
6.89105e-08
4.86327e-09
2.76614e-10
1.33123e-11
0.586096
0.00284879
2.67183e-05
1.33844e-06
1.18615e-07
6.28164e-09
2.80822e-10
119.764
38.1579
0.232497
0.000106599
1.82641e-06
1.27013e-07
5.32631e-09
255.576
193.571
97.1858
2.72243
0.000207526
1.62319e-06
8.28541e-08
300.598
226.896
121.228
3.21533
0.000105296
8.61222e-07
330.306
229.411
103.577
0.379755
2.2027e-05
278.01
156.808
0.15836
3.72039e-05
4.96049e-09
9.97765e-10
1.4328e-10
1.41801e-11
1.02142e-12
4.47471e-14
0
1.27229e-07
2.9203e-08
4.17043e-09
4.10362e-10
2.96882e-11
1.72695e-12
6.66963e-14
2.99624e-06
7.04834e-07
1.0977e-07
1.08044e-08
7.60862e-10
4.27116e-11
1.97955e-12
0.00199011
4.28545e-05
2.20046e-06
2.58752e-07
1.80761e-08
9.71794e-10
4.35325e-11
33.6004
0.733995
0.000788136
6.69589e-06
3.80778e-07
1.96153e-08
8.3735e-10
193.106
127.784
19.4088
0.00849917
1.08113e-05
3.1642e-07
1.32748e-08
244.761
162.692
38.2885
0.0103603
6.33318e-06
1.58771e-07
233.528
231.389
24.3303
0.00131877
1.44687e-06
223.737
189.876
0.000136705
2.12689e-06
6.32214e-10
1.20669e-10
1.66156e-11
1.59513e-12
9.78616e-14
0
0
1.60877e-08
3.26909e-09
4.57803e-10
4.49402e-11
3.23901e-12
1.76199e-13
4.85064e-16
3.62583e-07
8.28963e-08
1.13714e-08
1.1246e-09
8.0096e-11
4.61441e-12
2.02514e-13
1.02761e-05
1.45593e-06
2.55999e-07
2.61505e-08
1.81633e-09
1.01308e-10
4.75229e-12
0.0206726
0.000154122
5.99355e-06
5.63325e-07
3.70915e-08
1.97832e-09
8.86825e-11
157.416
85.7794
0.00541894
1.81651e-05
6.68894e-07
3.25895e-08
1.40125e-09
194.159
162.785
119.1
0.0253394
1.80533e-05
3.9413e-07
1.69413e-08
200.171
106.962
105.996
0.00866898
5.39627e-06
1.44615e-07
182.006
179.59
49.9424
5.67001e-06
7.7734e-07
7.59816e-11
1.37792e-11
1.75047e-12
1.42488e-13
9.70128e-16
0
0
1.9713e-09
3.63665e-10
4.79237e-11
4.48345e-12
3.03165e-13
6.18456e-15
0
4.54799e-08
8.80332e-09
1.16406e-09
1.08126e-10
7.6537e-12
4.24916e-13
8.48862e-15
9.70645e-07
2.04096e-07
2.65675e-08
2.43493e-09
1.66962e-10
9.58789e-12
4.43227e-13
2.71063e-05
3.20591e-06
5.39325e-07
4.99473e-08
3.30184e-09
1.81627e-10
8.49832e-12
0.0347836
0.000256045
1.05494e-05
8.81966e-07
5.64654e-08
2.97699e-09
1.33837e-10
49.1099
66.4036
0.00270869
1.75306e-05
7.36345e-07
3.85568e-08
1.68799e-09
151.851
98.9173
76.8698
0.00357828
9.27364e-06
3.47371e-07
1.53178e-08
99.9518
46.0444
1.45875e-05
1.95341e-06
9.57739e-08
7.31185e-12
1.22091e-12
1.27572e-13
1.69772e-15
0
0
0
1.90145e-10
3.27744e-11
3.98165e-12
3.40272e-13
1.18841e-14
0
0
4.43618e-09
7.74073e-10
9.51495e-11
8.48862e-12
5.77711e-13
1.98876e-14
0
9.62422e-08
1.75824e-08
2.12637e-09
1.84868e-10
1.27191e-11
7.14742e-13
1.98876e-14
1.99497e-06
3.77701e-07
4.45601e-08
3.71003e-09
2.4422e-10
1.38442e-11
6.42346e-13
6.69563e-05
5.72389e-06
8.35062e-07
6.68683e-08
4.15061e-09
2.24391e-10
1.04774e-11
0.141427
0.00053298
1.35657e-05
9.9142e-07
5.87366e-08
3.01692e-09
1.35938e-10
94.3347
54.7368
0.740389
1.26729e-05
6.0757e-07
3.04713e-08
1.33523e-09
15.7935
4.05145
0.095832
2.9053e-06
2.14835e-07
9.22989e-09
4.9428e-13
6.18456e-14
1.21266e-16
0
0
0
0
1.32599e-11
2.17939e-12
2.42411e-13
8.48862e-15
0
0
0
3.0129e-10
5.02928e-11
5.99769e-12
5.1441e-13
2.03727e-14
0
0
6.31097e-09
1.06435e-09
1.27327e-10
1.11816e-11
7.7307e-13
3.03165e-14
0
1.20323e-07
2.10773e-08
2.48154e-09
2.12146e-10
1.45625e-11
8.31642e-13
2.40107e-14
2.06806e-06
3.81025e-07
4.37241e-08
3.58653e-09
2.36498e-10
1.35387e-11
6.33736e-13
5.78985e-05
4.57744e-06
6.29821e-07
5.13103e-08
3.22763e-09
1.78401e-10
8.54901e-12
0.0347372
0.000219789
6.4786e-06
5.35365e-07
3.36114e-08
1.81247e-09
8.55455e-11
7.95839
0.0172994
9.98139e-06
2.51842e-07
1.31222e-08
6.20308e-10
1.27329e-14
0
0
0
0
0
0
7.18137e-13
9.59214e-14
1.69772e-15
0
0
0
0
1.63047e-11
2.66203e-12
2.98314e-13
1.27329e-14
0
0
0
3.2684e-10
5.43417e-11
6.45547e-12
5.53822e-13
2.42532e-14
0
0
5.8343e-09
9.88201e-10
1.18991e-10
1.05169e-11
7.18865e-13
2.72848e-14
0
8.8974e-08
1.59074e-08
1.92861e-09
1.67667e-10
1.17052e-11
6.68054e-13
1.72198e-14
9.72355e-07
2.03443e-07
2.59781e-08
2.24759e-09
1.5328e-10
9.01164e-12
4.19459e-13
1.4953e-05
1.58188e-06
2.33385e-07
2.27035e-08
1.55283e-09
9.08839e-11
4.51316e-12
7.01401e-06
1.63684e-06
1.61658e-07
1.11996e-08
6.64e-10
3.35642e-11
0
0
0
0
0
0
0
1.75836e-14
0
0
0
0
0
0
7.34023e-13
9.87105e-14
2.54659e-15
0
0
0
0
1.46658e-11
2.40252e-12
2.69089e-13
1.06714e-14
0
0
0
2.5114e-10
4.24763e-11
5.14265e-12
4.31464e-13
1.67347e-14
0
0
3.63022e-09
6.35001e-10
7.90288e-11
7.11407e-12
4.88702e-13
1.5037e-14
0
3.9718e-08
7.57755e-09
1.00075e-09
9.14129e-11
6.54897e-12
3.74954e-13
6.18456e-15
3.15894e-07
5.90603e-08
9.17358e-09
8.97897e-10
6.55719e-11
4.01014e-12
1.81414e-13
2.92502e-07
5.65728e-08
6.20483e-09
4.71917e-10
2.96658e-11
1.52152e-12
0
0
0
0
0
0
0
0
0
0
0
0
0
0
1.27329e-14
0
0
0
0
0
0
5.41089e-13
6.97279e-14
4.85064e-16
0
0
0
0
9.43728e-12
1.57646e-12
1.68802e-13
4.36557e-15
0
0
0
1.32041e-10
2.31783e-11
2.86903e-12
2.42532e-13
5.57823e-15
0
0
1.43786e-09
2.65696e-10
3.533e-11
3.30935e-12
2.23372e-13
2.54659e-15
0
1.17612e-08
2.15786e-09
3.2276e-10
3.21477e-11
2.39525e-12
1.28663e-13
0
1.21123e-08
2.04477e-09
2.22616e-10
1.76092e-11
1.1097e-12
3.69861e-14
271.881
396.257
340.622
309.843
256.751
377.222
325.288
277.578
399.581
335.414
326.803
262.783
383.651
320.348
287.191
377.849
360.056
329.589
254.836
314.537
239.546
237.922
363.357
317.345
265.812
221.411
343.531
301.352
401.885
382.541
380.266
380.465
378.226
359.354
361.26
247.41
366.542
316.218
262.25
206.266
324.376
278.065
361.579
317.811
253.633
311.383
279.653
213.183
294.333
393.821
378.307
376.158
373.141
370.95
353.542
355.565
349.939
264.865
309.571
305.6
230.032
267.543
187.175
392.481
365.722
363.511
373.961
371.71
353.284
345.513
386.321
361.004
369.434
355.662
364.174
347.284
339.288
375.62
362.386
360.347
353.21
351.128
336.016
337.998
211.174
332.617
295.71
213.413
164.801
280.712
253.192
239.584
147.826
163.846
212.905
185.738
144.057
56.3462
217.973
184.077
127.038
186.426
157.947
180.74
45.5584
155.46
150.279
202.993
84.9658
32.0608
149.003
123.135
368.69
345.838
353.949
336.742
344.847
330.066
322.353
360.541
348.373
345.873
337.243
334.616
320.196
322.61
182.508
227.089
208.558
78.1819
27.6894
157.093
132.006
182.041
320.777
256.194
236.515
164.577
305.922
241.071
362.581
340.116
360.637
339.757
321.286
319.419
341.618
359.786
338.724
357.802
335.447
318.5
316.606
337.378
353.125
330.305
339.135
318.779
327.79
313.838
305.403
373.194
355.945
353.745
344.967
342.818
336.239
325.682
172.232
312.139
236.763
238.92
154.231
304.677
221.118
358.097
333.57
356.21
337.62
317.023
315.184
339.458
354.978
351.033
345.69
340.015
334.72
329.839
319.202
158.74
301.016
246.85
204.099
139.332
293.138
231.253
349.607
323.561
347.54
330.343
308.473
306.509
332.305
334.304
346.759
354.543
333.958
306.518
313.792
326.492
327.785
342.379
350.145
331.836
302.294
309.57
324.358
346.316
327.736
344.398
320.237
305.556
303.681
322.143
300.444
328.151
326.104
311.1
287.51
285.435
313.096
168.81
276.039
268.235
227.335
124.375
211.369
103.471
317.59
333.187
341.253
324.393
293.255
300.755
316.719
332.853
343.665
351.594
329.541
303.508
310.911
321.908
338.85
336.299
327.227
325.612
316.589
313.215
302.775
330.664
321.959
338.373
314.497
290.782
298.068
307.054
333.088
315.18
330.785
305.266
291.942
289.728
307.554
93.7543
254.569
208.364
134.117
72.4836
237.207
190.963
310.549
280.576
308.019
293.788
268.862
266.381
296.193
288.161
260.936
193.629
253.647
213.172
99.6156
228.309
294.745
312.465
320.216
305.413
272.426
279.847
297.944
309.208
316.245
324.506
299.235
276.149
283.894
291.22
321.082
320.089
308.371
308.992
297.074
295.494
284.456
153.133
297.018
231.61
183.755
96.8409
258.913
189.13
347.469
315.262
313.301
331.757
329.697
313.073
297.255
142.181
278.032
211.289
186.684
83.9422
250.164
166.069
186.424
265.379
259.372
188.479
89.4515
228.705
229.48
341.191
310.733
326.979
305.785
321.83
306.694
291.1
337.466
307.41
326.887
297.649
317.53
307.151
287.247
333.135
300.993
322.588
293.378
315.376
304.995
282.933
212.824
249.206
224.238
238.406
211.413
228.391
199.532
193.595
188.833
186.132
176.117
178.88
171.258
160.51
126.175
265.483
221.535
144.075
65.9999
237.014
177.645
323.711
290.023
313.07
284.136
307.552
297.027
273.478
256.705
213.325
196.546
248.917
165.941
200.249
64.0268
312.44
290.64
295.655
269.786
288.658
293.693
314.369
318.204
299.876
297.785
275.553
297.96
295.878
320.054
274.282
292.912
301.55
287.648
252.084
260.304
279.417
334.225
305.772
323.597
294.516
312.766
302.304
284.021
318.896
298.831
300.212
296.901
298.282
276.222
278.262
325.741
297.178
312.911
288.443
303.983
290.328
274.974
321.522
295.218
311.078
281.855
298.095
287.703
271.33
243.665
235.103
207.856
230.955
203.081
221.925
192.379
310.286
293.871
291.952
288.144
286.215
267.707
269.759
303.282
267.3
292.76
263.246
288.921
278.399
252.363
98.366
240.047
210.095
201.266
89.5187
154.146
33.6236
140.856
251.826
211.818
91.3642
38.3739
194.518
166.746
306.706
264.171
275.611
280.732
282.997
288.077
299.267
312.588
270.036
285.228
283.127
292.425
290.35
305.297
295.382
271.687
280.768
252.648
278.772
269.57
297.351
313.245
284.043
285.535
291.323
292.748
270.679
263.397
298.938
283.952
281.887
275.639
273.444
256.145
258.388
246.62
231.724
221.146
250.506
260.626
274.727
266.332
281.224
306.549
291.965
266.682
281.621
270.657
255.623
212.128
220.38
234.672
206.967
197.939
190.152
180.422
297.419
279.186
286.419
273.426
280.674
262.169
254.852
248.671
234.234
223.469
252.733
268.212
276.786
263.048
296.247
292.142
308.044
268.566
284.176
271.639
256.107
285.543
268.697
276.188
260.061
267.691
250.41
242.77
290.571
270.91
249.041
263.577
285.345
303.783
281.654
235.551
217.263
206.724
247.175
237.176
264.374
256.121
289.783
256.595
247.044
265.896
273.204
264.004
282.454
278.906
253.854
265.611
235.361
251.359
263.261
281.261
295.048
298.402
314.28
294.78
259.582
274.83
279.39
273.332
310.03
288.623
292.633
255.191
270.472
277.259
272.211
294.149
310.628
296.037
274.081
278.367
256.484
134.215
167.71
148.382
183.101
164.884
171.066
151.923
146.836
187.203
171.956
185.468
162.018
177.868
199.961
158.365
153.616
172.685
168.112
186.223
172.699
153.635
58.6788
226.682
179.894
57.4778
11.9045
181.446
126.499
282.726
243.831
271.36
241.977
269.532
258.22
230.147
171.008
182.976
164.77
154.815
167.606
148.263
134.13
70.775
86.624
137.014
119.71
27.4751
16.0422
0.143754
44.11
136.257
86.8757
105.952
7.16937
19.4321
0.0749662
266.451
271.641
290.219
279.645
236.156
255.555
260.877
285.12
277.535
300.578
284.624
245.417
260.802
269.379
293.411
295.314
311.049
289.931
256.31
271.554
274.637
276.299
274.162
296.426
286.023
242.597
265.676
263.494
177.894
187.274
200.047
162.096
185.68
172.151
146.919
273.87
260.889
258.663
248.361
245.997
230.335
232.812
286.577
275.038
276.602
264.35
265.952
254.235
243.181
283.161
286.995
305.138
291.763
270.011
272.428
250.647
236.925
258.863
280.548
250.676
272.327
292.864
271.322
142.55
140.758
155.748
162.933
174.989
161.287
148.289
185.994
228.883
216.628
203.337
216.874
186.191
170.794
186.985
163.704
146.358
59.7901
32.614
0.378037
25.662
158.378
171.003
193.369
176.794
152.806
164.542
138.874
98.994
51.281
103.085
66.8603
1.36441
2.20541
0.0174092
272.979
229.473
237.338
249.615
245.423
257.443
265.024
283.182
282.827
298.618
275.242
243.205
258.657
259.923
288.521
270.195
264.39
259.456
253.574
245.588
234.369
39.6342
226.297
151.708
111.128
23.7443
210.263
132.373
275.982
249.679
273.925
252.941
230.549
228.107
255.152
46.1459
232.163
145.178
134.241
29.3723
216.479
125.438
274.593
251.91
272.561
247.923
229.083
226.651
250.152
151.676
50.3829
164.977
13.6231
0.197848
96.9431
30.4271
8.03722
135.131
105.941
1.27746
0.0202655
56.8705
11.661
53.6221
10.2942
125.235
0.454597
0.0089693
25.1918
1.89038
226.534
181.428
197.279
200.578
215.647
184.677
167.454
196.624
214.887
225.659
199.454
211.619
180.392
166.526
173.113
143.77
162.426
135.297
154.513
142.784
122.057
168.589
137.107
157.857
131.514
152.759
141.024
118.014
278.765
254.004
276.729
254.339
233.406
231
256.537
260.656
245.5
253.055
232.532
240.299
224.625
216.778
268.906
247.915
278.451
290.681
269.772
256.391
234.269
247.3
256.765
273.441
262.776
218.416
245.807
236.101
267.751
283.105
268.575
257.757
226.571
242.477
242.117
180.76
145.511
170.538
135.759
161.763
150.289
122.299
265.978
244.566
263.845
237.635
220.186
217.639
240.005
251.952
240.244
237.589
224.56
221.74
206.884
209.796
276.282
259.406
250.557
248.364
239.262
233.125
221.455
21.5457
208.436
98.2729
117.251
10.3183
191.928
77.7062
262.315
246.892
217.569
219.53
248.759
231.218
201.54
108.262
129.084
121.895
2.88685
29.1642
19.641
0.0455228
238.763
280.245
254.455
265.807
223.277
239.244
250.359
206.721
216.675
200.003
167.243
188.401
174.843
153.918
218.531
202.422
190.7
176.332
187.842
169.205
155.836
244.058
261.002
268.357
247.35
214.677
222.423
239.878
248.449
264.002
271.222
248.776
217.746
225.373
241.392
263.171
234.423
261.073
242.095
217.23
214.692
244.363
246.354
259.745
267.038
242.356
213.303
221.009
234.872
228.771
248.108
255.504
236.487
201.08
208.953
228.935
245.71
223.108
231.483
206.717
215.43
200.636
191.873
213.901
226.962
223.565
193.274
208.378
238.21
255.97
9.83007
190.24
119.988
50.5742
3.49954
172.266
98.8178
249.065
218.182
246.666
228.875
202.313
199.497
231.373
126.047
51.7443
11.4407
0.301764
0.00758353
45.5305
7.52192
203.754
183.353
171.597
147.199
170.83
159.669
133.477
227.235
239.849
255.272
243.871
198.684
215.145
228.206
238.895
250.663
258.177
231.875
203.914
211.844
224.127
240.241
262.137
273.497
249.82
227.457
237.338
214.56
70.4979
240.184
168.536
62.4244
2.96992
191.035
69.698
181.159
165.91
58.1358
143.095
66.4804
1.36319
41.9403
267.109
222.592
226.794
232.412
242.517
247.985
251.833
273.593
229.263
237.439
235.16
252.922
250.71
258.337
212.269
233.04
240.873
223.049
185.073
193.475
215.111
244.728
224.863
242.396
213.378
197.619
194.814
216.005
279.496
238.846
257.601
240.853
260.664
238.565
218.406
275.53
254.66
232.502
236.459
258.562
236.458
213.907
274.138
236.063
237.738
251.552
253.207
229.86
213.793
276.541
237.321
254.728
237.605
256.006
233.932
215.113
210.528
240.203
257.68
215.433
244.842
225.313
195.203
251.241
235.967
222.683
224.446
210.71
206.697
194.227
484.777
418.911
431.454
386.172
348.842
320.944
247.427
436.698
539.414
499.574
448.157
412.476
492.099
464.526
534.077
528.725
522.111
523.73
516.774
504.046
511.096
399.775
470.551
447.32
373.515
351.808
393.053
384.405
512.077
484.681
502.661
478.954
497.185
486.966
470.556
330.89
365.008
357.686
272.466
252.773
299.983
281.258
362.092
482.218
423.039
397.735
346.131
451.676
402.688
515.24
493.421
508.521
489.976
479.993
474.556
496.348
505.286
478.212
498.124
484.782
469.864
464.245
491.337
463.299
464.355
480.968
469.91
437.732
451.259
455.061
478.901
475.513
491.606
475.227
448.775
461.908
460.64
448.205
464.11
458.887
443.644
438.867
451.986
432.906
421.648
391.471
419.11
388.436
415.254
411.229
385.688
470.277
453.814
459.015
433.035
449.139
454.435
475.886
476.978
462.221
463.569
457.771
459.128
439.706
443.259
340.534
363.547
361.096
337.676
335.36
358.894
332.602
336.795
436.093
378.719
340.986
297.742
369.546
345.394
456.535
429.182
437.343
433.21
443.502
425.483
416.468
446.06
414.007
427.286
422.395
438.11
420.33
406.259
457.368
423.329
425.843
431.398
437.868
443.29
444.022
464.577
435.165
436.95
446.901
448.513
430.464
419.857
223.27
279.862
258.004
191.89
139.147
220.255
190.33
319.843
294.198
315.091
291.093
312.376
308.017
285.359
440.995
416.012
437.388
419.4
400.568
398.151
422.279
395.361
381.982
406.514
400.964
368.136
388.438
378.146
408.697
388.577
414.874
405.47
376.086
397.796
381.798
443.662
420.263
440.147
420.734
403.319
400.954
423.579
411.862
417.295
428.52
412.063
386.231
397.087
402.196
419.218
421.073
422.909
405.764
407.502
407.167
393.285
278.87
319.856
301.272
243.526
202.175
266.509
257.484
361.254
331.05
334.697
350.923
355.618
329.244
324.791
407.595
417.15
427.889
411.17
381.724
390.756
401.388
412.303
420.531
431.006
412.716
384.916
393.82
403.01
355.88
323.319
329.896
344.478
352.668
326.66
319.175
500.321
397.119
297.7
545.175
492.975
459.369
500.847
442.122
466.497
419.179
540.8
530.285
532.991
526.971
524.345
510.082
516.295
478.279
442.657
387.999
449.275
406.683
385.755
357.509
519.52
488.4
490.856
508.131
505.614
493.72
478.178
368.407
328.355
297.819
336.581
310.779
274.667
266.305
512.619
487.282
506.428
491.836
477.423
472.419
497.568
517.941
494.865
511.597
494.348
482.584
477.383
500.204
454.855
467.75
470.03
449.164
446.983
459.244
440.049
474.663
473.251
490.123
477.732
447.672
460.27
463.857
479.504
480.597
495.121
480.243
452.475
465.17
466.268
426.72
393.431
394.936
423.511
421.684
417.056
390.225
475.976
460.419
462.9
438.731
458.59
456.195
481.018
344.502
365.117
366.409
340.539
339.309
362.534
335.892
456.061
424.859
436.92
432.399
446.839
428.81
415.905
460.43
431.062
441.217
436.95
449.11
430.939
420.015
463.751
434.237
429.585
436.629
448.066
445.645
451.15
304.598
296.521
318.449
317.22
324.318
311.676
289.659
380.965
414.397
404.812
408.296
375.384
397.249
383.87
391.137
410.383
418.102
410.249
378.785
401.096
385.581
420.39
422.693
435.681
418.931
392.891
407.337
405.244
334.182
360.675
354.733
350.115
357.176
330.551
323.965
331.99
358.755
363.308
353.076
358.571
331.821
326.593
273.126
259.335
269.695
251.706
247.801
263.016
240.056
272.098
278.716
302.824
287.835
309.974
304.965
281.009
300.327
282.369
306.331
290.312
312.356
306.2
282.295
393.77
370.146
360.915
365.194
380.07
384.884
372.688
297.713
281.965
305.178
301.031
266.799
293.174
276.269
305.375
287.952
310.249
303.561
272.718
298.584
279.189
400.502
381.61
383.016
360.132
379.493
380.9
402.892
378.188
389.855
400.325
368.126
388.213
376.762
357.881
369.375
367.605
376.447
389.724
387.769
400.036
377.832
404.414
373.685
390.636
371.067
389.856
377.228
359.419
394.06
407.946
391.307
374.427
391.571
378.947
362.792
393.267
353.986
364.472
366.04
372.842
374.327
384.304
338.641
342.233
348.195
322.428
306.821
313.793
316.897
326.219
345.792
352.61
344.64
318.92
336.132
311.278
319.627
335.689
345.583
318.232
343.988
352.207
325.821
234.36
265.979
243.438
247.379
255.584
231.593
222.081
239.096
211.378
230.73
206.718
226.368
217.798
197.447
259.009
221.951
235.43
240.188
252.09
227.462
213.505
358.55
363.379
377.507
363.567
331.372
348.592
345.584
293.337
274.237
299.952
265.546
292.455
284.788
257.107
256.625
284.291
293.11
291.791
264.943
299.576
273.934
296.313
280.681
260.385
263.512
287.624
290.544
270.228
354.562
356.222
373.718
362.043
326.19
343.53
345.211
358.639
355.595
374.297
361.962
328.387
345.401
344.096
311.645
324.89
336.639
311.665
325.117
301.535
289.167
334.212
297.935
309.66
308.91
323.787
300.414
286.686
232.211
235.955
244.377
218.501
193.396
204
208.466
212.618
175.51
197.483
203.671
165.015
188.034
182.097
201.419
221.532
211.401
208.31
175.359
197.675
187.048
347.883
313.582
313.975
315.502
330.381
331.998
330.716
246.694
274.927
285.135
275.202
234.555
263.315
246.968
271.88
255.55
283.327
274.181
232.201
261.025
245.925
294.851
296.27
311.077
288.678
257.023
272.987
274.341
193.657
165.16
153.008
158.514
177.353
182.384
171.084
262.894
231.797
218.486
219.837
247.757
249.05
234.112
203.555
233.698
194.159
179.16
210.902
225.092
245.984
19.5216
206.587
112.028
62.1434
0.803712
161.09
53.2666
194.696
118.119
41.4418
155.983
21.8549
0.41805
54.7235
221.322
243.651
266.569
226.61
250.781
228.618
203.728
230.019
242.33
258.171
244.941
199.04
216.064
228.915
254.867
220.051
243.857
207.871
231.934
220.372
195.667
265.489
230.939
246.581
224.738
240.54
220.795
204.41
226.642
242.627
264.566
224.335
241.27
218.779
201.31
14.8209
200.15
119.227
39.4699
0.476636
153.301
59.9805
251.744
215.152
240.622
204.686
230.356
218.735
192.32
250.534
217.803
239.415
203.338
225.306
213.572
190.962
129.242
172.92
156.681
156.807
108.282
138.931
129.3
229.133
219.158
236.762
207.6
180.565
188.891
199.574
224.917
205.516
222.186
190.63
175.745
172.557
193.66
200.762
231.161
243.237
222.005
190.704
207.966
175.86
157.494
140.134
119.675
142.042
122.945
117.548
97.7077
142.044
122.947
97.7493
140.144
117.608
157.509
137.053
149.132
108.692
133.203
115.482
87.8496
108.7
133.221
183.903
218.971
216.325
199.829
168.822
165.652
202.622
24.4291
149.761
129.196
80.6699
0.901649
60.8298
0.256122
249.929
206.138
204.336
216.499
232.568
222.567
234.263
169.582
122.814
151.184
155.008
103.371
134.811
127.205
154.625
169.185
143.884
150.535
103.078
134.191
122.533
136.238
130.195
114.124
129.196
87.69
106.368
113.196
106.47
131.283
145.572
127.331
82.8966
111.126
101.902
177.725
202.335
210.475
193.901
149.753
159.223
185.532
241.217
209.609
229.79
193.596
214.217
202.069
180.743
252.608
219.124
235.128
209.358
225.723
207.398
190.333
214.278
212.577
195.625
199.895
182.096
180.529
166.323
113.304
150.34
129.323
130.229
114.137
106.526
87.8362
229.76
208.505
205.848
206.279
203.604
178.283
181.231
5.27671
181.332
64.2444
45.5965
0.117094
130.21
15.8794
199.452
207.779
216.136
184.34
156.652
166.089
175.37
238.765
199.144
227.392
190.796
219.273
207.384
177.915
234.522
226.942
249.188
207.267
223.205
199.853
183.089
223.811
204.043
201.314
198.652
195.87
171.804
174.848
82.9542
106.501
127.439
101.963
123.17
145.648
131.343
1.4689
160.526
84.7758
3.89823
0.0279756
102.938
29.4079
223.139
180.462
211.124
174.018
204.939
192.392
159.991
246.218
219.759
196.048
203.832
231.623
208.683
179.287
129.119
3.02427
71.1124
129.582
15.23
30.3648
0.0453852
196.614
182.245
176.596
146.422
139.659
159.675
120.258
131.642
135.684
105.786
144.304
87.14
119.754
115.555
115.956
145.239
158.806
136.916
87.7401
121.048
106.291
230.464
207.418
208.875
179.095
204.737
206.202
232.881
221.625
202.096
195.908
169.188
199.375
193.125
224.108
202.214
169.625
184.839
152.304
149.875
167.276
129.674
132.839
117.419
97.8254
115.334
84.7558
82.3499
63.516
224.123
192.132
200.099
189.826
197.847
172.312
163.777
230.33
183.501
182.944
197.386
200.631
214.267
213.982
202.775
167.91
187.283
170.08
130.225
150.64
152.558
194.919
157.72
174.461
161.372
118.564
145.133
137.836
112.73
110.529
134.511
121.239
67.8841
97.1963
94.7927
224.818
173.116
190.922
192.497
198.955
200.458
217.148
209.582
181.847
191.321
155.495
178.84
188.437
212.253
226.539
193.508
210.512
178.297
196.173
178.96
159.996
219.375
188.716
207.415
169.498
189.101
175.932
155.281
181.895
225.978
214.088
166.138
200.309
186.462
150.655
218.078
187.355
195.488
181.712
189.969
165.678
156.837
121.791
110.671
112.379
96.7808
94.8882
84.2354
67.1423
111.109
104.498
94.0733
88.3629
77.7107
70.6479
54.4097
205.788
187.659
184.784
177.218
174.204
150.752
153.998
0.120645
112.354
50.9931
1.49954
0.0318537
90.0204
33.1713
192.211
151.985
189.121
173.062
137.001
133.426
176.294
168.49
157.459
140.551
146.227
98.6707
117.236
130.042
111.416
109.587
139.252
125.786
61.4977
95.647
93.656
215.954
163.078
185.48
179.02
193.585
187.26
208.172
218.462
216.162
239.602
217.121
169.347
195.391
192.987
182.753
202.786
232.37
212.87
159.483
191.756
182.426
198.419
206.512
175.303
210.676
153.803
186.899
179.983
207.593
213.367
233.104
210.469
161.389
183.886
190.043
199.695
211.59
180.971
208.04
155.223
188.203
176.971
217.733
217.066
218.773
195.72
194.283
193.941
170.041
3.08653
158.536
99.1308
0.239906
0.00540009
52.9751
11.3829
223.187
166.915
199.49
177.937
209.497
185.04
150.265
143.787
165.699
153.976
127.661
114.291
137.172
95.8422
203.68
148.958
163.79
173.913
172.638
182.406
195.546
144.813
173.262
182.589
166.406
115.105
126.117
156.681
200.927
211.054
227.205
204.652
158.753
177.203
187.689
206.025
214.494
230.552
206.345
162.583
180.742
189.452
219.188
161.245
194.493
202.401
140.078
175.624
170.513
199.971
170.34
178.799
159.188
168.054
144.211
134.516
191.766
141.274
178.561
136.787
174.477
160.359
120.16
6.53089
115.272
55.1181
48.0867
0.103822
7.63171
0.00217312
208.66
211.854
205.483
188.428
184.482
181.599
159.248
203.701
209.811
226.01
199.323
157.295
175.796
182.097
195.158
199.411
216.027
187.26
145.265
164.896
169.189
168.137
185.883
216.852
191.686
137.048
172.941
158.094
197.08
165.941
183.906
143.879
163.483
148.234
127.365
199.479
165.598
184.548
144.568
165.495
148.548
126.131
187.241
170.009
166.812
155.374
151.999
128.324
131.855
194.342
181.678
179.288
168.516
165.994
152.312
137.478
218.051
199.661
189.392
175.304
169.339
163.98
142.021
181.582
148.114
164.193
120.918
161.007
144.748
184.55
184.281
196.92
213.615
192.883
142.138
161.96
175.281
185.971
196.917
215.223
191.63
138.142
172.306
160.154
187.576
176.671
170.779
163.15
156.878
144.865
129.301
124
102.409
74.3834
78.1938
102.414
74.3643
49.7026
23.6324
10.027
0.031476
6.65269
0.019874
0.000408176
0.0124978
71.8536
119.711
94.1068
72.9096
94.9366
66.7372
44.9289
175.481
127.849
113.951
145.134
154.589
137.972
166.704
180.386
182.028
207.238
195.003
138.337
167.114
168.866
174.797
168.084
198.101
185.514
126.501
161.238
154.083
164.3
178.906
196.599
177.058
120.188
142.345
158.139
148.732
183.978
200.139
170.402
112.368
151.804
132.621
181.059
150.99
160.374
135.078
145.195
121.237
110.61
0.0220182
119.033
18.1749
6.0853
0.00561699
98.3271
7.99769
182.593
150.16
179.652
149.689
119.69
116.246
152.92
142.988
117.231
124.823