/*--------------------------------*- C++ -*----------------------------------*\
  =========                 |
  \\      /  F ield         | OpenFOAM: The Open Source CFD Toolbox
   \\    /   O peration     | Website:  https://openfoam.org
    \\  /    A nd           | Version:  9
     \\/     M anipulation  |
\*---------------------------------------------------------------------------*/
FoamFile
{
    format      ascii;
    class       volScalarField;
    location    "0.0033";
    object      impulseMax;
}
// * * * * * * * * * * * * * * * * * * * * * * * * * * * * * * * * * * * * * //

dimensions      [1 -1 -1 0 0 0 0];

internalField   nonuniform List<scalar> 
28381
(
169.292
183.56
196.529
105.956
122.052
206.023
140.602
157.629
176.461
192.753
138.943
112.75
288.513
278.758
262.129
255.763
275.703
264.968
249.896
243.287
264.197
254.184
218.614
227.224
224.003
211.498
305.428
304.906
304.382
285.402
308.862
301.344
302.417
301.542
282.018
294.191
296.786
297.537
299.634
298.042
292.448
291.246
294.107
272.309
295.103
287.839
291.417
289.343
268.308
278.943
285.526
283.162
288.358
286.275
288.388
277.789
284.404
267.819
285.313
280.388
287.068
289.557
269.647
244.483
282.345
274.217
291.374
271.157
188.976
177.716
178.441
224.243
207.417
256.905
199.068
239.974
191.564
231.39
456.561
103.857
412.279
98.7728
356.576
87.3138
323.461
70.8756
254.54
205.532
190.14
247.062
438.187
182.347
227.306
206.935
100.44
205.126
178.836
239.213
381.759
160.23
226.546
196.878
91.3172
186.644
150.849
216.064
334.868
122.075
180.753
168.424
74.5973
154.762
396.78
340.381
114.296
169.574
291.483
95.6731
167.601
142.229
67.3544
135.237
133.776
155.803
79.0619
103.654
155.678
78.8723
133.384
128.53
150.472
79.1057
97.0498
130.271
147.459
78.9229
118.292
134.52
76.2289
82.9563
121.301
129.397
74.7217
107.17
116.024
69.7496
67.473
109.815
113.128
68.4928
280.628
101.755
277.028
237.508
215.268
212.292
153.432
204.414
197.492
307.462
478.772
206.882
189.75
476.886
206.726
306.552
303.421
185.778
453.67
201.361
465.771
203.565
299.172
132.446
102.04
152.515
78.6642
153.685
78.3276
131.753
285.704
441.249
198.442
174.257
293.429
426.6
194.247
277.463
167.947
392.832
182.273
410.463
188.781
269.034
126.474
94.5417
139.372
77.4929
143.659
78.3803
124.052
252.211
373.669
174.62
140.743
260.486
354.108
166.616
244.58
130.949
319.005
152.406
335.653
159.118
237.23
115.342
78.6449
120.118
71.4441
124.537
73.1086
112.494
458.311
460.086
404.674
381.196
483.668
438.98
385.703
610.601
530.121
655.036
497.218
419.127
361.528
377.281
325.227
410.059
356.953
373.109
546.867
395.192
450.345
470.102
222.715
303.427
146.149
107.369
229.606
288.637
140.811
215.337
99.7953
250.7
141.778
268.274
136.927
212.325
104.982
64.9166
116.021
76.2245
112.461
70.404
104.304
255.945
108.52
156.517
284.342
157.829
236.722
224.654
177.098
116.483
148.037
209.202
139.672
138.682
88.3327
214.524
133.933
226.878
161.739
169.669
219.424
173.41
2.90689
191.713
116.469
384.009
378.593
374.907
359.097
354.801
341.708
411.554
362.185
335.44
319.976
310.336
241.328
367.797
338.904
288.219
259.858
311.214
335.697
325.702
387.217
336.085
327.563
313.283
307.301
382.797
331.537
324.273
334.083
325.605
304.265
297.139
329.002
322.6
370.673
300.812
324.346
320.874
292.795
364.488
310.841
316.484
317.276
318.552
289.035
282.407
305.724
314.454
351.049
285.711
301.183
312.429
278.878
346.945
291.543
306.94
296.703
310.009
275.26
273.488
286.319
304.08
329.907
272.927
282.382
303.41
276.18
325.536
276.667
301.408
278.98
304.849
272.706
468.562
454.791
461.781
396.535
489.813
437.724
440.793
443.785
380.212
396.133
389.973
417.925
416.316
415.072
256.467
288.315
285.498
285.88
265.73
283.267
260.644
349.706
360.545
310.008
375.283
315.003
340.863
330.125
227.263
152.355
160.826
187.038
214.781
251.218
229.024
61.746
32.3014
61.3941
26.6886
61.0005
12.225
54.5036
3.86024
104.69
36.5652
0.00175794
0.0470062
84.7803
129.492
84.9767
127.281
17.3458
40.0477
17.8122
39.2861
84.7057
122.934
84.5993
115.27
18.1065
37.532
84.3397
125.403
82.0178
114.775
79.6792
101.006
64.5738
84.6972
69.1095
58.6877
154.806
96.0846
110.73
48.6176
82.3283
61.5971
108.901
47.9409
81.2146
105.251
46.5257
79.093
61.267
99.889
49.5173
75.6946
94.4357
46.5466
53.4816
57.986
83.6797
39.3233
38.5085
64.346
26.3216
18.3869
37.5323
38.6043
11.3946
0.787067
123.769
61.6426
66.5233
106.105
49.7711
123.492
81.6055
105.348
84.8672
81.7276
105.397
123.18
122.137
84.6684
82.6696
103.412
81.8172
104.213
121.048
30.3672
16.9358
36.7958
17.2524
16.9063
36.8778
30.4778
30.2029
17.4332
17.1817
37.0485
17.0237
36.893
29.9795
118.109
82.7843
102.334
84.6544
119.431
82.7482
101.647
116.772
84.6731
82.5933
99.8823
82.7723
100.941
114.975
28.8902
17.262
37.065
18.3992
29.5517
17.2516
37.0357
109.987
82.0743
98.4448
83.8112
112.718
81.2068
96.5953
106.987
83.0573
78.6972
91.5115
80.0928
94.412
103.886
96.1876
77.2859
87.4244
75.5337
100.319
76.2238
81.8872
91.8527
70.1388
76.3013
67.3758
75.9251
74.8933
87.8411
107.918
65.478
72.2815
124.224
63.7705
121.935
108.065
92.4244
72.1222
60.2779
64.2963
69.6489
89.0367
69.2106
83.6705
54.8248
61.7723
83.6495
54.8048
70.7106
70.5255
81.823
54.3243
61.3623
81.4163
54.2035
69.229
69.4811
79.4906
53.1287
60.5175
78.3113
51.8041
65.8669
67.5686
67.9642
39.8908
49.0247
60.4335
32.7453
42.0076
51.0257
127.825
95.9975
134.993
105.431
110.348
108.131
137.219
17.9301
4.38161
0.0762423
24.9313
6.01932
1.11812
0.0923094
115.563
61.8126
64.4847
3.70609
61.516
82.4527
54.5468
82.8636
54.5587
70.1311
69.8657
61.3567
80.3673
53.7889
80.977
54.0486
68.9298
68.478
59.7719
73.1275
45.5932
76.3966
49.4522
62.9125
58.1158
42.7126
42.8233
19.2142
51.3976
25.3012
32.2927
23.2439
82.357
60.3769
60.1157
83.9208
86.0287
81.2825
55.1222
59.9699
8.60921
14.106
30.5835
58.1752
7.32065
12.1998
54.0855
4.72653
8.19903
20.434
29.8973
2.06126
3.68887
18.7212
0.561429
0.922646
4.2435
6.71917
0.0347612
0.0412565
0.787998
0.0112826
0.00366939
0.440527
0.103878
0.00121059
0.00215782
0.00810811
0.00364074
0.00033128
5.00378e-05
37.7179
132.037
117.548
145.853
79.1799
124.779
155.207
119.042
91.5494
123.868
85.8973
146.312
182.535
200.105
196.755
123.226
110.617
92.3138
59.1627
0.00301358
54.998
95.9751
45.1019
113.937
87.0343
63.1153
120.799
110.562
85.4694
58.1503
103
82.4771
54.1731
106.686
93.3962
77.6972
42.7474
80.9637
51.9366
26.7576
82.0902
48.134
35.0497
3.28311
18.5705
14.1031
0.801491
30.0223
1.81723
0.354865
0.0354809
2.4918
96.7376
68.2849
23.1128
21.4326
36.9445
10.6998
9.23675
0.763563
0.0312905
0.000789227
3.43173e-05
0.000187343
1.87214e-05
8.58151e-05
8.84008e-06
4.03605e-05
2.46339e-06
7.66412e-06
4.25784e-07
2.09407e-06
9.34214e-08
0.000537088
6.83447e-06
4.12342e-07
2.07193e-08
34.7165
26.7908
14.4001
0.162975
20.2429
0.00927419
1.80251e-05
1.09619e-06
6.27674e-08
3.09754e-09
538.152
518.065
505.322
543.01
529.945
503.312
572.25
526.873
546.559
0.00010664
0.000271699
8.13431e-06
3.68957e-05
3.7532e-06
1.60772e-05
9.22658e-07
3.55635e-06
2.03762e-07
8.79665e-07
4.7423e-08
0.324771
0.000793862
0.000168171
3.01875e-05
1.36814e-05
306.698
112.326
100.217
146.469
174.907
117.922
164.031
123.197
68.4889
46.5277
0.0742018
273.254
275.053
274.055
262.586
246.338
240.408
204.764
180.799
153.302
79.199
214.789
188.958
141.461
140.759
194.231
175.536
231.784
209.894
176.904
743.992
667.699
948.212
811.728
618.691
770.839
1128.89
1016.44
1093.49
905.959
1173.79
972.043
1048.81
1645.36
1600.37
1710.25
1534.17
1077
858.288
869.538
948.455
920.703
998.384
1024.81
1578.95
1397.02
1467.6
1507.56
914.77
822.892
898.798
732.197
970.645
778.421
848.95
1330
1317.89
1425.04
1229.39
951.861
855.994
698.531
583.914
349.959
556.813
889.923
529.205
513.587
733.487
457.095
442.659
611.111
409.883
458.034
935.656
825.237
1085.01
953.331
828.448
1080.71
937.906
818.445
749.45
984.724
817.229
855.284
716.69
942.671
663.874
616.679
804.993
666.528
699.288
591.681
761.983
540.95
527.46
648.748
552.799
572.927
501.237
610.369
276.062
234.273
765.5
687.392
608.598
559.043
689.654
608.726
766.158
1449.39
1674.75
1657.46
1462.63
1184.83
919.057
914.443
1194.23
910.588
922.639
777.028
1019.44
803.332
1050.86
884.424
746.339
544.575
648.926
582.099
669.733
596.262
725.728
1397.43
1528.82
1596.43
1340.51
1143.66
856.12
887.123
1098.9
672.938
627.341
565.253
495.482
702.702
601.537
542.845
1229.17
1462.59
1284.88
1399.53
1012.23
826.334
1056.42
794.838
777.171
774.572
645.257
849.599
680.11
895.65
737.108
639.996
475.45
545.894
495.481
572.775
518.506
608.521
1171.73
1267.74
1335.5
1110.65
965.845
724.002
761.056
915.893
552.68
524.687
474.279
431.032
579.52
507.139
454.855
972.371
1193.09
1043.6
1112.12
804.02
683.244
861.22
640.814
631.374
637.512
549.493
684.567
569.653
721.606
601.766
528.341
420.583
477.301
421.32
491.924
437.459
505.967
903.618
958.427
1032.03
841.353
749.105
563.471
600.201
699.604
730.01
891.813
785.347
826.701
492.044
510.264
421.415
481.534
464.812
553.324
431.986
651.075
619.437
734.616
552.783
181.015
361.318
138.886
123.596
326.313
168.663
257.334
857.639
805.103
742.236
667.278
623.651
847.06
778.457
696.376
630.023
588.903
529.124
508.054
440.032
773.616
671.992
543.576
747.607
519.449
507.103
463.924
453.524
425.13
700.744
659.056
676.192
687.117
703.103
708.67
695.39
693.145
642.374
703.499
670.641
684.676
617.374
664.121
610.327
678.049
572.757
657.58
547.87
582.128
663.122
666.716
668.243
535.08
567.074
624.525
577.706
644.712
651.694
608.231
553.617
607.355
493.965
633.064
538.618
584.813
582.01
477.699
508.944
536.85
521.816
558.751
561.986
533.593
499.264
520.132
444.679
546.747
490.225
506.394
522.04
435.828
469.719
479.579
481.385
493.661
507.803
90.3163
0.572787
2.53434
0.000938181
0.00282382
114.79
37.4523
104.691
30.0607
49.6622
12.0688
3.40625
0.0010111
0.452685
0.000356487
0.302063
0.000621319
0.0398683
498.343
1125.2
164.35
92.5213
21.4135
31.8685
3.82387
0.0650081
0.00127191
472.453
1020.81
166.402
93.3568
21.1681
25.129
0.033886
0.0269616
0.000652048
397.488
826.975
158.838
92.3732
18.5738
9.36279
0.00187098
0.00062315
0.000152135
326.046
650.171
153.214
98.2697
10.2219
3.4718
0.0693838
6.27481e-05
4.83302e-05
210.53
376.864
151.914
88.582
28.7974
43.9566
0.00947734
0.101495
108.455
209.462
26.5854
136.834
0.0205071
1.4113
984.011
929.426
952.97
835.379
1004.63
301.184
490.836
952.809
294.334
1059.1
1055.02
986.776
138.993
164.216
139.83
20.0211
77.2529
43.4122
92.8384
20.5372
77.1477
42.702
12.5013
31.1219
11.0899
21.3594
10.5775
29.7275
6.68337
883.467
791.072
925.833
286.668
446.926
804.404
276.628
880.417
140.184
164.786
139.035
20.707
77.1361
42.0868
93.2087
21.2528
74.9203
37.3788
9.37126
28.7024
4.66776
19.5969
4.83141
22.8286
1.59952
707.924
645.424
577.239
756.666
386.161
363.754
632.853
352.131
689.038
663.602
136.309
150.697
131.465
21.3574
70.1589
34.3647
90.3994
20.1776
59.9147
19.6609
3.39916
19.7215
0.506025
13.0486
0.701346
7.85307
0.105146
556.412
553.556
473.257
453.649
597.919
315.37
281.093
458.024
171.782
631.629
499.337
491.017
133.164
138.857
109.105
18.5953
40.6564
13.4467
59.0061
15.982
15.6888
1.37766
0.400117
4.22475
0.0348197
10.0944
7.74734
0.608982
0.478185
83.9357
112.385
72.4397
139.484
165.219
57.5833
81.888
81.6768
70.697
67.6987
172.311
173.407
85.9463
115.13
268.552
91.9772
260.956
90.8846
229.504
87.6148
186.183
18.037
125.52
19.459
287.142
287.924
242.946
225.901
155.468
268.511
245.035
223.014
155.498
288.745
277.664
244.591
189.112
153.683
246.92
236.482
202.952
150.431
265.915
251.172
217.054
168.537
146.012
209.228
201.887
173.444
139.678
230.857
211.876
184.656
138.777
141.721
160.973
165.973
96.2092
109.884
1310.28
1165.41
1267.48
1112.6
1155.6
1254.27
1323.4
164.103
209.168
207.946
96.7861
141.273
140.248
97.158
20.6192
17.7813
29.8957
21.4199
17.616
29.8173
20.827
1162.54
1044.9
1168.43
981.32
1204.96
1000.9
1132.73
205.386
166.201
203.811
100.454
138.837
99.6544
138.131
17.8
16.1684
29.0649
20.8445
18.8743
15.2776
28.4051
943.942
845.338
978.807
777.018
1003.14
797.063
918.901
154.976
191.66
185.231
96.9373
130.137
98.6685
125.158
10.6585
11.2849
24.2756
17.2068
12.8712
9.49797
21.9784
722.587
670.558
749.078
610.938
775.53
630.964
696.355
136.57
161.78
141.473
86.9353
106.497
89.7455
99.9754
1.94581
3.56978
11.6982
7.52475
3.40679
2.34082
7.82646
166.316
290.681
180.802
345.324
154.329
267.561
196.153
365.617
170.74
295.095
280.187
283.421
205.733
241.116
115.576
89.8776
67.9165
141.703
68.3962
144.478
114.737
0.097398
1.72486
59.7511
47.163
1.30094
51.2885
0.367667
54.5304
1.23534
10.7201
55.4179
54.3072
0.87971
0.904668
925.492
852.184
1114.03
994.617
845.474
1103.87
933.255
298.781
458.627
456.169
735.348
287.384
284.104
744.759
1375.58
1724.31
1697.82
1394.72
909.968
974.658
813.564
1063.01
831.788
1083.96
890.561
449.921
290.371
442.774
716.148
271.355
277.702
694.044
1335.61
1591.71
1645.36
1290.08
1282.41
1135.36
1206.75
1057.89
1129.66
1199.65
1292.85
1982.33
1956.08
1922.86
2015.82
1932.75
1838.7
1816.66
1960.84
1277.24
1085.39
1085.95
1198.39
1122.92
1227.02
1242.28
1248.14
1023.47
1057.55
1131.72
1095.34
1166.33
1212.64
1908.49
1789.12
1857.06
1829.31
1860.92
1672.58
1748.64
1781.17
139.746
151.745
152.552
92.0703
99.4374
99.7522
91.974
206.432
165.479
205.812
96.9889
138.968
139.204
98.2392
153.234
140.366
154.684
93.2693
103.058
100.982
95.6419
45.3669
22.9872
38.6173
20.1276
22.9783
38.733
45.0855
45.6609
20.3206
23.9853
38.9945
23.4121
38.8532
46.1171
14.2141
13.8622
12.6751
12.1509
13.5648
12.2979
14.5366
20.261
21.4248
16.8481
29.4805
17.3255
29.705
19.6871
13.6139
11.5123
12.1763
10.5804
13.0093
11.5992
12.7184
841.2
789.908
1040.21
892.286
867.855
761.825
1010.5
434.814
282.328
425.52
652.064
265.867
673.021
260.681
1209.27
1547.63
1249.47
1501.25
810.423
851.706
694.488
926.058
730.616
972.341
774.93
414.384
401.107
269.227
629.689
247.067
254.73
604.711
1166.83
1390.91
1450.21
1119.18
1699.68
1733.38
1762.43
1678.2
1112.26
933.482
896.705
1035.13
950.173
1087.22
1059.44
1635.41
1552.29
1619.51
1564.82
155.255
139.751
155.029
99.518
104.636
97.9393
105.786
200.86
162.218
196.805
100.458
133.954
136.574
99.8581
137.93
154.157
152.602
100.348
106.692
106.476
100.61
46.82
24.5103
39.0054
20.8937
46.4791
25.0068
38.8949
47.0912
21.0839
25.9198
37.9654
25.4844
38.5716
47.2784
10.1571
11.0854
9.27819
7.94234
11.5536
9.77449
7.75871
16.4477
20.3372
12.8417
26.0698
14.1691
27.4279
14.8052
8.59305
6.38443
6.7649
4.52395
8.30734
6.12917
6.93736
693.258
656.464
875.068
711.019
735.222
620.198
821.148
369.765
260.2
249.542
544.627
237.092
576.361
224.854
994.772
1317.35
1061.87
1229.09
651.726
669.524
557.176
717.938
587.317
767.871
611.625
333.89
237.493
224.791
511.093
196.628
211.091
477.158
923.072
1041.16
1134.31
851.788
1384.4
1470.63
1481.54
1372.58
884.932
730.687
709.621
802.477
751.022
858.835
828.772
860.031
696.222
698.312
756.707
736.381
801.065
808.834
1280.87
1164.34
1267.33
1179.67
1231.21
1056.66
1140.27
1136.87
134.169
150.456
147.862
100.053
106.499
100.472
105.932
177.862
169.964
146.197
94.7538
112.946
119.288
92.3172
128.225
144.744
141.151
99.3712
103.952
105.054
98.5306
46.9902
26.2907
36.9848
21.322
47.2825
26.6333
35.4946
46.2292
21.0027
27.1244
30.1847
26.9395
33.2983
44.7143
3.66492
5.2223
3.0804
2.19933
5.25966
3.75308
1.91733
8.22842
15.394
5.46584
15.6505
7.52133
19.1165
5.70495
2.28304
1.29716
1.42194
0.560616
2.44862
1.08503
1.24915
532.064
527.091
670.927
560.78
572.514
493.811
623.64
295.711
198.906
211.925
410.198
182.276
443.682
168.384
718.009
954.196
783.763
871.963
480.434
513.72
406.364
487.899
452.544
562.66
419.276
247.654
272.078
184.841
369.143
138.514
153.182
322.053
637.417
647.329
769.922
540.18
710.369
662.459
713.973
596.434
759.783
624.759
669.567
996.203
1067.75
1085.49
976.274
968.15
980.342
1050.46
906.457
653.018
561.094
516.429
543.512
580.228
628.285
565.097
643.263
549.616
513.147
525.93
575.486
606.542
557.1
880.557
725.248
861.497
741.908
857.627
677.135
803.875
722.873
120.614
124.59
137.188
96.3718
102.615
97.4694
101.604
144.974
132.457
133.292
85.039
89.7152
93.2633
88.3146
125.019
129.127
115.617
96.9466
100.114
100.821
101.084
37.682
27.2067
25.9317
16.2064
42.0024
27.0308
20.5811
31.9249
14.5393
28.0938
14.8074
26.2279
15.7217
28.1376
0.477977
0.790443
0.302162
0.415626
0.646072
0.609865
0.311784
2.06028
6.22006
8.48706
9.02927
2.53825
5.49787
7.90958
1.56668
1.67841
8.11718
7.30428
1.81609
1.46075
7.69911
117.983
81.9758
68.8061
134.604
73.5438
131.688
114.83
107.237
74.5762
76.9976
86.3151
81.0824
105.002
87.5473
115.11
86.9952
65.496
137.002
67.6788
142.452
113.174
104.181
71.1734
69.8158
85.9083
69.8294
104.005
86.0837
103.658
68.671
69.0497
82.9529
69.2682
102.124
85.1681
13.4954
14.9942
0.00520524
11.1749
0.0850219
0.00248402
5.69199
0.00330892
0.000208658
0.907575
0.0653718
4.40932e-05
75.6209
50.9408
0.0676654
132.015
0.994694
19.8294
12.0911
18.7657
16.376
7.23492
18.9958
15.9984
27.3407
19.2923
1.323
34.4498
1.63766
19.2573
0.294016
26.8303
17.6835
0.0645977
15.674
7.36231
13.803
0.436812
5.75443
65.6431
168.506
103.95
21.3894
16.4351
15.0314
13.23
16.2666
14.7212
21.6375
18.549
15.2719
12.2556
10.0395
19.6385
14.6037
10.9124
10.9375
11.1325
5.87102
4.17312
13.3402
9.41866
4.10465
1.90659
3.54725
0.715746
0.671115
3.27915
2.36473
0.51164
108.447
69.6864
62.9157
130.228
60.7117
124.414
110.877
33.8317
9.17213
4.07836
44.0806
37.8847
0.554945
1.93204
21.0079
12.7725
15.748
13.347
16.0602
14.1689
20.4456
17.1461
8.71162
12.5557
7.65758
13.7045
9.35982
15.4148
27.8917
18.6961
16.8036
36.3161
17.106
36.8113
26.4808
22.0401
16.274
35.3995
19.5745
24.5672
15.3891
33.8464
8.288
2.77846
5.41627
1.38409
7.46095
2.53995
5.58892
18.806
19.7776
11.9639
27.7357
13.9847
31.3778
14.9394
7.03092
9.4589
22.9582
15.3797
10.7816
7.0137
17.659
1.87249
1.69306
7.24125
6.77014
2.3813
1.44006
6.34805
4.82267
13.5938
8.42172
11.081
5.69938
13.0217
6.92675
95.6572
68.2766
62.6046
79.3614
67.7053
99.5314
74.2629
372.779
137.112
187.087
323.27
173.194
249.222
275.745
416.283
173.897
203.578
429.012
209.191
312.747
302.433
194.554
393.812
154.3
166.987
418.807
205.133
308.981
92.8346
112.225
112.735
69.5595
79.2079
79.4106
69.3535
29.8701
63.2904
62.481
40.5652
8.51323
38.6577
6.38334
0.0786935
0.0475242
3.19431
27.1014
2.98502
24.9136
2.00804
93.3537
112.894
112.629
70.9503
81.6612
70.6902
82.1947
57.1093
17.8917
64.7841
37.2375
5.11322
29.2017
1.48226
2.01538
0.00829719
0.551041
23.3775
1.50151
15.8653
0.373121
91.6008
110.612
109.204
70.5823
82.328
70.9669
81.6866
37.7217
0.986459
41.2407
25.1224
0.77977
9.86141
0.0572996
0.0281984
0.00566437
0.149723
12.5254
0.194406
2.85466
0.0149145
79.3451
84.8524
102.338
61.6317
78.1308
65.8704
76.3826
0.00488513
0.315997
20.5766
5.15986
0.0189604
0.202377
0.00181131
0.000861998
0.000967061
0.00798438
1.16379
0.00513489
0.0874579
0.0013128
146.52
131.702
132.64
129.008
116.476
111.456
145.65
43.3437
22.7686
57.4158
22.8906
57.8817
32.1514
31.331
68.8357
158.449
131.272
195.146
177.631
137.41
83.8146
181.898
118.46
149.68
204.042
186.083
143.641
91.3502
0.344766
87.9272
15.7215
150.812
66.8409
29.3916
4.60976
74.3349
103.572
8.41941
157.999
72.3214
48.1311
6.76618
112.659
93.2941
113.043
69.8259
80.9654
80.011
70.3671
92.8943
112.22
111.592
71.1034
82.5992
82.5324
71.1196
88.3103
107.344
105.122
69.853
79.5204
80.7174
68.4228
83.693
92.2885
70.8123
55.0734
70.1367
73.6023
47.015
88.7171
99.3523
118.617
112.97
94.6898
108.429
90.4511
91.5814
112.159
112.264
173.11
114.604
170.864
113.079
87.2779
111.861
110.777
165.612
110.029
158.178
104.628
73.2562
109.073
105.568
149.518
95.3073
138.485
79.3871
64.3697
47.8713
108.743
121.47
52.9518
72.5473
6.07742
45.0458
145.125
109.257
132.04
70.9093
58.5828
5.63215
0.0180789
0.863691
56.2029
47.9388
0.964982
0.895697
0.0135185
174.063
227.617
157.57
259.394
176.335
230.678
218.996
45.8901
72.6783
67.1638
40.1365
60.282
32.0156
32.3096
54.8117
24.7268
57.1836
31.1994
58.1613
30.4419
30.3371
29.7
21.2509
40.8567
42.4805
22.4626
56.9198
31.5485
0.205157
0.12222
13.768
24.811
5.10781
23.1674
4.20423
11.069
0.0178744
7.20785
19.4744
2.50636
13.8601
1.00626
0.0771198
0.0103222
0.409595
7.23657
0.270095
2.03176
0.017544
0.000992605
0.00178178
0.014565
1.76787
0.00601771
0.213285
0.00111941
26.928
19.4189
38.4911
35.5851
17.2886
46.4068
23.6132
72.2161
69.1554
44.3204
33.7166
15.3814
38.2215
15.6605
42.1259
20.3915
17.3771
0.497347
1037.06
895.848
652.444
539.693
379.835
195.595
1289.46
374.059
954.683
1164.1
382.194
899.67
926.219
1033.96
278.86
873.945
883.665
283.995
752.838
710.989
686.609
282.472
707.862
630.061
280.11
602.451
600.642
568.618
564.826
271.215
572.525
260.173
447.497
545.492
451.758
178.625
321.245
330.689
307.918
312.142
284.201
292.026
313.653
307.581
295.249
295.413
297.427
283.563
288.773
286.138
266.454
257.529
1315.91
1075.45
1069.19
1218.05
1053.12
1045
1238.21
377.987
240.477
248.026
358.197
513.745
515.039
353.254
1230.05
1029.45
981.82
1174.92
979.675
1014.53
1129.08
257.742
270.156
386.087
363.246
513.32
514.538
371.208
1104.77
874.057
932.72
1032
943.386
1084.5
896.722
283.084
386.69
383.837
372.669
507.378
374.665
496.415
956.773
759.576
812.287
968.541
786.433
841.551
902.907
283.416
378.284
371.572
365.666
466.22
482.435
355.783
781.651
825.138
718.979
794.424
739.604
842.17
702.112
281.476
364.547
357.144
335.02
449.178
345.048
432.61
657.913
710.026
744.526
755.584
640.456
670.45
719.049
276.785
349.689
341.132
326.272
402.811
417.613
317.039
599.983
629.915
672.841
638.333
609.444
680.975
573.813
264.939
330.517
318.524
291.191
386.001
305.459
366.071
260.442
306.785
299.381
275.552
323.992
343.332
265.643
325.846
251.992
258.313
266.157
276.898
336.443
289.146
340.349
341.663
293.89
340.636
338.2
296.067
334.966
330.928
292.744
325.758
319.098
285.721
310.961
302.956
286.858
297.788
295.242
303.611
375.608
300.272
892.482
984.867
812.626
945.691
976.128
807.355
901.122
872.902
923.92
923.975
780.777
951.633
794.892
853.665
798.078
895.286
761.282
841.051
829.865
857.849
734.847
756.351
799.362
761.29
662.5
811.679
701.601
708.059
626.243
714.506
624.228
667.323
663.137
675.155
591.218
597.524
633.148
612.621
539.253
642.167
563.926
571.25
510.997
582.765
513.658
538.636
543.162
548.301
483.569
472.872
496.494
456.508
407.047
506.286
447.311
178.239
205.589
0.179101
0.00123814
0.000281419
0.157101
0.000967625
0.00369128
0.000402308
0.000723017
0.234454
0.000826131
0.151338
0.00104746
0.009039
0.000603745
0.000493745
0.0439764
3.14173
0.652079
36.791
0.104992
0.000990551
1.04193
41.2905
0.0808394
0.00327466
41.5384
0.286971
0.00213424
0.000838434
0.201934
0.000908003
0.0893207
0.00152766
0.0311809
0.000697206
0.518453
17.3963
0.0544543
0.00327118
10.0454
0.202089
0.0085462
2.01373e-05
2.81554e-05
7.12512e-05
0.000520565
0.000715893
1.89918e-05
0.00023291
4.38595e-05
0.000654962
1.86577e-05
2.01402e-05
0.000205599
0.000160673
1.48078e-05
9.68358e-06
7.42552e-05
7.48123e-05
6.68934e-06
4.51495e-06
2.37767e-05
1.87803e-05
2.26788e-06
1.1201e-06
8.73141e-06
4.89241e-06
4.0543e-07
2.42068e-07
1.79444e-06
2.30772e-06
7.39048e-08
9.33924e-08
0.000154067
1.41413e-05
7.49348e-05
6.50013e-06
2.5028e-05
1.4437e-06
5.44904e-06
3.12528e-07
2.95186e-06
1.22983e-07
1.4603e-05
7.33322e-07
3.24243e-08
2.88031e-05
2.08446e-06
1.04049e-07
4.6855e-09
4.98732e-06
1.11848e-05
2.48441e-07
5.03925e-07
1.07606e-08
2.08771e-08
9.24416e-06
2.26424e-05
5.88201e-07
1.49918e-06
2.85196e-08
7.00706e-08
1.25278e-09
3.02412e-09
2.96922e-06
146.515
224.2
166.796
471.947
462.653
343.775
264.547
396.229
228.264
282.713
231.038
282.368
128.365
158.239
240.468
147.735
240.514
254.946
173.084
522.479
524.204
580.137
588.211
477.833
530.855
530.534
339.741
378.868
380.441
300.814
197.183
125.571
168.321
215.857
182.064
209.674
151.647
430.512
394.428
352.597
305.168
313.375
400.598
365.811
348.728
272.677
294.404
280.22
286.732
314.923
278.178
297.486
324.846
397.009
365.008
351.833
366.034
351.978
326.464
269.049
183.596
252.356
258.42
283.059
262.925
232.671
120.82
296.15
243.156
593.82
699.237
708.277
669.914
622.612
613.46
592.982
559.777
564.145
702.099
634.636
639.521
658.099
698.704
670.657
660.146
641.044
639.843
603.158
625.725
618.471
648.36
600.138
579.479
602.656
590.489
573.673
634.796
586.077
622.735
550.925
580.758
567.275
562.17
593.594
546.771
768.598
740.108
742.073
756.268
768.259
728.318
715.911
710.489
677.343
651.584
653.95
686.698
713.944
686.095
769.831
740.852
721.538
761.293
742.896
711.385
725.548
872.883
814.642
804.56
806.462
820.07
871.91
885.484
643.069
619.991
643.533
626.182
624.904
605.194
608.251
208.238
129.493
178.638
202.598
200.542
239.326
176.187
231.249
169.821
210.121
0.0909036
0.0366696
0.000603584
3.08668e-05
296.925
310.362
314.031
292.884
300.737
319.617
316.596
305.779
311.753
321.721
309.205
322.699
313.171
320.296
322.159
314.028
314.771
317.551
314.669
314.083
313.517
303.168
309.376
309.972
301.415
295.927
304.899
289.797
300.731
283.726
287.627
291.907
1.09546e-05
0.000219125
1.51378e-05
7.88743e-05
6.46444e-06
2.11191e-05
1.96943e-06
7.6226e-06
3.39024e-07
9.31456e-07
4.09872e-08
2.08032e-06
1.10947e-07
4.91548e-09
1.86777e-07
1.00578e-08
4.59668e-10
264.528
255.864
239.167
24.2911
0.929912
2.88899
0.304449
0.112053
0.010771
0.418817
1.5007e-05
0.000198603
4.28617e-06
9.7845e-05
1.85345e-06
7.55687e-06
6.23096e-07
1.76105e-06
9.15073e-08
781.022
852.862
821.999
806.611
861.432
784.871
831.589
700.101
779.755
713.952
732.73
753.989
797.364
753.506
606.171
591.375
584.805
601.44
589.561
575.892
581.27
643.419
647.544
675.334
668.128
695.447
710.546
678.454
782.826
795.354
854.547
755.064
763.15
734.636
721.637
943.634
960.32
1041.77
955.943
965.98
1034.51
1033.3
998.577
947.533
885.218
932.046
894.148
996.295
954.229
605.704
605.24
625.444
622.63
644.407
652.035
627.854
826.448
756.56
797.395
741.32
718.104
705.241
722.531
844.939
857.658
935.468
912.493
922.026
995.091
996.949
838.851
787.906
838.954
857.346
810.876
915.132
865.977
654.338
730.875
769.873
734.972
695.88
666.438
683.752
745.291
743.761
786.274
764.233
724.636
812.694
763.743
659.499
622.64
598.049
696.287
661.566
633.072
604.355
902.607
892.801
809.758
870.382
861.295
927.935
962.319
986.902
1042.35
1028.26
1021.24
1032.35
1040.86
1037.09
552.398
548.387
553.479
576.997
570.327
563.897
568.669
782.215
839.795
830.904
788.834
851.893
894.616
800.639
702.191
743.117
704.299
759.559
804.688
757.133
716.452
680.407
678.648
708.822
690.865
660.743
723.445
689.815
608.111
579.692
563.766
610.506
634.08
582.088
563.58
916.522
968.101
989.141
1003.92
953.694
971.316
1003.87
567.755
588.231
587.218
579.85
602.236
606.457
584.171
282.802
289.283
269.265
233.701
294.41
296.33
286.591
295.425
287.546
276.922
283.943
265.809
258.931
256.792
319.504
314.036
305.1
295.797
314.631
307.376
317.609
320.27
295.823
314.149
309.27
314.247
308.172
321.332
320.852
312.679
309.125
293.562
321.286
310.761
308.289
319.843
290.794
305.888
304.534
308.366
306.733
318.548
315.073
303.271
301.811
279.58
317.133
299.92
298.24
311.494
273.7
287.417
286.598
294.811
293.222
305.96
293.412
278.668
278.857
249.279
298.858
271.935
272.258
235.826
199.339
289.504
245.942
238.007
262.416
265.09
269.689
270.564
243.876
152.274
125.32
30.8389
4.29076e-05
8.93516e-06
5.91803e-07
214.015
201.377
159.554
122.469
81.0594
179.356
211.196
176.725
167.936
189.616
146.213
136.351
140.192
102.778
90.4337
109.814
66.7847
20.8318
49.3167
87.4899
143.768
151.877
141.156
148.054
129.682
120.456
124.612
107.938
107.34
94.6404
113.949
65.4752
97.0443
34.2985
76.2447
7.87753
0.92673
8.19909
53.4164
32.6094
13.8288
0.000761222
3.11567e-05
3.28836e-06
2.00762e-07
1.02678e-08
35.9076
0.00106903
2.0755e-05
2.09967
5.33924e-05
1.93058e-06
0.00690916
1.08347e-05
4.79833e-07
0.323849
0.00019717
4.91021e-06
83.4128
0.000651884
4.6667e-05
0.0542407
6.59234e-05
2.72362e-06
1.58909e-07
8.77838e-09
4.21447e-10
1.7185e-05
1.94628e-06
1.51508e-07
1.00767e-08
5.98108e-10
2.98776e-11
8.06266e-07
9.12296e-08
7.73837e-09
5.50119e-10
3.39283e-11
1.68523e-12
0.000191352
0.000501463
8.58427e-06
5.38804e-05
7.07116e-07
1.89326e-06
4.1152e-08
1.05985e-07
2.23986e-09
5.66969e-09
1.04287e-10
2.67074e-10
4.1932e-06
1.03648e-05
4.88224e-07
1.26137e-06
3.84731e-08
9.86005e-08
2.53545e-09
6.44704e-09
1.46025e-10
3.77875e-10
7.0253e-12
1.87367e-11
2.09429e-07
4.79903e-07
2.32453e-08
5.73433e-08
1.94454e-09
4.87953e-09
1.34496e-10
3.45258e-10
7.96705e-12
2.11741e-11
3.4864e-13
1.03222e-12
5.38765e-05
2.53009e-06
2.02274e-07
1.37316e-06
1.44726e-07
1.16388e-08
6.64571e-08
7.01538e-09
5.77565e-10
55.1905
0.053261
0.263253
0.000302276
7.5015e-05
0.000397081
1.8693e-05
1.35481e-06
2.92079e-06
24.0692
0.00352942
6.44657e-06
121.337
0.00298449
3.39792e-05
131.732
0.517292
4.64631e-05
1.29985e-08
7.25296e-10
3.44357e-11
7.7311e-10
4.47635e-11
2.14216e-12
3.96754e-11
2.30806e-12
8.05206e-14
0.0212482
7.82765e-05
4.81703e-06
80.58
0.00068716
2.01749e-05
0.0184837
2.83119e-05
1.73243e-06
1.0564e-07
6.14671e-09
3.06513e-10
1.5203e-05
1.50423e-06
1.1239e-07
7.57507e-09
4.56447e-10
2.32186e-11
7.25396e-07
7.6155e-08
6.26691e-09
4.42082e-10
2.73876e-11
1.3828e-12
0.000858139
3.30229e-05
7.51421e-06
5.12689e-07
3.10886e-08
1.58379e-09
4.05521e-05
1.27203e-05
8.6822e-07
5.6404e-08
3.32545e-09
1.68071e-10
9.86788e-06
8.66359e-07
6.5264e-08
4.34869e-09
2.60127e-10
1.33258e-11
4.95424e-07
4.80022e-08
3.80895e-09
2.62151e-10
1.60723e-11
7.97809e-13
455.915
434.796
437.468
334.067
335.622
343.799
346.195
641.609
673.288
645.82
655.364
688.394
721.623
683.843
627.025
622.76
650.778
633.621
607.214
659.636
630.277
531.354
511.913
528.489
532.657
507.411
504.259
506.072
838.982
888.419
932.586
920.263
877.351
937.66
897.37
746.223
791.603
840.429
827.615
775.867
850.151
799.722
447.965
429.53
421.048
331.996
342.79
328.067
340.215
533.944
553.646
571.793
549.901
567.925
588.88
546.625
675.167
709.411
747.476
730.318
692.72
751.434
709.304
518.086
545.018
518.063
525.39
554.501
530.087
559.046
598.062
621.14
603.632
628.757
657.635
597.377
629.212
426.811
412.107
402.084
323.131
336.761
332.266
316.467
571.817
558.319
592.536