/*--------------------------------*- C++ -*----------------------------------*\
  =========                 |
  \\      /  F ield         | OpenFOAM: The Open Source CFD Toolbox
   \\    /   O peration     | Website:  https://openfoam.org
    \\  /    A nd           | Version:  9
     \\/     M anipulation  |
\*---------------------------------------------------------------------------*/
FoamFile
{
    format      ascii;
    class       volScalarField;
    location    "0.0033";
    object      overpressure;
}
// * * * * * * * * * * * * * * * * * * * * * * * * * * * * * * * * * * * * * //

dimensions      [1 -1 -2 0 0 0 0];

internalField   nonuniform List<scalar> 
28381
(
131210
134668
128460
82082.8
61099.1
122456
72505.1
53855.6
138215
194515
59700.8
137594
9440.88
23824.9
12714.1
22447.8
31198.7
72238.4
38485.4
68023.4
94056.6
156155
105461
144127
166439
175710
2040.54
8604.53
-974.388
13204.1
-1668.72
12554.2
2852.42
6742.06
17979.1
23688.2
13320.4
17508.2
7559.15
12761.3
30010.2
31540.9
20459.4
41019.8
20294
42037.4
29612.5
42655.5
54455
74665.2
57355
56330.2
41629.5
59134.1
100983
96579.4
76623.2
118476
79213.4
121075
97771.9
116962
138332
168919
129101
142128
114197
138151
24863.2
34517.8
138269
134935
138174
137890
184060
115167
158326
151526
-11615.9
-13775.6
-7622.07
-16169.3
646.989
-32657.1
16229.7
-37643.9
130362
176415
-29279
-502.477
-10088.6
-30032.7
10511.3
7128.84
-15143.1
8537.23
-30528.9
13952.3
-5319.16
-41846.2
26103.8
13203.4
-28308
22027.9
-46970.9
39977.4
10705.2
-54355.6
52486.8
34796.7
-38190.2
43318.4
28904.7
52770.4
-54709.7
76543.2
87341.6
-33879.2
117201
63329.3
-9800.11
105523
-1964.14
-1526.06
-2818.68
-13872.4
-1359.31
-3526.51
-2026.31
-1643.35
988.637
-7890.56
-18678.5
-1174.25
1476.14
-11517.9
-6232.94
-4848.59
-23444.8
-35583.5
-6461.44
-6782.86
-24369.2
14757
-4947.15
-18220.6
-34610.6
4913.66
789.718
-11230.4
28863.7
-34844.5
105537
118387
111092
105519
171846
192401
147888
-7176.6
-12176.8
-8323.48
-29553.2
-12530.3
-8300.05
-7119.17
-7013.35
-29944.4
-12821.4
-7278.8
-12830.4
-8094.18
-6353.45
-2070.97
-14443.4
-227.447
-5921.63
-1114.02
-4657.45
-1642.87
-4635.22
-12847.1
-6237.92
-32587.2
-5464.59
-13390.8
-5914.08
-4234.5
-36658.4
-17178.6
-9982.38
-14968.9
-7199.92
-4314.61
-3345.09
-23169.7
-2337.45
-20781.3
122.903
-16372.8
-5309.48
-2044.71
-18070.7
-12677.3
-50603.2
-3623.62
-17723
-14816.5
672.897
-52943.3
-14494.3
-16817.7
-16365.7
-16279
4443.53
-4497.01
-37399.3
-7174.27
-22043.2
-7600.28
-23904.6
-1004.41
-10892.9
12881.3
2316.31
35609.6
-12153.8
16044.5
4621.75
-25529.4
-18038.7
-26963.1
-15922.3
-9039.2
42448.7
28105
16071.4
19753.9
7744.29
-2438.28
-24118.9
-2832.22
-12648.4
-16264.9
16336.6
-12236
-15701.2
-53105.2
9374.08
-9029.59
-11327.3
26480.8
-47669.8
8260.89
18486.9
-3902.69
-994.079
42567.9
30801.8
-26342.9
32560.7
22748.7
12560.7
2446.71
52241.2
-874.103
-51845.3
19245.9
-19328
-7303.97
7028.25
30994.1
173150
149928
109503
166434
179324
86885.9
159227
71205.6
5606.36
29760.6
56807.9
59672.3
66933.6
100133
36724.5
50363.1
139733
-15577.6
-11634.4
-8792.86
5566.98
12037
41186.5
51761.6
83887.7
55375.7
97682.3
102536
156690
80967.9
90602.3
157056
171188
-14924.9
-19790.3
-14225.2
-14726.9
-18659.9
-13103.2
-16329.8
-13851.4
-13672.6
-15623.9
-9825.43
-17615.6
-11933.9
-11910.1
-5480.35
-13111.2
-6893.29
-4783.4
-9265.79
-9536.57
-2915.65
-789.184
-15.552
561.844
7505.41
-5096.93
1788.93
5004.63
20844.3
7365.34
14319.1
19764.1
12037.3
15778.7
22763.1
32158.8
29328.8
39811.7
47603.5
26359
33639.1
46794.5
84127.6
56232.8
64773.1
71026.6
64830.6
74084
83384.1
99081
84763.2
102641
111440
88779.8
98150.8
116030
71589.2
66304.8
40714.9
63030
60368.2
80615.6
48846.9
80290
72989.5
101454
64709.7
91455.3
55931.5
89019.9
117257
92782.1
117180
115165
98542.9
110000
128169
99784.9
72351.7
102754
94257.4
110137
105878
86224.9
117969
71681.5
90993.6
40367.5
106417
188089
196989
-4346.2
47173.8
-10353.2
52933.3
-8598.01
53582.9
30009.5
31351.7
24122.4
101764
16.3509
662.625
2386.19
20172.5
-3809.39
20623.4
-9410.49
16612.7
-10685.9
19152.6
-8129.22
22542.6
-15091.4
19818.4
-11431.1
26106.8
-13537.5
24467.3
6239.99
31687.5
20431.3
55835.1
91420
106462
-13595.7
97560.2
116845
141056
26151.9
11919.3
16690.4
-8086.08
25440.3
14011.7
17522.3
21931.3
19557
19373.3
-11139.5
16488.7
10736
27412.7
25825.7
23467.2
65212.8
14005.4
49571.8
45502.2
86229.3
90892.6
63073.9
88894.4
85262
120863
59926.1
9225.91
159440
110299
151356
155638
141702
183.919
2665.25
3286.27
1794.93
2059.02
2944.51
368.471
-546.921
-457.817
-1945.5
-634.906
423.287
1307.4
-1109.02
10366.9
1502.46
-361.554
-9252.99
1732.85
232.884
9848.33
11116.8
-9789.06
2417.85
882.976
1995.56
371.58
12389.6
-4025.83
-5689.41
-2927.02
-12357
-2143.94
-10888.2
-5715.52
-6936.94
-14742
-19164.7
-9731.21
-15916.5
-8731.34
-9079.05
16862.1
3179.49
1852.69
-11821.1
14237.4
4462.66
3611.93
-7409
-20079.6
-8304.33
-9808.17
-9269.93
-18803.9
-4658.66
-3530.75
-3466.91
-10112.7
10101.6
-15528.6
1262.77
2767.73
26586.1
-1763.82
23444.8
40828.5
12333.5
10344.6
43166.8
47438.3
66435.4
53421.7
97177.5
28717.5
69780.8
73429.3
41891.5
-36394.9
18664.9
36514.5
-5246.96
11062.3
63153
76153.5
58583.7
86264.6
112792
40719.2
92910.9
104973
3323.79
-1627.61
-4248.62
3317.14
-1056.65
2859.04
2387.86
-2798.1
-2570.42
-11827.4
-5237.84
-2047.37
-1245.18
-995.26
-3425.33
6901.23
-4194.84
1094.61
13466.7
14761.8
7305.28
39185
50440.2
49107.8
62232.4
61545.1
74674.2
60392.8
62564.5
51439.3
69045.2
74582.1
84916.2
108385
102299
110113
36988.7
922.241
117729
61056.5
12054.3
1208.22
179583
175354
169201
43607.5
-5791.11
-322.175
-2371.89
1709.79
-1645.31
1748.35
232.631
-12188
-5885.41
2416.08
-6542.64
-506.995
-201.471
2547.49
2958.26
20696.6
36160.1
8637.14
22939.8
26041.2
42163.8
66680.5
96727.4
79048.2
81035.9
71800.4
85271.9
90147.3
82254.5
114425
119389
97217.8
106732
119592
124844
40199.7
42138.5
59814.5
48777.6
43934.9
39179.4
57384.4
52702.4
31144.3
49461.6
56795.2
73747.8
17147.9
30925
75276.3
5295.43
9582.85
32319.9
52142.6
373.561
496.771
9152.42
122.784
37.8277
4531.44
1261.52
5.73372
20.5272
62.8679
24.925
2.23261
0.211771
158613
74541.6
147048
157057
150014
73289.8
117262
150928
125516
75148.3
132265
60055.5
33837.5
57298.4
176386
55535.2
49575.4
54406.3
108697
24.8162
157416
157302
150569
80963.1
26825.9
78473.9
55371.8
79603.4
27891
85656.9
71582.2
30401.4
91624.7
46534.5
66322.8
39711.8
105410
79212
77726.9
109786
65227.7
131391
96868.5
39971.2
118106
87778.1
11013.8
128165
24133.7
4464.74
500.357
31296.7
160533
148562
129238
126076
147253
93071.1
64102.1
8915.84
418.121
4.446
0.188422
0.710398
0.0828328
0.282756
0.0406014
0.166429
0.0177505
0.0446271
0.00258628
0.015671
0.000702528
5.37437
0.0409887
0.00259036
0.000140322
108478
107272
95175.9
2361.59
128258
137.531
0.131388
0.00791833
0.000427346
2.2394e-05
57407.8
96453.4
79992.1
82329.1
67814.3
79132.3
86505.5
66794.9
101394
0.609569
1.87658
0.038349
0.138821
0.0188871
0.0867889
0.00718767
0.0189536
0.00124109
0.00512365
0.000299887
3709.99
3.88296
1.28737
0.12977
0.0750507
39744.8
241436
155373
101385
70971.5
131543
139861
102145
181674
179999
1146.04
-1254.28
-538.649
21790.5
31435.4
45560.7
59419.5
108308
147952
212847
263043
160113
101701
92424.1
112349
168394
76773.8
152812
175820
100747
-10007.2
-5484.81
-26775
-27585.7
1949.55
-26932.6
-34547.9
-29766
-33608.5
-27066.2
-34498.4
-29298.9
-34498.4
-38480.4
-39217.2
-38233.4
-39873.2
-34286.7
-27373.5
-27983.4
-35512.7
-28705.2
-35191.7
-33877.9
-38533.4
-40386.7
-40225.5
-38421.5
-31129.5
-26652.2
-34956.6
-25050.2
-32941.7
-24520.5
-33218.8
-36037.5
-39727.2
-37699.9
-37893.6
-21013.1
-20822.7
-22848.5
-12020.5
26557.5
-12955.8
-20665.1
-9511.37
-6829.48
-22999.6
2128.75
5566.3
-15064.6
22056
-1903.31
-20204.1
-15684.6
-27438
-20804.4
-15463.3
-27418.5
-20225.6
-23922.6
-13126.8
-29835.8
-21184.6
-22051.3
-12462
-31540.3
-27656.3
-12542.9
-34183.3
-21229.6
-28836
-10858.9
-32580.2
-18814.4
-2149.84
-24223.3
-9770.57
-20420.8
195.397
-22460.8
-15773.3
77087.7
-14777.4
-13408.8
-11886.1
-12376
-13031
-11836.4
-14844.7
-24953.3
-32347.3
-32659.2
-24560.9
-14108.5
-5705.69
-6046.78
-13638.6
-20447.7
-20753
-14073.3
-28434.8
-15017.9
-27784.4
-20773.5
-14821
-11326
-10508.5
-11040.9
-12218.7
-11686.9
-14856.2
-26427.4
-35670.8
-33784.3
-28958.1
-15597.9
-8523.55
-7064.84
-17938.5
-15609.9
-8340.04
-10376.9
-3586.6
-15184
-6124.76
-9776.11
-34917.5
-37723.6
-31951.8
-39395.1
-25370.1
-10491.6
-21209
-13106.3
-26360.7
-22045.8
-13025.7
-34357.1
-12584.3
-33250.5
-28394.8
-16629
-677.578
-3318.62
-9260.2
-4588.66
-9472.41
-18101.2
-37576.9
-41136.4
-40565
-39267
-29854.4
-20135.2
-16493.7
-33171
-17621.7
-1368.56
-8233.14
9949.98
-18532.7
1414.16
-6196.77
-37521.2
-40493.2
-39182.5
-38550
-33291.5
-21947.3
-34132.3
-22062.4
-25387.6
-18436.8
-4999.83
-26839.5
-8150.67
-29884.5
-22724.2
-15866
15531.5
9143
-247.823
5074.62
-3313.2
-13823.1
-34761.9
-32237
-35486.8
-31722.4
-31329
-19761.6
-21166.9
-28982.5
-28550.7
-29981.2
-29458
-29335
-17264.5
-7656.4
9878.32
-17924.5
2928.2
-21317.8
-12352.4
-28132.1
-25245.7
-29792.2
-21889.1
-32067.5
-34130.4
-64848.3
-60240.5
-28520.1
-22865
-6985.88
-18754.4
-10055.5
-4986.83
3199.89
13837
-14786.7
-9546.76
-2567.3
3755.9
11787
18322
23573.1
49057.5
-5660.44
4864.64
-12663.9
-2123.53
-8485.79
-5266.76
8862.16
14816.3
40279.9
-911.651
3527.45
4783.38
-2053.81
361.594
9164.47
6268.18
2494.66
8767.55
12592.1
4934.33
17641.7
13712.3
23508.4
57628.5
-6476.39
-8557.89
-11133.4
-11904.7
-7676.02
-10539.4
-7172.16
-5305.75
-10709
-4557.96
-7315.75
-6709.8
-9434.69
-3258.75
3815.41
-1734.92
-4185.42
-1024.42
-425.225
2397.47
-198.139
9041.96
3670.76
13703.9
8303.59
7573.52
3969.16
15122.1
29331.4
20785.2
12989
21798.2
21794.5
29153
18263.3
38221
30179.7
51888.3
32404.9
39416.1
24706.4
48704.7
176895
8184.07
32679.1
8.41639
30.4248
85251.6
88954.6
99350.9
92548.8
177919
76638
53475.7
12.9037
8359.3
2.81604
4782.66
4.1914
642.542
-38545.8
-34003.2
-20731.7
-7638.13
13490.3
83866.7
25770.9
705.473
8.03354
-33862.3
-29489.6
-21066.7
-9476.47
15502.1
85377.2
309.854
305.116
4.19219
-16575.9
-18875.1
-22848.7
-4765.74
23629.8
64330
7.83507
3.30884
1.07468
9430.19
-5725.78
-28217.6
23364.5
33362.9
41029.9
689.494
0.47495
0.192668
148102
14647.3
45591.1
-64909.1
172570
86012.7
147.246
1251.35
153776
170767
177097
164404
331.458
20068.3
-28783.3
-20179.7
-27044.5
-15135.8
-35359.5
-40102.8
-36740.7
-31982.9
-38671.3
-26480.9
-31280.9
-26386.3
-15558.2
-20717.6
-16595.5
405.603
4807.18
20426.1
-7825.91
352.308
5187.51
25109.4
43254.1
35361.9
45058.3
14678.3
40383.9
39172.6
37552.2
-24442.8
-19513.9
-29857.9
-37158.7
-29509.2
-20650.7
-35835.5
-22242.2
-18901.7
-21764.7
-21377
354.134
7899.74
28533.2
-8994.87
2375.62
20443.4
46409
38203
41671.6
29318.1
21133.6
25633.1
52250
12148.4
-11369.1
1680.91
12841.6
-16407.5
-27794
-1831.81
-671.571
-22120.4
-7448.4
-18580.2
-21133.4
-22864.1
-15557.3
4170.79
38270.7
54183.8
4707.72
16167.6
71430.8
68666.3
19803.1
55103.7
4350.09
32379.1
5119.05
46336.7
1028.66
19490.8
17964.1
29180.9
34889.5
2460.94
-18344.3
22515.6
5458
-28132.7
-15513.3
-2880.04
-6782.41
1100.73
-9364
60897.3
23634.2
106611
64891.8
117375
61936.5
102578
16176
3108.57
32929.2
349.33
38373.2
21378.8
6632.08
4381
-58868
92625.3
74667.6
132180
69153.1
196288
145048
-63348.6
58579.5
52143.3
59258.5
66654.9
134392
105242
23002.8
9320.79
28514.5
12329.8
49317.5
55005.9
64789.9
118062
161498
156537
-14544.3
-13810
-640.991
28972.7
-7191.47
24618.8
156.364
29427.3
-7932.21
-11062.3
-3064.04
1802.58
34930.8
-9716.39
38238.4
5738.67
39824.1
-11910.5
6736.5
21562.1
10308.9
37526.3
-12820.1
58088.7
11906.1
44837.4
-7859.31
37824.7
65606.7
16331.4
60962.5
8362.74
81859.5
42369.2
147439
70146.2
-34509.9
-33225
-34369.1
-33247.5
-32657.8
-33936.3
-34766
-20365.3
-24804.1
-23924.8
-30926
-41655.9
-40875.2
-31374.6
32606.5
28824.1
20417.4
13841.2
28892.7
20923.6
32453.6
-32785.7
-30554.2
-31202.4
-27316.2
-33561.3
-29170.2
-29544
-22581.5
-21285.9
-21821.6
-32894.5
-40498.6
-32052.8
-40550.6
34182.3
29078.4
24563.5
16855.9
33621.4
29210.8
26839.7
-27754.4
-23482.9
-24391.7
-14881.1
-29640.2
-20673.1
-22119
-23077.5
-22516.7
-24171
-38647
-44681
-37224.5
-47221.1
35130.2
29842
35735.7
26483
35687.9
29490.2
38950
-21860
-12618.5
-17674.2
-5675.58
-21846.7
-11640
-18767.7
-13634.1
-29384.9
-19529.4
-36004
-54394
-39621.4
-54448.5
15258.2
20020.9
43909.9
32887.3
22499.8
15962.2
40843.7
131276
60808.8
37200
26452.5
-67442.8
103372
64514.1
19080.1
-69947.4
-20994.8
94581.4
97049.3
54814.3
67367.9
-7777.02
-66710.6
-42539.8
-30674.7
-45577.7
-33434.4
-3416.01
1510.37
24630.1
165845
110913
15223.8
164007
5114.99
98704.4
13225.1
70060.8
156776
153837
11417.4
10705.8
-33697.2
-36147.5
-34696.3
-34333.6
-35018.2
-34164.1
-34395
-39240.9
-38459.9
-37638.8
-40674.5
-59876.7
-59284.7
-41334.4
-30615.9
-33005.5
-32672.6
-31062.1
-32910.9
-33431.3
-32514.1
-32270.2
-34022.3
-33467.8
-31673.5
-36714.8
-37948.6
-35599.2
-40061.7
-58327.2
-58856.6
-39095.3
-29885.9
-31337.2
-32094.3
-28986
-34179.1
-30787.2
-32085
-26210.7
-30431.6
-32010.7
-34283.5
-35289.6
-33995.9
-33855.3
-35266.3
-36384.2
-36024.2
-36253.5
-36250
-34319.2
-32509.4
-31568.6
-32617.4
-32227.3
-33449.6
-34079.4
-34164.3
-26228.6
-30069.3
-32658
-30291.7
-32180.9
-34278.5
-35297.6
-33219.9
-33505.3
-35490.4
-36739
-38196.4
-37001.1
-37531.9
-15529.7
-18731.6
-18657.3
-21464.7
-17832.3
-17853.7
-21523.5
-23699
-20937.4
-23195.7
-31332.2
-40686.3
-40792.9
-31617.9
-19428.1
-17682.9
-20039.7
-22405.7
-20231.6
-19021.9
-23300.4
-2209.79
-9012.71
7327.66
612.397
-8876.35
7910
-2783.05
-2431.16
402.925
-10656.7
9067.23
-9734.9
8238.58
-2322.79
42851.4
40502.6
45808.4
42749
40283.6
45244.1
43122.1
32844.7
14104.1
29008.4
22880.6
28944.6
21628.9
33184.7
42304
41854.2
38895.3
42471.1
39799.6
44204.3
41305.6
-27533.3
-30341.1
-30567.8
-27106.3
-29892.1
-27291.4
-28495.5
-34324.1
-36339.9
-32898.9
-36215
-57825.3
-37744.5
-57620.5
-26390.4
-30447
-27811.6
-29330.3
-24992.9
-24077.4
-19768.6
-24331.2
-23767.1
-26433.7
-22369.1
-31361.4
-29757.6
-36021.1
-34754.8
-58821.3
-57885.1
-33401.6
-24831.3
-27090.3
-28139.5
-23329.6
-35887.6
-33191.6
-35892.3
-32645.2
-31862.1
-24928.6
-25788.5
-26314.3
-27596.9
-27927.5
-30906.3
-35748
-31458.7
-31979.8
-35617.3
-20758.2
-20207.7
-21614.9
-25307.3
-21529.6
-24232.3
-22858.8
-21307.4
-22335.9
-21489.1
-34158.1
-42523
-41155.8
-35643.2
-21778.9
-22463.6
-22937.9
-26465.4
-23951.2
-23803.3
-27432.5
-1587.04
-11635.2
10161.2
648.383
-2176.14
-12750.7
11817.8
-543.916
1274.39
-14636.2
17183.2
-13821.6
14057.7
1109.58
37588
37454.3
39855
35126.8
39766.7
35379.9
36219.3
34839.8
18809.2
29601.7
32519.1
29359.3
29565
35451.5
34707
30850
29145.8
25668
32600.9
31451.3
31320.3
-15378.7
-14988.6
-21785.2
-11224.6
-19220.6
-9067.74
-18727.2
-25166.5
-36749.9
-37749.2
-29972
-60267
-31819.2
-61852.8
-20235.7
-26120.8
-21726.6
-25339.4
-11221.9
-5637.62
4863.56
-13167.5
-2159.02
-15551
-7701.87
-19569.5
-39122.1
-40856.9
-28052.9
-65490
-63636.1
-26946.8
-19170.1
-24831.9
-24761.9
-19011.1
-33781.4
-30840.3
-35100.8
-29866.3
-25326.4
-10801.7
-14652.1
-18012.7
-17567.4
-19732.5
-23036.4
-28530.8
-22086.7
-18366.3
-27440.6
-21609.6
-30491.4
-25882.7
-31690.2
-27333.9
-28466.8
-29535.9
-33447.1
-31955.2
-34985.9
-30767.2
-19141
-22693.5
-21416.5
-27959.1
-23150.1
-28002.2
-21404.9
-26180.7
-28194.6
-22020
-39811.6
-52571.9
-49935.3
-40444.6
-10067
-18918.6
-14933.3
-27157.7
-14672.5
-18739.6
-25195.9
7200.59
-14882.3
21325.5
6933.65
3555.12
-14340.3
26888.7
12663.2
10902.6
-8736.77
41539.7
-12659.8
33717.5
20967
22026.4
25243.9
19175.6
13901.9
27257.8
20716.2
12915.4
33237.3
29706.5
24663.9
44160.2
27908
42076.6
29307.3
15939.1
8823.21
10281.5
4344.32
15582.5
7824.61
9837.41
-7270.22
10664.2
-12813.3
3173.89
-6069.29
14147.8
-14612.2
-18223.2
-42772.2
-42457.5
-28983.2
-67189.7
-27277.1
-68155.4
-23479.2
-25825.2
-20437.1
-28136.3
-10243.7
2581.4
20236.7
-16456.3
15711.4
-17195.6
-8874.94
-9412.4
-17082.9
-39355.4
-30471.2
-60506.2
-67064.5
-25960.8
-26856.8
-28677.8
-31258.9
-24381.9
-23089.2
-15624.8
-24869.2
-13401.9
-24025.9
-13837.8
-23388.4
-29409.4
-27242.1
-28490.6
-28960
-29746
-30054.8
-29230.6
-29833
-22307.7
-6105.28
-7485.34
-19556.9
-11151.4
-20379.3
-21199.7
-22876.8
-11658.8
-8494.06
-20199.8
-12646
-22693.9
-21190.5
-32167.9
-29550.8
-32169.1
-29257
-31788.8
-27364.7
-31020.4
-28560.9
11069
-1772.16
-8672.51
-13339.1
-8171.67
-21033.7
3312.37
-21900.2
15615
-2015
-27247
-40854.3
-50742
-11363.1
37935
15993.9
30914.7
-563.51
54922.7
23235.4
19851.2
49913.2
-1267.96
50309.3
33029.8
32912.7
11891.3
58207.4
70049.3
46760.1
63365.9
82992.6
31516.6
66983.1
99517.8
3971.01
6208.23
2517.31
2953.85
5375.98
4577.39
2468.74
15065.7
34710
25459.2
51499.2
15820.6
38388.1
38840.4
10366.1
8365.06
22370.5
33566.4
9479.5
9281.94
35677.3
24529.6
-45074.5
-33571.5
-21301.5
-16425.1
-4452.39
7573.39
62499.1
13752
87077.1
98044.9
26466.6
46876.3
117119
-6393.16
-66052.5
-40691
-28058.4
-44634.1
-32293.9
-1141.86
30070.8
3014.02
50165
82089
-2280.88
35828
73578.8
29815
1426.63
47449.9
77250.6
-3314.56
35001.8
72200.2
29517.3
38492.4
35.3021
28082.5
758.945
15.0482
21557.6
11.9229
1.27899
6292.49
629.049
0.169735
-58284.3
100286
770.087
172554
13142.1
32256.9
28763.4
33376.8
35689.3
24195
-10334.1
31549.4
28611.6
-8024.28
9821.97
30719.6
10094.2
9821.61
2576.19
46991.1
17495
618.96
51370.2
21663.7
45435.7
3869.03
36559.5
61580
78244.2
129006
21794.7
15567.8
32901.7
29409.6
15764.7
32795.2
21476.5
25795
17341.7
31507.8
27135.7
24440.1
18402.5
30401.6
30140.6
22514.7
24241.8
18326.5
29794.1
23311.2
20454.2
12916.7
16981.5
5277.89
4643.07
19037.5
13923.9
3876.27
22132
-50446.6
-33592.3
-20337.2
-22472.4
-8038.22
8092.9
90732.7
62414.6
33083.9
146548
137482
6015.36
19951.7
22379
29184
16603.8
32196.4
16094.4
32596.9
23280.5
27212.4
25968.1
21157.7
26816.3
19734.7
28847
28646.5
20188.1
-11546.3
8713.35
9848.98
6249.94
6219.11
24084.6
32798.7
11849.5
14707
-4017.16
28305.4
15599.7
21026.5
29226.9
14413.5
20491.4
9409.59
22782.2
15095.9
25601.9
37025.7
2120.26
23276.5
37626.1
19806
28864.8
39112.9
33453
25283.3
44120.1
24395.8
37836.8
25985.4
48096.3
12689.4
8759.19
23919.8
32065.5
13916.4
9267.05
32010.3
29465.2
32992.5
32730.7
56342.8
27182.2
51326.2
38335.8
58346.3
10787.3
73945.6
86121.8
24078.1
44467.6
96159.8
-37026.1
-60465.2
-35739.1
-29049.2
-22529.3
-9685.2
-19993.7
-39429.6
-70052.3
-41322
-39806.1
-42230
-25210.9
-24240.5
-37692.1
-37133.9
-67671.5
-69301.1
-38961.8
-40902.8
-23924.2
-7066.54
-11276.8
-11046.9
-6881.04
-14223.2
-14007.7
-7456.27
84525.9
44543.2
47065.3
42663.3
51167.9
49174.2
44471.6
712.279
436.716
22397.4
51033.9
25463.4
54531
18663.4
-9575.86
-14578.1
-15499.7
-7684.1
-16847.6
-7860.81
-17600.3
63816.3
81472.2
48087.9
53393.7
39242.1
66820.7
15377.8
15438
66.8204
4828.1
56438.7
14592.7
58406.1
3992.93
-933.303
-14345
-11803.4
-642.478
-16790.7
-3745.17
-14921.8
92119.2
11764.9
96136.9
69334.4
8537.63
59345.8
698.336
286.926
36.7986
1430.66
56147.2
2157.59
25789.3
173.37
48444.9
26675.3
7825.06
41234.3
-822.53
22082.8
12817.5
66.9065
3974.01
102197
42434.1
236.581
2534.67
17.9029
4.89567
8.0524
76.1924
12255
59.0172
1019.06
8.01694
14407.7
62996
36065.4
46041.5
-15503.6
15456.9
21211
75494
88868.2
109653
82012
101004
105995
111692
197185
176354
196519
169020
117003
125841
194662
164465
154666
112203
165833
107850
120006
189206
5728.01
214589
145885
118453
181900
180374
61930
194152
157792
89580.8
109241
176200
195647
81539.9
-12107.5
-8790.09
-13354.8
-7322.08
-15894.8
-14913.4
-7680.23
-7391.09
-15995.8
-15664.6
-7119.26
-17760.9
-17986.5
-5862.03
13255.2
-7634.24
-1467
3908.59
-7826.4
-12050.1
10854.6
92333.7
50034.2
82152.6
72158.1
82202.9
39003.9
106251
139661
98404.8
61867.3
78510.6
95933.5
50028.5
130094
9658.15
-666.102
-1095.95
35818.4
32140.3
35528.8
34560.6
25290.1
-3483.37
-3991.22
35576.9
39976.1
33736.3
52049.5
95620
403.025
11772.9
34259.6
74100
46675.7
112763
135088
137452
36929.4
76435.1
156241
182724
78996.9
200953
104217
112384
137932
216048
252630
82792.3
306.005
13687.6
174408
202567
16501.7
15867.5
244.258
-965.768
8835.59
-36674.7
-16090.2
4146.1
9757.44
41141.1
144060
136906
134243
139448
160091
148883
154540
128852
111392
125956
133705
147490
138336
122375
100584
74817.7
70749.3
70868.6
77612
98203.6
103110
1757.07
1072.09
38357.4
47761.4
30845.5
48589.4
27349.8
37684.4
160.012
33434.7
50527.7
19113
49803.3
8840.55
738.788
81.4454
3560.83
40286.6
2570.43
17611.8
182.908
4.69704
12.2983
140.232
16008.9
62.5046
2169.46
5.02273
97170.8
72154.9
73126.7
75090.8
69300.4
100959
92010
187453
184841
174800
80121.8
74295
104937
68983.7
101868
87143.8
84036.6
6805.02
-30042.9
-23419.8
6100.04
44331.7
119312
55689.2
-33335.8
-34325.4
-35687.2
-30293.9
-32354
-32148.8
-23004.5
-24607.8
-29614.2
-30029.1
-15185.8
-23617.6
-18897.6
-7199.81
-504.662
-14153.6
-13372.8
21158.3
2893.88
10102.7
24648.2
38372
45438.5
32374.7
17803.7
74315.2
32326.6
48503.6
80661.7
226812
-28219.7
-26836.4
-21185.1
-19264.1
-23865.1
-17846.4
-14683.7
-7812.76
-7813.54
10302
5989.03
32420.3
43341.8
93621.1
75500.1
126030
-34298.7
-33379.2
-32360
-30737.5
-33314.2
-32052.1
-31973.6
-33180.4
-35603.9
-34732.7
-38931.4
-36739.8
-35399.4
-40132.9
-32404.5
-31458.9
-29433.9
-29669.5
-29198.9
-31182.1
-27429.2
-33575.4
-31628.2
-30947.7
-37500.9
-33139.1
-34549.8
-35101.2
-27891.4
-24075.7
-27121.6
-21535.3
-26918
-24893.8
-23945.2
-26905.8
-29243.3
-26716.1
-30319.1
-31512.5
-32947.5
-28964.5
-20441.7
-15283.7
-20241.1
-17474.7
-15848.4
-20363.6
-12446.8
-19497.8
-23354.7
-19008.7
-27063
-21177.5
-25540.4
-22980.8
306.461
-8490.76
-8800.29
2128.6
-9992.08
-6050.94
-2510.23
-6955.07
-13395.4
-5941.04
-10775.3
-15625.8
-17747.1
-8401.23
9621.11
24711.6
11443.6
12369.4
17861.9
6834.52
24997.4
15942.5
4019.71
16818.8
-1387.14
12537.8
968.503
10767.6
33336.2
53914.7
39398
53498.6
29599.9
39164.8
41197.9
52273.4
32391
49881.2
42711.9
25898.2
25770.2
39739.5
101415
65500.3
83798.4
60853.1
64773.6
51263.7
80274.4
-27324.5
-27923.3
-27330.2
-26378.7
-25157.8
-25973.8
-21231.1
-24663.6
-22274.8
-13490.1
-18942.6
-14498.3
-194.078
-8636.03
-762.448
24578.7
9959.2
24182.2
67130.5
42302.3
64044.1
129996
85326.7
110353
177755
69653.9
144076
-35669.2
-35224.4
-36911.5
-34286.8
-33827.7
-35486.1
-36915.8
-34799.2
-33622.4
-31161.8
-33045.4
-32968.8
-34693.9
-32881.9
-27371.9
-29176.3
-30875.5
-27057.5
-30595.3
-26369.7
-27846.8
-23686.5
-23418.1
-18355.6
-19570
-22839.7
-24149.5
-19091.4
-5953.85
-12668
-13924.3
-6526.11
-13315.1
-5396.03
-6754.39
3465.72
1564.3
14328.1
12320
3719.76
2159.02
14848.4
41458.6
25355.6
22695
23597.4
27699
35780.4
32571.6
53958.4
26959.9
52363.7
49942.7
43428.6
40872.2
163165
91561.8
2655.31
13.8771
1.98507
1914.92
6.74885
48.3723
2.26703
3.68395
2494.49
4.77468
1711.97
5.83604
120.27
3.19261
2.29064
749.68
47589.8
10232.6
172076
1575.49
8.53735
16067.6
166721
1107.6
37.2168
173085
4072.47
24.9065
4.20268
2059.26
4.847
894.031
14.1185
354.53
3.86234
6793.3
122726
688.966
34.23
85781.9
2517.9
111.05
0.0691423
0.109935
0.614334
3.48986
4.72532
0.10938
2.10079
0.371454
5.29744
0.0937085
0.115293
1.1987
0.95316
0.0823129
0.049758
0.499574
0.483252
0.0361878
0.0281602
0.0903223
0.116648
0.011639
0.0067517
0.0659531
0.0293214
0.00291308
0.00177732
0.0121356
0.0146402
0.000613773
0.000748759
0.523071
0.0647772
0.257988
0.0350844
0.15625
0.00889792
0.0281098
0.00191649
0.0179645
0.000936218
0.101093
0.00502803
0.000234193
0.144881
0.0144894
0.000774043
3.58518e-05
0.0381804
0.0858972
0.00192208
0.00427015
8.82553e-05
0.00016859
0.057593
0.12985
0.00484778
0.0113829
0.000235645
0.000563809
1.05864e-05
2.45796e-05
0.0193201
111947
139080
86557.8
70294.7
65210.7
106563
91212.2
38591.2
149759
164069
184023
151120
60585.3
53694.8
128026
38809.1
112765
105300
41137.2
56021.8
87954.7
68410.1
66408.6
62667
50735.6
81636.2
143474
107757
61031.4
138564
64538.5
129019
153913
69664.2
72220.4
146015
105159
68212.3
80981.8
78775.9
107931
99260.7
71124.1
74359.3
92822.4
118675
92198.8
109598
100104
70619.6
76829.3
85766.3
90122.8
59896.5
55151.6
53621.6
73093.6
76838.6
68875.8
117688
205712
148461
145691
121800
141295
181045
146952
106612
41486.3
25015.4
-1923.6
444.271
5254.3
14683.4
26939.8
43478
46333.3
67528.7
-791.333
2008.76
3240.38
4492.15
2587.61
6875.46
10065.8
14714.6
9170
19727.7
20424.8
14041.1
30099.6
19549.8
34172.5
34490.5
26329.5
33832
37682.2
26136.1
46684.6
55091.6
54328.1
43667
43070.4
71084.5
54164.8
-6952.09
-3393.08
-2245.67
-8267.83
-7064.58
-3269.27
-4376.53
795.882
2074.26
8540.04
6608.07
4443.15
-1609.53
2810.91
-4500.42
-889.198
1522.07
-6165.29
-4198.44
148.837
-2059.41
-17378.4
-11069
-12473
-13868.6
-12566.2
-20584
-19207.4
9417.93
11058
6372.52
13103.6
11291.6
16820.9
18703
264852
173533
269052
224317
256071
205073
275364
195753
259206
229923
1004.25
424.684
3.45409
0.262833
-19155.4
-20047.8
-19074.8
-20073.4
-18173.2
-17153.9
-18315.1
-16869.4
-13022.6
-15704.2
-15441
-13376.4
-9895.1
-6080.9
-10282.5
-5680.85
7958.83
-287.553
56.189
7722.5
19142.6
34797.4
18962.6
35369
86302.8
56207.3
57601.9
82925.1
119891
143269
111044
167436
0.0572846
1.39537
0.0968416
0.563476
0.041888
0.0888245
0.0109446
0.0520591
0.00308844
0.00674954
0.000336667
0.0129419
0.000822818
4.03933e-05
0.00133391
7.9515e-05
3.8936e-06
158791
150934
181027
134474
13307.4
39102.1
4529.99
1840.17
180.54
7399.24
0.12047
1.95588
0.0270236
0.916211
0.0108775
0.0301017
0.00394414
0.0132014
0.000696694
-7797.72
-16446.7
-14377.4
-11912.4
-18633.9
-10283.3
-17213.9
-1144.87
-11839.8
-4692.95
-8418.92
-7986.37
-15211.8
-12457.7
20688.7
27894.8
22329
16210
22937.2
29941.3
32457.1
8109.06
2763.25
-1117.37
96.4744
-4562.33
-9425.84
-5614.16
-11179.5
-10304.5
-14233
-11385
-10829.3
-7206.75
-7988.74
-25217.3
-23912
-28883.3
-26636.2
-25216.3
-30852.7
-29559.1
-27921.4
-25845.6
-20953
-24523.7
-22982.7
-28721.7
-26890
20759.7
13175.3
7379.42
12813.9
5792.9
-719.763
5526.84
-13713.3
-8058.79
-12730.9
-9941.13
-8213.3
-4229.52
-6189.77
-16492.4
-15604.2
-19659.5
-23146.8
-22106.9
-26148.8
-25578.4
-18515.4
-15423.4
-20443.8
-21084.2
-18565.5
-24787.8
-22163.6
2563.39
-5824.18
-11317
-9893.38
-5547.59
-2603.93
-1471.37
-11780
-12289.2
-16856.1
-15515.6
-11622.6
-18862.3
-14700.6
695.215
7179.07
12107.3
-9012.7
-8405.43
-127.117
1953.45
-19443.2
-21756.5
-14126.5
-19037.5
-20906.6
-24888.5
-25369.9
-27456.5
-33529.6
-32529.8
-31096.2
-32401.2
-30639.8
-29982.8
51912.5
48130.7
37996.8
36398.7
29567.1
38255.7
41375.8
-12401.1
-18259.4
-19436.7
-17343.5
-22550.4
-23914.4
-17423.7
-7791.63
-15091.5
-12225
-19436.7
-21071.9
-16800.5
-16102
-1257.61
1682.97
-6117.32
-6377.33
331.817
-9067.73
-1797.99
7321.31
17374.3
23321.5
-4322.83
-6966.02
4532.26
8150.54
-26015.9
-28756
-30439.6
-31772.2
-29005.9
-30532.7
-29601.7
27880.9
28972.3
20092
30654
21226.7
12897.3
20896
-11366.3
-2507.28
25063.4
137171
-4435.13
1322.18
-8862.58
3869.1
16838.4
13050.3
23688.7
70231.8
48804.5
102088
-11281.9
-5393.92
-11736.3
-2855.16
-3873.39
-10525.1
-12435.1
-9896.34
-1259.2
591.64
-7435.01
-2083.2
-9338.44
-7914.61
-2807.24
3278.48
-5337
7376.91
-5748.56
6860.17
-2451.15
721.878
11584.2
16467.8
5580.87
11114.6
1073.06
5262.41
20084.5
23417.2
11610.2
33414.9
11408.7
33237.5
19977.1
32191.3
48280.6
71441.9
49422.9
48483.1
31746.2
50530.1
114577
105396
75489.3
143309
77711.1
150647
109958
238344
189296
157596
189357
283906
183896
210479
145851
216599
39145.9
96477
97982
193759
0.382881
0.0634294
0.00401698
18822.8
26706.8
79651
122166
156758
60771
20716.3
63321.2
73325.9
38271.1
103652
113517
95547.1
119990
137959
177791
198015
102786
198756
192708
49537.8
76669.4
51151.6
80418.2
57924.8
90283.9
57830.1
79333.8
53215.4
72831.6
50967
119882
75136.7
138270
133489
81480.2
10252.4
80032.1
166782
144437
87396.8
3.67939
0.11427
0.0164844
0.00121016
6.87872e-05
161212
8.17539
0.0817029
28378.3
0.405835
0.0115222
107.985
0.086888
0.00331091
4437.71
1.54159
0.0270198
169413
4.00079
0.401436
777.53
0.724038
0.0192321
0.00118996
6.68386e-05
3.3488e-06
0.107411
0.0136874
0.00110919
7.53925e-05
4.68075e-06
2.48459e-07
0.00571682
0.000633516
5.62936e-05
4.21141e-06
2.76676e-07
1.50903e-08
1.78844
4.04088
0.0534793
0.595678
0.00593787
0.0141553
0.000332065
0.000846404
1.83596e-05
4.54548e-05
9.02714e-07
2.20342e-06
0.026259
0.0711546
0.00376589
0.00901118
0.000296876
0.000759518
2.01423e-05
5.04481e-05
1.23083e-06
3.05954e-06
6.33736e-08
1.59984e-07
0.00130683
0.00331278
0.000167433
0.000412159
1.49239e-05
3.6878e-05
1.1013e-06
2.72607e-06
7.00529e-08
1.77242e-07
3.57977e-09
9.56061e-09
0.57115
0.0156346
0.00140745
0.00818451
0.000979249
8.71894e-05
0.00044546
5.10907e-05
4.54552e-06
176359
787.297
3615.41
1.95043
0.633748
5.2452
0.190466
0.00695664
0.0163777
144792
49.0825
0.0412518
156144
29.8951
0.148217
145857
5943.42
0.236578
9.98719e-05
6.00259e-06
3.01807e-07
6.2474e-06
3.84403e-07
1.98634e-08
3.33006e-07
2.09839e-08
9.74978e-10
284.401
0.492337
0.0270554
168006
4.17641
0.0749061
275.938
0.267385
0.0128609
0.000744523
4.461e-05
2.36339e-06
0.110266
0.0108003
0.000788
5.4635e-05
3.49498e-06
1.89408e-07
0.00480189
0.000518117
4.45396e-05
3.33862e-06
2.20418e-07
1.21072e-08
3.62892
0.137594
0.0428354
0.00302028
0.000201102
1.11197e-05
0.167579
0.0833917
0.00541648
0.000369759
2.35213e-05
1.26925e-06
0.0630583
0.00551113
0.000433061
3.09536e-05
1.97727e-06
1.07349e-07
0.00305747
0.000318193
2.71082e-05
1.99072e-06
1.29396e-07
7.02858e-09
-11715.4
-13719.8
-13086.9
-9528.12
-9096.16
-12966.3
-12205.3
-2320.41
-8405.59
-3467.9
-11941.8
-14061.8
-17161.3
-14544.2
14912.3
21749.6
11098.3
8421.42
17302
7233.72
17638.9
63770
68677.4
59110.4
47151.1
56028.1
70021.3
75672.7
-22227.2
-25195.6
-27318.1
-27230.9
-24775.4
-28675.5
-26111.8
-16024.6
-19562
-22586.9
-21523.6
-17439.6
-22857.3
-18940.3
-11133.5
-12172.9
-10524.9
-8382.26
-11140.5
-7015.93
-9226.64
38229.2
23301.1
17231.9
30283.7
3658.05
-600.508
12895.9
-5356.99
-11473.4
-15861.2
-12072
-5136.9
-14104.7
-8153.89
58868.5
35961.1
43569.7
50069.1
40383.9
35563.8
28660.2
7244.27