/*--------------------------------*- C++ -*----------------------------------*\
  =========                 |
  \\      /  F ield         | OpenFOAM: The Open Source CFD Toolbox
   \\    /   O peration     | Website:  https://openfoam.org
    \\  /    A nd           | Version:  9
     \\/     M anipulation  |
\*---------------------------------------------------------------------------*/
FoamFile
{
    format      ascii;
    class       surfaceScalarField;
    location    "0.0033";
    object      phi;
}
// * * * * * * * * * * * * * * * * * * * * * * * * * * * * * * * * * * * * * //

dimensions      [0 3 -1 0 0 0 0];

internalField   nonuniform List<scalar> 
83290
(
1.25548
-3.69077
-1.26525
-2.46248
3.63751
2.05786
-1.53192
1.54851
-3.84993
1.25522
3.43385
-1.90319
-2.53176
1.86072
2.302
-3.55627
-3.22905
-2.70239
3.31306
2.39554
-2.75286
2.38727
-3.20628
-2.86826
3.37997
-2.08079
2.62634
-3.21018
-2.95551
2.50622
-2.31299
3.30795
-2.41583
-3.0203
-2.03697
3.59836
2.1873
3.14618
-2.2579
-1.146
-2.9248
2.22934
1.8158
1.799
0.450545
1.11606
-1.70859
-0.866622
-0.392081
2.57729
-1.77195
0.334371
-2.20587
-0.239998
1.95716
-0.925116
-3.23226
0.0609034
0.0219728
2.76055
1.93676
1.91736
0.638066
-0.410108
-0.930372
-3.1139
2.64667
-1.89499
3.10838
-0.184778
2.85601
-3.54795
0.321848
3.00753
-0.504914
2.88241
-3.382
0.716817
-0.951597
-3.03393
0.873065
2.58461
1.94215
1.92342
1.44044
-1.27696
-0.946927
-2.94162
2.58038
-1.94978
2.94285
-0.942336
2.89945
-3.26432
1.15745
3.00723
-1.34359
2.83274
-3.26545
1.50741
-0.952059
-2.93107
1.62899
2.6487
1.92021
3.065
-2.48686
-0.455613
-2.61753
2.75975
1.34439
3.23463
-2.66518
-1.56916
-3.42683
1.69781
3.24538
2.97493
-2.07325
-1.88375
-3.05751
2.11206
2.71206
0.556354
-2.7407
3.12182
3.16286
0.702798
-3.35287
-3.19762
1.50225
3.12957
3.4734
-0.538706
0.0547534
2.96156
0.83965
0.0958488
-3.01881
-2.87863
-0.034533
0.111242
2.66872
-0.881537
0.0891175
-3.47415
-0.0114364
1.85391
-0.905579
-3.25549
0.207238
2.78671
-2.96104
0.130386
0.108913
2.72659
0.223934
-3.45562
1.80052
2.9583
0.836203
0.307214
-3.00414
-0.910052
-3.20149
2.73089
1.89236
-0.312233
-2.88067
0.538515
2.59321
-0.409482
-0.853597
0.623702
-3.27629
1.83452
2.69157
-3.37582
1.80007
0.541183
-2.94079
-0.7803
2.74157
0.892743
1.00699
-2.84517
-2.80039
0.770405
2.50093
-0.876393
0.855829
-3.19659
1.87203
-0.959863
-2.97805
1.09216
2.55482
-2.88474
0.984332
2.43843
1.08509
-3.13743
1.89308
2.7033
0.894976
1.20562
-2.82189
-0.954286
-2.95257
2.55576
1.93897
-1.15971
-2.68649
1.30963
2.40751
-1.29511
-0.886679
1.49211
-3.0865
1.88706
2.38432
-3.10163
1.89501
1.38689
-2.81114
-1.61195
2.57258
0.869826
1.97236
-2.73908
-2.67416
1.49419
2.46098
-0.889316
1.73075
-3.06816
1.8911
-0.920282
-2.83111
1.92958
2.6638
1.84253
-2.79529
1.81281
2.50028
2.09687
-2.9941
1.8403
2.47135
0.852703
2.73206
-2.53008
-0.83308
-2.6512
2.62124
1.66716
-2.54689
-2.48539
3.29279
2.74544
-2.72373
-0.564022
3.30317
-2.65225
1.56078
2.53863
-2.78744
1.74095
3.56451
-2.46484
-1.72147
-0.870992
-0.482621
1.59539
0.403416
0.912455
-1.63079
1.26892
-1.05567
-0.266688
1.64567
0.347847
-2.47515
-2.63466
-0.627087
2.00373
1.47399
0.789232
-3.54921
3.10511
-0.843377
-2.94698
-2.68443
3.27145
3.07279
0.414769
3.40344
-2.70738
1.01263
0.847753
-3.08014
3.51709
3.00805
0.339105
-2.65847
3.48991
2.97468
-2.86427
3.33445
0.516278
2.51516
-3.83606
-0.18454
-2.54699
4.27552
0.378205
-1.19026
1.0597
-0.351803
0.126849
2.26724
-3.63068
-0.727536
-2.16132
4.03116
0.716884
-0.698733
-1.15373
0.795393
-0.228949
0.818365
2.07384
-3.30227
-0.760254
-1.88423
3.58688
0.871686
-0.730886
-1.35561
0.894835
-0.280444
0.706358
-1.22869
-3.40077
1.69341
-1.60215
3.59367
1.47955
-0.938397
-1.68435
1.26483
0.0606022
1.0541
-0.741104
-3.22383
1.74713
-2.58085
2.70454
3.21572
-0.377713
-1.15951
1.5769
-3.55218
0.738488
3.08696
-2.37641
3.1171
0.173801
-4.08285
-3.57487
3.88042
0.156355
3.8708
2.4324
-3.79573
-0.561818
-2.42908
4.22813
0.683913
1.20087
0.78637
-0.612816
-2.371
2.96266
4.78627
3.24553
-0.260423
-4.43163
0.373302
-3.23021
2.5044
-4.77478
0.124652
4.91789
-2.25055
-0.531172
0.892752
-0.281389
2.44104
-0.261353
0.379085
4.88616
-2.13441
-2.29405
2.82833
0.895013
3.62922
-3.71447
-0.361556
-3.74783
4.23991
0.43022
2.20248
-3.39538
-0.692051
-2.01031
3.73045
0.702742
1.2454
0.798874
-0.877775
-2.21643
2.55682
3.24558
-3.59587
-0.596197
4.04284
-3.27862
0.734513
2.2651
-4.55803
-0.457112
0.507528
4.60722
-1.8406
-0.805329
0.798413
-0.277632
2.0038
-4.30281
-0.557116
0.630487
4.21047
-1.52511
-2.19308
2.57011
0.777137
3.0733
-3.59496
-0.902962
3.90422
-3.13612
1.08642
1.82144
-3.37144
-1.02807
-1.69546
3.59825
1.63699
1.05012
-0.905745
-1.9862
2.81355
3.59586
-3.68311
-1.19515
-2.58021
1.30093
2.64062
-3.93603
-0.846002
3.56393
-1.45275
0.961459
1.85834
-0.824643
1.20544
-0.0709276
-1.06926
3.10994
-1.49271
1.15356
1.91491
-2.39758
0.882566
1.65969
-1.05948
-1.36578
2.80304
-2.33828
-2.35514
0.755417
-0.934822
2.65258
2.78668
-1.91063
2.87147
1.24328
3.26742
-3.39207
-1.36124
-2.51254
1.3825
2.62119
-1.63883
-2.02367
2.44804
2.22267
-3.04539
3.07676
2.01438
-1.57395
-1.99798
2.41767
1.79909
3.10198
-3.0264
-1.39963
-2.14657
1.45647
2.40936
-1.18858
2.87094
-1.50923
1.17507
1.95104
-1.05556
1.09534
1.06971
0.969275
-1.1379
2.95964
-1.47171
1.14017
1.91121
-1.2964
0.642826
-0.0682677
0.174738
1.14813
-0.496745
0.129613
1.30241
-2.39287
1.49409
0.073456
-0.630427
-0.198942
1.02734
-0.365797
-1.25897
0.319847
-2.43751
0.305603
1.43955
0.198323
-0.224409
1.17754
-0.447703
-0.453937
-1.14566
0.677883
0.482349
1.04517
-0.86562
1.23106
0.711618
-0.616545
-2.25173
0.938118
-0.72605
0.539668
-0.459167
-0.12737
0.742337
-0.212392
-1.15886
0.834912
-0.384107
1.11003
-0.815007
-2.17927
0.745345
0.734412
0.563415
-0.14166
-0.476949
-0.826853
0.109334
0.51364
0.735252
-0.372993
0.869554
0.698294
-0.704376
-2.08138
0.584575
-0.259023
0.503379
-0.504163
-0.206694
1.0031
-0.241251
-1.4941
0.738966
-0.469455
0.778189
-0.548883
-2.06766
0.744888
0.646663
0.534473
-0.192463
-0.724733
-1.02179
-0.368924
0.755484
0.968004
0.194113
0.906736
1.05506
-0.947403
-2.02909
0.868198
0.262002
0.726881
-0.671437
0.0501674
1.31795
0.230555
-1.70808
1.10069
-0.660103
0.835273
0.0715438
-2.02653
1.11039
0.909973
0.729986
0.239172
2.05981
-3.31224
-1.17624
2.31605
-1.97304
3.28728
-2.12194
-2.01351
2.43157
1.98167
2.55284
-0.713776
-0.858563
1.477
-3.54125
1.14742
3.60272
2.23028
3.32533
-3.27056
1.75091
-1.60007
-1.44748
-3.03863
2.86793
1.63247
-1.3901
3.08395
2.52052
-2.38749
-2.43726
3.00603
-2.53701
2.48937
2.77854
-2.38882
-1.58754
-2.24584
1.5792
2.43073
-0.795045
-3.16028
-2.51119
1.45476
2.78099
2.95973
-2.21134
2.52913
2.80296
-2.17584
2.45742
-4.32201
3.24667
-0.183597
0.385062
-3.12187
4.01926
0.19063
4.37564
-4.33838
-2.44685
0.172573
-3.17955
3.06188
-2.43928
3.08262
0.395119
0.420105
-4.27957
0.375757
3.0059
-3.04926
-4.28593
3.25208
0.566989
-3.13328
3.99196
-2.44429
3.04831
1.26923
-0.633708
4.24311
0.76555
-4.24274
-0.567753
-3.17482
2.34405
0.719755
2.84144
-4.26784
-2.5162
2.42798
2.94863
0.690041
-3.04625
3.95969
-1.29406
0.682893
0.289429
1.15009
-0.581892
0.980924
-0.347972
-0.477197
1.2659
1.16363
-0.336578
-0.720387
-0.151012
1.34587
-0.206299
1.13026
-0.709875
-0.741327
-4.00554
3.08742
0.733907
-2.92603
3.73033
4.14561
0.804027
-4.16938
-2.33835
-3.10976
0.8087
2.678
-2.24426
2.69256
0.898906
-2.96294
3.87549
0.781217
-4.08156
0.827304
2.49445
-3.86242
3.11408
0.692795
-2.95735
3.55595
-2.2246
2.59468
1.19394
-0.701848
3.7553
0.666944
-3.9173
-0.794671
-3.1596
2.09153
0.771715
2.24099
-3.98719
-2.22953
2.1271
2.33879
0.696696
-3.03405
3.3919
-1.06049
0.576027
0.483188
0.941433
-0.832516
0.746291
-0.234436
-0.730185
0.955603
0.556518
-0.536306
-0.422508
-0.203677
0.600406
-0.177569
0.842784
-0.714342
-0.726288
-3.69664
3.17693
0.81989
-3.12589
3.26657
3.69787
0.677485
-3.87317
-2.15045
-3.18499
0.776591
2.20507
-2.15144
2.62584
0.809541
-3.09839
3.29102
0.740789
-3.86193
0.838279
2.22221
-3.72946
3.12909
0.959665
-3.07591
3.28709
-2.07656
2.70897
1.57865
-0.858446
3.79692
1.03776
-3.93884
-0.955069
-3.03807
2.02975
1.09906
2.35773
-3.88597
-1.95986
2.04816
2.27844
1.13405
-2.97133
3.33823
-0.818626
-0.0255672
0.581249
0.730034
-0.207591
1.10668
-0.168684
-0.839311
0.839255
0.818491
-0.59523
0.151686
-0.0736044
0.726041
-0.148883
0.761156
-0.056741
-1.36404
-0.0845368
3.02773
-0.201643
1.77054
-2.48504
0.224661
1.57974
-0.442016
-2.07462
-1.27958
-2.99111
1.40816
0.32983
-1.12469
-2.43019
0.725109
1.98107
-0.921099
2.7809
-0.148668
-2.48037
-1.04838
1.93812
-0.243949
-2.1215
0.229457
1.7475
3.40656
-1.21881
3.41923
1.64057
-2.72952
-3.40032
1.25112
3.96713
-0.973456
-0.903747
-2.73339
1.59651
3.97841
-0.0948638
2.97025
2.3521
-0.131595
-2.45838
-2.44738
0.710234
-0.844572
2.74332
-2.3503
0.123615
-0.227973
-2.05744
2.81457
-2.2326
-2.78304
0.452393
3.13338
2.73376
-0.168144
-2.14597
0.276917
3.32064
0.048233
-2.32232
2.92282
3.29144
2.40547
-2.59604
-2.19138
-3.02402
3.54307
2.92592
3.83346
3.14356
-2.37589
-1.35318
-3.81683
2.84324
1.59115
-2.75452
3.29974
3.81998
1.28987
-2.94559
1.26743
2.38069
-1.84815
2.89128
1.41263
-2.86926
3.33713
1.58155
-1.5843
1.4345
2.36119
-3.62939
2.82309
1.90166
-2.7144
3.11192
-1.85303
2.73767
1.77126
-2.02968
3.32036
2.49808
-1.6946
-1.57579
-2.85257
2.37837
1.67467
2.01169
-1.59575
2.10679
2.21201
2.19899
-2.59763
2.92034
-1.26274
-0.429368
0.728914
1.21194
0.292465
1.26052
0.512163
-1.0975
1.71977
1.02757
0.858725
-0.628138
0.457971
1.07009
0.52733
0.889228
0.540551
1.66897
0.688583
0.387719
-2.67609
3.01462
2.95245
-1.42696
-2.10488
2.83426
2.58877
-1.87247
-1.88512
-2.81492
1.76534
2.96204
2.16147
3.32579
-2.23662
-1.00241
-2.67762
2.90084
-1.8271
2.40393
2.31973
-2.03097
3.0831
2.42472
-2.27561
2.88658
-0.374438
-2.03247
-3.15514
2.48499
0.710758
2.83074
-0.0432741
-2.1979
2.0853
-2.24502
2.49624
0.201862
-1.82748
-0.00549946
-2.16378
1.98159
0.152892
1.91573
-1.22991
1.57988
-1.62678
3.26426
2.15408
2.88644
-0.928362
-2.6511
1.09881
-2.51019
2.17903
-1.79554
1.95427
-1.58734
-0.316919
1.51655
0.343948
2.66616
1.84111
-0.349492
-1.88761
0.437695
-2.52885
-2.8659
3.01096
-2.7422
2.71995
-2.53005
1.89808
1.95569
2.49619
2.67838
-2.1297
1.81508
2.91948
1.95372
-2.97846
1.77575
3.12667
2.04394
-2.50806
2.70993
3.22401
1.96084
2.0465
0.254228
0.173234
0.057683
-1.10523
-0.0249938
-0.980031
-1.47649
-1.59475
-0.158343
1.57775
1.53548
0.1847
2.60504
-1.71548
-0.0543383
-2.23488
0.160468
1.88751
-1.46822
3.43609
0.0819809
-3.13038
2.0004
0.191894
-0.139331
-1.38141
3.43285
-3.04112
1.9272
-1.23934
3.4531
0.291401
-3.00616
1.75001
0.6686
-0.52678
-1.02976
3.23088
-2.70397
1.54303
-1.05439
3.15489
0.835046
-2.64787
1.56832
1.47812
-1.24077
-0.999973
3.04635
-2.59867
1.50993
2.56349
-1.0394
-2.01915
1.80753
-1.50843
2.34324
3.13356
-2.59277
-0.795788
-1.95636
-0.952009
3.02259
1.76499
1.46634
3.32617
-2.74529
-0.693578
2.63433
1.43537
-2.40478
0.00253572
2.68545
3.74942
1.21747
-3.74336
1.514
3.60221
-2.98374
-0.459575
-0.886978
-0.405582
-3.31025
1.24476
0.847406
3.63594
-0.429178
-2.08354
3.6407
1.00241
4.0158
0.254001
1.57836
-1.08525
-3.98216
0.341607
4.05441
0.432466
-2.09844
-4.10733
0.266649
2.55457
-2.89296
1.1144
0.010589
-0.107229
2.74772
-0.00583465
2.90357
-2.55547
0.0396499
-1.09423
1.99241
3.39833
-1.49684
3.42177
0.0958085
-3.09454
2.069
-0.0903323
-2.54917
0.0266769
2.03129
3.3876
2.75172
-2.89587
1.10042
-0.160351
2.78905
-1.47868
3.4178
-3.0668
2.05184
0.134497
2.9338
-0.137196
-2.51963
-0.0377741
-1.03445
0.0597349
1.92087
3.43378
-2.53022
2.01898
3.39596
-0.165109
2.8764
0.0868701
-3.0049
0.853085
0.0815982
2.97931
-0.0402162
-2.53693
-0.942217
0.148108
1.7834
-1.09409
3.42015
0.401715
-2.92855
1.60393
0.125816
-2.51048
0.272358
1.68159
-2.97236
0.829112
0.313834
-1.02863
3.33179
-2.80954
1.54421
-0.342642
2.9142
0.572081
-2.4007
-0.434254
-0.862339
0.625208
1.70182
-2.43713
1.6631
0.557847
-0.796348
-2.83341
0.91449
1.02708
2.86815
0.802923
-2.40249
-0.898368
0.837735
1.75086
-1.06109
3.09919
1.02631
-2.6232
1.57859
1.03815
-2.41802
1.05812
1.78659
-2.81387
0.910664
1.23948
-1.04241
3.06397
-2.61262
1.55748
-1.27399
2.80759
1.51249
-2.45584
-1.27648
-0.8902
1.4955
1.79171
-2.43255
1.79996
1.43985
-1.69158
-2.74444
0.830608
2.07704
2.79286
1.80266
-2.46141
-0.868405
1.76596
1.78384
-0.888115
2.95095
2.14803
-2.50113
1.40043
2.2115
-2.43784
2.15964
1.73882
-2.55952
0.789481
2.86116
-0.773723
2.77887
-2.47513
1.37726
-2.97409
2.45122
-2.18229
3.77842
-2.8148
-0.569829
3.40548
1.58008
-2.30036
3.75937
-1.93694
1.59131
0.310441
2.32308
0.0068495
-1.20584
-1.58895
1.91427
-0.717084
-1.58611
-0.496626
1.77072
-1.60122
-1.45448
-0.895877
-2.01336
2.15526
-0.14543
-1.60881
-1.15348
2.33422
-0.567733
2.12921
-1.65823
1.59121
0.161063
2.81175
-1.26483
0.227549
-0.741763
-2.00869
-3.00316
-1.57314
3.63454
-0.161167
-2.51876
-0.196497
2.9841
-1.69362
-0.327883
-1.71559
3.34675
-1.25626
0.285658
-3.8087
-2.96092
-0.676594
1.98564
2.68405
4.02288
-2.44748
1.66447
0.290691
3.65285
1.16023
0.314279
2.74777
-2.51014
3.79764
0.926968
2.39762
-2.76464
1.54018
4.01549
3.6395
-1.92177
4.05313
0.566779
-0.151969
3.4234
-1.73222
0.40903
-0.102543
-2.13898
0.979474
3.82357
3.78926
-1.47717
0.503996
-2.21584
0.895558
4.09969
0.101994
-1.6529
0.665228
3.97433
-1.76597
0.683804
3.69953
-0.914658
0.725644
-3.49628
-0.495718
0.736024
2.05053
1.46305
-1.69307
-1.54526
-0.279957
0.298728
-0.0119776
1.81235
-1.73085
-2.03933
0.144103
-1.48027
1.35914
-1.36789
-0.170004
1.54659
0.15308
-0.999187
-0.923607
-3.1881
0.816743
1.08617
1.72921
-0.114892
-0.885354
0.54925
3.83282
1.33967
-0.0638946
-1.81429
3.61062
0.53763
2.19797
-0.828445
0.764232
-1.3234
0.815497
0.0426185
0.83916
0.0471618
-1.45513
-0.643756
1.49179
-0.747176
0.725212
-0.138737
-1.01311
0.775127
0.155183
0.826408
-0.183901
0.228392
-1.51672
-0.627318
1.49335
-0.872941
-0.185271
-0.610532
1.04383
0.197997
0.779474
0.577373
-0.320788
0.322003
-1.53083
-0.471327
1.05325
-1.46139
-0.401795
-0.495098
1.71914
0.518497
1.06115
0.267926
-1.14133
-0.346703
0.197491
0.30864
-0.216509
-0.754443
0.765176
1.96087
1.09095
-0.28674
-2.37862
-0.00819656
2.26233
0.224016
0.155732
6.06301e-05
-0.00105393
9.44435e-05
-0.000190537
-0.000270383
0.000171551
0.00253028
0.00331007
-0.042442
-0.0116911
-0.0071553
0.00495238
-0.404032
-1.44258
0.0423263
0.14182
3.56465
-0.0841737
-3.93917
1.91711
-1.37008
0.196534
0.790854
-0.155167
-0.350535
-1.34583
3.51971
-3.90926
0.207281
1.88405
-1.34405
0.370221
0.277867
0.0402054
-0.864117
0.0354049
1.01369
-0.548835
0.899001
0.129066
-0.748482
-0.100128
0.434916
0.314946
-0.8828
-0.0619397
1.04174
0.0929329
-0.596232
0.982054
-0.300314
-1.21641
0.212335
3.09032
-0.275726
-3.62166
0.360002
1.58721
-1.11001
0.215767
0.778983
-0.214442
-0.304486
-0.50782
2.21947
-0.435829
-2.80257
0.647739
0.446516
-0.2399
0.470425
0.333648
0.155547
-0.921836
-0.127406
1.08662
0.169544
-0.682469
1.1132
-0.373646
-0.368384
0.222389
-2.88525
2.29484
-0.551226
0.162329
0.581042
0.293414
0.376152
1.2707
-0.297938
-0.654518
-0.127944
0.679348
-2.49393
2.08591
-0.627134
-0.244598
0.689164
-0.802376
-0.0790764
0.468526
0.957265
-2.42344
2.25154
-0.752374
-0.535106
0.803629
2.10897
0.427709
-0.535039
-1.70067
0.123878
1.28608
-2.74822
2.65224
-0.836527
-0.79912
0.86214
-1.04851
1.83735
1.50227
0.229701
-2.15457
-0.327655
0.174437
2.26996
-3.34249
3.58395
-1.89391
1.32267
-1.15421
2.22636
-0.907107
-3.68159
-1.05517
3.60715
1.05473
1.47298
0.144637
-0.0887546
2.91224
1.67325
-1.21333
0.0434316
-0.92003
-0.748505
1.11556
-0.263627
-2.16652
0.0744027
1.80351
0.585772
-0.108817
-1.14725
0.797429
0.229078
2.82054
1.60689
-1.15741
-0.0728829
0.107586
-0.963968
-0.74346
1.19732
-0.214398
-2.12664
-0.103781
1.84209
0.165444
0.543332
-0.295579
0.340481
2.35772
1.20252
-0.797315
-0.142235
0.183693
-1.02766
-0.73544
1.33727
-0.0819101
-1.88055
-0.215967
1.81641
0.26222
0.414826
-0.179032
-0.675596
0.932487
0.733207
-0.369177
1.91346
0.442079
0.393723
-0.0629073
-0.898584
-0.188368
0.230655
1.19828
-0.768973
0.911591
0.0960007
-1.83709
-0.309303
1.8693
0.366858
0.252251
-1.98212
-0.438622
1.9501
0.10899
0.506913
0.295874
-1.14712
1.04042
-0.280388
0.345582
1.50483
-0.753788
0.38653
-0.501895
-2.12984
0.607329
-0.0118626
2.18702
-0.294071
-0.509693
1.53522
1.01033
0.574431
-2.03333
-0.597788
2.12045
-0.181272
0.714506
-1.53648
1.14103
-0.433322
0.53053
1.65446
-0.753892
0.549266
-0.704017
-2.27892
0.765763
-0.159893
2.22039
0.836263
-2.29045
-0.856521
2.38077
-0.416485
0.959941
-1.73261
1.04712
-0.578832
0.599894
1.64683
-0.667421
0.541391
-0.795621
0.730454
-2.23898
-0.273564
1.65463
-0.483553
-0.214778
2.06909
0.639365
1.04328
-2.563
-0.955606
2.30158
-0.648553
0.86497
-1.67102
0.589629
-0.549726
0.379858
1.0465
-0.369987
0.0726876
0.0672784
-0.174132
-0.438388
-0.0654674
0.0467053
-1.21594
2.94108
-1.71917
1.21732
2.02773
-2.27673
0.27324
0.34014
1.62198
-2.92664
2.78876
-0.857683
-1.27252
0.826621
-1.26468
-3.3651
1.36436
-1.38664
1.4839
3.35555
2.79563
-0.990133
-0.770447
-3.18114
1.04531
0.970414
1.28818
1.2712
-0.0466643
0.111863
-1.63035
0.0491817
-1.28143
0.0402475
-1.30619
1.36069
-1.96536
-0.372739
-1.42178
0.0868612
0.824954
0.123525
0.0836223
1.33072
-1.93997
-1.62332
1.31763
1.25225
0.189018
-1.65065
-0.36389
-1.4028
0.813154
-0.219773
-1.34407
0.289129
-0.146125
-1.17825
0.194388
1.2651
-1.79828
1.3098
-1.9068
0.241191
-1.65154
-0.106156
-0.590102
-0.0262287
0.0441415
0.641248
0.100652
0.0261632
0.0948729
0.375705
0.0379802
0.569327
-0.700194
0.275329
0.391899
0.294146
0.0634953
-0.778457
0.0465178
0.396059
0.0549177
-0.714376
0.292708
0.621345
0.0840821
-0.114761
-0.609867
0.0674202
0.666841
0.110463
0.40765
0.301478
-0.770518
-0.0708633
0.12996
0.0960035
0.452299
-0.088054
0.643902
0.116224
-0.709525
0.306599
0.417916
-0.710163
0.296895
0.0925493
0.713706
0.130017
-0.290071
1.07919
1.0513
0.311836
-1.4599
-1.26974
0.328594
-1.11975
0.234606
1.20349
-1.62259
-0.260699
-0.922603
0.211379
0.726548
-1.60172
0.329399
0.239749
1.16209
-1.35535
0.867184
0.963829
0.30883
-1.22728
-0.261538
-0.690316
0.727635
-0.311949
-0.666865
0.303783
-0.239987
-0.902959
0.244612
1.17187
-0.761054
1.14335
-1.04193
0.31123
-0.960477
-0.121765
-0.18308
-0.747019
0.839824
0.152736
0.194153
0.150944
0.123609
0.494658
0.688298
0.145421
-0.721002
0.321813
0.532308
0.379633
-0.706135
0.179663
0.776748
0.154972
0.54693
0.151209
-0.745037
0.173928
0.364678
-0.330443
0.335087
0.91035
0.368523
-0.494431
-0.488372
0.310092
-0.891205
0.260855
1.22476
-0.537617
-0.451469
-0.259538
0.24736
0.991108
-0.710701
0.333388
0.296307
1.292
-0.361582
0.222789
0.953969
0.428313
-0.313188
-0.540363
-0.177888
1.12417
-0.381276
-0.126732
0.448056
-0.353755
-1.02465
0.43467
1.49373
-0.0837953
1.372
-0.212437
0.502081
-0.164269
-0.572601
-0.0560485
1.3292
0.619439
0.0682203
-0.0398009
0.509056
-1.13853
0.529978
1.69157
0.0260301
-1.02186
-0.0227382
0.541112
1.70444
-0.0424258
0.540283
0.616342
1.97844
0.116067
-0.171337
1.63514
0.627801
0.187242
-1.37059
0.0421826
1.91709
-0.50295
0.30015
0.428276
-0.651485
-2.05613
2.35372
0.605583
0.31024
2.22734
0.20108
0.594297
0.329817
-1.13272
-2.44533
0.698835
2.36696
-0.738472
0.88972
1.81261
1.8401
-1.18994
-0.401373
0.909331
1.76815
0.204303
-1.1477
2.57326
1.05909
1.3696
1.55231
-0.606199
-1.21611
1.51883
2.56025
0.664641
0.821565
-0.49808
0.571124
2.72271
-0.535563
0.498044
-0.233329
0.471043
0.19127
-2.0014
0.113831
-0.352801
2.2512
-2.72392
-0.569374
0.557167
2.71064
0.305697
-0.324965
0.59799
0.519257
-0.558338
2.77951
0.25494
0.0428265
1.44835
-1.76558
0.0456162
-1.01063
0.779854
-1.31039
0.825128
0.0585907
1.44031
0.0641843
-1.73034
-1.00824
0.05808
0.799022
-0.0517117
0.0645525
-1.17352
1.37419
-1.19615
1.3559
0.171881
1.28181
-0.15626
-1.29768
0.155967
-0.854414
-0.135754
0.781865
-0.868816
0.78744
0.168166
1.25141
0.17552
-1.05034
-0.797178
0.181092
0.820486
-0.173462
0.195526
-0.732235
1.30021
-0.148555
-0.863511
1.29066
0.231353
1.4241
-0.201366
-0.510703
0.285028
-0.731889
-0.243925
0.922222
-0.559914
1.17909
0.229387
0.843294
1.54762
0.281593
-0.380448
-0.729188
0.344067
1.01352
1.31589
-0.316351
0.392125
-0.395445
1.74149
-0.264932
-0.467341
1.57802
0.6467
2.1131
-0.490321
-0.0615936
0.599245
-0.688805
-0.539477
1.17816
-0.465106
1.81503
0.550045
1.05078
2.21237
0.726461
0.0116752
-0.608271
0.598835
1.11461
1.76413
-0.749296
0.764735
-0.0595608
2.17886
-0.650753
-0.156519
2.15263
2.4904
1.1984
1.1047
0.26422
0.61911
1.91723
2.89344
1.11438
1.43602
0.788424
2.41517
0.700646
0.812251
2.81675
1.00408
-3.15936
3.02662
1.07073
1.09859
1.5216
1.42537
-2.4502
0.964791
-0.676841
1.57453
-0.862772
0.528377
0.00346426
-1.52366
-0.164215
0.0967129
0.356932
0.0435176
0.00651693
0.00711261
-0.012976
-0.0539886
-0.0138191
0.00416836
-0.756088
2.0033
-0.550632
0.781296
0.693887
-1.92615
0.309871
0.497717
0.507488
-0.424585
-0.719226
-0.119911
-0.599789
0.0995082
-0.10115
0.0810825
0.064216
0.00514526
0.0079963
-0.0754404
0.00913001
-0.0130411
-0.0210699
-2.25056
3.1604
1.02484
-0.885567
2.03607
-0.751365
-3.18658
-1.65588
3.00562
0.844954
1.66333
-0.362458
1.76441
-1.86368
0.453753
2.65904
0.179731
0.318222
0.20043
-1.48026
-0.185389
-0.790345
-1.25663
0.814721
-0.123315
1.35479
-1.51367
-0.100119
-0.914746
0.785821
1.41223
-1.66724
-0.978781
0.792227
0.114337
-1.1154
1.35489
-0.99405
1.32039
-0.755924
0.841244
0.707188
-0.186149
1.32704
-0.660456
-0.211846
-0.734511
0.843593
1.01284
1.26878
-0.836714
-0.756065
0.783915
0.22658
-0.625187
1.35241
-0.54014
1.4495
-0.527173
1.34373
0.923648
-0.36403
1.9013
-0.155255
-0.431884
-0.718727
1.16793
1.68905
1.7028
-0.262544
-0.72908
1.10432
0.505642
-0.323411
1.94277
-0.244516
2.09073
-0.379958
1.91587
0.942613
-0.707787
2.32184
0.227692
0.58071
-0.490898
-0.284715
0.594487
0.249938
1.56411
2.28358
0.100149
-0.486176
0.948295
0.707157
0.0439858
2.07533
0.176364
0.523012
1.85221
0.266811
0.431636
-2.51028
0.531669
0.537303
2.52535
-2.79989
0.643494
0.467906
2.6889
0.598021
0.59442
0.728989
0.664688
2.88437
0.96333
0.77012
0.842315
0.603353
2.64872
-1.79879
0.0932896
0.0687029
1.99956
0.201885
0.409752
0.0237153
-1.32334
-0.354299
0.771552
0.198589
0.0404758
-1.87699
0.00292679
1.25599
0.840959
-0.0930057
-1.49599
0.138691
-0.642199
1.51189
-1.85828
0.130681
-0.124139
2.05341
0.186052
0.174475
0.372701
-0.0587667
0.667808
0.0876036
-1.28342
-0.326462
0.194369
-0.0913036
1.12611
0.135652
-1.82801
-0.0085874
-1.93657
0.204917
-0.246427
2.07389
0.312003
0.11852
0.277135
-0.106433
0.112171
-1.13828
-0.255042
0.404576
0.162854
-0.167652
0.183429
-1.6628
-0.0290872
0.786025
0.755651
-0.266983
0.299082
-1.5584
-0.59191
1.38357
0.339806
-0.378158
-2.12728
0.43015
-0.0175882
1.96969
0.142317
-0.102463
0.16126
0.0788723
-0.795184
-0.148258
0.106429
-0.178089
0.304424
0.146207
-1.29649
-0.0321992
-0.469004
0.369173
-2.12289
0.486259
-0.0922653
1.60693
0.0422813
-0.0504467
0.0274381
-0.273299
-0.046543
0.0478692
0.0431775
-0.0954426
0.0840138
0.0490284
-0.522399
-0.00837643
0.28055
-0.286647
-1.16337
0.198049
-0.247742
0.341067
0.239109
-0.457877
-1.73333
0.339946
-0.10715
0.62506
0.00189521
0.00261217
0.0031733
-0.00532868
-0.0229872
-0.00203711
0.0028201
0.00408483
-0.00772786
-0.0329975
-0.00105849
0.00242638
-0.154029
0.0552163
-0.464843
0.048393
-0.0216078
0.0742206
0.000714727
0.000607738
-0.00783372
-0.000531193
0.000993014
0.000227013
0.00033694
-0.000661531
-0.00253957
-0.000151101
0.000152741
0.0340104
-0.232337
-0.0740744
0.022104
0.0392112
-0.0187189
0.00896509
0.0100791
-0.0245272
-0.0094417
0.00619293
1.0246e-05
8.23237e-05
-6.48797e-05
-0.000307816
-3.51261e-07
2.25467e-05
7.33757e-05
0.000133893
-0.00130574
0.000217051
-0.000345305
-0.000150513
0.000368245
0.000591953
3.70292e-05
-0.00419724
-0.000422182
0.000128091
-9.57636e-05
0.000297909
-0.0016286
-0.000106924
8.28579e-05
2.82528e-05
-1.05787e-07
3.54345e-05
-0.000278837
-0.000116372
-0.00013316
-0.000212993
7.5233e-05
-3.96597e-05
-2.94396e-05
-3.10779e-05
-3.83745e-05
1.08428e-05
1.44649e-06
-1.15971e-05
-5.68915e-05
4.59414e-07
4.37273e-06
-2.31893
0.37621
1.80579
-1.96788
-0.324994
2.18743
-1.73452
1.21805
-0.35581
-1.12023
1.90409
0.387779
2.3951
1.54101
-1.33006
-1.96224
-1.79897
1.00299
1.96632
-1.92447
-1.24272
-2.46876
1.23343
1.58383
2.62797
1.6268
-0.513085
-2.53866
-1.53949
0.578542
0.717858
-1.58808
-0.781243
-0.784104
0.78525
1.80744
-1.34577
1.11711
-2.17224
-1.45228
1.57144
1.23302
2.60887
-1.15087
-2.27882
-1.96175
1.05568
1.57137
2.64473
0.933236
-0.939116
-2.23155
-0.926202
1.03682
0.486688
1.13885
1.98844
-0.870529
-0.430305
0.651763
1.43499
-2.37146
2.67302
-1.08741
-0.588048
1.18416
0.345314
-0.309474
-1.10695
-1.63942
-1.52548
1.21756
0.202559
-1.14998
-0.166642
1.54999
-1.32219
0.739302
-1.95312
-1.03215
1.1481
1.19371
-3.33337
-0.247774
-2.46323
2.38825
0.634058
0.227556
-4.20717
-0.122558
0.47926
3.19575
0.444578
0.507594
-3.09402
-0.48351
-0.0851017
2.29024
0.751621
-2.01077
-0.740603
-0.589144
1.9702
1.13983
0.658938
-2.32489
1.32814
-0.975873
2.36545
1.04588
-0.000381548
0.000161147
0.000103008
-0.00114659
-0.000642887
0.000204106
-0.533085
2.5986
-1.5434
0.601245
1.53762
1.52314
-1.09039
2.67134
-1.58792
0.981309
1.37319
-2.70542
2.58051
-0.822035
-1.35712
0.847669
-3.3206
0.120031
-1.21301
2.45212
1.68207
-2.32909
0.080944
1.91343
0.124093
-0.0814805
-1.97736
-1.0229
0.158122
1.42906
2.09142
-4.12245
0.429554
0.332536
3.08051
0.483088
-3.22849
-0.226946
1.69921
0.347476
-1.24534
2.3744
-2.27278
-0.12158
1.94924
0.188475
0.179539
0.315745
-0.23814
-1.96948
-1.07968
1.51807
2.08755
-2.63963
-0.434777
0.483257
-1.23419
2.00894
1.61091
-2.00239
-0.243153
1.91414
0.295628
0.306769
2.07507
0.399284
-1.98963
-1.13788
1.54268
-2.70199
0.523877
-0.288017
2.07282
0.841633
-1.98756
-0.514845
1.61375
0.551293
-1.2652
1.83296
-1.91338
-0.348383
1.92642
0.409439
0.481845
-0.48358
0.563918
-2.08574
-1.31343
1.49852
2.0809
-1.77201
-0.604038
0.688753
-1.41059
1.80999
1.84437
-0.543173
-2.17501
0.648074
0.750072
2.22979
1.395
-0.619408
0.653526
-2.08586
-1.34245
1.85494
-2.09491
1.00222
-0.682744
2.14913
0.804589
-1.93616
1.97241
-1.00293
-1.90094
1.98888
1.03313
-0.746031
-2.29411
0.796933
0.898673
2.17888
0.191696
0.299875
0.267337
-0.480386
-1.23293
-0.795474
-1.75271
-1.02425
-1.70732
1.43824
1.45898
0.856568
-0.798208
0.670924
-2.14272
0.696439
1.36329
0.0679473
0.0715748
0.043313
-0.4127
-0.296511
-2.45151
1.26022
-1.03553
2.07376
0.884155
-0.717012
0.151757
0.149585
-0.406583
-0.715646
0.100391
0.033323
0.0328287
-0.0853175
-0.211989
0.0202794
-0.00941741
0.00193315
-0.0225868
-0.0136913
0.00300654
0.0033837
0.13564
0.219918
-1.2259
-0.598356
0.151036
-1.06133
2.81591
-1.7115
1.02699
1.56412
1.01328
-0.995813
2.68384
-1.02033
1.08858
-0.725948
1.96942
-1.07806
-2.6422
0.742601
1.00783
0.822783
0.850085
-2.56814
-0.861124
1.99633
-0.92354
1.21551
0.682554
-2.68197
-1.18144
2.47975
-0.68386
0.541634
-2.32874
0.606438
1.11348
-0.654463
-1.7772
-0.0987028
0.887938
0.144687
-0.783226
0.69828
0.0684545
-0.0451122
-0.425503
0.0326769
-0.188994
0.0698343
-0.00450841
-0.0251737
-0.00975171
0.00173356
0.00287677
0.00305762
-4.66638e-05
5.28841e-05
5.44557e-05
2.77578e-05
-0.000205101
-9.34299e-05
2.7106e-06
4.06421e-06
-4.39067e-05
1.80627e-05
-5.16956e-06
-7.19482e-06
3.39776e-05
9.52462e-06
-4.55675e-06
-0.000225952
8.31301e-06
7.52701e-06
3.33475e-06
2.90155e-06
1.0874e-06
-4.27771e-05
-4.93273e-05
-3.63029e-05
1.39462e-05
4.10245e-06
-6.87678e-06
-6.64785e-05
5.03581e-07
5.35121e-06
2.91743e-06
1.44696e-06
3.87836e-07
-1.93884e-05
-1.91641e-05
-1.31922e-05
8.87542e-06
3.26902e-06
2.0762e-06
-4.96486e-06
-2.45357e-05
6.11825e-07
6.24333e-07
5.13073e-07
1.97699e-07
-8.50537e-06
-8.38943e-06
-9.04864e-06
4.99883e-06
3.14649e-06
1.2031e-06
-2.38832e-08
-3.17568e-05
-1.01375e-05
-2.84575e-05
-3.59048e-06
-3.22294e-06
-3.47697e-06
1.32705e-07
8.65952e-08
3.41693e-08
1.72867e-06
5.47392e-07
8.50859e-07
-2.50534e-07
-7.97036e-06
-6.25182e-06
-7.02034e-06
-6.42841e-06
2.5999e-08
3.6108e-08
-6.24552e-09
-0.000354549
3.14379e-05
-6.66174e-05
3.45156e-05
0.000101867
4.66698e-06
2.11005e-06
-3.49189e-06
2.86733e-06
-1.91994e-05
-7.49124e-06
-1.14067e-05
-3.5825e-05
-2.58913e-06
-3.15923e-06
-2.79084e-06
2.92365e-07
1.12233e-07
-1.14064e-07
1.66451e-07
5.55412e-09
-3.49341e-09
8.52371e-09
1.70395
-0.168698
-1.66893
0.253644
-1.98
1.88028
1.58622
-0.326713
-1.61838
0.384296
-1.9196
1.73228
-0.554183
0.526477
1.16245
-1.84389
1.29239
-0.0413881
0.0091164
-0.0953581
0.0145194
0.0157143
-2.52063
0.521372
1.87874
-0.540708
1.05921
-0.00909401
0.000635469
-0.00125299
0.00051977
0.00104516
2.61431e-06
-4.50982e-05
-1.2298e-05
5.56019e-06
1.24604e-05
-4.04393e-06
8.77409e-07
-3.66479e-07
3.61234e-07
4.3941e-07
-5.41572e-06
-5.75194e-06
-5.80949e-06
-4.0128e-06
4.72548e-08
-1.44712e-08
1.86873e-08
2.4486e-08
-4.70095e-10
9.45199e-10
1.24986e-09
-0.65932
-1.66439
0.655853
2.0379
-1.07023
1.67974
-0.528019
-2.06952
-0.968158
2.41966
2.57386
-2.09708
-1.01688
-0.566113
2.57231
2.11046
-0.463455
-0.809353
-1.68036
2.26283
-0.867902
-1.71178
-0.519632
1.97432
-1.96959
0.912549
-0.790894
2.41451
-0.859477
1.93561
-1.57302
-1.61147
-0.746276
2.41395
2.55961e-05
-3.00015e-05
1.09867e-05
-5.55268e-05
-4.60777e-05
1.57605e-05
-5.47086e-05
-4.27215e-05
-5.54574e-05
9.31578e-06
6.68128e-05
3.85899e-05
-0.000106977
-0.000101982
-0.000219652
-0.000202822
-4.21107e-05
-3.89846e-05
-3.58494e-05
-3.59283e-05
1.5078e-06
-1.24847e-05
-1.09096e-05
-2.52058e-05
-1.91202e-05
3.95284e-06
6.4144e-06
-2.45271e-06
5.73733e-06
2.2501e-06
-3.13429e-05
-7.08538e-06
1.17956e-06
1.50932e-06
-4.73752e-06
-1.04007e-05
-7.43951e-06
4.93859e-06
2.42469e-06
-2.21946e-06
2.39714e-06
-1.17701e-05
-3.90799e-06
2.62413e-07
4.27394e-07
-5.25317e-06
-3.97965e-06
-4.94108e-06
2.1696e-06
1.10677e-06
-5.87508e-06
-3.52308e-06
-5.16601e-06
-1.34905e-05
1.55746e-06
-1.54552e-06
-1.29516e-06
-1.62598e-06
-1.46505e-06
5.4789e-08
9.03728e-08
5.74726e-07
-8.46615e-06
2.47485e-07
3.93214e-07
1.24198e-08
2.09106e-08
-0.201022
0.00182035
-0.0782196
0.0298381
0.0290997
4.42211e-05