/*--------------------------------*- C++ -*----------------------------------*\
  =========                 |
  \\      /  F ield         | OpenFOAM: The Open Source CFD Toolbox
   \\    /   O peration     | Website:  https://openfoam.org
    \\  /    A nd           | Version:  9
     \\/     M anipulation  |
\*---------------------------------------------------------------------------*/
FoamFile
{
    format      ascii;
    class       volScalarField;
    location    "0.0033";
    object      rho.air;
}
// * * * * * * * * * * * * * * * * * * * * * * * * * * * * * * * * * * * * * //

dimensions      [1 -3 0 0 0 0 0];

internalField   nonuniform List<scalar> 
28381
(
1.05879
1.04774
0.912556
0.894568
0.700133
0.938982
0.877626
0.685645
1.15762
1.8103
1.34824
1.95152
0.295329
0.440775
0.35274
0.453333
0.490334
0.678834
0.559449
0.701422
0.767554
1.11139
0.968163
1.27245
1.25082
1.26304
0.312059
0.290777
0.273135
0.342014
0.264947
0.337418
0.321088
0.359525
0.391609
0.435782
0.415691
0.386732
0.369801
0.404454
0.491997
0.485378
0.459653
0.543537
0.447491
0.538797
0.505049
0.542758
0.604951
0.673667
0.618546
0.600684
0.556696
0.603371
0.751114
0.759371
0.690647
0.873276
0.672703
0.861133
0.771935
0.826868
0.98549
1.11836
0.932547
0.976331
0.849729
0.917538
0.751809
0.963522
1.36021
1.01582
1.08937
1.01912
1.45887
0.878373
1.27156
1.15978
0.269056
0.275377
0.378618
0.302198
0.571023
0.375017
0.7126
0.44546
1.13847
1.66461
0.234429
0.284762
0.298174
0.248196
0.312264
0.303722
0.287186
0.314603
0.264487
0.354226
0.479945
0.31321
0.517194
0.366845
0.36045
0.480944
0.318412
0.641216
0.664281
0.336019
0.808437
0.692807
0.421032
0.838375
0.74887
0.889027
0.347946
1.0136
0.866751
0.504971
1.37605
1.05385
0.679642
1.45887
0.320491
0.297655
0.336814
0.276344
0.299394
0.336767
0.318704
0.401084
0.341384
0.367322
0.322275
0.365035
0.374792
0.39181
0.579712
0.479809
0.476241
0.388908
0.532663
0.507792
0.509852
0.866894
0.608224
0.65064
0.484286
0.766102
0.668489
0.729454
0.855661
0.520824
1.18507
1.28365
1.33611
1.24382
1.9887
1.60983
1.55242
0.286689
0.284854
0.280454
0.235023
0.285495
0.281927
0.285404
0.293
0.238438
0.305198
0.301617
0.290764
0.287549
0.309142
0.325733
0.279168
0.317762
0.349013
0.304673
0.339448
0.33959
0.377499
0.331177
0.3263
0.284038
0.337583
0.367176
0.359851
0.423406
0.30159
0.44168
0.426376
0.406399
0.395718
0.466978
0.443203
0.342766
0.448198
0.446051
0.412241
0.418406
0.487562
0.542643
0.47436
0.451036
0.322882
0.506553
0.504068
0.470958
0.579214
0.328424
0.56311
0.510047
0.533369
0.489785
0.618674
0.631192
0.403425
0.567421
0.593005
0.535728
0.547885
0.691187
0.653812
0.714003
0.684829
0.798404
0.627506
0.750013
0.717037
0.584114
0.593888
0.557831
0.623936
0.679093
0.841409
0.827552
0.795969
0.782082
0.748641
0.72051
0.607217
0.715864
0.658673
0.653365
0.711407
0.593726
0.535754
0.369503
0.661857
0.627324
0.575508
0.772688
0.413357
0.736594
0.771569
0.668076
0.646365
0.863738
1.01198
0.555559
0.920584
1.01936
0.766153
0.852143
1.20038
0.71042
0.423977
0.820384
0.622554
0.682476
0.75676
0.8608
1.86485
2.02357
1.66043
1.58721
2.04989
1.55391
2.18028
1.02252
0.732791
0.840204
1.01221
1.04935
1.02916
1.31284
1.50878
1.10182
1.98045
0.176357
0.219102
0.263445
0.426509
0.472954
0.61959
0.725406
0.863897
0.679268
0.837459
0.869927
1.07776
0.873526
0.884837
1.13218
1.14442
0.169499
0.151277
0.180815
0.180034
0.155372
0.18484
0.164961
0.180635
0.191655
0.192866
0.222516
0.166565
0.19618
0.206291
0.296031
0.234043
0.264739
0.318883
0.246863
0.284155
0.316026
0.344617
0.375046
0.378553
0.414301
0.333529
0.367177
0.389063
0.470504
0.419422
0.457549
0.517816
0.429787
0.459856
0.500573
0.516383
0.565603
0.555907
0.605396
0.504294
0.548679
0.570557
0.694769
0.613208
0.669642
0.740359
0.631067
0.67262
0.737397
0.752526
0.792426
0.767579
0.855209
0.724087
0.79759
0.811382
0.731365
0.641329
0.744657
0.780903
0.683504
0.692384
0.795958
0.766635
0.826
0.765775
0.871511
0.732923
0.835794
0.79497
0.873038
0.74124
0.907481
0.948341
0.771588
0.823654
1.00632
0.771801
0.8891
0.931946
0.81456
0.827821
0.857933
0.923753
1.12794
1.3935
1.49962
1.02614
1.07336
1.3303
1.36008
0.7001
1.58201
0.735389
1.63105
0.913659
1.64384
1.32678
1.48038
0.903138
1.95294
1.22514
1.23062
0.547229
0.439085
0.55914
0.45311
0.869337
1.28242
0.875319
1.30425
0.580982
0.548414
0.699733
0.81601
0.88941
1.37137
0.757712
0.857653
1.02453
1.04993
1.16539
1.33268
1.79569
1.80086
0.673902
1.82858
1.5497
1.95543
0.611476
1.20637
1.0296
0.712099
0.626703
1.22549
1.04484
0.730945
1.2876
1.1151
0.857402
0.960856
1.17474
1.2405
1.14673
1.31054
1.64203
1.18003
1.41436
1.51773
1.82476
1.79411
1.68651
1.87611
1.81635
2.0756
1.69451
1.30108
2.0622
1.93647
2.21491
2.03811
2.16861
0.376123
0.423662
0.479063
0.547691
0.424501
0.481496
0.374062
0.382308
0.548905
0.439702
0.508162
0.427901
0.487647
0.399861
1.1969
1.10754
0.995548
0.87028
1.10933
0.999685
1.19298
1.20451
0.870416
1.12178
1.01809
1.11338
1.00434
1.21911
0.475845
0.461399
0.546358
0.611579
0.431631
0.488735
0.595524
0.524335
0.651366
0.555204
0.700903
0.519285
0.645155
0.576302
1.2713
1.13613
1.04258
0.909863
1.2414
1.15565
1.07596
0.699947
0.599695
0.76658
0.828504
0.63427
0.654531
0.843604
0.775457
0.91568
0.80115
1.04232
0.720863
0.93391
0.864904
1.1186
0.902156
1.18085
1.35522
0.975285
1.03138
1.36588
1.31001
1.58425
1.41108
1.83107
1.20482
1.60015
1.53346
1.08629
0.530894
0.983822
0.970445
0.804177
0.811861
1.25511
1.4646
1.41973
1.71667
1.91628
1.25788
1.62424
1.82232
0.624547
0.87085
0.702046
0.627819
0.87492
0.80874
0.804595
0.69328
0.917571
0.76939
0.738041
0.953656
0.90303
0.860974
0.907312
1.10665
0.981016
0.984376
1.1833
1.16691
1.07815
1.38485
1.54444
1.49497
1.59132
1.65183
1.74346
1.60862
1.15133
1.2239
1.19825
1.40306
1.45365
1.67302
1.45734
2.0455
1.52629
1.23287
2.07896
1.69262
1.32409
1.23524
2.17522
2.32985
2.3031
1.5655
0.702564
0.655684
0.890426
0.633858
0.877806
0.812739
0.829205
0.809631
0.842515
1.04585
0.786604
0.995691
0.951238
1.00835
1.0668
1.20948
1.4104
1.08094
1.28272
1.28464
1.43934
1.65339
1.90554
1.82235
1.7641
1.74981
1.84631
1.90321
1.61349
1.97578
1.99697
1.73187
1.77494
1.91339
2.06257
1.44356
1.56312
1.68828
1.59506
1.47483
1.54103
1.67207
1.55853
1.47909
1.61519
1.66374
1.77042
1.36691
1.47457
1.78724
1.26967
1.30432
1.48723
1.63161
1.22821
1.22925
1.30036
1.22606
1.22533
1.2633
1.2357
1.22505
1.22518
1.22554
1.22522
1.22502
1.225
2.25346
1.50961
2.11459
1.95762
2.15608
1.53877
1.61364
2.04688
2.01293
1.52789
2.03257
1.34555
0.973479
0.892731
1.41015
0.793528
1.05917
1.40708
1.92708
1.22521
2.24792
2.23084
2.25678
1.24983
1.11829
1.72515
0.815245
1.26541
1.13562
1.78608
1.36126
1.21296
1.83598
1.14905
1.47341
1.34613
1.94586
1.63766
1.7359
1.98967
1.54186
2.0727
1.8978
1.53936
2.05417
1.87248
1.31512
2.1305
1.41619
1.26236
1.22927
1.4717
2.1859
2.20355
2.14528
2.12163
2.21191
1.91023
1.72254
1.29885
1.22858
1.22504
1.225
1.22501
1.225
1.225
1.225
1.225
1.225
1.225
1.225
1.225
1.225
1.22505
1.225
1.225
1.225
1.98601
1.98792
1.9218
1.24489
2.12531
1.22618
1.225
1.225
1.225
1.225
0.56716
0.536984
0.527647
0.504498
0.498444
0.62261
0.584239
0.584538
0.624477
1.22501
1.22502
1.225
1.225
1.225
1.225
1.225
1.225
1.225
1.225
1.225
1.25623
1.22503
1.22501
1.225
1.225
0.605246
2.6365
2.13108
1.67986
1.32388
1.94257
1.74022
1.72541
2.34272
2.36736
1.23464
0.243205
0.256018
0.381584
0.504684
0.659027
0.808665
1.20101
1.58594
2.22671
2.78722
1.26247
1.26467
0.99944
1.1766
1.41063
0.947041
1.2691
1.48513
1.13439
0.312754
0.433933
0.284445
0.41162
0.527319
0.45119
0.315742
0.2776
0.284421
0.324776
0.282443
0.318478
0.315197
0.307096
0.27365
0.277078
0.301307
0.356931
0.369126
0.41033
0.391598
0.364586
0.352604
0.39962
0.345272
0.375374
0.337468
0.385376
0.477904
0.453157
0.429027
0.489571
0.439864
0.493321
0.465503
0.459701
0.411846
0.423443
0.447683
0.228766
0.298412
0.467661
0.620245
0.842634
0.228108
0.264733
0.270797
0.315645
0.429073
0.492391
0.544539
0.58292
0.695454
0.716208
0.270491
0.23633
0.252254
0.23226
0.239631
0.254378
0.268379
0.349989
0.315215
0.295133
0.341779
0.316679
0.365078
0.325111
0.488534
0.507125
0.431783
0.505216
0.454696
0.546367
0.467196
0.619167
0.660421
0.575484
0.651653
0.590902
0.692305
0.604991
0.655745
1.18367
0.279553
0.234556
0.277312
0.231382
0.237842
0.279182
0.277476
0.274358
0.253327
0.254226
0.273604
0.300629
0.312931
0.313888
0.299994
0.277208
0.242815
0.276204
0.273706
0.251172
0.260428
0.292466
0.287166
0.243362
0.277723
0.307281
0.250024
0.287453
0.304531
0.276561
0.263838
0.256885
0.283056
0.30344
0.330825
0.318353
0.312136
0.374144
0.32126
0.340316
0.37357
0.333403
0.376956
0.385373
0.319112
0.278593
0.29692
0.303201
0.35181
0.353787
0.328764
0.386149
0.385872
0.387344
0.464653
0.396256
0.417295
0.360073
0.420654
0.41938
0.434803
0.490797
0.485903
0.435883
0.436503
0.460603
0.347914
0.371619
0.336158
0.37934
0.377776
0.452994
0.421753
0.404879
0.532152
0.540153
0.530662
0.593314
0.497728
0.584917
0.571454
0.445902
0.407019
0.412189
0.442566
0.464271
0.482352
0.434141
0.510229
0.522917
0.543482
0.623701
0.540727
0.584923
0.503705
0.557906
0.565112
0.642949
0.672325
0.649401
0.628508
0.610907
0.597574
0.481191
0.517605
0.479984
0.517161
0.495494
0.565129
0.537385
0.527579
0.572827
0.550087
0.549133
0.572973
0.642914
0.677568
0.763403
0.652329
0.720768
0.627014
0.676015
0.589339
0.611881
0.58483
0.62569
0.554809
0.549534
0.346243
0.3739
0.57626
0.601873
0.694655
0.0731043
0.0921656
0.175019
0.320982
0.429474
0.182736
0.156688
0.327086
0.45634
0.552432
0.672743
0.718297
0.784859
0.0827016
0.253412
0.178804
0.127361
0.227061
0.276848
0.458851
0.51047
0.666069
0.134022
0.147485
0.152196
0.129334
0.148208
0.195846
0.165826
0.179737
0.289526
0.242297
0.229311
0.298724
0.346882
0.351822
0.503484
0.151844
0.15347
0.183258
0.182668
0.157402
0.187547
0.147343
0.166835
0.196136
0.199047
0.23645
0.169288
0.202638
0.200534
0.319758
0.246319
0.289604
0.3387
0.254439
0.30374
0.354569
0.383922
0.401478
0.409424
0.482113
0.359962
0.420993
0.44069
0.535172
0.452927
0.536027
0.559539
0.489729
0.494562
0.585315
0.581663
0.610338
0.588367
0.689182
0.538961
0.635348
0.631613
2.29756
1.29058
1.47728
1.22507
1.22526
1.48282
1.84736
1.61129
1.88261
2.27506
1.80003
1.62586
1.22511
1.29158
1.22502
1.26451
1.22504
1.23044
0.179147
0.194539
0.277335
0.572271
1.2426
1.82846
1.43932
1.23103
1.22507
0.253931
0.276901
0.30675
0.596994
1.26121
1.84723
1.22767
1.22762
1.22504
0.503253
0.484224
0.413378
0.74859
1.34453
1.71998
1.22507
1.22503
1.22501
0.736002
0.662154
0.515517
1.08082
1.46616
1.54464
1.23092
1.225
1.225
1.62132
0.819402
1.07787
0.365104
2.32297
1.70634
1.22626
1.23557
2.08567
1.67266
2.40993
2.03053
1.22781
1.38243
0.113427
0.174508
0.137358
0.150035
0.183894
0.202199
0.197205
0.230633
0.213881
0.21856
0.239535
0.253479
0.378577
0.283318
0.381106
1.0086
0.902332
1.27347
0.575181
1.00586
0.906999
1.31076
1.58103
1.45994
1.5939
1.25233
1.55841
1.49115
1.53443
0.223165
0.345525
0.269033
0.250253
0.345406
0.428878
0.31341
0.430587
0.399395
0.354524
0.442131
1.00878
0.948709
1.34111
0.656458
1.04567
1.09742
1.49633
1.54125
1.51255
1.46866
1.3181
1.44071
1.60259
1.32778
0.452695
0.552874
0.615614
0.485665
0.4358
0.624293
0.650133
0.520625
0.627182
0.569463
0.511234
0.477809
0.621346
1.07059
1.27092
1.56311
0.890214
1.21398
1.56421
1.71047
1.39295
1.62948
1.26216
1.44489
1.26896
1.59088
1.23384
0.685129
0.656415
0.743969
0.75483
0.694334
0.588406
0.843275
0.770184
0.55783
0.607466
0.731068
0.69911
0.782753
0.67093
1.35792
1.29534
1.87531
1.70438
1.8703
1.60957
1.93849
1.35779
1.25163
1.49241
1.22801
1.45945
1.34417
1.28079
1.26222
0.408571
1.5649
1.54188
1.74995
1.32236
2.37759
2.00129
0.365873
1.43145
1.40637
1.25487
1.25748
1.9363
1.66519
0.330414
0.879758
0.414072
0.931269
0.682973
1.34003
1.02403
2.02337
1.97905
2.26207
0.226086
0.239123
0.291038
0.399479
0.359938
0.348301
0.305448
0.409835
0.365948
0.30211
0.460825
0.355743
0.5216
0.393315
0.53574
0.445518
0.583512
0.448985
0.576733
0.703596
0.588105
0.77405
0.525854
0.841289
0.668858
0.883115
0.643661
0.84467
1.04887
0.775889
1.21291
0.823451
1.28951
1.02006
1.93986
1.40493
0.236607
0.19998
0.232778
0.200274
0.205106
0.236438
0.233537
0.279807
0.24548
0.249314
0.260573
0.205692
0.208962
0.258184
1.46793
1.43684
1.30313
1.24484
1.43732
1.30655
1.46684
0.323293
0.275891
0.293143
0.323562
0.286419
0.319582
0.334032
0.2866
0.32832
0.313989
0.296543
0.236498
0.280711
0.256165
1.48383
1.44095
1.33731
1.27537
1.47781
1.44375
1.35789
0.497593
0.467481
0.481805
0.535611
0.457652
0.512112
0.525877
0.444561
0.407497
0.431153
0.376237
0.314892
0.355803
0.326531
1.50344
1.4573
1.44214
1.37592
1.50389
1.4581
1.47575
0.624341
0.627796
0.627095
0.686879
0.60166
0.65532
0.644892
0.628866
0.485927
0.561645
0.504324
0.349835
0.453955
0.367384
1.35356
1.39342
1.54945
1.47354
1.41414
1.36014
1.54134
1.66819
1.01219
0.987025
0.880289
0.343551
1.28628
1.24756
0.823362
0.324096
0.6345
1.23337
1.17834
1.18269
1.15354
0.779838
0.349501
0.550049
0.59652
0.526136
0.575876
0.811806
1.23762
1.4184
2.19684
1.87293
1.34955
2.20023
1.26673
1.81479
1.33422
1.76251
2.15806
2.18442
1.31568
1.31168
0.222356
0.171575
0.226569
0.19017
0.177934
0.230503
0.217805
0.206317
0.20343
0.208149
0.209777
0.154559
0.157449
0.205914
0.246053
0.246458
0.24923
0.242728
0.233024
0.204323
0.219022
0.259545
0.192346
0.240386
0.253138
0.218279
0.228106
0.236483
0.217711
0.172908
0.162755
0.233694
0.254838
0.272554
0.256982
0.271275
0.238086
0.208325
0.241262
0.222373
0.212551
0.243688
0.235336
0.247768
0.248499
0.250711
0.246112
0.244459
0.243573
0.244619
0.243198
0.244622
0.213931
0.241186
0.263518
0.217574
0.24553
0.260369
0.245311
0.232842
0.245442
0.263264
0.223763
0.250171
0.25939
0.253303
0.271239
0.25757
0.264857
0.248791
0.256365
0.247995
0.258329
0.380044
0.317107
0.318866
0.33053
0.412613
0.413079
0.329241
0.25511
0.291741
0.267013
0.262891
0.221915
0.213096
0.269353
0.321137
0.387112
0.328284
0.331052
0.413622
0.411548
0.335321
0.837237
0.741456
1.07665
1.00851
0.740762
1.07928
0.835276
0.835597
1.00595
0.732445
1.08742
0.73545
1.0806
0.838749
1.57246
1.55433
1.60036
1.577
1.55263
1.5959
1.57453
1.46996
1.24684
1.43913
1.32231
1.43794
1.31184
1.47325
1.56843
1.56994
1.54227
1.57423
1.549
1.58777
1.56114
0.328478
0.258213
0.290103
0.317539
0.28477
0.308129
0.332385
0.264462
0.279864
0.301869
0.296472
0.188669
0.26005
0.209146
0.338196
0.298803
0.298674
0.337046
0.380627
0.372135
0.422273
0.435955
0.364256
0.382815
0.435507
0.345837
0.391499
0.345456
0.339366
0.252202
0.231743
0.383456
0.386534
0.432347
0.383986
0.436773
0.31784
0.294216
0.285384
0.329941
0.368062
0.376185
0.419292
0.433484
0.368861
0.382741
0.414388
0.358336
0.419007
0.374051
0.399871
0.341138
0.418047
0.360089
0.360493
0.421408
0.345097
0.435622
0.346256
0.383378
0.378755
0.315416
0.298871
0.278271
0.335637
0.472802
0.384417
0.413617
0.380518
0.484734
0.456551
0.404742
0.864871
0.734304
1.09929
1.01635
0.847958
0.740589
1.11757
0.887772
1.02834
0.764801
1.17434
0.750646
1.14186
0.917394
1.5338
1.53156
1.55377
1.5169
1.54989
1.51608
1.52516
1.49121
1.29473
1.45213
1.4105
1.44737
1.38271
1.49864
1.51226
1.48276
1.46856
1.44073
1.49511
1.48727
1.48666
0.542389
0.479675
0.487873
0.542162
0.489686
0.53747
0.537129
0.478844
0.372631
0.394347
0.464257
0.268023
0.425549
0.279424
0.52508
0.47613
0.483908
0.512779
0.593537
0.597778
0.658286
0.623243
0.597378
0.583051
0.640701
0.558164
0.410759
0.422797
0.499901
0.289592
0.286041
0.529193
0.559623
0.568409
0.543474
0.587024
0.474262
0.45963
0.438327
0.495416
0.535772
0.583787
0.593251
0.600415
0.553922
0.565886
0.571661
0.515629
0.528872
0.572912
0.540586
0.532988
0.502739
0.552408
0.509847
0.558714
0.528629
0.544414
0.496652
0.522224
0.485074
0.532984
0.559824
0.448111
0.489421
0.466268
0.520989
0.433111
0.56609
0.450229
0.466845
0.514812
0.39745
0.340797
0.334558
0.421372
0.698858
0.539465
0.600935
0.505378
0.687342
0.620593
0.553335
1.00621
0.785434
1.2167
1.10586
0.95583
0.81452
1.27284
1.07248
1.15347
0.913944
1.42269
0.855046
1.34203
1.16149
1.41313
1.43825
1.38732
1.34354
1.45522
1.40202
1.33494
1.49315
1.41197
1.42791
1.53829
1.44956
1.51058
1.46662
1.36224
1.30056
1.3141
1.26223
1.35953
1.29185
1.30967
0.699801
0.715036
0.652092
0.725262
0.678396
0.760953
0.667461
0.61276
0.447697
0.433138
0.562683
0.292253
0.549945
0.297891
0.613159
0.58736
0.605075
0.597696
0.704623
0.743115
0.829215
0.684889
0.792764
0.672149
0.721782
0.691955
0.638218
0.480104
0.572257
0.365618
0.314525
0.607472
0.613335
0.614516
0.596561
0.63297
0.611986
0.610004
0.575941
0.638936
0.585049
0.64066
0.604728
0.589567
0.582935
0.57292
0.595941
0.581082
0.553405
0.563114
0.574662
0.639639
0.703045
0.705112
0.666804
0.674937
0.65432
0.653579
0.630352
0.663809
0.695721
0.646127
0.663383
0.625087
0.647352
0.589358
0.609793
0.593401
0.607221
0.58482
0.605328
0.582936
0.604644
0.928713
0.797852
0.679236
0.705853
0.771943
0.616914
0.890028
0.572741
0.878874
0.732282
0.588941
0.485274
0.406326
0.724272
1.11515
0.923443
1.10834
0.833093
1.33148
1.06792
1.01742
1.43363
0.999142
1.51259
1.39422
1.27918
1.12673
1.5971
1.61028
1.51709
1.54829
1.80112
1.29954
1.68565
1.84543
1.25853
1.27852
1.24657
1.24959
1.27103
1.26337
1.24586
1.34624
1.48798
1.36388
1.59756
1.34692
1.52728
1.50442
1.3077
1.28649
1.34577
1.47209
1.29427
1.29939
1.48354
1.00057
0.495899
0.616727
0.657096
0.736216
0.758359
0.888808
1.35255
1.03497
1.62445
1.67897
1.12429
1.2422
1.80657
0.782181
0.350625
0.55066
0.595515
0.528081
0.577045
0.808077
1.12254
0.958175
1.37786
1.57429
0.91978
1.16369
1.52192
1.11659
0.94556
1.36608
1.55679
0.911874
1.14663
1.51669
1.46085
1.53307
1.2253
1.45234
1.23153
1.22513
1.40503
1.2251
1.22501
1.2791
1.23041
1.225
0.398036
1.84884
1.23157
2.07646
1.33105
1.47441
1.45643
1.48397
1.50477
1.4252
0.964436
1.46777
1.40826
1.00412
1.30803
1.40032
1.31235
1.21044
1.24699
1.55266
1.28826
1.23032
1.61138
1.3562
1.54949
1.25797
1.51705
1.48567
1.31365
1.84257
1.36553
1.30953
1.48876
1.46013
1.31132
1.48808
1.36277
1.40891
1.33174
1.48073
1.44619
1.39402
1.3449
1.47321
1.45881
1.39095
1.42802
1.37995
1.45191
1.40172
1.3981
1.33286
1.36583
1.26996
1.26413
1.38374
1.34212
1.2578
0.950897
0.445876
0.597141
0.635702
0.676763
0.702416
0.862399
1.86239
1.71729
1.49715
2.196
2.16661
1.27513
1.38835
1.37143
1.45883
1.32187
1.4849
1.31519
1.48706
1.38116
1.42411
1.43815
1.37616
1.44729
1.36035
1.46209
1.43903
1.30689
0.934227
1.20809
1.16132
1.17899
1.11501
1.34732
1.43824
1.24409
1.21762
1.05827
1.39116
1.28655
1.28636
1.4574
1.34847
1.38939
1.30525
1.4024
1.35362
1.43426
1.4828
1.12918
1.37487
1.45416
1.33355
1.36727
1.51
1.48784
1.40502
1.52163
1.36007
1.51194
1.42207
1.57102
1.32906
1.29137
1.38313
1.4668
1.33625
1.30028
1.4718
1.46023
1.44551
1.45616
1.65686
1.43574
1.61203
1.52284
1.31689
1.01426
1.59607
1.63108
1.11748
1.21152
1.72494
0.556773
0.390823
0.560059
0.604661
0.639547
0.725208
0.665072
0.539717
0.319867
0.522986
0.532884
0.512921
0.625945
0.636824
0.527221
0.537084
0.329348
0.321178
0.531899
0.514488
0.625878
0.575062
0.460406
0.462226
0.669713
0.534813
0.535457
0.667542
1.83491
1.41417
1.43379
1.4955
1.6342
1.5464
1.58446
1.23113
1.22876
1.41201
1.60258
1.43542
1.63022
1.3804
0.623091
0.481807
0.503817
0.706645
0.542889
0.685419
0.558982
1.58161
1.82909
1.4007
1.5814
1.54422
1.69471
1.35342
1.35489
1.22558
1.2662
1.64639
1.34707
1.67231
1.25896
0.811312
0.611751
0.666655
0.864181
0.648032
0.810472
0.69508
1.83343
1.3218
1.8236
1.72015
1.29692
1.68372
1.23099
1.22747
1.22532
1.23729
1.66146
1.24343
1.43816
1.22649
1.31794
1.12546
0.930681
1.30473
0.90841
1.13241
1.0399
1.22557
1.25824
1.9223
1.56511
1.22703
1.2465
1.22515
1.22504
1.22507
1.22566
1.32786
1.22551
1.23372
1.22507
0.84568
1.26938
1.05104
1.14383
0.665913
0.927036
0.915553
1.63833
1.81788
1.84627
1.77465
1.79972
1.92114
1.95066
2.4364
1.98512
2.21818
1.8066
1.64291
1.84659
2.39129
1.83947
2.05536
1.68737
1.76298
1.58022
1.79373
2.34947
1.27144
2.44401
2.19865
1.71129
2.26486
2.38878
1.67289
2.41843
2.06257
1.88068
1.64852
2.23108
2.45126
1.80592
0.462532
0.580885
0.468141
0.668757
0.534522
0.533153
0.672627
0.697855
0.53233
0.56785
0.733729
0.610818
0.581579
0.767606
0.990974
0.736121
0.822327
0.931257
0.821707
0.752759
1.0164
1.63405
1.30701
1.59152
1.55813
1.58985
1.25849
1.82993
1.95508
1.65093
1.32236
1.46789
1.65539
1.26131
1.89462
0.88497
0.546078
0.550733
0.539553
1.01958
0.548308
1.03702
1.09304
0.579225
0.645924
0.611196
1.1127
0.721745
1.25778
1.68349
0.748613
0.909886
0.861271
1.46623
1.06969
1.78226
1.96668
2.03319
1.15573
1.38415
2.12501
2.21054
1.79005
2.43677
1.52517
1.70281
1.79999
2.42036
2.7331
1.80492
1.2276
1.33307
2.24692
2.38224
1.35385
1.34762
1.22707
0.73587
0.804655
0.532193
0.675985
0.795379
0.83179
0.991453
2.08837
1.97022
1.97326
2.08124
2.16407
2.17445
2.20546
1.97219
1.96543
1.9478
2.08287
2.08612
2.1179
2.01814
1.92006
1.74729
1.62594
1.61519
1.75299
1.79412
1.91622
1.24008
1.23422
1.53323
1.59695
1.47809
1.60419
1.45052
1.52998
1.22638
1.49856
1.62163
1.38407
1.61908
1.2996
1.23135
1.2257
1.2554
1.55089
1.24695
1.37215
1.22658
1.22504
1.22511
1.22621
1.35914
1.22554
1.24352
1.22504
1.92018
1.74554
1.65899
1.70011
1.74266
1.88175
1.90513
2.38843
2.35152
2.37711
1.7662
1.79831
1.9629
1.75307
1.91729
1.88606
1.87439
1.2807
0.0834842
0.17867
0.454816
0.616454
0.784166
1.16646
0.0997598
0.136006
0.136899
0.141212
0.155704
0.190454
0.0948316
0.235084
0.213526
0.234988
0.348052
0.313768
0.404369
0.36282
0.445975
0.415812
0.460814
0.547407
0.521483
0.638405
0.540572
0.543074
0.645853
0.665457
0.697841
0.85482
0.820965
0.577736
0.667199
2.13539
0.149742
0.168337
0.176147
0.194459
0.230381
0.331061
0.304159
0.407706
0.435233
0.545907
0.522085
0.676585
0.705191
0.938815
0.906473
1.20497
0.0947824
0.0909794
0.0959486
0.110135
0.0986565
0.10425
0.104545
0.141739
0.126069
0.13132
0.118305
0.130624
0.136645
0.113462
0.113344
0.109488
0.137635
0.124419
0.148019
0.118514
0.153586
0.145609
0.173726
0.183232
0.132222
0.178337
0.150603
0.160736
0.182696
0.233808
0.180231
0.250418
0.192157
0.196634
0.246712
0.261954
0.222969
0.27154
0.249237
0.21843
0.201053
0.267688
0.292161
0.346527
0.291188
0.307869
0.358565
0.303993
0.363922
0.365608
0.324201
0.377549
0.30069
0.375156
0.32109
0.352041
0.450731
0.400138
0.397554
0.467944
0.409092
0.416759
0.457508
0.46599
0.429974
0.483103
0.451247
0.428344
0.401693
0.482172
0.495594
0.562547
0.504361
0.521671
0.561971
0.507802
0.580369
0.587682
0.541402
0.609083
0.50545
0.606891
0.540669
0.569036
0.597877
0.677431
0.621342
0.701581
0.616848
0.641318
0.669641
0.75503
0.68655
0.770444
0.721662
0.680211
0.642754
0.755038
0.967367
0.850488
0.939855
0.80488
0.8889
0.820001
0.888477
0.15502
0.145932
0.150812
0.164848
0.191794
0.194633
0.27884
0.233124
0.280784
0.383725
0.332705
0.385651
0.487391
0.438217
0.492251
0.617545
0.552853
0.62585
0.812001
0.71331
0.815273
1.09651
0.924542
1.04966
1.06439
0.865408
1.16636
0.115887
0.109661
0.130138
0.143948
0.115891
0.136699
0.110235
0.129297
0.15971
0.161592
0.181316
0.130934
0.151829
0.157926
0.252394
0.206629
0.224161
0.288994
0.20027
0.261609
0.27646
0.307142
0.34657
0.374038
0.388873
0.318821
0.332439
0.361213
0.464135
0.426394
0.444174
0.517513
0.413086
0.478222
0.5001
0.518173
0.576821
0.593028
0.624622
0.533264
0.559822
0.578663
0.711637
0.65402
0.691494
0.748943
0.644014
0.712016
0.757234
0.775682
0.784619
0.806389
0.86725
0.758507
0.814297
1.79607
1.23412
1.24709
1.22512
1.22502
1.2412
1.22506
1.22542
1.22502
1.22503
1.24611
1.22504
1.23951
1.22505
1.22603
1.22503
1.22502
1.23131
1.57759
1.30564
2.27785
1.23814
1.22507
1.34915
2.29031
1.23431
1.22532
2.28189
1.2583
1.22521
1.22504
1.24252
1.22504
1.23266
1.22512
1.22804
1.22503
1.28104
2.10584
1.23086
1.22529
1.86896
1.24615
1.22595
1.225
1.225
1.22501
1.22503
1.22504
1.225
1.22502
1.225
1.22505
1.225
1.225
1.22501
1.22501
1.225
1.225
1.225
1.225
1.225
1.225
1.225
1.225
1.225
1.225
1.225
1.225
1.225
1.225
1.225
1.225
1.225
1.225
1.225
1.225
1.225
1.225
1.225
1.225
1.225
1.225
1.225
1.225
1.225
1.225
1.225
1.225
1.225
1.225
1.225
1.225
1.225
1.225
1.225
1.225
1.225
1.225
1.225
1.225
1.225
1.225
1.225
1.225
1.225
1.225
1.7687
1.09634
1.52911
0.743706
0.687221
0.888329
0.948023
0.856509
1.27632
1.18941
1.62898
1.30973
0.802679
0.802815
1.10003
0.679543
0.951006
0.977092
0.72634
0.689618
0.806974
0.73576
0.76136
0.76967
0.716195
0.827916
0.976783
0.832302
0.865833
1.2168
1.19119
1.8985
1.81986
1.1292
1.38598
1.55428
1.68307
0.844224
0.787001
0.787175
0.907447
0.936718
0.813623
0.82296
0.909121
1.0973
1.00034
1.12013
1.00897
0.931617
0.887796
1.02617
0.972027
0.849542
0.901874
0.926075
0.881641
0.930035
0.975161
1.08239
1.90714
1.36893
1.25511
1.13558
1.2866
1.50996
2.04372
0.861236
0.843344
0.409695
0.114987
0.131892
0.204822
0.382802
0.351217
0.411147
0.534126
0.472686
0.119204
0.133647
0.138115
0.150824
0.160064
0.178307
0.220239
0.268923
0.258611
0.349048
0.314465
0.309096
0.395465
0.394355
0.409923
0.381826
0.380925
0.469052
0.432071
0.43339
0.466789
0.468953
0.441475
0.439206
0.505515
0.543179
0.544482
0.0780943
0.091877
0.0962533
0.0982684
0.103811
0.115566
0.110433
0.181024
0.293715
0.259126
0.296765
0.192579
0.217876
0.225937
0.096358
0.109772
0.140514
0.12013
0.15699
0.167457
0.131453
0.0780137
0.0784979
0.073718
0.0926151
0.0984125
0.0900576
0.0960191
0.324802
0.429128
0.367506
0.321086
0.364374
0.421365
0.37121
2.19974
2.14476
2.44968
1.89012
2.125
1.68476
2.4405
1.62002
2.30195
1.95156
1.23355
1.22863
1.22503
1.225
0.174908
0.171631
0.176685
0.169991
0.187854
0.215008
0.189372
0.21363
0.298958
0.252902
0.25156
0.299922
0.350344
0.404015
0.351128
0.40328
0.51502
0.458405
0.457394
0.516754
0.58147
0.668343
0.584314
0.6654
0.908426
0.77442
0.772617
0.905526
1.07836
1.22555
1.05512
1.29578
1.225
1.22501
1.225
1.225
1.225
1.225
1.225
1.225
1.225
1.225
1.225
1.225
1.225
1.225
1.225
1.225
1.225
1.35009
1.28701
1.54783
2.13239
1.33193
1.52711
1.2624
1.24037
1.22654
1.28506
1.225
1.22502
1.225
1.22501
1.225
1.225
1.225
1.225
1.225
0.122741
0.0918025
0.12226
0.11457
0.111935
0.150265
0.146263
0.246644
0.173473
0.283532
0.242014
0.208981
0.201711
0.271327
0.427019
0.464199
0.521062
0.478245
0.467643
0.508468
0.44265
0.382423
0.417633
0.356688
0.373827
0.313052
0.339855
0.398903
0.132458
0.138511
0.188091
0.186126
0.190979
0.145147
0.139757
0.0757498
0.0808112
0.0885737
0.0896848
0.0957255
0.0930908
0.0989162
0.102561
0.132244
0.12535
0.11146
0.1448
0.114099
0.145915
0.468844
0.51022
0.466764
0.463238
0.421974
0.448417
0.493484
0.204305
0.195935
0.237895
0.207156
0.242106
0.200642
0.162497
0.125662
0.132055
0.180173
0.11875
0.12544
0.163582
0.169587
0.175033
0.238992
0.237091
0.197046
0.261355
0.194371
0.25333
0.331534
0.255921
0.287519
0.34597
0.295624
0.359517
0.259999
0.304799
0.353537
0.297778
0.325452
0.382052
0.313805
0.369111
0.396261
0.401817
0.463939
0.4044
0.456372
0.424333
0.482316
0.196087
0.142962
0.187744
0.227792
0.178875
0.216664
0.185535
0.120366
0.145988
0.110874
0.117594
0.152905
0.153794
0.160047
0.506625
0.591019
0.604824
0.499285
0.562444
0.5487
0.474601
0.245217
0.274067
0.233003
0.296968
0.314945
0.261819
0.32791
0.377541
0.359065
0.414676
0.420514
0.369493
0.38213
0.431624
0.411539
0.448953
0.403184
0.431556
0.477875
0.419202
0.467099
0.507122
0.516789
0.56423
0.544684
0.50221
0.532767
0.579128
0.171761
0.207482
0.133859
0.169183
0.166694
0.200596
0.176186
0.595445
0.5061
0.552587
0.543094
0.503204
0.537971
0.582814
0.205781
0.331541
0.567428
1.27493
0.253354
0.289246
0.222764
0.323805
0.492705
0.431591
0.56375
0.883812
0.7505
1.06545
0.207976
0.252955
0.204314
0.258019
0.257421
0.209059
0.203439
0.219548
0.267752
0.288632
0.244763
0.267262
0.220556
0.243619
0.327987
0.323184
0.281686
0.371807
0.28048
0.371211
0.329145
0.381204
0.428816
0.49257
0.439301
0.428347
0.3824
0.438145
0.568048
0.564037
0.500278
0.646187
0.499387
0.647008
0.568247
0.647625
0.749415
0.890712
0.74771
0.751876
0.647456
0.74917
1.07237
1.08174
0.883469
1.30498
0.887341
1.34039
1.06043
1.93126
1.72972
1.30921
1.59913
2.11632
1.49254
1.69769
1.26391
1.60769
0.413479
1.07443
1.45591
2.36992
1.225
1.225
1.225
0.326608
0.402022
0.973638
1.63063
2.27619
0.525868
0.340068
0.541825
0.647338
0.538748
1.10713
1.31902
1.25816
1.80432
2.00401
2.22817
2.52709
1.99192
2.61794
2.50476
0.565379
0.69975
0.586592
0.731263
0.850527
1.18485
0.987044
1.40424
1.29582
1.52916
1.22592
1.96343
1.51958
2.14451
2.03572
1.8296
1.30882
1.82702
2.34873
2.24117
1.88379
1.22503
1.225
1.225
1.225
1.225
2.29381
1.22507
1.225
1.4435
1.225
1.225
1.22592
1.225
1.225
1.26164
1.22501
1.225
2.23119
1.22503
1.225
1.23159
1.22501
1.225
1.225
1.225
1.225
1.225
1.225
1.225
1.225
1.225
1.225
1.225
1.225
1.225
1.225
1.225
1.225
1.22502
1.22503
1.225
1.22501
1.225
1.225
1.225
1.225
1.225
1.225
1.225
1.225
1.225
1.225
1.225
1.225
1.225
1.225
1.225
1.225
1.225
1.225
1.225
1.225
1.225
1.225
1.225
1.225
1.225
1.225
1.225
1.225
1.225
1.225
1.225
1.225
1.225
1.225
1.225
1.225
1.225
1.225
1.225
1.225
1.225
2.34355
1.23162
1.25483
1.22502
1.22501
1.22505
1.225
1.225
1.225
2.21294
1.22542
1.225
2.11316
1.22526
1.225
2.02188
1.27319
1.225
1.225
1.225
1.225
1.225
1.225
1.225
1.225
1.225
1.225
1.22742
1.225
1.225
2.21458
1.22504
1.225
1.22736
1.225
1.225
1.225
1.225
1.225
1.225
1.225
1.225
1.225
1.225
1.225
1.225
1.225
1.225
1.225
1.225
1.225
1.22503
1.225
1.225
1.225
1.225
1.225
1.225
1.225
1.225
1.225
1.225
1.225
1.225
1.225
1.225
1.225
1.225
1.225
1.225
1.225
1.225
1.225
1.225
1.225
0.267283
0.219667
0.222758
0.258381
0.260764
0.213404
0.216602
0.482656
0.463971
0.510218
0.518034
0.510354
0.467009
0.476321
0.497617
0.542449
0.494998
0.525147
0.573838
0.517147
0.570634
0.53772
0.597202
0.633978
0.646596
0.683381
0.673178
0.56734
0.284369
0.306972
0.252791
0.215328
0.273734
0.246015
0.300511
0.40151
0.419229
0.363997
0.333753
0.389966
0.358608
0.41607
0.2777
0.233485
0.259131
0.269551
0.2271
0.290758
0.252019
0.659376
0.641243
0.596606
0.610985
0.62952
0.586821
0.625329
0.502355
0.520382
0.471234
0.442682
0.494965
0.471634
0.526689
0.608878