/*--------------------------------*- C++ -*----------------------------------*\
  =========                 |
  \\      /  F ield         | OpenFOAM: The Open Source CFD Toolbox
   \\    /   O peration     | Website:  https://openfoam.org
    \\  /    A nd           | Version:  9
     \\/     M anipulation  |
\*---------------------------------------------------------------------------*/
FoamFile
{
    format      ascii;
    class       volVectorField;
    location    "0.0033";
    object      rhoU;
}
// * * * * * * * * * * * * * * * * * * * * * * * * * * * * * * * * * * * * * //

dimensions      [1 -2 -1 0 0 0 0];

internalField   nonuniform List<vector> 
28381
(
(322.15 -206.564 125.947)
(318.662 -126.261 163.972)
(271.464 -190.123 163.271)
(245.014 -191.525 123.029)
(173.561 -153.447 149.505)
(246.348 -196.156 245.353)
(222.836 -197.183 237.997)
(161.481 -161.445 223.154)
(334.573 -236.593 258.684)
(455.29 215.463 412.082)
(45.1476 188.835 133.455)
(44.8294 290.92 469.126)
(88.2101 42.1047 0.412687)
(112.966 55.8061 25.6156)
(108.759 77.803 10.3297)
(126.927 94.7597 30.245)
(120.829 62.2447 40.4246)
(159.394 83.3873 98.2873)
(148.379 114.764 62.7066)
(184.764 138.803 105.104)
(179.401 93.6496 124.37)
(241.583 93.3078 327.076)
(259.749 233.057 161.915)
(300.417 246.909 257.321)
(293.819 20.8432 408.28)
(346.782 -110.188 418.755)
(89.8621 13.4713 0.652113)
(81.3169 13.7619 -3.04961)
(92.8062 37.143 1.46877)
(97.3179 45.1187 5.40801)
(79.8903 13.1174 -3.50008)
(91.1395 14.6584 1.3906)
(102.452 39.3821 5.96742)
(99.0495 14.5163 8.50658)
(105.546 49.884 13.8513)
(106.629 18.147 20.6991)
(118.916 48.8252 23.8442)
(99.7725 16.1514 9.4883)
(111.278 43.5311 13.4537)
(106.339 16.1243 19.3088)
(121.294 20.0153 48.3027)
(113.456 20.3379 34.8283)
(126.535 54.4219 37.2915)
(130.423 68.7016 57.7468)
(113.322 18.0547 32.7662)
(121.713 22.531 51.3861)
(135.284 60.107 53.3281)
(131.465 21.9354 65.644)
(143.118 75.4281 76.9739)
(146.91 27.4594 89.1828)
(161.48 72.4469 92.7011)
(132.479 24.8152 69.5189)
(146.681 65.9363 71.6886)
(144.706 23.94 84.9846)
(172.554 28.61 145.036)
(164.625 30.9148 112.623)
(178.711 80.7956 118.487)
(197.06 102.039 162.81)
(159.935 26.5063 108.441)
(181.399 33.4704 150.208)
(192.949 88.0406 157.224)
(173.691 30.1722 198.407)
(210.518 104.986 222.163)
(238.748 17.5326 356.912)
(203.428 93.028 300.785)
(201.94 32.6563 210.585)
(194.376 94.362 211.764)
(189.634 18.6994 320.116)
(25.7771 102.28 64.5369)
(23.961 127.125 112.786)
(256.792 74.949 293.878)
(245.593 -129.914 353.424)
(252.308 -123.176 382.239)
(225.589 36.3461 365.91)
(393.236 -17.7232 454.139)
(191.016 -97.5904 343.27)
(342.838 -160.367 399.156)
(274.803 -6.9437 399.332)
(109.532 70.9173 9.19512)
(25.6797 1.32522 1.88568)
(126.359 75.5642 29.8252)
(22.8542 3.22217 23.5415)
(163.656 92.7394 47.5302)
(36.9847 6.09803 26.5982)
(205.447 88.4618 97.5173)
(59.0449 22.868 44.4175)
(245.1 117.764 379.333)
(74.2994 184.302 558.224)
(67.7373 49.2971 2.3032)
(111.358 106.72 3.05261)
(113.892 71.5332 22.213)
(67.1558 50.1854 19.1076)
(94.8456 137.804 11.9094)
(64.3208 136.238 2.30652)
(23.4363 2.6283 18.4812)
(62.9959 139.234 11.8824)
(67.3941 50.8605 23.7786)
(119.649 131.216 16.2754)
(143.895 86.4282 34.0054)
(73.4484 57.1991 26.4706)
(141.862 169.779 35.7056)
(62.4579 146.668 19.2769)
(31.7266 4.63136 27.6949)
(66.7711 170.39 29.0167)
(75.6841 58.9178 25.0315)
(164.222 202.757 65.7704)
(191.271 90.9067 75.8829)
(87.7137 61.6133 32.883)
(171.419 241.619 102.508)
(88.766 213.86 63.5309)
(53.3745 17.2674 37.147)
(111.54 232.03 94.0518)
(157.21 61.3355 115.252)
(179.753 67.6175 230.55)
(92.7149 62.8806 39.9905)
(209.993 273.878 140.502)
(222.771 142.808 199.922)
(115.953 99.3348 84.9024)
(254.52 345.155 194.509)
(143.492 265.848 126.068)
(76.9678 79.1894 63.4521)
(199.418 359.572 165.199)
(-25.3421 29.2931 3.97639)
(24.0216 42.0364 2.13586)
(-14.9166 -12.7688 1.28575)
(25.1224 1.99976 6.44462)
(22.834 42.9842 6.9436)
(-14.9978 -13.4175 4.6405)
(-24.215 29.6543 1.19033)
(-38.3619 34.3152 19.4583)
(13.0495 44.106 23.9275)
(-17.065 -10.27 18.7618)
(24.1102 3.96484 27.5961)
(-34.7598 32.8013 15.6022)
(9.18014 45.7826 28.4245)
(-15.5791 -10.3417 22.4539)
(-28.3652 32.7739 28.2954)
(10.5174 51.937 33.4247)
(-1.66282 -15.7014 23.6487)
(42.2724 8.90386 27.8041)
(-34.1805 32.1629 25.0118)
(15.4515 53.8458 36.4543)
(3.89298 -15.7598 26.1761)
(-0.94557 63.5807 65.4227)
(33.8342 67.0363 61.1044)
(22.813 -6.65241 46.2782)
(66.6712 29.2603 53.2078)
(-8.68346 48.4569 53.6671)
(40.4632 77.3861 73.6376)
(31.4702 3.05965 54.534)
(148.709 106.741 291.485)
(83.9788 113.998 143.136)
(88.9523 113.187 427.119)
(165.743 194.876 424.956)
(163.3 277.554 410.9)
(243.753 287.003 305.53)
(383.674 420.018 323.86)
(350.21 147.598 497.189)
(289.59 318.373 400.457)
(112.831 90.1793 9.49723)
(122.853 63.7618 3.23835)
(73.3425 76.2722 2.81646)
(67.2457 50.3441 7.46206)
(121.428 65.507 10.0573)
(72.1884 77.8855 8.66655)
(114.25 88.0619 3.25265)
(112.751 91.387 16.5281)
(67.2031 50.5961 13.533)
(124.058 65.8116 24.404)
(70.8288 78.8111 21.6782)
(121.85 66.1824 17.7821)
(71.5636 78.604 15.5456)
(114.367 91.8218 22.4672)
(-27.5126 29.8215 8.03107)
(24.4645 2.43695 12.699)
(17.4027 43.3908 18.5832)
(-16.8253 -11.631 14.058)
(20.9545 43.4301 13.1814)
(-15.9009 -13.0367 9.46152)
(-30.9127 30.7441 11.6377)
(122.273 102.015 30.273)
(127.709 66.6967 28.9801)
(70.0798 81.0859 27.2904)
(68.7812 52.832 26.9737)
(117.401 94.8299 27.1832)
(133.725 69.9044 31.327)
(70.1048 86.1234 31.3925)
(129.132 113.204 31.6108)
(71.0084 55.1855 27.7872)
(148.438 80.1592 30.4823)
(73.5574 99.5601 34.1375)
(141.039 75.0239 31.7341)
(71.3295 92.9757 33.6827)
(136.661 125.388 32.8188)
(-40.1804 34.5738 21.9669)
(27.3668 4.39226 28.9824)
(7.39032 49.7563 32.4086)
(-7.15293 -14.4025 23.0934)
(6.96391 47.8179 31.4805)
(-12.2089 -12.0135 23.4344)
(-38.5732 33.3714 23.1637)
(154.683 144.464 42.9524)
(156.266 83.979 32.1153)
(76.9169 105.286 35.3125)
(78.8552 60.4 25.5689)
(144.996 136.092 36.6547)
(164.942 86.1902 36.2457)
(81.3462 109.488 38.5506)
(166.268 151.131 52.6117)
(82.7259 61.1135 28.3355)
(187.184 85.2371 53.6723)
(94.2286 114.365 52.7413)
(175.2 86.4412 43.0885)
(87.0744 112.308 44.4744)
(180.139 155.899 65.552)
(-22.0105 35.2478 34.2331)
(47.5722 12.8192 31.3904)
(28.1 60.1528 50.79)
(15.9165 -11.9358 37.75)
(21.3526 56.3317 42.5121)
(9.63994 -14.5368 30.7051)
(-15.2975 39.8189 42.9798)
(145.933 2.2518 103.327)
(129.121 17.7527 103.023)
(180.957 38.9214 87.1706)
(167.614 55.954 147.658)
(138.703 7.72158 76.0071)
(139.184 8.2556 133.212)
(190.974 31.4214 113.973)
(145.128 -13.4769 84.54)
(185.203 9.10539 66.3567)
(138.582 -11.4829 59.5736)
(195.307 6.61456 89.9479)
(148.636 4.56211 139.364)
(176.651 57.755 184.788)
(149.301 12.709 216.25)
(194.959 35.6743 202.871)
(146.931 7.08199 169.796)
(195.281 32.6706 148.943)
(148.955 4.38599 194.8)
(142.892 -10.8759 118.778)
(199.005 22.9488 193.756)
(198.223 9.78626 121.857)
(140.066 1.92025 193.101)
(205.475 166.183 106.101)
(198.355 84.1635 69.404)
(100.578 117.512 63.6821)
(99.4352 65.7814 49.6414)
(192.554 160.887 83.0856)
(209.654 84.1532 91.4003)
(108.12 123.109 78.3936)
(211.38 178.956 135.639)
(106.379 74.3674 63.0761)
(218.037 107.392 173.973)
(121.392 173.179 126.186)
(215.016 90.1927 120.422)
(113.797 137.892 99.1769)
(220.26 200.096 180.37)
(6.85951 94.8143 76.7617)
(73.3148 42.5357 61.7328)
(51.344 151.856 94.1953)
(47.7747 79.3171 51.5618)
(45.0403 100.228 87.0179)
(39.9522 25.0779 59.7189)
(17.7486 157.147 81.6044)
(166.62 103.449 227.392)
(68.6358 90.8466 135.058)
(121.553 198.789 174.808)
(124.128 73.5658 217.743)
(105.834 160.801 166.483)
(134.804 154.06 247.165)
(166.758 186.539 253.878)
(81.5263 340.347 565.99)
(22.1921 376.827 428.939)
(12.1826 251.492 332.159)
(180.219 239.506 532.009)
(170.434 441.651 497.423)
(42.1939 232.76 231.662)
(69.0015 454.463 401.229)
(232.391 245.721 237.924)
(115.427 160.162 140.369)
(202.262 165.908 224.79)
(152.293 248.474 174.131)
(146.615 263.211 207.141)
(201.669 238.052 277.915)
(197.414 333.732 251.778)
(5.89622 82.6844 82.1435)
(16.5368 135.561 168.906)
(-17.1375 284.951 482.238)
(75.9488 38.0813 2.28842)
(81.0738 39.3936 4.89835)
(87.3498 38.3889 8.00528)
(111.397 45.9338 27.7128)
(119.414 51.3041 38.3114)
(149.088 62.9262 89.3518)
(134.161 66.0863 125.326)
(147.857 66.7551 256.311)
(160.692 66.8427 116.159)
(176.779 77.8989 269.907)
(186.234 45.2084 321.046)
(270.078 -88.6972 404.098)
(77.8794 -45.6481 316.11)
(161.657 55.215 310.468)
(123.595 5.50491 471.364)
(220.027 -6.42319 485.239)
(63.9521 15.4974 -1.98148)
(62.2854 26.1778 0.490565)
(79.0255 33.7471 1.58947)
(76.1506 39.4969 2.40785)
(63.0267 26.7951 -1.62876)
(79.7966 34.8429 0.683605)
(63.2079 15.0176 0.422631)
(65.7872 15.666 -3.85852)
(77.4671 40.024 3.86698)
(67.5065 27.0021 -4.4405)
(86.3414 35.3308 1.11649)
(64.2006 27.0645 -3.16418)
(81.678 35.4117 1.13845)
(70.4368 15.571 -5.30088)
(86.8296 14.609 -0.17691)
(73.1503 26.1516 -2.92459)
(94.1526 35.2246 3.3106)
(95.4855 38.5232 12.7878)
(77.4977 15.1846 -4.31178)
(80.2078 24.6335 1.21365)
(103.627 36.3941 7.79441)
(95.766 15.0538 7.99069)
(103.663 41.2719 19.3933)
(94.004 27.2473 19.5334)
(120.622 45.4047 24.1768)
(87.2153 24.7786 9.01635)
(112.625 39.9756 14.7201)
(103.587 16.9562 19.1553)
(118.866 20.9957 47.1792)
(101.364 30.7167 32.0224)
(128.415 51.1748 36.5011)
(127.966 55.9763 51.6039)
(111.025 19.1378 32.3109)
(109.517 33.7433 46.5777)
(136.749 56.5228 51.3646)
(128.557 22.7222 64.1294)
(137.765 59.7414 68.332)
(131.501 37.6044 84.4726)
(160.66 66.428 89.977)
(119.299 36.1469 63.8839)
(147.157 61.4605 69.0203)
(140.833 24.2376 83.3281)
(166.171 25.9069 141.977)
(144.225 37.1252 109.925)
(175.797 72.363 116.025)
(170.086 69.9328 152.483)
(154.209 25.5259 106.618)
(155.531 33.5967 146.148)
(188.426 77.6524 154.093)
(167.374 25.5903 191.764)
(176.443 70.7628 200.67)
(158.246 24.0817 285.454)
(191.946 84.7823 285.266)
(157.033 26.481 196.002)
(189.827 81.9095 205.58)
(171.878 17.5401 298.442)
(77.6519 16.8095 166.335)
(108.614 54.4171 122.089)
(105.882 34.0878 123.59)
(141.523 62.0102 160.541)
(72.1156 25.0139 129.831)
(116.475 49.4767 159.677)
(115.538 22.8227 159.245)
(83.5041 4.96457 207.572)
(148.484 57.7775 202.24)
(119.951 38.4959 279.61)
(127.268 20.4801 245.471)
(119.159 38.3228 206.532)
(124.001 16.0151 199.074)
(85.1232 4.20418 261.675)
(215.169 -100.465 343.494)
(169.806 -47.5944 316.726)
(205.594 39.8816 339.912)
(209.292 26.1399 372.615)
(176.2 -79.2369 324.275)
(206.812 -63.8521 350.532)
(234.733 9.10625 379.974)
(147.731 -4.46424 320.088)
(135.374 23.6895 292.978)
(178.232 42.8736 360.002)
(110.414 -10.1518 308.973)
(177.287 -28.0119 359.912)
(137.044 -20.5 351.676)
(144.539 31.2346 338.834)
(56.9737 73.027 328.009)
(32.9832 194.238 201.024)
(10.5322 212.634 282.304)
(13.0475 124.759 137.028)
(92.5191 76.4225 276.042)
(119.656 36.5412 533.759)
(225.987 36.3903 534.59)
(-56.15 49.0658 2.77883)
(-96.2737 190.912 3.90394)
(-47.9287 47.8576 11.1577)
(-98.0084 200.124 33.717)
(-46.2255 74.6463 17.3234)
(-75.1842 173.667 53.9516)
(-83.7685 175.107 61.5275)
(-35.4695 90.8116 41.7011)
(52.2389 167.845 90.766)
(3.31669 369.653 40.4572)
(0.0191292 0.0415692 0.0169924)
(0.519622 1.69717 0.837683)
(-38.649 28.1691 1.63746)
(-64.0551 135.797 4.74915)
(-34.9644 26.2559 10.1954)
(-64.9477 138.356 8.89069)
(-43.1913 23.0573 3.03225)
(-90.2567 69.6046 3.36178)
(-45.8897 26.4845 10.0159)
(-94.8329 77.4544 10.4656)
(-31.3333 24.6181 12.5397)
(-65.9586 148.847 18.5405)
(-17.3902 31.8302 15.1271)
(-35.5767 162.86 35.9893)
(-47.372 28.6837 13.0076)
(-106.863 93.8068 20.616)
(-14.2806 40.4723 16.3629)
(-3.90671 180.477 48.3474)
(-10.341 88.2737 34.3436)
(31.3037 195.021 68.5374)
(-8.29335 118.42 49.7515)
(74.659 248.431 104.634)
(15.7005 294.13 89.0217)
(146.688 387.018 152.56)
(44.7025 126.014 118.397)
(35.4912 342.154 33.4016)
(154.814 435.231 322.203)
(156.135 580.025 243.508)
(-75.7916 158.578 6.70304)
(-81.2242 96.3898 4.25397)
(-35.9648 161.35 6.31468)
(-50.9691 48.2122 8.91084)
(-74.5873 158.902 13.1686)
(-83.0452 104.073 11.5139)
(-32.7037 163.416 15.4019)
(-63.6794 158.912 24.5579)
(-88.2272 118.958 21.3461)
(-23.1138 160.481 26.7268)
(-43.9612 63.0174 15.6341)
(-22.9552 158.445 36.2671)
(-83.4596 100.251 24.8306)
(-8.84987 180.371 42.1301)
(6.3862 178.578 53.5858)
(-97.6537 138.11 40.6871)
(25.4958 288.46 90.0304)
(-70.4467 136.262 40.6065)
(41.1168 232.649 92.6376)
(-119.647 197.435 72.0456)
(51.0743 332.591 136.206)
(88.8144 340.604 163.567)
(-126.242 231.668 101.907)
(62.9576 294.937 146.162)
(-71.8494 311.258 63.8642)
(140.348 404.288 191.29)
(-79.2241 188.806 82.4172)
(8.68682 24.1477 13.0766)
(313.753 475.395 257.574)
(32.0791 369.767 66.6278)
(255.889 510.925 188.314)
(216.673 555.593 300.178)
(175.393 523.672 194.047)
(-51.8942 35.4514 2.79029)
(-33.2701 1.63296 1.12534)
(-71.1479 51.4878 1.44229)
(-37.9876 27.1764 3.05092)
(-33.1855 0.793001 3.38884)
(-70.5799 50.4072 2.61427)
(-51.5098 36.2409 0.995562)
(-53.3509 36.0368 6.10621)
(-37.358 26.7065 7.34239)
(-32.9627 1.52468 11.4366)
(-69.7229 50.0987 8.72059)
(-33.6278 0.960077 7.74591)
(-70.3979 50.2497 6.39411)
(-55.7989 36.8528 8.82183)
(-55.5375 1.84246 4.01238)
(-27.0176 12.2105 2.29335)
(-48.9141 17.8633 3.51703)
(-44.6202 24.2579 4.16094)
(-28.9574 13.3161 3.88673)
(-50.4776 19.1911 4.32453)
(-53.2832 0.622238 2.39973)
(-58.1933 2.5822 6.99779)
(-45.0046 24.9912 7.48172)
(-33.4531 16.0426 9.3593)
(-52.3971 20.5181 10.2907)
(-30.6225 14.265 6.76577)
(-50.9638 19.6192 7.60945)
(-62.8301 3.97329 9.73003)
(-58.5141 39.9538 14.8807)
(-31.3559 1.1899 14.9288)
(-67.9962 50.4164 12.6025)
(-25.9092 24.0511 12.8402)
(-58.4031 38.7674 12.2167)
(-28.086 0.0559504 16.5232)
(-61.9274 51.5245 14.3882)
(-54.4379 39.4238 16.5024)
(-21.2461 26.2587 13.9085)
(-19.8673 -0.439226 16.8553)
(-42.3927 57.106 16.9308)
(-24.0325 -0.625084 16.7825)
(-51.8929 53.0176 15.4372)
(-48.3943 38.9201 17.6282)
(-77.9942 9.61507 17.5152)
(-37.2627 18.3698 12.6876)
(-54.8508 22.061 14.0942)
(-50.3203 33.1939 15.4234)
(-69.1354 6.06277 13.5444)
(-42.5867 21.915 15.9957)
(-59.5397 26.1272 17.3312)
(-35.3801 44.405 24.0056)
(-15.7724 0.760579 18.3116)
(-34.2933 63.9963 19.0073)
(-12.0146 52.0098 19.0493)
(-41.8868 40.5139 20.1417)
(-11.6352 2.80421 20.6593)
(-26.7777 73.8464 23.077)
(-29.0507 50.4616 30.5079)
(-10.8719 67.2964 24.5872)
(-3.19736 11.5929 33.2465)
(-11.2361 106.391 40.8937)
(-7.49737 6.1153 25.5004)
(-19.0413 87.2924 29.9124)
(-22.8484 59.5473 40.155)
(-9.15973 99.5453 68.0872)
(1.9008 21.1361 44.1733)
(-3.70037 135.555 57.4808)
(-3.90852 163.934 69.8407)
(-16.6649 74.3681 53.1107)
(9.67025 39.5499 55.3786)
(3.3768 182.274 79.6714)
(2.39314 144.014 83.2866)
(3.78856 225.449 89.7438)
(40.2659 146 61.9658)
(25.051 332.821 119.201)
(22.0281 76.6172 65.7713)
(11.3721 252.378 104.348)
(20.3694 221.439 94.4943)
(64.7188 193.98 81.4179)
(50.3604 103.24 118.862)
(15.7367 132.075 104.104)
(84.1001 226.351 119.785)
(35.3569 98.1408 111.747)
(80.7683 186.425 117.469)
(64.9533 244.321 79.1334)
(67.1008 288.381 42.7349)
(19.1801 210.242 77.0031)
(48.6774 318.312 21.1756)
(84.1637 422.128 29.0434)
(31.9902 158.204 74.0739)
(74.007 343.36 50.8367)
(83.8704 409.398 15.8279)
(-83.4836 73.1252 2.54241)
(-61.8362 52.6441 3.73695)
(-56.2842 49.3797 3.2011)
(-82.5582 72.7603 3.07947)
(-62.4767 54.0278 4.16415)
(-72.9327 92.6871 4.31555)
(-73.2602 92.0803 4.05224)
(-70.2811 71.9293 12.2233)
(-61.93 54.173 13.6514)
(-44.8407 50.2689 12.196)
(-62.2668 73.6007 12.4196)
(-63.733 58.846 16.1958)
(-55.0607 90.7237 16.3027)
(-59.6418 87.7148 14.1727)
(-42.7776 98.3518 19.3102)
(-78.1388 93.3369 29.1885)
(-50.9575 89.7588 20.4626)
(-38.0454 114.827 24.6978)
(-87.1615 113.356 36.9254)
(-53.6343 152.118 40.9946)
(-52.1786 128.731 31.1891)
(-29.9971 213.957 78.7518)
(-124.049 214.551 88.3883)
(-94.3778 221.764 83.0391)
(-28.489 274.704 111.964)
(-125.388 238.52 100.751)
(-47.702 310.466 134.113)
(-55.5076 278.141 113.087)
(80.468 260.17 119.313)
(20.2086 183.177 67.691)
(100.373 300.125 140.59)
(51.1298 267.689 98.4713)
(80.9516 324.341 101.793)
(123.297 414.955 142.365)
(148.309 381.366 187.18)
(157.675 339.879 118.984)
(-0.836376 116.051 15.8931)
(1.06331 2.34838 0.926933)
(127.828 407.337 136.765)
(86.7086 172.945 63.7928)
(11.0995 33.9553 12.3351)
(1.44846 3.11197 1.11683)
(171.036 529.391 467.662)
(151.409 582.395 395.867)
(75.5709 494.012 417.373)
(23.5845 111.904 80.6804)
(-54.5358 48.7605 6.7779)
(-76.2455 71.7396 9.18887)
(-61.312 53.4008 10.2013)
(-80.5785 72.033 7.20096)
(-61.9933 53.5734 7.53638)
(-70.0487 91.4049 8.41136)
(-64.3472 89.2646 10.7902)
(-43.3385 55.0487 14.3169)
(-48.4726 85.6576 16.0442)
(-71.2932 78.4732 23.8409)
(-54.9739 77.4075 14.3233)
(-66.7095 66.8318 19.8934)
(-52.2266 98.6974 20.1387)
(-51.5221 111.516 24.7502)
(-58.9998 109.021 27.3485)
(-31.5911 167.045 51.3353)
(-112.07 177.622 67.6896)
(-34.2606 136.202 34.3561)
(-98.6156 141.539 49.1591)
(-55.6539 185.188 57.0897)
(-57.1142 229.762 82.3474)
(-93.5871 265.544 89.9169)
(-0.784606 362.602 122.805)
(-80.6995 262.963 61.8338)
(-20.0167 325.989 130.491)
(-114.84 249.23 98.3517)
(-33.4062 321.904 139.38)
(-10.543 318.433 116.112)
(27.2268 265.357 66.9045)
(60.9783 402.671 108.757)
(91.4991 442.418 67.0157)
(56.0769 336.488 98.2904)
(90.9335 402.113 79.8757)
(126.878 456.122 118.706)
(120.299 458.3 106.445)
(-6.77765 217.381 6.37968)
(-51.4584 136.782 1.95948)
(12.6063 212.822 3.38901)
(-97.3609 196.121 18.5095)
(-3.23159 230.51 23.331)
(-46.8293 126.531 11.9882)
(12.9983 201.761 19.8887)
(4.62926 252.571 43.8159)
(-35.0014 96.7547 16.7323)
(12.3442 165.67 29.287)
(-94.6535 198.184 47.8686)
(24.425 290.166 72.2056)
(-18.2239 50.5551 12.7805)
(9.16387 96.3884 24.7395)
(32.6179 267.694 87.167)
(-5.31353 15.0916 5.05471)
(3.80893 28.2152 9.72374)
(-36.8443 95.5434 37.3932)
(25.1832 162.844 67.6657)
(-0.305848 1.03025 0.443653)
(0.282728 1.37484 0.607545)
(5.84722 25.2435 12.8797)
(-0.0995559 0.338143 0.143395)
(0.0274227 0.102228 0.0472854)
(-4.01787 12.4269 5.90565)
(1.12715 3.29032 1.69081)
(-0.000910687 0.0162513 0.00487191)
(0.0188456 0.0544907 0.0257513)
(-0.0567288 0.187629 0.00252095)
(-0.0195539 0.0743457 0.00968686)
(-0.000517418 0.00623192 0.00254903)
(-8.51334e-06 0.0005987 0.000220832)
(63.8 413.496 433.963)
(43.6378 219.709 171.38)
(283.387 362.642 243.032)
(359.867 220.939 315.373)
(93.7974 449.905 336.005)
(89.5217 208.877 113.441)
(174.863 189.407 268.477)
(184.479 395.141 355.356)
(148.773 393.288 191.795)
(55.6575 231.377 152.911)
(100.813 413.311 250.689)
(33.9555 181.461 149.986)
(13.9323 120.303 114.445)
(67.7616 88.798 134.741)
(290.809 52.6849 419.895)
(-0.698085 236.586 14.0064)
(36.5241 228.667 52.9854)
(106.34 221.184 86.9925)
(163.838 366.732 194.976)
(0.0393722 0.0559647 0.0255279)
(102.29 473.451 348.67)
(278.322 454.63 226.074)
(249.649 484.191 189.361)
(151.212 292.218 8.05554)
(-7.27164 187.666 6.45215)
(165.768 278.867 20.2089)
(2.05604 236.491 24.4685)
(154.563 287.084 38.8696)
(-2.54761 190.18 19.0942)
(180.207 292.834 49.595)
(156.66 252.485 63.5899)
(10.4308 185.697 32.6882)
(192.923 305.15 65.6609)
(53.3661 219.236 59.1368)
(168.283 222.091 77.7417)
(31.2994 203.823 51.1501)
(223.392 328.957 101.635)
(209.182 231.523 106.188)
(78.94 311.42 102.408)
(225.849 318.295 129.39)
(98.1439 257.645 114.763)
(327.087 331.935 213.31)
(109.591 340.964 148.887)
(72.9493 92.6296 54.3221)
(271.941 270.753 197.82)
(100.405 269.605 141.171)
(18.8138 23.7002 14.73)
(204.852 389.027 203.789)
(47.471 46.5621 32.8587)
(5.55228 10.8557 5.98709)
(0.802534 1.07542 0.661646)
(20.2203 79.0724 54.1562)
(183.673 478.383 353.252)
(180.314 475.502 226.652)
(127.302 404.206 234.736)
(152.935 393.471 182.963)
(122.631 457.695 272.028)
(93.4219 275.809 143.456)
(109.035 192.593 22.4245)
(13.8536 23.1531 5.29901)
(0.606895 1.03019 0.381457)
(0.00613555 0.0113885 0.00395496)
(0.000118283 0.000523798 0.000176579)
(-0.000102204 0.00219225 0.000315196)
(9.52622e-06 0.000249677 1.72601e-05)
(-1.37542e-05 0.000852854 0.000218525)
(4.5043e-06 0.000119662 3.29507e-05)
(1.07798e-06 0.000474085 0.000154381)
(1.18024e-06 5.09418e-05 1.38566e-05)
(3.80667e-06 0.000124118 4.59325e-05)
(1.96189e-07 7.27962e-06 2.52645e-06)
(6.16635e-06 4.48947e-05 1.13887e-05)
(2.20077e-07 2.01051e-06 5.20368e-07)
(0.00563124 0.0139971 0.00511333)
(2.76457e-05 0.000113658 4.29904e-05)
(1.45679e-06 7.36106e-06 2.41603e-06)
(6.62269e-08 4.01184e-07 1.19209e-07)
(274.407 311.519 42.3808)
(262.162 296.155 71.9661)
(205.614 250.939 106.499)
(4.07599 4.95674 3.01971)
(91.8609 383.33 251.368)
(0.0943527 0.352309 0.179605)
(8.67477e-05 0.000343442 0.000187483)
(4.70618e-06 2.20634e-05 9.29565e-06)
(2.17882e-07 1.19828e-06 4.64385e-07)
(9.80204e-09 6.30593e-08 2.3444e-08)
(35.557 -73.3717 122.779)
(31.8406 -92.2494 156.664)
(24.2855 -82.5878 152.541)
(26.0423 -78.8752 118.56)
(20.3906 -71.1801 117.362)
(41.3961 -28.7689 155.648)
(55.8589 -4.07212 119.474)
(36.4408 -18.6619 119.452)
(63.2095 -13.9288 158.45)
(0.000747273 0.0015935 0.000509067)
(0.00239388 0.0051912 0.000169013)
(4.63807e-05 0.000114162 8.01238e-06)
(0.000153901 0.000393388 7.00839e-05)
(2.28643e-05 5.48503e-05 1.57132e-05)
(9.43367e-05 0.00024349 7.13406e-05)
(7.20898e-06 2.04159e-05 5.62575e-06)
(1.98321e-05 5.25759e-05 1.89785e-05)
(1.23228e-06 3.48891e-06 1.11039e-06)
(4.28845e-06 1.42537e-05 4.46341e-06)
(2.22916e-07 8.42058e-07 2.47238e-07)
(5.48692 9.87828 0.129565)
(0.0047094 0.0107275 0.00170733)
(0.00171818 0.0033567 0.00113984)
(0.000152095 0.000353877 0.000107271)
(7.18323e-05 0.000202695 7.1412e-05)
(-29.5206 25.06 156.151)
(-628.305 310.089 437.672)
(-267.627 331.524 434.437)
(-185.385 222.965 273.528)
(-160.931 175.086 160.15)
(-233.052 306.186 328.075)
(-304.177 144.155 273.934)
(-217.18 255.609 175.871)
(-333.707 441.467 406.938)
(-336.853 441.225 385.562)
(-1.4731 1.85963 2.48936)
(-74.5974 114.324 2.30154)
(-78.2702 115.467 6.35291)
(-97.2417 150.517 16.504)
(-121.992 180.959 32.37)
(-154.821 229.74 60.8821)
(-203.274 254.239 99.164)
(-320.987 316.351 203.086)
(-416.765 310.164 263.289)
(-582.185 320.966 386.969)
(-697.655 466.604 516.24)
(-214.617 -201.771 178.534)
(-227.634 92.3527 148.047)
(-132.198 -179.626 158.903)
(-206.759 -201.041 142.567)
(-291.196 -201.183 144.199)
(-129.805 -184.594 260.106)
(-197.038 -219.426 287.441)
(-288.166 -254.113 295.229)
(-188.292 -219.58 270.571)
(25.4237 -0.998529 24.8557)
(32.6133 -10.9148 34.846)
(31.2276 11.8373 27.1957)
(37.8565 -5.41282 33.3443)
(39.7328 -17.2801 51.0457)
(38.6143 -8.69706 35.4168)
(17.6622 1.91062 25.3921)
(18.3251 8.02275 24.0007)
(34.0776 6.86819 25.9596)
(33.5522 4.65276 30.3522)
(17.0658 5.90993 23.568)
(19.1196 2.19988 27.1228)
(35.6624 2.04607 27.5057)
(16.6052 -2.87931 23.5469)
(33.8468 -1.09966 23.4778)
(16.8313 -0.164134 22.3683)
(34.8204 -3.78026 24.0286)
(17.9905 -0.906943 26.8946)
(36.114 -1.22847 32.1288)
(19.3727 -5.54579 31.7657)
(37.8218 -4.16101 28.5586)
(19.4732 -2.49015 29.592)
(36.9751 -1.58844 28.0521)
(17.5502 -2.54002 28.2954)
(15.9361 -5.01328 24.3389)
(36.7691 -7.47706 23.2332)
(36.1134 -5.80133 23.6999)
(14.7175 -6.66104 24.9457)
(14.251 -5.06434 32.7936)
(18.6668 -7.74658 34.6804)
(38.1078 -6.0792 29.6059)
(39.449 -12.8198 39.0041)
(16.1951 -3.60554 30.0923)
(17.3171 -10.8149 38.7723)
(38.2419 -8.28431 32.0907)
(10.7258 -9.13849 26.6222)
(36.8144 -8.81327 23.0976)
(12.9097 -7.87442 25.5065)
(36.7972 -10.1213 24.2793)
(36.3257 37.4021 3.19009)
(40.5777 22.6638 28.5864)
(56.6661 -0.683517 34.4691)
(75.0509 -31.5155 76.4388)
(88.5573 25.3461 291.011)
(78.1954 60.2962 2.86094)
(37.7861 29.7739 23.6143)
(80.1467 62.3262 17.7864)
(84.773 60.7068 23.1525)
(53.4989 3.49987 32.9046)
(105.55 67.042 37.9004)
(113.025 69.6846 44.4053)
(69.2928 -21.4921 56.5139)
(144.456 65.4916 88.3188)
(84.1192 -35.7187 185.233)
(57.224 38.2849 9.9791)
(48.596 46.4791 3.04071)
(43.8361 29.1784 3.31342)
(34.6746 37.2852 9.41582)
(46.8965 47.1111 8.9596)
(42.6558 28.7275 9.95679)
(58.4719 38.151 3.24492)
(68.6435 20.6822 28.3702)
(51.2922 36.4851 28.5138)
(48.7041 14.3027 26.1784)
(44.7774 14.9798 31.6517)
(64.0887 25.8409 27.7149)
(55.4274 30.9243 32.2139)
(52.1298 8.60828 26.8377)
(89.2104 3.32591 30.0893)
(71.7633 18.4442 38.6277)
(60.9227 -1.86797 26.457)
(60.0159 -5.51471 37.8441)
(84.201 7.60813 27.225)
(78.268 12.965 44.0865)
(63.4287 -4.77711 28.7336)
(113.154 -19.9456 93.6713)
(104.746 -17.2136 87.597)
(75.1204 -19.8725 61.932)
(79.1008 -39.3084 104.593)
(108.824 -14.9598 65.9892)
(111.666 -26.832 116.17)
(77.9513 -23.7596 89.5638)
(68.792 129.606 235.423)
(82.354 242.669 375.036)
(72.1648 50.2593 9.9707)
(62.8012 54.7303 2.94913)
(94.1536 57.1239 3.26738)
(76.3983 62.2209 6.90794)
(61.089 56.4038 7.96776)
(92.6446 58.9433 9.55074)
(73.6575 48.9984 3.27466)
(62.1338 12.5282 10.284)
(49.048 9.42183 3.39162)
(47.6637 9.07271 10.0669)
(63.5285 12.6899 3.3676)
(78.6622 23.9848 11.1924)
(117.493 32.5505 3.54125)
(116.092 33.3222 11.3937)
(80.2694 23.7578 3.48247)
(58.5467 36.1266 17.6672)
(35.7355 34.9708 16.7138)
(48.9862 41.8476 23.0751)
(46.042 20.5586 23.1046)
(47.6089 45.7109 16.1583)
(43.8174 26.0233 17.2417)
(61.0284 31.3505 24.0519)
(73.2679 49.6451 17.898)
(77.4848 63.094 12.6467)
(63.4321 53.5291 20.3583)
(96.939 58.1275 23.8215)
(61.6059 56.1319 14.2334)
(93.7091 59.3692 17.0547)
(75.5495 46.834 24.7804)
(62.5284 11.0426 17.6094)
(48.8236 4.90864 21.1164)
(47.9584 7.67451 16.8164)
(63.6044 8.00839 22.2392)
(78.7259 22.3678 20.2132)
(117.767 30.2568 28.2109)
(116.25 32.6695 20.8445)
(79.6692 19.0621 26.6955)
(84.7963 40.1217 31.1052)
(66.6863 50.0104 26.2305)
(101.747 57.2064 28.9874)
(91.4596 60.5709 28.7032)
(79.0213 43.3498 29.2437)
(71.5888 47.6842 31.577)
(108.531 57.8089 31.9166)
(69.8676 0.249926 21.9022)
(50.4438 1.05274 22.5687)
(65.8846 3.94822 23.4047)
(52.754 -2.4046 22.0079)
(85.4612 11.3655 28.6916)
(120.377 28.1396 32.3278)
(81.5078 15.2037 29.6526)
(125.962 26.4524 33.1778)
(74.0913 15.9387 27.0863)
(49.6205 8.44368 32.7232)
(66.0223 22.6041 35.4105)
(58.5082 0.802407 25.6191)
(60.6655 26.4666 33.8843)
(55.5966 4.14022 26.1492)
(79.3255 11.6232 25.8366)
(91.953 37.1887 31.4137)
(98.5848 63.3069 33.5139)
(82.7466 47.3984 38.4657)
(125.226 60.7888 34.3243)
(77.3208 47.2717 34.9495)
(116.746 59.6282 33.0462)
(98.7029 34.4043 30.6829)
(74.4218 -2.83605 19.4578)
(57.5433 -6.99269 19.9309)
(55.2712 -5.01763 20.8071)
(78.9019 -4.96011 17.5555)
(91.5363 7.42421 25.8562)
(139.823 23.5836 29.5824)
(132.989 25.1979 31.979)
(98.5894 3.77786 23.2623)
(112.39 27.1383 37.1486)
(88.6787 46.3004 43.7242)
(134.248 60.2355 37.2131)
(121.541 70.486 54.1423)
(105.379 31.1604 33.1991)
(95.8689 43.0419 51.7198)
(144.238 58.042 43.0286)
(87.8918 -7.72142 19.3493)
(59.6924 -8.40233 19.751)
(83.3195 -6.26626 17.5863)
(62.1034 -9.85355 20.9167)
(113.299 -2.14037 26.8254)
(147.061 21.5824 30.1495)
(105.838 0.589715 24.1765)
(155.05 19.3482 33.6264)
(95.0241 -2.11054 36.0568)
(64.0473 -12.2741 44.5326)
(95.2482 -5.78379 66.4915)
(70.8709 -14.1194 43.5582)
(85.9632 4.96237 52.838)
(66.6075 -8.76368 33.7503)
(102.164 -8.64759 46.9635)
(120.244 21.7407 44.4011)
(131.982 68.941 68.311)
(116.656 27.7818 79.4684)
(169.119 46.7786 66.6372)
(104.981 36.846 63.1221)
(155.904 53.6202 52.3867)
(129.813 14.7547 56.5197)
(93.5033 -9.25377 23.9431)
(69.6106 -13.0611 31.9585)
(65.2807 -11.4856 24.3051)
(100.253 -10.8778 33.5161)
(121.392 -5.10966 32.509)
(174.887 12.4734 49.9591)
(164.139 16.3236 39.6553)
(130.762 -8.60876 42.6545)
(109.762 -12.6888 78.9628)
(73.3426 -13.8089 48.107)
(105.817 -12.0677 51.228)
(75.7131 -13.706 75.9838)
(115.408 -17.43 129.187)
(82.5244 -39.0669 139.386)
(119.263 -24.1844 198.466)
(79.7787 -17.069 177.099)
(117.372 -27.9678 151.408)
(80.1974 -20.2676 124.543)
(114.949 -15.6108 184.596)
(108.54 -11.0846 118.866)
(74.3091 -6.19543 188.015)
(75.2838 -10.8127 115.575)
(107.279 -6.44116 193.564)
(55.0313 133.215 159.436)
(64.2831 56.8778 200.435)
(34.7604 77.7005 119.971)
(51.9929 80.7479 128.082)
(94.5527 58.319 210.341)
(82.3385 140.793 165.088)
(102.357 136.012 243.125)
(12.0999 -1.85103 2.048)
(13.0582 -7.89195 3.91014)
(16.0859 -20.413 9.82068)
(19.8414 -37.709 20.3304)
(24.8754 -48.8087 37.8257)
(28.5592 34.6273 2.87848)
(21.3548 23.454 9.23701)
(27.2731 7.56214 24.6925)
(31.5971 -1.08881 36.7536)
(39.7793 -6.35056 54.6283)
(77.3349 4.93828 85.6439)
(88.0053 -7.80932 111.494)
(71.069 -59.6636 223.562)
(11.9522 -10.6061 0.458582)
(17.8123 -31.5216 11.9268)
(66.6814 49.4609 2.31076)
(13.2161 -16.6474 3.46541)
(69.7732 51.2449 6.21292)
(74.4816 50.4418 10.0674)
(90.7118 57.8677 31.6357)
(97.0576 62.7203 43.2777)
(123.805 67.6057 96.2943)
(12.3015 11.9306 -0.483947)
(17.0877 17.3755 0.66113)
(16.9983 17.7627 -1.16983)
(12.5249 11.6688 0.965084)
(11.9922 11.6873 -0.463398)
(18.3228 16.8947 -3.03585)
(16.9499 17.775 -1.96494)
(12.6945 9.88749 -0.767731)
(18.1798 1.18335 5.51321)
(21.5873 14.8172 -1.04738)
(15.1813 6.36483 1.59817)
(25.9525 11.226 3.06511)
(19.8398 -2.48072 13.3617)
(29.3572 8.95095 11.4821)
(43.2652 5.95338 68.8771)
(34.0364 35.8543 0.217011)
(49.6001 41.8019 0.835719)
(50.8219 47.4929 2.42548)
(66.2272 51.1685 2.60976)
(49.8861 42.6792 -0.864339)
(49.4245 49.0562 3.97328)
(34.3188 35.2694 1.42956)
(34.2333 35.8771 0.249928)
(67.0066 51.7921 4.42372)
(52.5499 42.5003 -3.13695)
(52.1013 47.0209 10.0419)
(50.3263 42.8452 -1.87526)
(49.9837 49.0366 7.01267)
(36.079 34.1713 0.410214)
(43.7716 28.2859 8.51456)
(57.1866 41.2447 -1.38444)
(55.617 44.4449 15.2384)
(80.3372 50.8803 15.7809)
(39.9397 31.0629 3.37053)
(62.8012 40.3844 3.01222)
(59.4644 43.1996 21.3431)
(45.8971 27.8206 17.0636)
(85.5846 53.4529 22.5751)
(71.5788 44.9118 22.5618)
(65.7869 48.2616 35.8104)
(67.4012 41.7591 11.3044)
(62.6243 44.8 27.9369)
(47.4529 29.372 28.2806)
(54.3218 32.8042 57.4664)
(76.5075 48.6623 36.0851)
(70.3764 51.2902 45.6787)
(104.519 66.1222 57.1587)
(50.3114 31.7356 41.7317)
(82.4912 51.6326 51.8533)
(76.2565 51.565 57.5608)
(59.2601 32.1436 76.5754)
(113.509 67.8434 74.258)