# vtk DataFile Version 2.0
sampleSurface
ASCII
DATASET POLYDATA
POINTS 1997 float
-0.2 -0.2 0 0.2 -0.2 0 -0.2 0.2 0 0.2 0.2
0 0.6 -0.2 0 0.6 0.2 0 -0.2 -0.6 0
0.2 -0.6 0 -0.2 0.6 0 0.2 0.6 0 -0.6
0.2 0 -0.6 -0.2 0 0.6 -0.6 0 0.6 0.6
0 -0.6 0.6 0 -0.6 -0.6 0 1 -0.2 0
1 0.2 0 -0.2 -1 0 0.2 -1 0 -1
0.2 0 -1 -0.2 0 -0.2 1 0 0.2 1
0 1 0.6 0 1 -0.6 0 0.6 -1 0
-1 0.6 0 -1 -0.6 0 -0.6 -1 0 0.6
1 0 -0.6 1 0 1.4 -0.2 0 1.4 0.2
0 -0.2 -1.4 0 0.2 -1.4 0 -1.4 -0.2 0
-1.4 0.2 0 -0.2 1.4 0 0.2 1.4 0 1
-1 0 -1 -1 0 1 1 0 -1 1
0 1.4 0.6 0 1.4 -0.6 0 0.6 -1.4 0
-1.4 -0.6 0 -0.6 -1.4 0 -1.4 0.6 0 -0.6
1.4 0 0.6 1.4 0 1.4 -1 0 1.4 1
0 1 -1.4 0 -1.4 -1 0 -1 -1.4 0
-1.4 1 0 -1 1.4 0 1 1.4 0 0
1.8 0 1.8 0.2 0 1.8 -0.2 0 -0.2 -1.8
0 0.2 -1.8 0 -1.8 -0.2 0 -1.8 0.2 0
0.2 1.8 0 -0.2 1.8 0 0.4 1.8 0 -0.4
1.8 0 1.8 0.6 0 1.8 -0.6 0 0.6 -1.8
0 -1.8 -0.6 0 -0.6 -1.8 0 -1.8 0.6 0
0.6 1.8 0 -0.6 1.8 0 0.8 1.8 0 -0.8
1.8 0 1.4 -1.4 0 1.4 1.4 0 -1.4 -1.4
0 -1.4 1.4 0 0 2 0 0.2 2 0
-0.2 2 0 0.4 2 0 -0.4 2 0 1.8
-1 0 1.8 1 0 1 -1.8 0 -1.8 -1
0 -1 -1.8 0 -1.8 1 0 1 1.8 0
-1 1.8 0 0.6 2 0 -0.6 2 0 0.8
2 0 -0.8 2 0 1.2 1.8 0 -1.2 1.8
0 0 2.2 0 2.2 -0.2 0 2.2 0.2 0
-0.2 -2.2 0 0.2 -2.2 0 -2.2 -0.2 0 -2.2
0.2 0 0.2 2.2 0 -0.2 2.2 0 1 2
0 -1 2 0 0.4 2.2 0 -0.4 2.2 0
1.4 -1.8 0 1.8 -1.4 0 1.8 1.4 0 1.4
1.8 0 -1.8 -1.4 0 -1.4 -1.8 0 -1.8 1.4
0 -1.4 1.8 0 2.2 -0.6 0 2.2 0.6 0
0.6 -2.2 0 -2.2 -0.6 0 -0.6 -2.2 0 -2.2
0.6 0 0.6 2.2 0 -0.6 2.2 0 -1.2 2
0 1.2 2 0 0.8 2.2 0 -0.8 2.2 0
0 2.4 0 0.1 2.4 0 -0.1 2.4 0 0.2
2.4 0 -0.2 2.4 0 -1.6 1.8 0 2.2 -1
0 2.2 1 0 -1 -2.2 0 -2.2 -1 0
1 -2.2 0 -2.2 1 0 1 2.2 0 -1
2.2 0 0.3 2.4 0 -0.3 2.4 0 0.4 2.4
0 -0.4 2.4 0 -1.4 2 0 1.4 2 0
0.5 2.4 0 -0.5 2.4 0 0.6 2.4 0 -0.6
2.4 0 0 2.5 0 0.7 2.4 0 -0.7 2.4
0 0.1 2.5 0 -0.1 2.5 0 -1.2 2.2 0
1.2 2.2 0 0.2 2.5 0 -0.2 2.5 0 0.3
2.5 0 -0.3 2.5 0 0.8 2.4 0 -0.8 2.4
0 0.4 2.5 0 -0.4 2.5 0 1.8 -1.8 0
1.8 1.8 0 -1.8 -1.8 0 -1.8 1.8 0 0.5
2.5 0 -0.5 2.5 0 -1.6 2 0 0.9 2.4
0 -0.9 2.4 0 0.6 2.5 0 -0.6 2.5 0
0.7 2.5 0 -0.7 2.5 0 1 2.4 0 -1
2.4 0 0 2.6 0 0.1 2.6 0 -0.1 2.6
0 1.4 -2.2 0 2.2 -1.4 0 2.6 -0.2 0
2.6 0.2 0 2.2 1.4 0 -0.2 -2.6 0 0.2
-2.6 0 -1.4 -2.2 0 -2.6 -0.2 0 -2.6 0.2
0 -2.2 -1.4 0 -2.2 1.4 0 -1.4 2.2 0
0.2 2.6 0 1.4 2.2 0 -0.2 2.6 0 0.3
2.6 0 -0.3 2.6 0 0.8 2.5 0 -0.8 2.5
0 0.4 2.6 0 -0.4 2.6 0 1.1 2.4 0
-1.1 2.4 0 0.5 2.6 0 -0.5 2.6 0 0.9
2.5 0 -0.9 2.5 0 2.6 -0.6 0 2.6 0.6
0 0.6 -2.6 0 -2.6 -0.6 0 -0.6 -2.6 0
-2.6 0.6 0 0.6 2.6 0 -0.6 2.6 0 -1.2
2.4 0 1.2 2.4 0 2 1.8 0 -2 1.8
0 -1.8 2 0 1.8 2 0 1 2.5 0
-1 2.5 0 0.7 2.6 0 -0.7 2.6 0 0
2.7 0 0.1 2.7 0 -0.1 2.7 0 0.2 2.7
0 -0.2 2.7 0 0.3 2.7 0 -0.3 2.7 0
0.8 2.6 0 -0.8 2.6 0 2.2 1.6 0 -1.6
2.2 0 1.6 2.2 0 -1.3 2.4 0 0.4 2.7
0 -0.4 2.7 0 1.1 2.5 0 -1.1 2.5 0
0.5 2.7 0 -0.5 2.7 0 0.9 2.6 0 -0.9
2.6 0 0.6 2.7 0 -0.6 2.7 0 1.2 2.5
0 -1.2 2.5 0 2.4 1.4 0 -1.4 2.4 0
1.4 2.4 0 2.6 -1 0 2.6 1 0 -1
-2.6 0 -2.6 -1 0 1 -2.6 0 -2.6 1
0 1 2.6 0 -1 2.6 0 0.7 2.7 0
-0.7 2.7 0 0.8 2.7 0 -0.8 2.7 0 -1.3
2.5 0 1.1 2.6 0 -1.1 2.6 0 2 2
0 -2 2 0 -1.5 2.4 0 2.2 1.8 0
1.8 -2.2 0 2.2 -1.8 0 -2.2 -1.8 0 -1.8
-2.2 0 -2.2 1.8 0 -1.8 2.2 0 1.8 2.2
0 0.9 2.7 0 -0.9 2.7 0 1.2 2.6 0
-1.2 2.6 0 -1.4 2.5 0 1 2.7 0 -1
2.7 0 2.4 1.6 0 -1.6 2.4 0 1.6 2.4
0 -1.3 2.6 0 1.3 2.6 0 -1.5 2.5 0
1.1 2.7 0 -1.1 2.7 0 -1.7 2.4 0 2.6
-1.4 0 2.6 1.4 0 -1.4 -2.6 0 -2.6 -1.4
0 1.4 -2.6 0 -2.6 1.4 0 -1.4 2.6 0
1.4 2.6 0 1.2 2.7 0 -1.2 2.7 0 -1.6
2.5 0 2.2 2 0 2 2.2 0 -2.2 2
0 -2 2.2 0 -1.3 2.7 0 1.3 2.7 0
2.4 1.8 0 -1.8 2.4 0 -2.4 1.8 0 1.8
2.4 0 -1.5 2.6 0 3 -0.2 0 3 0.2
0 -0.2 -3 0 0.2 -3 0 -3 -0.2 0
-3 0.2 0 1.1 2.8 0 -1.7 2.5 0 -1.4
2.7 0 1.4 2.7 0 1.2 2.8 0 2.6 1.6
0 -1.6 2.6 0 1.6 2.6 0 3 -0.6 0
3 0.6 0 0.6 -3 0 -3 -0.6 0 -0.6
-3 0 -3 0.6 0 -1.9 2.4 0 -1.8 2.5
0 1.3 2.8 0 -1.5 2.7 0 1.1 2.9 0
-1.7 2.6 0 2.2 2.2 0 2.2 -2.2 0 -2.2
-2.2 0 -2.2 2.2 0 2.4 2 0 2 2.4
0 -2 2.4 0 -2.4 2 0 2.8 1.4 0
1.4 2.8 0 1.2 2.9 0 -1.6 2.7 0 -1.9
2.5 0 3 1 0 2.6 1.8 0 2.6 -1.8
0 3 -1 0 -1 -3 0 -3 -1 0
-2.6 -1.8 0 -1.8 -2.6 0 1 -3 0 1.8
-2.6 0 -2.6 1.8 0 -3 1 0 -1.8 2.6
0 1.8 2.6 0 1.3 2.9 0 2.3 2.2 0
2.2 2.3 0 2.4 2.1 0 -1.7 2.7 0 1.1
3 0 2.5 2 0 -2 2.5 0 1.4 2.9
0 -1.9 2.6 0 2.8 1.6 0 1.6 2.8 0
1.2 3 0 -1.8 2.7 0 2.3 2.3 0 2.4
2.2 0 2.2 2.4 0 -2.4 2.2 0 -2.2 2.4
0 2.5 2.1 0 1.3 3 0 2.6 2 0
2 2.6 0 -2.6 2 0 -2 2.6 0 1.1
3.1 0 -1.9 2.7 0 3 1.4 0 3 -1.4
0 -1.4 -3 0 -3 -1.4 0 1.4 -3 0
-3 1.4 0 1.4 3 0 2.3 2.4 0 2.4
2.3 0 -2.3 2.4 0 1.2 3.1 0 2.8 1.8
0 -2.8 1.8 0 1.8 2.8 0 2.5 2.2 0
2.2 2.5 0 -2.2 2.5 0 2.6 2.1 0 -2.1
2.6 0 2.7 2 0 -2 2.7 0 1.3 3.1
0 -1.9 2.8 0 1.1 3.2 0 2.4 2.4 0
-2.4 2.4 0 2.5 2.3 0 2.3 2.5 0 -2.3
2.5 0 3 1.6 0 1.6 3 0 1.4 3.1
0 3.4 -0.2 0 3.4 0.2 0 -0.2 -3.4 0
0.2 -3.4 0 -3.4 -0.2 0 -3.4 0.2 0 2.6
2.2 0 2.2 2.6 0 2.6 -2.2 0 2.2 -2.6
0 -2.6 -2.2 0 -2.2 -2.6 0 -2.6 2.2 0
-2.2 2.6 0 1.2 3.2 0 2.7 2.1 0 -2.1
2.7 0 2.8 2 0 -2.8 2 0 -2 2.8
0 2 2.8 0 3.4 -0.6 0 3.4 0.6 0
0.6 -3.4 0 -3.4 -0.6 0 -0.6 -3.4 0 -3.4
0.6 0 1.3 3.2 0 2.4 2.5 0 2.5 2.4
0 -2.4 2.5 0 -2.5 2.4 0 -1.9 2.9 0
2.6 2.3 0 2.3 2.6 0 -2.3 2.6 0 1.1
3.3 0 2.7 2.2 0 -2.2 2.7 0 2.2 2.7
0 3.2 1.4 0 1.4 3.2 0 3 1.8 0
3 -1.8 0 -3 -1.8 0 -1.8 -3 0 1.8
-3 0 -3 1.8 0 1.8 3 0 2.8 2.1
0 -2.1 2.8 0 1.2 3.3 0 2.9 2 0
-2 2.9 0 2.5 2.5 0 -2.5 2.5 0 2.4
2.6 0 -2.4 2.6 0 -2.6 2.4 0 3.4 1
0 3.4 -1 0 -1 -3.4 0 -3.4 -1 0
1 -3.4 0 -3.4 1 0 1.3 3.3 0 2.7
2.3 0 -2.3 2.7 0 2.3 2.7 0 -1.9 3
0 2.8 2.2 0 -2.8 2.2 0 -2.2 2.8 0
2.2 2.8 0 1.1 3.4 0 3.2 1.6 0 1.6
3.2 0 2.9 2.1 0 -2.1 2.9 0 1.4 3.3
0 0 3.6 0 0.1 3.6 0 -0.1 3.6 0
1.2 3.4 0 3 2 0 2 -3 0 -3
2 0 -2 3 0 0.2 3.6 0 -0.2 3.6
0 2 3 0 2.5 2.6 0 -2.5 2.6 0
-2.6 2.5 0 -2.7 2.4 0 0.3 3.6 0 -0.3
3.6 0 2.4 2.7 0 0.4 3.6 0 -0.4 3.6
0 2.8 2.3 0 -2.3 2.8 0 2.3 2.8 0
0.5 3.6 0 -0.5 3.6 0 -1.9 3.1 0 1.3
3.4 0 2.9 2.2 0 -2.2 2.9 0 2.2 2.9
0 0.6 3.6 0 -0.6 3.6 0 3 2.1 0
-2.1 3 0 0.7 3.6 0 -0.7 3.6 0 1.1
3.5 0 3.2 1.8 0 1.8 -3.2 0 -3.2 1.8
0 1.8 3.2 0 3.4 1.4 0 3.4 -1.4 0
-1.4 -3.4 0 -3.4 -1.4 0 1.4 -3.4 0 -3.4
1.4 0 1.4 3.4 0 2.6 -2.6 0 -2.6 -2.6
0 -2.6 2.6 0 -2.7 2.5 0 2.5 2.7 0
-2.8 2.4 0 2.4 2.8 0 -0.8 3.6 0 0.8
3.6 0 3.1 2 0 -2 3.1 0 1.2 3.5
0 0 3.7 0 2.9 2.3 0 -2.3 2.9 0
2.3 2.9 0 0.1 3.7 0 -0.1 3.7 0 0.2
3.7 0 -0.2 3.7 0 -0.9 3.6 0 0.9 3.6
0 0.3 3.7 0 -0.3 3.7 0 3 2.2 0
3 -2.2 0 2.2 -3 0 -3 -2.2 0 -2.2
-3 0 -3 2.2 0 -2.2 3 0 2.2 3
0 -1.9 3.2 0 0.4 3.7 0 -0.4 3.7 0
1.3 3.5 0 0.5 3.7 0 -0.5 3.7 0 -1
3.6 0 1 3.6 0 3.1 2.1 0 -2.1 3.1
0 -2.7 2.6 0 0.6 3.7 0 -0.6 3.7 0
-2.8 2.5 0 2.5 2.8 0 3.4 1.6 0 1.6
-3.4 0 1.6 3.4 0 -2.9 2.4 0 2.4 2.9
0 -1.1 3.6 0 1.1 3.6 0 0.7 3.7 0
-0.7 3.7 0 1.4 3.5 0 2 -3.2 0 3.2
2 0 -3.2 2 0 -2 3.2 0 2 3.2
0 3 2.3 0 -2.3 3 0 2.3 3 0
-0.8 3.7 0 0.8 3.7 0 -1.2 3.6 0 1.2
3.6 0 0 3.8 0 0.1 3.8 0 -0.1 3.8
0 3.1 2.2 0 -2.2 3.1 0 3.8 -0.2 0
3.8 0.2 0 -3.8 -0.2 0 -3.8 0.2 0 -0.2
-3.8 0 0.2 -3.8 0 0.2 3.8 0 -0.2 3.8
0 -1.9 3.3 0 -0.9 3.7 0 0.9 3.7 0
0.3 3.8 0 -0.3 3.8 0 -2.8 2.6 0 0.4
3.8 0 -0.4 3.8 0 -1.3 3.6 0 1.3 3.6
0 3.2 2.1 0 -2.1 3.2 0 -2.9 2.5 0
2.5 2.9 0 0.5 3.8 0 -0.5 3.8 0 -1
3.7 0 1 3.7 0 -3 2.4 0 2.4 3
0 2.4 -3 0 3.4 1.8 0 3.4 -1.8 0
3.8 -0.6 0 3.8 0.6 0 -3.8 -0.6 0 -3.4
-1.8 0 -1.8 -3.4 0 -0.6 -3.8 0 0.6 -3.8
0 1.8 -3.4 0 -3.8 0.6 0 -3.4 1.8 0
1.8 3.4 0 0.6 3.8 0 -0.6 3.8 0 3.3
2 0 -2 3.3 0 3.1 2.3 0 -2.3 3.1
0 -1.1 3.7 0 1.1 3.7 0 1.4 -3.6 0
3.6 1.4 0 -1.4 3.6 0 1.4 3.6 0 0.7
3.8 0 -0.7 3.8 0 -0.8 3.8 0 0.8 3.8
0 3.2 2.2 0 2.2 -3.2 0 -3.2 2.2 0
-2.2 3.2 0 2.2 3.2 0 -1.2 3.7 0 1.2
3.7 0 -1.9 3.4 0 -2.9 2.6 0 -1.5 3.6
0 -3 2.5 0 -0.9 3.8 0 0.9 3.8 0
2.5 3 0 3.3 2.1 0 -2.1 3.3 0 -3.1
2.4 0 -2.4 3.1 0 2.4 3.1 0 -1.3 3.7
0 3.8 1 0 3.8 -1 0 -1 -3.8 0
-3.8 -1 0 1 -3.8 0 -3.8 1 0 -1
3.8 0 1 3.8 0 1.6 -3.6 0 3.6 1.6
0 -1.6 3.6 0 1.6 3.6 0 3.2 2.3 0
-2.3 3.2 0 3.4 2 0 2 -3.4 0 -3.4
2 0 -2 3.4 0 2 3.4 0 -1.4 3.7
0 -1.1 3.8 0 1.1 3.8 0 3.3 2.2 0
-2.2 3.3 0 3 -2.6 0 2.6 -3 0 -3
-2.6 0 -2.6 -3 0 -3 2.6 0 2.6 3
0 -1.7 3.6 0 -1.9 3.5 0 -3.1 2.5 0
-2.5 3.1 0 2.5 3.1 0 1.2 -3.8 0 -1.2
3.8 0 1.2 3.8 0 -1.5 3.7 0 3.4 2.1
0 2.1 -3.4 0 -2.1 3.4 0 -3.2 2.4 0
-2.4 3.2 0 0 4 0 2.4 3.2 0 2.4
-3.2 0 0.2 4 0 -0.2 4 0 -1.3 3.8
0 0.4 4 0 -0.4 4 0 3.3 2.3 0
-2.3 3.3 0 1.8 -3.6 0 3.6 1.8 0 -3.6
1.8 0 -1.8 3.6 0 1.8 3.6 0 3.5 2
0 2 -3.5 0 -2 3.5 0 -1.6 3.7 0
2.7 3 0 0.6 4 0 -0.6 4 0 -3.1
2.6 0 -2.6 3.1 0 2.6 3.1 0 3.8 1.4
0 3.4 2.2 0 3.4 -2.2 0 2.2 -3.4 0
3.8 -1.4 0 -1.4 -3.8 0 -3.8 -1.4 0 -3.4
-2.2 0 -2.2 -3.4 0 1.4 -3.8 0 -3.8 1.4
0 -3.4 2.2 0 -1.4 3.8 0 -2.2 3.4 0
2.2 3.4 0 1.4 3.8 0 -3.2 2.5 0 -2.5
3.2 0 2.5 3.2 0 1.9 -3.6 0 -1.9 3.6
0 -1.7 3.7 0 -0.8 4 0 0.8 4 0
-3.3 2.4 0 -2.4 3.3 0 2.1 -3.5 0 3.5
2.1 0 -2.1 3.5 0 -1.5 3.8 0 2.8 3
0 2.8 -3 0 3.4 2.3 0 -2.3 3.4 0
2.3 -3.4 0 -2.7 3.1 0 2.7 3.1 0 1.8
-3.7 0 -1.8 3.7 0 2 -3.6 0 3.6 2
0 -3.6 2 0 -2 3.6 0 3.8 1.6 0
1 -4 0 1.6 -3.8 0 -1 4 0 -1.6
3.8 0 1.6 3.8 0 1 4 0 2.6 -3.2
0 -3.2 2.6 0 -2.6 3.2 0 2.6 3.2 0
3.5 2.2 0 2.2 -3.5 0 -2.2 3.5 0 -3.3
2.5 0 -2.5 3.3 0 1.9 -3.7 0 -1.9 3.7
0 2.4 -3.4 0 -3.4 2.4 0 -2.4 3.4 0
2.4 3.4 0 1.7 -3.8 0 -1.7 3.8 0 2.1
-3.6 0 3.6 2.1 0 -2.1 3.6 0 2.9 3
0 1.2 -4 0 -1.2 4 0 1.2 4 0
2.8 3.1 0 -2.8 3.1 0 -2.7 3.2 0 2.7
3.2 0 3.5 2.3 0 2.3 -3.5 0 0 4.2
0 -3.3 2.6 0 -2.6 3.3 0 3.8 1.8 0
3.8 -1.8 0 4.2 -0.2 0 4.2 0.2 0 -4.2
-0.2 0 -4.2 0.2 0 -3.8 -1.8 0 -1.8 -3.8
0 -0.2 -4.2 0 0.2 -4.2 0 1.8 -3.8 0
-3.8 1.8 0 -1.8 3.8 0 1.8 3.8 0 -0.2
4.2 0 0.2 4.2 0 2 -3.7 0 3.7 2
0 -2 3.7 0 1.6 -3.9 0 2.2 -3.6 0
3.6 2.2 0 -3.6 2.2 0 -2.2 3.6 0 2.2
3.6 0 0.4 4.2 0 -0.4 4.2 0 2.5 -3.4
0 -3.4 2.5 0 -2.5 3.4 0 4 1.4 0
1.4 -4 0 -1.4 4 0 1.4 4 0 3
3 0 3 -3 0 4.2 -0.6 0 4.2 0.6
0 -4.2 -0.6 0 -3 -3 0 -0.6 -4.2 0
0.6 -4.2 0 -4.2 0.6 0 0.6 4.2 0 -0.6
4.2 0 -3.5 2.4 0 2.4 -3.5 0 2.9 3.1
0 -2.9 3.1 0 1.9 -3.8 0 -1.9 3.8 0
2.8 -3.2 0 2.8 3.2 0 -2.8 3.2 0 2.1
-3.7 0 1.7 -3.9 0 3.7 2.1 0 -2.7 3.3
0 1.5 -4 0 3.6 2.3 0 2.3 -3.6 0
-0.8 4.2 0 0.8 4.2 0 2.6 3.4 0 3.4
-2.6 0 2.6 -3.4 0 -3.4 -2.6 0 -2.6 -3.4
0 -3.4 2.6 0 -2.6 3.4 0 3.8 2 0
2 -3.8 0 -3.8 2 0 -2 3.8 0 1.8
-3.9 0 -3.5 2.5 0 2.5 -3.5 0 2.2 -3.7
0 3.7 2.2 0 1.6 -4 0 4 1.6 0
-1.6 4 0 3 3.1 0 3.1 3 0 -3
3.1 0 4.2 1 0 4.2 -1 0 -1 -4.2
0 -4.2 -1 0 1 -4.2 0 -4.2 1 0
-1 4.2 0 1 4.2 0 2.9 3.2 0 -2.9
3.2 0 2.4 -3.6 0 -3.6 2.4 0 -2.4 3.6
0 2.4 3.6 0 -2.8 3.3 0 1.4 -4.1 0
1.9 -3.9 0 3.8 2.1 0 2.7 -3.4 0 2.1
[...]
CELL_DATA 1713
FIELD attributes 1
p 1 1713 float
101298 101298 101298 101298 101298 101298 101298 101298 101298 101298 101298
101298 101298 101298 101298 101298 101298 101298 101298 101298 101298
101298 101298 101298 101298 101298 101298 101298 101298 101298 101298
101298 101298 101298 101298 101298 101298 101298 101298 101298 101298
101298 101298 101298 101298 101298 101298 101298 101298 101298 101298
101298 101298 101298 101298 101298 101298 101298 101298 101298 101298
101298 101298 101298 101298 101298 101298 101298 101298 101298 101298
101298 101298 101298 101298 101298 101298 101298 101298 101298 101298
101298 101298 101298 101298 101298 101298 101298 101298 101298 101298
101298 101298 101298 101298 101298 101298 101298 101298 101298 101298
101298 101298 101298 101298 101298 101298 101298 101298 101298 101298
101298 101298 101298 101298 101298 101298 101298 101298 101298 101298
101298 101298 101298 101298 101298 101298 101298 101298 101298 101298
101298 101298 101298 101298 101298 101298 101298 101298 101298 101298
101298 101298 101298 101298 101298 101298 101298 101298 101298 101298
101298 101298 101298 101298 101298 101298 101298 101298 101298 101298
101298 101298 101298 101298 101298 101298 101298 101298 101298 101298
101298 101298 101298 101298 101298 101298 101298 101298 101298 101298
101298 101298 101298 101298 101298 101298 101298 101298 101298 101298
101298 101298 101298 101298 101298 101298 101298 101298 101298 101298
101298 101298 101298 101298 101298 101298 101298 101298 101298 101298
101298 101298 101298 101298 101298 101298 101298 101298 101298 101298
101298 101298 101298 101298 101298 101298 101298 101298 101298 101298
101298 101308 101298 101298 101298 101298 101298 101298 101298 101298
101298 101298 101298 101298 101298 101298 101298 101298 101298 101298
101298 101298 101298 101298 101298 101298 101298 101298 101298 101298
101298 101298 185402 4.64028e+06 101696 101298 1.9719e+06 739944 3.7405e+06 101298
101298 101298 101298 101298 101298 235139 101298 101298 101298 101298
4.6122e+06 1.70073e+06 3.9724e+06 101347 102745 101298 101298 101298 4.13744e+06 2.69065e+06
2.64024e+06 101298 101298 101303 101306 101298 101300 852943 2.09388e+06 4.55309e+06
101298 101298 101298 206876 101835 148247 330645 398244 103359 1.53612e+06
140045 101897 101997 101357 112307 102024 210199 109661 101301 101298
101298 101341 108820 175498 101298 101298 101298 101298 101298 101298
101298 101298 101298 101298 101298 101298 101298 101298 101298 101298
101298 101298 101298 101298 101298 101298 101298 101298 101298 101298
101298 101298 101298 101298 101298 101298 101298 101298 101298 101298
101298 101298 101298 101298 101298 101298 101298 101298 101298 101298
101298 101298 101298 101298 101298 101298 101298 101298 101298 101298
101298 101298 101298 101298 101298 101298 101298 101298 101298 101298
101298 101298 101298 101298 101298 101298 101298 101298 101298 101298
101298 101298 101298 101298 101298 101298 101298 101298 101298 101298
101298 101298 101298 101298 101298 101298 101301 101477 101299 101298
101298 101298 101629 101300 101298 101298 101305 102051 101576 101303
101298 101315 101298 101298 101298 101298 101298 101298 101298 101298
101298 101298 101304 101298 101298 101302 101298 101298 101298 101298
101298 101298 101298 101298 101298 101298 101298 101298 101298 101298
101298 101298 101298 101298 101298 101298 101298 101298 101298 101298
101298 101298 101298 101298 101298 101298 101298 101298 101298 101298
101298 101298 101298 101298 101298 101298 101298 101298 101298 101298
101298 101298 101298 101298 101298 101298 101298 101298 101298 101298
101298 101298 101298 101298 101298 101298 101298 101298 101298 101298
101298 101298 101298 101298 101298 101298 101298 101298 101298 101298
101298 101298 101298 101298 101298 101298 101298 101298 101298 101298
101298 101298 101298 101298 101298 101298 101298 101298 101298 101298
101298 101298 101298 101298 101298 101298 101298 101298 101298 101298
101298 101298 101298 101298 101298 101298 101298 101298 101298 101298
101298 101298 101298 101298 101298 101298 101298 101298 101298 101298
101298 101298 101298 101298 101298 101298 101298 101298 101298 101298
101298 101298 101298 101298 101298 101298 101298 101298 101298 101298
101298 101298 101298 101298 101298 101298 101298 101298 101298 101298
101298 101298 101298 101298 101298 101298 101298 101298 101298 101298
101298 101298 101298 101298 101298 101298 101298 101298 101298 101298
101298 101298 101298 101298 101298 101298 101298 101298 101298 101298
101298 101298 101298 101298 101298 101298 101298 101298 101298 101298
101298 101298 101298 101298 101298 101298 101298 101298 101298 101298
101298 101298 101298 101298 101298 101298 101298 101298 101298 101298
101298 101298 101298 101298 101298 101298 101298 4.49191e+06 1.25516e+07 4.66838e+06
1.84677e+06 6.27479e+06 6.27679e+06 4.79358e+06 7.54234e+06 7.04123e+06 8.61137e+06 5.44083e+06 5.73153e+06 5.3999e+06
1.09206e+07 1.00953e+07 1.14574e+07 7.3202e+06 8.27346e+06 8.85954e+06 9.80549e+06 8.60356e+06 7.89849e+06 4.22701e+06
6.02774e+06 4.7384e+06 101298 101298 101298 101298 101298 101298 101298 101298
101298 101298 101298 101298 101298 105487 2.85441e+06 582076 101298 101298
101298 101298 5.33932e+06 7.49993e+06 126879 1.33963e+07 6.74694e+06 101298 101298 101298
101298 101298 2.48675e+06 6.57115e+06 5.10741e+06 2.41637e+06 8.14221e+06 8.02995e+06 101299 310313
6.98884e+06 8.97555e+06 1.41394e+07 4.13661e+06 1.37145e+06 2.99563e+06 6.64787e+06 8.20619e+06 5.50845e+06 4.10842e+06
2.36168e+06 102168 4.98839e+06 7.41328e+06 6.89751e+06 4.55816e+06 6.48362e+06 5.21321e+06 6.86726e+06 1.28955e+07
7.31691e+06 7.96603e+06 6.94935e+06 5.90495e+06 4.82054e+06 7.79355e+06 5.74856e+06 6.96211e+06 4.52099e+06 5.03302e+06
9.87277e+06 1.42207e+07 9.76778e+06 8.22965e+06 9.72452e+06 1.08877e+07 1.55251e+07 4.2538e+06 8.94498e+06 8.14055e+06
8.98663e+06 4.79729e+06 4.81478e+06 7.76384e+06 7.44335e+06 1.18944e+07 6.5374e+06 5.23079e+06 3.82447e+06 1.37704e+07
1.18766e+07 1.15335e+07 6.44121e+06 6.71558e+06 8.3971e+06 1.06295e+07 9.86067e+06 8.35951e+06 1.28136e+07 1.38515e+07
1.53085e+07 1.11941e+07 1.14925e+07 1.33282e+07 7.57119e+06 9.16034e+06 8.89765e+06 9.69984e+06 9.90255e+06 8.10511e+06
9.68315e+06 7.65168e+06 8.07591e+06 1.30876e+07 1.19629e+07 1.28197e+07 8.86414e+06 1.00896e+07 1.12966e+07 1.04828e+07
1.23378e+07 1.13657e+07 1.25913e+07 1.3143e+07 1.12127e+07 1.62801e+07 1.47407e+07 1.41108e+07 9.15792e+06 7.69839e+06
7.60756e+06 6.9695e+06 7.21783e+06 8.59111e+06 7.13052e+06 7.00906e+06 8.86362e+06 1.07476e+07 8.633e+06 9.92036e+06
6.50227e+06 5.22754e+06 5.3066e+06 5.59345e+06 6.02933e+06 6.70024e+06 4.60224e+06 5.52819e+06 6.12282e+06 101298
210310 468176 3.34416e+06 4.76943e+06 4.32542e+06 101298 101298 463222 4.62845e+06 4.69655e+06
2.70983e+06 101298 286093 101323 4.61269e+06 4.49568e+06 1.32903e+06 3.2434e+06 5.76429e+06 6.62611e+06
5.7589e+06 5.57904e+06 3.62662e+06 6.49869e+06 4.12572e+06 6.19034e+06 2.46727e+06 4.97309e+06 4.8362e+06 978020
4.33411e+06 5.06897e+06 5.97827e+06 5.15009e+06 2.19367e+06 101298 101298 104632 276667 2.75215e+06
533543 112279 861626 3.86091e+06 101298 101298 102344 3.08236e+06 703630 107667
104690 105718 620936 355248 103244 104634 214504 1.8939e+06 158224 606700
105447 101837 127653 101428 102679 101419 102316 253963 101370 112005
101386 101298 101305 102208 101321 101298 101360 9.9048e+06 9.0375e+06 9.11876e+06
1.51465e+07 1.22099e+07 1.72773e+07 1.51933e+07 1.03755e+07 1.61801e+07 1.10341e+07 1.40868e+07 1.69383e+07 1.11591e+07
1.6641e+07 1.81148e+07 1.47937e+07 1.0537e+07 1.26728e+07 1.17415e+07 1.08671e+07 1.17989e+07 9.94103e+06 1.6496e+07
1.73197e+07 1.56245e+07 1.41199e+07 1.4365e+07 1.21298e+07 1.75873e+07 1.61016e+07 1.5859e+07 1.3397e+07 1.44235e+07
1.62978e+07 1.21831e+07 1.1307e+07 9.72472e+06 1.4944e+07 1.36789e+07 1.46183e+07 9.99305e+06 1.15217e+07 1.29192e+07
1.56099e+07 1.42255e+07 1.30661e+07 1.5151e+07 1.5166e+07 1.69336e+07 1.11665e+07 1.31113e+07 1.31271e+07 1.79514e+07
1.89835e+07 1.7656e+07 1.8143e+07 1.87468e+07 1.8537e+07 1.52102e+07 1.68542e+07 1.64897e+07 101326 101298
101306 101298 101298 101298 101298 101327 101316 101298 101298 101298
101302 101326 101298 101316 101308 101298 101305 101299 101298 101298
101303 101299 101298 101298 101298 101298 101298 101298 101299 101298
101298 101298 101298 101298 101298 101298 101298 101298 101298 101298
101298 101298 101298 101298 101298 101298 101298 101298 101298 101298
101298 101298 101298 101298 101298 101298 101298 101298 101298 101298
101298 101298 101298 101298 101298 101298 101298 101298 101298 101298
101298 101298 101298 101298 101298 101298 101298 101298 101298 101298
101298 101298 101298 101298 101298 101298 101298 101298 101298 101298
101298 101298 101298 101298 101298 101298 101298 101298 101298 101298
101298 101298 101298 101298 101298 101298 101298 101298 101298 101298
101298 101298 101298 101298 101298 101298 101298 101298 101298 101298
101298 101298 101298 101298 101298 101298 101298 101298 101298 101298
101298 101298 101298 101298 101298 101298 101298 101298 101298 101298
101298 101298 101298 101298 101298 101298 101298 101298 101298 101298
101298 101298 101298 101298 101298 101298 101298 101298 101298 101298
101298 101298 101298 101298 101298 101298 101298 101298 101298 101298
101298 101298 101298 101298 101298 101298 101298 101298 101298 101298
101298 101298 101298 101298 101298 101298 101298 101298 101298 101298
101298 101298 101298 101298 101298 101298 101298 101298 101298 101298
101298 101298 101298 101298 101298 101298 101298 101298 101298 101298
101298 101298 101298 101298 101298 101298 101298 101298 101298 101298
101298 101298 101298 101298 101298 101298 101298 101298 101298 101298
101298 101298 101298 101298 101298 101298 101298 101298 101298 101298
101298 101298 101298 101298 101298 101298 101298 101298 101298 101298
101298 101298 101298 101298 101298 101298 101298 101298 101298 101298
101298 101298 101298 101298 101298 101298 101298 101298 101298 101298
101298 101298 101298 101298 101298 101298 101298 101298 101298 101298
101298 101298 101298 101298 101298 101298 101298 101298 101298 101298
101298 101298 101298 101298 101298 101298 101298 101298 101298 101298
101298 101298 101298 101298 101298 101298 101298 101298 101298 101298
101298 101298 101298 101298 101298 101298 101298 101298 101298 101298
101298 101298 101298 101298 101298 101298 101298 101298 101298 101298
101298 101298 101298 101298 101298 101298 101298 101298 101298 101298
101298 101298 101298 101298 101298 101298 101298 101298 101298 101298
101298 101298 101298 101298 101298 101298 101298 101298 101298 101298
101298 101298 101298 101298 101298 101298 101298 101298 101298 101298
101298 101298 101298 101298 101298 101298 101298 101298 101298 101298
101298 101298 101298 101298 101298 101298 101298 101298 101298 101298
101298 101298 101298 101298 101298 101298 101298 101298 101298 101298
101298 101298 101298 101298 101298 101298 101298 101298 101298 101298
101298 101298 101298 101298 101298 101298 101298 101298 101298 101298
101298 101298 101298 101298 101298 101298 101298 101298 101298 101298
101298 101298 101298 101298 101298 101298 101298 101298 101298 101298
101298 101298 101298 101298 101298 101298 101298 101298 101298 101298
101298 101298 101298 101298 101298 101298 101298 101298 101298 101298
101298 101298 101298 101298 101298 101298 101298 101298 101298 101298
101298 101298 101298 101298 101298 101298 101298 101298 101298 101298
101298 101298 101298 101298 101298 101298 101298 101298 101298 101298
101298 101298 101298 101298 101298 101298 101298 101298 101298 101298
101298 101298 101298 101298 101298 101298 101298 101298 101298 101298
101298 101298 101298 101298 101298 101298 101298 101298 101298 101298
101298 101298 101298 101298 101298 101298 101298 101298 101298 101298
101298 101298 101298 101298 101298 101298 101298 101298 101298 101298
101298 101298 101298 101298 101298 101298 101298 101298 101298 101298
101298 101298 101298 101298 101298 101298 101298 101298 101298 101298
101298 101298 101298 101298 101298 101298 101298 101298 101298 101298
101298 101298 101298 101298 101298 101298 101298 101298 101298 101298
101298 101298 101298 101298 101298 101298 101298 101298 101298 101298
101298 101298 101298 101298 101298 101298 101298 101298 101298 101298
101298 101298 101298 101298 101298 101298 101298 101298 101298 101298
101298 101298 101298 101298 101298 101298 101298 101298 101298 101298
101298 101298 101298 101298 101298 101298 101298 101298 101298 101298
101298 101298 101298 101298 101298 101298 101298 101298 101298 101298
101298 101298 101298 101298 101298 101298 101298 101298 101298 101298
101298 101298 101298 101298 101298 101298 101298 101298 101298 101298
101298 101298 101298 101298 101298 101298 101298 101298 101298 101298
101298 101298 101298 101298 101298 101298 101298 101298 101298 101298
101298 101298 101298 101298 101298 101298 101298 101298 101298 101298
101298 101298 101298 101298 101298 101298 101298 101298 101298 101298
101298 101298 101298 101298 101298 101298 101298 101298 101298 101298
101298 101298 101298 101298 101298 101298 101298 101298 101298 101298
101298 101298 101298 101298 101298 101298 101298 101298 101298 101298
101298 101298 
