/*--------------------------------*- C++ -*----------------------------------*\
  =========                 |
  \\      /  F ield         | OpenFOAM: The Open Source CFD Toolbox
   \\    /   O peration     | Website:  https://openfoam.org
    \\  /    A nd           | Version:  9
     \\/     M anipulation  |
\*---------------------------------------------------------------------------*/
FoamFile
{
    format      ascii;
    class       volScalarField;
    location    "0.0008";
    object      impulseMax;
}
// * * * * * * * * * * * * * * * * * * * * * * * * * * * * * * * * * * * * * //

dimensions      [1 -1 -1 0 0 0 0];

internalField   nonuniform List<scalar> 
7518
(
5.20772e-06
3.14782e-08
1.8989e-06
2.32046e-07
0.000624282
3.69574e-05
0.000217045
1.74226e-06
1.29e-05
7.39251e-05
0.00168886
8.27204e-05
2.229e-07
1.8838e-07
1.08504e-06
1.63985e-06
9.42433e-06
8.51984e-06
2.72519e-08
1.18204e-09
5.8245e-11
3.25339e-14
1.16274e-07
9.06252e-12
9.68629e-10
1.68875e-12
3.01898e-10
7.98114e-10
1.41385e-11
4.006e-09
6.028e-11
2.29207e-10
3.48269e-12
4.32627e-10
4.43522e-13
1.11633e-10
1.6215e-13
1.52861e-11
5.43684e-11
7.97133e-13
4.83817e-10
6.06815e-12
1.94252e-11
2.73264e-13
2.67145e-11
1.78781e-14
1.43648e-13
1.03942e-16
6.9475e-13
2.40252e-12
2.92078e-14
2.25461e-12
2.94157e-14
8.62721e-14
3.11827e-16
4.26163e-15
3.11827e-16
0
0
4.79773e-09
7.49163e-07
2.87497e-09
3.87424e-08
2.53073e-07
1.25343e-09
1.43436e-08
8.87514e-11
4.92603e-12
6.87967e-11
8.4398e-12
1.83416e-12
3.61741e-11
2.63243e-10
6.17197e-10
5.17193e-09
4.1469e-09
6.03344e-11
3.19156e-08
2.10631e-10
9.32961e-11
1.18765e-11
1.85495e-12
8.65839e-14
3.22813e-12
2.74823e-13
7.21733e-12
2.13248e-12
3.73617e-11
1.82555e-09
3.63803e-11
3.56415e-10
4.75385e-11
1.43438e-09
1.97408e-11
9.73627e-13
4.02257e-14
1.43284e-12
4.11507e-13
1.21987e-12
3.37812e-14
9.15939e-13
2.46366e-11
2.17678e-10
4.35857e-10
7.7991e-12
9.552e-10
1.56891e-11
1.08506e-11
6.24485e-13
1.71505e-13
8.31538e-15
3.5964e-13
2.04766e-14
5.89457e-13
2.63598e-13
5.50998e-13
1.22712e-10
1.82044e-12
7.2797e-12
2.92431e-12
2.33615e-11
5.67005e-13
1.13297e-14
1.76702e-15
6.67309e-14
1.60071e-14
6.71467e-14
1.03942e-16
2.81684e-14
5.96629e-14
6.29266e-13
2.0435e-13
1.6111e-14
2.64699e-12
5.92471e-14
4.15769e-15
6.23654e-16
3.11827e-16
0
3.11827e-16
0
1.35125e-15
0
0
1.00824e-14
3.11827e-16
7.27596e-16
0
1.03942e-16
1.03942e-16
0
0
0
0
0
1.03942e-16
0
0
4.24812e-13
0
0
0
0
0
0
0
0
0
6.13259e-15
3.11827e-16
2.75447e-14
1.87096e-14
0
1.19534e-14
8.41932e-15
5.5817e-14
2.91038e-15
0
0
0
0
0
9.31323e-14
0
0
0
0
0
0
0
0
0
0
0
0
0
0
0
8.21144e-15
6.23654e-16
0
0
1.9749e-15
3.63798e-15
1.14336e-15
1.73584e-14
2.73472e-13
4.26163e-14
2.70905e-12
1.55425e-12
7.07847e-14
2.83762e-14
3.11827e-16
3.01433e-15
0
0
0
0
0
1.08611e-11
2.12593e-11
6.40035e-12
8.96502e-12
2.05965e-11
4.62231e-13
6.69596e-13
3.2669e-13
1.13318e-12
2.84404e-07
3.71666e-12
3.11827e-16
1.90422e-13
0
0
0
3.4935e-13
6.14299e-14
2.27737e-13
7.89649e-13
4.54228e-14
1.56953e-14
4.05375e-15
1.02903e-14
7.44227e-14
2.39067e-15
0
0
0
2.39067e-15
9.11574e-14
1.1548e-13
3.33863e-13
3.87705e-14
1.14129e-13
4.6774e-15
1.03942e-16
6.6627e-14
1.76702e-15
2.04766e-14
4.98923e-15
2.09963e-14
1.03942e-16
0
3.11827e-16
4.05375e-15
1.30967e-14
0
3.11827e-16
4.05375e-15
0
4.26163e-15
0
1.14336e-15
0
1.76702e-15
0
0
0
0
0
0
0
0
0
0
0
0
0
0
0
0
0
6.86019e-15
0
1.03942e-16
0
0
0
0
0
0
1.03942e-16
0
0
0
0
0
0
0
0
0
0
0
0
0
0
0
0
0
0
0
0
0
0
0
8.31538e-16
0
4.61504e-14
2.28673e-15
9.04298e-15
1.03942e-16
0
0
1.35125e-15
0
1.03942e-16
0
0
0
0
0
0
0
0
0
2.91038e-15
8.31538e-16
0
2.91038e-15
0
0
0
0
1.03942e-16
0
1.03942e-16
0
0
0
0
0
0
0
0
0
0
0
0
0
0
0
0
0
0
0
0
0
0
0
0
0
0
0
0
0
0
0
0
0
0
0
0
0
0
0
0
0
6.86019e-15
0
0
0
0
0
0
0
0
0
0
0
0
0
0
0
0
0
0
0
0
0
0
0
0
0
0
0
0
0
0
0
0
0
1.03942e-16
0
0
0
0
0
0
0
0
0
86.1895
2.45827
0.0719142
66.9296
26.8342
31.3079
0.699956
12.8084
15.7568
98.5531
2.93958
0.0192331
0.842329
356.325
325.233
0.00294921
0.00837859
5.81753e-07
227.866
1.69405e-05
8.53373e-06
2.11613e-08
1.14718e-09
38.0541
17.6938
0.00498843
2.71906e-08
2.87569e-08
4.97601e-09
149.773
101.184
69.7251
190.376
81.9189
2.46038
25.2213
23.4438
0.0786746
2.26342
0.151638
3.7133
0.291479
1.20676e-06
0.000472955
6.85819e-07
7.05343e-07
1.74621e-05
1.75422e-05
7.92649e-08
3.25652e-07
4.38062e-08
3.38178e-07
1.47029e-08
8.01326e-07
2.0042e-08
3.05583e-07
2.442e-09
6.41139e-10
1.10461e-09
503.496
291.827
137.635
108.188
187.661
51.0058
89.4218
21.2039
4.43154
0.00516219
0.0696743
0.000100505
627.256
834.63
2148.24
1073.53
147.02
300.885
335.261
77.2762
761.259
210.165
0.135556
338.758
290.237
1.38193
477.51
87.4625
0.00972831
193.411
129.131
39.051
0.0675852
1042.38
1107.35
760.381
311.114
468.44
489.117
342.016
453.738
637.235
292.541
380.551
373.491
276.921
71.0923
191.543
23.1119
1352.45
1007.5
543.996
323.321
370.857
23.2218
2.18345
331.069
400.088
261.399
311.653
327.274
332.973
202.434
220.622
200.397
27.5158
298.052
182.979
149.473
11.576
3.68904
54.6602
0.805548
352.581
546.075
221.761
2.90176
121.291
0.639285
0.0282742
317.542
310.948
180.834
306.323
235.585
157.197
50.8868
124.067
129.002
5.82957
196.917
6.15186
19.8651
0.00925732
0.291777
0.00927406
0.000365966
175.703
130.743
10.9304
0.228356
1.47814
0.000291828
1.20064e-05
175.104
86.2734
12.5606
4.17417
0.185961
0.0635234
0.000496635
0.00985411
2.07215
0.000412715
0.00201438
0.000139383
5.16005e-05
6.91888e-08
0.701144
0.00310374
2.03195e-05
1.36634e-05
2.03239e-06
4.32309e-09
1904.46
1821.48
1628.13
802.632
926.787
681.607
94.137
639.649
653.683
541.961
94.4085
162.87
68.4992
0.0634289
0.00246016
382.028
380.986
293.148
28.4328
46.0628
10.5659
0.000367868
0.00179333
6.63509e-05
17.4445
3.86014
1.01412
0.00488853
0.00236794
0.000175399
639.67
980.494
1000.69
851.931
663.873
788.604
899.288
603.613
719.792
882.973
629.091
558.649
712.799
811.105
486.98
655.826
377.128
450.406
489.371
610.51
375.561
470.315
484.169
339.077
400.406
442.847
552.001
361.315
452.15
627.794
516.813
538.277
508.319
441.316
537.242
389.236
366.63
401.502
242.19
318.018
341.663
450.562
364.25
409.192
309.715
206.097
407.766
326.925
269.886
308.538
155.314
144.542
134.738
238.742
239.895
213.816
280.967
149.522
237.074
80.8139
75.8036
159.268
1633.02
1171.42
1406.97
1392.61
872.177
1233.74
850.17
714.6
1049.81
547.219
245.325
448.605
643.505
213.176
439.273
110.604
91.3243
253.953
27.7875
306.598
328.085
364.316
361.799
326.972
313.8
326.926
289.765
288.79
317.055
232.609
312.738
266.11
283.326
301.874
345.995
316.535
295.21
313.983
309.519
298.801
280.717
216.48
245.881
251.146
253.805
265.71
274.595
188.114
255.656
136.415
175.68
210.407
233.78
115.508
128.109
84.301
75.9285
18.5517
150.086
66.4754
60.0825
175.056
162.486
210.175
94.9784
219.973
105.993
163.748
117.925
15.5751
51.134
45.764
59.582
53.8223
106.947
1.77459
29.9215
1.78176
19.9664
0.0690525
1.31921
1.32522
12.6156
0.030828
16.7639
0.0517413
0.80344
500.316
284.728
416.016
596.27
444.94
490.691
253.52
334.11
373.72
25.8151
1.42622
16.5264
143.637
46.91
59.4105
1.0671
9.40536
13.5809
0.0477065
0.00110892
0.00188638
270.783
310.879
272.652
274.985
289.549
293.668
237.34
243.624
233.26
228.944
147.383
263.688
210.74
194.569
240.031
223.533
218.853
124.182
263.752
187.28
192.436
210.523
101.174
116.237
87.5709
172.834
146.004
158.38
115.666
195.115
76.9107
97.4101
145.859
168.516
50.3639
60.5287
36.8873
32.1889
1.38392
88.8084
18.2444
15.021
72.6956
57.1802
69.9436
3.35248
125.079
21.1428
28.9952
27.7145
0.147502
0.282123
0.202666
4.09603
3.03097
5.31523
0.0556908
6.53572
0.0106846
0.0556857
1.61253
0.00197039
0.00574862
0.0057451
0.0107029
1.31959e-05
0.171996
0.000201441
0.000367201
278.351
112.881
199.9
257.504
79.8954
182.835
49.6583
37.1443
109.62
4.14896
0.0432278
0.882768
13.9124
0.108355
1.6329
0.00451356
0.00616777
0.0956799
0.000183937
4.57688e-07
6.7414e-06
54.928
154.786
60.3911
28.302
125.713
79.0876
14.2637
30.4333
54.0047
34.0957
0.687401
90.9404
10.965
4.45491
9.46828
2.47926
1.05625
0.0171441
19.9528
0.684388
0.31518
2.77194
0.0190534
0.0107195
0.00347685
0.435618
0.136368
0.0694674
0.14161
22.0357
0.154869
0.069085
4.08745
1.79579
0.00514445
0.00836501
0.0119454
0.00877725
1.505e-05
0.260163
0.000406092
0.000303443
0.00382846
0.00194848
0.00118882
4.12837e-06
0.0477501
0.000150596
9.85782e-05
0.000238453
5.36633e-07
9.98123e-07
3.18928e-07
1.27641e-05
9.28494e-06
6.94203e-06
4.85583
0.0244929
0.187904
0.11878
0.000787114
0.0294866
0.000735993
0.000150569
0.00553094
0.000282512
5.35496e-07
1.04293e-05
7.24249e-05
1.63692e-07
5.49565e-06
2.26717e-08
1.48941e-08
3.40997e-07
291.484
307.8
311.134
301.488
300.261
312.136
321.014
389.637
430.849
340.337
336.049
431.192
460.3
362.342
293.901
125.67
290.941
251.058
56.0084
213.497
68.8686
325.88
319.519
323.027
309.703
315.639
332.844
321.778
1217.6
1137.9
644.492
634.959
1073.45
634.345
992.993
371.536
386.171
472.787
486.067
366.39
465.639
373.045
323.09
343.458
312.94
322.714
325.202
331.04
300.905
346.465
331.226
325.93
309.476
343.351
321.387
341.239
322.154
310.043
322.231
334.788
287.246
292.168
308.865
318.255
307.659
319.781
298.071
285.084
278.51
264.243
648.52
938.595
620.152
812.856
635.16
591.964
904.427
245.822
311.135
301.322
312.109
268.576
287.082
278.772
288.171
336.546
278.837
303.641
302.893
326.1
261.818
335.868
304.284
268.255
285.234
288.031
321.692
246.549
415.033
479.51
361.004
349.458
456.4
445.209
322.753
231.05
302.6
265.896
258.874
273.158
266.114
221.474
306.624
286.595
269.315
241.984
219.301
265.971
244.454
509.407
734.381
721.702
605.154
564.274
554.222
631.025
4.69639e-05
17.6625
0.00190356
5.7993e-05
0.088047
0.000144409
0.0193301
3.53423e-05
5.08728e-06
1.35169e-06
0.0421422
1.13022e-05
4.19164e-07
23.5836
0.0509925
0.0563153
0.076691
1.62517
2.21381
2.13096
0.00138892
0.00223536
0.0609183
0.0615151
0.00382735
0.00486436
7.85323e-05
0.132639
0.00195336
0.00238907
0.046176
6.11212e-05
0.000875427
0.00107654
0.0014977
0.00182989
0.0274159
0.000164667
3.00693e-06
8.83687e-05
2.37007e-06
3.98919e-05
6.88623e-05
0.00174764
0.000289045
0.000357719
2.05142e-06
0.00946499
5.2692e-05
6.46068e-05
1.27452e-05
7.74661e-08
2.25932e-06
7.60404
14.3978
4.05401e-06
532.581
188.653
311.629
114.581
169.86
14.2219
139.867
0.0404009
49.8266
20.1895
7.47382e-05
0.00591502
0.000147007
3.52976
194.186
0.0179259
4.55871
1.05778
14.199
0.911773
253.653
281.067
239.497
196.755
246.493
231.341
179.799
235.277
188.592
170.646
156.687
224.989
208.483
138.213
147.471
212.974
176.603
262.418
243.507
211.415
233.551
181.878
255.299
247.953
273.836
207.34
235.57
227.538
261.645
277.318
264.927
182.43
302.327
231.704
218.801
194.26
117.793
173.717
211.433
256.115
189.048
234.676
259.955
139.363
214.816
112.086
238.709
188.936
168.394
314.986
281.859
220.29
372.875
328.986
421.493
281.649
154.944
196.813
196.753
273.533
220.532
249.86
131.864
182.055
263.15
219.634
193.152
240.186
210.104
156.158
430.44
370.862
423.096
528.393
445.297
609.599
493.103
341.067
198.171
250.607
362.295
400.606
270.72
308.47
161.349
149.538
97.0945
175.885
220.854
211.102
164.437
540.199
456.77
393.432
456.417
636.11
515.248
540.784
82.4196
155.545
185.318
114.707
146.012
185.462
113.065
171.457
182.933
224.806
110.445
234.483
121.468
171.416
467.939
392.284
434.194
362.6
306.454
420.899
352.729
349.26
222.602
261.458
226.962
273.332
139.34
186.05
213.195
151.355
193.978
91.1852
137.457
77.4423
121.523
169.231
127.538
98.7277
181.099
69.696
111.296
59.0389
7.87466e-13
1.28119e-12
3.41866e-13
1.45519e-15
0
2.5364e-12
5.70539e-12
1.50373e-12
3.20994e-12
1.77679e-12
2.39379e-13
6.04944e-14
1.14025e-13
1.07476e-13
1.47197e-07
6.76778e-10
5.84908e-11
1.28674e-11
7.5275e-13
1.92397e-13
4.78134e-15
0
0
6.60883e-09
1.62007e-07
4.98018e-09
5.96664e-10
8.11092e-11
9.66653e-12
1.34605e-12
1.31591e-13
1.21612e-14
0
1.97514e-07
7.96687e-11
2.07251e-11
4.1788e-11
2.93627e-11
4.72318e-11
2.2829e-09
1.14443e-09
1.10811e-09
8.80681e-10
6.63567e-13
3.14966e-12
2.70977e-13
1.01915e-12
2.94468e-13
1.53877e-11
7.10123e-12
2.55171e-11
4.75702e-12
2.3541e-10
1.09757e-09
1.40071e-10
2.65551e-10
7.42978e-10
2.51064e-09
3.03927e-08
9.05411e-09
4.86586e-09
6.43145e-11
3.03208e-10
8.20853e-12
3.08582e-11
3.9418e-11
8.88254e-11
4.79234e-11
1.40914e-09
1.19702e-09
2.56584e-09
8.84573e-10
3.13417e-12
1.08512e-11
5.50031e-12
7.76112e-11
2.64625e-10
1.53297e-10
2.00095e-10
0.0746263
1.92073e-05
7.76255e-05
1.38482e-07
8.03372e-07
6.34484e-08
1.50419e-08
3.23897e-09
1.79909e-09
1.57262e-10
0.00130417
0.000604129
8.78116e-05
1.79519e-05
3.06232e-05
2.52348e-06
5.03174e-07
5.10786e-05
2.07695e-06
1.3539e-07
1.08504e-06
8.82742e-08
4.94789e-08
5.66829e-09
2.39023e-09
8.99633e-08
6.02862e-09
9.97251e-08
4.02004e-09
6.81676e-08
4.99616e-09
4.26485e-10
1.28356e-08
1.56067e-10
3.44161e-09
6.1089e-10
1.17515e-08
1.17635e-10
4.88663e-08
2.00037e-05
1.34352e-06
2.252e-06
3.61617e-07
8.46048e-07
1.11229e-07
2.88507e-08
4.06475e-06
2.82885e-08
3.36506e-07
8.48537e-08
4.6328e-07
1.95924e-08
0
0
0
0
0
0
0
0
0
0
0
0
0
0
0
0
0
0
0
0
0
0
0
0
0
0
0
0
0
0
0
0
0
0
0
0
0
0
0
0
0
1.39283e-14
0
0
0
0
0
0
0
0
0
0
0
0
0
8.31538e-16
0
0
0
0
0
1.64229e-14
0
0
0
0
0
0
0
0
0
0
0
0
0
0
0
0
0
0
0
0
0
0
0
0
0
0
0
0
0
0
0
0
0
0
0
0
0
0
0
0
0
0
0
0
0
2.26594e-14
6.38205e-14
0
0
0
4.57346e-15
0
0
0
7.06298e-12
7.94119e-14
0
6.23654e-16
0
0
0
0
0
0
0
0
0
0
0
0
0
0
0
0
0
0
0
0
0
0
0
0
0
0
0
0
0
0
0
0
0
0
0
0
0
0
0
0
0
0
0
0
0
0
0
0
0
0
0
0
0
0
0
0
0
0
0
0
0
0
0
0
0
0
0
0
0
0
0
0
0
0
0
0
0
0
0
0
0
0
0
0
0
0
0
0
0
0
0
0
0
0
0
0
0
0
0
0
0
0
0
0
0
0
0
0
0
0
0
0
0
0
0
0
0
1.10179e-14
3.4197e-14
8.31538e-15
1.14336e-15
0
1.03942e-16
0
0
0
0
0
0
0
0
0
0
0
0
0
0
0
0
4.15769e-16
1.64956e-13
8.67918e-14
5.2283e-14
9.30283e-14
1.14336e-15
1.03942e-16
0
1.14336e-15
0
4.26163e-15
4.78134e-15
1.14336e-15
0
0
0
0
0
0
0
0
0
0
0
0
0
0
0
1.88135e-13
2.93949e-13
3.46232e-13
1.86992e-13
9.85445e-12
8.50591e-12
7.1874e-12
0
0
0
0
0
0
0
0
0
0
0
0
0
0
0
0
0
0
0
0
0
0
0
0
0
0
0
0
0
0
0
0
0
0
0
0
0
0
0
0
0
0
0
0
0
0
0
0
0
0
0
0
0
0
0
0
0
0
0
0
0
0
0
0
0
0
0
0
0
0
0
0
0
0
0
0
0
0
0
0
0
0
0
0
0
0
0
0
0
0
0
0
0
0
0
0
0
0
0
0
0
0
0
0
0
0
0
0
0
0
0
0
0
0
0
0
0
0
0
0
0
0
0
0
0
0
0
0
0
0
0
0
0
0
0
0
0
0
0
0
0
0
0
0
0
0
0
0
0
0
0
0
0
0
0
0
0
0
0
0
0
0
0
0
0
0
0
0
0
0
0
0
0
0
0
0
0
0
0
0
0
0
0
0
0
0
0
0
0
0
0
0
0
0
0
0
0
0
0
0
0
0
0
0
0
0
0
0
0
0
0
0
0
0
0
0
0
0
0
0
0
0
0
0
0
0
0
0
0
0
0
0
0
0
0
0
0
0
0
0
0
0
0
0
0
0
0
0
0
0
0
0
0
0
0
0
0
0
0
0
0
0
0
0
0
0
0
0
0
0
0
0
0
0
0
0
0
0
0
0
0
0
0
0
0
0
0
0
0
0
0
0
0
0
0
0
0
0
0
0
0
0
0
0
0
0
0
0
0
0
0
0
0
0
0
0
0
0
0
0
0
0
0
0
0
0
0
0
0
0
0
0
0
0
0
0
0
0
0
0
0
0
0
0
0
0
0
0
0
0
0
0
0
0
0
0
0
0
0
0
0
0
0
0
0
0
0
0
0
0
0
0
0
0
0
0
0
0
0
0
0
0
0
0
0
0
0
0
0
0
0
0
0
0
0
0
0
0
0
0
0
0
0
0
0
0
0
0
0
0
0
0
0
0
0
0
0
0
0
0
0
0
0
0
0
0
0
0
0
0
0
0
0
0
0
0
0
0
0
0
0
0
0
0
0
0
0
0
0
0
0
0
0
0
0
0
0
0
0
0
0
0
0
0
0
0
0
0
0
0
0
0
0
0
0
0
0
0
0
0
0
0
0
0
0
0
0
0
0
0
0
0
0
0
0
0
0
0
0
0
0
0
0
0
0
0
0
0
0
0
0
0
0
0
0
0
0
0
0
0
0
0
0
0
0
0
0
0
0
0
0
0
0
0
0
0
0
0
0
0
0
0
0
0
0
0
0
0
0
0
0
0
0
0
0
0
0
0
0
0
0
0
0
0
0
0
0
0
0
0
0
0
0
0
0
0
0
0
0
0
0
0
0
0
0
0
0
0
0
0
0
0
0
0
0
0
0
0
0
0
0
0
0
0
0
0
0
0
0
0
0
0
0
0
0
0
0
0
0
0
0
0
0
0
0
0
0
0
0
0
0
0
0
0
0
0
0
0
0
0
0
0
0
0
0
0
0
0
0
0
0
0
0
0
0
0
0
0
0
0
0
0
0
0
0
0
0
0
0
0
0
0
0
0
0
0
0
0
0
0
0
0
0
0
0
0
0
0
0
0
0
0
0
0
0
3.43009e-13
0
0
0
0
0
1.03942e-16
0
0
0
0
0
0
0
0
0
0
0
0
0
0
0
0
0
0
0
0
0
0
0
0
0
0
0
0
0
0
0
0
0
0
0
0
0
0
0
0
0
0
0
0
0
0
0
0
0
0
0
0
0
0
0
0
0
0
0
0
0
6.23654e-16
0
0
8.21144e-15
0
0
0
0
0
0
0
0
0
0
0
0
0
0
0
0
0
0
0
0
0
0
0
0
0
0
0
0
0
0
0
0
0
0
0
0
0
0
0
0
0
0
0
0
0
0
0
0
0
0
0
0
0
0
0
0
0
0
0
0
0
0
0
0
0
0
0
0
0
0
0
0
0
0
0
0
0
0
0
0
0
0
0
0
0
0
0
0
0
0
0
0
0
0
0
0
0
0
0
0
0
0
0
0
0
0
0
0
0
0
0
0
0
0
0
0
0
0
0
0
0
0
0
0
0
0
0
0
0
0
0
0
0
0
0
0
0
0
0
0
0
0
0
0
0
0
0
0
0
0
0
0
0
0
0
0
0
0
0
0
0
0
0
0
0
0
0
0
0
0
0
0
0
0
0
0
0
0
0
0
0
0
0
0
0
0
0
0
0
0
0
0
0
0
0
0
0
0
0
0
0
0
0
0
0
0
0
0
0
0
0
0
0
0
0
0
0
0
0
0
0
0
0
0
0
0
0
0
0
0
0
0
0
0
0
0
0
0
0
0
0
0
0
0
0
0
0
0
0
0
0
0
0
0
0
0
0
0
0
0
0
0
0
0
0
0
0
0
0
0
0
0
0
0
0
0
0
0
0
0
0
0
0
0
0
0
0
0
0
0
0
0
0
0
0
0
0
0
0
0
0
0
0
0
0
0
0
0
0
0
0
0
0
0
0
0
0
0
0
0
0
0
0
0
0
0
0
0
0
0
0
0
0
0
0
0
0
0
0
0
0
0
0
0
0
0
0
0
0
0
0
0
0
0
0
0
0
0
0
0
0
0
0
0
0
0
0
0
0
0
0
0
0
0
0
0
0
0
0
0
0
0
0
0
0
0
0
0
0
0
0
0
0
0
0
0
0
0
0
0
0
0
0
0
0
0
0
0
0
0
0
0
0
0
0
0
0
0
0
0
0
0
0
0
0
0
0
0
0
0
0
0
0
0
0
0
0
0
0
0
0
0
0
0
0
0
0
0
0
0
0
0
0
0
0
0
0
0
0
0
0
0
0
0
0
0
0
6.23654e-16
4.05375e-15
1.03942e-16
6.52757e-14
4.26163e-15
0
0
0
0
0
0
0
0
0
0
0
0
0
0
0
0
0
0
0
0
0
0
0
0
0
0
0
0
0
0
0
0
0
0
0
0
0
0
0
0
0
0
0
0
0
0
0
0
0
0
0
0
0
0
0
0
0
0
0
0
0
0
0
0
0
0
0
0
0
0
0
0
0
0
0
0
0
0
0
0
4.15769e-16
0
1.03942e-16
0
0
0
2.7025e-15
0
3.53404e-15
0
0
0
0
0
0
0
0
0
0
0
0
0
0
0
0
0
0
0
0
0
0
0
0
0
0
0
0
0
0
0
0
0
0
0
0
0
0
0
0
0
0
0
0
0
0
0
0
0
0
0
0
0
0
0
0
0
0
0
0
0
0
0
0
0
0
0
0
0
0
0
0
0
0
0
0
1.081e-14
0
0
0
0
0
0
0
0
0
0
0
0
0
0
0
0
0
0
0
0
0
0
0
0
0
0
0
0
0
0
0
0
0
0
0
0
0
0
0
0
0
0
0
5.405e-15
1.02903e-14
4.26163e-15
1.2681e-14
0
0
0
0
0
0
0
0
0
0
0
0
0
0
0
0
0
0
0
0
0
0
0
0
0
0
0
0
0
0
0
0
0
0
0
0
0
0
0
0
0
0
0
0
0
0
0
0
0
0
0
0
0
0
0
0
0
0
0
0
0
0
0
0
0
0
0
0
0
0
0
0
0
0
0
0
0
0
0
0
0
0
0
0
0
0
0
0
0
0
0
0
0
0
0
0
0
0
0
0
0
0
0
0
0
0
0
0
0
0
0
0
0
0
0
0
0
0
0
0
0
0
0
0
0
0
0
0
0
0
0
0
0
0
0
0
0
0
0
0
0
0
0
0
0
0
0
0
0
0
0
0
0
0
0
0
0
0
0
0
0
0
0
0
0
0
0
0
0
0
0
0
0
0
0
0
0
0
0
0
0
0
8.93903e-15
8.31538e-15
2.18279e-15
2.18279e-15
2.06014e-13
3.42905e-13
2.10067e-13
0
0
0
5.405e-15
2.18279e-15
5.405e-15
2.18279e-15
0
0
0
0
0
0
0
0
0
0
0
0
0
0
0
0
0
0
0
0
0
0
0
0
0
0
0
0
0
0
0
0
0
0
0
0
0
0
0
0
0
0
0
0
0
0
0
0
0
0
0
0
0
0
0
0
0
0
0
0
0
0
0
0
0
0
0
0
0
0
0
0
0
0
0
0
0
0
0
0
0
0
0
0
0
0
0
0
0
0
0
0
0
0
0
0
0
0
0
0
0
0
0
0
0
0
0
0
0
0
0
0
0
0
0
0
0
0
0
0
0
0
0
0
0
0
0
0
0
0
0
0
0
0
0
8.19241e-10
1.20215e-10
6.39869e-13
6.86019e-15
1.25822e-12
3.0663e-14
0
0
0
1.21153e-09
1.10255e-10
5.55883e-13
3.53404e-15
3.69203e-13
2.57777e-14
0
0
0
1.29475e-08
2.04805e-10
2.44416e-11
1.29408e-13
0
5.08278e-14
4.05375e-15
0
0
0
1.15986e-09
1.76949e-11
1.03996e-10
1.90422e-12
4.15769e-15
0
3.72841e-13
1.03942e-16
0
0
0
0
3.13261e-12
4.24084e-14
0
0
1.40684e-11
3.0268e-13
1.45519e-15
0
0
9.77057e-14
5.19711e-14
0
0
0
1.02383e-13
0
0
0
0
0
0
0
0
0
0
0
0
0
0
0
0
0
0
3.48207e-14
7.89961e-15
6.57954e-14
1.45519e-15
0
4.3188e-13
4.58385e-14
0
0
1.03942e-16
0
0
0
0
0
1.37204e-14
4.78134e-15
0
0
0
0
0
0
1.50041e-12
3.11827e-16
5.25033e-12
3.06006e-13
1.16415e-14
0
6.75625e-15
0
0
1.35125e-14
2.7025e-15
0
0
0
0
0
0
0
1.32676e-11
2.13082e-14
1.7809e-11
1.69135e-12
7.17202e-14
8.93903e-15
4.83331e-14
3.11827e-16
0
1.12777e-13
2.71289e-14
0
0
0
0
0
0
0
0
0
0
4.78134e-15
0
0
0
0
0
8.12517e-13
1.4396e-13
3.53404e-15
0
0
0
3.83547e-14
6.23654e-16
0
1.97075e-13
3.10787e-14
0
0
0
0
0
0
0
0
0
0
0
0
0
0
8.38532e-12
6.21679e-13
2.13082e-13
1.4046e-11
3.04333e-12
4.64726e-13
8.31538e-14
1.24939e-13
1.13297e-14
3.11827e-16
1.77533e-13
3.43009e-14
1.76702e-15
0
0
0
0
1.03942e-16
0
0
0
4.59425e-14
1.00408e-13
1.04826e-12
1.72544e-14
6.37478e-13
6.34048e-15
2.32103e-13
2.05078e-13
2.28673e-14
6.02865e-14
0
1.45519e-15
7.22399e-14
0
1.60071e-14
1.74623e-14
1.03942e-16
2.3387e-14
0
3.21182e-14
0
5.71682e-15
0
0
0
0
0
0
0
0
0
0
0
0
4.49758e-13
1.00824e-14
2.742e-13
4.05375e-15
2.00401e-13
1.23379e-13
0
0
0
0
0
0
0
0
0
0
0
0
1.23795e-13
4.42794e-14
2.80644e-15
0
1.29304e-13
2.89999e-14
2.59856e-15
3.52676e-13
1.99569e-14
3.82611e-13
3.11827e-15
4.95285e-13
1.02903e-14
1.14856e-13
4.07454e-14
0
4.78134e-15
0
1.2681e-14
4.15769e-16
2.74408e-14
0
8.31538e-16
0
0
0
1.03942e-15
0
0
0
0
0
1.03942e-16
0
0
0
0
0
0
0
0
0
0
0
0
0
0
0
0
0
0
0
0
0
9.11677e-13
5.65966e-13
4.5007e-14
8.31538e-15
1.05294e-12
2.42497e-13
2.96235e-14
1.09441e-12
1.11967e-12
1.83978e-14
4.09532e-14
3.375e-13
2.33454e-13
1.14336e-15
6.58994e-14
1.33046e-14
7.81646e-14
1.00824e-14
1.9011e-13
7.06807e-15
2.50501e-14
0
0
5.71682e-15
1.6111e-14
0
1.76702e-15
1.03942e-16
0
0
3.01433e-15
0
0
8.93903e-15
0
4.26163e-15
0
1.13297e-14
0
1.45519e-15
1.45519e-15
0
0
0
0
0
8.31538e-16
0
0
0
0
0
0
0
0
0
0
0
0
0
0
3.11827e-16
0
0
1.03942e-16
1.03942e-16
0
0
0
0
0
0
0
0
0
0
0
0
0
0
0
4.98923e-14
9.08351e-13
3.53404e-14
8.32473e-13
4.47991e-14
9.25814e-13
4.09532e-14
2.7025e-15
0
0
0
0
0
0
0
0
0
0
0
0
0
0
4.40519e-11
8.04399e-12
1.54084e-12
7.80883e-11
4.27072e-11
3.96477e-12
1.44417e-12
2.71289e-14
0
0
2.71289e-14
2.01648e-14
0
0
2.5258e-14
0
0
2.43225e-14
1.49677e-14
0
0
5.5424e-10
2.04142e-11
8.23982e-10
1.75293e-10
4.57583e-11
6.46261e-12
9.43389e-12
1.11374e-12
3.26379e-13
1.34525e-11
8.65328e-12
5.26052e-13
2.64741e-13
2.7025e-15
0
0
3.01433e-15
8.31538e-16
0
0
4.78679e-11
5.08194e-12
1.36726e-12
9.36066e-11
3.92057e-11
3.25682e-12
1.08588e-12
7.45578e-13
6.82901e-14
2.20358e-14
1.51995e-12
6.34256e-13
5.02041e-14
1.29928e-14
0
0
0
0
0
0
0
4.36557e-14
0
4.15769e-16
2.66092e-14
3.66916e-14
0
6.34048e-15
0
2.07885e-14
0
1.81899e-14
0
1.06021e-14
2.59856e-15
4.45769e-11
4.3055e-12
1.28088e-12
7.21802e-11
4.24148e-11
2.71923e-12
1.19419e-12
0
0
0
0
0
0
0
6.43382e-12
1.36102e-12
3.59027e-12
2.30066e-12
4.26257e-12
2.25424e-10
1.79313e-10
1.14183e-10
9.60464e-11
1.12023e-10
1.66318e-12
1.7982e-14
0
0
30.464
1.1184e-05
0.1154
1.44152e-07
1.73293e-09
1.12881e-13
8.67387e-06
6.10763e-08
0.000309394
1.28393e-08
1.49047e-07
1.57231e-10
2.09963e-14
2.58643e-07
2.17221e-05
2.51132e-09
2.29842e-08
2.64383e-11
3.53404e-15
3.24922e-08
2.34799e-08
2.86579e-10
2.0478e-10
2.91277e-12
4.11435e-12
4.09532e-14
6.46521e-14
0
0
0
0
0
0
0
0
0
0
0
0
0
0
0
0
0
0
0
0
0
0
0
0
0
0
0
0
8.50191e-08
6.11491e-11
5.23766e-07
2.08604e-08
9.17488e-12
5.15365e-11
3.25578e-12
4.96502e-10
1.01828e-11
9.03674e-13
1.81857e-12
3.26171e-13
3.18063e-14
7.33865e-09
7.47948e-12
9.21736e-08
4.12347e-09
3.26628e-12
6.24319e-12
5.18776e-13
9.84726e-11
3.26368e-12
2.73784e-13
2.86881e-13
1.32111e-13
9.14692e-15
1.222e-09
1.66651e-12
4.3386e-09
2.01476e-10
9.65624e-14
1.05917e-13
6.19496e-14
2.28673e-15
1.8086e-14
1.28161e-13
2.8792e-14
8.72481e-12
1.14885e-11
1.9749e-15
2.08924e-14
2.80644e-15
1.68397e-12
1.4028e-12
0
1.14336e-15
0
7.3799e-15
1.76702e-15
6.02979e-12
1.00715e-08
1.95505e-09
3.03622e-10
4.98161e-11
1.47874e-09
3.68786e-10
8.93082e-09
3.06073e-08
7.53107e-10
1.05798e-09
2.58115e-08
1.45795e-09
1.12866e-11
2.63761e-10
5.08993e-11
2.97201e-10
6.90485e-11
1.17475e-09
3.68021e-11
8.16694e-11
6.73234e-13
3.87102e-12
1.09873e-10
1.06031e-12
2.16249e-11
1.93489e-12
7.88922e-14
6.40284e-14
2.61436e-12
1.70701e-11
1.21612e-12
2.52358e-11
2.08612e-13
3.15826e-11
5.18984e-13
6.70729e-12
6.25524e-13
1.27849e-14
2.42185e-14
3.67228e-13
9.13424e-12
1.56745e-12
1.16803e-11
2.27046e-11
3.59512e-11
4.15353e-13
1.97833e-12
2.82027e-12
1.14336e-15
1.45519e-15
4.23045e-14
4.88529e-15
1.30967e-14
0
1.03942e-16
6.70274e-09
2.09011e-10
4.54954e-09
2.83964e-10
6.19508e-10
2.00546e-10
2.78573e-11
5.47682e-12
5.87535e-10
1.29201e-10
3.17817e-11
5.45635e-09
1.44939e-10
2.17181e-10
3.17429e-09
3.20074e-10
3.14082e-12
7.60822e-11
1.86734e-11
7.01148e-11
1.85043e-11
3.187e-10
2.95123e-12
9.998e-12
1.06541e-13
5.05263e-13
2.57018e-12
9.45874e-12
1.35437e-13
2.33558e-13
1.56953e-14
4.41027e-13
1.10179e-14
3.32179e-12
3.71178e-13
5.62795e-12
6.4756e-14
8.05085e-12
1.41465e-13
1.64873e-12
1.71193e-13
5.92471e-15
8.31538e-15
1.73272e-13
1.21165e-12
2.2306e-13
1.36715e-12
6.07293e-12
8.68146e-12
1.36372e-13
8.47441e-13
8.87875e-13
0
0
1.33046e-14
6.23654e-16
2.80644e-15
0
0
1.34276e-09
4.70262e-11
1.23885e-09
4.45451e-11
1.15859e-10
4.19319e-11
5.4815e-12
8.92864e-13
1.17165e-10
2.29203e-11
4.73914e-12
2.60261e-10
2.34411e-12
9.44305e-12
7.10302e-11
1.83082e-11
1.85329e-13
2.80977e-12
3.23468e-13
4.91117e-12
9.05753e-13
8.5399e-12
4.20758e-13
1.893e-12
1.56953e-14
5.87274e-14
4.32816e-13
1.28753e-12
1.49677e-14
2.26178e-13
2.94157e-14
1.68283e-13
7.72291e-14
3.26794e-13
4.57346e-15
9.14692e-15
3.38852e-14
3.46855e-12
2.05286e-13
4.833e-12
1.13817e-13
7.05208e-06
2.42236e-05
9.50001e-07
0.00319051
1.13308e-06
2.72336e-06
1.46332e-07
3.57165e-09
1.88809e-08
3.34731e-10
3.00887e-08
1.28932e-09
3.10488e-09
9.1051e-11
4.59272e-07
2.02188e-06
4.83495e-08
0.000166169
2.60503e-07
1.18581e-06
2.73375e-08
2.78733e-09
1.12599e-09
9.24959e-11
8.57424e-09
1.44133e-09
7.14603e-10
4.74283e-11
1.07189e-07
4.09767e-07
9.81039e-09
4.10269e-07
1.24955e-08
4.80885e-08
1.09174e-09
2.26611e-10
1.85598e-09
2.31968e-09
9.83638e-11
2.20753e-09
1.39714e-09
1.38351e-10
4.5566e-11
3.11167e-09
4.69586e-11
2.2358e-12
7.35287e-13
2.80644e-14
4.46952e-15
0
0
0
1.42537e-10
3.10164e-13
5.46217e-13
5.73761e-14
5.50894e-15
3.15465e-13
1.08412e-13
1.16415e-13
4.16289e-13
1.88135e-13
6.44442e-15
1.38243e-14
4.26163e-15
2.32831e-14
1.74623e-14
5.32184e-14
2.91038e-14
4.456e-13
1.44792e-12
9.4338e-13
1.24835e-12
1.14336e-15
4.57346e-15
1.45519e-15
7.77488e-14
7.33832e-14
1.47806e-13
6.4756e-14
7.22399e-14
1.49032e-12
1.14336e-15
3.69151e-12
4.51941e-13
2.58712e-13
4.08223e-12
2.59024e-13
1.52068e-13
2.92961e-12
1.41258e-13
2.9715e-12
1.4269e-06
3.86005e-10
2.51915e-11
5.14493e-12
4.64622e-14
1.01077e-08
1.23289e-09
4.91999e-11
4.84665e-10
2.20665e-10
1.12385e-11
9.50664e-11
5.64843e-12
2.31999e-13
1.47975e-08
1.9125e-11
4.44703e-10
5.15242e-13
1.07819e-12
6.54005e-13
4.52149e-14
8.77684e-11
3.09383e-10
1.30042e-10
2.56721e-11
3.66282e-12
1.60071e-14
2.823e-10
7.14967e-12
2.56724e-10
1.07242e-07
2.43112e-07
3.04697e-09
7.35837e-09
1.54382e-07
4.06467e-09
8.6618e-08
2.2936e-09
2.87696e-08
4.68094e-08
1.01597e-10
9.5544e-09
4.91602e-10
9.95119e-09
4.71545e-10
4.49552e-09
1.13679e-08
2.11487e-11
1.51621e-09
7.67264e-11
1.45639e-09
1.66218e-11
1.28966e-10
3.48837e-10
7.66574e-13
9.23389e-10
5.68492e-10
4.44332e-11
7.7676e-12
1.08815e-09
2.36908e-10
3.19521e-11
4.8906e-11
5.64718e-13
6.07147e-12
1.05616e-12
1.11984e-11
3.07305e-12
1.58102e-11
2.12318e-11
4.62959e-13
1.06264e-11
1.86659e-12
2.5944e-13
1.13806e-12
2.29712e-14
7.93079e-14
1.44272e-13
361.702
209.138
18.6948
0.00151082
96.6489
0.293571
0.0023797
1.56441e-07
43.9218
0.00109853
6.83043e-06
1.42987e-07
6.40288e-09
0.00441781
0.0521361
3.88066e-07
0.826053
0.000102545
4.46712e-05
1.23582e-08
1.30599e-08
1.41427e-06
5.24974e-10
4.13857e-06
4.16959e-06
7.68047e-09
3.34177e-06
3.57517e-09
3.17273e-10
1.38836e-10
9.97536e-07
1.4095e-09
1.52616e-07
8.47583e-11
6.36756e-11
3.01661e-12
3.0986e-05
0.000413359
8.55098e-06
9.99284e-09
9.85204e-09
0.00818589
1.56426
0.00101496
0.0141394
0.434896
0.000280756
0.0296166
0.000154269
1.04451e-05
1.95427e-05
1.26519e-07
3.16755e-06
5.4485e-06
0.000551996
0.000620725
0.00104353
0.00127094
1.0514e-06
0.032322
2.11297e-05
2.83207e-05
1.20712e-05
2.35641e-08
2.34439e-07
4.1201e-08
4.71038e-07
4.33586e-07
8.55448e-07
6.15189e-07
4.68299e-09
1.72072e-07
3.04669e-05
3.63732e-08
6.47136e-07
1.02688e-09
1.88986e-09
1.43417e-08
2.80493e-06
0.000105916
1.94925e-07
3.73752e-06
1.69836e-07
4.1979e-07
1.98487e-07
2.55008e-08
6.86921e-09
4.2867e-07
1.8554e-07
2.63262e-08
3.06204e-07
6.55757e-09
1.12565e-07
1.32535e-08
1.99272e-07
1.81122e-08
2.63259e-07
1.39564e-09
2.87541e-10
1.52723e-09
2.36239e-10
6.69319e-10
1.04143e-09
9.75914e-08
3.10756e-08
5.11029e-09
1.01192e-09
9.59016e-08
2.28897e-08
5.2802e-09
2.07301e-08
1.72674e-10
2.46133e-09
4.01625e-10
3.63266e-09
1.23353e-09
1.08283e-08
2.57293e-10
4.47786e-11
2.64905e-10
8.01093e-12
1.55672e-11
6.19598e-11
3.61629e-05
1.46142e-08
2.57552e-07
8.40162e-11
6.39568e-10
0.00057967
1.14558e-06
4.7005e-08
3.58755e-07
6.26858e-06
1.14315e-08
5.78288e-10
1.54299e-09
1.45368e-08
3.28911e-11
1.41361e-12
1.04678e-07
1.66085e-09
4.22309e-09
1.46737e-09
1.44462e-11
3.18137e-11
6.80105e-12
3.26869e-11
2.6192e-10
1.09346e-11
2.54959e-06
6.04696e-05
2.09879e-06
1.998e-06
2.70497e-05
7.86562e-08
1.2523e-07
1.32076e-06
8.22891e-08
4.34719e-09
7.18005e-09
3.73363e-07
8.61874e-06
3.13648e-08
8.57835e-08
5.22727e-07
1.79163e-06
2.59493e-08
2.18108e-07
2.02474e-08
2.02227e-07
5.08983e-09
3.51771e-07
1.10718e-08
1.41167e-07
1.12461e-09
1.7507e-10
5.08693e-10
5.25982e-09
2.30668e-08
3.4147e-10
7.85698e-10
8.03187e-09
1.89578e-08
1.84505e-10
9.09786e-10
7.07338e-11
8.85849e-10
9.00265e-12
1.45175e-09
3.25093e-11
2.45647e-10
3.39132e-12
3.99866e-13
1.19211e-12
5.49154
93.1244
0.0654529
133.372
0.169971
39.7362
0.00156698
27.8127
0.0123799
0.702624
1.98343e-05
17.9033
0.00637934
8.66921e-05
0.732321
8.47259
0.00110706
1.78945e-05
1.30473
2.56247e-05
1.73099e-06
3.53889e-06
0.000181944
1.13142e-06
1.02299e-07
1.07045e-06
4.15909e-08
3.81259e-09
0.000175471
5.84218e-08
3.34773e-09
1.05058e-05
1.50303e-08
7.4914e-10
0.000179737
2.54279e-07
9.02544e-07
4.94646e-07
5.89095e-06
6.6025e-06
1.22995e-05
1.11444e-08
2.0265e-08
2.3217e-07
3.17065e-07
2.71395e-07
4.41936e-08
9.75142e-09
8.47277e-07
2.37402e-07
1.95932e-08
2.33332e-09
3.71078e-10
1.10056e-09
3.24718e-07
2.40962e-10
1.06102e-11
3.89259e-11
3.31461e-12
1.50277e-08
4.7298e-10
1.29884e-09
7.32912e-11
4.51919e-08
8.11191e-10
6.02626e-09
1.65249e-09
1.75389e-08
3.10351e-09
2.97531e-08
3.52444e-11
7.32114e-11
1.79387e-10
1.4e-12
6.02344e-11
1.73729e-12
2.70568e-11
3.34788e-12
2.23946e-11
1.27007e-12
4.43951e-07
2.39948e-07
8.68839e-10
1.31927e-11
9.8903e-09
6.06448e-09
3.25745e-10
1.18475e-11
7.71661e-10
3.57532e-11
8.55008e-10
2.74362e-11
3.17099e-10
3.28208e-11
441.089
223.836
289.011
42.8127
116.778
7.52468
5.24559
159.057
91.994
130.528
1.7857
0.0692519
11.3342
0.0331733
80.1439
16.4132
1.39099
0.00628745
0.00036963
0.000143936
11.0001
311.539
205.192
228.03
134.473
215.605
192.463
113.119
181.314
142.682
163.739
92.6363
79.5519
62.4449
73.9543
367.094
469.137
389.678
348.73
292.032
268.972
323.488
149.98
116.468
135.042
59.1713
70.7078
55.0091
45.1355
110.245
92.1563
42.107
126.211
184.757
166.858
108.322
177.911
115.551
127.737
110.726
99.9721
55.4775
43.047
99.3521
130.419
78.5261
169.035
195.992
115.847
146.273
51.5402
146.156
103.088
158.745
211.154
116.391
173.329
153.98
124.042
210.98
92.2895
153.95
185.98
63.7451
139.173
244.435
145.158
135.433
200.865
191.87
82.2307
79.8633
211.182
114.368
97.9216
155.423
136.332
46.2057
302.202
404.811
337.892
250.07
201.316