/*--------------------------------*- C++ -*----------------------------------*\
  =========                 |
  \\      /  F ield         | OpenFOAM: The Open Source CFD Toolbox
   \\    /   O peration     | Website:  https://openfoam.org
    \\  /    A nd           | Version:  9
     \\/     M anipulation  |
\*---------------------------------------------------------------------------*/
FoamFile
{
    format      ascii;
    class       volVectorField;
    location    "0.0007";
    object      U;
}
// * * * * * * * * * * * * * * * * * * * * * * * * * * * * * * * * * * * * * //

dimensions      [0 1 -1 0 0 0 0];

internalField   nonuniform List<vector> 
6956
(
(-0.81434 2.44303 5.26319)
(-4.12817e-06 3.1321e-05 4.12485e-05)
(-1.77599e-06 0.000183488 0.00024763)
(1.76045e-09 9.28887e-07 9.01181e-07)
(-0.0287448 0.424706 0.356359)
(-0.343808 16.3952 11.9198)
(-1.12519 13.7122 9.80531)
(-0.0068134 0.515479 0.436353)
(-0.00072049 0.0108439 0.0106715)
(-2.54593e-06 0.000319408 0.000355444)
(-0.000138186 0.0132103 0.0131067)
(-1.11829e-05 0.000266102 0.000293187)
(-0.0593239 0.576717 1.21113)
(-8.46852e-05 0.000614906 0.00128405)
(-0.00010402 0.000929927 0.00199143)
(3.49753e-06 7.36753e-05 0.000238864)
(-3.01981e-07 1.62985e-05 3.10976e-05)
(-1.12014e-05 0.000154598 0.000204175)
(2.84229e-07 9.04944e-06 9.3873e-06)
(1.35308e-06 2.29169e-05 1.75478e-05)
(1.22441e-06 9.02141e-06 9.40362e-06)
(1.60776e-07 1.90586e-06 8.09263e-07)
(1.48496e-06 2.96704e-06 2.28182e-06)
(-7.5881e-07 2.30352e-05 1.76061e-05)
(6.82594e-10 2.44693e-08 1.29014e-08)
(1.52995e-10 2.99277e-09 7.22137e-11)
(6.96172e-10 1.53078e-08 7.40834e-09)
(2.64225e-09 6.39864e-09 1.77489e-09)
(-6.99245e-08 1.10765e-06 1.28371e-06)
(2.86459e-10 4.26903e-09 3.78258e-10)
(2.93099e-10 3.61837e-09 2.64019e-10)
(8.92778e-10 5.8572e-09 8.02549e-10)
(2.80334e-09 5.57819e-08 1.16541e-08)
(1.77079e-08 1.64263e-07 4.08351e-08)
(7.00913e-09 1.25007e-07 2.5847e-08)
(3.98683e-09 6.68056e-08 1.60729e-08)
(4.28607e-12 1.15625e-09 3.73053e-10)
(1.66845e-11 1.23517e-09 5.71537e-10)
(6.48604e-09 2.08298e-08 1.48567e-08)
(9.18825e-08 9.7509e-08 1.13632e-07)
(3.05867e-08 4.1476e-07 3.3241e-07)
(1.01246e-07 4.95339e-07 4.27605e-07)
(1.05727e-08 1.06376e-07 3.001e-08)
(7.98586e-08 1.87643e-07 1.07632e-07)
(6.0168e-08 5.40761e-08 5.14101e-08)
(5.90736e-12 7.35003e-11 -4.53667e-12)
(1.71349e-11 2.16365e-10 5.34909e-11)
(2.67129e-12 8.43286e-11 -3.2735e-12)
(5.9853e-12 7.54408e-11 2.31052e-12)
(4.64332e-12 9.80212e-11 3.90513e-12)
(5.81753e-13 9.87249e-12 -5.30839e-12)
(2.01003e-13 2.80608e-12 -7.65263e-14)
(1.57504e-13 3.53407e-12 -5.52306e-14)
(9.59317e-13 9.4646e-12 -5.26249e-12)
(-0.0195701 0.113522 0.0909893)
(-8.28155 231.293 185.084)
(-9.39414e-06 0.000189356 0.000204439)
(-9.58916e-05 0.00763069 0.00995952)
(-115.323 366.035 349.703)
(-16.1708 583.622 490.983)
(-0.201501 0.768848 1.22529)
(-0.222609 2.26789 3.64256)
(-23.0215 210.672 167.287)
(-0.291097 13.5148 12.5977)
(-0.986235 11.3922 10.5902)
(-0.00517026 0.338877 0.386414)
(-0.000484009 0.00633982 0.00817909)
(-0.0209548 0.2823 0.31937)
(-217.596 642.962 713.339)
(-77.6806 632.904 660.672)
(-34.4187 100.377 135.197)
(-3.174 28.7593 41.2843)
(-21.5115 632.274 663.044)
(-96.7565 742.623 713.085)
(-29.0728 736.306 708.724)
(-31.9794 686.356 721.882)
(-26.1145 651.928 744.384)
(-98.766 696.494 730.126)
(-88.6896 657.829 746.806)
(-186.544 587.393 602.139)
(-233.989 696.905 724.532)
(-235.006 726.802 684.253)
(-136.362 619.366 641.684)
(-166.345 738.59 704.779)
(-165.55 697.639 731.222)
(-154.348 654.733 736.134)
(-4.5981 182.098 169.234)
(-13.8701 489.072 476.837)
(-24.9266 721.873 646.591)
(-54.0651 476.773 463.39)
(-88.1633 722.577 645.35)
(-63.9617 569.761 478.134)
(-18.6692 164.552 153.087)
(-20.7516 70.0264 65.3003)
(-136.958 446.108 369.363)
(-210.542 677.113 594.531)
(-93.3567 437.752 422.953)
(-153.439 708.209 628.44)
(-109.638 526.798 439.593)
(-26.7498 124.289 115.654)
(-3.48407 11.3224 17.6292)
(-4.37823 20.4029 30.1662)
(-32.8811 142.341 188.162)
(-77.8504 238.288 262.563)
(-147.409 449.061 537.91)
(-66.0384 300.358 334.748)
(-109.505 485.193 591.795)
(-20.0596 169.252 222.741)
(-0.742964 32.8135 46.6033)
(-4.91631 179.756 236.52)
(-16.4853 504.86 625.638)
(-9.75136 348.06 392.722)
(-38.6186 335.877 377.218)
(-61.665 502.183 618.887)
(-0.0108895 0.131559 0.197197)
(-0.00198482 0.155871 0.235476)
(-0.0463751 2.65183 4.26396)
(-0.128413 7.35912 8.97424)
(-2.44919 100.846 111.978)
(-10.1302 89.6663 99.8568)
(-0.582501 6.2296 7.60814)
(-0.0336597 0.258976 0.213627)
(-0.762615 3.81303 2.57121)
(-1.31689 8.5997 6.00834)
(-0.731578 3.32883 3.03063)
(-26.3745 90.9804 70.8496)
(-33.7277 159.686 126.133)
(-1.20554 7.26815 6.7277)
(-0.288624 1.5136 2.42731)
(-0.00892827 0.0410499 0.0587228)
(-0.013702 0.0850286 0.125238)
(-10.4544 35.1159 40.5601)
(-0.462828 1.92979 2.33541)
(-13.8608 64.4997 72.5992)
(-0.721032 4.03789 4.93245)
(-368.937 1455.44 72.5395)
(-252.715 926.114 84.28)
(-233.491 826.995 317.504)
(-468.153 1269.98 73.157)
(-256.263 1115.94 210.005)
(-278.23 910.528 188.474)
(-258.042 878.867 117.29)
(-253.09 915.375 158.18)
(-214.781 893.378 287.968)
(-178.644 882.437 389.519)
(-119.281 401.562 240.119)
(-34.9864 611.399 455.992)
(-337.434 1371.95 -23.6316)
(-131.904 1302.83 276.333)
(-200.922 1059.37 232.391)
(-57.857 1277.06 105.988)
(-158.398 907.101 128.759)
(-87.0273 1347.7 214.039)
(-183.613 944.655 220.658)
(-56.9383 1106.21 318.069)
(-218.654 830.955 430.883)
(-94.7441 869.969 421.562)
(-244.763 789.332 628.371)
(-101.782 815.894 649.037)
(-155.647 973.445 108.606)
(-163.26 957.98 110.031)
(-156.319 950.956 100.255)
(-263.955 892.027 134.277)
(-156.131 976.785 92.9776)
(-171.506 975.734 132.817)
(-154.849 946.842 115.215)
(-283.361 1379.28 246.982)
(-316.952 1408.83 65.3282)
(-378.001 1458.96 83.2664)
(-436.555 1172.77 280.203)
(-287.141 1288.56 255.238)
(-336.942 1364.18 262.781)
(-317.098 1477.05 80.0625)
(-209.388 1182.55 243.579)
(-341.065 1007.5 291.134)
(-169.947 984.696 156.507)
(-177.36 1014.8 172.32)
(-213.743 1092.39 244.3)
(-241.345 1168.56 271.491)
(-166.965 1028.23 152.359)
(-152.711 972.002 175.35)
(-246.263 901.273 203.068)
(-158.456 969.285 274.98)
(-117.402 924.927 266.636)
(-169.131 980.205 198.525)
(-142.803 945.004 181.679)
(-141.578 946.556 260.532)
(-102.107 799.516 400.492)
(-145.388 952.095 369.232)
(-88.2193 888.859 352.758)
(-127.976 856.056 483.829)
(-124.716 897.341 347.277)
(-127.359 906.248 467.625)
(-57.6262 803.802 409.53)
(-66.9769 572.745 345.346)
(-73.5407 783.454 534.785)
(-67.3899 605.418 437.6)
(-8.8125 224.62 153.474)
(-103.544 813.386 516.396)
(-30.9763 596.635 366.908)
(-22.2108 200.177 135.015)
(-62.6493 1222.03 218.758)
(-31.9388 1257.84 206.786)
(-33.7056 1313.06 90.4931)
(-103.884 862.354 157.38)
(-152.532 914.348 265.259)
(-90.6414 984.093 154.207)
(-121.369 1065.57 246.95)
(-76.7034 1329.38 109.673)
(-45.5991 1377.43 205.365)
(-42.6545 1358.53 101.062)
(-72.691 873.928 114.522)
(-74.8658 985.958 122.925)
(-62.6519 908.803 164.282)
(-72.451 1017.83 176.304)
(-162.593 1436.86 -116.765)
(-82.0177 1421.27 -92.9473)
(-65.8075 1295.32 273.651)
(-182.282 1262.52 1.82606)
(-193.154 1413.4 17.745)
(-188.391 1101.5 279.975)
(-163.944 1274.05 268.285)
(-164.97 1041.97 248.461)
(-162.064 936.358 159.693)
(-105.258 970.716 158.327)
(-63.6824 1137.35 130.555)
(-106.024 1123.02 240.712)
(-109.378 970.822 157.325)
(-146.329 1080.28 239.056)
(-164.02 930.425 159.564)
(-89.557 994.459 131.985)
(-97.7577 1027.11 197.479)
(-88.7918 1225.27 217.312)
(-75.9572 1198.39 121.911)
(-100.128 954.26 126.11)
(-98.5294 982.416 170.518)
(-75.1864 1278.27 306.822)
(-33.5256 1170.45 328.086)
(-43.0051 1316.3 301.528)
(-75.7254 861.32 278.795)
(-66.7923 899.108 224.928)
(-102.97 951.872 275.857)
(-81.109 997.194 231.18)
(-354.076 1423.24 44.6898)
(-292.488 1281.04 249.834)
(-267.235 1236.97 271.753)
(-195.738 1278.58 276.575)
(-250.153 1408.07 -77.609)
(-256.828 1442.41 25.5946)
(-216.22 1297.9 259.155)
(-211.859 923.864 274.379)
(-108.297 986.996 255.66)
(-146.324 916.494 279.467)
(-75.755 1002.48 295.586)
(-72.0603 1146.39 291.431)
(-146.729 949.55 275.668)
(-116.502 979.714 227.627)
(-187.28 1108.24 529.766)
(-146.497 1368.47 676.202)
(-221.938 690.86 614.831)
(-101.931 767.1 632.611)
(-268.308 1211.26 267.161)
(-238.725 1336.68 229.826)
(-140.766 1312.45 176.233)
(-190.763 1239.17 82.6907)
(-137.4 1500.94 8.22182)
(-153.909 1545.81 230.286)
(-316.407 1348.36 524.283)
(-176.289 1507.57 581.131)
(-130.418 1408.98 76.6608)
(-47.742 1463.47 40.7629)
(-62.7613 1486.07 -80.0148)
(-49.084 1537.94 -9.62081)
(-64.5338 1546.15 -69.017)
(-192.686 1540.24 -57.594)
(-183.483 1464.1 -59.566)
(-151.16 1539.92 84.8639)
(-56.0486 1576.14 231.036)
(-55.0272 1572.38 80.6261)
(-69.1078 1551.29 82.5471)
(-68.5629 1561.19 265.383)
(-204.671 1555.16 82.0738)
(-204.672 1559.45 257.166)
(-229.867 1483.15 230.939)
(-224.307 1313.83 107.946)
(-223.342 1472.22 91.571)
(-424.973 1478.11 84.7878)
(-430.499 1487.35 244.824)
(-324.098 1539.6 82.4963)
(-324.12 1542.75 251.508)
(-164.97 1360.66 -254.008)
(-68.7804 1388.6 -285.951)
(-57.7696 1355.96 139.024)
(-66.7818 1335.1 -431.338)
(-63.1252 1345.3 -42.8594)
(-177.018 1319.09 -401.547)
(-168.39 1323.13 -3.06775)
(-202.376 1427.47 34.7895)
(-195.353 1163.64 189.576)
(-185.66 1317.12 135.668)
(-354.919 1319.69 35.2837)
(-400.575 1436.26 -16.7015)
(-310.181 1517.19 -43.996)
(-291.876 1417.48 -28.0245)
(-113.876 1391.75 476.004)
(-143.65 1502.09 369.026)
(-59.4258 1526.21 589.491)
(-44.0396 1447.87 502.015)
(-53.1376 1534.32 373.892)
(-64.7677 1547.45 431.719)
(-195.044 1539.76 422.179)
(-211.27 1263.8 226.552)
(-345.162 1315.72 -147.942)
(-258.154 1341.5 -210.451)
(-376.704 1254.39 -290.397)
(-343.78 1213.24 139.038)
(-278.418 1288.85 -353.532)
(-265.109 1281.74 61.7384)
(-281.931 1463.4 569.758)
(-120.136 1081.13 366.682)
(-132.645 1272.62 432.895)
(-192.151 1260.5 343.017)
(-204.664 1435.14 363.375)
(-408.777 1449.54 402.669)
(-314.542 1521.6 414.179)
(-78.0895 1132.4 438.253)
(-53.8658 1403.45 704.058)
(-33.8027 1197.53 472.873)
(-44.1168 1117.62 619.305)
(-33.0604 901.205 413.583)
(-84.0066 879.51 415.289)
(-106.132 1069.55 588.162)
(-195.151 1279.81 620.023)
(-137.691 888.912 350.804)
(-90.4952 1015.29 392.718)
(-150.758 834.621 451.898)
(-183.45 804.831 415.563)
(-128.896 844.774 413.419)
(-125.288 966.911 524.45)
(-95.8797 795.415 505.958)
(-34.2366 757.76 621.334)
(-34.3421 793.936 496.792)
(-35.1826 704.456 595.5)
(-35.7068 803.603 514.723)
(-98.1373 709.367 604.485)
(-91.3733 790.921 516.694)
(-33.3909 870.035 409.522)
(-80.3217 939.943 335.706)
(-30.4548 975.267 323.077)
(-65.2133 848.597 358.108)
(-109.201 918.452 351.794)
(-47.0912 857.438 451.839)
(-108.277 899.877 450.895)
(-222.083 945.666 108.5)
(-251.328 915.499 95.3129)
(-233.099 955.073 121.315)
(-194.412 961.713 87.8136)
(-193.678 955.103 101.985)
(-167.209 963.862 112.902)
(-179.127 977.379 129.755)
(-288.416 1159.49 229.39)
(-260.447 987.522 149.808)
(-224.249 982.733 146.11)
(-228.149 1182.07 228.867)
(-200.014 1018.61 146.472)
(-169.465 994.125 148.962)
(-198.366 1117.08 218.86)
(-239.297 764.314 639.741)
(-190.977 723.402 507.094)
(-217.233 759.141 518.081)
(-169.142 766.871 639.431)
(-154.252 779.916 512.467)
(-157.468 701.825 608.162)
(-138.618 759.912 513.34)
(-325.52 1329.97 225.697)
(-374.154 1473.14 81.5333)
(-338.849 1365.76 235.828)
(-323.198 1490.88 82.5925)
(-286.192 1386.34 235.932)
(-312.975 1454.95 66.3157)
(-268.906 1330.36 235.199)
(-245.649 964.838 185.343)
(-249.083 888.576 240.203)
(-253.211 951.572 262.35)
(-193.959 955.566 168.508)
(-189.239 929.283 252.934)
(-190.53 971.538 268.724)
(-189.359 983.118 192.349)
(-153.535 853.116 426.319)
(-188.956 867.306 340.528)
(-132.422 907.049 339.438)
(-233.431 904.042 352.272)
(-248.744 890.449 456.985)
(-162.689 918.172 350.645)
(-174.776 901.741 454.872)
(-242.539 828.069 548.733)
(-173.576 807.417 643.306)
(-170.681 835.035 543.645)
(-250.48 837.931 548.155)
(-221.392 728.315 548.437)
(-162.064 764.983 580.141)
(-178.039 864.376 559.999)
(-102.281 837.253 535.308)
(-30.322 809.887 644.629)
(-32.6705 829.604 524.702)
(-25.3442 784.506 596.385)
(-34.1256 855.993 560.578)
(-93.6148 783.796 595.837)
(-105.651 875.93 563.925)
(-253.326 923.42 357.348)
(-196.451 691.796 342.616)
(-248.297 861.295 445.546)
(-176.686 875.438 337.197)
(-152.284 764.375 380.218)
(-185.278 950.269 363.719)
(-178.822 896.388 460.121)
(-218.658 744.28 465.838)
(-21.3958 78.4239 50.0451)
(-139.58 463.286 329.604)
(-102.655 510.42 306.351)
(-29.8535 146.993 97.242)
(-112.655 555.751 398.749)
(-161.134 793.161 499.137)
(-0.672015 5.82441 12.0733)
(-0.011486 0.662856 1.39169)
(-0.143604 6.54056 13.463)
(-0.00210833 0.119438 0.337779)
(-0.00018028 0.0127161 0.0320464)
(-0.00111265 0.0110624 0.0277449)
(-0.0119688 0.10571 0.298129)
(-0.0627415 0.21489 0.454357)
(-0.082419 0.400088 0.843046)
(-0.983866 4.25749 8.98426)
(-0.0142463 0.0433398 0.119506)
(-0.00118352 0.00410557 0.00995272)
(-0.00154125 0.00766539 0.0190025)
(-0.017359 0.0761248 0.213393)
(-1124.14 805.633 86.0321)
(-727.395 437.16 537.205)
(-540.008 416.388 695.056)
(-962.369 637.868 533.904)
(-558.141 559.724 197.709)
(-527.578 530.387 199.251)
(-507.299 338.634 516.72)
(-577.643 636.816 590.874)
(-522.333 585.28 399.355)
(-523.229 575.28 585.977)
(-278.761 183.966 270.033)
(-0.652696 0.50404 0.747775)
(-183.329 147.698 269.274)
(-0.806865 0.941505 1.96145)
(-5.05512 3.16692 8.95263)
(-0.000301404 0.00022194 0.000471696)
(-5.20045e-05 3.35166e-05 0.000216875)
(-1135.16 815.531 251.276)
(-838.657 679.712 246.314)
(-812.174 649.214 100.117)
(-963.208 500.09 238.758)
(-932.848 477.191 99.4397)
(-655.334 389.937 191.947)
(-625.301 367.845 133.089)
(-1092.35 765.332 407.772)
(-629.072 485.792 397.739)
(-767.341 614.329 364.898)
(-749.849 336.069 367.344)
(-889.803 436.001 346.626)
(-637.924 386.726 259.079)
(-601.415 384.443 295.665)
(-500.407 500.219 136.893)
(-439.37 533.036 146.474)
(-452.015 551.69 166.262)
(-529.336 529.581 141.88)
(-539.413 540.916 146.977)
(-548.93 453.404 165.701)
(-533.303 438.511 145.06)
(-546.831 320.244 487.075)
(-488.624 399.659 434.912)
(-523.017 406.413 390.167)
(-580.178 327.595 426.387)
(-634.898 304.439 369.196)
(-566.708 425.968 410.021)
(-566.365 400.068 349.912)
(-482.886 558.668 274.99)
(-576.346 576.932 251.554)
(-466.085 561.909 228.647)
(-486.949 488.714 303.698)
(-512.079 516.256 268.692)
(-558.184 467.942 228.496)
(-556.217 483.134 275.257)
(-518.985 379.842 587.635)
(-525.255 463.54 584.855)
(-502.761 429.264 493.455)
(-596.851 408.359 592.259)
(-579.582 369.48 496.121)
(-584.799 458.778 489.251)
(-619.823 499.819 602.251)
(-500.275 567.766 327.525)
(-621.04 622.836 411.394)
(-595.114 595.807 316.376)
(-493.976 494.135 407.427)
(-479.381 479.284 354.544)
(-582.744 522.493 398.324)
(-566.138 499.537 327.456)
(-565.556 412.484 658.572)
(-543.478 428.411 726.918)
(-504.224 420.858 576.232)
(-521.335 475.112 668.953)
(-558.711 503.108 690.029)
(-624.407 443.02 686.851)
(-613.17 509.154 645.075)
(-553.757 617.405 504.708)
(-639.717 642.98 514.33)
(-600.059 603.981 547.821)
(-554.177 558.995 601.646)
(-517.862 519.969 486.307)
(-613.028 555.745 502.811)
(-631.507 582.644 589.387)
(-331.942 364.818 400.381)
(-460.419 464.467 463.682)
(-137.126 138.533 153.764)
(-364.444 339.455 403.541)
(-467.143 474.076 585.85)
(-560.719 567.514 649.093)
(-570.821 530.003 585.692)
(-89.9983 64.3507 89.8103)
(-508.446 344.875 535.292)
(-351.367 277.114 362.054)
(-652.683 442.177 632.491)
(-601.4 385.475 538.171)
(-450.969 333.812 396.835)
(-601.565 468.681 573.323)
(-65.9497 60.7841 103.845)
(-49.6504 36.9129 74.34)
(-8.66942 6.95828 15.9863)
(-362.146 265.337 448.98)
(-443.786 352.784 629.998)
(-205.235 173.774 249.354)
(-359.6 328.817 491.179)
(-1.44205e-06 9.88779e-07 3.46872e-06)
(-1.45606e-05 1.5034e-05 4.97848e-05)
(-4.48552e-05 4.57715e-05 0.00011783)
(-7.27184 6.00818 16.9322)
(-1.0627e-05 5.82296e-06 2.53049e-05)
(-2.53339e-05 2.18918e-05 5.44784e-05)
(-0.0886591 0.0505222 0.205333)
(-232.321 218.806 214.538)
(-13.296 12.0768 15.9513)
(-24.8789 20.6851 22.2021)
(-10.1139 7.22709 11.1639)
(-131.303 113.586 137.848)
(-203.224 166.425 177.241)
(-479.922 415.276 449.2)
(-9.25858 9.47464 18.7307)
(-43.1223 48.1635 64.2451)
(-4.19062 4.27207 7.21725)
(-0.0732353 0.0750719 0.165406)
(-0.959602 0.862418 2.03635)
(-49.2235 45.4681 66.2468)
(-204.404 207.459 269.64)
(-0.343322 0.169362 0.586641)
(-0.0447645 0.0249383 0.0759984)
(-0.721041 0.489533 1.36388)
(-17.286 9.8102 21.7384)
(-2.35685 1.43134 3.28938)
(-159.426 111.367 183.441)
(-36.7377 27.512 46.7948)
(2.89721e-16 6.60533e-15 -7.38231e-16)
(4.66679e-14 1.04847e-12 -1.70747e-15)
(2.47653e-13 8.13947e-12 4.37782e-12)
(4.92368e-07 1.80797e-07 9.96774e-09)
(1.13486e-08 1.83195e-09 1.36095e-09)
(1.55115e-06 1.12023e-06 6.51392e-08)
(1.75104e-07 1.24224e-07 4.12725e-08)
(8.1123e-09 2.3562e-09 1.18487e-10)
(1.78454e-09 3.34402e-10 2.66789e-10)
(5.12288e-08 3.64938e-08 2.55404e-09)
(2.0238e-08 1.43904e-08 1.83694e-09)
(3.25468e-10 1.02087e-10 5.32687e-11)
(1.17465e-12 -4.7358e-13 8.78922e-13)
(1.7243e-09 1.199e-09 4.20519e-10)
(4.18286e-11 2.64292e-11 3.29556e-11)
(2.75765e-14 -9.72653e-15 3.77939e-14)
(0 3.13503e-18 -2.82171e-15)
(4.8024e-13 1.92718e-13 4.08087e-13)
(9.31836e-15 9.13176e-15 1.12713e-14)
(0 2.99853e-15 2.25402e-14)
(2.15292e-13 3.67954e-12 4.34896e-13)
(6.93971e-05 1.96495e-05 1.12905e-05)
(4.1057e-06 6.6313e-07 8.62715e-08)
(2.2336e-05 1.35408e-05 5.48735e-07)
(1.79149e-07 4.15863e-08 2.38541e-08)
(1.17186e-06 1.82917e-07 1.65403e-07)
(6.46345e-06 3.7389e-06 1.18339e-06)
(0.000254336 7.44297e-05 6.49161e-06)
(8.75316e-06 2.42762e-06 1.32032e-06)
(2.53602e-08 7.58934e-09 3.46847e-09)
(4.88734e-08 7.8479e-09 2.11091e-09)
(2.63469e-07 1.47142e-07 1.99519e-08)
(1.62832e-07 2.52401e-08 2.01094e-08)
(9.15117e-07 5.35227e-07 1.36937e-07)
(2.12269e-06 6.00139e-07 1.35492e-07)
(1.36561e-06 3.9269e-07 3.73585e-08)
(4.0346e-08 6.6999e-09 4.31104e-10)
(2.20285e-07 1.27463e-07 2.30074e-09)
(7.04807e-09 1.89544e-09 3.25862e-10)
(1.60998e-06 4.64e-07 2.379e-08)
(3.40761e-08 5.60616e-09 9.5612e-10)
(1.87447e-07 1.07314e-07 8.63035e-09)
(8.70828e-07 2.48824e-07 6.75258e-08)
(3.91997e-09 1.25634e-09 2.35787e-10)
(8.01756e-09 1.27345e-09 9.12859e-10)
(4.52817e-08 2.50949e-08 8.25451e-09)
(2.10666e-08 3.43915e-09 1.58854e-09)
(1.15144e-07 6.72119e-08 6.71062e-09)
(3.48195e-07 9.7986e-08 4.17526e-08)
(1.26549e-08 3.48951e-09 2.27289e-09)
(1.88344e-09 2.98621e-10 2.48713e-10)
(1.04077e-08 6.05442e-09 1.62429e-09)
(8.03755e-11 7.74371e-13 1.91107e-11)
(8.47131e-08 2.36959e-08 1.21978e-08)
(2.70136e-10 4.1104e-11 4.60541e-11)
(1.46507e-09 8.15696e-10 3.47948e-10)
(1.1323e-09 3.0278e-10 2.85621e-10)
(4.43346e-12 6.69096e-13 1.86997e-12)
(1.16723e-12 1.36235e-13 3.94749e-13)
(7.6965e-12 2.81955e-12 3.65502e-12)
(2.35381e-11 3.48213e-12 5.6156e-12)
(1.23457e-10 6.99125e-11 3.68641e-11)
(5.37111e-11 1.28119e-11 2.1057e-11)
(2.70462e-13 3.60616e-14 6.02032e-14)
(5.25014e-14 4.24254e-15 1.3787e-14)
(4.12587e-13 1.36445e-13 1.78151e-13)
(1.11367e-14 -7.59809e-15 -1.49558e-14)
(2.30423e-12 4.86301e-13 1.01104e-12)
(3.18191e-15 0 2.11742e-15)
(1.10306e-13 4.99845e-15 2.41723e-14)
(2.28037e-14 1.59095e-15 1.24634e-14)
(0 2.72477e-17 5.82384e-15)
(0 0 -1.18575e-14)
(5.30318e-16 3.76382e-16 5.33321e-15)
(0 0 2.95922e-14)
(5.30318e-15 9.09053e-16 -5.83075e-15)
(7.42445e-15 0 -8.37398e-15)
(1.81223e-12 3.64315e-11 7.46775e-12)
(1.99108e-12 3.50408e-11 5.74714e-12)
(3.39403e-14 9.23658e-13 9.93723e-14)
(1.53843e-14 3.86507e-13 -1.79048e-13)
(2.65164e-15 9.0976e-14 2.70298e-14)
(0 2.62458e-15 -3.78267e-15)
(6.89413e-15 1.11488e-13 -1.05534e-13)
(3.18191e-15 1.15467e-13 6.77519e-15)
(2.91827e-14 3.7115e-13 -1.71068e-13)
(4.77286e-15 1.13143e-13 -9.52678e-14)
(1.7212e-05 4.47533e-05 2.89495e-06)
(3.95765e-11 1.03645e-09 -3.10588e-11)
(1.01289e-06 2.24215e-06 7.31727e-08)
(9.09495e-13 3.73211e-11 -1.76331e-12)
(3.47841e-08 7.61116e-08 1.22432e-08)
(3.71222e-14 9.67729e-13 1.14018e-13)
(8.65906e-12 1.02662e-11 1.34363e-11)
(0 0 0)
(1.02083e-13 6.92939e-14 4.88739e-14)
(1.03942e-13 1.77628e-13 4.43759e-14)
(4.84526e-09 5.78424e-08 -1.19478e-09)
(4.6396e-08 4.67665e-08 1.53014e-09)
(3.98616e-06 9.0263e-06 1.94869e-06)
(2.13416e-10 2.18917e-09 2.32928e-10)
(2.60015e-09 2.94746e-09 8.80282e-10)
(2.03458e-10 4.37183e-10 8.64467e-12)
(2.25014e-12 4.45843e-11 3.72052e-12)
(1.39603e-11 3.19354e-11 6.81843e-12)
(8.97716e-11 1.49798e-09 -6.11446e-11)
(1.14937e-09 1.20133e-09 3.5454e-11)
(4.15763e-07 9.26096e-07 8.96263e-08)
(3.37987e-11 3.41753e-10 5.00161e-11)
(3.1739e-10 3.63969e-10 4.70691e-11)
(7.47822e-12 1.58045e-11 2.93124e-13)
(4.14178e-13 7.98711e-12 1.11414e-12)
(2.00322e-12 4.54741e-12 5.52524e-13)
(3.30865e-12 4.18142e-11 4.80627e-12)
(2.91605e-11 3.20612e-11 6.37476e-12)
(7.63997e-10 1.56825e-09 1.08225e-09)
(1.52731e-13 1.22666e-12 3.13699e-13)
(8.39965e-13 8.12436e-13 5.19627e-13)
(1.78129e-13 3.7861e-13 5.96042e-14)
(5.30318e-16 2.3334e-14 1.61686e-14)
(1.32e-14 1.13586e-14 9.15255e-15)
(3.92423e-10 4.02483e-10 2.11804e-10)
(8.07618e-12 6.34525e-12 1.96624e-12)
(4.24254e-15 2.66747e-14 1.85611e-14)
(1.39955e-14 8.03461e-15 7.37816e-15)
(3.3323e-13 2.3457e-13 3.83843e-13)
(0 0 0)
(5.24528e-15 5.18868e-17 -1.77246e-16)
(5.24528e-15 0 -1.04413e-15)
(0 0 0)
(5.2421e-15 -1.13645e-25 4.95077e-20)
(-2.27036e-12 4.30475e-11 9.42612e-13)
(9.1588e-11 1.50242e-09 -2.09878e-11)
(1.73944e-13 1.63396e-11 -5.57099e-13)
(9.30511e-11 2.06739e-09 3.34498e-11)
(1.72369e-10 2.16622e-09 6.89332e-11)
(6.56003e-13 3.53181e-11 4.05841e-13)
(-3.50248e-12 3.10024e-11 -2.23264e-13)
(-9.78144e-14 2.26711e-12 4.12121e-14)
(4.1992e-12 6.23654e-11 -2.10885e-12)
(-1.1667e-14 9.13737e-13 -5.1348e-14)
(3.62419e-12 7.96035e-11 2.99895e-13)
(-1.61539e-13 1.82323e-12 -4.1065e-14)
(6.74926e-12 8.05241e-11 2.13956e-12)
(3.81829e-14 1.87892e-12 4.97029e-15)
(-2.11315e-15 3.92435e-14 1.58325e-15)
(1.05486e-13 1.45307e-12 1.19935e-13)
(0 2.1743e-14 7.92902e-16)
(8.43205e-14 1.68883e-12 7.23884e-14)
(-2.94641e-15 3.60616e-14 2.58766e-15)
(1.36363e-13 1.70776e-12 8.06e-14)
(0 3.23494e-14 2.65159e-16)
(0 0 0)
(7.81992e-17 0 -7.92985e-16)
(0 0 0)
(0 0 0)
(0 0 3.75787e-16)
(0 0 -1.51224e-14)
(0 0 0)
(2.04729e-12 2.95711e-12 2.42537e-12)
(0 3.18191e-15 7.95476e-16)
(1.26227e-14 1.08811e-12 1.16379e-12)
(5.60298e-14 2.0815e-13 8.69406e-14)
(0 2.36029e-15 -2.02822e-14)
(0 0 6.21803e-15)
(5.00119e-15 6.96468e-31 -1.2393e-16)
(2.37576e-15 9.11179e-14 5.56833e-15)
(4.13449e-14 0 -1.50827e-14)
(1.08798e-06 4.39312e-06 2.05698e-07)
(4.30881e-07 2.30937e-06 -7.40338e-09)
(1.03007e-08 8.87984e-08 3.10381e-11)
(8.79576e-09 9.96549e-08 2.52746e-09)
(5.17292e-07 3.20456e-06 1.3301e-07)
(1.48961e-08 1.13561e-07 3.10872e-09)
(8.8642e-07 3.8246e-06 3.65255e-08)
(1.28221e-07 5.10536e-07 1.4116e-07)
(1.06089e-09 1.1567e-08 3.21126e-09)
(2.10046e-08 1.08165e-07 1.5782e-08)
(2.73504e-10 2.01488e-09 1.84569e-10)
(9.36146e-08 5.06002e-07 1.30434e-07)
(1.66089e-09 1.15429e-08 3.3036e-09)
(2.39492e-08 9.61978e-08 1.29015e-08)
(-1.41741e-13 5.26658e-12 1.06659e-12)
(1.16776e-11 2.44566e-10 6.1194e-11)
(3.00095e-12 4.12439e-11 2.79546e-12)
(1.59095e-14 9.19571e-13 6.38656e-14)
(1.96843e-11 2.21808e-10 4.36534e-11)
(1.08185e-13 4.9293e-12 1.03553e-12)
(-3.50797e-13 1.35814e-12 1.45734e-13)
(3.53343e-08 1.35398e-07 4.60554e-09)
(8.8976e-09 5.7672e-08 -1.78271e-09)
(3.33583e-10 2.68215e-09 -4.07838e-11)
(3.07608e-10 3.32397e-09 3.80471e-11)
(2.71974e-08 1.11509e-07 -5.44357e-10)
(2.5582e-08 1.3601e-07 4.14927e-09)
(4.79937e-10 3.35782e-09 4.67108e-11)
(1.40443e-08 5.41515e-08 4.22085e-09)
(1.27363e-10 1.34003e-09 1.40324e-10)
(2.81415e-09 1.4219e-08 2.26764e-09)
(4.54597e-11 3.13993e-10 4.25254e-11)
(1.05486e-08 5.47366e-08 4.10357e-09)
(1.9666e-10 1.30511e-09 1.597e-10)
(3.31088e-09 1.27164e-08 2.03256e-09)
(-1.84386e-14 8.02901e-13 1.02276e-13)
(1.57557e-12 3.1985e-11 3.74839e-12)
(5.93452e-13 7.50665e-12 1.21349e-12)
(4.24254e-15 1.81369e-13 1.96999e-14)
(2.84615e-12 3.01378e-11 2.77303e-12)
(1.75005e-14 7.40323e-13 9.16319e-14)
(-5.21277e-14 2.77886e-13 3.60405e-14)
(1.03179e-09 4.00566e-09 4.42107e-10)
(3.20512e-10 1.74326e-09 2.17939e-10)
(8.46291e-12 6.87085e-11 6.01436e-12)
(7.93143e-12 8.31685e-11 5.06798e-12)
(7.82345e-10 3.16005e-09 3.21722e-10)
(7.61421e-10 3.99081e-09 4.0427e-10)
(1.23927e-11 8.39557e-11 5.77375e-12)
(2.97561e-11 1.13137e-10 6.40693e-11)
(4.26906e-13 4.07761e-12 2.37241e-12)
(1.21422e-11 5.63502e-11 2.14836e-11)
(1.16534e-13 5.87741e-13 1.9286e-13)
(2.4147e-11 1.15632e-10 6.34265e-11)
(6.5116e-13 3.99382e-12 2.38837e-12)
(8.12473e-12 2.68819e-11 1.0539e-11)
(0 0 8.43097e-15)
(5.83349e-15 1.11897e-13 5.26441e-14)
(1.23883e-15 9.54572e-15 3.40716e-14)
(0 0 1.73428e-15)
(6.87669e-15 8.79822e-14 3.5001e-14)
(0 0 0)
(0 0 4.26018e-15)
(2.45639e-10 3.45246e-10 9.42128e-11)
(8.2152e-09 9.72948e-09 5.93192e-09)
(3.02773e-11 2.90768e-11 1.44398e-11)
(2.02236e-10 1.56936e-10 6.24705e-11)
(5.98015e-10 7.95699e-10 4.25402e-10)
(4.48889e-09 5.46241e-09 2.10062e-09)
(1.20516e-11 1.17317e-11 3.7931e-12)
(9.68996e-12 1.53283e-11 3.76632e-12)
(1.72658e-12 1.70391e-12 7.79567e-13)
(2.68282e-11 3.99987e-11 1.85403e-11)
(6.0085e-13 6.40093e-13 1.69212e-13)
(2.05259e-11 2.80508e-11 1.44843e-11)
(1.59038e-11 1.17099e-11 8.62989e-12)
(1.59972e-10 1.99794e-10 6.99704e-11)
(5.7078e-13 5.66379e-13 9.10984e-14)
(2.81604e-10 3.26323e-10 2.4011e-10)
(1.21835e-12 1.09882e-12 5.88542e-13)
(1.0041e-11 1.40437e-11 3.07514e-12)
(9.31238e-13 1.47587e-12 6.29099e-13)
(2.63679e-14 2.59856e-14 2.65159e-15)
(6.15168e-14 6.46987e-14 2.56097e-14)
(4.12587e-13 6.74034e-13 1.17969e-13)
(1.41856e-13 3.20183e-13 1.45572e-13)
(2.94352e-13 7.83282e-13 8.10856e-13)
(2.57213e-15 1.05717e-14 -8.14667e-15)
(2.65159e-15 1.35205e-14 3.44706e-15)
(1.57903e-13 4.0039e-13 3.8361e-13)
(2.71537e-13 5.94105e-13 3.35426e-13)
(5.30318e-16 5.95639e-15 1.43222e-14)
(1.18185e-14 2.19374e-14 -2.92596e-15)
(0 0 -5.70591e-15)
(1.10469e-14 2.02549e-14 1.0076e-14)
(-7.65584e-19 0 1.22902e-14)
(1.36471e-14 2.65263e-14 1.8296e-14)
(-1.14458e-20 0 -1.55088e-14)
(2.11401e-15 3.69581e-15 2.09568e-14)
(0 0 8.40608e-15)
(0 0 -1.58968e-15)
(-1.02101e-20 0 0)
(0 0 0)
(-1.51307e-23 0 0)
(0 0 0)
(0 0 0)
(8.96237e-14 2.32936e-13 8.92423e-14)
(4.24254e-15 1.23343e-14 2.65159e-15)
(0 0 8.09195e-16)
(1.88793e-13 3.53416e-13 1.45689e-13)
(0 2.36582e-15 1.18498e-15)
(6.682e-14 1.04252e-13 4.6141e-14)
(1.90914e-14 5.36559e-14 2.30004e-14)
(1.36452e-16 4.44167e-15 3.00734e-16)
(0 3.71222e-15 3.80425e-16)
(9.04192e-14 1.52825e-13 2.54665e-14)
(2.65159e-16 2.29802e-14 2.61464e-15)
(0 0 -8.41763e-18)
(0 1.56741e-14 1.97419e-16)
(0 7.98018e-16 5.50916e-18)
(1.58583e-15 5.30318e-16 -4.2343e-15)
(0 0 1.91477e-16)
(3.16555e-15 4.2127e-15 2.12127e-15)
(0 0 -1.49308e-14)
(0 0 4.63933e-15)
(2.61338e-15 1.59095e-15 3.15587e-15)
(0 0 1.25635e-14)
(-7.93736e-16 7.51271e-14 2.40958e-14)
(2.35246e-12 3.22977e-11 6.95221e-12)
(-2.20826e-13 6.82469e-12 3.59691e-12)
(0.0307663 0.0466964 0.00159133)
(0.000196077 0.000291964 3.09984e-05)
(0.000136318 0.000202464 3.88325e-06)
(3.20459e-05 4.76086e-05 7.94057e-06)
(8.04695e-06 1.19612e-05 1.91362e-06)
(5.58816e-09 7.49539e-09 3.44845e-09)
(3.58978e-09 7.54237e-09 3.55066e-09)
(9.616e-11 5.73526e-11 3.15496e-11)
(3.09874e-10 3.12359e-10 1.86882e-10)
(3.7695e-12 1.47179e-12 8.39917e-13)
(3.40541e-13 1.40018e-13 1.5936e-13)
(2.27141e-13 5.76929e-12 6.52799e-13)
(-1.11706e-11 1.68764e-09 1.88002e-09)
(7.81612e-12 4.38868e-12 5.47182e-12)
(-3.13152e-13 2.9598e-11 3.72109e-11)
(1.84986e-12 9.93461e-12 3.47254e-12)
(0.00404626 0.00217909 0.00082068)
(0.798438 0.776929 0.0407156)
(0.000973509 0.000877165 3.30695e-05)
(0.00844104 0.0127781 0.00264478)
(0.214914 0.21181 0.0577975)
(0.000273195 0.000239208 5.9536e-05)
(0.0154766 0.00856834 0.000541383)
(0.000470457 0.000247781 9.1161e-05)
(0.000992937 0.00148998 0.000299531)
(0.00393138 0.0038743 0.000555342)
(8.41005e-06 7.19147e-06 8.635e-07)
(0.0237656 0.0234139 0.00616641)
(3.54631e-05 3.12683e-05 7.18346e-06)
(9.3073e-05 4.92225e-05 8.81236e-06)
(5.42644e-05 2.90137e-05 1.60652e-06)
(0.00245229 0.0024305 7.52873e-05)
(6.39216e-06 5.52739e-06 1.01685e-07)
(0.000115655 0.000171736 6.70525e-06)
(6.41708e-05 3.4289e-05 1.33828e-06)
(0.00205718 0.00204124 7.38597e-05)
(5.45036e-06 4.69602e-06 2.64959e-07)
(3.55545e-05 1.89435e-05 3.00533e-06)
(7.59252e-05 0.00011288 7.64891e-06)
(0.000609611 0.000601989 9.67729e-05)
(1.41428e-06 1.2064e-06 2.7584e-07)
(0.00138271 0.00137125 0.000135494)
(3.47198e-06 3.00777e-06 2.52626e-07)
(1.49169e-05 7.86831e-06 1.99656e-06)
(5.84791e-07 3.04119e-07 1.17427e-07)
(0.000160026 0.000157534 3.21217e-05)
(3.41859e-07 2.96177e-07 6.26542e-08)
(1.26691e-06 1.89526e-06 4.87784e-07)
(3.76228e-06 1.97307e-06 6.23349e-07)
(2.57587e-05 2.52756e-05 6.11759e-06)
(4.94162e-08 4.19998e-08 1.27428e-08)
(5.32195e-08 2.71095e-08 1.51546e-08)
(1.07149e-07 1.60618e-07 4.94071e-08)
(1.30583e-07 1.19152e-07 5.99512e-08)
(2.31797e-10 1.67138e-10 1.17951e-10)
(2.36819e-06 2.30192e-06 8.04745e-07)
(4.24032e-09 3.66616e-09 1.4603e-09)
(2.58767e-09 1.17869e-09 1.07093e-09)
(9.63173e-12 2.55136e-12 2.80565e-12)
(4.65983e-09 3.8574e-09 2.67951e-09)
(1.24802e-11 7.00161e-12 6.10528e-12)
(9.34349e-11 3.9271e-11 2.64915e-11)
(1.00184e-10 4.0626e-11 4.94498e-11)
(3.31157e-10 1.879e-10 1.31835e-10)
(3.31803e-12 7.62114e-13 9.86921e-13)
(8.04881e-13 1.99399e-13 2.81843e-13)
(6.72602e-12 3.03848e-12 3.06794e-12)
(1.10836e-11 4.38838e-12 2.61049e-12)
(1.4169e-13 2.49478e-14 3.89233e-14)
(2.36256e-11 1.17121e-11 1.02312e-11)
(2.77408e-13 7.3159e-14 8.9268e-14)
(3.66837e-13 7.90173e-14 3.08686e-14)
(8.38495e-08 1.21199e-07 6.0486e-08)
(1.96699e-08 2.45648e-07 1.06338e-07)
(7.25965e-08 7.86629e-08 4.91035e-08)
(2.49704e-09 1.60381e-09 9.89433e-10)
(1.15234e-07 3.74242e-07 1.8186e-07)
(5.91236e-09 1.37647e-08 6.60321e-09)
(6.46524e-08 6.43901e-08 4.13159e-08)
(4.52002e-09 7.65702e-09 5.10175e-09)
(1.29201e-10 8.63763e-11 8.68143e-11)