/*--------------------------------*- C++ -*----------------------------------*\
  =========                 |
  \\      /  F ield         | OpenFOAM: The Open Source CFD Toolbox
   \\    /   O peration     | Website:  https://openfoam.org
    \\  /    A nd           | Version:  9
     \\/     M anipulation  |
\*---------------------------------------------------------------------------*/
FoamFile
{
    format      ascii;
    class       surfaceScalarField;
    location    "0.0015";
    object      phi;
}
// * * * * * * * * * * * * * * * * * * * * * * * * * * * * * * * * * * * * * //

dimensions      [0 3 -1 0 0 0 0];

internalField   nonuniform List<scalar> 
36196
(
0
0
0
0
0
0
0
0
0
0
-7.10543e-15
0
0
0
0
-1.7053e-13
0
0
-2.84217e-14
0
-5.7554e-12
7.4607e-14
-7.10543e-15
-1.27898e-12
5.68434e-14
-1.65876e-10
2.82441e-12
-3.76588e-13
-4.91553e-11
2.30926e-12
8.95746e-11
-4.4496e-09
-2.02434e-11
7.21343e-11
-1.53037e-09
0
0
0
0
0
0
0
0
0
0
0
0
-7.10543e-15
0
0
0
-1.98952e-13
3.55271e-15
0
0
-5.69855e-12
1.13687e-13
-1.42109e-14
7.81597e-14
3.72324e-12
-1.45015e-10
-7.31859e-13
2.47269e-12
0
0
0
0
0
0
0
0
0
0
0
0
0
0
0
0
-7.10543e-15
0
0
0
-1.63425e-13
3.55271e-15
0
0
1.20792e-13
-4.08562e-12
-2.13163e-14
7.10543e-14
0
0
0
0
0
0
0
0
0
0
0
0
0
0
0
0
0
0
0
0
0
0
0
0
3.55271e-15
-9.9476e-14
0
0
0
0
0
0
0
0
0
0
0
0
0
0
0
0
0
0
0
0
0
0
0
1.02329e-10
-2.42495e-09
-3.06434e-09
-2.64961e-11
7.14522e-11
3.44258e-12
-8.09521e-11
-6.82121e-13
2.05347e-12
9.59233e-14
-1.9682e-12
-1.42109e-14
4.9738e-14
-4.26326e-14
0
0
-1.20332e-07
-8.12712e-10
-4.44906e-08
2.0061e-09
7.83728e-08
-1.36112e-08
-2.28626e-07
-1.59341e-06
-1.16614e-06
-1.59065e-07
-1.07591e-06
5.18983e-08
-1.44069e-07
-6.58461e-07
-1.03105e-07
2.66276e-09
-4.87795e-08
-6.2473e-10
1.73918e-09
8.30802e-11
-1.13219e-09
-1.58664e-11
4.89422e-11
2.29505e-12
-2.74056e-11
-3.62377e-13
1.20082e-12
-6.03961e-13
-7.10543e-15
2.13163e-14
-2.09079e-06
7.20109e-06
-7.38487e-05
-6.32399e-05
2.10015e-06
6.17812e-06
5.1611e-08
-6.55834e-09
-8.98523e-07
-1.2723e-07
-6.93939e-07
-1.00806e-07
3.00811e-08
1.46255e-09
-2.25825e-10
8.41311e-10
4.02345e-11
-5.4996e-12
2.10321e-11
-1.20792e-13
4.68958e-13
-6.61848e-09
1.6847e-11
1.25212e-10
1.33014e-11
3.15481e-12
8.97835e-10
7.53829e-10
1.56045e-09
-6.15767e-08
-5.60698e-08
-5.54365e-08
-6.05236e-08
1.66766e-08
3.36568e-07
3.00345e-08
-8.49964e-09
-1.16567e-06
-1.11779e-06
-1.16397e-06
-1.11394e-06
-7.54198e-05
3.42855e-07
-3.19859e-07
5.97935e-06
-1.26468e-07
5.16084e-07
-9.05636e-10
7.76978e-12
2.61622e-11
4.38405e-12
6.44462e-12
-3.16482e-08
3.04123e-10
1.58764e-10
1.45413e-10
-5.32634e-07
1.23593e-08
4.5759e-09
-1.0414e-07
-9.98458e-08
-5.13184e-07
3.12392e-09
-8.57866e-09
-2.11088e-08
-2.03174e-08
-8.50339e-09
-1.59952e-07
1.06457e-07
9.47083e-09
1.53952e-08
-2.50149e-06
-1.32456e-06
-2.63864e-06
-1.31404e-06
-1.90675e-07
-1.90768e-07
-2.08623e-07
0.000871367
-0.0234035
-4.32028e-05
0.000257665
0.000155895
-0.00159051
-2.49585e-10
6.70042e-12
1.36069e-12
1.07292e-12
-2.13163e-14
-1.11834e-08
5.07789e-11
3.81419e-11
-1.78346e-12
2.04009e-09
1.30312e-09
1.13252e-09
-1.03304e-07
-1.58228e-07
-1.57916e-07
-1.03013e-07
2.39548e-08
-1.35786e-06
1.45709e-09
-6.8361e-08
3.43317e-07
4.21046e-09
5.19264e-07
-1.54091e-05
2.11429e-07
4.1934e-06
-1.04869e-06
-1.15235e-07
0
0
0
0
0
0
0
0
0
0
0
0
0
0
0
0
0
0
0
0
0
0
0
0
0
0
0
-5.68434e-14
0
0
0
0
0
0
0
0
0
0
0
0
0
0
0
0
0
0
0
0
0
0
0
0
0
-2.13163e-14
-1.13687e-13
0
-2.70717e-12
7.10543e-15
0
0
0
0
0
0
0
0
0
0
0
0
0
0
0
0
0
0
0
0
0
-7.10543e-14
-1.56319e-13
0
-1.25766e-12
-5.20117e-12
1.42109e-14
-1.24039e-10
3.97904e-13
0
0
0
0
0
0
0
0
0
0
0
0
0
0
0
0
0
0
-1.20792e-13
-1.42109e-13
3.55271e-15
-3.21165e-12
-6.25988e-12
2.84217e-14
-6.31672e-11
-2.24922e-10
7.99361e-13
-4.91397e-09
1.94404e-11
0
0
0
0
0
0
0
0
0
0
0
0
0
0
0
-1.56319e-13
-9.23706e-14
-3.55271e-15
-5.60618e-12
-4.62563e-12
2.4869e-14
-1.53136e-10
-2.19273e-10
1.08358e-12
-3.20623e-09
-7.81787e-09
3.80922e-11
-2.6848e-08
7.88337e-10
-3.89848e-08
-1.91035e-08
-1.99443e-08
0
0
0
0
0
0
0
0
0
0
0
0
-1.42109e-13
-4.26326e-14
3.55271e-15
-6.13909e-12
-1.98952e-12
2.13163e-14
-2.39218e-10
-1.06034e-10
9.91207e-13
-6.37625e-09
-5.19171e-09
4.48779e-11
1.37911e-09
-1.55489e-08
-3.61828e-08
-1.93314e-08
-2.39564e-08
-2.88373e-08
-5.69233e-08
-3.47348e-08
-4.20431e-08
7.73951e-09
-4.97817e-09
-2.22502e-07
3.81519e-08
0
0
0
0
0
0
0
0
0
-7.81597e-14
-7.10543e-15
0
-4.07141e-12
-5.25802e-13
1.06581e-14
-1.94888e-10
-2.69793e-11
5.79092e-13
-7.59212e-09
-1.43982e-09
3.0326e-11
1.26066e-09
-2.98096e-08
-5.79611e-08
-3.64696e-08
-4.39336e-08
-1.35237e-08
-2.17496e-08
-1.37062e-08
-1.6063e-08
-4.81779e-06
1.32979e-07
5.26275e-07
5.86172e-07
-6.54314e-06
-4.53006e-06
-1.13694e-06
-1.04408e-06
-3.36154e-06
-8.65812e-07
-8.21455e-07
3.04627e-07
6.98758e-07
-4.29071e-07
-4.69009e-06
1.00072e-06
0
0
0
0
0
0
-2.84217e-14
0
0
-1.52056e-12
0
-1.20792e-13
-7.5481e-11
2.0961e-13
-5.64171e-12
-3.34431e-09
1.09388e-11
-2.72188e-10
5.2642e-10
-1.62492e-08
-2.7012e-08
-2.10227e-08
-1.77115e-08
-2.03117e-08
-6.9744e-07
-1.90454e-06
5.65565e-08
2.60294e-07
1.7413e-07
-1.45624e-06
-6.56559e-07
-6.41909e-07
-6.49654e-07
-7.56615e-07
-7.42848e-07
-0.184701
0.00292301
0.0150822
0.0204255
-0.364134
0
0
0
0
0
0
0
0
0
0
0
0
0
0
0
0
0
0
0
0
0
0
0
0
0
0
0
-1.42109e-14
0
0
0
0
0
0
0
0
0
0
0
0
0
0
0
0
0
0
0
0
0
0
0
0
0
-7.10543e-15
-2.13163e-14
0
-5.25802e-13
0
0
0
0
0
0
0
0
0
0
0
0
0
0
0
0
0
0
0
0
0
0
-1.42109e-14
-2.84217e-14
0
-2.4869e-13
-9.52127e-13
3.55271e-15
-2.0691e-11
1.24345e-13
0
0
0
0
0
0
0
0
0
0
0
0
0
0
0
0
0
0
-2.13163e-14
-2.84217e-14
0
-6.18172e-13
-1.10845e-12
7.10543e-15
-1.05729e-11
-3.40492e-11
2.38032e-13
-7.50269e-10
5.38947e-12
0
0
0
0
0
0
0
0
0
0
0
0
0
0
0
-2.84217e-14
-2.13163e-14
0
-1.00897e-12
-8.45546e-13
7.10543e-15
-2.46629e-11
-3.24576e-11
3.19744e-13
-4.18993e-10
-1.08148e-09
9.83391e-12
-2.8393e-08
2.06143e-10
0
0
0
0
0
0
0
0
0
0
0
0
-2.84217e-14
-7.10543e-15
0
-1.08713e-12
-4.05009e-13
3.55271e-15
-3.54916e-11
-1.74225e-11
2.8777e-13
-9.26406e-10
-7.07452e-10
1.12301e-11
-2.0298e-08
-3.25091e-08
3.40897e-10
-9.43652e-07
9.26645e-09
-1.35362e-07
-7.54939e-08
-4.01512e-08
-3.87862e-08
-4.87002e-09
-9.28905e-09
0
0
0
0
0
0
0
0
0
-1.42109e-14
0
0
-7.60281e-13
-1.20792e-13
3.55271e-15
-2.93596e-11
-5.56355e-12
1.77636e-13
-1.03298e-09
-2.33626e-10
7.90124e-12
-3.595e-08
-1.07472e-08
3.03942e-10
1.3643e-08
-7.29821e-08
-1.07521e-06
-4.25635e-08
-1.48511e-07
-6.00296e-08
-7.75696e-07
-3.18095e-08
-1.02943e-07
-6.3708e-08
-9.54009e-09
-1.36204e-08
-1.32852e-08
2.4603e-07
5.62103e-07
-1.69285e-05
-2.30311e-06
-1.5755e-06
-9.34388e-07
-9.58649e-07
-2.13812e-07
-3.36745e-07
0
0
0
0
0
0
-7.10543e-15
0
0
-3.19744e-13
0
-2.84217e-14
-1.3344e-11
7.10543e-14
-1.30029e-12
-5.04912e-10
3.22231e-12
-5.6751e-11
-1.91115e-08
1.36055e-10
-2.26415e-09
5.90045e-09
-1.37969e-07
-5.95279e-07
-8.58952e-08
-6.22027e-08
-2.83745e-08
-1.64463e-08
-2.13576e-08
-9.54001e-09
-2.7041e-08
-5.08404e-09
-4.3657e-09
-6.06919e-09
5.93838e-06
-0.000342421
-0.000119065
-4.44436e-05
9.55185e-06
1.45638e-05
4.5026
2.46629
4.76347
-5.68445
-2.55818
0
0
0
0
0
0
0
0
0
0
0
0
0
0
0
0
0
0
0
0
0
0
0
0
0
0
0
0
0
0
0
0
0
0
0
0
0
0
0
0
0
0
0
0
0
0
0
0
0
0
0
0
0
0
0
0
-8.52651e-14
0
0
0
0
0
0
0
0
0
0
0
0
0
0
0
0
0
0
0
0
0
0
0
-7.10543e-15
0
-4.26326e-14
-1.35003e-13
0
-3.29692e-12
1.42109e-14
0
0
0
0
0
0
0
0
0
0
0
0
0
0
0
0
0
0
0
-7.10543e-15
0
-9.23706e-14
-1.49214e-13
0
-1.81188e-12
-4.75353e-12
2.84217e-14
-1.167e-10
6.89226e-13
0
0
0
0
0
0
0
0
0
0
0
0
0
0
0
-7.10543e-15
0
0
-1.42109e-13
-1.20792e-13
0
-3.70903e-12
-4.41958e-12
3.55271e-14
-7.16156e-11
-1.41171e-10
1.15463e-12
-4.08507e-09
2.75513e-11
0
0
0
0
0
0
0
0
0
0
0
0
-7.10543e-15
0
0
-1.49214e-13
-6.39488e-14
0
-4.85301e-12
-2.63611e-12
3.55271e-14
-1.29056e-10
-9.89218e-11
1.27898e-12
-2.76881e-09
-3.56982e-09
4.08704e-11
1.19072e-09
-5.64221e-08
-3.66788e-08
-5.60413e-08
-5.5958e-08
0
0
0
0
0
0
0
0
0
0
0
0
-1.13687e-13
-2.13163e-14
0
-4.08562e-12
-1.00897e-12
2.13163e-14
-1.35124e-10
-4.16946e-11
9.30811e-13
-4.24852e-09
-1.60674e-09
3.58966e-11
-6.51828e-08
1.4367e-09
-4.90826e-08
-3.27223e-08
-4.90119e-08
-4.94266e-08
1.7262e-08
-3.93509e-07
1.13188e-07
-5.85651e-08
9.83267e-08
0
0
0
0
0
0
0
0
0
-4.9738e-14
0
-7.10543e-15
-2.18847e-12
1.06581e-14
-2.62901e-13
-8.15135e-11
4.40536e-13
-1.16032e-11
-2.74748e-09
1.83604e-11
-4.91092e-10
-8.9271e-08
7.78705e-10
-1.84275e-08
4.14434e-08
-6.90656e-08
-4.88245e-07
-2.4127e-06
-2.58409e-07
-1.2642e-07
-6.78193e-07
-5.67624e-08
-2.26103e-08
-6.22503e-08
-1.66916e-07
-7.26478e-07
-1.11605e-07
2.54766e-06
-4.10941e-06
7.62041e-07
-5.16689e-06
-1.30883e-06
3.8343e-06
0
0
0
0
0
0
0
0
0
0
0
0
0
0
0
0
0
0
0
0
0
0
0
0
0
0
0
0
0
0
0
0
0
0
0
0
0
0
0
0
0
0
0
0
0
0
0
0
0
0
0
0
0
0
0
0
-7.10543e-15
0
0
0
0
0
0
0
0
0
0
0
0
0
0
0
0
0
0
0
0
0
0
0
0
0
-7.10543e-15
-1.42109e-14
0
-4.12115e-13
0
0
0
0
0
0
0
0
0
0
0
0
0
0
0
0
0
0
0
0
0
0
-1.42109e-14
-2.13163e-14
0
-2.41585e-13
-5.96856e-13
3.55271e-15
-1.48432e-11
9.59233e-14
0
0
0
0
0
0
0
0
0
0
0
0
0
0
0
0
0
0
-1.42109e-14
-1.42109e-14
0
-4.68958e-13
-5.68434e-13
3.55271e-15
-9.13758e-12
-1.82041e-11
1.52767e-13
-5.36488e-10
3.71259e-12
0
0
0
0
0
0
0
0
0
0
0
0
0
0
0
-2.13163e-14
-7.10543e-15
0
-6.11067e-13
-3.69482e-13
3.55271e-15
-1.62856e-11
-1.37419e-11
1.66978e-13
-3.69987e-10
-5.12536e-10
5.21538e-12
-1.88017e-08
1.42737e-10
0
0
0
0
0
0
0
0
0
0
0
0
-1.42109e-14
0
0
-5.40012e-13
-1.56319e-13
3.55271e-15
-1.78133e-11
-6.30962e-12
1.24345e-13
-5.66573e-10
-2.56435e-10
4.68958e-12
-1.65726e-08
-1.1371e-08
1.66168e-10
6.07931e-09
-7.42348e-08
-1.11341e-07
-9.72363e-08
-9.97167e-08
-2.33171e-08
-2.31817e-08
-2.33193e-08
0
0
0
0
0
0
0
0
0
-7.10543e-15
0
0
-3.12639e-13
0
-4.26326e-14
-1.19584e-11
6.39488e-14
-1.8332e-12
-4.50918e-10
2.67875e-12
-7.52109e-11
-1.68916e-08
1.08098e-10
-3.3136e-09
4.69594e-09
-3.08263e-08
-8.03312e-08
-1.14888e-07
-9.56423e-08
-1.1118e-07
-3.99863e-08
-3.98204e-08
-4.0795e-08
6.46596e-08
-1.43516e-06
3.03677e-07
3.37471e-07
-3.13112e-07
0
0
0
0
0
0
0
0
0
0
0
0
0
0
0
0
0
0
0
0
0
0
0
0
0
0
0
0
0
0
0
0
0
0
0
0
0
0
0
0
0
0
0
0
0
0
0
0
0
0
0
0
0
0
0
0
0
0
0
0
0
0
0
0
0
0
0
0
0
0
0
0
0
0
0
0
0
0
0
0
0
0
0
0
0
-2.84217e-14
0
0
0
0
0
0
0
0
0
0
0
0
0
0
0
0
0
0
0
0
0
0
0
0
0
-1.42109e-14
-4.26326e-14
0
-1.09424e-12
7.10543e-15
0
0
0
0
0
0
0
0
0
0
0
0
0
0
0
0
0
0
0
0
0
-2.84217e-14
-3.55271e-14
0
-7.03437e-13
-1.3145e-12
1.42109e-14
-3.56479e-11
3.6593e-13
0
0
0
0
0
0
0
0
0
0
0
0
0
0
0
0
0
0
-4.26326e-14
-2.84217e-14
0
-1.1795e-12
-1.02318e-12
1.77636e-14
-2.5544e-11
-3.45963e-11
5.04485e-13
-1.09102e-09
1.31557e-11
0
0
0
0
0
0
0
0
0
0
0
0
0
0
0
-3.55271e-14
-7.10543e-15
0
-1.29319e-12
-5.04485e-13
1.06581e-14
-3.72964e-11
-1.93907e-11
4.61853e-13
-9.4392e-10
-7.36563e-10
1.53619e-11
-2.49404e-08
4.85912e-10
0
0
0
0
0
0
0
0
0
0
0
0
-2.13163e-14
0
0
-9.09495e-13
7.10543e-15
-1.49214e-13
-3.15694e-11
2.84217e-13
-6.34515e-12
-1.04363e-09
1.08109e-11
-2.5328e-10
-2.75302e-08
4.20883e-10
-1.0183e-08
1.51362e-08
-1.33555e-07
-5.4667e-08
-5.32742e-08
-6.31423e-08
-3.60055e-08
-3.93424e-08
-4.1848e-08
0
0
0
0
0
0
0
0
0
0
0
0
0
0
0
0
0
0
0
0
0
0
0
0
0
0
0
0
0
0
0
0
0
0
0
0
0
0
0
0
0
0
0
0
0
0
0
0
0
0
0
0
0
0
0
0
0
0
0
0
0
0
0
0
0
0
0
0
0
0
0
0
0
0
0
0
0
0
0
0
0
0
0
0
0
0
0
0
0
0
0
0
0
0
0
0
0
0
0
0
0
0
0
0
0
0
0
0
0
0
0
0
0
0
-4.26326e-14
0
0
0
0
0
0
0
0
0
0
0
0
0
0
0
0
0
0
0
0
0
0
0
0
0
-2.84217e-14
-5.68434e-14
0
-1.42819e-12
2.4869e-14
0
0
0
0
0
0
0
0
0
0
0
0
0
0
0
0
0
0
0
0
0
-5.68434e-14
-4.9738e-14
0
-1.05871e-12
-1.38556e-12
3.19744e-14
-3.75309e-11
7.81597e-13
0
0
0
0
0
0
0
0
0
0
0
0
0
0
0
0
0
0
-5.68434e-14
-2.13163e-14
0
-1.47793e-12
-8.17124e-13
2.84217e-14
-3.26281e-11
-2.67377e-11
8.95284e-13
-8.04071e-10
2.46949e-11
0
0
0
0
0
0
0
0
0
0
0
0
0
0
0
-3.55271e-14
0
-7.10543e-15
-1.27898e-12
1.77636e-14
-2.84217e-13
-3.64366e-11
6.57252e-13
-1.04521e-11
-8.97394e-10
2.22187e-11
-3.55499e-10
6.95824e-10
-1.14222e-08
0
0
0
0
0
0
0
0
0
0
0
0
0
0
0
0
0
0
0
0
0
0
0
0
0
0
0
0
0
0
0
0
0
0
0
0
0
0
0
0
0
0
0
0
0
0
0
0
0
0
0
0
0
0
0
0
0
0
0
0
0
0
0
0
0
0
0
0
0
0
0
0
0
0
0
0
0
0
0
0
0
0
0
0
0
0
0
0
0
0
0
0
0
0
0
0
0
0
0
0
0
0
0
0
0
0
0
0
0
0
0
0
0
0
0
0
0
0
0
0
0
0
0
0
0
0
0
0
0
0
0
0
0
0
0
0
0
0
0
0
0
0
0
-4.26326e-14
0
0
0
0
0
0
0
0
0
0
0
0
0
0
0
0
0
0
0
0
0
0
0
0
0
-2.84217e-14
-4.9738e-14
0
-1.07292e-12
3.19744e-14
0
0
0
0
0
0
0
0
0
0
0
0
0
0
0
0
0
0
0
0
0
-4.9738e-14
-2.13163e-14
0
-9.45022e-13
-7.81597e-13
3.55271e-14
-1.98668e-11
8.95284e-13
0
0
0
0
0
0
0
0
0
0
0
0
0
0
0
0
0
0
-3.55271e-14
0
-7.10543e-15
-1.0445e-12
2.4869e-14
-3.2685e-13
-2.2041e-11
8.13571e-13
-9.78417e-12
2.1803e-11
-2.47312e-10
0
0
0
0
0
0
0
0
0
0
0
0
0
0
0
0
0
0
0
0
0
0
0
0
0
0
0
0
0
0
0
0
0
0
0
0
0
0
0
0
0
0
0
0
0
0
0
0
0
0
0
0
0
0
0
0
0
0
0
0
0
0
0
0
0
0
0
0
0
0
0
0
0
0
0
0
0
0
0
0
0
0
0
0
0
0
0
0
0
0
0
0
0
0
0
0
0
0
0
0
0
0
0
0
0
0
0
0
0
0
0
0
0
0
0
0
0
0
0
0
0
0
0
0
0
0
0
0
0
0
0
0
0
0
0
0
0
0
0
0
0
0
0
0
0
0
0
0
0
0
0
0
0
0
0
0
0
0
0
0
0
0
0
0
0
0
0
0
0
0
0
0
-2.13163e-14
0
0
0
0
0
0
0
0
0
0
0
0
0
0
0
0
0
0
0
0
0
0
0
0
0
-2.13163e-14
-1.42109e-14
0
-4.68958e-13
2.4869e-14
0
0
0
0
0
0
0
0
0
0
0
0
0
0
0
0
0
0
0
0
0
-2.13163e-14
0
-7.10543e-15
-5.11591e-13
2.13163e-14
-2.4869e-13
5.93303e-13
-5.4925e-12
0
0
0
0
0
0
0
0
0
0
0
0
0
0
0
0
0
0
0
0
0
0
0
0
0
0
0
0
0
0
0
0
0
0
0
0
0
0
0
0
0
0
0
0
0
0
0
0
0
0
0
0
0
0
0
0
0
0
0
0
0
0
0
0
0
0
0
0
0
0
0
0
0
0
0
0
0
0
0
0
0
0
0
0
0
0
0
0
0
0
0
0
0
0
0
0
0
0
0
0
0
0
0
0
0
0
0
0
0
0
0
0
0
0
0
0
0
0
0
0
0
0
0
0
0
0
0
0
0
0
0
0
0
0
0
0
0
0
0
0
0
0
0
0
0
0
0
0
0
0
0
0
0
0
0
0
0
0
0
0
0
0
0
0
0
0
0
0
0
0
0
0
0
0
0
0
0
0
0
0
0
0
0
0
0
0
0
0
0
0
0
0
0
0
0
0
0
0
0
0
0
-7.10543e-15
0
0
0
0
0
0
0
0
0
0
0
0
0
0
0
0
0
0
0
0
0
0
0
0
0
-7.10543e-15
0
-7.10543e-15
1.42109e-14
-1.20792e-13
0
0
0
0
0
0
0
0
0
0
0
0
0
0
0
0
0
0
0
0
0
0
0
0
0
0
0
0
0
0
0
0
0
0
0
0
0
0
0
0
0
0
0
0
0
0
0
0
0
0
0
0
0
0
0
0
0
0
0
0
0
0
0
0
0
0
0
0
0
0
0
0
0
0
0
0
0
0
0
0
0
0
0
0
0
0
0
0
0
0
0
0
0
0
0
0
0
0
0
0
0
0
0
0
0
0
0
0
0
0
0
0
0
0
0
0
0
0
0
0
0
0
0
0
0
0
0
0
0
0
0
0
0
0
0
0
0
0
0
0
0
0
0
0
0
0
0
0
0
0
0
0
3.41061e-13
3.19744e-13
2.57216e-12
4.9738e-14
1.91847e-13
1.06581e-13
7.24754e-13
0
3.19744e-14
2.84217e-14
1.77636e-13
7.10543e-15
-1.30029e-12
0
2.84217e-14
3.55271e-15
0
-4.82672e-11
2.34479e-13
2.41585e-13
2.84217e-13
-1.55168e-09
9.01679e-12
9.86233e-12
1.20082e-11
-4.23113e-08
2.72038e-10
3.73934e-10
4.25523e-10
-1.33788e-07
5.2459e-09
1.31449e-08
-4.08162e-07
-4.03175e-07
-1.31495e-07
6.68983e-09
-2.75187e-08
-2.43617e-08
-2.74297e-08
8.39661e-08
-9.50098e-07
-1.71079e-07
-1.02015e-09
1.74754e-08
0
0
0
-7.10543e-15
0
0
-3.41061e-13
-1.42109e-14
0
-1.56959e-11
-8.95284e-13
4.26326e-14
-7.50383e-10
-4.09557e-11
2.31282e-12
-4.11958e-08
-1.71654e-09
1.13509e-10
-1.54532e-08
4.54796e-09
-2.50751e-07
-9.36052e-08
-1.64409e-06
-5.62382e-07
-8.06619e-08
-1.29529e-08
-4.1314e-08
-1.55796e-05
1.27288e-07
-3.13336e-06
3.52883e-06
0.041661
-1.40357
0.222342
-2.06924
0
0
0
-7.10543e-14
0
0
-3.4035e-12
-9.9476e-14
7.10543e-15
-1.34762e-10
-4.78906e-12
4.93827e-13
-4.38997e-09
-1.98611e-10
2.29861e-11
-2.03771e-08
-9.04439e-09
9.62089e-10
-6.49552e-08
-1.61606e-08
-2.87744e-08
-2.03054e-07
-3.31613e-08
2.12455e-09
-1.31108
0.094469
0.453294
0.483989
-4.20811
-7.10543e-15
0
0
-3.62377e-13
-7.10543e-15
0
-1.54259e-11
-4.12115e-13
4.9738e-14
-6.97014e-10
-1.7522e-11
2.2311e-12
-3.57778e-08
-7.74797e-10
1.02503e-10
-3.51712e-07
3.83821e-09
-9.52642e-07
-1.99671e-07
-4.15371e-07
-1.01084e-08
-1.68131e-08
-8.62977e-09
-1.24979e-08
-3.16968e-07
3.90784e-08
8.8723e-08
-1.44694e-06
-1.18338e-06
-1.09895e-06
-1.64405e-06
0.20593
-2.02815
1.2809
-6.65489
-2.84217e-14
0
0
-1.37135e-12
-7.10543e-15
0
-6.74376e-11
1.81188e-13
-3.62011e-09
8.92797e-12
4.91049e-10
-3.10028e-08
-3.38929e-08
-3.03717e-08
-4.13891e-08
1.11079e-08
-1.51909e-06
-1.34364e-08
-1.64481e-08
1.38233e-07
1.58326e-08
-0.000294746
-0.0104182
-0.000172471
0.000108479
0.000378772
0.000130933
-5.68434e-14
0
0
7.10543e-15
0
0
0
0
0
0
0
-8.52651e-14
0
0
-3.59535e-12
-2.20268e-13
1.77636e-14
-1.35792e-10
-9.79128e-12
8.2423e-13
-4.36095e-09
-4.3098e-10
3.57687e-11
-4.68854e-09
1.44072e-09
-1.68528e-08
-1.01299e-08
-1.35839e-07
-1.90082e-08
-7.23758e-09
-4.4881e-09
-4.17194e-09
-5.21856e-07
-3.24244e-07
1.90576e-07
5.33347e-08
-1.92109e-06
-4.06595e-07
-5.69125e-07
-4.20999e-07
-5.44013e-07
-5.7604e-07
-5.71193e-07
-0.0048494
-0.0164652
0.000682547
0.00207998
-0.050381
0.00133265
0
0
0
-1.42109e-14
0
0
-7.88702e-13
-2.84217e-14
3.55271e-15
-3.50582e-11
-1.22924e-12
1.81188e-13
-1.50486e-09
-5.58202e-11
7.83018e-12
-9.70542e-09
-2.34806e-09
3.31255e-10
-1.20731e-08
-1.40248e-08
-9.86852e-09
-4.45902e-09
-4.64994e-08
-7.4463e-09
4.78435e-09
-0.0141406
-0.013137
0.00188318
0.00275161
0.00578294
-0.137593
0
0
0
-1.06581e-13
0
0
-4.22062e-12
-1.35003e-13
2.84217e-14
-1.46507e-10
-5.15143e-12
1.19371e-12
-4.20342e-09
-1.74992e-10
4.60645e-11
-2.37242e-08
-5.06778e-09
1.45238e-09
-6.4238e-08
-1.2972e-08
-1.77797e-08
-2.25468e-08
-2.9614e-07
-2.53914e-08
8.57375e-09
9.52571e-09
-0.0596669
-0.0589825
0.0088027
0.0248196
-0.453774
-7.10543e-15
0
0
-3.83693e-13
0
0
-1.39124e-11
9.9476e-14
-4.73932e-10
4.14246e-12
-1.68533e-08
1.60181e-10
5.7307e-09
-5.98376e-08
-4.16488e-07
-2.83485e-07
-4.50542e-08
-4.67563e-09
-4.46173e-09
-5.62252e-09
-1.59921e-06
-2.0623e-07
6.85984e-07
2.20104e-07
-8.37833e-06
-1.54543e-06
-5.51787e-06
-1.13018e-06
-8.57855e-07
-4.71968e-07
-4.17212e-07
2.22529e-07
-0.0268412
-0.00255907
0.00436134
0.00193293
-0.0907952
0.00197714
-1.42109e-14
0
0
3.55271e-15
0
0
0
0
0
0
0
-1.42109e-14
0
0
-7.31859e-13
-4.9738e-14
0
-2.94662e-11
-2.25242e-12
1.3145e-13
-1.06921e-09
-9.74509e-11
5.79092e-12
-3.43811e-08
-4.21404e-09
2.48246e-10
-6.50395e-08
1.19729e-08
-1.13487e-07
-5.58424e-07
-1.38164e-07
-1.80441e-08
-5.85177e-09
-1.11771e-08
-1.00625e-07
-3.8777e-08
-8.31586e-08
-2.93263e-08
-3.40508e-08
-2.53632e-07
-4.5772e-08
-1.09628e-07
2.66537e-08
0
0
0
0
0
0
-1.63425e-13
-7.10543e-15
0
-7.18359e-12
-3.12639e-13
2.84217e-14
-3.06166e-10
-1.25766e-11
1.30385e-12
-1.1355e-08
-5.28559e-10
5.90461e-11
-2.2521e-08
2.69864e-09
-5.56149e-08
-8.97005e-08
-6.27457e-08
-5.97488e-08
-3.44915e-09
-4.63118e-09
-4.67542e-09
-6.09617e-09
5.18147e-08
-4.69614e-07
-5.24773e-06
1.38407e-07
-2.9497e-07
3.01836e-07
0
0
0
-2.84217e-14
0
0
-1.14397e-12
-3.55271e-14
3.55271e-15
-4.23555e-11
-1.34293e-12
2.06057e-13
-1.39651e-09
-4.82245e-11
8.32756e-12
-4.39796e-08
-1.72509e-09
3.50123e-10
1.41486e-08
-3.2686e-07
-7.17452e-07
-1.32744e-07
-2.69935e-07
-6.13229e-09
-1.74298e-08
-7.70071e-09
-5.07559e-08
-1.83961e-08
-2.21417e-08
-1.83602e-08
-1.8994e-08
1.52072e-06
-6.11824e-05
-4.89396e-06
-5.53234e-06
5.354e-06
1.62608e-06
0
0
0
-9.9476e-14
0
0
-3.55982e-12
1.42109e-14
-1.27436e-10
7.17648e-13
-5.56619e-09
2.76827e-11
1.04884e-09
-1.07492e-07
-6.83375e-08
-1.06798e-07
-1.06605e-07
1.68452e-08
-9.5017e-07
-1.94774e-08
-3.40102e-08
2.18722e-07
2.77556e-08
-0.000525086
-4.37086e-05
-2.83538e-05
2.928e-05
1.12387e-05
7.29701e-06
-7.10543e-15
0
0
0
0
0
0
0
0
0
0
0
0
0
-1.20792e-13
-7.10543e-15
0
-4.73221e-12
-3.55271e-13
2.13163e-14
-1.83007e-10
-1.51843e-11
9.5568e-13
-7.40389e-09
-6.25093e-10
4.00142e-11
-2.52818e-08
1.76655e-09
-5.43069e-08
-6.77466e-08
-6.02495e-08
-5.00135e-08
1.62668e-08
-1.93764e-07
-8.99354e-08
-3.84117e-08
1.30197e-07
0
0
0
0
0
0
-2.84217e-14
0
0
-1.15108e-12
-4.9738e-14
3.55271e-15
-4.45084e-11
-2.0961e-12
2.20268e-13
-1.56514e-09
-8.96634e-11
9.48575e-12
-5.05111e-08
-3.49882e-09
3.97137e-10
-8.02994e-08
1.56584e-08
-1.95097e-07
-1.11606e-06
-2.02756e-07
-8.48393e-08
-3.14394e-08
-3.09742e-08
-2.49989e-08
-2.40006e-08
-2.09628e-08
-2.35978e-08
1.06485e-06
-1.73975e-06
-1.54204e-06
2.25288e-06
1.25585e-06
-3.08416e-06
-8.18489e-06
-5.81328e-06
-4.03746e-05
-4.87432e-06
-1.45427e-06
-9.87566e-07
-3.70238e-06
-1.4046e-06
-1.6462e-06
0
0
0
0
0
0
-1.7053e-13
0
0
-7.69518e-12
-2.20268e-13
3.19744e-14
-3.16497e-10
-9.41469e-12
1.49214e-12
-1.07511e-08
-3.68679e-10
6.58744e-11
-1.23954e-08
2.78622e-09
-5.3351e-08
-7.53449e-08
-4.81139e-08
-4.9616e-08
-1.14983e-06
-3.22006e-07
-2.82031e-07
8.34653e-08
3.14077e-07
-1.22886e-06
-1.57544e-06
-1.33202e-06
0
0
0
-1.42109e-14
0
0
-6.96332e-13
3.55271e-15
-2.68159e-11
1.27898e-13
-8.94111e-10
5.3646e-12
-2.45307e-08
2.08445e-10
7.46374e-09
-2.58547e-07
-8.71145e-08
-1.47575e-07
-7.08703e-08
-1.69113e-08
-1.67823e-08
-1.45739e-08
-7.82536e-05
-1.50806e-06
4.63546e-06
1.62392e-06
1.35135e-06
-4.87028e-05
-1.78761e-05
-1.26278e-05
-4.10202e-06
-2.92363e-06
-1.5392e-06
-1.37295e-06
0
0
0
0
0
0
0
0
0
0
0
0
0
0
-7.10543e-15
0
0
-3.97904e-13
-2.84217e-14
3.55271e-15
-1.51203e-11
-1.35003e-12
1.06581e-13
-5.56867e-10
-5.59695e-11
4.4551e-12
-1.81223e-08
-2.25149e-09
1.83118e-10
-1.02469e-07
7.60086e-09
-6.52795e-08
-8.21005e-08
-6.27312e-08
-1.32354e-07
-2.29222e-08
-1.96893e-08
-2.02819e-08
0
0
0
0
0
0
0
0
0
-1.06581e-13
0
0
-4.04299e-12
-1.91847e-13
2.4869e-14
-1.48084e-10
-8.25651e-12
1.09779e-12
-5.18671e-09
-3.40037e-10
4.43698e-11
-1.94747e-07
-1.27207e-08
1.76296e-09
8.38671e-08
-1.34829e-07
-1.31121e-07
-6.13221e-08
-1.91396e-07
-5.0692e-07
-6.52959e-06
-9.85779e-07
-2.20944e-07
-5.85919e-07
-7.96976e-08
-1.18602e-07
0
0
0
0
0
0
-1.42109e-14
0
0
-6.96332e-13
-2.13163e-14
3.55271e-15
-2.92317e-11
-8.81073e-13
1.66978e-13
-1.08398e-09
-3.59108e-11
7.65255e-12
-3.13972e-08
-1.31552e-09
3.31553e-10
-4.29729e-08
1.21397e-08
-8.11546e-08
-1.58556e-07
-9.63727e-08
-3.7789e-07
-2.53038e-08
-4.3949e-08
-2.02839e-08
-2.00303e-08
0
0
0
0
0
0
-5.68434e-14
0
0
-2.57927e-12
-1.42109e-14
1.77636e-14
-9.43245e-11
-5.8975e-13
6.71463e-13
-3.06419e-09
-2.04565e-11
2.70681e-11
-9.42243e-08
-5.84762e-10
9.96742e-10
-1.06096e-08
3.74008e-08
-2.29793e-07
-1.87591e-07
-1.08603e-06
-1.37475e-06
-1.33859e-07
-2.07301e-07
-5.44425e-08
-4.13084e-08
0
0
0
0
0
0
-1.13687e-13
0
0
-4.60432e-12
2.84217e-14
7.10543e-15
-1.6373e-10
1.23279e-12
4.9738e-14
-5.21921e-09
4.78266e-11
5.06617e-12
-1.58909e-07
1.71822e-09
3.74001e-10
6.60046e-08
-3.45707e-07
-2.00567e-06
-3.30143e-07
-1.97443e-06
-3.37789e-07
-3.32225e-07
-8.25129e-08
1.3569e-08
0
0
0
0
0
0
0
0
0
0
0
0
-1.42109e-14
0
0
-6.60805e-13
-6.39488e-14
7.10543e-15
-2.16502e-11
-2.57927e-12
2.94875e-13
-6.56797e-10
-9.3614e-11
1.10916e-11
-1.63037e-08
-3.24763e-09
4.02107e-10
-4.24106e-08
1.26449e-08
-3.90108e-08
-4.60503e-08
-3.64029e-08
-8.30537e-08
-3.18238e-08
-4.23412e-08
-4.22045e-08
0
0
0
0
0
0
0
0
0
-7.10543e-15
0
0
-1.98952e-13
-7.10543e-15
0
-6.75726e-12
-4.05009e-13
7.81597e-14
-2.11699e-10
-1.58025e-11
3.04468e-12
-6.52264e-09
-5.62515e-10
1.1071e-10
-7.7813e-08
4.00544e-09
-1.77626e-08
-5.10008e-08
-7.77336e-08
-7.73909e-08
-1.26872e-07
-1.56131e-07
-7.42864e-08
1.27222e-07
0
0
0
0
0
0
0
0
0
-2.84217e-14
0
0
-1.37135e-12
-4.26326e-14
1.06581e-14
-5.00435e-11
-1.81188e-12
5.3646e-13
-1.53176e-09
-6.5981e-11
2.23466e-11
-2.10229e-09
8.19188e-10
-3.4804e-08
0
0
0
0
0
0
0
0
0
-1.27898e-13
0
0
-4.78906e-12
-2.84217e-14
4.61853e-14
-1.54223e-10
-1.00897e-12
1.97886e-12
-4.46758e-09
-3.20313e-11
7.24327e-11
-8.719e-10
2.41738e-09
-1.28069e-07
0
0
0
0
-7.10543e-15
0
-2.34479e-13
0
-8.54783e-12
8.88178e-14
-2.74305e-10
3.5314e-12
-8.03158e-09
1.26544e-10
4.23286e-09
-2.25948e-07
0
0
0
0
0
0
0
0
0
0
0
0
0
0
0
-2.13163e-14
0
0
-6.53699e-13
-8.52651e-14
1.06581e-14
-1.70033e-11
-2.91323e-12
4.33431e-13
-3.61013e-10
-8.48104e-11
1.37135e-11
-2.06983e-09
3.81018e-10
0
0
0
0
0
0
0
0
0
0
0
0
-7.10543e-15
0
0
-2.27374e-13
-7.10543e-15
3.55271e-15
-6.51568e-12
-5.32907e-13
1.3145e-13
-1.55943e-10
-1.75575e-11
4.4551e-12
-3.0014e-09
1.31667e-10
-4.89266e-10
3.57487e-09
-1.08866e-08
-6.6007e-08
-4.18016e-08
-6.59892e-08
-6.57027e-08
0
0
0
0
0
0
0
0
0
0
0
0
-4.26326e-14
0
0
-1.59162e-12
-6.39488e-14
2.13163e-14
-4.69598e-11
-2.30216e-12
9.34364e-13
-7.06777e-11
3.28981e-11
-1.05511e-09
0
0
0
0
0
0
0
0
0
-7.10543e-15
0
0
-1.63425e-13
0
3.55271e-15
-5.32197e-12
-3.55271e-14
8.88178e-14
-1.39359e-10
-1.15108e-12
3.24007e-12
-3.19105e-11
1.00599e-10
-2.92115e-09
0
0
0
0
0
0
-7.10543e-15
0
-3.05533e-13
3.55271e-15
-9.49285e-12
1.59872e-13
-2.49685e-10
5.78737e-12
1.79675e-10
-5.27604e-09
0
0
0
0
0
0
0
0
0
0
0
0
0
0
0
0
0
0
-1.42109e-14
0
0
-4.12115e-13
-7.10543e-14
1.06581e-14
-7.65255e-12
-2.0961e-12
3.90799e-13
-4.40536e-11
9.43956e-12
0
0
0
0
0
0
0
0
0
0
0
0
0
0
0
-7.10543e-15
0
0
-1.7053e-13
-7.10543e-15
3.55271e-15
-3.86535e-12
-4.68958e-13
1.38556e-13
-6.26059e-11
3.85114e-12
-1.22e-11
8.17693e-11
-2.37875e-10
0
0
0
0
0
0
0
0
0
0
0
0
0
0
0
-3.55271e-14
0
0
-1.1795e-12
-6.39488e-14
2.84217e-14
-1.95399e-12
9.87654e-13
-2.5878e-11
0
0
0
0
0
0
0
0
0
0
0
0
-7.10543e-15
0
0
-1.49214e-13
0
3.55271e-15
-3.82272e-12
-2.84217e-14
1.10134e-13
-9.23706e-13
3.2756e-12
-7.45075e-11
0
0
0
0
0
0
0
0
-7.10543e-15
0
-2.70006e-13
3.55271e-15
-6.74305e-12
1.95399e-13
5.83e-12
-1.30342e-10
0
0
0
0
0
0
0
0
0
0
0
0
0
0
0
0
0
0
0
0
0
-7.10543e-15
0
0
-1.63425e-13
-4.26326e-14
1.06581e-14
-9.66338e-13
2.23821e-13
0
0
0
0
0
0
0
0
0
0
0
0
0
0
0
0
0
0
0
0
0
-8.52651e-14
-7.10543e-15
3.55271e-15
-1.42109e-12
9.9476e-14
-2.84217e-13
2.0357e-12
-5.35039e-12
0
0
0
0
0
0
0
0
0
0
0
0
0
0
0
0
0
0
-2.13163e-14
0
0
-4.9738e-14
2.4869e-14
-5.68434e-13
0
0
0
0
0
0
0
0
0
0
0
0
0
0
0
0
0
0
-9.23706e-14
0
3.55271e-15
-2.13163e-14
8.88178e-14
-1.80478e-12
0
0
0
0
0
0
0
0
0
0
-7.10543e-15
0
-1.63425e-13
3.55271e-15
1.56319e-13
-3.09086e-12
0
0
0
0
0
0
0
0
0
0
0
0
0
0
0
0
0
0
-2.13163e-14
0
0
0
0
0
0
0
0
0
0
0
0
0
0
0
0
-2.84217e-14
0
-1.13687e-13
0
0
0
0
0
0
0
0
0
0
0
0
0
0
0
-7.10543e-15
0
0
0
0
0
0
0
0
0
0
0
0
0
0
0
-4.26326e-14
0
0
0
0
0
0
0
-6.39488e-14
-1.88904e-05
1.32651e-06
-4.39112e-06
-3.54565e-06
6.44688e-06
-1.73898e-05
-0.00119158
1.82281e-05
3.15799e-05
-8.88283e-05
9.5027e-08
-1.35225e-06
-6.87653e-07
-2.35939e-07
2.97299e-07
1.4808e-07
-4.75051e-08
5.19308e-08
-5.35223e-07
-1.79917e-06
1.67998e-06
2.56154e-06
-2.38876e-07
5.52373e-07
-1.5466e-05
-6.89508e-06
-7.63407e-06
-1.81679e-06
-2.16233e-06
-4.52617e-06
-4.62757e-06
-1.6971e-05
-5.67521e-08
2.32648e-08
-6.03561e-08
-1.29628e-07
-3.83466e-07
-7.05872e-08
-2.52581e-07
-4.46875e-08
-5.16775e-08
-7.48264e-07
7.12231e-07
9.1345e-07
-2.16951e-06
-1.07755e-06
-1.35135e-06
-6.01257e-06
3.8039e-07
-9.2727e-07
-7.64801e-07
-7.55918e-07
-3.80306e-08
8.569e-08
-1.31796e-06
-1.80988e-06
-1.73022e-07
-2.34067e-07
-1.19061e-07
-8.88744e-07
-1.15934e-06
2.63618e-06
-1.1939e-05
-1.10427e-05
-1.61186e-06
4.22462e-06
1.3092e-06
1.4791e-07
-2.29755e-07
-2.21042e-07
-1.53475e-06
-3.6398e-07
-2.63181e-06
-2.38637e-06
-3.43528e-07
9.9647e-06
-9.84894e-05
-7.36586e-07
-8.35629e-05
8.59757e-06
-1.5185e-08
-1.75601e-09
9.27336e-10
-3.07119e-08
1.59942e-08
-8.19731e-08
-2.24209e-07
-4.09311e-08
-4.90262e-08
-4.49253e-08
-7.757e-10
2.66361e-09
-1.05095e-08
4.9348e-08
-6.72636e-07
-9.56689e-07
-1.00317e-07
-1.29142e-07
-7.88194e-08
4.83817e-09
8.86684e-08
-1.38002e-06
-2.10981e-07
-1.29627e-06
-1.98755e-07
-3.84183e-10
-4.73719e-11
2.72244e-11
-8.08626e-10
5.18785e-10
-1.02173e-09
-2.16787e-11
7.91012e-11
-3.58817e-10
1.34011e-09
-1.70868e-09
1.41558e-10
2.38009e-09
-8.46967e-12
-1.13687e-12
6.75016e-13
-1.99449e-11
1.30953e-11
-2.49116e-11
-5.18696e-13
2.13518e-12
-8.7681e-12
3.65006e-11
-4.07709e-11
3.75522e-12
6.29505e-11
-1.7053e-13
-2.13163e-14
-4.40536e-13
-5.54223e-13
-7.10543e-15
-1.91847e-13
-9.09495e-13
0.000631074
-0.00581042
-0.000103348
0.0014199
0.00036049
-0.0253254
0.108992
-0.302722
-0.396152
0.145139
-1.71419
0.603763
2.42712
7.04251
-9.25321
-2.28376
-1.56629
1.34898
1.93906
1.22433
-7.2069
-1.51646
5.00828e-05
0.000130081
-0.00374045
-0.000224444
1.19463e-05
0.00434001
-0.108661
0.000473097
0.00210768
-0.00509948
3.01773e-06
1.89196e-06
8.65289e-06
-0.000209046
-8.34028e-06
-1.23987e-05
6.53054e-05
-0.00730565
-0.00032532
0.000111426
-0.000268805
0.000260589
-0.25585
-0.00944698
0.0922928
0.0434302
0.0283444
-0.979505
2.4911e-06
-7.77645e-05
1.01348e-06
9.1407e-06
-1.39483e-05
-3.10294e-07
0.000109004
-0.00165071
-6.40489e-06
4.37064e-05
1.65441e-05
-0.000122512
0.000107204
-7.2779e-06
-0.00162264
4.30185e-05
-0.000120817
0.148177
-0.0590708
0.24979
0.412722
-3.15995
-0.842578
4.3502e-07
9.36216e-07
1.97678e-06
-1.8496e-07
-2.33434e-06
-7.99907e-06
0.000382363
-0.00013748
-0.00566455
0.00138018
-0.0246095
0.000614098
0.181575
0.178758
0.328961
-2.74416
-0.708372
6.57161e-07
6.75273e-07
1.86789e-06
-1.04736e-06
-5.26902e-07
-3.92672e-06
1.14171e-05
-9.31085e-06
-0.000159334
4.46469e-06
-1.23671e-05
3.71822e-06
6.36377e-07
1.33321e-06
-1.65462e-06
-5.57988e-06
2.61702e-07
-0.00409089
0.000413372
0.00100173
-0.0180227
0.000442326
0.04008
-0.0860714
0.0245663
0.0575668
-0.684713
-0.133258
-0.00015815
-0.000502441
0.000129349
-0.00238436
6.71199e-05
5.32886e-05
1.22195e-05
-3.19768e-05
1.2968e-06
3.60528e-06
-0.000212213
-3.8144e-07
-2.04605
0.0754805
0.95437
0.0114856
0.538592
-5.52873
0.00494954
-0.0635326
0.000576164
0.0108011
-8.06247e-05
-0.208388
0.00419981
0.0023557
-0.0545678
-0.00104263
0.00917834
-0.179741
3.79425e-07
7.66549e-07
2.33149e-06
-2.12448e-07
-1.86931e-05
-3.35137e-06
0.00017076
-0.0227617
-6.29222e-05
0.000249594
-0.00155307
0.000844446
-1.96774
-0.111853
0.857041
0.252818
0.481604
-5.3093
-0.0255187
-0.117058
0.0147125
-0.288698
0.010071
8.04337e-06
-0.000391071
1.36441e-06
-8.77177e-05
3.34286e-07
1.34072e-06
2.88865e-06
-2.08472e-05
-1.14571e-06
-4.67096e-06
0.0146838
-0.307374
0.00189757
0.00830439
-0.0660772
0.670404
4.966
7.17328
-8.11583
-5.23177
0.000206611
-0.00106243
-0.0221211
0.000386893
-0.00309239
0.000794851
1.72474
-1.78597
3.06064
3.60076
-6.94245
-4.19829
6.32567e-07
-1.36077e-05
-2.41262e-06
3.37703e-07
-0.0171343
0.000190001
0.000185771
-0.00115053
0.000627903
-1.4969
-0.334381
0.506606
0.326291
0.271763
-4.09582
0.0859779
0.121716
-0.234903
-0.621722
0.177442
-1.88102
0.00816989
0.00697014
-0.0171134
0.015112
-0.290174
3.18082e-05
9.83195e-05
-8.41195e-05
-0.00282878
2.89099e-05
-0.000169749
2.57904e-07
4.60927e-07
8.11476e-07
-2.5016e-07
-3.28924e-06
-9.55817e-07
-0.0698936
0.0211915
0.0384963
-0.633503
5.15187e-07