# vtk DataFile Version 2.0
sampleSurface
ASCII
DATASET POLYDATA
POINTS 2369 float
-2.71051e-18 0 0.5 0.1 0 0.5 -1.35525e-18 -0.1 0.5 -1.35525e-18 0.1
0.5 -0.1 0 0.5 -0.1 -0.1 0.5 0.1 0.1 0.5
-0.1 0.1 0.5 0.1 -0.1 0.5 0 -0.2 0.5 -0.2
0 0.5 0.2 0 0.5 0 0.2 0.5 -0.2 -0.1
0.5 -0.1 -0.2 0.5 0.1 -0.2 0.5 -0.2 0.1 0.5
0.2 0.1 0.5 -0.1 0.2 0.5 0.2 -0.1 0.5 0.1
0.2 0.5 -0.2 -0.2 0.5 0.2 -0.2 0.5 -0.2 0.2
0.5 0.2 0.2 0.5 9.03502e-19 -0.3 0.5 -0.3 -8.42594e-34 0.5
0.3 0 0.5 2.03627e-33 0.3 0.5 -0.3 0.1 0.5 0.3
0.1 0.5 0.3 -0.1 0.5 -0.3 -0.1 0.5 0.1 -0.3
0.5 0.1 0.3 0.5 -0.1 0.3 0.5 -0.1 -0.3 0.5
-0.3 -0.2 0.5 -0.2 -0.3 0.5 0.2 -0.3 0.5 -0.3
0.2 0.5 0.3 -0.2 0.5 0.2 0.3 0.5 0.3 0.2
0.5 -0.2 0.3 0.5 1.807e-18 -0.4 0.5 -0.4 -3.37038e-33 0.5
0.4 0 0.5 6.21915e-33 0.4 0.5 0.1 -0.4 0.5 -0.1
-0.4 0.5 -0.4 0.1 0.5 -0.4 -0.1 0.5 0.4 -0.1
0.5 0.4 0.1 0.5 0.1 0.4 0.5 -0.1 0.4 0.5
0.3 -0.3 0.5 0.3 0.3 0.5 -0.3 0.3 0.5 -0.3
-0.3 0.5 0.2 -0.4 0.5 -0.2 -0.4 0.5 -0.4 0.2
0.5 -0.4 -0.2 0.5 0.4 -0.2 0.5 0.4 0.2 0.5
0.2 0.4 0.5 -0.2 0.4 0.5 -0.3 0.4 0.5 -0.4
0.3 0.5 9.03502e-19 -0.5 0.5 -0.4 -0.3 0.5 -0.3 -0.4
0.5 -0.5 -8.42594e-34 0.5 0.4 -0.3 0.5 0.3 -0.4 0.5
0.4 0.3 0.5 0.3 0.4 0.5 0.5 0 0.5 1.55479e-33
0.5 0.5 0.1 -0.5 0.5 -0.1 -0.5 0.5 -0.5 -0.1
0.5 0.1 0.5 0.5 -0.5 0.1 0.5 0.5 -0.1 0.5
0.5 0.1 0.5 -0.1 0.5 0.5 -0.433333 -0.3 0.5 -0.5
0.2 0.5 -0.2 -0.5 0.5 0.2 -0.5 0.5 -0.5 -0.2
0.5 0.5 -0.2 0.5 0.2 0.5 0.5 0.5 0.2 0.5
-0.2 0.5 0.5 -0.4 0.4 0.5 -0.4 -0.4 0.5 0.4
-0.4 0.5 0.4 0.4 0.5 -0.3 0.5 0.5 -0.3 -0.5
0.5 0.5 -0.3 0.5 0.3 -0.5 0.5 0.5 0.3 0.5
0.3 0.5 0.5 -0.5 0.3 0.5 -0.5 -0.3 0.5 0
-0.6 0.5 -0.6 0 0.5 0.6 0 0.5 0 0.6
0.5 0.6 0.05 0.5 0.6 -0.05 0.5 -0.6 0.1 0.5
-0.1 -0.6 0.5 0.1 -0.6 0.5 -0.6 -0.1 0.5 0.6
0.1 0.5 0.6 -0.1 0.5 0.1 0.6 0.5 -0.1 0.6
0.5 -0.5 -0.366667 0.5 -0.6 0.2 0.5 -0.2 -0.6 0.5
0.2 -0.6 0.5 -0.6 -0.2 0.5 0.6 -0.2 0.5 0.6
0.2 0.5 0.2 0.6 0.5 -0.2 0.6 0.5 -0.4 -0.5
0.5 -0.5 -0.4 0.5 -0.4 0.5 0.5 -0.5 0.4 0.5
0.5 -0.4 0.5 0.4 -0.5 0.5 0.5 0.4 0.5 0.4
0.5 0.5 0.65 0 0.5 0.65 0.05 0.5 0.65 -0.05
0.5 0.65 0.1 0.5 0.65 -0.1 0.5 -0.3 -0.6 0.5
0.6 -0.3 0.5 0.3 -0.6 0.5 -0.6 -0.3 0.5 0.6
0.3 0.5 0.3 0.6 0.5 -0.6 0.3 0.5 -0.3 0.6
0.5 -1.58113e-18 -0.7 0.5 0.7 0 0.5 0 0.7 0.5
-0.0333333 -0.7 0.5 0.7 0.05 0.5 0.7 -0.05 0.5 -0.1
0.7 0.5 0.5 0.5 0.5 0.7 0.1 0.5 0.7 -0.1
0.5 0.1 -0.7 0.5 0.5 -0.5 0.5 0.1 0.7 0.5
-0.1 -0.7 0.5 0.7 0.15 0.5 0.7 -0.15 0.5 -0.6
-0.4 0.5 -0.4 -0.6 0.5 0.6 -0.4 0.5 0.4 -0.6
0.5 0.6 0.4 0.5 0.4 0.6 0.5 -0.6 0.4 0.5
-0.4 0.6 0.5 -0.2 -0.7 0.5 0.2 -0.7 0.5 0.7
-0.2 0.5 0.7 0.2 0.5 0.2 0.7 0.5 -0.2 0.7
0.5 0.75 0 0.5 0.75 0.05 0.5 0.75 -0.05 0.5
0.75 0.1 0.5 0.75 -0.1 0.5 -0.3 0.7 0.5 0.3
-0.7 0.5 0.7 -0.3 0.5 0.7 0.3 0.5 0.3 0.7
0.5 0.75 0.15 0.5 0.75 -0.15 0.5 -0.1 -0.766667 0.5
0.75 -0.2 0.5 0.75 0.2 0.5 0.6 -0.5 0.5 0.5
-0.6 0.5 0.6 0.5 0.5 0.5 0.6 0.5 -0.8 0
0.5 -3.16226e-18 -0.8 0.5 0.8 0 0.5 0 0.8 0.5
0.8 0.05 0.5 0.8 -0.05 0.5 0.7 -0.4 0.5 0.4
-0.7 0.5 0.7 0.4 0.5 -0.4 0.7 0.5 0.4 0.7
0.5 0.1 -0.8 0.5 -0.1 -0.8 0.5 0.8 0.1 0.5
0.8 -0.1 0.5 0.1 0.8 0.5 -0.1 0.8 0.5 0.8
0.15 0.5 0.8 -0.15 0.5 -0.2 -0.8 0.5 -0.8 -0.2
0.5 0.2 -0.8 0.5 -0.8 0.2 0.5 0.8 -0.2 0.5
0.8 0.2 0.5 -0.2 0.8 0.5 0.2 0.8 0.5 0.8
-0.25 0.5 0.8 0.25 0.5 0.6 0.6 0.5 -0.6 -0.6
0.5 0.6 -0.6 0.5 -0.6 0.6 0.5 0.85 0 0.5
0.85 0.05 0.5 0.85 -0.05 0.5 0.3 0.8 0.5 0.8
-0.3 0.5 0.3 -0.8 0.5 0.8 0.3 0.5 -0.3 0.8
0.5 0.85 0.1 0.5 0.85 -0.1 0.5 0.7 -0.5 0.5
0.7 0.5 0.5 0.5 0.7 0.5 0.5 -0.7 0.5 0.85
0.15 0.5 0.85 -0.15 0.5 0.85 -0.2 0.5 0.85 0.2
0.5 0.85 -0.25 0.5 0.85 0.25 0.5 0.4 -0.8 0.5
0.4 0.8 0.5 -0.8 0.4 0.5 -0.8 -0.4 0.5 -0.4
-0.8 0.5 0.8 -0.4 0.5 0.8 0.4 0.5 -0.4 0.8
0.5 -1.58113e-18 -0.9 0.5 0.9 0 0.5 0 0.9 0.5
0.85 -0.3 0.5 0.85 0.3 0.5 0.9 0.05 0.5 0.9
-0.05 0.5 0.1 0.9 0.5 -0.1 -0.9 0.5 0.1 -0.9
0.5 -0.1 0.9 0.5 0.9 0.1 0.5 0.9 -0.1 0.5
0.9 0.15 0.5 0.9 -0.15 0.5 0.6 0.7 0.5 0.7
0.6 0.5 0.7 -0.6 0.5 0.6 -0.7 0.5 -0.2 -0.9
0.5 0.2 -0.9 0.5 0.9 -0.2 0.5 0.9 0.2 0.5
-0.2 0.9 0.5 0.2 0.9 0.5 0.9 -0.25 0.5 0.9
0.25 0.5 0.5 0.8 0.5 0.8 -0.5 0.5 0.5 -0.8
0.5 0.8 0.5 0.5 0.3 0.9 0.5 0.9 -0.3 0.5
0.9 0.3 0.5 0.3 -0.9 0.5 0.95 0 0.5 0.95
0.05 0.5 0.95 -0.05 0.5 0.95 0.1 0.5 0.95 -0.1
0.5 0.95 0.15 0.5 0.95 -0.15 0.5 0.9 -0.35 0.5
0.9 0.35 0.5 0.95 -0.2 0.5 0.95 0.2 0.5 0.95
-0.25 0.5 0.95 0.25 0.5 0.4 -0.9 0.5 0.4 0.9
0.5 0.9 -0.4 0.5 0.9 0.4 0.5 0.7 0.7 0.5
0.7 -0.7 0.5 0.95 -0.3 0.5 0.95 0.3 0.5 0.8
0.6 0.5 0.6 0.8 0.5 -1 0 0.5 -0.6 -0.8
0.5 -0.8 -0.6 0.5 0 -1 0.5 0.8 -0.6 0.5
0.6 -0.8 0.5 1 0 0.5 0 1 0.5 -0.6
0.8 0.5 -0.8 0.6 0.5 1 0.05 0.5 1 -0.05
0.5 0.1 -1 0.5 -0.1 -1 0.5 1 0.1 0.5
1 -0.1 0.5 0.1 1 0.5 -0.1 1 0.5 1
0.15 0.5 1 -0.15 0.5 0.95 -0.35 0.5 0.95 0.35
0.5 1 0.2 0.5 -1 -0.2 0.5 -1 0.2 0.5
-0.2 -1 0.5 0.2 -1 0.5 1 -0.2 0.5 0.2
1 0.5 -0.2 1 0.5 0.5 -0.9 0.5 0.9 -0.5
0.5 0.9 0.5 0.5 0.5 0.9 0.5 1 0.25 0.5
0.95 -0.4 0.5 1 -0.25 0.5 0.95 0.4 0.5 1
0.3 0.5 1 -0.3 0.5 0.3 -1 0.5 0.3 1
0.5 1.05 0 0.5 1.05 0.05 0.5 1.05 -0.05 0.5
1.05 0.1 0.5 1.05 -0.1 0.5 1 0.35 0.5 1
-0.35 0.5 1.05 0.15 0.5 1.05 -0.15 0.5 0.8 0.7
0.5 0.7 0.8 0.5 0.8 -0.7 0.5 0.7 -0.8 0.5
1.05 0.2 0.5 1.05 -0.2 0.5 0.4 1 0.5 1
0.4 0.5 -0.4 -1 0.5 -1 -0.4 0.5 1 -0.4
0.5 0.4 -1 0.5 -1 0.4 0.5 -0.4 1 0.5
1.05 0.25 0.5 1.05 -0.25 0.5 0.9 0.6 0.5 0.6
0.9 0.5 0.9 -0.6 0.5 0.6 -0.9 0.5 1.05 0.3
0.5 1.05 -0.3 0.5 3.61401e-18 -1.1 0.5 1.1 0 0.5
0 1.1 0.5 1.1 0.05 0.5 1.1 -0.05 0.5 0.1
-1.1 0.5 0.1 1.1 0.5 1.1 0.1 0.5 1.1 -0.1
0.5 1.05 0.35 0.5 1.05 -0.35 0.5 1.1 0.15 0.5
1.1 -0.15 0.5 0.5 1 0.5 1 0.5 0.5 1
-0.5 0.5 0.5 -1 0.5 1.1 0.2 0.5 1.1 -0.2
0.5 0.2 -1.1 0.5 0.2 1.1 0.5 1.05 0.4 0.5
1.05 -0.4 0.5 1.1 0.25 0.5 1.1 -0.25 0.5 0.8
0.8 0.5 0.8 -0.8 0.5 -0.8 0.8 0.5 0.9 0.7
0.5 0.7 -0.9 0.5 0.7 0.9 0.5 0.9 -0.7 0.5
0.3 1.1 0.5 1.1 0.3 0.5 1.1 -0.3 0.5 0.3
-1.1 0.5 1.15 0 0.5 1.15 0.05 0.5 1.15 -0.05
0.5 1.15 0.1 0.5 1.15 -0.1 0.5 1.1 0.35 0.5
1.1 -0.35 0.5 1.15 0.15 0.5 1.15 -0.15 0.5 0.6
1 0.5 1 0.6 0.5 -0.6 -1 0.5 -1 -0.6
0.5 1 -0.6 0.5 0.6 -1 0.5 -1 0.6 0.5
-0.6 1 0.5 1.15 0.2 0.5 1.15 -0.2 0.5 0.4
1.1 0.5 1.1 0.4 0.5 1.1 -0.4 0.5 0.4 -1.1
0.5 1.15 0.25 0.5 1.15 -0.25 0.5 1.15 0.3 0.5
1.15 -0.3 0.5 7.22801e-18 -1.2 0.5 1.2 0 0.5 0
1.2 0.5 1.2 0.05 0.5 1.2 -0.05 0.5 0.1 -1.2
0.5 1.2 0.1 0.5 1.2 -0.1 0.5 0.1 1.2 0.5
-0.1 1.2 0.5 0.9 0.8 0.5 0.8 0.9 0.5 0.9
-0.8 0.5 0.8 -0.9 0.5 0.5 1.1 0.5 1.1 0.5
0.5 1.1 -0.5 0.5 0.5 -1.1 0.5 1.2 0.15 0.5
1.2 -0.15 0.5 1.2 0.2 0.5 -0.2 -1.2 0.5 0.2
-1.2 0.5 1.2 -0.2 0.5 0.2 1.2 0.5 -0.2 1.2
0.5 0.7 1 0.5 1 0.7 0.5 1 -0.7 0.5
0.7 -1 0.5 1.2 0.25 0.5 1.2 -0.25 0.5 1.2
0.3 0.5 1.2 -0.3 0.5 0.3 1.2 0.5 -0.3 1.2
0.5 0.3 -1.2 0.5 1.25 0 0.5 1.25 0.05 0.5
1.25 -0.05 0.5 0.6 1.1 0.5 1.1 0.6 0.5 1.1
-0.6 0.5 0.6 -1.1 0.5 1.25 0.1 0.5 1.25 -0.1
0.5 1.25 0.15 0.5 1.25 -0.15 0.5 0.4 1.2 0.5
1.2 0.4 0.5 1.2 -0.4 0.5 -0.4 1.2 0.5 0.4
-1.2 0.5 1.25 0.2 0.5 1.25 -0.2 0.5 0.9 0.9
0.5 0.9 -0.9 0.5 0.8 1 0.5 1 0.8 0.5
1 -0.8 0.5 0.8 -1 0.5 -1 0.8 0.5 -0.8
1 0.5 0.5 1.2 0.5 1.2 0.5 0.5 1.2 -0.5
0.5 -0.5 1.2 0.5 1.3 0 0.5 0 1.3 0.5
0.5 -1.2 0.5 1.3 0.05 0.5 1.3 -0.05 0.5 1.1
0.7 0.5 1.1 -0.7 0.5 0.7 -1.1 0.5 0.7 1.1
0.5 1.3 0.1 0.5 1.3 -0.1 0.5 -0.1 1.3 0.5
1.3 0.15 0.5 1.3 -0.15 0.5 0.2 1.3 0.5 1.3
0.2 0.5 1.3 -0.2 0.5 -0.2 1.3 0.5 0.3 1.3
0.5 1.3 0.3 0.5 1.3 -0.3 0.5 -0.3 1.3 0.5
0.6 1.2 0.5 1.2 0.6 0.5 1.2 -0.6 0.5 0.6
-1.2 0.5 -1.2 0.6 0.5 -0.6 1.2 0.5 0.9 1
0.5 1 0.9 0.5 0.9 -1 0.5 1 -0.9 0.5
1.35 0 0.5 1.35 0.05 0.5 1.35 -0.05 0.5 1.35
0.1 0.5 1.35 -0.1 0.5 0.4 1.3 0.5 1.3 0.4
0.5 1.3 -0.4 0.5 0.4 -1.3 0.5 -0.4 1.3 0.5
0.8 1.1 0.5 1.1 0.8 0.5 1.1 -0.8 0.5 0.8
-1.1 0.5 0.7 1.2 0.5 1.2 0.7 0.5 1.2 -0.7
0.5 0.7 -1.2 0.5 -0.7 1.2 0.5 1.3 -0.5 0.5
0.5 1.3 0.5 1.3 0.5 0.5 0.5 -1.3 0.5 -0.5
1.3 0.5 0 -1.4 0.5 1.4 0 0.5 0 1.4
0.5 1.4 0.05 0.5 1.4 -0.05 0.5 1.4 0.1 0.5
1.4 -0.1 0.5 0.1 1.4 0.5 -0.1 1.4 0.5 1
1 0.5 1.4 0.2 0.5 -1.4 0.2 0.5 -1.4 -0.2
0.5 -0.2 -1.4 0.5 0.2 -1.4 0.5 -1 -1 0.5
1.4 -0.2 0.5 1 -1 0.5 0.2 1.4 0.5 -1
1 0.5 -0.2 1.4 0.5 0.9 -1.1 0.5 0.9 1.1
0.5 1.1 0.9 0.5 1.1 -0.9 0.5 0.6 1.3 0.5
1.3 0.6 0.5 1.3 -0.6 0.5 0.6 -1.3 0.5 1.4
0.3 0.5 1.4 -0.3 0.5 0.3 1.4 0.5 -0.3 1.4
0.5 -0.6 1.3 0.5 0.8 1.2 0.5 1.2 0.8 0.5
1.2 -0.8 0.5 0.8 -1.2 0.5 -1.2 0.8 0.5 -0.8
1.2 0.5 0.4 1.4 0.5 1.4 0.4 0.5 1.4 -0.4
0.5 0.4 -1.4 0.5 -0.4 1.4 0.5 1.3 0.7 0.5
0.7 1.3 0.5 1.3 -0.7 0.5 0.7 -1.3 0.5 -0.7
1.3 0.5 0.5 1.4 0.5 1 1.1 0.5 1.4 0.5
0.5 1.1 1 0.5 1.4 -0.5 0.5 1 -1.1 0.5
1.1 -1 0.5 0.5 -1.4 0.5 -0.5 1.4 0.5 0.9
1.2 0.5 1.2 0.9 0.5 1.5 0 0.5 1.2 -0.9
0.5 0.9 -1.2 0.5 0 1.5 0.5 -0.9 1.2 0.5
1.5 0.1 0.5 1.5 -0.1 0.5 0.1 1.5 0.5 -0.1
1.5 0.5 1.5 0.2 0.5 1.5 -0.2 0.5 0.2 1.5
0.5 -0.2 1.5 0.5 0.6 1.4 0.5 1.4 0.6 0.5
-0.6 -1.4 0.5 -1.4 -0.6 0.5 1.4 -0.6 0.5 0.6
-1.4 0.5 -1.4 0.6 0.5 -0.6 1.4 0.5 0.8 1.3
0.5 1.3 0.8 0.5 1.3 -0.8 0.5 0.8 -1.3 0.5
-0.8 1.3 0.5 1.5 0.3 0.5 -0.3 1.5 0.5 1.5
-0.3 0.5 1.5 0.4 0.5 1.5 -0.4 0.5 -0.4 1.5
0.5 1.1 1.1 0.5 1.1 -1.1 0.5 1 1.2 0.5
1.2 1 0.5 1.2 -1 0.5 1 -1.2 0.5 -1.2
1 0.5 -1 1.2 0.5 0.7 1.4 0.5 1.4 0.7
0.5 1.4 -0.7 0.5 0.7 -1.4 0.5 -0.7 1.4 0.5
0.9 1.3 0.5 1.3 0.9 0.5 1.3 -0.9 0.5 1.5
-0.5 0.5 0.9 -1.3 0.5 -0.9 1.3 0.5 -0.5 1.5
0.5 1.5 0.5 0.5 1.6 0 0.5 0 1.6 0.5
1.6 0.1 0.5 1.6 -0.1 0.5 0.1 1.6 0.5 0.8
1.4 0.5 1.4 0.8 0.5 1.4 -0.8 0.5 0.8 -1.4
0.5 -1.4 0.8 0.5 -0.8 1.4 0.5 1.6 0.2 0.5
0.2 -1.6 0.5 1.6 -0.2 0.5 0.2 1.6 0.5 0.6
1.5 0.5 1.5 0.6 0.5 1.5 -0.6 0.5 0.6 -1.5
0.5 -0.6 1.5 0.5 1.2 -1.1 0.5 1.1 -1.2 0.5
1.2 1.1 0.5 1.1 1.2 0.5 1.6 0.3 0.5 1.6
-0.3 0.5 -1.1 1.2 0.5 1.3 1 0.5 1.3 -1
0.5 1 -1.3 0.5 1 1.3 0.5 -1 1.3 0.5
0.4 -1.6 0.5 0.4 1.6 0.5 1.6 0.4 0.5 1.6
-0.4 0.5 0.7 1.5 0.5 -0.7 1.5 0.5 1.5 0.7
0.5 1.5 -0.7 0.5 0.7 -1.5 0.5 0.9 1.4 0.5
1.4 0.9 0.5 0.9 -1.4 0.5 1.4 -0.9 0.5 -0.9
1.4 0.5 1.6 0.5 0.5 1.6 -0.5 0.5 1.2 -1.2
0.5 1.2 1.2 0.5 -1.2 1.2 0.5 0 1.7 0.5
0.8 1.5 0.5 1.5 0.8 0.5 0.8 -1.5 0.5 1.5
-0.8 0.5 -0.8 1.5 0.5 1.7 0 0.5 1.3 1.1
0.5 1.7 0.1 0.5 1.7 -0.1 0.5 0.1 1.7 0.5
1.3 -1.1 0.5 1.1 -1.3 0.5 1.1 1.3 0.5 -1.1
1.3 0.5 0.6 1.6 0.5 1.6 0.6 0.5 0.6 -1.6
0.5 1.6 -0.6 0.5 -1.6 0.6 0.5 0.2 1.7 0.5
1.7 0.2 0.5 1.7 -0.2 0.5 1.5 -0.833333 0.5 1
1.4 0.5 1.4 -1 0.5 1.4 1 0.5 1 -1.4
0.5 -1 -1.4 0.5 -1.4 -1 0.5 -1.4 1 0.5
[...]
POINT_DATA 2369
FIELD attributes 1
p 1 2369 float
1.76711e+06 1.12212e+06 1.79964e+06 1.80048e+06 1.49441e+06 1.3926e+06 1.19528e+06 1.44031e+06 1.22487e+06 1.84279e+06 555090
570345 1.87659e+06 475799 1.12752e+06 1.5165e+06 508012 604509 1.23173e+06 623363 1.4622e+06
312573 809691 360962 762349 1.68316e+06 125292 355268 1.82275e+06 120370 359037
369652 117615 1.89379e+06 1.8737e+06 869504 724825 107226 167583 1.23762e+06 109499
427858 1.15017e+06 401581 201387 1.15679e+06 101674 301916 1.39719e+06 1.97966e+06 330227
101597 101553 299721 292864 2.10918e+06 444298 625806 566457 103213 102434
1.84282e+06 109086 101425 101390 300170 285248 1.77612e+06 117964 101528 101327
517938 101315 101408 101304 347535 1.12082e+06 317159 1.01235e+06 326105 724444
1.45072e+06 133610 101302 1.7477e+06 101303 315822 311655 173371 101309 101300
101760 2.11644e+06 101299 289502 2.22601e+06 280610 102501 101302 101300 558705
489478 101315 101305 270961 1.83638e+06 254742 1.74589e+06 101298 101298 170009
101298 392506 248421 392783 394070 101298 102549 651256 101298 371102
373279 929146 104925 101298 101298 101319 1.5983e+06 101298 334880 330613
1.92823e+06 101350 101298 101298 101298 101298 316586 1.09697e+06 283737 975447
415337 412498 413849 403656 405413 101298 288929 2.17646e+06 101298 281008
2.28071e+06 101298 101299 103528 434649 108467 102797 434140 435655 101408
471207 425433 427087 196015 544549 301710 101334 410236 412747 101298
101298 262765 1.84444e+06 246249 1.74814e+06 101298 101298 101299 711753 389220
385855 1.0286e+06 101300 459718 455095 456579 443241 444741 101298 1.64059e+06
342422 337877 1.98335e+06 428060 430234 101311 416980 413771 316400 1.09619e+06
283066 975535 101298 101350 483453 101467 476817 478218 288795 2.1751e+06
278827 101298 2.27904e+06 104180 101299 461822 463416 111111 101301 449433
451485 101298 101298 204509 101298 437127 433938 101298 319830 416981
412259 488745 101298 558053 101298 502931 497149 498678 1.02631e+06 389182
711538 383599 101298 482162 483968 270720 251815 1.74498e+06 1.8342e+06 466473
468997 451491 447778 430244 425302 1.59672e+06 1.92261e+06 101298 101298 101298
334767 325790 101298 101299 518927 101302 412755 406880 512455 514509
101492 101298 101357 101298 497861 500321 480766 483995 1.01144e+06 314032
347111 1.11937e+06 101298 104180 463434 459244 101298 111056 444762 439743
2.22034e+06 289340 2.11344e+06 274527 300195 427131 420969 195987 534753 527646
529724 512092 514538 495980 498723 405457 398221 478252 475285 456600
452862 650445 923169 373251 365004 563385 625104 435713 430149 278872
1.77228e+06 101298 101298 101298 101298 299919 1.84054e+06 540066 101298 101298
101298 534178 534800 101299 101298 518632 518986 101302 101298 503060
502985 413905 407255 484316 101298 101298 101298 101350 483492 101466
101298 1.44798e+06 315722 303938 1.73737e+06 459978 394057 459747 387018 432276
434711 103526 108356 534213 528765 527717 514852 512526 411472 415392
500418 497200 395165 1.14657e+06 427361 1.23671e+06 480983 476854 246256 387970
101298 101298 392492 169793 101298 101298 458860 455127 284197 2.09853e+06
299526 1.97609e+06 435214 434175 101298 518674 101298 514866 512146 101298
101298 502935 497898 411570 412513 488305 482179 717096 318623 326022
516478 468192 461854 101299 101301 390969 392765 447934 443273 756412
808899 101298 349675 1.89168e+06 1.86479e+06 369124 101406 427486 425429 101334
503102 500458 496011 488324 480775 403875 403622 474269 466460 1.38479e+06
292422 101298 101298 301730 1.15307e+06 101298 101298 455213 449428 104845
369901 371025 102545 432380 428063 413662 410213 101298 484333 101298
481016 475288 101298 468217 459235 101298 101298 595035 1.45365e+06 622125
1.51524e+06 171704 308278 311528 133362 455199 447748 437939 101298 101298
433900 101298 101298 1.80851e+06 344560 354737 1.67882e+06 417791 413743 389594
385816 101300 101298 101299 459979 458865 452851 438817 289699 292671
328643 447940 439724 432343 425272 101349 331285 330499 101298 101319
417727 412227 1.18512e+06 1.22286e+06 1.86241e+06 558944 569051 1.83917e+06 101298 101298
102470 281388 280440 101298 432282 101298 101756 435214 430153 358585
358651 721324 859991 427488 420962 101298 413638 406853 101298 389574
383577 101298 101298 341190 337850 101298 117511 289126 285103 108986
101298 101298 1.78514e+06 1.11072e+06 1.79592e+06 1.11998e+06 411501 411597 407281 403898
398241 101299 283820 280905 101298 101298 1.21929e+06 612059 603760 1.12294e+06
199342 415333 401561 166787 101298 254610 101314 260702 101305 101298
101298 388039 101298 391047 387061 370002 365050 101298 101298 1.75235e+06
331367 101298 101298 101298 101298 101298 325829 1.76396e+06 101298 101298
101298 1.38789e+06 1.42511e+06 1.21315e+06 1.19452e+06 101522 333174 317198 101407 283765
278812 101298 101298 101298 356771 795817 762844 310718 101298 101298
101298 253017 246071 101298 101298 606563 103175 567134 102418 101298
101298 1.48135e+06 300835 1.78859e+06 283495 1.49078e+06 1.79907e+06 101298 101298 502211
1.50091e+06 318766 1.4638e+06 473476 101298 101298 308530 304023 101298 101298
281498 274596 101298 101298 101302 534323 101298 101298 489612 101300
101298 101298 109334 1.21205e+06 1.15244e+06 107148 101298 260419 101298 251765
300405 282759 101298 1.38815e+06 1.43784e+06 550841 1.83547e+06 1.87672e+06 553197 101298
101298 101326 1.08453e+06 1.01379e+06 101315 101298 120014 1.87314e+06 1.87674e+06 470652
117446 101298 101298 517521 292608 101298 290022 284299 101298 101424
1.80453e+06 1.77933e+06 101389 101298 101298 289181 101298 278934 101298 101298
1.05278e+06 975275 101298 101298 1.2295e+06 506551 1.1321e+06 476255 332413 313879
101298 1.68462e+06 1.82277e+06 125111 125069 101298 101298 101298 532523 488026
101298 101298 1.78412e+06 1.74728e+06 101298 101594 1.96742e+06 101551 2.1114e+06 101298
1.05097e+06 974005 359673 316242 101298 101298 101300 2.08892e+06 101299 2.22846e+06
101298 344824 735138 358968 349833 101298 867469 120239 117744 101298
101298 1.78695e+06 101298 1.74687e+06 101298 101298 415156 395246 2.06852e+06 101673
1.39629e+06 1.1697e+06 101671 101298 101298 101298 101298 604615 562949 101298
2.14101e+06 101298 2.28136e+06 1.08047e+06 1.00965e+06 101302 101303 101298 1.45976e+06 1.74864e+06
200673 109425 107414 170374 101298 101298 1.78137e+06 1.74202e+06 443001 338994
101557 101595 101298 1.9298e+06 101298 101298 1.60405e+06 101298 101298 559459
101298 101304 723802 532026 101304 612541 595409 101298 2.1422e+06 2.2773e+06
1.20268e+06 101298 795038 101298 101298 101298 101298 756621 1.20891e+06 1.14573e+06
929706 101298 669071 101298 1.64855e+06 1.98405e+06 103193 102503 101298 101393
109733 117793 101424 101298 101298 101298 1.80181e+06 101298 1.76973e+06 172995
101303 136568 101307 101298 2.09218e+06 2.21755e+06 101298 1.02974e+06 732999 101298
175706 101298 248342 101298 101298 101298 1.92192e+06 1.61092e+06 101298 101298
101298 101298 1.11172e+06 101298 1.18601e+06 1.21372e+06 101525 101326 101298 101316
101418 1.50008e+06 1.45422e+06 101298 101298 102491 101300 101301 101813 101298
101298 101298 1.87264e+06 302034 1.86395e+06 204083 1.02712e+06 736161 1.93909e+06 1.97231e+06
101298 104914 2.09644e+06 102712 1.46973e+06 1.73601e+06 103745 101298 101298 214072
320291 101298 101298 108477 103848 101302 101300 101298 101298 101315
101298 101299 101306 101298 101298 1.75017e+06 923204 676201 101298 101350
101298 101319 1.75381e+06 101298 101298 101298 1.78609e+06 1.78998e+06 101298 101298
1.83676e+06 1.86268e+06 101298 111149 104636 101298 1.68894e+06 1.80756e+06 300464 205854
101340 101408 101298 101298 1.17786e+06 1.38353e+06 101298 101298 101298 101298
101298 101298 101298 101298 101467 101363 101298 101298 101298 101298
101299 101298 101298 538779 111093 104675 716606 101298 101298 101336
101300 101299 101298 101298 101298 177850 246264 101298 101298 1.48273e+06
101492 101298 101298 101298 101368 1.42542e+06 1.3903e+06 101298 101298 101301
101299 1.13472e+06 1.21891e+06 108372 101298 103926 101298 101298 738963 859145
101298 101298 101298 101298 101298 101298 342368 438289 101298 101298
101298 101298 101302 101300 101466 101298 101298 101360 101298 137755
101298 171598 101298 101298 101298 101298 101298 104846 102766 101302
101298 101298 101298 101299 101298 101298 101298 551458 101298 101298
101298 101298 101298 502174 477399 101298 101298 317378 356504 101298
101298 101298 101298 101341 101298 101407 101298 101298 101298 101298
171128 199106 101298 101298 101298 101298 101298 101298 101298 101298
109942 117457 101301 101298 101298 101298 101298 101299 101298 101298
101298 102468 101832 101298 101298 101298 101298 101298 101298 101298
101298 101298 101298 101298 101321 101298 101349 101298 101298 101298
101298 101298 101298 101298 101298 101298 101298 101298 125124 101298
120005 101298 101298 117835 101298 101298 101298 101299 101300 109320
107463 101298 103170 102519 101298 101298 101298 101298 101298 101298
101298 101298 101298 101298 101522 101421 101298 101298 101298 101298
101298 101298 101298 101306 101298 101314 101298 101298 101298 101298
101298 101298 101298 101298 101298 101298 101299 101298 101298 101298
101298 101298 101674 101298 101298 101558 101594 101298 101298 101298
101298 101298 101298 101423 101394 101298 101298 101298 101298 101298
101298 101298 101298 101298 101298 101298 101298 101298 101326 101316
101298 101298 101298 101298 101302 101300 101298 101298 101298 101298
101298 101298 101298 101298 101298 101298 101298 101298 101298 101298
101298 101298 101298 101298 101298 101298 101298 101298 101298 101298
101298 101298 101298 101304 101298 101298 101302 101298 101298 101303
101298 101298 101298 101298 101298 101298 101298 101298 101300 101300
101298 101298 101298 101298 101298 101298 101298 101298 101298 101298
101298 101298 101298 101298 101298 101298 101298 101298 101298 101298
101298 101298 101298 101298 101298 101298 101298 101298 101298 101298
101298 101298 101298 101298 101298 101298 101298 101298 101298 101298
101298 101298 101298 101298 101298 101298 101298 101298 101298 101298
101298 101298 101298 101298 101298 101298 101298 101298 101298 101298
101298 101298 101298 101298 101298 101298 101298 101298 101298 101298
101298 101298 101298 101298 101298 101298 101298 101298 101298 101298
101298 101298 101298 101298 101298 101298 101298 101298 101298 101298
101298 101298 101298 101298 101298 101298 101298 101298 101298 101298
101298 101298 101298 101298 101298 101298 101298 101298 101298 101298
101298 101298 101298 101298 101298 101298 101298 101298 101298 101298
101298 101298 101298 101298 101298 101298 101298 101298 101298 101298
101298 101298 101298 101298 101298 101298 101298 101298 101298 101298
101298 101298 101298 101298 101298 101298 101298 101298 101298 101298
101298 101298 101298 101298 101298 101298 101298 101298 101298 101298
101298 101298 101298 101298 101298 101298 101298 101298 101298 101298
101298 101298 101298 101298 101298 101298 101298 101298 101298 101298
101298 101298 101298 101298 101298 101298 101298 101298 101298 101298
101298 101298 101298 101298 101298 101298 101298 101298 101298 101298
101298 101298 101298 101298 101298 101298 101298 101298 101298 101298
101298 101298 101298 101298 101298 101298 101298 101298 101298 101298
101298 101298 101298 101298 101298 101298 101298 101298 101298 101298
101298 101298 101298 101298 101298 101298 101298 101298 101298 101298
101298 101298 101298 101298 101298 101298 101298 101298 101298 101298
101298 101298 101298 101298 101298 101298 101298 101298 101298 101298
101298 101298 101298 101298 101298 101298 101298 101298 101298 101298
101298 101298 101298 101298 101298 101298 101298 101298 101298 101298
101298 101298 101298 101298 101298 101298 101298 101298 101298 101298
101298 101298 101298 101298 101298 101298 101298 101298 101298 101298
101298 101298 101298 101298 101298 101298 101298 101298 101298 101298
101298 101298 101298 101298 101298 101298 101298 101298 101298 101298
101298 101298 101298 101298 101298 101298 101298 101298 101298 101298
101298 101298 101298 101298 101298 101298 101298 101298 101298 101298
101298 101298 101298 101298 101298 101298 101298 101298 101298 101298
101298 101298 101298 101298 101298 101298 101298 101298 101298 101298
101298 101298 101298 101298 101298 101298 101298 101298 101298 101298
101298 101298 101298 101298 101298 101298 101298 101298 101298 101298
101298 101298 101298 101298 101298 101298 101298 101298 101298 101298
101298 101298 101298 101298 101298 101298 101298 101298 101298 101298
101298 101298 101298 101298 101298 101298 101298 101298 101298 101298
101298 101298 101298 101298 101298 101298 101298 101298 101298 101298
101298 101298 101298 101298 101298 101298 101298 101298 101298 101298
101298 101298 101298 101298 101298 101298 101298 101298 101298 101298
101298 101298 101298 101298 101298 101298 101298 101298 101298 101298
101298 101298 101298 101298 101298 101298 101298 101298 101298 101298
101298 101298 101298 101298 101298 101298 101298 101298 101298 101298
101298 101298 101298 101298 101298 101298 101298 101298 101298 101298
101298 101298 101298 101298 101298 101298 101298 101298 101298 101298
101298 101298 101298 101298 101298 101298 101298 101298 101298 101298
101298 101298 101298 101298 101298 101298 101298 101298 101298 101298
101298 101298 101298 101298 101298 101298 101298 101298 101298 101298
101298 101298 101298 101298 101298 101298 101298 101298 101298 101298
101298 101298 101298 101298 101298 101298 101298 101298 101298 101298
101298 101298 101298 101298 101298 101298 101298 101298 101298 101298
101298 101298 101298 101298 101298 101298 101298 101298 101298 101298
101298 101298 101298 101298 101298 101298 101298 101298 101298 101298
101298 101298 101298 101298 101298 101298 101298 101298 101298 101298
101298 101298 101298 101298 101298 101298 101298 101298 101298 101298
101298 101298 101298 101298 101298 101298 101298 101298 101298 101298
101298 101298 101298 101298 101298 101298 101298 101298 101298 101298
101298 101298 101298 101298 101298 101298 101298 101298 101298 101298
101298 101298 101298 101298 101298 101298 101298 101298 101298 101298
101298 101298 101298 101298 101298 101298 101298 101298 101298 101298
101298 101298 101298 101298 101298 101298 101298 101298 101298 101298
101298 101298 101298 101298 101298 101298 101298 101298 101298 101298
101298 101298 101298 101298 101298 101298 101298 101298 101298 101298
101298 101298 101298 101298 101298 101298 101298 101298 101298 101298
101298 101298 101298 101298 101298 101298 101298 101298 101298 101298
101298 101298 101298 101298 101298 101298 101298 101298 101298 101298
101298 101298 101298 101298 101298 101298 101298 101298 101298 101298
101298 101298 101298 101298 101298 101298 101298 101298 101298 101298
101298 101298 101298 101298 101298 101298 101298 101298 101298 101298
101298 101298 101298 101298 101298 101298 101298 101298 101298 101298
101298 101298 101298 101298 101298 101298 101298 101298 101298 101298
101298 101298 101298 101298 101298 101298 101298 101298 101298 101298
101298 101298 101298 101298 101298 101298 101298 101298 101298 101298
101298 101298 101298 101298 101298 101298 101298 101298 101298 101298
101298 101298 101298 101298 101298 101298 101298 101298 101298 101298
101298 101298 101298 101298 101298 101298 101298 101298 101298 101298
101298 101298 101298 101298 101298 101298 101298 101298 101298 101298
101298 101298 101298 101298 101298 101298 101298 101298 101298 101298
101298 101298 101298 101298 101298 101298 101298 101298 101298 101298
101298 101298 101298 101298 101298 101298 101298 101298 101298 101298
101298 101298 101298 101298 101298 101298 101298 101298 101298 101298
101298 101298 101298 101298 101298 101298 101298 101298 101298 101298
101298 101298 101298 101298 101298 101298 101298 101298 101298 101298
101298 101298 101298 101298 101298 101298 101298 101298 101298 101298
101298 101298 101298 101298 101298 101298 101298 101298 101298 101298
101298 101298 101298 101298 101298 101298 101298 101298 101298 101298
101298 101298 101298 101298 101298 101298 101298 101298 101298 101298
101298 101298 101298 101298 101298 101298 101298 101298 101298 101298
101298 101298 101298 101298 101298 101298 101298 101298 101298 101298
101298 101298 101298 101298 101298 101298 101298 101298 101298 101298
101298 101298 101298 101298 101298 101298 101298 101298 101298 101298
101298 101298 101298 101298 101298 101298 101298 101298 101298 101298
101298 101298 101298 101298 101298 101298 101298 101298 101298 101298
101298 101298 101298 101298 101298 101298 101298 101298 101298 101298
101298 101298 101298 101298 101298 101298 101298 101298 101298 101298
101298 101298 101298 101298 101298 101298 101298 101298 101298 101298
101298 101298 101298 101298 101298 101298 101298 101298 101298 101298
101298 101298 101298 101298 101298 101298 101298 101298 101298 101298
101298 101298 101298 101298 101298 101298 101298 101298 101298 101298
101298 101298 101298 101298 101298 101298 101298 101298 101298 101298
101298 101298 101298 101298 101298 101298 101298 101298 101298 101298
101298 101298 101298 101298 101298 101298 101298 101298 101298 101298
101298 101298 101298 101298 101298 101298 101298 101298 101298 101298
101298 101298 101298 101298 101298 101298 101298 101298 101298 101298
101298 101298 101298 101298 101298 101298 101298 101298 101298 101298
101298 101298 101298 101298 101298 101298 101298 101298 101298 101298
101298 101298 101298 101298 101298 101298 101298 101298 101298 101298
101298 101298 101298 101298 101298 101298 101298 101298 
