/*--------------------------------*- C++ -*----------------------------------*\
  =========                 |
  \\      /  F ield         | OpenFOAM: The Open Source CFD Toolbox
   \\    /   O peration     | Website:  https://openfoam.org
    \\  /    A nd           | Version:  9
     \\/     M anipulation  |
\*---------------------------------------------------------------------------*/
FoamFile
{
    format      ascii;
    class       volScalarField;
    location    "0.00245";
    object      impulseMax;
}
// * * * * * * * * * * * * * * * * * * * * * * * * * * * * * * * * * * * * * //

dimensions      [1 -1 -1 0 0 0 0];

internalField   nonuniform List<scalar> 
20290
(
1.69772e-15
4.55111e-13
1.32465e-11
3.34128e-10
7.81771e-09
1.76331e-07
3.47049e-06
0
1.5037e-14
9.06948e-13
2.3306e-11
5.3282e-10
1.1268e-08
2.31667e-07
0
0
3.11654e-14
1.25595e-12
2.90129e-11
5.88214e-10
1.07051e-08
0
0
0
3.92902e-14
1.31816e-12
2.67935e-11
4.68527e-10
0
0
0
0
3.11654e-14
1.01124e-12
1.79318e-11
3.56739e-06
1.74942e-07
6.96709e-09
2.58894e-10
8.75223e-05
42.5634
5.05803e-05
2.12261e-06
7.95767e-08
2.9246e-09
127.118
0.0455462
0.000212916
5.9002e-07
2.34027e-08
7.22226e-06
0.175176
106.965
193.195
1.41021e-06
0.0153396
0.260029
159.038
266.429
1.73269e-07
2.8501e-05
3.23447
39.1507
196.541
0
0
0
0
0
3.75924e-15
3.23295e-13
6.20566e-12
8.7168e-11
0
0
0
0
6.4271e-15
4.65419e-13
1.0385e-11
1.89976e-10
2.71867e-09
0
0
0
7.63976e-15
4.84943e-13
1.2591e-11
2.81534e-10
5.46289e-09
8.08534e-08
0
0
3.51671e-15
4.01633e-13
1.15951e-11
3.00663e-10
7.30366e-09
1.50785e-07
1.38305e-06
0
1.21266e-16
2.48474e-13
8.07837e-12
2.32414e-10
6.53517e-09
1.7205e-07
1.8621e-06
1.52196e-05
0
1.10958e-13
4.14426e-12
1.27687e-10
3.86511e-09
1.16898e-07
1.7645e-06
2.01331e-05
0.00282632
3.03165e-14
1.58058e-12
4.98569e-11
1.50498e-09
4.74248e-08
1.13275e-06
9.99121e-06
0.0017564
223.99
4.15821e-13
1.4668e-11
4.43315e-10
1.24301e-08
3.35211e-07
0.0020652
36.1531
198.512
314.212
0
0
0
0
0
0
9.82254e-14
1.9137e-12
2.65665e-11
0
0
0
0
0
1.33029e-13
3.19293e-12
5.60199e-11
7.65943e-10
0
0
0
0
1.45883e-13
3.89579e-12
8.17955e-11
1.47401e-09
2.03903e-08
0
0
0
1.1593e-13
3.60706e-12
8.78442e-11
1.94154e-09
3.92944e-08
4.92771e-07
0
0
6.63325e-14
2.53228e-12
6.94379e-11
1.76754e-09
4.48404e-08
7.49966e-07
3.62539e-06
0
2.77699e-14
1.33514e-12
3.97336e-11
1.0967e-09
3.01673e-08
6.80746e-07
4.68413e-06
0.000294632
3.51671e-15
4.97433e-13
1.60927e-11
4.60779e-10
1.22129e-08
3.16247e-07
2.53982e-06
0.000183147
192.399
1.23085e-13
4.77982e-12
1.42459e-10
3.86174e-09
9.21208e-08
0.000118414
10.7549
164.935
270.478
0
0
0
0
0
0
4.72937e-15
2.47625e-13
3.75961e-12
0
0
0
0
0
9.33748e-15
4.22248e-13
7.92279e-12
1.13727e-10
0
0
0
0
1.1399e-14
5.23626e-13
1.16144e-11
2.14254e-10
3.16625e-09
0
0
0
7.63976e-15
4.93189e-13
1.2637e-11
2.81314e-10
5.50597e-09
8.3864e-08
0
0
2.54659e-15
3.55067e-13
1.01993e-11
2.62079e-10
6.25557e-09
1.27819e-07
9.55856e-07
0
0
1.86265e-13
6.05008e-12
1.71829e-10
4.66344e-09
1.17136e-07
1.10027e-06
2.47252e-05
0
6.56049e-14
2.53422e-12
7.68547e-11
2.2237e-09
6.29866e-08
9.43596e-07
1.9549e-05
0.00902165
9.82254e-15
7.62157e-13
2.38634e-11
6.86326e-10
1.92216e-08
5.08639e-07
4.76834e-06
0.000620836
112.102
0
0
0
0
0
0
0
1.40669e-14
4.01027e-13
0
0
0
0
0
0
3.24993e-14
8.21092e-13
1.22584e-11
0
0
0
0
0
4.28069e-14
1.17119e-12
2.14543e-11
3.20526e-10
0
0
0
0
3.7835e-14
1.2665e-12
2.72327e-11
5.12516e-10
8.01236e-09
0
0
0
2.44957e-14
1.0361e-12
2.53915e-11
5.65417e-10
1.13328e-08
1.84047e-07
0
0
9.33748e-15
6.33493e-13
1.72809e-11
4.33828e-10
1.02295e-08
2.12138e-07
1.65624e-06
0
4.85064e-16
2.76001e-13
8.40955e-12
2.26608e-10
5.81414e-09
1.38519e-07
1.29964e-06
3.90438e-05
0
7.88229e-14
2.90662e-12
8.18103e-11
2.17109e-09
5.67416e-08
1.1171e-06
8.97018e-06
0.533012
0
0
0
0
0
0
0
0
2.72848e-14
0
0
0
0
0
0
0
6.40284e-14
1.21957e-12
0
0
0
0
0
0
9.70128e-14
2.02757e-12
3.1163e-11
0
0
0
0
0
1.02106e-13
2.50924e-12
4.63959e-11
7.25965e-10
0
0
0
0
8.00355e-14
2.32358e-12
4.98211e-11
9.52521e-10
1.56622e-08
0
0
0
4.46259e-14
1.61745e-12
3.89168e-11
8.57896e-10
1.7292e-08
2.96656e-07
0
0
1.45519e-14
8.24245e-13
2.17864e-11
5.26888e-10
1.19892e-08
2.48024e-07
2.40148e-06
0
4.85064e-16
2.92008e-13
8.66773e-12
2.21495e-10
5.34883e-09
1.25004e-07
2.12817e-06
0.049876
0
0
0
0
0
0
0
0
0
2.63147e-14
0
0
0
0
0
0
0
0
7.91867e-14
1.18586e-12
0
0
0
0
0
0
1.21266e-16
1.39335e-13
2.39537e-12
2.97547e-11
0
0
0
0
0
4.85064e-16
1.75108e-13
3.47391e-12
5.40743e-11
6.79628e-10
0
0
0
0
0
1.55584e-13
3.68321e-12
6.86664e-11
1.09816e-09
1.43785e-08
0
0
0
0
1.05501e-13
2.89559e-12
6.22128e-11
1.18773e-09
2.00696e-08
2.8907e-07
0
0
0
4.9719e-14
1.69421e-12
4.00398e-11
8.64257e-10
1.72795e-08
3.23098e-07
1.36563e-05
0
0
1.18841e-14
6.95582e-13
1.80914e-11
4.22073e-10
9.22748e-09
1.95313e-07
8.59559e-06
0.0525621
0
0
0
0
0
0
0
0
0
0
0
0
0
0
0
0
0
0
0
5.67525e-14
0
0
0
0
0
0
0
4.85064e-16
1.27693e-13
1.81111e-12
0
0
0
0
0
0
1.69772e-15
1.89539e-13
3.21234e-12
4.02702e-11
0
0
0
0
0
9.70128e-16
2.00574e-13
4.02615e-12
6.30019e-11
8.00899e-10
0
0
0
0
0
1.55463e-13
3.65993e-12
6.77507e-11
1.07698e-09
1.42148e-08
0
0
0
0
8.63414e-14
2.40664e-12
5.05217e-11
9.42499e-10
1.55862e-08
2.24617e-07
0
0
0
2.80124e-14
1.11928e-12
2.59347e-11
5.37353e-10
1.0148e-08
1.77173e-07
1.80923e-06
0
0
0
0
0
0
0
0
0
0
0
0
0
0
0
0
0
0
0
0
0
0
0
0
0
0
0
0
0
7.32446e-14
0
0
0
0
0
0
0
9.70128e-16
1.42488e-13
1.97906e-12
0
0
0
0
0
0
9.70128e-16
1.79716e-13
3.04378e-12
3.82678e-11
0
0
0
0
0
1.21266e-16
1.62739e-13
3.27042e-12
5.0814e-11
6.37252e-10
0
0
0
0
0
1.04046e-13
2.48704e-12
4.4979e-11
6.95177e-10
8.84766e-09
0
0
0
0
3.98965e-14
1.291e-12
2.65167e-11
4.72078e-10
7.28168e-09
9.19067e-08
0
0
0
0
0
0
0
0
0
0
0
0
0
0
0
0
0
0
0
0
0
0
0
0
0
0
0
0
0
0
0
0
0
0
0
0
0
0
0
6.68175e-14
0
0
0
0
0
0
0
0
1.12535e-13
1.59113e-12
0
0
0
0
0
0
0
1.17871e-13
2.10057e-12
2.59449e-11
0
0
0
0
0
0
8.92517e-14
1.85743e-12
2.83235e-11
3.43813e-10
0
0
0
0
0
3.75924e-14
1.12074e-12
1.97331e-11
2.89703e-10
3.39973e-09
0
0
0
0
0
0
0
0
0
0
0
0
0
0
0
0
0
0
0
0
0
0
0
0
0
0
0
0
0
0
0
0
0
0
0
0
0
0
0
0
0
0
0
0
0
0
0
0
0
3.98965e-14
0
0
0
0
0
0
0
0
5.67525e-14
8.98945e-13
0
0
0
0
0
0
0
4.81426e-14
9.78253e-13
1.19128e-11
0
0
0
0
0
0
2.40107e-14
6.89761e-13
1.02141e-11
1.16261e-10
1.30091e-07
3.86649e-08
7.1158e-09
1.21745e-09
3.12905e-08
7.28304e-07
1.99192e-05
0.17428
14.4024
3.15352e-12
1.10272e-10
3.52314e-09
1.03017e-07
4.13186e-06
0.0117241
60.0082
219.751
333.865
1.51157e-11
4.90019e-10
1.39527e-08
3.74361e-07
5.03679e-06
0.000769601
23.79
333.94
4.93919e-11
1.55898e-09
4.74986e-08
1.33513e-06
2.60301e-05
0.0519841
85.9805
346.545
1.10797e-10
3.7625e-09
1.22095e-07
5.2981e-06
0.0364621
79.2561
252.894
1.3452e-10
4.40281e-09
9.79586e-13
3.28722e-11
9.99296e-10
3.08053e-08
8.09175e-07
0.000928598
26.7476
187.443
302.003
4.85331e-12
1.5838e-10
4.46884e-09
1.08315e-07
1.43298e-06
0.000102237
4.9093
296.82
1.70466e-11
5.20146e-10
1.37739e-08
3.40433e-07
6.23143e-06
0.00422187
46.9667
307.324
3.64043e-11
1.1118e-09
3.11218e-08
8.73198e-07
0.000246024
11.3948
177.386
294.173
4.31799e-11
1.29871e-09
1.38243e-13
5.24609e-12
1.59346e-10
4.51166e-09
1.15062e-07
1.88085e-06
2.1862e-05
53.4137
30.3571
6.94611e-13
2.2924e-11
6.60324e-10
1.83492e-08
5.18653e-07
8.82224e-06
0.0113747
105.542
2.63256e-12
8.40791e-11
2.46691e-09
6.90172e-08
1.14161e-06
6.0092e-05
0.867672
227.433
6.47427e-12
2.0469e-10
5.84333e-09
1.50825e-07
4.58232e-06
0.00425951
36.0961
239.041
8.74606e-12
2.64382e-10
6.91216e-15
6.9158e-13
2.1122e-11
5.76498e-10
1.44453e-08
3.27542e-07
4.34081e-06
19.6071
2.71399
8.56138e-14
3.44565e-12
9.86844e-11
2.69778e-09
7.33198e-08
1.29395e-06
3.25562e-05
62.1695
93.7548
3.81988e-13
1.26443e-11
3.54721e-10
9.56154e-09
2.37814e-07
3.30782e-06
0.00018251
89.1738
9.82376e-13
3.06344e-11
8.31667e-10
2.09457e-08
4.68811e-07
0.000343421
10.216
147.182
1.46453e-12
4.48742e-11
0
6.34221e-14
2.45842e-12
6.67616e-11
1.68156e-09
3.8927e-08
8.17353e-07
9.47881e-06
0.291772
1.69772e-15
4.30737e-13
1.29043e-11
3.43849e-10
8.89288e-09
2.26052e-07
3.29156e-06
0.000937047
0.310993
3.55309e-14
1.83645e-12
5.15474e-11
1.35312e-09
3.25855e-08
6.83787e-07
7.99152e-06
0.00266268
1.21023e-13
4.63139e-12
1.27758e-10
3.25104e-09
7.54477e-08
1.62086e-06
4.17706e-05
0.25565
1.86386e-13
6.75827e-12
1.8561e-10
4.74359e-09
1.10797e-07
2.38117e-06
0.00434962
0.327525
0
0
1.94511e-13
5.74643e-12
1.43583e-10
3.32021e-09
7.03116e-08
1.39329e-06
9.47998e-05
0.345426
0
2.35256e-14
1.19568e-12
3.19714e-11
7.97063e-10
1.90196e-08
4.15927e-07
7.41155e-06
0.031419
0.317778
0
1.53401e-13
5.07401e-12
1.32206e-10
3.17348e-09
6.87819e-08
1.36124e-06
2.23396e-05
1.69772e-15
4.48199e-13
1.31571e-11
3.38193e-10
8.04915e-09
1.79715e-07
3.9675e-06
0.000140149
5.57823e-15
6.53745e-13
1.88199e-11
4.81433e-10
1.15665e-08
2.71562e-07
8.33337e-06
0.0391617
0
0
1.69772e-15
3.51186e-13
9.20942e-12
2.06013e-10
4.20717e-09
7.66098e-08
1.20493e-06
0.00146042
0
0
5.99054e-14
2.11973e-12
5.1765e-11
1.16453e-09
2.44399e-08
4.50342e-07
5.13777e-06
0.00630603
0
9.70128e-16
3.30207e-13
9.10344e-12
2.15601e-10
4.61498e-09
8.80834e-08
1.55051e-06
0
1.5037e-14
9.08646e-13
2.39657e-11
5.60431e-10
1.20951e-08
2.52019e-07
7.14878e-06
0
2.71636e-14
1.3178e-12
3.42253e-11
7.94221e-10
1.72186e-08
3.66219e-07
1.03365e-05
0
0
0
5.57823e-15
4.53171e-13
1.04752e-11
2.0609e-10
3.55584e-09
5.06445e-08
5.03582e-07
0
0
0
9.43449e-14
2.71975e-12
5.83769e-11
1.14236e-09
1.99786e-08
2.81917e-07
3.36752e-06
0
0
5.57823e-15
4.71361e-13
1.15592e-11
2.41438e-10
4.44984e-09
6.98549e-08
0
0
3.11654e-14
1.29767e-12
3.03426e-11
6.25557e-10
1.15262e-08
1.90884e-07
0
0
5.21444e-14
1.88714e-12
4.33489e-11
8.86729e-10
1.63463e-08
2.72778e-07
0
0
0
0
7.03343e-15
4.30009e-13
8.83592e-12
1.47677e-10
2.04171e-09
2.08478e-08
0
0
0
0
9.85892e-14
2.55059e-12
4.77459e-11
7.8195e-10
1.06081e-08
1.0659e-07
0
0
0
7.88229e-15
5.0095e-13
1.07436e-11
1.93962e-10
2.95748e-09
0
0
0
3.92902e-14
1.35284e-12
2.80134e-11
4.93498e-10
7.32645e-09
0
0
0
6.48773e-14
1.99264e-12
4.01936e-11
7.00903e-10
1.0357e-08
0
0
0
0
0
3.51671e-15
3.05469e-13
5.33558e-12
7.23743e-11
7.46781e-10
0
0
0
0
0
7.49424e-14
1.74781e-12
2.75893e-11
3.56651e-10
3.46817e-09
0
0
0
0
5.57823e-15
3.82837e-13
7.21811e-12
1.08208e-10
0
0
0
0
3.11654e-14
1.0407e-12
1.84843e-11
2.6543e-10
0
0
0
0
5.21444e-14
1.52322e-12
2.65771e-11
3.77474e-10
121.026
176.093
18.2541
2.69561
105.937
3.77809
97.2202
26.8356
111.1
45.0525
129.447
1.2662e-05
0.513959
0.00011994
6.62834
0.0205743
15.794
8.28932e-07
2.81012e-05
2.11984e-06
0.000179654
2.83042e-06
0.000644003
3.48956e-08
2.97014e-07
7.95008e-08
5.59569e-07
1.16625e-07
7.94019e-07
1.28171e-09
1.12636e-08
2.89632e-09
2.20063e-08
4.1069e-09
3.07054e-08
170.508
320.906
378.808
347.786
249.702
280.012
228.242
256.937
214.579
120.198
179.458
178.618
239.516
85.9404
169.956
237.379
64.0458
162.45
82.6926
167.649
226.701
154.706
235.043
336.81
299.945
298.823
215.627
267.043
335.912
313.473
250.396
231.072
304.202
387.952
283.787
362.422
213.132
264.644
331.123
322.628
305.509
250.594
198.454
309.843
192.91
290.686
237.38
171.451
270.115
216.217
204.568
23.9584
126.633
55.123
147.567
221.943
140.633
316.914
258.944
300.151
215.249
243.567
159.542
191.033
373.071
369.116
363.813
346.479
341.789
332.743
337.131
278.264
222.423
118.194
277.023
223.239
76.6339
191.227
219.257
256.77
167.206
272.031
349.446
253.771
302.752
275.084
219.721
73.4988
188.543
171.194
172.602
56.2134
383.563
370.681
366.894
360.722
356.991
340.306
343.69
174.017
269.941
258.341
259.196
130.097
155.11
271.02
361.979
339.914
353.39
319.209
332.087
323.504
311.177
240.16
222.229
240.912
215.39
222.994
195.675
194.805
240.679
213.937
215.143
221.522
222.714
195.386
194.085
353.409
335.429
352.068
325.528
327.007
311.331
309.873
352.675
336.957
353.677
326.264
327.296
311.494
310.373
342.191
358.321
353.487
322.606
315.232
311.431
326.702
126.998
152.053
268.413
133.384
252.917
108.054
241.504
234.586
211.697
208.66
219.367
216.485
191.802
188.641
374.099
347.374
358.277
337.67
348.523
332.409
322.15
347.64
333.942
350.628
324.106
320.95
308.293
305.26
237.566
157.329
244.55
203.219
89.8755
209.747
145.286
332.976
330.942
343.701
313.824
291.745
303.061
301.998
230.961
199.905
204.673
208.334
212.752
184.506
179.5
327.368
343.575
338.433
311.257
316.655
301.225
296.111
283.813
230.078
210.578
157.007
248.755
134.408
238.961
330.792
352.665
349.309
322.731
307.09
304.181
325.822
199.914
104.592
80.598
174.813
274.53
152.489
264.33
329.996
320.415
316.816
302.824
299.302
286.168
289.498
214.837
123.919
245.197
62.1439
193.264
98.5906
233.969
313.68
276.352
309.643
300.719
271.027
267.475
304.57
332.864
301.078
329.523
312.785
287.25
284.236
315.903
332.263
325.047
310.166
304.781
297.206
289.949
282.665
81.9564
1.57348
72.0231
62.3327
118.755
30.7381
3.31514
18.2514
151.124
67.735
3.2871
59.2796
131.542
77.4169
126.466
29.7336
77.0897
53.9256
71.218
0.456331
1.50132
84.6136
1.87451
74.7771
130.534
84.2366
75.9627
1.82313
336.116
335.023
325.329
322.056
312.304
310.295
297.46
313.511
296.903
316.239
272.203
291.382
288.381
269.199
134.013
210.472
155.663
129.555
164.419
21.6169
48.293
154.865
14.3126
135.541
103.632
128.621
0.765364
58.9681
0.753842
38.9873
56.2174
127.318
111.519
54.9353
72.572
191.162
171.51
192.054
170.949
147.729
169.965
148.847
288.937
268.205
300.86
292.269
248.556
259.566
280.735
171.279
190.564
191.81
170.675
147.113
169.289
148.592
319.19
298.697
317.865
294.54
274.164
293.17
275.436
318.149
299.953
319.242
294.614
274.269
275.447
293.45
323.294
331.057
341.344
315.262
287.509
297.032
305.431
293.704
311.439
321.719
305.39
267.499
277.137
295.536
321.302
297.723
308.6
280.395
291.248
278.432
267.961
216.657
194.458
203.294
188.336
197.7
173.61
166.841
233.774
117.553
162.998
180.185
235.471
45.6778
113.341
296.982
267.923
298.496
283.431
251.634
281.96
253.094
316.749
293.264
302.311
278.691
288.528
274.231
264.601
228.081
43.002
110.207
91.119
217.025
28.0493
160.561
290.669
283.023
260.913
246.335
279.552
257.468
294.322
188.29
164.38
185.127
144.549
166.881
163.485
140.873
297.705
268.165
298.773
283.604
252.057
253.259
282.446
295.43
261.176
292.111
249.667
280.207
276.967
246.202
43.08
151.053
75.8696
151.882
38.8287
50.1052
0.297418
202.327
180.47
203.191
173.751
146.458
172.773
147.603
180.102
201.553
202.868
173.427
145.597
147.242
171.985
286.278
290.643
309.95
284.437
260.37
279.51
265.265
305.997
287.54
302.663
271.978
259.875
256.741
275.183
198.447
237.539
142.562
119.018
217.915
51.8698
166.172
36.214
30.5411
130.349
47.0895
0.242051
22.5846
0.0686764
199.288
172.601
196.233
142.734
169.492
166.001
138.635
282.543
260.909
238.796
239.014
271.708
249.763
271.391
256.474
281.979
287.613
272.603
235.693
267.116
241.545
311.318
293.588
290.774
287.439
284.599
263.816
266.681
319.225
289.272
306.457
276.167
293.921
281.108
263.204
137.602
209.469
140.344
205.951
243.866
130.649
178.447
160.059
175.875
180.961
159.009
129.798
153.484
135.973
295.162
279.36
247.434
269.377
276.486
266.421
298.122
210.867
173.712
181.477
184.271
191.413
159.048
150.111
281.011
274.788
293.783
254.481
273.557
266.506
247.493
266.381
271.591
268.011
232.474
234.371
235.974
230.87
267.379
272.046
268.435
232.8
235.157
231.599
236.322
153.736
70.6901
202.138
10.6092
129.864
48.2583
180.432
64.9573
128.482
12.1295
137.414
228.952
68.6317
193.154
283.01
285.146
267.697
271.518
255.533
253.734
241.592
179.572
81.7365
209.67
4.93968
115.202
21.6344
151.889
93.458
6.10917
23.5838
0.022147
42.0057
64.8157
0.251794
168.056
187.513
192.28
161.414
126.408
133.204
155.749
270.74
234.064
267.395
254.19
223.897
220.586
257.444
284.496
280.137
294.889
264.545
239.604
249.525
254.385
275.225
235.357
267.335
228.7
260.517
252.764
220.473
277.077
251.841
252.958
252.504
253.781
228.16
226.908
278.196
251.569
252.784
252.454
253.73
228.019
226.651
299.531
258.793
286.541
255.859
283.927
270.943
242.46
320.89
289.24
307.233
279.614
297.513
282.755
264.926
264.775
264.618
260.994
232.472
228.916
225.005
228.545
19.3296
15.1285
47.832
1.37334
8.1228
53.813
25.9448
0.145797
6.62621
121.701
59.0511
80.4983
0.148536
11.2037
83.4374
0.000141095
0.00082235
0.000167872
9.37912e-05
0.00264067
0.00301157
0.0587843
0.0017107
0.00196665
0.0381416
0.000780105
0.000674366
0.0149028
5.09633e-05
0.00353755
2.77561e-05
7.82817e-05
0.00112103
0.000281015
2.71715e-05
2.167e-05
3.6552e-06
1.47748e-06
5.61708e-06
6.86397e-06
0.000106698
6.23425e-05
1.25183e-06
3.17583e-07
1.59025e-07
7.23727e-06
4.58422e-07
1.09312e-06
2.04822e-08
8.10469e-10
2.85138e-11
2.91795e-09
1.22257e-10
4.51037e-12
0.0545982
0.346776
0.0407268
1.98048
2.15912
8.36123
0.305401
8.33537
36.0883
20.012
23.0996
7.34844e-05
0.0133527
0.00122172
0.236592
0.0010124
0.00177639
0.0267188
0.151335
0.354203
3.86464
1.8937e-05
0.00407904
9.96853e-07
5.82279e-08
1.73488
0.0205902
0.00130263
0.000978624
0.0103836
0.0366941
0.00552941
0.151342
0.107317
0.59117
0.0206395
5.69445e-05
0.000785472
6.73039e-06
1.38943e-05
0.000490925
1.28895e-06
2.13534e-05
8.66649e-07
0.0006007
1.11133e-05
0.000140921
2.82315e-05
0.000187318
0.0126262
5.31467e-05
0.000130897
0.00112213
1.19136e-05
0.00213503
0.000215012
0.00012332
0.00179729
1.55937e-05
0.00280603
0.277578
0.0236937
0.032265
7.44917e-05
7.2678e-06
9.02743e-07
5.24483e-07
1.13263e-07
1.48321e-06
4.97845e-08
1.39817e-07
4.42909e-07
4.60272e-05
2.6428e-07
1.06665e-08
3.71794e-10
0.0173419
7.95777e-06
4.75028e-08
1.06689e-07
1.79311e-09
3.71814e-09
6.40384e-11
14.1637
0.0412162
0.000256592
0.409127
4.57332e-05
0.00120431
4.51414e-11
1.26944e-09
4.30033e-12
6.62318e-12
6.12539e-12
5.19727e-11
2.09659e-10
4.42878e-11
1.92304e-10
3.3616e-08
6.87828e-07
1.59189e-09
7.07366e-09
1.2905e-09
5.75351e-09
6.94649e-08
4.03427e-08
2.21468e-07
1.64015e-07
2.07919e-06
9.13067e-07
2.77699e-14
1.56542e-12
4.34132e-14
9.0998e-13
0
0
0
0
1.93298e-13
6.4271e-15
3.56522e-14
4.01002e-12
0
1.92813e-14
5.64493e-13
4.46756e-12
1.30252e-12
1.0361e-12
4.34617e-13
0
0
0
0
0
0
0
0
0
0
0
0
0
0
5.69344e-13
2.35135e-13
2.91281e-13
4.29948e-12
1.85659e-11
2.69612e-11
4.66874e-12
9.08282e-14
1.09503e-13
3.48033e-14
4.48684e-15
6.4271e-15
0
1.51582e-14
8.82816e-12
2.03897e-12
4.48902e-12
0
0
0
0
0
0
0
0
0
0
0
0
0
0
0
0
0
0
0
0
0
0
0
0
0
0
0
0
0
0
0
0
0
0
0
0
0
0
0
0
0
0
0
0
0
0
3.67436e-14
3.73499e-14
2.07365e-14
0
0
0
0
1.07598e-09
1.51543e-10
1.33324e-09
4.87777e-10
7.24556e-10
1.06689e-09
6.51757e-09
3.23881e-10
8.8264e-11
2.34722e-10
2.89275e-11
1.34468e-10
4.06415e-09
3.39074e-11
1.38067e-11
1.78763e-11
1.45175e-10
5.76075e-10
0
3.81988e-13
3.4197e-14
4.54747e-14
3.78835e-13
1.5037e-14
0
8.91008e-08
3.26555e-09
1.81023e-07
9.84719e-08
4.50809e-07
3.90277e-08
6.6903e-07
1.04024e-08
2.61366e-09
9.59326e-09
1.52758e-07
1.98982e-08
9.03445e-10
1.23231e-06
7.66721e-07
2.74685e-06
2.34355e-06
1.88487e-06
1.57387e-06
4.8889e-07
1.08471e-06
8.11823e-07
9.1008e-08
3.31219e-07
5.11971e-07
1.19138e-06
3.10301e-07
4.99953e-07
9.59786e-08
6.74777e-08
8.56519e-07
1.8688e-07
3.23929e-07
2.35561e-07
3.52278e-07
5.5681e-08
2.72234e-08
1.2207e-07
1.9874e-07
4.10259e-07
3.49328e-08
9.10048e-08
1.76947e-07
1.74058e-07
6.61312e-07
6.48028e-08
2.49357e-07
6.79559e-09
5.79273e-08
3.77035e-10
7.64682e-09
6.94493e-11
4.6495e-09
2.87184e-09
3.23269e-08
2.04565e-08
1.07304e-08
1.22455e-08
7.17342e-09
9.73429e-09
1.76532e-07
1.16967e-07
1.32904e-07
1.64414e-09
4.97242e-10
1.18567e-08
3.39196e-09
1.56024e-07
3.74986e-09
4.50836e-09
1.3081e-09
2.70513e-09
6.41308e-08
2.33775e-08
4.00636e-07
3.45099e-08
2.81624e-07
1.69969e-10
3.30507e-11
1.17218e-09
5.65234e-08
2.17148e-10
3.88723e-10
6.16871e-10
8.97396e-11
3.80393e-10
1.17767e-07
8.16613e-09
7.21461e-08
1.51342e-09
4.7914e-09
1.95739e-08
1.02214e-11
2.48741e-12
6.80535e-11
1.55233e-11
2.30256e-11
7.10108e-11
6.7168e-12
4.99153e-11
8.48027e-10
4.17413e-09
1.0072e-10
6.09431e-10
1.75683e-09
1.91694e-08
3.45889e-08
1.15321e-09
2.83871e-12
2.5801e-09
2.25222e-10
1.70359e-11
3.83739e-09
3.00597e-10
1.01678e-09
1.95144e-09
4.51001e-09
9.64464e-10
1.9128e-09
3.1409e-10
2.20162e-10
3.23159e-09
5.86578e-10
1.24036e-09
7.14707e-10
1.34517e-09
1.85997e-10
1.69581e-08
5.63497e-09
7.6355e-08
3.1621e-08
5.37244e-09
7.38337e-08
1.79619e-08
1.26405e-08
2.22841e-08
3.30024e-09
4.70022e-08
3.94868e-09
5.3073e-08
1.02652e-08
8.02913e-11
3.40694e-10
6.73196e-10
1.38501e-09
1.04002e-10
2.5456e-10
5.97143e-10
3.59914e-11
5.96996e-10
7.92288e-11
2.05204e-10
1.15999e-10
2.45734e-10
2.58932e-11
4.75713e-09
1.9409e-09
2.88252e-08
1.0564e-08
6.30428e-09
1.51005e-09
2.45376e-08
2.13317e-09
4.43022e-09
4.20223e-10
5.72573e-09
6.71674e-10
1.07348e-08
1.01414e-09
1.21735e-08
1.94638e-07
2.7461e-08
3.44403e-08
4.38649e-08
7.57945e-08
5.66701e-09
6.64404e-12
2.94296e-11
6.99914e-11
1.33496e-10
9.70491e-12
1.93504e-11
5.74044e-11
2.37208e-12
4.1552e-11
4.89672e-12
1.46054e-11
6.79102e-12
1.80801e-11
1.72319e-12
2.42423e-10
1.5757e-10
2.56548e-09
9.24752e-10
4.46857e-10
1.04194e-10
1.53421e-09
1.39017e-09
1.05353e-08
1.96053e-08
4.34422e-08
2.73047e-09
6.8394e-09
9.42582e-09
9.92177e-11
2.84317e-10
2.46382e-11
3.4307e-10
3.71216e-11
5.91526e-10
5.22855e-11
3.37362e-13
1.67893e-12
4.43251e-12
5.19734e-12
5.83774e-13
6.96067e-13
3.31626e-12
1.46368e-13
1.96317e-12
7.94777e-13
1.25377e-12
3.04014e-13
1.26881e-12
2.89583e-13
1.22104e-11
8.50814e-12
1.34231e-10
3.00419e-11
2.15211e-11
3.51647e-12
8.43739e-11
6.3718e-12
1.23355e-11
4.52358e-12
2.62033e-11
1.58592e-12
3.4657e-11
2.63499e-11
1.46018e-08
3.59096e-07
1.98416e-09
9.75948e-09
2.71876e-08
8.51036e-08
3.15129e-09
1.962e-10
1.68743e-10
9.71462e-11
1.0687e-09
2.5596e-11
3.88627e-10
3.19106e-10
3.47803e-12
6.96382e-12
8.73445e-11
3.87773e-10
3.58595e-10
1.80392e-10
2.80352e-11
1.02945e-11
1.38437e-12
2.29075e-11
3.43668e-12
5.16614e-11
1.65846e-11
1.18153e-09
7.45713e-11
6.9856e-11
1.24974e-10
6.0083e-10
3.95994e-10
4.39594e-10
7.66866e-10
2.50233e-08
2.57809e-10
9.6327e-09
3.14199e-11
1.85154e-09
2.56878e-12
2.57462e-10
1.53756e-11
1.45833e-10
1.01156e-10
4.0914e-11
2.82563e-09
5.58561e-10
2.65838e-09
7.80019e-12
3.27879e-12
5.14068e-11
1.93568e-11
1.71202e-11
9.7499e-12
1.06525e-09
1.12218e-10
9.01728e-10
1.12741e-12
4.16791e-13
6.63773e-12
1.97142e-12
2.49893e-12
1.43749e-12
1.81481e-10
1.13661e-11
1.44734e-10
1.18962e-13
6.10089e-13
3.22567e-13
2.42819e-11
1.02809e-12
1.31253e-11
2.60819e-12
7.99046e-12
2.4121e-12
7.82663e-12
1.04095e-12
5.59444e-11
2.13161e-11
3.01188e-10
1.41172e-10
1.99045e-11
2.94666e-10
5.84486e-11
4.25659e-11
6.89926e-11
1.35277e-11
1.99875e-10
1.1595e-11
2.24056e-10
3.55927e-11
3.41242e-13
1.39189e-12
3.64901e-12
4.49509e-12
5.23263e-13
7.15833e-13
2.9373e-12
1.98027e-13
2.83738e-12
4.70512e-13
1.91903e-12
4.31464e-13
1.73447e-12
2.13792e-13
1.45369e-11
7.19471e-12
1.03455e-10
2.32444e-11
1.94747e-11
3.46712e-12
8.94334e-11
6.91095e-12
1.1484e-11
2.1977e-12
3.43268e-11
1.75775e-12
4.1289e-11
5.10396e-12
3.75924e-14
1.7911e-13
6.02328e-13
5.87291e-13
7.54274e-14
7.2032e-14
4.24431e-13
1.04289e-14
3.79077e-13
4.45046e-14
2.32831e-13
3.95327e-14
1.50249e-13
1.47944e-14
1.24237e-12
8.37341e-13
1.18447e-11
2.38372e-12
1.97664e-12
3.12987e-13
9.14176e-12
4.36315e-13
1.21278e-12
2.01665e-13
3.06536e-12
1.5801e-13
2.81386e-12
3.80654e-13
0
9.45874e-15
6.69388e-14
6.73026e-14
2.54659e-15
1.94026e-15
1.84324e-14
6.74239e-14
6.73026e-14
9.32535e-13
2.64117e-13
1.35818e-13
2.08577e-14
6.39799e-13
0
0
6.97279e-14
2.24645e-12
5.77043e-11
1.3306e-09
2.72467e-08
0
0
0
9.87105e-14
2.94409e-12
6.42791e-11
1.22346e-09
0
0
0
0
1.06108e-13
2.6647e-12
4.96534e-11
0
0
0
0
0
7.62763e-14
1.77606e-12
0
0
0
1.69772e-15
3.00861e-13
7.38704e-12
1.55917e-10
0
0
0
0
1.45519e-14
6.79574e-13
1.39597e-11
0
0
0
0
3.39545e-15
3.32875e-13
6.99644e-12
0
0
0
0
0
1.6856e-14
6.19669e-13
0
0
0
0
0
1.69772e-15
2.42896e-13
0
0
0
0
0
0
1.06714e-14
0
2.35256e-14
1.27002e-12
2.58309e-11
1.57712e-05
3.13687e-07
1.64125e-08
7.11256e-10
2.68616e-11
3.09271e-06
1.03173e-07
5.12212e-09
2.27447e-10
8.89171e-12
1.8818e-07
1.38864e-08
7.17581e-10
3.18495e-11
1.18974e-12
2.36629e-08
1.48723e-09
7.33084e-11
3.09313e-12
9.44662e-14
2.21815e-09
1.1874e-10
5.32673e-12
2.00453e-13
1.21266e-16
3.06987e-10
1.32786e-11
4.85913e-13
7.76102e-15
0
4.21766e-10
2.07868e-11
8.78572e-13
2.21917e-14
0
0
3.45957e-10
2.14187e-11
1.07211e-12
3.31056e-14
0
0
0
1.4814e-11
9.17862e-13
3.24993e-14
0
0
0
0
5.36238e-13
2.00089e-14
0
0
0
0
0
0
0
0
0
0
2.0979e-13
7.17228e-12
2.02086e-10
5.40022e-09
1.5171e-07
0
0
0
6.18456e-15
5.85715e-13
1.74423e-11
4.74759e-10
1.27978e-08
0
0
0
0
2.26767e-14
1.07745e-12
2.88665e-11
7.17369e-10
0
0
0
0
0
3.80775e-14
1.43894e-12
3.38793e-11
0
0
0
0
0
0
4.34132e-14
1.34084e-12
0
0
0
0
0
6.17244e-14
2.44521e-12
6.89487e-11
1.78006e-09
5.12832e-08
0
0
0
0
1.89417e-13
5.86297e-12
1.54849e-10
4.06627e-09
0
0
0
0
2.54659e-15
3.52278e-13
9.61069e-12
2.30588e-10
0
0
0
0
0
6.91216e-15
4.77303e-13
1.1228e-11
0
0
0
0
0
0
8.48862e-15
4.41529e-13
0
0
0
0
0
0
0
0
0
0
9.70128e-16
3.36513e-13
1.08466e-11
2.83597e-10
7.69049e-09
0
0
0
0
1.37031e-14
8.18909e-13
2.28655e-11
5.89462e-10
0
0
0
0
0
3.63798e-14
1.34338e-12
3.29208e-11
0
0
0
0
0
0
5.04466e-14
1.5322e-12
0
0
0
0
0
0
0
4.38983e-14
0
0
0
0
0
0
0
0
0
0
0
0
0
0
0
2.40107e-14
1.15688e-12
3.40977e-11
9.42816e-10
0
0
0
0
0
7.32446e-14
2.46158e-12
6.40096e-11
0
0
0
0
0
0
1.17871e-13
3.37908e-12
0
0
0
0
0
0
0
1.31574e-13
0
0
0
0
0
0
0
0
0
0
0
0
0
0
0
0
0
0
0
0
0
0
6.4271e-15
7.03221e-13
2.61612e-11
0
0
0
0
0
9.24047e-14
3.19427e-12
8.21733e-11
0
0
0
0
0
0
1.78018e-13
4.88556e-12
0
0
0
0
0
0
1.69772e-15
2.18885e-13
0
0
0
0
0
0
0
1.69772e-15
0
0
0
0
0
0
0
0
0
0
2.02635e-13
4.73616e-12
0
0
0
0
0
0
0
0
1.6856e-14
1.23291e-12
5.82716e-11
0
0
0
0
0
1.63467e-13
6.43704e-12
0
0
0
0
0
3.51671e-15
3.59432e-13
1.09389e-11
0
0
0
0
0
0
6.4271e-15
4.87974e-13
0
0
0
0
0
0
0
1.15203e-14
0
0
0
0
0
0
0
0
0
0
0
0
0
0
0
0
0
0
0
1.76078e-13
5.10602e-12
1.21282e-10
0
0
0
4.85064e-16
2.5381e-13
6.64283e-12
1.59955e-10
0
0
0
0
4.36557e-15
4.02724e-13
1.14294e-11
0
0
0
0
0
1.15203e-14
6.42225e-13
1.71003e-11
0
0
0
0
0
0
2.01301e-14
8.47892e-13
0
0
0
0
0
0
0
2.63147e-14
0
0
0
0
0
0
0
0
0
0
0
0
0
0
0
0
0
0
0
0
0
0
0
0
0
0
0
0
0
2.34043e-14
8.31157e-13
1.74739e-11
0
0
0
0
0
0
3.24993e-14
1.02567e-12
0
0
0
0
0
0
0
3.7835e-14
0
0
0
0
0
0
0
0
0
0
0
0
0
0
0
0
0
0
0
0
0
0
0
0
0
0
0
0
0
0
0
0
0
0
0
0
0
0
2.72848e-14
8.08359e-13
0
0
0
0
0
0
0
3.24993e-14
0
0
0
0
0
0
0
0
0
0
0
0
0
0
0
0
0
0
0
0
0
0
0
0
0
0
0
0
0
0
0
0
0
0
0
0
0
0
0
0
0
0
0
0
0
0
0
1.72198e-14
0
0
0
0
0
0
0
0
0
0
0
0
0
0
0
0
0
0
0
0
0
0
0
0
0
0
0
0
0
0
0
0
0
0
0
0
0
0
0
0
0
0
0
0
0
0
0
0
0
0
0
0
0
0
0
0
0
0
0
0
0
0
0
0
0
0
0
0
0
0
0
0
0
0
0
0
0
0
0
0
0
0
0
0
4.24431e-15
3.76046e-13
1.72913e-12
1.39456e-14
1.20902e-13
0
0
0
0
1.21266e-16
0
0
0
0
0
0
0
0
0
0
0
0
0
0
0
0
0
0
0
0
1.78989e-13
4.34132e-14
1.27208e-13
8.96155e-14
0
0
0
0
0
0
0
0
0
0
0
0
0
0
0
0
0
0
0
0
0
0
0
0
0
0
0
0
0
0
0
0
0
0
0
0
0
0
0
0
0
0
0
0
0
0
0
0
0
0
0
0
0
0
0
0
0
0
0
0
0
0
0
0
0
0
0
0
0
0
0
0
0
0
0
0
0
0
0
0
0
0
0
0
1.04289e-14
0
0
0
5.21444e-15
3.39545e-15
0
5.25082e-14
8.67052e-14
0
1.94026e-14
2.35256e-14
1.52553e-13
2.78912e-15
0
0
0
0
0
0
0
5.14289e-13
7.84227e-13
3.07894e-13
1.30919e-12
0
0
0
0
0
0
0
0
0
0
0
0
1.05501e-14
0
0
0
0
0
0
0
0
0
0
0
0
0
0
0
0
0
0
0
0
0
0
0
0
0
0
0
0
0
0
0
0
0
0
0
0
0
0
0
0
0
0
0
0
0
0
0
0
0
0
0
0
0
0
0
0
0
0
0
0
0
0
0
0
0
0
0
0
0
0
0
0
0
0
0
0
0
0
0
0
0
0
0
0
0
0
0
1.25874e-13
2.29193e-14
6.01479e-14
0
3.39545e-15
0
1.21266e-16
2.35062e-12
8.04842e-13
2.44763e-12
1.14475e-13
3.44032e-13
4.18368e-14
1.84324e-13
0
0
0
0
0
0
0
9.33748e-15
0
0
0
3.39545e-15
0
0
0
0
0
0
0
0
0
0
0
0
0
0
0
0
0
0
0
0
0
0
0
0
0
0
0
0
0
0
0
0
0
0
0
0
0
0
0
0
0
0
0
0
0
0
0
0
0
0
0
0
0
0
0
0
0
0
0
0
0
0
0
0
0
0
0
0
0
0
0
0
0
0
0
0
0
0
0
0
0
0
0
0
0
0
0
0
0
0
0
0
0
0
1.51461e-13
7.38364e-12
9.23804e-13
3.09841e-11
9.11922e-10
0
4.81426e-14
2.60006e-12
3.08258e-13
1.11117e-11
3.43749e-10
0
9.70128e-16
3.85019e-13
1.73507e-12
5.74425e-11
3.35907e-14
7.90763e-12
2.13549e-13
1.33212e-11
3.54097e-14
3.8029e-13
1.78168e-09
2.46412e-12
1.31762e-10
0
0
0
0
0
0
4.24431e-15
2.3368e-13
1.11565e-14
2.13307e-13
7.99143e-13
2.16958e-11
1.1211e-12
0
0
1.01863e-14
4.42621e-14
1.6953e-13
0
6.91216e-15
3.29843e-14
1.49278e-13
9.37022e-13
2.33267e-12
7.0122e-12
1.13141e-13
8.05085e-13
1.92061e-12
6.20518e-12
5.47253e-11
7.94011e-11
2.53113e-10
5.56029e-12
6.68453e-11
2.38058e-10
0
0
0
0
0
0
8.65839e-14
0
2.48595e-14
3.30935e-13
2.07365e-13
0
4.85064e-16
1.27329e-14
5.23869e-14
0
0
9.70128e-16
2.48595e-14
3.57371e-13
9.33627e-13
2.58866e-12
1.12777e-14
1.28178e-13
3.67072e-13
1.52468e-12
3.16801e-11
9.24018e-11
1.18926e-12
1.50384e-11
7.72634e-11
0
0
0
3.75924e-15
0
0
3.77137e-14
1.60071e-14
0
0
4.85064e-16
4.23218e-14
1.26238e-13
3.81624e-13
0
5.57823e-15
1.04167e-13
1.93662e-13
5.06528e-12
1.57138e-11
1.55584e-13
2.03133e-12
1.17826e-11
0
0
0
0
3.29843e-14
2.17794e-13
0
2.88613e-14
0
2.4617e-14
6.24883e-13
2.02902e-12
1.95238e-14
1.60192e-13
5.54671e-13
1.4655e-12
1.19326e-12
1.95769e-11
6.82849e-13
5.32314e-11
4.14657e-12
1.63418e-12
2.97737e-11
3.51865e-10
2.71301e-11
1.75048e-10
4.27438e-12
0
1.43094e-14
1.93807e-12
1.3453e-11
1.13141e-13
9.84437e-13
8.97368e-14
1.51575e-10
1.19495e-11
2.02776e-10
7.59963e-11
1.28109e-10
1.2897e-10
6.91216e-14
0
2.73455e-13
6.0633e-15
3.32875e-13
5.28841e-13
2.15853e-14
5.30296e-13
7.36084e-14
1.0709e-12
1.18719e-13
3.14411e-11
3.69591e-11
2.07668e-12
3.06786e-11
6.06645e-12
7.43754e-11
8.73103e-12
0
0
0
0
0
0
0
0
0
0
0
0
0
0
0
0
0
0
0
0
0
0
0
0
0
0
0
0
0
0
0
0
0
0
0
0
0
0
0
0
0
0
0
0
7.88229e-15
9.70128e-16
0
2.78912e-15
0
3.63798e-16
1.72198e-14
1.00408e-13
1.57403e-13
8.00355e-15
5.71163e-14
3.39545e-15
0
4.85064e-16
0
1.17628e-14
0
1.21266e-15
0
0
1.32422e-13
1.8675e-14
5.32358e-14
9.45874e-15
4.15942e-14
3.63798e-16
1.65892e-13
7.05768e-14
1.61599e-12
5.05558e-13
4.76575e-14
1.17155e-12
2.00938e-13
8.06419e-13
3.91919e-12
5.71999e-12
1.89096e-11
3.43546e-12
4.76951e-12
9.12405e-13
1.96936e-13
5.12591e-13
1.14718e-13
1.72525e-12
6.20882e-14
1.32156e-12
2.33558e-13
0
0
0
0
0