/*--------------------------------*- C++ -*----------------------------------*\
  =========                 |
  \\      /  F ield         | OpenFOAM: The Open Source CFD Toolbox
   \\    /   O peration     | Website:  https://openfoam.org
    \\  /    A nd           | Version:  9
     \\/     M anipulation  |
\*---------------------------------------------------------------------------*/
FoamFile
{
    format      ascii;
    class       volScalarField;
    location    "0.00245";
    object      overpressureMax;
}
// * * * * * * * * * * * * * * * * * * * * * * * * * * * * * * * * * * * * * //

dimensions      [1 -1 -2 0 0 0 0];

internalField   nonuniform List<scalar> 
20290
(
8.73115e-11
4.91855e-09
1.28435e-07
3.06471e-06
6.94905e-05
0.00169798
0.0238401
0
2.76486e-10
9.57516e-09
2.25918e-07
4.91667e-06
0.000103224
0.00232605
0
0
4.80213e-10
1.31258e-08
2.80605e-07
5.40983e-06
9.73148e-05
0
0
0
5.67525e-10
1.37225e-08
2.57962e-07
4.26396e-06
0
0
0
0
4.80213e-10
1.0521e-08
1.7081e-07
0.0223056
0.00165278
6.12261e-05
2.31047e-06
1.02079
232822
0.528537
0.0193468
0.000655852
2.42026e-05
282568
779.707
3.73341
0.00430542
0.000177196
0.0841304
3569.53
366486
420991
0.0240117
336.961
5481.26
412071
521595
0.00131508
0.517491
68458.5
335819
469810
0
0
0
0
0
1.16415e-10
4.33647e-09
7.42584e-08
9.89297e-07
0
0
0
0
1.74623e-10
6.12636e-09
1.26907e-07
2.24578e-06
3.06159e-05
0
0
0
1.89175e-10
6.38829e-09
1.55153e-07
3.41074e-06
6.31301e-05
0.000852364
0
0
1.16415e-10
5.26779e-09
1.42609e-07
3.67103e-06
8.60617e-05
0.00151204
0.00733145
0
1.45519e-11
3.30328e-09
9.81527e-08
2.81236e-06
7.74178e-05
0.00173572
0.00893749
0.192663
0
1.5425e-09
4.95784e-08
1.50084e-06
4.57199e-05
0.00125718
0.00900652
0.271916
71.3423
4.80213e-10
1.84082e-08
5.56407e-07
1.72616e-05
0.000584868
0.0082987
0.125131
42.7322
501934
4.9331e-09
1.59795e-07
4.55593e-06
0.000123666
0.00351689
52.5277
325070
469111
611175
0
0
0
0
0
0
1.39698e-09
2.33122e-08
3.01341e-07
0
0
0
0
0
1.94996e-09
3.9232e-08
6.53265e-07
8.49341e-06
0
0
0
0
2.05182e-09
4.79049e-08
9.707e-07
1.74922e-05
0.000254365
0
0
0
1.67347e-09
4.44707e-08
1.04698e-06
2.36819e-05
0.000507299
0.0046247
0
0
1.06229e-09
3.12284e-08
8.20597e-07
2.13785e-05
0.000585091
0.00550849
0.047513
0
4.94765e-10
1.63564e-08
4.5888e-07
1.26206e-05
0.000380939
0.00559805
0.0623848
5.34713
1.16415e-10
6.15546e-09
1.81622e-07
4.88777e-06
0.000127168
0.00359873
0.0300438
3.21273
487415
1.65892e-09
5.37548e-08
1.48943e-06
3.72346e-05
0.000842385
3.7238
182433
455293
584356
0
0
0
0
0
0
1.45519e-10
3.33239e-09
4.54165e-08
0
0
0
0
0
2.03727e-10
5.61704e-09
9.73232e-08
1.33434e-06
0
0
0
0
2.47383e-10
6.89761e-09
1.4402e-07
2.56447e-06
3.59507e-05
0
0
0
1.89175e-10
6.54836e-09
1.56957e-07
3.40147e-06
6.26993e-05
0.000848939
0
0
1.01863e-10
4.70027e-09
1.26456e-07
3.1651e-06
7.16e-05
0.00125793
0.00479598
0
0
2.56114e-09
7.4142e-08
2.046e-06
5.3067e-05
0.00116866
0.00550935
0.442907
0
9.8953e-10
3.07045e-08
8.91305e-07
2.51728e-05
0.000656528
0.00496547
0.311785
254.98
2.32831e-10
9.12405e-09
2.64612e-07
7.37776e-06
0.000233055
0.00540721
0.0611703
15.6486
441647
0
0
0
0
0
0
0
3.0559e-10
5.04951e-09
0
0
0
0
0
0
5.67525e-10
1.02591e-08
1.43118e-07
0
0
0
0
0
6.8394e-10
1.46538e-08
2.55575e-07
3.66481e-06
0
0
0
0
6.40284e-10
1.58179e-08
3.27243e-07
5.97473e-06
8.73617e-05
0
0
0
4.36557e-10
1.29512e-08
3.04542e-07
6.62451e-06
0.000123816
0.00174586
0
0
2.03727e-10
7.90169e-09
2.04847e-07
5.02545e-06
0.000111809
0.00201316
0.00882695
0
4.36557e-11
3.46336e-09
9.7396e-08
2.55441e-06
6.31139e-05
0.00132079
0.00667854
0.60612
0
1.09139e-09
3.28437e-08
8.85542e-07
2.32421e-05
0.000595899
0.0101171
0.105936
12540.6
0
0
0
0
0
0
0
0
4.65661e-10
0
0
0
0
0
0
0
9.60426e-10
1.43918e-08
0
0
0
0
0
0
1.36788e-09
2.40398e-08
3.48955e-07
0
0
0
0
0
1.39698e-09
2.9715e-08
5.26605e-07
7.8943e-06
0
0
0
0
1.13505e-09
2.75177e-08
5.67801e-07
1.05014e-05
0.000161777
0
0
0
7.13044e-10
1.91067e-08
4.40021e-07
9.43693e-06
0.000179683
0.0026384
0
0
2.76486e-10
9.70613e-09
2.41635e-07
5.67804e-06
0.000124217
0.00223473
0.0111397
0
4.36557e-11
3.55067e-09
9.39617e-08
2.31467e-06
5.51101e-05
0.00122602
0.0181866
1153.99
0
0
0
0
0
0
0
0
0
4.36557e-10
0
0
0
0
0
0
0
0
1.10595e-09
1.35769e-08
0
0
0
0
0
0
1.45519e-11
1.8772e-09
2.74886e-08
3.21626e-07
0
0
0
0
0
4.36557e-11
2.28465e-09
3.99305e-08
5.91885e-07
7.07025e-06
0
0
0
0
0
2.06637e-09
4.2477e-08
7.57063e-07
1.16645e-05
0.000147116
0
0
0
0
1.44064e-09
3.34403e-08
6.83824e-07
1.26741e-05
0.000209419
0.00290757
0
0
0
7.567e-10
1.93395e-08
4.34447e-07
9.11015e-06
0.000179803
0.00323581
0.229902
0
0
2.47383e-10
7.989e-09
1.92973e-07
4.341e-06
9.42092e-05
0.00199459
0.16198
1128.58
0
0
0
0
0
0
0
0
0
0
0
0
0
0
0
0
0
0
0
8.44011e-10
0
0
0
0
0
0
0
4.36557e-11
1.68802e-09
2.05182e-08
0
0
0
0
0
0
8.73115e-11
2.45927e-09
3.6438e-08
4.31974e-07
0
0
0
0
0
5.82077e-11
2.57569e-09
4.5824e-08
6.80651e-07
8.24958e-06
0
0
0
0
0
2.06637e-09
4.16039e-08
7.32107e-07
1.12221e-05
0.000145106
0
0
0
0
1.22236e-09
2.7183e-08
5.41811e-07
9.7757e-06
0.000160619
0.00230415
0
0
0
4.80213e-10
1.2602e-08
2.74536e-07
5.47471e-06
0.000102441
0.00180649
0.0100163
0
0
0
0
0
0
0
0
0
0
0
0
0
0
0
0
0
0
0
0
0
0
0
0
0
0
0
0
0
1.04774e-09
0
0
0
0
0
0
0
5.82077e-11
1.84809e-09
2.22935e-08
0
0
0
0
0
0
5.82077e-11
2.28465e-09
3.43425e-08
4.06886e-07
0
0
0
0
0
1.45519e-11
2.11003e-09
3.69182e-08
5.41695e-07
6.47605e-06
0
0
0
0
0
1.38243e-09
2.78669e-08
4.77143e-07
7.08288e-06
8.79813e-05
0
0
0
0
6.1118e-10
1.45083e-08
2.78887e-07
4.75193e-06
7.1608e-05
0.000864959
0
0
0
0
0
0
0
0
0
0
0
0
0
0
0
0
0
0
0
0
0
0
0
0
0
0
0
0
0
0
0
0
0
0
0
0
0
0
0
9.31323e-10
0
0
0
0
0
0
0
0
1.49885e-09
1.78552e-08
0
0
0
0
0
0
0
1.55705e-09
2.36032e-08
2.7343e-07
0
0
0
0
0
0
1.22236e-09
2.0882e-08
2.97936e-07
3.42604e-06
0
0
0
0
0
6.1118e-10
1.25438e-08
2.05939e-07
2.87105e-06
3.19324e-05
0
0
0
0
0
0
0
0
0
0
0
0
0
0
0
0
0
0
0
0
0
0
0
0
0
0
0
0
0
0
0
0
0
0
0
0
0
0
0
0
0
0
0
0
0
0
0
0
0
6.1118e-10
0
0
0
0
0
0
0
0
8.44011e-10
1.01281e-08
0
0
0
0
0
0
0
7.27596e-10
1.10158e-08
1.23851e-07
0
0
0
0
0
0
4.36557e-10
7.72707e-09
1.0553e-07
1.12745e-06
0.0010479
0.000453687
6.09528e-05
1.10152e-05
0.000257515
0.00545483
0.18525
3606.05
180743
3.59287e-08
1.18899e-06
3.471e-05
0.000828443
0.0543832
279.612
369439
486179
640622
1.54789e-07
4.62394e-06
0.000124877
0.0035187
0.0554447
15.9627
261198
606209
4.91564e-07
1.57336e-05
0.00056884
0.0117453
0.33391
1123.17
366056
623355
1.15596e-06
3.92694e-05
0.00113662
0.0686829
775.446
358009
484968
1.35411e-06
4.21691e-05
1.13068e-08
3.64031e-07
1.11866e-05
0.000337491
0.00904264
23.1385
294880
471822
619328
5.32455e-08
1.58367e-06
3.90073e-05
0.000824401
0.00948119
1.4385
98397.1
589105
1.73241e-07
4.88012e-06
0.000123592
0.00320804
0.0619082
96.5111
335301
604053
3.6259e-07
1.07842e-05
0.000307979
0.00953596
4.90639
175899
455359
592142
4.23708e-07
1.3304e-05
1.81899e-09
5.8295e-08
1.661e-06
4.33205e-05
0.00101695
0.0186492
0.351021
395502
338268
7.91624e-09
2.41867e-07
6.74854e-06
0.000208251
0.00562782
0.113113
291.851
426779
2.88128e-08
8.90737e-07
2.50602e-05
0.000598926
0.00696429
0.592262
20881.1
504445
6.80011e-08
2.04361e-06
5.32405e-05
0.00115316
0.060305
103.622
327830
507425
8.68895e-08
2.47292e-06
1.60071e-10
7.87259e-09
2.20884e-07
5.6588e-06
0.000131561
0.00289113
0.0486607
268949
58833.5
1.13505e-09
3.59723e-08
9.91233e-07
2.70756e-05
0.000719099
0.00717095
0.45956
388130
292361
4.29281e-09
1.28683e-07
3.50522e-06
8.83545e-05
0.00185791
0.0208891
2.76925
395747
1.02882e-08
2.9942e-07
7.66999e-06
0.000175241
0.00361463
9.1133
168534
380248
1.4843e-08
4.2867e-07
0
9.16771e-10
2.63826e-08
6.77101e-07
1.60231e-05
0.000346527
0.00708461
0.102662
6412.72
8.73115e-11
4.72937e-09
1.29367e-07
3.37703e-06
8.66614e-05
0.00199557
0.0166427
17.5429
6237.08
5.23869e-10
1.88884e-08
4.98956e-07
1.22125e-05
0.000262622
0.00485024
0.0582386
50.889
1.46974e-09
4.57221e-08
1.17917e-06
2.7728e-05
0.000598249
0.0130992
0.398632
4624.69
2.18279e-09
6.59056e-08
1.70013e-06
4.01724e-05
0.000867712
0.0185723
82.4584
5869.44
0
0
2.37196e-09
6.09434e-08
1.44469e-06
3.15256e-05
0.000635025
0.0131757
1.27432
7110.8
0
3.7835e-10
1.26456e-08
3.20739e-07
7.77689e-06
0.00017515
0.00324276
0.0718094
649.758
6381.28
0
1.84809e-09
5.13246e-08
1.25768e-06
2.79237e-05
0.00055935
0.0112875
0.237054
8.73115e-11
4.88944e-09
1.28217e-07
3.09249e-06
6.94982e-05
0.00163712
0.0341817
1.23351
1.45519e-10
6.92671e-09
1.8139e-07
4.40475e-06
0.000103433
0.00247837
0.116293
736.226
0
0
8.73115e-11
4.08909e-09
9.67266e-08
2.06473e-06
3.98691e-05
0.000694847
0.0113416
31.8761
0
0
8.44011e-10
2.24536e-08
5.21919e-07
1.13687e-05
0.000221657
0.003449
0.0411125
125.901
0
5.82077e-11
3.75439e-09
9.21282e-08
2.04542e-06
4.07455e-05
0.000748356
0.0141515
0
2.76486e-10
9.67702e-09
2.33515e-07
5.16995e-06
0.000109357
0.00248103
0.12185
0
4.36557e-10
1.37225e-08
3.2848e-07
7.30291e-06
0.00015885
0.00353634
0.155822
0
0
0
1.45519e-10
5.20959e-09
1.09867e-07
2.05025e-06
3.32791e-05
0.000443705
0.00394574
0
0
0
1.22236e-09
2.84781e-08
5.8928e-07
1.11268e-05
0.000180386
0.00216877
0.04014
0
0
1.45519e-10
5.23869e-09
1.16474e-07
2.28497e-06
3.91917e-05
0.000585157
0
0
4.80213e-10
1.36206e-08
2.95186e-07
5.76991e-06
0.000104517
0.00181857
0
0
7.27596e-10
1.92958e-08
4.14526e-07
8.11303e-06
0.000149982
0.00263062
0
0
0
0
1.74623e-10
4.9622e-09
9.21282e-08
1.45259e-06
1.86635e-05
0.000170613
0
0
0
0
1.26602e-09
2.67901e-08
4.80228e-07
7.55973e-06
9.55433e-05
0.000878401
0
0
0
1.74623e-10
5.54428e-09
1.08223e-07
1.82743e-06
2.57939e-05
0
0
0
5.67525e-10
1.42172e-08
2.71611e-07
4.5156e-06
6.48479e-05
0
0
0
8.58563e-10
2.02708e-08
3.81711e-07
6.33005e-06
9.20225e-05
0
0
0
0
0
1.16415e-10
3.55067e-09
5.51954e-08
6.98841e-07
6.60231e-06
0
0
0
0
0
1.00408e-09
1.83209e-08
2.74405e-07
3.38699e-06
3.12889e-05
0
0
0
0
1.45519e-10
4.29281e-09
7.22357e-08
1.00966e-06
0
0
0
0
4.80213e-10
1.09139e-08
1.77373e-07
2.38228e-06
0
0
0
0
7.27596e-10
1.55414e-08
2.49449e-07
3.32964e-06
289551
374003
181455
45263.5
268291
64157.8
272043
205505
274207
235590
284239
0.122387
9089.39
1.12344
89175.8
382.122
151449
0.00650572
0.310912
0.0189938
3.19862
0.0185842
12.4325
0.000274598
0.0020268
0.000648125
0.00423022
0.00106932
0.00618933
1.09546e-05
8.72743e-05
2.38743e-05
0.000167908
3.4224e-05
0.0002368
311397
609864
668945
650378
488476
515292
479671
505923
343230
278360
375486
373843
364579
272802
310401
362733
274711
382531
272503
308077
361540
299278
504344
659638
600836
598388
490181
523265
657179
624629
519750
508354
578764
732435
566940
712576
488322
520808
649057
636126
613215
507544
478547
594337
445580
554272
478340
436892
543806
469460
386212
223818
401647
273301
392502
363957
293181
627822
555778
605990
476147
501069
455343
473849
663310
654979
649493
610638
606874
595589
599082
559759
468267
405629
557331
469273
391120
469575
504109
578093
483115
562960
706400
566195
636985
555046
466479
389506
468097
425562
460200
375541
725100
701308
694847
675850
670323
643936
649118
415137
495302
488922
490681
386245
394691
496871
656751
638174
643407
597276
601894
590815
586634
366454
361381
367352
344441
361527
330577
330012
366629
341829
343900
359250
360689
329936
328370
676365
655178
671723
616404
620349
608549
604658
674036
660321
677181
618458
621088
609195
606473
619024
639769
634919
583094
572932
569740
586392
384649
392933
494481
384517
481811
376668
475465
361384
339598
337447
358409
358679
327275
326674
717314
682795
687658
659731
663946
637911
633582
665292
653748
670428
615331
610729
603381
599253
536598
434584
534705
466384
419419
513088
447557
613504
624579
629094
578345
561962
565111
574746
360830
334001
335446
363670
360244
326773
327890
643417
659033
650765
598113
605214
594115
587621
573768
500373
489436
443689
527876
434390
520245
635765
670755
665153
618197
596571
592509
622797
475473
400660
391937
434569
537332
425601
529341
602606
588789
585427
558500
555625
540968
543825
452945
380656
475675
353267
444526
372942
469309
559800
512555
556967
547293
506944
504290
550180
624747
574965
620228
597652
559119
555345
601909
641218
630045
618127
589566
580008
579930
571063
252551
27115.4
252286
248580
277815
206273
53280.3
173528
297142
248362
53646.2
252456
283800
254605
282004
204597
250764
245218
251770
8123.4
25945.5
253799
31898.6
253582
285383
253598
254466
31097.7
693550
677074
654623
667197
645402
628644
621062
624421
595499
628585
558872
584486
580869
555656
429808
497662
428370
441139
456203
276164
364072
361030
176414
412559
413529
379675
16466.6
300679
13668
237648
251245
280100
272035
245329
251726
326147
312799
327536
308602
291170
307820
292136
549252
508788
552759
543250
498041
500501
540011
312412
325005
327093
308114
290158
306559
291735
634387
597453
630273
589384
560399
585915
563379
631788
601150
634889
589865
561354
563734
587322
629532
653331
658318
612316
582716
587157
607864
570197
611236
614961
592229
547049
550519
588354
597500
577966
580691
548309
550954
536521
534169
368616
333503
368979
334609
376303
330386
334711
481106
401405
432627
457005
484134
342151
383740
566649
524515
569889
560869
514027
557407
517037
617697
595009
607169
556962
568937
561101
550062
477243
336281
382222
374552
468728
289681
446414
536718
528160
497944
485820
525380
495309
539533
322637
305416
320022
288489
305092
303806
286772
568480
525157
570559
561474
515550
517582
559085
565657
517313
561709
513137
556367
552604
509799
285558
381288
372666
381082
324832
264812
5492.99
366446
375494
366390
327925
333342
327908
333183
374751
364413
365541
327249
331785
332542
326207
583477
588150
619447
576317
547221
570771
551907
571438
551062
568315
526125
514314
511265
529012
485379
556545
465351
431134
512182
398809
487789
318227
235259
385860
261734
4505.53
268174
1326.78
364340
375631
365767
332005
325878
326576
333432
532603
518642
481850
489189
521279
491522
529745
512882
550433
556796
548060
500522
542100
505740
606933
582514
578665
571227
567467
542670
546195
648064
612001
639829
577791
603010
596244
571281
451444
518911
469103
509872
547307
444592
466644
302442
314607
317325
302791
283388
302278
285014
575225
556569
516303
539445
552857
535838
579198
376011
343128
337704
395862
385581
341087
349353
577787
571226
597842
541584
564285
556896
535447
492742
497331
494897
456784
457682
459569
454772
494327
498070
495644
457381
459075
456170
460164
415879
358968
444356
168680
407551
334340
435775
385672
453554
205377
423376
517759
406367
499577
581487
573474
544134
566787
530480
537777
524723
441619
370940
463113
100219
424476
258882
442012
267152
88339.1
189023
429.962
239870
253096
4592.23
378503
373208
368711
328369
339964
336111
331420
516220
475644
513469
500841
467588
464857
503642
560959
546539
563604
521912
504744
507153
519614
543121
493647
534603
494420
535326
527338
487428
557032
512857
514695
528660
531157
494218
492328
559794
512627
514598
529116
531317
494180
492381
606696
557070
599753
543038
583974
577730
537541
668998
618280
647166
600999
627388
606828
583564
491875
491210
488680
456848
454037
451040
453817
325909
290849
473923
37637.5
161747
408058
323234
3031.18
96159.5
541210
281708
609491
2864.45
137788
522399
4.84105
16.0937
3.19972
3.19092
89.0071
102.303
1967.68
58.0914
67.3486
1282.79
26.8068
22.7884
511.305
1.34677
70.7958
0.349269
1.07817
26.5278
6.05227
0.278266
0.269272
0.0427489
0.0240889
0.155386
0.211219
3.59095
2.34108
0.0191855
0.00583107
0.00322854
0.256714
0.0154104
0.0338346
0.000175246
7.7227e-06
2.85305e-07
2.94783e-05
1.25264e-06
4.77594e-08
1530.33
7761.13
1168.87
43474.7
49882.8
124118
8385.78
132034
213336
187254
235481
2.30545
417.814
40.2633
7416.81
32.7768
58.8364
858.503
4516.85
10931.8
105293
0.287944
125.347
0.00671692
0.000599479
32292.7
478.974
36.6202
25.2603
259.085
828.663
149.375
3632.71
2740.52
12063.7
572.711
0.597049
22.0495
0.0859402
0.182635
11.2
0.0183152
0.3656
0.00920089
18.0879
0.319116
4.14711
0.521535
5.93744
377.648
1.6807
3.96851
35.4337
0.365171
64.9004
6.99224
4.10179
58.421
0.502215
88.6767
8396.46
748.116
981.517
1.70177
0.122573
0.00842909
0.00278864
0.0015946
0.0296089
0.000390103
0.00170589
0.00320705
0.64456
0.00192093
9.18568e-05
3.47449e-06
320.495
0.0999516
0.000505158
0.000804377
1.80079e-05
3.23793e-05
6.45043e-07
235228
782.506
5.34328
8052.56
0.540563
22.4543
4.20987e-07
1.10129e-05
4.29864e-08
6.57164e-08
6.13072e-08
4.93324e-07
1.97963e-06
4.23999e-07
1.81363e-06
0.000290551
0.00445256
1.46132e-05
6.6913e-05
1.16235e-05
5.14592e-05
0.000637061
0.000386536
0.00198332
0.00110888
0.0209663
0.00532154
4.51109e-10
1.58325e-08
6.40284e-10
9.63337e-09
0
0
0
0
2.2992e-09
1.45519e-10
5.67525e-10
4.02069e-08
0
3.34694e-10
6.21367e-09
4.60859e-08
1.36351e-08
1.11177e-08
4.75848e-09
0
0
0
0
0
0
0
0
0
0
0
0
0
0
6.19912e-09
2.6921e-09
3.28873e-09
4.303e-08
1.88302e-07
2.71903e-07
4.67553e-08
1.16415e-09
1.33878e-09
5.09317e-10
1.01863e-10
1.45519e-10
0
2.91038e-10
8.88103e-08
2.10566e-08
4.59258e-08
0
0
0
0
0
0
0
0
0
0
0
0
0
0
0
0
0
0
0
0
0
0
0
0
0
0
0
0
0
0
0
0
0
0
0
0
0
0
0
0
0
0
0
0
0
0
5.52973e-10
5.67525e-10
3.0559e-10
0
0
0
0
1.1681e-05
1.53245e-06
1.50353e-05
5.32005e-06
9.89901e-06
9.89775e-06
6.48268e-05
3.39272e-06
9.03936e-07
2.41914e-06
2.70884e-07
1.31103e-06
3.91442e-05
3.31769e-07
1.28653e-07
1.81986e-07
1.42411e-06
5.62987e-06
0
4.29281e-09
5.09317e-10
6.40284e-10
4.19095e-09
2.76486e-10
0
0.00130319
3.36109e-05
0.00276087
0.00177666
0.0124569
0.000522818
0.0109323
0.000135871
3.27538e-05
0.000155661
0.00155221
0.000187277
1.00422e-05
0.012018
0.00773282
0.0265065
0.0251107
0.0197508
0.0176254
0.005121
0.0115529
0.0095613
0.000982897
0.0036334
0.00519641
0.0115958
0.00341329
0.00508106
0.0010358
0.000742013
0.0087165
0.00211825
0.00343539
0.00263098
0.0037059
0.000617407
0.0003217
0.00143862
0.00214832
0.00426995
0.000407329
0.00108723
0.00192541
0.00174305
0.00619382
0.000698005
0.00195161
8.33129e-05
0.000521699
4.76818e-06
6.94339e-05
1.2606e-06
4.94129e-05
3.12036e-05
0.000331802
0.00021552
0.000109929
0.000121376
7.52226e-05
9.36042e-05
0.00183859
0.00121984
0.00137133
1.91452e-05
6.16359e-06
0.000132283
4.07177e-05
0.00167506
4.18834e-05
4.69007e-05
1.56297e-05
2.6233e-05
0.000678352
0.00026629
0.00428196
0.000330529
0.003246
2.21396e-06
4.25032e-07
1.49167e-05
0.0007002
2.75772e-06
4.92085e-06
6.9684e-06
1.12961e-06
4.14453e-06
0.00138429
9.28058e-05
0.000892976
1.87908e-05
5.15876e-05
0.000229876
1.35959e-07
3.40224e-08
8.89704e-07
2.11177e-07
2.99362e-07
7.93851e-07
8.5769e-08
5.46643e-07
9.10381e-06
4.93958e-05
1.32323e-06
6.29532e-06
1.92817e-05
0.00062299
0.00071998
3.35181e-05
4.90109e-08
4.85647e-05
4.26121e-06
3.20884e-07
7.20202e-05
3.50446e-06
1.17391e-05
2.08383e-05
4.79221e-05
1.11347e-05
2.04169e-05
3.66433e-06
2.61617e-06
3.51081e-05
6.91548e-06
1.34996e-05
8.41614e-06
1.46638e-05
2.20633e-06
0.000187337
6.23318e-05
0.000783372
0.00032463
5.94162e-05
0.000758425
0.000198249
0.000142387
0.000234197
3.7322e-05
0.000496393
4.45958e-05
0.000557362
0.000116404
1.01596e-06
4.25034e-06
7.87896e-06
1.62674e-05
1.30622e-06
3.21581e-06
7.01753e-06
4.7381e-07
7.44787e-06
1.03975e-06
2.5449e-06
1.53054e-06
3.05027e-06
3.39583e-07
5.80791e-05
2.33675e-05
0.000319763
0.000118529
7.57426e-05
1.8393e-05
0.000275311
2.7466e-05
5.3078e-05
5.41958e-06
7.03794e-05
8.6208e-06
0.000127714
1.35063e-05
0.000152961
0.00221984
0.000352004
0.000410863
0.000559533
0.000860764
7.45464e-05
9.17353e-08
4.02288e-07
9.11183e-07
1.74933e-06
1.32466e-07
2.69851e-07
7.49249e-07
3.32657e-08
5.54457e-07
6.66769e-08
1.86017e-07
9.71195e-08
2.35537e-07
2.32976e-08
3.36581e-06
2.12211e-06
3.29951e-05
1.16652e-05
6.13874e-06
1.411e-06
1.98286e-05
1.90147e-05
0.000142071
0.000245282
0.00049716
3.68138e-05
9.07216e-05
0.000118756
1.38614e-06
3.67158e-06
3.31071e-07
4.45149e-06
5.11835e-07
7.72164e-06
7.29342e-07
4.99131e-09
2.33995e-08
5.89207e-08
7.08969e-08
8.23638e-09
1.04046e-08
4.43542e-08
2.18279e-09
2.74449e-08
1.34314e-08
1.65164e-08
4.74392e-09
1.66037e-08
4.5693e-09
1.74594e-07
1.17274e-07
1.78617e-06
4.06799e-07
3.06027e-07
5.09026e-08
1.11626e-06
1.06375e-07
1.98124e-07
8.80827e-08
4.00061e-07
2.58588e-08
4.7464e-07
7.43414e-07
0.000288059
0.0124674
4.80051e-05
0.000234392
0.000784832
0.00247482
5.70465e-05
3.39409e-06
3.43569e-06
2.29418e-06
2.18779e-05
4.4443e-07
6.64241e-06
5.78415e-06
5.89644e-08
8.92178e-08
1.07629e-06
5.78881e-06
6.02327e-06
2.45126e-06
4.86194e-07
2.02592e-07
2.33267e-08
4.12183e-07
5.65778e-08
9.19681e-07
2.97878e-07
2.40045e-05
1.79825e-06
1.54841e-06
2.30325e-06
1.72653e-05
7.41218e-06
8.18292e-06
7.94328e-06
0.000208937
2.93214e-06
7.80714e-05
3.86586e-07
1.91163e-05
3.21743e-08
2.6248e-06
1.72309e-07
1.5791e-06
1.09927e-06
4.35582e-07
2.46186e-05
5.81035e-06
2.28815e-05
9.35106e-08
3.80242e-08
6.01343e-07
2.29731e-07
1.99827e-07
1.05138e-07
1.00978e-05
1.29927e-06
8.35941e-06
1.45519e-08
5.04951e-09
8.5347e-08
2.28902e-08
2.97732e-08
1.60508e-08
1.96257e-06
1.34474e-07
1.55326e-06
1.68802e-09
7.87259e-09
4.07454e-09
2.68425e-07
1.24128e-08
1.50234e-07
3.17523e-08
8.801e-08
2.98023e-08
8.65839e-08
1.25146e-08
6.73637e-07
2.52927e-07
3.3117e-06
1.52813e-06
2.36003e-07
3.23731e-06
7.04022e-07
5.19562e-07
8.22343e-07
1.6077e-07
2.21349e-06
1.4338e-07
2.49667e-06
4.32585e-07
4.49654e-09
1.78552e-08
4.3583e-08
5.51518e-08
6.70843e-09
9.5024e-09
3.53903e-08
2.75031e-09
3.28e-08
6.02449e-09
2.16969e-08
5.58794e-09
2.16824e-08
2.75031e-09
1.88142e-07
9.02946e-08
1.23793e-06
2.874e-07
2.49376e-07
4.53729e-08
1.07671e-06
9.30304e-08
1.4012e-07
2.7896e-08
4.21147e-07
2.30648e-08
5.24466e-07
6.72007e-08
5.96629e-10
2.54659e-09
7.43603e-09
7.49424e-09
1.10595e-09
1.13505e-09
5.326e-09
2.18279e-10
4.52565e-09
6.98492e-10
3.0268e-09
6.40284e-10
2.05182e-09
2.76486e-10
1.75642e-08
1.15688e-08
1.52213e-07
3.1534e-08
2.69647e-08
4.51109e-09
1.20097e-07
6.4465e-09
1.38243e-08
2.663e-09
3.83297e-08
2.09548e-09
3.94066e-08
5.31145e-09
0
2.18279e-10
1.03319e-09
1.00408e-09
1.01863e-10
8.73115e-11
3.49246e-10
1.13505e-09
1.06229e-09
1.22964e-08
3.4197e-09
1.99361e-09
3.92902e-10
9.00764e-09
0
0
9.60426e-10
2.38069e-08
5.6818e-07
1.21972e-05
0.000248673
0
0
0
1.26602e-09
3.10683e-08
6.43064e-07
1.18433e-05
0
0
0
0
1.33878e-09
2.84053e-08
5.04413e-07
0
0
0
0
0
1.03319e-09
1.88447e-08
0
0
0
8.73115e-11
3.55067e-09
7.91188e-08
1.61259e-06
0
0
0
0
2.76486e-10
7.93079e-09
1.55807e-07
0
0
0
0
1.01863e-10
3.91447e-09
7.46368e-08
0
0
0
0
0
3.20142e-10
7.31961e-09
0
0
0
0
0
8.73115e-11
2.89583e-09
0
0
0
0
0
0
2.32831e-10
0
3.7835e-10
1.25729e-08
2.56565e-07
0.227855
0.0026735
0.000165655
7.76049e-06
3.02389e-07
0.0559652
0.00103822
5.67711e-05
2.55457e-06
1.01791e-07
0.00174578
0.00014295
7.89817e-06
3.7119e-07
1.47411e-08
0.000229206
1.60836e-05
8.58956e-07
3.86644e-08
1.41154e-09
2.49467e-05
1.43884e-06
6.86705e-08
2.83762e-09
1.45519e-11
3.86671e-06
1.73954e-07
6.97037e-09
1.89175e-10
0
5.17342e-06
2.65092e-07
1.19908e-08
4.36557e-10
0
0
4.04326e-06
2.61745e-07
1.40135e-08
5.82077e-10
0
0
0
1.72149e-07
1.15833e-08
5.67525e-10
0
0
0
0
6.51926e-09
3.7835e-10
0
0
0
0
0
0
0
0
0
0
2.45927e-09
7.33853e-08
2.00106e-06
5.17289e-05
0.0012483
0
0
0
1.74623e-10
6.78119e-09
1.89291e-07
5.04214e-06
0.000127023
0
0
0
0
3.7835e-10
1.25001e-08
3.20826e-07
7.77526e-06
0
0
0
0
0
6.1118e-10
1.67784e-08
3.80824e-07
0
0
0
0
0
0
6.98492e-10
1.58325e-08
0
0
0
0
0
8.58563e-10
2.65863e-08
7.17948e-07
1.87853e-05
0.000541212
0
0
0
0
2.40107e-09
6.55273e-08
1.70046e-06
4.46306e-05
0
0
0
0
1.01863e-10
4.36557e-09
1.08907e-07
2.57742e-06
0
0
0
0
0
1.60071e-10
5.79166e-09
1.28464e-07
0
0
0
0
0
0
1.89175e-10
5.44242e-09
0
0
0
0
0
0
0
0
0
0
5.82077e-11
4.08909e-09
1.19282e-07
2.979e-06
7.6041e-05
0
0
0
0
2.76486e-10
9.99717e-09
2.5949e-07
6.39931e-06
0
0
0
0
0
5.67525e-10
1.62836e-08
3.79689e-07
0
0
0
0
0
0
8.00355e-10
1.87283e-08
0
0
0
0
0
0
0
7.27596e-10
0
0
0
0
0
0
0
0
0
0
0
0
0
0
0
4.36557e-10
1.37516e-08
3.79878e-07
9.84222e-06
0
0
0
0
0
1.09139e-09
2.97296e-08
7.3282e-07
0
0
0
0
0
0
1.71713e-09
4.12401e-08
0
0
0
0
0
0
0
1.8772e-09
0
0
0
0
0
0
0
0
0
0
0
0
0
0
0
0
0
0
0
0
0
0
1.74623e-10
9.0804e-09
3.13346e-07
0
0
0
0
0
1.41154e-09
4.05998e-08
9.86955e-07
0
0
0
0
0
0
2.51748e-09
6.25296e-08
0
0
0
0
0
0
8.73115e-11
3.12866e-09
0
0
0
0
0
0
0
8.73115e-11
0
0
0
0
0
0
0
0
0
0
2.38651e-09
4.98985e-08
0
0
0
0
0
0
0
0
3.34694e-10
1.76224e-08
8.0945e-07
0
0
0
0
0
2.47383e-09
8.85193e-08
0
0
0
0
0
1.16415e-10
5.19503e-09
1.45985e-07
0
0
0
0
0
0
1.74623e-10
7.02858e-09
0
0
0
0
0
0
0
2.61934e-10
0
0
0
0
0
0
0
0
0
0
0
0
0
0
0
0
0
0
0
2.18279e-09
5.49044e-08
1.26216e-06
0
0
0
4.36557e-11
3.0559e-09
7.31961e-08
1.75514e-06
0
0
0
0
1.16415e-10
5.15138e-09
1.39029e-07
0
0
0
0
0
2.61934e-10
8.55653e-09
2.16081e-07
0
0
0
0
0
0
3.7835e-10
1.15833e-08
0
0
0
0
0
0
0
4.94765e-10
0
0
0
0
0
0
0
0
0
0
0
0
0
0
0
0
0
0
0
0
0
0
0
0
0
0
0
0
0
4.22006e-10
1.01572e-08
2.05866e-07
0
0
0
0
0
0
5.67525e-10
1.30385e-08
0
0
0
0
0
0
0
6.40284e-10
0
0
0
0
0
0
0
0
0
0
0
0
0
0
0
0
0
0
0
0
0
0
0
0
0
0
0
0
0
0
0
0
0
0
0
0
0
0
4.65661e-10
9.88075e-09
0
0
0
0
0
0
0
5.67525e-10
0
0
0
0
0
0
0
0
0
0
0
0
0
0
0
0
0
0
0
0
0
0
0
0
0
0
0
0
0
0
0
0
0
0
0
0
0
0
0
0
0
0
0
0
0
0
0
3.20142e-10
0
0
0
0
0
0
0
0
0
0
0
0
0
0
0
0
0
0
0
0
0
0
0
0
0
0
0
0
0
0
0
0
0
0
0
0
0
0
0
0
0
0
0
0
0
0
0
0
0
0
0
0
0
0
0
0
0
0
0
0
0
0
0
0
0
0
0
0
0
0
0
0
0
0
0
0
0
0
0
0
0
0
0
0
1.01863e-10
4.33647e-09
1.87574e-08
2.76486e-10
1.55705e-09
0
0
0
0
1.45519e-11
0
0
0
0
0
0
0
0
0
0
0
0
0
0
0
0
0
0
0
0
2.19734e-09
6.25732e-10
1.61526e-09
1.19326e-09
0
0
0
0
0
0
0
0
0
0
0
0
0
0
0
0
0
0
0
0
0
0
0
0
0
0
0
0
0
0
0
0
0
0
0
0
0
0
0
0
0
0
0
0
0
0
0
0
0
0
0
0
0
0
0
0
0
0
0
0
0
0
0
0
0
0
0
0
0
0
0
0
0
0
0
0
0
0
0
0
0
0
0
0
2.18279e-10
0
0
0
1.16415e-10
1.01863e-10
0
7.42148e-10
1.19326e-09
0
3.49246e-10
3.92902e-10
1.9354e-09
1.01863e-10
0
0
0
0
0
0
0
5.6898e-09
8.41101e-09
3.55067e-09
1.38389e-08
0
0
0
0
0
0
0
0
0
0
0
0
2.18279e-10
0
0
0
0
0
0
0
0
0
0
0
0
0
0
0
0
0
0
0
0
0
0
0
0
0
0
0
0
0
0
0
0
0
0
0
0
0
0
0
0
0
0
0
0
0
0
0
0
0
0
0
0
0
0
0
0
0
0
0
0
0
0
0
0
0
0
0
0
0
0
0
0
0
0
0
0
0
0
0
0
0
0
0
0
0
0
0
1.55705e-09
3.49246e-10
7.71252e-10
0
1.01863e-10
0
1.45519e-11
2.43308e-08
8.81846e-09
2.73285e-08
1.45519e-09
3.98722e-09
6.25732e-10
2.28465e-09
0
0
0
0
0
0
0
1.89175e-10
0
0
0
1.01863e-10
0
0
0
0
0
0
0
0
0
0
0
0
0
0
0
0
0
0
0
0
0
0
0
0
0
0
0
0
0
0
0
0
0
0
0
0
0
0
0
0
0
0
0
0
0
0
0
0
0
0
0
0
0
0
0
0
0
0
0
0
0
0
0
0
0
0
0
0
0
0
0
0
0
0
0
0
0
0
0
0
0
0
0
0
0
0
0
0
0
0
0
0
0
0
1.80444e-09
7.69069e-08
9.48785e-09
2.79135e-07
7.62356e-06
0
6.98492e-10
2.94967e-08
3.55067e-09
1.11337e-07
3.10964e-06
0
5.82077e-11
4.74392e-09
1.91794e-08
6.12737e-07
5.67525e-10
8.7166e-08
2.61934e-09
1.72338e-07
6.54836e-10
5.74801e-09
1.95064e-05
2.84053e-08
1.55502e-06
0
0
0
0
0
0
1.01863e-10
2.80852e-09
2.03727e-10
2.56114e-09
1.01281e-08
2.47281e-07
1.20344e-08
0
0
2.03727e-10
6.40284e-10
2.03727e-09
0
1.60071e-10
4.80213e-10
1.80444e-09
9.69158e-09
2.33267e-08
6.85395e-08
1.42609e-09
8.48377e-09
1.93104e-08
6.10016e-08
5.89163e-07
7.14805e-07
2.29636e-06
5.8586e-08
6.08357e-07
2.13859e-06
0
0
0
0
0
0
1.22236e-09
0
4.51109e-10
4.10364e-09
2.56114e-09
0
4.36557e-11
2.47383e-10
7.71252e-10
0
0
5.82077e-11
4.36557e-10
4.10364e-09
1.0361e-08
2.82744e-08
2.32831e-10
1.78989e-09
4.42378e-09
1.71131e-08
3.21132e-07
9.39268e-07
1.37225e-08
1.6205e-07
7.7358e-07
0
0
0
1.16415e-10
0
0
6.1118e-10
2.91038e-10
0
0
4.36557e-11
6.40284e-10
1.61526e-09
4.59841e-09
0
1.45519e-10
1.36788e-09
2.38651e-09
5.63305e-08
1.7359e-07
1.97906e-09
2.2701e-08
1.28566e-07
0
0
0
0
5.82077e-10
2.93949e-09
0
5.09317e-10
0
4.51109e-10
7.53789e-09
2.35887e-08
3.7835e-10
2.16824e-09
6.70843e-09
1.73168e-08
1.45228e-08
2.15834e-07
7.66886e-09
5.57236e-07
4.54165e-08
1.75642e-08
3.49741e-07
3.70595e-06
3.03509e-07
2.167e-06
4.8487e-08
0
2.91038e-10
2.26573e-08
1.74958e-07
1.58616e-09
1.37079e-08
1.57161e-09
2.39693e-06
1.96887e-07
2.14802e-06
7.97168e-07
1.37111e-06
1.37548e-06
1.03319e-09
0
3.34694e-09
1.60071e-10
4.13274e-09
5.98084e-09
3.7835e-10
6.21367e-09
1.03319e-09
1.22382e-08
1.57161e-09
4.79311e-07
5.6508e-07
2.69065e-08
4.14657e-07
8.90286e-08
1.08387e-06
1.23735e-07
0
0
0
0
0
0
0
0
0
0
0
0
0
0
0
0
0
0
0
0
0
0
0
0
0
0
0
0
0
0
0
0
0
0
0
0
0
0
0
0
0
0
0
0
1.74623e-10
5.82077e-11
0
1.01863e-10
0
2.91038e-11
3.20142e-10
1.25146e-09
1.92085e-09
1.89175e-10
7.42148e-10
1.01863e-10
0
4.36557e-11
0
2.03727e-10
0
5.82077e-11
0
0
1.64437e-09
3.34694e-10
7.567e-10
1.89175e-10
5.96629e-10
2.91038e-11
2.45927e-09
1.1205e-09
2.01399e-08
6.03904e-09
8.00355e-10
1.54541e-08
2.88128e-09
1.01281e-08
4.79777e-08
6.25005e-08
2.18759e-07
4.23024e-08
5.52827e-08
1.11031e-08
2.67755e-09
5.70435e-09
1.4843e-09
1.94705e-08
8.73115e-10
1.63272e-08
3.01225e-09
0
0
0
0
0
0
0
0
0
0
0
0
0
0
0
0
0
0
0
0
0
0
0
0
0
0
0
0
0
0
0
0
0
0
0
0
0
2.91038e-11
0
0
0
0
0
1.16415e-10
4.94765e-10
6.98492e-10
0
1.45519e-11
2.03727e-10
0
0
0
0
0
0
0
0
2.76486e-10
0
8.73115e-11
0
8.73115e-11
0
9.74978e-10
5.96629e-10
8.70205e-09
2.18279e-09
1.49885e-09
2.47383e-10
6.49015e-09
5.67525e-10
1.23691e-09
2.32831e-10
4.43833e-09
1.16415e-10
3.84171e-09
5.82077e-10
0
0
0
0
0
0
0
0
0
0
0
0
0
0
0
0
0
0
0
0
0
0
0
1.45519e-11
4.36557e-11
0
0
0
0
0
0
0
0
0
0
0
0
0
0
0
0
0
8.73115e-11
2.91038e-11
1.39698e-09
2.61934e-10
1.89175e-10
0
9.45874e-10
0
1.01863e-10
0
5.38421e-10
0
4.51109e-10
0
0
0
0
0
0
0
0
0
0
0
0
0
0
0
0
0
1.16415e-10
0
0
0
0
0
0
0
0
0
0
0
0
4.36557e-10
1.01863e-10
1.01863e-10
0
1.01863e-10
0
4.94765e-10
2.11003e-09
5.09317e-10
3.71074e-09
2.47383e-10
2.89583e-09
1.1205e-09
3.05299e-08
5.18048e-08
3.17232e-09
1.38971e-08
2.10712e-08
6.966e-08
6.98492e-09
3.17872e-07
1.13752e-07
3.73402e-08
3.491e-08
2.1579e-07
1.83063e-07
7.75472e-08
9.60601e-07
2.55958e-06
1.09576e-07
6.16259e-07
6.88364e-07
2.99001e-06
2.11003e-07
1.11177e-08
1.73604e-08
8.41101e-09
9.48785e-08
3.04135e-09
4.02069e-08
3.12575e-08
2.20505e-07
3.68629e-07
1.468e-07
4.96628e-07
3.49246e-10
1.01863e-10
2.02272e-09
0
9.60426e-10
5.82077e-10
2.76486e-10
6.03995e-06
0.000125454
4.80213e-10
0
2.6339e-09
0
0
8.90286e-07
5.09317e-09
0
0
0
0
0
4.36557e-11
0
0
0
0
1.60071e-10
0
0