/*--------------------------------*- C++ -*----------------------------------*\
  =========                 |
  \\      /  F ield         | OpenFOAM: The Open Source CFD Toolbox
   \\    /   O peration     | Website:  https://openfoam.org
    \\  /    A nd           | Version:  9
     \\/     M anipulation  |
\*---------------------------------------------------------------------------*/
FoamFile
{
    format      ascii;
    class       volScalarField;
    location    "0.0035";
    object      impulse;
}
// * * * * * * * * * * * * * * * * * * * * * * * * * * * * * * * * * * * * * //

dimensions      [1 -1 -1 0 0 0 0];

internalField   nonuniform List<scalar> 
32826
(
423.189
395.195
351.207
388.523
474.892
438.114
404.981
377.579
444.511
419.98
370.943
430.229
409.98
363.979
348.4
384.661
375.881
469.931
462.888
459.018
458.152
454.393
443.238
445.952
457.449
437.155
448.316
432.41
443.75
434.137
424.379
450.684
436.128
447.783
431.947
421.558
420.397
433.835
334.361
366.262
361.721
309.184
307.504
312.813
312.429
440.79
421.375
438.106
426.966
411.465
410.324
428.753
428.239
428.98
438.584
424.059
406.329
413.539
415.671
415.978
424.378
419.672
411.764
407.415
413.117
402.276
413.654
419.165
429.094
419.202
396.252
403.656
410.673
417.644
400.222
406.553
397.618
405.764
396.186
389.181
415.729
399.944
404.997
388.189
399.259
404.37
416.884
400.782
382.741
397.609
379.289
393.594
389.786
376.357
407.963
385.881
397.34
387.667
400.833
391.406
379.393
408.959
383.044
387.12
392.165
393.448
398.43
401.677
347.571
365.937
363.305
347.933
346.021
361.658
345.537
388.777
379.788
393.664
385.128
367.914
379.481
372.595
379.574
384.574
393.027
384.68
364.441
372.262
377.203
375.724
372.302
385.279
380.779
359.636
370.406
368.621
329.516
313.054
330.07
311.877
328.659
328.569
311.779
364.47
346.224
347.602
355.093
358.891
344.024
341.237
358.203
337.586
342.894
347.598
355.401
341.185
334.668
375.339
357.216
354.465
358.745
364.222
368.911
364.137
0.0436201
2.9771e-05
7.63421e-06
1.3947e-06
1.75872e-07
1.74512e-08
1.35195e-09
58.2175
0.0102423
0.000259903
2.07176e-05
3.36004e-06
3.33225e-07
2.53913e-08
129.187
38.7633
1.48403
0.00332672
5.95664e-05
5.65307e-06
4.09581e-07
208.71
168.497
104.752
22.6023
0.0395889
0.000110303
6.09786e-06
284.238
251.694
208.323
144.464
46.7853
0.103363
0.000110991
352.623
315.227
275.775
226.89
157.125
48.6224
0.0502828
377.126
331.791
284.323
228.318
148.058
26.9808
387.224
333.008
278.377
212.852
113.065
6.14225e-05
1.15549e-05
3.20266e-06
5.87342e-07
7.36485e-08
7.36291e-09
5.74381e-10
0.11724
0.00228348
0.000106178
8.68299e-06
1.36896e-06
1.38841e-07
1.06737e-08
71.8642
21.4898
0.324153
0.000790782
2.18999e-05
2.1864e-06
1.67408e-07
193.632
151.048
83.2214
9.50341
0.00793116
3.99187e-05
2.2642e-06
271.955
239.655
193.948
125.649
28.1264
0.0204549
3.94415e-05
336.79
304.285
265.142
213.749
139.53
29.8033
0.0101233
361.824
321.094
274.068
215.304
129.666
12.5312
374.332
322.504
267.974
198.887
91.9811
1.1047e-05
3.6199e-06
8.10443e-07
1.38006e-07
1.75336e-08
1.69844e-09
1.307e-10
0.00234691
0.000146617
1.57275e-05
2.75223e-06
3.67204e-07
3.36164e-08
2.44921e-09
10.9359
1.08805
0.00605831
8.23673e-05
5.67123e-06
6.22788e-07
4.13005e-08
153.327
101.254
31.9156
0.239806
0.000258943
7.98322e-06
6.58523e-07
244.094
207.833
154.669
72.9841
1.79069
0.000449443
7.12551e-06
308.691
283.292
237.187
177.88
89.4455
2.08747
0.000266692
329.369
296.827
247.208
179.614
77.6964
0.374394
312.05
326.792
240.34
160.487
39.8369
2.16036e-06
6.74613e-07
1.433e-07
2.4573e-08
2.9369e-09
2.7476e-10
2.05472e-11
6.0482e-05
1.13468e-05
2.84054e-06
5.22715e-07
6.05597e-08
5.46201e-09
3.91858e-10
0.131191
0.00243448
8.81546e-05
7.70156e-06
1.11175e-06
9.72645e-08
6.58173e-09
43.1087
19.9725
0.263193
0.000586234
1.61186e-05
1.54385e-06
1.01286e-07
186.898
142.705
73.7117
5.30601
0.00306964
2.19388e-05
1.31487e-06
285.46
267.815
178.805
105.319
12.6358
0.00355673
1.4112e-05
292.866
277.438
276.321
190.58
107.698
7.02825
0.00077351
283.12
244.251
272.724
182.327
81.421
0.515423
289.502
255.716
21.3571
0.00446101
2.73821e-07
7.64141e-08
1.63524e-08
2.6686e-09
3.19647e-10
3.01876e-11
2.23796e-12
4.98602e-06
1.40568e-06
3.24068e-07
5.31796e-08
6.25637e-09
5.73413e-10
4.23438e-11
0.000160874
2.47528e-05
4.86807e-06
9.56672e-07
1.09435e-07
9.64109e-09
6.80104e-10
0.471881
0.0100123
0.000168685
1.25062e-05
1.71634e-06
1.48379e-07
9.90912e-09
38.8841
25.0998
0.57582
0.00130992
2.44748e-05
1.90177e-06
1.25052e-07
169.226
130.207
66.2727
4.82264
0.00369994
2.25315e-05
1.23333e-06
218.59
223.41
155.413
83.1838
5.6196
0.00173531
9.16528e-06
234.176
218.648
225.482
157.073
71.3751
0.98972
0.000190062
216.767
11.1912
0.00475425
6.61983e-05
3.07119e-08
8.05688e-09
1.64369e-09
2.53321e-10
2.97784e-11
2.76971e-12
1.70015e-13
5.75444e-07
1.46444e-07
3.03191e-08
4.7429e-09
5.54375e-10
5.16354e-11
3.86353e-12
7.82153e-06
2.20953e-06
5.02964e-07
7.84183e-08
9.0373e-09
8.21788e-10
6.05145e-11
0.000199845
3.26577e-05
6.17196e-06
1.18217e-06
1.34502e-07
1.18523e-08
8.41095e-10
0.000832165
0.00494102
0.000152343
1.23188e-05
1.69237e-06
1.483e-07
1.01506e-08
23.736
9.35408
0.109658
0.000451715
1.54733e-05
1.46109e-06
9.97756e-08
130.847
90.7087
31.0726
0.382839
0.000493608
1.00741e-05
7.52089e-07
192.618
180.372
144.107
33.8347
0.16655
0.000148502
3.69739e-06
153.781
129.364
0.00366894
9.61902e-05
1.10051e-05
3.01826e-09
7.47518e-10
1.45432e-10
2.12848e-11
2.379e-12
1.81535e-13
9.70128e-16
5.36279e-08
1.35279e-08
2.62986e-09
3.87304e-10
4.43027e-11
4.07551e-12
2.67149e-13
8.39255e-07
2.13461e-07
4.139e-08
6.11568e-09
6.94775e-10
6.39268e-11
4.76975e-12
1.11839e-05
3.02707e-06
5.93386e-07
8.78015e-08
9.84579e-09
8.88491e-10
6.53687e-11
4.46818e-05
3.60846e-05
7.1602e-06
1.10344e-06
1.21751e-07
1.07701e-08
7.72437e-10
0.000745503
0.00244559
0.000116529
1.07616e-05
1.23929e-06
1.07767e-07
7.58242e-09
15.1296
3.90518
0.0209832
0.000183149
9.44231e-06
8.48759e-07
5.87894e-08
111.103
65.0447
10.7016
0.0273698
0.000114051
4.73225e-06
3.40884e-07
106.518
35.0305
9.1746e-05
1.66153e-05
1.66571e-06
2.4393e-10
5.84638e-11
1.0966e-11
1.54238e-12
1.46004e-13
4.85064e-16
0
4.24042e-09
1.02843e-09
1.9494e-10
2.78417e-11
3.09932e-12
2.5575e-13
3.39545e-15
6.33229e-08
1.57416e-08
2.98552e-09
4.27922e-10
4.82009e-11
4.41808e-12
2.91887e-13
8.46913e-07
2.19467e-07
4.13195e-08
5.92196e-09
6.62274e-10
6.07103e-11
4.5305e-12
9.74265e-06
2.74201e-06
5.00004e-07
7.18321e-08
7.95957e-09
7.20475e-10
5.34214e-11
2.93085e-05
2.45188e-05
4.97462e-06
7.31771e-07
7.99922e-08
7.16048e-09
5.23592e-10
0.000412204
0.00073881
5.09104e-05
5.69734e-06
6.3808e-07
5.67712e-08
4.11498e-09
1.02991
0.255127
0.00183602
4.77736e-05
3.7492e-06
3.37979e-07
2.46597e-08
6.12957
4.19422e-05
1.31901e-05
1.61807e-06
1.12491e-07
1.67776e-11
3.90392e-12
6.88184e-13
6.33008e-14
0
0
0
2.85411e-10
6.79013e-11
1.263e-11
1.71543e-12
1.54978e-13
9.70128e-16
0
4.1533e-09
1.00341e-09
1.89272e-10
2.67691e-11
2.97756e-12
2.33801e-13
2.54659e-15
5.34785e-08
1.33152e-08
2.53838e-09
3.61428e-10
4.04914e-11
3.69667e-12
2.39622e-13
5.81939e-07
1.55218e-07
2.97561e-08
4.25817e-09
4.7648e-10
4.39496e-11
3.29067e-12
4.83749e-06
1.46169e-06
2.88475e-07
4.207e-08
4.70925e-09
4.32885e-10
3.2647e-11
1.79702e-05
9.26222e-06
2.0644e-06
3.26105e-07
3.71122e-08
3.4201e-09
2.57961e-10
7.1319e-05
9.54151e-05
1.03033e-05
1.79002e-06
2.14e-07
2.02326e-08
1.55219e-09
0.000310446
6.27013e-06
9.20575e-07
8.9263e-08
6.93835e-09
9.24047e-13
1.83233e-13
1.34605e-14
0
0
0
0
1.62368e-11
3.7852e-12
6.48894e-13
6.2452e-14
0
0
0
2.30984e-10
5.53301e-11
1.02978e-11
1.39019e-12
1.2066e-13
1.21266e-16
0
2.89287e-09
7.06587e-10
1.34825e-10
1.91749e-11
2.10845e-12
1.61405e-13
1.21266e-16
3.07377e-08
7.80265e-09
1.52627e-09
2.20359e-10
2.49597e-11
2.28914e-12
1.44428e-13
2.5764e-07
7.02295e-08
1.43498e-08
2.11953e-09
2.42511e-10
2.28712e-11
1.73107e-12
1.7013e-06
4.60323e-07
1.02364e-07
1.60907e-08
1.88117e-09
1.79625e-10
1.39783e-11
7.5216e-06
2.12907e-06
5.1226e-07
8.63755e-08
1.07134e-08
1.06144e-09
8.49966e-11
1.64471e-06
3.18498e-07
4.44913e-08
4.62581e-09
3.83422e-10
343.215
425.375
386.434
367.678
336.242
410.198
376.964
346.465
427.235
382.788
377.835
339.589
414.027
373.688
324.55
405.433
372.212
342.659
317.35
390.07
362.714
428.533
414.902
413.317
414.12
412.593
399.766
400.158
331.844
401.434
371.086
341.438
315.131
370.969
349.84
396.886
372.038
335.281
368.026
350.721
318.663
357.449
424.125
412.49
411.793
409.208
408.582
396.553
396.831
420.803
402.514
401.03
408.476
406.929
394.793
389.574
417.295
399.739
405.87
396.396
402.609
391.31
385.908
312.901
381.56
359.062
317.418
296.049
349.358
336.828
299.629
252.922
256.782
296.607
292.342
252.177
233.565
245.192
243.763
261.22
194.941
177.496
215.442
207.071
404.243
394.176
393.442
387.693
386.866
376.477
377.013
291.117
297.095
295.77
238.796
226.065
255.031
249.581
296.593
373.324
334.133
325.236
290.477
364.946
327.678
401.107
386.979
400.668
386.66
373.575
373.394
386.899
399.502
386.254
399.158
384.306
371.951
371.891
384.411
397.62
381.275
387.718
374.624
381.184
371.528
365.881
405.476
395.035
393.575
387.536
386.151
383.027
376.464
292.404
367.691
323.553
326.574
286.305
363.765
317.29
398.021
382.702
397.711
385.283
370.819
370.739
385.472
392.868
392.049
388.755
384.513
381.304
379.195
372.58
286.191
361.389
328.974
308.477
279.822
357.297
322.425
393.096
377.035
392.848
381.177
365.808
365.804
381.238
382.528
390.427
395.668
382.259
365.265
369.454
377.594
378.261
387.527
392.709
380.875
362.66
366.798
376.222
372.473
382.175
387.618
376.559
357.483
361.754
371.785
381.694
388.614
393.964
379.697
363.542
367.813
374.927
383.128
371.993
382.699
366.154
356.137
355.896
366.512
260.524
335.371
308.91
276.642
253.328
326.396
302.007
370.06
351.992
369.408
359.53
343.212
342.68
360.018
345.732
340.194
310.387
333.399
314.544
273.579
319.384
367.547
372.142
377.683
361.803
347.687
352.011
356.896
373.365
373.775
367.165
366.518
359.935
359.287
352.854
286.563
359.771
323.604
304.762
269.392
340.635
307.39
386.554
367.597
366.465
378.617
377.354
368.766
359.08
282.372
349.457
313.33
306.286
264.935
336.105
297.151
307.003
337.191
339.376
301.057
270.602
310.919
319.925
382.855
365.017
375.783
362.286
372.784
365.052
355.658
383.838
366.11
377.226
360.128
371.844
365.952
354.765
381.04
362.242
374.532
357.556
370.49
364.642
352.262
285.242
300.936
287.573
299.338
284.915
298.464
283.03
257.564
256.028
246.197
242.423
252.518
240.841
237.047
275.772
342.491
318.31
287.578
257.849
329.315
301.947
375.512
355.973
368.958
352.258
365.902
359.979
346.898
369.391
354.53
357.538
343.147
354.52
357.492
369.405
372.605
359.983
358.703
346.325
359.833
358.58
372.76
347.755
358.769
364.519
355.244
334.415
338.915
350.235
381.871
365.128
375.227
358.293
369.003
363.069
352.88
373.175
359.43
360.226
359.337
360.059
346.75
346.891
367.702
356.287
356.236
352.79
352.813
341.85
341.89
287.98
330.208
316.174
272.496
252.309
301.437
294.599
365.296
339.794
347.003
349.951
350.856
353.819
361.029
368.685
343.044
352.491
351.26
356.272
355.032
364.491
369.166
351.851
352.687
355.692
356.484
343.424
339.926
361.292
350.607
350.552
345.866
345.696
335.452
335.576
351.039
365.539
356.873
342.463
351.055
345.252
337.152
295.447
295.902
297.595
283.492
282.118
280.657
279.536
359.697
348.951
352.68
345.612
349.282
338.583
335.182
313.05
311.066
309.485
325.846
329.354
330.152
327.681
358.706
354.349
364.671
343.354
352.332
345.956
337.728
353.017
343.067
346.938
338.263
342.154
332.163
328.591
310.037
306.659
304.849
322.52
320.424
326.453
325.435
349.702
333.862
340.27
324.148
333.401
339.948
350.101
359.29
359.727
369.502
359.141
341.009
348.62
350.594
347.317
366.946
355.592
357.898
338.715
346.21
349.432
340.342
354.011
360.691
355.01
341.242
347.593
334.74
248.73
321.051
297.724
253.087
228.151
302.83
280.717
352.188
330.952
345.747
329.121
344.381
338.561
323.773
249.877
253.786
238.447
245.064
248.875
233.03
228.656
199.859
196.027
229.527
235.734
212.329
170.239
142.286
342.253
345.178
355.776
350.367
327.14
337.273
340.199
352.445
349.437
361.569
353.336
333.556
340.862
345.159
358.334
357.981
367.589
356.333
339.224
346.75
347.967
347.835
346.614
359.382
354.053
330.652
342.911
341.705
260.446
271.204
274.213
256.388
270.86
268.064
252.773
354.371
347.117
348.014
342.139
343.045
335.579
330.899
343.469
350.303
357.782
352.747
339.309
344.506
332.009
325.962
337.89
347.116
330.782
343.196
351.713
338.323
280.994
298.53
297.191
295.477
297.313
281.106
278.721
292.469
287.229
283.315
257.811
226.715
197.21
224.023
345.897
321.003
325.987
332.559
330.007
336.498
341.497
354.686
344.352
341.076
339.477
336.282
330.937
326.356
240.535
318
283.603
269.297
233.033
311.716
277.332
345.589
331.691
345.494
333.449
320.256
320.136
333.572
243.843
321.135
281.275
278.084
236.491
314.954
275.004
344.724
332.888
344.624
330.734
319.567
319.453
330.822
284.805
254.859
287.865
219.889
193.926
242.67
226.184
203.266
239.426
232.379
151.448
127.425
185.896
167.18
179.244
159.795
201.78
131.385
103.593
162.453
141.324
298.114
280.326
282.598
294.986
297.122
280.879
278.254
250.706
241.87
247.295
228.837
235.075
231.245
224.894
230.484
211.526
226.66
209.597
224.917
220.935
205.32
347.151
333.982
346.987
334.164
321.746
321.591
334.312
343.528
352.014
344.609
338.926
324.162
331.263
331.323
269.536
252.408
267.529
250.17
265.689
263.762
247.502
339.822
328.902
339.769
325.154
314.792
314.701
325.258
334.701
326.578
325.976
318.301
317.568
309.377
310.039
347.797
338.331
333.512
333.391
328.566
324.212
319.497
231.3
309.044
263.977
272.066
223.514
302.962
257.278
329.161
325.22
308.745
309.421
325.988
320.596
304.952
255.507
278.774
276.859
208.181
246.179
221.575
183.416
296.621
294.569
292.906
279.433
280.856
278.18
276.183
328.55
338.609
342.148
330.314
313.969
317.119
327.025
330.884
340.26
343.705
331.052
315.548
318.619
327.833
338.109
323.511
338.098
327.597
313.452
313.394
327.642
329.798
337.901
341.348
327.652
313.402
316.482
324.439
320.464
331.482
334.86
324.516
307.364
310.414
321.323
330.974
318.494
322.594
310.018
314.178
306.237
302.428
220.648
299.95
271.299
244.366
212.351
293.337
264.662
330.495
314.892
330.238
320.491
305.799
305.531
320.686
278.829
257.15
236.163
195.912
171.425
231.339
215.877
293.831
290.534
288.675
274.098
277.801
276.447
271.959
321.173
327.789
336.244
330.924
308.095
316.149
322.814
325.766
332.875
336.436
322.021
308.512
311.678
318.684
326.388
338.447
342.707
332.811
321.099
327.893
316.581
260.974
331.029
299.43
260.813
223.653
306.564
263.203
302.753
298.33
256.391
289.121
262.084
218.445
253.037
344.286
321.712
324.78
327.625
331.605
334.504
336.87
347.937
325.254
330.278
329.137
337.226
336.067
340.368
311.888
323.42
327.029
317.42
299.318
302.567
314.041
348.181
328.019
335.273
331.386
340.075
327.904
319.889
346.131
337.045
325.115
329.252
339.011
326.933
317.897
348.21
329.511
330.405
336.431
337.351
325.487
318.882
346.62
327.315
333.907
329.737
337.663
325.753
318.391
306.897
322.748
327.591
308.327
324.526
318.262
303.113
490.476
441.405
439.444
413.347
367.531
363.919
299.666
454.433
526.556
498.757
455.363
432.84
480.15
465.359
521.567
519.389
513.182
516.796
510.222
501.062
507.702
421.416
459.2
448.911
388.022
382.609
388.29
393.271
499.906
476.548
494.087
473.081
491.011
484.391
468.502
366.714
364.558
370.897
313.639
313.958
320.262
315.976
400.906
486.268
443.637
423.373
390.093
457.606
426.363
509.94
492.999
503.63
491.029
485.082
480.073
496.982
504.539
484.425
497.803
488.048
479.141
474.081
494.148
470.001
464.856
481.083
473.647
448.85
461.614
459.417
478.824
471.644
487.062
476.7
455.736
467.876
462.874
438.018
456.642
453.608
437.439
434.725
450.644
432.86
413.448
390.684
414.919
389.517
413.022
413.171
390.976
477.593
467.12
470.289
451.44
463.047
466.228
482.718
481.414
472.15
472.833
468.152
468.802
455.34
458.374
345.863
367.021
366.362
346.902
346.355
368.386
347.852
383.447
442.87
406.552
378.495
359.342
390.504
381.029
453.386
432.375
435.601
441.062
446.54
430.014
426.059
447.215
423.285
429.624
434.492
443.285
426.886
419.903
465.18
442.274
441.355
444.864
452.309
455.6
452.716
469.405
447.26
448.368
457.764
458.636
446.598
437.525
297.492
309.079
302.609
264.63
251.124
274.64
263.996
332.064
318.474
331.223
317.308
330.317
330.298
316.077
457.087
439.325
454.059
441.349
428.112
426.768
443.492
406.612
389.459
410.738
409.581
387.436
404.302
390.105
414.07
392.32
415.191
412.131
391.593
409.728
391.884
458.463
441.559
455.442
442.013
429.618
428.246
444.158
428.489
431.825
438.148
423.332
410.107
415.597
418.676
427.81
434.202
435.34
420.91
421.994
426.067
414.492
347.835
351.709
349.321
313.377
305.257
315.354
314.993
369.259
350.083
348.474
370.901
370.006
349.442
350.707
431.485
435.825
445.086
433.687
413.034
420.046
425.696
434.135
437.878
446.778
434.542
414.918
421.781
426.66
367.481
347.854
347.245
368.173
368.872
348.678
348.862
306.564
298.197
305.348
295.159
293.84
303.48
291.318
407.326
396.886
385.647
387.995
401.092
403.92
389.752
329.636
315.079
329.636
330.296
313.691
330.455
314.467
331.522
317.011
331.011
330.919
315.04
331.846
315.258
428.11
414.558
415.352
400.485
413.787
414.528
429.495
392.781
406.949
411.295
389.677
405.945
400.874
386.125
424.338
403.451
412.831
404.265
415.679
405.662
395.613
414.959
426.516
416.498
406.326
416.735
406.739
397.706
421.551
395.39
401.877
402.796
407.957
408.805
414.621
368.04
369.72
369.69
349.871
349.184
349.416
350.56
351.261
371.483
371.711
370.9
351.342
369.401
351.026
289.931
304.515
292.421
300.379
301.796
289.095
286.96
286.873
271.089
283.467
269.556
282.022
279.091
266.308
302.253
286.553
289.95
298.682
300.822
287.953
284.905
386.527
394.527
401.326
394.662
374.969
387.265
381.151
332.78
315.516
332.299
315.094
332.499
332.552
314.934
331.193
331.309
313.934
314.605
331.127
331.923
314.391
394.238
395.26
405.922
397.25
376.812
386.675
387.719
391.691
384.765
399.378
393.687
373.239
385.347
380.284
351.15
366.019
369.652
361.273
366.152
349.475
346.231
368.409
347.879
350.344
359.764
365.432
348.974
345.088
298.031
298.789
299.602
286.05
281.858
283.313
284.249
277.575
259.834
273.404
275.047
257.081
271.226
261.659
267.517
280.236
277.203
276.323
259.801
273.611
263.067
386.841
369.083
366.853
367.744
377.805
378.781
374.58
314.051
331.531
332.636
331.681
312.423
329.595
314.192
330.571
314.582
332.113
331.344
311.864
328.791
313.968
354.369
355.127
360.935
346.007
334.991
340.721
341.367
272.593
266.667
254.193
255.542
269.005
270.127
258.685
329.47
320.859
309.206
309.573
325.649
326.131
312.35
304.87
320.316
302.135
298.255
312.777
317.158
323.488
231.789
311.037
270.938
256.042
209.475
294.836
252.595
309.673
279.492
249.125
294.017
243.592
210.581
258.113
320.193
331.627
341.601
324.406
335.066
323.359
313.436
324.718
330.983
338.942
332.31
310.98
317.924
324.877
335.937
319.12
331.296
311.616
323.749
319.248
307.181
343.473
327.016
333.886
323.932
330.732
321.005
314.441
228.224
307.734
273.294
246.32
205.556
291.367
255.153
334.207
316.541
329.521
309.987
322.905
318.38
305.486
333.601
318.033
328.978
309.491
320.413
315.936
305.031
248.834
268.173
265.083
265.181
244.616
261.952
248.924
317.767
308.437
317.229
301.098
293.186
292.653
301.689
245.805
240.984
224.386
241.458
236.499
223.802
218.388
267.56
247.718
264.208
264.903
243.853
261.378
248.57
239.964
238.329
234.369
227.114
215.741
220.571
222.561
201.932
217.859
222.513
216.5
194.8
211.492
200.409
328.508
313.734
323.804
304.514
314.55
309.988
299.971
336.519
320.972
327.777
316.227
322.987
314.129
307.54
315.618
313.612
305.049
308.51
299.829
297.798
292.761
320.999
309.121
308.95
308.094
307.929
296.102
296.334
218.499
299.082
252.958
249.402
194.715
282.632
232.997
305.463
310.375
314.094
298.111
286.377
289.751
294.57
327.305
308.893
322.768
303.489
317.336
312.891
299.041
327.345
321.73
333.356
315.487
322.144
311.244
304.976
317.899
306.866
306.704
304.17
304.025
293.042
293.284
207.015
289.19
260.408
218.17
181.98
271.988
241.172
319.018
299.583
314.269
295.245
309.884
305.26
290.579
294.161
291.593
290.327
274.514
273.272
286.654
269.333
246.373
263.132
265.412
261.641
240.929
259.031
244.466
321.323
308.542
309.264
296.363
308.377
309.075
321.468
316.899
306.083
303.099
292.177
305.938
302.97
316.986
295.117
278.401
291.873
275.361
274.781
288.188
270.808
318.021
303.051
306.046
302.021
305.031
293.239
290.247
325.078
302.652
303.86
310.546
310.571
317.258
318.079
295.408
288.506
292.621
278.671
271.131
275.241
275.512
211.621
202.826
218.698
214.431
189.763
207.032
198.096
318.331
293.489
302.405
303.179
305.45
306.175
315.223
310.592
296.155
300.618
285.905
295.914
300.442
310.752
298.582
316.505
313.174
294.07
308.242
303.915
289.992
314.871
300.689
303.764
297.996
301.074
290.137
287.067
236.084
233.262
221.982
217.851
229.773
214.35
209.93
197.548
195.399
189.068
190.676
184.295
181.933
176.643
308.95
299.213
299.078
294.475
294.268
284.505
284.756
180.179
266.867
242.917
199.527
170.092
259.237
235.231
301.304
283.461
300.541
292.789
276.676
275.946
293.483
288.482
285.95
282.221
274.4
265
268.945
271.458
257.026
244.876
261.677
259.645
235.387
254.383
241.982
313.925
289.304
300.022
297.053
303.033
300.053
310.848
321.424
320.354
330.783
319.318
300.015
310.545
309.526
299.682
305.408
321.083
314.412
292.429
306.845
299.536
303.89
311.823
297.139
313.508
290.613
304.938
298.695
316.203
318.926
327.526
316.335
296.794
305.639
308.222
304.501
313.91
299.129
312.496
291.179
305.477
297.869
319.571
320.7
321.552
310.677
310.63
309.886
300.264
218.236
294.481
272.514
205.052
175.57
258.733
236.229
321.494
298.29
310.466
302.573
315.952
305.292
292.463
272.813
287.011
284.158
269.985
267.118
280.595
263.298
307.58
282.962
289.792
294.354
292.96
297.476
304.367
280.381
293.489
297.364
289.763
269.355
272.96
286.128
311.239
317.497
324.088
313.092
293.698
300.193
306.635
313.849
319.264
325.882
313.963
295.441
301.918
307.496
315.893
293.11
307.329
310.301
286.77
300.802
295.876
306.004
293.158
296.158
288.343
291.385
281.606
278.542
315.587
318.335
315.38
307.606
306.309
304.777
296.048
312.765
317.032
323.619
310.677
293.255
299.744
304.203
308.429
311.83
318.406
304.668
288.076
294.622
298.158
305.849
292.912
300.947
282.116
290.177
285.232
277.181
309.746
296.109
302.867
287.272
294.097
287.11
280.309
299.54
290.779
290.404
284.452
283.962
274.883
275.379
306.603
299.186
298.144
294.697
293.63
286.343
281.685
320.408
312.545
307.933
302.168
299.5
297.741
289.511
303.651
310.914
317.464
307.631
287.183
293.73
301.156
303.191
296.758
294.046
292.166
289.431
283.083
278.327
236.705
231.406
212.213
225.896
231.492
212.293
205.406
183.809
204.4
171.691
201.319
130.413
82.7023
126.164
298.494
299.288
311.265
306.82
281.903
293.964
294.792
296.155
293.201
306.973
302.506
277.63
291.612
288.633
294.174
302.3
308.868
299.926
278.412
285.115
293.374
289.504
303.497
308.823
298.733
278.861
292.649
284.933
296.629
284.282
287.499
277.785
281.072
271.98
268.696
177.394
271.272
229.451
218.891
167.524
264.77
221.577
296.878
284.004
296.64
283.875
271.571
271.132
284.191
282.623
268.721
278.361
265.618
261.321
274.478
257.22
261.619
239.497
238.791
257.882
257.262
252.614
233.244
196.317
167.924
203.742
117.138
76.3672
159.365
129.2
154.895
151.629
119.944
91.4186
46.4028
132.214
95.9726
209.648
196.237
183.964
186.67
201.927
204.313
192.725
284.801
268.813
277.141
259.787
268.095
276.526
285.437
285.78
290.4
300.365
295.764
270.887
281.03
285.739
212.547
206.57
189.284
188.439
205.843
199.498
181.255
229.935
224.903
210.246
231.005
217.439
211.657
204.044
295.432
283.277
295.196
281.633
270.093
269.64
281.97
228.228
208.022
213.234
221.175
225.805
204.947
199.349
294.584
289.289
284.416
284.686
279.736
274.542
269.683
171.646
267.119
218.421
220.403
161.548
260.526
210.14
163.568
254.441
230.278
166.439
132.137
234.097
207.709
288.745
266.604
283.544
264.772
281.594
276.453
259.398
169.993
127.572
143.542
80.4089
114.178
94.4554
40.1604
261.877
239.638
252.94
239.227
257.706
258.025
244.491
295.678
302.325
309.569
299.257
278.139
285.766
292.299
294.857
280.933
294.63
282.904
269.568
269.11
283.229
260.435
238.234
256.893
236.632
255.552
251.046
231.332
163.188
260.721
223.944
199.573
152.667
253.863
215.824
290.177
275.4
289.935
278.993
264.798
264.308
279.342
289.03
278.039
288.817
274.19
263.705
263.211
274.543
198.756
286.895
243.659
208.446
153.201
250.789
204.349
244.772
206.393
247.147
182.421
136.639
218.315
185.151
149.998
99.6074
183.217
198.491
156.161
121.977
61.5106
186.911
179.014
185.233
172.417
178.769
170.586
163.683
281.872
256.851
261.623
270.257
265.149
273.631
278.406
288.602
265.715
271.209
276.52
283.151
265.547
258.862
282.849
265.296
270.516
275.387
281.726
264.236
257.815
237.073
232.873
252.128
229.369
249.054
244.711
224.303
310.989
289.373
300.609
287.482
299.548
289.493
277.597
292.188
283.827
298.026
283.153
297.294
287.955
273.877
194.682
283.424
246.322
197.164
148.459
247.406
207.438
309.286
285.77
286.883
298.68
298.996
288.654
275.891
183.324
274.47
223.281
200.571
134.73
237.92
181.156
246.022
200.94
236.745
183.825
129.367
214.249
172.578
102.831
169.307
148.265
62.6407
28.3912
117.77
86.769
306.3
287.676
283.684
282.715
297.885
296.894
291.905
303.543
284.606
279.24
281.621
293.228
295.7
289.376
287.42
288.742
295.426
279.57
264.417
271.428
272.71
280.912
263.385
269.855
274.747
282.36
264.79
257.119
280.407
289.265
292.302
278.744
263.526
266.743
275.621
281.144
290.788
293.775
281.013
265.085
268.256
277.963
278.071
288.749
291.755
280.038
263.025
266.23
276.975
203.599
180.318
198.699
175.695
194.586
189.351
169.72
288.512
280.901
295.023
278.233
292.289
283.779
269.712
308.825
288.294
298.511
285.301
296.251
286.261
275.375
302.788
279.133
293.183
279.209
292.654
283.232
269.143
301.325
282.689
281.58
289.315
288.231
276.074
269.153
284.394
280.181
273.56
275.316
268.553
264.438
259.268
257.054
246.447
231.201
234.323
250.883
253.591
238.535
301.544
276.294
281.926
282.794
288.555
289.411
295.064
286.112
284.344
298.023
292.958
266.696
280.404
279.302
272.474
283.919
287.012
276.087
258.072
261.374
272.939
187.923
173.516
182.692
164.099
173.643
167.824
157.746
275.159
282.895
285.922
271.288
257.036
260.299
268.152
281.278
270.883
280.903
265.303
255.64
255.032
265.827
303.746
284.11
293.642
280.091
290.181
280.338
270.183
297.869
280.067
286.727
277.249
283.958
272.636
265.648
143.772
247.454
188.277
204.367
132.298
240.231
178.818
161.187
260.575
216.517
189.517
130.715
241.354
192.553
286.901
269.208
282.274
260.902
273.964
269.092
255.739
227.1
192.825
242.032
160.646
118.05
208.628
179.156
142.181
209.353
191.691
76.8241
43.0171
136.836
109.957
226.487
214.242
222.625
196.108
205.796
201.02
190.845
297.209
271.935
279.501
276.449
286.181
283.169
290.696
277.352
259.96
267.531
271.18
279.908
262.478
253.729
279.538
263.476
279.199
269.362
253.925
253.326
269.765
283.484
261.285
266.174
269.91
275.894
258.404
252.329
266.037
259.382
258.558
248.82
247.867
240.185
241.164
284.525
287.915
279.016
278.039
272.032
269.066
261.994
155.037
256.261
204.8
191.191
123.55
236.569
179.568
297.188
275.984
289.888
271.766
285.607
277.545
263.631
134.519
207.509
194.155
231.478
175.102
166.018
93.2449
290.384
265.038
268.533
273.418
275.43
280.204
283.772
260.575
273.212
276.324
266.451
246.936
250.373
263.241
267.456
249.879
259.553
261.534
272.164
254.653
243.827
267.933
274.761
277.976
262.36
248.584
252.046
259.003
273.946
256.565
261.606
263.428
269.518
252.125
245.921
284.841
265.972
280.15
258.794
272.949
268.038
253.547
285.303
268.388
280.597
259.29
271.533
266.578
254.065
289.24
272.373
279.178
267.231
274.141
263.837
256.608
123.769
233.703
200.611
157.94
111.079
225.777
191.55
268.474
250.908
267.851
258.646
242.187
241.333
259.3
278.943
262.938
274.164
252.727
264.015
258.902
247.321
169.98
263.64
231.84
163.444
118.092
226.67
191.098
78.5413
146.67
122.454
29.0519
6.49244
73.7458
41.2042
257.06
265.886
274.004
268.86
243.089
251.584
260.667
260.483
270.736
277.716
270.595
245.524
253.138
263.511
176.257
156.324
170.848
153.482
168.273
162.347
146.807
294.254
270.222
285.342
269.597
284.376
275.514
260.164
262.982
251.841
255.544
240.873
244.758
237.093
233.176
145.862
249.447
210.602
167.463
112.641
229.101
186.038
279.91
260.03
275.101
253.756
268.815
263.786
248.367
250.882
227.128
247.316
221.926
242.699
238.152
216.793
217.833
202.149
215.813
195.471
209.571
192.967
185.721
204.907
219.498
218.668
197.63
196.653
212.009
188.829
192.305
173.143
181.681
192.369
164.095
184.352
173.183
219.632
219.088
225.71
205.115
189.129
197.042
197.757
189.846
179.872
198.31
191.565
162.061
182.633
172.23
247.949
261.579
264.952
255.71
234.617
238.323
252.263
278.816
262.527
269.58
255.37
262.635
253.099
245.533
270.829
257.521
258.269
256.919
257.669
243.295
244.108
124.724
235.566
172.678
172.986
88.3255
213.69
143.255
155.69
242.969
219.488
105.945
68.4558
178.982
150.842
172.916
171.951
165.162
163.957
156.907
155.843
146.957
287.082
266.283
259.978
266.469
273.816
280.281
273.364
270.59
258.159
257.133
243.025
257.557
256.522
271.033
269.004
239.533
251.657
251.167
263.982
246.518
233.35
269.135
247.568
264.156
242.423
259.025
253.794
236.737
270.611
255.189
265.612
244.057
254.634
249.254
238.396
280.604
262.486
270.696
255.845
264.322
254.095
245.398
267.947
250.621
251.415
253.994
254.755
240.317
236.754
266.643
255.145
254.505
252.127
251.462
238.799
239.672
276.985
274.567
273.456
264.616
263.466
260.729
250.553
258.688
268.142
267.497
250.57
249.949
258.131
240.433
255.133
265.218
262.555
247.621
244.931
253.888
236.082
211.554
194.372
207.381
188.191
201.489
183.29
176.531
267.986
267.027
276.004
258.343
240.095
250.398
249.429
233.718
247.022
253.053
246.843
218.525
239.639
226.538
232.13
244.554
251.625
246.033
216.528
237.808
225.649
267.466
253.104
255.816
239.675
252.45
255.191
267.941
246.563
232.784
252.287
245.445
217.3
238.538
224.928
209.177
212.954