/*--------------------------------*- C++ -*----------------------------------*\
  =========                 |
  \\      /  F ield         | OpenFOAM: The Open Source CFD Toolbox
   \\    /   O peration     | Website:  https://openfoam.org
    \\  /    A nd           | Version:  9
     \\/     M anipulation  |
\*---------------------------------------------------------------------------*/
FoamFile
{
    format      ascii;
    class       volScalarField;
    location    "0.0035";
    object      overpressure;
}
// * * * * * * * * * * * * * * * * * * * * * * * * * * * * * * * * * * * * * //

dimensions      [1 -1 -2 0 0 0 0];

internalField   nonuniform List<scalar> 
32826
(
4934.58
6423.88
14900.6
11763.7
-9494.78
-2443.2
5727.74
14232.9
-9716.42
-1613.02
15403.2
-9139.67
-877.805
12044.4
23514.1
-5132.82
4632.36
-9885.07
-7423.44
-7742.76
-4815.73
-5147.97
-2995.81
-2741.32
-10089
-7335.59
-7866.4
-4802.71
-5278.22
-3040.54
-2363.93
-5068.46
-2599.72
-5312.04
-559.812
2165.68
2172.58
-407.719
24926.9
-2880.42
7507.21
26556.9
31551.3
9792.38
22131.9
-6.17912
4854.91
-240.452
1933.05
6971.18
7068.4
2056.91
-2514.95
-4623.63
-5342.37
-494.218
3422.36
2358.77
383.938
-8150.85
-6709.98
-4210.97
-5616
-3144.89
-1712.54
-498.914
4904.02
340.168
-286.941
1984.45
8272.78
7221.15
2838.35
-3964.01
535.337
-2726.76
4265.81
1096.48
2502.39
5873.94
4400.96
9239.62
6878.01
12397
9581.5
7173.08
4353.66
-6741.2
-2295.39
-4109.94
131.585
-1642.46
1130.8
3160.35
964.012
7835.06
2175.87
9100.23
3541.58
4934.37
10714.1
4566.13
12719
11106.7
8701.6
9825.12
7432.74
5620.32
446.279
127.972
2499.39
3618.32
5930.65
5738.18
9391.73
2294.78
956.841
-1100.95
4290.02
10444.8
7847.01
6603.18
12095.5
9693.93
6444.24
8055.58
17577.5
13976.2
11548.5
9718.96
5851.13
3819.84
6762.61
15449.5
12808.4
9064.5
4516.45
13299.2
7869.23
15558.9
10124.8
13841.4
19489.9
3584.13
11447.8
7280.75
13621.1
9444.65
13356.3
17851.8
8397.93
18846.4
12036.3
18671.9
11900.9
15805.8
22957.6
10081.3
20164.8
19260.1
16716.7
16289.6
13792.7
12687.3
718.126
0.231617
0.0399602
0.00903482
0.00126635
0.000135516
1.11719e-05
226533
173.152
2.01642
0.16843
0.0236346
0.00247149
0.000198903
204413
215403
25737.5
58.6078
0.540664
0.0440653
0.00311781
111834
153687
235105
192804
755.985
1.16376
0.0491852
56447
78108.8
116963
185927
241590
1995.12
1.15468
26437.6
38707.3
61041.7
101371
170103
243596
963.387
14587.9
30174.7
55405.4
100413
182217
207645
9991.9
29398.8
59557.8
114354
231214
0.570818
0.087027
0.0245818
0.00395054
0.000548255
5.92637e-05
4.89991e-06
1966.28
37.5081
1.1029
0.0552859
0.00902432
0.00103081
8.59782e-05
234722
179270
5767.86
12.3213
0.198766
0.0154937
0.00124445
128776
177224
246395
124011
154.228
0.387879
0.0165749
66908.1
91878.4
133048
212682
215660
406.236
0.408609
31767.5
47078.9
72609.2
116334
192250
219881
198.641
19049.2
37664.3
66172.7
115270
207452
147226
6663.43
36803.8
70867.5
129892
246522
0.0889114
0.0207542
0.0054043
0.0010349
0.000145888
1.45403e-05
1.15768e-06
39.6775
1.26822
0.146971
0.0221895
0.00308949
0.000287327
2.12869e-05
129961
19704.2
114.382
0.974943
0.0366208
0.00505989
0.000357576
180096
244195
221324
4666.9
3.04367
0.0565805
0.00522143
96966.5
128315
178890
258032
34802
6.80972
0.0534147
48062.2
63249.5
104116
155507
254223
40107
3.6445
30228.8
58359.1
95931.2
154187
258179
7267.61
25671.2
36576.5
101875
173191
236850
0.016596
0.00444095
0.00114032
0.000202812
2.53242e-05
2.46777e-06
1.91358e-07
0.632011
0.0984081
0.0214708
0.0040321
0.000503261
4.78913e-05
3.55442e-06
2436.89
45.0364
0.958491
0.0518462
0.00822615
0.000808722
5.8185e-05
246665
191390
5124.02
9.35799
0.150905
0.01113
0.000843822
153932
203728
265568
87861.4
62.295
0.240211
0.00960261
46940.9
73658.9
159593
247751
159008
72.7306
0.142075
33998.9
44099.7
65035.6
148286
244078
108517
14.3538
28790
65995.2
68335.7
156168
265066
9966.38
39986
85046.5
197554
81.8336
0.00233923
0.000553141
0.00013119
2.2542e-05
2.81821e-06
2.76734e-07
2.17115e-08
0.0331338
0.00957859
0.00272631
0.000439803
5.39595e-05
5.13728e-06
3.91316e-07
1.54456
0.231219
0.0306493
0.00720478
0.000897689
8.41537e-05
6.12896e-06
8754.33
196.513
1.75046
0.103819
0.0122799
0.00120894
8.67141e-05
230857
209948
11160.6
24.4931
0.273393
0.0136677
0.00102182
166084
221954
258286
80143.1
75.1855
0.2621
0.00890396
95319.5
86268.6
177695
256783
90219.7
34.3134
0.0847171
54106.8
75969.7
81903.3
174268
257648
19171.6
2.6535
96447.3
127647
80.8406
0.59717
0.000226723
5.98312e-05
1.3037e-05
2.13839e-06
2.64641e-07
2.61207e-08
1.94996e-09
0.00452709
0.00100905
0.000235803
3.89504e-05
4.777e-06
4.63639e-07
3.6307e-08
0.0428524
0.0139427
0.00401794
0.000625288
7.56331e-05
7.16564e-06
5.45551e-07
1.67698
0.30436
0.036024
0.00844037
0.00106368
9.9948e-05
7.34343e-06
6.53757
88.2727
1.36439
0.0884487
0.011554
0.00116885
8.528e-05
158387
110947
2000.36
6.37005
0.125543
0.0100582
0.000790451
120169
177850
191511
6790.32
7.49927
0.0790995
0.00547527
52379.1
65898.6
106503
194390
3011.93
1.59561
0.024906
95148.2
121683
48.0952
0.711416
0.0380482
2.21417e-05
5.75649e-06
1.18405e-06
1.83587e-07
2.20607e-08
2.02272e-09
5.82077e-11
0.000382733
9.92325e-05
2.05255e-05
3.20922e-06
3.86572e-07
3.76313e-08
2.86673e-09
0.00629173
0.00145211
0.000311136
4.88214e-05
5.84131e-06
5.61806e-07
4.39177e-08
0.0638399
0.0182419
0.00426514
0.000670161
7.9566e-05
7.51994e-06
5.74481e-07
0.258934
0.270035
0.0470488
0.00805231
0.000926204
8.71244e-05
6.50914e-06
4.89411
34.8529
0.991214
0.0666827
0.00917082
0.000818934
6.07857e-05
118081
51059.5
334.026
1.66128
0.0613682
0.00626291
0.00044546
119810
164901
103302
437.756
1.0321
0.0293782
0.00232142
126678
157856
0.707743
0.0596865
0.0111703
1.86657e-06
4.65967e-07
9.27248e-08
1.39116e-08
1.58616e-09
4.36557e-11
0
3.08753e-05
7.85988e-06
1.57396e-06
2.3724e-07
2.80997e-08
2.663e-09
1.01863e-10
0.000440461
0.000114923
2.30401e-05
3.49207e-06
4.13696e-07
4.00323e-08
3.08501e-09
0.00587936
0.00150505
0.000303077
4.6224e-05
5.45157e-06
5.2317e-07
4.10073e-08
0.0650668
0.0165756
0.00336915
0.000531374
6.24266e-05
5.93584e-06
4.58502e-07
0.142695
0.165011
0.0298523
0.00536104
0.00059072
5.59499e-05
4.27691e-06
2.08758
8.33916
0.464893
0.0347673
0.00458115
0.000417952
3.18239e-05
13506.8
3580.7
25.3209
0.449571
0.0226517
0.00229705
0.000178807
65241.4
0.3091
0.0513159
0.0114155
0.000822564
1.34329e-07
3.26982e-08
6.33008e-09
7.71252e-10
0
0
0
2.17614e-06
5.37781e-07
1.05967e-07
1.55851e-08
1.67347e-09
5.82077e-11
0
2.9973e-05
7.60402e-06
1.51507e-06
2.25831e-07
2.663e-08
2.45927e-09
1.01863e-10
0.000363509
9.66471e-05
1.93798e-05
2.91075e-06
3.4312e-07
3.32075e-08
2.56114e-09
0.00370436
0.00106745
0.00021407
3.26189e-05
3.85001e-06
3.72194e-07
2.94676e-08
0.0287768
0.00922121
0.00190378
0.000303582
3.60497e-05
3.48574e-06
2.74726e-07
0.056771
0.0584542
0.0122941
0.00214087
0.000266582
2.60643e-05
2.05754e-06
0.447895
0.750013
0.0682888
0.0107681
0.00143724
0.000145095
1.16728e-05
5.032
0.0419712
0.00643226
0.00064022
5.05955e-05
8.07631e-09
1.86265e-09
2.47383e-10
0
0
0
0
1.29599e-07
3.1534e-08
6.0536e-09
8.14907e-10
0
0
0
1.74648e-06
4.34025e-07
8.57253e-08
1.25874e-08
1.38243e-09
1.45519e-11
0
2.06281e-05
5.29175e-06
1.06731e-06
1.59911e-07
1.88884e-08
1.76078e-09
1.45519e-11
0.000204485
5.58239e-05
1.14898e-05
1.74782e-06
2.08369e-07
2.03872e-08
1.5425e-09
0.00156777
0.000473998
0.0001014
1.592e-05
1.92167e-06
1.90208e-07
1.53668e-08
0.0087053
0.00317848
0.00066522
0.000113211
1.40914e-05
1.41517e-06
1.15295e-07
0.0470654
0.0111111
0.0036349
0.000569565
7.53535e-05
7.86214e-06
6.61064e-07
0.00854378
0.00198638
0.000305762
3.2942e-05
2.83976e-06
25562.3
425.041
10435
17653.3
29968.2
1681.54
13301
23851
-1700.33
11331.3
12773.8
28087.8
-432.357
14194.9
34886.7
10007.8
16896.2
29902.8
39756.7
11351.7
20027.1
-1651.53
2034.01
2470.7
2153.01
2633.37
6523.8
6109.72
32322.8
2548.18
14691.9
28178.4
44957.4
8706.26
23459.5
2082.91
14209.6
30432.1
15668.3
22951.5
42827.1
18102.1
402.928
3506.77
3709.35
4961.22
5200.02
8550.9
8006.57
-1519.68
3673.03
4153.62
2453.32
2931.65
6895.48
8306.47
606.058
5258.77
4007.41
6748.59
5494.86
8897.85
10363.4
42499.5
12224.1
20264.3
42670.4
56961.7
22367.8
30848.8
15609.7
49542.8
42796.7
27841.5
40304.1
50918.8
85225.4
49677.6
51940.7
30402.7
67454.9
87020.8
43918.9
52920.8
10156.2
12034.5
12424.2
15237.4
15690.3
18032.8
17292.6
39347.2
19928.4
29280.2
75596.2
97816.6
44568.6
55391.4
47795.5
14410.1
28905.7
34975.4
53906.5
17746
33574.5
5885.04
10729
6293.94
10718.6
14193.5
15186.7
9985.04
6823.62
11234.6
7322.46
12206.6
15054.2
16177.2
11350.2
10311.9
13951.9
12663.5
17232.2
15937.7
18351.4
19911.7
482.112
4768.01
5244.03
6594.37
7060.94
9564
11663.8
50399.5
16222.8
33866.7
34119.7
56718
17906.3
38897.6
6774.73
12182.9
7268.05
11196.4
15096.4
16150.4
10438.1
4154.2
6289.5
7761.62
8126.58
9600.45
11532.5
13673.5
54148.2
19854.2
31539
43988.6
60778
21595.2
36438.7
9654.65
15529.3
10242.2
13637.9
17781.8
18994.3
12733.8
11157.7
8086.81
6665.76
11139.2
17477.2
15717.5
12737.5
12596.7
9042.42
7620.91
11621.5
18433.9
16678.1
13211.8
15927.9
12068.2
10582.2
14038.2
21372
19487.9
15737.7
11652.6
9134.75
7679.84
12610.2
18494.1
16672.7
14285.2
14313.6
17880.6
14993
20680.6
22386.7
23652.7
19651.5
71273.4
32718.7
42202.5
62852.4
79211.6
36895.6
47658
20673
27603.4
21502.2
23925.4
28838.1
30096.1
22837.9
14238.8
27332.8
48885.6
27152.4
39256.7
74134.2
33199.7
18274.1
16851.1
15308.4
21086.5
26116.5
24178.3
22859.5
13867.7
14972.9
18345.8
16893
20326.8
21179.9
23455.5
57674.3
19454.7
36235
51629.6
76216.7
29276.8
50002.3
3992.84
11660.9
12147.1
8723.8
9200.41
14067.7
17336.6
60645.5
24150.2
41764.8
50693.2
79770.2
31546.6
56567.6
51101.2
22863.3
27850.6
43469.5
76668.8
27472.9
33025
6092.47
13190.8
10281.8
14697.7
11791.5
16122.3
19388.5
9330.61
16586.8
11439.3
19222.6
14212.3
16590
21843.6
10288.3
18075.2
12387.5
20202.6
14690.8
17079.7
22873
23353.9
11145.2
18615.2
16015.8
23791.6
20916.1
28994.1
33837.6
35745.2
40677.4
44357.9
39722.2
46823.7
51019.8
64915.8
28034.7
39186.5
62830.6
84855.9
35748.3
53416.2
13233.5
21504.5
15387.9
23078.3
17114.8
19545
25792.1
17357.2
21418.5
20060.5
26934.3
22786.8
21399.5
16178
15418.6
18791.5
19262.7
25067.1
19923.2
20424.7
14413.3
28119.8
23401.9
21839.5
24366.4
32795.1
30810
26150.7
10311.3
17080.1
12440.5
20176.3
15658.6
18066.6
22817.1
15443.6
19194.5
18796.1
20454.8
19952.2
25058.7
23824.7
17383.8
20165.2
21425.2
21565.2
22899.2
27074
25743.8
63936.9
26471.1
41234
71935.6
92873.9
38499.7
49668.2
17847.1
27789.4
25451.8
24022.4
23430.4
22029.9
19701.1
15953
25980.4
22570.7
23053.2
20662.5
21115.9
17706
15958.9
23058.6
22565.3
21094.8
20626.8
25923.5
28052.2
21094.6
23257.9
24635.4
25577.1
26950.6
30658.7
29234.1
23956.6
18055
21461
27941.7
24370.3
26931.7
30809.4
26457.5
22288.1
16234
24095.5
28054.2
30654.2
35115.4
19671.5
24044.5
22096
25547.9
23580.7
27951.5
30118.3
17404.9
24041.3
29214.1
22945.4
16229
11769.8
18113.1
19315.8
18763.7
16060.3
26095.4
22907.1
26319.2
29888.9
23507.9
27356.6
25307.5
29745.6
27663
31595.7
33826.5
22190.2
29795.8
34598.4
23657.1
28130
16475.2
20561.6
26658.5
31631
28376.4
36321.9
32981.6
29724.8
25380
19319.8
17082.3
13827.3
19323.8
29029.8
24986
22957.2
24554.8
14812.9
20850.3
19827.5
30166.1
26060.3
23490.9
20389
15735.9
9924.93
15234.8
19870.6
21309.9
26336.2
84244.1
39232.9
50924.3
87233.5
108211
52111.5
67488.1
24821.6
34572.8
27207.6
34908.2
27798.9
30456
38048.9
42964.4
38004.3
48806.5
49941.4
44436.7
56003.5
61858.4
81103.3
65450.6
60345.9
64931.5
103303
95583.1
130122
27483.3
26025.2
21383.5
24057.3
35702.9
30524.1
29011.5
21186.2
24427.1
17892.3
22374.6
33284.1
29105.2
26069.6
19828.4
18107.6
14853
20842.6
30065.1
26000.6
24498.4
24605.5
25111.9
19470
22109.3
33743.7
27541.4
28079
36902.3
32342.5
27148.4
43442.9
32857.1
38535.8
49863.2
22080.3
25059.2
24587.4
28005.4
27513.3
30373.2
33664.3
16142.9
18257.3
11892.3
16748.6
21352.7
23352.7
28361.8
32690.3
27574
20295.2
27583.3
22896.4
15876.7
20108.1
34995.2
20723.6
26539.7
32803.9
26496.9
34938
41682.3
39891.7
48806.5
55785.6
85375
95897.8
134332
99587.6
27247.8
37437.7
36056.8
32642.6
33911.9
30521.5
29210.7
21450.8
26115.5
27646.5
29125.6
30708.2
32520.7
35939
89046
36481.3
55901.3
68122.4
97637.6
41802.9
62548.5
24448.5
31578.7
25780.9
30632.2
35334
36831.1
29304.1
86445.7
34769.5
57573.9
62009.3
94855.7
39933.9
64348.2
24568
30723.9
25816
31743.7
35543.2
37029.1
30378.2
52120.4
88135.7
48474.7
106774
138822
69248.2
96860.7
118349
58614.9
70844.1
116394
149584
77440.9
98961
66990
88215.8
42163.7
93953.5
129885
60268.9
83378.1
21552.4
36417.8
29688.5
33714.9
26926.3
35407.1
42689.9
42116.5
54804.4
46658.7
62537.6
54054
58824
67924.4
44877
48013.7
48649.4
50822
51425.4
55641.3
55325.8
23610.3
30200.2
24815.8
30174.7
34483.5
35906.1
28877.5
26396.4
22964.4
27008.7
30146.3
38807.6
34365.9
34123.8
33428.6
49624.8
37827.5
53373.7
40858.3
45773.5
58986.7
27158.7
32984.2
28560.3
34875.7
38141.9
39734.7
33404.8
33998.2
35362.9
36736.7
39670.5
40978.1
44042.1
42719.5
25256.5
29438.2
31906.6
32550.7
35104.7
36319.3
39864.3
97642.8
41058
69877.1
66474.5
106567
46671.9
77522.2
19420.1
25942.8
32605
32033.2
25406.6
32322
39414.7
62019.4
60235.8
59895.2
121829
96174.9
103109
151513
24267.6
31301.2
36823.6
38019
32680.3
40284.5
46187.8
32629.7
28771.3
26616.3
31686.8
40554.4
38022.1
34010.6
31270.8
27822.6
25723
31238
39614.8
37108.8
33540.4
27432.4
35348.1
28817.1
33286.9
38653.8
40247.3
31853.9
31794.7
28846.5
26704.8
32815.4
40784.6
38231.6
35174.1
36463.2
31918.1
29719.9
34366.1
44119.2
41485.2
36758.7
34901.7
39999.9
37817.3
44523.6
42254.6
45483.9
47970.6
105493
46465.1
64074.3
86519.7
115034
52390.8
71405.9
31801.3
40178.6
33247.5
37270.5
43107.9
44699.3
35783.4
58970.1
83559.7
105963
139938
169860
89152.3
112704
29333.9
37510.4
42665.7
47303
38330
43327.4
52838.7
38466.3
34907.5
31151.1
34132.8
46335.7
41949.9
38227.9
34066
31649.3
29442
36008.1
43582.2
40985.1
38413.3
30896.4
26097.1
22076.1
29975.8
34950.6
34219.2
39653.5
84977.2
34164.6
56660.3
86033.9
119573
47150.7
84052
49947.5
57406.9
88789.5
63719.2
84977.6
124149
92844.7
27289.6
39834
38871.9
37209.5
34238.3
32648.9
31397.9
25265
37787.2
35635.7
36246.5
31117.9
31698.7
29330.3
41472.9
36520.7
34251.5
38469
48838.8
46120.6
40919.2
21029.6
32777.4
26055.5
33921.7
27361.2
32824.6
39879.6
22104.2
29029.8
34580.2
35118.8
27922.8
33417.2
41160.6
25231.4
36114.4
35602
31593.2
31074
37695.4
42703.7
22059.4
33300.6
27052
34966.2
28908.2
34385.9
40937.8
35009.2
28366.3
21238.8
33439.3
26842
34353.6
41457.8
-14044.3
-4006.34
-13820
-2383.78
-7795.33
6066.32
11009.9
-6938.06
-27133.7
-19576.8
-14400.3
-6405.86
-27163.1
-19405.1
-27346.9
-24982.5
-25222
-22769.9
-23114.1
-20992.7
-20657.3
-5749.34
-26426.5
-18838.8
-10002.8
-753.395
-22573.7
-14553.8
-27543.2
-24984.7
-25424.1
-23108.5
-23421.2
-21277.7
-20900
1924.04
-20104.3
-12075.2
4761.88
15852.7
-6946.31
1071.25
6111.81
-16434.6
-5631.99
-3130.88
8379.39
-16107.1
-4733.67
-22440.3
-19823.3
-22692.4
-18512.2
-15441.5
-15710.2
-18204.5
-18460.9
-14458.8
-18862.7
-16737.5
-11976.1
-12325.1
-16378.7
-14718.8
-18863.7
-19166.4
-16990.5
-12082
-12518.2
-16603.1
-20071.8
-22392
-22915.6
-18775.7
-15283.2
-15949.4
-18281.8
-25438.2
-24304.6
-22454.9
-23298.1
-21483.8
-20267.5
-19269.8
-24114.5
-20287.9
-21914.9
-18704.3
-20185
-17906.7
-16303.1
-14275.6
-9602.94
-11274
-7152.85
-9879.04
-11515.7
-13976.8
-16667
-12401.8
-13056.2
-12622.1
-13256.8
-9297.78
-9109.02
-16541
-17832
-16377.2
-14286.5
-12936.3
-13947.5
-10486.4
9580.33
-15590.8
-2562.95
3145.41
17338.9
-7248.72
1622.09
-21765.3
-17810.8
-20751.8
-14724.5
-17670.4
-16660
-13661.9
-18256.6
-12859.2
-17292.1
-11456
-15978.7
-14985.6
-10441
-14478
-7179.69
-9399.51
-10959.2
-9996.79
-11650.5
-13954.3
-16915.3
-12016.8
-12578.9
-12824
-13455.2
-9396.72
-8497.71
22655.9
-942.801
7292.49
30711.2
52739.2
20770.3
31794.2
-12236.4
-4763.1
-10027.5
-3541.72
-8757.68
-6314.01
-1071
-8292.98
-4155.89
-8488.11
-5204.36
-839.481
-880.02
-5055.62
-11518.2
-14517.7
-15991.8
-13609.2
-7334.11
-9005.91
-11989.3
-16374.1
-17620.9
-19343.1
-15245.7
-10325
-12188.4
-13517.7
-9446.78
-5783.73
-9630.81
-5734.5
-1860.9
-1923
-5579.57
-8770.35
-10356.6
-13336.7
-12293.2
-4489.76
-7647.45
-9217.8
-14515
-11459.1
-12026.7
-10305.8
-10865.6
-7861.47
-6584.36
21279.3
-886.177
8675.51
20753.6
39283.7
9075.42
13959.3
-15166.7
-8504.92
-11619
-7831
-11108.6
-7609.45
-4258.95
-4066.12
-7698.6
-8535.15
-5136.53
417.299
-668.678
-4164.64
-5745.79
-8788.59
-9726.33
-5700.6
-654.876
-1737.82
-4705.52
-12279.8
-4486.41
-8931.97
-4997.6
-9678.71
-6265.7
-1584
1289.24
5734.79
2506.8
8123.82
9377.93
5053.23
12118
-10837.6
-2878.11
-4251.26
-5729.33
-6130.61
-7693.71
-9070.95
-444.928
342.479
-4848.04
-2130.39
7881.28
2571.29
3124.21
-4246.3
-2112.81
-7384.1
-3402.38
5403.4
28.2863
1890.41
-1658.62
2523.15
2029.94
6563.92
2691.07
2168.33
-1603.42
-11098.9
-9328.9
-13026.7
-6733.83
-8771.3
-4974.07
-2732.94
-7052.76
-968.354
-5786.21
1302.76
-3410.43
-1988.83
2911.56
-6879.1
-8150.32
-3980.69
258.282
-3949.54
-2522.43
1871.62
-1453.97
6938.34
4243.47
3711.86
3007.32
2488.07
-362.558
-1762.16
-3174.1
-6649.83
-3152.95
5676.45
1795.11
454.943
-4933.76
-4607.11
-8559.67
-4124.37
-437.527
28.6697
3877.37
14526
4011.44
11031.5
11766.4
8115.74
15396.7
19278.2
12952.2
23770.9
15594.7
25321.7
16939.6
19990.9
28805.9
6464.91
18461.7
13597.7
14277.1
9356.57
16705.4
21973.1
-3006.23
-826.459
-5270.47
-783.569
6439.79
3778.94
1652.12
3563.67
4786.62
-606.062
9478.11
3980.14
8479.59
14155.9
1076.61
10209.3
11562.3
10303.6
6110.88
4827.27
6423.06
5295.4
4788.75
535.743
2150.69
11699.8
7131.77
6623.28
772.047
-1987.46
-4181.01
-254.038
7461.15
4827.52
2151.11
3646.8
4606.23
-229.11
9688.78
4626.39
8680.64
13995.7
738.848
10053
4546.76
10672.9
5110.24
9136.65
14943.9
18138.9
16853.2
12796.8
20384.1
30899.1
26096.8
24697.5
21607.4
37071
27061.4
25086.4
41590.4
30989.1
34702.4
27426.8
18808.6
22652.4
23628.8
37829
27908.8
32959.2
4058.34
14088.4
12183.5
11675.6
9266.74
8748.84
6702.57
19474.8
13542.7
8269.68
13528.9
25392.6
19161.7
19447
14858.5
14778.5
9118.88
13965.6
26281
20067
19870.3
15740.3
15237.3
9946.01
14230.3
26284.7
20346.7
19852.3
29173.7
40797.3
46799
44767.2
35547.3
33916.4
39376.2
19372.6
32227.6
32447.3
31978.3
25842.8
25372
25590.9
37197.1
30465.2
40071.8
46177.7
38814.5
33194
25217.2
100326
42956.3
68638
86413.5
125887
58293.6
89336.1
47150.1
70391.2
94243.6
60263.7
101204
130749
88373.5
38313.8
32706.8
25180.2
38313.1
30519.4
36046.4
44433
38207.7
34049.9
30277.3
33851.4
46924.4
42026.2
38050.3
30150.2
39914
33438.8
42617.1
36189.8
39858.6
46690.4
27388.5
37425.4
32814.8
39176.1
34477.9
40119.2
45323.4
103214
44899.3
66739.8
94068.3
129066
60532.9
87073.2
31096.5
41402.9
34421.9
43590
36668.1
40355.8
47709
31216.8
40519.4
34573.7
43850.5
37901
41678.2
48002
57242.7
38291.8
45082.5
45018.2
65477.5
52383
57177.7
38527.1
43633.3
39902.9
47690.5
50453.4
52012.4
46286.4
48750.9
56273.2
67619.3
55416.4
63522.4
68680.4
76525.2
39362.9
59473.6
46795.5
45583.8
67071.4
53606.2
57913
58010.7
60677
67347.5
64392
81154.2
74110.2
70845.9
58711.7
58622.7
53199.4
60682.3
67001.1
66656.7
60697.9
34061
42998.3
37514.9
46767.1
41248
45155
51051.9
31455.4
41120.4
36366.3
43970.9
39053.2
44245.8
49613.4
42583.2
42613.8
47391.5
46308
51351
51134.5
55445.4
36205.3
40786.3
42356.6
41368.1
42962.1
49687.5
47971.4
112332
50002.4
82413.4
91976.9
138875
66685
105612
45056.1
43557.9
41170.9
49262.3
56626.3
53688
51974
34371.1
45719.3
37862.5
47337.9
39543.5
43402.2
51675.8
35495.9
35804.7
30568.2
44131.1
38935.4
44873.1
50577.2
38035
42105.1
43764.6
43577
45282
51620.1
49822
121057
56001.4
76057.7
116858
149164
73892.2
98219.4
39123.4
51278.6
42794.5
52278.8
43867.8
47900.7
56852.3
34970.7
41358.6
43021.7
50953.2
52848
49950.1
60291.3
61914.3
48709.8
42902.3
51410.9
72433.1
57818.1
65327
36120.1
41160.2
40721
49514.8
42768.8
42293.4
34670.8
38367.8
42473.2
44130.3
52194.7
44119.3
45827.3
36825.1
33114.6
42041.1
40516.1
49309.6
50020.6
47803.3
57883
37412.6
46411.4
43685.6
47046.7
44293.6
51139.2
54102.9
37873.7
51117.2
51680.6
47467
46315.4
42366.1
42511.3
33000.3
47638.7
39819.8
41895.9
57683.4
49762.2
49221.3
67612.8
58621.1
58942.3
63702.1
73029.4
72994.4
63626.1
37311.9
50956.8
46816.7
46334.5
44083.6
43615.2
39823.4
41947.5
48207.9
45597.9
56032.6
49960.4
47337.8
40341.6
43764.1
31793.1
36654.8
48432
40968
46166.5
54090
39241.8
47850.5
45087.2
49440.4
46635.7
53090.4
56109.3
64357.7
69151.6
72448.3
78461
75504.5
83886.1
90442.5
46891.6
49539.5
43971.4
54639.8
49314.5
51864.8
57576.1
42687.3
46381.5
48120.8
49259.2
51035.7
57170.8
55274.1
140395
66920.4
84734.3
122255
152910
74360.1
93611.9
47515
57881
48805.1
52406.4
60561.1
62190.6
51006.8
45379.7
48523.6
55089.6
49053.5
66172.6
59110.2
55525.9
59717.4
63676
49551.8
55021.6
82248
65758.1
69833.2
39578.3
53668.5
48245.4
50021.9
45451.8
47179.9
42169.7
41083.6
41720.7
34241.5
40222.5
56070.3
47625.3
48302.7
46853.8
39075.4
31999.2
39317.5
55177.9
46911.6
46931
40341.1
41164.7
48938.4
39944.5
56640.3
48297
47633.8
44427.3
42683.2
36344.2
42374.7
58355.5
51083.2
49259.9
40084.6
39769
47406.4
40880.6
56274
48008.6
48548.9
40113.2
41557.4
41030.7
47554.2
48733.7
48094.5
55895.3
119287
58422.7
75431
135160
163117
85551.1
107692
38611.9
54649.5
44327.9
52827.4
43104.7
49311.9
59921.8
49774.4
45997.4
49292.6
56254.2
60001.2
55861.6
67075.6
43271.4
57630.4
54397.8
51608.8
51469.6
48754.3
45916.8
59788.1
53060.9
50427.5
54142.8
67478.9
64181.6
57005.8
45997
43538.3
38486.2
44898.2
58991
52798.8
50470.6
44440.5
42465.9
37461.3
44378.6
57873.3
51730.4
49933.1
36265.4
52843
44964
42599.7
60150.5
51669.8
50339.7
43981.1
52419.5
49521
55486.6
52510.6
58746.3
61929.7
42708.8
42967.3
44822.9
49617.5
51547.9
51593.2
58902.1
45087.3
43780.8
38671.4
46322.6
59368.1
53130.6
52010
47686.5
46976.7
41749.9
49978.5
62754.3
56340.9
55857.3
46488.4
55334.3
50536.4
60443.5
55458.8
60131.1
65485.4
46863.6
56663.4
50966.5
62484.8
56363.4
60859.5
67444.3
48035.9
51443.1
53194.5
55351.8
57103.2
63061.8
61115.2
47054.7
49791.1
50464.6
54301.9
55017.8
57888.1
62869.8
40897.3
46802.3
49840.3
53590.8
56076.5
56816.7
63659.3
50598.5
47472.9
42142.9
48149.6
63529.9
57032
53957
49088.1
51300.3
52977
55886.1
57655
59999.9
65090
63075
71878.3
85418.9
81242.1
71813.8
85424.2
95399.1
101735
114644
155836
118844
146146
210206
150875
50209.8
49706
42828.6
46910.7
62642.6
54740.7
54209.8
51727.3
53594.9
45300.1
49535.1
65785.5
56355.5
58326.3
56494.2
52926.9
47348.6
52896.2
69369.8
62520.1
58976.1
56141.8
48037.1
42077.4
51917.9
67217.5
58206.5
60348.7
49575.6
57849.7
54820.1
62022.9
58860.7
64886.5
68273.2
148296
64400.4
99250.4
110456
159404
71579.4
108222
47605.4
57261.8
49310.8
57371.2
64199
66227.9
55515.9
52601.3
57706.9
57781.5
63779
69694.7
63892.3
76269.7
52807.6
74871.4
75922
60744.1
61595.4
70202.7
85455.9
127466
161854
115827
165306
215885
108412
148012
94126.5
97593.7
137355
146611
168340
93754.5
140946
69329.7
86467
79532.7
76412.5
79260.1
75921.6
69539.7
56698.6
65466.1
59994
73323.3
67306.6
61770
55123.9
58187.4
55259.3
49216.5
53625.6
70280.5
63149.2
60060.6
65026.9
72502.3
73192.4
74290.6
73659.4
81737.5
82626.9
74904.4
83408.2
89091.6
72819.1
78249.7
86633.8
97947.9
48533
57776.5
50287.7
58909.4
65271.6
67332.6
56999.5
78136.2
92786.7
85227.6
90375.7
82578.8
97677.2
105602
54466.9
56107.3
59311.4
60967.6
64329.6
66108.3
71531.5
154728
67669.8
109450
109423
166368
75079.8
118748
161291
79087.1
99234.2
162355
208796
102232
125197
56500.6
72290.3
61135.5
71848.9
60751.8
65745.7
77594.3
76967.1
99022.1
105102
158257
143732
142837
165441
52645.1
74770.7
69980.4
75624.1
61308.3
60646.6
65828.9
58111.7
53582.3
48079.6
54805.8
72175.1
65748.9
60838.4
48895.1
59489.4
50644.3
58112.6
65822.1
67891.4
56234.5
55305.3
77469.2
62752
80364.6
65043.8
73121.3
89181
162971
71991.1
103889
126802
175827
79799.5
113091
51682
63057.9
53526.2
60660.2
69030.7
71195.2
58701.7
52509.8
61524
54353.9
64255.1
70254.1
72433.1
62225.5
137461
65647.4
99054.3
132897
183248
95426.3
136476
98267.9
134208
96106.8
151779
210181
108089
148064
117203
186269
144023
122905
177784
156174
218603
58687.4
67357.4
60554.7
62236.8
55376.1
64065.3
71436.7
58525.2
75433.6
72898.9
67001.1
69359
63670.6
61619.6
47427.7
66515.5
57445.3
64825.2
55882.6
66630.3
76342.9
56361.4
67153.5
58613.8
65980.8
57621.2
68569.6
77688.3
77524.2
85250.4
69077.5
90740.2
73557.7
81200
98940.4
48490.5
64515.6
55668.7
65188.8
56567.6
64400.7
73749.5
55382.1
64111.8
55201
64704.8
55757.7
64233.8
73886.5
140744
68004.5
96629.5
142478
188894
98259.6
133706
49601.5
66362
66300.7
57135.6
56785.8
65003.5
74975.6
151103
74657.2
116386
139740
207389
106680
157394
97118.9
139111
105667
149616
222285
113313
164206
160386
77345.5
101008
164850
154811
110292
152100
47300.2
64444.1
64220.3
65034.7
55289
56029.5
55566.4
49506.6
66819.8
68069.7
66012.6
58923.2
56990.9
57846.8
60826
61771.9
55601.1
65965.6
79336.1
71759
73036.7
58086.5
69116.1
59008.3
66425.8
56643.1
67489.5
78197.6
59347.4
54710.6
51735.6
60499.3
72522
69041.5
63739.9
58827.1
53702.7
50757.5
58939.8
71359
67918.3
62130.7
61082.4
55102.3
52102.9
59691
73103.1
69603.5
62908.1
77597.9
83619.8
83621.4
88661
88950.7
95541.6
95531.5
58398.1
66562.7
57449.7
68824.9
59569.3
67466
77404.9
49901.6
65333.1
57143.6
66796.6
58824.9
66845.7
75479.1
53848.4
71262.4
60919.2
72102
61360.1
69092.5
80285.2
52120.2
66671
67481.6
59894.2
60655.4
69044.4
76488.3
60783.3
61804.6
66180.4
66971.9
71605.2
72776.4
78596.5
61252.4
80179.1
89651.4
84395.4
72560
68276.6
76730
51959.3
68796.3
67139.3
66556.4
60349.1
59793
58107.5
62493.3
59574.1
51190.8
56706.3
78260
68313.7
65585.8
64749.4
58118
55045.5
62288.2
76591.7
72981.9
65584.8
57775.1
73074
63324.6
70519.7
60670.5
66818
77216.3
63148.6
58975.1
55866.2
65930.7
77842.1
74209
69330.9
57271.7
66153.7
59193.5
70008.2
75773.5
78070
67875.3
53251.6
68329.8
60639.4
70378.4
62866.4
71123.8
79273.7
54254.4
68418
61558.8
70411.7
63433.4
71381.5
78954.4
189804
83086.1
136125
123823
206034
91497.8
147150
166791
76166
114047
143232
205661
98248.3
140757
57461.6
71608.5
62421.3
75936.7
66302.7
71743.8
81862.3
114843
146601
100815
183724
241873
122055
156145
204040
110350
134260
212163
215731
135012
175882
81434.7
102412
88292.7
110803
96749.4
103694
118024
54761
72131.6
68992.2
71223
62077.3
64169.9
61105.7
62318.7
73989.2
62772.1
70223.9
59576.9
70825.1
82516.9
58743.3
72035.8
60690.5
67736.3
77886.3
80195
65639.6
52760.6
71564.1
63515.6
71055
63144
74926.5
83458.7
68652.2
71910.7
73861
79519.9
81625.4
87827
85518.5
66002.6
63504.5
69831.6
71631.1
75326.2
78538.8
84590.6
174235
79838.4
124729
142036
217224
102547
152585
54544.7
70932.7
61589.4
74670.8
65045.5
72492.6
82795.1
226300
133252
139894
110571
164735
173698
261774
59080.8
76904.4
76672.2
73143.1
69286.6
65994.8
65681.7
73882.7
65643.4
62353.4
69486.4
85977.1
82119.4
72988.8
71794.8
84875
71705.3
79303.9
66947.4
79308.3
92932.6
67932.1
64141.8
60894.3
71898.4
83874.5
80029.6
75509.6
65959.2
78165.3
70619.1
78077.6
70641.4
83540
91535.2
58945.2
74206.4
63990.1
77767.1
67124.5
72609.3
83786.4
58522.1
72203
63534.2
77157.7
67994.3
73522.3
83148.5
59986.6
74213.3
66971.1
78027.3
70538.6
78229.6
86277.8
215783
92714.7
123321
167384
229755
101969
133593
65750.2
80350.7
67731.8
74701.6
86073.2
88487
72523.6
63016.4
76551
68281.6
82720.6
73858.5
79692
88977.7
162831
82412.6
108568
175426
232587
116440
147833
159260
75925
104978
143862
70030.7
156763
154618
77596
71404
65688
71050.1
90714.5
83705.8
77142.8
79042.6
74070
66970.5
71998.4
93429.4
84765.9
79579.3
49972.4
66912.3
55830.2
69768.3
58413.3
64728.6
77098.9
59619.1
77513.5
66222.4
79228.7
67479.8
74734.5
86989.4
70806
79862.9
76070.2
88051
83983.8
90234.7
94493.8
184931
84800.3
119024
163556
233395
108431
146214
62117.8
78390.9
67326.2
81437.1
69939.4
75571
87648.2
71501.8
96289.2
78083
104376
84996.2
92071
111887
95257.8
101151
98894.4
110329
108179
114260
123750
96017
91847
93151.9
106376
107684
103499
118366
90845.7
92020.6
82019.4
90908.1
102858
101184
92102.7
91759.3
92889.6
81750.6
96026.1
118372
107695
106378
94637.4
84300.3
83533.2
92179.6
105392
103813
93298
82517.4
73258.4
69694.4
76724.5
94909
90706.7
80514.5
66721.4
81072.1
73373.2
86431.1
78335.1
85791.2
94415.7
66436.4
74869.8
74281.1
77099.5
76496.3
88436.7
86055.8
217461
96917.1
154495
158889
253113
122038
193731
187762
98403.2
121994
258644
263895
162060
200194
74115.9
75139.1
69997.1
84026.8
78824.9
79840.8
89582.5
62766.6
81739.9
85235.3
79404.5
74723.2
69392
72189.2
66708.5
74442.8
75360.7
88825
76658.9
77594.8
64669.4
70001.4
98217.9
83246.9
90347.5
76494.7
90220.2
105450
69987.6
88676.4
75609.4
91196.3
77679.6
83707.9
97830.4
68445.1
82035.4
74012.3
89066.2
80360.7
86580.8
95675.4
69159.5
84704.6
77843.5
88335.3
81472.2
91314.2
98763.9
68130.6
82680.5
82043.2
78930.1
78315.1
90409.3
94457.9
69784.4
77052.3
79321.2
79535.6
81857.8
92693.8
90254.5
74239.1
74703.4
75572.1
84040.8
84978.2
85276.5
95451.2
76616.1
74502.2
75143.5
86928.8
87658.3
85096
98480.1
80363.1
77193.5
79675.6
89967.5
92780.8
88953.8
102795
104585
111044
110981
119324
119290
125655
134483
74634
75527.1
65260
76872
98786.5
87075.8
88082.5
84830
79670.7
69681.5
79796.7
107663
90438.1
96027
87118.1
82741.1
71548.1
80811.5
110238
92632.2
97245.5
68914.4
78302.7
76209.9
91483.6
80616.5
78471.3
66810.8
80439.4
86660.8
71110.6
82134.2
109683
92084.6
98952.8
110051
103829
95755.7
111243
134646
125895
119446
98245.7
90763.4
90491.1
102947
112685
111250
103466
75186.7
74573.6
65428.2
73990
95121.2
84541.9
83896
75459.7
74887.1
65163.7
74090
96241.1
84912
84565
73606.7
73639.9
63998.8
73492.8
94840.7
83593.3
83915.1
77818.1
87080.1
79978.4
94951.4
100436
103048
92468.6
71520.7
84991.7
81174.4
87627.2
83741
94704.7
98858
74228.2
81184.9
83561.8
84934.7
87372.7
97989.4
95436.9
76546.1
76725.2
78673.2
85990.5
88273.9
87893.6
98233.8
70653.3
93499.1
86371.1
84121.3
82505.9
80325.1
74186
68407.1
90800
82213.1
83195
78481.4
79427.8
71866.5
78823.7
76566.4
67688.9
79625.3
101902
91838.2
89271.5
80108
77136.3
69748.4
73831.5