/*--------------------------------*- C++ -*----------------------------------*\
  =========                 |
  \\      /  F ield         | OpenFOAM: The Open Source CFD Toolbox
   \\    /   O peration     | Website:  https://openfoam.org
    \\  /    A nd           | Version:  9
     \\/     M anipulation  |
\*---------------------------------------------------------------------------*/
FoamFile
{
    format      ascii;
    class       volScalarField;
    location    "0.0035";
    object      p;
}
// * * * * * * * * * * * * * * * * * * * * * * * * * * * * * * * * * * * * * //

dimensions      [1 -1 -2 0 0 0 0];

internalField   nonuniform List<scalar> 
32826
(
106233
107722
116199
113062
91803.2
98854.8
107026
115531
91581.6
99685
116701
92158.3
100420
113342
124812
96165.2
105930
91412.9
93874.6
93555.2
96482.3
96150
98302.2
98556.7
91209
93962.4
93431.6
96495.3
96019.8
98257.5
98934.1
96229.5
98698.3
95986
100738
103464
103471
100890
126225
98417.6
108805
127855
132849
111090
123430
101292
106153
101058
103231
108269
108366
103355
98783
96674.4
95955.6
100804
104720
103657
101682
93147.2
94588
97087
95682
98153.1
99585.5
100799
106202
101638
101011
103282
109571
108519
104136
97334
101833
98571.2
105564
102394
103800
107172
105699
110538
108176
113695
110880
108471
105652
94556.8
99002.6
97188.1
101430
99655.5
102429
104458
102262
109133
103474
110398
104840
106232
112012
105864
114017
112405
110000
111123
108731
106918
101744
101426
103797
104916
107229
107036
110690
103593
102255
100197
105588
111743
109145
107901
113393
110992
107742
109354
118875
115274
112847
111017
107149
105118
108061
116747
114106
110362
105814
114597
109167
116857
111423
115139
120788
104882
112746
108579
114919
110743
114654
119150
109696
120144
113334
119970
113199
117104
124256
111379
121463
120558
118015
117588
115091
113985
102016
101298
101298
101298
101298
101298
101298
327831
101471
101300
101298
101298
101298
101298
305711
316701
127035
101357
101299
101298
101298
213132
254985
336403
294102
102054
101299
101298
157745
179407
218261
287225
342888
103293
101299
127736
140005
162340
202669
271401
344894
102261
115886
131473
156703
201711
283515
308943
111290
130697
160856
215652
332512
101299
101298
101298
101298
101298
101298
101298
103264
101336
101299
101298
101298
101298
101298
336020
280568
107066
101310
101298
101298
101298
230074
278522
347693
225309
101452
101298
101298
168206
193176
234346
313980
316958
101704
101298
133066
148377
173907
217632
293548
321179
101497
120347
138962
167471
216568
308750
248524
107961
138102
172166
231190
347820
101298
101298
101298
101298
101298
101298
101298
101338
101299
101298
101298
101298
101298
101298
231259
121002
101412
101299
101298
101298
101298
281394
345493
322622
105965
101301
101298
101298
198265
229613
280188
359330
136100
101305
101298
149360
164547
205414
256805
355521
141405
101302
131527
159657
197229
255485
359477
108566
126969
137874
203173
274489
338148
101298
101298
101298
101298
101298
101298
101298
101299
101298
101298
101298
101298
101298
101298
103735
101343
101299
101298
101298
101298
101298
347963
292688
106422
101307
101298
101298
101298
255230
305026
366866
189159
101360
101298
101298
148239
174957
260891
349049
260306
101371
101298
135297
145398
166334
249584
345376
209815
101312
130088
167293
169634
257466
366364
111264
141284
186344
298852
101380
101298
101298
101298
101298
101298
101298
101298
101298
101298
101298
101298
101298
101298
101298
101300
101298
101298
101298
101298
101298
101298
110052
101495
101300
101298
101298
101298
101298
332155
311246
112459
101322
101298
101298
101298
267382
323252
359584
181441
101373
101298
101298
196617
187567
278993
358081
191518
101332
101298
155405
177268
183201
275566
358946
120470
101301
197745
228945
101379
101299
101298
101298
101298
101298
101298
101298
101298
101298
101298
101298
101298
101298
101298
101298
101298
101298
101298
101298
101298
101298
101298
101300
101298
101298
101298
101298
101298
101298
101305
101386
101299
101298
101298
101298
101298
259685
212245
103298
101304
101298
101298
101298
221467
279148
292809
108088
101305
101298
101298
153677
167197
207801
295688
104310
101300
101298
196446
222981
101346
101299
101298
101298
101298
101298
101298
101298
101298
101298
101298
101298
101298
101298
101298
101298
101298
101298
101298
101298
101298
101298
101298
101298
101298
101298
101298
101298
101298
101298
101298
101298
101298
101298
101298
101298
101298
101298
101303
101333
101299
101298
101298
101298
101298
219379
152358
101632
101300
101298
101298
101298
221108
266199
204600
101736
101299
101298
101298
227976
259154
101299
101298
101298
101298
101298
101298
101298
101298
101298
101298
101298
101298
101298
101298
101298
101298
101298
101298
101298
101298
101298
101298
101298
101298
101298
101298
101298
101298
101298
101298
101298
101298
101298
101298
101298
101298
101298
101298
101298
101298
101298
101298
101298
101298
101298
101300
101306
101298
101298
101298
101298
101298
114805
104879
101323
101298
101298
101298
101298
166539
101298
101298
101298
101298
101298
101298
101298
101298
101298
101298
101298
101298
101298
101298
101298
101298
101298
101298
101298
101298
101298
101298
101298
101298
101298
101298
101298
101298
101298
101298
101298
101298
101298
101298
101298
101298
101298
101298
101298
101298
101298
101298
101298
101298
101298
101298
101298
101298
101298
101298
101298
101298
101298
101298
101299
101298
101298
101298
101298
101298
101303
101298
101298
101298
101298
101298
101298
101298
101298
101298
101298
101298
101298
101298
101298
101298
101298
101298
101298
101298
101298
101298
101298
101298
101298
101298
101298
101298
101298
101298
101298
101298
101298
101298
101298
101298
101298
101298
101298
101298
101298
101298
101298
101298
101298
101298
101298
101298
101298
101298
101298
101298
101298
101298
101298
101298
101298
101298
101298
101298
101298
101298
101298
101298
101298
101298
126860
101723
111733
118951
131266
102980
114599
125149
99597.7
112629
114072
129386
100866
115493
136185
111306
118194
131201
141055
112650
121325
99646.5
103332
103769
103451
103931
107822
107408
133621
103846
115990
129476
146255
110004
124757
103381
115508
131730
116966
124249
144125
119400
101701
104805
105007
106259
106498
109849
109305
99778.3
104971
105452
103751
104230
108193
109604
101904
106557
105305
108047
106793
110196
111661
143798
113522
121562
143968
158260
123666
132147
116908
150841
144095
129140
141602
152217
186523
150976
153239
131701
168753
188319
145217
154219
111454
113332
113722
116535
116988
119331
118591
140645
121226
130578
176894
199115
145867
156689
149093
115708
130204
136273
155204
119044
134872
107183
112027
107592
112017
115492
116485
111283
108122
112533
108620
113505
116352
117475
112648
111610
115250
113962
118530
117236
119649
121210
101780
106066
106542
107892
108359
110862
112962
151698
117521
135165
135418
158016
119204
140196
108073
113481
108566
112494
116394
117448
111736
105452
107588
109060
109425
110898
112831
114971
155446
121152
132837
145287
162076
122893
137737
110953
116827
111540
114936
119080
120292
114032
112456
109385
107964
112437
118775
117016
114036
113895
110340
108919
112920
119732
117976
114510
117226
113366
111880
115336
122670
120786
117036
112951
110433
108978
113908
119792
117971
115583
115612
119179
116291
121979
123685
124951
120949
172571
134017
143501
164150
180510
138194
148956
121971
128901
122800
125223
130136
131394
124136
115537
128631
150184
128450
140555
175432
134498
119572
118149
116606
122385
127415
125476
124157
115166
116271
119644
118191
121625
122478
124754
158972
120753
137533
152928
177515
130575
151300
105291
112959
113445
110022
110498
115366
118635
161943
125448
143063
151991
181068
132845
157866
152399
124161
129149
144768
177967
128771
134323
107390
114489
111580
115996
113090
117420
120687
110629
117885
112737
120521
115510
117888
123142
111586
119373
113686
121501
115989
118378
124171
124652
112443
119913
117314
125090
122214
130292
135136
137043
141975
145656
141020
148122
152318
166214
129333
140485
164129
186154
137046
154714
114531
122803
116686
124376
118413
120843
127090
118655
122717
121358
128232
124085
122697
117476
116717
120090
120561
126365
121221
121723
115711
129418
124700
123137
125664
134093
132108
127449
111609
118378
113738
121474
116957
119365
124115
116742
120492
120094
121753
121250
126357
125123
118682
121463
122723
122863
124197
128372
127042
165235
127769
142532
173234
194172
139798
150966
119145
129087
126750
125320
124728
123328
120999
117251
127278
123869
124351
121960
122414
119004
117257
124357
123863
122393
121925
127222
129350
122393
124556
125933
126875
128249
131957
130532
125255
119353
122759
129240
125668
128230
132107
127755
123586
117532
125394
129352
131952
136413
120970
125343
123394
126846
124879
129249
131416
118703
125339
130512
124243
117527
113068
119411
120614
120062
117358
127393
124205
127617
131187
124806
128655
126606
131044
128961
132894
135124
123488
131094
135896
124955
129428
117773
121860
127956
132929
129674
137620
134280
131023
126678
120618
118380
115125
120622
130328
126284
124255
125853
116111
122148
121125
131464
127358
124789
121687
117034
111223
116533
121169
122608
127634
185542
140531
152222
188531
209509
153409
168786
126120
135871
128506
136206
129097
131754
139347
144262
139302
150105
151239
145735
157301
163156
182401
166749
161644
166229
204601
196881
231420
128781
127323
122681
125355
137001
131822
130309
122484
125725
119190
123673
134582
130403
127368
121126
119406
116151
122141
131363
127299
125796
125903
126410
120768
123407
135042
128839
129377
138200
133641
128446
144741
134155
139834
151161
123378
126357
125885
129303
128811
131671
134962
117441
119555
113190
118047
122651
124651
129660
133988
128872
121593
128881
124194
117175
121406
136293
122022
127838
134102
127795
136236
142980
141190
150104
157084
186673
197196
235630
200886
128546
138736
137355
133941
135210
131820
130509
122749
127413
128944
130424
132006
133819
137237
190344
137779
157199
169420
198936
143101
163846
125747
132877
127079
131930
136632
138129
130602
187744
136067
158872
163307
196154
141232
165646
125866
132022
127114
133042
136841
138327
131676
153418
189434
149773
208072
240120
170546
198159
219647
159913
172142
217692
250882
178739
200259
168288
189514
143462
195252
231183
161567
184676
122850
137716
130986
135013
128224
136705
143988
143414
156102
147957
163836
155352
160122
169222
146175
149312
149947
152120
152723
156939
156624
124908
131498
126114
131473
135781
137204
130175
127694
124262
128307
131444
140106
135664
135422
134727
150923
139126
154672
142156
147071
160285
128457
134282
129858
136174
139440
141033
134703
135296
136661
138035
140969
142276
145340
144017
126554
130736
133205
133849
136403
137617
141162
198941
142356
171175
167773
207865
147970
178820
120718
127241
133903
133331
126705
133620
140713
163317
161534
161193
223127
197473
204407
252811
125566
132599
138122
139317
133978
141583
147486
133928
130069
127914
132985
141852
139320
135309
132569
129121
127021
132536
140913
138407
134838
128730
136646
130115
134585
139952
141545
133152
133093
130144
128003
134113
142083
139530
136472
137761
133216
131018
135664
145417
142783
138057
136200
141298
139115
145822
143553
146782
149269
206791
147763
165372
187818
216332
153689
172704
133099
141477
134546
138569
144406
145997
137081
160268
184858
207261
241236
271158
190450
214002
130632
138808
143964
148601
139628
144625
154137
139764
136205
132449
135431
147634
143248
139526
135364
132947
130740
137306
144880
142283
139711
132194
127395
123374
131274
136249
135517
140951
186275
135463
157958
187332
220871
148449
185350
151245
158705
190087
165017
186276
225447
194143
128588
141132
140170
138508
135536
133947
132696
126563
139085
136934
137544
132416
132997
130628
142771
137819
135549
139767
150137
147419
142217
122328
134075
127353
135220
128659
134123
141178
123402
130328
135878
136417
129221
134715
142459
126529
137412
136900
132891
132372
138993
144002
123357
134599
128350
136264
130206
135684
142236
136307
129664
122537
134737
128140
135652
142756
87253.7
97291.7
87478
98914.2
93502.7
107364
112308
94359.9
74164.3
81721.2
86897.7
94892.1
74134.9
81892.9
73951.1
76315.5
76076
78528.1
78183.9
80305.3
80640.7
95548.7
74871.5
82459.2
91295.2
100545
78724.3
86744.2
73754.8
76313.3
75873.9
78189.5
77876.8
80020.3
80398
103222
81193.7
89222.8
106060
117151
94351.7
102369
107410
84863.4
95666
98167.1
109677
85190.9
96564.3
78857.7
81474.7
78605.6
82785.8
85856.5
85587.8
83093.5
82837.1
86839.2
82435.3
84560.5
89321.9
88972.9
84919.3
86579.2
82434.3
82131.6
84307.5
89216
88779.8
84694.9
81226.2
78906
78382.4
82522.3
86014.8
85348.6
83016.2
75859.8
76993.4
78843.1
77999.9
79814.2
81030.5
82028.2
77183.5
81010.1
79383.1
82593.7
81113
83391.3
84994.9
87022.4
91695.1
90024
94145.1
91419
89782.3
87321.2
84631
88896.2
88241.8
88675.9
88041.2
92000.2
92189
84757
83466
84920.8
87011.5
88361.7
87350.5
90811.6
110878
85707.2
98735
104443
118637
94049.3
102920
79532.7
83487.2
80546.2
86573.5
83627.6
84638
87636.1
83041.4
88438.8
84005.9
89842
85319.3
86312.4
90857
86820
94118.3
91898.5
90338.8
91301.2
89647.5
87343.7
84382.7
89281.2
88719.1
88474
87842.8
91901.3
92800.3
123954
100355
108590
132009
154037
122068
133092
89061.6
96534.9
91270.5
97756.3
92540.3
94984
100227
93005
97142.1
92809.9
96093.6
100459
100418
96242.4
89779.8
86780.3
85306.2
87688.8
93963.9
92292.1
89308.7
84923.9
83677.1
81954.9
86052.3
90973
89109.6
87780.3
91851.2
95514.3
91667.2
95563.5
99437.1
99375
95718.4
92527.7
90941.4
87961.3
89004.8
96808.2
93650.5
92080.2
86783
89838.9
89271.3
90992.2
90432.4
93436.5
94713.6
122577
100412
109974
122052
140582
110373
115257
86131.3
92793.1
89679
93467
90189.4
93688.6
97039
97231.9
93599.4
92762.9
96161.5
101715
100629
97133.4
95552.2
92509.4
91571.7
95597.4
100643
99560.2
96592.5
89018.2
96811.6
92366
96300.4
91619.3
95032.3
99714
102587
107033
103805
109422
110676
106351
113416
90460.4
98419.9
97046.7
95568.7
95167.4
93604.3
92227.1
100853
101640
96450
99167.6
109179
103869
104422
97051.7
99185.2
93913.9
97895.6
106701
101326
103188
99639.4
103821
103328
107862
103989
103466
99694.6
90199.1
91969.1
88271.3
94564.2
92526.7
96323.9
98565.1
94245.2
100330
95511.8
102601
97887.6
99309.2
104210
94418.9
93147.7
97317.3
101556
97348.5
98775.6
103170
99844
108236
105541
105010
104305
103786
100935
99535.8
98123.9
94648.2
98145.1
106974
103093
101753
96364.2
96690.9
92738.3
97173.6
100860
101327
105175
115824
105309
112330
113064
109414
116695
120576
114250
125069
116893
126620
118238
121289
130104
107763
119760
114896
115575
110655
118003
123271
98291.8
100472
96027.5
100514
107738
105077
102950
104862
106085
100692
110776
105278
109778
115454
102375
111507
112860
111602
107409
106125
107721
106593
106087
101834
103449
112998
108430
107921
102070
99310.5
97117
101044
108759
106126
103449
104945
105904
101069
110987
105924
109979
115294
102037
111351
105845
111971
106408
110435
116242
119437
118151
114095
121682
132197
127395
125996
122905
138369
128359
126384
142888
132287
136000
128725
120107
123950
124927
139127
129207
134257
105356
115386
113482
112974
110565
110047
108001
120773
114841
109568
114827
126691
120460
120745
116157
116076
110417
115264
127579
121365
121168
117038
116535
111244
115528
127583
121645
121150
130472
142095
148097
146065
136845
135214
140674
120671
133526
133745
133276
127141
126670
126889
138495
131763
141370
147476
140112
134492
126515
201624
144254
169936
187712
227185
159592
190634
148448
171689
195542
161562
202502
232047
189671
139612
134005
126478
139611
131817
137344
145731
139506
135348
131575
135149
148222
143324
139348
131448
141212
134737
143915
137488
141157
147988
128686
138723
134113
140474
135776
141417
146621
204512
146197
168038
195366
230364
161831
188371
132394
142701
135720
144888
137966
141654
149007
132515
141817
135872
145148
139199
142976
149300
158541
139590
146380
146316
166775
153681
158476
139825
144931
141201
148988
151751
153310
147584
150049
157571
168917
156714
164820
169978
177823
140661
160772
148093
146882
168369
154904
159211
159309
161975
168646
165690
182452
175408
172144
160010
159921
154497
161980
168299
167955
161996
135359
144296
138813
148065
142546
146453
152350
132753
142418
137664
145269
140351
145544
150911
143881
143912
148690
147606
152649
152433
156743
137503
142084
143655
142666
144260
150986
149269
213630
151300
183711
193275
240173
167983
206910
146354
144856
142469
150560
157924
154986
153272
135669
147017
139161
148636
140842
144700
152974
136794
137103
131866
145429
140233
146171
151875
139333
143403
145063
144875
146580
152918
151120
222355
157299
177356
218156
250462
175190
199517
140421
152577
144093
153577
145166
149199
158150
136269
142657
144320
152251
154146
151248
161589
163212
150008
144200
152709
173731
159116
166625
137418
142458
142019
150813
144067
143591
135969
139666
143771
145428
153493
145417
147125
138123
134413
143339
141814
150608
151319
149101
159181
138711
147709
144984
148345
145592
152437
155401
139172
152415
152979
148765
147613
143664
143809
134298
148937
141118
143194
158981
151060
150519
168911
159919
160240
165000
174327
174292
164924
138610
152255
148115
147633
145382
144913
141121
143245
149506
146896
157331
151258
148636
141640
145062
133091
137953
149730
142266
147465
155388
140540
149149
146385
150738
147934
154388
157407
165656
170450
173746
179759
176802
185184
191741
148190
150837
145269
155938
150613
153163
158874
143985
147680
149419
150557
152334
158469
156572
241693
168218
186032
223553
254208
175658
194910
148813
159179
150103
153704
161859
163489
152305
146678
149822
156388
150352
167471
160408
156824
161015
164974
150850
156320
183546
167056
171131
140876
154966
149543
151320
146750
148478
143468
142382
143019
135539
141520
157368
148923
149601
148152
140373
133297
140615
156476
148210
148229
141639
142463
150236
141242
157938
149595
148932
145725
143981
137642
143673
159653
152381
150558
141383
141067
148704
142179
157572
149307
149847
141411
142855
142329
148852
150032
149393
157193
220585
159721
176729
236458
264415
186849
208990
139910
155947
145626
154125
144403
150610
161220
151072
147295
150591
157552
161299
157160
168374
144569
158928
155696
152907
152768
150052
147215
161086
154359
151725
155441
168777
165480
158304
147295
144836
139784
146196
160289
154097
151769
145738
143764
138759
145677
159171
153028
151231
137563
154141
146262
143898
161449
152968
151638
145279
153718
150819
156785
153809
160044
163228
144007
144265
146121
150915
152846
152891
160200
146385
145079
139969
147621
160666
154429
153308
148984
148275
143048
151276
164052
157639
157155
147786
156632
151834
161741
156757
161429
166783
148162
157961
152264
163783
157661
162158
168742
149334
152741
154493
156650
158401
164360
162413
148353
151089
151763
155600
156316
159186
164168
142195
148100
151138
154889
157375
158115
164957
151896
148771
143441
149448
164828
158330
155255
150386
152598
154275
157184
158953
161298
166388
164373
173176
186717
182540
173112
186722
196697
203033
215942
257134
220142
247444
311504
252173
151508
151004
144127
148209
163941
156039
155508
153025
154893
146598
150833
167084
157654
159624
157792
154225
148647
154194
170668
163818
160274
157440
149335
143375
153216
168516
159504
161647
150874
159148
156118
163321
160159
166185
169571
249594
165698
200548
211754
260702
172877
209520
148903
158560
150609
158669
165497
167526
156814
153899
159005
159079
165077
170993
165190
177568
154106
176169
177220
162042
162893
171501
186754
228764
263152
217125
266604
317183
209710
249310
195425
198892
238653
247909
269638
195053
242244
170628
187765
180831
177710
180558
177220
170838
157997
166764
161292
174621
168605
163068
156422
159485
156557
150515
154924
171579
164447
161359
166325
173800
174490
175589
174957
183035
183925
176202
184706
190390
174117
179548
187932
199246
149831
159075
151586
160207
166570
168631
158298
179434
194085
186526
191674
183877
198975
206900
155765
157405
160609
162266
165628
167406
172829
256026
168968
210748
210721
267666
176378
220046
262589
180385
200532
263653
310094
203530
226495
157799
173588
162433
173147
162050
167044
178892
178265
200320
206400
259555
245030
244135
266739
153943
176069
171278
176922
162606
161945
167127
159410
154880
149378
156104
173473
167047
162136
150193
160787
151942
159411
167120
169189
157533
156603
178767
164050
181663
166342
174419
190479
264269
173289
205187
228100
277125
181097
214389
152980
164356
154824
161958
170329
172493
160000
153808
162822
155652
165553
171552
173731
163523
238759
166945
200352
234195
284546
196724
237774
199566
235506
197405
253077
311479
209387
249362
218501
287567
245321
224203
279082
257472
319901
159985
168655
161853
163535
156674
165363
172735
159823
176732
174197
168299
170657
164969
162918
148726
167814
158743
166123
157181
167928
177641
157659
168452
159912
167279
158919
169868
178986
178822
186548
170376
192038
174856
182498
200238
149788
165814
156967
166487
157866
165699
175047
156680
165410
156499
166003
157056
165532
175185
242042
169302
197927
243776
290192
199558
235004
150900
167660
167599
158434
158084
166302
176274
252401
175955
217684
241038
308687
207978
258692
198417
240409
206965
250914
323583
214611
265504
261684
178644
202306
266148
256109
211590
253398
148598
165742
165518
166333
156587
157328
156864
150805
168118
169368
167311
160221
158289
159145
162124
163070
156899
167264
180634
173057
174335
159384
170414
160306
167724
157941
168788
179496
160645
156009
153034
161797
173820
170340
165038
160125
155001
152055
160238
172657
169216
163429
162380
156400
153401
160989
174401
170901
164206
178896
184918
184919
189959
190249
196840
196830
159696
167861
158748
170123
160867
168764
178703
151200
166631
158442
168095
160123
168144
176777
155146
172560
162217
173400
162658
170390
181583
153418
167969
168780
161192
161953
170342
177786
162081
163103
167478
168270
172903
174074
179894
162550
181477
190949
185693
173858
169575
178028
153257
170094
168437
167854
161647
161091
159406
163791
160872
152489
158004
179558
169612
166884
166047
159416
156343
163586
177890
174280
166883
159073
174372
164623
171818
161968
168116
178514
164447
160273
157164
167229
179140
175507
170629
158570
167452
160491
171306
177072
179368
169173
154550
169628
161937
171676
164164
172422
180572
155552
169716
162857
171710
164731
172680
180252
291102
184384
237423
225121
307332
192796
248448
268089
177464
215345
244530
306959
199546
242055
158760
172906
163719
177235
167601
173042
183160
216141
247899
202113
285022
343171
223353
257443
305338
211648
235558
313461
317029
236310
277180
182733
203710
189591
212101
198047
204992
219322
156059
173430
170290
172521
163375
165468
162404
163617
175287
164070
171522
160875
172123
183815
160041
173334
161989
169034
179184
181493
166938
154059
172862
164814
172353
164442
176224
184757
169950
173209
175159
180818
182923
189125
186816
167301
164803
171130
172929
176624
179837
185889
275533
181136
226027
243334
318522
203845
253883
155843
172231
162887
175969
166344
173791
184093
327598
234550
241192
211869
266033
274996
363072
160379
178202
177970
174441
170585
167293
166980
175181
166941
163651
170784
187275
183417
174287
173093
186173
173003
180602
168245
180606
194231
169230
165440
162192
173196
185172
181328
176808
167257
179463
171917
179376
171939
184838
192833
160243
175504
165288
179065
168422
173907
185084
159820
173501
164832
178456
169292
174820
184446
161285
175511
168269
179325
171837
179528
187576
317081
194013
224619
268682
331053
203267
234891
167048
181649
169030
176000
187371
189785
173822
164314
177849
169580
184019
175157
180990
190276
264129
183711
209866
276724
333885
217738
249131
260558
177223
206276
245160
171329
258061
255916
178894
172702
166986
172348
192013
185004
178441
180341
175368
168268
173296
194727
186064
180877
151270
168210
157128
171066
159711
166027
178397
160917
178812
167520
180527
168778
176032
188287
172104
181161
177368
189349
185282
191533
195792
286229
186098
220322
264854
334693
209729
247512
163416
179689
168624
182735
171237
176869
188946
172800
197587
179381
205674
186294
193369
213185
196556
202449
200192
211627
209477
215558
225048
197315
193145
194450
207674
208982
204797
219664
192144
193319
183317
192206
204156
202482
193401
193057
194188
183049
197324
219670
208993
207676
195935
185598
184831
193478
206690
205111
194596
183815
174556
170992
178023
196207
192005
181813
168019
182370
174671
187729
179633
187089
195714
167734
176168
175579
178397
177794
189735
187354
318759
198215
255793
260187
354411
223336
295029
289060
199701
223292
359942
365193
263358
301492
175414
176437
171295
185325
180123
181139
190880
164065
183038
186533
180703
176021
170690
173487
168007
175741
176659
190123
177957
178893
165967
171299
199516
184545
191645
177793
191518
206748
171286
189974
176907
192494
178978
185006
199128
169743
183333
175310
190364
181659
187879
196973
170458
186003
179141
189633
182770
192612
200062
169429
183978
183341
180228
179613
191707
195756
171082
178350
180619
180834
183156
193992
191552
175537
176001
176870
185339
186276
186574
196749
177914
175800
176442
188227
188956
186394
199778
181661
178492
180974
191266
194079
190252
204093
205883
212342
212279
220622
220588
226953
235781
175932
176825
166558
178170
200084
188374
189381
186128
180969
170979
181095
208961
191736
197325
188416
184039
172846
182110
211536
193930
198544
170212
179601
177508
192782
181914
179769
168109
181737
187959
172409
183432
210981
193383
200251
211349
205127
197054
212541
235944
227193
220744
199544
192061
191789
204245
213983
212548
204764
176485
175872
166726
175288
196419
185840
185194
176758
176185
166462
175388
197539
186210
185863
174905
174938
165297
174791
196139
184891
185213
179116
188378
181276
196249
201734
204346
193767
172819
186290
182472
188925
185039
196003
200156
175526
182483
184860
186233
188671
199287
196735
177844
178023
179971
187288
189572
189192
199532
171951
194797
187669
185419
183804
181623
175484
169705
192098
183511
184493
179779
180726
173164
180122
177864
168987
180923
203200
193136
190569
181406
178434
171046
175129
195295
186264
183173
171349
175848
163766
173260
196919
181554
186904
177184
184177
188422
201483
186559
190863
174935
195053
186945
178232
190937
218974
200149
209205
178488
180878
169957
178780
200513
188014
190584
175762
176677
166883
177380
198158
186778
188023
183049
181546
171410
179804
203741
191957
190633
179629
177277
169864
179775
199277
190487
187870
180253
178504
171033
181649
200710
191842
189850
186563
186197
192707
194734
201612
201424
208558
170924
175100
181167
189218
183098
186164
195132
338902
209135
241527
329702
352262
235898
274743
179303
199979
185427
201845
186901
193406
208925
187766
183281
187424
196747
201464
196169
210796
179034
199992
201709
194151
192593
185571
187113
189893
194158
177406
186115
217863
199100
203525
206799
202712
187997
196155
232053
211265
215400
182377
179046
171528
180691
201422
192515
188841
186718
182910
174825
183971
206367
196865
192742
178927
180584
170550
181935
202526
190828
192930
186819
182783
175055
183822
205762
196606
192164
190690
187557
183538
198705
211431
206847
203131
176253
193550
182433
201842
189998
196581
208944
177385
190770
186807
194787
190704
201403
205708
184091
185237
188203
194046
197079
198480
208013
179019
203572
192462
196948
188489
192868
182748
184094
196501
190897
209462
199061
193392
181743
184857
183890
176077
188188
207205
197984
196819
185382
190436
182977
198071
190505
196052
204752
183405
189021
188352
194797
195502
201213
208169
331724
214379
238493
355850
355273
257593
292255
183862
204949
189910
209455
193810
200400
216585
188707
184345
175969
188908
212236
197925
202901
190736
188589
177924
185844
211532
199159
197177
190699
190436
182188
195537
214700
205071
204682
186750
193615
196111
199772
202332
212736
210072
187256
191430
194172
198008
200858
205751
212826
216875
202687
202867
210003
226926
224789
210500
186178
211792
205719
199763
201335
195536
190190
194861
205413
186747
201158
230342
209685
221400
188530
189554
177768
183723
208589
194983
196054
192885
190529
180205
186285
211578
199541
197080
197687
192209
183859
192439
216935
207257
201347
218897
227317
227826
235030
235493
244501
253236
191488
193620
197306
202031
205866
208318
217424
329686
234356
272294
331892
319606
246594
289199
195772
215886
198257
205346
221094
223959
202722
200799
194166
200861
209108
209058
216716
225413
180204
182096
169263
176184
204932
187948
190372
199113
192674
184911
199134
223352
214677
207406
192898
207623
199713
217515
209001
216375
225083
188781
202423
198213
208894
204545
215025
219509
192490
196123
200299
202918
207255
211497
218745
351650
215784
277599
284363
352412
225261
291232
328471
209866
254148
314280
360846
248991
308556
186028
208198
196161
209581
197401
208384
221338
311039
209709
253655
339382
353990
266345
347599
347446
228889
273531
322987
244049
268492
322035
353735
234736
295676
321972
214814
276201
318606
258525
303903
264094
260646
120644
261539
254657
197832
202460
187781
194212
220853
204645
209411
204646
216552
217707
213925
215121
226777
231149
204076
231455
218993
228336
216045
231449
244756
206783
235652
221671
231217
217434
232845
247774
187126
203051
189499
202826
215036
217649
200321
194262
210398
200759
220227
210086
217303
227713
185441
208106
209197
196028
197028
208315
221236
187326
208937
197536
211098
199505
210609
222919
196514
203079
205717
210722
213456
223628
220791
351194
218705
272528
302665
350588
228330
285668
188430
205207
190828
203550
216520
219150
201035
189218
204221
191616
206335
217516
220139
203799
340109
214417
267217
311082
355415
254159
334978
319339
212772
250512
358974
348645
272602
341708
303322
213022
260697
234023
112799
265334
258865
203183
216670
226969
218059
215380
214011
204845
185150
207961
208680
207926
196551
195874
196414
208291
202060
192998
201391
227706
217513
210891
218679
205283
200803
207952
232026
226915
212577
196703
200926
189220
203852