/*--------------------------------*- C++ -*----------------------------------*\
  =========                 |
  \\      /  F ield         | OpenFOAM: The Open Source CFD Toolbox
   \\    /   O peration     | Website:  https://openfoam.org
    \\  /    A nd           | Version:  9
     \\/     M anipulation  |
\*---------------------------------------------------------------------------*/
FoamFile
{
    format      ascii;
    class       volScalarField;
    location    "0.00205";
    object      overpressureMax;
}
// * * * * * * * * * * * * * * * * * * * * * * * * * * * * * * * * * * * * * //

dimensions      [1 -1 -2 0 0 0 0];

internalField   nonuniform List<scalar> 
16694
(
486968
11153.6
11202.2
581.466
8.09503
0.0105261
0.0969353
0.00250275
16336.2
0.919249
0.00788779
0.0004787
350944
371425
245693
326551
275694
40715.2
316060
369335
408527
376221
402983
379585
374790
352294
348075
553333
397078
360899
437147
403126
334199
490190
389828
508175
545214
515772
496220
489312
466707
460311
499721
445227
473210
536183
525832
481731
453128
443895
379286
420918
392344
438203
415602
374868
478808
407982
442876
436585
471797
431223
402574
364561
381464
424789
387193
431776
409673
369989
421791
429650
455362
463989
417280
424562
396544
363328
396680
389776
359745
365855
337873
343242
397546
374165
342211
338466
369618
356809
392679
364478
352275
329448
347188
358797
380936
387087
140549
37150.9
481377
481201
60717.7
10989.3
475123
9.09461
238677
65497.4
2.18566
1246.77
3753.43
129748
323389
303396
328301
319974
346850
324674
297818
302395
319149
346286
315643
342162
322890
297489
306949
311521
331975
337420
313938
318710
289260
342169
311663
336997
315824
275035
320477
288959
484737
484558
482224
443668
450620
447474
447595
474184
72.2849
380488
18.2776
111068
3255.27
450741
478747
476482
473882
436487
430394
423794
441579
478698
478701
476132
433523
420047
409534
439625
117563
306270
248935
301531
94814.8
230634
233956
470249
467896
472765
422984
367937
406199
392769
292895
215077
196468
286524
222712
74663.8
96044
168297
162653
260127
276273
198478
50267.5
28809.2
177999
280942
174407
293683
67012.1
208233
211766
450321
470758
440025
372689
355837
281560
255694
1998.11
1.56445
0.448272
3438.7
567.427
0.63582
0.301378
328191
357888
122333
119088
101840
344695
342678
399959
463717
424003
294154
330222
218258
170652
697625
438891
440498
575385
608561
553038
413026
424603
601323
688201
593748
665030
655243
578794
571010
662411
676543
585222
643986
630649
562276
552452
628680
525153
591015
619279
582268
545338
517815
451906
444063
456856
505533
522209
516105
499330
596364
572656
561419
536866
500644
527318
509700
427236
433360
446473
501912
509435
492545
484886
429571
486823
466118
413910
409084
480492
459970
397690
466069
445966
419065
403654
473714
453379
0.495019
53583.4
48.2823
10.8951
0.234697
2.11444
1279.64
291681
83519
245316
27836.3
66242.7
220496
311069
302991
91245
285776
48681.2
267278
75898.4
319304
262594
18480.5
28075.5
143569
221012
46108.8
185800
226416
196044
360445
26992.3
136047
111043
19314.2
115463
11213.5
92425.7
9852.78
1421.2
970.056
14382.4
417.471
0.402548
0.0810317
0.355723
0.0506751
0.769003
88.0091
5633.75
3891.85
48184.1
6880.4
771.847
525.289
9987.73
287771
156569
330473
80535.9
7117.8
50616.8
12318.2
145272
8311.53
121926
2733.44
50883.6
37978.2
1987.69
0.312246
0.0592722
3.62321
1.02948
0.0397608
159.574
0.265459
2352.58
16709.8
30816.9
4203.01
163.864
2240.25
313.269
38743.4
6876.89
64746.1
6022.7
308.307
3253.37
584.039
5518.33
60592.1
92527.9
24882
742.314
14420.1
1283.55
5148.03
39184.9
3649.61
3051.49
2157.28
288.152
201.589
8846.78
8439.01
6685.58
604.419
475.3
354.09
451.968
5706.97
2691.13
4505.83
233.184
175.418
136.288
299.022
14202.4
25060.5
2285.75
766.31
1355.89
125.341
69.8274
0.0194567
6.32122
0.233442
0.143728
0.0134689
0.750181
0.0581887
510.159
1420.79
9751.87
7118.44
51.4348
368.45
1014.29
5083.47
1472.98
3813.57
100.472
264.558
195.446
73.7102
966.365
1485.75
2529.12
127.674
27.7323
74.2868
47.8835
792.364
114.674
88.422
6.1682
77.5483
59.4345
1163.74
4645.99
32.4897
367.644
133.825
2693.79
235.731
645.821
283.488
56.1506
37.6793
29.3002
19.6718
4.0681
2.76705
426.607
137.198
99.4544
28.5087
20.6842
5.11949
7.03998
474.055
3.79154
18.2373
23.9841
248.332
45.9406
34.8082
461.019
33.1494
320.615
3.17229
26.2628
18.2321
2.26507
6.13918
168.359
11.5315
22.2202
11.5483
1.76785
1.0538
277.283
36.6549
63.9637
7.60608
13.2101
3.43011
2.00912
159.321
5.73684
112.202
0.997788
15.3816
10.7539
0.744267
0.19116
0.00441184
0.028308
0.0166813
0.00370619
0.106329
0.00742974
30.7349
1.25676
23.9576
17.6749
1.1683
22.7424
0.94513
108.76
20.0789
197.401
11.222
0.933335
6.27567
1.48639
3.62654
39.167
70.0974
6.68192
0.410469
3.78043
0.554579
25.1094
2.61154
17.9618
1.03643
0.374831
0.314821
1.37463
4.87254
0.771212
12.8405
9.42358
0.385066
3.58935
0.613074
11.3348
0.893159
8.50985
0.555886
6.61623
14.5964
0.754045
1.67918
6.28898
11.1539
0.718306
0.259559
0.505718
0.292591
5.84559
0.751263
3.96845
0.445471
0.739604
0.637871
0.438949
5.8607
0.341679
1.38475
0.386516
3.4247
2.30042
0.478597
4.41909
1.71624
1.37869
0.990208
0.90142
0.756646
0.743049
0.00726319
0.0286299
0.0090195
0.0154438
0.00796705
0.00735808
0.00726319
1.59524
0.382827
1.16251
0.34053
0.481115
0.429629
0.34053
1.02663
0.308265
0.814557
0.415953
0.302003
0.302003
0.459768
1.3466
2.04752
0.869305
0.656858
0.69111
0.645392
0.645392
1.35782e+06
631798
1.08265e+06
628931
636389
617034
377408
710927
685828
591360
561636
420490
703355
744234
684256
726754
583427
606973
289447
1.15913e+06
614037
1.05545e+06
611685
658681
619549
383146
1.26175e+06
1.21016e+06
1.25087e+06
887720
915555
1.02196e+06
964281
596665
503035
607878
403781
592486
531083
407457
894786
1.12275e+06
871098
869953
714666
927728
804170
600634
640222
422505
457883
491234
606667
404954
1.31179e+06
1.27212e+06
1.31729e+06
1.23725e+06
1.19624e+06
1.15619e+06
1.19468e+06
692447
953582
929926
1.00759e+06
745737
945347
722131
1.12134e+06
857814
879787
777181
761326
1.00621e+06
976306
1.22525e+06
1.20979e+06
1.17791e+06
1.11584e+06
1.10163e+06
1.0743e+06
1.14932e+06
1.28756e+06
1.19426e+06
1.22053e+06
1.13145e+06
1.17514e+06
1.14086e+06
1.10729e+06
600782
565779
559406
574262
573468
523765
520098
593141
545559
552455
581801
575615
517086
515197
486210
376033
325599
513400
384758
439662
336909
642638
813973
835493
695843
679455
927673
888143
990898
1.12584e+06
1.08831e+06
1.05323e+06
988662
960273
1.08689e+06
1.01683e+06
1.13618e+06
1.01551e+06
1.0695e+06
979275
1.05287e+06
972477
893557
845365
709039
758157
954130
776436
671741
1.16751e+06
1.13649e+06
1.16699e+06
1.10294e+06
1.05148e+06
1.08134e+06
1.06372e+06
718289
853561
697456
714514
854688
862595
731487
887658
606094
697618
858970
712960
701243
619105
1.13091e+06
1.10826e+06
1.08333e+06
1.05647e+06
1.03191e+06
990519
1.01103e+06
547132
523264
539632
477280
495447
490143
471234
1.01809e+06
1.00415e+06
897159
952414
929572
981085
1.04617e+06
973681
1.04749e+06
1.06993e+06
1.03813e+06
940996
945894
1.02351e+06
593051
540196
536725
592848
515869
608358
521095
520473
513887
530746
484413
456928
478820
464280
981541
992104
966597
876462
911181
889924
897617
1.10515e+06
1.00344e+06
1.01313e+06
1.00806e+06
1.03252e+06
962314
948960
436795
380693
300688
411991
474377
373921
320938
608274
399437
386382
604490
569206
395037
405810
728878
954933
929260
806076
648309
787963
635509
641262
433120
450863
603633
455140
623538
459753
576097
594650
578244
501430
500609
499946
503192
1.10336e+06
1.06475e+06
1.07254e+06
1.01716e+06
1.02165e+06
980405
979771
622750
907888
781941
688364
609460
880375
763091
1.0054e+06
967531
887960
915672
917714
996936
970366
886465
763516
741931
865220
759844
747497
862837
926506
975230
947817
861070
863227
843193
882155
804552
683377
577473
673933
860513
600521
764815
593794
599857
584055
501393
514845
505954
507574
998766
877470
931164
910356
980504
920774
865649
960830
933284
947096
862163
864413
873825
853767
1.0577e+06
987389
1.03533e+06
948262
921573
906661
966274
1.05235e+06
943386
984420
1.43046e+06
1.32205e+06
1.47664e+06
1.11299e+06
1.3921e+06
1.02964e+06
1.14707e+06
712584
836668
1.15963e+06
979477
812032
705229
1.455e+06
1.45019e+06
1.42777e+06
1.34162e+06
1.3138e+06
1.29283e+06
1.32392e+06
1.39829e+06
1.36105e+06
1.39914e+06
1.267e+06
1.27363e+06
1.23426e+06
1.30211e+06
1.37367e+06
1.2804e+06
1.29369e+06
1.20416e+06
1.27578e+06
1.25738e+06
1.18965e+06
993804
1.16443e+06
989275
1.11167e+06
986753
1.10376e+06
985838
1.35085e+06
1.24416e+06
1.26433e+06
1.23537e+06
1.15335e+06
1.20683e+06
1.17331e+06
668590
805871
668246
674676
825272
828610
678316
1.22316e+06
1.08263e+06
1.19175e+06
1.17323e+06
1.09509e+06
1.06537e+06
1.20607e+06
1.15489e+06
1.00987e+06
1.00166e+06
1.08367e+06
1.09511e+06
985438
983889
1.15008e+06
1.01919e+06
1.15943e+06
1.07604e+06
1.1213e+06
1.04503e+06
1.18546e+06
682116
822334
672803
835362
698670
844862
686231
1.05794e+06
1.11433e+06
1.16324e+06
1.14616e+06
1.01733e+06
1.04234e+06
1.1011e+06
1.12508e+06
999790
1.06766e+06
1.00202e+06
1.09988e+06
1.02298e+06
1.08544e+06
1.0483e+06
911336
956973
969013
1.03859e+06
951541
903840
818603
694469
831631
831567
705282
814706
696899
1.01496e+06
956997
1.02807e+06
946271
887968
939480
896632
833980
808528
712098
708339
836600
811576
702989
615517
543807
536968
646533
627325
531565
546300
623752
786880
804576
567719
557698
716040
702567
510396
479336
500898
449142
474196
471559
441819
963574
864595
943669
907112
844886
832280
923570
505817
492077
484980
460715
454484
443396
437488
837206
722674
716131
835330
717912
798483
732551
910283
919661
902926
847577
825782
830998
841035
902292
898290
876835
841417
822950
801760
816686
988238
1.02442e+06
981467
967678
930586
952193
907894
442432
435830
460165
457268
405518
442145
431749
1.02163e+06
976543
1.02393e+06
938943
898020
897166
939430
621850
429166
545459
218309
558761
404152
368646
617503
524749
513948
627328
621593
525368
536701
797638
736196
823608
737006
727499
808445
811831
934916
856882
934490
898718
825725
825268
899538
496813
467214
476890
439385
447386
430678
422787
455014
423077
446947
404148
453959
443445
427360
936851
891206
960078
907960
834029
851170
892194
822094
867536
850008
778801
763558
754750
790791
883824
862351
864760
808831
812327
792223
789424
938961
904619
891152
877512
864852
823621
833524
784332
703451
782089
724673
769357
716127
798381
914929
742659
652923
768329
632181
692142
588569
490006
467973
493935
471777
433161
436195
476383
870540
810584
768782
845236
834322
800764
884410
780227
787427
885736
764776
855426
843284
762676
908711
898606
850902
841053
831882
803288
795455
605926
865641
758950
619786
567930
729907
673410
830863
741479
781675
717291
791052
739112
824055
892790
865030
852800
832115
821270
786085
794851
556689
677273
662897
573954
563678
673388
580126
787129
713945
729098
789863
720306
797434
780083
814473
839120
840315
770899
746871
768919
748293
990251
911989
942106
885995
920129
881641
852425
875017
842670
833028
809664
821673
787013
777105
787655
698873
781982
680542
748870
742873
676681
461900
456255
430770
444304
421889
414082
404922
928409
880951
881371
855706
856024
815026
813725
780968
675740
566958
555723
700643
562535
634478
419616
452876
454792
458703
408177
461265
417721
774801
697113
755545
704082
760310
709521
769003
862625
793452
762262
825940
826278
793799
863414
467158
434253
460936
401723
423712
418333
397040
911635
813792
872136
818432
883779
848842
791715
882402
841242
843656
810183
812691
778152
775448
425396
356763
308672
376658
333409
357987
298864
649191
635419
636416
539831
560971
549385
555675
417673
381876
413083
367483
401587
396940
364182
689205
763893
752643
734177
679521
673605
744136
605258
514251
516276
604823
603617
525292
526469
821635
844123
808922
795575
779718
765555
753127
793652
774512
765736
737261
729981
705418
711518
777037
771477
696707
736636
670308
730047
673548
854748
797434
843731
782375
748772
742199
790718
490768
447812
497309
433738
485534
498377
438440
445070
427849
453625
412058
385083
404865
391479
737239
807108
798215
762248
711694
706150
769679
402446
378842
407935
391603
356683
385693
360508
683260
740382
744495
726983
664653
667720
723762
823270
774098
813210
751701
723775
717624
758768
462963
610452
467699
587051
545865
475806
498974
785124
852641
871646
826488
743555
805365
755414
449214
418905
431835
405863
413342
395483
386314
612537
527325
520725
603657
603553
529201
533003
787174
759496
759649
723369
724323
699898
699140
878825
873097
848810
843499
821554
809993
788995
533457
664045
627575
437310
385779
457590
472228
466187
484967
422077
413991
472346
418277
477179
714591
638645
699716
661559
656709
693627
722380
739162
768791
813297
798724
700231
752332
733062
789005
820246
853361
823309
742453
796097
768026
730841
789086
790178
754864
697031
699653
752530
833893
789786
835098
775134
733084
735627
773060
825550
777182
794128
742070
761591
738862
723135
369034
387062
423293
436552
385479
341261
421861
306428
535325
620459
543834
603662
537279
602915
541101
745930
696475
757468
731541
669647
722141
678335
764385
697497
756089
725536
675761
670625
732262
705264
775568
767308
692783
747337
739841
686108
435383
402465
424551
377739
396718
387932
369733
443311
395261
444876
396544
453367
455391
398112
692798
689362
590905
672560
676687
592555
598347
766048
801957
804768
743986
707105
710643
740950
694850
692406
757411
666471
722729
714042
662002
744926
709954
737798
681208
661025
656655
686183
832506
831915
801729
804522
777137
770132
751020
463037
431776
461144
486588
455881
439347
411931
439014
528306
268491
468934
550418
426621
294812
396815
373060
391552
352730
379404
372942
349214
657179
569510
570189
638735
659482
581233
573918
708021
633560
686302
648968
651259
705647
687998
691288
746378
749010
719047
661757
664950
716048
416156
406120
400444
394271
377906
398128
370892
453893
396598
448338
459156
405385
464327
400965
726547
679676
696319
644423
691467
674953
732420
731082
704206
731661
675785
649354
651381
674249
758189
755745
720199
737708
705508
696891
685938
352196
367333
385165
380712
333677
348829
363345
661729
651731
706042
700143
615080
656061
647504
732952
660306
718046
659779
711580
699758
648504
620222
677274
672438
650946
604831
601452
655295
799052
828125
762328
726886
780150
752251
706090
806627
784542
829258
730067
769979
754943
719186
785972
715152
767227
694721
750202
736550
686188
779995
687760
711429
708544
757744
732948
722775
520782
449571
508299
512113
456340
523279
446563
737110
688816
748492
703891
649810
656661
691515
796054
743541
774895
703592
736953
723148
693503
435584
532255
324883
385229
426628
332593
556917
441504
445545
344018
459417
416968
334648
357464
372676
409182
322104
549859
499274
519130
512479
493315
469664
464039
541718
496075
504824
478621
486467
457708
450310
469577
508538
521002
486077
474665
442025
432604
416010
362349
315830
319190
381646
335662
235736
481767
440195
475695
410340
439874
434640
405730
395216
446634
399235
381355
423493
418787
377561
479052
448120
494682
447730
461893
422055
410500
429291
435840
390552
413513
368173
407394
373146
460714
433851
468716
428787
394088
421965
400271
525750
588841
703308
459016
541899
806764
618474
574993
480813
580798
609182
412937
568078
559849
660626
449394
527011
794412
744674
721468
734231
710204
673449
663606
756311
777757
720638
677221
695831
651742
636789
704714
683430
731749
656186
633198
619046
599351
681699
610133
672173
570508
622688
614057
563096
644285
565941
634144
546973
607564
598640
539014
646800
600529
660809
603728
543780
591308
554148
606033
555057
621383
587958
518028
574841
529280
518381
503650
414869
407317
491856
422300
354894
645477
636156
676114
582116
608389
577522
554218
575169
611410
630276
531663
576724
560060
517834
588045
511115
568512
504771
559409
542181
490322
524564
515046
567123
559176
474553
507878
517658
551961
581041
613555
554989
527977
529717
504647
523800
590813
542885
541561
485276
502380
521375
547518
477026
494260
523572
458344
474830
503670
549948
500176
490024
467386
538894
499764
509490
489380
478678
525997
511138
438361
465863
476929
454600
515911
477058
547630
521781
501396
479273
543768
503369
481851
466965
499883
477505
447581
460103
444731
482309
441408
482907
461849
424838
494968
436987
448022
426188
451947
463205
477364
379262
413797
421999
362478
400505
392764
356196
441274
418486
451652
387125
414284
405643
379315
427670
436455
459478
465301
431647
492033
454684
444126
432416
462226
421974
407355
397897
384356
384363
431854
398933
421275
458779
439549
405197
445543
396027
422606
431643
462399
441464
409376
362871
376237
399993
395604
340795
372338
359386
387384
398819
429777
396091
361045
370651
385484
394784
365421
404701
384297
341809
349336
374896
385825
374096
387553
366781
345951
346785
361401
615710
666155
667350
646248
595599
597286
644832
375634
353182
340635
329894
369755
344987
358640
400558
412932
391941
378561
351628
360904
368996
719751
665888
639190
682228
685308
669269
717167
497174
429141
490579
504165
444051
507143
438869
695457
649136
670903
618550
644525
665946
701132
787378
714448
764332
694366
740211
718354
677524
362477
350594
337041
367739
355307
390667
384957
693913
642545
639361
610917
686732
649768
643665
461500
410677
470902
411451
470773
477786
418743
683054
645161
701272
686423
621568
635895
671276
584727
564160
586573
526901
513793
527717
514577
741076
673755
724495
658232
711806
699732
650394
676463
609149
687058
663919
597457
651068
590960
37349.7
124787
343044
68905.8
209289
131658
6851.71
590870
566518
588420
516880
526737
526439
515427
688998
613172
635187
655945
638552
659736
685694
622141
557120
551529
599027
601512
543614
544777
728684
690934
715283
647700
672534
664354
641527
409468
413447
438963
367540
390721
413734
388871
384930
428873
395792
413781
441543
428571
395747
405739
432677
417574
416751
379000
424648
392243
355587
376126
406326
398991
425455
392000
370231
379885
374640
401015
369530
389460
397443
420138
347206
336088
363380
356659
315951
331526
340632
632935
649295
656432
586683
569691
586348
573771
629581
586255
564484
611897
608216
583063
633317
722696
664927
705909
640173
677211
661130
627966
634451
634473
678422
669461
594249
625512
629070
718819
735193
767660
723206
656810
693315
682162
384009
408723
410602
403716
399338
366643
365246
595079
655538
639794
592534
580865
629119
575661
333694
339750
348848
384008
372255
364715
353785
339547
350662
375225
388640
403225
373998
361604
663265
605901
654408
593674
642831
636100
588826
624789
576644
560003
601277
603634
578643
623038
663027
679256
714469
704581
626452
671808
656572
375292
368889
387880
342167
359562
350608
332718
536883
470578
531117
465197
529817
530669
470984
349959
339289
327651
356565
345212
378515
371323
1.0415e+06
624049
604906
406093
442302
606058
406918
535008
589739
593031
537344
409437
961152
763657
734092
1.02227e+06
753405
955065
728711
607578
571074
574008
576471
578118
529504
527290
601009
568065
572916
572029
576353
528244
523912
338084
385193
517481
519557
387254
444099
339464
868119
722276
704504
872372
719052
708480
622889
550549
540452
555880
501624
479904
484307
497206
541382
553179
556892
502619
482114
499890
485214
1.01052e+06
1.04158e+06
1.01136e+06
915191
938878
939459
915264
572602
392986
604112
607831
572030
395574
407595
572065
593087
575674
502578
497954
500835
498791
594346
576531
577349
503966
501584
502466
502175
1.03474e+06
994078
1.00473e+06
909370
923269
900257
933500
983485
964961
985359
895063
879440
882654
893586
962809
972076
980604
890676
873294
883146
880272
1.51973e+06
991615
1.14944e+06
1.04482e+06
1.41696e+06
1.51899e+06
1.12925e+06
1.42111e+06
1.03947e+06
1.16709e+06
705272
797125
1.17677e+06
988532
805012
707285
1.52513e+06
1.48895e+06
1.49371e+06
1.35424e+06
1.38125e+06
1.35124e+06
1.38564e+06
1.4998e+06
1.48762e+06
1.47178e+06
1.34752e+06
1.36196e+06
1.33288e+06
1.37927e+06
1.42366e+06
1.30816e+06
1.31487e+06
1.30707e+06
1.22053e+06
1.30078e+06
1.22697e+06
1.40847e+06
1.31496e+06
1.30593e+06
1.30354e+06
1.21588e+06
1.29094e+06
1.22592e+06
1.17436e+06
982959
989533
993290
1.11975e+06
986711
1.12576e+06
1.1704e+06
989927
992977
995146
1.11969e+06
1.12675e+06
990488
802637
669790
664622
825924
668638
820716
673186
670297
805918
672052
828349
674538
826230
675655
1.22888e+06
1.26072e+06
1.11438e+06
1.1509e+06
1.22635e+06
1.11579e+06
1.26378e+06
1.22166e+06
1.14402e+06
1.24124e+06
1.09668e+06
1.20826e+06
1.109e+06
1.25691e+06
1.19278e+06
1.08223e+06
1.13072e+06
1.04991e+06
1.18803e+06
1.08523e+06
1.13635e+06
1.18862e+06
1.04809e+06
1.07069e+06
1.12559e+06
1.17685e+06
1.08065e+06
1.13477e+06
968991
1.05949e+06
920146
996900
963343
1.06485e+06
925074
969488
996154
1.05732e+06
918704
1.06466e+06
963611
924948
836511
823482
691028
709164
831591
828055
695219
838044
710282
823756
695176
834288
828412
697113
522851
495801
500866
463667
468064
450596
446299
523804
497781
501797
465584
468946
451428
448096
463826
436887
440601
409939
443492
440730
460112
464903
410893
443625
439322
463056
444672
441635
829196
846478
753678
763645
753833
846129
828888
824361
759419
833196
743892
817284
749974
841279
920204
872708
925150
851168
855837
816571
812310
924190
866116
916859
848116
854800
816015
810156
814804
803515
743357
735930
744100
806067
814334
811250
733661
735737
797212
805069
740777
803736
794442
708254
798471
759746
685260
688805
755710
798433
704922
793194
759427
684642
754279
688785
403842
470293
446632
475070
430311
407629
426281
419363
388202
422958
407118
368402
371310
403543
388990
421337
423798
407874
370083
405253
372018
447449
472229
475917
431063
405521
428015
408364
607128
511805
514161
606658
609501
526536
524611
605809
514310
515139
607084
609753
527182
525906
785632
725614
789120
759560
700317
703731
755679
724434
782534
788002
758886
698131
753373
703054
440514
395152
442532
452743
394005
395575
451174
396120
443251
443640
453567
396225
453052
396392
369020
390503
353335
340720
356152
372127
387086
391212
341303
354888
370493
388656
356773
372798
715862
626576
666333
655805
711106
670814
659820
716233
668040
656873
626757
671269
659950
712902
574940
593670
596686
529887
518590
528082
520755
502178
452742
345299
442176
562812
450651
449877
346525
560437
522275
565929
527280
506863
476612
472223
566990
504200
524523
528190
507768
477445
474174
404155
401061
448855
383010
425484
429140
385893
484685
412460
448089
452258
489166
446139
415955
402492
453462
404796
429841
384367
427196
386501
453074
486655
490019
446887
414015
443974
416681
622354
483751
579857
749884
816575
625144
582264
485896
812837
727435
821005
735005
757503
685569
678696
822650
753264
730661
736428
759020
686853
681538
574419
686358
628705
692975
633586
627001
580110
649743
585885
656737
618824
551271
612467
557328
629904
689339
694262
634804
576820
629771
581259
586911
652532
657981
620043
553599
614967
558357
528080
577174
518756
488621
571053
524011
533246
578258
489532
530276
520881
573616
524937
534282
364284
401762
377912
405100
347789
380893
367043
405762
348350
365631
379311
403389
381530
367633
518796
527803
593999
575027
596708
529607
520708
464432
402845
461678
463071
408188
465695
403879
463542
408804
464710
404255
462707
465874
404539
386578
347139
391055
357715
390415
356333
349247
463988
462650
404748
463803
402765
464096
406634
515344
453495
459324
514831
521972
513200
449834
490876
419290
481010
484359
434458
426738
489644
582706
513054
528552
555474
580477
528965
512184
688337
690240
733241
707312
632351
664167
668950
712748
695372
739330
694672
637195
670047
658279
559906
614632
559572
594688
544206
587767
541675
631992
652453
682199
673364
600582
625662
645789
466296
465543
413945
396907
469658
464933
409705
658877
603720
613893
586574
615179
622386
646757
650825
657252
694604
673951
603650
631558
640250
650916
666995
687346
643419
597844
624525
613785
524105
466348
529002
461619
521243
521014
466562
349728
323489
326486
310918
327162
333670
343006
642081
598731
661437
614305
634247
580908
567293
349519
371026
390703
356743
334243
349631
371101
362609
361709
383387
351183
329252
346792
367846
306858
325703
315957
342686
332797
363462
354709
359677
367008
386629
363926
340516
346492
325374
574828
599455
621344
616009
552090
595148
570800
422633
378799
375041
418984
376107
421264
383380
346789
359885
329792
329834
288471
314772
342143
357976
335422
312870
349103
327973
373424
348716
680412
610821
612871
622185
652431
639206
646072
638364
562460
581146
594630
623535
572613
551812
643337
576842
586433
598851
615286
567340
555922
498759
447524
503470
432603
492908
493778
413943
573498
551286
577599
528718
504802
510798
527915
462664
418550
473313
476771
338794
454464
418097
590843
603328
633005
618038
555262
576723
591054
353121
344719
363485
342965
306489
337389
323792
612703
542099
563048
570597
600551
555762
533432
652001
589149
586186
601910
611000
628921
621690
530613
536531
475403
526006
462777
517966
472305
576739
488951
12164.5
515900
12804.9
0.286483
305006
10.3257
0.0161584
311649
3505.87
0.10688
0.00361142
354302
22239.9
0.105091
0.00939826
0.00068098
359986
3196.2
1.16746
0.0177897
0.00153194
5.4717e-05
26.436
0.438736
0.01488
0.00172477
7.56591e-05
2.87982e-06
0.0408149
0.00994665
0.00100409
6.07734e-05
2.9529e-06
1.27475e-07
0.00155458
0.000283008
3.04701e-05
1.99505e-06
1.08514e-07
4.97676e-09
5.87215e-05
8.66016e-06
8.83607e-07
6.21512e-08
3.55067e-09
1.01863e-10
524759
692140
672288
683842
525809
667439
521007
188183
231130
325778
364809
235342
312980
191712
383541
255173
329574
414758
306397
327280
257613
361272
229637
75602
330304
227827
272216
78222.8
498822
579301
609004
660089
513479
577903
444769
686949
691943
687301
628082
630056
630283
627802
688764
679210
684010
625452
623649
621491
627518
680036
673672
680524
623150
616835
617978
622874
671715
673480
677603
620818
612409
617129
616186
413139
380192
416753
383441
386595
358474
355756
417506
381590
384991
384106
387260
359061
357064
983.494
448012
520774
519959
306579
337797
1047.43
361803
346047
347724
323014
324358
313427
312107
358727
321980
344857
347216
323920
312981
311132
341902
353672
362632
364871
344163
355252
327441
365714
343682
344884
355813
356033
328160
327683
598063
663318
647775
665731
650811
610980
600525
664650
645641
650154
605917
609899
599836
596079
529995
528266
575173
575612
530348
528757
576824
153913
44068
483235
485545
360495
439305
316160
573432
528511
571390
524265
569966
527073
574707
1.00286
0.0513381
0.00107406
645.668
0.00827257
0.00047708
1.04606
0.0132318
0.00094009
0.96103
0.0667172
0.0011404
13.986
0.00736755
0.000552186
2.02317e-05
9610.33
0.0657181
0.0027964
8.29369e-05
458531
345.973
16.5108
436169
0.820354
0.209366
8.37848
0.0663766
0.00528294
378376
3911.78
0.00662473
0.00112238
337420
42.3988
0.0117713
0.00395472
0.000149442
311641
92869.6
10.2515
0.00922957
0.000331494
1.25911e-05
0.111396
0.00769948
0.000375265
1.71865e-05
7.10075e-07
0.0024543
0.000234776
1.44568e-05
7.43472e-07
3.20142e-08
8.5681e-05
8.03829e-06
5.25892e-07
2.79397e-08
1.1496e-09
2.76441e-06
2.50482e-07
1.66474e-08
8.58563e-10
0
504028
9192.33
9828.78
493227
10325
0.283889
228.44
8.35977
0.0127314
362306
2847.24
0.0899318
0.00252402
367147
18015.9
0.996877
0.00730086
0.000474763
332974
2671.15
0.81374
0.0150525
0.00111327
3.82973e-05
22.7035
0.353716
0.010521
0.00121558
5.25386e-05
1.98394e-06
0.639179
0.00694026
0.000685157
4.21319e-05
2.03779e-06
8.70787e-08
0.000989223
0.000197267
2.11142e-05
1.383e-06
7.44476e-08
3.34694e-09
3.82837e-05
6.03123e-06
6.1607e-07
4.28408e-08
2.37196e-09
1.45519e-11
252690
24919.7
4.95429
0.00789465
0.000216436
5.73826
0.0107497
0.000289004
6.47665e-06
8.66639e-07
8.80827e-08
6.56291e-09
3.0559e-10
0
0
0.000243773
2.80054e-05
2.99311e-06
2.31259e-07
1.30094e-08
5.38421e-10
0
0.00413757
0.000790354
9.39796e-05
7.76473e-06
4.10233e-07
1.82335e-08
6.69388e-10
0.460586
0.0308435
0.00328551
0.00028806
1.30001e-05
5.17088e-07
1.88593e-08
43121.2
76.4371
0.213489
0.00555002
0.00042989
1.40618e-05
4.54951e-07
514941
421704
3293.29
0.464849
0.00578441
0.000346862
9.67839e-06
596818
498851
14295.1
0.453028
0.00503185
0.000158758
633293
501852
4637.93
0.173088
0.00143541
549275
209918
0.647087
0.00475587
1.50032e-06
2.54964e-07
2.58588e-08
1.8772e-09
4.36557e-11
0
0
4.93932e-05
8.67204e-06
8.89559e-07
6.50762e-08
3.65253e-09
1.16415e-10
0
0.00162176
0.000231251
2.62519e-05
1.97407e-06
1.10784e-07
5.07862e-09
1.45519e-10
0.110134
0.00506638
0.000695763
5.49298e-05
3.00979e-06
1.36613e-07
5.13683e-09
2277.48
3.71715
0.0345413
0.00153225
7.51643e-05
3.19062e-06
1.19486e-07
502464
244940
165.079
0.0831927
0.00179636
6.3545e-05
2.27138e-06
580420
462793
734.694
0.0885476
0.000905974
3.21246e-05
663891
471854
243.399
0.0312622
0.000318531
536451
27396.5
0.0691104
0.0022773
2.31812e-07
3.35276e-08
3.40515e-09
1.89175e-10
0
0
0
7.7294e-06
1.10982e-06
1.13781e-07
8.20728e-09
4.07454e-10
0
0
0.000224665
3.26245e-05
3.54051e-06
2.5249e-07
1.37952e-08
5.67525e-10
0
0.00410397
0.000910991
0.000122011
7.63085e-06
3.81639e-07
1.69239e-08
5.96629e-10
1.53237
0.0497915
0.00260743
0.000248459
1.02958e-05
4.06813e-07
1.49594e-08
151503
906.83
0.252908
0.00399412
0.000284488
9.00296e-06
2.96175e-07
509555
11160.9
0.543192
0.00390999
0.000174169
4.77648e-06
469285
471412
0.277894
0.00151768
4.59292e-05
399496
119165
0.00216245
0.000305472
3.06318e-08
4.33647e-09
3.34694e-10
0
0
0
0
9.55726e-07
1.39233e-07
1.38243e-08
9.31323e-10
0
0
0
2.59349e-05
4.00301e-06
4.09855e-07
2.9162e-08
1.61526e-09
0
0
0.000579044
0.000103956
1.16663e-05
7.97983e-07
4.32337e-08
2.02272e-09
0
0.0123682
0.00261888
0.000355685
2.12855e-05
1.04604e-06
4.67116e-08
1.74623e-09
28162.5
62.8106
0.00574723
0.000580185
2.36794e-05
9.53965e-07
3.56085e-08
291726
125008
640.67
0.00749511
0.000478664
1.64638e-05
5.75048e-07
377188
7015.64
262.128
0.00482267
0.000190564
6.58406e-06
337637
164494
5.66606
0.00120778
5.05541e-05
3.40515e-09
3.7835e-10
0
0
0
0
0
1.08761e-07
1.49303e-08
1.38243e-09
1.45519e-11
0
0
0
3.04585e-06