/*--------------------------------*- C++ -*----------------------------------*\
  =========                 |
  \\      /  F ield         | OpenFOAM: The Open Source CFD Toolbox
   \\    /   O peration     | Website:  https://openfoam.org
    \\  /    A nd           | Version:  9
     \\/     M anipulation  |
\*---------------------------------------------------------------------------*/
FoamFile
{
    format      ascii;
    class       surfaceScalarField;
    location    "0.0029";
    object      phi;
}
// * * * * * * * * * * * * * * * * * * * * * * * * * * * * * * * * * * * * * //

dimensions      [0 3 -1 0 0 0 0];

internalField   nonuniform List<scalar> 
64603
(
-1.52121
0.463566
2.86559
-2.86154
-0.347894
1.63877
2.70216
-1.52229
-2.79229
-0.796293
1.60354
0.897061
-0.0501617
0.0103143
0.02186
-0.206161
-0.00926946
0.0249126
-1.32208
-0.682146
1.31418
2.13301
0.743171
6.04106e-05
-2.20589e-05
7.48353e-06
4.52118e-05
-0.000298765
-0.000284686
-0.000137012
-0.000142723
-3.40383e-05
-2.11767e-05
-3.57519e-05
-0.000335358
-7.41379e-05
-3.17606e-05
6.20161e-05
2.00883e-05
1.99913e-06
-5.03987e-05
-1.76616e-05
-1.96083e-05
-2.37678e-06
-5.04877e-06
-2.33421e-06
-4.71072e-06
2.10198e-06
-9.90519e-06
-2.16788e-05
-3.47488e-05
-1.29019e-05
-3.24745e-06
-1.89633e-06
-1.9577e-06
-3.25835e-06
3.01108
-2.66319
-0.323163
1.13201
0.430324
-1.00482
-0.570822
0.89322
1.85285
0.660799
-0.798962
-1.54989
-0.330095
1.1339
3.01026
0.43783
-1.02467
-2.94825
-0.754139
1.13082
2.86049
0.854187
-1.03205
3.41292e-05
-1.5353e-05
-6.06671e-06
-0.000202128
1.46313e-05
7.45917e-06
2.1137e-05
-7.6805e-06
-9.72903e-05
-1.1486e-05
1.02225e-05
1.11085e-05
-9.03797e-06
1.34939e-05
-1.86033e-06
8.76147e-06
-3.66766e-05
-2.8782e-05
-3.01873e-05
3.5927e-06
-6.16511e-06
9.39883e-06
-4.77026e-06
5.353e-06
-2.28415e-05
-1.96858e-05
-2.12035e-05
3.97772e-06
0.316289
-0.237615
0.857256
1.72193
-0.768589
-1.42083
0.45869
2.92396
-1.39461
-2.87116
-0.344194
0.342504
1.16866
-1.05487
-0.25708
1.92247
-1.62295
1.50927
2.92892
0.117596
-2.84626
-1.37785
1.14183
0.0874151
-1.03008
1.8713
-1.57974
0.218035
3.01659
-2.59125
-0.113083
1.11679
-0.990248
0.0797461
0.83569
1.66223
-0.748886
-1.36102
-0.769189
-2.84085
1.17753
0.885207
-1.05479
2.98515
-0.540691
-2.77295
1.15407
0.654044
-1.02605
0.397893
0.861732
1.74844
-0.771764
-1.44755
2.80416
-1.41844
-2.82935
-0.7989
0.906656
1.2306
-0.620485
-1.10709
2.04197
0.72082
-1.71501
1.52514
2.90685
-1.39937
-2.87106
0.573182
-1.06269
0.432095
1.94304
1.17791
-1.63849
-1.68653
1.29456
-0.265985
1.99818
0.354617
2.88637
0.117343
-2.86044
1.63301
-1.64609
0.0908309
1.26494
1.94646
2.5238
-1.80297
0.106357
-2.74367
0.436325
2.43913
-1.78345
-0.330951
-2.71998
-1.78333
-1.40185
0.0987373
1.55713
2.14394
-1.82474
-1.43451
1.5942
-0.28883
2.21524
0.385937
-1.77787
-0.64392
1.36894
2.13859
0.749492
2.84023
-2.8495
0.577935
1.63568
-1.19088
-1.72092
1.32092
-0.447731
2.04784
0.543986
2.3697
-1.76288
-2.69311
0.533193
0.595001
-1.86453
-1.46743
1.63482
-0.488016
2.30869
-1.64142
-0.690718
-2.54813
0.743294
1.89946
-1.89565
-1.49359
0.708081
1.66743
2.37578
0.852612
1.69876
-0.157815
-0.76428
-1.39741
-0.242704
1.78819
0.322878
0.951745
-1.49164
1.76727
-0.161525
0.946826
-1.47185
-0.262577
0.930054
0.347805
2.07558
-0.834169
0.925241
-0.176397
2.04949
-0.830176
0.267934
-0.180093
1.02851
2.12493
0.355082
1.03461
2.15012
0.84487
1.68072
-0.756623
-1.38014
0.081807
1.73213
0.928567
-1.43845
1.7508
0.939465
-1.45718
0.0905662
0.909004
2.01025
-0.815854
0.917897
2.02879
-0.823243
-0.0926144
1.02088
2.10495
1.01075
2.08605
0.870069
1.77971
0.483125
-0.779004
-1.47867
0.406924
1.81152
0.957896
-1.51336
1.83893
0.494331
0.967488
-1.53917
0.43634
0.936019
2.10602
-0.838556
0.945336
0.52831
2.14281
-0.845804
0.446111
1.04255
2.18108
0.540978
1.05396
2.22093
0.880537
1.81485
-0.78841
-1.51288
-0.584114
1.90731
0.995243
0.677034
-1.60241
1.87091
0.97979
-1.56895
-0.623275
0.972837
2.24537
0.722435
-0.867483
0.957486
2.188
-0.855406
0.639266
1.06918
2.27424
1.08886
2.3418
0.742371
-1.04237
1.88985
0.171461
1.15504
-1.59726
0.0845254
1.80119
-1.5111
1.81978
0.166192
-1.52924
1.13468
-0.0950673
0.184656
2.18944
0.0980734
-1.12356
1.2494
2.27827
0.190279
1.26155
2.30054
2.1692
-0.249301
1.85392
0.33181
-1.55853
-1.0493
1.90436
1.16203
-1.60842
1.83495
-1.54179
1.14267
0.27492
2.21102
-0.283381
-1.15033
0.376911
1.27999
2.35904
1.27035
2.32544
0.364863
2.23967
0.418495
1.87496
-1.57638
-1.07381
1.96876
0.524667
-1.65858
1.90039
0.508212
-1.59847
-1.16038
0.474961
1.29288
2.40259
0.458911
2.2767
1.17461
0.557221
2.32471
0.578018
1.31011
2.45698
0.323922
-1.41251
-0.241976
1.18943
-1.07207
-0.58918
-1.5002
1.25109
0.684095
-1.12731
-0.159414
0.815354
0.853756
0.215994
-0.634124
-0.708536
0.0810723
-1.37669
1.16273
-1.04613
-0.0525983
0.80353
0.82889
0.104588
-0.598157
-0.694286
-1.42654
0.0933139
-1.5816
1.86493
0.368783
-1.4575
-0.2756
-1.61556
1.91061
-1.04136
0.0676519
1.10805
-0.975988
0.27694
-1.07167
-0.205513
1.14301
-1.01254
-1.42584
0.409904
1.1984
1.70139
-1.08019
-0.410137
0.880845
0.97049
-0.769545
0.480872
-0.763874
-0.277674
0.833999
0.893398
0.342901
-0.682418
-0.724454
-1.46936
-1.62888
0.46644
1.93093
-1.36226
-0.540442
0.640447
1.51055
-1.6006
-1.08243
0.352508
1.15777
-1.02364
-1.01327
1.16038
-0.474278
1.15434
-0.995873
0.555466
0.784133
0.813209
-0.579963
-0.67587
0.0573383
0.910384
0.905156
-0.714991
0.925829
0.113883
0.924514
-0.73306
0.0634325
0.932989
1.09608
-0.819528
0.950807
0.126139
1.11156
-0.837281
-0.0679201
0.134546
1.0737
1.19161
1.05647
1.17674
0.811946
0.839232
-0.614044
-0.705399
-0.17373
0.948306
0.234936
0.935796
-0.76314
0.934766
0.931249
-0.746211
-0.191097
0.961206
0.25717
1.13125
-0.849495
0.95702
1.11963
-0.845666
0.203335
1.07898
1.1986
0.273348
1.08404
1.20927
0.822196
0.870351
-0.656031
-0.713633
0.300966
0.964566
0.944593
-0.781007
0.328002
0.968684
1.14499
-0.855856
0.987984
0.369455
0.958636
-0.80495
0.980639
0.401674
1.16532
-0.867342
0.347863
1.09272
1.22288
0.424568
1.10634
1.24306
0.85333
0.927122
-0.720511
-0.740475
-0.440461
1.06277
-0.884719
0.516169
1.02133
0.981906
-0.840128
-0.477574
1.0242
1.23107
0.557209
-0.905333
0.99934
1.19443
-0.8835
0.504038
1.12791
1.27134
1.15562
1.30575
0.588118
0.0623141
1.00872
-0.848566
-1.06016
1.12307
0.134945
-0.993309
1.02444
0.123939
-0.866777
1.20781
-0.0718842
0.142779
1.27056
0.0762624
-1.19141
1.33462
0.151873
1.34853
1.25583
-1.39275
1.17729
0.160508
1.66308
-1.06054
0.0723678
1.05622
-0.940466
1.07266
0.143961
-0.957084
-0.0762528
1.46131
0.151469
1.19723
-1.44594
0.084841
1.28914
1.71246
1.18151
0.167521
1.30389
1.72904
-0.189047
1.04511
0.255313
-0.890823
-1.06602
1.13048
-1.00182
1.03229
-0.877339
1.21286
0.215942
1.27692
-0.229778
-1.21895
0.309002
1.36614
1.35508
0.290419
1.28757
-0.217803
1.08318
0.29245
-0.96829
-1.401
1.18331
1.67325
-1.06678
1.07826
-0.963793
0.228787
1.46877
1.20259
-1.47945
-0.251995
0.337299
1.3175
1.75251
0.307105
1.20829
1.31023
1.73911
0.326078
1.0611
-0.905284
-1.09918
1.17962
0.429873
-1.04105
1.08399
0.398669
-0.925795
-1.22919
0.392237
1.37918
0.369153
1.30111
1.24502
0.449753
1.32095
0.477412
1.39848
0.371527
1.09164
-0.975995
-1.44447
1.21131
0.498109
-1.09192
1.10403
0.452897
-0.987699
-1.49212
0.426667
1.32765
1.76779
0.389544
1.21746
1.50997
0.473808
1.23117
0.518156
1.34205
1.78792
-0.510844
1.24369
-1.10146
0.597852
1.12603
1.11588
-0.956849
1.20889
-1.06765
1.2691
0.533669
1.34784
-0.566153
-1.29899
1.45352
0.660209
1.4237
1.37998
0.622915
-1.46968
1.22916
1.74668
-1.10775
-0.536652
1.14482
0.624232
-1.02459
1.12218
-1.00397
0.560866
1.53415
1.25117
-1.56333
-0.612567
1.38781
1.84893
0.71203
1.27589
0.652426
1.81486
1.33133
-0.0801913
1.52821
0.159176
-1.51315
0.0887833
-1.59607
-1.44142
0.183802
1.88167
0.0843197
-1.31597
0.167518
0.175096
1.7999
1.33695
0.240131
1.53543
-1.54622
-0.263013
0.351901
-1.60403
-1.44852
1.89401
-0.252656
-1.34368
0.339059
0.322313
1.81047
-1.55882
0.444772
1.84155
-1.35388
0.429187
0.408516
1.36923
1.57671
0.496666
-1.64806
-1.4866
0.567881
1.95857
0.521401
-1.08857
2.00203
1.20844
-1.68421
-0.600602
1.96901
0.696967
-1.65692
1.93168
-1.62553
1.19418
0.659692
2.38699
-0.685954
-1.2184
1.36549
2.61833
0.799736
1.3345
2.52401
2.46302
0.768281
-1.63011
1.54104
1.93494
0.746341
1.41793
-0.58781
0.683672
-0.617293
1.70474
0.718639
1.67361
-1.39102
-0.674285
2.05493
0.786492
1.99814
-0.288752
1.0154
0.383079
-0.904702
-2.62008
1.12436
3.01637
-0.997646
1.00818
-0.194973
-0.899111
0.295903
2.75744
-0.199531
1.12939
-2.77866
-0.330897
0.441054
1.26507
2.98165
0.393337
1.13848
-0.222756
1.25921
2.99049
-0.1158
1.13106
3.03217
0.222932
-1.02081
-1.46734
-0.0822569
0.222912
0.0980946
0.221373
-0.283071
0.0206696
0.0442873
-0.0915062
-0.379053
-0.0184813
0.434291
1.41505
-1.33724
-0.327797
2.75435
-1.69748
0.025908
0.278067
0.286044
-0.336998
0.0691573
0.060726
0.00521002
-0.125446
-0.495113
1.42616
0.110533
-1.33919
2.80465
-0.101378
1.00037
-0.892083
-2.56939
1.10962
3.01095
-0.983906
0.992311
-0.885222
-0.103609
2.73891
1.12061
-2.72212
0.114905
1.24352
2.98848
1.11127
1.25092
2.9933
1.27877
1.96495
0.177726
0.0945791
2.03193
2.05053
0.184914
1.41593
0.101526
1.3916
2.42097
1.40448
0.197069
2.44451
-0.105492
0.205309
1.56983
2.62522
1.55601
2.60781
-0.276528
2.0866
0.368931
1.28632
1.97948
2.0659
1.4243
-0.293772
1.42611
0.391974
2.50601
1.41422
2.47099
0.306659
1.58165
2.64054
0.410321
1.59756
2.65939
-0.544782
1.13507
2.95455
0.65051
-1.02853
0.0660305
0.0814732
-0.0848021
0.0805365
-0.627084
-0.120748
0.150717
-0.103709
-1.13076
0.152308
0.0988338
-0.20822
-1.28421
-0.718859
2.43745
0.794721
0.0105686
0.0131363
-0.135182
-0.0281565
-0.0144558
0.0142909
0.0402313
0.0357026
-0.073979
-0.315019
0.0202508
1.40178
-1.33076
0.536074
2.7072
-2.73896
1.14146
3.00088
-1.01417
-0.480818
1.03791
0.583347
-0.922036
1.02457
-0.911592
-2.80285
0.553541
1.27116
2.96532
0.494944
1.1516
2.82782
0.602605
1.17067
0.66763
1.28046
2.94932
-0.465888
2.15296
0.566827
1.3055
2.0203
2.11371
1.44792
0.495218
1.44289
2.57072
1.46574
0.603326
2.62344
0.519909
1.62053
2.67944
0.636559
1.65276
2.70021
1.25827
-0.106311
2.80806
0.205429
-2.8584
-1.38457
0.230862
1.51456
2.93538
0.109679
-1.24726
1.40737
-2.79301
0.116514
2.94784
0.213201
1.41958
0.227293
2.95005
-2.80817
1.16498
2.95721
-1.04033
-0.691282
1.08281
0.807219
-0.954414
1.05714
-0.935801
0.717122
2.85119
1.19656
-2.86635
-0.78234
1.29967
2.92462
0.896899
1.22738
0.839133
1.28958
2.94214
1.26915
0.305291
2.82238
-2.83767
-0.338274
0.450976
2.94898
-0.317917
-1.28194
0.425877
1.44611
-2.8661
-1.3897
1.51702
2.93305
1.43158
0.407394
2.94978
1.3418
2.08541
0.67259
2.20788
2.28069
1.52652
0.784805
-0.717624
1.54025
2.69193
0.841553
1.49759
2.65859
0.760604
1.69311
2.71676
1.73839
2.72174
0.891187
0.083914
0.0237996
1.58874
-1.89003
-0.683945
-0.336246
0.715582
0.39762
-0.597123
-0.0455696
-0.567691
0.966296
-1.49409
0.743858
0.169792
-0.122692
-0.540902
0.640795
-0.538058
-0.476445
0.037799
0.605143
-0.501576
0.0228746
-0.00261152
0.979354
-0.462183
-1.38417
0.626724
-0.9575
-0.86235
0.0570536
0.243921
-0.898477
-0.17934
-0.993718
0.206917
-0.147107
0.0109818
1.55067
-1.81053
-0.565391
0.221733
0.647749
-0.54254
-0.0412896
0.94054
-0.159341
-1.17952
0.0526047
0.326584
0.0336112
0.956565
-0.409698
-1.316
0.572742
-0.911694
-1.00062
0.312638
-1.00485
-0.455839
-1.06521
0.535128
-0.0297673
0.257662
1.50145
-1.74347
-0.257089
-0.329684
1.38797
-1.5833
0.366941
-0.541603
0.98231
-0.0206416
-1.47706
0.717739
-0.0207224
1.2446
-0.341537
-1.65604
-0.0200062
-0.113913
0.526056
0.207387
1.25546
0.017914
-0.316486
-1.64223
-0.0926718
-0.00134477
0.548084
0.189521
0.0060042
0.0245707
0.0624918
0.774354
0.0393565
0.753622
-0.503206
0.987371
-1.4403
0.675169
-0.0210695
-0.0386164
0.0458099
0.593544
0.137039
-0.0586736
1.22793
0.0955532
-0.253043
-1.5547
1.25051
-0.284694
-1.60772
-0.0635365
0.570831
0.160248
0.0605263
0.790638
0.0889211
0.0988781
0.803534
0.11367
-0.345528
0.932189
0.0381542
-1.24917
0.508477
0.0724888
-0.00410647
0.613862
0.109481
0.121341
1.18793
-0.205795
-1.48478
1.14704
0.137546
-0.144808
-1.41608
0.0399478
0.100535
0.634354
0.0739824
0.137061
0.810011
0.149504
0.171447
0.819164
0.196535
-0.260966
0.92559
-1.20052
0.425677
-0.129757
0.173565
0.715201
0.165093
-0.0385299
-0.14954
1.12008
0.036303
-1.33849
0.167652
1.12343
-0.0623912
-1.36505
0.0994179
0.667814
0.0248559
0.205684
0.841651
0.2606
0.876598
0.338701
0.246642
0.00216404
1.44532
-1.78706
0.0604208
1.59737
0.0841318
-1.8865
1.45456
0.0519774
-1.77877
0.264675
-0.00942748
0.0505266
0.977668
0.0256977
-0.240462
1.12911
0.0769815
1.14788
0.957627
-0.517309
0.63673
-0.0781028
-0.534556
-0.0721169
0.371535
0.107848
-0.283565
0.362243
-0.0403831
-0.276846
0.0959858
0.683718
-0.0554419
0.477596
-0.702059
-0.140299
0.192955
0.759676
0.139439
0.490064
-0.0894107
0.75379
0.013542
0.325562
-0.241571
-0.496441
0.624798
-0.519723
0.344515
-0.257975
-0.0208179
0.667336
0.461788
-0.647957
0.0435317
0.723932
0.441105
0.744152
0.0355639
1.58586
-1.86028
-0.105821
1.41438
0.154831
-1.69791
1.44503
-1.74808
0.287601
0.0990696
0.988516
-0.1353
-0.310704
0.195151
1.14918
1.15398
0.149465
0.99154
0.148174
0.385925
-0.291564
-0.592503
0.660556
0.278086
-0.552535
0.407297
0.193664
-0.305341
-0.719408
0.250598
0.770019
0.187526
0.509728
0.74166
0.237744
0.537242
0.310835
0.786613
0.194891
1.36682
-1.62805
-0.0859467
1.45076
0.296191
-1.67516
1.31822
0.223595
-1.55834
-0.344143
0.251563
1.13779
0.197354
0.987251
0.389379
0.239526
0.986063
0.301804
1.12955
-0.24104
0.487224
0.291878
-0.366718
-0.632047
0.68262
-0.569898
0.440672
-0.329918
0.289682
0.776022
0.57796
-0.820892
-0.373151
0.851837
0.440143
0.631174
0.346623
0.814001
-0.245749
1.26789
-1.47251
0.27284
-0.164069
1.41297
-1.6213
1.28514
-1.50546
0.45275
0.280707
0.997874
-0.351249
-0.529747
1.14528
0.406437
1.13274
1.01988
0.327805
0.61423
-0.0303428
0.829169
0.0730727
0.0408569
-0.592381
-0.809754
0.0499967
-0.976004
-0.882635
0.115503
0.0918384
0.101813
0.628152
0.122641
0.8417
-0.854669
-0.15919
0.217854
-0.985314
-0.890803
-0.149554
-0.642534
0.208363
0.174053
-0.866365
0.281076
-0.664622
0.269968
0.228966
0.695452
0.883179
0.284269
-1.01291
-0.931959
0.382643
0.331425
0.345778
0.570241
0.26453
-1.04363
0.120057
-0.673335
1.46366
-0.206467
0.100175
-0.620882
0.455743
1.14971
-1.02194
0.277
-1.02593
1.27046
-0.343452
1.45506
-0.70305
1.17428
0.573547
-0.0656786
-0.126426
0.439924
0.116433
-0.183713
-0.103013
0.367246
0.0341344
0.159505
-0.0266956
0.218581
0.27658
0.194477
-0.823324
-0.232077
1.24756
0.0803116
-0.826715
-0.105968
1.19799
0.127682
0.0605206
0.15508
-0.708938
-0.416729
0.34592
1.21414
-0.171694
-0.565757
0.662926
1.08675
-0.64884
-0.341566
0.661395
1.1514
-0.118704
0.190135
0.31706
0.231973
-0.267987
-0.266253
0.231442
0.0882794
-0.203826
0.698579
-0.211895
-0.105372
0.223848
-0.8345
0.214145
1.29251
0.464893
-0.981909
0.649329
-0.543878
1.41252
-0.78063
0.66504
1.24304
0.374019
0.32815
-0.684101
0.0502399
-0.453458
0.297089
0.120796
-0.283606
0.712153
-0.386873
0.699316
-0.619258
-0.334905
-0.654942
-1.16435
-0.102698
1.49367
1.11279
-0.0266388
-0.249458
1.52006
-0.149054
1.06695
-1.12599
-0.722731
-0.198051
1.43682
1.16787
-0.650772
-0.291848
1.12972
1.14054
-0.155547
-0.224373
-0.0796442
-0.329274
1.47434
0.393792
-0.980026
-0.459526
1.42804
-1.08201
-0.852355
1.36248
1.28855
-0.789359
1.2496
-0.214962
1.11308
-0.391778
-1.0644
0.116557
-0.653865
1.34746
-0.150016
-0.60623
-0.254626
-0.471978
1.41892
0.102693
0.314597
0.124079
0.0393269
0.377926
0.0608731
0.400673
0.0160232
0.0159942
-0.263456
0.0685743
0.00377472
0.754969
0.147205
-0.054649
0.758644
0.0737989
0.823353
-0.366192
0.392708
-0.0205522
-0.242386
0.0147926
0.460965
-0.0939738
-0.0399218
0.439682
-0.0491011
-0.0537254
-0.0911207
0.765734
-0.0737401
0.302709
0.816068
0.0676921
0.756414
-0.126153
1.20353
0.025107
-0.0831096
0.089037
1.60532
0.0359575
1.5609
0.124388
1.18171
-0.0140867
-1.2273
0.00373299
0.138373
1.56908
0.0406474
1.52372
0.147953
0.174909
1.51733
0.0431543
-1.15125
1.47009
-1.15498
0.325399
1.45102
0.19704
0.285633
0.137845
-1.10927
1.40398
0.0366415
0.0310298
-0.048751
0.120375
0.0909782
1.8592
-1.25996
0.0417718
-0.501518
-0.0598689
0.696461
-1.97375
0.297978
0.0365947
-1.69531
-0.0513068
-0.856682
1.10473
-1.67501
-0.0578288
-0.883469
1.71622
1.2367
0.0237646
-0.0115744
-1.52092
-0.783495
0.998106
0.124281
1.42162
-1.04793
-0.171636
1.42396
0.21612
-0.16495
0.26997
-1.86113
-0.158898
0.276039
0.208832
1.75896
0.396873
1.05229
-1.25314
-0.916652
-0.455732
1.54643
-1.44119
0.0150408
-0.744682
0.954823
0.0145998
1.19077
-0.0502707
1.43117
-0.8467
-1.26883
0.243185
-1.79258
0.257004
0.0291257
-0.29955
-1.61801
0.318186
-0.241026
0.520533
0.253386
1.58797
-1.3708
0.654237
-0.208405
1.33029
-1.12715
0.17125
-0.787952
-0.0626085
1.19455
-0.00740835
1.73087
-0.428838
-0.828713
1.61606
-0.088818
1.22469
1.68374
0.00186359
-0.483261
-0.901523
-0.033979
1.67455
1.24162
0.00667206
0.032492
-0.595551
1.78013
-0.567805
1.8153
-0.91727
1.52418
1.30307
0.0319785
-1.01297
-0.0490366
1.51508
1.34698
0.000193107
1.52275
-0.70887
1.61049
-0.580626
-0.941498
1.60515
1.27428
0.0563024
1.7198
-0.641909
0.0639945
1.64482
-0.709889
-0.236299
1.32496
-1.18387
1.56074
-1.28523
1.22197
-0.313942
-1.09007
1.64742
-0.0972456
-1.1002
1.42646
1.4347
1.33032
-0.101941
-0.948634
-1.17527
-1.1507
-0.169508
1.33555
1.47627
0.0435212
1.55372
-0.7889
-0.00145548
1.46259
-0.839804
0.0445329
1.79928
0.18075
1.82077
1.75688
0.0870467
-0.303733
-0.0377039
0.0941732
1.87295
0.0722597
0.275419
1.96975
0.144463
1.94775
1.90191
-0.0518906
-0.917515
1.23122
-1.6593
-0.840091
-0.0137436
1.08463
-0.916591
-0.013591
1.22239
1.77579
0.0108095
0.0364112
-0.627006
-0.0186337
-1.80592
-0.584429
0.0303104
-0.569856
-0.624146
-1.30802
1.12522
-0.994163
1.63966
0.252081
-1.05564
1.20046
-0.30859
1.32295
0.165721
1.16136
-0.956912
-1.00222
-0.213886
1.23666
-0.991663
-1.08246
-1.1369
1.25606
1.43381
-0.0583392
1.38312
-0.840525
1.32544
-0.776013
-0.101178
-1.59792
-0.813924
1.04624
-0.00705483
-0.927318
0.00986168
1.20977
-0.916431
1.20821
0.0690935
1.72201
-0.635526
-1.65577
-0.0696347
0.0998747
-0.538883
0.0897104
-0.654649
-0.552346
0.115258
1.69057
0.394209
1.68171
1.61039
0.125575
-0.352847
0.134482
1.82006
-0.200492
0.420112
0.238737
1.83404
1.90197
0.159172
1.75092
-0.0174348
-0.951534
1.23171
-1.36235
-0.694129
-0.0124823
0.899906
-0.953301
-0.0720601
1.22373
-1.57881
0.110994
-0.505687
0.0876971
-0.67486
1.50209
0.0601273
-0.67872
0.104975
-0.458907
0.114666
1.51991
-1.32768
0.625599
1.49467
0.238726
-1.28767
1.42236
0.0839996
-1.23893
0.488855
0.259832
1.74893
0.16169
1.66275
-0.5375
0.140404
1.57314
0.259685
1.66265
0.137202
-0.805951
-0.180443
1.03625
-1.29845
-0.613611
0.814373
-0.90575
1.15682
0.0230622
1.43919
-0.641153
-1.399
-0.0924894
-0.278085
0.084469
-0.554846
-0.00578132
-0.382376
-0.0402308
1.25612
-1.0728
-0.00267401
0.678546
1.40436
-1.20493
1.33056
-1.15278
-0.542006
0.108346
1.49167
-0.242177
0.485668
1.52377
0.220369
1.58297
1.4353
0.0761476
-0.338094
1.87654
-0.0237192
0.0830266
0.0514284
0.335262
0.0110131
-1.89996
-1.95748
0.28474
0.105805
0.122107
0.0702225
-0.351583
0.127694
1.82997
-1.91804
0.274607
-1.76839
-0.120296
0.160622
-0.178946
0.376886
0.221377
0.159501
-1.69601
0.188689
0.395564
0.251822
0.173842
-0.398542
1.6221
0.171535
-1.7227
0.199742
0.282448
0.264941
0.202639
-0.363158
0.156746
1.55958
-1.51895
-0.205085
0.209475
-1.6622
0.126073
-0.264388
0.284384
0.263368
0.139676
0.740212
0.341544
0.911408
-0.948197
-0.413048
0.485953
-1.03517
-0.963695
-0.395408
-0.796428
0.46573
0.404611
-0.943466
1.08206
-3.09616
-1.51035
4.00655
2.06865
0.914023
-1.64598
-0.655451
-1.14324
0.799648
2.96939
-2.4148
-0.346401
-0.859623
1.29522
0.540546
0.740288
-1.10406
-0.870732
1.50065
1.02602
-0.273707
-0.718472
1.26078
0.937626
0.487839
1.13405
-0.878774
-1.2932
1.57435
0.264326
-0.516664
-1.40964
0.446573
0.290398
0.167596
-0.218511
0.332284
1.24471
0.0451097
-0.689862
-0.220638
2.14351
0.753594
-0.875284
-1.07818
0.886562
-0.432056
-1.65418
-3.57017
3.8043
-0.212355
3.03901
-0.944156
1.16627
1.55826
-0.354644
0.985937
-1.14168
0.731714
1.24487
0.853678
-1.40616
2.79895
-2.02034
-0.743225
-0.60123
0.734529
-0.631999
1.41601
-0.485007
-0.851201
-1.66448
1.40703
-2.207
-0.79187
2.76891
-0.638871
1.1721
-0.806567
-0.838453
-1.4847
1.28517
1.95373
0.475892
-0.823659
-1.30546
-0.427857
-0.440113
-2.15721
2.53034
-0.513399
2.32026
-0.792095
-0.510226
-1.44221
-0.394825
2.84333
-0.921945
-0.456446
1.0857
-0.199728
-1.45923
2.65539
1.44522
-1.50321
-0.471733
2.42061
1.44501
2.54005
-0.396571
-0.825774
-0.476721
1.69987
-1.49889
2.33562
-0.728409
-0.843494
-0.830054
1.50128
-1.51203
-1.92432
-0.669044
2.447
0.944159
1.08939
-0.811175
-1.05297
-1.25202
1.05318
-0.752494
-1.25117
1.11773
1.68387
-1.07051
-1.1174
-0.48018
1.09739
-1.413
1.68287
-0.563686
-1.32338
2.00944
-0.482103
-0.942577
-0.624137
-1.24015
-0.401058
-0.804269
1.35679
0.873536
-0.796378
-0.539434
1.30753
-0.848135
-0.740036
1.34793
0.310682
-0.725883
-0.600758
-0.416747
0.842562
-0.186434
-0.245239
-0.389823
-0.345761
0.822447
-1.47709
1.66019
-1.20434
1.44136
2.51331
-0.859718
0.933943
-1.48724
2.03832
1.42416
1.0726
1.70918
-0.832285
-1.35311
2.03249
-0.80683
-1.16824
1.24696
-1.43553
1.02965
-1.36559
-1.43249
-1.49242
-3.48855
-0.725819
3.93367
-0.338312
-2.39235
2.36474
-2.42633
-0.679379
2.48017
-1.10801
-0.578986
-0.591635
-2.15053
1.00551
-0.921986
-2.11382
-0.823604
-2.6916
1.03585
-2.24183
-1.39004
2.57439
-1.21452
-3.33922
4.02967
-2.37197
2.58549
-1.20235
0.832208
-1.98448
-0.684025
1.10008
-2.27423
-1.39528
-1.81904
-1.44343
-2.50772
0.989761
-1.04568
-1.13266
1.37044
0.686383
-0.905562
1.35562
-0.905261
1.32004
-0.820217
-0.577219
-0.546639
0.464201
0.543877
-0.753811
-0.649068
-0.757912
-0.955895
-0.512117
-0.141547
1.60731
0.40245
-0.727685
-1.12024
-0.496616
-1.79711
2.0527
-1.25393
0.312789
1.38591
-0.874736
-0.328564
0.0580125
-1.00424
-0.616202
-0.891083
1.84594
-0.87201
1.99291
-0.556465
0.754447
1.23633
-0.986501
1.38227
-0.698271
0.628115
-0.657323
0.994688
1.79177
-0.929425
-1.34211
-1.00567
0.875879
-1.0031
0.562892
-0.267425
1.37328
-0.976629
-0.950204
1.17291
-1.14975
1.2939
-1.37123
-1.06369
0.354192
1.16013
0.846711
0.469726
-0.617464
-0.985064
-0.747158
1.57079
-0.795136
-1.1483
-0.52496
-0.133324
-0.138907
-0.0194811
-0.0972479
-0.0693757
-0.592973
-0.451711
0.453857
-0.0224438
-0.0943271
-0.300126
-0.239209
1.24398
1.2609
-1.45413
0.710864
1.04629
1.52996
-1.21135
-1.27444
0.74945
1.21233
1.1048
0.42643
-1.34852
0.495666
0.641473
-1.45147
-0.512166
-0.57991
1.7808
-0.664588
-0.689293
-1.69521
0.669806
-0.982332
-0.467072
1.90252
-0.803254
-0.918738
-0.837776
-1.52765
-1.20173
0.576719
-0.497622
1.06137
-1.27136
1.10688
1.35028
-1.24826
-0.409743
1.74247
-1.38267
-0.250876
-0.632962
-0.469418
0.380685
0.351293
-0.433011
0.439372
0.505147
-0.529104
0.361876
0.180357
-0.754495
-0.470079
2.3344
-1.67023
-2.25051
2.12986
1.03554
1.9413
-0.861209
-1.52225
-2.06459
1.59208
1.03568
2.02758
-1.40813
-2.14653
1.53785
-0.756093
-1.93113
-2.76799
3.59373
-1.76759
1.81495
-1.40754
-1.00655
1.01736
0.793328
-0.17539
1.3917
-1.35489
-0.357739
1.06537
0.334285
1.60867
-1.59341
1.38172
-0.312962
-1.27501
-0.745772
0.79988
0.702718
-1.5119
-1.41841
-1.39888
-0.838905
0.911927
0.350422
1.15857
-1.74106
-0.0456752
-1.20252
2.03101
0.472332
-0.969708
-1.353
-0.0883152
1.7195
1.24648
1.42826
-0.346433
-1.37402
0.696945
-0.71025
-1.38668
1.16643
0.129505
0.313227
0.111735
-0.342039
1.03174
0.678199
-0.800616
-0.33912
-0.825504
-1.56816
-1.514
1.34492
1.56247
1.52335
-1.19387
-1.49712
-1.75407
1.26572
-1.5409
1.09926
-1.90848
1.69409
1.41717
-1.58825
-1.40572
-0.934736
-1.65774
0.867717
-1.32375
-1.18831
0.76848
-1.86514
-1.28663
-1.19362
-1.80941
-1.05758
-1.41624
-1.02614
-0.919678
1.19204
-1.21431
-1.09472
-1.69007
1.15148
-1.29454
-0.815782
-1.61219
1.41447
-1.19372
-1.51755
-0.770307
-1.37955
-0.82299
-0.882595
0.997985
-0.705841
-1.51022
-1.17275
-1.71335
-1.0173
-1.75143
-2.09948
2.46449
-0.634995
-2.41196
-2.25161
3.10667
-1.93855
-2.04895
2.34099
-0.575962
-1.68658
-2.03274
-1.67634
-1.6553
0.507469
-1.8677
-1.48878
-1.91849
-1.77789
-1.24952
-1.28701
1.565
0.437685
-1.57085
-1.07087
-0.0787285
1.91136
-1.5259
-1.36436
1.77333
0.415537
-0.733219
-1.02758
-0.0290101
-1.05304
-0.375198
-1.12999
-1.293
-0.804546
-1.26427
-0.0248066
2.18769
-1.46764
-0.7457
-2.1804
1.8265
-0.53954
-2.03255
2.59511
-1.71083
-0.902918
2.11669
-1.95018
0.43403
-0.655841
-1.31114
-0.377921
1.97847
-1.22488
-1.90535
-0.537385
-1.12623
-1.93467
-1.50488
-1.03614
-1.33467
1.27002
1.39141
1.79128
-1.73323
-0.633713
-1.86342
1.83871
-1.55759
-0.717336
1.6594
-1.59842
0.832373
-0.610467
-1.42563
-0.67501
1.85653
0.790052
-1.40323
-1.89905
-0.526557
-1.58017
-1.60234
0.988774
-1.24334
2.13189
-1.44787
-2.19256
1.68547
1.27677
-1.32177
1.43819
-1.51686
1.73597
-1.98731
-0.980578
-1.25003
0.784776
1.96084
-1.24959
-2.00856
-1.18782
-2.00916
-1.16656
-0.436404
-1.47019
1.19736
-1.36302
-0.379722
-1.54171
-0.569672
-1.06217
0.393337
-0.52005
-1.66097
-0.278782
1.19892
-1.36925
-0.335654
-1.44015
-1.62141
1.0342
-1.61142
-1.06089
1.03043
-1.4574
-1.59989
-0.98877
-0.863485
-1.72585
0.575846
0.891421
-0.600928
-1.57947
-1.53537
-0.885663
-1.74106
1.46478
-1.78904
-1.51161
2.01186
0.391655
-1.7057
-0.064717
2.02274
-1.71166
1.94217
-1.19069
-0.329579
-1.47791
0.284777
0.867898
-1.45511
0.00630976
-0.901726
-1.55478
-1.20863
-1.41127
-0.0104587
-0.953201
-1.51303
0.751129
-1.03734
-0.51295
-1.25478
-1.03981
0.778404
-0.569087
-1.31561
-0.568055
0.922865
-1.43412
-0.431423
-1.04359
-1.62829
-0.25125
-0.563532
-0.736385
-0.496579
0.0345365
-0.250336
0.0957747
-1.06784
-0.30072
-0.863644
0.217993
0.98241
-0.274161
0.0930829
-0.575323
-0.539056
0.0327724
-0.930368
-1.71056
0.335025
-0.437417
-0.275135
1.65679
-1.59866
1.47624
0.792475
-0.204913
-1.4687
-0.227138
1.00497
-0.267463
-0.35152
-1.69182
-0.957759
-1.7952
-0.701118
0.547809
1.81179
-0.561339
-1.81688
1.58778
0.903159
-1.59793
0.451258
0.990083
-0.474391
-1.80246
-0.717106
-1.26438
-1.3317
0.633606
-0.486004
-0.500954
1.68318
-1.66348
-0.448982
1.11683
1.02173
1.3799
-0.301926
-0.985144
-0.365029
-0.412963
-1.30096
-1.23803
-0.893942
-0.256269
0.209225
0.583938
0.0596117
-0.611559
0.594851
1.30088
-0.602661
0.17496
1.12577
0.102386
-0.900087
0.0449242
-0.736102
0.559195
-1.3989
-0.615338
1.71609
0.949223
0.240709
-1.64477
-0.992064
1.95701
-0.757929
0.27147
-1.28861
1.68337
-0.963246
-0.409437
-1.21415
1.63249
1.30641
0.343107
-0.399096
-1.0088
0.356112
0.638531
-0.0681586
0.447112
-1.09177
0.50769
0.199637
0.779602
-0.885681
-0.133201
0.0907396
0.265325
-1.49914
-0.859781
1.87156
-0.613256
-1.21502
0.623458
1.62191
-0.525519
0.333099
-0.946473
-1.41475
-0.703503
0.588859
1.80313
0.319902
-0.600965
-1.17069
-0.38465
0.674965
-0.866751
-0.453649
0.635675
-1.07709
0.246819
-1.61718
1.96151
0.801001
-1.54727
0.490392
-0.847446
1.86931
-1.52816
0.532887
1.89253
0.669137
0.292882
-1.34578
-0.703133
0.304008
-0.528563
0.584615
-1.20753
0.544275
-1.24923
-0.566093
-0.520719
-1.19304
1.6244
-0.895836
-1.35795
-0.482879
1.758
-1.37232
-0.59701
1.77999
-1.00799
-0.192069
-0.841663
-0.294129
-0.83058
0.938458
-0.35005
-1.01838
-0.243657
-0.995689
-0.296069
0.393651
0.868848
0.418272
-0.0973097
0.369263
0.555771
0.0508622
0.778628
-0.160499
0.728339
-0.770525
-0.211862
0.681184
0.017167
0.726608
0.681015
-1.47321
-0.736431
1.80668
-0.811627
-1.42278
1.7854
-1.46952
1.84609
-0.423194
0.860947
-1.13483
-0.792102
0.305777
-1.0879
-0.349287
-1.16399
-0.462093
-1.08561
-1.04954
0.341638
-0.433302
-0.146962
0.403459
0.384864
-0.1885
-0.909504
-0.273741
0.638019
0.0380104
0.955281
0.637796
-0.0850596
0.684565
0.593435
-0.309595
0.51168
0.132544
-1.05063
0.0157836
-0.0706089
-0.702924
0.978495
-0.115357
-1.02009
0.664822
0.174519
0.0998345
-0.0207137
-0.827707
-0.172305
0.909051
-0.841047
0.0699491
-0.11057
-0.0487734
0.86574
0.00300578
-0.953417
0.765095
-0.210424
-2.85249
0.564834
2.94299
-1.2999
0.539282
1.46499
0.514837
1.32339
2.86418
0.628496
-2.86444
-1.40568
0.686974
1.52725
2.88184
0.657356
1.48905
0.679074
2.93045
1.57164
2.16486
0.193157
-0.103283
2.33418
0.202586
2.31107
1.76957
-0.109778
0.215638
2.70769
0.114739
-1.75399
2.72052
0.228338
2.72868
2.69393
-0.303422
2.39316
0.406851
1.58137
2.18555
2.35928
1.78461
0.323363
2.71605
-0.343501
-1.80451
0.462351
2.71894
2.72644
0.435207
2.72349
1.35142
0.748233
2.86834
-2.86065
-0.792743
2.87563
0.905459
-0.779714
-1.38312
1.54196
0.905556
-2.85013
-1.41339
1.52718
2.8481
1.51563
0.873061
2.90861
-0.51592
2.50376
0.630193
1.61089
2.25516
2.46404
-1.83085
0.585847
2.7059
0.553331
2.72715
1.86354
0.676606
2.72439
0.711841
2.68761
0.422907
-0.32034
1.46307
2.58581
0.0303216
0.00246525
-0.273701
0.0350821
0.106423
1.48624
2.66414
-1.46564
0.0739488
1.4765
0.0020998
-0.00655931
-0.0245448
0.000146962
0.000691863
0.00143667
-0.00452979
-0.000647022
-0.017094
0.307867
-1.39495
-0.239962
1.22369
-2.86839
1.63868
0.232688
2.88997
0.113461
1.58409
1.59615
0.222373
-0.116712
2.83685
0.231014
1.76891
-2.83127
0.1159
1.7348
2.80962
1.75808
0.232574
1.73906
2.8112
-0.332703
1.62088
0.446014
-2.8676
1.6397
2.88183
1.60739
0.346469
2.83129
1.77434
-2.81919
-0.348566
0.463498
1.72972
2.77601
0.464345
1.78084
1.73624
2.79858
1.70908
2.47948
0.827645
-0.750915
2.56726
0.880624
2.53724
1.90369
0.804346
2.71317
-0.837795
-1.93209
2.65076
0.962623
2.65925
2.69372
0.935479
-0.266827
0.0250281
0.0290466
-0.0812044
-0.0344218
0.0354474
0.0173886
-0.169977
0.0099431
0.019652
0.518929
1.4413
2.52152
0.00109845
-0.00349859
-0.013218
0.000638588
-1.33716
0.359639
1.05358
-0.169242
-0.403139
-0.0603441
0.0421666
0.0463469
-0.00405092
-0.00106677
-0.000387273
0.000253436
0.56362
1.64204
-2.83252
1.62952
0.689437
2.80627
1.65394
0.684776
-2.80028
0.575032
1.71897
2.74129
0.584243
1.78972
2.79441
0.704497
1.79696
0.681769
1.70323
2.6975
1.12768
3.03044
-1.01788
0.114724
2.97557
1.23673