/*--------------------------------*- C++ -*----------------------------------*\
  =========                 |
  \\      /  F ield         | OpenFOAM: The Open Source CFD Toolbox
   \\    /   O peration     | Website:  https://openfoam.org
    \\  /    A nd           | Version:  9
     \\/     M anipulation  |
\*---------------------------------------------------------------------------*/
FoamFile
{
    format      ascii;
    class       volScalarField;
    location    "0.0029";
    object      T;
}
// * * * * * * * * * * * * * * * * * * * * * * * * * * * * * * * * * * * * * //

dimensions      [0 0 0 1 0 0 0];

internalField   nonuniform List<scalar> 
22070
(
438.887
428.722
291.116
400.559
287.927
287.93
287.926
287.926
454.423
495.827
440.44
428.514
287.929
287.928
287.926
287.926
505.324
443.491
483.72
444.93
483.159
454.641
502.783
446.63
451.609
505.214
434.078
466.796
441.774
481.961
473.445
440.838
473.236
421.525
417.264
454.83
454.84
457.572
436.944
467.807
414.197
450.633
399.37
447.819
504.647
500.505
500.243
477.649
477.39
473.097
473.081
503.544
498.658
499.419
475.991
476.671
472.554
471.905
503.978
499.816
497.537
477.163
475.471
472.191
469.95
500.933
487.072
493.253
468.199
472.431
466.402
461.963
483.758
491.904
492.592
467.017
460.313
460.82
466.448
493.043
484.108
493.146
467.4
460.761
461.099
467.167
491.768
478.307
488.644
459.483
465.96
463.438
457.136
501.975
480.218
595.216
501.905
593.523
461.768
461.48
545.191
545.461
499.632
578.676
592.532
459.33
461.775
542.986
540.26
592.465
579.638
580.509
564.927
565.695
550.126
549.546
594.695
581.436
581.312
566.417
566.412
550.531
550.188
594.854
580.247
565.083
576.614
561.34
548.153
543.5
587.278
560.166
569.885
544.921
554.574
535.971
526.078
563.476
545.728
564.167
532.437
513.505
513.873
531.996
502.388
534.073
534.647
518.92
488.127
518.502
488.517
564.456
545.999
564.683
532.62
513.1
513.907
532.015
534.65
502.59
535.035
519.055
487.727
518.374
488.548
562.546
537.774
557.957
510.308
529.499
524.352
505.024
532.618
495.005
528.067
485.116
515.807
510.721
480.415
519.855
550.375
529.829
516.641
488.827
497.584
507.107
488.282
511.285
520.782
503.261
467.178
494.217
474.089
502.092
474.278
462.196
485.066
485.405
501.747
474.656
502.08
473.747
462.235
484.371
485.334
501.202
474.63
471.207
481.561
498.388
493.244
455.837
476.729
466.986
473.014
476.95
483.574
459.874
451.25
454.139
455.946
456.307
478.083
463.696
470.476
447.627
451.646
486.186
459.548
454.777
459.418
457.132
451.34
457.335
451.977
442.769
319.976
294.453
423.473
327.419
296.971
426.808
458.915
454.405
458.423
456.552
451.903
455.995
452.038
473.77
463.592
464.061
454.637
455.128
450.844
450.279
463.537
473.992
464.189
455.117
455.401
451.256
451.208
435.286
300.111
310.38
409.919
289.851
293.168
420.941
453.368
458.347
459.259
449.994
457.005
455.951
447.975
458.194
471.473
461.525
454.047
452.264
450.556
449.33
454.383
444.886
451.876
448.658
452.343
453.84
448.696
449.316
454.992
456.841
454.362
442.82
452.486
445.525
454.904
447.607
452.737
444.511
452.756
455.026
448.459
462.906
454.219
450.222
448.4
450.21
447.974
446.694
715.607
612.042
699.212
621.199
617.12
701.353
580.156
581.187
716.256
621.831
716.419
702.81
579.155
555.788
714.779
694.987
700.719
712.544
668.079
713.759
670.186
679.546
677.859
701.251
672.774
714.414
714.269
671.821
680.705
681.016
707.288
674.383
715.082
716.857
677.228
681.116
680.926
713.22
679.862
715.832
718.107
680.067
679.168
673.889
717.615
716.277
718.557
679.466
670.482
671.262
678.267
620.172
644.825
643.454
642.57
612.236
643.397
611.653
639.721
618.487
641.432
641.058
609.241
639.541
610.434
716.61
719.097
719.037
680.203
670.879
671.639
679.949
646.353
621.366
647.879
611.978
643.803
642.964
609.753
718.805
711.558
718.022
668.377
678.672
675.913
663.484
644.554
618.474
647.937
639.646
595.909
632.704
604.547
708.482
705.316
715.237
670.545
643.766
655.395
661.513
633.941
620.162
596.532
580.911
621.065
632.728
597.507
635.007
598.517
581.445
621.461
621.724
635.267
598.365
597.324
619.512
634.45
631.557
574.35
614.922
593.651
533.845
530.7
602.126
577.395
543.474
539.578
586.851
592.128
531.007
553.841
554.243
534.393
535.468
557.287
556.327
530.538
556.571
553.921
540.915
536.564
558.138
561.756
595.067
596.797
575.79
595.993
576.53
578.471
598.17
580.095
597.505
576.962
579.834
606.202
584.026
600.66
541.125
546.583
548.612
566.682
560.524
561.883
568.538
549.031
559.402
552.288
563.754
577.6
571.547
568.512
580.869
607.496
600.663
582.368
609.794
588.79
602.466
613.959
605.805
621.187
598.492
612.197
589.928
584.649
635.963
738.742
735.007
703.907
646.837
706.862
623.338
738.493
642.884
688.152
710.703
641.091
739.886
734.003
661.095
710.389
616.196
620.113
616.954
621.628
647.688
656.312
654.69
618.74
652.49
629.955
624.503
649.187
658.756
662.747
634.014
651.098
661.141
658.718
676.466
671.519
686.416
626.461
638.601
628.575
667.027
677.63
680.243
664.815
680.97
705.085
682.025
694.712
717.84
719.144
693.066
670.798
710.818
696.642
679.073
694.906
704.042
718.824
705.804
685.958
683.461
696.788
721.868
699.779
720.267
632.193
649.63
638.365
670.21
688.966
683.92
674.845
692.62
719.394
705.477
725.418
706.154
717.512
731.886
649.811
677.946
667.434
697.11
683.517
697.364
709.077
734.43
730.487
721.365
730.852
742.512
740.964
738.98
704.053
696.205
687.383
713.057
730.263
721.685
725.467
707.997
718.967
728.45
736.088
721.116
729.706
705.979
710.501
737.259
732.636
726.886
723.714
713.78
730.978
735.333
731.478
719.483
728.598
740.947
737.808
739.2
738.473
740.995
739.724
744.817
743.447
744.677
742.157
625.617
576.81
566.415
596.033
607.069
616.165
586.796
624.499
471.589
460.779
511.802
507.868
528.06
508.613
543.471
502.009
480.55
630.032
462.241
642.751
544.375
641.813
524.452
469.41
462.865
469.938
480.003
473.395
476.424
477.854
466.476
481.271
488.921
478.91
508.174
483.996
516.417
465.811
475.735
470.717
483.172
487.908
480.454
490.547
486.758
507.972
486.527
494.34
512.75
492.884
513.972
510.526
472.151
498.925
499.239
490.308
525.08
533.966
633.986
548.301
559.487
637.451
573.572
580.217
637.615
573.697
632.638
569.195
584.679
626.809
586.406
634.246
491.022
507.72
486.402
496.703
521.237
503.427
515.69
494.256
489.532
513.485
506.765
510.906
493.561
490.483
500.171
529.927
565.48
538.283
505.755
544.745
569.577
499.168
507.388
519.364
524.033
515.805
498.73
506.942
514.421
528.098
519.324
504.74
530.699
517.646
521.248
521.155
535.931
512.105
550.585
578.575
573.366
556.975
648.91
610.809
593.305
596.734
647.754
612.263
640.93
598.604
632.85
614.685
645.127
613.176
599.714
637.754
508.926
531.653
530.858
535.4
522.582
517.005
524.565
594.516
526.94
530.371
610.818
491.747
653.561
602.692
642.354
555.915
481.836
584.316
524.429
596.659
540.311
623.886
530.654
521.477
504.031
529.975
511.571
543.034
551.569
525.022
486.719
495.236
501.679
500.146
502.776
520.372
515.153
573.597
599.051
570.863
618.397
586.732
587.04
612.938
503.414
544.254
521.178
534.78
516.926
536.052
555.529
574.162
593.74
569.604
589.599
614.439
597.212
611.052
509.992
539.291
519.71
540.751
551.509
562.114
532.209
547.679
516.324
537.535
560.966
555.159
573.303
539.214
629.227
618.094
601.5
604.775
643.749
623.631
628.235
533.421
586.444
564.87
574.115
569.853
596.513
547.373
560.653
565.337
540.8
557.756
598.091
578.719
577.984
520.119
537.713
520.195
538.978
556.863
556.774
535.908
544.812
545.726
558.079
550.587
579.242
565.377
566.787
610.698
634.466
641.897
647.164
631.787
620.326
629.159
585.227
579.368
622.467
585.391
608.726
598.766
562.644
560.55
574.891
576.354
601.359
579.325
582.702
554.692
573.363
611.102
610.055
603
588.719
594.901
590.149
668.502
604.016
545.641
613.305
606.598
573.423
633.905
691.355
565.045
567.055
553.185
584.749
573.642
572.701
591.516
585.866
621.636
604.317
615.614
596.101
613.016
632.042
590.359
630.951
607.517
617.95
594.898
613.075
636.533
562.199
594.533
583.144
590.244
580.172
599.817
610.408
644.274
650.855
626.846
634.235
676.623
653.152
657.882
626.879
618.149
638.138
622.525
652.636
633.42
642.309
610.854
624.422
601.452
620.465
652.911
630.335
643.466
642.619
684.121
671.1
674.084
652.577
662.114
665.304
446.057
452.088
454.575
453.398
439.523
450.754
443.923
455.303
448.442
447.879
448.528
446.53
446.972
447.96
448.483
455.429
448.753
449.002
447.284
447.332
449.042
451.743
438.707
447.067
436.941
449.034
449.863
441.431
446.173
453.202
447.565
446.732
448.514
447.433
445.667
416.126
292.375
419.914
384.389
288.231
288.134
376.891
440.682
449.963
450.328
447.855
436.037
447.582
435.727
450.356
440.128
450.584
447.918
433.376
447.417
434.916
445.544
444.06
444.831
446.195
443.299
444.471
445.278
292.395
290.466
413.337
288.085
371.552
295.507
287.973
449.456
434.508
447.877
431.191
446.195
444.47
428.547
443.048
438.087
437.746
419.711
419.132
412.614
413.233
443.941
431.764
445.968
442.601
421.944
440.727
425.493
441.976
435.252
436.868
415.767
417.856
411.278
409.11
444.751
429.823
420.9
441.255
441.229
444.604
429.367
444.625
426.459
419.521
439.78
440.853
443.892
428.302
438.152
432.928
430.094
412.947
409.502
406.172
402.521
432.044
423.242
426.866
400.616
405.448
398.068
392.542
423.947
438.039
442.528
440.793
410.372
435.884
420.913
429.698
425.303
431.378
403.724
391.583
394.379
401.349
426.356
432.695
432.313
405.192
396.942
396.122
405.878
438.927
412.681
405.591
430.49
433.432
436.607
417.247
427.316
417.847
424.395
387.73
398.1
393.947
382.75
417.204
414.219
421.044
388.705
368.521
376.461
382.091
419.372
411.408
410.738
385.192
384.16
368.339
369.609
418.162
406.924
409.289
378.658
382.015
365.716
361.631
409.891
403.691
399.587
374.061
368.08
356
348.672
405.721
387.534
394.352
350.587
360.365
339.581
328.914
288.212
287.929
287.928
287.927
288.484
288.296
288.706
384.275
326.11
383.285
373.05
315.468
374.165
314.349
378.189
323.593
381.282
370.809
309.238
367.353
312.218
400.252
383.222
399.395
347.35
324.256
322.806
348.871
524.995
407.478
358.077
287.927
287.926
488.82
424.575
287.927
287.926
553.792
450.323
471.68
451.042
508.787
475.418
441.745
462.883
433.255
443.712
416.936
430.924
449.915
460.358
567.175
548.229
533.163
535.066
520.303
514.729
502.825
539.518
507.89
521.467
494.343
507.182
490.996
479.605
528.528
497.38
516.064
479.589
496.665
486.035
470.485
425.153
443.816
448.195
391.067
444.174
444.481
345.904
500.491
463.691
489.331
460.429
484.475
474.752
454.16
480.417
479.452
471.156
463.14
457.868
457.261
452.931
491.143
486.14
503.478
475.69
454.66
461.992
466.023
456.536
468.238
478.425
465.552
444.523
457.476
448.687
471.425
455.837
463.088
449.667
453.142
449.627
447.523
469.739
457.149
444.315
461.75
442.251
451.325
446.545
469.586
454.389
462.242
448.885
452.227
449.34
447.205
596.163
637.475
589.129
714.264
543.405
680.838
626.945
503.372
707.107
674.753
708.606
697.274
665.224
664.389
651.517
652.493
682.565
696.228
666.819
683.06
636.361
619.688
625.479
601.964
636.839
584.276
622.082
608.719
570.658
697.299
664.118
682.81
629.243
648.942
633.852
612.95
609.411
635.557
701.218
641.856
601.947
547.636
660.885
597.396
677.949
675.34
610.962
546.776
601.354
602.527
627.996
665.81
650.326
647.679
682.369
619.616
642.315
701.412
656.652
691.956
585.481
613.941
601.119
623.001
609.573
623.784
634.279
562.561
567.346
581.125
573.119
588.961
606.647
592.282
560.325
568.123
580.847
571.761
582.932
601.423
592.49
580.005
615.064
596.893
615.351
597.753
613.107
628.178
634.239
628.038
617.914
638.028
655.943
650.744
645.925
643.238
652.075
632.154
644.084
667.164
661.253
652.391
636.542
631.324
631.569
647.773
647.506
642.467
657.684
620.902
588.301
601.348
624.249
632.169
640.709
612.212
614.062
636.293
620.607
629.554
638.322
649.56
616.178
616.06
590.009
599.605
617.314
631.057
612.474
630.557
595.085
619.79
616.704
618.959
634.702
614.724
633.783
623.537
626.424
611.458
625.031
643.864
634.034
637.502
655.07
667.254
672.712
676.888
669.328
664.224
660.542
613.116
639.269
626.749
626.542
647.662
637.505
639.153
658.646
692.18
669.366
690.528
668.114
677.869
699.034
640.494
661.993
656.005
654.179
649.794
663.869
666.912
651.828
665.207
657.082
658.243
651.594
665.274
670.309
644.352
653.999
656.379
676.905
663.039
658.892
634.815
631.928
649.162
650.708
651.505
632.633
643.779
642.146
635.642
648.911
650.878
646.073
643.352
641.509
645.836
681.524
698.273
676.847
683.026
702.344
684.635
702.613
696.954
682.731
676.288
683.675
703.591
686.61
702.935
657.333
659.385
656.317
668.703
665.764
670.049
668.278
685.872
699.399
699.982
678.801
684.883
683.839
703.355
720.373
716.143
741.22
701.419
723.286
717.423
710.434
673.427
710.283
722.172
709.076
728.656
715.92
728.255
731.909
714.927
729.05
730.613
715.389
717.651
730.597
725.465
742.094
738.146
744.24
740.256
745.219
743.617
732.876
714.56
716.984
718.303
732.253
731.838
731.805
727.767
735.907
741.805
730.86
737.547
708.131
728.126
721.833
700.856
716.514
710.978
726.734
705.679
718.458
717.826
734.293
740.229
744.764
739.183
708.79
730.445
723.114
729.395
692.491
691.874
701.05
716.988
716.59
708.853
559.234
574.631
611.633
593.644
540.849
577.553
555.986
648.192
666.189
645.942
617.256
578.217
595.784
599.776
564.47
582.644
603.712
589.275
530.176
567.929
550.769
573.76
522.044
516.715
537.165
552.637
557.709
536.481
454.75
441.783
441.42
443.023
446.52
448.905
443.391
445.584
455.508
449.312
447.385
445.244
446.005
446.159
296.011
289.539
408.367
376.871
288.12
404.659
289.127
452.955
440.579
450.806
439.911
450.464
448.378
436.729
452.572
446.8
447.003
444.606
445.805
445.599
444.823
446.189
437.144
448.611
446.078
429.017
443.667
433.151
435.712
444.956
447.872
445.664
427.289
442.835
432.374
445.104
443.874
443.684
444.289
445.112
443.85
442.613
443.938
444.221
443.716
442.072
444.26
443.165
440.376
443.392
423.815
422.831
438.442
440.783
441.207
428.549
444.627
444.665
443.962
441.758
434.364
438.049
439.652
288.33
317.41
290.696
290.46
287.941
288.523
287.929
441.978
420.831
440.035
417.55
438.765
436.167
411.867
420.096
419.124
414.286
394.675
387.128
385.538
376.661
415.096
434.289
437.627
432.834
393.971
428.205
404.341
406.869
426.623
433.885
430.428
379.942
421.325
399.117
414.824
400.867
408.388
365.103
377.487
365.325
350.665
412.684
397.948
407.181
358.344
373.767
363.138
345.561
425.567
373.994
365.139
403.579
413.869
418.547
388.489
390.784
388.965
400.183
349.532
315.108
330.584
333.22
287.942
287.926
300.001
287.926
287.935
287.926
287.934
287.926
287.945
287.927
287.945
287.926
287.938
316.638
306.616
311.896
287.942
287.951
323.698
287.952
317.82
325.357
287.946
318.492
287.953
325.923
287.936
287.93
312.6
303.658
294.906
287.932
299.501
287.934
287.942
313.602
287.943
314.262
287.934
300.415
302.651
307.156
287.938
287.929
288.383
287.93
288.513
287.929
287.927
300.218
293.289
289.694
287.928
291.321
287.928
288.994
290.052
288.081
287.927
287.927
288.37
315.472
373.988
368.6
305.665
362.604
356.462
301.806
394.592
380.759
397.555
344.238
315.698
319.891
339.523
305.1
339.522
295.001
353.253
361.768
348.769
298.131
378.67
338.667
393.906
385.045
367.183
325.16
306.669
390.476
364.476
385.058
310.595
333.272
325.573
305.064
360.307
296.501
304.832
345.866
344.45
361.595
304.004
288.621
288.022
287.926
287.927
287.945
287.928
287.926
328.794
292.562
342.94
292.981
331.018
317.275
290.79
357.724
300.357
337.419
295.619
341.637
353.769
302.45
308.376
343.798
369.132
355.308
378.091
316.985
299.784
297.993
331.813
348.417
341.664
291.913
324.921
295.64
373.417
333.975
352.229
300.819
311.784
298.212
293.056
309.296
324.07
291.767
333.515
290.79
317.189
293.52
292.461
300.719
316.216
330.32
357.516
342.921
295.173
313.891
319.993
317.013
290.807
290.751
290.431
291.175
320.454
322.413
319.258
291.675
291.09
291.247
291.496
321.369
319.084
322.713
291.505
290.875
291.325
291.033
326.758
323.956
325.348
291.871
292.077
291.87
291.673
319.361
322.022
322.982
291.552
290.972
291.075
291.43
326.991
324.571
325.599
291.978
292.124
291.918
291.781
287.927
288.19
288.299
287.95
287.942
287.926
287.926
292.143
327.725
326.327
309.061
289.945
310.105
289.834
310.458
309.118
313.298
290.368
289.64
290.046
289.904
316.437
310.928
315.344
290.61
290.211
290.102
290.743
314.754
309.003
310.024
290.374
290.507
289.974
289.866
315.029
309.619
310.281
290.459
290.544
290.005
289.937
319.536
291.702
323.554
307.016
289.337
304.163
289.621
310.139
308.177
306.037
290.275
290.005
289.573
289.789
287.926
287.954
287.926
287.927
288.133
287.938
287.926
314.549
289.824
308.985
289.03
300.869
297.589
288.738
290.902
306.389
318.148
306.59
288.783
298.215
289.56
304.329
300.664
305.192
289.477
288.989
289.394
289.049
307.074
300.528
303.395
289.344
289.683
289.316
289.047
300.847
304.862
305.425
289.501
289.028
289.449
289.066
304.761
298.931
300.579
289.25
289.455
289.055
288.903
302.495
306.314
301.816
289.696
289.61
289.234
289.17
302.035
314.189
290.407
305.041
288.627
296.38
289.408
303.664
298.174
301.91
289.172
288.947
289.336
288.828
297.537
296.587
299.794
288.977
288.536
288.773
288.686
288.543
294.636
294.979
298.345
297.845
288.847
288.802
297.709
297.061
295.158
289.02
288.79
288.732
288.56
288.29
288.795
298.288
289.252
303.33
294.697
288.487
289.21
295.592
303.915
310.307
326.248
291.762
289.798
288.457
293.183
294.01
295.733
296.937
288.721
288.612
295.347
291.852
293.383
288.392
288.576
288.401
288.263
288.216
288.3
292.255
294.378
293.011
288.49
288.367
297.11
288.744
291.677
288.214
291.469
297.648
288.698
296.08
288.493
288.179
290.527
291.064
294.726
288.61
288.315
292.226
292.447
290.658
290.521
288.156
288.144
297.779
288.351
290.399
288.31
292.654
293.151
288.746
288.26
291.28
291.82
289.922
290.265
288.122
288.093
290.452
288.139
288.074
290.65
291.746
288.254
288.156
288.367
289.939
293.262
291.868
288.04
289.376
288.247
287.927
287.926
287.926
287.943
287.926
287.927
287.926
288.146
288.461
294.421
288.235
291.757
289.506
288.049
288.104
288.158
290.67
289.537
289.155
288.06
288.028
496.534
505.253
491.265
453.21
474.692
457.374
493.152
453.087
458.157
497.199
456.896
494.55
448.654
493.045
453.024
458.573
499.654
505.61
470.45
436.953
457.309
455.222
446.104
489.686
495.799
473.998
496.342
495.019
495.709
474.602
473.94
495.652
497.883
496.346
475.598
474.737
474.044
474.9
502.248
500.164
502.172
477.108
478.383
476.233
477.087
504.165
503.419
503.215
479.131
479.037
477.312
476.798
468.587
471.96
495.011
491.209
494.659
471.907
468.532
491.805
496.777
495.294
471.969
469.314
472.808
468.545
504.751
502.623
500.171
478.432
476.598
475.184
472.367
498.677
495.087
499.867
470.105
473.907
474.405
470.218
499.411
494.698
500.102
474.174
467.731
472.925
469.564
501.884
488.872
495.605
468.814
473.411
468.34
463.301
497.263
484.579
493.281
464.753
470.488
466.935
460.933
459.68
458.374
460.84
458.064
460.606
459.416
457.095
457.877
460.994
460.476
459.269
457.188
459.768
456.926
458.624
461.781
462.124
457.501
460.461
460.692
457.334
479.853
477.937
487.385
462.501
452.826
456.815
457.686
461.3
458.101
461.952
460.433
454.923
459.661
456.467
456.617
455.681
458.136
457.808
453.088
455.456
456.194
457.64
452.983
456.502
455.52
458.138
455.314
456.006
457.103
455.689
458.766
458.958
452.299
455.268
457.281
460.236
458.926
453.089
452.811
458.542
457.056
450.285
458.735
452.112
455.962
450.805
457.931
454.024
456.957
450.412
447.235
455.273
455.226
444.091
447.337
453.12
449.708
454.47
456.599
454.93
443.306
446.95
452.689
598.191
579.748
703.717
573.975
733.162
561.958
521.4
597.25
521.267
571.084
518.962
533.207
591.553
523.981
524.877
599.66
564.44
522.74
594.788
604.542
531.272
535.218
499.524
522.14
603.5
690.525
652.2
663.065
619.234
576.094
582.489
626.949
599.738
579.082
608.437
552.441
557.43
563.607
558.633
566.661
572.661
575.175
554.294
560.621
560.704
567.052
574.163
573.087
587.811
581.349
568.06
573.936
579.269
600.984
523.17
488.574
458.032
484.839
542.008
571.609
633.901
719.422
682.747
674.844
588.128
633.352
590.23
624.036
588.8
617.704
569.993
570.322
565.378
574.272
582.728
593.021
585.101
572.286
567.546
573.48
576.92
586.433
579.405
594.638
602.756
585.088
583.87
588.479
596.338
595.442
590.393
579.073
582.127
582.655
580.337
612.214
613.235
610.248
593.224
590.683
591.26
589.487
555.644
517.016
540.772
545.056
523.604
559.54
519.431
516.717
537.057
536.331
540.691
521.482
541.457
519.216
601.13
605.968
607.191
583.089
585.711
587.763
581.77
541.48
526.933
547.616
525.188
545.975
551.847
528.948
557.553
530.53
553.2
556.693
533.234
560.005
531.666
608.226
604.537
610.36
586.548
567.632
576.759
580.55
560.476
521.573
524.227
548.563
518.727
520.584
549.14
544.548
519.041
546.935
522.867
545.46
520.585
545.815
561.233
536.385
564.601
534.028
562.57
564.368
533.333
609.979
614.227
609.57
590.213
582.147
581.296
570.077
550.897
526.236
549.894
554.994
525.523
528.989
554.429
558.264
530.688
525.781
556.191
559.977
530.365
555.979
565.274
535.539
566.743
563.518
523.02
529.888
558.416
588.629
587.574
600.58
555.22
569.97
556.12
540.79
587.711
599.138
584.516
551.176
567.712
554.843
537.898
529.829
554.957
560.911
560
516.99
526.797
551.175
555.76
533.843
512.068
509.286
520.878
544.094
547.528
558.844
512.998
548.821
511.861
547.732
535.756
500.839
558.517
557.147
573.782
540.389
509.722
523.829
525.379
521.358
501.092
535.875
522.044
477.419
507.754
489.031
498.623
517.103
533.289
520.668
475.021
504.855
487.799
580.972
625.233
670.581
623.021
702.437
585.884
651.889
640.883
598.31
631.492
570.448
638.527
621.778
588.641
604.735
671.227
631.118
646.777
604.438
618.329
646.271
629.271
663.457
648.975
647.417
631.549
610.131
628.247
648.137
572.975
593.574
582.463
594.884
589.342
605.101
607.061
689.011
673.812
666.138
690.004
670.184
649.807
664.268
763.64
785.398
744.667
704.747
727.271
814.048
672.444
748.125
630.852
741.365
832.413
729.242
622.957
614.961
569.161
584.658
762.18
782.729
737.365
783.464
708.842
763.214
734.867
692.66
683.659
670.178
691.006
712.267
708.645
729.421
720.311
767.113
740.392
743.861
731.001
752.55
767.2
696.668
710.388
763.022
594.153
656.325
675.842
605.488
760.716
730.955
718.176
762.987
736.691
756.023
786.201
789.509
789.107
763.998
780.176
827.695
795.918
810.85
805.981
836.565
809.054
825.636
793.699
764.162
789.091
707.488
736.951
719.743
716.302
725.867
745.351
732.476
686.518
714.4
731.657
752.138
643.228
735.453
700.913
806.947
723.446
787.079
693.815
634.151
619.398
704.898
669.147
571.696
611.857
595.867
689.846
629.399
582.379
575.947
571.995
576.898
589.835
586.953
582.786
582.482
783.941
753.627
760.01
772.036
776.378
753.96
802.441
779.319
736.441
789.966
658.611
762.173
719.139
808.943
737.582
610.134
714.807
648.946
608.091
595.917
663.414
599.205
599.276
609.408
605.458
606.479
595.443
619.764
626.781
606.068
608.419
622.423
629.675
624.889
620.516
607.339
607.118
615.995
622.812
623.47
618.012
635.634
649.231
648.267
630.391
638.577
627.231
627.104
645.719
646.529
708.868
667.56
649.79
627.473
695.161
651.861
713.858
691.532
653.372
672.934
693.466
704.844
668.792
676.079
676.175
674.926
703.361
709.042
709.674
677.036
672.732
707.057
711.946
711.367
679.275
677.362
678.144
674.314
642.126
630.865
632.101
632.271
650.426
651.827
628.075
704.177
710.034
705.361
673.478
652.648
665.07
664.621
650.908
618.014
627.364
647.566
606.837
638.923
619.123
647.067
627.122
616.604
647.865
605.452
638.793
618.777
613
576.719
592.792
591.829
606.927
627.083
639.315
724.878
708.981
658.937
693.745
740.219
713.15
737.283
701.674
666.3
680.974
666.742
677.387
690.513
690.825
702.012
586.17
763.455
784.439
764.747
680.106
590.204
656.043
673.715
585.945
695.458
772.978
732.229
768.97
775.82
805.048
784.979
799.834
774.115
718.146
686.426
677.3
713.14
704.249
672.487
704.201
783.302
754.241
772.193
759.758
789.457
764.872
772.078
665.315
640.748
563.868
696.477
626.677
671.809
618.04
736.721
710.779
675.096
679.912
790.246
790.658
670.72
651.211
623.576
688.131
578.644
635.094
670.414
607.305
747.689
769.921
743.515
763.248
735.976
735.998
762.983
674.442
710.66
705.113
666.98
670.155
703.052
695.488
784.917
770.043
759.937
796.846
792.29
776.006
789.201
741.151
736.516
743.006
752.277
756.625
761.161
758.503
793.283
774.417
789.206
782.91
773.266
785.528
795.252
591.737
573.4
574.923
597.812
596.656
586.64
606.75
739.602
762.82
736.534
732.885
741.353
756.981
721.843
605.644
581.058
618.773
647.932
609.268
603.528
628.87
655.308
745.533
720.446
700.492
654.55
634.691
720.655
804.158
790.006
784.384
783.057
795.329
802.239
786.949
748.864
767.62
749.579
771.356
793.45
790.18
772.984
801.279
787.409
768.529
793.645
779.911
802.104
796.253
684.32
667.964
625.834
648.456
603.904
634.348
615.227
612.837
643.92
650.67
646.026
633.72
628.123
631.586
635.302
646.223
650.681
659.607
643.712
626.142
633.974
642.696
660.89
655.489
658.384
640.295
648.193
650.284
640.829
607.904
599.921
605.624
618.187
611.55
616.32
619.686
675.792
664.131
676.414
645.211
656.683
653.458
651.137
622.265
602.314
607.124
617.242
613.288
618.558
625.47
616.518
614.341
621.222
625.725
635.866
634.119
626.433
625.86
638.84
623.725
626.912
640.738
634.303
631.781
528.796
648.505
538.366
539.199
530.339
564.667
595.637
603.046
620.051
630.907
641.425
574.596
602.27
660.125
603.876
612.492
558.581
599.216
565.671
564.899
621.208
597.427
593.483
532.021
545.006
537.882
548.915
555.751
571.389
543.537
605.863
578.969
553.75
613.98
575.528
598.08
598.613
605.661
639.83
626.889
622.483
630.563
617.999
626.524
527.914
533.273
530.202
542.271
538.433
539.048
542.823
630.916
655.59
612.084
629.239
657.066
649.007
625.874
534.657
544.093
542.48
549.236
557.249
548.93
564.158
638.407
644.986
650.989
627.252
629.861
637.616
624.826
573.549
577.061
582.486
607.922
595.819
561.24
598.796
595.517
625.96
616.25
631.849
613.857
619.2
617.625
611.449
593.251
611.131
604.725
606.649
609.056
604.093
610.941
619.07
604.583
598.374
615.217
610.831
599.735
571.127
575.98
582.554
623.548
563.23
594.972
600.051
623.031
658.569
631.931
638.507
643.502
630.799
618.619
615.821
620.119
617.95
601.67
626.085
611.522
606.227
558.151
550.145
570.151
570.925
552.773
554.979
580.789
659.574
652.741
674.121
843.972
638.422
648.458
551.211
673.57
626.434
590.633
621.237
633.922
621.252
641.177
639.243
563.203
558.257
587.312
569.804
590.816
622.674
592.149
658.709
650.248
646.169
657.29
654.291
666.153
648.21
639.695
620.548
623.03
629.886
636.51
647.935
633.386
618.224
586.37
625.699
654.155
680.781
679.115
630.781
666.285
632.888
644.436
597.15
622.118
646.482
629.874
639.073
658.573
628.645
660.617
645.203
668.944
638.782
748.692
740.774
698.977
676.414
756.277
706.891
679.387
710.455
757.309
744.839
632.579
653.315
747.779
645.547
694.116
770.059
661.991
688.702
679.915
707.144
658.365
679.408
682.768
744.385
671.737
713.089
734.361
727.591
787.738
745.705
691.346
714.68
712.625
668.321
661.668
683.369
690.508
717.165
765.663
737.635
734.248
707.533
712.592
740.188
640.64
636.034
641.008
658.535
666.907
665.719
662.214
664.134
659.968
646.5
670.894
693.056
688.004
672.215
743.8
769.972
742.443
712.769
749.03
720.791
740.322
739.48
726.476
730.538
718.135
738.272
733.957
734.554
743.052
739.938
747.861
729.476
733.597
737.149
748.616
720.098
685.631
694.346
694.967
714.975
721.667
690.04
700.348
727.135
722.799
745.868
718.911
727.525
701.319
749.83
740.529
741.331
744.509
763.624
750.099
751.385
687.393
689.113
697.46
717.882
695.895
709.81
713.058
726.815
733.784
730.559
740.525
745.811
747.264
741.802
745.906
715.114
718.292
731.49
758.332
751.487
731.471
718.423
706.604
722.336
729.749
632.957
645.743
684.734
680.054
654.994
675.526
665.173
680.775
651.597
670.319
668.975
676.748
701.192
692.581
684.307
670.254
687.47
702.018
701.25
725.59
700.398
692.665
719.408
694.176
716.014
723.351
716.152
713.999
723.876
708.906
706.144
725.746
638.77
636.224
642.451
663.674
658.076
663.33
658.711
701.862
701.12
683.953
657.491
663.694
681.789
676.634
739.152
735.052
716.749
701.606
720.534
723.818
697.349
686.849
705.621
712.886
683.162
688.494
710.684
682.065
735.35
755.034
720.895
750.146
730.651
748.937
736.143
742.402
766.84
764.557
772.492
757.519
748.631
751.739
571.059
514.977
583.094
506.21
514.839
925.018
701.188
535.929
661.19
526.565
661.063
629.834
647.292
567.014
547.863
534.082
683.521
666.679
662.281
657.41
667.504
657.411
673.619
683.199
656.45
659.666
651.508
655.057
650.44
651.068
638.942
643.754
646.349
687.847
673.484
748.49
701.756
735.096
817.457
675.097
668.78
660.948
659.09
652.96
635.635
644.708
514.806
460.833
538.859
585.875
624.498
581.904
521.581
579.866
530.954
459.786
610.846
588.646
520.173
584.91
651.557
652.82
684.027
698.613
650.758
654.851
710.687
632.819
524.875
639.72
650.81
529.867
532.636
628.483
620.526
639.532
634.289
618.544
616.507
632.532
597.596
524.236
624.214
616.19
589.964
516.161
506.43
607.629
811.914
854.741
752.892
786.515
916.528
817.641
887.58
518.277
619.687
639.579
684.409
551.608
540.136
704.275
624.39
646.878
634.018
612.989
629.75
632.775
599.749
524.868
619.179
609.353
579.908
545.434
515.342
597.612
561.929
558.968
514.484
503.791
502.736
583.129
542.337
652.616
532.332
593.621
518.967
531.526
615.905
639.857
472.826
475.52
489.782
470.755
487.83
505.481
489.875
469.054
472.355
483.212
468.269
481.573
502.7
488.21
701.631
559.935
765.539
568.589
551.042
703.275
746.921
508.507
546.437
521.428
550.887
523.54
534.699
557.83
558.953
538.572
577.182
553.565
522.636
583.527
549.744
494.747
544.914
511.489
547.055
511.572
531.507
562.12
552.331
556.68
535.41
550.13
585.3
569.565
569.688
530.323
491.355
504.513
528.024
537.616
512.145
553.302
527.631
493.581
507.696
525.268
536.002
547.687
512.022
564.586
562.131
541.552
555.012
593.572
577.511
574.628
495.244
536.678
511.873
529.369
541.305
554.851
514.924
492.995
534.542
506.985
529.376
541.575
556.64
514.282
554.563
562.158
531.995
552.45
595.01
573.308
578.383
565.463
558.927
534.824
554.2
599.443
577.244
580.947
805.31
772.699
792.614
783.241
821.562
805.588
787.686
618.538
646.164
647.118
623.6
622.361
631.808
656.531