/*--------------------------------*- C++ -*----------------------------------*\
  =========                 |
  \\      /  F ield         | OpenFOAM: The Open Source CFD Toolbox
   \\    /   O peration     | Website:  https://openfoam.org
    \\  /    A nd           | Version:  9
     \\/     M anipulation  |
\*---------------------------------------------------------------------------*/
FoamFile
{
    format      ascii;
    class       volVectorField;
    location    "0.0029";
    object      U;
}
// * * * * * * * * * * * * * * * * * * * * * * * * * * * * * * * * * * * * * //

dimensions      [0 1 -1 0 0 0 0];

internalField   nonuniform List<vector> 
22070
(
(32.4925 -126.907 289.881)
(67.8977 -125.679 276.864)
(0.821396 -3.03973 8.12029)
(57.6549 -106.566 245.605)
(9.12104e-05 -0.00152287 0.00456421)
(0.00261084 -0.00479036 0.0110701)
(6.66983e-06 -5.1299e-05 0.000142163)
(1.40825e-05 -2.90136e-05 8.15432e-05)
(30.1574 -85.2732 286.915)
(49.2821 -67.6667 170.196)
(30.7513 -86.4782 304.644)
(64.4758 -86.764 292.405)
(0.00069076 -0.00108704 0.0088793)
(0.00101903 -0.000735516 0.00545459)
(5.57692e-05 -0.000180975 0.00101023)
(9.84354e-05 -0.000118593 0.000641417)
(22.1709 -64.9727 157.307)
(32.1349 -116.808 294.392)
(23.9681 -88.8941 177.15)
(4.82619 -115.534 294.17)
(3.69443 -86.8108 172.483)
(13.2714 -84.097 282.794)
(3.39593 -63.3152 151.32)
(66.1541 -89.2672 295.448)
(47.7567 -86.9523 292.194)
(28.5931 -65.2787 159.958)
(68.3334 -118.033 284.688)
(53.721 -93.5616 187.233)
(41.3032 -117.194 293.094)
(31.0128 -89.6007 178.894)
(24.8114 -98.5371 183.847)
(4.73641 -126.031 291.299)
(3.8111 -96.2527 179.344)
(3.97407 -146.425 263.964)
(30.8835 -144.009 258.797)
(4.0749 -118.438 195.037)
(27.0053 -121.212 200.034)
(55.8175 -104.057 194.57)
(41.703 -126.941 287.779)
(39.7412 -100.513 187.836)
(39.0557 -141.728 254.241)
(43.4221 -124.188 205.37)
(58.1248 -128.765 228.109)
(52.2053 -126.561 209.43)
(15.9042 -64.6048 154.976)
(22.6179 -72.2685 164.12)
(16.2563 -71.8771 162.097)
(24.4339 -70.5327 189.349)
(17.6348 -70.1745 186.965)
(17.9939 -78.1137 193.915)
(24.9337 -78.5549 196.154)
(9.42894 -63.9804 153.206)
(3.48458 -70.4608 158.667)
(9.64109 -71.2626 160.542)
(3.86862 -68.9481 183.238)
(10.6305 -69.5987 185.066)
(10.8502 -77.5066 192.126)
(3.95407 -76.7411 190.263)
(35.2638 -65.9112 163.068)
(29.2106 -72.7108 166.346)
(36.0898 -73.4511 168.977)
(31.3934 -70.9539 192.117)
(38.6409 -71.634 195.404)
(32.0732 -79.1257 198.748)
(39.5482 -79.9841 201.838)
(42.1923 -66.7196 166.503)
(50.4762 -75.5325 175.406)
(43.1767 -74.3816 172.014)
(53.8755 -73.6434 203.526)
(46.1094 -72.5216 199.222)
(47.2722 -81.1077 205.563)
(55.3342 -82.5164 209.941)
(10.2525 -87.8327 174.282)
(3.59101 -78.247 165.673)
(9.9278 -79.1838 167.506)
(11.1252 -86.2153 199.467)
(4.15601 -94.9443 205.575)
(11.4723 -95.8701 207.513)
(4.04828 -85.364 197.564)
(23.2297 -80.1903 170.656)
(17.2141 -88.3906 175.551)
(16.7003 -79.7621 168.885)
(18.4507 -86.8441 201.205)
(26.4311 -97.2303 211.431)
(19.0096 -96.5397 209.246)
(25.6059 -87.4133 203.366)
(30.0342 -80.7745 172.567)
(38.3281 -90.5886 181.082)
(37.1186 -81.6252 174.885)
(34.1202 -98.1493 214.045)
(32.9835 -88.155 205.896)
(40.7203 -89.1829 208.99)
(42.2033 -99.4417 217.31)
(22.6152 -90.3896 155.187)
(50.9806 -95.1307 163.982)
(15.0149 -60.8614 73.582)
(3.37928 -88.264 151.363)
(6.19656 -59.8517 70.6111)
(3.80235 -120.239 172.121)
(25.7676 -122.892 175.986)
(2.83351 -89.1978 102.442)
(19.284 -91.6298 106.122)
(29.39 -91.0785 156.599)
(35.7156 -65.6295 86.1142)
(24.9519 -62.2201 77.9051)
(33.4632 -123.964 177.565)
(47.2947 -114.958 174.493)
(25.2474 -92.5785 107.548)
(41.2265 -86.802 106.447)
(2.29438 -58.3286 68.9746)
(2.4817 -67.4159 80.0882)
(6.73487 -68.9861 81.7193)
(2.68377 -70.0315 95.4401)
(7.48608 -71.4547 97.0003)
(8.00016 -80.8948 105.847)
(2.85157 -79.4763 104.335)
(10.6087 -60.6195 71.8925)
(16.3371 -69.9013 84.338)
(11.5719 -69.5815 82.811)
(17.9184 -72.349 99.1964)
(12.748 -72.0256 97.9186)
(13.578 -81.3502 106.642)
(19.0523 -81.7265 107.819)
(19.781 -61.3402 75.4548)
(21.4925 -70.5395 86.0723)
(23.4515 -72.9149 100.68)
(26.9471 -71.5542 88.4967)
(29.289 -73.8387 102.822)
(24.9052 -82.3752 109.285)
(30.9966 -83.3861 111.446)
(30.2573 -63.6061 81.4862)
(38.3168 -75.6115 96.3605)
(32.5071 -73.252 91.9859)
(41.4477 -77.0777 109.941)
(35.2721 -75.2188 105.946)
(37.2262 -84.9977 114.511)
(43.7283 -87.1062 118.309)
(2.65789 -77.7033 91.2912)
(7.98037 -90.6864 104.048)
(7.32623 -79.2132 92.9604)
(8.48626 -91.16 114.728)
(3.12839 -101.084 122.106)
(9.02689 -102.385 123.556)
(2.98291 -89.831 113.204)
(9.55879 -89.4198 153.027)
(3.02338 -79.7626 123.797)
(8.54966 -81.0977 125.368)
(9.0096 -90.7134 132.852)
(3.50896 -98.0325 158.104)
(3.15447 -89.4246 131.335)
(9.99633 -99.2131 159.7)
(17.7622 -80.1425 95.2544)
(13.6947 -91.1375 104.869)
(12.594 -79.7213 93.8866)
(14.4147 -91.5798 115.434)
(21.5344 -103.327 125.399)
(15.3317 -102.799 124.244)
(20.2382 -92.0352 116.573)
(20.3905 -81.9706 127.346)
(16.1659 -89.9161 153.95)
(14.5363 -81.5865 126.189)
(15.273 -91.1541 133.574)
(23.5514 -100.252 161.761)
(21.4159 -91.5933 134.638)
(16.8415 -99.7117 160.57)
(23.3216 -80.9145 96.8726)
(31.406 -94.0175 109.68)
(29.1149 -82.1502 99.167)
(28.1127 -104.222 126.772)
(26.4455 -92.7801 118.03)
(32.8487 -93.9579 120.156)
(34.8657 -105.57 128.825)
(26.6028 -82.6336 128.698)
(36.3772 -92.0861 158.479)
(33.0516 -83.5949 130.663)
(30.5979 -101.027 163.123)
(27.9143 -92.2986 135.958)
(34.607 -93.349 137.868)
(37.8541 -102.128 164.973)
(44.3785 -99.1113 116.231)
(35.0046 -84.1607 102.438)
(37.6957 -96.281 112.64)
(39.3979 -95.7832 123.096)
(49.0845 -110.027 134.78)
(41.792 -107.576 131.547)
(46.2935 -98.0941 126.629)
(43.5366 -93.4533 160.977)
(46.4733 -86.7066 136.776)
(39.6485 -84.9762 133.394)
(41.4392 -94.8813 140.503)
(53.0308 -105.571 170.474)
(48.5668 -96.7884 143.678)
(45.2837 -103.664 167.442)
(9.47951 -101.089 140.173)
(3.64488 -108.621 164.877)
(11.0015 -121.45 173.67)
(3.42916 -111.003 146.046)
(9.98059 -112.245 147.46)
(3.28772 -99.8566 138.682)
(10.4623 -109.805 166.453)
(16.0323 -101.537 140.85)
(24.5815 -111.012 168.546)
(18.4293 -122.074 174.654)
(23.6497 -113.324 149.303)
(16.8651 -112.725 148.18)
(22.4781 -102.036 141.927)
(17.581 -110.353 167.329)
(31.9128 -111.902 169.952)
(30.7837 -114.198 150.604)
(29.2831 -102.813 143.231)
(36.273 -103.976 145.113)
(41.4492 -125.529 179.786)
(38.0848 -115.514 152.486)
(39.4728 -113.174 171.895)
(45.8599 -91.9103 183.863)
(51.9466 -84.1164 180.989)
(44.3976 -82.7313 177.705)
(48.7556 -90.575 212.834)
(59.5383 -103.434 226.321)
(50.6378 -101.224 221.47)
(57.1927 -92.3642 217.487)
(55.5465 -117.237 177.751)
(50.8947 -107.734 150.677)
(53.4771 -119.626 157.931)
(45.5953 -117.348 154.965)
(58.5335 -130.354 186.644)
(49.7654 -127.665 182.811)
(43.4311 -105.659 147.632)
(26.9182 -76.7861 231.378)
(21.6574 -84.6841 284.712)
(19.4058 -76.2654 228.551)
(19.87 -85.5058 236.864)
(30.8721 -95.5887 292.595)
(27.6247 -86.1692 239.524)
(22.1355 -95.0038 291.013)
(13.5715 -86.1892 306.302)
(7.48366 -20.676 75.9453)
(1.6369 -5.72229 16.2312)
(30.577 -110.717 284.233)
(1.24778 -25.1267 93.946)
(0.246739 -7.85713 22.1407)
(4.49649 -111.123 287.779)
(11.8603 -75.6676 226.296)
(4.84357 -83.5752 281.14)
(4.35028 -75.0792 224.405)
(12.1222 -84.8372 234.746)
(4.86977 -93.8455 287.946)
(4.4288 -84.1357 232.871)
(13.5251 -94.4286 289.47)
(10.6462 -97.3425 181.102)
(3.93632 -106.701 186.614)
(11.0935 -107.825 188.362)
(4.27467 -105.665 214.71)
(11.8882 -106.675 216.667)
(12.3847 -118.997 227.12)
(4.39682 -117.939 225.211)
(25.8178 -109.232 191.217)
(17.8145 -97.9335 182.304)
(18.5177 -108.473 189.596)
(27.4541 -108.303 220.728)
(19.6959 -107.425 218.436)
(20.5407 -119.842 228.868)
(28.7305 -120.912 231.242)
(47.8703 -86.7131 300.067)
(6.16722 -8.20592 29.5006)
(8.32461 -14.8057 53.1214)
(60.9912 -105.153 263.145)
(1.02826 -1.72532 4.92138)
(1.68903 -4.6221 13.1399)
(38.9452 -110.013 280.912)
(38.8342 -86.0133 289.48)
(42.6576 -78.4232 238.744)
(34.6004 -77.4497 234.747)
(39.7599 -96.3086 294.112)
(35.6037 -87.0752 242.87)
(44.0084 -88.3592 247.15)
(48.8317 -97.2361 295.131)
(41.3924 -111.615 195.702)
(32.1293 -99.3602 185.588)
(33.4397 -110.218 193.152)
(35.5364 -109.498 223.526)
(44.0487 -111.084 226.896)
(37.3098 -122.435 234.375)
(46.3679 -124.583 238.715)
(12.4719 -95.1638 243.896)
(13.9477 -116.105 294.954)
(4.61773 -106.053 253.138)
(4.86572 -104.63 293.059)
(12.9217 -106.971 255.183)
(4.51993 -94.356 241.913)
(13.762 -105.216 294.223)
(56.8744 -88.065 294.43)
(60.0098 -81.501 249.733)
(51.0903 -79.7712 243.64)
(52.8554 -90.1024 252.627)
(67.2271 -99.2096 294.309)
(62.2492 -92.31 258.869)
(58.0143 -98.2508 295.272)
(20.4931 -95.9389 246.131)
(31.5646 -106.27 295.432)
(29.7863 -108.928 260.33)
(22.9901 -116.479 294.959)
(21.2929 -107.865 257.44)
(28.566 -96.7845 249.077)
(22.6013 -105.744 294.981)
(47.5875 -102.073 190.817)
(49.6671 -113.486 199.119)
(58.399 -115.906 203.494)
(62.4595 -116.134 237.241)
(52.9822 -113.274 231.3)
(55.9408 -127.399 244.149)
(66.0746 -130.805 250.254)
(-0.430802 -4.02921 174.971)
(29.4406 -52.2619 69.9051)
(-4.69285 54.1817 125.54)
(11.7122 -47.006 55.6873)
(1.67613 -44.153 49.7056)
(1.3676 44.9778 121.511)
(2.42246 -74.9685 93.5352)
(16.9118 -77.9032 97.2767)
(14.47 -9.40136 169.784)
(15.6591 -47.4339 58.0647)
(3.5473 20.1374 109.692)
(2.3893 40.5528 117.197)
(22.3287 -79.0754 98.2334)
(39.6792 -86.8916 105.644)
(18.8585 -12.3719 164.375)
(27.788 -29.8003 151.273)
(-2.34586 52.0214 125.752)
(-3.20235 37.4793 147.329)
(-2.18655 14.2333 68.5979)
(0.0574351 35.3858 147.362)
(-0.821797 12.6307 70.7764)
(0.684902 2.63574 98.4211)
(-1.47235 4.44615 96.5742)
(-0.694508 48.7055 124.406)
(2.75156 8.22953 73.7446)
(6.58747 29.6148 142.145)
(3.1663 32.5234 145.625)
(0.619961 10.218 72.5915)
(3.33541 0.350672 99.2977)
(6.54938 -1.70361 98.9424)
(3.01508 35.2678 112.76)
(4.73938 5.60275 74.0333)
(8.90271 25.5587 136.976)
(10.5443 20.4587 131.686)
(7.11331 2.28769 74.1929)
(9.54843 -4.68228 97.2763)
(12.5271 -8.49311 95.6791)
(3.10192 28.3908 110.054)
(11.8134 -7.85154 79.2996)
(12.4958 5.60872 126.436)
(11.4927 13.7073 128.02)
(9.30427 -2.18019 75.8866)
(15.1546 -13.5949 95.6471)
(18.0803 -19.8098 97.252)
(-1.76088 17.624 163.252)
(4.33888 -5.84435 175.354)
(2.23684 15.6911 163.447)
(2.2925 -11.9896 120.638)
(0.251994 -27.8681 135.979)
(4.00107 -29.8252 137.494)
(-0.623687 -10.0828 118.968)
(8.0493 -46.7403 53.4674)
(7.21438 -25.7444 52.0364)
(4.4311 -25.1284 49.4865)
(6.04037 -32.9037 68.632)
(13.3168 -55.7197 70.0546)
(9.40993 -33.7914 70.4858)
(9.23821 -55.3252 68.2382)
(0.366186 -22.2009 45.0293)
(4.55748 -45.6782 51.609)
(2.1379 -23.637 47.1331)
(2.95317 -31.5498 66.807)
(1.91272 -52.8559 64.839)
(0.673171 -29.9371 64.7866)
(5.18797 -54.4738 66.7225)
(9.47906 -7.60221 173.699)
(10.8528 11.2289 157.949)
(6.48062 13.4444 161.673)
(6.02368 -13.9825 120.895)
(13.4159 -33.3127 135.131)
(8.59933 -31.5302 137.316)
(10.1616 -15.9727 119.431)
(10.1969 -26.6392 54.6088)
(20.1409 -48.3208 60.8074)
(13.8432 -28.0622 57.3249)
(17.7831 -56.4378 71.8964)
(13.1186 -35.2357 72.0518)
(17.2091 -37.2415 74.0197)
(22.6164 -57.6028 74.3004)
(14.1764 7.66706 152.46)
(22.3864 -16.6524 158.776)
(17.0299 2.97097 146.843)
(18.0097 -35.8606 131.738)
(14.007 -18.853 116.595)
(17.646 -22.6631 113.811)
(22.2817 -39.3693 128.346)
(21.4031 -33.7595 66.6041)
(24.7348 -49.8556 64.7749)
(17.5606 -30.3744 61.3083)
(21.2477 -40.2616 77.2633)
(32.5891 -62.4344 82.4634)
(25.5032 -44.3003 81.6383)
(27.4946 -59.5882 77.883)
(20.611 -11.2389 140.151)
(25.0518 -22.6512 154.39)
(18.785 -3.49962 142.69)
(20.8683 -27.8809 112.493)
(30.2865 -50.3838 125.23)
(26.1621 -44.3492 126.198)
(24.3133 -34.2305 112.52)
(3.9943 -42.3292 85.2964)
(1.54626 -54.0953 99.7408)
(2.16428 -63.0882 79.6399)
(6.74062 -76.5994 95.3488)
(5.14797 -55.8789 101.673)
(1.08821 -40.6331 83.2838)
(5.91715 -64.6922 81.5414)
(7.84293 -43.5233 86.6546)
(15.0636 -65.9708 84.1079)
(11.8652 -77.2207 96.2682)
(14.3309 -58.1383 103.061)
(9.69894 -56.9356 102.614)
(11.8757 -44.6504 87.7605)
(10.5027 -65.4043 82.7314)
(20.0164 -66.9327 85.4924)
(19.2098 -59.9631 103.151)
(16.1913 -46.3905 88.4903)
(20.722 -48.8019 89.6651)
(27.9452 -80.8292 99.7904)
(24.2225 -62.5077 103.698)
(25.228 -68.4369 87.4472)
(-50.6981 99.6722 6.85319)
(-7.83387 70.8515 -18.1724)
(-25.1201 98.8113 115.976)
(-0.953211 28.4288 93.8784)
(-12.7903 21.644 16.3185)
(0.736128 -2.61137 3.82169)
(5.82657 -29.1131 103.919)
(9.53177 -5.9378 101.255)
(-25.3495 76.9264 -9.85334)
(-5.89292 66.4604 37.5088)
(-20.9943 72.2929 40.1498)
(-3.60118 31.1973 -6.70168)
(-16.3437 38.8814 -0.258179)
(-12.6141 33.9959 46.0044)
(-1.93834 26.6142 44.1724)
(-40.6534 84.8231 0.156205)
(-41.4576 95.4282 45.1512)
(-33.4297 80.8774 43.8536)
(-33.2914 68.9675 13.5051)
(-26.9554 50.7282 8.50613)
(-20.6781 46.2198 50.0199)
(-25.0944 63.5959 50.9922)
(-4.04597 70.5616 133.508)
(-0.192204 36.4931 135.269)
(-4.98294 65.464 91.1177)
(-12.8996 75.3174 128.877)
(-18.4668 70.9969 89.1209)
(-9.96114 35.1897 91.9057)
(-4.96299 42.3367 131.252)
(-34.872 95.9646 83.2926)
(-19.6007 85.2403 123.21)
(-28.5461 81.2132 87.1214)
(-15.6022 47.1293 91.0725)
(-10.5003 67.09 121.257)
(-19.132 62.9718 87.8418)
(-8.35299 53.0245 127.147)
(-6.66829 6.37062 9.22426)
(3.4945 -29.2005 15.6392)
(2.26237 -19.721 18.9485)
(5.32224 -32.4601 59.7145)
(2.33964 -6.467 51.1551)
(-3.02146 2.55865 53.236)
(5.88945 -23.1042 60.8603)
(-16.8542 41.9739 20.2201)
(-2.28384 18.1655 27.3517)
(-0.199848 -2.91285 24.1338)
(-6.27854 17.6641 56.2743)
(5.87183 13.0247 63.596)
(5.92053 -6.85102 63.0045)
(-8.45862 37.0086 57.1371)
(3.37073 -4.67749 98.1433)
(5.4618 -16.9737 143.011)
(2.71451 6.316 138.811)
(-0.507353 3.59113 97.1246)
(9.74533 -10.0414 140.119)
(7.75786 -20.5298 102.795)
(3.22811 12.9416 135.76)
(12.8585 1.03774 135.929)
(3.28114 24.5851 131.402)
(15.2879 14.5617 130.358)
(10.9748 11.6468 98.3571)
(3.64216 39.2449 125.91)
(-2.98091 35.7627 93.0167)
(-2.05348 17.8502 95.7458)
(4.43699 -0.963808 173.188)
(-4.29174 48.5193 124.528)
(-0.200075 11.9745 194.021)
(-5.70682 79.0971 159.794)
(-5.44936 84.7446 170.409)
(1.84003 71.9244 146.741)
(-11.5755 98.6939 134.681)
(15.5388 10.1908 185.662)
(15.163 10.9469 163.429)
(-35.1834 112.373 98.7664)
(1.96709 68.6568 139.95)
(-2.29658 81.698 135.458)
(19.2294 8.38792 179.183)
(24.6414 -8.06812 163.313)
(20.1246 29.5667 147.919)
(15.2693 40.5055 123.544)
(-4.32154 79.2689 158.273)
(-1.01944 48.7112 162.708)
(-6.10136 82.1356 152.315)
(0.255326 52.369 157.848)
(-2.88744 85.5406 165.01)
(1.80271 59.9169 173.197)
(-2.13527 57.9611 177.71)
(-8.60038 88.6283 144.182)
(-2.65367 94.2553 147.156)
(-0.016366 70.4253 143.518)
(-0.0221461 59.8554 151.314)
(-2.47481 88.3747 156.447)
(3.66743 63.3829 166.038)
(5.46818 68.9563 157.781)
(-15.7944 110.081 125.788)
(-21.5275 117.275 115.972)
(-5.20305 101.384 138.179)
(-5.47723 89.6136 125.965)
(-10.2236 105.18 128.368)
(4.75748 75.6795 149.176)
(2.3157 79.8351 139.58)
(2.06945 21.8109 168.133)
(10.6791 3.63971 169.185)
(5.89502 26.5623 163.925)
(5.92328 36.0823 181.385)
(2.42367 10.9771 191.802)
(9.24557 13.1578 188.365)
(0.493696 33.8359 185.436)
(-5.67617 85.948 171.947)
(-2.04496 77.6135 157.275)
(-1.86547 85.5579 168.075)
(1.68848 61.8692 179.183)
(-3.75944 57.8696 173.059)
(0.913407 56.6414 171.121)
(-3.17318 61.7293 182.456)
(-28.3572 118.007 106.258)
(-23.4672 95.5927 112.372)
(-15.9959 88.7933 108.887)
(-10.4151 92.307 116.706)
(-16.9946 103.143 119.229)
(-2.42404 79.3827 130.726)
(-7.02314 73.6873 123.786)
(0.137789 75.1041 152.738)
(1.26216 85.6526 154.152)
(-0.0969905 85.0621 161.53)
(4.38512 62.2252 173.455)
(7.1773 53.2717 161.559)
(6.76733 63.4501 166.689)
(4.20024 54.9101 167.119)
(8.391 34.3634 157.781)
(18.4311 20.0227 156.297)
(10.1625 44.2423 150.498)
(9.49198 39.9614 174.997)
(18.057 22.3726 175.407)
(14.2051 17.04 182.579)
(12.1838 45.3935 167.441)
(0.270981 87.6766 146.467)
(0.375438 64.4651 132.994)
(-3.1926 87.5693 138.423)
(8.8888 50.4368 154.773)
(7.59678 65.2898 159.437)
(6.43748 65.6223 151.658)
(8.87061 46.5719 147.927)
(9.9242 54.885 142.557)
(20.3859 37.9471 139.5)
(8.53803 63.2173 133.642)
(20.1462 27.5089 166.734)
(13.2858 51.3479 158.968)
(12.6125 55.3058 149.717)
(21.3414 31.3572 157.891)
(-13.501 74.2828 127.195)
(-2.48652 57.7834 127.446)
(-8.73771 83.0933 131.646)
(3.03092 62.3002 144.911)
(6.83799 31.7736 139.54)
(0.420251 55.0076 140.177)
(7.88996 40.3916 142.566)
(1.15327 64.9368 117.231)
(18.1192 42.1379 131.119)
(5.30883 67.2186 124.977)
(10.0295 55.6543 140.884)
(18.411 27.3001 142.338)
(20.2746 31.5922 149.206)
(7.18555 50.9327 134.067)
(4.76902 38.8263 188.738)
(0.707057 15.195 198.246)
(-1.89118 35.5441 184.603)
(5.88288 11 193.408)
(7.29121 15.4197 196.346)
(3.56704 34.45 183.378)
(-1.04899 38.5995 191.352)
(8.74028 39.7437 183.75)
(11.1501 10.4396 190.583)
(11.6631 32.7427 174.825)
(16.3737 18.7901 186.291)
(12.4064 16.6106 192.098)
(11.8183 41.5545 177.408)
(7.86022 33.3707 179.969)
(14.2126 30.3193 168.097)
(19.0728 20.3487 179.284)
(13.7113 43.0847 170.366)
(14.0981 43.34 162.817)
(21.8877 5.05227 172.566)
(21.128 20.5985 172.031)
(15.9745 26.7537 161.258)
(13.3477 40.5595 155.963)
(16.3451 12.7303 152.498)
(23.3458 -0.647148 167.196)
(21.0199 11.6824 160.333)
(21.2687 17.7013 165.358)
(11.5407 33.9815 151.342)
(16.4653 20.7806 155.921)
(25.1573 -52.2916 92.0684)
(36.0064 -74.0367 94.4271)
(33.6292 -83.5143 102.328)
(34.4815 -70.7131 107.784)
(29.1724 -66.187 105.325)
(29.8867 -56.7651 95.384)
(30.4628 -70.8312 90.5149)
(-104.287 279.907 -89.7817)
(-81.996 56.8274 -184.883)
(-19.2558 84.6342 -269.312)
(-65.5831 103.853 -32.966)
(-11.3307 79.2796 -74.0321)
(-98.5965 35.9258 -93.9488)
(-26.1291 13.5587 -155.463)
(-16.0771 24.9531 -10.1369)
(-8.92328 10.7553 -96.0272)
(-73.1419 70.7683 -215.955)
(-25.4785 302.105 -156.443)
(-11.6977 81.3765 -303.829)
(-85.1904 99.9055 -39.0963)
(-106.839 53.3919 -93.5178)
(-38.8213 192.814 -78.665)
(-35.5296 54.6587 -160.025)
(-24.0909 90.2449 -201.033)
(-40.6156 76.682 -248.815)
(-54.7359 83.3143 -182.305)
(-53.5666 48.1414 -160.259)
(-22.8161 52.9521 -237.652)
(-50.6111 50.1029 -216.426)
(-22.3514 48.8557 -176.394)
(-27.9026 77.2682 -284.215)
(-10.0805 113.873 -303.909)
(-28.3227 116.995 -284.575)
(-21.3516 69.325 -259.51)
(-26.0529 119.906 -233.824)
(-45.9811 70.0649 -239.886)
(-53.6089 123.518 -212.468)
(-63.0471 62.6286 -218.178)
(-94.4539 73.8803 -133.235)
(-77.8986 74.1601 -156.842)
(-76.8948 47.9248 -137.889)
(-97.8996 48.2538 -155.35)
(-76.5835 44.3923 -186.499)
(-93.5759 56.3134 -115.944)
(-18.0979 86.4581 -133.736)
(-33.2807 84.2851 -60.9236)
(-46.7096 87.919 -116.888)
(-37.3892 50.3407 -100.527)
(-7.11202 38.5436 -57.8753)
(-13.2553 45.4336 -113.392)
(-23.963 45.5501 -47.7801)
(-81.1136 118.446 -208.089)
(-48.0406 70.3585 -251.901)
(-51.34 116.627 -248.814)
(-98.318 69.339 -177.715)
(-72.6613 67.2145 -210.276)
(-80.3531 121.013 -181.597)
(-104.899 117.957 -150.506)
(-47.8283 304.157 -140.562)
(-17.6845 197.772 -193.134)
(-41.9489 205.221 -170.743)
(-36.9418 255.243 -110.203)
(-33.3749 187.256 -112.653)
(-61.6408 186.934 -99.6242)
(-57.2338 248.78 -100.869)
(-96.6489 198.088 -109.726)
(-71.3796 297.061 -115.669)
(-68.1811 206.465 -138.52)
(-85.3768 178.537 -81.8853)
(-100.114 214.198 -68.5056)
(-105.863 165.341 -68.1437)
(-76.8036 234.377 -83.7071)
(-86.2579 96.2543 -78.7085)
(-51.9797 90.4228 -44.9245)
(-69.7759 88.9408 -95.8552)
(-57.8829 57.5224 -83.6802)
(-48.6259 74.0535 -25.8414)
(-72.5062 71.578 -69.4709)
(-38.4538 56.4039 -34.8532)
(-46.5139 21.3545 -136.057)
(-25.0324 29.1101 -197.474)
(-56.718 18.7959 -137.511)
(-14.9823 -6.46126 -121.545)
(-38.8402 1.59354 -107.796)
(-55.897 31.6324 -176.711)
(-18.4053 16.4493 -151.312)
(-30.3644 62.5907 -213.096)
(-65.5976 55.845 -140.004)
(-41.5025 102.76 -111.381)
(-37.7083 119.97 -165.054)
(-60.5401 64.8068 -192.667)
(-67.5683 118.921 -146.855)
(-68.9487 97.5961 -98.074)
(-69.3352 28.9079 -115.493)
(-103.456 42.1198 -124.116)
(-81.78 23.9786 -115.318)
(-75.2447 31.6427 -73.3525)
(-59.7418 13.7509 -90.0495)
(-82.9082 32.9458 -150.086)
(-86.429 43.0472 -95.869)
(-5.07675 -15.5507 -76.5886)
(0.250122 -22.9323 -28.8234)
(-2.85644 3.86326 -43.9329)
(-27.909 18.7332 -85.0282)
(-5.07684 -13.3193 -23.2572)
(-18.2197 -5.72961 -67.9263)
(-14.5443 12.5549 -35.6475)
(-109.244 63.8949 -135.264)
(-90.5436 51.9857 -116.916)
(-88.1808 61.8996 -164.772)
(-92.2134 109.977 -125.02)
(-102.554 75.7341 -69.2443)
(-89.6714 85.2605 -83.9448)
(-109.665 101.919 -103.574)
(-36.6216 134.194 -57.3457)
(-40.6381 124.265 -45.1127)
(-40.9355 161.006 -68.388)
(-67.7965 155.243 -61.3537)
(-56.1168 125.337 -52.4575)
(-64.253 116.082 -40.9788)
(-58.1611 183.424 -72.053)
(-88.2003 142.131 -52.3479)
(-93.2542 153.097 -52.5074)
(-94.265 88.9706 -31.8429)
(-72.0427 113.229 -45.5442)
(-81.6152 102.373 -36.4197)
(-103.106 127.436 -45.4181)
(-76.5259 169.757 -61.5839)
(-44.5649 31.321 -70.694)
(-31.9079 47.8063 -18.1804)
(-39.8661 31.0634 -48.0028)
(-11.0085 3.40352 -15.7227)
(-30.7273 9.91396 -56.9841)
(-56.6547 50.0412 -59.3136)
(-24.5474 27.4502 -25.1329)
(-185.335 152.208 -41.8089)
(-162.092 125.435 -93.5458)
(-169.238 118.383 -106.092)
(-137.849 252.376 -71.5228)
(-99.3228 82.005 -183.963)
(-110.27 46.9209 -18.1999)
(-129.194 77.0952 -37.0904)
(-96.907 87.3385 -33.669)
(-116.874 57.7745 -74.2263)
(-101.447 69.856 -157.444)
(-94.8757 150.923 -20.7033)
(-73.502 122.323 -28.09)
(-113.206 92.5806 -33.3858)
(-107.81 52.4866 -75.3728)
(-26.3293 81.8186 -2.6848)
(-63.9499 72.6127 -52.3725)
(-110.326 126.179 -171.748)
(-125.186 100.367 -155.407)
(-138.323 132.438 -140.573)
(-117.149 79.1661 -147.209)
(-122.607 116.909 -123.826)
(-141.185 114.457 -103.934)
(-135.752 90.841 -122.751)
(-106.364 88.1026 -114.912)
(-122.565 90.5482 -133.498)
(-120.72 107.772 -99.328)
(-113.565 64.5308 -129.363)
(-105.189 75.566 -98.9981)
(-115.335 98.37 -83.8223)
(-128.788 84.7279 -107.901)
(-124.581 186.508 -89.1069)
(-169.715 220.072 -59.9745)
(-153.536 172.856 -75.1046)
(-123.084 191.599 -57.0439)
(-124.344 151.603 -59.2163)
(-142.961 137.144 -54.8808)
(-145.89 167.55 -49.3712)
(-95.0537 113.443 -69.0476)
(-80.6913 138.836 -26.2483)
(-104.441 131.305 -62.5663)
(-55.0728 95.036 -22.6091)
(-80.4817 92.202 -61.9004)
(-87.4018 112.312 -54.7089)
(-61.2886 113.142 -20.7805)
(-177.387 131.457 -54.631)
(-188.264 184.986 -50.0414)
(-172.145 153.094 -64.115)
(-154.808 120.698 -48.5853)
(-156.891 115.955 -34.3941)
(-157.097 103.6 -42.0213)
(-159.647 141.663 -41.3208)
(-146.247 109.778 -113.304)
(-147.951 143.018 -74.5188)
(-136.082 128.644 -86.3583)
(-124.994 119.107 -71.7491)
(-151.957 117.586 -71.7144)
(-129.611 132.86 -61.1107)
(-143.962 103.602 -89.7152)
(-175.738 125.577 -93.3812)
(-152.82 111.434 -130.713)
(-163.479 131.249 -115.728)
(-155.612 111.054 -85.819)
(-160.574 106.604 -80.8958)
(-161.761 105.764 -68.7184)
(-152.096 99.856 -101.156)
(-109.86 136.516 -44.8279)
(-104.432 77.8478 -28.9308)
(-117.175 114.125 -41.4344)
(-128.668 101.778 -39.3023)
(-106.634 74.9431 -29.2919)
(-112.858 68.7879 -26.4694)
(-124.778 119.126 -39.3495)
(-122.132 70.5212 -109.18)
(-112.037 69.5902 -57.7283)
(-121.301 95.8931 -86.1254)
(-133.682 91.6722 -73.0445)
(-124.291 64.3823 -60.071)
(-120.36 66.8546 -47.8991)
(-134.586 78.3829 -89.8823)
(-119.884 151.834 -49.8966)
(-88.4841 148.79 -23.4332)
(-112.315 145.988 -55.829)
(-92.2726 127.296 -48.4085)
(-70.9902 127.929 -15.1363)
(-96.8237 133.767 -42.2196)
(-65.9638 124.614 -18.1062)
(-115.508 58.8741 -101.52)
(-82.1568 54.6922 -59.9553)
(-97.2435 64.7889 -79.9874)
(-103.123 88.2313 -66.4589)
(-113.606 69.1145 -60.1757)
(-83.6443 77.2783 -49.9408)
(-125.984 78.0067 -83.1951)
(-44.6448 55.229 -41.3617)
(-37.2224 70.1703 -15.9368)
(-18.7934 48.4039 -8.7194)
(-67.6871 94.019 -45.8592)
(-20.8409 68.0031 -7.29211)
(-45.3953 76.4274 -36.1162)
(-41.4995 89.5121 -14.3059)
(-136.478 89.5105 -34.6311)
(-130.996 81.1931 -26.6158)
(-118.761 50.2546 -15.6465)
(-112.267 61.7188 -23.7954)
(-117.452 59.747 -21.6366)
(-137.2 76.9092 -28.6095)
(-133.952 100.629 -32.7931)
(-141.766 88.9511 -59.3845)
(-146.413 93.0365 -57.6326)
(-128.734 60.5033 -29.1951)
(-128.061 71.768 -47.7838)
(-125.019 64.6156 -37.8744)
(-145.241 84.3677 -46.9071)
(-143.118 86.6167 -72.8336)
(-106.685 107.783 -56.5512)
(-135.398 106.223 -51.3409)
(-115.631 83.0865 -46.2764)
(-80.8144 101.131 -36.2276)
(-83.3861 93.6059 -42.6617)
(-106.446 118.868 -48.2443)
(-133.688 94.8299 -67.1453)
(-69.9155 108.591 -39.7237)
(-47.9091 105.101 -9.02095)
(-48.2702 93.4631 -23.726)
(-22.411 78.975 -5.12375)
(-46.3695 89.1842 -30.1603)
(-72.3704 114.511 -33.2951)
(-43.9095 101.466 -11.9137)
(-47.9915 124.883 84.6323)
(-78.0816 144.141 9.80369)
(-56.9782 118.266 8.76444)
(-29.6621 113.661 109.011)
(-28.6089 92.7237 19.7986)
(-4.03757 39.9994 26.7697)
(16.2312 28.6884 123.098)
(9.16196 50.5234 100.94)
(-63.2857 134.363 9.03203)
(-45.5939 113.12 44.2818)
(-39.13 89.2401 14.9502)
(-51.6625 128.294 42.3846)
(-44.1289 106.616 14.5016)
(-28.4564 82.9862 50.0873)
(-32.4941 99.4713 47.6159)
(-71.8483 142.761 9.10777)
(-66.9306 136.461 36.512)
(-58.9961 136.465 38.631)
(-54.9294 119.753 14.885)
(-50.1063 116.827 14.6543)
(-38.4514 109.293 44.3503)
(-43.9872 112.03 41.8852)
(-38.6034 112.331 78.902)
(-35.1252 124.486 101.214)
(-43.9777 125.933 73.7657)
(-13.4649 82.0901 114.596)
(-21.5937 80.5687 83.6721)
(-25.0406 95.2769 78.165)
(-16.8768 94.0892 106.678)
(-21.7631 63.1893 21.1743)
(-6.43247 58.2257 25.1976)
(-25.0573 81.4441 19.775)
(4.98396 33.18 61.1488)
(-11.6379 56.8379 55.8845)
(-13.7369 73.928 52.3947)
(3.38566 50.2986 57.1406)
(-57.7859 131.251 60.8888)
(-41.4571 128.293 92.3479)
(-50.3721 132.508 66.7728)
(-29.8596 104.077 71.6558)
(-27.0213 99.6689 90.9841)
(-36.1248 105.406 66.3481)
(-21.3377 100.464 98.3913)
(-33.2628 96.0643 19.9081)
(-8.39628 69.2875 24.9211)
(-13.4431 72.3451 24.6119)
(-18.7736 84.6848 49.7744)
(-4.78166 64.8943 51.2762)
(0.30839 61.5013 54.466)
(-23.1458 88.5234 46.8864)
(11.0733 29.408 93.2059)
(2.23286 54.0219 119.109)
(-4.77913 53.7108 88.5439)
(-6.3248 68.9578 82.5548)
(15.7555 41.2054 115.373)
(10.2343 44.6746 86.9981)
(0.473015 66.4904 111.128)
(-11.076 78.5269 76.9086)
(-7.43736 75.0713 96.3527)
(2.36266 57.6591 75.8703)
(12.7679 49.161 108.067)
(6.61091 54.7112 81.5875)
(-15.1504 81.6196 71.2745)
(-3.07914 74.2217 103.549)
(40.6359 -106.893 295.382)
(38.6313 -110.365 263.791)
(36.9479 -97.9813 252.829)
(45.7933 -99.6442 257.342)
(50.4487 -117.637 291.078)
(47.8884 -112.193 267.677)
(49.7853 -107.589 294.713)
(11.6026 -119.575 196.826)
(12.1812 -132.987 207.307)
(4.22197 -131.794 205.47)
(12.999 -133.35 239.936)
(4.59562 -148.683 252.549)
(13.7154 -149.87 254.427)
(4.50934 -132.193 237.882)
(28.4394 -135.029 210.991)
(19.3374 -120.298 198.191)
(20.294 -133.848 208.878)
(21.6202 -134.389 241.995)
(32.2483 -152.295 258.283)
(22.8901 -150.929 256.15)
(30.3852 -135.787 244.813)
(55.0778 -101.757 262.546)
(67.9938 -108.971 290.507)
(67.3134 -116.525 275.865)
(59.4974 -117.988 288.307)
(57.4546 -114.289 271.782)
(64.8128 -104.179 268.029)
(58.9221 -108.304 293.146)
(45.9794 -138.704 217.043)
(35.0215 -122.423 202.315)
(36.9765 -136.575 213.658)
(41.9259 -153.982 260.78)
(39.5964 -137.711 248.314)
(49.2362 -140.176 252.465)
(51.8831 -156.022 263.395)
(29.8906 -116.076 273.125)
(0.113621 -4.20748 11.2007)
(4.22579 -117.375 277.855)
(2.69778 -112.166 209.817)
(0.00635922 -0.357106 0.7982)
(0.0572502 -0.245559 0.546649)
(22.5559 -104.71 193.423)
(14.0271 -126.534 291.781)
(4.70122 -119.303 265.051)
(13.43 -120.258 266.938)
(13.9009 -134.019 276.583)
(4.58501 -135.346 285.138)
(4.73344 -133.127 275.021)
(13.9779 -135.756 285.446)
(31.1622 -122.234 271.039)
(23.2217 -126.769 291.185)
(22.2205 -121.152 268.794)
(23.0888 -134.767 277.783)
(32.5376 -135.392 282.61)
(32.4172 -135.636 279.062)
(23.2613 -135.683 284.448)
(61.5648 -129.505 214.336)
(65.3618 -145.232 227.865)
(55.3926 -141.559 221.659)
(59.2071 -143.036 256.956)
(72.0073 -160.294 265.916)
(61.933 -158.166 265.388)
(69.4871 -146.008 261.382)
(2.43244 -4.65912 10.8006)
(0.83719 -2.42549 6.48553)
(37.8963 -114.694 268.83)
(0.0541443 -0.189735 0.41785)
(27.3449 -98.9127 180.644)
(4.19548 -9.01073 17.1552)
(0.0278996 -0.0572021 0.124518)
(40.3875 -123.572 273.585)
(50.7647 -126.801 284.964)
(49.9137 -125.202 276.349)
(41.6181 -134.883 279.941)
(41.9278 -136.695 279.98)
(51.5593 -137.869 280.247)
(50.3834 -134.104 276.349)
(4.96299 -85.9333 306.011)
(4.8457 -94.7581 301.551)
(13.5391 -95.0316 301.772)
(4.45964 -78.8809 291.03)
(12.3844 -78.8989 290.73)
(12.0692 -85.0917 280.947)
(4.22382 -85.1234 281.415)
(69.4144 -128.781 279.858)
(59.5359 -126.433 281.373)
(59.6161 -127.006 278.755)
(61.1529 -138.989 279.631)
(66.4145 -131.248 266.45)
(70.6571 -139.953 277.812)
(58.6952 -133.005 271.881)
(22.1208 -86.3711 305.811)
(30.8736 -95.1788 299.526)
(22.1724 -95.1585 301.032)
(27.9626 -78.2832 286.395)
(20.181 -78.6955 289.146)
(19.7584 -84.7238 278.953)
(27.3694 -84.0484 275.595)
(14.2512 -147.148 280.7)
(4.33807 -142.424 276.148)
(13.2001 -146.434 263.827)
(4.57049 -157.787 276.931)
(14.3814 -158.338 277.441)
(4.68758 -146.343 279.762)
(13.733 -142.705 276.274)
(23.7406 -147.622 280.751)
(32.062 -141.631 272.553)
(22.155 -145.554 261.949)
(33.7378 -158.335 275.252)
(24.042 -158.419 276.696)
(33.3216 -148.108 280.342)
(22.9405 -142.356 274.907)
(39.3481 -86.5826 302.717)
(39.4856 -95.1708 297.157)
(47.9439 -95.0852 294.029)
(35.4483 -77.6581 282.31)
(42.545 -76.7892 276.832)
(34.6022 -83.0479 270.687)
(41.3132 -81.6427 264.001)
(56.2773 -86.8297 296.687)
(64.0528 -94.3528 284.937)
(56.1702 -94.8581 289.993)
(54.9513 -73.7886 260.337)
(49.1195 -75.5709 269.736)
(47.2835 -79.6389 254.953)
(52.1734 -76.7224 242.517)
(40.8266 -140.492 269.218)
(43.2907 -157.997 273.028)
(42.9318 -148.64 279.277)
(52.4879 -149.08 277.458)
(46.5129 -138.659 248.155)
(52.5796 -157.365 270.092)
(49.1049 -138.787 264.892)
(30.8557 -103.464 292.856)
(21.9299 -111.165 286.533)
(22.1368 -103.614 294.743)