/*--------------------------------*- C++ -*----------------------------------*\
  =========                 |
  \\      /  F ield         | OpenFOAM: The Open Source CFD Toolbox
   \\    /   O peration     | Website:  https://openfoam.org
    \\  /    A nd           | Version:  9
     \\/     M anipulation  |
\*---------------------------------------------------------------------------*/
FoamFile
{
    format      ascii;
    class       volScalarField;
    location    "0.0003";
    object      alpha.c4;
}
// * * * * * * * * * * * * * * * * * * * * * * * * * * * * * * * * * * * * * //

dimensions      [0 0 0 0 0 0 0];

internalField   nonuniform List<scalar> 
4569
(
7.41229e-23
3.32321e-21
8.0307e-23
2.30942e-24
1.25532e-21
2.29043e-22
1.83404e-23
1.99402e-22
1.98918e-22
2.17993e-23
2.38375e-22
3.05926e-23
9.26481e-25
6.92228e-23
1.42565e-23
6.29354e-23
1.82643e-24
5.34656e-23
1.07919e-23
1.19578e-27
8.19804e-28
1.55186e-27
1.7096e-27
1.37839e-26
3.66818e-26
2.42636e-25
4.18625e-17
2.37204e-18
3.01882e-21
2.65023e-19
5.1254e-21
1.55224e-16
6.13407e-15
4.14716e-17
4.6358e-19
2.10408e-22
5.26579e-23
6.90928e-19
6.13181e-21
1.98549e-20
9.02612e-19
6.13298e-19
1.436e-20
3.79009e-21
1.32444e-14
1.55057e-13
1.65512e-13
1.25306e-14
1.50683e-15
2.55124e-17
1.28614e-06
4.49676e-08
1.87945e-10
4.1314e-11
2.67644e-07
2.54134e-06
8.7452e-11
6.59924e-11
4.8215e-13
5.25726e-10
1.60563e-13
5.21719e-15
1.16875e-34
7.07305e-34
6.93594e-36
7.32249e-38
2.00691e-38
1.98884e-36
1.26197e-35
4.18227e-37
8.47705e-39
6.06965e-38
7.15487e-34
1.15196e-35
1.74769e-36
5.8084e-38
7.10876e-39
1.08248e-34
9.44204e-38
1.94569e-38
5.10085e-40
1.19593e-40
7.68266e-37
2.14514e-39
1.62624e-41
2.48413e-42
4.8251e-41
3.18679e-40
6.88224e-39
2.04226e-38
3.08658e-40
6.98894e-39
4.66372e-41
2.09411e-36
2.92879e-38
4.20077e-36
2.00624e-36
2.70484e-38
6.86007e-36
2.4414e-36
1.03815e-35
3.24313e-36
1.77932e-37
4.2716e-35
9.22867e-38
2.80228e-35
1.38991e-35
9.68159e-36
1.54961e-37
4.11133e-35
1.21041e-35
1.31086e-35
1.42968e-37
3.59898e-35
1.94435e-36
5.12771e-37
2.49357e-38
3.53699e-36
1.7201e-38
4.75513e-36
2.22932e-36
7.58887e-38
2.87368e-39
4.09651e-37
1.15371e-37
3.07054e-37
1.2975e-39
2.18634e-37
2.82149e-38
5.76351e-39
3.8631e-40
4.35639e-38
3.4861e-40
6.60565e-38
1.75355e-38
2.03963e-39
7.08486e-41
7.24391e-39
1.97587e-39
4.00902e-39
4.16254e-41
3.73701e-39
1.14674e-35
2.31036e-40
3.48285e-38
1.442e-39
8.10251e-39
2.30412e-41
1.38319e-40
1.27656e-37
3.44212e-41
8.64642e-39
2.55013e-36
2.33218e-40
1.2753e-40
1.07589e-37
1.68298e-38
2.44823e-36
2.16889e-40
3.7085e-37
1.09797e-39
2.96915e-40
2.44477e-38
4.07758e-39
1.35727e-39
1.01137e-38
7.68011e-43
1.51102e-43
6.73708e-41
2.36077e-41
1.62567e-43
6.92421e-41
7.27671e-43
3.0817e-42
1.37805e-40
8.80457e-43
3.91439e-40
8.59099e-43
3.13309e-40
4.07824e-42
1.82132e-40
6.54456e-38
1.96061e-39
3.9451e-38
1.02551e-39
2.70742e-38
2.66664e-40
2.77988e-42
8.06237e-43
3.6804e-40
1.26891e-40
3.81006e-42
7.82507e-43
2.85438e-40
1.68702e-40
1.55602e-39
3.79119e-38
1.18716e-37
2.51009e-40
1.64623e-39
2.51814e-38
3.95781e-41
9.8189e-39
2.57226e-40
5.83923e-39
1.87897e-40
5.97442e-39
3.7869e-41
2.81733e-42
2.8892e-41
4.31342e-40
1.16997e-39
3.49939e-42
1.67129e-41
4.03332e-40
1.06907e-42
1.64508e-40
6.67479e-42
1.0167e-40
5.01265e-42
1.04049e-40
1.04253e-42
4.77528e-40
7.5992e-41
3.60478e-39
2.04705e-39
2.84355e-41
6.22077e-40
7.90962e-39
2.80829e-41
2.17569e-42
7.17752e-43
2.9771e-37
8.88344e-41
1.89227e-41
1.22574e-39
1.55391e-42
5.0288e-43
2.12122e-41
6.24139e-43
1.95352e-41
1.20399e-43
5.52271e-41
1.33028e-43
5.74107e-41
5.76595e-43
4.75437e-44
1.21917e-44
4.58936e-42
1.46258e-42
6.08459e-44
1.01988e-44
4.15445e-42
2.39682e-44
5.10667e-43
4.7672e-45
1.48369e-42
4.93705e-45
1.52183e-42
2.30684e-44
1.1276e-42
1.4039e-43
2.15043e-27
6.27597e-30
1.66362e-32
1.87146e-29
6.17025e-32
1.78461e-34
1.82116e-33
6.90945e-36
2.23652e-38
3.43531e-31
1.05352e-33
2.98183e-36
6.62625e-25
8.33878e-29
2.36477e-28
3.08746e-26
2.0896e-28
2.94955e-26
1.32434e-28
1.31831e-28
2.23823e-26
2.22862e-26
2.80089e-31
7.31159e-34
1.61157e-30
1.67256e-37
2.82232e-31
1.43151e-33
7.66178e-30
3.0618e-28
1.75244e-32
4.90453e-34
7.93054e-33
5.70296e-33
2.36795e-35
5.19076e-35
2.71222e-33
8.36433e-29
6.55626e-31
5.23901e-29
2.45466e-31
6.63114e-30
3.58418e-29
1.99985e-29
1.36565e-37
1.32939e-30
7.04923e-31
6.9917e-31
6.80681e-32
6.29636e-32
3.74248e-33
6.48164e-33
8.18251e-35
5.44141e-37
1.95035e-37
2.40457e-35
1.08925e-36
4.97677e-35
2.63021e-35
4.43894e-34
9.02512e-34
1.91117e-36
1.15238e-35
1.16587e-35
1.66732e-36
1.15954e-37
1.7977e-38
1.98067e-39
3.12613e-40
1.73243e-38
4.40156e-36
9.7238e-36
3.81697e-38
1.33211e-40
1.20671e-31
1.82324e-30
7.74657e-33
2.94093e-33
9.7873e-32
3.71623e-34
3.72674e-32
3.45647e-32
2.72913e-34
4.86026e-33
1.52648e-28
5.8426e-27
1.48074e-31
7.58375e-31
6.28077e-30
2.72731e-29
6.57583e-31
1.56469e-31
2.39048e-29
6.91951e-30
6.13419e-33
1.68095e-34
2.95357e-31
9.45964e-33
2.32916e-36
5.24075e-35
1.26414e-34
2.31235e-35
7.23208e-33
5.64676e-29
3.98842e-29
1.55673e-31
5.27078e-30
1.82774e-31
2.82793e-31
1.00102e-29
2.17244e-29
1.39123e-28
8.45228e-31
1.40765e-30
2.86298e-29
1.07247e-30
4.17674e-29
1.82766e-28
1.2778e-28
1.31498e-30
2.41533e-29
7.53789e-31
1.70715e-28
9.82671e-31
3.85814e-29
3.71536e-29
1.81648e-31
1.07836e-31
6.52088e-30
2.60518e-31
9.27651e-30
1.61152e-29
4.49369e-31
9.92441e-33
4.74168e-31
5.79781e-33
1.47648e-30
2.90744e-33
1.96829e-31
2.96047e-32
2.4e-34
4.47477e-35
4.27342e-33
1.97282e-34
1.15056e-32
7.41459e-33
1.05752e-34
2.41956e-36
1.89961e-34
2.23192e-36
3.64816e-34
7.14422e-37
5.27505e-35
2.2827e-35
9.31427e-37
1.20542e-34
5.91376e-35
1.04389e-36
7.44671e-36
1.72638e-34
2.13169e-26
2.14436e-26
9.93017e-29
1.77639e-30
1.74931e-32
7.30102e-33
1.01071e-30
2.17182e-32
1.56316e-30
1.0119e-30
6.0457e-32
3.13269e-34
1.35139e-36
1.49543e-29
6.03145e-32
2.24142e-34
2.29152e-20
3.87058e-21
5.09882e-22
8.72794e-23
2.03588e-22
4.5136e-24
1.17991e-24
4.85492e-22
4.48052e-24
2.0322e-22
3.92553e-24
1.378e-22
2.98852e-24
9.88242e-27
3.89279e-26
3.12319e-26
3.34747e-26
2.0412e-25
3.49892e-23
8.36401e-23
7.32204e-25
2.261e-23
6.14566e-25
6.63086e-25
1.72734e-27
5.80297e-27
7.48639e-27
4.94533e-27
2.73689e-26
4.32524e-24
4.53236e-26
4.33957e-24
4.11858e-26
3.782e-24
4.05343e-26
1.92277e-28
3.98409e-28
3.57534e-28
3.45455e-28
9.37009e-22
1.39827e-27
5.8572e-34
4.47596e-21
5.31595e-27
4.0019e-33
2.3218e-23
7.32142e-29
4.12201e-35
1.70846e-26
2.96643e-32
2.73487e-38
3.33512e-30
4.00698e-33
1.98495e-29
1.37909e-25
2.49486e-21
7.13325e-25
9.48981e-32
4.08396e-32
6.10094e-27
6.62061e-31
1.89795e-31
1.40682e-34
4.76556e-33
7.22896e-34
5.90351e-25
4.1867e-22
3.37554e-25
5.54862e-31
1.65845e-31
1.68867e-27
1.17063e-31
4.21864e-32
6.33795e-34
6.75302e-34
1.37962e-34
2.03929e-26
1.7495e-24
3.08285e-28
6.74198e-33
1.87124e-33
2.14468e-30
1.5273e-34
5.30339e-35
5.96091e-36
8.716e-37
1.91059e-37
8.91399e-30
4.60588e-28
1.12858e-31
3.89226e-36
8.0733e-37
1.02106e-33
2.31753e-37
3.75912e-37
3.03942e-39
2.17986e-39
2.06813e-39
1.55827e-23
4.82692e-22
6.26545e-24
1.7e-21
1.69705e-21
1.54071e-23
4.02718e-24
4.71085e-36
3.21851e-34
3.52252e-36
1.39588e-33
3.64976e-34
9.37336e-36
4.21437e-36
7.08211e-23
2.44844e-21
2.34563e-23
8.97632e-21
1.80685e-23
8.9479e-21
7.10479e-23
2.22346e-35
1.56362e-33
2.72411e-35
5.87391e-33
1.42024e-35
1.48832e-33
4.14659e-35
5.54801e-25
9.04388e-23
2.02744e-25
7.98624e-23
8.2584e-25
8.03152e-23
5.45648e-25
1.53384e-37
1.8572e-35
2.50952e-37
4.35851e-35
1.44721e-37
1.12202e-35
2.53994e-37
1.69854e-28
3.54258e-26
1.94394e-28
2.44497e-26
3.59898e-28
2.45414e-26
1.68158e-28
7.25896e-41
1.07412e-38
1.91334e-40
1.67062e-38
8.89672e-41
4.05456e-39
1.06062e-40
8.09943e-32
8.8835e-32
2.53841e-35
8.60243e-31
3.06718e-31
9.82366e-33
1.89012e-33
1.22535e-34
2.66882e-35
2.8861e-31
1.35629e-33
5.94796e-25
9.19794e-24
2.46111e-27
3.99788e-25
3.14296e-23
7.86514e-27
1.43974e-25
1.33624e-25
4.55579e-26
1.29394e-25
3.2771e-26
7.40622e-27
3.29549e-29
1.16476e-28
1.7155e-27
7.27223e-23
8.89991e-21
2.09867e-21
1.80723e-23
9.03002e-21
6.98408e-23
1.73062e-23
2.50086e-24
1.72165e-24
5.01187e-23
1.18868e-26
1.46762e-22
3.31063e-26
7.61327e-25
5.61261e-25
1.45935e-25
5.2754e-25
1.42434e-25
2.99008e-26
1.71465e-28
4.90799e-28
9.05745e-27
6.53626e-30
1.44682e-29
4.79187e-32
1.99924e-31
2.70776e-29
5.07179e-32
6.72997e-30
2.56443e-29
9.22367e-31
8.56625e-29
2.30995e-31
1.2065e-28
2.12346e-31
2.8892e-29
2.53147e-35
6.78595e-33
1.78777e-33
3.20258e-35
1.70272e-33
4.77033e-35
1.61652e-35
2.38134e-24
4.43916e-23
1.01221e-26
1.63715e-24
6.7394e-25
1.42503e-22
3.09846e-26
5.36365e-25
1.62043e-25
1.41649e-25
5.38368e-25
2.80525e-26
1.48546e-28
8.06678e-27
4.56383e-28
1.53036e-23
1.66973e-21
1.60867e-21
3.51307e-24
1.68845e-21
1.50582e-23
1.3492e-23
5.79016e-25
3.83733e-25
2.74641e-23
6.28875e-27
3.07096e-23
7.55628e-27
4.86392e-25
1.30582e-25
3.05593e-26
1.27746e-25
1.07814e-25
7.20886e-27
8.39314e-29
1.12227e-28
5.66442e-27
2.25646e-29
7.18873e-29
2.02016e-31
7.9951e-31
2.53947e-29
1.05166e-28
1.85786e-31
6.7009e-30
2.12504e-31
1.94404e-29
4.97511e-32
3.06082e-29
5.05289e-32
7.30648e-30
4.48196e-36
1.41323e-33
3.20987e-34
3.8655e-36
3.54972e-34
9.18367e-36
2.50443e-36
1.73901e-26
1.69238e-24
4.05397e-28
1.20365e-26
3.30516e-26
1.11349e-24
2.05521e-28
3.91168e-27
1.77341e-27
7.27044e-27
3.80565e-27
1.86325e-28
6.18327e-30
4.15645e-28
2.5949e-30
2.21822e-26
2.4107e-24
1.96332e-24
1.23223e-26
2.41247e-24
2.4412e-26
1.37336e-26
7.79329e-28
5.21502e-28
2.76091e-26
4.91027e-30
4.41685e-26
9.76492e-30
4.22178e-28
1.82075e-28
8.14809e-29
2.19518e-28
9.47082e-29
8.88056e-30
5.90205e-32
1.32612e-31
4.33126e-30
2.61073e-31
1.04733e-30
2.75634e-33
7.35558e-33
3.32289e-31
1.19345e-30
1.75047e-33
8.50403e-33
3.27679e-34
2.64074e-32
4.97562e-35
3.99751e-32
7.63277e-35
7.90929e-33
6.75249e-39
2.41601e-36
3.05893e-37
5.02559e-39
5.37469e-37
1.68583e-38
2.5022e-39
5.08905e-30
7.30856e-28
1.66364e-31
3.58814e-30
1.35469e-29
3.40897e-28
5.62277e-32
1.14376e-30
1.55123e-30
2.99213e-30
1.1232e-30
5.12695e-32
2.29319e-33
1.56894e-31
6.85595e-34
5.90193e-30
5.98374e-28
4.59859e-28
3.95973e-30
5.98046e-28
6.94708e-30
3.91766e-30
2.36074e-31
1.66839e-31
7.76117e-30
4.48953e-33
1.17458e-29
3.90683e-33
1.6275e-31
5.59554e-32
3.82229e-32
6.90021e-32
3.77918e-32
3.44015e-33
9.47637e-35
7.24366e-35
2.60256e-33
9.49122e-35
5.22469e-34
1.50803e-36
2.72982e-36
1.47912e-34
4.51763e-34
6.20717e-37
1.88876e-35
2.57999e-37
2.40739e-35
7.59587e-38
2.57965e-35
1.57897e-37
5.77408e-36
5.05897e-41
2.3636e-39
8.87968e-40
2.43737e-41
1.22426e-39
2.10282e-41
6.1128e-41
1.17692e-33
9.15212e-32
1.04418e-33
1.00641e-33
9.01263e-32
3.9363e-34
2.44617e-32
2.22735e-33
6.21556e-35
5.08119e-35
3.22459e-33
5.66713e-35
9.19612e-34
6.2213e-34
2.43718e-31
1.50299e-31
6.05238e-30
5.93105e-31
4.77962e-33
5.54215e-31
8.23526e-32
1.0104e-34
9.66665e-37
4.68472e-35
1.73589e-36
2.48819e-35
5.51053e-35
2.56507e-35
7.23243e-30
7.854e-19
3.95512e-18
3.96837e-18
6.98639e-19
4.03587e-20
7.00828e-20
3.90143e-19
3.90811e-19
7.0438e-20
4.65363e-21
1.12321e-22
1.39112e-24
2.35633e-26
1.19459e-17
6.6342e-17
1.60054e-26
3.06832e-27
5.5204e-24
6.54193e-17
3.58616e-23
5.98267e-26
3.51697e-25
2.92705e-23
1.4002e-23
2.88948e-25
1.16265e-25
8.67402e-25
1.38595e-26
7.299e-27
9.66008e-29
3.68587e-28
3.92345e-30
3.00234e-30
3.78607e-32
5.69685e-33
6.14239e-29
3.65521e-28
2.17075e-31
7.33251e-29
5.42866e-29
3.3403e-19
1.46921e-21
4.08809e-21
1.17765e-19
1.22851e-18
3.03275e-20
1.72963e-20
1.79211e-18
5.35267e-27
3.3695e-25
6.0315e-28
1.47768e-25
6.73672e-25
1.27302e-27
2.8345e-27
1.78433e-26
6.16094e-25
3.12561e-24
3.23019e-27
2.29281e-24
5.04102e-27
2.36687e-26
1.24279e-18
3.09239e-20
1.79684e-18
1.78225e-20
3.48144e-19
4.22594e-21
1.6586e-26
2.98658e-24
2.68597e-27
5.84193e-25
2.23092e-26
2.18123e-24
4.69492e-27
5.05559e-27
1.40776e-25
2.97003e-25
8.96826e-28
6.4804e-25
1.19753e-27
2.27838e-27
4.24734e-24
6.75271e-29
2.76436e-26
6.45107e-29
4.02244e-27
2.08626e-28
9.69319e-27
2.90029e-29
4.31212e-30
1.82099e-28
1.92038e-28
6.58826e-31
5.93496e-28
1.61033e-30
1.22699e-30
1.63668e-32
7.6978e-30
2.7302e-32
1.16144e-30
5.43211e-32
2.48298e-30
8.01897e-33
2.13051e-33
6.03648e-32
8.63026e-32
4.22785e-34
2.09311e-31
6.75617e-34
1.10323e-33
4.95844e-21
3.63421e-23
4.94814e-22
1.64214e-23
8.01232e-23
1.69809e-21
2.07799e-21
2.06568e-20
7.51859e-23
4.19234e-22
3.31744e-21
2.99251e-22
9.06611e-21
2.38736e-20
2.04569e-20
4.0427e-22
2.80594e-21
7.2794e-23
2.18165e-20
2.93158e-22
8.95799e-21
4.98106e-21
1.59762e-23
3.63638e-23
1.62798e-21
7.90647e-23
1.68314e-21
2.77558e-21
1.30963e-22
3.55071e-24
9.11512e-23
5.60353e-25
2.55543e-22
1.37741e-24
8.02146e-23
5.80294e-24
2.22846e-26
2.82484e-26
1.96401e-24
7.84937e-26
2.40211e-24
2.68759e-24
3.68221e-26
1.02597e-27
3.54958e-26
1.7117e-28
6.43074e-26
3.6692e-28
2.45203e-26
1.32051e-27
6.01012e-30
8.34274e-30
4.61144e-28
2.11644e-29
5.95299e-28
6.53996e-28
1.68841e-30
3.7976e-32
2.54131e-33
2.96179e-31
2.02883e-32
1.73229e-30
2.86607e-31
7.98028e-31
1.35583e-29
3.4999e-31
3.30825e-29
2.08879e-30
1.74898e-29
3.71175e-30
2.04058e-26
7.57347e-29
5.53596e-28
9.54679e-27
1.81578e-26
1.70792e-27
9.44025e-29
5.92083e-28
7.81912e-32
2.57601e-30
2.25728e-34
7.43411e-33
1.44908e-43
1.89239e-46
3.50646e-49
1.29582e-43
1.69879e-46
3.13063e-49
2.3214e-45
4.9595e-48
1.45555e-50
2.96564e-45
2.35772e-46
1.47178e-48
5.00786e-43
5.51028e-44
1.15514e-36
2.80028e-39
3.51235e-36
3.42058e-30
4.15626e-24
2.46343e-38
2.18081e-43
2.33735e-51
4.3813e-49
8.98983e-53
1.80829e-51
3.22468e-54
2.01738e-29
1.86335e-23
1.73666e-37
1.15403e-42
8.56815e-51
3.71284e-49
2.0537e-54
1.60867e-51
6.75989e-53
1.9527e-31
2.27386e-25
2.79051e-39
1.96072e-44
4.838e-52
1.24616e-50
2.10148e-51
1.38853e-51
4.06938e-50
6.98061e-34
2.44535e-28
2.70606e-39
2.71715e-45
7.59126e-50
6.84736e-48
4.34546e-46
7.72668e-49
2.4164e-47
6.58126e-33
1.45784e-30
5.5375e-38
3.38474e-36
1.54114e-40
4.44608e-41
1.73705e-43
1.12206e-41
1.27428e-31
1.62347e-27
1.46139e-35
5.43966e-32
6.06649e-41
1.01615e-36
2.08667e-22
4.31758e-21
8.11665e-22
2.0406e-20
6.30756e-26
9.31938e-35
1.90984e-29
3.00031e-25
6.03885e-34
1.02061e-22
1.7313e-23
4.60602e-22
6.69623e-41
1.54314e-37
4.03773e-40
3.5053e-49
7.0098e-46
2.31958e-48
1.24281e-42
1.64145e-48
3.64207e-45
1.07958e-47
6.02684e-54
7.60566e-51
4.07289e-51
9.29587e-51
6.01696e-53
3.08765e-50
1.19149e-50
8.6719e-22
2.01828e-22
3.23007e-25
1.78975e-33
3.30771e-30
6.15387e-26
1.62296e-34
4.05365e-24
3.83539e-40
2.25567e-38
5.50483e-41
1.49127e-48
3.33378e-45
9.88017e-48
1.72695e-43
2.83721e-49
5.41406e-46
1.82994e-48
6.28857e-53
2.85044e-50
1.13459e-50
1.93608e-51
5.41853e-54
6.17709e-51
1.6363e-51
1.07713e-23
1.99052e-25
3.62229e-24
4.18918e-27
3.50667e-33
1.02298e-32
6.97174e-29
2.71032e-34
3.96342e-27
7.5898e-26
5.75556e-42
6.6644e-40
1.78697e-42
6.5522e-50
6.69122e-47
2.46003e-49
7.89726e-45
2.51082e-50
3.31199e-47
1.59148e-49
5.59833e-55
1.53057e-51
7.22853e-52
6.86704e-52
2.97166e-52
2.12653e-49
2.12677e-49
9.04591e-27
6.61127e-26
2.62289e-27
3.26955e-27
5.983e-30
2.13027e-35
1.87806e-34
1.85073e-30
3.7101e-38
1.68874e-27
8.25824e-29
1.00442e-28
7.2171e-43
3.19261e-40
3.958e-44
2.06221e-50
4.23357e-48
7.14169e-48
2.17811e-46
5.44304e-44
5.23019e-47
2.1088e-45
3.91418e-50
6.7977e-47
6.69787e-47
2.917e-43
1.30746e-43
2.11414e-44
2.02497e-44
2.24272e-37
7.07035e-40
2.75668e-40
2.41973e-36
1.2517e-34
2.04385e-38
1.98676e-36
4.77263e-36
1.3183e-39
8.24409e-40
3.03769e-33
1.68972e-33
3.91101e-35
2.32439e-35
1.08782e-38
4.54989e-44
6.28006e-38
2.32827e-43
7.20241e-40
3.90869e-45
3.06008e-41
3.42015e-46
4.60061e-38
7.69182e-41
3.41985e-34
2.05315e-33
1.22919e-36
5.42066e-41
4.17055e-39
6.45066e-38
7.38677e-36
3.10654e-40
2.5157e-38
2.26177e-33
3.15236e-34
7.65151e-36
2.92583e-40
2.46663e-38
8.9848e-39
1.04683e-36
4.34606e-41
3.43865e-39
2.57394e-35
2.55971e-36
9.07349e-38
3.91085e-42
3.24913e-40
1.65834e-40
1.38289e-38
1.25239e-42
7.19491e-41
2.67839e-37
3.9678e-38
1.54474e-39
2.0532e-43
8.56814e-42
3.47542e-42
1.72589e-40
1.62565e-43
9.10032e-43
3.51107e-26
4.93063e-24
3.16219e-26
3.95061e-24
2.83501e-24
3.3008e-26
5.04471e-26
2.7845e-38
6.64216e-37
1.05959e-36
8.31002e-39
8.21335e-37
1.16534e-36
5.73663e-39
1.29158e-52
1.64074e-53
8.26856e-52
2.76888e-51
1.93728e-53
8.87269e-52
6.96052e-53
6.17568e-26
2.23686e-23
1.61845e-25
1.82738e-23
2.59774e-25
5.46441e-24
1.54191e-25
9.83353e-36
1.5908e-37
5.73328e-36
4.25951e-38
6.00008e-36
4.11498e-38
6.30863e-36
2.85133e-52
5.16497e-53
2.82699e-51
8.2852e-51
4.05981e-52
4.92901e-53
2.77212e-51
8.99389e-28
2.61911e-25
2.10407e-27
2.00208e-25
3.20746e-27
7.4385e-26
1.46372e-27
2.59844e-39
1.78707e-37
1.63372e-37
1.07062e-39
1.89515e-37
1.33452e-39
1.59965e-37
4.61041e-53
3.62947e-54
1.41444e-52
3.56552e-52
1.02958e-53
3.00003e-54
1.36445e-52
9.87971e-31
2.53572e-28
3.00952e-30
1.65709e-28
3.36583e-30
8.78855e-29
1.64007e-30
5.48746e-41
2.97451e-39
7.23619e-41
2.85129e-41
3.24707e-39
3.53198e-41
2.75512e-39
6.46818e-48
8.35502e-50
8.49015e-49
1.15832e-47
1.30085e-48
1.2125e-47
5.95967e-48
8.01491e-35
2.33655e-34
1.44938e-36
3.23778e-32
1.75361e-35
5.4277e-31
7.71491e-33
1.51828e-30
3.50758e-34
2.53516e-32
1.58899e-29
1.59711e-29
1.94612e-31
1.96853e-31
5.6511e-35
3.84875e-36
1.4098e-37
5.71607e-35
4.52632e-37
9.72003e-35
1.45875e-35
1.21533e-42
1.33527e-44
5.3849e-42
7.67257e-42
5.89034e-43
1.14667e-38
5.78147e-41
1.8892e-39
6.30873e-42
5.8519e-42
1.92781e-37
1.19733e-37
8.8707e-40
1.12998e-39
1.42974e-29
7.02288e-28
8.46198e-28
6.6835e-26
7.65523e-28
1.13922e-27
1.14285e-29
1.48745e-34
1.22498e-32
1.94438e-32
2.13667e-32
1.16991e-34
1.6039e-34
1.61958e-32
2.14389e-31
8.63834e-30
1.30434e-29
1.48671e-31
7.57643e-29
2.91813e-25
3.8265e-27
4.64666e-27
3.77273e-27
5.42215e-27
7.11712e-29
7.54169e-32
9.18561e-34
1.17228e-31
9.96098e-32
9.61842e-34
7.69252e-34
1.26052e-31
1.13931e-30
5.45922e-29
6.77733e-29
1.03818e-30
8.49702e-25
9.57347e-23
9.41462e-25
1.1308e-22
9.80328e-23
1.28567e-24
7.84791e-25
3.4311e-28
2.3652e-28
2.60938e-28
4.57564e-28
6.89374e-27
7.84809e-27
1.26238e-26
6.00076e-27
1.28203e-25
1.70346e-23
2.09073e-23
1.50379e-25
8.88521e-24
1.44655e-25
2.45942e-25
3.62996e-24
5.10874e-22
4.42741e-22
4.17799e-24
4.40014e-22
5.40449e-24
3.69037e-24
1.38411e-27
1.29527e-27
1.22376e-27
2.52176e-27
2.94834e-26
3.71205e-26
5.24056e-26
3.0212e-26
6.88658e-41
2.25841e-40
2.5125e-40
5.75293e-41
6.80967e-43
8.38767e-43
3.92803e-41
4.48218e-36
1.68632e-37
6.64782e-36
3.96819e-38
6.94322e-36
5.61407e-36
4.83208e-38
1.39794e-39
4.06261e-40
1.48801e-39
2.67908e-40
4.51288e-42
4.15992e-42
3.21479e-40
1.06732e-47
5.35067e-47
1.02979e-49
4.19122e-49
6.38839e-47
1.1192e-49
9.79882e-48
4.77175e-47
1.54877e-48
2.86414e-46
4.42581e-49
2.71072e-46
4.33288e-49
4.86372e-47
5.56928e-53
3.03657e-55
1.15545e-52
2.00177e-53
5.28093e-55
1.6563e-52
3.05928e-53
3.16427e-52
8.74802e-51
5.50085e-53
3.02069e-51
5.1266e-53
2.95744e-51
4.21295e-52
1.0933e-52
8.28686e-53
1.41016e-54
4.67658e-52
1.28448e-54
3.90197e-52
1.48077e-52
7.96276e-29
4.0921e-27
4.97369e-27
3.14176e-25
7.40364e-29
4.10367e-27
5.76309e-27
3.06325e-31
8.11574e-34
1.06152e-31
1.24018e-31
8.47075e-34
1.11597e-31
9.08036e-34
1.15811e-30
5.64278e-29
1.02673e-30
7.1311e-29
1.51518e-29
6.83243e-26
6.88606e-28
8.67135e-28
8.01177e-28
1.20842e-27
1.14803e-29
2.59552e-32
1.63376e-32
1.15762e-34
1.82728e-32
1.28106e-34
1.37815e-34
1.87175e-32
2.27629e-31
9.09146e-30
1.46383e-29
1.50208e-31
6.41423e-28
1.382e-27
2.62219e-27
1.28193e-27
1.44617e-26
4.13026e-24
4.66751e-24
3.08036e-26
1.50888e-24
3.34707e-26
4.57908e-26
1.30546e-28
2.28646e-28
2.66834e-28
3.97464e-28
1.40889e-39
3.81822e-40
1.36736e-39
2.77233e-40
4.0033e-42
2.71442e-40
3.98654e-42
9.62622e-37
2.11945e-38
7.74021e-37
6.96766e-39
8.45483e-37
9.90532e-37
5.53176e-39
5.31682e-41
1.97163e-40
1.84492e-40
4.78505e-41
5.54685e-43
6.81091e-43
3.5883e-41
4.36335e-47
2.57686e-46
4.08326e-49
1.44802e-48
4.44841e-47
2.51777e-46
3.99989e-49
8.63258e-48
3.55713e-49
4.24965e-47
8.24365e-50
5.27524e-47
9.30193e-50
7.6243e-48
1.011e-52
1.4651e-54
4.73252e-52
8.53187e-53
1.51923e-52
1.30545e-54
3.72039e-52
1.08648e-52
2.41977e-51
1.37526e-53
6.83904e-52
1.73641e-53
7.60401e-52
4.00486e-53
2.36365e-53
1.98597e-53
1.66512e-55
3.73922e-53
3.60024e-55
6.88422e-53
7.83584e-54
5.95562e-31
5.01988e-29
6.73434e-29
2.97534e-27
9.23502e-31
3.34203e-29
4.8072e-29
3.41822e-33
2.5664e-35
2.37828e-35
3.47891e-33
2.66468e-35
3.62607e-33
2.38932e-35
8.18201e-33
7.86479e-31
1.38955e-32
5.40327e-31
4.63648e-32
1.18999e-28
1.05284e-30
1.53029e-30
1.79973e-30
2.7961e-30
2.89224e-32
6.40638e-35
3.07931e-36
7.81174e-37
8.80049e-35
8.7529e-37
1.21722e-36
7.98776e-35
9.6518e-34
2.63095e-32
4.47486e-32
6.48565e-34
8.28045e-30
1.83159e-29
3.302e-29
1.07237e-29
2.57016e-29
5.08495e-27
4.01931e-27
3.47642e-29
1.93042e-27
5.77197e-29
3.56955e-29
5.53975e-28
1.06309e-25
1.32105e-26
6.96176e-28
4.16576e-26
1.6579e-27
9.91472e-29
3.06501e-31
3.48631e-31
5.99576e-31
3.5618e-31
5.13701e-30
5.37464e-30
1.86286e-29
7.3603e-31
5.48579e-42
2.48137e-41
2.28247e-41
7.27847e-42
1.07957e-43
9.3879e-42
8.71099e-44
3.18889e-38
8.94867e-39
4.36112e-40
1.39462e-40
9.55548e-39
1.341e-38
1.03974e-40
1.71845e-42
8.06195e-42
5.94367e-42
1.38618e-42
2.54995e-44
2.89403e-44
1.0778e-42
1.07064e-48
8.87935e-48
1.48259e-50
5.00137e-50
1.26455e-48
6.99792e-48
1.24582e-50
6.36582e-49
2.77319e-50
3.30509e-48
8.65798e-51
3.64885e-48
8.12057e-51
6.09337e-49
3.4744e-53
6.15302e-56
1.47235e-53
5.79972e-55
4.4299e-54
4.34128e-55
2.77662e-53
3.30744e-51
2.24273e-52
5.75403e-52
9.04847e-51
2.88595e-53
2.91274e-51
1.17602e-50
3.7741e-51
1.9891e-53
4.3686e-52
9.14744e-51
3.02626e-53
2.45714e-51
1.18001e-50
1.58861e-33
1.1464e-31
1.72591e-31
3.44421e-30
3.80815e-33
5.62393e-32
7.77794e-32
2.07773e-35
2.44883e-37
2.59741e-37
2.13311e-35
2.81279e-37
2.27723e-35
2.50075e-37
3.77731e-35
3.75503e-33
1.05308e-34
1.40626e-33
7.46698e-34
1.96277e-30
3.01324e-32
4.3011e-32
3.07261e-32
4.46362e-32
1.27256e-33
4.20375e-36
4.40373e-36
4.40393e-38
1.27421e-36
1.2041e-38
1.74157e-38
1.36658e-36
1.36462e-35
6.459e-34
6.78585e-34
1.82956e-35
2.60134e-30
1.23467e-27
1.66254e-29
1.32784e-27
9.26361e-30
3.54651e-28
1.18902e-29
1.19742e-32
4.06085e-32
4.57577e-32
1.7185e-32
1.9901e-32
1.43523e-31
7.14018e-32
9.89678e-32
3.41505e-31
8.35743e-29
7.93041e-29
9.44238e-31
2.6396e-29
9.43286e-31
8.29889e-31
3.89486e-31
1.09109e-28
8.86097e-29
1.18746e-30
3.15878e-29
1.40349e-30
8.55983e-31
3.91587e-33
9.90539e-33
9.8517e-33
7.61341e-33
4.30802e-33
1.341e-32
1.59919e-32
7.52789e-33
2.03056e-43
2.18797e-43
9.2721e-43
2.74652e-43
5.44794e-45
3.57095e-43
4.18947e-45
4.10484e-40
7.63975e-42
7.15932e-42
2.41144e-42
1.10415e-40
2.12617e-40
3.39353e-42
1.52727e-43
7.88047e-44
1.94468e-44
2.53624e-44
2.408e-44
5.51896e-46
1.20369e-43
5.50714e-49
6.20129e-49
1.42216e-49
2.40795e-48
1.33601e-49
1.05922e-48
8.3454e-49
5.82996e-47
3.71524e-46
1.59458e-44
9.4828e-45
1.01216e-46
1.07338e-46
2.82054e-45
5.25586e-48
5.78172e-50
8.44134e-49
5.36841e-48
1.27966e-48
7.57609e-48
5.15837e-48
8.13529e-46
1.86644e-45
2.97939e-43
4.55068e-44
1.92966e-45
7.34494e-46
5.76293e-44
6.09114e-46
8.48336e-46
1.71093e-43
2.86035e-44
1.15455e-45
6.06499e-46
2.75135e-44
4.75105e-37
3.7318e-38
7.45184e-39
2.72325e-36
3.67775e-39
1.84239e-36
6.30182e-37
3.90869e-38
4.86577e-40
7.12136e-41
3.65344e-38
3.00082e-40
4.79631e-38
9.90678e-39
3.2836e-35
4.32835e-36
2.04164e-37
5.42728e-35
2.86454e-37
6.92717e-35
1.74921e-35
1.15831e-36
7.29034e-39
1.33471e-39
1.79222e-37
1.23385e-38
8.47945e-37
1.71452e-37
7.3234e-37
6.64213e-39
1.16634e-39
1.0676e-37
7.90986e-39
6.21607e-37
1.47616e-37
1.04752e-51
1.01984e-42
2.24957e-50
2.75857e-46
3.16225e-52
1.10866e-50
1.02356e-41
2.87209e-52
1.56959e-45
6.62128e-52
8.71444e-53
8.31064e-44
1.10332e-50
9.51215e-48
2.21283e-49
8.04153e-51
8.85495e-47
4.13541e-46
2.80872e-46
1.27669e-46
1.15766e-35
1.45318e-38
3.31899e-40
2.08836e-41
2.60123e-41
1.22346e-41
1.94025e-33
2.08735e-36
7.09836e-37
1.37815e-40
4.60696e-37
1.48663e-39
2.58824e-36
5.8828e-45
1.43765e-48
4.98038e-46
1.10115e-50
6.43022e-44
4.22023e-48
1.46313e-45
1.32852e-39
2.27877e-36
1.44032e-40
4.36056e-37
5.98686e-44
3.92503e-48
1.33775e-45
9.98778e-52
5.90349e-45
5.54616e-49
1.86488e-46
1.11937e-41
1.83769e-38
1.9286e-43
6.00966e-40
4.90113e-46
2.3537e-50
7.94124e-48
5.89682e-53
8.35586e-48
2.51106e-50
2.98546e-49
1.0714e-44
1.07427e-41
3.34341e-44
1.13219e-41
6.23098e-49
7.30302e-48
5.14388e-48
2.75655e-44
5.80846e-45
2.08303e-45
1.49628e-45
2.79566e-37
1.79183e-40
4.67712e-42
7.58859e-35
1.22047e-35
1.21167e-36
8.07377e-38
1.10531e-49
1.84004e-49
1.13632e-50
3.57132e-51
6.22619e-49
2.04512e-50
7.38792e-50
1.46432e-39
6.77154e-44
4.54779e-42
1.11973e-41
8.79637e-39
4.83673e-43
2.8408e-41
3.82332e-49
1.93602e-48
5.63473e-50
1.5179e-50
3.97363e-49
2.67239e-48
3.78649e-50
7.79471e-39
4.36506e-43
2.53818e-41
1.02865e-42
1.34729e-39
6.1297e-44
4.10316e-42
1.59029e-51
1.56762e-50
3.43152e-52
5.27091e-53
2.68629e-51
9.81226e-51
1.16534e-52
5.64031e-41
2.61193e-45
1.72297e-43
1.40224e-45
1.87494e-42
9.0632e-47
5.82896e-45
3.84491e-49
2.724e-51
1.48441e-49
1.14472e-48
4.6312e-50
4.03639e-49
7.30415e-49
3.92419e-44
1.81624e-46
1.31308e-45
3.16807e-43
2.45136e-43
5.87446e-44
1.87685e-43
6.76086e-37
1.10203e-35
1.29004e-37
1.29009e-35
1.20239e-37
4.48068e-36
7.06858e-37
1.35753e-37
4.12252e-42
7.15477e-40
6.34228e-36
3.15444e-38
5.56547e-43
5.59635e-43
4.09135e-43
7.16957e-39
5.74647e-40
6.34655e-41
6.2431e-41
3.71544e-38
2.09381e-38
2.48965e-39
4.3366e-40
6.10534e-38
7.30359e-39
3.25768e-38
2.16444e-37
2.2161e-39
2.02998e-37
4.07324e-38
3.18588e-37
3.00511e-38
1.54983e-37
1.50275e-47
3.33361e-47
3.72565e-46
1.85782e-44
1.09103e-46
1.15897e-45
9.50029e-48
4.00389e-49
1.54322e-50
1.98504e-48
5.60497e-50
2.81607e-48
4.2656e-50
4.09097e-49
5.60311e-47
9.01757e-44
3.61171e-46
5.98225e-45
5.10856e-46
5.07973e-45
5.92676e-47
1.91251e-37
1.76068e-37
3.75678e-38
1.95308e-39
1.37319e-37
2.79127e-37
2.50573e-38
3.45469e-38
4.10547e-40
2.24071e-38
2.24384e-39
5.86399e-38
6.74841e-39
2.13652e-38
5.17202e-47
3.43419e-46
5.66395e-45
8.14933e-44
5.63829e-47
4.71416e-46
4.51514e-45
7.30234e-50
3.49991e-51
1.8294e-49
2.74006e-51
6.04341e-49
8.24862e-51
3.7287e-50
1.01726e-47
1.75239e-44
3.32687e-47
3.47442e-46
1.04012e-46
1.05392e-45
4.97342e-48
1.15494e-39
1.54574e-39
2.78368e-40
8.99538e-42
1.20966e-39
1.47011e-39
9.32423e-41
5.39334e-41
7.92478e-43
2.95277e-41
2.97321e-42
1.13296e-40
9.33929e-42
2.3271e-41
2.15366e-49
2.81344e-48
3.89654e-47
3.29527e-46
3.78792e-49
1.81735e-48
1.52483e-47
4.74038e-52
1.01581e-53
3.33248e-52
1.3785e-51
1.20198e-51
2.78756e-52
7.75291e-52
1.74742e-50
3.36868e-47
5.04484e-50
4.92927e-49
2.02581e-49
1.68793e-48
8.05123e-51
6.31549e-43
1.34476e-42
1.82807e-43
5.15796e-45
8.2637e-43
7.00696e-43
5.80315e-44
6.15309e-43
2.1993e-45
3.20691e-43
2.69327e-43
1.80088e-43
7.29699e-44
9.32705e-43
1.80762e-49
5.34297e-51
1.46029e-49
6.63695e-49
2.98472e-50
1.22763e-49
8.20418e-49
4.15894e-47
1.81457e-46
1.06072e-44
6.78871e-45
6.66049e-47
9.01343e-47
2.03017e-45
1.44465e-47
4.89121e-47
2.68423e-45
4.98626e-45
1.84435e-47
1.04776e-46
5.07925e-46
2.74938e-37
9.19524e-37
3.59413e-39
8.39058e-37
1.38619e-38
9.11557e-37
8.91538e-38
2.78291e-38
1.61755e-39
5.80959e-41
2.22263e-38
1.36832e-39
3.41872e-38
6.39081e-39
4.84464e-39
5.52786e-41
1.56285e-41
5.01536e-40
1.91096e-40
2.60611e-39
1.72457e-39
1.05293e-33
2.79326e-36
1.85505e-34
2.16025e-34
1.47808e-34
2.84936e-34
4.99605e-34
3.56697e-32
3.61636e-34
4.00144e-33
3.59361e-32
4.01178e-33
1.3165e-32
1.45846e-32
4.14238e-33
4.00984e-32
4.45334e-34
4.13836e-34
3.92718e-32
3.5891e-33
1.3638e-32
2.22994e-43
6.42284e-43
6.68039e-43
1.53908e-45
8.3772e-45
9.83729e-45
1.42884e-45
4.56819e-49
3.66191e-48
1.205e-47
1.94821e-50
1.36643e-51
6.66931e-50
1.54226e-51
5.56259e-55
1.45162e-54
2.40241e-52
1.26766e-52
4.48675e-54
4.09461e-52
5.69639e-54
1.14882e-42
3.47108e-42
3.44721e-42
7.00945e-45
4.42799e-44
7.1236e-45
4.36163e-44
1.0999e-47
3.88852e-49
3.04047e-48
6.15422e-50
1.29098e-51
1.61333e-50
1.21574e-51
2.35579e-52
2.11364e-54
3.47748e-53
3.83817e-52
5.56313e-54
1.06857e-52
5.04884e-54
1.88109e-44
6.00605e-44
5.60355e-44
1.37101e-46
1.21723e-45
1.56776e-46
9.92172e-46
2.8897e-49
1.86684e-50
1.88048e-49
1.97037e-51
7.29762e-53
1.96334e-51
1.76971e-52
8.4197e-51
4.0933e-52
3.39675e-53
4.38164e-53
1.36375e-52
7.60629e-51
1.9411e-51
9.19383e-46
9.72044e-46
3.00833e-45
8.04918e-48
7.50565e-47
9.61638e-48
5.63828e-47
6.22095e-48
1.54165e-48
2.44983e-48
1.82447e-49
2.67388e-50
3.00348e-47
3.32184e-48
7.87076e-47
5.21145e-49
2.0702e-48
1.84394e-48
4.83868e-49
3.73352e-46
7.09839e-47
5.97732e-40
4.2281e-38
2.97857e-40
4.67228e-38
1.43337e-39
3.64573e-40
8.31725e-38
4.4872e-41
6.04315e-42
4.92298e-39
7.9538e-42
4.89192e-39
1.10606e-39
8.2738e-40
1.96929e-33
1.67478e-31
2.16329e-33
1.97084e-29
2.44393e-31
1.21841e-29
9.99416e-32
9.79218e-30
2.56718e-30
4.00646e-28
1.62106e-27
9.7568e-30
3.67811e-28
2.28407e-30
2.26176e-36
2.0082e-35
1.73676e-37
1.94562e-33
1.2742e-35
5.95122e-34
3.91907e-36
1.53081e-32
2.81344e-34
1.61763e-34
5.41601e-32
2.79452e-34
1.30534e-32
8.81262e-35
3.73254e-42
1.24713e-42
3.75939e-42
7.67318e-45
4.93368e-44
4.68758e-44
7.784e-45
1.67329e-43
5.24182e-43
4.97199e-43
1.21199e-45
6.60118e-45
7.95659e-45
1.08969e-45
7.79316e-45
2.41829e-44
2.33808e-44
7.21358e-47
4.1475e-46
4.54398e-46
6.95385e-47
8.74339e-46
2.80982e-46
1.15601e-46
3.65327e-48
9.55122e-46
1.33187e-47
2.00632e-46
3.4655e-40
3.32665e-42
1.15838e-41
1.07742e-39
3.53854e-42
1.41209e-41
4.31969e-40
2.51795e-43
1.39479e-41
8.14051e-41
2.2425e-43
2.17049e-45
1.21962e-42
5.90245e-45
3.51964e-44
7.70698e-41
1.09124e-41
1.13042e-42
6.02571e-45
1.76318e-43
1.15373e-45
1.60049e-45
1.12387e-42
3.4864e-43
1.77954e-44
1.18926e-46
7.39921e-45
5.55527e-47
5.57265e-45
1.95178e-46
4.2144e-44
1.1628e-45
4.04808e-47
3.17074e-45
3.77259e-46
1.11423e-38
5.25804e-40
4.50955e-41
1.94552e-40
4.09009e-41
3.17309e-38
1.09107e-38
2.54068e-41
9.18624e-44