/*--------------------------------*- C++ -*----------------------------------*\
  =========                 |
  \\      /  F ield         | OpenFOAM: The Open Source CFD Toolbox
   \\    /   O peration     | Website:  https://openfoam.org
    \\  /    A nd           | Version:  9
     \\/     M anipulation  |
\*---------------------------------------------------------------------------*/
FoamFile
{
    format      ascii;
    class       volScalarField;
    location    "0.00075";
    object      overpressureMax;
}
// * * * * * * * * * * * * * * * * * * * * * * * * * * * * * * * * * * * * * //

dimensions      [1 -1 -2 0 0 0 0];

internalField   nonuniform List<scalar> 
8517
(
0.122164
2.3399e-05
4.3826e-07
7.34872e-09
5.82077e-11
1.82447
0.000209259
2.95829e-06
4.40778e-08
6.25732e-10
0.000166056
2.73641e-06
5.61558e-08
8.44011e-10
0
0.0108956
0.0741185
2.35724
0.181965
0.00024091
1.58416e-05
0.000408435
3.63903e-05
3.07382e-06
2.36905e-07
3.89555e-08
4.00178e-09
4.80213e-10
0
5.36587e-07
9.44419e-09
1.01863e-10
5.69057e-06
7.95262e-08
1.1496e-09
1.28784e-08
1.45519e-10
0
0
0.000804626
2.0448e-05
3.02767e-07
4.62751e-09
0
0
2355.49
4.15242e-05
1.68118e-06
2.32103e-08
2.32831e-10
0.0147601
4.34088e-05
6.98739e-07
1.32859e-08
2.03727e-10
0.00185236
5.0274e-06
1.19864e-07
2.51748e-09
0
0.000851421
4.08083e-05
6.54953e-07
1.14233e-08
1.45519e-10
0
6.22678e-05
1.07661e-06
2.03581e-08
3.34694e-10
0
0
8.35629e-07
2.04018e-08
4.07454e-10
0
0
0
3.20142e-10
0
0
0
0
0
0
0
0
0
0
0
0
0
0
0
0
0
0
0
0.0749661
9.27214e-05
4.96459e-06
1.18234e-07
2.13913e-09
249487
0.0258204
1.38732e-05
3.17159e-07
5.61704e-09
0.0162275
0.000377797
9.54601e-06
1.28333e-07
1.94996e-09
0.053767
0.00076334
2.33674e-05
3.12633e-07
4.23461e-09
0.715304
7.17197e-05
1.06756e-06
1.76369e-08
2.61934e-10
29.6105
0.000191137
2.74488e-06
4.17203e-08
6.40284e-10
0.0241559
0.000117107
5.05755e-06
8.62783e-08
1.25146e-09
0
0.149544
0.000327659
1.10749e-05
2.07947e-07
3.24508e-09
0
0.00149136
9.38642e-06
1.73502e-07
2.73576e-09
0
0
0.00698998
2.07357e-05
4.22588e-07
7.02858e-09
8.73115e-11
0
7.77518e-06
1.7682e-07
3.31784e-09
0
0
0
1.66413e-05
4.26822e-07
8.51287e-09
8.73115e-11
0
0
1.07626e-07
2.59024e-09
0
0
0
0
2.54324e-07
6.57747e-09
8.73115e-11
0
0
0
1.29512e-09
0
0
0
0
0
3.20142e-09
5.82077e-11
0
0
0
0
0
0
0
0
0
0
0
0
0
0
0
0
0
0
0
0
0
0
0
0
0
0
0
0
436.31
595.978
0.000800764
0.00116595
3.05791e-06
6.0559e-06
3.31493e-08
3.34694e-10
0
7.51315e-08
9.31323e-10
0
0.903132
0.0108644
0.025586
0.0269119
0.882562
2.50249
0.0113092
0.00547408
0.154885
0.424937
0.0218062
0.587907
2.02578
0.00741523
0.679075
0.334004
0.00460674
0.0120886
0.639006
0.00637074
0.0156358
2.11425
0.0327692
9855.34
283555
2.29715
13036.5
0.0352943
286.031
0.0473012
155.977
371.249
0.0571278
171.145
0.0501682
0.00896052
37322.1
367.918
189751
1.48691
7532.29
0.0289481
9.93571
0.0101042
4.88939
101.151
0.0432317
50.9887
0.0401072
0.0054939
0.102124
140.985
4290.29
0.156586
0.106465
0.00561281
0.0192373
0.111959
0.00528417
625.111
0.0265212
0.153946
0.00541504
3.36098
0.0016265
0.0146448
2641.85
0.100502
0.0677464
0.00340085
25.3274
0.000194809
2.52828e-06
3.38332e-08
4.36557e-10
1.45199e-07
1.92085e-09
0.00168023
1.70737e-05
2.95797e-07
5.23869e-09
0
0.000110826
3.27911e-06
4.0236e-08
5.52973e-10
0
27.7812
31.6055
0.000229233
0.000343776
2.95813e-06
4.95053e-06
3.84171e-08
7.41566e-08
4.80213e-10
1.09139e-09
36.1278
0.0264555
0.000783475
0.000752728
1.08447e-05
1.14146e-05
1.73924e-07
2.6339e-09
0
0
0
0
0
0
0
0
0
0
0
0
0
0
0
0
0
0
0
0
0
0
0
0
4.36557e-11
2.61934e-10
3.20142e-10
4.36557e-11
0
0
0
0
0
0
0
0
2.20753e-08
2.56841e-08
5.54428e-09
5.82077e-10
0
0
0
0
0
0
0
1.77993e-06
2.09401e-06
3.55067e-07
3.63507e-08
2.18279e-09
4.36557e-11
0
0
0
0
0
0.000197337
0.000229246
2.69384e-05
1.72299e-06
1.32044e-07
4.75848e-09
7.27596e-11
0
0
0
0
53.044
0.0576191
0.00420851
0.000104639
8.94394e-06
2.75119e-07
6.51926e-09
1.01863e-10
0
0
0
1.89827e+06
1.88015e+06
730957
226107
0.00140203
1.78847e-05
3.19604e-07
5.98084e-09
8.73115e-11
0
0
0.397824
0.0191696
1.43404e-05
2.1758e-07
3.59432e-09
0
0
0
0
0
0
0
0
0
0
0
0
0
0
0
0
0
0
0
0
0
0
0
0
0
0
4.36557e-11
3.63798e-10
3.92902e-10
5.82077e-11
0
0
0
0
0
0
0
0
2.26137e-08
2.468e-08
6.4465e-09
4.65661e-10
0
0
0
0
0
0
0
1.08661e-06
1.20472e-06
3.51851e-07
2.85509e-08
1.65892e-09
0
0
0
0
0
0
4.82778e-05
5.34774e-05
1.43239e-05
1.66931e-06
1.1301e-07
3.69619e-09
5.82077e-11
0
0
0
0
0.0646924
0.00399287
0.000456043
0.000109117
8.07941e-06
2.4015e-07
5.00586e-09
4.36557e-11
0
0
0
2.02133
147679
3704.07
9.60557
0.000263945
1.70119e-05
2.77345e-07
4.49654e-09
4.36557e-11
0
0
0.0668701
0.00281899
1.48821e-05
1.90863e-07
2.64845e-09
0
0
0
0
0
0
0
0
0
0
0
0
0
0
0
0
0
0
0
0
0
0
0
0
0
0
0
5.82077e-11
5.82077e-11
0
0
0
0
0
0
0
0
0
6.75209e-09
5.92263e-09
1.39698e-09
2.91038e-11
0
0
0
0
0
0
0
4.15006e-07
3.15791e-07
8.7748e-08
5.31145e-09
2.61934e-10
0
0
0
0
0
0
1.9376e-05
1.2817e-05
4.42183e-06
2.85087e-07
1.85537e-08
5.96629e-10
0
0
0
0
0
0.00805851
0.000426924
0.00011624
1.56109e-05
1.08652e-06
3.54194e-08
8.58563e-10
0
0
0
0
0.227387
52728.8
214.604
2.64464
7.58329e-05
2.05686e-06
4.00469e-08
7.13044e-10
0
0
0
0.002782
0.000143783
1.82832e-06
2.82744e-08
4.65661e-10
0
0
0
0
0
0
0
0
0
0
0
0
0
0
0
0
0
0
0
0
0
0
0
0
0
0
0
0
0
0
0
0
0
0
0
0
0
0
3.34694e-10
3.7835e-10
5.82077e-11
0
0
0
0
0
0
0
0
2.4098e-08
2.42871e-08
5.60249e-09
4.51109e-10
0
0
0
0
0
0
0
1.30384e-06
1.27887e-06
2.98809e-07
3.05445e-08
1.57161e-09
0
0
0
0
0
0
7.04298e-05
6.95006e-05
1.33462e-05
2.17195e-06
1.07684e-07
2.73576e-09
1.45519e-11
0
0
0
0
0.871666
5.14712
0.233379
9.4044e-05
8.42576e-06
1.60915e-07
2.89583e-09
0
0
0
0
0.00360254
0.000236641
9.91976e-06
1.38767e-07
2.08092e-09
0
0
0
0
0
0
0
0
0
0
0
0
0
0
0
0
0
0
0
0
0
0
0
0
0
0
0
0
0
0
0
0
0
0
0
0
0
0
0
0
0
0
0
0
0
0
0
0
0
0
7.42148e-10
8.14907e-10
1.45519e-10
0
0
0
0
0
0
0
0
4.18804e-08
4.38304e-08
1.03173e-08
9.02219e-10
0
0
0
0
0
0
0
2.06665e-06
2.13654e-06
4.72835e-07
5.29835e-08
2.64845e-09
2.91038e-11
0
0
0
0
0
0.000116449
0.000115792
1.93951e-05
3.41085e-06
1.49172e-07
3.69619e-09
2.91038e-11
0
0
0
0
0.000111294
8.92863e-06
1.74448e-07
3.27418e-09
1.45519e-11
0
0
0
0
0
0
0
0
0
0
0
0
0
0
0
0
0
0
0
0
0
0
0
0
0
0
0
0
0
0
0
0
0
0
0
0
0
0
0
0
0
0
0
0
0
0
0
0
0
0
0
0
0
0
0
0
0
0
0
0
0
0
0
1.30967e-10
9.31323e-10
1.01863e-09
1.74623e-10
0
0
0
0
0
0
0
0
9.32778e-09
4.29573e-08
4.57949e-08
1.12341e-08
1.00408e-09
0
0
0
0
0
0
0
1.66165e-06
1.75786e-06
4.15137e-07
4.86907e-08
2.41562e-09
4.36557e-11
0
0
0
0
0
2.2476e-06
1.0767e-07
2.80852e-09
1.45519e-11
0
0
0
0
0
0
0
0
0
0
0
0
0
0
0
0
0
0
0
0
0
0
0
0
0
0
0
0
0
0
0
0
0
0
0
0
0
0
0
0
0
0
0
0
0
0
0
0
0
0
0
0
0
0
0
0
0
0
0
0
0
0
0
0
0
0
0
0
0
0
0
0
0
0
0
0
1.16415e-10
8.00355e-10
8.73115e-10
1.89175e-10
0
0
0
0
0
0
0
0
2.86964e-08
3.07191e-08
7.87259e-09
7.13044e-10
0
0
0
0
0
0
0
2.63099e-08
1.38243e-09
0
0
0
0
0
0
0
0
0
0
0
0
0
0
0
0
0
0
0
0
0
0
0
0
0
0
0
0
0
0
0
0
0
0
0
0
0
0
0
0
0
0
0
0
0
0
0
0
0
0
0
0
0
0
0
0
0
0
0
0
0
0
0
0
0
0
0
0
0
0
0
0
0
0
0
0
0
0
0
0
0
0
0
0
0
0
0
0
0
0
4.65661e-10
4.65661e-10
1.01863e-10
0
0
0
0
0
0
0
0
2.76486e-10
0
0
0
0
0
0
0
0
0
0
0
0
0
0
0
0
0
0
0
0
0
0
0
0
0
0
0
0
0
0
0
0
0
0
0
0
0
0
0
0
0
0
0
0
0
0
0
0
0
0
0
0
0
0
0
0
0
0
0
0
0
0
0
0
0
0
0
0
0
0
0
0
0
0
0
0
0
0
0
0
0
0
0
0
0
0
0
0
0
0
0
0
0
0
0
0
0
0
0
0
0
0
0
0
0
0
0
0
0
0
0
0
0
0
0
0
0
0
0
0
0
0
0
0
0
0
0
0
0
0
0
0
0
0
0
0
0
0
0
0
0
0
0
0
0
0
0
0
0
0
0
0
0
0
0
0
0
0
0
0
0
0
0
0
0
0
0
0
0
0
0
0
0
0
0
0
0
0
0
0
0
0
0
0
0
0
0
0
0
0
0
0
0
0
0
0
0
0
0
0
0
0
0
0
0
0
0
0
0
0
0
0
0
190.897
0.0862581
0.00283599
0.00921451
0.000239408
0.433072
4.49113e-05
4.663e-05
1.07879e-05
0.00893481
7.08402e-07
7.56132e-07
2.15543e-07
7.63543e-06
1.18453e-08
1.25874e-08
3.50701e-09
1.64509e-07
1.45519e-10
1.45519e-10
0
2.80852e-09
0
0
0
0
17.7998
0.242949
4.62959e-06
8.03266e-08
0.0205418
0.000870496
4.295e-06
6.07397e-08
0.00632244
4.31844e-05
6.24947e-07
1.05356e-08
0.00180565
4.65297e-06
6.07106e-08
8.44011e-10
6.18608e-06
9.86329e-08
1.55705e-09
0
8.19564e-08
1.68802e-09
0
0
1.07684e-09
0
0
0
0
0
0
0
0
0
0
0
0
0
0
0
106894
6.31167
0.000739569
0.00134548
0.000257833
0.000683312
3.57255e-05
3.30042e-06
4.86212
0.0111027
8.16619e-06
2.99432e-06
4.7026e-07
3.72384e-08
0.000136098
0.00013816
1.75205e-07
5.80185e-08
6.72298e-09
4.22006e-10
1.73798e-06
1.72679e-06
2.89583e-09
8.44011e-10
2.91038e-11
0
2.36323e-08
2.32685e-08
0
0
0
0
3.0559e-10
3.0559e-10
3.4814e-07
6.66478e-09
8.73115e-11
0
0
9.3024e-06
1.88054e-07
3.0559e-09
0
0
6.68642e-05
3.30465e-06
5.76692e-08
7.567e-10
0
0.114946
3.43221e-05
4.3973e-07
6.67933e-09
4.36557e-11
1.22236e-09
0
9.31323e-10
0
1.45519e-10
0
0
0
0
0
0
0
0
0
0
0
0
0
0
0
0.0641759
3.69933e-05
4.27113e-07
6.15546e-09
1.45519e-11
41.8931
0.033422
0.000850197
0.00079118
1.16563e-05
1.09963e-05
1.55254e-07
1.48997e-07
2.06637e-09
2.00816e-09
44.0484
1.37945
0.0012395
0.0013136
1.81845e-05
1.97623e-05
2.70971e-07
2.96059e-07
4.00178e-09
4.38013e-09
453933
1.96461e+06
726158
16582.9
4421.9
42.5475
11.5832
326670
37115.7
126528
11.8111
2.95402
2.93022
0.701041
0
2.91038e-11
6.12636e-09
3.61455e-07
1.7604e-05
0
4.36557e-11
5.55883e-09
3.67625e-07
2.89891e-05
0
0
9.02219e-10
5.38275e-08
3.24231e-06
0.000819308
1647.56
0.00345182
91.5399
0.000213659
0.103327
1.47753e+06
12226.5
1136.4
0
0
0
0
0
0
0
0
0
0
0
0
0
0
0
0
0
0
0
0
0
0
0
0
0
0
0
0
0
0
0
0
0
0
0
0
0
0
0
0
0
0
0
0
0
0
0
0
0
0
0
0
0
0
0
0
0
0
0
8.73115e-11
0
0
0
0
0
0
0
0
8.73115e-11
5.90808e-09
0
0
0
0
0
0
0
2.91038e-11
5.09317e-09
2.81303e-07
0
0
0
0
0
0
0
0
0
0
0
0
0
0
0
0
0
0
0
0
0
0
0
0
0
0
0
0
0
0
0
0
0
0
0
0
0
0
0
0
0
0
0
0
0
0
0
0
0
0
0
0
0
0
0
0
0
0
0
5.82077e-11
0
0
0
0
0
0
0
0
5.82077e-11
4.49654e-09
0
0
0
0
0
0
0
1.45519e-11
3.95812e-09
2.10275e-07
0
0
0
0
0
0
0
0
0
0
0
0
0
0
0
0
0
0
0
0
0
0
0
0
0
0
0
0
0
0
0
0
0
0
0
0
0
0
0
0
0
0
0
0
0
0
0
0
0
0
0
0
0
0
0
0
0
0
0
0
0
0
0
0
0
0
0
0
0
6.40284e-10
0
0
0
0
0
0
0
0
5.96629e-10
2.92348e-08
0
0
0
0
0
0
0
0
0
0
0
0
0
0
0
0
0
0
0
0
0
0
0
0
0
0
0
0
0
0
0
0
0
0
0
0
0
0
0
0
0
0
0
0
0
0
0
0
0
0
0
0
0
0
0
0
0
0
0
0
0
0
0
0
0
0
0
0
0
0
0
0
0
0
0
0
0
0
0
2.05182e-09
0
0
0
0
0
0
0
0
0
0
0
0
0
0
0
0
0
0
0
0
0
0
0
0
0
0
0
0
0
0
0
0
0
0
0
0
0
0
0
0
0
0
0
0
0
0
0
0
0
0
0
0
0
0
0
0
0
0
0
0
0
0
0
0
0
0
0
0
0
0
0
0
0
0
0
0
0
0
0
0
0
0
0
0
0
0
0
0
0
0
0
0
0
0
0
0
0
0
0
0
0
0
0
0
0
0
0
0
0
0
0
0
0
0
0
0
0
0
0
0
0
0
0
0
0
0
0
0
0
0
0
0
0
0
0
0
0
0
0
0
0
0
0
0
0
0
0
0
0
0
0
0
0
0
0
0
0
0
0
0
0
0
0
0
0
0
0
0
0
0
0
0
0
0
0
0
0
0
0
0
0
0
0
0
0
0
0
0
0
0
0
0
0
0
0
0
0
0
0
0
0
0
0
0
0
0
0
0
0
0
0
0
0
0
0
0
0
0
0
0
0
0
0
0
0
0
0
0
0
0
0
0
0
0
0
0
0
0
0
0
0
0
0
0
0
0
0
0
0
0
0
0
0
0
0
0
0
0
0
0
0
0
0
0
0
0
0
0
0
0
0
0
0
0
0
0
0
0
0
0
0
0
0
0
0
0
0
0
0
0
0
0
0
0
0
0
0
0
0
0
0
0
0
0
0
0
0
0
0
0
0
0
0
0
0
0
0
0
0
0
0
0
0
0
0
0
0
0
0
0
0
0
0
0
0
0
0
0
0
0
0
0
0
0
0
0
0
0
0
0
0
0
0
0
0
0
0
0
0
0
0
0
0
0
0
0
0
0
0
0
0
0
0
0
0
0
0
0
0
0
0
0
0
0
0
0
0
0
0
0
0
0
0
0
0
0
0
0
0
0
0
0
0
0
0
0
0
0
0
0
0
0
0
0
0
0
0
0
0
0
0
0
0
0
0
0
0
0
0
0
0
0
0
0
0
0
0
0
0
0
0
0
0
0
0
0
0
0
0
0
0
0
0
0
0
0
0
0
0
0
0
0
0
0
0
0
0
0
0
0
0
0
0
0
0
0
0
0
0
0
0.000283728
0.0154614
794409
0.000391169
0.0354221
119.796
8.44891e-05
9.68816e-05
0.00390667
7.68171e-06
0.000295749
0.0217528
0.000160782
1.15193e-07
6.48168e-06
0.000124032
4.59726e-06
0.000790019
0.00367031
1.92085e-09
7.28614e-08
1.33501e-06
5.66506e-08
2.55404e-06
2.54382e-05
0
1.06229e-09
1.93832e-08
8.58563e-10
2.76777e-08
3.9197e-07
0
0
2.18279e-10
0
3.34694e-10
6.1118e-09
0
0
0
0
0
4.36557e-11
0
0
0
0
0
0
0
0
0
0
0
0
0
0
0
0
0
5.38421e-10
4.36557e-11
2.08092e-09
3.80387e-08
4.46744e-09
1.28552e-07
1.89169e-06
2.61294e-07
7.9716e-06
8.1736e-05
1.62573e-05
0.0018427
125.348
0
0
0
0
0
0
0
0
0
0
0
4.65661e-10
0
1.71713e-09
2.85072e-08
3.50701e-09
1.0377e-07
1.50091e-06
1.92478e-07
7.21877e-06
8.44608e-05
1.23862e-05
0.000589355
4.17298
0
0
0
0
0
0
0
0
0
0
0
2.91038e-11
0
2.61934e-10
5.19503e-09
4.94765e-10
1.5556e-08
2.70084e-07
2.66737e-08
8.25079e-07
1.51974e-05
1.36523e-06
5.03621e-05
0.00772
0
0
0
0
0
0
0
0
0
0
0
0
0
0
3.34694e-10
0
1.03319e-09
2.17697e-08
1.8772e-09
7.39528e-08
1.26797e-06
1.0895e-07
6.4386e-06
9.69419e-05
0
0
0
0
0
0
0
0
0
0
0
0
0
0
0
0
0
6.8394e-10
0
1.77533e-09
3.61033e-08
2.43017e-09
9.92586e-08
1.91705e-06
0
0
0
0
0
0
0
0
0
0
0
0
0
0
0
0
0
0
0
0
7.13044e-10
0
1.67347e-09
3.3775e-08
0
0
0
0
0
0
0
0
0
0
0
0
0
0
0
0
0
0
0
0
0
0
0
5.67525e-10
0
0
0
0
0
0
0
0
0
0
0
0
0
0
0
0
0
0
0
0
0
0
0
0
0
0
0
0
0
0
0
0
0
0
0
0
0
0
0
0
0
0
0
0
0
0
0
0
0
0
0
0
0
0
0
0
0
0
0
0
0
0
0
0
0
0
0
0
0
0
0
0
0
0
0
0
0
0
0
3.88536e-09
2.42828e-07
0
0
0
0
0
0
0
2.76486e-09
1.75074e-07
1.09531e-05
0
0
0
0
0
0
8.14907e-10
5.24306e-08
3.23176e-06
0.159507
0
0
0
0
0
1.89175e-10
1.97324e-08
1.90882e-06
0
0
0
0
0
2.06637e-09
1.34183e-07
6.56839e-06
0
0
0
0
0
0
0
0
0
2.31375e-09
1.40688e-07
9.74e-06
0
0
0
0
0
0
8.73115e-10
5.00149e-08
2.83326e-06
0.000195436
0
0
0
0
0
1.45519e-10
1.25729e-08
6.36632e-07
0
0
0
0
0
1.92085e-09
1.20781e-07
7.82768e-06
0
0
0
0
0
0
0
0
0
3.34694e-10
2.12312e-08
1.19656e-06
0
0
0
0
0
0
1.16415e-10
9.31323e-09
4.95202e-07
2.96288e-05
0
0
0
0
0
0
2.6339e-09
1.30603e-07
0
0
0
0
0
3.0559e-10
1.81753e-08
1.06114e-06
0
0
0
0
0
0
0
0
0
0
1.45519e-09
9.37871e-08
0
0
0
0
0
0
0
6.1118e-10
4.21715e-08
3.48224e-06
0
0
0
0
0
0
1.16415e-10
9.18226e-09
0
0
0
0
0
0
1.36788e-09
8.92906e-08
0
0
0
0
0
0
0
0
0
0
0
2.19734e-09
0
0
0
0
0
0
0
0
1.1205e-09
6.65023e-08
0
0
0
0
0
0
0
2.61934e-10
0
0
0
0
0
0
0
2.73576e-09
0
0
0
0
0
0
1.01863e-10
8.26549e-09
0
0
0
0
0
0
0
0
0
0
0
0
0
0
0
0
0
0
0
1.23691e-09
0
0
0
0
0
0
0
0
0
0
0
0
0
0
0
1.45519e-11
0
0
0
0
0
0
0
1.16415e-10
0
0
0
0
0
0
0
0
0
0
0
0
0
0
0
0
0
0
0
0
0
0
0
0
0
0
0
0
0
0
0
0
0
0
0
0
0
0
0
0
0
0
0
0
0
0
0
0
0
0
0
0
0
0
0
0
0
0
0
0
0
0
0
0
0
0
0
0
0
0
0
0
0
0
0
0
0
0
0
0
0
0
0
0
0
0
0
0
0
0
0
0
0
0
0
0
0
0
0
0
0
0
0
0
0
0
0
0
0
0
0
0
0
0
0
0
0
0
0
0
0
0
0
0
0
0
0
0
0
0
0
0
0
0
0
0
0
0
0
0
0
0
0
0
0
0
0
0
0
0
0
0
0
0
0
0
0
0
0
0
0
0
0
0
0
0
0
0
0
0
0
0
0
0
0
0
7.56158e-05
3.25002
0.000143653
0.0347065
3.4306e-05
0.0084479
0.000570297
0.0740021
5.39061e-06
0.00111496
7.12259e-05
0.00806734
5.16942e-07
3.15658e-05
5.16353e-06
0.000146269
1.65164e-08
8.60993e-07
1.71814e-07
9.05311e-06
4.76895e-07
2.23962e-05
3.34694e-10
1.73459e-08
3.33239e-09
1.73837e-07
9.90985e-09
4.80068e-07
0
2.61934e-10
0
2.60479e-09
1.16415e-10
7.77072e-09
0
0
0
0
0
8.73115e-11
0
0
0
0
0
0
0
0
0
0
0
0
0.00288677
4.20351e-05
6.75078e-07
1.2049e-08
1.45519e-10
1.60394e+06
1.35937e+06
2081.02
7315.89
0.0110254
684.04
0.000477861
0.0747239
4.78094e-05
0.0153788
0.00375569
0.0258054
0.0069166
0.00479909
7.1156e-07
2.0207e-05
0.00718483
7.57133e-06
0.00084922
0.599126
1.82051e-05
0.000270872
1.18598e-08
3.16213e-07
3.96336e-06
1.0588e-07
2.95951e-06
1.83341e-05
2.88404e-07
6.92658e-06
1.45519e-10
5.06407e-09
7.87404e-08
1.29512e-09
3.32948e-08
2.86396e-07
3.85626e-09
8.85921e-08
0
1.45519e-11
1.19326e-09
0
3.7835e-10
4.97676e-09
0
1.1205e-09
0
0
0
0
0
0
0
0
1.27934e-05
0.000377862
0.00700825
58507.5
2.14888e+06
1.88803e+06
1.54296e+06
2.50777e+06
69513.5
1.49132e+06
3298.25
1.23198e+06
1.02293e+06
1.2381e+06
8745.55
989282
3407.2
5.31145e-09
3.11251e-07
2.24265e-05
16.6953
6.75209e-09
3.52753e-07
1.3848e-05
0.00918563
1.22236e-09
7.74598e-08
3.73767e-06
0.00135022
4.36557e-11
4.86034e-09
2.52869e-07
1.07104e-05
0
1.16415e-10
8.68749e-09
3.89875e-07
33.0638
1.79513e+06
0.627975
0.0652196
0.00441157
1.55475e-05
1.9506
0.000179791
0.0118576
33545.9
2.1355e+06
1.87882e+06
440387
1088.47
2.25449e+06
1.35584e+06
1994.96
1.22667e+06
1.00408e+06
65.4102
242.737
916889
604207
2.10354
2.1658
956055
104056
3105.44
237874
245.071
2947.48
6.87113
355049
1.96727e+06
714684
16232.5
40.5882
111117
0.61213
32009.3
109460
322322
11.5243
2.93704
1.21599
916236
62428.3
0.0395038
20.267
436506
1534.74
1.53348e+06
1.53851e+06
1.89741e+06
1.80714e+06
1.35952e+06
1.39477e+06
1.79693e+06
1.89562e+06
1.54402e+06
1.9016e+06
1.8106e+06
1.38384e+06
1.80221e+06
1.40263e+06
1.09323e+06
1.2391e+06
1.10294e+06
842274
952907
990352
809277
1.24193e+06
1.09527e+06
1.10367e+06
841922
970177
814924
993870
2.5158e+06
2.54034e+06
2.16523e+06
2.02076e+06
2.21541e+06
2.00679e+06
2.23623e+06
2.15431e+06
2.53863e+06
2.17043e+06
2.02472e+06
2.20549e+06
2.0082e+06
2.23303e+06
991807
1.0035e+06
1.03526e+06
759207
636037
665689
729942
1.02304e+06
1.00234e+06
1.03497e+06
757688
636403
731418
664264
1.53189e+06
1.52932e+06
1.86695e+06
1.28592e+06
1.77854e+06
1.72966e+06
1.15482e+06
2.48043e+06
2.42227e+06
2.11541e+06
2.18687e+06
1.99387e+06
1.97482e+06
2.14193e+06
1.07864e+06
1.19288e+06
1.04349e+06
867986
729467
595766
722502
52.0672
0.0492276
0.0540335
53.2183
0.0656979
0.0737423
63.9416
23134
192.245
0.201678
139681
195.953
2.15792e+06
1.10874e+06
0.0514045
0.0213777
422.862
10.8057
40.2431
612190
314028
969365
917864
969323
560003
653061
522664
427757
16.6441
0.0219279
0.0400396
0.0269688
0.527982
48.5267
0.055346
64594.5
1.80015e+06
268935
1485.04
12.7799
4.12105
0.0461184
64559.3
1412.46
24596.2
1.06121
0.020715
0.24401
0.014362
0.0846102
147.131
170779
35.9036
504251
0.0315906
91.31
0.0192778
15.3535
818.888
92984.4
894.041
0.0223642
1.47954
1099.05
42505.6
0.527143
0.0229051
0.0230297
19.0664
1.49233
19.5526
0.0464238
0.0208165
0.034792
21.3551
0.0603798
61.6076
0.0198789
20.7576
0.358641
0.0552051
57.3701
0.0406846
0.903028
50.5771
0.0530918
0.0639266
0.0663266
58.8532
0.0554092
1.35193
29.0304
0.0645945
150.697
0.0835284
116.845
170609
473011
2343.57
0.0237661
17.7554
9193.41
80.61
0.992794
0.0311041
0.0237782
0.0105515
9.15171
36.6434
10.2243
0.0105593
0.0250517
0.0198788
15.0453
0.499634
0.995118
45.0006
0.0323344
0.0540756
1373.56
27494.6
659.896
0.96585
0.22154
0.0300437
0.0118171
917.197
2.09333
49469.8
6.45087
0.0187578
265476
1220.76
6330.56
0.198023
2537.99
0.0172838
130.541
48.4646
0.0188031
2.34339e+06
2.06169e+06
2.08964e+06
1.94599e+06
2.00997e+06
1.88493e+06
2.07941e+06
1.4826e+06
1.83264e+06
1.84983e+06
1.61975e+06
637433
1.41661e+06
944430
1.09532e+06
767820
947442
402525
254818
509823
186826
971131
825323
852340
482003
515599
267350
236597
482842
823031
952087
968779
849905
514553
266930
0.0149241
0.00836297
7.19637
11.0209
0.0105569
0.0863774
0.00586875
7.24381
0.00818841
0.891402
0.00533406
6.52408
0.0204021
0.0108303
1.84971e+06
1.94408e+06
1.82965e+06
1.15123e+06
1.52818e+06
1.19193e+06
1.48846e+06
5.1925
0.0544432
434047
0.0813021
4.48424
408332
1371.05
1.84884e+06
1.12378e+06
1.95325e+06
1.53078e+06
1.18902e+06
1.82596e+06
1.96863e+06
127.523
0.00860398
0.158007
0.0170953
3.13181
162050
229.183
1.15482e+06
1.94492e+06
1.83126e+06
1.85136e+06
1.53081e+06
1.19566e+06
1.96556e+06
804260
692889
874505
336229
92018.5
146214
249110
1.9516e+06
1.84702e+06
1.82395e+06
1.52807e+06
1.18532e+06
1.12009e+06
1.47489e+06
832720
755126
625321
398632
267833
171096
88024.2
3095.54
12.3831
16086.8
0.0239288
0.00779264
12.4162
0.0710392
18877.4
0.135553
0.229214
0.00379463
0.0197316
0.0831092
6.8922
1.43392e+06
473375
658053
75055.2
536134
718653
1.38394e+06
699506
514462
1.41504e+06
1.44274e+06
78633.9
548452
729932
8.86739
0.0404178
41.004
1.09905
0.0550126
0.00592917
2582.65
0.0025788
0.0615471
0.0144273
4.93599
335.331
164.409
0.0456918
283925
239681
210901
15075.1
9920.62
8097.76
12064.6
1.68054e+06
1.93208e+06
1.77977e+06
974454
1.1404e+06
740895
1.35673e+06
1.71468e+06
1.91504e+06
1.79091e+06
1.04072e+06
1.20989e+06
845229
1.39111e+06
855.685
6.52833
0.0485965
0.0810102
0.0153357
0.0187873
0.00253574
696258
1.43951e+06
1.41209e+06
510699
77437.6
544368
68571.2
303121
241586
221101
8725.63
15489.1
13494.2
10074.5
190648
111877
172727
6180.15
4018.82
7155.84
3412.89
251.45
0.110927
0.0965859
0.107756
0.0954968
338.595
89.1032
240278
8148.09
286178
15237.9
9964.11
324227
211724
2.42489
289123
764.742
13207.3
23.1222
0.093566
0.0169551
978095
1.93393e+06
1.78207e+06
1.68314e+06
1.14326e+06
744227
1.90018e+06
221371
13585.8
304211
241911
15625.1
10100.9
328148
654007
1.43059e+06
1.38062e+06
73850.7
532164
469709
57506
126194
189898
167164
4006.91
7103.58
5896.62
3321.86
2.01942e+06
2.06153e+06
1.95553e+06
1.92936e+06
1.71198e+06
1.33915e+06
1.70137e+06
0.123
0.00830011
0.0112344
10.2105
0.00316072
0.0040494
0.264924
0.00865053
10.0219
0.197991
0.00350368
0.139678
0.00408345
0.266465
148.124
0.0142358
15.082
2.41793
0.0412874
0.010664
0.0025376
351858
533250
1.27766e+06
1.09721e+06
14210.3
199886
358226
677629
183201
419494
31322.1
126681
26669.5
5843.56
18865.2
351.36
1.42752e+06
173.051
0.0127401
0.240048
0.0117535
237911
98035.1
168266
5809.35
4586.15
9043.86
2831.66
0.474205
17195.9
76.2867
0.327295
252.511
0.013663
0.00698441
604959
1.19277e+06
1.33422e+06
419178
23117.9
278112
46657.9
0.0351529
195.711
53.4539
1.67532
6.00164
0.0151512
0.00746231
4974.06
206906
150582
76960.2
3226.78
2148.7
112789
0.164917
0.0536789
60.5871
0.0338717
885.127
0.155978
0.00460359
0.209375
0.132616
154.211
0.128091
5249.16
0.198548
0.00679777
189739
5894.38
108840
3982.23
7096.42
125611
167105
111705
6176.22
172609
190446
4000.61
7146.94
126072
1.0937e+06
529444
1.27422e+06
348810
13983.7
32970.6
197832
76133.4
204707
149583
4928.95
3168.63
7203.9
2122.86
1.75266e+06
685510
1.51865e+06
285247
1.07253e+06
578495
58061.8
1.56152e+06
1.60891e+06
1.30248e+06
924227
573761
285533
553924
758603
177908
725552
152849
147821
6204.39
7553.69
760121
178335
722211
150506
143916
6018.3
7548.77
7173.14
1.43138
0.0104381
77.672
0.00919355
0.00404383
0.110467
67377.7
76832.5
126023
4008.92
998.877
1874.01
2160.17
0.0152666
74.6424
0.0728484
166.539
1.28785e+06
0.130669
5534.33
1455.85
11.9334
0.01752
0.00672764
0.00696821
127.722
0.102602
2984.68
0.11707
0.00370406
0.00191224
0.025736
70.7188
0.0418778
558.935
0.0961825
0.0590022
23.5564
0.000865806
0.0153815
0.00288338
1.49032e+06
1.56238e+06
1.18535e+06
813963
453508
186594
437892
1.49315e+06
816946
188217
1.56473e+06
456274
1.18857e+06
1.79724e+06
3612.88
71461
116459
55740.3
860.577
1538.02
31932.8
494256
126191
534850
51793.9
3019.16
41387.4
3831.52
106424
42207.5
496096
126306
533623
51798.3
3839.84
55434.3
71843
116256
3605.46
862.778
2006.92
1530.35
486106
227413
159046
64266.6
42178.7
5082.91
7850.29
414952
69925.2
121603
15528.5
29700.1
3640.62
1877.59
644694
49783.5
48884.2
103403
101759
3839.39
1703.02
630552
41110
41209.9
96707.8
93338.4
3483.89
1400.99
34.0864
0.00307547
0.0850567
0.015861
0.0167699
0.0900714
0.00322907
1.49061
0.0235996
0.0167927
0.000968634
0.0656549
0.115061
0.0038477
11248
43721.6
9229.07
1411.88
1164.38
300.49
245.24
12755.9
96429.7
11126.2
2726.46
2403.48
267.208
306.546
0.00951466
0.000206078
0.00195201
0.110214
0.00569559
0.00135722
0.0612256
6.28017
0.0176902
0.00365986
0.017544
0.0036092
29.8572
0.101309
42620.8
1398.11
52139.5
11161.2
240.748
298.227
9073.36
36335.8
0.670699
0.00728754
33.736
0.0453671
0.00509168
0.00243253
1.19155e+06
1.96256e+06
1.74009e+06
717887
424398
162277
1.17068e+06
824651
4652.05
18632.1
50248.9
76603
481881
175254
9219.24
1162.25
43633
1402.32
52369
11168.3
298.493
398807
25302
254318
1696.11
23825.5
9740.82
672.181
966345
646310
102930
8674.45
131551
38534
2384.81
10599.2
106225
12624.9
2700.75
2296.13
254.241
303.524
43115.6
52654.2
11290.5
1412.18
1149.84
243.943
301.697
47.8479
1.31566
12.1685
0.00159435
0.00521067
0.0222308
0.00933006
8.73827
0.0162073
0.00291431
0.000372175
0.00861466
0.0630213
0.00179151
0.162535
0.0181881
0.00201148
0.0527241
311.779
0.00596408
0.952958
0.0263488
319.561
80.4514
0.00429398
0.00301659
0.982385
0.27328
1.25909e+06
408795
900446
78172.5
39360.9
12195.6
216451
187.329
0.0943428
1350.58
0.0574218
0.00492133
0.0409266
0.00312374
0.0156492
1.8245
5.63373
0.0512683
0.0745093
0.00320567
0.00209047
0.00164713
0.000186765
0.00731652
1.26654
0.0662706
0.00513102
0.000962201
195574
468571
14291.9
5230.2
4489.59
220313
431195
0.0193691
0.000963848
0.00515265
2582.92
4.06057
0.0333309
0.00695536
0.00187394
17.8159
0.0645174
0.0138635
0.507466
0.00376271
0.000381475
25808.8
299.454
11265.5
142.017
5507.63
2317.48
58.0253
18039.2
279.447
123.291
2546.4
497.415
4666.34
10292
25525.3
1017.5
170.217
9496.61
684.631
40238.7
6422.99
464524
5047.32
214596
174491
12676
3844.39
405763
40616
1.15614e+06
728760
267675
21281.1
5975.69
581075
38037.3
17915.4
10492.6
1698.29
1011.53
282.451
457.262
13084
6980.32
3689.14
357.15
669.001
187.4
94.6568
35715.7
3641.49
66008.4
7072.83
1554.01
166.701
82.6638
72729.3
4419.97
7905.73
983.851
1732.34
187.597
101.501
5812.05
2653.6
12762
340.883
727.424
150.609
66.6214
173064
478796
821101
4578.31
75661.2
18382.7
1071.2
311937
124893
17081.4
4004.52
4416.38
561.087
136.494
0.0152899
0.000433102
0.00405019
0.0157197
0.000433824
0.593835
0.00417466
30.3469
0.013302
0.00134396
0.0407618
0.00712785
0.000634372
0.0329123
138751
200168
9344.23
1335.63
2882.02
70254.4
335127
0.968072
0.000511855
0.0204771
1.01947
0.0210056
0.0040174
0.000564573
106392
149400
853.415
7220.71
2105.91
46479
287194
11352.9
5580.79
26100.2
301.823
691.542
143.941
58.6597
725412
578101
1.15315e+06
40140.8
21047.9
5905.29
138274
25158.6
9319.75
39460
997.803
675.272
167.631
238.144
4623.36
17896.6
10283
279.329
493.852
122.154
65.2392
197795
471574
222662
5303.17
14461
4552.54
16782.1
176237
467422
216855
5115.45
12810.3
3893.92
16419.7
35588
21904.5
5066.3
3946.38
882.766
561.859
97.9837
86165.3
12047.3
266234
12584.4
2826.02
411.595
87.7872
0.00107162
0.00966802
0.000267972
0.000127994
0.00423995
0.457176
0.00248733
291381
90491.4
112642
2337.84
6120.84
1814.65
7702.87
256391
112187
97753.5
2334.28
6488.85
2003.37
7466.54
100414
66312.2
32700.3
4287.96
1303.86
627.023
1990.88
0.73581
0.000233635
0.00933847
0.041695
0.00307661
0.00131127
0.000117833
0.00146581
0.00274281
0.0382289
0.0506244
327.283
0.0499911
55.1304
0.0285736
0.0131913
23.749
0.000929133
0.00167281
0.0395575
0.0376666
11.3359
0.00675188
0.00509539
0.01653
0.0334586
0.000803968
0.00050666
0.0118222
0.00305193
0.0663419
0.000910253
0.000332492
0.00403746
0.000139017
7399.24
23622.7
107816
2907.6
39.7558
595.352
192.8
408191
220546
1.05447e+06
145720
485.815
12434.4
6215.82
6518.27
1836.13
437.227
559.959
148.641
41.3819
12.5772
14496.7
1359
4628.37
376.816
103.005
30.5747
8.38732
107537
150551
47001
7290.08
2131.24
862.946
2976.27
1.06299e+06
415984
173563
342051
133500
4234.29
14501.4
0.00718603
0.296989
0.163419
0.000444955
0.000279757
0.0042832
0.00333794
0.000991906
27.4529
0.229012
0.00159273
0.000245233
0.103359
0.0137613
0.0649925
0.0216032
52.6868
0.0129358
0.000571534
0.00211359
0.000132192
0.0683524
0.0271359
278.148
0.00129482
0.0203728
0.00240379
0.000175066
0.506072
0.00098907
0.0287941
0.00217395
0.0173785
0.000448226
8.90453e-05
0.0516423
0.0893158
0.00628293
8.08532e-05
0.00245997
0.00050104
0.0292532
23226.2
1863.98
524.206
36.9238
453.802
26897.7
1623.85
398371
112161
29182.4
41788.8
10794.7
504.059
1990.04
3.26745
0.0292988
0.000660518
0.00010762
0.0018121
0.0497098
0.00226734
0.00031536
18.3674
0.0155405
0.0271954
0.000484322
0.00147134
6.03234e-05
1132.37
28541.1
16330.1
440.47
51.1766
30.4079
714.772
0.0525659
0.00326933
0.000834752
0.00108648
0.000148574
0.118807
0.00628931
1772.45
498.404
25538.5
19286.1
30.7632
376.444
1346.59
91.992
792.684
3682.83
669.886
3.65855
16.8698
147.649
3502.72
9190.93
168720
26772.8
25.556
467.891
1239.07
296147
22007.5
3400.4
7747.42
69.6094
1155.68
471.246
79127.7
470.675
25384.2
7096.99
399.688
128.332
21611.5
51094.1
275.001
15060.6
3839.52
234.317
67.6447
13073.5
793.704
674.412
3697.99
92.4871
16.9296
20.2538
3.64065
57457.4
851639
498406
164728
52831
926.722
3220.07
827768
202003
261948
57814.5
81195.8
1660.76
6745.29
0.00909221
0.00370944
0.0557512
0.000963341
0.000208375
0.000350055
0.00254044
5.7035e-05
0.000430962
0.0253929
0.943302
0.00257725
0.000191211
0.0061418
0.0181608
8.14537e-05
0.00107014
0.00880151
0.0966081
0.000300796
0.00562621
12652.3
855.615
1101.23
254.833
20.2195
197.408
26.1133
11278.9
1145.56
994.711
262.502
23.3334
227.222
27.0372
10801.4
3525.25
12224.7
232.346
202.777
64.1982
708.83
4007.4
113.674
5070.35
145.203
178.503
5.48733
4.31158
5184.98
150.547
122.026
148.548
182.324
5.60267
4.61018
79183.3
22878.7
6938.99
4789.65
1394.85
120.465
401.728
0.00125269
0.0321464
0.000794283
0.00378003
0.257331
0.00167241
0.0897613
0.00156051
0.266047
0.0827716
0.0017049
0.000877215
0.0905534
0.0354769
2194.08
302.31
507.269
56.531
12.4329
91.3614
7.77586
0.0119462
0.00185358
0.000153302
0.0049831
0.00027247
4.61469e-05
0.000926204
4.06342
0.00267609
0.00564232
0.0107022
0.000287051
0.00652661
0.000466514
2.43491
0.0108285
0.00447307
0.00652093
0.00272925
0.000478684
0.000289679
6688.54
153.601
5432.19
199.226
7.44126
6.00457
245.684
0.000243994
0.693676
0.00553622
0.00908054
2.85109
0.00443102
0.000359475
3.58784
0.00245782
0.00453014
0.880385
0.000371765
0.000242937
0.0040072
1.45683
49.3513
51.6146
57.617
1.94153
1.63037
1.74242
15270.6
521.797
143.548
24.2127
298.335
7464.08
1071.66
250.932
433.975
9.97026
8.35246
373.494
6.93434
295.531
23602.2
1895.34
27356.4
532.867
37.4764
460.861
43.275
0.00141082
0.00611778
0.000359982
0.0105169
16.4524
0.00174689
0.0382294
6.85366
0.000668131
0.0300696
6.64968e-05
0.000288243
0.00952441
0.00131663
0.00425874
0.000226049
0.000347055
0.251352
0.871926
0.00381726
0.00201273
0.0227949
5.2484e-05
0.000615856
0.000208775
0.00409332
10.4089
0.00600933
0.000534958
5.33023e-05
0.000334145
0.00486868
4.29259
0.000166185
0.00259217
1364.12
27.8458
2.68638
79.3835
35.1657
1080.37
100.959
81.6526
28.4246
1102.82
1364.85
2.69279
35.1788
101.201
10774.6
85.5238
313.561
16.9711
208.859
751.749
4548.03
422.944
8.25519
291.552
233.677
8.92145
334.102
6.48803
49.6791
60.8252
61.8242
2.0824
1.63358
1.71793
2.03812
36772.6
11401.3
50.9107
2365.87
3027.71
621.005
133779
799.344
6183.15
11512.2
315.76
11.3063
21.8448
164.564
28.6776
1640.41
1105.39
132.562
4.75476
3.37687
196.526
5739.39
122.113
4773.21
183.193
6.11051
5.02042
223.553
5327.18
191.605
6707.91
193.65
7.45232
5.84713
245.796
146.283
5713.38
4581.48
176.548
6.08673
222.956
4.82078
9055.35
26414.7
166974
3457.28
25.1994
461.789
193.002
19592.9
1803.96
25963.7
506.506
31.3424
41.3258
382.255
24074.4