/*--------------------------------*- C++ -*----------------------------------*\
  =========                 |
  \\      /  F ield         | OpenFOAM: The Open Source CFD Toolbox
   \\    /   O peration     | Website:  https://openfoam.org
    \\  /    A nd           | Version:  9
     \\/     M anipulation  |
\*---------------------------------------------------------------------------*/
FoamFile
{
    format      ascii;
    class       volScalarField;
    location    "0.00075";
    object      rho.air;
}
// * * * * * * * * * * * * * * * * * * * * * * * * * * * * * * * * * * * * * //

dimensions      [1 -3 0 0 0 0 0];

internalField   nonuniform List<scalar> 
8517
(
1.225
1.225
1.225
1.225
1.225
1.22501
1.225
1.225
1.225
1.225
1.225
1.225
1.225
1.225
1.225
1.225
1.225
1.22502
1.225
1.225
1.225
1.225
1.225
1.225
1.225
1.225
1.225
1.225
1.225
1.225
1.225
1.225
1.225
1.225
1.225
1.225
1.225
1.225
1.225
1.225
1.225
1.225
1.225
1.225
1.225
1.23699
1.225
1.225
1.225
1.225
1.225
1.225
1.225
1.225
1.225
1.225
1.225
1.225
1.225
1.225
1.225
1.225
1.225
1.225
1.225
1.225
1.225
1.225
1.225
1.225
1.225
1.225
1.225
1.225
1.225
1.225
1.225
1.225
1.225
1.225
1.225
1.225
1.225
1.225
1.225
1.225
1.225
1.225
1.225
1.225
1.225
1.225
1.225
1.225
1.225
1.225
1.225
1.225
1.225
1.225
1.225
1.225
1.225
1.7468
1.225
1.225
1.225
1.225
1.225
1.225
1.225
1.225
1.225
1.225
1.225
1.225
1.225
1.225
1.22501
1.225
1.225
1.225
1.225
1.22523
1.225
1.225
1.225
1.225
1.225
1.225
1.225
1.225
1.225
1.225
1.225
1.225
1.225
1.225
1.225
1.225
1.225
1.225
1.225
1.225
1.225
1.225
1.225
1.225
1.225
1.225
1.225
1.225
1.225
1.225
1.225
1.225
1.225
1.225
1.225
1.225
1.225
1.225
1.225
1.225
1.225
1.225
1.225
1.225
1.225
1.225
1.225
1.225
1.225
1.225
1.225
1.225
1.225
1.225
1.225
1.225
1.225
1.225
1.225
1.225
1.225
1.225
1.225
1.225
1.225
1.225
1.225
1.225
1.225
1.225
1.225
1.225
1.225
1.225
1.225
1.225
1.225
1.225
1.225
1.225
1.225
1.225
1.225
1.225
1.225
1.225
1.225
1.225
1.22791
1.22889
1.225
1.225
1.225
1.225
1.225
1.225
1.225
1.225
1.225
1.225
1.22501
1.225
1.225
1.225
1.22501
1.22502
1.225
1.225
1.225
1.225
1.225
1.225
1.22502
1.225
1.22501
1.225
1.225
1.225
1.22501
1.225
1.225
1.22502
1.225
1.26698
1.81954
1.22502
1.27876
1.225
1.22703
1.225
1.22614
1.22761
1.225
1.22625
1.225
1.225
1.34517
1.22736
1.65786
1.22501
1.25882
1.225
1.22508
1.225
1.22504
1.22575
1.225
1.22539
1.225
1.225
1.225
1.226
1.24863
1.225
1.225
1.225
1.225
1.225
1.225
1.22907
1.225
1.225
1.225
1.22503
1.225
1.225
1.24036
1.225
1.225
1.225
1.2252
1.225
1.225
1.225
1.225
1.225
1.225
1.225
1.225
1.225
1.225
1.225
1.225
1.225
1.225
1.225
1.225
1.22522
1.22525
1.225
1.225
1.225
1.225
1.225
1.225
1.225
1.225
1.22528
1.225
1.225
1.225
1.225
1.225
1.225
1.225
1.225
1.225
1.225
1.225
1.225
1.225
1.225
1.225
1.225
1.225
1.225
1.225
1.225
1.225
1.225
1.225
1.225
1.225
1.225
1.225
1.225
1.225
1.225
1.225
1.225
1.225
1.225
1.225
1.225
1.225
1.225
1.225
1.225
1.225
1.225
1.225
1.225
1.225
1.225
1.225
1.225
1.225
1.225
1.225
1.225
1.225
1.225
1.225
1.225
1.225
1.225
1.225
1.225
1.225
1.225
1.225
1.225
1.225
1.225
1.225
1.225
1.225
1.225
1.225
1.225
1.225
1.225
1.225
1.225
1.22537
1.225
1.225
1.225
1.225
1.225
1.225
1.225
1.225
1.225
1.225
3.14085
3.06732
2.50657
1.74493
1.225
1.225
1.225
1.225
1.225
1.225
1.225
1.225
1.225
1.225
1.225
1.225
1.225
1.225
1.225
1.225
1.225
1.225
1.225
1.225
1.225
1.225
1.225
1.225
1.225
1.225
1.225
1.225
1.225
1.225
1.225
1.225
1.225
1.225
1.225
1.225
1.225
1.225
1.225
1.225
1.225
1.225
1.225
1.225
1.225
1.225
1.225
1.225
1.225
1.225
1.225
1.225
1.225
1.225
1.225
1.225
1.225
1.225
1.225
1.225
1.225
1.225
1.225
1.225
1.225
1.225
1.225
1.225
1.225
1.225
1.225
1.225
1.225
1.225
1.225
1.225
1.225
1.225
1.225
1.225
1.225
1.225
1.225
1.225
1.225
1.225
1.225
1.225
1.225
1.225
1.225
1.225
1.225
1.225
1.22502
1.70352
1.24609
1.22508
1.225
1.225
1.225
1.225
1.225
1.225
1.225
1.225
1.225
1.225
1.225
1.225
1.225
1.225
1.225
1.225
1.225
1.225
1.225
1.225
1.225
1.225
1.225
1.225
1.225
1.225
1.225
1.225
1.225
1.225
1.225
1.225
1.225
1.225
1.225
1.225
1.225
1.225
1.225
1.225
1.225
1.225
1.225
1.225
1.225
1.225
1.225
1.225
1.225
1.225
1.225
1.225
1.225
1.225
1.225
1.225
1.225
1.225
1.225
1.225
1.225
1.225
1.225
1.225
1.225
1.225
1.225
1.225
1.225
1.225
1.225
1.225
1.225
1.225
1.225
1.225
1.225
1.225
1.225
1.225
1.225
1.225
1.225
1.225
1.225
1.225
1.225
1.225
1.225
1.225
1.225
1.225
1.225
1.225
1.225
1.42612
1.22653
1.22502
1.225
1.225
1.225
1.225
1.225
1.225
1.225
1.225
1.225
1.225
1.225
1.225
1.225
1.225
1.225
1.225
1.225
1.225
1.225
1.225
1.225
1.225
1.225
1.225
1.225
1.225
1.225
1.225
1.225
1.225
1.225
1.225
1.225
1.225
1.225
1.225
1.225
1.225
1.225
1.225
1.225
1.225
1.225
1.225
1.225
1.225
1.225
1.225
1.225
1.225
1.225
1.225
1.225
1.225
1.225
1.225
1.225
1.225
1.225
1.225
1.225
1.225
1.225
1.225
1.225
1.225
1.225
1.225
1.225
1.225
1.225
1.225
1.225
1.225
1.225
1.225
1.225
1.225
1.225
1.225
1.225
1.225
1.225
1.225
1.225
1.225
1.225
1.225
1.225
1.225
1.225
1.225
1.225
1.225
1.22501
1.22504
1.225
1.225
1.225
1.225
1.225
1.225
1.225
1.225
1.225
1.225
1.225
1.225
1.225
1.225
1.225
1.225
1.225
1.225
1.225
1.225
1.225
1.225
1.225
1.225
1.225
1.225
1.225
1.225
1.225
1.225
1.225
1.225
1.225
1.225
1.225
1.225
1.225
1.225
1.225
1.225
1.225
1.225
1.225
1.225
1.225
1.225
1.225
1.225
1.225
1.225
1.225
1.225
1.225
1.225
1.225
1.225
1.225
1.225
1.225
1.225
1.225
1.225
1.225
1.225
1.225
1.225
1.225
1.225
1.225
1.225
1.225
1.225
1.225
1.225
1.225
1.225
1.225
1.225
1.225
1.225
1.225
1.225
1.225
1.225
1.225
1.225
1.225
1.225
1.225
1.225
1.225
1.225
1.225
1.225
1.225
1.225
1.225
1.225
1.225
1.225
1.225
1.225
1.225
1.225
1.225
1.225
1.225
1.225
1.225
1.225
1.225
1.225
1.225
1.225
1.225
1.225
1.225
1.225
1.225
1.225
1.225
1.225
1.225
1.225
1.225
1.225
1.225
1.225
1.225
1.225
1.225
1.225
1.225
1.225
1.225
1.225
1.225
1.225
1.225
1.225
1.225
1.225
1.225
1.225
1.225
1.225
1.225
1.225
1.225
1.225
1.225
1.225
1.225
1.225
1.225
1.225
1.225
1.225
1.225
1.225
1.225
1.225
1.225
1.225
1.225
1.225
1.225
1.225
1.225
1.225
1.225
1.225
1.225
1.225
1.225
1.225
1.225
1.225
1.225
1.225
1.225
1.225
1.225
1.225
1.225
1.225
1.225
1.225
1.225
1.225
1.225
1.225
1.225
1.225
1.225
1.225
1.225
1.225
1.225
1.225
1.225
1.225
1.225
1.225
1.225
1.225
1.225
1.225
1.225
1.225
1.225
1.225
1.225
1.225
1.225
1.225
1.225
1.225
1.225
1.225
1.225
1.225
1.225
1.225
1.225
1.225
1.225
1.225
1.225
1.225
1.225
1.225
1.225
1.225
1.225
1.225
1.225
1.225
1.225
1.225
1.225
1.225
1.225
1.225
1.225
1.225
1.225
1.225
1.225
1.225
1.225
1.225
1.225
1.225
1.225
1.225
1.225
1.225
1.225
1.225
1.225
1.225
1.225
1.225
1.225
1.225
1.225
1.225
1.225
1.225
1.225
1.225
1.225
1.225
1.225
1.225
1.225
1.225
1.225
1.225
1.225
1.225
1.225
1.225
1.225
1.225
1.225
1.225
1.225
1.225
1.225
1.225
1.225
1.225
1.225
1.225
1.225
1.225
1.225
1.225
1.225
1.225
1.225
1.225
1.225
1.225
1.225
1.225
1.225
1.225
1.225
1.225
1.225
1.225
1.225
1.225
1.225
1.225
1.225
1.225
1.225
1.225
1.225
1.225
1.225
1.225
1.225
1.225
1.225
1.225
1.225
1.225
1.225
1.225
1.225
1.225
1.225
1.225
1.225
1.225
1.225
1.225
1.225
1.225
1.225
1.225
1.225
1.225
1.225
1.225
1.225
1.225
1.225
1.225
1.225
1.225
1.225
1.225
1.225
1.225
1.225
1.225
1.225
1.225
1.225
1.225
1.225
1.225
1.225
1.225
1.225
1.225
1.225
1.225
1.225
1.225
1.225
1.225
1.225
1.225
1.225
1.225
1.225
1.225
1.225
1.225
1.225
1.225
1.225
1.225
1.225
1.225
1.225
1.225
1.225
1.225
1.225
1.225
1.225
1.225
1.225
1.225
1.225
1.225
1.225
1.225
1.225
1.225
1.225
1.225
1.225
1.225
1.225
1.225
1.225
1.225
1.225
1.225
1.225
1.225
1.225
1.225
1.225
1.225
1.225
1.225
1.225
1.225
1.225
1.225
1.225
1.225
1.225
1.225
1.225
1.225
1.225
1.225
1.225
1.225
1.225
1.225
1.225
1.225
1.225
1.225
1.225
1.225
1.225
1.225
1.225
1.225
1.225
1.225
1.225
1.225
1.225
1.225
1.225
1.225
1.225
1.225
1.225
1.225
1.225
1.225
1.225
1.225
1.225
1.225
1.225
1.225
1.225
1.225
1.225
1.225
1.225
1.225
1.225
1.225
1.225
1.225
1.225
1.225
1.225
1.225
1.225
1.225
1.225
1.225
1.225
1.225
1.225
1.225
1.225
1.225
1.225
1.225
1.225
1.225
1.225
1.225
1.225
1.225
1.225
1.225
1.225
1.225
1.225
1.225
1.225
1.225
1.225
1.225
1.225
1.225
1.225
1.225
1.225
1.225
1.225
1.225
1.225
1.225
1.225
1.225
1.225
1.225
1.225
1.225
1.225
1.225
1.225
1.225
1.225
1.225
1.225
1.225
1.225
1.225
1.225
1.225
1.225
1.225
1.225
1.225
1.225
1.225
1.225
1.225
1.225
1.225
1.225
1.225
1.225
1.225
1.225
1.225
1.225
1.225
1.225
1.225
1.225
1.225
1.225
1.225
1.225
1.225
1.225
1.225
1.225
1.225
1.225
1.225
1.225
1.225
1.225
1.225
1.225
1.225
1.225
1.225
1.225
1.225
1.225
1.225
1.225
1.225
1.225
1.225
1.225
1.225
1.225
1.225
1.225
1.225
1.225
1.225
1.225
1.225
1.225
1.225
1.225
1.225
1.225
1.225
1.225
1.225
1.225
1.225
1.225
1.225
1.225
1.225
1.225
1.225
1.225
1.225
1.225
1.225
1.225
1.225
1.225
1.225
1.225
1.225
1.225
1.225
1.225
1.225
1.225
1.22635
1.225
1.225
1.225
1.225
1.225
1.225
1.225
1.225
1.225
1.225
1.225
1.225
1.225
1.225
1.225
1.225
1.225
1.225
1.225
1.225
1.225
1.225
1.225
1.225
1.225
1.22513
1.225
1.225
1.225
1.225
1.225
1.225
1.225
1.225
1.225
1.225
1.225
1.225
1.225
1.225
1.225
1.225
1.225
1.225
1.225
1.225
1.225
1.225
1.225
1.225
1.225
1.225
1.225
1.225
1.225
1.225
1.225
1.225
1.225
1.225
1.225
1.225
1.225
1.225
1.225
1.58856
1.22505
1.225
1.225
1.225
1.225
1.225
1.225
1.22504
1.225
1.225
1.225
1.225
1.225
1.225
1.225
1.225
1.225
1.225
1.225
1.225
1.225
1.225
1.225
1.225
1.225
1.225
1.225
1.225
1.225
1.225
1.225
1.225
1.225
1.225
1.225
1.225
1.225
1.225
1.225
1.225
1.225
1.225
1.225
1.225
1.225
1.225
1.225
1.225
1.225
1.225
1.225
1.225
1.225
1.225
1.225
1.225
1.225
1.225
1.225
1.225
1.225
1.225
1.225
1.225
1.225
1.225
1.225
1.225
1.225
1.225
1.225
1.225
1.225
1.225
1.225
1.225
1.225
1.225
1.22533
1.225
1.225
1.225
1.225
1.225
1.225
1.225
1.225
1.225
1.22534
1.22501
1.225
1.225
1.225
1.225
1.225
1.225
1.225
1.225
2.33085
2.97428
2.76178
1.28468
1.24512
1.22532
1.22509
2.10815
1.37795
1.63394
1.22509
1.22502
1.22502
1.22501
1.225
1.225
1.225
1.225
1.225
1.225
1.225
1.225
1.225
1.225
1.225
1.225
1.225
1.225
1.225
1.225
1.2346
1.225
1.22568
1.225
1.225
3.01345
1.28372
1.23222
1.225
1.225
1.225
1.225
1.225
1.225
1.225
1.225
1.225
1.225
1.225
1.225
1.225
1.225
1.225
1.225
1.225
1.225
1.225
1.225
1.225
1.225
1.225
1.225
1.225
1.225
1.225
1.225
1.225
1.225
1.225
1.225
1.225
1.225
1.225
1.225
1.225
1.225
1.225
1.225
1.225
1.225
1.225
1.225
1.225
1.225
1.225
1.225
1.225
1.225
1.225
1.225
1.225
1.225
1.225
1.225
1.225
1.225
1.225
1.225
1.225
1.225
1.225
1.225
1.225
1.225
1.225
1.225
1.225
1.225
1.225
1.225
1.225
1.225
1.225
1.225
1.225
1.225
1.225
1.225
1.225
1.225
1.225
1.225
1.225
1.225
1.225
1.225
1.225
1.225
1.225
1.225
1.225
1.225
1.225
1.225
1.225
1.225
1.225
1.225
1.225
1.225
1.225
1.225
1.225
1.225
1.225
1.225
1.225
1.225
1.225
1.225
1.225
1.225
1.225
1.225
1.225
1.225
1.225
1.225
1.225
1.225
1.225
1.225
1.225
1.225
1.225
1.225
1.225
1.225
1.225
1.225
1.225
1.225
1.225
1.225
1.225
1.225
1.225
1.225
1.225
1.225
1.225
1.225
1.225
1.225
1.225
1.225
1.225
1.225
1.225
1.225
1.225
1.225
1.225
1.225
1.225
1.225
1.225
1.225
1.225
1.225
1.225
1.225
1.225
1.225
1.225
1.225
1.225
1.225
1.225
1.225
1.225
1.225
1.225
1.225
1.225
1.225
1.225
1.225
1.225
1.225
1.225
1.225
1.225
1.225
1.225
1.225
1.225
1.225
1.225
1.225
1.225
1.225
1.225
1.225
1.225
1.225
1.225
1.225
1.225
1.225
1.225
1.225
1.225
1.225
1.225
1.225
1.225
1.225
1.225
1.225
1.225
1.225
1.225
1.225
1.225
1.225
1.225
1.225
1.225
1.225
1.225
1.225
1.225
1.225
1.225
1.225
1.225
1.225
1.225
1.225
1.225
1.225
1.225
1.225
1.225
1.225
1.225
1.225
1.225
1.225
1.225
1.225
1.225
1.225
1.225
1.225
1.225
1.225
1.225
1.225
1.225
1.225
1.225
1.225
1.225
1.225
1.225
1.225
1.225
1.225
1.225
1.225
1.225
1.225
1.225
1.225
1.225
1.225
1.225
1.225
1.225
1.225
1.225
1.225
1.225
1.225
1.225
1.225
1.225
1.225
1.225
1.225
1.225
1.225
1.225
1.225
1.225
1.225
1.225
1.225
1.225
1.225
1.225
1.225
1.225
1.225
1.225
1.225
1.225
1.225
1.225
1.225
1.225
1.225
1.225
1.225
1.225
1.225
1.225
1.225
1.225
1.225
1.225
1.225
1.225
1.225
1.225
1.225
1.225
1.225
1.225
1.225
1.225
1.225
1.225
1.225
1.225
1.225
1.225
1.225
1.225
1.225
1.225
1.225
1.225
1.225
1.225
1.225
1.225
1.225
1.225
1.225
1.225
1.225
1.225
1.225
1.225
1.225
1.225
1.225
1.225
1.225
1.225
1.225
1.225
1.225
1.225
1.225
1.225
1.225
1.225
1.225
1.225
1.225
1.225
1.225
1.225
1.225
1.225
1.225
1.225
1.225
1.225
1.225
1.225
1.225
1.225
1.225
1.225
1.225
1.225
1.225
1.225
1.225
1.225
1.225
1.225
1.225
1.225
1.225
1.225
1.225
1.225
1.225
1.225
1.225
1.225
1.225
1.225
1.225
1.225
1.225
1.225
1.225
1.225
1.225
1.225
1.225
1.225
1.225
1.225
1.225
1.225
1.225
1.225
1.225
1.225
1.225
1.225
1.225
1.225
1.225
1.225
1.225
1.225
1.225
1.225
1.225
1.225
1.225
1.225
1.225
1.225
1.225
1.225
1.225
1.225
1.225
1.225
1.225
1.225
1.225
1.225
1.225
1.225
1.225
1.225
1.225
1.225
1.225
1.225
1.225
1.225
1.225
1.225
1.225
1.225
1.225
1.225
1.225
1.225
1.225
1.225
1.225
1.225
1.225
1.225
1.225
1.225
1.225
1.225
1.225
1.225
1.225
1.225
1.225
1.225
1.225
1.225
1.225
1.225
1.225
1.225
1.225
1.225
1.225
1.225
1.225
1.225
1.225
1.225
1.225
1.225
1.225
1.225
1.225
1.225
1.225
1.225
1.225
1.225
1.225
1.225
1.225
1.225
1.225
1.225
1.225
1.225
1.225
1.225
1.225
1.225
1.225
1.225
1.225
1.225
1.225
1.225
1.225
1.225
1.225
1.225
1.225
1.225
1.225
1.225
1.225
1.225
1.225
1.225
1.225
1.225
1.225
1.225
1.225
1.225
1.225
1.225
1.225
1.225
1.225
1.225
1.225
1.225
1.225
1.225
1.225
1.225
1.225
1.225
1.225
1.225
1.225
1.225
1.225
1.225
1.225
1.225
1.225
1.225
1.225
1.225
1.225
1.225
1.225
1.225
1.225
1.225
1.225
1.225
1.225
1.225
1.225
1.225
1.225
1.225
1.225
1.225
1.225
1.225
1.225
1.225
1.225
1.225
1.225
1.225
1.225
1.225
1.225
1.225
1.225
1.225
1.225
1.225
1.225
1.225
1.225
1.225
1.225
1.225
1.225
1.225
1.225
1.225
1.225
1.225
1.225
1.225
1.225
1.225
1.225
1.225
1.225
1.225
1.225
1.225
1.225
1.225
1.225
1.225
1.225
1.225
1.225
1.225
1.225
1.225
1.225
1.225
1.225
1.225
1.225
1.225
1.225
1.225
1.225
1.225
1.225
1.225
1.225
1.225
1.225
1.225
1.225
1.225
1.225
1.225
1.225
1.225
1.225
1.225
1.225
1.225
1.225
1.225
1.225
1.225
1.225
1.225
1.225
1.225
1.225
1.225
1.225
1.225
1.225
1.225
1.225
1.225
1.225
1.225
1.225
1.225
1.225
1.225
1.225
1.225
1.225
1.225
1.225
1.225
1.225
1.225
1.225
1.225
1.225
1.225
1.225
1.225
1.225
1.225
1.225
1.225
1.225
1.225
1.225
1.225
1.225
1.225
1.225
1.225
1.225
1.225
1.225
1.225
1.225
1.225
1.225
1.225
1.225
1.225
1.225
1.225
1.225
1.225
1.225
1.225
1.225
1.225
1.225
1.225
1.225
1.225
1.225
1.225
1.225
1.225
1.225
1.225
1.225
1.225
1.225
1.225
1.225
1.225
1.225
1.225
1.225
1.225
1.225
1.225
1.225
1.225
1.225
1.225
1.225
1.225
1.225
1.225
1.225
1.225
1.225
1.225
1.225
1.225
1.225
1.225
1.225
1.225
1.225
1.225
1.225
1.225
1.225
1.225
1.225
1.225
1.225
1.225
1.225
1.225
1.225
1.225
1.225
1.225
1.225
1.225
1.225
1.225
1.225
1.225
1.225
1.225
1.225
1.225
1.225
1.225
1.225
1.225
1.225
1.225
1.225
1.225
1.225
1.225
1.225
1.225
1.225
1.225
1.225
2.56222
1.225
1.225
1.22586
1.225
1.225
1.225
1.225
1.225
1.225
1.225
1.225
1.225
1.225
1.225
1.225
1.225
1.225
1.225
1.225
1.225
1.225
1.225
1.225
1.225
1.225
1.225
1.225
1.225
1.225
1.225
1.225
1.225
1.225
1.225
1.225
1.225
1.225
1.225
1.225
1.225
1.225
1.225
1.225
1.225
1.225
1.225
1.225
1.225
1.225
1.225
1.225
1.225
1.225
1.225
1.225
1.225
1.225
1.225
1.225
1.225
1.225
1.225
1.225
1.225
1.225
1.225
1.225
1.225
1.225
1.22585
1.225
1.225
1.225
1.225
1.225
1.225
1.225
1.225
1.225
1.225
1.225
1.225
1.225
1.225
1.225
1.225
1.225
1.225
1.225
1.225
1.225
1.225
1.225
1.22503
1.225
1.225
1.225
1.225
1.225
1.225
1.225
1.225
1.225
1.225
1.225
1.225
1.225
1.225
1.225
1.225
1.225
1.225
1.225
1.225
1.225
1.225
1.225
1.225
1.225
1.225
1.225
1.225
1.225
1.225
1.225
1.225
1.225
1.225
1.225
1.225
1.225
1.225
1.225
1.225
1.225
1.225
1.225
1.225
1.225
1.225
1.225
1.225
1.225
1.225
1.225
1.225
1.225
1.225
1.225
1.225
1.225
1.225
1.225
1.225
1.225
1.225
1.225
1.225
1.225
1.225
1.225
1.225
1.225
1.225
1.225
1.225
1.225
1.225
1.225
1.225
1.225
1.225
1.225
1.225
1.225
1.225
1.225
1.225
1.225
1.225
1.225
1.225
1.225
1.225
1.225
1.225
1.225
1.225
1.225
1.225
1.225
1.225
1.225
1.225
1.225
1.225
1.225
1.225
1.225
1.225
1.225
1.225
1.225
1.225
1.225
1.225
1.225
1.225
1.225
1.225
1.225
1.225
1.225
1.225
1.225
1.225
1.225
1.225
1.225
1.225
1.225
1.225
1.225
1.225
1.225
1.225
1.225
1.225
1.225
1.225
1.225
1.225
1.225
1.225
1.225
1.225
1.225
1.225
1.225
1.225
1.225
1.225
1.225
1.225
1.225
1.225
1.225
1.225
1.225
1.225
1.225
1.225
1.225
1.225
1.225
1.225
1.225
1.225
1.225
1.225
1.225
1.225
1.225
1.225
1.225
1.225
1.225
1.225
1.225
1.225
1.225
1.225
1.225
1.225
1.225
1.225
1.225
1.225
1.225
1.225
1.225
1.225
1.225
1.225
1.225
1.225
1.225
1.225
1.225
1.225
1.225
1.225
1.225
1.225
1.225
1.225
1.225
1.225
1.225
1.225
1.225
1.225
1.225
1.225
1.225
1.225
1.225
1.225
1.225
1.225
1.225
1.225
1.225
1.225
1.225
1.225
1.225
1.225
1.225
1.225
1.225
1.225
1.225
1.225
1.225
1.225
1.225
1.225
1.225
1.225
1.225
1.225
1.225
1.225
1.225
1.225
1.225
1.225
1.225
1.225
1.225
1.225
1.225
1.225
1.225
1.225
1.225
1.225
1.225
1.225
1.225
1.225
1.225
1.225
1.225
1.225
1.225
1.225
1.225
1.225
1.225
1.225
1.225
1.225
1.225
1.225
1.225
1.225
1.225
1.225
1.225
1.225
1.225
1.225
1.225
1.225
1.225
1.225
1.225
1.225
1.225
1.225
1.225
1.225
1.225
1.225
1.225
1.225
1.225
1.225
1.225
1.225
1.225
1.225
1.225
1.225
1.225
1.225
1.225
1.225
1.225
1.225
1.225
1.225
1.225
1.225
1.225
1.225
1.225
1.225
1.225
1.225
1.225
1.225
1.225
1.225
1.225
1.225
1.225
1.225
1.225
1.225
1.225
1.225
1.225
1.225
1.225
1.225
1.225
1.225
1.225
1.225
1.225
1.225
1.225
1.225
1.225
1.225
1.225
1.225
1.225
1.225
1.225
1.225
1.225
1.225
1.225
1.225
1.225
1.225
1.225
1.225
1.225
1.225
1.225
1.225
1.225
1.225
1.225
1.225
1.225
1.225
1.225
1.225
1.225
1.225
1.225
1.225
1.225
1.225
1.225
1.225
1.225
1.225
1.225
1.225
1.225
1.225
1.225
1.225
1.225
1.225
1.225
1.225
1.225
1.225
1.225
1.225
1.225
1.225
1.225
1.225
1.225
1.225
1.225
1.225
1.225
1.225
1.225
1.225
1.225
1.225
1.225
1.225
1.225
1.225
1.225
1.225
1.225
1.225
1.225
1.225
1.225
1.225
1.225
1.225
1.225
1.225
1.225
1.225
1.225
1.225
1.225
1.225
1.225
1.225
1.225
1.225
1.225
1.225
1.225
1.225
1.225
1.225
1.225
1.225
1.225
1.225
1.225
1.225
1.225
1.225
1.225
1.225
1.225
1.225
1.225
1.225
1.225
1.225
1.225
1.225
1.225
1.225
1.225
1.225
1.225
1.225
1.225
1.225
1.225
1.225
1.225
1.225
1.225
1.225
1.225
1.225
1.225
1.225
1.225
1.225
1.225
1.225
1.225
1.225
1.225
1.225
1.225
1.225
1.225
1.225
1.225
1.225
1.225
1.225
1.225
1.225
1.225
1.225
1.225
1.225
1.225
1.225
1.225
1.225
1.225
1.225
1.225
1.225
1.225
1.225
1.225
1.225
1.225
1.225
1.225
1.225
1.225
1.225
1.225
1.225
1.225
1.225
1.225
1.225
1.225
1.225
1.225
1.225
1.225
1.225
1.225
1.225
1.225
1.225
1.225
1.225
1.225
1.225
1.225
1.225
1.225
1.225
1.225
1.225
1.225
1.225
1.225
1.225
1.225
1.225
1.225
1.225
1.225
1.225
1.225
1.225
1.225
1.225
1.225
1.225
1.225
1.225
1.225
1.225
1.225
1.225
1.225
1.225
1.225
1.225
1.225
1.225
1.225
1.225
1.225
1.225
1.225
1.225
1.225
1.225
1.225
1.225
1.225
1.225
1.225
1.225
1.225
1.225
1.225
1.225
1.225
1.225
1.225
1.225
1.225
1.225
1.225
1.225
1.225
1.225
1.225
1.225
1.225
1.225
1.225
1.225
1.225
1.225
1.225
1.225
1.225
1.225
1.225
1.225
1.225
1.225
1.225
1.225
1.225
1.225
1.22502
1.225
1.225
1.225
1.225
1.225
1.225
1.225
1.225
1.225
1.225
1.225
1.225
1.225
1.225
1.225
1.225
1.225
1.225
1.225
1.225
1.225
1.225
1.225
1.225
1.225
1.225
1.225
1.225
1.225
1.225
1.225
1.225
1.225
1.225
1.225
1.225
1.225
1.225
1.225
1.225
1.225
1.225
1.225
1.225
1.225
1.225
1.225
1.225
1.225
1.225
1.225
1.225
1.225
1.225
1.225
3.27841
2.94928
1.23756
1.26279
1.225
1.22953
1.225
1.225
1.225
1.225
1.225
1.225
1.225
1.225
1.225
1.225
1.225
1.225
1.225
1.225
1.225
1.225
1.225
1.225
1.225
1.225
1.225
1.225
1.225
1.225
1.225
1.225
1.225
1.225
1.225
1.225
1.225
1.225
1.225
1.225
1.225
1.225
1.225
1.225
1.225
1.225
1.225
1.225
1.225
1.225
1.225
1.225
1.225
1.225
1.225
1.225
1.225
1.4281
1.99158
2.62311
2.95692
1.6869
1.46027
3.03276
1.24376
2.8114
2.5451
2.80518
1.26943
2.5781
1.24436
1.225
1.225
1.225
1.22512
1.225
1.225
1.225
1.225
1.225
1.225
1.225
1.225
1.225
1.225
1.225
1.225
1.225
1.225
1.225
1.225
1.22525
3.19628
1.22501
1.225
1.225
1.225
1.22502
1.225
1.225
1.35332
2.11357
2.75739
2.03766
1.23148
2.55173
3.44434
1.23703
2.88956
2.59392
1.22549
1.22671
3.03937
2.55588
1.22502
1.22502
2.6662
1.58555
1.24272
1.89954
1.22672
1.23905
1.22505
2.13903
2.97683
2.73916
1.28321
1.2253
1.60041
1.22501
1.35846
1.5837
2.09448
1.22509
1.22502
1.22501
2.66653
1.46154
1.225
1.22516
2.32519
1.23439
2.98055
2.94162
2.56608
3.18726
3.26023
3.28053
3.20024
2.57227
2.94065
2.55574
3.18494
3.2704
3.1775
3.28865
2.63763
2.7891
2.62502
2.72288
2.90971
2.94616
2.68665
2.7919
2.63427
2.62679
2.72483
2.93102
2.69686
2.95351
1.74102
1.6941
1.93972
2.69236
2.44213
2.72633
2.40274
1.94178
1.67906
1.92875
2.68472
2.3957
2.6877
2.39145
2.57837
2.58071
2.54045
2.6147
2.48855
2.53246
2.5788
2.54585
2.58092
2.54244
2.61518
2.49557
2.58648
2.53276
3.09221
3.25089
2.96324
3.25082
3.25157
3.32116
3.21945
1.84177
2.0125
2.31282
2.54001
2.8173
2.96402
2.70555
2.69673
2.99405
2.78372
2.86396
2.63273
2.52412
2.75725
1.2254
1.225
1.225
1.22541
1.225
1.225
1.2255
1.3164
1.22622
1.225
1.54694
1.22632
2.88001
3.33004
1.225
1.225
1.22792
1.22509
1.22531
2.7363
2.12193
2.60625
2.65745
2.67662
2.40532
2.51585
2.39454
2.24285
1.22513
1.225
1.225
1.225
1.225
1.22538
1.225
1.42426
3.14495
1.96934
1.23301
1.2251
1.22503
1.225
1.47196
1.23397
1.3355
1.22501
1.225
1.225
1.225
1.225
1.22604
1.78673
1.22527
2.48488
1.225
1.22567
1.225
1.22512
1.23023
1.54559
1.23065
1.225
1.22501
1.23187
1.39459
1.225
1.225
1.225
1.22515
1.22501
1.22515
1.225
1.225
1.225
1.22517
1.225
1.22548
1.225
1.22516
1.225
1.225
1.22544
1.225
1.22501
1.22539
1.225
1.225
1.225
1.22546
1.225
1.22501
1.22522
1.225
1.22607
1.225
1.22583
1.78472
2.42828
1.23871
1.225
1.22514
1.26995
1.22559
1.22501
1.225
1.225
1.225
1.22507
1.22529
1.22508
1.225
1.225
1.225
1.22512
1.225
1.22501
1.22535
1.225
1.225
1.23353
1.34229
1.22935
1.22501
1.225
1.225
1.225
1.23015
1.22502
1.40423
1.22505
1.225
1.79124
1.2321
1.25898
1.225
1.23998
1.225
1.22596
1.22537
1.225
2.25572
2.86721
2.5763
3.12725
3.13101
3.25119
2.91763
3.38831
3.39219
3.19677
3.35649
2.69434
3.3018
3.081
3.05943
2.7835
2.83175
2.26218
1.99273
2.48865
1.8253
2.6768
2.69647
2.72544
2.31517
2.37531
1.96486
1.89138
2.32427
2.6986
2.66421
2.6747
2.72405
2.37614
1.96627
1.225
1.225
1.22506
1.22509
1.225
1.225
1.225
1.22506
1.225
1.22501
1.225
1.22505
1.225
1.225
3.10704
2.9695
3.09241
2.84364
3.06412
2.88387
3.0312
1.22504
1.225
2.0288
1.225
1.22503
1.97853
1.23313
3.10422
2.8108
2.99013
3.05923
2.87423
3.09998
2.97569
1.22593
1.225
1.225
1.225
1.22503
1.76163
1.2266
2.84615
2.96758
3.09176
3.10641
3.06545
2.88654
2.97267
2.67378
2.66324
2.72706
2.12072
1.55705
1.71391
1.9371
2.99079
3.10458
3.09993
3.0577
2.87154
2.80748
3.01168
2.66554
2.64777
2.54872
2.18432
1.9575
1.74386
1.53312
1.24292
1.2251
1.30213
1.225
1.225
1.2251
1.225
1.31085
1.225
1.225
1.225
1.225
1.225
1.22505
3.20102
2.1988
2.64639
1.47619
2.30655
2.74442
3.16475
2.71405
2.27054
3.18215
3.21036
1.48753
2.33203
2.76665
1.22507
1.225
1.22531
1.22501
1.225
1.225
1.24006
1.225
1.225
1.225
1.22504
1.22728
1.22615
1.225
2.00574
1.90747
1.83687
1.29582
1.27475
1.2664
1.28305
3.14008
3.0525
3.12202
2.68596
2.80805
2.44998
2.94688
3.11375
2.99741
3.09402
2.75107
2.87513
2.578
2.9756
1.23058
1.22505
1.225
1.225
1.225
1.225
1.225
2.70954
3.20943
3.18142
2.2647
1.48427
2.32588
1.45763
2.05308
1.91475
1.86515
1.26933
1.29779
1.28916
1.27558
1.79288
1.59326
1.74719
1.2577
1.24747
1.26239
1.24438
1.2268
1.225
1.225
1.225
1.225
1.22737
1.22567
1.90917
1.26664
2.01064
1.29649
1.27495
2.09867
1.83899
1.22502
1.79754
1.22979
1.2734
1.22517
1.225
1.225
2.68994
3.05242
3.12266
3.14133
2.81141
2.45437
3.14126
1.86612
1.28955
2.05575
1.91576
1.29834
1.27571
2.11141
2.6407
3.19981
3.16318
1.47287
2.30046
2.19295
1.42523
1.63198
1.78894
1.72909
1.24739
1.26209
1.25628
1.24387
3.14854
3.1876
3.33995
3.27592
3.27193
3.09221
3.27225
1.225
1.225
1.225
1.22508
1.225
1.225
1.225
1.225
1.22508
1.225
1.225
1.225
1.225
1.225
1.22606
1.225
1.22512
1.22502
1.225
1.225
1.225
1.99703
2.45533
3.11104
3.00085
1.28739
1.71503
2.14547
2.59792
1.80612
2.28284
1.35957
1.6456
1.3407
1.25582
1.30278
1.22715
3.26889
1.22611
1.225
1.225
1.225
1.91407
1.56777
1.74562
1.25617
1.25036
1.2705
1.2417
1.225
1.2894
1.22553
1.225
1.22658
1.225
1.225
2.57251
3.0574
3.13114
2.11554
1.31976
1.87312
1.39433
1.225
1.22641
1.22541
1.22501
1.22505
1.225
1.225
1.25215
1.83731
1.69787
1.50363
1.24354
1.23803
1.60504
1.225
1.225
1.22545
1.225
1.2306
1.225
1.225
1.225
1.225
1.2261
1.225
1.25326
1.225
1.225
1.78906
1.25628
1.5824
1.24728
1.26207
1.63087
1.72933
1.59303
1.25769
1.74726
1.7929
1.24739
1.26236
1.63318
2.99752
2.44904
3.10867
1.99156
1.28653
1.35146
1.71062
1.50122
1.83214
1.69528
1.25193
1.24325
1.26229
1.23789
3.48364
2.80106
3.41611
2.01364
3.04904
2.40545
1.42846
3.10703
3.1558
3.01468
2.65698
2.26823
1.84232
2.23811
2.79555
1.80254
2.75519
1.73214
1.72026
1.25793
1.26434
2.79507
1.80229
2.74464
1.72266
1.70647
1.25694
1.26426
1.25678
1.22501
1.225
1.22553
1.225
1.225
1.225
1.47633
1.49899
1.63436
1.24747
1.2315
1.23654
1.23797
1.225
1.2255
1.225
1.22605
3.1125
1.225
1.25103
1.23305
1.22509
1.225
1.225
1.225
1.22582
1.225
1.24215
1.225
1.225
1.225
1.225
1.22552
1.225
1.22866
1.225
1.225
1.22518
1.225
1.225
1.225
3.10028
3.14463
2.92847
2.50605
2.08135
1.64646
2.03331
3.10207
2.51023
1.64961
3.1463
2.08581
2.93161
3.19729
1.24544
1.48018
1.60581
1.43818
1.23064
1.23463
1.35826
2.39499
1.65243
2.46902
1.42528
1.24223
1.38979
1.24638
1.59466
1.39348
2.40436
1.65394
2.46956
1.42583
1.24645
1.4372
1.48106
1.60512
1.24541
1.23066
1.2371
1.23459
2.48091
1.95264
1.77663
1.47461
1.4031
1.2535
1.26616
2.33133
1.50062
1.66571
1.30012
1.35712
1.24616
1.23661
2.66798
1.42778
1.42407
1.59262
1.58912
1.24655
1.2354
2.64293
1.39655
1.39639
1.5707
1.56181
1.2447
1.23366
1.22526
1.225
1.225
1.225
1.225
1.225
1.225
1.22501
1.225
1.225
1.225
1.225
1.225
1.225
1.27907
1.39637
1.27035
1.23383
1.2324
1.22709
1.22672
1.28579
1.55689
1.27858
1.24052
1.23882
1.22684
1.2271
1.225
1.225
1.225
1.225
1.225
1.225
1.225
1.22505
1.225
1.225
1.225
1.225
1.22523
1.225
1.39157
1.23375
1.42383
1.27864
1.22669
1.22707
1.26947
1.33704
1.22501
1.225
1.22524
1.225
1.225
1.225
3.01066
3.37177
3.34891
2.47761
2.03649
1.6056
2.93514
2.73259
1.24884
1.29497
1.40666
1.448
2.24081
1.74393
1.27031
1.23239
1.39615
1.23378
1.4252
1.27879
1.22708
2.23504
1.33684
1.9583
1.23529
1.3289
1.27328
1.22941
2.89006
2.51089
1.56073
1.26621
1.57918
1.35552
1.23829
1.27615
1.58544
1.28505
1.24036
1.23824
1.22675
1.22708
1.39301
1.4253
1.27916
1.23383
1.2323
1.22671
1.2271
1.22534
1.22501
1.22509
1.225
1.225
1.225
1.225
1.22507
1.225
1.225
1.225
1.225
1.225
1.225
1.225
1.225
1.225
1.225
1.22697
1.225
1.22501
1.225
1.22702
1.22556
1.225
1.225
1.22501
1.225
3.00474
2.06231
2.70551
1.4428
1.34907
1.27252
1.71835
1.22634
1.225
1.23341
1.225
1.225
1.225
1.225
1.225
1.22501
1.22505
1.225
1.225
1.225
1.225
1.225
1.225
1.225
1.22501
1.225
1.225
1.225
1.66255
2.08409
1.27758
1.24839
1.24549
1.71167
2.02455
1.225
1.225
1.225
1.23733
1.22503
1.225
1.225
1.225
1.22514
1.225
1.225
1.225
1.225
1.225
1.33502
1.2271
1.27967
1.22602
1.25384
1.23858
1.22544
1.30909
1.22698
1.2259
1.24002
1.22842
1.25088
1.27639
1.33834
1.23159
1.22623
1.27297
1.22962
1.38967
1.25941
2.07115
1.24759
1.69691
1.61837
1.27208
1.24285
1.97445
1.34742
2.88417
2.47486
1.79541
1.2957
1.25031
2.24578
1.38501
1.30936
1.27868
1.23554
1.23163
1.22701
1.22814
1.28889
1.26233
1.24609
1.2275
1.22952
1.22636
1.2257
1.37104
1.24502
1.46749
1.26083
1.23433
1.22618
1.2256
1.48902
1.24882
1.26464
1.23119
1.23531
1.22632
1.22573
1.25541
1.2404
1.28653
1.22738
1.22981
1.22609
1.2255
1.73817
2.23538
2.72771
1.24851
1.4457
1.29418
1.23139
2.135
1.6698
1.30635
1.24743
1.24949
1.22872
1.22597
1.225
1.225
1.225
1.225
1.225
1.225
1.225
1.22524
1.225
1.225
1.225
1.225
1.225
1.225
1.55658
1.66809
1.26218
1.23231
1.23911
1.41964
1.88184
1.22501
1.225
1.225
1.22501
1.225
1.225
1.225
1.48832
1.56226
1.22988
1.25463
1.23571
1.362
1.7941
1.28001
1.25415
1.33597
1.22711
1.22958
1.22604
1.22544
2.47029
2.24102
2.88065
1.3462
1.29503
1.25005
1.54387
1.33697
1.27219
1.38698
1.23147
1.22956
1.22621
1.22668
1.25068
1.30853
1.27635
1.22698
1.2284
1.2259
1.22549
1.66673
2.08864
1.71602
1.24867
1.27809
1.24574
1.28527
1.62163
2.07553
1.70113
1.24785
1.2725
1.24304
1.28377
1.37648
1.32696
1.25274
1.24723
1.23073
1.22879
1.22572
1.54929
1.28451
2.02915
1.28689
1.24131
1.22777
1.22563
1.225
1.225
1.225
1.225
1.225
1.225
1.225
1.82821
1.46088
1.51039
1.23696
1.25128
1.23454
1.25717
1.77488
1.51183
1.48163
1.23699
1.25309
1.23551
1.25651
1.48749
1.4142
1.3332
1.24489
1.23224
1.22879
1.23545
1.22501
1.225
1.225
1.225
1.225
1.225
1.225
1.225
1.225
1.225
1.225
1.22722
1.225
1.22541
1.225
1.225
1.22518
1.225
1.225
1.225
1.225
1.22509
1.225
1.225
1.225
1.225
1.225
1.225
1.225
1.225
1.225
1.225
1.225
1.225
1.225
1.26347
1.33081
1.60184
1.24174
1.2253
1.22893
1.22636
2.11618
1.85392
3.0446
1.60208
1.22799
1.2742
1.25475
1.2588
1.23592
1.22793
1.22868
1.22606
1.22531
1.2251
1.29293
1.2333
1.24988
1.22753
1.22574
1.22523
1.22507
1.49066
1.56464
1.36329
1.25487
1.23583
1.22993
1.23917
2.97284
2.11457
1.66215
1.97878
1.57357
1.24469
1.28126
1.225
1.225
1.225
1.225
1.225
1.225
1.225
1.225
1.2252
1.225
1.225
1.225
1.225
1.225
1.225
1.225
1.22539
1.225
1.225
1.225
1.225
1.225
1.225
1.22691
1.225
1.225
1.225
1.225
1.225
1.225
1.225
1.225
1.225
1.225
1.225
1.225
1.225
1.225
1.225
1.225
1.225
1.225
1.30962
1.23577
1.22825
1.22528
1.22785
1.32112
1.23448
2.02407
1.50235
1.31965
1.34907
1.26652
1.22792
1.23483
1.22503
1.225
1.225
1.225
1.225
1.225
1.225
1.225
1.22514
1.225
1.225
1.225
1.225
1.225
1.23238
1.35219
1.30585
1.22805
1.22538
1.22523
1.22972
1.225
1.225
1.225
1.225
1.225
1.225
1.225
1.23527
1.2281
1.31655
1.29714
1.22523
1.22739
1.233
1.22568
1.23017
1.24573
1.22943
1.22503
1.22513
1.22606
1.24186