/*--------------------------------*- C++ -*----------------------------------*\
  =========                 |
  \\      /  F ield         | OpenFOAM: The Open Source CFD Toolbox
   \\    /   O peration     | Website:  https://openfoam.org
    \\  /    A nd           | Version:  9
     \\/     M anipulation  |
\*---------------------------------------------------------------------------*/
FoamFile
{
    format      ascii;
    class       volScalarField::Internal;
    location    "0.00075";
    object      tIgn.c4;
}
// * * * * * * * * * * * * * * * * * * * * * * * * * * * * * * * * * * * * * //

dimensions      [0 0 1 0 0 0 0];

value           nonuniform List<scalar> 
8517
(
0.00031777
0.000376228
0.000436155
0.000497019
0.000558516
0.000300985
0.000362162
0.000424081
0.000486459
0.000549139
0.000329799
0.000386441
0.000444995
0.000504795
0.000565446
0.000300985
0.00031777
0.00029664
0.000313658
0.000362162
0.000376228
0.00035856
0.000372761
0.000424081
0.000436155
0.000486459
0.000497019
0.000549139
0.000558516
0.000433168
0.0004944
0.000556186
0.000421009
0.000483783
0.00054677
0.000430914
0.000484118
0.0005396
0.000596724
0.000303134
0.000352627
0.000406098
0.000462168
0.000519997
0.000579058
0.000299905
0.000347995
0.0003968
0.000446087
0.000495712
0.000299905
0.000347995
0.0003968
0.000446087
0.000495712
0.00031314
0.000359464
0.000406896
0.000455091
0.000503829
0.000297187
0.00033806
0.000381369
0.000426371
0.000472584
0.000519684
0.000335651
0.000372326
0.000412048
0.00045402
0.000497672
0.000542599
0.000380943
0.000413621
0.00044971
0.000488457
0.000529276
0.000571725
0.000460056
0.000492757
0.000528355
0.000566306
0.000606167
0.00051023
0.000539901
0.000572576
0.000607771
0.000645075
0.000563145
0.000590161
0.000620194
0.000652827
0.000687692
0.000618097
0.000642807
0.000670486
0.000700782
0.00073337
0.000286624
0.000336617
0.000386861
0.000437269
0.000487792
0.000282058
0.000332738
0.00038349
0.00043429
0.000485123
0.000286624
0.000336617
0.000386861
0.000437269
0.000487792
0.000282058
0.000332738
0.00038349
0.00043429
0.000485123
0.000300445
0.000348461
0.000397209
0.000446451
0.000496039
0.000296093
0.000344715
0.000393927
0.000443534
0.000493415
0.000283779
0.000326336
0.000371016
0.000417137
0.00046427
0.000512135
0.000279167
0.000322333
0.0003675
0.000414013
0.000461465
0.000509594
0.00032384
0.000361714
0.000402485
0.000445359
0.000489784
0.000535373
0.000319806
0.000358107
0.000399247
0.000442435
0.000487126
0.000532943
0.000370578
0.000404095
0.000440965
0.000480417
0.000521866
0.000564872
0.000367058
0.000400869
0.000438011
0.000477707
0.000519372
0.000562569
0.000421779
0.000451511
0.000484788
0.000520932
0.000559387
0.000599708
0.00041869
0.000448627
0.000482103
0.000518434
0.000557061
0.000597539
0.000476005
0.000502539
0.000532638
0.000565733
0.000601329
0.000639009
0.00047327
0.000499949
0.000530195
0.000563433
0.000599166
0.000636975
0.000532333
0.000556186
0.000583524
0.000613882
0.000646834
0.000682005
0.000529889
0.000553847
0.000581295
0.000611763
0.000644824
0.000680099
0.000590161
0.000611763
0.00063672
0.000664652
0.000695202
0.00072804
0.000587957
0.000609638
0.000634678
0.000662696
0.000693332
0.000726254
0.000290001
0.00028549
0.000341404
0.00033758
0.000396391
0.000393103
0.000453662
0.000512452
0.000572292
0.000450792
0.000509912
0.000570019
0.00029664
0.00029664
0.00029664
0.00029664
0.00029664
0.00029664
0.00029664
0.000300985
0.000300985
0.000300985
0.000300985
0.000300985
0.000300985
0.000300985
0.000300985
0.000300985
0.000300985
0.000300985
0.000300985
0.000300985
0.000300985
0.000282058
0.000282058
0.000282058
0.000282058
0.000282058
0.000282058
0.000282058
0.000282058
0.000282058
0.000282058
0.000282058
0.000282058
0.000282058
0.000282058
0.000286624
0.000286624
0.000286624
0.000286624
0.000286624
0.000286624
0.000286624
0.000286624
0.000286624
0.000286624
0.000286624
0.000286624
0.000286624
0.000286624
0.000279167
0.000279167
0.000279167
0.000279167
0.000279167
0.000279167
0.000279167
0.00028549
0.00028549
0.00028549
0.00028549
0.00028549
0.00028549
0.00028549
0.000283779
0.000283779
0.000283779
0.000283779
0.000283779
0.000283779
0.000283779
0.000300985
0.000362162
0.000424081
0.000486459
0.000549139
0.000481092
0.00054439
0.00031777
0.000376228
0.000436155
0.000497019
0.000558516
0.000341404
0.000396391
0.000453662
0.000512452
0.000572292
0.000300985
0.00029664
0.000362162
0.00035856
0.000424081
0.000421009
0.000486459
0.000483783
0.000549139
0.00054677
0.000292231
0.000292231
0.000354921
0.000354921
0.000417914
0.000417914
0.000481092
0.00054439
0.000617046
0.000612824
0.000612824
0.000617046
0.000625405
0.000637738
0.000653821
0.000673384
0.000696135
0.000721772
0.000749998
0.000780534
0.000566593
0.000561991
0.000561991
0.000566593
0.000575685
0.00058906
0.000606435
0.000627477
0.000651832
0.000679143
0.000709069
0.000741293
0.000516238
0.000511184
0.000511184
0.000516238
0.000526201
0.000540801
0.000559677
0.000582411
0.000608572
0.000637738
0.000669517
0.000703555
0.000460409
0.000460409
0.000466014
0.000477027
0.000493086
0.000513717
0.000538396
0.000566593
0.000597811
0.000631602
0.000667575
0.000409678
0.000409678
0.000415968
0.00042827
0.000446087
0.000468792
0.000495712
0.000526201
0.000559677
0.000595635
0.000633654
0.000359012
0.000359012
0.000366173
0.00038009
0.000400059
0.000425228
0.000454734
0.000487792
0.000523728
0.000561991
0.000602138
0.000308441
0.000308441
0.000316747
0.000332738
0.000355377
0.00038349
0.000415968
0.00045187
0.000490446
0.000531112
0.000573425
0.000258021
0.000258021
0.000267895
0.000286624
0.000312621
0.000344244
0.00038009
0.000419077
0.000460409
0.000503507
0.000547956
0.000272698
0.000308441
0.000347995
0.000390202
0.00043429
0.000479741
0.000526201
0.000617046
0.000612824
0.000612824
0.000617046
0.000625405
0.000637738
0.000653821
0.000673384
0.000696135
0.000721772
0.000749998
0.000780534
0.000566593
0.000561991
0.000561991
0.000566593
0.000575685
0.00058906
0.000606435
0.000627477
0.000651832
0.000679143
0.000709069
0.000741293
0.000516238
0.000511184
0.000511184
0.000516238
0.000526201
0.000540801
0.000559677
0.000582411
0.000608572
0.000637738
0.000669517
0.000703555
0.000460409
0.000460409
0.000466014
0.000477027
0.000493086
0.000513717
0.000538396
0.000566593
0.000597811
0.000631602
0.000667575
0.000409678
0.000409678
0.000415968
0.00042827
0.000446087
0.000468792
0.000495712
0.000526201
0.000559677
0.000595635
0.000633654
0.000359012
0.000359012
0.000366173
0.00038009
0.000400059
0.000425228
0.000454734
0.000487792
0.000523728
0.000561991
0.000602138
0.000308441
0.000308441
0.000316747
0.000332738
0.000355377
0.00038349
0.000415968
0.00045187
0.000490446
0.000531112
0.000573425
0.000258021
0.000258021
0.000267895
0.000286624
0.000312621
0.000344244
0.00038009
0.000419077
0.000460409
0.000503507
0.000547956
0.000272698
0.000308441
0.000347995
0.000390202
0.00043429
0.000479741
0.000526201
0.000623586
0.000619408
0.000619408
0.000623586
0.000631859
0.000644068
0.000659997
0.000679382
0.000701939
0.000727371
0.000755388
0.000785715
0.000573708
0.000569165
0.000569165
0.000573708
0.000582689
0.000595907
0.000613088
0.00063391
0.000658027
0.000685091
0.000714768
0.000746746
0.000524038
0.000519059
0.000519059
0.000524038
0.000533855
0.000548252
0.000566879
0.000589335
0.000615202
0.000644068
0.00067555
0.000709298
0.000469138
0.000469138
0.00047464
0.000485457
0.000501246
0.000521555
0.000545879
0.000573708
0.000604559
0.000637993
0.000673625
0.000419464
0.000419464
0.000425609
0.00043764
0.000455091
0.000477367
0.000503829
0.000533855
0.000566879
0.000602408
0.000640024
0.00037014
0.00037014
0.000377089
0.000390618
0.000410074
0.000434664
0.00046357
0.000496039
0.000531418
0.000569165
0.000608839
0.000321325
0.000321325
0.000329306
0.000344715
0.000366616
0.000393927
0.000425609
0.000460761
0.000498649
0.000538697
0.000580457
0.000273292
0.000273292
0.000282633
0.000300445
0.00032534
0.000355834
0.000390618
0.000428649
0.000469138
0.000511501
0.00055531
0.00028719
0.000321325
0.000359464
0.000400464
0.000443534
0.000488124
0.000533855
0.000636465
0.000632372
0.000632372
0.000636465
0.000644572
0.000656545
0.000672178
0.000691222
0.000713404
0.000738442
0.000766054
0.000795974
0.000587681
0.000583246
0.000583246
0.000587681
0.000596452
0.000609371
0.000626183
0.000646583
0.000670244
0.000696834
0.000726031
0.000757533
0.000539299
0.000534463
0.000534463
0.000539299
0.000548844
0.000562857
0.000581016
0.000602946
0.000628253
0.000656545
0.000687456
0.000720647
0.000486125
0.000486125
0.000491437
0.000501893
0.00051718
0.000536886
0.000560546
0.000587681
0.000617834
0.000650586
0.000685565
0.000438381
0.000438381
0.000444265
0.000455804
0.000472584
0.000494072
0.000519684
0.000548844
0.000581016
0.00061573
0.000652579
0.000391448
0.000391448
0.000398025
0.000410865
0.000429405
0.000452946
0.000480755
0.000512135
0.000546473
0.000583246
0.000622023
0.000345655
0.000345655
0.000353087
0.0003675
0.000388117
0.000414013
0.000444265
0.000478047
0.000514664
0.000553554
0.000594271
0.000301524
0.000301524
0.000310015
0.000326336
0.000349391
0.000377949
0.000410865
0.000447177
0.000486125
0.000527125
0.000569734
0.000288318
0.000314175
0.000345655
0.000381369
0.000420237
0.000461465
0.000504473
0.000548844
0.000655308
0.000651334
0.000651334
0.000655308
0.000663185
0.000674829
0.000690047
0.000708611
0.000730265
0.000754743
0.000781781
0.000811121
0.000608038
0.000603753
0.000603753
0.000608038
0.00061652
0.000629027
0.000645327
0.00066514
0.000688163
0.000714086
0.000742605
0.000773433
0.000561414
0.00055677
0.00055677
0.000561414
0.000570588
0.00058408
0.000601599
0.000622805
0.000647336
0.000674829
0.000704938
0.000737342
0.000510548
0.000510548
0.000515609
0.000525584
0.000540201
0.000559096
0.000581853
0.000608038
0.000637229
0.000669032
0.000703094
0.000465317
0.000465317
0.000470864
0.000481766
0.000497672
0.000518121
0.000542599
0.000570588
0.000601599
0.000635189
0.00067097
0.000421394
0.000421394
0.000427511
0.00043949
0.00045687
0.000479064
0.000505437
0.000535373
0.000568309
0.000603753
0.000641291
0.000379235
0.000379235
0.000386021
0.000399247
0.000418302
0.000442435
0.000470864
0.000502862
0.000537792
0.000575121
0.00061441
0.000339497
0.000339497
0.000347061
0.000361714
0.000382643
0.000408885
0.00043949
0.000473613
0.000510548
0.00054973
0.000590711
0.000327824
0.000350781
0.000379235
0.000412048
0.000448265
0.000487126
0.000528048
0.000570588
0.000679621
0.00067579
0.00067579
0.000679621
0.00068722
0.000698462
0.000713177
0.000731154
0.000752159
0.000775947
0.00080227
0.000830887
0.000634166
0.000630058
0.000630058
0.000634166
0.000642302
0.000654317
0.000670002
0.000689106
0.000711354
0.000736461
0.000764145
0.000794138
0.000589611
0.000585191
0.000585191
0.000589611
0.000598353
0.000611233
0.000627994
0.000648338
0.000671937
0.000698462
0.000727594
0.000759032
0.000546176
0.000541401
0.000541401
0.000546176
0.000555602
0.00056945
0.000587405
0.000609105
0.000634166
0.000662206
0.000692864
0.000725807
0.000504151
0.000498975
0.000498975
0.000504151
0.000514348
0.000529276
0.000548548
0.000571725
0.000598353
0.000627994
0.000660243
0.000694735
0.00046392
0.000458289
0.000458289
0.00046392
0.000474982
0.000491107
0.000511818
0.000536584
0.000564872
0.00059618
0.000630058
0.000666115
0.00042599
0.000419851
0.000419851
0.00042599
0.000438011
0.000455447
0.000477707
0.000504151
0.000534159
0.000567165
0.000602677
0.000640278
0.000384336
0.000384336
0.000391033
0.000404095
0.000422932
0.000446814
0.000474982
0.00050672
0.000541401
0.000578497
0.000617572
0.000374065
0.000394339
0.000419851
0.00044971
0.000483112
0.000519372
0.000557934
0.000598353
0.00070884
0.000705168
0.000705168
0.00070884
0.000716129
0.000726924
0.000741074
0.00075839
0.000778661
0.000801663
0.000827168
0.000854952
0.000665384
0.00066147
0.00066147
0.000665384
0.000673143
0.000684617
0.000699623
0.000717939
0.00073932
0.000763508
0.000790245
0.000819283
0.000623065
0.000618884
0.000618884
0.000623065
0.000631345
0.000643564
0.000659505
0.000678904
0.000701476
0.000726924
0.000754958
0.000785302
0.000582132
0.000577655
0.000577655
0.000582132
0.000590985
0.000604022
0.000620978
0.000641544
0.000665384
0.000692161
0.000721547
0.000753237
0.000542898
0.000538094
0.000538094
0.000542898
0.00055238
0.000566306
0.000584358
0.000606167
0.000631345
0.000659505
0.000690282
0.000723344
0.000505758
0.000500598
0.000500598
0.000505758
0.000515924
0.000530807
0.000550025
0.000573142
0.000599708
0.000629285
0.00066147
0.000695902
0.000471208
0.000465666
0.000465666
0.000471208
0.000482103
0.000497998
0.000518434
0.000542898
0.000570873
0.000601869
0.000635444
0.000671212
0.000433916
0.000433916
0.00043986
0.000451511
0.000468445
0.000490115
0.000515924
0.000545284
0.000577655
0.000612559
0.000649588
0.000424846
0.000442801
0.000465666
0.000492757
0.000523418
0.000557061
0.000593178
0.000631345
0.000742387
0.000738881
0.000738881
0.000742387
0.000749349
0.000759673
0.000773223
0.000789835
0.000809318
0.000831472
0.00085609
0.000882964
0.000701013
0.0006973
0.0006973
0.000701013
0.000708382
0.000719294
0.000733591
0.000751079
0.000771542
0.00079475
0.00082047
0.000848474
0.00066098
0.00065704
0.00065704
0.00066098
0.00066879
0.000680337
0.000695435
0.000713859
0.000735359
0.000759673
0.00078654
0.000815709
0.000622544
0.000618359
0.000618359
0.000622544
0.000630831
0.00064306
0.000659013
0.000678426
0.000701013
0.000726478
0.000754528
0.000784888
0.000586022
0.000581574
0.000581574
0.000586022
0.000594817
0.000607771
0.000624626
0.000645075
0.00066879
0.000695435
0.000724689
0.000756247
0.000551792
0.000547067
0.000547067
0.000551792
0.000561124
0.000574839
0.000592631
0.000614146
0.000639009
0.000666846
0.0006973
0.000730043
0.000520308
0.000515294
0.000515294
0.000520308
0.000530195
0.000544688
0.000563433
0.000586022
0.000612029
0.000641038
0.000672661
0.000706547
0.000486793
0.000486793
0.000492097
0.000502539
0.000517807
0.000537491
0.000561124
0.000588233
0.000618359
0.000651085
0.000686038
0.000478725
0.000494729
0.000515294
0.000539901
0.000568023
0.000599166
0.000632885
0.00066879
0.000779702
0.000776365
0.000776365
0.000779702
0.000786334
0.000796178
0.000809118
0.000825007
0.000843679
0.000864953
0.000888643
0.000914562
0.000740417
0.000736902
0.000736902
0.000740417
0.000747397
0.000757748
0.000771332
0.000787983
0.000807512
0.000829714
0.000854382
0.000881309
0.000702632
0.000698927
0.000698927
0.000702632
0.000709984
0.000720872
0.000735138
0.00075259
0.000773013
0.000796178
0.000821854
0.000849811
0.000666602
0.000662696
0.000662696
0.000666602
0.000674348
0.000685801
0.000700782
0.000719069
0.000740417
0.00076457
0.000791272
0.000820272
0.000632629
0.000628511
0.000628511
0.000632629
0.000640785
0.000652827
0.000668547
0.000687692
0.000709984
0.000735138
0.00076287
0.00079291
0.000601059
0.000596724
0.000596724
0.000601059
0.000609638
0.000622284
0.000638755
0.000658766
0.000682005
0.000708153
0.000736902
0.000767958
0.000572292
0.000567737
0.000567737
0.000572292
0.000581295
0.000594544
0.000611763
0.000632629
0.000656793
0.000683906
0.000713632
0.000745658
0.000542
0.000542
0.00054677
0.000556186
0.000570019
0.000587957
0.000609638
0.000634678
0.000662696
0.000693332
0.000726254
0.000534766
0.000549139
0.000567737
0.000590161
0.000615993
0.000644824
0.00067627
0.000709984
0.000820272
0.000817101
0.000817101
0.000820272
0.000826579
0.000835949
0.000848282
0.000863451
0.000881309
0.000901696
0.000924445
0.000949387
0.000783025
0.000779702
0.000779702
0.000783025
0.000789629
0.000799433
0.00081232
0.000828148
0.000846751
0.00086795
0.00089156
0.000917396
0.000747397
0.000743915
0.000743915
0.000747397
0.000754313
0.00076457
0.000778035
0.000794546
0.000813917
0.000835949
0.000860439
0.000887181
0.000713632
0.000709984
0.000709984
0.000713632
0.000720872
0.000731597
0.000745658
0.00076287
0.000783025
0.000805902
0.000831277
0.000858928
0.000682005
0.000678187
0.000678187
0.000682005
0.000689577
0.000700782
0.000715449
0.00073337
0.000754313
0.000778035
0.00080429
0.000832838
0.000652827
0.000648838
0.000648838
0.000652827
0.000660734
0.00067242
0.000687692
0.000706317
0.00072804
0.00075259
0.000779702
0.000809118
0.000626442
0.000622284
0.000622284
0.000626442
0.000634678
0.000646834
0.000662696
0.000682005
0.000704477
0.000729821
0.000757748
0.000787983
0.000598895
0.000598895
0.000603215
0.000611763
0.000624366
0.000640785
0.000660734
0.000683906
0.000709984
0.000738661
0.000769647
0.000592357
0.000605364
0.000622284
0.000642807
0.000666602
0.000693332
0.00072267
0.000754313
0.000259901
0.000269706
0.000303134
0.000303134
0.000311582
0.000271505
0.000352627
0.000352627
0.000359915
0.000325838
0.000406098
0.000406098
0.000412442
0.000383067
0.000462168
0.000462168
0.000467752
0.000442068
0.000519997
0.000519997
0.000524966
0.000502216
0.000579058
0.000579058
0.000583524
0.000563145
0.000277418
0.000320819
0.000366173
0.000412835
0.000277418
0.000320819
0.000366173
0.000412835
0.000291675
0.000333225
0.000377089
0.000422548
0.00031828
0.000356745
0.000398025
0.000441333
0.000354463
0.000389369
0.000427511
0.000468099
0.000397618
0.000429027
0.00046392
0.00050157
0.000445723
0.000473956
0.000505758
0.000540501
0.000497346
0.000522798
0.000551792
0.000583802
0.000551498
0.000574556
0.000601059
0.000630573
0.000607504
0.000628511
0.000652827
0.000680099
0.000271505
0.000280905
0.00029882
0.00032384
0.000325838
0.000333712
0.000348926
0.000370578
0.000305268
0.000305268
0.000383067
0.000389786
0.000402888
0.000421779
0.000365729
0.000365729
0.000442068
0.000447903
0.00045935
0.000476005
0.000427132
0.000427132
0.000502216
0.00050736
0.000517494
0.000532333
0.000489121
0.000489121
0.000563145
0.000567737
0.000576811
0.000590161
0.000551498
0.000551498
0.000391033
0.00043986
0.000492097
0.00054677
0.000603215
0.000359915
0.000412442
0.000467752
0.000524966
0.000583524
0.000333712
0.000389786
0.000447903
0.00050736
0.000567737
0.000313658
0.000372761
0.000433168
0.0004944
0.000556186
0.000460409
0.000508638
0.000460409
0.000508638
0.000469138
0.000516552
0.000486125
0.000532028
0.000510548
0.000554433
0.000541401
0.000582968
0.000577655
0.000616783
0.000618359
0.000655061
0.000662696
0.000697067
0.000709984
0.000742168
0.000313658
0.000372761
0.000433168
0.0004944
0.000556186
0.000292231
0.000292231
0.000354921
0.000354921
0.000417914
0.000417914
0.000481092
0.000481092
0.00054439
0.00054439
0.000287754
0.000287754
0.000351244
0.000351244
0.000414796
0.000414796
0.000478386
0.000478386
0.000542
0.000542
0.000258021
0.000258021
0.000258021
0.000258021
0.000258021
0.000258021
0.000258021
0.000258021
0.000258021
0.000258021
0.000258021
0.000258021
0.000258021
0.000258021
0.000586852
0.000535979
0.000485123
0.00043429
0.00038349
0.000586852
0.000535979
0.000485123
0.00043429
0.00038349
0.000593725
0.000543495
0.000493415
0.000443534
0.000393927
0.000332738
0.000282058
0.000332738
0.000282058
0.000344715
0.000296093
0.0002315
0.0002315
0.000248408
0.000959587
0.000920927
0.000883515
0.000847517
0.000813119
0.000780534
0.000749998
0.000721772
0.000696135
0.000673384
0.000927949
0.000887913
0.000849047
0.000811521
0.000775528
0.000741293
0.000709069
0.000679143
0.000651832
0.000627477
0.000898089
0.000856658
0.000816306
0.000777201
0.00073954
0.000703555
0.000669517
0.000637738
0.000608572
0.000582411
0.000870191
0.000827364
0.000785508
0.000744787
0.000705398
0.000667575
0.000631602
0.000597811
0.000566593
0.000538396
0.000844448
0.000800244
0.000756891
0.000714541
0.000673384
0.000633654
0.000595635
0.000559677
0.000526201
0.000495712
0.000821063
0.000775528
0.00073071
0.000686747
0.000643816
0.000602138
0.000561991
0.000523728
0.000487792
0.000454734
0.000800244
0.000753452
0.000707236
0.000661716
0.000617046
0.000573425
0.000531112
0.000490446
0.00045187
0.000415968
0.000782196
0.000734254
0.000686747
0.000639771
0.000593451
0.000547956
0.000503507
0.000460409
0.000419077
0.00038009
0.000959587
0.000920927
0.000883515
0.000847517
0.000813119
0.000780534
0.000749998
0.000721772
0.000696135
0.000673384
0.000927949
0.000887913
0.000849047
0.000811521
0.000775528
0.000741293
0.000709069
0.000679143
0.000651832
0.000627477
0.000898089
0.000856658
0.000816306
0.000777201
0.00073954
0.000703555
0.000669517
0.000637738
0.000608572
0.000582411
0.000870191
0.000827364
0.000785508
0.000744787
0.000705398
0.000667575
0.000631602
0.000597811
0.000566593
0.000538396
0.000844448
0.000800244
0.000756891
0.000714541
0.000673384
0.000633654
0.000595635
0.000559677
0.000526201
0.000495712
0.000821063
0.000775528
0.00073071
0.000686747
0.000643816
0.000602138
0.000561991
0.000523728
0.000487792
0.000454734
0.000800244
0.000753452
0.000707236
0.000661716
0.000617046
0.000573425
0.000531112
0.000490446
0.00045187
0.000415968
0.000782196
0.000734254
0.000686747
0.000639771
0.000593451
0.000547956
0.000503507
0.000460409
0.000419077
0.00038009
0.000963806
0.000925322
0.000888095
0.00085229
0.000818093
0.000785715
0.000755388
0.000727371
0.000701939
0.000679382
0.000932311
0.00089247
0.000853812
0.000816505
0.000780742
0.000746746
0.000714768
0.000685091
0.000658027
0.00063391
0.000902595
0.000861381
0.000821261
0.000782403
0.000745005
0.000709298
0.00067555
0.000644068
0.000615202
0.000589335
0.00087484
0.000832253
0.000790656
0.000750215
0.000711126
0.000673625
0.000637993
0.000604559
0.000573708
0.000545879
0.000849238
0.000805298
0.000762232
0.000720196
0.000679382
0.000640024
0.000602408
0.000566879
0.000533855
0.000503829
0.00082599
0.000780742
0.000736241
0.000692629
0.000650087
0.000608839
0.000569165
0.000531418
0.000496039
0.00046357
0.000805298
0.000758818
0.000712949
0.000667819
0.000623586
0.000580457
0.000538697
0.000498649
0.000460761
0.000425609
0.000787365
0.000739759
0.000692629
0.000646081
0.000600249
0.00055531
0.000511501
0.000469138
0.000428649
0.000390618
0.000972188
0.00093405
0.000897185
0.000861758
0.000827952
0.000795974
0.000766054
0.000738442
0.000713404
0.000691222
0.000940974
0.000901516
0.000863263
0.000826382
0.000791066
0.000757533
0.000726031
0.000696834
0.000670244
0.000646583
0.00091154
0.00087075
0.000831082
0.000792706
0.000755818
0.000720647
0.000687456
0.000656545
0.000628253
0.000602946
0.000884066
0.000841946
0.000800853
0.000760953
0.000722446
0.000685565
0.000650586
0.000617834
0.000587681
0.000560546
0.00085874
0.000815312
0.000772803
0.000731376
0.000691222
0.000652579
0.00061573
0.000581016
0.000548844
0.000519684
0.000835755
0.000791066
0.00074718
0.000704247
0.000662451
0.000622023
0.000583246
0.000546473
0.000512135
0.000480755
0.000815312
0.000769436
0.000724241
0.00067986
0.000636465
0.000594271
0.000553554
0.000514664
0.000478047
0.000444265
0.000797604
0.000750647
0.000704247
0.00065852
0.000613617
0.000569734
0.000527125
0.000486125
0.000447177
0.000410865
0.000984628
0.00094699
0.00091065
0.000875767
0.000842524
0.000811121
0.000781781
0.000754743
0.000730265
0.000708611
0.00095382
0.000914917
0.000877248
0.000840981
0.000806305
0.000773433
0.000742605
0.000714086
0.000688163
0.00066514
0.000924796
0.000884617
0.0008456
0.000807914
0.000771753
0.000737342
0.000704938
0.000674829
0.000647336
0.000622805
0.000897728
0.000856279
0.000815908
0.000776783
0.000739101
0.000703094
0.000669032
0.000637229
0.000608038
0.000581853
0.000872797
0.000830105
0.000788395
0.000747831
0.000708611
0.00067097
0.000635189
0.000601599
0.000570588
0.000542599
0.000850193
0.000806305
0.000763295
0.000721322
0.000680576
0.000641291
0.000603753
0.000568309
0.000535373
0.000505437
0.000830105
0.000785095
0.000740855
0.000697532
0.000655308
0.00061441
0.000575121
0.000537792
0.000502862
0.000470864
0.00081272
0.00076669
0.000721322
0.00067675
0.000633142
0.000590711
0.00054973
0.000510548
0.000473613
0.00043949
0.00100097
0.000963974
0.000928299
0.000894105
0.000861569
0.000830887
0.00080227
0.000775947
0.000752159
0.000731154
0.000970685
0.000932485
0.000895556
0.000860061
0.000826186
0.000794138
0.000764145
0.000736461
0.000711354
0.000689106
0.00094218
0.000902775
0.000864578
0.000827756
0.000792501
0.000759032
0.000727594
0.000698462
0.000671937
0.000648338
0.000915626
0.000875026
0.000835561
0.0007974
0.00076074
0.000725807
0.000692864
0.000662206
0.000634166
0.000609105
0.000891196
0.000849429
0.000808717
0.000769225
0.000731154
0.000694735
0.000660243
0.000627994
0.000598353
0.000571725
0.000869071
0.000826186
0.000784268
0.000743479
0.000704016
0.000666115
0.000630058
0.00059618
0.000564872
0.000536584
0.000849429
0.0008055
0.000762445
0.000720421
0.000679621
0.000640278
0.000602677
0.000567165
0.000534159
0.000504151
0.000832448
0.000787571
0.000743479
0.000700318
0.000658273
0.000617572
0.000578497
0.000541401
0.00050672
0.000474982
0.00102104
0.000984792
0.000949899
0.000916512
0.0008848
0.000854952
0.000827168
0.000801663
0.000778661
0.00075839
0.000991362
0.00095399
0.000917927
0.000883332
0.000850384
0.000819283
0.000790245
0.000763508
0.00073932
0.000717939
0.000963469
0.000924971
0.00088773
0.000851909
0.000817696
0.000785302
0.000754958
0.000726924
0.000701476
0.000678904
0.000937518
0.000897908
0.000859495
0.000822446
0.000786953
0.000753237
0.000721547
0.000692161
0.000665384
0.000641544
0.000913674
0.000872983
0.000833422
0.000795159
0.00075839
0.000723344
0.000690282
0.000659505
0.000631345
0.000606167
0.000892106
0.000850384
0.000809719
0.000770279
0.000732262
0.000695902
0.00066147
0.000629285
0.000599708
0.000573142
0.000872983
0.000830301
0.000788601
0.000748048
0.00070884
0.000671212
0.000635444
0.000601869
0.000570873
0.000542898
0.000856469
0.00081292
0.000770279
0.000728708
0.000688399
0.000649588
0.000612559
0.000577655
0.000545284
0.000515924
0.00104461
0.00100921
0.000975188
0.000942697
0.000911896
0.000882964
0.00085609
0.000831472
0.000809318
0.000789835
0.00101562
0.000979174
0.000944073
0.000910472
0.000878542
0.000848474
0.00082047
0.00079475
0.000771542
0.000751079
0.000988411
0.000950924
0.000914739
0.000880019
0.000846942
0.000815709
0.00078654
0.000759673
0.000735359
0.000713859
0.000963132
0.000924621
0.000887364
0.000851528
0.000817299
0.000784888
0.000754528
0.000726478
0.000701013
0.000678426
0.000939938
0.000900435
0.000862134
0.000825203
0.000789835
0.000756247
0.000724689
0.000695435
0.00066879
0.000645075
0.000918987
0.000878542
0.000839243
0.000801258
0.000764782
0.000730043
0.0006973
0.000666846
0.000639009
0.000614146
0.000900435
0.000859117
0.000818886
0.00077991
0.000742387
0.000706547
0.000672661
0.000641038
0.000612029
0.000586022
0.000884433
0.000842331
0.000801258
0.00076138
0.000722895
0.000686038
0.000651085
0.000618359
0.000588233
0.000561124
0.00107145
0.00103697
0.00100389
0.000972355
0.000942525
0.000914562
0.000888643
0.000864953
0.000843679
0.000825007
0.00104321
0.00100776
0.000973689
0.000941146
0.000910293
0.000881309
0.000854382
0.000829714
0.000807512
0.000787983
0.00101674
0.000980333
0.000945275
0.000911718
0.000879834
0.000849811
0.000821854
0.000796178
0.000773013
0.00075259
0.00099218
0.000954841
0.000918811
0.00088425
0.000851338
0.000820272
0.000791272
0.00076457
0.000740417
0.000719069
0.000969681
0.00093144
0.000894468
0.000858928
0.000825007
0.00079291
0.00076287
0.000735138
0.000709984
0.000687692
0.000949387
0.000910293
0.000872425
0.000835949
0.000801055
0.000767958
0.000736902
0.000708153
0.000682005
0.000658766
0.00093144
0.00089156
0.000852861
0.000815511
0.000779702
0.000745658
0.000713632
0.000683906
0.000656793
0.000632629
0.00091598
0.000875397
0.000835949
0.000797807
0.000761166
0.000726254
0.000693332
0.000662696
0.000634678
0.000609638
0.00110132
0.00106781
0.00103571
0.00100518
0.000976352
0.000949387
0.000924445
0.000901696
0.000881309
0.000863451
0.00107387
0.00103947
0.00100647
0.000975022
0.000945275
0.000917396
0.00089156
0.00086795
0.000846751
0.000828148
0.00104817
0.0010129
0.000979008
0.000946648
0.00091598
0.000887181
0.000860439
0.000835949
0.000813917
0.000794546
0.00102437
0.000988247
0.00095348
0.000920222
0.000888643
0.000858928
0.000831277
0.000805902
0.000783025
0.00076287
0.00100259
0.000965656
0.000930045
0.000895918
0.000863451
0.000832838
0.00080429
0.000778035
0.000754313
0.00073337
0.000982978
0.000945275
0.000908866
0.000873912
0.000840595
0.000809118
0.000779702
0.00075259
0.00072804
0.000706317
0.000965656
0.000927249
0.000890103
0.000854382
0.000820272
0.000787983
0.000757748
0.000729821
0.000704477
0.000682005
0.000950753
0.000911718
0.000873912
0.000837501
0.000802674
0.000769647
0.000738661
0.000709984
0.000683906
0.000660734
0.000308441
0.000272698
0.000277418
0.000308441
0.000272698
0.000277418
0.000321325
0.00028719
0.000291675
0.000345655
0.000314175
0.000288318
0.00031828
0.000379235
0.000350781
0.000327824
0.000354463
0.00032384
0.00029882
0.000419851
0.000394339
0.000374065
0.000397618
0.000370578
0.000348926
0.000465666
0.000442801
0.000424846
0.000445723
0.000421779
0.000402888
0.000515294
0.000494729
0.000478725
0.000497346
0.000476005
0.00045935
0.000567737
0.000549139
0.000534766
0.000551498
0.000532333
0.000517494
0.000622284
0.000605364
0.000592357
0.000607504
0.000590161
0.000576811
0.000653821
0.000637738
0.000625405
0.000606435
0.00058906
0.000575685
0.000559677
0.000540801
0.000526201
0.000513717
0.000493086
0.000477027
0.000468792
0.000446087
0.00042827
0.000425228
0.000400059
0.00038009
0.00038349
0.000355377
0.000332738
0.000344244
0.000312621
0.000286624
0.000653821
0.000637738
0.000625405
0.000606435
0.00058906
0.000575685
0.000559677
0.000540801
0.000526201
0.000513717
0.000493086
0.000477027
0.000468792
0.000446087
0.00042827
0.000425228
0.000400059
0.00038009
0.00038349
0.000355377
0.000332738
0.000344244
0.000312621
0.000286624
0.000659997
0.000644068
0.000631859
0.000613088
0.000595907
0.000582689
0.000566879
0.000548252
0.000533855
0.000521555
0.000501246
0.000485457
0.000477367
0.000455091
0.00043764
0.000434664
0.000410074
0.000390618
0.000393927
0.000366616
0.000344715
0.000355834
0.00032534
0.000300445
0.000672178
0.000656545
0.000644572
0.000626183
0.000609371
0.000596452
0.000581016
0.000562857