/*--------------------------------*- C++ -*----------------------------------*\
  =========                 |
  \\      /  F ield         | OpenFOAM: The Open Source CFD Toolbox
   \\    /   O peration     | Website:  https://openfoam.org
    \\  /    A nd           | Version:  9
     \\/     M anipulation  |
\*---------------------------------------------------------------------------*/
FoamFile
{
    format      ascii;
    class       volVectorField;
    location    "0.00075";
    object      U;
}
// * * * * * * * * * * * * * * * * * * * * * * * * * * * * * * * * * * * * * //

dimensions      [0 1 -1 0 0 0 0];

internalField   nonuniform List<vector> 
8517
(
(6.50081e-05 1.62988e-05 0.00028761)
(1.27909e-08 4.64707e-09 5.52787e-08)
(2.11438e-10 7.84927e-11 1.03736e-09)
(3.17611e-12 1.37293e-12 1.74384e-11)
(3.53411e-14 1.39208e-14 2.49244e-13)
(0.000818286 0.000234723 0.00432052)
(6.63447e-08 5.0251e-08 5.00693e-07)
(1.21575e-09 7.1322e-10 7.08055e-09)
(2.12713e-11 1.07251e-11 1.0579e-10)
(3.27566e-13 1.66927e-13 1.65901e-12)
(1.3246e-07 -1.01675e-07 3.74851e-07)
(1.82777e-09 -1.34936e-09 6.34506e-09)
(2.90121e-11 -2.33326e-11 1.31186e-10)
(4.11924e-13 -3.10512e-13 2.15894e-12)
(2.38643e-15 -1.65237e-15 2.5853e-14)
(2.43593e-06 -4.38468e-06 2.60046e-05)
(4.00486e-05 -2.24194e-05 0.00017341)
(0.00106705 0.000184779 0.00558696)
(9.81947e-05 1.69215e-05 0.000428263)
(7.36835e-08 -5.34329e-08 5.76337e-07)
(1.00454e-08 -4.32167e-09 3.72695e-08)
(1.39443e-07 3.45736e-09 9.76951e-07)
(2.04453e-08 -7.706e-10 8.58432e-08)
(1.09302e-09 -7.39849e-10 7.35116e-09)
(1.49071e-10 -7.83042e-11 5.55859e-10)
(1.64152e-11 -1.09992e-11 9.31361e-11)
(2.19722e-12 -1.38235e-12 9.50978e-12)
(2.34666e-13 -1.6408e-13 1.27364e-12)
(2.38643e-14 -1.18659e-14 1.4471e-13)
(3.14765e-10 -1.77241e-11 1.26179e-09)
(4.95095e-12 -2.97348e-13 2.22832e-11)
(6.28426e-14 -3.1426e-15 3.60127e-13)
(2.24894e-09 -1.8612e-11 1.36146e-08)
(3.62836e-11 -1.15692e-12 1.90306e-10)
(5.72296e-13 -2.27572e-14 2.82067e-12)
(1.6107e-11 -5.80438e-12 2.782e-11)
(2.10268e-13 -6.78807e-14 4.2623e-13)
(7.17492e-16 0 4.8659e-15)
(0 0 0)
(1.27012e-06 -5.86117e-07 1.487e-06)
(2.30792e-08 -1.2093e-08 4.48444e-08)
(2.61038e-10 -1.48386e-10 6.91091e-10)
(3.55142e-12 -1.85682e-12 1.0764e-11)
(3.8333e-14 -1.69702e-14 1.51665e-13)
(1.92474e-16 0 5.96607e-16)
(5.39475 -1.29988 0.219004)
(9.50748e-08 -2.07385e-08 3.28755e-09)
(3.99848e-09 -6.43755e-10 6.74004e-11)
(5.54628e-11 -8.3127e-12 3.39562e-13)
(7.02008e-13 -1.09908e-13 -1.98869e-16)
(3.30283e-05 -1.31326e-05 2.52164e-06)
(1.0215e-07 -2.5478e-08 6.34967e-09)
(1.65118e-09 -3.99507e-10 1.05099e-10)
(3.16084e-11 -7.05899e-12 1.46419e-12)
(5.64125e-13 -1.13886e-13 1.43463e-14)
(4.25892e-06 -1.35177e-06 6.18217e-07)
(1.17771e-08 -3.04228e-09 2.02609e-09)
(2.82601e-10 -5.97755e-11 4.76705e-11)
(6.00216e-12 -1.09219e-12 1.01457e-12)
(1.02882e-13 -1.31254e-14 1.33275e-14)
(1.90704e-06 -6.10622e-07 7.80748e-07)
(9.31596e-08 -2.33131e-08 3.27794e-08)
(1.52842e-09 -3.1363e-10 3.99575e-10)
(2.65972e-11 -4.66099e-12 6.33522e-12)
(4.38898e-13 -6.12517e-14 9.62014e-14)
(3.57964e-15 0 5.01137e-16)
(1.11078e-07 -3.92896e-08 1.10331e-07)
(2.3066e-09 -5.8899e-10 1.53004e-09)
(4.5222e-11 -9.39111e-12 2.42571e-11)
(8.36192e-13 -1.40402e-13 3.84427e-13)
(1.07586e-14 -6.62897e-16 3.48896e-15)
(0 0 0)
(1.20746e-09 -4.50234e-10 1.74456e-09)
(3.77023e-11 -9.83676e-12 3.69657e-11)
(8.87723e-13 -1.77789e-13 6.93054e-13)
(1.41811e-14 -1.19321e-15 9.3067e-15)
(3.15871e-20 0 1.60941e-19)
(0 0 0)
(5.68982e-13 -1.39739e-13 6.98597e-13)
(1.16751e-14 -1.19321e-15 1.28963e-14)
(2.7307e-20 0 4.81992e-19)
(0 0 0)
(0 0 0)
(4.87794e-15 -6.62897e-16 1.02814e-14)
(6.06322e-21 0 3.21881e-19)
(0 0 0)
(0 0 0)
(0 0 0)
(0 0 0)
(0 0 0)
(0 0 0)
(0 0 0)
(0 0 0)
(0 0 0)
(0 0 0)
(0 0 0)
(0 0 0)
(0 0 0)
(0.000178891 -2.98751e-05 3.10342e-06)
(2.2121e-07 -3.24771e-08 2.54086e-09)
(1.1958e-08 -2.03973e-09 -4.98525e-11)
(2.84101e-10 -4.27547e-11 2.30216e-13)
(5.24521e-12 -7.01694e-13 1.52466e-15)
(304.392 32.9484 21.6935)
(6.20419e-05 1.38875e-06 2.31979e-06)
(3.33756e-08 4.44412e-10 7.4388e-11)
(7.62212e-10 5.33104e-12 4.1465e-12)
(1.36353e-11 7.93163e-14 5.8411e-14)
(3.84158e-05 -7.23166e-06 1.22333e-06)
(8.91108e-07 -1.19367e-07 3.87825e-08)
(2.29315e-08 -2.64008e-09 8.28086e-10)
(3.08478e-10 -3.50352e-11 1.09471e-11)
(4.85168e-12 -5.2954e-13 1.60686e-13)
(0.000129221 5.37332e-06 -5.63929e-08)
(1.81681e-06 4.18825e-08 1.14536e-07)
(5.61236e-08 5.92421e-10 2.11819e-09)
(7.51219e-10 6.75698e-12 3.22146e-11)
(1.03068e-11 9.52255e-14 4.96405e-13)
(0.001693 -0.000278137 0.00021168)
(1.71409e-07 -2.02581e-08 2.48325e-08)
(2.548e-09 -3.13636e-10 4.86108e-10)
(4.21955e-11 -5.28411e-12 8.88643e-12)
(7.30778e-13 -8.24463e-14 1.47097e-13)
(0.0706606 -0.00307756 0.0109351)
(4.56728e-07 1.80724e-09 7.072e-08)
(6.55877e-09 1.73208e-11 1.14847e-09)
(9.97737e-11 -1.45772e-13 1.69532e-11)
(1.59018e-12 -6.22997e-15 2.56189e-13)
(4.59737e-05 -1.10063e-05 3.76311e-05)
(2.6178e-07 -4.40891e-08 1.20117e-07)
(1.1947e-08 -1.5992e-09 3.38022e-09)
(2.03228e-10 -2.49079e-11 4.69476e-11)
(3.07382e-12 -3.70642e-13 7.1022e-13)
(4.22928e-14 -1.85071e-15 7.68961e-15)
(0.000267314 2.13894e-05 0.000258276)
(7.21521e-07 9.02443e-09 3.70383e-07)
(2.61263e-08 4.55701e-11 8.06525e-09)
(4.91691e-10 1.88862e-12 1.14604e-10)
(7.7607e-12 -9.29825e-16 1.64564e-12)
(1.13407e-13 -8.11922e-21 2.11677e-14)
(2.6476e-06 -4.73008e-07 2.71307e-06)
(2.0327e-08 -3.13054e-09 1.3105e-08)
(3.92232e-10 -5.2486e-11 1.97319e-10)
(6.27823e-12 -8.11563e-13 2.76299e-12)
(9.47209e-14 -7.2695e-15 3.60616e-14)
(0 0 0)
(1.36904e-05 5.6092e-07 1.14317e-05)
(4.45713e-08 4.56125e-11 2.93262e-08)
(9.54404e-10 7.07743e-13 4.85911e-10)
(1.61937e-11 -4.79305e-15 7.07122e-12)
(2.50636e-13 -7.33183e-20 9.91421e-14)
(1.59095e-15 -2.51936e-22 4.61619e-16)
(1.1748e-08 -2.47462e-09 1.64362e-08)
(3.31758e-10 -5.49614e-11 3.28259e-10)
(6.7775e-12 -1.02172e-12 5.26194e-12)
(1.20812e-13 -1.1364e-14 7.76252e-14)
(1.50091e-16 0 1.98869e-16)
(0 0 0)
(2.46996e-08 1.07193e-10 3.53221e-08)
(7.94229e-10 1.18228e-12 7.98622e-10)
(1.72945e-11 -2.92864e-16 1.36035e-11)
(3.19236e-13 -9.08439e-20 2.08609e-13)
(2.76091e-15 -2.72601e-22 1.64564e-15)
(0 -7.70185e-25 0)
(1.26077e-10 -3.11731e-11 2.41527e-10)
(4.17017e-12 -7.90851e-13 5.30674e-12)
(9.58963e-14 -1.08353e-14 9.68493e-14)
(1.67348e-17 0 3.97738e-16)
(0 0 0)
(0 0 0)
(2.91821e-10 5.551e-13 5.71523e-10)
(1.03454e-11 5.68493e-15 1.34718e-11)
(2.50663e-13 -4.81877e-20 2.58578e-13)
(2.76196e-15 -1.29806e-22 2.36906e-15)
(0 -3.24932e-25 0)
(0 -7.77226e-28 0)
(1.3775e-12 -3.80413e-13 3.04778e-12)
(4.89548e-14 -6.21233e-15 7.50399e-14)
(4.793e-18 0 3.97738e-16)
(0 0 0)
(0 0 0)
(0 0 0)
(3.2918e-12 -2.12312e-15 7.47457e-12)
(1.21128e-13 -1.96183e-21 1.96427e-13)
(1.18686e-15 -1.32142e-24 2.49901e-15)
(0 -5.92144e-28 0)
(0 -1.57591e-31 0)
(0 -2.09845e-35 0)
(1.19321e-14 -2.11039e-15 3.65909e-14)
(0 0 6.62897e-17)
(0 0 0)
(0 0 0)
(0 0 0)
(0 0 0)
(3.51738e-14 -1.56875e-21 9.30056e-14)
(0 -1.05632e-24 1.186e-15)
(0 -4.73258e-28 0)
(0 -1.25937e-31 0)
(0 -1.67684e-35 0)
(0 0 0)
(0 0 0)
(0 0 0)
(0 0 0)
(0 0 0)
(0 0 0)
(0 0 0)
(0 -2.11338e-24 1.98869e-16)
(0 -9.46832e-28 0)
(0 -2.51912e-31 0)
(0 -3.35285e-35 0)
(0 0 0)
(0 0 0)
(0.510086 -0.0960277 0.941147)
(0.69688 0.0758124 1.28793)
(6.69733e-07 -1.59875e-07 1.84186e-06)
(1.05329e-06 7.527e-08 2.65539e-06)
(2.00971e-09 -8.02777e-10 7.20653e-09)
(4.13351e-09 1.95309e-11 1.42553e-08)
(1.91864e-11 -8.95919e-12 7.80351e-11)
(2.3355e-13 -1.0792e-13 9.30646e-13)
(1.41469e-15 0 8.61766e-15)
(4.48263e-11 -2.96131e-13 1.76404e-10)
(5.86077e-13 -7.82366e-15 2.19701e-12)
(4.31739e-15 -1.25639e-21 2.69137e-14)
(0.000184545 2.19956e-05 0.00216729)
(5.33668e-06 1.19098e-06 2.5825e-05)
(6.52781e-06 2.84289e-06 6.14722e-05)
(6.82635e-06 -1.12974e-06 6.46086e-05)
(0.000181928 -5.37586e-05 0.00212085)
(0.00113605 -0.000150626 0.00593154)
(5.61523e-06 -9.61975e-07 2.68091e-05)
(2.64488e-06 -1.75566e-06 1.2964e-05)
(5.65357e-05 -5.30592e-05 0.000368662)
(0.000200943 -0.000154069 0.000999496)
(5.27601e-06 -2.50623e-06 5.22723e-05)
(0.000119501 -0.00013874 0.00141082)
(0.000915913 -0.000227381 0.00479746)
(4.54312e-06 -9.2402e-07 1.75192e-05)
(0.000273343 0.000140397 0.00161219)
(7.00141e-05 5.93835e-05 0.000802655)
(2.61575e-06 1.53584e-06 1.08693e-05)
(2.87661e-06 3.72137e-06 2.88976e-05)
(0.000124352 7.60805e-05 0.00152954)
(3.17188e-06 9.14694e-07 1.50876e-05)
(3.88778e-06 1.90179e-06 3.74059e-05)
(0.00508333 0.000253543 0.000103775)
(7.78828e-05 1.98346e-06 7.17208e-06)
(20.8571 1.73699 5.88153)
(337.733 -7.32128 24.1133)
(0.00552336 -0.000183591 0.000111342)
(26.9851 -0.2635 7.75611)
(8.40401e-05 -3.13075e-06 8.13568e-06)
(0.685643 0.0476364 0.0394801)
(0.000111854 5.04417e-06 1.05645e-05)
(0.375637 0.0241303 0.0241891)
(0.888644 -0.00631186 0.0530476)
(0.000137232 -6.28525e-06 -1.16859e-07)
(0.412271 -0.0204422 0.0267383)
(0.000119343 -3.78712e-06 1.14025e-05)
(2.09327e-05 -3.8412e-06 2.25169e-06)
(66.7822 -16.7049 3.90288)
(0.857109 -0.164327 0.191041)
(250.264 -39.9155 17.5418)
(0.00357168 -0.000164694 7.08578e-05)
(16.3046 -1.85617 4.42792)
(6.87151e-05 -4.80188e-06 8.28479e-06)
(0.0234258 -0.0044184 0.00134751)
(2.40349e-05 -4.2124e-06 1.98409e-06)
(0.0115773 -0.0021731 0.000587317)
(0.240473 -0.0325214 0.0148924)
(0.000103393 -9.78269e-06 1.77831e-06)
(0.12176 -0.0165413 0.00699725)
(9.61374e-05 -8.76514e-06 7.23577e-06)
(1.14604e-05 3.55774e-07 7.49738e-06)
(0.000228357 5.61178e-06 0.000103738)
(0.279765 0.0204607 0.207676)
(8.52277 -0.631726 5.45081)
(0.000278797 -2.04706e-05 0.000271537)
(0.000237764 -1.31883e-05 0.000108337)
(1.16721e-05 -4.17118e-07 7.68573e-06)
(2.13705e-05 2.12165e-06 4.08246e-05)
(0.000150603 1.95479e-05 0.000232603)
(6.20321e-06 4.46984e-07 1.15663e-05)
(0.732272 -0.068458 1.35005)
(2.73905e-05 -1.89966e-06 5.921e-05)
(0.000235502 -1.57021e-05 0.00030083)
(6.35015e-06 -3.16594e-07 1.18525e-05)
(0.00680997 -0.0015656 0.00455802)
(3.46594e-06 -5.97117e-07 2.05361e-06)
(3.25014e-05 -6.39713e-06 1.47147e-05)
(5.33863 -0.74965 3.33596)
(0.000179742 -1.67868e-05 0.000172428)
(0.000150638 -1.08788e-05 6.87385e-05)
(7.11424e-06 -8.36552e-07 4.65233e-06)
(-0.00600379 0.00380299 0.0607519)
(-5.77972e-08 4.2704e-08 4.65927e-07)
(-9.17587e-10 6.2105e-10 6.04014e-09)
(-1.31773e-11 9.48337e-12 8.09298e-11)
(-1.69063e-13 1.47163e-13 1.16314e-12)
(-2.16347e-11 3.83928e-11 3.49776e-10)
(-3.61201e-13 5.92398e-13 4.74792e-12)
(-1.01467e-06 2.66764e-07 3.95877e-06)
(-9.62355e-09 4.8229e-09 4.03754e-08)
(-1.49492e-10 9.75256e-11 6.99675e-10)
(-2.25965e-12 1.75789e-12 1.24649e-11)
(-2.38001e-14 1.65724e-14 1.93865e-13)
(-1.02378e-07 3.60902e-08 2.42292e-07)
(-2.14244e-09 9.28972e-10 7.73283e-09)
(-2.40575e-11 1.13065e-11 9.48165e-11)
(-3.16313e-13 1.44246e-13 1.26669e-12)
(-1.45407e-15 3.97738e-16 1.56396e-14)
(-0.00711688 -0.00420533 0.0665906)
(-0.00747205 0.00266599 0.0759305)
(-6.9479e-08 -4.85974e-08 5.48463e-07)
(-1.07325e-07 4.04047e-09 8.22388e-07)
(-1.09142e-09 -6.9971e-10 7.07685e-09)
(-1.91995e-09 4.19384e-11 1.18416e-08)
(-1.64848e-11 -1.08219e-11 9.19293e-11)
(-3.19237e-11 4.68341e-13 1.77413e-10)
(-2.33075e-13 -1.62163e-13 1.28078e-12)
(-5.05741e-13 4.95493e-15 2.74093e-12)
(-0.00567372 0.00502493 0.0868991)
(9.05112e-07 1.14161e-05 6.35085e-05)
(-1.021e-07 1.7038e-07 1.88126e-06)
(9.37283e-08 1.87227e-07 1.81153e-06)
(-1.36142e-09 2.5349e-09 2.6102e-08)
(1.03687e-09 2.8356e-09 2.74571e-08)
(1.27338e-11 4.353e-11 4.1854e-10)
(1.86982e-13 6.71257e-13 6.41139e-12)
(0 0 0)
(-8.78636e-19 0 0)
(8.60796e-19 0 0)
(9.72234e-19 0 0)
(7.05697e-20 0 0)
(3.02326e-21 0 0)
(2.99935e-22 0 0)
(3.02362e-24 0 0)
(3.56933e-26 0 0)
(9.28256e-30 0 0)
(1.04039e-32 0 0)
(0 0 0)
(0 -1.19314e-15 0)
(-1.55468e-16 -7.85514e-15 0)
(1.36203e-16 -1.07735e-14 0)
(1.73515e-16 -1.1932e-15 0)
(1.21354e-17 0 0)
(5.68389e-19 0 0)
(5.11295e-20 0 0)
(5.69018e-22 0 0)
(8.27831e-24 0 0)
(2.50409e-27 0 0)
(3.13318e-30 0 0)
(0 0 0)
(-2.48634e-14 -2.18756e-13 -2.65159e-16)
(-2.59488e-14 -7.87359e-13 -5.7672e-15)
(2.15292e-14 -8.87826e-13 -5.83349e-15)
(2.94495e-14 -2.15438e-13 -2.65159e-16)
(1.92593e-15 -1.82878e-14 0)
(1.10518e-16 0 0)
(8.30293e-18 0 0)
(1.00316e-19 0 0)
(1.71785e-21 0 0)
(6.44317e-25 0 0)
(9.14864e-28 0 0)
(0 0 0)
(-1.84976e-12 -5.33012e-11 -2.42305e-13)
(1.62407e-12 -6.18187e-11 -1.57173e-13)
(2.37715e-12 -1.34962e-11 -9.05578e-15)
(2.79188e-13 -1.4623e-12 3.71222e-15)
(2.07929e-14 -7.90749e-14 0)
(5.34481e-16 -6.61611e-16 1.49061e-14)
(6.76332e-18 0 -1.67472e-14)
(3.22156e-19 0 -3.65422e-15)
(1.59314e-22 0 0)
(2.55297e-25 0 0)
(0 0 0)
(-1.62044e-10 -4.27841e-09 2.66666e-11)
(1.40572e-10 -5.02742e-09 3.68649e-11)
(1.39905e-10 -8.49299e-10 1.21493e-12)
(1.81198e-11 -8.57966e-11 5.34941e-13)
(1.72891e-12 -5.11906e-12 7.72999e-15)
(8.49895e-14 -1.73135e-13 5.96607e-16)
(1.11179e-15 -1.98387e-15 -2.06244e-14)
(2.52546e-17 0 -1.67941e-14)
(3.99683e-20 0 0)
(6.81846e-23 0 0)
(0 0 0)
(-1.83354e-08 -4.74078e-07 1.23964e-08)
(1.70487e-08 -5.50285e-07 1.46422e-08)
(7.8789e-09 -6.44523e-08 1.29439e-09)
(1.03626e-09 -4.05955e-09 4.82381e-11)
(1.11982e-10 -3.05435e-10 2.64734e-12)
(5.75063e-12 -1.051e-11 8.0998e-14)
(1.81061e-13 -2.43643e-13 7.29187e-16)
(2.31013e-15 -2.90936e-15 1.24681e-14)
(1.10442e-17 0 0)
(1.84338e-20 0 0)
(0 0 0)
(-0.0143776 -0.126993 0.00353257)
(1.20468e-06 -0.000138411 5.37234e-06)
(1.11116e-06 -1.00491e-05 3.05379e-07)
(6.38785e-08 -2.45942e-07 5.36097e-09)
(8.80639e-09 -2.03126e-08 4.17584e-10)
(3.75403e-10 -5.89734e-10 7.40757e-12)
(1.11347e-11 -1.25861e-11 8.39862e-14)
(2.47574e-13 -2.26058e-13 -1.64988e-14)
(3.26979e-15 -1.45708e-15 0)
(5.73497e-18 0 0)
(0 0 0)
(-327.767 -1279.47 104.296)
(306.669 -1302.1 102.79)
(313.359 -588.922 50.8049)
(143.39 -252.252 21.0609)
(1.54229e-06 -3.09942e-06 1.30789e-07)
(2.96424e-08 -3.37026e-08 1.10802e-09)
(6.24456e-10 -5.41373e-10 9.62973e-12)
(1.24742e-11 -8.82586e-12 7.89345e-14)
(2.2078e-13 -1.31819e-13 7.95476e-16)
(2.01493e-15 -1.32579e-16 0)
(0 0 0)
(0.000714687 -0.000622004 0.00027849)
(3.56606e-05 -3.04236e-05 1.0397e-05)
(3.06295e-08 -1.92497e-08 7.85672e-10)
(4.87373e-10 -2.33381e-10 5.72478e-12)
(8.17996e-12 -3.4606e-12 5.0115e-14)
(1.23516e-13 -4.28231e-14 1.32579e-16)
(1.32579e-16 0 0)
(0 0 0)
(-1.11864e-18 0 0)
(1.19228e-18 0 0)
(1.0158e-18 0 0)
(5.57805e-20 0 0)
(2.43064e-21 0 0)
(5.15855e-23 0 0)
(5.21261e-25 0 0)
(3.01549e-27 0 0)
(7.65421e-30 0 0)
(1.00198e-32 0 0)
(0 0 0)
(0 -1.44397e-15 0)
(-2.06526e-16 -1.07661e-14 0)
(1.93228e-16 -1.35145e-14 0)
(2.02472e-16 -1.31937e-15 0)
(1.01034e-17 0 0)
(4.92041e-19 0 0)
(1.10897e-20 0 0)
(1.19283e-22 0 0)
(7.46127e-25 0 0)
(2.08567e-27 0 0)
(3.18784e-30 0 0)
(0 0 0)
(-3.2377e-14 -2.59325e-13 3.65908e-15)
(-3.35101e-14 -9.56496e-13 1.56444e-14)
(2.96327e-14 -1.02081e-12 1.876e-14)
(3.59887e-14 -2.34276e-13 3.51335e-15)
(1.86696e-15 -1.52381e-14 0)
(9.61276e-17 0 0)
(2.21996e-18 0 0)
(2.54662e-20 0 0)
(1.71981e-22 0 0)
(5.37868e-25 0 0)
(9.61999e-28 0 0)
(0 0 0)
(-2.01307e-12 -5.45472e-11 1.11816e-12)
(1.95576e-12 -5.94268e-11 1.42098e-12)
(2.78153e-12 -1.54743e-11 3.9367e-13)
(2.76423e-13 -1.12446e-12 4.23591e-14)
(1.71343e-14 -6.12175e-14 8.61766e-16)
(4.0302e-16 -3.97309e-16 0)
(4.96491e-18 0 0)
(3.6373e-20 0 0)
(1.29722e-22 0 0)
(2.69667e-25 0 0)
(0 0 0)
(-1.20227e-10 -2.61762e-09 7.83293e-11)
(1.10173e-10 -2.89568e-09 1.08689e-10)
(1.60329e-10 -8.41006e-10 2.39653e-11)
(1.84921e-11 -6.70971e-11 3.15664e-12)
(1.33326e-12 -4.03174e-12 1.7348e-13)
(6.58862e-14 -1.35186e-13 3.31449e-15)
(8.76749e-16 -1.3235e-15 0)
(7.24032e-18 0 0)
(2.97155e-20 0 0)
(6.91293e-23 0 0)
(0 0 0)
(-6.41898e-09 -1.16387e-07 5.29629e-09)
(6.05605e-09 -1.28523e-07 7.3805e-09)
(6.77821e-09 -3.4151e-08 1.41909e-09)
(1.141e-09 -3.90988e-09 1.91197e-10)
(8.99092e-11 -2.60456e-10 1.14164e-11)
(4.51956e-12 -8.19518e-12 3.84679e-13)
(1.41615e-13 -1.88245e-13 6.03236e-15)
(1.72194e-15 -1.45564e-15 0)
(7.01286e-18 0 0)
(1.64941e-20 0 0)
(0 0 0)
(-1.77985e-05 -0.000154043 6.56245e-06)
(1.54324e-07 -9.59663e-06 2.60569e-07)
(1.60497e-07 -1.08724e-06 4.38651e-08)
(8.28131e-08 -2.5251e-07 1.49446e-08)
(7.3422e-09 -1.85987e-08 8.62999e-10)
(3.17601e-10 -5.20089e-10 2.54394e-11)
(8.62029e-12 -9.61637e-12 5.44106e-13)
(1.90007e-13 -1.66392e-13 7.49074e-15)
(1.78551e-15 -6.61845e-16 0)
(4.14715e-18 0 0)
(0 0 0)
(-0.000838116 -0.00478848 0.000238438)
(56.1165 -214.874 30.9866)
(2.65633 -8.30412 1.0566)
(0.00740128 -0.0220268 0.00241927)
(3.17146e-07 -5.68025e-07 2.84574e-08)
(2.65233e-08 -3.48907e-08 1.99436e-09)
(5.47369e-10 -4.80599e-10 3.07247e-11)
(9.45045e-12 -6.61603e-12 5.03934e-13)
(1.62533e-13 -9.92513e-14 5.36947e-15)
(1.2326e-15 0 0)
(0 0 0)
(0.000114245 -0.000118697 1.36546e-05)
(5.52066e-06 -4.56335e-06 3.91276e-07)
(3.3217e-08 -1.80524e-08 1.65426e-09)
(4.3215e-10 -1.89798e-10 1.97181e-11)
(6.08585e-12 -2.54663e-12 2.78607e-13)
(9.28581e-14 -3.5001e-14 1.91203e-15)
(0 0 4.8293e-19)
(0 0 0)
(-1.65977e-19 0 0)
(1.47951e-19 0 0)
(1.39888e-19 0 0)
(7.44592e-21 0 0)
(2.60062e-22 0 0)
(4.61671e-24 0 0)
(4.48703e-26 0 0)
(2.10932e-28 0 0)
(5.25189e-31 0 0)
(3.33027e-34 0 0)
(0 0 0)
(0 0 0)
(-2.82821e-17 -1.05909e-15 0)
(2.51387e-17 -1.32322e-15 0)
(2.43604e-17 0 0)
(1.46702e-18 0 0)
(5.19155e-20 0 0)
(1.01143e-21 0 0)
(1.0782e-23 0 0)
(5.77888e-26 0 0)
(1.47903e-28 0 0)
(1.13767e-31 0 0)
(0 0 0)
(-4.26069e-15 -4.28231e-14 3.71883e-15)
(-5.05712e-15 -2.24959e-13 2.57867e-14)
(4.68685e-15 -2.2512e-13 2.85046e-14)
(4.49859e-15 -4.60743e-14 3.11562e-15)
(2.79295e-16 -9.2651e-16 0)
(9.57358e-18 0 0)
(2.1863e-19 0 0)
(2.55378e-21 0 0)
(1.54867e-23 0 0)
(4.09546e-26 0 0)
(3.80701e-29 0 0)
(0 0 0)
(-5.39731e-13 -1.62712e-11 2.19049e-12)
(5.27542e-13 -1.43443e-11 2.18846e-12)
(5.76587e-13 -3.31944e-12 4.77352e-13)
(4.9721e-14 -2.1263e-13 2.75102e-14)
(1.60653e-15 -8.85402e-15 4.64028e-16)
(4.78713e-17 0 0)
(5.86754e-19 0 0)
(3.94185e-21 0 0)
(1.11375e-23 0 0)
(1.26628e-26 0 0)
(0 0 0)
(-3.67072e-11 -9.94768e-10 1.28473e-10)
(3.88465e-11 -7.57381e-10 1.21575e-10)
(3.47189e-11 -2.09162e-10 3.08682e-11)
(3.67529e-12 -1.24271e-11 1.91881e-12)
(2.45179e-13 -7.43768e-13 1.07721e-13)
(1.00793e-14 -2.28453e-14 1.9224e-15)
(1.25598e-16 0 0)
(9.1599e-19 0 0)
(2.91405e-21 0 0)
(4.14154e-24 0 0)
(0 0 0)
(-2.191e-09 -4.63968e-08 6.34638e-09)
(2.22368e-09 -3.07262e-08 5.21603e-09)
(1.72197e-09 -1.05134e-08 1.53573e-09)
(2.24953e-10 -6.61174e-10 1.07114e-10)
(1.54274e-11 -4.23086e-11 6.9605e-12)
(8.14425e-13 -1.43988e-12 2.39969e-13)
(2.41588e-14 -3.36611e-14 3.91109e-15)
(1.88248e-16 0 0)
(7.06364e-19 0 0)
(1.28252e-21 0 0)
(0 0 0)
(-2.40461e-06 -1.924e-05 2.49887e-06)
(4.76454e-08 -1.0231e-06 1.3286e-07)
(3.94016e-08 -2.76849e-07 3.59239e-08)
(1.35348e-08 -3.57341e-08 5.13651e-09)
(1.00142e-09 -2.46605e-09 4.16692e-10)
(4.87862e-11 -7.557e-11 1.37654e-11)
(1.49784e-12 -1.66211e-12 3.2714e-13)
(3.41149e-14 -2.9179e-14 3.38077e-15)
(1.52401e-16 0 0)
(3.56198e-19 0 0)
(0 0 0)
(-9.44543e-05 -0.000541329 5.27379e-05)
(2.05058 -94.381 28.1398)
(0.126513 -0.500334 0.0883504)
(0.00196243 -0.00605326 0.000881964)
(8.93151e-08 -1.63701e-07 2.71342e-08)
(3.25878e-09 -4.20313e-09 7.90159e-10)
(7.8053e-11 -6.86971e-11 1.55473e-11)
(1.62919e-12 -1.16556e-12 2.74771e-13)
(2.8606e-14 -1.78267e-14 2.32014e-15)
(8.37968e-17 0 0)
(0 0 0)
(4.89063e-06 -4.901e-06 1.61359e-06)
(2.77946e-07 -2.40753e-07 5.26904e-08)
(4.0382e-09 -2.27675e-09 6.86793e-10)
(6.30578e-11 -3.01946e-11 1.02301e-11)
(1.09413e-12 -4.82191e-13 1.6059e-13)
(1.6056e-14 -4.90544e-15 1.23364e-15)
(0 0 0)
(0 0 0)
(-3.68775e-21 0 0)
(4.50299e-21 0 0)
(4.18419e-21 0 0)
(2.09461e-22 0 0)
(6.42745e-24 0 0)
(9.81918e-26 0 0)
(6.59247e-28 0 0)
(2.24506e-30 0 0)
(3.09935e-33 0 0)
(-5.26221e-36 0 0)
(0 0 0)
(0 0 0)
(-8.53957e-19 0 0)
(8.14631e-19 0 0)
(8.74743e-19 0 0)
(4.3561e-20 0 0)
(1.47467e-21 0 0)
(2.57813e-23 0 0)
(1.8164e-25 0 0)
(6.58437e-28 0 0)
(1.05499e-30 0 0)
(-4.6406e-34 0 0)
(0 0 0)
(-1.44032e-16 -6.62897e-16 2.10018e-16)
(-1.89866e-16 -9.77772e-15 1.2595e-15)
(1.56572e-16 -1.25467e-14 1.2595e-15)
(1.77854e-16 -1.05909e-15 0)
(8.51179e-18 0 0)
(3.33898e-19 0 0)
(6.47141e-21 0 0)
(4.8248e-23 0 0)
(1.87561e-25 0 0)
(3.46723e-28 0 0)
(2.76735e-32 0 0)
(0 0 0)
(-3.51335e-14 -9.34229e-13 2.11667e-13)
(2.77151e-14 -9.83719e-13 2.1511e-13)
(3.3482e-14 -2.11894e-13 4.22265e-14)
(1.67396e-15 -1.40059e-14 1.19321e-15)
(7.46195e-17 0 0)
(1.50388e-18 0 0)
(1.20526e-20 0 0)
(5.08971e-23 0 0)
(1.08313e-25 0 0)
(3.26378e-29 0 0)
(0 0 0)
(-2.35275e-12 -5.70145e-11 1.55654e-11)
(2.0641e-12 -5.73102e-11 1.43679e-11)
(2.53792e-12 -1.33916e-11 3.22717e-12)
(2.5572e-13 -1.13384e-12 2.18425e-13)
(1.57884e-14 -5.47839e-14 8.61766e-15)
(3.1343e-16 0 0)
(2.75377e-18 0 0)
(1.28281e-20 0 0)
(3.15123e-23 0 0)
(1.52542e-26 0 0)
(0 0 0)
(-1.47329e-10 -3.0652e-09 9.97147e-10)
(1.31177e-10 -3.01364e-09 8.67467e-10)
(1.39504e-10 -6.98593e-10 2.08506e-10)
(1.73673e-11 -7.09297e-11 1.52924e-11)
(1.34843e-12 -3.58929e-12 8.12248e-13)
(5.77456e-14 -9.93999e-14 2.29362e-14)
(5.62357e-16 0 0)
(2.93055e-18 0 0)
(8.34963e-21 0 0)
(5.82916e-24 0 0)
(0 0 0)
(-1.00054e-08 -1.62457e-07 6.46925e-08)
(9.18704e-09 -1.61734e-07 5.83789e-08)
(5.61309e-09 -3.07756e-08 1.17941e-08)
(1.27296e-09 -5.0719e-09 1.30835e-09)
(9.70386e-11 -2.44084e-10 6.08418e-11)
(3.91631e-12 -5.67643e-12 1.58585e-12)
(1.02288e-13 -1.10355e-13 3.16865e-14)
(5.96974e-16 0 0)
(1.97217e-18 0 0)
(1.92817e-21 0 0)
(0 0 0)
(-0.000283423 -0.00192902 0.000888563)
(9.25926e-05 -0.0114463 0.00535008)
(7.23867e-05 -0.0005193 0.000231842)
(7.09343e-08 -2.07334e-07 8.97443e-08)
(9.25094e-09 -1.88773e-08 6.38551e-09)
(2.73599e-10 -3.1789e-10 1.07697e-10)
(5.74184e-12 -4.9811e-12 1.77862e-12)
(1.08696e-13 -7.77535e-14 2.62507e-14)
(4.08767e-16 0 0)
(5.52075e-19 0 0)
(0 0 0)
(3.65065e-06 -6.81102e-06 5.18109e-06)
(3.47989e-07 -4.15943e-07 2.76608e-07)
(2.01678e-08 -1.54864e-08 8.46981e-09)
(3.01981e-10 -1.75239e-10 8.84279e-11)
(4.69747e-12 -2.35328e-12 1.18627e-12)
(7.45264e-14 -3.07584e-14 1.51714e-14)
(1.35063e-16 0 1.95867e-17)
(0 0 0)
(0 0 0)
(-1.55086e-26 0 0)
(4.58694e-23 0 0)
(4.81769e-23 0 0)
(2.15301e-24 0 0)
(5.4493e-26 0 0)
(6.8982e-28 0 0)
(2.91665e-30 0 0)
(6.50764e-33 0 0)
(1.15529e-36 0 0)
(0 0 0)
(0 0 0)
(0 0 0)
(-2.38886e-24 0 0)
(9.84016e-21 0 0)
(1.08381e-20 0 0)
(4.79267e-22 0 0)
(1.37047e-23 0 0)
(1.92441e-25 0 0)
(8.80943e-28 0 0)
(2.23895e-30 0 0)
(6.39667e-34 0 0)
(0 0 0)
(0 0 0)
(-2.5456e-18 0 5.48057e-18)
(-1.59276e-22 0 0)
(2.01265e-18 0 0)
(2.32022e-18 0 0)
(1.05455e-19 0 0)
(3.4156e-21 0 0)
(5.13439e-23 0 0)
(2.5646e-25 0 0)
(7.35941e-28 0 0)
(3.18249e-31 0 0)
(0 0 0)
(0 0 0)
(0 -2.51212e-14 9.33649e-15)
(3.78882e-16 -3.07554e-14 1.14018e-14)
(4.55735e-16 -4.89386e-15 9.94346e-16)
(2.46709e-17 0 0)
(8.26282e-19 0 0)
(1.27529e-20 0 0)
(7.0321e-23 0 0)
(2.26167e-25 0 0)
(1.40997e-28 0 0)
(0 0 0)
(0 0 0)
(-7.87522e-14 -1.79413e-12 8.13355e-13)
(6.28791e-14 -1.91083e-12 8.57432e-13)
(7.95506e-14 -4.32311e-13 1.82694e-13)
(6.0797e-15 -3.30157e-14 1.14681e-14)
(1.85445e-16 0 0)
(2.87516e-18 0 0)
(1.7724e-20 0 0)
(6.35963e-23 0 0)
(5.51386e-26 0 0)
(0 0 0)
(0 0 0)
(-4.61832e-12 -9.35619e-11 5.00129e-11)
(3.92776e-12 -9.84769e-11 5.12848e-11)
(4.92593e-12 -2.33179e-11 1.17812e-11)
(5.39864e-13 -2.11166e-12 1.01039e-12)
(3.69332e-14 -9.95286e-14 4.76623e-14)
(5.7941e-16 -3.9748e-16 3.31449e-16)
(4.02643e-18 0 0)
(1.61624e-20 0 0)
(1.88545e-23 0 0)
(0 0 0)
(0 0 0)
(-2.60942e-10 -4.48439e-09 2.87078e-09)
(2.26555e-10 -4.66893e-09 2.925e-09)
(2.33603e-10 -1.02763e-09 6.31009e-10)
(3.22024e-11 -1.16163e-10 6.60853e-11)
(2.53049e-12 -5.56139e-12 3.20727e-12)
(1.04921e-13 -1.47182e-13 8.59777e-14)
(8.16879e-16 -5.3006e-16 6.62897e-16)
(3.92145e-18 0 0)
(5.58263e-21 0 0)
(0 0 0)
(0 0 0)
(-1.66996e-08 -2.26201e-07 1.97562e-07)
(1.5218e-08 -2.23455e-07 1.96159e-07)
(8.29392e-09 -3.83584e-08 3.11888e-08)
(2.18533e-09 -7.11793e-09 5.15822e-09)
(1.60049e-10 -3.01975e-10 2.24995e-10)
(5.96735e-12 -6.82264e-12 4.98406e-12)
(1.49262e-13 -1.33045e-13 9.16124e-14)
(1.11078e-15 -1.32579e-16 3.97738e-16)
(1.41882e-18 0 0)
(0 0 0)
(0 0 0)
(8.98752e-08 -1.80158e-07 2.00672e-07)
(1.14346e-08 -1.42795e-08 1.6609e-08)
(3.18917e-10 -2.52821e-10 2.74102e-10)
(6.64081e-12 -4.10983e-12 4.20227e-12)
(1.27251e-13 -6.39033e-14 6.36088e-14)
(4.40919e-16 0 1.8734e-16)
(0 0 0)
(0 0 0)
(0 0 0)
(-4.01101e-25 0 0)
(3.64842e-25 0 0)
(2.68437e-25 0 0)
(1.18632e-26 0 0)
(2.29334e-28 0 0)
(1.64605e-30 0 0)
(4.77451e-33 0 0)
(1.365e-36 0 0)
(0 0 0)
(0 0 0)
(0 0 0)
(0 0 0)
(-8.67076e-23 0 0)
(7.49117e-23 0 0)
(6.39995e-23 0 0)
(2.82547e-24 0 0)
(6.20282e-26 0 0)
(4.99021e-28 0 0)
(1.62904e-30 0 0)
(7.50101e-34 0 0)
(0 0 0)
(0 0 0)
(0 0 0)
(0 0 0)
(-1.80745e-20 0 0)
(1.47713e-20 0 0)
(1.46697e-20 0 0)
(6.54569e-22 0 0)
(1.64979e-23 0 0)
(1.47562e-25 0 0)
(5.36926e-28 0 0)
(3.69718e-31 0 0)
(0 0 0)
(0 0 0)
(0 0 0)
(-2.05118e-18 -7.41194e-18 0)
(-3.51209e-18 0 0)
(2.72643e-18 0 0)
(3.14431e-18 0 0)
(1.51935e-19 0 0)
(4.24927e-21 0 0)
(4.15794e-23 0 0)
(1.67717e-25 0 0)
(1.62201e-28 0 0)
(0 0 0)
(0 0 0)
(0 0 0)
(-2.94701e-16 -5.19079e-15 3.18191e-15)
(-6.60351e-16 -3.40618e-14 2.26048e-14)
(5.11629e-16 -4.11769e-14 2.56541e-14)
(6.11799e-16 -6.61019e-15 4.04367e-15)
(3.57609e-17 0 0)
(1.02755e-18 0 0)
(1.08458e-20 0 0)
(4.85479e-23 0 0)
(6.28449e-26 0 0)
(0 0 0)
(0 0 0)
(0 0 0)
(-8.53846e-14 -4.10701e-13 2.99497e-13)
(-1.06083e-13 -1.97418e-12 1.47952e-12)
(8.44332e-14 -2.1214e-12 1.57876e-12)
(1.05358e-13 -5.00864e-13 3.54318e-13)
(8.10975e-15 -3.85583e-14 2.67147e-14)
(2.2519e-16 0 1.98869e-16)
(2.55091e-18 0 0)
(1.27459e-20 0 0)
(2.13166e-23 0 0)
(0 0 0)
(0 0 0)
(0 0 0)
(-4.70276e-12 -1.82095e-11 1.59768e-11)
(-5.00911e-12 -8.20751e-11 7.58603e-11)
(4.15856e-12 -8.77067e-11 8.04214e-11)
(5.47719e-12 -2.18432e-11 1.90695e-11)
(6.26492e-13 -2.04805e-12 1.73606e-12)
(4.36579e-14 -9.50528e-14 8.1006e-14)
(5.32895e-16 -2.65159e-16 8.61766e-16)
(2.98314e-18 0 0)
(6.2693e-21 0 0)
(0 0 0)
(0 0 0)
(0 0 0)
(-2.12887e-10 -2.64802e-09 3.41039e-09)
(1.81113e-10 -2.80581e-09 3.58652e-09)
(2.07208e-10 -7.07593e-10 8.10049e-10)
(3.00486e-11 -8.4074e-11 9.35456e-11)
(2.41639e-12 -4.19006e-12 4.479e-12)
(9.95528e-14 -1.15112e-13 1.1899e-13)
(7.49592e-16 -1.32579e-16 1.12692e-15)
(1.58397e-18 0 0)
(0 0 0)
(0 0 0)
(0 0 0)
(1.348e-09 -2.68067e-09 5.00057e-09)
(1.09021e-10 -1.38585e-10 2.26413e-10)
(4.33032e-12 -3.52131e-12 5.27605e-12)
(1.13558e-13 -7.093e-14 1.023e-13)
(4.75003e-16 0 7.23617e-16)
(0 0 0)
(0 0 0)
(0 0 0)
(0 0 0)
(-1.28638e-27 0 0)
(1.22175e-27 0 0)
(8.15101e-28 0 0)
(2.82059e-29 0 0)
(4.28381e-31 0 0)
(1.6531e-33 0 0)
(4.97974e-37 0 0)
(0 0 0)
(0 0 0)
(0 0 0)
(0 0 0)
(0 0 0)
(-2.9667e-25 0 0)
(2.66768e-25 0 0)
(2.07363e-25 0 0)
(7.32519e-27 0 0)
(1.24618e-28 0 0)
(5.58632e-31 0 0)
(2.9247e-34 0 0)
(0 0 0)
(0 0 0)
(0 0 0)
(0 0 0)
(0 0 0)
(-6.64735e-23 0 0)
(5.65156e-23 0 0)
(5.10969e-23 0 0)
(1.85457e-24 0 0)
(3.5601e-26 0 0)
(1.85243e-28 0 0)
(1.54183e-31 0 0)
(0 0 0)
(0 0 0)
(0 0 0)
(0 0 0)
(0 0 0)
(-1.41792e-20 0 0)
(1.14401e-20 0 0)
(1.19745e-20 0 0)
(4.72519e-22 0 0)
(9.9646e-24 0 0)
(5.96656e-26 0 0)
(7.24538e-29 0 0)
(0 0 0)
(0 0 0)
(0 0 0)
(0 0 0)
(0 0 0)
(-2.79618e-18 0 0)
(2.1577e-18 0 0)
(2.60871e-18 0 0)
(1.24459e-19 0 0)
(2.68965e-21 0 0)
(1.82591e-23 0 0)
(3.01034e-26 0 0)
(0 0 0)
(0 0 0)
(0 0 0)
(0 0 0)
(0 -3.69315e-15 3.83051e-15)
(-5.33229e-16 -2.97087e-14 2.93e-14)
(4.12005e-16 -3.47166e-14 3.341e-14)
(5.15875e-16 -6.47902e-15 5.10431e-15)
(3.29675e-17 0 0)
(6.80167e-19 0 0)
(5.15514e-21 0 0)
(1.09476e-23 0 0)
(0 0 0)
(0 0 0)
(0 0 0)
(0 0 0)
(-7.31838e-14 -2.94056e-13 3.25028e-13)
(-8.7469e-14 -1.3551e-12 1.55759e-12)
(6.8692e-14 -1.45478e-12 1.66922e-12)
(9.04182e-14 -3.53807e-13 3.96943e-13)
(7.81792e-15 -2.77358e-14 3.01618e-14)
(1.55611e-16 0 2.65159e-16)
(1.30266e-18 0 0)
(3.4434e-21 0 0)
(0 0 0)
(0 0 0)
(0 0 0)
(0 0 0)
(-3.18348e-12 -3.97819e-11 6.12801e-11)
(2.64447e-12 -4.25917e-11 6.56057e-11)
(3.72723e-12 -1.1534e-11 1.66451e-11)
(4.36203e-13 -1.1171e-12 1.57849e-12)
(3.11543e-14 -5.43976e-14 7.35816e-14)
(2.87698e-16 0 8.61766e-16)
(9.2546e-19 0 0)
(0 0 0)
(0 0 0)
(0 0 0)
(0 0 0)
(1.47036e-11 -2.63357e-11 5.88679e-11)
(1.26578e-12 -1.55715e-12 3.08689e-12)
(5.5223e-14 -4.46793e-14 8.7223e-14)
(2.11004e-16 0 8.11647e-16)
(0 0 0)
(0 0 0)
(0 0 0)
(0 0 0)
(0 0 0)
(-5.31714e-31 0 0)
(1.32563e-30 0 0)
(1.14561e-30 0 0)
(2.72302e-32 0 0)
(1.94246e-34 0 0)
(4.81979e-38 0 0)
(0 0 0)
(0 0 0)
(0 0 0)
(0 0 0)
(0 0 0)
(0 0 0)
(-1.92384e-28 0 0)
(3.61216e-28 0 0)
(3.11553e-28 0 0)
(7.95938e-30 0 0)
(6.4162e-32 0 0)
(3.4848e-35 0 0)
(0 0 0)
(0 0 0)
(0 0 0)
(0 0 0)
(0 0 0)
(0 0 0)
(-6.33184e-26 0 0)
(9.45237e-26 0 0)
(8.3291e-26 0 0)
(2.22807e-27 0 0)
(2.12174e-29 0 0)
(2.21808e-32 0 0)
(0 0 0)
(0 0 0)
(0 0 0)
(0 0 0)
(0 0 0)
(0 0 0)
(-1.87427e-23 0 0)
(2.33475e-23 0 0)
(2.1661e-23 0 0)
(6.0577e-25 0 0)
(6.96835e-27 0 0)
(1.23841e-29 0 0)
(0 0 0)
(0 0 0)
(0 0 0)
(0 0 0)
(0 0 0)
(0 0 0)
(-4.91471e-21 0 0)
(5.32646e-21 0 0)
(5.36804e-21 0 0)
(1.66002e-22 0 0)
(2.24669e-24 0 0)
(6.03998e-27 0 0)
(0 0 0)
(0 0 0)
(0 0 0)
(0 0 0)
(0 0 0)
(0 0 0)
(-1.12011e-18 0 0)
(1.09606e-18 0 0)
(1.23474e-18 0 0)
(4.73875e-20 0 0)
(6.95379e-22 0 0)
(2.56033e-24 0 0)
(0 0 0)
(0 0 0)
(0 0 0)
(0 0 0)
(0 0 0)
(0 -1.71999e-15 3.15005e-15)
(-2.3719e-16 -1.62451e-14 2.50575e-14)
(2.18734e-16 -1.80887e-14 2.7908e-14)
(2.56818e-16 -2.6467e-15 4.97173e-15)
(1.3608e-17 0 0)
(2.00656e-19 0 0)
(9.36512e-22 0 0)
(0 0 0)
(0 0 0)
(0 0 0)
(0 0 0)
(0 0 0)
(-4.13648e-14 -5.67069e-13 1.02049e-12)
(3.67552e-14 -6.04164e-13 1.0877e-12)
(4.71668e-14 -1.53792e-13 2.68797e-13)
(3.7249e-15 -1.07035e-14 2.16767e-14)
(5.25358e-17 0 6.62897e-17)
(2.91864e-19 0 0)
(0 0 0)
(0 0 0)
(0 0 0)
(0 0 0)
(0 0 0)
(1.79235e-13 -3.17793e-13 8.04332e-13)
(1.20143e-14 -1.59095e-14 3.96315e-14)
(7.55543e-17 0 3.68488e-16)
(0 0 0)
(0 0 0)
(0 0 0)
(0 0 0)
(0 0 0)
(0 0 0)
(0 0 0)
(3.70786e-34 0 0)
(4.45577e-34 0 0)
(2.55757e-36 0 0)
(1.57789e-37 0 0)
(0 0 0)
(0 0 0)
(0 0 0)
(0 0 0)
(0 0 0)
(0 0 0)
(0 0 0)
(0 0 0)
(1.15995e-31 0 0)
(1.40964e-31 0 0)