/*--------------------------------*- C++ -*----------------------------------*\
  =========                 |
  \\      /  F ield         | OpenFOAM: The Open Source CFD Toolbox
   \\    /   O peration     | Website:  https://openfoam.org
    \\  /    A nd           | Version:  9
     \\/     M anipulation  |
\*---------------------------------------------------------------------------*/
FoamFile
{
    format      ascii;
    class       volScalarField;
    location    "0.0021";
    object      rho;
}
// * * * * * * * * * * * * * * * * * * * * * * * * * * * * * * * * * * * * * //

dimensions      [1 -3 0 0 0 0 0];

internalField   nonuniform List<scalar> 
17195
(
1.04734
1.18735
1.05474
0.862957
0.852438
1.55342
1.4775
1.38927
1.5969
1.37115
1.22894
1.22504
1.26514
1.63796
1.21855
1.68557
1.7219
1.75891
1.92838
1.86578
1.73429
1.85999
1.91866
1.61038
2.1592
2.2407
1.20244
1.49663
0.995249
1.40313
1.17492
1.48196
1.09445
1.16286
1.53385
1.48868
1.26433
1.46234
1.18809
1.07225
1.06477
1.56398
1.30763
1.77352
1.02977
1.63166
1.32839
1.13181
1.78211
1.64659
1.37925
1.65827
1.34503
1.1973
1.33644
1.62533
1.43112
1.72708
1.25874
1.62066
1.51432
1.4698
1.73971
1.70819
1.88464
1.64346
1.65268
1.64752
2.34946
2.13036
2.49781
2.10878
1.98319
2.22868
2.26739
1.95667
2.09716
2.39748
0.694682
0.236496
0.979275
0.360323
1.79585
1.08026
1.93965
1.99959
2.37498
1.50671
0.23191
0.519596
0.765957
0.282705
0.693668
0.718593
0.303345
0.779502
0.332959
0.904363
1.32214
0.663394
1.78935
1.04763
0.771513
1.72866
0.892229
2.54172
2.00592
1.87244
2.30106
2.64787
1.99911
1.79374
1.33778
1.28106
2.00593
1.50919
1.46381
2.06915
1.25194
1.28098
1.4948
1.22888
0.537752
0.367903
0.363565
0.244805
0.379097
0.373687
0.523048
0.994125
0.551674
0.559573
0.44535
0.789356
0.68262
0.715565
2.43148
1.58749
1.69385
1.46401
2.15596
2.0338
2.04642
1.38492
2.2272
1.66906
1.88994
1.6278
1.94555
1.444
2.23533
2.06582
2.62164
2.26818
1.56376
1.67432
1.22703
2.22619
1.34467
0.499861
0.568225
0.329194
0.238883
0.574346
0.339312
0.490121
0.521504
0.251956
0.637088
0.407098
0.593357
0.359901
0.568297
0.573726
0.263202
0.462295
0.460096
0.404517
0.399908
0.656283
0.778111
0.713558
0.484048
0.405159
0.651482
0.824479
0.59708
0.948992
0.508416
1.16106
0.976363
0.971417
0.75615
1.1654
1.30195
0.572988
1.16264
1.28893
0.873521
0.954363
1.71497
1.80601
1.41983
1.29439
1.21703
1.45084
1.75333
1.72183
2.12256
1.5831
2.35808
2.32523
2.08538
2.12995
2.33401
2.38207
1.80644
2.3868
1.95655
2.3342
2.14401
2.0393
2.19162
1.49303
2.17311
1.23304
2.40264
1.31816
2.04279
3.69968
3.33158
3.73461
3.37003
2.10202
1.21834
1.30493
2.02885
1.26679
2.00204
2.09935
3.66858
3.38919
3.39627
3.61978
2.41459
2.51544
2.34742
2.06311
2.39759
2.60147
2.2941
2.40575
2.09914
2.68921
1.92943
2.67283
2.17891
2.31788
1.27954
1.71145
1.3806
1.2576
1.63612
1.31709
1.24083
2.696
2.13425
1.86663
2.79211
2.0859
2.49747
2.38596
1.22883
1.22502
1.22659
1.57065
1.22537
1.22651
1.22501
2.08365
1.95047
2.46191
1.52356
1.51548
2.15041
1.29014
1.225
2.20823
1.22506
0.767047
0.829497
0.899476
1.08391
1.0747
0.834873
0.821168
0.937961
0.794211
1.01495
1.35777
2.13217
1.37919
1.16209
2.12004
2.14656
0.982759
0.925565
0.782626
0.771647
0.915687
0.783148
0.995608
0.979272
0.786528
0.924231
0.834275
0.912661
0.796589
0.989767
1.01694
0.945383
0.901594
0.984059
1.01082
0.957026
0.983986
0.977294
1.05045
0.82101
1.10604
0.920705
1.05737
0.883806
0.685953
0.687806
1.10941
1.01217
0.764802
0.587122
1.0618
0.658469
0.9184
0.505736
0.96106
0.528789
0.994834
0.67887
0.805823
0.515433
0.976974
0.796315
0.731267
0.550557
1.04732
0.930996
0.85775
0.736704
1.43303
0.611766
1.19002
1.11407
0.747259
0.648291
0.925752
0.796451
0.751036
0.663112
0.872297
0.754276
0.827773
0.784049
0.964262
0.694336
0.875723
0.818439
1.83075
1.09301
1.8558
1.78103
1.53261
1.43561
2.21503
0.963532
1.14122
1.50249
0.962911
1.23566
1.1998
1.4436
2.49333
1.23785
1.2367
2.2838
2.42036
2.52865
2.53005
1.76807
1.22515
1.86856
1.22503
1.30657
1.225
1.22563
1.225
1.34789
1.225
1.225
1.225
1.41671
1.94132
1.65728
2.02008
1.37515
1.23108
1.37009
1.22895
1.83902
2.27179
2.02924
1.80217
1.35376
1.22627
1.79708
1.53065
1.24643
1.23613
1.23246
1.22574
1.22524
1.22505
1.45273
1.22513
1.22874
1.22502
2.21937
1.24164
1.33818
1.84646
2.20463
1.23565
1.29124
2.05988
1.22842
1.24163
1.47883
1.29088
1.23145
1.22668
1.22746
1.22557
1.22501
1.22684
1.22509
1.22503
1.225
1.22501
1.225
1.225
1.22502
1.225
1.225
1.225
1.22522
1.22507
1.22501
1.22506
1.22501
0.923703
0.752815
1.51431
1.441
0.765708
1.53715
0.903802
0.988176
1.51802
0.944066
1.75714
0.822437
1.61393
1.1252
1.25708
1.26761
1.41154
1.37132
1.26453
1.39803
1.26042
1.25107
1.37186
1.25387
1.34008
1.26026
1.37381
1.24359
1.60234
1.11394
1.94029
2.00308
1.33148
1.35502
2.11967
1.94196
2.08501
1.99492
2.18003
1.67815
2.22535
2.25219
1.23069
1.24573
1.30146
1.32097
1.23627
1.23747
1.26694
2.18935
2.15364
1.87263
1.47508
2.36873
2.04736
1.45618
1.72377
1.29434
1.42501
1.2402
1.72182
1.28107
1.38108
1.24192
1.29562
1.22979
1.22769
1.2741
1.25233
1.22657
1.23034
1.22588
1.22799
1.22512
1.23483
1.22547
1.22643
1.24326
1.57507
1.24873
1.32562
1.26901
1.4237
1.23402
1.2264
1.22688
1.22525
1.22505
1.22859
1.2257
1.2251
1.94623
1.75094
1.77739
1.95977
1.72943
1.93906
1.95729
2.08488
1.50806
1.8337
2.048
1.38287
1.4757
1.66729
1.31061
1.23217
1.24772
1.24568
1.22688
1.22668
1.2322
1.22541
1.22505
1.22521
1.22513
1.22502
1.22501
1.22503
1.2589
1.23603
1.2547
1.22825
1.22764
1.22564
1.23185
1.225
1.225
1.225
1.225
1.225
1.225
1.225
1.22503
1.225
1.225
1.225
1.80664
2.05473
1.61747
1.99961
1.68893
1.89955
1.81629
1.69292
1.5365
1.24959
1.85486
1.2932
1.3186
1.25354
1.23107
1.22631
1.22515
1.22989
1.22549
1.22539
1.2251
1.22506
1.22501
1.225
1.22504
1.225
1.225
1.225
1.22589
1.22502
1.22502
1.22529
1.22522
1.22506
1.22501
1.2258
1.22501
1.22501
1.22509
1.22545
1.22501
1.225
1.22509
1.225
1.225
1.22501
1.22501
1.225
1.225
1.225
1.225
1.225
1.225
1.225
1.225
1.225
1.225
1.225
1.225
1.225
1.225
1.225
1.225
1.225
1.225
1.225
1.225
1.225
1.22565
1.22529
1.26821
1.22501
1.22728
1.2886
1.2251
1.22502
1.22536
1.22501
1.23178
2.24916
2.40514
2.58037
1.73329
1.25492
1.22504
1.225
1.225
1.225
1.22503
1.225
1.23565
1.25844
1.22501
1.61065
1.23064
1.24384
1.22501
1.22601
1.22903
1.22501
1.23256
1.22507
1.22533
1.225
1.22501
1.225
1.225
1.22502
1.225
1.225
1.225
1.225
1.225
1.225
1.225
1.225
1.225
1.225
1.225
1.22501
1.22501
1.225
1.225
1.225
1.225
1.225
1.225
1.225
1.225
1.225
1.225
1.225
1.225
1.225
1.225
1.225
1.225
1.225
1.225
1.225
1.225
1.225
1.225
1.225
1.225
1.225
1.225
1.225
1.225
1.225
1.225
1.225
1.225
1.225
0.881136
0.619379
0.653359
0.612092
0.657318
0.688558
0.661488
0.692543
0.668578
1.225
1.225
1.225
1.225
1.225
1.225
1.225
1.225
1.225
1.225
1.225
1.225
1.225
1.225
1.225
1.225
1.34803
1.22501
1.225
1.2253
1.28518
1.22501
1.23344
1.22503
1.225
1.225
1.225
0.90062
0.952767
1.90096
2.63546
2.94125
1.82666
1.22865
1.22517
1.22501
1.225
2.1595
2.42971
1.70097
2.03106
2.35522
2.0875
2.41382
2.34744
2.14758
1.29379
1.40724
1.42054
2.26912
1.28698
2.57191
1.75342
1.47228
1.44721
1.64822
1.49787
1.70901
1.69074
1.74459
1.43748
1.48627
1.68227
2.10936
1.94399
2.36313
2.4546
2.02004
2.02757
2.56466
2.11205
2.49735
2.02885
2.61453
3.80009
2.69161
2.98902
2.77192
3.13745
2.93988
3.58701
4.29665
3.13543
3.31403
4.0109
1.06988
1.33788
2.38098
2.1038
2.07452
0.787646
1.1999
0.887865
0.993095
2.12102
1.49244
1.60103
2.38993
1.48647
1.60733
1.02583
0.980761
1.09729
1.08946
0.999108
1.11785
1.00773
1.4622
1.23364
1.36498
1.55136
1.25684
1.42934
1.59043
2.87289
2.14555
2.76108
2.521
2.48273
2.23075
3.25639
2.47573
1.77606
3.25005
1.79375
2.78587
1.52537
2.83984
2.73417
1.62951
0.918364
0.879469
0.789116
0.801676
0.895958
0.803921
0.901613
1.01249
1.08355
1.10366
0.994677
0.896463
0.767132
0.780912
0.880807
1.05602
1.12413
1.1048
1.22403
1.03143
1.14957
1.1267
0.946912
0.827265
0.992731
0.888102
0.924911
0.829614
1.01263
1.04476
1.21752
1.13902
1.11797
0.925651
0.865376
0.807392
0.991453
1.30896
1.1101
0.990949
1.14648
1.12985
1.28378
1.14481
1.45152
1.35803
1.2477
1.58397
1.2834
0.96662
1.10736
1.11524
1.73996
1.82563
1.93631
2.28595
1.67751
1.89955
2.07861
1.54489
1.32674
1.71047
1.57634
1.49877
1.34351
1.82556
1.73406
2.32473
1.90186
2.1008
1.52199
1.56158
1.31065
1.82912
2.45685
1.85819
1.85207
1.62705
2.15323
1.89767
2.12169
3.2044
2.88416
2.57828
3.62741
2.78499
1.9063
2.23856
2.36868
3.03546
2.52066
2.04605
3.48725
2.20095
3.4966
3.00206
2.58895
1.59335
1.71242
2.2647
1.85625
2.25468
2.56404
3.82605
4.81422
4.38565
4.17819
3.31767
3.17622
2.83813
3.64355
4.1397
4.87877
4.24389
4.68537
2.31264
1.6272
1.42202
2.49546
1.41467
2.58552
2.26958
4.03677
4.26083
4.45905
3.93859
2.26443
3.17942
2.31478
2.23253
2.98263
2.22547
2.63149
0.573625
0.575403
0.627332
0.671466
0.763277
1.03266
0.998395
1.21239
1.32658
1.20506
1.27264
1.10418
1.05344
0.560365
0.595747
0.782679
0.565581
0.875014
0.969135
1.22518
1.21298
0.898162
0.696318
0.721683
0.727099
0.687357
0.706312
0.776075
0.740679
0.730644
0.78021
0.806386
0.759101
0.806487
0.765173
0.761538
0.6572
0.807647
0.762643
0.840443
0.793508
0.765659
0.854515
0.796063
0.828771
0.816936
0.827372
0.943703
0.782267
0.879421
0.880717
1.02718
0.88718
1.05142
1.08951
0.952062
0.940978
1.19812
1.07686
1.18707
0.92701
1.4127
0.960508
1.33587
1.07591
0.906974
0.844327
1.42597
1.14041
1.01162
0.754878
1.36939
0.8249
1.02217
0.654761
1.04596
0.689405
1.22024
0.77418
1.22501
1.225
1.225
1.225
1.225
1.22501
1.22501
1.225
1.225
1.225
1.225
1.225
1.225
1.225
1.225
1.225
1.225
1.225
0.782692
1.17627
0.452582
2.17812
1.23409
1.22501
1.225
1.225
1.225
1.01686
1.46124
0.673499
1.99852
1.22862
1.225
1.225
1.225
1.225
2.48409
2.67064
1.9601
1.24862
1.22509
1.225
1.225
1.225
1.225
2.4759
2.71963
1.8088
1.22502
1.225
1.225
1.225
1.225
1.225
1.22991
2.87589
1.22535
1.32947
1.225
1.225
1.225
1.225
1.225
1.41946
1.225
1.22502
1.225
1.225
1.10219
1.10946
1.13429
1.06985
1.12336
0.401125
0.833568
1.26133
0.432379
1.13513
1.31148
1.27421
1.3844
0.50495
1.50521
1.27752
1.26795
1.22637
2.14886
1.26395
1.25687
1.22556
1.22512
1.22518
1.22502
1.23041
1.22505
1.22507
1.22501
1.25917
1.46294
1.40714
0.537384
1.42071
2.23278
0.792097
2.341
1.88024
1.05978
2.36846
1.25496
1.23489
1.2253
1.51861
1.22965
1.22539
1.22502
1.22503
1.22504
1.225
1.22533
1.225
1.22501
1.225
1.43756
1.30744
1.17692
2.53406
1.83541
2.81661
2.78467
2.9514
2.99787
2.70954
2.40225
2.825
1.37216
1.22638
1.22502
1.22501
1.22563
1.22501
1.225
1.225
1.225
1.225
1.225
1.225
1.225
1.225
1.225
1.42073
1.17083
1.65796
1.25994
2.47335
3.54133
2.37911
2.30425
1.44889
2.43575
2.41168
1.8407
1.22973
1.24614
1.22501
1.225
1.225
1.225
1.225
1.225
1.225
1.225
1.225
1.225
1.225
1.225
1.225
1.225
1.225
1.28454
1.225
1.22501
1.225
1.22513
1.225
1.225
1.60945
1.22502
1.2252
1.22527
1.22786
1.225
1.22502
1.53816
1.26552
2.11569
1.23268
2.72735
1.225
1.2259
1.225
1.225
1.225
0.733769
0.773275
0.736229
2.39918
1.53555
1.66508
0.81004
2.48607
1.65305
0.965909
1.78148
1.04392
2.56433
2.04366
2.78956
1.55372
2.58555
2.53201
2.82856
3.09548
3.07029
1.23936
2.32457
1.33009
2.21218
1.22671
1.29239
1.60314
1.24631
1.23947
1.22501
1.22597
1.22502
1.22531
1.225
1.22501
1.21849
1.19684
1.16335
1.19232
1.21336
1.18412
1.19662
0.468744
0.342255
0.355158
0.293286
0.196042
0.203645
0.283332
1.22555
1.22609
1.23079
1.23333
1.22598
1.23023
1.22562
1.76336
1.48583
1.46234
1.69911
1.50207
1.72649
1.71688
0.520538
0.825921
0.637001
0.54128
0.30708
0.436895
0.382874
1.22507
1.22534
1.22677
1.22706
1.22516
1.22517
1.22589
3.89827
2.73135
3.13415
2.94824
3.1988
3.00896
3.81695
2.54436
1.46836
2.12259
1.95303
0.975674
1.40448
1.4767
1.225
1.22501
1.22503
1.22502
1.225
1.225
1.22501
4.09018
2.80079
4.571
2.39184
4.5721
2.45365
4.1112
1.28693
2.66157
1.62211
1.3337
2.46611
1.69302
1.96773
1.225
1.225
1.225
1.225
1.225
1.225
1.225
1.22504
2.52736
1.22929
2.94613
1.90038
2.23236
1.22669
2.31132
2.12771
2.77689
2.52301
2.67287
1.22849
1.52953
1.2293
1.40843
1.23197
1.25474
1.23896
1.28455
1.22699
1.225
1.225
1.225
1.225
1.225
1.225
1.225
1.225
1.225
1.225
1.225
1.225
1.225
1.225
1.04637
1.05371
1.10656
1.14083
1.07169
1.12539
1.02827
0.411397
0.634732
0.650125
0.741198
0.304787
0.310887
0.729643
0.988752
1.04327
1.0646
0.970653
1.08439
1.18136
1.18667
1.24037
1.11104
1.1627
1.15896
0.681126
0.472363
0.739166
0.761438
0.34774
0.322635
0.80962
1.03214
1.18573
1.1063
1.10438
1.22145
1.18012
1.1595
1.15491
1.19825
1.18314
1.19794
1.18678
1.11929
1.14162
1.1631
1.19635
1.14141
1.16337
1.17342
1.25766
1.23188
1.33508
1.30585
1.25375
1.22379
1.34118
1.25846
1.19388
1.32238
1.29615
1.23968
1.21734
1.3403
1.23232
1.27238
1.18587
1.32117
1.23971
1.28666
1.20297
1.32668
1.41593
0.760288
0.783678
0.580543
1.22336
1.25269
0.562005
0.384705
0.571482
0.438777
0.318398
0.255051
0.221396
0.36544
0.843627
1.6637
0.957272
0.631399
1.49718
1.34185
0.727006
1.46838
1.39256
1.27073
1.27422
1.39044
1.26685
1.48326
1.4424
1.27031
1.40306
1.25115
1.39637
1.25999
1.40416
1.22506
1.22512
1.22507
1.2251
1.2251
1.22506
1.22507
1.22543
1.23207
1.22556
1.22795
1.22579
1.2292
1.22528
1.22504
1.22508
1.22505
1.22503
1.22508
1.22505
1.22503
1.5144
1.32191
1.387
1.63391
1.29549
1.52987
1.62408
0.836223
0.638494
0.981112
1.04377
0.389776
0.898777
0.454685
1.42665
1.32953
1.22902
1.56226
1.81843
1.92313
2.08332
2.39354
1.79461
1.95939
2.20343
1.18118
1.45503
1.02149
1.25226
0.720968
0.557364
1.55048
1.71327
2.39121
1.90443
2.1186
1.75156
1.43188
1.4858
1.69072
2.12838
2.01059
2.39216
2.54547
2.04488
2.0754
2.60174
2.13181
2.59299
2.06678
2.65572
1.13378
2.13217
1.38157
1.07149
1.70435
0.87288
1.94941
0.804984
1.42639
1.05808
0.703864
0.674588
0.495775
0.979145
2.49836
1.7095
2.13815
1.35484
2.28667
2.17355
1.75311
1.3051
1.39769
1.242
1.24502
1.35568
1.37215
1.23434
1.2643
1.23601
1.27922
1.22646
1.32784
1.22919
1.24031
1.22501
1.22503
1.22501
1.22501
1.22501
1.22501
1.22501
1.22503
1.22594
1.22502
1.22512
1.22507
1.22537
1.22501
1.225
1.225
1.225
1.225
1.225
1.225
1.225
3.21257
2.36656
2.92804
2.79123
2.66805
2.58383
3.54601
2.35586
1.37019
1.93429
2.59834
0.987842
1.9848
1.43247
3.59085
3.10189
2.71683
4.1302
3.69862
2.89797
2.50223
4.32685
2.64013
4.11727
3.87622
3.42816
2.68732
3.25273
3.36311
2.79308
2.0993
4.02512
4.73205
6.52027
5.41775
5.74441
4.44886
3.34174
3.39184
4.43126
4.49306
3.0717
3.05994
4.66225
3.12391
4.43789
4.68541
4.30231
2.80899
2.94483
4.00125
3.02009
3.95342
4.42884
5.76196
6.94137
5.79745
6.78543
5.46169
5.55842
4.97168
6.27498
1.90384
2.54948
2.65472
2.37418
2.19487
2.17843
1.82284
2.75269
3.0289
2.45834
2.39213
2.50877
2.08128
2.28819
1.24508
2.2338
1.48272
2.12433
1.25146
1.38982
1.52546
1.226
1.24417
1.22539
1.22531
1.22947
1.22957
1.22508
1.22516
1.22505
1.22512
1.225
1.22582
1.22501
1.22502
1.225
1.225
1.225
1.225
1.225
1.225
1.225
1.225
1.225
1.225
1.225
1.225
1.225
1.225
1.225
1.225
1.225
1.225
1.225
1.225
1.225
3.30219
2.20343
4.21895
2.17948
3.74317
1.95053
3.77887
3.20393
2.77992
3.26458
4.07875
3.03673
4.32849
2.86386
6.02639
7.046
6.22859
6.90242
2.92555
2.11023
2.09135
3.18386
1.91201
3.34638
2.801
2.08003
2.64001
2.01411
3.42491
1.80997
2.38768
2.8077
5.22444
5.06419
6.12097
4.22616
3.77359
2.6862
3.78661
2.09373
4.27448
2.34325
3.2974
6.99991
7.46851
7.21221
7.3188
6.23745
5.67812
6.53271
5.39648
3.56484
2.26419
2.33966
3.36409
2.27055
3.59369
3.31768
3.28802
1.88591
2.111
2.75778
2.13504
2.91753
3.06936
6.21179
5.41825
6.5012
5.33624
5.5746
4.59156
4.95362
5.00281
1.22532
1.22747
1.26019
1.2342
1.22902
1.27678
1.22564
1.34506
1.22664
1.23497
1.24855
1.28486
1.48185
1.22948
1.22511
1.22572
1.22505
1.22669
1.22502
1.22511
1.22529
1.225
1.22502
1.225
1.225
1.225
1.225
1.225
1.225
1.225
1.225
1.225
1.225
1.225
1.225
1.225
1.225
1.225
1.225
1.225
1.225
1.225
1.225
1.225
1.225
1.225
1.225
1.225
1.225
1.225
1.225
1.225
1.225
1.225
1.225
1.225
1.22545
1.25409
1.22867
1.24064
1.22673
1.23208
1.226
1.22503
1.2252
1.225
1.225
1.22509
1.22506
1.225
1.23431
1.52438
1.26929
1.42502
1.25256
1.34491
1.24186
1.22527
1.22539
1.22505
1.22501
1.22585
1.22512
1.22502
1.22562
1.22827
1.22511
1.22507
1.22683
1.22617
1.22504
1.22601
1.22501
1.225
1.22527
1.225
1.225
1.225
1.225
1.225
1.225
1.225
1.225
1.65722
1.22501
1.225
1.22503
1.225
1.2252
1.22548
1.22513
1.22504
1.22501
1.24962
1.22502
1.22531
1.23262
1.225
1.22514
1.225
1.22516
1.225
1.225
1.22505
1.225
1.225
1.225
1.225
1.225
1.225
1.22529
1.22929
1.22503
1.22948
1.23265
1.22561
1.22591
1.23193
1.22554
1.23001
1.22561
1.22759
1.22514
1.22512
1.22633
1.22633
1.22506
1.225
1.22505
1.225
1.225
1.22502
1.22501
1.225
1.225
1.225
1.225
1.225
1.225
1.225
1.225
1.25016
1.65105
1.28183
1.48631
1.28433
1.4941
1.24839
1.22501
1.225
1.225
1.225
1.225
1.225
1.225
1.2285
1.22571
1.22918
1.22526
1.23072
1.22541
1.22735
1.22524
1.22505
1.22518
1.22501
1.22555
1.22502
1.22507
1.22733
1.28187
1.2272
1.23165
1.231
1.24373
1.22576
1.22505
1.22564
1.22693
1.22703
1.22521
1.22516
1.22549
1.225
1.225
1.225
1.225
1.225
1.225
1.225
1.22501
1.22554
1.22501
1.22504
1.22504
1.22513
1.225
1.225
1.225
1.22501
1.22502
1.225
1.225
1.225
1.225
1.225
1.225
1.225
1.225
1.225
1.225
1.225
1.22501
1.225
1.225
1.225
1.225
1.225
1.22688
1.22949
1.22533
1.22511
1.22985
1.2267
1.22513
3.18689
1.62932
1.42794
2.73879
1.31973
1.88386
2.26497
3.43695
2.2886
1.57945
3.49266
1.80143
2.72565
2.54176
2.20164
3.32065
2.34397
2.34684
3.44843
2.04649
2.79139
2.16498
1.99627
2.01627
1.89942
1.7881
1.80321
1.91673
1.22501
1.22523
1.22516
1.22514
1.225
1.22506
1.225
1.225
1.225
1.225
1.22501
1.225
1.22501
1.225
1.78591
2.2834
2.3263
1.56804
2.0005
1.72041
2.03185
1.22502
1.225
1.22502
1.22503
1.225
1.22501
1.225
1.225
1.225
1.225
1.225
1.225
1.225
1.225
1.22941
1.54691
1.29124
1.22938
1.48378
1.2447
1.28762
1.225
1.225
1.225
1.225
1.225
1.225
1.225
1.225
1.225
1.225
1.225
1.225
1.225
1.225
1.225
1.22501
1.22515
1.225
1.22525
1.22501
1.22504
1.225
1.225
1.225
1.225
1.225
1.225
1.225
1.225
1.225
1.225
1.225
1.225
1.225
1.225
1.22778
1.22503
1.22521
1.22512
1.23693
1.2258
1.22676
1.225
1.225
1.225
1.225
1.225
1.225
1.225
1.225
1.22529
1.22501
1.23561
1.22513
1.22504
1.225
1.22747
1.22501
1.22599
1.24796
1.22527
1.2251
1.22501
1.225
1.225
1.225
1.22501
1.225
1.225
1.225
1.225
1.225
1.225
1.22502
1.225
1.225
1.225
2.08084
2.11044
2.1836
1.87331
1.93177
1.85426
1.82201
1.31879
2.26642
1.98692
1.40158
1.77917
1.98233
1.29123
1.22508
1.23526
1.2263
1.22574
1.22675
1.23669
1.22511
1.225
1.225
1.225
1.225
1.225
1.22501
1.225
1.225
1.225
1.22501
1.22501
1.225
1.22505
1.225
1.25389
2.33779
2.28232
2.39215
1.22644
2.25917
1.22574
1.22524
2.01707
1.44281
1.66919
1.22512
1.26308
1.22501
1.225
1.23869
1.22526
1.22597
1.225
1.22501
1.225
1.225
1.225
1.22501
1.225
1.225
1.225
1.225
1.225
1.22501
1.225
1.225
1.225
1.225
1.225
1.225
1.225
1.225
1.225
1.225
1.225
1.225
1.25767
1.51562
1.38231
2.13782
1.24818
1.47351
1.2699
1.225
1.225
1.225
1.225
1.225
1.225
1.225
1.225
1.225
1.225
1.225
1.225
1.225
1.225
1.225
1.225
1.22501
1.22501
1.225
1.225
1.225
1.225
1.225
1.22501
1.22507
1.22501
1.22505
1.225
1.225
1.225
1.225
1.22502
1.225
1.22501
1.225
1.225
1.225
1.225
1.225
1.225
1.225
1.225
1.225
1.225
1.225
1.225
1.225
1.225
1.225
1.225
1.225
1.22502
1.22502
1.225
1.22501
1.225
1.225
1.225
1.225
1.22501
1.225
1.225
1.225
1.22501
1.225
1.225
1.225
0.604782
0.703413
0.908691
1.18676
1.17875
1.95288
0.652412
0.830407
1.08628
0.692289
0.879216
1.19201
0.612302
0.86598
0.926655
1.31641
1.02622
1.04248
1.88615
0.788762
1.09032
0.8563
1.97374
1.24124
0.764972
1.68735
1.05392
0.96474
1.33448
0.875754
1.60437
1.09108
1.8567
0.998675
0.991397
1.22582
0.81845
0.864664
0.809036
0.862195
1.01182
1.14497
1.2313
1.78252
0.96205
1.04296
2.14404
2.24598
1.30858
1.59916
2.06148
1.53056
0.652839
0.60952
0.610013
0.807625
0.78096
0.78848
0.800344
0.846368
0.733292
0.750566
0.739787
0.878526
0.89379
0.722266
0.659599
0.617905
0.649866
0.825306
0.852121
0.805697
0.87314
0.782628
0.841648
0.939322
0.769395
0.98674
0.924567
0.826781
0.764486
0.80201
0.714331
1.05125
0.923627
0.955505
0.997159
1.01521
1.03667
1.1791
0.994938
1.09673
0.90672
1.26076
0.957154
0.954821
0.887286
1.12729
1.07947
1.04743
1.17224
0.976103
1.34137
1.46125
1.03696
1.57504
1.44273
1.00563
1.15654
1.08761
1.01637
1.24107
1.12203
1.20503
1.17897
0.776964
1.48473
1.42098
0.819331
1.61588
0.92193
1.53967
1.17019
1.29407
1.23619
1.28083
1.29762
1.24054
1.32575
0.805317
1.29752
1.23507
0.774557
1.22905
1.37115
0.773656
1.30138
1.33397
1.33394
1.39881
1.35974
1.37207
1.40632
0.958408
1.26135
1.35388
0.828903
1.1614
0.794527
1.17043
1.3003
1.5117
1.77102
0.904028
1.50751
1.27602
1.05557
0.833689
0.817343
0.831055
0.861859
0.920935
0.92765
1.11075
1.03192
1.18281
1.0869
1.35963
1.50193
0.933715
1.53065
1.47444
1.19015
1.47895
1.5678
1.43866
1.69241
1.8141
1.74635
1.92517
2.00421
1.73214
1.57989
2.43007
0.917482
0.998881
1.00973
1.09975
1.00648
1.0221
0.907817
0.938758
1.12905
1.07788
1.11659
1.02714
1.05205
0.991055
1.20655
1.17496
1.23828
1.50812
1.08604
1.30607
1.41839
1.28515
1.71915
1.41287
1.75404
1.40249
1.61144
1.27981
1.17629
1.36759
1.81539
1.94861
1.22396
1.32988
1.7778
1.17487
1.82325
1.34252
1.51536
1.31901
1.64036
1.19961
1.2597
1.3825
1.42816
1.58214
1.23249
1.43015
1.41226
1.33274
1.66851
1.65303
1.66717
1.524
1.49606
1.22508
1.22884
1.225
1.225
1.225
1.225
1.225
1.225
1.225
1.225
1.225
1.225
1.225
1.225
1.225
1.225
1.225
1.225
1.225
1.225
1.225
1.225
1.225
1.225
1.225
1.225
1.225
1.225
1.225
1.225
1.225
1.225
1.225
1.225
1.225
1.225
1.225
1.225
1.225
1.225
1.225
1.225
1.225
1.225
1.225
1.225
1.225
1.225
1.225
1.225
1.225
1.225
1.225
1.225
1.225
1.225
1.225
1.225
1.225
1.225
1.225
1.225
1.225
1.225
1.225
1.225
1.225
1.225
1.225
1.225
1.225
1.225
1.225
1.225
1.225
1.225
1.225
1.225
1.225
1.225
1.225
1.225
1.225
1.225
1.225
1.225
1.225
1.225
1.225
1.225
1.225
1.225
1.225
1.225
1.225
1.225
1.225
1.225
1.225
1.225
1.225
1.225
1.225
1.225
1.225
1.225
1.225
1.22528
1.75469
1.2295
1.40063
1.29382
1.60299
1.86438
2.20956
2.62197
2.44828
1.54373
2.87759
1.24177
1.53155
2.0556
1.0584
1.51595
1.74394
1.2076
1.36168
1.41245
1.36392
1.46558
1.53721
1.46262
1.53749
1.77941
1.5537
2.11222
2.82589
1.8726
1.22501
1.22751
2.55704
1.26332
1.71671
1.22536
1.44693
1.44737
1.32697
1.53701
1.75473
1.6291
1.4757
1.85055
2.31851
2.1895
2.3947
2.11339
1.98803
1.53356
2.39934
2.09347
1.83886
2.01812
2.69912
1.65665
2.22018
2.4867
2.15885
1.2937
1.32871
2.35818
2.11295
1.99756
1.85008
1.22508
1.72788
2.40039
0.624373
0.488202
0.494124
0.480989
0.649901
0.497731
0.542872
0.869351
0.59306
0.495848
0.530617
0.530704
0.520708
0.487404
0.510359
0.494669
0.48108
0.477785
0.507559
0.48085
0.48359
0.699445
0.71709
0.586871
0.518815
0.546286
0.682041
0.66223
0.683482
0.654313
0.646651
0.568457
0.620755
0.693412
0.659161
0.696713
0.553934
0.51783
0.527817
0.805672
0.813232
0.743753
0.735039
0.579295
0.914691
0.540739
0.858293
0.530727
0.885352
0.824006
0.558675
0.526389
0.525396
0.822023
0.848513
0.783973
0.753182
0.580822
0.569636
0.563462
0.845025
0.852603
0.858348
0.866454
0.61437
0.881355
0.913318
0.55082
0.856024
0.813371
0.576932
1.23073
1.22523
1.2254
1.36674
1.26354
1.26339
1.22852
1.38919
1.25812
1.24486
1.225
1.225
1.225
1.225
1.04124
0.905081
0.919643
1.03236
1.07201
1.03062
0.957354
1.13784
1.34159
1.15318
1.24161
1.32812
1.36416
1.65789
1.5199
1.28982
1.46878
1.70709
1.29549
1.78805
1.68408
2.03994
1.9431
1.7982
1.72342
2.01902
1.79337
1.92119
1.64422
1.64361
1.80366
1.57599
1.225
1.225
1.225
1.225
1.225
1.225
1.225
1.225
1.225
1.225
1.225
1.225
1.225
1.225
1.225
1.225
1.225
1.52888
1.84795
1.37559
1.225
1.225
1.225
1.225
1.225
1.225
1.225
1.225
1.225
1.225
1.225
1.225
1.225
1.225
1.225
1.225
0.599214
0.595254
0.63037
0.867838
0.88959
0.904642
0.940179
0.650122
0.667481
0.981822
0.69329
0.950684
0.995423
1.02761
0.709488
0.779766
0.87804
0.862114
0.779577
0.778636
0.678112
0.706129
0.934405
0.971763
0.744512
0.712967
1.00951
0.965875
0.966491
0.980227
1.05082
0.93341
0.950943
0.88579
0.871339
0.59086
0.597215
0.60773
0.864109
0.874108
0.842311
0.852054
0.61812
0.65136
0.649377
0.897979
0.951589
0.871988
0.922587
0.838463
0.933994
0.912398
0.871409
0.7983
0.942058
0.968323
1.08083
1.04161
1.14654
0.980048
1.0488
0.956665
0.90609
1.03402
1.04765
1.12701
1.07909
1.08983
1.16369
1.17864
0.692807
0.725945
0.760808
1.01188
1.04486
0.98856
1.03358
1.11938
1.11451
1.26438
1.43258
1.16511
1.32509
1.02972
0.752221
0.865485
0.815705
1.02903
0.988785
1.04262
1.0302
1.29319
1.19671
1.22624
1.60975
1.74652
1.48595
1.60135
1.15772
1.11665
1.1162
1.22261
1.16617
1.2731
1.20926
1.10953
1.15237
1.07663
1.08327
1.16595
1.1797
1.19497
0.751963
0.80356
0.929653
0.835813
0.911382
0.793401
0.722221
1.19123
1.34141
1.24219
1.34893
1.57622
1.39222
1.5184
1.37559
1.43204
1.45968
1.9391
1.77775
1.70999
1.86168
0.840501
0.984495
0.918658
0.975888
1.01177
1.04304
1.09214
1.29226
1.18465
1.08128
1.81385
1.82335
1.65304
1.62414
1.1799
1.28487
1.1048
1.1938
1.1504
1.25359
1.22362
1.02825
0.910078
0.984945
1.01149
0.946309
1.02767
1.08221
0.958678
1.53754
2.37503
1.25642
1.8866
2.02504
1.02444
2.12766
2.20449
2.31013
2.18292
1.50037
1.92544
1.33022
1.55669
2.20207
1.23347
1.89796
2.19118
1.24851
1.55577
1.58102
1.93762
2.17283
1.38616
2.18084
1.29241
1.64139
1.72397
2.14208
1.53692
2.19312
1.70539
2.08681
1.7174
1.69546
2.20818
2.05476
1.95085
2.04776
1.86001
1.71893
1.99881
2.04088
2.05485
2.07922
1.86548
1.92159
2.15638
1.9812
1.81495
1.43231
2.00188
1.66806
2.14909
1.81666
1.47047
1.3108
1.76113
1.26708
1.62518
1.26246
1.5415
1.23188
1.22593
1.35711
1.24189
1.23442
1.28771
1.24178
1.37699
1.29509
2.68043
1.22517
1.225
1.225
1.225
1.225
1.225
1.03802
1.55903
1.4054
1.22568
1.22502
2.18499
1.13457
2.12781
1.8183
2.32164
1.25478
1.23129
1.23279
1.22507
1.22503
1.22506
1.22501
1.22501
1.22501
1.22504
2.27801
1.65028
2.22311
1.50056
1.52152
1.23423
1.3068
1.22569
1.22546
1.22503
1.2264
1.22501
1.2251
1.225
1.22501
1.225
1.225
1.225
1.225
1.225
1.225
1.225
1.225
1.225
1.225
1.225
1.225
1.225
1.225
1.225
1.225
1.225
1.225
1.225
1.225
1.225
1.225
1.225
1.225
1.225
1.225
1.225
1.225
1.225
1.225
1.225
1.225
1.225
1.225
1.225
1.225
1.225
1.225
1.225
1.225
1.225
1.225
1.225
1.225
1.225
1.225
1.225
1.225
1.225
1.225
1.225
1.225
1.225
1.225
1.225
1.225
1.225
1.225
1.225
1.225
1.225
1.225
1.225
1.225
1.225
1.225
1.225
1.225
1.225
1.225
1.225
1.225
1.225
1.225
1.225
1.225
1.225
1.225
1.225
1.225
1.225
1.225
1.225
1.225
1.225
1.225
1.225
1.225
1.225
1.225
1.225
1.225
1.225
1.225
1.225
1.225
1.225
1.225
1.225
1.225
1.225
1.2252
1.225
1.225
1.22543
1.225
1.225
1.225
1.225
1.225
1.225
1.225
1.225
1.225
1.225
1.225
1.225
1.225
1.225
1.225
1.225
1.225
1.225
1.225
1.225
1.225
1.225
1.225
1.225
1.225
1.225
1.225
1.225
1.225
1.225
1.225
1.225
1.225
1.225
1.225
1.225
1.225
1.225
1.225
1.225
1.225
1.225
1.225
1.225
1.225
1.225
1.225
1.225
1.225
1.225
1.225
1.225
1.225
1.225
1.225
1.225
1.225
1.225
1.225
0.684036
0.720783
0.731346
0.582714
0.59295
0.678109
0.68511
1.37511
1.42227
1.32995
1.96669
2.06796
2.04784
1.95836
0.982449
1.1362
1.06023
1.07691
1.13549
1.15685
1.2132
0.759251
0.868357
0.797853
0.925663
0.920569
0.787696
0.74316
1.37413
1.5908
1.4032
1.23968
1.36777
1.37396
1.56359
1.48477
1.96562
1.7972
1.4658
1.48428
1.77252
1.94714
0.71617
0.751166
0.799873
0.612492
0.699238
0.659195
0.739764
0.916818
1.06505
1.12463
0.983126
1.49126
1.6938
1.48261
1.34937
2.10495
2.08225
1.42815
1.35728
2.06451
2.07255
1.00138
1.05072
1.06766
1.10667
1.06481
1.18435
1.12437
1.21575
1.2687
1.66641
1.86094
1.96833
1.24928
1.77911
0.853009
0.884008
1.00266
0.744255
0.816876
0.931294
0.871691
1.12106
1.27536
1.20789
1.28172
1.37133
1.19269
1.28001
1.13639
1.14068
1.28768
1.07149
1.23815
1.03396
1.23676
1.22502
1.2282
1.225
1.225
1.225
1.225
1.225
1.225
1.225
1.225
1.225
1.225
1.225
1.225
1.225
1.225
1.225
1.225
1.225
1.225
1.225
1.225
1.225
1.225
1.225
1.225
1.225
1.225
1.225
1.225
1.225
1.225
1.225
1.225
1.06324
1.15113
0.686839
0.717848
1.08599
1.45368
0.84347
1.06166
1.43121
0.84185
1.09657
1.09391
1.08405
1.46734
0.911329
1.4352
0.859103
1.12566
0.934062
1.72043
2.09258
1.50704
1.52922
1.82993
1.62936
1.70748
2.01864
0.892699
2.23858
1.00945
2.09623
1.01017
2.20012
1.73548
1.62178
1.99568
1.30657
1.90494
1.32974
1.98196
2.10748
1.44338
2.35891
1.2964
2.00588
1.26044
1.73883
1.23007
1.26535
2.57879
1.24284
1.81501
1.23311
1.25723
1.22779
1.65331
1.22872
1.22543
1.22541
2.10495
1.96076
2.04977
1.52888
1.92664
2.03922
2.13488
2.01449
1.69859
2.14953
1.81205
1.68852
2.13154
2.03213
2.05574
1.55269
1.84885
2.04844
1.88714
2.03722
2.0047
1.9774
1.77045
1.61715
2.05927
1.66121
2.09855
1.93354
1.93832
1.80998
2.05383
1.8389
1.96067
1.79628
2.05253
1.83435
1.55311
2.01092
1.51515
1.88728
1.46584
1.94691
1.92989
1.92804
1.87422
2.00922
1.82484
2.04579
1.89655
1.74711
1.39926
1.29051
1.67512
1.36643
1.84295
1.59916
1.64232
1.89006
1.90286
1.94628
1.79678
1.83759
1.72686
1.32574
1.25442
1.47882
1.24154
1.43173
1.2396
1.34605
1.50547
1.83781
1.64626
1.44335
1.73632
1.55967
1.41313
1.27932
1.2338
1.22993
1.2606
1.23319
1.28666
1.25757
1.3046
1.57504
1.3645
1.573
1.34816
1.51344
1.31031
1.22519
1.22535
1.22645
1.22725
1.55262
1.28796
1.22513
1.85522
2.0532
1.29133
1.50494
1.499
1.38834
1.46966
1.28955
1.36503
1.22607
1.28162
1.25421
1.4096
1.89735
1.82649
1.71227
2.02223
1.72926
1.95678
1.92214
1.22813
1.32833
1.22732
1.22893
1.62373
1.95288
1.23963
1.22828
1.24632
1.22806
1.24532
1.22908
1.23885
1.25278
1.23957
1.33471
1.35036
1.24527
1.24779
1.34219
1.31499
1.90561
1.7442
1.66392
1.84481
1.72634
1.93829
1.88148
1.2256
1.22791
2.33297
1.52643
1.225
1.225
1.225
1.225
1.22501
1.22501
1.225
1.225
1.22501
1.225
0.67432
0.800637
0.792122
0.585535
0.596428
0.696191
0.703287
2.00081
1.31047
1.33613
1.35323
1.95377
1.79437
1.82373
1.55384
1.4282
1.49371
1.39919
1.4721
1.49406
1.74468
0.881452
1.02903
1.02198
0.867006
1.01755
1.21283
1.31182
0.799476
0.838968
0.854677
0.936282
0.953026
0.916292
0.899863
1.19187
1.32161
1.42562
1.50369
1.26771
1.63553
1.59341
0.987684
1.11748
1.08368
1.16002
1.12837
1.31381
1.24437