/*--------------------------------*- C++ -*----------------------------------*\
  =========                 |
  \\      /  F ield         | OpenFOAM: The Open Source CFD Toolbox
   \\    /   O peration     | Website:  https://openfoam.org
    \\  /    A nd           | Version:  9
     \\/     M anipulation  |
\*---------------------------------------------------------------------------*/
FoamFile
{
    format      ascii;
    class       volScalarField;
    location    "0.0021";
    object      rho.air;
}
// * * * * * * * * * * * * * * * * * * * * * * * * * * * * * * * * * * * * * //

dimensions      [1 -3 0 0 0 0 0];

internalField   nonuniform List<scalar> 
17195
(
1.04367
1.18209
1.0504
0.860685
0.849534
1.55062
1.4759
1.38717
1.59462
1.37114
1.22894
1.22504
1.23579
1.63273
1.19195
1.67259
1.71876
1.75706
1.92285
1.8637
1.73292
1.85955
1.91814
1.61029
2.15858
2.2385
1.15084
1.47874
0.919111
1.38576
1.09219
1.47362
1.04047
1.1352
1.5243
1.48833
1.23879
1.45981
1.15069
1.05937
1.06197
1.56397
1.29105
1.77103
1.0237
1.63095
1.31841
1.12994
1.77987
1.6452
1.37526
1.65691
1.3391
1.19509
1.33466
1.62421
1.42817
1.72615
1.25656
1.61987
1.51212
1.46845
1.73913
1.70764
1.88338
1.64292
1.65106
1.64633
2.34633
2.12997
2.49646
2.10672
1.98203
2.22739
2.26662
1.95491
2.09562
2.39621
0.639203
0.228879
0.95046
0.354532
1.77328
1.0767
1.92816
1.99844
2.37384
1.50667
0.219554
0.485176
0.720218
0.27166
0.668384
0.70209
0.296524
0.763855
0.323649
0.880096
1.29899
0.656951
1.77668
1.03756
0.767738
1.72197
0.885937
2.53566
1.98785
1.86786
2.30031
2.64551
1.99706
1.79355
1.3043
1.27439
2.00292
1.50914
1.46032
2.06868
1.25194
1.28097
1.49473
1.22888
0.530894
0.355567
0.359636
0.237026
0.366572
0.369589
0.516386
0.990022
0.542895
0.556283
0.440588
0.784433
0.675576
0.712749
2.42893
1.58249
1.69147
1.46071
2.15279
2.02929
2.04434
1.38489
2.22629
1.66883
1.88938
1.62765
1.9452
1.44393
2.23348
2.06543
2.62038
2.26779
1.56371
1.67424
1.22703
2.22589
1.34466
0.467319
0.533573
0.311337
0.226438
0.539991
0.321278
0.45766
0.490145
0.239884
0.60835
0.391134
0.560615
0.342384
0.5403
0.567076
0.255689
0.451542
0.456255
0.392457
0.395832
0.65033
0.759425
0.690534
0.470727
0.397476
0.628471
0.806296
0.586169
0.93291
0.501629
1.14693
0.96759
0.955946
0.746618
1.15059
1.29828
0.568867
1.15728
1.28646
0.867544
0.9518
1.71153
1.7929
1.40633
1.28615
1.21091
1.43673
1.74005
1.7141
2.11153
1.57742
2.34749
2.32076
2.07278
2.1234
2.32626
2.38063
1.8036
2.38473
1.95588
2.33068
2.14258
2.03877
2.18198
1.44804
2.15966
1.21498
2.3877
1.29525
2.03406
3.69319
3.32273
3.72566
3.36384
2.09555
1.20764
1.29714
2.02486
1.25422
1.99618
2.09476
3.66376
3.38625
3.39191
3.61633
2.4122
2.50821
2.345
2.06135
2.39322
2.59699
2.29287
2.40439
2.09817
2.68749
1.92921
2.66998
2.17832
2.31718
1.27954
1.71123
1.38058
1.25759
1.63602
1.31707
1.24083
2.69453
2.13371
1.86647
2.79028
2.08563
2.49653
2.38526
1.22883
1.22502
1.22659
1.5706
1.22537
1.22651
1.22501
2.08335
1.95028
2.46106
1.52351
1.51544
2.15007
1.29013
1.225
2.20782
1.22506
0.577555
0.67365
0.773744
1.00346
0.997777
0.786931
0.77319
0.928022
0.766155
1.00867
1.3534
2.12927
1.36957
1.15546
2.11605
2.14315
0.711131
0.599349
0.609784
0.583403
0.594276
0.613232
0.717221
0.725372
0.607946
0.654942
0.69526
0.60673
0.636796
0.773798
0.896016
0.726783
0.790772
0.882135
0.845043
0.783413
0.896889
0.891104
0.962711
0.713574
1.0464
0.784623
0.986786
0.823278
0.654786
0.600598
1.05759
0.937776
0.721525
0.51381
1.01833
0.63691
0.851854
0.463041
0.941968
0.469709
0.962975
0.665056
0.80053
0.487932
0.966437
0.780264
0.722711
0.533853
1.04107
0.927624
0.847918
0.730053
1.4303
0.601494
1.18601
1.11165
0.698757
0.587464
0.858173
0.770503
0.665397
0.626672
0.838289
0.726901
0.812248
0.769641
0.952476
0.672322
0.856843
0.801222
1.8276
1.08694
1.85346
1.77768
1.52955
1.4305
2.2129
0.953626
1.13349
1.49799
0.951157
1.22848
1.19151
1.43842
2.48945
1.23785
1.2367
2.28332
2.41668
2.52628
2.52798
1.76714
1.22515
1.86788
1.22503
1.30655
1.225
1.22563
1.225
1.34788
1.225
1.225
1.225
1.41612
1.93908
1.65608
2.01778
1.37482
1.23108
1.36988
1.22895
1.83767
2.27
2.0285
1.80196
1.35364
1.22627
1.79675
1.53057
1.24642
1.23613
1.23246
1.22574
1.22524
1.22505
1.45269
1.22513
1.22874
1.22502
2.21785
1.24164
1.33815
1.84558
2.20328
1.23565
1.29122
2.05932
1.22842
1.24162
1.47874
1.29087
1.23145
1.22668
1.22746
1.22557
1.22501
1.22684
1.22509
1.22503
1.225
1.22501
1.225
1.225
1.22502
1.225
1.225
1.225
1.22522
1.22507
1.22501
1.22506
1.22501
0.921273
0.751853
1.51313
1.44035
0.76465
1.53591
0.901492
0.985642
1.51714
0.942555
1.7555
0.821188
1.61251
1.12262
1.25707
1.26757
1.41142
1.371
1.26449
1.39792
1.26041
1.25106
1.37158
1.25385
1.34003
1.26024
1.37372
1.24359
1.59995
1.11226
1.9386
2.00176
1.32899
1.35327
2.11809
1.93962
2.08389
1.99315
2.1792
1.67634
2.22404
2.25
1.23069
1.24572
1.30143
1.3209
1.23627
1.23747
1.26693
2.18856
2.15222
1.8723
1.47498
2.36711
2.04656
1.4561
1.72354
1.29432
1.42493
1.24019
1.72152
1.28105
1.38103
1.24192
1.29561
1.22979
1.22769
1.27409
1.25233
1.22657
1.23034
1.22588
1.22799
1.22512
1.23483
1.22547
1.22643
1.24326
1.57498
1.24873
1.32561
1.269
1.42367
1.23402
1.2264
1.22688
1.22525
1.22505
1.22859
1.2257
1.2251
1.945
1.75053
1.77645
1.95852
1.72904
1.93846
1.95666
2.08397
1.50794
1.83326
2.0474
1.38282
1.47563
1.66711
1.31059
1.23217
1.24771
1.24567
1.22688
1.22668
1.2322
1.22541
1.22505
1.22521
1.22513
1.22502
1.22501
1.22503
1.2589
1.23603
1.2547
1.22825
1.22764
1.22564
1.23185
1.225
1.225
1.225
1.225
1.225
1.225
1.225
1.22503
1.225
1.225
1.225
1.80569
2.05356
1.61725
1.99835
1.6886
1.89904
1.81595
1.69268
1.5364
1.24958
1.85456
1.29318
1.31858
1.25354
1.23107
1.22631
1.22515
1.22989
1.22549
1.22539
1.2251
1.22506
1.22501
1.225
1.22504
1.225
1.225
1.225
1.22589
1.22502
1.22502
1.22529
1.22522
1.22506
1.22501
1.2258
1.22501
1.22501
1.22509
1.22545
1.22501
1.225
1.22509
1.225
1.225
1.22501
1.22501
1.225
1.225
1.225
1.225
1.225
1.225
1.225
1.225
1.225
1.225
1.225
1.225
1.225
1.225
1.225
1.225
1.225
1.225
1.225
1.225
1.225
1.22565
1.22529
1.26821
1.22501
1.22728
1.28859
1.2251
1.22502
1.22536
1.22501
1.23178
2.24871
2.40182
2.57889
1.73309
1.25492
1.22504
1.225
1.225
1.225
1.22503
1.225
1.23565
1.25844
1.22501
1.61051
1.23064
1.24383
1.22501
1.22601
1.22903
1.22501
1.23256
1.22507
1.22533
1.225
1.22501
1.225
1.225
1.22502
1.225
1.225
1.225
1.225
1.225
1.225
1.225
1.225
1.225
1.225
1.225
1.22501
1.22501
1.225
1.225
1.225
1.225
1.225
1.225
1.225
1.225
1.225
1.225
1.225
1.225
1.225
1.225
1.225
1.225
1.225
1.225
1.225
1.225
1.225
1.225
1.225
1.225
1.225
1.225
1.225
1.225
1.225
1.225
1.225
1.225
1.225
0.639884
0.557125
0.577454
0.523255
0.544055
0.626374
0.58007
0.590933
0.616441
1.225
1.225
1.225
1.225
1.225
1.225
1.225
1.225
1.225
1.225
1.225
1.225
1.225
1.225
1.225
1.225
1.33008
1.22501
1.225
1.2253
1.28518
1.22501
1.23344
1.22503
1.225
1.225
1.225
0.868932
0.922886
1.8928
2.63251
2.94041
1.82658
1.22865
1.22517
1.22501
1.225
2.15852
2.42951
1.70018
2.03057
2.35465
2.08698
2.41326
2.34719
2.14734
0.896961
1.08129
1.27124
2.18039
0.976811
2.47962
1.68957
1.31729
1.36399
1.53734
1.41028
1.59727
1.6289
1.69548
1.37412
1.41944
1.63529
2.05753
1.85103
2.27907
2.40832
1.92922
1.97647
2.51824
2.073
2.46422
1.99114
2.58032
3.75777
2.60635
2.945
2.67092
3.09348
2.84893
3.54453
4.26726
3.10518
3.28259
3.98299
0.826441
1.20531
2.29124
2.03075
2.0707
0.674355
1.01906
0.794039
0.919127
2.03537
1.44063
1.54885
2.28592
1.43486
1.59769
0.917316
0.78498
0.965693
0.84509
0.801767
0.987016
0.898956
1.41469
1.12177
1.29125
1.45033
1.19429
1.34274
1.53476
2.84439
2.06652
2.72166
2.42171
2.45117
2.144
3.21927
2.46461
1.71803
3.22639
1.75838
2.76777
1.49709
2.82592
2.73299
1.62944
0.832285
0.730802
0.722773
0.686948
0.745424
0.737394
0.815604
0.933254
0.988593
1.00965
0.914646
0.832421
0.716459
0.730553
0.816204
0.955359
0.89923
0.954605
1.12521
0.848129
1.0292
1.04326
0.866314
0.718147
0.873836
0.834451
0.783352
0.766841
0.944807
0.97088
1.14376
1.05159
1.05546
0.865661
0.824613
0.759884
0.940473
1.26991
1.01902
0.949436
1.08682
1.07841
1.21188
1.1127
1.41627
1.30195
1.20019
1.5421
1.25498
0.935182
1.06859
1.09171
1.70045
1.73789
1.86039
2.24381
1.60035
1.85302
2.04356
1.51283
1.27304
1.64716
1.55241
1.43401
1.31666
1.79781
1.70606
2.29531
1.86807
2.07718
1.49989
1.54553
1.29185
1.81089
2.43526
1.79322
1.83018
1.57171
2.12897
1.82723
2.10118
3.18753
2.85808
2.55824
3.60435
2.77213
1.89212
2.22334
2.35577
3.00928
2.41214
1.95986
3.45586
2.1082
3.46191
2.97834
2.56859
1.5357
1.64474
2.2466
1.78199
2.23492
2.54495
3.81142
4.7964
4.3652
4.16513
3.30611
3.16503
2.82595
3.63272
4.13253
4.86522
4.23354
4.67662
2.30558
1.61016
1.41342
2.4899
1.40023
2.57734
2.26459
4.03153
4.2565
4.45306
3.93474
2.26406
3.17712
2.3141
2.2319
2.98055
2.22512
2.6304
0.0892021
0.12312
0.213395
0.336031
0.436491
0.575298
0.385302
0.83003
0.981162
0.878883
1.11243
1.0113
1.02947
0.132371
0.261503
0.57408
0.17158
0.695
0.820972
1.10856
1.09434
0.816694
0.287859
0.361629
0.366717
0.28145
0.306633
0.440196
0.387109
0.352838
0.482452
0.504604
0.420923
0.545321
0.505781
0.547063
0.529457
0.400965
0.448088
0.567847
0.582126
0.449469
0.57729
0.39494
0.4317
0.613393
0.54308
0.71482
0.473185
0.615259
0.515853
0.752023
0.642995
0.866442
0.963165
0.638512
0.727618
1.04106
0.815511
1.06902
0.748794
1.25701
0.764367
1.18495
0.823724
0.705597
0.688136
1.2614
1.02107
0.780418
0.61867
1.19917
0.656436
0.913378
0.563885
0.928524
0.57214
1.06301
0.643604
1.22501
1.225
1.225
1.225
1.225
1.22501
1.22501
1.225
1.225
1.225
1.225
1.225
1.225
1.225
1.225
1.225
1.225
1.225
0.713286
0.901606
0.447297
2.17766
1.23409
1.22501
1.225
1.225
1.225
0.978144
1.33705
0.669261
1.99834
1.22862
1.225
1.225
1.225
1.225
2.47032
2.61659
1.95851
1.24862
1.22509
1.225
1.225
1.225
1.225
2.47452
2.68637
1.80874
1.22502
1.225
1.225
1.225
1.225
1.225
1.22991
2.87322
1.22535
1.32946
1.225
1.225
1.225
1.225
1.225
1.41944
1.225
1.22502
1.225
1.225
0.343294
0.58111
0.446156
0.382512
0.886186
0.384276
0.770576
1.10674
0.416437
0.855602
1.12929
1.06835
1.38281
0.499587
1.50358
1.2775
1.26794
1.22637
2.14846
1.26394
1.25686
1.22556
1.22512
1.22518
1.22502
1.23041
1.22505
1.22507
1.22501
0.840535
1.23897
1.30291
0.526416
1.39949
2.1891
0.785363
2.28446
1.87893
1.05721
2.3677
1.25496
1.23489
1.2253
1.51858
1.22965
1.22539
1.22502
1.22503
1.22504
1.225
1.22533
1.225
1.22501
1.225
1.26503
1.16181
0.930007
2.49369
1.82555
2.81043
2.75426
2.94461
2.95017
2.6005
2.40198
2.82425
1.37214
1.22638
1.22502
1.22501
1.22563
1.22501
1.225
1.225
1.225
1.225
1.225
1.225
1.225
1.225
1.225
1.36477
0.99686
1.64023
1.23365
2.45328
3.53927
2.37878
2.30021
1.44887
2.35491
2.40622
1.83056
1.22973
1.24614
1.22501
1.225
1.225
1.225
1.225
1.225
1.225
1.225
1.225
1.225
1.225
1.225
1.225
1.225
1.225
1.28454
1.225
1.22501
1.225
1.22513
1.225
1.225
1.60935
1.22502
1.2252
1.22527
1.22786
1.225
1.22502
1.52875
1.26551
2.11045
1.23268
2.72693
1.225
1.2259
1.225
1.225
1.225
0.698127
0.739364
0.720364
2.39683
1.53333
1.65615
0.794367
2.48387
1.65084
0.942703
1.77268
1.03251
2.56392
2.04205
2.7876
1.54788
2.58523
2.53118
2.82501
3.09475
3.06881
1.23936
2.32435
1.33009
2.21206
1.22671
1.29238
1.60311
1.24631
1.23947
1.22501
1.22597
1.22502
1.22531
1.225
1.22501
1.06547
0.895624
1.02479
0.925325
0.917691
1.04848
1.04074
0.463341
0.333099
0.345889
0.290143
0.190659
0.198186
0.280262
1.22555
1.22609
1.23079
1.23333
1.22598
1.23023
1.22562
1.7047
1.34157
1.39253
1.61439
1.42021
1.62548
1.66781
0.51367
0.822592
0.631625
0.53924
0.302857
0.434351
0.379525
1.22507
1.22534
1.22677
1.22706
1.22516
1.22517
1.22589
3.86028
2.66042
3.10255
2.89398
3.1592
2.93524
3.78684
2.54316
1.46545
2.12023
1.95209
0.973663
1.40334
1.47495
1.225
1.22501
1.22503
1.22502
1.225
1.225
1.22501
4.07547
2.74802
4.5522
2.37446
4.54679
2.42655
4.1003
1.28693
2.66123
1.62207
1.33369
2.46565
1.69295
1.9676
1.225
1.225
1.225
1.225
1.225
1.225
1.225
1.22504
2.52694
1.22929
2.94467
1.90029
2.23222
1.22669
2.30745
2.12755
2.77578
2.52272
2.67173
1.22849
1.52949
1.2293
1.40841
1.23197
1.25474
1.23896
1.28454
1.22699
1.225
1.225
1.225
1.225
1.225
1.225
1.225
1.225
1.225
1.225
1.225
1.225
1.225
1.225
0.951406
0.855369
0.987985
0.91094
0.880001
1.00968
0.930743
0.394615
0.597054
0.612777
0.698394
0.291742
0.29796
0.685969
0.925419
0.966057
0.988495
0.90605
0.999415
0.978466
1.05811
1.15837
0.942429
1.05891
1.09183
0.64624
0.458482
0.709792
0.72214
0.337302
0.310444
0.777415
0.974483
1.12808
1.03617
1.05716
1.06252
0.876959
1.00917
0.874863
0.897237
1.03435
1.03675
1.08108
1.02625
1.04971
1.05642
1.08489
1.03463
1.05755
1.06104
1.11821
0.994774
1.12785
1.20785
0.988088
1.10109
1.22828
1.11277
0.93666
1.10479
1.1841
0.965358
1.08068
1.2212
1.13371
1.20179
1.10073
1.23838
1.1355
1.2033
1.10436
1.23855
1.4143
0.757438
0.780744
0.578802
1.22233
1.25163
0.560324
0.375606
0.56649
0.430486
0.315257
0.25006
0.216007
0.362482
0.840678
1.66216
0.954495
0.629625
1.49611
1.34076
0.7253
1.46831
1.39236
1.27072
1.2742
1.39024
1.26685
1.48318
1.44234
1.2703
1.40292
1.25114
1.3962
1.25998
1.40411
1.22506
1.22512
1.22507
1.2251
1.2251
1.22506
1.22507
1.22543
1.23207
1.22556
1.22795
1.22579
1.2292
1.22528
1.22504
1.22508
1.22505
1.22503
1.22508
1.22505
1.22503
1.4815
1.23491
1.3293
1.56414
1.24808
1.47177
1.58422
0.813935
0.630134
0.964727
1.02676
0.381761
0.875092
0.44876
1.40237
1.28735
1.19459
1.53226
1.79361
1.87133
2.04796
2.36783
1.75204
1.9292
2.18247
1.16838
1.44409
1.01565
1.23908
0.716758
0.552626
1.53902
1.69478
2.37149
1.88131
2.10301
1.70612
1.37969
1.42364
1.653
2.08162
1.9455
2.3201
2.51178
1.96467
2.03716
2.55997
2.09564
2.56679
2.03696
2.6238
1.13141
2.13115
1.37971
1.07025
1.70339
0.871376
1.94862
0.800725
1.42437
1.05458
0.70223
0.672301
0.493078
0.977797
2.49785
1.70808
2.13706
1.35384
2.28625
2.17294
1.75229
1.30509
1.3976
1.24199
1.24502
1.35566
1.3721
1.23434
1.26429
1.23601
1.27921
1.22646
1.32782
1.22919
1.24031
1.22501
1.22503
1.22501
1.22501
1.22501
1.22501
1.22501
1.22503
1.22594
1.22502
1.22512
1.22507
1.22537
1.22501
1.225
1.225
1.225
1.225
1.225
1.225
1.225
3.19453
2.33455
2.90449
2.7524
2.64895
2.55409
3.52375
2.34711
1.36498
1.92979
2.58786
0.983861
1.97396
1.42878
3.57678
3.08363
2.70239
4.11237
3.68209
2.86147
2.48138
4.30905
2.61357
4.09648
3.86268
3.42392
2.68375
3.25045
3.35369
2.79067
2.09611
4.018
4.71861
6.50518
5.40058
5.73298
4.42078
3.31719
3.3621
4.40765
4.45696
3.01803
2.98772
4.63718
3.04743
4.40946
4.65274
4.26177
2.69781
2.84913
3.96365
2.92213
3.91277
4.39133
5.73562
6.92164
5.77509
6.76204
5.43414
5.53557
4.94595
6.25024
1.90375
2.54866
2.65422
2.37373
2.19464
2.17777
1.82275
2.75099
3.02794
2.45806
2.39145
2.50781
2.07989
2.28787
1.24508
2.23362
1.48269
2.12414
1.25146
1.3898
1.52542
1.226
1.24417
1.22539
1.22531
1.22947
1.22957
1.22508
1.22516
1.22505
1.22512
1.225
1.22582
1.22501
1.22502
1.225
1.225
1.225
1.225
1.225
1.225
1.225
1.225
1.225
1.225
1.225
1.225
1.225
1.225
1.225
1.225
1.225
1.225
1.225
1.225
1.225
3.29698
2.19029
4.20603
2.16858
3.7339
1.94334
3.7713
3.20309
2.77955
3.26354
4.07665
3.03529
4.3242
2.86323
6.02198
7.03491
6.22064
6.8959
2.92269
2.10402
2.08868
3.18127
1.90781
3.34209
2.79937
2.07992
2.63967
2.01402
3.42398
1.80992
2.38745
2.80731
5.22224
5.06242
6.11751
4.22514
3.75622
2.61426
3.75759
2.05342
4.24493
2.3064
3.28044
6.98917
7.45373
7.1943
7.31002
6.22578
5.66066
6.51352
5.3857
3.55722
2.25521
2.33245
3.36061
2.25769
3.58785
3.3132
3.27891
1.86713
2.10184
2.75185
2.11794
2.90824
3.06386
6.20591
5.41575
6.4965
5.33291
5.56787
4.587
4.94688
4.99864
1.22532
1.22747
1.26018
1.2342
1.22902
1.27678
1.22564
1.34505
1.22664
1.23497
1.24855
1.28486
1.48183
1.22948
1.22511
1.22572
1.22505
1.22669
1.22502
1.22511
1.22529
1.225
1.22502
1.225
1.225
1.225
1.225
1.225
1.225
1.225
1.225
1.225
1.225
1.225
1.225
1.225
1.225
1.225
1.225
1.225
1.225
1.225
1.225
1.225
1.225
1.225
1.225
1.225
1.225
1.225
1.225
1.225
1.225
1.225
1.225
1.225
1.22545
1.25409
1.22867
1.24064
1.22673
1.23208
1.226
1.22503
1.2252
1.225
1.225
1.22509
1.22506
1.225
1.23431
1.52432
1.26928
1.425
1.25256
1.3449
1.24186
1.22527
1.22539
1.22505
1.22501
1.22585
1.22512
1.22502
1.22562
1.22827
1.22511
1.22507
1.22683
1.22617
1.22504
1.22601
1.22501
1.225
1.22527
1.225
1.225
1.225
1.225
1.225
1.225
1.225
1.225
1.6571
1.22501
1.225
1.22503
1.225
1.2252
1.22548
1.22513
1.22504
1.22501
1.24961
1.22502
1.22531
1.23262
1.225
1.22514
1.225
1.22516
1.225
1.225
1.22505
1.225
1.225
1.225
1.225
1.225
1.225
1.22529
1.22929
1.22503
1.22948
1.23264
1.22561
1.2259
1.23192
1.22554
1.23001
1.22561
1.22759
1.22514
1.22512
1.22633
1.22633
1.22506
1.225
1.22505
1.225
1.225
1.22502
1.22501
1.225
1.225
1.225
1.225
1.225
1.225
1.225
1.225
1.25016
1.65093
1.28182
1.48627
1.28432
1.49406
1.24839
1.22501
1.225
1.225
1.225
1.225
1.225
1.225
1.2285
1.22571
1.22918
1.22526
1.23072
1.22541
1.22735
1.22524
1.22505
1.22518
1.22501
1.22555
1.22502
1.22507
1.22733
1.28184
1.2272
1.23165
1.231
1.24372
1.22576
1.22505
1.22564
1.22693
1.22703
1.22521
1.22516
1.22549
1.225
1.225
1.225
1.225
1.225
1.225
1.225
1.22501
1.22554
1.22501
1.22504
1.22504
1.22513
1.225
1.225
1.225
1.22501
1.22502
1.225
1.225
1.225
1.225
1.225
1.225
1.225
1.225
1.225
1.225
1.225
1.22501
1.225
1.225
1.225
1.225
1.225
1.22688
1.22949
1.22533
1.22511
1.22985
1.2267
1.22513
3.18622
1.62928
1.42792
2.73845
1.31972
1.88379
2.2648
3.43595
2.28832
1.57941
3.49123
1.80134
2.72512
2.54145
2.20134
3.31834
2.34334
2.34637
3.44647
2.04631
2.79054
2.16454
1.9953
2.01529
1.89915
1.78742
1.80253
1.91645
1.22501
1.22523
1.22516
1.22514
1.225
1.22506
1.225
1.225
1.225
1.225
1.22501
1.225
1.22501
1.225
1.78583
2.28272
2.32585
1.56799
2.00002
1.72031
2.03154
1.22502
1.225
1.22502
1.22503
1.225
1.22501
1.225
1.225
1.225
1.225
1.225
1.225
1.225
1.225
1.22941
1.54688
1.29124
1.22938
1.48376
1.2447
1.28762
1.225
1.225
1.225
1.225
1.225
1.225
1.225
1.225
1.225
1.225
1.225
1.225
1.225
1.225
1.225
1.22501
1.22515
1.225
1.22525
1.22501
1.22504
1.225
1.225
1.225
1.225
1.225
1.225
1.225
1.225
1.225
1.225
1.225
1.225
1.225
1.225
1.22778
1.22503
1.22521
1.22512
1.23693
1.2258
1.22676
1.225
1.225
1.225
1.225
1.225
1.225
1.225
1.225
1.22529
1.22501
1.23561
1.22513
1.22504
1.225
1.22747
1.22501
1.22599
1.24796
1.22527
1.2251
1.22501
1.225
1.225
1.225
1.22501
1.225
1.225
1.225
1.225
1.225
1.225
1.22502
1.225
1.225
1.225
2.07987
2.11014
2.18273
1.87308
1.93116
1.85358
1.82183
1.31878
2.26617
1.98681
1.40156
1.77908
1.98216
1.29123
1.22508
1.23526
1.2263
1.22574
1.22675
1.23669
1.22511
1.225
1.225
1.225
1.225
1.225
1.22501
1.225
1.225
1.225
1.22501
1.22501
1.225
1.22505
1.225
1.25389
2.33724
2.28185
2.3918
1.22644
2.25891
1.22574
1.22524
2.01689
1.44279
1.66914
1.22512
1.26308
1.22501
1.225
1.23869
1.22526
1.22597
1.225
1.22501
1.225
1.225
1.225
1.22501
1.225
1.225
1.225
1.225
1.225
1.22501
1.225
1.225
1.225
1.225
1.225
1.225
1.225
1.225
1.225
1.225
1.225
1.225
1.25767
1.5156
1.3823
2.13771
1.24817
1.4735
1.2699
1.225
1.225
1.225
1.225
1.225
1.225
1.225
1.225
1.225
1.225
1.225
1.225
1.225
1.225
1.225
1.225
1.22501
1.22501
1.225
1.225
1.225
1.225
1.225
1.22501
1.22507
1.22501
1.22505
1.225
1.225
1.225
1.225
1.22502
1.225
1.22501
1.225
1.225
1.225
1.225
1.225
1.225
1.225
1.225
1.225
1.225
1.225
1.225
1.225
1.225
1.225
1.225
1.225
1.22502
1.22502
1.225
1.22501
1.225
1.225
1.225
1.225
1.22501
1.225
1.225
1.225
1.22501
1.225
1.225
1.225
0.144297
0.435056
0.697629
1.06791
1.15732
1.95268
0.278567
0.620705
0.660318
0.435933
0.700084
0.918406
0.140765
0.751607
0.82521
1.13378
0.958673
1.00851
1.81445
0.582528
1.01579
0.844879
1.91098
1.17552
0.759913
1.65262
0.841623
0.615734
1.30191
0.873434
1.58149
1.09007
1.85105
0.712763
0.936715
1.22582
0.66714
0.735272
0.734586
0.796524
0.943004
1.12536
1.20814
1.77312
0.957454
1.04108
2.14101
2.24498
1.30765
1.59873
2.06123
1.53053
0.262013
0.211052
0.226851
0.38769
0.305405
0.328235
0.364452
0.643187
0.491817
0.515706
0.44193
0.607929
0.632092
0.417073
0.330396
0.276653
0.378002
0.454465
0.525979
0.39478
0.585712
0.575647
0.684395
0.80196
0.504691
0.811571
0.694602
0.622122
0.58982
0.672486
0.523024
0.931744
0.70017
0.763993
0.855545
0.955588
0.945051
1.12116
0.913224
0.979734
0.772234
1.18497
0.874915
0.872563
0.790398
1.04626
1.0039
0.951025
1.10947
0.956747
1.30304
1.43442
0.986611
1.53536
1.3901
0.972718
1.0986
1.02644
0.939936
1.19269
1.05537
1.15123
1.11691
0.769674
1.46592
1.40815
0.802728
1.5846
0.899033
1.51523
1.09763
1.24612
1.18131
1.23773
1.24801
1.18298
1.2897
0.801798
1.28934
1.23001
0.761913
1.21706
1.35338
0.764291
1.25074
1.3112
1.2979
1.38197
1.32287
1.34564
1.38287
0.956923
1.25829
1.35199
0.824832
1.15397
0.78816
1.16594
1.29955
1.51045
1.77017
0.901296
1.50547
1.27304
1.05362
0.687166
0.641358
0.661077
0.713769
0.810929
0.82886
1.07248
0.967272
1.14358
1.07743
1.33556
1.48697
0.931028
1.52186
1.46943
1.18879
1.47593
1.56585
1.43803
1.69113
1.81327
1.74605
1.92465
2.0039
1.72359
1.57025
2.42617
0.485583
0.449184
0.653808
0.687589
0.47558
0.679527
0.460392
0.557499
0.767343
0.709007
0.891323
0.555092
0.752956
0.697981
1.08443
0.923184
1.0887
1.38716
0.891107
1.14355
1.32104
1.20499
1.63081
1.3302
1.70054
1.29183
1.54261
1.22247
1.14005
1.30093
1.7706
1.89339
1.17979
1.27321
1.73998
1.14421
1.77746
1.30242
1.49333
1.26977
1.61033
1.17511
1.24878
1.35408
1.4139
1.56873
1.21518
1.41253
1.4038
1.32552
1.66012
1.6454
1.66336
1.51284
1.49052
1.22508
1.22884
1.225
1.225
1.225
1.225
1.225
1.225
1.225
1.225
1.225
1.225
1.225
1.225
1.225
1.225
1.225
1.225
1.225
1.225
1.225
1.225
1.225
1.225
1.225
1.225
1.225
1.225
1.225
1.225
1.225
1.225
1.225
1.225
1.225
1.225
1.225
1.225
1.225
1.225
1.225
1.225
1.225
1.225
1.225
1.225
1.225
1.225
1.225
1.225
1.225
1.225
1.225
1.225
1.225
1.225
1.225
1.225
1.225
1.225
1.225
1.225
1.225
1.225
1.225
1.225
1.225
1.225
1.225
1.225
1.225
1.225
1.225
1.225
1.225
1.225
1.225
1.225
1.225
1.225
1.225
1.225
1.225
1.225
1.225
1.225
1.225
1.225
1.225
1.225
1.225
1.225
1.225
1.225
1.225
1.225
1.225
1.225
1.225
1.225
1.225
1.225
1.225
1.225
1.225
1.225
1.225
1.22528
1.75292
1.2295
1.3871
1.25454
1.59517
1.86357
2.20564
2.62106
2.44501
1.54371
2.87639
1.24038
1.53058
2.05449
1.05543
1.51269
1.74173
1.20547
1.34169
1.40238
1.34957
1.45466
1.52723
1.448
1.52981
1.76988
1.53806
2.10546
2.82345
1.87254
1.22501
1.22751
2.55666
1.26332
1.71666
1.22536
1.4418
1.43698
1.32018
1.5317
1.75102
1.6216
1.47068
1.84512
2.31784
2.1889
2.39436
2.11197
1.98666
1.53176
2.39852
2.09093
1.83342
2.01553
2.69654
1.65301
2.21637
2.48508
2.15851
1.2937
1.3287
2.35792
2.11277
1.99747
1.85002
1.22508
1.71859
2.39558
0.395561
0.192149
0.213417
0.25282
0.355303
0.372754
0.431022
0.566099
0.486731
0.200538
0.235596
0.240974
0.250855
0.230277
0.270731
0.292481
0.312781
0.279673
0.35006
0.339082
0.310629
0.527492
0.499809
0.43587
0.403759
0.394687
0.506702
0.513665
0.494988
0.516745
0.50615
0.456928
0.470517
0.529704
0.549128
0.556353
0.127009
0.160604
0.168124
0.19385
0.201814
0.233774
0.226796
0.213246
0.469748
0.26762
0.473663
0.227718
0.378806
0.390838
0.144717
0.179331
0.197537
0.228103
0.288818
0.308385
0.255396
0.0964021
0.105028
0.0989614
0.172069
0.182191
0.16474
0.176944
0.308192
0.531462
0.521901
0.306
0.512684
0.51289
0.347081
1.23073
1.22523
1.2254
1.36673
1.26354
1.26339
1.22852
1.38918
1.25812
1.24486
1.225
1.225
1.225
1.225
0.947168
0.812855
0.830355
0.93426
0.991239
0.971317
0.878853
1.07979
1.32469
1.11542
1.20752
1.30655
1.35674
1.65178
1.50818
1.2867
1.4677
1.70394
1.2939
1.7862
1.68322
2.03907
1.94182
1.79758
1.72321
2.0185
1.79299
1.92092
1.64411
1.64355
1.80353
1.57593
1.225
1.225
1.225
1.225
1.225
1.225
1.225
1.225
1.225
1.225
1.225
1.225
1.225
1.225
1.225
1.225
1.225
1.52885
1.84787
1.37558
1.225
1.225
1.225
1.225
1.225
1.225
1.225
1.225
1.225
1.225
1.225
1.225
1.225
1.225
1.225
1.225
0.159851
0.118697
0.16677
0.215791
0.217796
0.286944
0.310639
0.276872
0.243458
0.513922
0.331878
0.397502
0.45619
0.603369
0.408084
0.46207
0.560078
0.53866
0.512481
0.525957
0.444446
0.386785
0.586403
0.578052
0.459601
0.405375
0.674201
0.678525
0.327696
0.338976
0.590309
0.569918
0.582962
0.36072
0.351963
0.098419
0.108459
0.158415
0.182527
0.199598
0.238989
0.261213
0.20377
0.299064
0.213809
0.25462
0.377332
0.328568
0.467291
0.490725
0.610378
0.588461
0.567149
0.510797
0.676582
0.703295
0.650817
0.49519
0.790038
0.633463
0.755543
0.497782
0.39906
0.315086
0.329193
0.597587
0.314705
0.332151
0.591837
0.611065
0.325475
0.439493
0.568621
0.555743
0.716606
0.65503
0.812486
0.784833
0.658374
0.992184
1.2172
0.935472
1.13708
0.640461
0.522723
0.737162
0.668199
0.787269
0.790709
0.889268
0.909297
0.944485
0.879867
0.90936
1.41569
1.54779
1.30903
1.41651
0.665571
0.39716
0.506043
0.818604
0.542477
0.85405
0.688296
0.366176
0.649222
0.401813
0.428603
0.676207
0.618092
0.642219
0.534985
0.597015
0.653043
0.511496
0.599439
0.554682
0.488423
0.694243
1.03996
0.75736
0.986009
1.35739
1.08968
1.2901
1.03462
1.14035
1.19493
1.77394
1.60096
1.51551
1.67054
0.637128
0.861709
0.796216
0.796065
0.834638
0.935576
0.989162
0.949687
0.876127
0.799961
1.57626
1.60627
1.45211
1.40872
0.610462
0.897026
0.514322
0.760731
0.679765
0.922744
0.726932
0.726652
0.547385
0.658331
0.70073
0.62766
0.758051
0.829484
0.914761
1.5258
2.37433
1.25641
1.87274
2.01679
0.986164
2.12276
2.20373
2.30767
2.18244
1.50034
1.9253
1.33021
1.52405
2.19337
1.19128
1.88465
2.1829
1.20787
1.52156
1.55341
1.92619
2.16807
1.36049
2.1739
1.2572
1.62215
1.71909
2.13949
1.52152
2.19056
1.69476
2.08556
1.7093
1.69337
2.20686
2.05429
1.9488
2.04709
1.85596
1.71788
1.99824
2.04055
2.05363
2.07896
1.86475
1.92141
2.15556
1.98082
1.81483
1.43228
2.00161
1.66799
2.14857
1.81646
1.47044
1.31079
1.76102
1.26707
1.6251
1.26246
1.54146
1.23188
1.22593
1.35709
1.24189
1.23442
1.28771
1.24178
1.37697
1.29508
2.67852
1.22517
1.225
1.225
1.225
1.225
1.225
1.02762
1.55225
1.40536
1.22568
1.22502
2.18347
1.1245
2.12655
1.81793
2.31725
1.25478
1.23129
1.23278
1.22507
1.22503
1.22506
1.22501
1.22501
1.22501
1.22504
2.27694
1.6501
2.22224
1.50046
1.52145
1.23423
1.30679
1.22569
1.22546
1.22503
1.2264
1.22501
1.2251
1.225
1.22501
1.225
1.225
1.225
1.225
1.225
1.225
1.225
1.225
1.225
1.225
1.225
1.225
1.225
1.225
1.225
1.225
1.225
1.225
1.225
1.225
1.225
1.225
1.225
1.225
1.225
1.225
1.225
1.225
1.225
1.225
1.225
1.225
1.225
1.225
1.225
1.225
1.225
1.225
1.225
1.225
1.225
1.225
1.225
1.225
1.225
1.225
1.225
1.225
1.225
1.225
1.225
1.225
1.225
1.225
1.225
1.225
1.225
1.225
1.225
1.225
1.225
1.225
1.225
1.225
1.225
1.225
1.225
1.225
1.225
1.225
1.225
1.225
1.225
1.225
1.225
1.225
1.225
1.225
1.225
1.225
1.225
1.225
1.225
1.225
1.225
1.225
1.225
1.225
1.225
1.225
1.225
1.225
1.225
1.225
1.225
1.225
1.225
1.225
1.225
1.225
1.225
1.2252
1.225
1.225
1.22543
1.225
1.225
1.225
1.225
1.225
1.225
1.225
1.225
1.225
1.225
1.225
1.225
1.225
1.225
1.225
1.225
1.225
1.225
1.225
1.225
1.225
1.225
1.225
1.225
1.225
1.225
1.225
1.225
1.225
1.225
1.225
1.225
1.225
1.225
1.225
1.225
1.225
1.225
1.225
1.225
1.225
1.225
1.225
1.225
1.225
1.225
1.225
1.225
1.225
1.225
1.225
1.225
1.225
1.225
1.225
1.225
1.225
1.225
1.225
0.628636
0.622917
0.633104
0.533098
0.543146
0.586545
0.594034
1.05339
1.16888
1.08917
1.74198
1.88602
1.87619
1.75267
0.763906
1.01957
0.936701
0.899011
0.970566
1.05744
1.12444
0.58754
0.715864
0.648632
0.723407
0.802278
0.69972
0.633411
1.07847
1.40233
1.133
0.908179
1.14445
1.14976
1.41186
1.29397
1.83531
1.65071
1.30572
1.35705
1.65839
1.85019
0.663495
0.65837
0.719924
0.564888
0.613647
0.617107
0.66562
0.730569
0.82657
0.829783
0.742624
1.29516
1.45539
1.27516
1.19177
1.97408
1.95326
1.3207
1.26386
1.97388
1.98665
0.818281
0.820868
0.930222
0.934782
0.805196
1.0615
0.927011
0.925516
1.0419
1.46921
1.63176
1.78577
1.05157
1.6215
0.816669
0.820418
0.951245
0.709597
0.75677
0.881489
0.842902
0.943656
1.21181
1.11272
1.19931
1.32686
1.0635
1.2114
1.11151
1.09434
1.24267
1.02685
1.19614
1.00834
1.21262
1.22502
1.2282
1.225
1.225
1.225
1.225
1.225
1.225
1.225
1.225
1.225
1.225
1.225
1.225
1.225
1.225
1.225
1.225
1.225
1.225
1.225
1.225
1.225
1.225
1.225
1.225
1.225
1.225
1.225
1.225
1.225
1.225
1.225
1.225
1.00238
1.1076
0.637676
0.671418
0.925738
1.40834
0.712595
1.00216
1.38676
0.713728
0.93216
0.946121
1.02945
1.43707
0.810485
1.39486
0.739552
1.00642
0.903038
1.71097
2.0901
1.50695
1.5194
1.82915
1.62053
1.70697
2.01701
0.865468
2.23624
0.980801
2.09421
0.992097
2.19805
1.7288
1.62144
1.99278
1.30653
1.90404
1.31357
1.98114
2.10241
1.44323
2.3519
1.29638
2.00334
1.26043
1.73805
1.23007
1.26534
2.57633
1.24283
1.81425
1.23311
1.25723
1.22779
1.65288
1.22872
1.22543
1.22541
2.10364
1.95777
2.04811
1.51882
1.92339
2.03722
2.13364
2.01326
1.69817
2.14733
1.8113
1.68811
2.12932
2.03092
2.05422
1.54266
1.84522
2.04516
1.88339
2.03452
2.003
1.97618
1.76979
1.61683
2.05732
1.66082
2.09637
1.93238
1.9366
1.80724
2.05062
1.83421
1.95893
1.79455
2.04971
1.83353
1.55288
2.00936
1.51495
1.88626
1.4657
1.94573
1.92822
1.92456
1.87262
2.0074
1.82346
2.04342
1.89516
1.74653
1.39917
1.29049
1.67469
1.36636
1.84216
1.59883
1.6418
1.88821
1.90167
1.94428
1.79584
1.83601
1.72621
1.32568
1.25441
1.47862
1.24154
1.43159
1.23959
1.34597
1.50523
1.83648
1.64563
1.44321
1.73524
1.55937
1.41301
1.2793
1.2338
1.22993
1.26059
1.23318
1.28663
1.25756
1.30457
1.57468
1.36444
1.57278
1.34811
1.51324
1.31029
1.22519
1.22535
1.22645
1.22725
1.5525
1.28795
1.22513
1.85488
2.05166
1.29131
1.50483
1.49876
1.38828
1.46954
1.28954
1.36487
1.22607
1.28161
1.25421
1.40957
1.89625
1.82558
1.71203
2.02168
1.7285
1.9555
1.92172
1.22813
1.3283
1.22732
1.22893
1.6236
1.95261
1.23963
1.22827
1.24632
1.22806
1.24532
1.22908
1.23885
1.25277
1.23957
1.33462
1.35032
1.24526
1.24778
1.34207
1.31498
1.90466
1.74367
1.66374
1.84458
1.7257
1.9375
1.88115
1.2256
1.22791
2.33194
1.52639
1.225
1.225
1.225
1.225
1.22501
1.22501
1.225
1.225
1.22501
1.225
0.624926
0.736941
0.727303
0.534732
0.545557
0.609536
0.617604
1.87585
1.18389
1.2531
1.28303
1.8774
1.73418
1.71967
1.5313
1.38286
1.44766
1.35938
1.43516
1.47079
1.72291
0.760371
0.870453
0.936243
0.801301
0.97299
1.15581
1.19268
0.731114
0.708153