/*--------------------------------*- C++ -*----------------------------------*\
  =========                 |
  \\      /  F ield         | OpenFOAM: The Open Source CFD Toolbox
   \\    /   O peration     | Website:  https://openfoam.org
    \\  /    A nd           | Version:  9
     \\/     M anipulation  |
\*---------------------------------------------------------------------------*/
FoamFile
{
    format      ascii;
    class       volVectorField;
    location    "0.0021";
    object      U;
}
// * * * * * * * * * * * * * * * * * * * * * * * * * * * * * * * * * * * * * //

dimensions      [0 1 -1 0 0 0 0];

internalField   nonuniform List<vector> 
17195
(
(75.1833 146.13 44.7816)
(69.557 222.087 94.0078)
(81.694 137.124 49.048)
(72.4748 86.2027 85.5391)
(79.8115 85.713 93.4646)
(93.7942 200.098 39.9075)
(79.7101 175.648 42.7394)
(89.9986 150.702 57.7325)
(81.9697 225.001 31.6163)
(17.8946 33.5184 5.67398)
(0.0966339 0.903747 0.750147)
(0.0010784 0.0049913 0.0111671)
(364.162 -167.805 104.547)
(259.744 -90.7665 110.401)
(435.277 -104.937 122.426)
(374.73 -68.9745 151.967)
(244.169 -59.1347 103.498)
(189.536 -10.975 59.6743)
(305.425 -10.1854 126.578)
(228.669 24.6536 73.9259)
(173.559 -3.56964 51.2401)
(126.425 49.9822 -8.91873)
(175.208 74.8629 62.7662)
(80.6115 52.2506 32.2459)
(116.755 161.008 -31.3344)
(110.634 299.344 94.3499)
(342.528 -128.187 186.353)
(290.439 -94.8924 115.886)
(472.03 -177.4 129.683)
(317.236 -152.963 111.596)
(381.964 -147.211 169.091)
(238.632 -70.8529 106.742)
(418.009 -196.053 156.201)
(282.144 -97.6957 179.917)
(279.999 -124.955 111.816)
(181.092 -16.198 85.5312)
(304.503 -165.767 176.622)
(197.777 -41.0291 91.8011)
(357.407 -191.061 170.221)
(215.107 -51.9386 157.903)
(155.691 29.3258 122.73)
(179.934 -5.04497 82.4293)
(267.318 -117.611 174.156)
(226.228 -36.8015 90.8683)
(171.291 -0.664545 136.03)
(177.105 -1.43132 75.4446)
(244.247 -60.8735 157.334)
(159.282 39.0322 110.892)
(207.564 -21.5947 74.5379)
(152.221 2.42643 51.9392)
(213.885 5.03088 110.022)
(166.782 0.534838 63.9168)
(228.246 -18.6586 132.324)
(163.477 40.5579 98.4451)
(157.202 39.1745 76.3131)
(138.104 3.8486 44.6272)
(201.288 15.5893 92.1099)
(159.486 2.67621 47.6925)
(161.303 39.8224 84.7007)
(125.146 4.75584 38.7876)
(191.867 20.6758 82.9854)
(151.634 43.0696 53.5899)
(142.857 11.7841 33.723)
(107.869 61.8981 -36.3853)
(178.813 66.662 20.7644)
(113.685 10.4548 18.471)
(184.56 29.6975 67.0058)
(149.776 76.6857 -6.96781)
(45.5604 325.104 310.533)
(21.4785 169.17 191.28)
(54.0243 311.071 187.119)
(128.643 255.877 37.7622)
(104.165 191.08 -37.0937)
(167.441 169.787 2.90584)
(96.0059 238.903 11.681)
(132.453 177.206 -10.4019)
(98.7289 264.983 14.5052)
(148.99 247.414 45.5538)
(837.033 -41.5413 45.819)
(443.854 385.124 17.7667)
(668.015 -82.6523 160.59)
(366.59 382.505 62.3622)
(452.502 -78.6018 336.788)
(292.354 398.461 189.487)
(323.438 50.3458 263.334)
(142.38 292.515 134.632)
(176.696 241.162 109.494)
(-9.68722 58.2581 58.6175)
(774.299 360.962 15.0685)
(792.202 242.839 16.1326)
(789.585 -64.7083 110.201)
(698.666 354.977 71.1905)
(471.417 279.496 40.3988)
(305.05 317.415 19.3469)
(394.23 386.352 42.0792)
(310.392 318.806 40.6002)
(638.299 343.908 84.0678)
(548.378 160.366 89.4885)
(538.356 -93.0484 234.422)
(485.161 312.305 165.904)
(456.748 121.987 181.119)
(301.36 292.658 80.9428)
(314.55 385.845 148.413)
(334.02 297.306 151.039)
(454.49 318.955 211.868)
(392.724 130.521 192.211)
(374.502 -2.77123 318.655)
(333.551 349.372 247.677)
(211.511 140.399 100.713)
(290.433 248.716 182.112)
(182.361 353.142 174.182)
(106.834 95.6361 57.0563)
(251.241 87.0891 297.534)
(144.419 251.085 178.608)
(275.229 337.499 204.228)
(57.0731 46.8146 26.2988)
(221.433 114.822 118.593)
(135.061 234.66 123.912)
(5.74106 4.57566 2.96166)
(11.6217 10.3602 5.65215)
(31.7215 82.2122 40.6679)
(0.757826 0.742792 0.41249)
(116.772 266.53 20.9875)
(318.402 388.772 17.3849)
(208.18 227.561 19.9878)
(438.425 391.337 20.451)
(316.57 392.975 19.2329)
(214.507 237.698 20.5678)
(110.4 258.253 19.4726)
(124.372 303.232 101.807)
(268.025 377.442 58.2984)
(193.491 253.73 66.483)
(346.033 381.531 84.3742)
(116.562 283.497 71.8313)
(256.99 369.318 82.7769)
(187.391 272.407 96.4751)
(147.877 346.234 185.8)
(242.184 383.748 197.194)
(148.295 375.361 182.016)
(258.618 411.185 214.321)
(151.186 373.787 194.78)
(237.734 392.821 220.105)
(127.101 350.063 178.318)
(22.0876 41.9549 17.8306)
(143.536 250.593 118.598)
(38.0544 128.629 54.0337)
(103.39 228.944 101.167)
(47.2545 99.0182 43.3587)
(105.063 176.062 80.9031)
(18.4529 66.0309 27.3776)
(67.5434 326.88 236.427)
(99.9413 244.466 128.982)
(-42.5589 315.719 274.168)
(38.0993 221.285 176.127)
(14.931 77.1929 58.7797)
(66.6597 84.5345 49.5002)
(0.275086 0.450348 0.164119)
(82.5491 201.829 115.174)
(16.3138 26.5143 14.401)
(846.709 239.064 35.7846)
(878.413 107.328 15.3106)
(674.953 372.067 15.0034)
(761.72 367.939 31.7899)
(867.148 111.342 40.2747)
(662.621 376.947 28.0586)
(858.918 236.815 15.7331)
(832.427 230.17 67.5411)
(744.455 362.548 61.2468)
(817.687 98.8952 96.3532)
(596.979 363.629 60.9109)
(855.017 107.205 75.8206)
(644.503 370.983 54.6589)
(793.878 212.783 85.0236)
(118.018 268.131 34.1802)
(424.473 389.142 35.0215)
(286.518 383.475 38.242)
(200.137 246.759 41.8814)
(308.736 390.347 32.677)
(212.636 241.165 32.7576)
(114.151 274.341 46.5333)
(661.764 179.995 120.752)
(758.967 90.7208 107.464)
(538.393 350.359 74.3075)
(576.716 330.366 103.452)
(732.68 195.553 98.9603)
(689.367 82.9258 126.146)
(484.252 332.99 95.902)
(598.068 165.472 150.341)
(523.925 317.612 129.128)
(571.936 70.0551 195.407)
(409.618 309.746 161.239)
(623.331 74.847 153.894)
(440.629 317.723 124.02)
(550.122 156.949 189.425)
(133.908 339.573 136.134)
(330.738 383.354 111.259)
(241.972 364.6 153.553)
(170.796 355.35 161.417)
(248.397 361.977 112.93)
(183.149 309.05 129.214)
(141.24 371.641 171.699)
(485.844 162.939 271.685)
(535.222 72.1899 249.134)
(387.769 311.479 205.005)
(422.636 332.388 253.714)
(517.237 155.752 234.672)
(503.586 85.4632 301.56)
(372.091 323.848 242.611)
(448.679 179.579 273.142)
(381.758 344.98 271.151)
(423.011 152.372 302.687)
(310.335 324.132 219.642)
(466.086 117.114 324.135)
(353.159 331.322 249.192)
(399.547 193.854 242.207)
(117.67 282.111 148.442)
(224.05 397.413 208.895)
(184.185 317.432 166.77)
(64.3187 210.606 97.0982)
(223.16 370.103 205.289)
(97.0339 291.896 147.405)
(80.6777 186.592 89.8048)
(153.253 34.7898 276.496)
(195.728 93.7211 330.133)
(278.074 -21.0946 307.145)
(206.977 155.805 230.031)
(192.358 -28.9694 338.462)
(148.837 168.804 253.091)
(234.192 40.8624 251.385)
(163.046 133.955 285.384)
(308.55 91.4932 301.987)
(197.211 87.7767 330.191)
(266.07 133.074 262.125)
(124.936 101.065 241.2)
(172.171 205.568 191.19)
(98.6338 269.05 201.678)
(162.862 169.521 210.733)
(118.543 222.909 210.794)
(197.814 101.13 219.857)
(100.996 175.275 238.924)
(136.543 174.688 264.081)
(201.717 192.824 261.262)
(232.544 166.656 243.003)
(112.902 209.564 288.789)
(296.336 204.37 164.034)
(369.009 182.288 258.979)
(257.921 295.377 174.52)
(225.668 312.42 165.9)
(343.279 203.733 198.29)
(316.67 203.115 213.981)
(213.966 258.823 138.665)
(259.321 197.838 149.307)
(182.191 282.477 144.225)
(246.687 219.398 188.776)
(119.178 147.024 84.2856)
(278.567 214.598 191.331)
(172.179 213.926 113.818)
(212.655 180.665 131.654)
(7.93703 14.5528 6.16918)
(65.5617 157.334 73.3828)
(26.3226 37.8173 20.1786)
(1.98424 9.49141 3.85551)
(65.289 99.8514 48.7914)
(6.69154 27.485 11.5277)
(2.27898 4.12384 1.83419)
(154.915 254.823 247.548)
(63.4307 293.188 168.01)
(65.389 148.435 95.3938)
(88.85 280.252 283.067)
(46.1958 213.161 136.916)
(67.7487 290.78 230.571)
(115.117 251.454 186.569)
(-0.112972 0.82799 0.789204)
(-0.000787673 0.00399226 0.00465694)
(-0.0555195 0.279787 0.374916)
(12.0297 74.0396 63.8498)
(0.00848164 0.0804355 0.0685188)
(0.0513652 0.296597 0.32588)
(-8.00953e-06 0.00152826 0.00140638)
(141.506 150.234 93.5811)
(96.8371 159.119 87.7972)
(184.726 223.304 166.919)
(47.837 58.3058 35.4566)
(39.2784 60.9105 38.4619)
(119.53 182.331 116.938)
(9.87966 14.19 8.0908)
(-6.06316e-07 2.77156e-05 3.31488e-05)
(-27.4893 157.039 213.307)
(-0.000137211 0.00658576 0.0154258)
(637.762 -199.363 10.8595)
(622.699 -231.923 92.7347)
(593.522 -243.062 142.743)
(449.089 -222.129 280.995)
(409.399 -181.946 311.719)
(290.861 85.174 273.565)
(243.934 235.908 262.281)
(145.687 276.696 163.791)
(248.949 144.837 225.184)
(177.258 192.07 119.898)
(139.79 229.572 105.876)
(120.912 290.342 127.637)
(-3.4438 280.474 225.62)
(121.498 280.496 164.079)
(-7.04955 321.964 300.6)
(63.2654 320.237 256.096)
(463.311 -220.127 49.4284)
(451.278 -303.567 9.56297)
(599.01 -102.362 10.7506)
(638.74 -203.052 29.2177)
(462.1 -298.69 33.578)
(599.73 -116.819 32.3554)
(457.888 -219.24 13.4664)
(470.835 -215.795 87.2988)
(637.189 -216.783 57.7455)
(490.074 -276.64 103.858)
(586.013 -170.339 95.978)
(475.533 -291.739 65.8364)
(600.596 -139.918 61.745)
(470.609 -207.441 128.65)
(429.393 -178.835 225.597)
(491.848 -253.628 161.251)
(555.339 -201.214 140.726)
(549.484 -244.546 197.106)
(456.901 -199.719 179.938)
(473.733 -213.308 224.193)
(508.964 -219.96 184.096)
(389.943 -145.198 251.791)
(497.782 -237.887 242.778)
(404.054 -98.9684 297.392)
(399.145 -210.759 244.408)
(438.917 -161.485 273.045)
(453.062 -223.252 217.429)
(339.785 -96.4615 254.584)
(240.121 55.1709 225.724)
(368.941 -14.795 303.831)
(351.12 -173.954 262.994)
(376.275 -110.309 325.728)
(285.064 -26.1822 244.926)
(332.482 90.6863 295.942)
(306.492 -109.73 261.759)
(211.948 107.69 201.869)
(336.786 -11.068 312.127)
(275.741 222.937 246.813)
(228.059 29.9656 193.538)
(300.186 175.407 275.601)
(261.847 -31.6575 233.618)
(192.483 127.667 177.225)
(158.221 125.382 130.893)
(251.327 236.976 217.283)
(204.67 60.307 156.59)
(219.946 166.482 177.462)
(176.336 128.859 152.542)
(228.525 230.698 179.405)
(185.944 71.1961 132.23)
(150.843 125.665 98.1556)
(196.199 177.647 151.621)
(182.74 231.291 109.957)
(185.879 109.717 65.1013)
(206.892 225.471 150.13)
(183.667 82.0672 107.616)
(149.215 139.872 42.719)
(114.714 294.94 237.673)
(202.592 308.526 257.782)
(190.296 241.872 295.769)
(208.175 264.592 204.144)
(154.51 290.646 283.933)
(171.288 305.745 221.096)
(147.001 281.858 229.107)
(84.4459 290.095 194.142)
(175.409 273.405 171.82)
(124.238 286.175 177.856)
(94.5488 300.361 184.422)
(145.746 296.464 183.978)
(115.776 296.593 188.272)
(66.955 282.741 190.986)
(126.041 241.25 71.0244)
(123.146 217.534 94.4867)
(177.8 192.609 51.4952)
(134.076 272.894 140.471)
(116.099 178.026 33.3473)
(95.6125 249.494 114.297)
(168.054 258.099 96.1242)
(101.487 264.495 169.152)
(76.2648 297.169 190.936)
(106.846 294.42 186.599)
(62.5826 271.491 194.892)
(87.9206 273.569 171.632)
(51.1796 280.392 202.005)
(60.9473 304.019 212.478)
(-44.3368 291.675 360.36)
(0.340886 2.53678 2.94426)
(-0.454089 2.05731 2.90054)
(-2.28867 175.701 225.939)
(-0.705299 302.987 347.495)
(-19.1067 316.703 320.021)
(50.1909 317.147 278.063)
(-54.6693 263.343 6.86727)
(-0.00737641 0.0432388 0.000629935)
(-41.2916 221.208 53.3151)
(-0.000692927 0.00816749 0.0013619)
(-0.820801 22.3697 9.2475)
(1.22322e-05 0.000536401 0.000185575)
(-0.00258219 0.172009 0.0498804)
(-1.41078e-06 1.96201e-05 6.30924e-06)
(15.8343 31.527 14.9627)
(6.56583e-05 0.000429462 0.000115965)
(-9.53374e-09 3.07792e-07 5.83124e-08)
(4.99605e-07 4.28879e-06 1.59913e-06)
(32.211 290.809 10.3335)
(175.474 357.838 34.474)
(31.2178 300.837 64.1522)
(178.629 352.912 60.3301)
(-74.0704 91.1777 2.67164)
(-0.909817 1.61217 0.0235643)
(-56.7287 68.167 16.8672)
(-0.5894 1.05509 0.158103)
(32.1975 296.773 83.0938)
(177.459 324.12 102.543)
(20.4476 222.508 91.5931)
(84.6767 125.22 66.3206)
(-44.5119 52.8158 17.1483)
(-0.180093 0.338397 0.0811531)
(13.6042 145.493 64.8406)
(52.1862 63.6779 39.3515)
(0.613092 5.99985 2.1626)
(1.85237 2.50091 1.14719)
(0.209724 2.08883 0.676821)
(0.123173 0.163879 0.0705143)
(0.00583065 0.0656281 0.0230154)
(0.00810058 0.0113583 0.00502789)
(29.18 74.7045 26.9073)
(0.00813092 0.0366342 0.00306593)
(0.140721 0.91529 0.627312)
(0.0005176 0.00622675 0.00351115)
(143.916 309.006 28.8885)
(-1.29308 4.92314 0.071147)
(14.0066 31.1622 0.569732)
(-48.2649 245.576 46.8785)
(138.182 294.085 49.38)
(-0.748258 3.13961 0.444526)
(8.23672 18.4983 3.09544)
(107.715 210.74 64.9597)
(-0.176649 0.977565 0.226523)
(2.0004 4.48954 1.20248)
(-4.39024 65.7775 26.8723)
(9.50846 16.8013 7.44718)
(-0.233454 1.82462 0.559804)
(0.191399 0.429872 0.145452)
(0.314174 0.600577 0.265602)
(-0.0144593 0.153091 0.0513801)
(0.00109962 0.00256193 0.000754563)
(-0.0109821 0.503485 0.159214)
(0.0124706 0.0221802 0.00818703)
(-0.000424626 0.00765975 0.00212524)
(0.000428547 0.00122435 0.000398098)
(0.00174185 0.0031171 0.00121456)
(-1.50816e-05 0.000482897 0.000160333)
(8.31238e-05 0.000369712 9.97511e-05)
(1.34854e-05 0.00461472 0.00143434)
(0.000381454 0.00107504 0.000402828)
(-4.76285e-06 4.58022e-05 1.55535e-05)
(9.81508e-06 6.4932e-05 2.07484e-05)
(0.0305675 0.0486759 0.0211191)
(0.00325803 0.0175154 0.00499638)
(0.00115162 0.00235809 0.00113015)
(0.00500634 0.0139543 0.0078374)
(0.000616252 0.00210338 0.000937104)
(53.2781 275.09 28.8368)
(78.9122 206.965 15.4061)
(38.4727 329.656 11.5538)
(33.3462 300.189 27.1606)
(90.3039 216.589 29.4734)
(41.7464 338.595 30.6176)
(46.2042 262.618 14.9773)
(56.4964 285.041 47.7284)
(32.1088 302.078 45.5724)
(90.713 256.176 63.4415)
(45.3028 338.844 73.5271)
(91.8329 230.638 46.1942)
(42.9464 340.655 52.3033)
(60.79 303.402 66.7755)
(-8.22895 6.63471 0.767161)
(-16.8566 10.7858 0.417596)
(-42.6579 49.8066 1.22567)
(-71.4542 88.6522 8.63756)
(-15.6125 9.91523 1.43703)
(-39.7271 47.047 4.54976)
(-9.02922 7.21999 0.185795)
(-6.60979 5.44789 1.1457)
(-65.7316 80.9097 13.8384)
(-10.2216 6.02454 2.32425)
(-24.8181 31.4556 7.6466)
(-13.2828 8.17006 2.13182)
(-33.4376 40.7054 7.07818)
(-4.60131 3.90388 1.14418)
(74.7672 345.478 117.371)
(91.6405 287.427 86.5151)
(50.0504 333.622 94.2876)
(31.3799 287.057 96.7132)
(68.4676 324.95 91.2318)
(86.4914 315.91 109.524)
(56.0376 325.242 111.725)
(84.4395 353.904 144.709)
(26.7658 266.046 101.548)
(66.3919 319.235 145.375)
(46.8021 251.239 109.338)
(75.9954 328.659 132.022)
(56.5021 305.41 119.617)
(96.8752 344.957 160.419)
(-1.34467 1.191 0.493102)
(-6.89652 3.91296 1.98685)
(-15.8279 20.9452 6.31078)
(-30.4736 35.0241 14.0831)
(-2.72018 2.37291 0.84947)
(-3.92267 2.12546 1.32485)
(-8.60904 11.6173 4.05508)
(65.275 227.373 115.357)
(56.1029 286.395 137.947)
(31.5911 155.123 75.6561)
(6.47193 62.8333 29.1497)
(88.8241 310.61 153.189)
(38.8669 222.247 106.405)
(14.141 58.1563 28.6369)
(37.7426 115.229 57.6808)
(1.96295 19.0796 8.03821)
(9.63357 53.1135 22.4524)
(1.33638 4.16632 1.56222)
(22.4971 128.869 59.1949)
(4.1681 15.3916 6.47146)
(15.1279 40.3674 17.7667)
(2.02245 4.60032 1.66686)
(3.38592 20.2389 7.51261)
(0.473348 1.30048 0.436487)
(0.0727161 0.748375 0.239159)
(5.48921 13.5365 5.12017)
(1.21929 7.93555 2.80737)
(0.16343 0.419955 0.140106)
(0.657296 1.41877 0.532818)
(0.0224169 0.241112 0.0808529)
(0.103662 0.825343 0.298011)
(0.0125079 0.0315064 0.0121249)
(0.38415 2.77888 1.00492)
(0.0504402 0.123176 0.0433787)
(0.175635 0.371222 0.149998)
(0.947416 5.37724 2.5923)
(29.0322 132.771 55.405)
(2.22347 7.24664 1.3906)
(11.2725 27.419 15.8532)
(2.77254 14.7343 3.47351)
(12.5502 56.7987 33.8371)
(0.846832 2.49393 1.19096)
(0.056668 0.397139 0.163472)
(0.133904 0.539133 0.061489)
(0.0089301 0.0709862 0.005975)
(0.00371122 0.0138218 0.00493389)
(0.163503 1.07823 0.13967)
(0.0572209 0.192379 0.0799468)
(0.00319835 0.0271866 0.00972175)
(19.7243 315.789 8.80691)
(-50.9965 163.607 3.54232)
(-53.9984 265.026 21.4487)
(21.6789 318.173 27.5348)
(-48.3794 157.199 12.3683)
(8.80005 220.589 18.2231)
(8.05937 227.162 5.31904)
(28.0954 275.204 73.4359)
(-20.7947 79.4184 20.9513)
(-29.4159 183.445 53.6619)
(26.6257 232.23 74.9532)
(-9.63205 44.7977 14.0189)
(5.0522 65.3938 22.0694)
(7.73157 117.166 32.7076)
(3.415 23.4935 10.3295)
(-0.141251 1.98575 0.722838)
(-0.179526 6.30948 2.47587)
(1.02923 5.8046 2.32484)
(-0.0333013 0.509379 0.183173)
(0.0699039 0.46181 0.166066)
(0.223418 2.0003 0.756394)
(0.0357179 0.111181 0.0339525)
(-0.00119037 0.0137335 0.00312571)
(-0.000692951 0.0585825 0.0172723)
(0.0111589 0.0348947 0.0112269)
(-0.00042771 0.00460607 0.00184315)
(0.000429403 0.00308149 0.00128249)
(0.00223169 0.00902534 0.00209752)
(5.12609 7.98086 4.12004)
(1.08874 2.90552 1.13354)
(3.9342 7.37913 3.65474)
(0.424213 0.785698 0.361599)
(0.302667 0.662061 0.284618)
(0.0786272 0.152471 0.0709206)
(0.932955 1.59573 0.809745)
(6.81314e-05 0.000280021 9.10484e-05)
(-2.58652e-09 1.47113e-05 2.6327e-06)
(1.11868e-06 1.40477e-05 3.98594e-06)
(2.47338e-05 0.000121314 3.31333e-05)
(8.08082e-06 4.09832e-05 1.45277e-05)
(7.12006e-07 4.96977e-06 1.00341e-06)
(-2.5576e-07 3.24679e-06 8.25092e-07)
(0.000549065 0.00754838 0.00613781)
(5.25603e-05 0.000429418 0.000256333)
(4.54464e-05 0.000480731 0.000382994)
(3.37529e-06 3.81356e-05 2.40854e-05)
(-52.0399 259.023 35.7798)
(25.7282 298.758 63.144)
(-32.64 113.647 23.2211)
(23.2695 312.099 47.2177)
(-42.3353 140.493 19.9548)
(9.2157 199.76 29.7565)
(8.95942 164.342 35.2016)
(-15.117 129.53 45.6142)
(10.707 77.9641 34.8155)
(-0.667156 7.02997 2.48578)
(20.0726 161.378 62.7909)
(-2.90912 19.7285 6.66252)
(2.14796 25.8823 9.46051)
(0.730762 8.03988 3.03912)
(-0.0432152 1.66645 0.601473)
(0.0999571 0.358434 0.120761)
(-0.00296465 0.0403845 0.0137867)
(0.306195 1.35769 0.495804)
(-0.0099505 0.134559 0.0417911)
(0.0231296 0.106197 0.0347532)
(0.00726689 0.0281906 0.00951463)
(9.64318e-05 0.0175171 0.00555897)
(0.000569878 0.002658 0.000930369)
(-3.44679e-05 0.000362966 0.000122224)
(0.00310795 0.0102907 0.00327862)
(-0.000113752 0.00128985 0.000352358)
(0.000107865 0.000890607 0.000265842)
(-3.55311e-05 0.000304787 0.000101347)
(0.0709838 0.232049 0.0831399)
(0.00263707 0.00621834 0.00249393)
(0.00134598 0.00459325 0.00176923)
(0.0327132 0.0703434 0.0301046)
(0.0212467 0.0546352 0.0210654)
(0.0057324 0.0134888 0.00571628)
(0.000267395 0.00148325 0.00047041)
(0.0825865 0.217513 0.00270777)
(-4.00832e-05 0.00331774 0.000113027)
(0.0004917 0.00177758 6.07338e-05)
(-0.00408684 0.0267008 0.00258941)
(0.0463248 0.120397 0.0177428)
(-1.50214e-05 0.00181672 0.000326914)
(0.000273294 0.000940423 0.000172277)
(0.00947117 0.024426 0.00559424)
(-4.21302e-06 0.000652717 0.000132114)
(0.000106605 0.00035137 6.82848e-05)
(-3.46467e-05 0.00168537 0.000482875)
(0.000446163 0.00146862 0.000404186)
(-2.31704e-06 0.000172799 6.18171e-05)
(3.1962e-05 0.000127465 3.73358e-05)
(8.26618e-05 0.000339054 0.000116627)
(-8.12278e-07 2.86741e-05 1.0393e-05)
(3.21798e-06 2.05746e-05 5.90604e-06)
(-9.58589e-07 0.000186931 4.46817e-05)
(1.63739e-05 7.15279e-05 2.10698e-05)
(-3.90015e-07 6.84214e-06 1.72206e-06)
(3.58332e-08 4.63443e-06 1.48733e-06)
(2.58811e-06 1.9433e-05 4.56856e-06)
(-1.0563e-07 7.76534e-07 2.42634e-07)
(3.21927e-08 9.7718e-07 2.29127e-07)
(-3.77083e-07 1.9372e-06 6.6021e-07)
(1.80487e-07 3.71391e-06 1.0145e-06)
(-2.72567e-08 9.53199e-08 1.90323e-08)
(-3.56343e-08 2.5409e-07 6.9106e-08)
(7.01091e-06 8.30231e-05 6.67376e-06)
(1.0216e-06 1.53147e-05 2.9285e-06)
(8.41002e-09 6.80714e-07 2.72841e-07)
(-2.06863e-09 2.22357e-08 1.0468e-08)
(2.13414e-05 0.000127003 0.00015042)
(0.0202607 0.143367 0.119334)
(0.0129835 0.0766983 0.0244286)
(2.05497 12.1084 4.13399)
(0.00023351 0.00118735 0.000941523)
(0.0632376 0.596495 0.272885)
(3.43367 15.6997 10.1794)
(0.0066499 0.0225546 0.0156367)
(0.000802163 0.00479799 0.00229706)
(0.00898987 0.0826258 0.0616702)
(0.000249896 0.00201011 0.00127607)
(0.184315 1.48212 1.35623)
(10.6493 181.964 214.06)
(26.5093 312.884 321.141)
(65.33 311.002 211.791)
(90.3232 105.322 11.5205)
(5.41028 6.91746 2.73486)
(0.00761533 0.00925009 0.00428907)
(0.0005169 0.000752307 0.000281983)
(4.82001e-06 1.70293e-05 3.56552e-06)
(5.48091e-05 0.000286748 0.000203448)
(0.00180794 0.00704068 0.00269914)
(0.000207481 0.000603167 0.000271626)
(2.39192 2.1095 0.0415608)
(4.87147 8.90347 0.140756)
(0.0022484 0.00283011 0.000285746)
(69.1331 80.3108 17.0576)
(1.2547 1.10909 0.253827)
(2.66603 4.98333 0.838044)
(0.00125013 0.00150669 0.000318705)
(0.215953 0.192159 0.068692)
(0.510224 1.0343 0.278815)
(0.00108407 0.00136528 0.000335363)
(1.33883 1.71726 0.725322)
(0.0149389 0.0135411 0.00573451)
(0.0400204 0.0821857 0.0276358)
(0.000456928 0.000581862 0.000238096)
(0.00107941 0.00112791 0.000532891)
(0.000612283 0.00105088 0.000430869)
(7.98622e-05 0.000125238 4.67091e-05)
(0.00240849 0.00350758 0.00130807)
(0.000306622 0.000355828 0.000139742)
(0.000125681 0.0002565 7.85895e-05)
(1.50514e-05 2.38945e-05 8.65227e-06)
(6.35954e-05 7.99234e-05 2.42617e-05)
(3.70489e-05 6.48187e-05 1.69842e-05)
(3.78124e-06 6.81836e-06 1.51384e-06)
(0.000105206 0.000177447 6.35622e-05)
(1.40811e-05 2.42479e-05 7.44744e-06)
(8.45092e-06 1.63351e-05 5.76072e-06)
(8.77251e-07 3.18354e-06 1.78971e-07)
(2.54133e-06 2.09587e-05 1.15794e-05)
(0.000662662 0.00256481 0.00173241)
(0.00030881 0.00132967 0.000605509)
(4.70552e-05 0.0002398 0.000126583)
(2.56227e-05 9.07465e-05 3.96737e-05)
(2.8428e-05 0.00018477 9.1053e-05)
(-4.71342e-07 1.28434e-05 5.60312e-06)
(2.20251e-05 4.54422e-05 8.9674e-06)
(1.11986e-05 2.12501e-05 4.12088e-06)
(7.37838e-06 1.7087e-05 5.98177e-06)
(4.91903e-07 1.25863e-06 4.04192e-07)
(-6.54973e-10 6.55281e-09 9.49871e-10)
(1.16616e-07 2.31792e-06 1.37333e-07)
(1.60559e-09 5.77619e-08 2.78637e-09)
(1.24924e-08 4.29988e-07 9.92163e-08)
(1.08975e-10 1.03613e-08 2.57479e-09)
(-1.27887e-10 1.84125e-08 7.80259e-09)
(-7.31633e-12 4.46533e-10 1.91887e-10)
(-5.79532e-11 6.23991e-10 3.23856e-10)
(-1.42317e-12 1.58158e-11 8.29821e-12)
(-1.8526e-11 1.40044e-10 1.79403e-11)
(-4.17316e-13 2.8745e-12 3.76308e-13)
(-1.7237e-10 1.04968e-07 2.40027e-08)
(-1.71306e-10 2.47174e-09 3.88331e-10)
(-6.05587e-12 5.67252e-11 6.71082e-12)
(-1.48798e-13 1.22998e-12 1.16145e-13)
(0.000571744 0.000560795 0.000148051)
(0.000240239 0.00023099 6.51309e-05)
(2.26328e-05 2.32499e-05 8.88128e-06)
(4.51863e-06 1.05659e-05 9.12625e-07)
(1.08619e-06 9.44459e-06 6.47231e-06)
(2.26585e-08 3.86199e-07 1.63041e-07)
(3.33615e-10 1.34672e-08 3.77396e-09)
(3.15539e-12 4.0916e-10 8.42432e-11)
(-3.8669e-14 1.11701e-11 1.88134e-12)
(-1.23741e-15 2.70838e-13 2.97042e-14)
(144.919 225.701 345.793)
(23.37 136.128 251.36)
(66.5737 166.983 257.621)
(32.8709 137.778 274.869)
(95.0466 172.776 290.181)
(66.2444 243.548 249.418)
(57.9878 269.488 262.832)
(100.418 248.834 289.307)
(44.5397 260.053 236.674)
(5.76955e-08 4.97409e-07 7.35894e-08)
(1.43228e-07 4.46966e-07 2.57136e-08)
(4.07865e-09 1.49534e-08 7.19423e-10)
(3.26372e-08 1.23152e-07 3.12013e-08)
(8.27176e-10 4.08642e-09 9.9752e-10)
(2.10338e-09 1.30945e-08 3.89408e-09)
(3.92135e-11 3.4022e-10 1.07588e-10)
(9.82636e-11 9.49392e-10 2.93241e-10)
(1.51954e-12 2.33231e-11 7.46853e-12)
(3.82436e-12 2.97072e-10 3.05916e-11)
(-4.17625e-15 6.49521e-12 6.04779e-13)
(3.61172e-06 1.0539e-05 8.43746e-07)
(8.7312e-07 2.78163e-06 6.67333e-07)
(1.16549e-07 4.70328e-07 1.33651e-07)
(6.79104e-09 3.55208e-08 1.09243e-08)
(5.60865e-10 1.24956e-08 1.4667e-09)
(-101.948 134.891 271.856)
(-0.00107279 0.00145411 0.000790192)
(-0.000220826 0.000299546 0.000420178)
(-0.0332018 0.0461452 0.067453)
(-8.02244 11.5799 12.2282)
(-0.000849973 0.00108005 0.00151642)
(-1.18083 1.76125 1.31789)
(-0.004043 0.0067168 0.00569784)
(-0.00050517 0.000783897 0.000817739)
(-4.75859e-05 7.51926e-05 7.27202e-05)
(-4.01166e-06 6.71677e-06 8.29786e-06)
(-776.904 251.034 62.8153)
(-764.491 240.588 99.9962)
(-604.303 218.546 164.868)
(-542.74 206.636 228.663)
(-421.678 167.646 230.719)
(-133.867 47.9152 83.3372)
(-0.888908 0.470996 0.366018)
(-0.040628 0.0242486 0.0165018)
(-0.00198487 0.00150266 0.00106975)
(-0.000638913 0.000737288 0.000446124)
(-214.651 272.916 121.017)
(-154.614 226.479 164.758)
(-190.981 242.411 129.497)
(-176.196 236.104 71.9875)
(-196.125 271.01 93.6666)
(-204.989 212.893 87.9669)
(-220.807 251.231 108.167)
(-172.677 214.355 57.5702)
(-156.011 177.723 29.7075)
(206.208 -230.299 227.685)
(188.503 -149.267 312.757)
(200.595 -188.263 170.253)
(164.3 -220.163 304.443)
(182.086 71.9863 367.072)
(156.851 -215.848 370.506)
(58.3919 -131.375 181.256)
(71.5995 -180.277 170.365)
(191.96 -118.171 157.377)
(186.928 -206.906 206.844)
(62.5721 -110.837 158.372)
(66.427 -199.933 206.221)
(177.677 -137.3 180.892)
(62.2115 -51.9078 149.415)
(191.724 -49.8744 132.565)
(65.6133 -46.4469 134.602)
(179.197 -54.9155 148.001)
(54.9418 -146.604 215.699)
(174.559 -214.853 250.846)
(57.7773 -215.68 299.147)
(152.556 -163.659 266.637)
(61.6495 -208.928 248.351)
(164.904 -151.466 216.901)
(51.1654 -159.937 263.64)
(59.536 -55.7669 178.058)
(155.51 -60.93 225.162)
(167.329 -58.3605 178.618)
(56.3147 -58.5797 222.741)
(42.6863 -165.079 407.09)
(55.7159 -212.957 362.524)
(141.009 -170.328 332.743)
(147.591 -184.678 431.662)
(46.8441 -168.008 327.892)
(52.8785 -185.991 425.72)
(129.865 -166.888 411.546)
(47.3801 -47.541 367.785)
(143.919 -60.1061 289.79)
(52.5241 -57.4385 286.916)
(130.524 -51.0775 369.27)
(354.201 -111.2 22.0554)
(321.372 -196.662 166.816)
(247.543 -212.906 371.679)
(129.32 82.5166 404.303)
(-26.1421 341.083 252.693)
(717.606 -161.613 18.757)
(339.549 -165.946 135.52)
(670.203 -179.965 112.883)
(629.358 -192.526 149.092)
(261.568 -219.918 305.112)
(473.307 -194.556 284.112)
(426.112 -183.479 334.886)
(173.455 -23.2299 455.302)
(301.16 -3.16451 358.168)
(6.36668 274.099 226.318)
(470.237 -71.2892 59.1144)
(488.294 -150.002 22.4818)
(346.262 -55.669 21.587)
(347.692 -104.113 60.1708)
(481.837 -140.49 60.0869)
(340.015 -49.2556 60.0448)
(477.452 -79.1375 21.1208)
(391.524 -144.721 182.072)
(434.587 -213.08 169.514)
(310.738 -121.744 152.821)
(299.082 -212.12 204.156)
(423.968 -131.16 158.143)
(403.89 -223.395 207.39)
(287.11 -139.299 177.018)
(268.06 -162.512 396.214)
(326.154 -208.804 371.853)
(225.161 -168.717 331.34)
(228.799 -178.407 426.494)
(300.72 -168.353 329.764)
(297.326 -172.666 418.728)
(203.362 -164.162 405.528)
(93.478 22.7356 307.147)
(167.708 79.6768 373.911)
(86.6111 -36.8234 409.176)
(76.521 170.798 313.935)
(137.663 -41.2565 379.063)
(112.189 161.322 286.491)
(39.7306 29.5204 332.317)
(-36.1239 315.339 264.228)
(-10.872 92.1787 71.6252)
(594.949 -66.5653 56.0514)
(613.951 -157.894 20.2164)
(727.708 -84.4314 17.3465)
(708.45 -152.694 45.9241)
(606.294 -147.442 51.7221)
(718.371 -76.8209 45.541)
(603.297 -75.6409 20.8917)
(465.494 -33.5443 54.3832)
(345.033 -32.9149 19.3834)
(336.623 -27.1249 53.6457)
(474.128 -38.1111 19.2483)
(597.085 -25.8391 45.2475)
(778.605 -46.4065 15.0493)
(767.919 -44.0428 39.9336)
(606.549 -29.9254 16.31)
(466.431 -84.452 104.9)
(346.764 -126.648 103.55)
(460.72 -190.03 136.045)
(330.851 -96.053 134.082)
(476.663 -158.399 103.707)
(339.331 -65.6509 104.608)
(451.549 -110.244 136.842)
(587.971 -77.4339 98.7064)
(698.713 -164.101 83.0902)
(572.419 -183.535 122.728)
(681.27 -101.477 109.51)
(597.3 -161.879 91.7221)
(709.282 -85.9083 83.8913)
(565.602 -97.4456 127.576)
(462.798 -37.0899 96.9014)
(327.018 -41.1051 118.878)
(335.915 -30.8037 94.7127)
(447.846 -46.0006 123.703)
(592.251 -29.6784 83.6982)
(731.807 -51.4885 97.2957)
(760.658 -46.8938 76.1664)
(570.275 -38.8396 106.885)
(488.671 -124.252 171.712)
(537.41 -198.463 157.836)
(639.727 -115.15 131.421)
(578.826 -199.68 191.217)
(530.572 -113.286 148.891)
(496.748 -204.712 198.579)
(589.551 -125.171 157.155)
(387.599 -58.6584 147.355)
(306.522 -50.0871 126.629)
(419.887 -53.9282 132.197)
(284.447 -55.3348 143.543)
(491.145 -51.9367 131.18)
(686.219 -54.2309 107.177)
(534.296 -47.333 114.935)
(630.931 -54.4562 125.442)
(359.506 -155.547 217.191)
(278.521 -217.658 249.659)
(349.306 -218.959 307.94)
(244.468 -164.066 264.799)
(374.569 -223.146 252.827)
(265.123 -152.881 214.115)
(329.365 -165.366 265.827)
(445.462 -135.188 203.124)
(524.782 -200.918 236.441)
(418.937 -195.972 298.334)
(490.731 -147.397 234.644)
(456.222 -202.301 245.114)
(537.998 -135.506 190.432)
(404.307 -147.363 247.465)
(354.534 -61.4174 177.195)
(241.564 -60.9408 223.09)
(263.11 -58.7723 176.026)
(321.303 -62.9776 221.433)
(445.307 -54.5239 159.897)
(523.362 -54.8613 194.713)
(573.864 -54.7156 153.484)
(400.902 -55.9544 202.851)
(324.553 -146.635 365.732)
(382.612 -184.799 354.145)
(450.58 -150.571 291.578)
(385.216 -149.68 369.558)
(365.646 -152.661 306.52)
(342.992 -151.356 392.284)
(410.679 -141.429 345.659)
(257.07 -51.6522 351.634)
(220.895 -60.3897 286.632)
(289.594 -62.1856 281.615)
(197.685 -51.2237 362.364)
(321.483 -41.0916 324.905)
(481.306 -51.8392 249.725)
(360.407 -54.4949 260.712)
(441.912 -36.9268 308.215)
(227.739 -134.457 425.8)
(204.711 -114.565 455.292)
(222.209 -22.1358 433.619)
(131.497 -93.9808 447.463)
(264.053 -109.898 442.574)
(170.832 -136.477 443.843)
(183.829 -94.8837 422.884)
(279.926 -121.617 389.728)
(346.667 -89.1997 380.034)
(249.974 -4.32056 392.753)
(322.667 -77.59 351.927)
(299.953 -91.0857 409.292)
(365.004 -118.072 364.301)
(235.967 -83.3589 382.382)
(216.905 -21.2872 401.673)
(121.738 25.923 425.474)
(163.891 -21.1635 420.808)
(173.439 25.6124 399.892)
(279.262 -7.10612 366.845)
(355.501 44.9206 334.759)
(400.003 -1.09044 342.839)
(237.278 39.2566 361.698)
(89.7291 126.066 314.313)
(73.6095 77.2452 396.258)
(128.994 76.2855 367.515)
(27.9704 128.527 338.54)
(62.6622 90.8472 262.325)
(33.3713 227.001 248.216)
(49.888 267.76 215.442)
(-13.2126 178.923 270.89)
(73.1186 218.622 231.07)
(5.92241 98.5947 277.818)
(41.5567 169.4 258.949)
(60.5954 172.07 286.056)
(-26.5498 221.37 324.479)
(-6.10056 175.887 302.566)
(38.229 214.145 310.039)
(-24.1174 249.014 166.959)
(-33.8638 299.827 317.264)
(-29.6995 328.16 199.552)
(13.7249 318.817 190.979)
(24.4214 291.997 305.999)
(6.66175 244.766 160.122)
(11.8435 308.359 254.657)
(159.347 261.628 13.8408)
(211.631 191.514 54.3756)
(215.222 150.686 136.605)
(204.377 183.631 219.794)
(186.716 219.275 285.067)
(349.49 -165.299 20.472)