/*--------------------------------*- C++ -*----------------------------------*\
  =========                 |
  \\      /  F ield         | OpenFOAM: The Open Source CFD Toolbox
   \\    /   O peration     | Website:  https://openfoam.org
    \\  /    A nd           | Version:  9
     \\/     M anipulation  |
\*---------------------------------------------------------------------------*/
FoamFile
{
    format      ascii;
    class       volScalarField;
    location    "0.00145";
    object      impulseMax;
}
// * * * * * * * * * * * * * * * * * * * * * * * * * * * * * * * * * * * * * //

dimensions      [1 -1 -1 0 0 0 0];

internalField   nonuniform List<scalar> 
11670
(
2.41537e-05
1.14641e-11
1.62196e-11
4.28069e-13
3.51671e-15
5.29296e-10
1.17547e-11
2.30648e-13
3.97619e-12
0.000298259
1.03488e-12
4.86059e-11
1.00258e-10
4.69865e-10
4.74878e-13
3.95739e-12
5.79833e-12
2.27579e-11
8.81361e-13
2.07425e-12
4.24443e-12
2.13671e-13
2.12608e-06
1.17156e-09
4.00453e-06
3.45826e-07
9.11915e-09
5.61085e-06
2.22902e-08
2.71354e-05
0.00146782
0.000143857
1.1318e-06
5.12472e-05
4.84922e-06
1.14969e-05
4.28796e-13
2.75274e-14
1.17968e-12
4.09879e-13
1.05865e-13
4.52322e-14
9.60911e-13
1.34312e-11
2.24221e-13
3.63355e-11
4.47493e-11
9.96685e-13
1.96827e-12
4.51465e-10
1.79405e-07
1.07438e-05
7.70054e-07
9.91683e-08
2.97629e-08
3.83585e-07
1.84158e-08
1.21787e-12
2.49051e-11
1.03527e-10
8.94142e-12
2.72758e-10
2.58427e-11
3.79304e-09
4.06753e-10
1.67437e-08
6.32792e-10
9.02399e-09
2.5812e-07
8.52273e-10
4.07771e-10
5.52807e-11
1.11453e-09
4.67771e-09
4.77187e-10
1.31623e-08
6.81439e-10
3.99754e-07
1.57256e-07
4.44684e-06
1.50753e-08
2.20404e-05
1.86895e-06
2.05414e-07
1.40014e-12
1.23934e-13
2.40738e-10
2.55022e-13
0
0
0
0
1.6061e-10
2.36954e-12
2.93464e-14
0
0
0
6.95921e-12
1.36788e-13
0
0
0
0
1.44064e-13
4.85064e-16
0
0
0
0
1.21266e-16
0
0
0
0
0
0
0
0
0
0
0
0
0
0
0
0
0
8.46436e-14
1.62496e-14
2.77295e-11
2.42532e-14
0
0
0
0
1.58122e-11
2.56841e-13
9.70128e-16
0
0
0
7.51485e-13
9.82254e-15
0
0
0
0
1.18841e-14
0
0
0
0
0
0
0
0
0
0
0
0
0
0
0
0
0
0
0
0
0
0
0
1.69772e-15
4.85064e-16
1.21266e-16
0
0
0
0
1.51667e-12
1.916e-14
0
0
0
0
6.36646e-14
0
0
0
0
0
0
0
0
0
0
0
0
0
0
0
0
0
0
0
0
0
0
0
0
0
0
0
0
0
0
0
0
0
0
0
0
5.90565e-14
0
0
0
0
0
1.21266e-16
0
0
0
0
0
0
0
0
0
0
0
0
0
0
0
0
0
0
0
0
0
0
0
0
0
0
0
0
0
3.51609e-11
1.62254e-13
0
0
0
1.48317e-11
9.70128e-16
0
0
0
0
1.00651e-14
0
0
0
0
0
0
0
0
0
0
0
0
0
0
0
0
0
0
0
0
0
0
0
0
0
0
0
0
0
0
0
0
0
0
0
1.32619e-09
1.14062e-11
4.82517e-13
5.09317e-15
0
0
1.40632e-12
2.34043e-14
0
0
0
0
2.78912e-14
0
0
0
0
0
0
0
0
0
0
0
0
0
0
0
0
0
0
0
0
0
0
0
0
0
0
0
0
0
0
0
0
0
0
0
2.74765e-11
1.65443e-12
6.33008e-14
0
0
0
6.86608e-13
3.20142e-14
0
0
0
0
7.03343e-15
0
0
0
0
0
0
0
0
0
0
0
0
0
0
0
0
0
0
0
0
0
0
0
0
0
0
0
0
0
0
0
0
0
0
0
1.12317e-12
5.38421e-14
0
0
0
0
2.83762e-14
0
0
0
0
0
0
0
0
0
0
0
0
0
0
0
0
0
0
0
0
0
0
0
0
0
0
0
0
0
0
0
0
0
0
0
0
0
0
0
0
0
2.26767e-14
0
0
0
0
0
0
0
0
0
0
0
0
0
0
0
0
0
0
0
0
0
0
0
0
0
0
0
0
0
0
0
0
0
0
0
0
0
0
0
0
0
0
0
0
0
0
0
0
0
0
0
0
0
0
0
0
0
0
0
0
0
0
0
0
0
0
0
0
0
0
0
0
0
0
0
0
0
0
0
0
0
0
0
0
0
0
0
0
0
0
0
0
0
0
0
6.28835e-11
4.21278e-13
2.54126e-11
3.00376e-13
3.61373e-14
0
2.15853e-14
0
0
0
0
0
7.92231e-13
0
0
3.28995e-13
0
0
1.41517e-13
2.4617e-14
3.63798e-15
5.65221e-13
6.6575e-14
9.09495e-15
9.70128e-16
8.22632e-12
7.10289e-11
7.34532e-12
1.01595e-10
3.52229e-12
3.8135e-11
5.16508e-12
4.12304e-15
3.01588e-13
6.79089e-14
1.08776e-13
1.69772e-15
2.25312e-13
5.68737e-14
0
4.85064e-16
0
0
0
1.21266e-16
0
0
0
0
0
0
0
0
7.4792e-12
7.94292e-14
1.8675e-14
2.91038e-15
0
0
0
0
0
0
0
5.6995e-14
0
0
4.72937e-15
0
0
9.82254e-15
1.21266e-16
0
1.23691e-14
1.33393e-15
0
0
9.33505e-13
7.47217e-12
7.47605e-13
2.77093e-13
2.9327e-12
2.41562e-13
0
2.93464e-14
6.4271e-15
4.72937e-15
0
1.17628e-14
4.85064e-16
0
0
0
0
0
0
0
0
0
0
0
0
0
0
5.6995e-15
0
0
0
0
0
0
0
0
0
1.21266e-16
0
0
0
0
0
0
0
0
0
0
0
0
1.0538e-13
8.43041e-13
6.40284e-14
2.03727e-14
2.91038e-13
1.6856e-14
0
4.85064e-16
0
0
0
0
0
0
0
0
0
0
0
0
0
0
0
0
0
0
0
0
1.69772e-15
0
0
0
0
0
0
0
0
0
0
0
0
0
0
0
0
0
0
0
0
0
1.33393e-15
2.6436e-14
1.21266e-16
1.21266e-16
5.3357e-15
0
0
0
0
0
0
0
0
0
0
0
0
0
0
0
0
0
0
0
0
0
0
2.23372e-12
9.70128e-15
0
4.89861e-11
3.99159e-12
1.70427e-12
1.47944e-13
1.80686e-14
0
0
3.79684e-13
5.57823e-14
1.00651e-14
0
0
0
0
1.69772e-15
0
0
0
7.9143e-12
1.28457e-12
3.25478e-13
6.1118e-13
3.39545e-14
2.72133e-09
3.80787e-11
0
0
4.4528e-07
2.32135e-10
1.01442e-11
2.76971e-13
3.14079e-14
0
1.04261e-09
6.75741e-11
2.85909e-12
8.9373e-14
0
0
3.26589e-11
1.88763e-12
7.13044e-14
0
0
0
8.21334e-13
3.80775e-14
0
0
0
0
1.00651e-14
0
0
0
0
0
1.87858e-11
7.23048e-12
1.19065e-10
6.1192e-11
4.04313e-12
5.35227e-11
2.38086e-11
1.92728e-12
1.26808e-12
1.6189e-13
1.15919e-11
3.58353e-12
4.33162e-13
3.63905e-12
6.80423e-13
1.51582e-13
3.37119e-14
4.16825e-11
1.06714e-14
2.12851e-12
1.74502e-13
8.3431e-14
2.95361e-12
9.22349e-13
9.50725e-14
4.24431e-14
8.35949e-12
3.63798e-16
2.15138e-12
0
2.98678e-13
1.37031e-14
6.18456e-15
2.97587e-13
1.06714e-13
4.72937e-15
4.85064e-16
6.06394e-09
2.198e-08
5.14323e-10
3.07723e-11
3.38402e-08
2.13409e-09
1.34002e-09
9.59917e-11
2.16915e-10
1.9274e-12
2.71878e-13
1.72314e-10
3.12068e-11
8.56106e-12
1.43906e-12
5.0923e-12
3.4197e-14
0
3.52603e-12
6.42103e-13
1.59101e-13
2.26767e-14
7.9246e-10
4.53869e-10
1.74696e-12
2.68659e-11
1.24613e-11
3.1134e-11
8.35037e-12
1.54165e-12
2.06286e-12
5.33206e-13
4.85864e-12
6.97279e-14
9.10707e-14
3.62585e-14
7.27596e-15
3.03165e-15
1.21266e-16
3.56522e-14
0
0
0
0
0
0
0
1.35951e-12
6.78447e-12
1.94704e-11
6.12694e-11
6.29686e-12
1.66914e-11
1.56651e-12
1.45883e-13
2.65572e-14
1.78212e-12
3.54097e-13
2.11003e-14
1.61769e-12
1.60799e-13
7.63248e-13
2.73113e-11
2.39719e-12
5.02077e-12
3.06172e-12
9.94623e-12
4.05271e-13
7.74889e-14
3.18444e-13
1.27329e-14
5.28356e-13
1.8675e-14
8.37099e-13
4.18368e-14
0
4.85064e-16
4.12304e-15
3.58947e-14
4.85064e-16
3.03165e-15
0
0
0
0
0
0
0
0
0
2.25555e-14
0
9.70128e-16
0
2.54659e-15
0
0
0
0
0
0
0
0
0
0
0
0
0
0
0
0
0
0
0
0
0
0
0
0
0
0
0
0
0
0
0
0
0
0
0
0
6.96188e-13
7.72343e-13
6.67812e-13
2.63147e-14
8.68264e-14
7.49424e-14
2.95889e-14
0
0
0
0
0
0
0
3.15413e-13
2.22159e-13
2.45564e-13
1.11565e-14
1.84324e-14
3.32269e-14
6.91216e-15
0
0
0
0
0
0
0
8.87667e-14
7.77921e-13
2.52306e-12
1.7911e-13
1.12098e-12
6.79089e-15
2.54659e-15
1.99483e-13
2.37681e-14
1.51582e-14
0
1.17749e-13
1.33393e-15
1.916e-14
0
3.58947e-14
0
5.37208e-14
4.85064e-16
0
0
0
3.63798e-16
0
0
0
0
0
0
0
0
0
0
0
0
0
0
0
0
0
0
0
0
0
0
0
0
0
0
0
0
0
0
0
0
0
0
0
0
0
0
0
0
0
0
0
0
0
0
0
0
0
0
0
0
5.49335e-14
2.874e-14
3.24993e-14
0
3.27418e-15
7.27596e-16
7.27596e-16
0
0
0
0
0
0
0
6.79089e-15
2.30405e-15
1.33393e-15
0
0
0
0
0
0
0
0
0
0
0
0
0
1.64922e-14
4.85064e-16
0
0
1.16415e-14
0
0
0
3.63798e-16
0
2.54659e-15
0
0
0
0
0
0
0
0
0
0
0
0
0
0
0
0
0
0
0
0
0
0
0
0
0
0
0
0
0
0
0
0
0
0
0
0
0
0
0
0
0
0
0
0
0
0
0
0
0
0
0
0
0
0
0
0
0
0
0
0
0
0
0
0
0
0
0
0
0
0
0
0
0
0
0
0
0
0
0
0
0
0
0
0
0
0
0
0
0
0
0
0
1.21266e-16
0
9.09495e-15
6.79089e-15
0
0
4.70512e-14
0
0
0
0
0
0
0
0
0
0
0
0
0
0
0
0
9.70128e-16
0
0
0
0
0
0
0
0
0
0
0
0
0
0
0
0
0
0
0
0
0
0
0
0
0
0
0
0
0
0
0
0
0
0
0
0
0
0
0
0
0
0
0
0
0
0
0
0
0
0
0
0
0
0
0
0
0
0
0
0
0
0
0
0
0
0
0
7.78891e-13
1.55693e-12
4.4444e-13
4.08302e-13
2.65572e-14
1.06108e-13
1.30603e-13
7.51849e-15
1.00651e-14
3.51671e-15
1.69772e-15
0
0
0
3.86709e-08
8.29583e-08
3.36085e-08
6.38183e-07
8.76463e-08
1.06598e-10
1.45749e-09
2.34816e-10
2.72125e-09
1.02938e-10
1.48934e-09
2.36518e-10
1.5573e-12
2.40333e-11
4.22205e-12
4.07331e-11
2.05425e-12
1.51348e-11
4.59567e-12
1.61158e-11
1.61298e-11
1.31834e-11
3.93447e-10
3.21456e-10
2.33965e-10
4.80382e-10
6.39642e-12
4.94013e-12
5.07304e-12
1.57777e-10
9.54586e-11
1.14325e-10
1.03224e-10
1.12886e-12
7.21047e-13
7.50879e-13
1.48689e-11
1.79723e-11
2.39978e-11
1.38629e-11
1.76806e-13
1.04531e-13
9.05857e-14
3.21027e-12
1.86483e-12
2.92809e-12
2.02563e-12
2.06152e-14
2.72848e-14
1.60071e-14
4.2431e-13
5.6231e-13
5.84381e-13
3.53369e-13
2.87934e-12
4.35896e-11
4.03376e-11
2.49978e-12
4.475e-11
2.79603e-12
2.42229e-12
7.39722e-15
4.72937e-15
3.15291e-15
1.75836e-13
1.43458e-13
1.60677e-13
1.39941e-13
0
0
0
2.08577e-14
3.39545e-14
3.61373e-14
2.08577e-14
0
0
0
2.06152e-15
5.57823e-15
2.06152e-15
9.45874e-15
2.67108e-09
9.27519e-09
2.36748e-09
6.49029e-08
3.45135e-08
1.66131e-07
2.88336e-08
4.86921e-09
1.81068e-09
2.99518e-08
4.23216e-09
5.88184e-08
1.87121e-09
1.92148e-10
4.68969e-10
1.34519e-10
2.39448e-09
6.48495e-09
2.11108e-09
6.47397e-09
9.32145e-12
2.30351e-11
7.17276e-12
3.48805e-10
1.13894e-10
3.1945e-10
1.17266e-10
2.26328e-11
2.82102e-10
1.79627e-11
1.92905e-10
2.62289e-11
2.20898e-10
1.75026e-11
7.62399e-13
1.36545e-12
5.57702e-13
7.78988e-12
1.82298e-11
7.51315e-12
1.83279e-11
1.30118e-13
1.91115e-13
1.03076e-13
2.115e-12
1.41942e-12
2.28792e-12
1.42015e-12
8.85242e-15
2.72848e-14
7.76102e-15
1.30725e-13
3.78471e-13
1.58858e-13
3.96297e-13
4.11092e-13
8.21516e-12
6.25126e-13
7.18568e-12
5.96265e-13
6.93603e-12
4.27463e-13
9.483e-14
1.01682e-12
2.36226e-12
1.77533e-13
1.34969e-12
1.08169e-13
1.90994e-13
1.89276e-10
5.41854e-10
1.51252e-10
9.70576e-12
3.42511e-11
2.38822e-11
7.1668e-11
3.49064e-12
1.51946e-13
1.53553e-08
2.10239e-12
8.86866e-12
8.55531e-13
1.973e-13
9.22955e-13
3.4197e-14
3.5822e-13
4.70512e-14
2.78417e-07
4.97856e-07
1.48087e-08
3.94792e-11
4.74688e-10
6.57395e-12
5.76377e-13
4.95978e-14
2.30066e-12
1.82748e-13
3.71074e-13
2.22523e-13
7.86167e-13
2.47383e-14
6.79089e-15
7.88229e-14
2.91645e-13
7.88107e-13
1.52795e-14
6.2937e-14
1.47096e-13
1.33393e-15
2.14156e-13
9.09495e-15
3.01952e-14
1.58858e-14
7.26383e-14
0
0
7.27596e-16
8.97368e-15
2.66785e-14
0
2.91038e-15
2.54659e-15
7.27596e-15
1.78261e-14
2.86285e-12
5.49335e-14
7.67614e-14
2.66785e-15
2.88007e-13
4.05897e-08
9.90187e-08
1.35895e-06
4.29896e-07
3.31197e-05
2.18086e-06
4.99631e-06
1.70845e-09
2.29022e-09
5.48741e-08
2.80852e-09
4.61053e-09
2.37684e-10
3.90753e-10
0
0
0
0
0
0
0
9.68066e-13
4.84094e-13
3.88051e-14
4.94765e-14
3.63798e-16
8.74934e-13
4.79001e-14
0
0
0
4.79001e-14
1.33393e-15
3.63798e-16
0
0
0
0
0
0
0
0
0
0
0
0
0
0
0
5.42172e-11
8.08343e-12
1.41205e-10
6.22813e-11
1.47449e-10
6.31688e-12
3.4562e-12
1.59292e-11
4.5926e-12
5.09185e-12
7.17409e-13
1.92207e-13
5.45818e-13
2.09548e-13
4.78515e-13
1.48066e-13
1.37516e-13
1.54008e-14
3.63798e-16
1.57646e-14
1.21266e-15
5.09317e-15
0
0
0
0
0
0
0
2.30405e-15
0
0
2.18279e-15
0
1.21266e-16
0
0
0
0
4.85064e-16
0
0
0
0
0
0
0
0
0
0
0
0
0
0
0
0
0
0
0
0
0
0
0
0
0
0
0
0
0
0
0
0
0
0
0
0
0
0
0
0
0
0
0
0
1.58858e-13
1.19447e-13
9.70128e-16
1.46611e-13
2.72848e-14
3.889e-13
3.55309e-14
2.6436e-14
0
0
3.63798e-16
3.27418e-15
1.16415e-14
5.57823e-15
0
0
0
0
0
4.85064e-16
0
0
0
0
0
0
0
0
0
0
0
0
0
0
0
0
0
0
0
0
0
0
0
0
0
0
0
0
0
0
1.21266e-16
1.94026e-15
2.44957e-13
3.18929e-14
6.37859e-14
5.09317e-15
2.53472e-08
2.27824e-09
1.10676e-09
2.72135e-09
3.9098e-08
3.00966e-08
1.58701e-08
2.91579e-10
1.01294e-10
1.2421e-10
4.91085e-09
3.00014e-09
4.16666e-09
1.91423e-09
1.02406e-11
3.82398e-12
3.72389e-12
1.84006e-10
9.08907e-11
1.6453e-10
9.26382e-11
2.73212e-13
8.80391e-14
8.84029e-14
5.2724e-12
2.51433e-12
5.35777e-12
2.55507e-12
4.28069e-13
6.23408e-12
3.93387e-13
4.90356e-12
5.48607e-13
4.02109e-12
3.90961e-13
0
4.85064e-16
0
2.874e-14
2.19491e-14
3.79562e-14
2.02514e-14
5.8945e-12
1.70136e-13
2.03969e-12
7.4336e-14
5.80864e-13
1.32944e-12
2.40701e-12
9.94999e-12
4.06149e-11
1.01524e-12
1.22311e-11
5.46764e-12
1.24489e-10
9.4428e-11
0
0
0
0
0
0
0
0
0
0
0
0
0
0
0
0
0
0
0
0
0
0
0
0
0
0
0
0
0
0
0
0
0
0
0
5.15138e-12
9.42237e-14
0
0
5.65099e-13
6.30583e-15
0
0
4.77788e-14
0
0
0
0
0
0
0
0
0
0
0
2.44738e-10
2.49922e-11
2.43102e-12
9.72553e-14
1.5522e-14
1.80335e-12
2.77699e-14
0
0
0
0
2.59267e-13
7.27596e-16
0
0
0
0
4.49169e-13
4.36557e-15
0
0
0
0
0
6.30583e-15
0
0
0
0
0
0
0
0
0
0
0
0
0
0.582046
13.3231
3.34909e-05
9.02571e-09
0.138082
6.24021e-07
4.7495e-10
0.00147067
2.79221e-09
6.72524e-06
0.240884
4.64316e-08
2.01031e-09
0.00120151
3.52458e-08
7.69682e-11
7.50642e-06
1.42055e-10
0.000384878
3.87036e-06
1.33272e-05
9.37444e-09
3.31027e-10
7.06749e-07
1.68008e-09
1.60992e-11
9.52955e-10
5.79501e-12
5.93913e-06
7.41554e-07
0.00364994
7.10465e-07
1.55677e-09
4.92035e-11
1.73826e-05
3.60211e-08
1.86959e-10
2.35485e-12
3.42776e-08
4.22563e-11
1.97229e-07
1.0893e-08
2.89938e-10
7.09494e-12
7.54726e-05
1.59256e-07
1.73528e-09
4.4171e-11
2.6533e-13
1.01749e-06
1.68459e-08
5.26853e-10
1.46237e-11
3.55309e-13
4.42454e-08
1.22042e-09
3.51495e-11
9.62852e-13
1.54008e-14
4.75621e-10
1.6151e-11
4.82275e-13
6.18456e-15
1.13992e-09
4.15486e-11
1.33526e-12
2.89826e-14
0
2.96519e-11
1.18198e-12
3.22567e-14
0
0
0.0334995
0.00163797
1.46862e-05
0.00099614
2.57934e-06
0.0481565
3.20766e-06
4.58089e-05
5.18499e-07
0.0645871
0.00298169
1.7466e-07
6.44636e-05
4.17508e-08
9.90309e-10
0.000205354
2.626e-07
0.000350665
7.65507e-08
4.04433e-09
4.05961e-09
8.13038e-10
2.55724e-11
1.49507e-05
8.65326e-08
3.97424e-05
3.86492e-06
1.37408e-06
1.01226e-08
2.61497e-08
1.19663e-08
1.2776e-09
1.87093e-07
7.13278e-09
1.61747e-09
3.43638e-10
8.25557e-09
1.53376e-07
7.49156e-10
1.61638e-10
1.24934e-10
0.000258658
4.05098e-06
0.0155249
7.91697e-05
3.20547e-05
1.19218e-07
1.08471e-06
3.07082e-07
4.45928e-09
2.26229e-06
9.19613e-08
1.92341e-08
2.35432e-10
1.30098e-09
5.43927e-10
6.20158e-11
3.59176e-09
2.39326e-10
4.47504e-11
1.29846e-11
4.48404e-07
3.49804e-06
7.83067e-09
2.8839e-10
1.38859e-09
3.08128e-11
6.79174e-12
6.83127e-06
5.43466e-07
2.89447e-08
3.3365e-05
0.000940634
2.12757e-05
1.07019e-06
5.75268e-06
6.21888e-08
3.80532e-06
1.37891e-07
4.20199e-08
7.99975e-09
1.67433e-07
5.79829e-07
1.61611e-08
1.83632e-10
5.12958e-10
1.04744e-10
5.97948e-09
1.23196e-08
2.69796e-09
8.85739e-12
1.85406e-11
3.96649e-12
3.38151e-06
6.53656e-06
2.71553e-07
3.14389e-06
2.08807e-07
4.55535e-07
2.77411e-08
2.36031e-08
1.24669e-08
1.33758e-09
2.71357e-08
1.31768e-08
2.3131e-09
6.1414e-10
6.31958e-10
1.48579e-10
2.911e-11
1.24905e-09
2.53418e-10
6.26382e-11
1.22801e-11
5.66829e-07
9.93966e-07
0.154974
0.0217528
0.100234
0.00789587
0.00718573
0.035175
0.00012198
0.0055401
2.95683e-05
0.000642642
0.00355699
1.9025e-05
0.000189252
4.20562e-05
0.000224902
0.00024637
1.56215e-06
0.00122115
6.56839e-06
1.03674e-05
0.041399
0.0147291
0.000327919
1.41116e-06
7.24492e-06
3.89645e-09
4.47856e-08
6.7605e-08
1.96264e-09
1.93658e-07
2.27348e-09
2.22402e-09
0.000908899
1.71545e-05
7.97072e-05
1.25891e-06
2.92756e-06
7.58624e-06
2.6462e-05
1.45974e-06
3.02578e-10
1.03157e-08
3.17086e-10
5.31817e-09
4.46381e-10
6.33828e-09
2.76385e-10
3.52375e-08
5.51973e-10
1.82434e-09
2.31716e-06
1.24524e-06
3.26629e-07
4.7396e-08
2.89538e-06
7.16592e-07
2.08523e-07
6.64987e-06
4.4427e-06
1.20124e-05
3.40463e-07
3.76785e-05
6.72186e-07
4.06778e-06
8.83557e-07
1.73024e-08
1.37455e-07
4.72975e-08
2.00718e-07
9.1827e-08
5.53258e-07
2.08622e-08
1.42953e-07
2.61177e-09
6.40163e-09
4.17738e-08
8.11327e-08
1.40367e-09
1.2613e-08
2.52961e-09
2.1237e-08
3.81567e-10
2.91637e-08
8.08205e-10
5.82536e-09
1.19315e-07
3.61079e-09
2.09926e-08
6.28747e-07
2.67691e-08
6.44372e-08
1.4229e-09
3.7558e-09
8.22768e-09
7.71288e-12
1.58989e-10
1.02539e-11
1.18232e-10
9.93932e-12
1.39836e-10
6.58244e-12
2.14193e-10
2.80523e-11
5.73999e-11
9.18073e-05
3.55315e-05
7.42737e-05
9.50877e-07
0.000673328
8.36105e-06
1.01775e-05
0.000188524
0.00029786
2.19952e-06
2.05007e-05
1.82151e-05
1.12089e-05
2.2299e-07
2.04831e-06
2.92777e-07
2.73877e-06
1.25753e-06
3.23172e-06
6.96568e-07
2.48489e-06
7.02872e-08
1.29646e-07
9.36998e-07
1.32669e-06
3.89474e-08
1.28187e-07
7.24646e-08
1.1833e-08
1.9762e-09
1.49959e-07
3.3465e-08
7.78254e-09
1.94287e-07
3.21963e-08
3.1092e-07
4.70833e-09
3.68427e-07
1.21838e-08
7.18955e-08
1.96089e-08
3.81359e-10
2.44696e-09
7.12214e-10
5.49498e-09
1.69209e-09
8.98015e-09
9.72983e-10
6.78243e-09
1.28767e-10
2.64045e-10
2.22722e-09
4.01155e-09
5.69615e-11
3.05465e-10
5.57956e-11
4.20776e-10
1.86413e-11
6.37114e-10
2.13965e-11
1.1996e-10
8.42896e-06
9.7282e-08
1.11279e-06
2.44337e-07
2.21722e-06
1.8946e-08
2.84421e-08
1.34929e-07
9.89033e-10
1.26407e-10
5.28776e-10
2.84466e-09
3.6703e-10
8.26642e-10
2.92895e-11
7.46304e-11
1.36354e-10
4.89551e-12
3.35507e-12
1.77194e-12
7.69277e-07
7.60072e-05
4.74618e-07
3.36896e-06
3.19124e-06
7.35478e-06
3.52599e-07
5.20976e-08
1.11774e-08
8.65331e-07
7.37269e-09
7.75667e-08
6.02331e-07
4.36572e-09
1.44198e-08
5.73376e-11
7.86487e-10
7.97924e-10
3.93572e-11
9.66743e-10
5.53045e-11
4.03556e-11
0.0013106
2.27774
4.47247e-05
1.75338
0.000323872
0.843754
5.82873e-06
3.02202e-08
5.81232e-08
2.22757e-09
2.03959e-07
1.53737e-08
1.58149e-08
9.73963e-10
4.41715e-09
2.33973e-09
2.37094e-10
6.90985e-09
2.36879e-09
4.19674e-10
9.20586e-11
0.000633674
0.00104753
0.134982
0.00115474
0.00190812
5.78543e-05
4.72971e-07
2.72364e-06
1.14842e-07
3.43391e-06
2.01511e-07
9.51725e-07
3.96506e-08
9.06358e-10
9.61861e-11
4.56139e-11
1.03185e-09
3.23818e-10
5.46193e-11
1.78323e-11
1.67382e-05
0.00040426
3.23298e-06
2.07235e-05
1.85449e-06
1.05406e-05
4.20693e-07
6.03585e-08
1.30814e-07
7.10642e-09
1.05041e-07
4.18774e-08
1.7669e-08
2.8847e-09
1.45977e-10
1.10693e-11
6.78339e-12
1.39852e-10
5.76672e-11
6.6728e-12
2.56538e-12
3.14324e-05
2.6032e-07
5.9092e-07
2.21681e-06
3.82744e-06
7.66711e-08
1.02778e-06
7.39574e-08
5.89137e-07
8.28147e-09
6.80832e-07
1.78645e-08
1.50849e-07
2.46899e-07
1.32718e-05
0.00198936
5.14198e-06
0.000149952
1.85566e-06
0.0001312
5.44312e-07
1.67473e-11
3.79623e-12
8.15877e-13
2.61146e-11
6.0628e-12
1.36812e-12
2.73212e-13
1.99061e-06
1.68499e-07
3.98096e-09
8.08375e-11
1.6959e-12
325.019
447.358
273.854
168.211
129.798
277.233
0.071384
366.376
164.827
298.184
61.7012
17.7571
22.1891
184.524
5.57404
90.7268
0.00021509
0.000161256
0.00221111
83.0962
0.281764
3.7752e-06
9.32504e-07
4.94704e-06
1.16318e-08
2.20176e-08
2.64626e-10
1.1811e-11
4.27463e-13
6.18456e-15
0
5.63804e-10
5.74556e-12
2.61086e-13
3.51671e-15
0
0
1.31726e-11
7.0504e-13
1.94026e-14
0
0
0
1.08412e-13
1.21266e-16
0
0
0
2.59024e-13
7.76102e-15
0
0
0
0
283.497
212.59
314.682
257.722
112.317
3.7798
93.1012
102.664
1.42356
30.0687
278.042
153.975
49.5683
124.644
59.5749
194.265
4.65761
0.0738569
0.0363981
8.50481
0.00175544
3.28167e-05
0.00217131
89.658
0.211429
0.00502093
0.0201764
0.00318151
24.0611
0.00556768
2.05857e-05
0.000114254
0.00620379
2.48198e-06
34.7658
114.478
27.887
373.087
258.679
0.763068
2.54039
0.0577397
5.95196
0.189534
4.16879e-06
6.1316e-06
2.54196e-07
0.000181621
2.21759e-05
7.70596e-06
290.801
198.928
348.981
194.243
183.566
327.884
308.195
365.657
364.228
419.842
315.801
256.952
159.877
112.628
233.3
154.038
289.139
209.208
27.3986
103.172
20.2966
80.7403
91.4141
15.5468
33.9655
2.58391
1.113
0.732391
3.83948
15.6659
57.7491
39.3282
2.16316
68.7173
7.87039
4.99672
0.962451
0.0600679
0.277378
0.20264
455.671
254.497
426.619
468.727
542.867
211.778
302.428
374.678
2.60863
1.74081
85.8411
5.2968
15.9742
0.13722
0.65186
165.884
288.636
249.037
191.932
78.196
62.9181
160.72
17.6042
147.239
20.4354
83.1548
84.1963
25.0761
93.8757
26.7522
24.8864
1.78306
0.150717
2.26915
2.47015
24.2982
3.16713
0.060881
12.8989
0.289193
0.893521
0.710011
1.58992
0.0233792
0.00221842
0.00764574
0.0259019
0.000621696
0.00401552
0.049707
0.00633409
6.52073e-05
0.103906
0.00134529
0.000258705
0.00015067
2.18968e-06
3.74577e-05
1.18954e-05
215.279
33.2857
122.231
47.1027
139.15
5.04282
6.46545
44.6189
0.0163315
0.00123129
0.135517
0.000117431
0.00297483
2.748e-06
6.54688e-05
1.15095
2.12788
5.05158
0.166526
0.0583632
0.0135426
0.0881251
0.00036531
0.286712
0.00280284
0.00798515
0.320176
0.00846419
0.0364006
0.0769353
0.0158519
8.6724e-05
0.000180489
0.000418148
0.000753302
0.00181141
0.00373966
1.20488e-05
0.000607388
4.75796e-06
1.68794e-05
3.12865e-05
0.000133657
1.40737e-06
0.227973
0.000197627
0.00634317
0.00118256
0.0089033
1.4291e-05
5.31794e-05
0.000356425
0.00183804
0.00151974
0.0139734
0.000198415
330.793
368.527
317.113
415.006
264.077
331.843
282.129
58.4647
200.396
24.8289
207.909
21.687
134.535
14.4694
227.309
315.496
155.954
265.994
64.7739
238.149
13.7842
5.90723
89.9333
0.0571138
19.9196
0.00356256
0.181521
0.0038692
33.9
145.472
0.631446
135.587
2.68191
92.2827
0.187321
0.0243502
0.0760626
7.67403
0.00864394
0.286076
0.000758007
0.0859827
0.000247749
24.2877
1.1903e-05
2.08813e-07
2.43391e-08
7.36078e-09
6.62376e-10
1.68974e-10
1.61673e-11
3.45559e-12
0.00824533
0.00737907
4.93691e-05
0.000294218
9.47361e-06
0.000673712
0.0398795
0.00428704
0.0159454
1.03054
0.127664
0.171175
3.69678e-06
0.000301388
2.0202e-05
0.00107944
0.000520833
0.00846356
7.2792e-05
0.000394107
0.00371145
4.38261e-05
0.00104
8.51461e-06
8.65727e-05
0.0224805
0.000786668
6.32371e-06
0.00130352
4.86247e-05
7.09407e-05
369.708
779.953
534.295
42.2595
0.00394053
600.043
487.326
623.702
417.537
91.0939
139.445
22.2028
0.162979
0.0263847
4.84096
0.54519
0.0437315
0.000590173
0.0297975
0.0869271
6.61018e-05
626.741
749.006
596.494
420.049
4.30824
0.000466967
0.0173914
5.28252e-05
2.30255e-05
400.793
524.46
480.353
579.262
507.273
459.06
418.422
540.823
421.371
471.443
695.232
356.006
321.245
268.06
201.875
82.799
168.612
277.497
32.125
3.01235
13.4398
0.677534
1.51571
5.43074
0.213814
9.34794
4.78431
7.45818
0.0740538
27.378
0.711552
1.28566
1.29919
0.0074274
0.00560051
0.0103378
0.0713276
0.132337
0.100183
0.278517
0.00392732
0.0369539
1.94923
0.00993881
0.217744
0.000888343
0.00125826
0.0181906
488.641
710.878
441.161
600.219
922.534
765.309
348.575
535.568
241.181
192.589
682.889
274.466
142.611
82.52
63.9702
2.78835
127.85
0.592715
705.874
625.787
815.644
690.589
609.315
795.956
721.028
666.85
652.242
520.639
705.315
572.086
756.96
612.873
1061.49
890.308
1027.51
835.191
899.105
969.625
467.153
457.894
644.546
449.763
550.721
372.023
566.301
355.915
327.842
157.319
308.445
262.549
452.673
239.114
822.342
580.079
729.654
439.671
430.901
603.254
98.2513
83.3044
174.754
25.8562
146.824
48.8106
85.3023
72.0391
9.10702
15.3665
21.6073
30.2341
43.253
49.3562
253.242
34.3774
114.723
4.47378
10.8797
39.2675
4.75743e-05
0.0216723
0.0131712
0.0155304
0.258363
0.213022
0.00133501
406.754
123.112
262.906
379.076
277.204
82.9913
244.096
161.835
84.8538
205.195
199.599
152.131
49.0663
6.42316
355.893
399.582
349.173
369.864
324.535
362.497
317.243
303.988
254.911
296.665
226.485
271.871
264.262
218.225
443.023
462.118
459.707
400.655
424.739
418.618
408.388
258.264
121.937
62.0305
33.1266
75.2162
291.551
225.165
478.083
530.328
544.347
612.596
549.216
543.312
622.626
330.963
340.71
296.387
390.297
340.763
352.737
307.801
232.745
194.212
242.94
244.689
287.526
254.576
207.483
231.097
222.984
197.363
191.331
182.583
164.011
155.201
432.316
399.038
382.526
372.574
357.818
390.111
341.398
357.778
417.23
408.406
430.982
424.711
379.829
388.974
492.26
394.101
439.599
573.692
454.931
506.341
518.64
174.177
156.325
128.192
212.417
187.039
170.97
143.326
351.71
319.922
307.346
267.556
326.65
310.352
283.222
0.0109871
8.49036
3.54986
135.836
1.888
100.714
0.217236
253.398
219.414
204.255
212.098
178.235
229.091
158.784
352.842
381.336
311.293
319.675
371.988
299.706
363.112
379.245
396.513
346.868
364.792
302.278
352.91
322.862
183.923
153.703
176.06
114.394
139.619
130.668
105.424
355.865
342.283
353.118
422.661
409.29
442.634
458.822
314.663
317.265
306.52
264.492
253.377
244.722
256.028
326.708
231.829
283.771
268.966
318.949
275.628
222.352
220.495
30.3182
62.7052
11.4886
0.00973509
31.5438
183.736
166.734
158.594
139.502
88.3868
138.45
117.129
109.766
378.765
299.187
307.742
340.051
375.464
401.555
455.582
174.948
181.293
230.97
222.102
112.775
164.503
171.682
305.453
262.037
250.252
330.412
288.462
276.651
341.401
326.417
294.307
313.378
245.696
344.358
275.484
296.324
230.333
186.3
162.473
223.341
276.819
214.031
288.179
128.686
78.783
103.626
142.735
165.535
118.685
93.4901
320.624
375.89
406.471
336.633
357.963
282.693
278.948
334.7
292.504
273.91
269.603
224.794
248.396
291.37
295.755
193.927
251.618
257.922
308.582
264.949
209.756
228.222
280.027
216.711
306.019
294.89
232.441
243.867
0.014541
2.78072
33.7528
0.00184544
11.7604
0.378115
0.00353338
218.431
186.342
163.79
107.859
164.98
190.807
135.131
80.4169
111.768
112.134
157.874
184.302
129.787
161.422
133.941
142.937
195.579
210.429
99.2805
150.775
158.983
142.018
75.414
132.216
59.4515
112.789
103.323
51.3598
0.00221244
4.37977e-05
0.0180473
3.09454
0.00024891
0.095518
2.17226e-05
289.257
250.209
281.283
198.504
229.995
221.424
189.634
175.034
209.082
253.031
262.136
197.573
241.241
186.465
198.662
228.209
253.623
305.621
224.126
253.602
276.527
215.679
280.475
207.27
174.754
262.608
235.372
152.292
119.914
116.411
89.9433
66.3235
41.8244
65.1526
92.5617
115.59
111.415
90.9742
65.5341
61.8407
85.6859
43.8809
29.572
102.886
75.5042
63.2798
119.183
90.7995
41.1401
127.148
103.04
94.0403
85.4497
76.743
53.6841
46.1136
293.379
280.9
268.667
233.082
205.234
221.26
192.479
155.402
114.455
123.455
45.9625
177.234
92.8925
100.979
255.943
161.688
193.83
239.183
270.158
209.355
177.386
302.82
253.023
239.291
169.269
246.735
230.007
197.363
37.3724
57.9347
87.8102
111.661
80.7982
135.287
105.33
67.8347
52.051
26.1499
115.474
82.1956
65.4292
36.6687
0.00727354
0.00178815
0.00520603
53.9428
15.0541
4.11637
22.0853
63.3445
39.5777
87.8634
79.007
17.2501
32.9148
55.3396
152.511
238.676
142.493
187.23
174.887
218.278
119.963
18.0006
8.5057
40.0257
83.6997
19.6005
62.7472
58.1619
196.028
111.717
184.863
175.521
112.52
102.585
186.696
241.219
168.877
199.387
228.501
135.83
168.897
205.765
130.906
188.795
120.081
149.167
228.707
216.955
160.38
167.462
211.436
157.271
154.573
144.938
99.4454
90.1956
168.362
136.005
104.572
104.208
78.7669
135.215
50.504
217.382
99.6853
164.376
192.055
183.591
241.791
126.996
45.1121
68.2223
66.8345
12.0362
25.316
44.7488
26.5018
16.14
33.621
53.7099
67.4443
11.635
24.7914
45.1886
51.6984
35.0039
63.4045
7.26816
37.5284
23.1613
15.7719
84.0409
156.843
146.009
162.527
99.6919
90.1963
173.564
109.278
54.1141
99.4151
18.0051
50.0446
42.6448
13.5545
116.016
127.432
64.2957
199.233
143.857
132.049
78.306
35.0772
59.7614
61.9602
6.82108
40.7263
18.8981
21.0794
166.591
68.0279
98.4069
126.846
162.873
194.447
94.6947
47.6589
52.589
103.506
130.614
28.2571
70.2184
76.7812
16.8786
39.4546
18.2395
52.2245
83.7395
54.3103
27.6746
129.981
90.7896
162.358
153.085
54.3304
82.1235
120.659
66.4704
41.1368
48.0512
103.722
136.829
126.273
113.837
8.42328
0.818161
3.19192
23.9994
21.7186
38.7596
11.1585
5.42339
23.602
29.3163
64.9685
56.8705
24.2894
19.0456
56.6836
98.6552
132.563
156.737
88.6262
121.414
65.2165
33.3745
97.2505
142.557
108.298
76.4112
48.9423
87.1023
101.552
189.425
91.3274
71.5218
159.285
133.513
44.0225
2.77674
2.52047
22.2953
9.46774
22.8284
8.54713
41.5028
1.27047e-05
0.000241888
3.15878e-05
0.00450838
0.000101571
1.88504e-06
1.07527e-05
56.8666
92.1936
123.969
140.236
44.3869
70.5553
107.959
4.64433
71.9032
23.7869
43.4041
86.7742
33.5966
8.7646
27.2229
18.2681
13.7693
5.42375
3.56885
1.82169
1.12758
0.00408638
0.000386989
4.39068e-06
3.73624e-05
2.53841e-06
7.43707e-06
0.000598171
1.22973e-05
3.83399e-05
0.000953166
4.89993e-05
0.0043344
0.0106391
3.20559e-05
2.72491
10.2736
0.620207
15.5073
5.24074
1.17877
0.254948
38.5733
5.86221
32.0278
1.66506
16.5994
12.3885
1.01278
8.47573
19.7869
41.707
0.564162
3.39136
2.28581
10.098
19.4799
24.1252
43.0681
3.41767
0.496481
2.27006
10.9741
0.804935
10.124
16.867
34.8497
7.34071
46.6012
13.0321
40.0369
134.682
42.0998
69.3169
68.7156
99.8273
19.7451
41.9868
27.2819
11.6708
82.9949
74.0327
104.649
54.5672
1.47289
15.6565
3.99151
3.32426
24.0785
7.855
0.511414
0.832805
4.5638
0.250464
19.476
8.84738
1.91295
0.580531
4.70297e-08
1.53532e-09
6.05087e-07
7.85073e-08
1.762e-09
3.97771e-11
0.682974
2.65848e-07
1.03385e-08
2.45227e-10
5.10168e-12
4.15506e-05
3.02221e-08
8.17296e-10
4.19233e-11
1.91314e-11
9.80071e-13
3.8223e-13
1.18841e-14
0.000725524
3.13829e-08
2.73555e-07
9.95209e-09
9.52147e-08
2.83185e-09
2.21204e-08
5.45867e-10
1.51349e-06
3.98081e-08
1.30694e-09
3.55627e-11
1.8189e-09
5.91786e-11
1.62436e-12
6.06425e-11
1.9885e-12
4.48684e-14
0.0246904
1.67687e-12
4.48684e-14
0
3.17717e-14
0
0
0
0
0
7.0235e-05
8.24679e-06
0.00875625
0.000268454
5.36822e-06
4.35107e-05
0.0307095
0.27825
2.25677e-05
0.00169989
3.67875e-05
1.38647e-05
0.000411323
0.144036
1.10337e-05
3.55979e-05
0.000179684
0.00112853
0.138346
0.608618
0.000411741
47.9527
27.0757
30.5317
0.981693
75.3632
10.9863
13.0736
30.305
11.7108
15.309
62.7042
54.5597
79.3143
88.6441
33.7713
43.0882
8.30735
19.1119
117.333
54.6793
64.9048
1.9295
0.63791
7.02893
55.5742
10.2098
14.455
38.8345
0.0456775
0.935698
0.20961
0.842893
3.58459
11.4282
4.01883
86.1133
24.7802
77.4732
7.43716
41.4084
34.9009
5.23711
46.542
46.6446
39.8034
11.1414
8.34403
6.03681
8.25456
2.13612e-05
3.63579e-05
0.00641272
1.65099e-05
0.000365509
1.34244e-06
1.76775e-05
4.707
22.7302
1.56237
11.8718
0.974726
3.14142
0.084395
8.60417
1.72939
5.96386
0.145999
0.569514
0.350938
0.088105
8.02954
0.602532
2.02968
0.137072
0.4317
0.0885943
0.0258416
1.36114e-05
2.82042e-06
0.000459283
1.96228e-05
5.94847e-05
4.81753e-06
1.13876e-06
0.000158844
2.22021e-05
0.0018607
0.000135856
1.52235e-05
6.86885e-07
5.29825e-06
0.525321
0.0221944
0.158318
0.45251
8.16556
3.09764
1.51974
0.285766
0.547433
3.35992
4.4918
22.8011
0.76981
7.71772
1.49511
52.9298
18.5055
18.1685
66.2048
26.979
3.10028
27.0631
2.67834
1.82111
37.354
31.326
3.67664
5.20588
0.304371
0.0935925
1.77478
0.0882838
0.0261115
0.538469
1.9496
1.79397
9.4488
2.06252
0.105484
0.0141528
0.665691
0.091871
5.44614
0.742879
1.15161
13.1337
38.0112
31.5896
17.1729
0.123163
0.525404
0.413177
8.45203
0.0935324
1.93888
2.42972
5.64616
4.72623
1.3118
18.6032
38.2906
60.2991
35.359
1.50593
0.0751442
0.0184842
0.884296
3.38768
0.179493
0.0441963
31.8482
11.4713
26.2933
0.923599
3.83022
2.59398
0.598342
0.436037
16.1755
34.7419
23.4921
4.84871
2.38201
8.6358
0.586585
0.198868
2.29325
4.81874
38.5422
24.3957
10.6793
0.0184857
0.208639
0.345034
0.198074