/*--------------------------------*- C++ -*----------------------------------*\
  =========                 |
  \\      /  F ield         | OpenFOAM: The Open Source CFD Toolbox
   \\    /   O peration     | Website:  https://openfoam.org
    \\  /    A nd           | Version:  9
     \\/     M anipulation  |
\*---------------------------------------------------------------------------*/
FoamFile
{
    format      ascii;
    class       volScalarField;
    location    "0.00145";
    object      rho;
}
// * * * * * * * * * * * * * * * * * * * * * * * * * * * * * * * * * * * * * //

dimensions      [1 -3 0 0 0 0 0];

internalField   nonuniform List<scalar> 
11670
(
1.225
1.225
1.225
1.225
1.225
1.225
1.225
1.225
1.225
1.22509
1.225
1.225
1.225
1.225
1.225
1.225
1.225
1.225
1.225
1.225
1.225
1.225
1.225
1.225
1.225
1.225
1.225
1.225
1.225
1.22501
1.2254
1.22505
1.225
1.22502
1.225
1.225
1.225
1.225
1.225
1.225
1.225
1.225
1.225
1.225
1.225
1.225
1.225
1.225
1.225
1.225
1.225
1.225
1.225
1.225
1.225
1.225
1.225
1.225
1.225
1.225
1.225
1.225
1.225
1.225
1.225
1.225
1.225
1.225
1.225
1.225
1.225
1.225
1.225
1.225
1.225
1.225
1.225
1.225
1.225
1.225
1.225
1.225
1.225
1.225
1.225
1.225
1.225
1.225
1.225
1.225
1.225
1.225
1.225
1.225
1.225
1.225
1.225
1.225
1.225
1.225
1.225
1.225
1.225
1.225
1.225
1.225
1.225
1.225
1.225
1.225
1.225
1.225
1.225
1.225
1.225
1.225
1.225
1.225
1.225
1.225
1.225
1.225
1.225
1.225
1.225
1.225
1.225
1.225
1.225
1.225
1.225
1.225
1.225
1.225
1.225
1.225
1.225
1.225
1.225
1.225
1.225
1.225
1.225
1.225
1.225
1.225
1.225
1.225
1.225
1.225
1.225
1.225
1.225
1.225
1.225
1.225
1.225
1.225
1.225
1.225
1.225
1.225
1.225
1.225
1.225
1.225
1.225
1.225
1.225
1.225
1.225
1.225
1.225
1.225
1.225
1.225
1.225
1.225
1.225
1.225
1.225
1.225
1.225
1.225
1.225
1.225
1.225
1.225
1.225
1.225
1.225
1.225
1.225
1.225
1.225
1.225
1.225
1.225
1.225
1.225
1.225
1.225
1.225
1.225
1.225
1.225
1.225
1.225
1.225
1.225
1.225
1.225
1.225
1.225
1.225
1.225
1.225
1.225
1.225
1.225
1.225
1.225
1.225
1.225
1.225
1.225
1.225
1.225
1.225
1.225
1.225
1.225
1.225
1.225
1.225
1.225
1.225
1.225
1.225
1.225
1.225
1.225
1.225
1.225
1.225
1.225
1.225
1.225
1.225
1.225
1.225
1.225
1.225
1.225
1.225
1.225
1.225
1.225
1.225
1.225
1.225
1.225
1.225
1.225
1.225
1.225
1.225
1.225
1.225
1.225
1.225
1.225
1.225
1.225
1.225
1.225
1.225
1.225
1.225
1.225
1.225
1.225
1.225
1.225
1.225
1.225
1.225
1.225
1.225
1.225
1.225
1.225
1.225
1.225
1.225
1.225
1.225
1.225
1.225
1.225
1.225
1.225
1.225
1.225
1.225
1.225
1.225
1.225
1.225
1.225
1.225
1.225
1.225
1.225
1.225
1.225
1.225
1.225
1.225
1.225
1.225
1.225
1.225
1.225
1.225
1.225
1.225
1.225
1.225
1.225
1.225
1.225
1.225
1.225
1.225
1.225
1.225
1.225
1.225
1.225
1.225
1.225
1.225
1.225
1.225
1.225
1.225
1.225
1.225
1.225
1.225
1.225
1.225
1.225
1.225
1.225
1.225
1.225
1.225
1.225
1.225
1.225
1.225
1.225
1.225
1.225
1.225
1.225
1.225
1.225
1.225
1.225
1.225
1.225
1.225
1.225
1.225
1.225
1.225
1.225
1.225
1.225
1.225
1.225
1.225
1.225
1.225
1.225
1.225
1.225
1.225
1.225
1.225
1.225
1.225
1.225
1.225
1.225
1.225
1.225
1.225
1.225
1.225
1.225
1.225
1.225
1.225
1.225
1.225
1.225
1.225
1.225
1.225
1.225
1.225
1.225
1.225
1.225
1.225
1.225
1.225
1.225
1.225
1.225
1.225
1.225
1.225
1.225
1.225
1.225
1.225
1.225
1.225
1.225
1.225
1.225
1.225
1.225
1.225
1.225
1.225
1.225
1.225
1.225
1.225
1.225
1.225
1.225
1.225
1.225
1.225
1.225
1.225
1.225
1.225
1.225
1.225
1.225
1.225
1.225
1.225
1.225
1.225
1.225
1.225
1.225
1.225
1.225
1.225
1.225
1.225
1.225
1.225
1.225
1.225
1.225
1.225
1.225
1.225
1.225
1.225
1.225
1.225
1.225
1.225
1.225
1.225
1.225
1.225
1.225
1.225
1.225
1.225
1.225
1.225
1.225
1.225
1.225
1.225
1.225
1.225
1.225
1.225
1.225
1.225
1.225
1.225
1.225
1.225
1.225
1.225
1.225
1.225
1.225
1.225
1.225
1.225
1.225
1.225
1.225
1.225
1.225
1.225
1.225
1.225
1.225
1.225
1.225
1.225
1.225
1.225
1.225
1.225
1.225
1.225
1.225
1.225
1.225
1.225
1.225
1.225
1.225
1.225
1.225
1.225
1.225
1.225
1.225
1.225
1.225
1.225
1.225
1.225
1.225
1.225
1.225
1.225
1.225
1.225
1.225
1.225
1.225
1.225
1.225
1.225
1.225
1.225
1.225
1.225
1.225
1.225
1.225
1.225
1.225
1.225
1.225
1.225
1.225
1.225
1.225
1.225
1.225
1.225
1.225
1.225
1.225
1.225
1.225
1.225
1.225
1.225
1.225
1.225
1.225
1.225
1.225
1.225
1.225
1.225
1.225
1.225
1.225
1.225
1.225
1.225
1.225
1.225
1.225
1.225
1.225
1.225
1.225
1.225
1.225
1.225
1.225
1.225
1.225
1.225
1.225
1.225
1.225
1.225
1.225
1.225
1.225
1.225
1.225
1.225
1.225
1.225
1.225
1.225
1.225
1.225
1.225
1.225
1.225
1.225
1.225
1.225
1.225
1.225
1.225
1.225
1.225
1.225
1.225
1.225
1.225
1.225
1.225
1.225
1.225
1.225
1.225
1.225
1.225
1.225
1.225
1.225
1.225
1.225
1.225
1.225
1.225
1.225
1.225
1.225
1.225
1.225
1.225
1.225
1.225
1.225
1.225
1.225
1.225
1.225
1.225
1.225
1.225
1.225
1.225
1.225
1.225
1.225
1.225
1.225
1.225
1.225
1.225
1.225
1.225
1.225
1.225
1.225
1.225
1.225
1.225
1.225
1.225
1.225
1.225
1.225
1.225
1.225
1.225
1.225
1.225
1.225
1.225
1.225
1.225
1.225
1.225
1.225
1.225
1.225
1.225
1.225
1.225
1.225
1.225
1.225
1.225
1.225
1.225
1.225
1.225
1.225
1.225
1.225
1.225
1.225
1.225
1.225
1.225
1.225
1.225
1.225
1.225
1.225
1.225
1.225
1.225
1.225
1.225
1.225
1.225
1.225
1.225
1.225
1.225
1.225
1.225
1.225
1.225
1.225
1.225
1.225
1.225
1.225
1.225
1.225
1.225
1.225
1.225
1.225
1.225
1.225
1.225
1.225
1.225
1.225
1.225
1.225
1.225
1.225
1.225
1.225
1.225
1.225
1.225
1.225
1.225
1.225
1.225
1.225
1.225
1.225
1.225
1.225
1.225
1.225
1.225
1.225
1.225
1.225
1.225
1.225
1.225
1.225
1.225
1.225
1.225
1.225
1.225
1.225
1.225
1.225
1.225
1.225
1.225
1.225
1.225
1.225
1.225
1.225
1.225
1.225
1.225
1.225
1.225
1.225
1.225
1.225
1.225
1.225
1.225
1.225
1.225
1.225
1.225
1.225
1.225
1.225
1.225
1.225
1.225
1.225
1.225
1.225
1.225
1.225
1.225
1.225
1.225
1.225
1.225
1.225
1.225
1.225
1.225
1.225
1.225
1.225
1.225
1.225
1.225
1.225
1.225
1.225
1.225
1.225
1.225
1.225
1.225
1.225
1.225
1.225
1.225
1.225
1.225
1.225
1.225
1.225
1.225
1.225
1.225
1.225
1.225
1.225
1.225
1.225
1.225
1.225
1.225
1.225
1.225
1.225
1.225
1.225
1.225
1.225
1.225
1.225
1.225
1.225
1.225
1.225
1.225
1.225
1.225
1.225
1.225
1.225
1.225
1.225
1.225
1.225
1.225
1.225
1.225
1.225
1.225
1.225
1.225
1.225
1.225
1.225
1.225
1.225
1.225
1.225
1.225
1.225
1.225
1.225
1.225
1.225
1.225
1.225
1.225
1.225
1.225
1.225
1.225
1.225
1.225
1.225
1.225
1.225
1.225
1.225
1.225
1.225
1.225
1.225
1.225
1.225
1.225
1.225
1.225
1.225
1.225
1.225
1.225
1.225
1.225
1.225
1.225
1.225
1.225
1.225
1.225
1.225
1.225
1.225
1.225
1.225
1.225
1.225
1.225
1.225
1.225
1.225
1.225
1.225
1.225
1.225
1.225
1.225
1.225
1.225
1.225
1.225
1.225
1.225
1.225
1.225
1.225
1.225
1.225
1.225
1.225
1.225
1.225
1.225
1.225
1.225
1.225
1.225
1.225
1.225
1.225
1.225
1.225
1.225
1.225
1.225
1.225
1.225
1.225
1.225
1.225
1.225
1.225
1.225
1.225
1.225
1.225
1.225
1.225
1.225
1.225
1.225
1.225
1.225
1.225
1.225
1.225
1.225
1.225
1.225
1.225
1.225
1.225
1.225
1.225
1.225
1.225
1.225
1.225
1.225
1.225
1.225
1.225
1.225
1.225
1.225
1.225
1.225
1.225
1.225
1.225
1.225
1.225
1.225
1.225
1.225
1.225
1.225
1.225
1.225
1.225
1.225
1.225
1.225
1.225
1.225
1.225
1.225
1.225
1.225
1.225
1.225
1.225
1.225
1.225
1.225
1.225
1.225
1.225
1.225
1.225
1.225
1.225
1.225
1.225
1.225
1.225
1.225
1.225
1.225
1.225
1.225
1.225
1.225
1.225
1.225
1.225
1.225
1.225
1.225
1.225
1.225
1.225
1.225
1.225
1.225
1.225
1.225
1.225
1.225
1.225
1.225
1.225
1.225
1.225
1.225
1.225
1.225
1.225
1.225
1.225
1.225
1.225
1.225
1.225
1.225
1.225
1.225
1.225
1.225
1.225
1.225
1.225
1.225
1.225
1.225
1.225
1.225
1.225
1.225
1.225
1.225
1.225
1.225
1.225
1.225
1.225
1.225
1.225
1.225
1.225
1.225
1.225
1.225
1.225
1.225
1.225
1.225
1.225
1.225
1.225
1.225
1.225
1.225
1.225
1.225
1.225
1.225
1.225
1.225
1.225
1.225
1.225
1.225
1.225
1.225
1.225
1.225
1.225
1.225
1.225
1.225
1.225
1.225
1.225
1.225
1.225
1.225
1.225
1.225
1.225
1.225
1.225
1.225
1.225
1.225
1.225
1.225
1.225
1.225
1.225
1.225
1.225
1.225
1.225
1.225
1.225
1.225
1.225
1.225
1.225
1.225
1.225
1.225
1.225
1.225
1.225
1.225
1.225
1.225
1.225
1.225
1.225
1.225
1.225
1.225
1.225
1.225
1.225
1.225
1.225
1.225
1.225
1.225
1.225
1.225
1.225
1.225
1.225
1.225
1.225
1.225
1.225
1.225
1.225
1.225
1.225
1.225
1.225
1.225
1.225
1.225
1.225
1.225
1.225
1.225
1.225
1.225
1.225
1.225
1.225
1.225
1.225
1.225
1.225
1.225
1.225
1.225
1.225
1.225
1.225
1.225
1.225
1.225
1.225
1.225
1.225
1.225
1.225
1.225
1.225
1.225
1.225
1.225
1.225
1.225
1.225
1.225
1.225
1.225
1.225
1.225
1.225
1.225
1.225
1.225
1.225
1.225
1.225
1.225
1.225
1.225
1.225
1.225
1.225
1.225
1.225
1.225
1.225
1.225
1.225
1.225
1.225
1.225
1.225
1.225
1.225
1.225
1.225
1.225
1.225
1.225
1.225
1.225
1.225
1.225
1.225
1.225
1.225
1.225
1.225
1.225
1.225
1.225
1.225
1.225
1.225
1.225
1.225
1.225
1.225
1.225
1.225
1.225
1.225
1.225
1.225
1.225
1.225
1.225
1.225
1.225
1.225
1.225
1.225
1.225
1.225
1.225
1.225
1.225
1.225
1.225
1.225
1.225
1.225
1.225
1.225
1.225
1.225
1.225
1.225
1.225
1.225
1.225
1.225
1.225
1.225
1.225
1.225
1.225
1.225
1.225
1.225
1.225
1.225
1.225
1.225
1.225
1.225
1.225
1.225
1.225
1.225
1.225
1.225
1.225
1.225
1.225
1.225
1.225
1.225
1.225
1.225
1.225
1.225
1.225
1.225
1.225
1.225
1.225
1.225
1.225
1.225
1.225
1.225
1.225
1.225
1.225
1.225
1.225
1.225
1.225
1.225
1.225
1.225
1.225
1.225
1.225
1.225
1.225
1.225
1.225
1.225
1.225
1.225
1.225
1.225
1.225
1.225
1.225
1.225
1.225
1.225
1.225
1.225
1.225
1.225
1.225
1.225
1.225
1.225
1.225
1.225
1.225
1.225
1.225
1.225
1.225
1.225
1.225
1.225
1.225
1.225
1.225
1.225
1.225
1.225
1.225
1.225
1.225
1.225
1.225
1.225
1.225
1.225
1.225
1.225
1.225
1.225
1.225
1.225
1.225
1.225
1.225
1.225
1.225
1.225
1.225
1.225
1.225
1.225
1.225
1.225
1.225
1.225
1.225
1.225
1.225
1.225
1.225
1.225
1.225
1.225
1.225
1.225
1.225
1.225
1.225
1.225
1.225
1.225
1.225
1.225
1.225
1.225
1.225
1.225
1.225
1.225
1.225
1.225
1.225
1.225
1.225
1.225
1.225
1.225
1.225
1.22501
1.225
1.225
1.225
1.225
1.225
1.225
1.225
1.225
1.225
1.225
1.225
1.225
1.225
1.225
1.225
1.225
1.225
1.225
1.225
1.225
1.225
1.225
1.225
1.225
1.225
1.225
1.225
1.225
1.225
1.225
1.225
1.225
1.225
1.225
1.225
1.225
1.225
1.225
1.225
1.225
1.225
1.225
1.225
1.225
1.225
1.225
1.225
1.225
1.225
1.225
1.225
1.225
1.225
1.225
1.225
1.225
1.225
1.225
1.225
1.225
1.225
1.225
1.225
1.225
1.225
1.225
1.225
1.225
1.225
1.225
1.225
1.225
1.225
1.225
1.225
1.225
1.225
1.225
1.225
1.225
1.225
1.225
1.225
1.225
1.225
1.225
1.225
1.225
1.225
1.225
1.225
1.225
1.225
1.225
1.225
1.225
1.225
1.225
1.225
1.225
1.225
1.225
1.225
1.225
1.225
1.225
1.225
1.225
1.225
1.225
1.225
1.225
1.225
1.225
1.225
1.225
1.225
1.225
1.225
1.225
1.225
1.225
1.225
1.225
1.225
1.225
1.225
1.225
1.225
1.225
1.225
1.225
1.225
1.225
1.225
1.225
1.225
1.225
1.225
1.225
1.225
1.225
1.225
1.225
1.225
1.225
1.225
1.225
1.225
1.225
1.225
1.225
1.225
1.225
1.225
1.225
1.225
1.225
1.225
1.225
1.225
1.225
1.225
1.225
1.225
1.225
1.225
1.225
1.225
1.225
1.225
1.225
1.225
1.225
1.225
1.225
1.225
1.225
1.225
1.225
1.225
1.225
1.225
1.225
1.225
1.225
1.225
1.225
1.225
1.225
1.225
1.225
1.225
1.225
1.225
1.225
1.225
1.225
1.225
1.225
1.225
1.225
1.225
1.225
1.225
1.225
1.225
1.225
1.225
1.225
1.225
1.225
1.225
1.225
1.225
1.225
1.225
1.225
1.225
1.225
1.225
1.225
1.225
1.225
1.225
1.225
1.225
1.225
1.225
1.225
1.225
1.225
1.225
1.225
1.225
1.225
1.225
1.225
1.225
1.225
1.225
1.225
1.225
1.225
1.225
1.225
1.225
1.225
1.225
1.225
1.225
1.225
1.225
1.225
1.225
1.225
1.225
1.225
1.225
1.225
1.225
1.225
1.225
1.225
1.225
1.225
1.225
1.225
1.225
1.225
1.225
1.225
1.225
1.225
1.225
1.225
1.225
1.225
1.225
1.225
1.225
1.225
1.225
1.225
1.225
1.225
1.225
1.225
1.225
1.225
1.225
1.225
1.225
1.225
1.225
1.225
1.225
1.225
1.225
1.225
1.225
1.225
1.225
1.225
1.225
1.225
1.225
1.225
1.225
1.225
1.225
1.225
1.225
1.225
1.225
1.225
1.225
1.225
1.225
1.225
1.225
1.225
1.225
1.225
1.225
1.225
1.225
1.225
1.225
1.225
1.225
1.225
1.225
1.33239
2.39371
1.22501
1.225
1.25684
1.225
1.225
1.22551
1.225
1.225
1.27854
1.225
1.225
1.22538
1.225
1.225
1.225
1.225
1.22508
1.225
1.225
1.225
1.225
1.225
1.225
1.225
1.225
1.225
1.225
1.225
1.22587
1.225
1.225
1.225
1.225
1.225
1.225
1.225
1.225
1.225
1.225
1.225
1.225
1.225
1.22502
1.225
1.225
1.225
1.225
1.225
1.225
1.225
1.225
1.225
1.225
1.225
1.225
1.225
1.225
1.225
1.225
1.225
1.225
1.225
1.225
1.225
1.225
1.225
1.225
1.225
1.225
1.225
1.225
1.23441
1.22556
1.225
1.22532
1.225
1.23727
1.225
1.22502
1.225
1.24226
1.22605
1.225
1.22503
1.225
1.225
1.22508
1.225
1.22514
1.225
1.225
1.225
1.225
1.225
1.225
1.225
1.225
1.225
1.225
1.225
1.225
1.225
1.225
1.225
1.225
1.225
1.225
1.225
1.225
1.225
1.225
1.225
1.22506
1.225
1.22889
1.22502
1.22501
1.225
1.225
1.225
1.225
1.225
1.225
1.225
1.225
1.225
1.225
1.225
1.225
1.225
1.225
1.225
1.225
1.225
1.225
1.225
1.225
1.225
1.225
1.225
1.225
1.225
1.22501
1.22533
1.22501
1.225
1.225
1.225
1.225
1.225
1.225
1.225
1.225
1.225
1.225
1.225
1.225
1.225
1.225
1.225
1.225
1.225
1.225
1.225
1.225
1.225
1.225
1.225
1.225
1.225
1.225
1.225
1.225
1.225
1.225
1.225
1.225
1.225
1.225
1.225
1.225
1.225
1.225
1.225
1.225
1.225
1.225
1.2609
1.2313
1.24922
1.22747
1.22708
1.23428
1.22504
1.22656
1.22501
1.22521
1.22602
1.22501
1.22506
1.22501
1.22508
1.22508
1.225
1.22537
1.225
1.225
1.2366
1.22956
1.22512
1.225
1.225
1.225
1.225
1.225
1.225
1.225
1.225
1.225
1.22529
1.22501
1.22503
1.225
1.225
1.225
1.22501
1.225
1.225
1.225
1.225
1.225
1.225
1.225
1.225
1.225
1.225
1.225
1.225
1.225
1.225
1.225
1.225
1.225
1.225
1.225
1.225
1.225
1.225
1.22501
1.225
1.225
1.225
1.225
1.225
1.225
1.225
1.225
1.225
1.225
1.225
1.225
1.225
1.225
1.225
1.225
1.225
1.225
1.225
1.225
1.225
1.225
1.225
1.225
1.225
1.225
1.225
1.225
1.225
1.225
1.225
1.225
1.225
1.225
1.225
1.225
1.225
1.225
1.225
1.225
1.225
1.225
1.22502
1.22501
1.22502
1.225
1.22518
1.225
1.225
1.22505
1.22508
1.225
1.22501
1.225
1.225
1.225
1.225
1.225
1.225
1.225
1.225
1.225
1.225
1.225
1.225
1.225
1.225
1.225
1.225
1.225
1.225
1.225
1.225
1.225
1.225
1.225
1.225
1.225
1.225
1.225
1.225
1.225
1.225
1.225
1.225
1.225
1.225
1.225
1.225
1.225
1.225
1.225
1.225
1.225
1.225
1.225
1.225
1.225
1.225
1.225
1.225
1.225
1.225
1.225
1.225
1.225
1.225
1.225
1.225
1.225
1.225
1.225
1.225
1.225
1.225
1.225
1.225
1.225
1.225
1.225
1.225
1.225
1.225
1.225
1.22502
1.225
1.225
1.225
1.225
1.225
1.225
1.225
1.225
1.225
1.225
1.225
1.225
1.225
1.225
1.225
1.225
1.225
1.225
1.225
1.225
1.22537
1.60192
1.22501
1.53249
1.22509
1.38837
1.225
1.225
1.225
1.225
1.225
1.225
1.225
1.225
1.225
1.225
1.225
1.225
1.225
1.225
1.225
1.22516
1.22528
1.25218
1.22528
1.22544
1.22502
1.225
1.225
1.225
1.225
1.225
1.225
1.225
1.225
1.225
1.225
1.225
1.225
1.225
1.225
1.225
1.2251
1.225
1.225
1.225
1.225
1.225
1.225
1.225
1.225
1.225
1.225
1.225
1.225
1.225
1.225
1.225
1.225
1.225
1.225
1.225
1.22501
1.225
1.225
1.225
1.225
1.225
1.225
1.225
1.225
1.225
1.225
1.225
1.225
1.225
1.225
1.22561
1.225
1.22504
1.225
1.22504
1.225
1.225
1.225
1.225
1.225
1.225
1.225
1.225
1.225
1.225
1.225
1.225
1.225
1.32312
0.968411
1.59909
2.4826
4.94034
1.92997
1.24181
1.44786
2.88959
2.15385
3.25578
2.79682
2.55508
1.9466
1.98937
3.36176
1.22505
1.22507
1.22554
2.69375
1.28553
1.225
1.225
1.225
1.225
1.225
1.225
1.225
1.225
1.225
1.225
1.225
1.225
1.225
1.225
1.225
1.225
1.225
1.225
1.225
1.225
1.225
1.225
1.225
1.225
1.225
1.225
1.225
1.225
1.225
1.225
1.225
1.225
1.225
2.44838
4.70737
1.8002
1.83687
4.67108
1.78774
4.54336
3.08787
1.48928
3.54349
5.27809
4.97651
3.9609
3.1683
4.32274
3.19398
1.98714
1.24633
1.23478
2.30751
1.22554
1.22501
1.22578
4.63261
1.27534
1.22679
1.2298
1.22606
2.72326
1.22635
1.22501
1.22504
1.22718
1.225
3.57036
4.7878
3.28787
5.211
5.61859
1.36788
1.59987
1.2413
1.9988
1.27333
1.225
1.225
1.225
1.22505
1.22501
1.225
3.54647
3.7663
4.22504
4.6744
3.77573
4.27214
3.49168
3.37958
4.23317
3.83353
3.74542
3.69798
4.6977
4.03264
4.72272
3.86775
4.4356
3.99212
3.16572
3.83735
3.09722
4.40041
3.79149
2.81756
3.3433
1.66052
1.43633
1.3722
1.82036
2.74983
4.15837
3.54513
1.60178
3.75772
2.23758
1.9765
1.41633
1.24179
1.28912
1.27245
4.90139
5.18527
4.93163
4.65817
4.24131
5.09497
5.16909
5.03576
1.6067
1.49771
4.53263
1.90135
2.68998
1.25879
1.34858
4.81425
4.83986
4.32859
5.31928
4.38741
3.99715
4.95958
2.98274
4.35157
3.12654
4.77179
4.74068
3.56486
5.15259
3.61896
3.43117
1.54389
1.26371
1.62401
1.68133
3.39375
1.80068
1.2415
2.67137
1.29341
1.40445
1.37599
1.53472
1.23233
1.2257
1.22753
1.23224
1.22523
1.22625
1.23981
1.22691
1.22503
1.25245
1.22549
1.22508
1.22505
1.225
1.22501
1.225
5.23872
3.4884
5.07494
4.11591
5.48066
1.86178
2.0017
3.89147
1.23018
1.22547
1.25932
1.22505
1.22609
1.225
1.22503
1.4441
1.62176
2.02607
1.26442
1.23858
1.22867
1.24957
1.2251
1.29091
1.22572
1.22717
1.29058
1.22707
1.23355
1.24238
1.22879
1.22502
1.22505
1.22511
1.22519
1.22546
1.22593
1.225
1.22518
1.225
1.225
1.22501
1.22503
1.225
1.27955
1.22508
1.22718
1.22533
1.22772
1.225
1.22502
1.22512
1.22549
1.2254
1.22845
1.22505
1.33688
1.30678
1.40394
1.10185
1.77664
1.42568
1.58922
3.01616
2.17003
2.78057
2.19326
2.73291
2.87689
2.48561
2.36504
1.79129
2.98979
1.91956
3.54868
2.42241
2.74533
2.00683
3.254
1.24012
2.97239
1.22598
1.26873
1.22616
3.10193
2.63119
1.34456
2.14962
1.64167
2.69466
1.26281
1.23087
1.24153
2.15428
1.22705
1.28409
1.22519
1.24481
1.22506
2.53416
1.225
1.225
1.225
1.225
1.225
1.225
1.225
1.225
1.22681
1.22697
1.22502
1.22509
1.225
1.22521
1.23367
1.22622
1.22936
1.36707
1.25269
1.26077
1.225
1.22509
1.22501
1.22533
1.22516
1.2274
1.22502
1.22511
1.22598
1.22501
1.2253
1.225
1.22503
1.23121
1.22523
1.225
1.22538
1.22501
1.22502
2.47315
3.09498
4.49795
4.26993
1.22609
2.97918
3.60335
3.79734
4.28322
5.48999
5.94219
3.5531
1.26029
1.23199
1.93588
1.33469
1.23572
1.22516
1.23216
1.24671
1.22502
3.90828
3.18402
4.01041
5.52908
1.91211
1.22513
1.22933
1.22501
1.225
3.19099
2.79025
3.54316
3.05854
2.86791
3.62759
3.11201
3.246
3.39841
3.04657
3.39175
4.06615
5.25406
4.86387
5.81633
4.82963
5.20253
6.18053
3.56219
1.74904
2.56934
1.35631
1.50377
1.96936
1.27889
2.30385
1.92317
2.16807
1.2425
2.81221
1.37155
1.47096
1.48349
1.22694
1.22648
1.2277
1.24221
1.25593
1.24908
1.28441
1.22603
1.23398
1.59338
1.22774
1.27744
1.22526
1.22537
1.23002
2.0249
2.5693
2.09131
3.12025
2.57114
3.15127
2.19492
3.67949
2.57892
6.21252
3.76294
6.81196
2.77924
5.5085
2.85281
1.68077
6.42388
1.35324
2.35413
2.52102
2.26069
2.64458
2.59769
2.32894
2.28283
2.48458
2.80867
3.06401
2.74876
2.75395
2.47203
2.76042
2.22238
2.64545
2.28883
2.81319
2.71323
2.43081
4.14691
3.66652
3.24573
4.73073
3.27362
4.6111
4.09845
4.95448
5.84505
5.12418
6.18928
5.25233
5.39916
5.05278
3.22745
4.83236
4.13513
6.21295
6.93093
5.63642
3.26383
4.15605
6.06647
3.5402
4.27411
3.24622
4.93559
2.98747
2.31287
2.55498
2.8995
2.90267
3.61665
2.93404
7.27455
4.36246
6.60786
2.00445
2.68315
4.61071
1.22501
1.23105
1.22865
1.22927
1.28261
1.27489
1.2254
1.23774
3.22992
1.51733
1.37136
1.75706
3.50144
2.20281
1.75486
3.06912
1.4569
1.7427
1.90549
3.16944
1.97956
1.44015
1.27024
1.4843
1.39993
1.69463
1.44071
1.75239
1.52051
1.56506
1.56809
1.8951
1.85637
1.92702
1.97493
1.05818
0.910306
1.01272
1.17151
1.04375
1.13384
1.08837
1.78062
2.75272
3.05029
2.91827
2.98536
1.49363
2.03232
2.07465
2.42796
2.36406
2.33121
2.02576
2.09694
2.26619
1.63736
1.57256
1.95706
1.31322
1.54853
1.49766
1.8382
1.76808
2.32346
2.212
1.64423
1.64359
2.04131
2.11229
1.48443
1.5313
1.51073
1.89903
1.98494
1.93788
2.0301
1.06357
1.18926
1.24531
1.22806
1.33937
1.18223
1.41045
1.36345
1.32878
1.37183
1.07154
1.14784
1.23684
1.16281
2.53742
2.14226
2.78058
2.42298
2.26172
2.1413
2.66654
1.75984
2.3482
2.37145
1.61222
1.60649
2.13094
2.17709
1.5375
1.75522
1.90204
2.30556
1.66574
1.7741
2.11268
1.22756
2.1089
1.76135
2.11959
1.55197
2.52688
1.26854
2.1404
1.9549
2.22521
2.76726
2.61954
2.45264
2.98181
1.30191
1.18092
1.40882
1.40692
1.25865
1.48083
1.22679
1.36737
1.18316
1.48069
1.33148
1.62774
1.29808
1.49837
1.53643
1.8423
1.60599
2.33045
2.08792
2.17344
2.41341
1.77283
1.78541
2.50917
1.93668
1.96019
2.49543
2.43341
1.39175
1.36198
1.43024
1.62431
1.69894
1.75776
1.68303
1.62347
2.61395
2.06386
1.98867
1.67126
2.14065
2.70821
2.39372
2.93545
3.45504
2.38146
1.22757
3.25488
2.73078
2.2435
1.98771
2.29273
2.83324
2.62338
2.94034
2.60543
3.1504
2.34731
3.47556
2.33161
3.50428
2.38302
3.09592
3.10955
2.55412
2.39783
2.5053
3.30277
3.1986
2.6678
1.47145
1.6655
1.73848
1.35969
1.50926
1.58187
1.28677
1.38409
1.50912
1.52476
1.90603
1.32185
1.60595
1.61533
3.56338
2.75022
3.50728
2.15852
2.23735
3.12837
3.47861
2.17669
2.66385
2.48331
1.98405
1.72453
2.30742
2.53312
2.58017
1.9471
2.60822
1.97349
2.79844
1.92524
2.71898
1.64222
2.07266
2.28118
2.05522
2.78939
2.53134
1.89828
1.83305
3.00807
2.41913
2.07852
1.74073
2.25694
2.84444
1.91153
1.56388
1.98686
1.41719
1.48624
1.85266
1.77741
1.22822
1.63511
3.01233
1.22544
2.42784
1.29443
1.22579
2.76472
2.6002
3.03937
3.62553
3.42373
3.11733
3.35507
3.04062
3.29196
2.763
2.10479
2.08787
2.58071
2.70793
3.46534
3.07227
2.90267
2.67388
3.40518
3.3249
2.84151
2.55129
3.10669
2.64477
2.85879
2.53027
2.60296
2.86226
1.22546
1.22501
1.22884
1.66736
1.22505
1.24478
1.225
1.50134
1.83141
1.54383
2.24646
1.86649
1.9307
2.31852
2.37061
2.0873
1.74293
1.67097
2.16107
1.81679
2.30276
2.29526
1.9083
1.8654
1.46271
2.07454
1.73138
1.72281
2.8654
1.94854
2.56631
3.17437
2.08904
2.62559
3.32194
3.04211
2.6268
2.92011
3.38309
3.01251
2.98541
3.22426
2.42598
2.40496
2.63413
2.80886
2.7635
2.67013
2.79692
2.78824
2.97822
2.83611
3.15274
2.79226
2.71192
2.85259
2.21431
2.54715
2.61676
2.61943
2.67381
2.78847
2.79003
1.7046
1.7432
2.47048
1.93773
2.54876
2.00767
2.58464
3.42034
3.58086
3.32754
3.4995
3.1674
3.64266
3.53938
1.70073
2.5819
2.17828
1.91326
1.60888
2.03436
2.43142
3.08814
2.62778
3.49964
3.61458
2.33143
3.07485
3.10869
2.86141
2.93691
2.79448
2.51733
2.78875
2.26185
2.65397
2.79547
2.78169
2.70166
2.35547
2.70746
2.73789
2.77398
1.22691
1.2255
1.22639
2.98257
2.48023
1.81264
2.67106
2.70477
2.7349
2.59652
2.65469
2.45739
2.70023
2.72567
2.57466
1.82664
2.76158
2.39787
2.36018
1.99631
2.94589
2.58407
2.16977
2.92928
3.15863
2.83526
3.27276
2.92212
2.15025
2.79297
2.226
2.29741
2.81634
2.8469
2.22897
2.53728
2.59474
2.19151
2.11416
3.04134
2.71498
2.75002
2.80624
2.25051
2.85123
2.60965
1.92995
2.00957
2.54672
3.15648
2.47056
3.21064
2.91123
2.96309
3.38512
3.38664
3.83375
3.48076
3.87845
3.89461
3.72662
3.64815
3.72772
2.46968
3.46489
3.28825
3.10597
2.78941
2.2599
3.42173
2.84541
2.79542
2.8695
2.3695
2.75199
2.85599
2.71643
2.45644
2.71656
2.77999
2.72603
2.27202
2.62491
2.73963
2.8437
2.82057
2.80954
2.09984
2.77724
2.66714
2.50731
2.99686
2.51773
2.57395
2.41564
2.90901
2.91944
2.352
3.51563
3.432
3.53893
2.8335
3.43929
3.37549
2.62904
3.12304
3.35829
3.36376
2.58575
3.28393
3.03893
3.38432
3.03845
3.5126
3.07576
2.11467
3.35936
2.96476
2.79207
2.46774
3.16015
2.99929
2.80771
2.63284
2.21402
3.09609
3.51362
3.61803
3.68431
3.60551
3.2752
3.63477
3.64731
2.61036
2.8632
2.63449
2.91774
2.78308
2.89476
2.82223
2.80623
2.91976
2.42349
2.49749
3.037
2.94847
2.86633
3.05293
2.96843
3.04115
2.92451
2.71061
2.75342
2.90236
2.12455
1.37461
1.70165
2.67759
2.59878
2.78505
2.29334
1.94328
2.68739
2.75727
2.80988
2.82984
2.67206
2.58098
3.14519
3.02932
2.93167
2.55014
3.03455
2.96729
3.19238
3.14762
3.19316
3.04665
3.41747
3.23027
3.29881
3.43936
3.64307
2.76306
3.40415
3.43984
3.22995
3.42732
3.39235
1.66385
1.67191
3.00253
2.27406
2.76766
2.2875
3.26393
1.225
1.22506
1.225
1.22608
1.22502
1.225
1.225
3.00027
3.03927
2.76367
2.6151
3.00317
2.98452
2.95312
1.94701
3.571
3.05603
3.3825
3.56594
3.26475
2.32648
2.91713
2.53205
2.38286
1.93576
1.75034
1.50889
1.41155
1.22578
1.22508
1.225
1.225
1.225
1.225
1.22512
1.225
1.225
1.22523
1.225
1.22598
1.22745
1.225
1.60403
2.16578
1.32839
2.36961
1.85813
1.41339
1.27021
2.729
1.93436
2.69862
1.50277
2.48431
2.34134
1.40478
2.20158
2.68884
2.90377
1.33678
1.75077
1.61206
2.29391
2.6441
2.7213
2.83709
1.75398
1.32453
1.61429
2.31645
1.379
2.29031
2.5533
2.81654
2.10106
2.84238
2.40224
3.07855
2.75584
3.09537
3.28002
3.09153
3.11187
2.7919
2.95882
2.81753
2.37223
3.0158
3.09809
2.90998
3.10188
1.47674
2.4593
1.79844
1.71046
2.62537
2.10642
1.32075
1.37852
1.82766
1.27187
2.73913
2.14449
1.54451
1.32603
1.225
1.225
1.225
1.225
1.225
1.225
1.34298
1.225
1.225
1.225
1.225
1.22501
1.225
1.225
1.225
1.225
1.225
1.225
1.225
1.2252
1.225
1.225
1.225
1.225
1.225
1.225
1.225
1.225
1.225
1.225
1.225
1.225
1.225
1.225
1.225
1.225
1.225
1.2306
1.225
1.225
1.225
1.225
1.225
1.225
1.225
1.225
1.225
1.22501
1.225
1.22699
1.22506
1.225
1.22501
1.23159
1.28126
1.225
1.22541
1.225
1.225
1.2251
1.2559
1.225
1.22501
1.22505
1.22532
1.25663
1.34832
1.22511
3.62214
3.1912
3.37063
1.43377
3.67301
2.52482
2.73642
2.90172
2.35579
2.53647
3.10952
3.0642
3.03904
3.04848
3.06996
3.28244
2.2625
2.82222
3.17738
3.21003
3.40762
1.58821
1.36081
2.18847
3.5277
2.47938
2.69392
3.38746
1.23497
1.3986
1.26691
1.37956
1.75865
2.3273
1.80292
3.17026
2.83786
3.17426
2.15461
3.20589
3.13117
1.96273
2.92834
2.95776
2.8881
2.26294
2.09646
1.94303
2.10263
1.225
1.22501
1.2266
1.225
1.22509
1.225
1.225
1.90224
2.6976
1.51358
2.39171
1.41167
1.72319
1.24416
2.09527
1.50389
1.92384
1.25296
1.32234
1.28743
1.24247
2.05206
1.33331
1.54431
1.25092
1.29915
1.24235
1.23045
1.225
1.225
1.2251
1.225
1.22501
1.225
1.225
1.22504
1.225
1.22545
1.22503
1.225
1.225
1.225
1.32357
1.23012
1.25767
1.31416
2.12617
1.70462
1.49334
1.28729
1.34017
1.7764
1.91329
2.7651
1.38544
2.19832
1.50501
3.15264
2.77157
2.66551
3.1752
3.00261
1.7276
2.79319
1.64322
1.52871
2.90681
2.81589
1.74441
1.88832
1.28624
1.24596
1.51818
1.24315
1.23069
1.32451
1.56979
1.55222
2.26284
1.59123
1.24869
1.22851
1.35616
1.24588
1.95112
1.37126
1.44103
2.46208
3.02312
2.92474
2.65195
1.25153
1.3361
1.30877
2.32821
1.24797
1.59761
1.63364
1.96664
1.89179
1.47329
2.69684
2.98923
3.06149
3.00361
1.47397
1.24026
1.22896
1.3784
1.70307
1.25911
1.23406
2.82288
2.31969
2.74333
1.39498
1.7621
1.63095
1.34025
1.32267
2.66731
3.16827
2.97323
1.94743
1.65086
2.30662
1.34869
1.27169
1.62074
1.93567
3.0737
2.87695
2.40424
1.22921
1.26766
1.29249
1.26467
1.74645
1.5901
1.24986
1.29958
1.24756
1.61252
1.25529
1.40115
1.23419
1.22647
2.02455
1.31364
1.84163
1.31307
1.28155
1.23156
1.22907
2.56002
2.00088
2.16957
1.28049
1.42461
1.36443
1.30409
1.3698
1.51571
2.49296
2.27586
1.2356
1.32052
1.41616
2.3622
1.25984
1.35659
2.09005
2.60653
1.47749
1.2926
1.8672
1.71241
1.67586
1.6933
1.77266
1.59618
1.75628
1.81753
1.6324
1.65796
1.56417
1.71903
1.60022
3.97509
1.95271
1.99474
1.96977
2.36748
2.2817
3.19297
4.16045
2.25398
4.41139
2.34436
4.49978
5.15177
1.73798
1.8383
2.02535
1.82851
1.87956
1.70091
1.84831
1.80855
1.81122
1.67778
2.44447
2.32167
2.05617
2.74122
2.07832
2.79628
2.41646
2.94248
3.41532
3.84546
3.49359
3.43625
2.92323
3.33718
2.03563
2.72446
2.40213
3.44459
3.60696
2.93189
3.20961
3.79087
3.76055
4.47192
3.40174
3.36497
3.79483
4.09547
5.48085
4.33279
1.69129
0.945108
1.58051
1.60646
1.72966
1.93902
0.975743
1.29527
1.32203
0.762447
0.445804
0.671743
1.99554
1.8103
0.917036
1.50289
2.65899
2.5133
0.85659
1.15723
1.68187
2.00876
1.22587
1.85308
2.11014
2.19598
2.16136
2.5503
1.98296
1.86173
2.04264
2.82893
3.57461
2.14247
1.90937
2.02893
1.90437
1.9648
2.08866
2.07627
2.24886
2.00348
2.23568
2.44419
2.04788
2.2092
2.48117
1.96662
2.40113
2.16525
3.66486
2.60584
2.87157
2.92341
3.5792
1.93726
6.37234
1.73519
5.23095
2.76384
3.2499
4.93601
5.40468
5.27685
1.49125
3.93835
5.70374
3.76583
2.7079
1.64549
1.33389
3.11021
7.24714
6.65407
7.19755
3.61899
4.24395
2.00614
1.22712
1.22529
1.22501
3.12837
3.20855
4.47398
4.01308
4.28507
5.69028
4.70773
4.71407
4.0827
6.39376
4.83793
3.27318
4.075
5.86707
5.02416
4.25167
3.37063
5.25497
2.77192
4.33516
2.54054
3.69092
2.7172
4.25997
2.78018
6.27298
4.99403
6.18888
2.92175
2.66229
3.26366
3.48526
2.91817
2.91039
2.55736
2.5116
2.75403
2.5518
1.2641
2.96466
1.6066
1.54574
2.33321
1.23166
1.31489
0.855978
1.64519
1.41169
0.81885
1.00746
1.74185
1.4237
0.970257
1.27245
1.84967
1.61617
1.04229
1.56607
1.9282
1.08946
0.914775
1.52461
1.95602
0.901846
1.58462
2.14094
1.58081
1.2683
2.19129
2.86076
2.58043
2.77728
1.51798
1.24974
3.83829
5.4723
1.40989
3.82209
5.4981
2.79533
4.10323
2.51242
3.55901
2.7974
3.6692
2.55021
5.47842
4.63149
4.41615
2.49407
2.47332
3.62994
3.84118
2.47034
2.65005
3.80874
5.02241
5.30695
5.43976
2.23403
2.75854
2.39022
1.31331
2.77977
2.55617
1.62329
1.22555
2.69554
3.60172
2.96714
3.59864
2.92676
3.90619
2.95495
4.50513
4.41296
5.34372
2.07191
2.65626
1.96233
4.24212
1.22608
3.74755
2.8088
1.64221
1.30181
3.53319
2.30299
2.58251
1.71788
1.61631
1.65402
0.389398
0.7109
0.664702
0.741536
0.642672
0.990584
0.946256
0.942958
0.949301
0.966273
1.13095
1.21842
1.15824
1.45478
0.827878
0.829778
1.03939
1.40484
1.34072
1.42624
0.817126
0.630425
0.863667
0.859841
0.893927
0.728553
0.748216
0.89692
0.958532
0.966979
0.981945
1.00249
1.06654
1.06531
0.999553
0.468186
0.366726
0.435696
0.441337
0.535113
0.563231
0.466334
0.981468
0.95546
0.968968
1.06257
1.0764
1.07301
1.06014
0.535456
0.416366
0.502935
0.527134
0.629273
0.595444
0.495344
0.963211
0.925784
0.958162
1.00381
1.08626
1.06997
0.998503
0.845677
0.69259
0.857248
0.900428
0.785097
0.767754
0.89843
0.926302
0.909804
1.0059
0.841653
0.907022
1.01075
0.942571
0.95823
0.966158
0.958344
1.08337
1.0955
1.07717
1.06482
1.41461
0.979795
0.798485
0.7505
1.34716
1.55209
0.94255
1.07396
0.998736
1.33862
1.87092
1.14473
0.95546
1.56591
1.19731
1.84942
1.31806
1.70143
1.22539
1.8099
1.42341
1.288
1.90728
1.18151
1.91568
1.43477
1.97831
1.31488
1.16288
1.50142
1.06204
0.867146
1.03502
1.28166
1.67598
0.564265
0.485213
0.580267
0.761935
0.567586
0.67438
0.647228
0.909087
0.878272
0.922924
1.04387
0.994012
1.02085
0.962873
0.762267
0.534752
0.646346
0.672874
0.6688
0.789133
0.559966
1.03734
0.919428
0.982988
1.18249
1.01644
1.06037
1.12104
0.882561
0.935021
0.808255
0.825724
1.00838
0.90216
0.946262
1.26829
1.05806
1.15517
1.16992
1.15387