/*--------------------------------*- C++ -*----------------------------------*\
  =========                 |
  \\      /  F ield         | OpenFOAM: The Open Source CFD Toolbox
   \\    /   O peration     | Website:  https://openfoam.org
    \\  /    A nd           | Version:  9
     \\/     M anipulation  |
\*---------------------------------------------------------------------------*/
FoamFile
{
    format      ascii;
    class       volVectorField;
    location    "0.00145";
    object      U;
}
// * * * * * * * * * * * * * * * * * * * * * * * * * * * * * * * * * * * * * //

dimensions      [0 1 -1 0 0 0 0];

internalField   nonuniform List<vector> 
11670
(
(0.000227878 0.000162548 0.00114553)
(2.00177e-10 4.26477e-10 1.86847e-10)
(2.55709e-10 4.82735e-10 4.76002e-10)
(6.09174e-12 1.14065e-11 1.39701e-11)
(1.22658e-13 2.35161e-13 3.41456e-13)
(7.16066e-09 8.12753e-09 1.78601e-08)
(1.46806e-10 1.73747e-10 4.04435e-10)
(2.89833e-12 3.57764e-12 8.58252e-12)
(1.92758e-10 7.35251e-11 6.21035e-11)
(0.0101205 0.0243091 0.00968075)
(4.56965e-11 6.12906e-11 -2.17443e-11)
(1.19246e-09 2.0526e-09 7.27391e-10)
(2.96309e-09 4.88751e-09 2.307e-09)
(8.18033e-09 1.57317e-08 1.10355e-08)
(2.55197e-11 -2.14319e-11 7.61279e-12)
(1.81751e-10 2.77757e-10 -2.13226e-10)
(2.88875e-10 1.17441e-11 7.01294e-11)
(1.09327e-09 3.42294e-10 2.78775e-10)
(4.72432e-11 5.44865e-12 1.3384e-11)
(1.30698e-10 7.67892e-11 -2.9181e-11)
(2.24398e-10 1.73601e-10 -9.94032e-12)
(1.37609e-11 4.42449e-14 1.93194e-12)
(0.00010036 0.000169164 6.423e-05)
(3.91751e-08 7.39893e-08 -2.6418e-08)
(7.14678e-05 0.000150475 7.98217e-05)
(1.23426e-05 2.10472e-05 8.81057e-06)
(2.69674e-07 5.38945e-07 1.07692e-07)
(0.000141563 0.000127066 0.000237276)
(3.44523e-07 3.81217e-07 7.45536e-07)
(0.00115751 0.00226849 0.000898416)
(0.0428398 0.116067 0.0158797)
(0.0054605 0.0124731 0.00141182)
(4.53883e-05 9.44228e-05 2.36649e-05)
(0.00145633 0.00426359 0.000365529)
(0.000177925 0.000421099 3.1996e-05)
(0.000379728 0.000970085 0.000311977)
(1.81704e-11 5.28974e-12 -3.12766e-11)
(1.15623e-12 -1.39885e-12 4.36367e-13)
(6.20649e-11 -3.82393e-11 1.41989e-11)
(2.20828e-11 -1.87785e-11 5.7448e-12)
(4.63242e-12 -3.51647e-12 2.11822e-13)
(2.06276e-12 -5.52503e-13 -2.18436e-12)
(5.39991e-11 -3.01994e-11 6.2083e-12)
(6.29701e-10 5.87533e-10 -1.13711e-09)
(1.30064e-11 4.51384e-12 -1.06628e-11)
(2.07889e-09 2.77555e-09 -3.16402e-09)
(1.98809e-09 3.50635e-09 -2.18994e-09)
(4.97568e-11 3.78084e-11 -8.64387e-11)
(9.23353e-11 1.07696e-10 -1.26699e-10)
(2.46653e-08 3.61717e-08 -3.79128e-08)
(8.44896e-06 1.33315e-05 3.60061e-06)
(0.000484545 0.000899679 9.05268e-05)
(3.57796e-05 6.11605e-05 5.72766e-06)
(4.34727e-06 7.83244e-06 1.55802e-06)
(1.28665e-06 2.35685e-06 1.15094e-07)
(1.61314e-05 3.21747e-05 2.19116e-06)
(8.38706e-07 1.36838e-06 -4.30511e-07)
(5.01998e-11 7.04126e-11 1.37551e-12)
(1.08372e-09 1.74507e-09 -2.53461e-10)
(2.08825e-09 5.94597e-09 1.95703e-10)
(2.58743e-10 5.39583e-10 -6.9255e-11)
(7.07644e-09 1.54401e-08 8.3251e-10)
(1.24416e-09 1.497e-09 -4.34083e-10)
(7.36471e-08 2.19462e-07 2.51686e-08)
(8.25326e-09 1.73371e-08 1.32223e-08)
(5.1258e-07 7.67065e-07 5.93427e-07)
(1.82132e-08 3.08436e-08 1.63542e-08)
(1.74681e-07 3.22131e-07 3.72183e-07)
(5.64375e-06 1.12215e-05 1.05243e-05)
(1.9522e-08 3.01117e-08 2.58438e-08)
(1.37641e-08 2.47428e-08 -1.96709e-08)
(1.91682e-09 3.67724e-09 -1.08969e-09)
(4.42604e-08 8.79361e-08 -2.08913e-09)
(1.80563e-07 3.48688e-07 3.03262e-08)
(1.76686e-08 3.87135e-08 -2.42077e-09)
(5.18007e-07 1.10642e-06 2.00309e-08)
(2.65228e-08 4.32578e-08 -2.36479e-08)
(1.23818e-05 1.40014e-05 1.90985e-05)
(3.1012e-06 4.39342e-06 7.30743e-06)
(8.11568e-05 0.00011549 0.000159312)
(3.51503e-07 4.35191e-07 5.73142e-07)
(0.000213541 0.000284086 0.000551875)
(3.28765e-05 3.57097e-05 6.76241e-05)
(4.18467e-06 4.14664e-06 7.8235e-06)
(2.2466e-11 8.40627e-11 2.3277e-12)
(1.68009e-12 5.78188e-12 2.44001e-13)
(1.00005e-08 3.26095e-11 3.90246e-10)
(1.19993e-11 -9.56516e-13 4.28607e-13)
(2.26231e-14 4.03704e-14 3.40287e-15)
(0 4.69442e-14 0)
(2.73493e-15 4.00349e-14 1.63551e-14)
(1.65503e-14 9.37379e-14 -1.35673e-14)
(7.26689e-09 1.12068e-09 3.24484e-10)
(1.15619e-10 8.76862e-12 3.96014e-12)
(1.69595e-12 8.73533e-14 8.02078e-14)
(2.21392e-14 2.69136e-14 3.77851e-15)
(0 2.69136e-14 0)
(0 0 0)
(3.12691e-10 2.34611e-10 1.5383e-11)
(6.9795e-12 4.04146e-12 2.86996e-13)
(1.28487e-13 5.56572e-14 3.18164e-14)
(1.54676e-16 0 2.86151e-15)
(0 0 0)
(0 0 0)
(5.54049e-12 6.00972e-12 3.13915e-13)
(1.40044e-13 1.2192e-13 -1.25189e-14)
(6.1739e-16 1.54676e-16 0)
(0 0 0)
(0 0 0)
(0 0 0)
(9.4971e-14 1.2816e-13 3.63489e-15)
(4.62714e-16 3.09352e-16 0)
(0 0 0)
(0 0 0)
(0 0 0)
(0 0 0)
(0 6.86365e-16 0)
(0 0 0)
(0 0 0)
(0 0 0)
(0 0 0)
(0 0 0)
(0 0 0)
(0 0 0)
(0 0 0)
(0 0 0)
(0 0 0)
(0 0 0)
(1.32318e-12 5.25437e-12 9.69853e-13)
(2.66197e-13 1.04291e-12 1.73907e-13)
(1.24215e-09 1.2418e-12 2.01971e-10)
(1.41924e-12 -6.74387e-14 2.54611e-13)
(5.18689e-16 4.68668e-14 0)
(0 4.69442e-14 1.09876e-16)
(0 3.09352e-16 1.87272e-14)
(4.94963e-15 1.61301e-14 6.88642e-16)
(7.63267e-10 1.22531e-10 1.83428e-10)
(1.2891e-11 1.01158e-12 3.10735e-12)
(2.02685e-13 3.39127e-14 4.9884e-14)
(1.22228e-15 2.69136e-14 0)
(0 2.69136e-14 0)
(0 0 0)
(3.53836e-11 2.65174e-11 1.09791e-11)
(8.39916e-13 4.90256e-13 2.36113e-13)
(1.39548e-14 3.7012e-15 4.25359e-15)
(0 0 0)
(0 0 0)
(0 0 0)
(6.71912e-13 7.28636e-13 2.46512e-13)
(1.50257e-14 1.2178e-14 2.93884e-15)
(0 0 0)
(0 0 0)
(0 0 0)
(0 0 0)
(9.28056e-15 1.34411e-14 2.46296e-15)
(0 0 0)
(0 0 0)
(0 0 0)
(0 0 0)
(0 0 0)
(0 3.17677e-17 4.44438e-18)
(0 0 0)
(0 0 0)
(0 0 0)
(0 0 0)
(0 0 0)
(0 0 0)
(0 0 0)
(0 0 0)
(0 0 0)
(0 0 0)
(0 0 0)
(7.20017e-14 2.66567e-13 5.42502e-15)
(6.09423e-14 2.54442e-13 2.3265e-14)
(1.50027e-13 4.19172e-14 1.46111e-14)
(0 4.71762e-14 0)
(0 4.69442e-14 1.10753e-16)
(0 0 1.88819e-14)
(2.16546e-15 1.98452e-15 -3.16359e-16)
(7.23552e-11 1.28895e-11 1.25922e-11)
(1.15498e-12 1.22851e-13 1.95271e-13)
(1.51656e-14 2.69136e-14 1.22631e-15)
(0 2.69136e-14 0)
(0 2.69136e-14 0)
(0 0 0)
(3.19236e-12 2.42441e-12 7.17887e-13)
(6.99161e-14 3.89624e-14 1.17554e-14)
(0 0 0)
(0 0 0)
(0 0 0)
(0 0 0)
(5.55287e-14 6.01892e-14 1.27472e-14)
(0 0 0)
(0 0 0)
(0 0 0)
(0 0 0)
(0 0 0)
(0 2.81838e-16 3.11706e-17)
(0 0 0)
(0 0 0)
(0 0 0)
(0 0 0)
(0 0 0)
(0 4.76934e-19 2.22936e-20)
(0 0 0)
(0 0 0)
(0 0 0)
(0 0 0)
(0 0 0)
(0 0 0)
(0 0 0)
(0 0 0)
(0 0 0)
(0 0 0)
(0 0 0)
(4.79496e-14 2.78387e-14 -1.56522e-14)
(8.3525e-15 3.32553e-14 3.3188e-15)
(2.44341e-15 4.74855e-14 1.54676e-16)
(0 4.73308e-14 0)
(0 4.69442e-14 1.10586e-16)
(0 0 1.87272e-14)
(0 -2.01073e-22 -2.52803e-16)
(3.21785e-12 6.02927e-13 9.95787e-13)
(4.86966e-14 3.07805e-14 1.29998e-14)
(0 2.69136e-14 0)
(0 2.69136e-14 -2.03086e-16)
(0 2.69136e-14 0)
(0 0 0)
(1.37816e-13 1.06107e-13 5.41031e-14)
(1.23425e-15 0 0)
(0 0 0)
(0 0 0)
(0 0 0)
(0 0 0)
(7.7338e-16 6.29527e-16 3.15935e-16)
(0 0 0)
(0 0 0)
(0 0 0)
(0 0 0)
(0 0 0)
(0 1.72221e-18 4.498e-19)
(0 0 0)
(0 0 0)
(0 0 0)
(0 0 0)
(0 0 0)
(0 0 5.86514e-21)
(0 0 0)
(0 0 0)
(0 0 0)
(0 0 0)
(0 0 0)
(0 0 0)
(0 0 0)
(0 0 0)
(0 0 0)
(0 0 0)
(0 0 0)
(7.59332e-10 1.74421e-09 -1.15072e-10)
(3.07681e-12 6.98539e-12 -1.77191e-12)
(4.3928e-14 1.29359e-13 -2.39442e-15)
(4.24407e-15 0 1.10991e-14)
(3.09352e-15 1.38498e-15 8.08839e-16)
(4.62898e-10 7.92193e-10 2.42514e-11)
(1.02167e-13 1.94041e-13 -8.4711e-14)
(1.65373e-16 4.67895e-14 5.80907e-17)
(0 4.64028e-14 6.74038e-16)
(0 0 1.20692e-14)
(0 2.96499e-21 9.83591e-16)
(7.63849e-13 5.6128e-13 -1.36812e-15)
(8.0172e-15 2.95044e-14 -2.0418e-15)
(0 2.69136e-14 -1.41578e-15)
(0 2.69136e-14 8.05574e-16)
(0 2.69136e-14 -6.17007e-16)
(0 0 0)
(1.39208e-14 1.38814e-14 3.60544e-16)
(0 0 0)
(0 0 0)
(0 0 0)
(0 0 0)
(0 0 0)
(0 7.39012e-17 2.72626e-18)
(0 0 0)
(0 0 0)
(0 0 0)
(0 0 0)
(0 0 0)
(0 9.55879e-20 -4.96029e-20)
(0 0 0)
(0 0 0)
(0 0 0)
(0 0 0)
(0 0 0)
(0 0 -1.02666e-20)
(0 0 0)
(0 0 0)
(0 0 0)
(0 0 0)
(0 0 0)
(0 0 -2.86877e-22)
(0 0 0)
(0 0 0)
(0 0 0)
(0 0 0)
(0 0 0)
(4.15747e-08 5.72026e-08 4.18024e-08)
(1.48673e-10 3.79101e-10 7.25765e-11)
(9.06126e-12 1.72595e-11 2.48798e-12)
(2.78723e-13 4.84136e-13 5.05921e-14)
(-1.26834e-14 2.24434e-14 -1.12085e-14)
(0 0 4.7507e-17)
(6.14999e-11 5.32644e-11 1.99747e-11)
(1.00098e-12 8.76317e-13 1.18789e-13)
(1.83663e-14 4.11438e-14 -3.40796e-15)
(1.73537e-17 -1.34347e-14 -1.01485e-14)
(0 -1.87735e-14 0)
(0 0 0)
(1.39425e-12 1.47073e-12 2.50977e-13)
(2.39663e-14 2.47434e-14 -2.84383e-14)
(0 0 -2.8825e-14)
(0 3.02797e-14 -6.86098e-15)
(0 2.50604e-14 0)
(0 0 0)
(2.35107e-14 2.88836e-14 2.41528e-15)
(0 0 -6.61792e-15)
(0 0 -6.0876e-15)
(0 0 0)
(0 0 0)
(0 0 0)
(0 1.38714e-16 1.44907e-17)
(0 0 0)
(0 0 0)
(0 0 0)
(0 0 0)
(0 0 0)
(0 2.42929e-19 7.7699e-23)
(0 0 0)
(0 0 0)
(0 0 0)
(0 0 0)
(0 0 0)
(0 0 0)
(0 0 0)
(0 0 0)
(0 0 0)
(0 0 0)
(0 0 0)
(0 0 0)
(0 0 0)
(0 0 0)
(0 0 0)
(0 0 0)
(0 0 0)
(4.79496e-10 8.1049e-10 4.19692e-10)
(3.19353e-11 5.31098e-11 2.68417e-11)
(1.77115e-12 2.34877e-12 1.10303e-12)
(6.73055e-14 5.79466e-14 1.42718e-14)
(9.0568e-16 0 9.8369e-15)
(0 0 6.3509e-19)
(1.13402e-11 2.34381e-11 7.10413e-12)
(7.05364e-13 1.38691e-12 3.15318e-13)
(3.44487e-14 5.89132e-14 -2.13011e-14)
(0 3.15522e-14 -8.56242e-15)
(0 0 0)
(0 0 0)
(2.51194e-13 5.89633e-13 1.18656e-13)
(1.00393e-14 3.02644e-14 -2.82836e-15)
(0 0 -7.38025e-15)
(0 0 0)
(0 0 0)
(0 0 0)
(1.70144e-15 9.35204e-15 1.05601e-15)
(0 0 0)
(0 0 0)
(0 0 0)
(0 0 0)
(0 0 0)
(0 7.48321e-18 3.88548e-18)
(0 0 0)
(0 0 0)
(0 0 0)
(0 0 0)
(0 0 0)
(0 0 0)
(0 0 0)
(0 0 0)
(0 0 0)
(0 0 0)
(0 0 0)
(0 0 0)
(0 0 0)
(0 0 0)
(0 0 0)
(0 0 0)
(0 0 0)
(0 0 0)
(0 0 0)
(0 0 0)
(0 0 0)
(0 0 0)
(0 0 0)
(1.94462e-11 3.2575e-11 2.82118e-11)
(1.28184e-12 1.85222e-12 1.57104e-12)
(6.46048e-14 7.57912e-14 6.16148e-14)
(6.10066e-16 1.54676e-16 6.8359e-16)
(1.72091e-18 0 1.4441e-18)
(0 0 0)
(5.54204e-13 1.18619e-12 7.55893e-13)
(3.98086e-14 7.45308e-14 4.92201e-14)
(4.6255e-16 1.54676e-16 -2.81731e-15)
(0 0 0)
(0 0 0)
(0 0 0)
(9.28056e-15 3.20795e-14 1.23886e-14)
(0 0 0)
(0 0 0)
(0 0 0)
(0 0 0)
(0 0 0)
(0 3.19751e-17 1.38902e-17)
(0 0 0)
(0 0 0)
(0 0 0)
(0 0 0)
(0 0 0)
(0 1.5544e-22 7.772e-23)
(0 0 0)
(0 0 0)
(0 0 0)
(0 0 0)
(0 0 0)
(0 0 0)
(0 0 0)
(0 0 0)
(0 0 0)
(0 0 0)
(0 0 0)
(0 0 0)
(0 0 0)
(0 0 0)
(0 0 0)
(0 0 0)
(0 0 0)
(0 0 0)
(0 0 0)
(0 0 0)
(0 0 0)
(0 0 0)
(0 0 0)
(5.03315e-13 8.28135e-13 9.58532e-13)
(2.99502e-14 4.34639e-14 4.95156e-14)
(3.28508e-16 0 4.71417e-16)
(8.85961e-19 0 1.31075e-18)
(0 0 0)
(0 0 0)
(1.191e-14 2.91699e-14 2.76335e-14)
(0 0 0)
(0 0 0)
(0 0 0)
(0 0 0)
(0 0 0)
(0 4.96666e-17 3.38745e-17)
(0 0 0)
(0 0 0)
(0 0 0)
(0 0 0)
(0 0 0)
(0 3.10973e-22 3.09828e-21)
(0 0 0)
(0 0 0)
(0 0 0)
(0 0 0)
(0 0 0)
(0 0 0)
(0 0 0)
(0 0 0)
(0 0 0)
(0 0 0)
(0 0 0)
(0 0 0)
(0 0 0)
(0 0 0)
(0 0 0)
(0 0 0)
(0 0 0)
(0 0 0)
(0 0 0)
(0 0 0)
(0 0 0)
(0 0 0)
(0 0 0)
(0 0 0)
(0 0 0)
(0 0 0)
(0 0 0)
(0 0 0)
(0 0 0)
(7.06775e-15 1.42302e-14 2.22733e-14)
(8.66931e-17 0 0)
(2.67126e-19 0 0)
(0 0 0)
(0 0 0)
(0 0 0)
(0 2.79182e-17 0)
(0 0 0)
(0 0 0)
(0 0 0)
(0 0 0)
(0 0 0)
(0 1.5547e-22 0)
(0 0 0)
(0 0 0)
(0 0 0)
(0 0 0)
(0 0 0)
(0 0 0)
(0 0 0)
(0 0 0)
(0 0 0)
(0 0 0)
(0 0 0)
(0 0 0)
(0 0 0)
(0 0 0)
(0 0 0)
(0 0 0)
(0 0 0)
(0 0 0)
(0 0 0)
(0 0 0)
(0 0 0)
(0 0 0)
(0 0 0)
(0 0 0)
(0 0 0)
(0 0 0)
(0 0 0)
(0 0 0)
(0 0 0)
(0 0 0)
(0 0 0)
(0 0 0)
(0 0 0)
(0 0 0)
(0 0 0)
(2.68685e-09 -1.71441e-09 7.2056e-11)
(1.68825e-11 -1.50266e-11 5.25589e-13)
(1.09593e-09 -7.26166e-10 1.8703e-10)
(1.32743e-11 -1.23851e-11 2.39153e-12)
(1.98929e-12 -1.38616e-12 4.29999e-14)
(1.33397e-14 -7.291e-15 0)
(1.2504e-12 -8.52662e-13 1.90181e-13)
(1.23741e-14 -5.51937e-15 0)
(0 3.09032e-15 0)
(0 2.47447e-15 0)
(0 3.73933e-15 0)
(0 2.47713e-15 0)
(2.14876e-12 5.38736e-11 3.33172e-13)
(0 3.74362e-15 0)
(-6.08177e-14 8.44148e-14 1.43617e-14)
(7.61624e-13 2.18266e-11 2.47714e-12)
(0 6.36983e-16 -9.23569e-16)
(-2.2892e-14 4.23413e-14 -1.83344e-14)
(4.18694e-12 8.14802e-12 1.78805e-13)
(2.53282e-13 1.94125e-12 2.28332e-14)
(-2.4046e-14 4.22884e-13 1.0982e-14)
(8.81877e-12 3.38191e-11 4.91775e-12)
(1.5721e-12 3.94671e-12 6.19665e-13)
(1.34036e-13 8.19473e-13 1.02384e-13)
(-6.15363e-14 2.32633e-13 1.21015e-14)
(3.54003e-10 -2.0937e-11 1.34483e-11)
(3.15053e-09 2.69626e-10 8.7995e-11)
(3.92247e-10 -2.09797e-10 1.47348e-11)
(4.24379e-09 -2.12712e-11 6.35275e-10)
(1.54892e-10 -1.00828e-11 2.03932e-11)
(1.80739e-09 -1.23913e-10 2.7884e-10)
(2.77718e-10 -1.77305e-10 2.77353e-11)
(4.2481e-13 -8.83973e-14 3.4317e-14)
(1.54776e-11 -6.35586e-12 4.19525e-13)
(4.16759e-12 -3.49431e-12 1.47793e-13)
(5.44206e-12 -5.77251e-13 6.89805e-13)
(2.11556e-13 -5.97049e-14 -9.83513e-16)
(1.2004e-11 -6.16372e-12 1.14246e-12)
(3.16528e-12 -2.64069e-12 2.41869e-13)
(1.20841e-15 4.23812e-14 0)
(1.66174e-13 -9.65669e-14 1.39429e-14)
(4.88776e-14 -3.36509e-14 7.68961e-15)
(4.92168e-15 4.34639e-14 -2.36595e-15)
(1.94909e-18 4.23812e-14 -1.36837e-18)
(1.42451e-13 -8.31458e-14 1.79866e-14)
(3.76251e-14 -2.30721e-14 1.03854e-14)
(-4.32033e-16 4.15636e-14 0)
(0 2.45217e-15 0)
(0 3.28147e-16 0)
(0 4.37843e-14 -6.98651e-15)
(0 3.16687e-14 -2.61927e-14)
(0 1.28377e-16 0)
(0 1.80149e-17 -4.5153e-15)
(3.49726e-10 -2.13812e-10 7.03578e-11)
(4.04152e-12 -3.60319e-12 1.0453e-12)
(1.03571e-12 -9.62661e-13 1.50216e-13)
(3.45893e-13 -1.98422e-13 8.29063e-14)
(0 1.24914e-15 0)
(8.90934e-14 -4.12252e-14 6.01666e-15)
(0 1.85862e-15 0)
(0 4.32963e-15 0)
(0 4.33034e-15 0)
(0 4.94888e-15 0)
(0 3.71222e-15 0)
(1.23122e-13 3.97579e-12 8.47582e-13)
(0 3.71427e-15 0)
(0 7.03373e-15 1.5006e-14)
(5.56833e-15 4.97438e-13 9.66227e-14)
(0 3.71183e-15 -3.03025e-16)
(0 0 -1.52747e-14)
(2.65301e-13 8.30301e-13 1.28191e-13)
(4.26795e-14 1.31087e-13 1.56926e-14)
(-1.61235e-14 5.93956e-14 1.27632e-14)
(2.25518e-13 9.95647e-13 1.66697e-13)
(2.3349e-14 2.91719e-13 3.54559e-14)
(3.53896e-14 2.22733e-14 -4.48571e-16)
(-8.11056e-15 1.76331e-14 -5.53755e-15)
(4.40759e-11 -2.36291e-12 8.70305e-12)
(3.6261e-10 3.62281e-11 6.23265e-11)
(4.20857e-11 -2.18609e-11 1.085e-11)
(1.31753e-11 -6.12217e-13 1.45673e-12)
(1.44637e-10 -1.32393e-11 2.84701e-11)
(1.40215e-11 -7.43705e-12 3.5823e-12)
(4.68666e-14 2.53669e-14 1.94354e-14)
(1.7374e-12 -7.36496e-13 4.08345e-13)
(5.15999e-13 -4.2909e-13 1.52182e-13)
(4.13736e-13 1.16007e-14 4.13706e-14)
(1.29627e-14 3.9133e-14 -1.49244e-14)
(8.17309e-13 -5.02556e-13 2.00924e-13)
(1.6754e-13 -1.30859e-13 4.06798e-14)
(1.37213e-16 4.71762e-14 0)
(1.85064e-14 -5.47984e-15 3.09352e-15)
(6.49639e-15 1.7783e-15 1.38336e-15)
(1.09216e-16 4.76402e-14 -4.29128e-15)
(0 4.70215e-14 0)
(7.07966e-15 6.57671e-16 1.70144e-15)
(1.54257e-15 3.99315e-15 0)
(0 3.68681e-14 1.27993e-14)
(0 3.50343e-15 0)
(0 3.80023e-16 0)
(0 4.69442e-14 -2.97955e-15)
(0 3.33291e-14 -1.46766e-14)
(0 3.62069e-15 0)
(0 3.88294e-16 0)
(3.73047e-13 -3.41682e-13 7.57912e-14)
(8.90934e-14 -7.2813e-14 1.0831e-14)
(2.78623e-14 -1.82092e-15 9.28056e-16)
(0 2.47681e-15 0)
(0 4.32968e-15 0)
(0 3.09379e-15 0)
(0 4.33093e-15 0)
(0 3.71164e-15 0)
(0 3.71222e-15 0)
(0 3.71222e-15 0)
(-4.79182e-15 1.20647e-13 3.74881e-15)
(0 3.71383e-15 0)
(0 0 1.40779e-14)
(-2.42415e-15 4.57841e-14 2.54469e-15)
(0 3.71148e-15 -3.04405e-16)
(0 0 -1.52466e-14)
(1.71045e-14 1.4323e-13 6.70105e-15)
(3.10788e-14 4.68262e-15 -2.25662e-15)
(1.22176e-15 1.20647e-14 6.81298e-15)
(5.42913e-14 1.43736e-13 1.90828e-14)
(8.39311e-15 7.91941e-14 5.8346e-15)
(3.45235e-14 9.28056e-16 -2.29013e-15)
(0 2.78417e-15 -7.09982e-15)
(5.26888e-12 -1.73174e-13 7.96679e-13)
(4.19258e-11 5.74679e-12 5.35704e-12)
(4.10232e-12 -1.88703e-12 6.97982e-13)
(1.3596e-12 -1.70939e-14 1.83222e-13)
(1.54645e-11 -1.04223e-12 3.21429e-12)
(1.3395e-12 -7.01911e-13 3.08115e-13)
(2.14778e-15 4.29999e-14 1.23013e-14)
(1.54365e-13 -6.11512e-14 2.50575e-14)
(4.02158e-14 -2.0185e-14 6.12299e-15)
(3.25657e-14 4.62481e-14 -2.43153e-15)
(1.06568e-20 4.4392e-14 -1.67219e-14)
(6.92609e-14 -3.79102e-14 1.02086e-14)
(1.22431e-14 -4.60335e-15 1.70144e-15)
(0 4.73308e-14 0)
(0 3.20975e-15 0)
(0 3.70682e-15 0)
(0 4.73308e-14 -4.28075e-15)
(0 4.73308e-14 0)
(0 3.71217e-15 0)
(0 3.7091e-15 0)
(0 3.71775e-14 1.29818e-14)
(0 3.62304e-15 0)
(0 3.88607e-16 0)
(0 4.69442e-14 -2.98015e-15)
(0 3.33295e-14 -1.46613e-14)
(0 3.61359e-15 0)
(0 3.87021e-16 0)
(1.29409e-14 -1.28026e-15 2.78417e-15)
(6.6389e-14 1.26139e-13 -1.77877e-13)
(0 4.33131e-15 0)
(0 3.71222e-15 0)
(8.04315e-15 2.08752e-14 -2.77951e-14)
(0 4.33524e-15 -5.97803e-15)
(0 3.71222e-15 0)
(0 3.71413e-15 0)
(0 3.71389e-15 0)
(0 3.71275e-15 0)
(4.32697e-15 4.33093e-15 2.39204e-15)
(0 3.72033e-15 0)
(0 0 1.40779e-14)
(3.73209e-15 0 0)
(0 1.25854e-15 0)
(0 0 -1.84732e-14)
(4.36334e-15 1.23741e-14 1.44607e-15)
(2.79853e-14 3.48617e-18 -2.30551e-15)
(0 0 6.94295e-15)
(4.69527e-14 1.17648e-14 0)
(3.86272e-15 2.78417e-15 -4.63325e-16)
(3.38016e-14 0 -4.77422e-15)
(0 0 -7.17843e-15)
(2.49956e-13 3.67066e-14 6.15531e-14)
(1.77365e-12 2.38201e-13 4.92535e-13)
(1.63957e-13 -7.77911e-14 5.3029e-14)
(7.68753e-14 8.05122e-14 -5.15071e-14)
(4.73448e-13 -2.52165e-14 4.53201e-14)
(4.61702e-14 -2.18453e-14 1.06726e-14)
(6.56382e-19 4.73308e-14 1.08671e-14)
(2.77613e-15 1.84805e-15 0)
(3.09352e-16 3.69825e-15 0)
(3.65953e-18 4.76402e-14 -9.85445e-15)
(3.93447e-17 4.67251e-14 -3.27232e-14)
(3.22998e-16 3.42522e-15 0)
(0 4.01513e-15 -1.19708e-14)
(0 4.72535e-14 0)
(0 3.7117e-15 0)
(0 3.69532e-15 0)
(0 4.71762e-14 -8.21353e-15)
(0 4.65654e-14 0)
(0 3.70481e-15 0)
(0 3.56996e-15 0)
(0 3.71775e-14 1.27931e-14)
(0 3.3451e-15 0)
(0 3.50259e-16 0)
(0 4.37402e-14 -6.77218e-15)
(0 3.21297e-14 -2.64175e-14)
(0 7.15618e-16 0)
(0 3.25109e-17 -4.75386e-15)
(4.89557e-11 1.05154e-10 -1.69218e-11)
(3.2482e-13 5.43613e-13 -4.03114e-13)
(1.15788e-15 8.65168e-15 -2.78417e-15)
(1.50231e-09 2.18874e-09 3.50794e-10)
(9.72833e-11 1.60507e-10 9.76348e-12)
(5.06195e-11 8.1051e-11 4.49481e-12)
(3.30172e-12 6.50854e-12 -1.05623e-13)
(3.26763e-13 9.76315e-13 -2.65712e-13)
(3.72244e-16 4.3778e-15 0)
(0 3.71415e-15 0)
(7.81724e-12 1.44137e-11 -3.28606e-14)
(9.2682e-13 2.36482e-12 -1.5072e-13)
(3.06242e-13 6.10185e-13 6.42341e-15)
(4.36193e-15 1.17282e-13 3.25022e-14)
(4.95616e-15 6.18704e-16 1.75346e-15)
(0 3.71067e-15 0)
(0 0 1.95063e-14)
(1.25576e-13 2.67719e-13 3.2342e-14)
(9.10878e-15 4.28293e-14 2.88204e-14)
(2.60566e-14 -4.81813e-15 3.35592e-14)
(-1.37303e-14 -1.80943e-14 2.72395e-14)
(1.99977e-10 2.93884e-10 2.01167e-11)
(2.97897e-11 5.30244e-11 9.17188e-12)
(5.43279e-12 1.13626e-11 1.79505e-12)
(1.07621e-11 2.14301e-11 5.51675e-12)
(8.33924e-13 1.70557e-12 3.38218e-13)
(9.96195e-08 1.05338e-07 1.60993e-08)
(9.05647e-10 1.28556e-09 -3.61156e-11)
(2.1336e-14 5.5374e-14 1.22015e-14)
(1.05798e-13 1.9087e-13 3.85909e-14)
(1.24977e-05 1.11704e-05 1.73797e-05)
(3.42336e-09 6.84601e-09 2.12506e-09)
(2.10737e-10 3.04323e-10 7.59731e-11)
(7.3533e-12 9.95866e-12 1.95661e-12)
(1.49229e-12 1.18049e-12 3.37127e-13)
(3.2946e-14 2.10359e-14 5.95397e-15)
(1.91947e-08 1.97887e-08 2.36225e-08)
(1.35089e-09 1.48021e-09 1.69002e-09)
(7.43986e-11 6.38943e-11 7.08513e-11)
(2.94226e-12 2.1414e-12 2.21004e-12)
(9.79456e-14 5.66114e-14 3.38737e-14)
(0 0 1.09396e-16)
(5.52518e-10 5.762e-10 9.10982e-10)
(3.74282e-11 3.50002e-11 5.48533e-11)
(2.02795e-12 1.49711e-12 2.33054e-12)
(7.81429e-14 4.77949e-14 7.37913e-14)
(2.67816e-16 0 4.26461e-16)
(0 0 0)
(1.28314e-11 1.36448e-11 2.63012e-11)
(8.95221e-13 7.84207e-13 1.50567e-12)
(4.37377e-14 2.7223e-14 5.99772e-14)
(1.61345e-16 0 3.67394e-16)
(0 0 0)
(0 0 0)
(2.59229e-13 2.75478e-13 6.23035e-13)
(1.46256e-14 1.06726e-14 3.17859e-14)
(6.06977e-17 0 0)
(0 0 0)
(0 0 0)
(0 0 0)
(1.55925e-10 1.34729e-09 1.01961e-11)
(4.51276e-11 4.7379e-10 5.64827e-11)
(4.93125e-09 4.05189e-09 1.68805e-10)
(1.97935e-09 3.53625e-09 1.35606e-10)
(1.20723e-10 1.9973e-10 5.61706e-12)
(1.82307e-09 1.79487e-09 4.46997e-10)
(7.28988e-10 1.3228e-09 2.16788e-10)
(4.53436e-11 9.79977e-11 1.68628e-11)
(5.38953e-12 7.7033e-11 1.79829e-11)
(4.75165e-13 1.02637e-11 2.32358e-12)
(3.04351e-10 4.10161e-10 9.27278e-11)
(1.04239e-10 1.96599e-10 4.49734e-11)
(7.46322e-12 2.07047e-11 3.57858e-12)
(6.71917e-11 1.49686e-10 2.87526e-11)
(1.61659e-11 3.56724e-11 7.25097e-12)
(7.89688e-13 7.74703e-12 1.24591e-12)
(-1.93872e-13 2.28178e-12 3.59156e-13)
(1.06967e-09 1.88465e-09 3.26143e-10)
(-2.12545e-13 8.12358e-13 7.04551e-14)
(2.13705e-11 6.98338e-11 6.13827e-12)
(2.79239e-12 8.37849e-12 1.24294e-12)
(4.252e-13 3.72725e-12 3.28686e-13)
(5.64285e-11 1.00944e-10 1.7487e-11)
(9.15658e-12 2.8799e-11 6.36264e-12)
(9.31691e-13 4.13007e-12 5.34649e-13)
(9.35169e-14 1.89444e-12 3.2714e-13)
(2.16008e-10 3.94138e-10 1.09986e-10)
(-2.07826e-14 1.91798e-13 4.27767e-14)
(3.43494e-11 8.18779e-11 -5.91449e-12)
(-3.85985e-15 5.01695e-14 1.43228e-14)
(2.80056e-12 1.06138e-11 1.78016e-12)
(2.20336e-13 9.33347e-13 1.96571e-13)
(6.87291e-14 5.37535e-13 9.07948e-14)
(3.28268e-12 1.05435e-11 9.30177e-13)
(1.12272e-12 3.91056e-12 7.71282e-13)
(9.76352e-14 4.39681e-13 3.57301e-14)
(5.25898e-15 2.16436e-13 2.97273e-14)
(1.67726e-07 2.75692e-07 -3.17707e-09)
(8.67225e-07 8.95501e-07 3.58758e-07)
(1.18072e-08 2.42524e-08 -5.68002e-10)
(7.78802e-10 1.40211e-09 -1.56041e-10)
(1.20016e-06 1.0605e-06 9.32727e-07)
(7.26643e-08 6.46751e-08 4.65954e-08)
(4.46008e-08 5.43834e-08 2.15422e-08)
(2.77195e-09 3.60727e-09 9.44505e-10)
(3.25693e-09 7.68675e-09 2.85812e-10)
(4.10528e-11 8.10638e-11 -1.73825e-11)
(3.93984e-12 1.03523e-11 -3.25632e-12)
(4.47423e-09 4.86109e-09 2.16782e-09)
(5.44048e-10 1.08218e-09 1.91409e-10)
(1.95495e-10 2.91429e-10 4.02266e-11)
(2.29696e-11 5.27513e-11 5.79532e-13)
(6.96141e-11 1.78266e-10 -1.6101e-12)
(7.59056e-13 1.64451e-12 -3.17546e-13)
(3.18042e-14 1.18172e-13 -1.89664e-14)
(7.35526e-11 1.19013e-10 2.4141e-11)
(1.15475e-11 2.24453e-11 3.01041e-12)
(3.16395e-12 6.10083e-12 2.69517e-13)
(4.6801e-13 1.11923e-12 -2.49239e-15)
(2.74226e-08 3.61673e-08 6.34126e-09)
(1.08666e-08 2.15376e-08 -1.15428e-09)
(5.76362e-11 8.8408e-11 -7.64632e-11)
(8.50426e-10 1.30545e-09 1.13396e-10)
(2.90826e-10 6.25288e-10 -1.64977e-10)
(5.98002e-10 1.53431e-09 -1.7313e-12)
(1.6293e-10 4.08306e-10 -8.92883e-12)
(4.5111e-11 7.42827e-11 -4.4154e-11)
(3.92134e-11 1.03371e-10 -6.41037e-12)
(1.06786e-11 2.64199e-11 -2.44852e-12)
(1.40846e-10 2.37282e-10 -1.24823e-10)
(1.31171e-12 3.03041e-12 -1.15007e-12)
(1.63567e-12 4.55737e-12 -1.82606e-13)
(5.20783e-13 1.74041e-12 -1.19167e-13)
(2.67777e-13 5.2033e-13 -3.81604e-13)
(1.15909e-13 3.30388e-13 -7.39351e-14)
(2.49267e-14 1.21885e-13 -2.10025e-14)
(8.60309e-13 1.56161e-12 -1.13475e-12)
(1.23741e-14 4.53973e-14 -1.06042e-14)
(2.33467e-14 8.90934e-14 2.5632e-15)
(3.09352e-15 2.62553e-14 4.10255e-14)
(0 3.09352e-15 5.12512e-15)
(0 0 0)
(0 0 1.30514e-14)
(6.7019e-15 1.54676e-14 4.79328e-15)
(4.25391e-11 -4.45993e-11 4.87817e-12)
(2.40401e-10 -1.88854e-10 4.7496e-12)
(8.11807e-10 -6.50926e-10 2.69889e-11)
(2.61351e-09 -1.70059e-09 2.48835e-10)
(2.2171e-10 -1.79105e-10 2.36746e-11)
(6.9452e-10 -5.5634e-10 6.1034e-11)
(4.89893e-11 -5.14637e-11 1.29e-12)
(5.67845e-12 -4.71143e-12 5.43222e-13)
(1.03571e-12 -1.16378e-12 2.53669e-14)
(7.93318e-11 -5.06322e-11 2.02687e-12)
(1.44943e-11 -1.28867e-11 9.1734e-13)
(8.92171e-13 -9.98588e-13 6.88842e-14)
(7.16567e-11 -4.69114e-11 6.40482e-12)
(6.46323e-12 -5.28188e-12 1.19719e-13)
(2.46133e-11 -2.64372e-11 5.54617e-12)
(1.19388e-09 -7.43146e-10 1.5476e-10)
(8.37571e-11 -7.25455e-11 1.66034e-11)
(2.08465e-10 -1.65068e-10 5.47854e-11)
(1.1188e-10 -8.6968e-11 2.14309e-11)
(4.2808e-10 -3.50613e-10 6.13589e-11)
(1.37134e-11 -1.37e-11 3.77007e-12)
(3.14513e-12 -2.60907e-12 6.31697e-13)
(1.45074e-11 -1.27607e-11 1.56138e-12)
(5.33524e-13 -7.69668e-13 1.26525e-13)
(2.39875e-11 -1.77303e-11 5.44707e-12)
(7.19553e-13 -8.52574e-13 7.81508e-14)
(3.88902e-11 -2.48799e-11 4.83703e-12)
(1.72619e-12 -1.58636e-12 4.39589e-13)
(8.61401e-15 -1.0518e-14 0)
(1.22503e-13 -1.22503e-13 9.28056e-16)
(4.09582e-13 -3.61281e-13 1.20647e-14)
(1.82928e-12 -1.30924e-12 1.15079e-13)
(1.0878e-13 -1.13842e-13 3.09352e-15)
(3.61216e-13 -3.16492e-13 1.91798e-14)
(1.17554e-14 -1.48489e-14 0)
(2.59245e-16 0 0)
(0 0 0)
(3.27424e-14 -9.89926e-15 6.18704e-16)
(5.56833e-15 -9.65177e-16 0)
(0 0 0)
(1.79886e-14 -6.20335e-15 0)
(6.86033e-16 0 0)
(5.56833e-15 -7.42445e-15 0)
(1.25968e-12 -8.01109e-13 1.06071e-13)
(6.47879e-14 -7.48632e-14 8.3525e-15)
(1.62443e-13 -1.29396e-13 2.59856e-14)
(8.15685e-14 -7.67193e-14 4.02158e-15)
(2.39438e-13 -2.09321e-13 2.4437e-14)
(2.46288e-15 -1.23741e-15 0)
(2.903e-16 0 0)
(4.33093e-15 -2.18555e-15 0)
(0 0 0)
(1.45211e-14 -3.00693e-15 0)
(0 0 0)
(2.03534e-14 -6.72718e-15 0)
(2.12732e-16 0 0)
(0 0 0)
(0 0 0)
(0 3.02752e-15 0)
(0 3.127e-15 0)
(2.21729e-48 0 0)
(0 3.08411e-15 0)
(0 0 0)
(0 0 0)
(0 0 0)
(0 2.47482e-15 0)
(0 2.48326e-15 0)
(0 0 0)
(0 2.46736e-15 0)
(0 0 0)
(0 0 0)
(0 3.73887e-15 0)
(2.38814e-43 0 0)
(0 4.12938e-15 0)
(7.68097e-46 0 0)
(0 4.14507e-15 0)
(0 0 0)
(0 0 0)
(0 2.16022e-15 -3.45648e-17)
(0 0 0)
(0 2.52765e-15 0)
(0 0 0)
(0 2.46185e-15 0)
(0 0 0)
(1.74413e-12 4.60996e-11 2.66588e-12)
(-1.16084e-12 5.05153e-11 6.16538e-13)
(-1.79199e-12 4.24722e-11 3.10924e-12)
(-1.05798e-13 2.07946e-12 1.09404e-13)
(-3.33586e-12 6.79399e-12 1.42921e-13)
(-2.89592e-12 5.81705e-12 3.74102e-13)
(-1.23122e-13 2.3783e-12 1.39208e-14)
(0 0 5.25263e-18)
(0 0 0)
(0 3.89149e-15 0)
(0 3.42269e-15 0)
(0 0 0)
(0 3.7443e-15 -2.04682e-16)
(0 0 0)
(-4.36685e-13 2.06882e-11 1.90282e-12)
(2.93884e-13 1.43193e-11 1.61692e-12)
(-1.17364e-12 1.61513e-11 2.00752e-12)
(-4.82589e-14 1.0221e-12 1.11172e-13)
(-7.29856e-13 1.65936e-12 2.90709e-13)
(-1.38278e-12 2.88254e-12 3.64229e-13)
(-2.66043e-14 6.55207e-13 7.09618e-14)
(0 0 1.04923e-17)
(0 6.21076e-16 -2.71376e-16)
(0 0 0)
(0 5.33815e-16 -3.90067e-15)
(0 0 0)
(0 6.53186e-16 -1.47276e-15)
(0 0 0)
(3.18749e-12 -3.11579e-12 7.99365e-13)
(2.96603e-11 -2.41194e-11 8.49631e-12)
(1.1849e-10 -9.63721e-11 1.97913e-11)
(6.09795e-12 -6.70056e-12 1.56127e-12)
(5.01896e-11 -3.91611e-11 1.33976e-11)
(3.94732e-13 -3.53899e-13 9.62085e-14)
(1.73237e-13 -2.35107e-13 6.40786e-14)
(1.01192e-11 -6.48008e-12 1.78898e-12)
(1.31165e-12 -1.17206e-12 3.44922e-13)
(7.44587e-13 -6.23035e-13 1.6739e-13)
(5.56833e-14 -7.79567e-14 1.25102e-14)
(5.99544e-12 -4.34655e-12 1.39394e-12)
(2.07266e-13 -1.81899e-13 2.68996e-14)
(1.11119e-12 -9.86645e-13 1.06486e-13)
(2.82534e-14 -5.63021e-14 2.78417e-15)
(1.86415e-12 -1.37223e-12 3.2795e-13)
(3.27913e-14 -6.0633e-14 2.1447e-15)
(3.08238e-12 -1.93615e-12 3.47504e-13)
(1.20029e-13 -1.16935e-13 1.61141e-14)
(0 0 0)
(1.53991e-14 -1.17554e-14 1.23741e-15)
(9.89926e-14 -9.04525e-14 1.75909e-14)
(1.5753e-13 -1.14861e-13 2.75323e-14)
(0 0 3.37907e-16)
(3.63724e-15 -6.18704e-16 0)
(3.02129e-14 -2.95534e-14 4.33093e-15)
(2.37847e-38 0 0)
(0 0 0)
(6.77621e-39 1.24117e-15 0)
(0 1.52103e-15 0)
(4.7054e-41 0 0)
(0 0 0)
(1.20298e-36 1.30167e-15 0)
(0 0 0)
(8.66185e-14 -3.8209e-14 3.66906e-15)
(2.28555e-20 0 0)
(6.83703e-15 -7.61771e-16 0)
(1.77967e-15 0 0)
(2.16546e-14 -1.64169e-14 9.24575e-16)
(0 0 0)
(3.53404e-36 0 0)
(0 1.98466e-15 0)
(0 0 0)
(3.08086e-32 1.90486e-15 0)
(0 0 0)
(2.12954e-34 1.86298e-15 0)
(4.0841e-34 0 0)
(0 0 0)
(6.65055e-41 0 0)
(0 4.30219e-15 0)
(0 4.32098e-15 0)
(0 0 0)
(1.66354e-38 0 0)
(0 4.29531e-15 0)
(0 0 0)
(0 0 0)
(0 4.3309e-15 0)
(0 4.32141e-15 0)
(0 0 0)
(0 0 0)
(0 4.3302e-15 0)
(0 0 0)
(0 4.94922e-15 0)
(7.60902e-34 0 0)
(0 4.91684e-15 0)
(3.76787e-36 0 0)
(0 4.93184e-15 0)
(0 0 0)
(0 0 0)
(0 3.70271e-15 0)
(0 0 0)
(0 3.71222e-15 0)
(0 0 0)
(0 3.7115e-15 0)
(0 0 0)
(3.00036e-14 3.81802e-12 7.98472e-13)
(3.71222e-14 2.09184e-12 3.19774e-13)
(-1.99146e-13 2.38448e-12 3.61832e-13)
(0 8.10502e-14 6.41134e-15)
(-2.0699e-13 4.75783e-13 9.48678e-14)
(-6.80574e-15 1.74474e-13 3.6336e-14)
(-7.4544e-14 1.96748e-13 2.16294e-14)
(0 0 0)
(0 0 0)
(0 3.65725e-15 7.6437e-16)
(0 3.70598e-15 0)
(0 0 1.74579e-15)
(0 0 0)
(0 3.87294e-15 0)
(-2.71289e-14 5.97668e-13 1.17652e-13)
(-4.1697e-14 3.51424e-13 5.45973e-14)
(2.47482e-15 2.58618e-13 5.73651e-14)
(0 1.11367e-14 1.23041e-15)
(-1.09832e-14 2.66043e-14 -1.65146e-15)
(-2.03704e-14 8.72372e-14 2.03239e-14)
(0 4.33093e-15 3.09352e-16)
(0 0 0)
(0 3.70633e-15 0)
(0 0 0)
(0 3.6589e-15 -1.20461e-15)
(0 0 0)
(0 3.8818e-15 0)
(0 0 0)
(3.77409e-14 -4.02158e-14 4.72158e-15)
(9.28056e-15 -1.79424e-14 9.24583e-16)
(1.14955e-12 -7.10756e-13 1.2842e-13)
(1.39827e-13 -1.22942e-13 3.27818e-14)
(6.99135e-14 -6.0633e-14 6.66471e-15)
(1.85611e-15 -6.18704e-16 0)
(7.61624e-13 -5.17712e-13 1.47367e-13)
(8.04315e-15 -8.66185e-15 5.47586e-16)
(9.21869e-14 -7.21293e-14 1.01689e-14)
(0 0 0)
(1.67669e-13 -9.83686e-14 2.66141e-14)
(0 0 0)
(3.0069e-13 -1.56544e-13 4.61568e-14)
(3.09352e-15 0 2.45646e-16)
(0 0 0)
(3.29452e-18 0 0)
(8.04315e-15 3.62025e-15 0)
(9.16388e-15 3.09781e-15 0)
(0 0 0)
(1.37721e-16 0 0)
(1.85047e-15 3.63873e-15 0)
(1.43996e-29 0 0)
(0 0 0)
(4.50216e-30 2.47569e-15 0)
(0 2.55447e-15 0)
(3.45295e-32 0 0)
(0 0 0)
(5.41667e-28 2.50621e-15 0)
(0 0 0)
(0 4.33183e-15 0)
(3.19907e-21 0 0)
(0 4.21596e-15 0)
(4.07383e-23 0 0)
(0 4.25617e-15 0)
(0 0 0)
(1.48361e-27 0 0)
(0 3.11122e-15 0)
(0 0 0)
(6.80975e-24 3.10908e-15 0)
(0 0 0)
(6.58062e-26 3.09404e-15 0)
(1.23525e-25 0 0)
(0 0 0)
(1.36091e-31 0 0)
(0 4.33092e-15 0)
(0 4.33093e-15 0)
(0 0 0)
(2.15671e-29 0 0)
(0 4.33089e-15 0)
(0 0 0)
(0 0 0)
(0 3.71219e-15 0)
(0 3.70275e-15 0)
(0 0 0)
(0 0 0)
(0 3.7115e-15 0)
(0 0 0)
(0 3.71222e-15 0)
(3.77734e-25 0 0)
(0 3.71222e-15 0)
(3.05796e-27 0 0)
(0 3.71219e-15 0)
(0 0 0)
(0 0 0)
(0 3.70271e-15 0)
(0 0 0)
(0 3.71219e-15 0)
(0 0 0)
(0 3.7115e-15 0)
(0 0 0)
(-5.62054e-15 7.79567e-14 8.05348e-15)
(0 7.7338e-14 -2.14924e-15)
(0 4.70215e-14 2.425e-14)
(0 0 0)
(6.21026e-15 1.6705e-14 2.20757e-15)
(0 0 3.87663e-15)
(1.9812e-15 4.33093e-15 -8.76263e-15)
(0 0 0)
(0 0 0)
(0 3.65101e-15 7.68204e-16)
(0 3.70673e-15 0)
(0 0 1.70062e-15)
(0 0 0)
(0 3.87895e-15 0)
(5.84672e-16 3.58848e-14 9.66746e-15)
(0 1.48489e-14 -4.26122e-15)
(0 9.28056e-15 2.29494e-14)
(0 0 0)
(2.76803e-15 1.85611e-15 -5.51553e-15)
(2.72567e-15 8.04315e-15 1.05552e-14)
(0 0 9.33267e-16)
(0 0 0)
(0 3.70631e-15 0)
(0 0 0)
(0 3.64675e-15 -1.20153e-15)