/*--------------------------------*- C++ -*----------------------------------*\
  =========                 |
  \\      /  F ield         | OpenFOAM: The Open Source CFD Toolbox
   \\    /   O peration     | Website:  https://openfoam.org
    \\  /    A nd           | Version:  9
     \\/     M anipulation  |
\*---------------------------------------------------------------------------*/
FoamFile
{
    format      ascii;
    class       surfaceScalarField;
    location    "0.0031";
    object      phi;
}
// * * * * * * * * * * * * * * * * * * * * * * * * * * * * * * * * * * * * * //

dimensions      [0 3 -1 0 0 0 0];

internalField   nonuniform List<scalar> 
77875
(
0.526637
-3.21282
-0.651105
-1.53302
2.01707
0.644983
0.0867168
0.418514
-2.19477
-0.563496
1.18626
-1.43188
-2.1377
1.31176
1.20813
-3.88886
-3.05284
-2.38251
2.37515
1.45394
-2.74289
1.83286
-3.58043
-2.78847
3.51979
-1.88772
2.27537
-3.74465
-3.39252
2.00486
-1.91323
3.26811
-2.43103
-3.49631
-1.39242
2.89597
1.33758
2.76929
-2.05156
-0.852717
-3.16326
1.58657
1.45648
2.20242
0.504986
1.46099
-1.99657
-1.09699
-0.431629
2.70412
-1.98809
0.356286
-2.69322
-0.249634
2.15553
-1.10341
-3.83608
0.252347
-0.116343
3.29985
2.29667
2.2294
0.958596
-0.688849
-1.09647
-3.53852
3.08645
-2.24337
3.78083
-0.383188
3.40066
-4.18175
0.566106
3.58396
-0.787823
3.3193
-3.92354
1.03763
-1.097
-3.43747
1.24538
3.02534
2.21534
2.05527
2.01189
-1.79813
-1.04652
-3.42155
3.23013
-2.17314
3.51773
-1.30455
3.15297
-3.81828
1.57259
3.70777
-1.81689
2.84444
-3.93099
2.01713
-1.02294
-3.44078
2.16381
3.33038
1.97532
3.12073
-2.82059
-0.220058
-3.32751
3.86174
1.05677
4.00832
-2.40527
-1.8984
-4.20305
1.91849
2.75832
3.68078
-1.63906
-2.03462
-3.77017
2.15578
2.22871
0.516304
-3.6057
3.02711
3.80932
0.376879
-3.2157
-3.40438
0.622896
2.13235
3.06701
-0.0670372
-0.140377
3.595
0.970256
0.335505
-3.62737
-3.57908
0.160281
-0.0295081
3.24639
-0.999371
0.257284
-3.95145
-0.136564
2.1569
-1.08476
-3.78817
0.447282
3.26739
-3.60832
-0.012663
0.346081
3.22243
0.439306
-3.89088
2.09221
3.52255
0.968443
0.580898
-3.56014
-1.08636
-3.67326
3.18744
2.22674
-0.579542
-3.39423
0.846966
2.9966
-0.675312
-0.978945
0.944635
-3.65289
2.09788
3.13405
-3.77225
2.07755
0.849718
-3.44456
-1.13451
3.22288
0.991104
1.42869
-3.32318
-3.28143
1.13278
2.86228
-0.991263
1.23657
-3.57295
2.11346
-1.07947
-3.39124
1.53378
3.02847
-3.36816
1.41451
2.85514
1.53857
-3.53139
2.10384
3.202
0.979506
1.7134
-3.31142
-1.06024
-3.39558
3.10585
2.1193
-1.66738
-3.20663
1.86593
3.02053
-1.8318
-0.958273
2.09665
-3.56833
2.00349
2.91503
-3.53336
2.06884
1.96676
-3.33261
-2.21276
3.18191
0.902858
2.52054
-3.29208
-3.21313
2.04467
3.13352
-0.956101
2.33197
-3.59129
1.92594
-0.893893
-3.3792
2.36268
3.34585
1.77551
-3.35055
2.31301
3.19199
2.59723
-3.53422
1.75956
3.08551
0.799202
3.20705
-3.06969
-0.667559
-3.26281
3.42746
1.48941
-2.97327
-3.26339
3.40487
4.09815
-3.08345
-0.350697
3.54055
-3.21518
1.33011
3.41893
-3.29268
1.61535
3.8099
-2.99526
-1.88049
-0.740213
-0.363302
1.79489
0.428849
1.01214
-1.7943
1.53481
-1.2806
-0.317446
1.83902
0.41054
-0.912733
-0.797517
-1.44399
0.737224
0.700561
1.43379
-3.80372
3.63525
-0.666408
-3.49643
-3.50306
3.29132
3.84594
0.505877
3.4823
-3.33144
0.746193
0.46498
-3.62102
3.41349
2.31499
0.291762
-3.22105
3.4438
2.32307
-3.46397
3.1789
0.419793
2.80276
-4.46753
-0.1919
-2.78293
4.83869
0.399792
-1.14875
1.18292
-0.716048
0.101835
2.24167
-4.30539
-0.768468
-2.05879
4.65315
0.754207
-0.624831
-1.0224
1.10698
-0.737498
0.662959
1.62732
-4.06596
-0.874396
-1.57979
4.30937
1.01972
-0.611905
-1.62536
1.48391
-0.308453
0.655104
-1.41037
-4.20698
1.13379
-0.958031
4.49787
1.67476
-1.02378
-2.0258
1.74719
0.612032
1.20009
-0.571759
-3.39416
1.47108
-3.1676
3.35028
3.34015
-0.333066
-1.67025
1.87762
-3.18759
0.57034
2.17872
-2.66977
3.71859
0.158317
-4.65831
-4.29367
4.36665
0.165895
4.55053
2.60804
-4.46123
-0.592816
-2.53261
4.82101
0.721782
1.06387
0.813904
-0.644081
-2.55318
3.59111
5.20728
3.66037
-0.300498
-5.02985
0.451052
-3.58371
2.72941
-5.24523
0.128375
5.10106
-2.28682
-0.489292
1.11291
-0.750398
2.68985
-0.279098
0.421568
5.00804
-2.19288
-2.42028
3.48664
0.830614
4.16078
-4.31597
-0.488927
-4.24553
4.78737
0.584382
1.90462
-4.1135
-0.741342
-1.78909
4.37863
0.77861
1.42559
0.678759
-0.705547
-2.04769
3.51043
3.75257
-4.14817
-0.80011
4.32293
-3.84444
0.9493
2.5283
-4.8907
-0.524084
0.590785
4.6064
-1.94767
-0.623126
1.38932
-0.484876
2.34716
-4.45183
-0.644191
0.70732
4.01595
-1.81924
-1.97597
3.57441
0.70516
3.66008
-3.81182
-1.1254
3.94007
-3.83016
1.31356
1.31191
-4.16287
-1.19829
-1.19222
4.43712
1.94413
1.12584
-0.945958
-1.8132
3.77071
3.16798
-3.41218
-1.34126
-3.21746
1.46283
3.22598
-3.71016
-0.875116
3.13488
-1.80965
0.976657
2.24031
-0.8677
1.6986
0.357101
-1.08998
2.78264
-1.89092
1.20891
2.27008
-3.14995
0.0867153
1.93006
-0.421488
-1.6241
3.50254
-2.70171
-3.12475
0.000543663
-0.213964
3.47412
3.23287
-1.7571
3.81038
1.36519
2.89061
-2.9269
-1.54904
-3.14394
1.56656
3.17342
-1.33318
-2.43759
2.83469
1.68306
-3.86715
3.83014
2.4322
-1.92427
-1.9134
3.17852
2.23195
2.88317
-2.67865
-1.57936
-2.73042
1.59252
2.92116
-1.30168
2.71801
-1.94882
1.32216
2.29796
-1.3385
1.52154
1.64396
1.26214
-1.31081
2.89564
-1.85641
1.28357
2.37468
-0.8931
0.686795
-0.0425294
0.119829
0.843843
-0.918421
0.108626
0.923068
-2.43146
1.15012
0.0368867
-0.698474
-0.580583
1.16902
-0.734557
-1.18024
0.282255
-2.45129
0.2815
1.11749
0.115536
-0.614111
0.874698
-0.911567
-0.318239
-0.669256
0.404505
0.351429
0.614903
-0.761615
0.74336
0.638502
-0.593613
-2.15468
0.830238
-0.55362
0.375653
-0.320515
-0.612049
1.16597
-0.697802
-1.04665
0.66011
-0.27207
0.72159
-0.896051
-2.04684
0.638057
0.791748
0.406837
-0.568483
-0.484923
-0.81537
-0.258419
0.564505
0.734389
0.0143493
0.718601
0.650954
-0.601762
-2.02988
1.03086
0.107346
0.521091
-0.475564
-0.269102
1.55738
-0.103707
-1.75952
0.742788
-0.427752
0.644242
-0.158536
-2.07544
0.742083
1.12586
0.585048
-0.0994471
-0.899467
-1.51013
-0.654009
0.979316
1.43444
0.534071
1.28217
1.21393
-1.03647
-2.25074
1.38283
0.579841
0.884268
-0.784556
0.548408
1.79769
0.86354
-2.10271
1.33282
-0.784594
1.19667
0.426923
-2.33588
1.35427
1.45238
0.931846
0.825821
2.05617
-3.86632
-0.888012
2.86163
-2.41725
3.92304
-2.25142
-2.56757
2.90914
2.62663
3.01642
-0.832911
-0.62341
1.34115
-4.14282
1.32849
3.97108
2.30157
3.49823
-3.80925
1.98816
-1.55145
-1.67892
-3.56138
3.00446
1.85343
-1.60007
3.22192
2.70597
-2.76641
-2.96085
2.9947
-2.33107
2.96731
2.59003
-2.0942
-1.48397
-2.3817
1.12445
2.30507
-0.985737
-2.88272
-2.4344
1.45128
2.12239
1.7375
-2.09541
2.27263
2.71357
-2.53118
2.48782
-5.10897
3.85539
-0.180052
0.385221
-3.88951
4.60959
0.178188
5.1612
-5.23908
-2.75913
0.164701
-3.7926
3.39525
-2.70574
3.68418
0.388963
0.402934
-5.19154
0.38504
3.35746
-3.81901
-5.10851
3.82761
0.581011
-3.85955
4.60343
-2.67095
3.65841
1.14481
-0.618983
5.09586
0.733916
-5.19691
-0.613751
-3.71304
2.27839
0.764986
3.22784
-5.1973
-2.75851
2.40168
3.31813
0.706881
-3.72925
4.5848
-0.86274
0.684168
0.21331
0.819887
-0.94025
1.144
-0.75194
-0.46973
0.805014
0.933025
-0.23698
-0.639175
-0.632377
1.0496
-0.62503
0.787761
-0.944727
-0.742171
-4.91789
3.46552
0.711561
-3.43498
4.38829
5.01615
0.754252
-5.12669
-2.42881
-3.58649
0.807648
3.09726
-2.28119
3.43392
0.81057
-3.5774
4.50732
0.694243
-5.03066
0.779881
2.99314
-4.82433
3.36938
0.681007
-3.32643
4.25346
-2.15174
3.45155
1.18684
-0.638449
4.74466
0.64582
-4.81511
-0.717782
-3.27676
1.98821
0.703329
2.9648
-4.92076
-2.06365
1.98884
2.95086
0.701448
-3.21892
4.16827
-0.635184
0.228641
0.386029
0.572384
-0.564879
1.27189
-0.614781
-0.605533
0.652788
0.925808
-0.436933
-0.0555531
-0.402343
0.83188
-0.499194
0.585813
-0.353572
-0.784595
-4.69662
3.06775
0.925151
-2.96475
4.17098
4.69493
0.707345
-4.73801
-1.76645
-3.18575
0.745787
3.01091
-1.92334
3.63241
0.808339
-3.10607
4.1416
0.814374
-4.7035
0.856274
3.0729
-4.73638
2.91824
1.10201
-2.78202
4.26396
-1.87368
3.69277
1.86119
-0.959946
4.80512
1.14933
-4.73964
-0.998721
-2.76623
2.17114
1.17465
3.21679
-4.70408
-1.47572
2.11825
3.14162
1.30466
-2.57602
4.35842
-0.938285
-0.38592
0.667301
0.852274
0.167748
1.62252
0.119197
-0.8749
1.08955
1.31165
-0.67664
0.493296
0.305192
1.21406
0.0947318
0.999558
0.306072
-1.59796
0.580671
3.70075
-0.411984
2.04484
-2.94967
-0.424924
1.82007
0.446719
-2.71056
-1.49719
-3.69349
1.568
-0.0738649
-1.2774
-3.20935
-0.1051
2.28186
-0.18733
3.55874
-0.388342
-2.96424
-1.26766
2.22318
0.6672
-2.74048
-0.1279
1.94767
4.23606
-1.3738
4.11034
1.82148
-3.08951
-4.08401
1.40038
4.75508
-1.10483
-1.06122
-3.10561
1.79537
4.76773
0.580057
3.62931
2.68647
-0.347683
-2.9043
-3.23139
-0.113032
-0.0814671
3.56783
-2.73429
-0.51465
0.579783
-2.67335
3.28984
-2.53529
-3.4297
0.0887011
3.95355
3.17078
0.715345
-2.76493
-0.0722728
4.15531
-0.226874
-2.75814
3.37689
3.95261
2.70924
-2.9689
-2.5352
-3.59269
4.27448
3.33774
4.60117
3.58176
-2.74887
-1.54988
-4.8393
2.57066
1.84693
-2.23734
4.32229
4.83442
1.41433
-2.64148
1.40888
3.21459
-1.72386
3.83292
1.64907
-2.38183
4.36472
1.76827
-0.950956
1.70437
3.17478
-4.6631
2.5626
2.23012
-2.19028
4.13414
-1.78404
3.64476
2.2164
-2.35866
4.26091
2.97313
-1.09877
-1.94236
-2.68915
2.66554
2.04329
2.7001
-0.980636
2.44511
3.0046
2.58427
-2.20301
3.77182
-1.80052
-0.675666
0.97785
1.76323
0.61551
1.71996
1.17466
-1.37369
2.20237
1.31961
1.34118
-0.85584
0.692713
1.67849
0.739561
1.43681
1.18106
2.23691
0.927128
0.721126
-3.30231
3.57643
3.70871
-1.09386
-2.48963
3.34316
3.10749
-2.30674
-2.38211
-2.98927
2.26867
3.3792
2.64395
3.89789
-2.67179
-0.80178
-2.9283
3.43822
-2.23188
2.94606
2.83506
-2.43691
3.74045
2.9649
-2.22255
3.45889
-0.354612
-2.22451
-2.9872
2.64653
0.569286
2.32465
0.0791819
-2.70073
2.14129
-2.15482
2.74689
0.0748817
-2.2465
0.120328
-1.97213
2.4505
-0.00417327
2.05636
-1.27444
1.46516
-1.76419
2.62692
2.27496
2.92824
-0.677222
-2.17794
0.752643
-2.62837
1.91298
-2.15065
2.39821
-1.48713
-0.185141
1.73398
0.274971
2.68703
1.82114
-0.244607
-1.86218
0.37636
-2.75171
-3.63411
2.99336
-2.41556
3.39998
-2.55439
2.49463
2.39366
2.90845
3.18386
-1.83484
2.17119
3.1295
2.47526
-3.09783
2.23026
3.3874
2.43114
-2.37587
3.12916
3.30207
2.31316
2.17509
0.0150423
0.0113913
0.0044866
-0.0867352
-0.00217414
-0.0946096
-1.65643
-1.57652
-0.00711608
1.78989
1.674
0.0222184
2.73852
-1.92224
-0.0776677
-2.72676
0.196049
2.06576
-1.40419
3.84184
0.126039
-3.34773
2.12139
0.355425
-0.261943
-1.31241
3.86674
-3.28751
2.00621
-1.17384
3.87508
0.473081
-3.25577
1.82765
0.880545
-0.714313
-0.965469
3.57297
-2.9732
1.55365
-0.971377
3.50218
1.09692
-2.92267
1.52131
1.95043
-1.65055
-0.859099
3.50478
-2.98764
1.1653
3.06927
-0.659427
-2.58836
2.22579
-1.89597
3.02619
3.62998
-3.0373
-0.28984
-2.69956
-0.796504
3.54106
2.26707
1.01212
3.81924
-3.2758
-0.321774
3.2004
0.869093
-3.11047
0.32136
3.245
4.11866
0.776147
-3.92675
0.993801
3.2017
-3.30414
-0.248817
-1.19776
-0.951361
-4.04866
1.70427
1.47449
4.37739
-0.0126504
-2.77377
4.15622
0.425832
3.89822
0.0334779
1.73306
-1.2407
-4.41592
0.189144
3.54167
-0.0260615
-2.17051
-4.43121
0.319551
2.50631
-3.38664
1.11135
-0.0409579
-0.0133163
3.40488
0.0406188
3.38696
-2.76405
0.0811799
-1.08485
2.18526
3.87547
-1.4479
3.82587
0.182518
-3.30194
2.18799
-0.000291946
-2.76539
0.0926073
2.23243
3.86643
3.40296
-3.40107
1.09173
-0.0276757
3.44481
-1.42148
3.83738
-3.29835
2.14578
0.00934509
3.44244
0.0128436
-2.73737
-0.139135
-1.02361
0.209424
2.11696
3.9303
-2.75316
2.21165
3.88574
-0.0150459
3.5373
-0.112369
-3.49324
0.893399
0.321463
3.48687
0.156993
-2.73867
-0.952327
0.330409
1.99196
-1.04435
3.8043
0.585721
-3.17423
1.67772
0.372583
-2.69539
0.473807
1.89277
-3.43892
0.883955
0.577216
-0.978365
3.68349
-3.06473
1.59544
-0.614059
3.36808
0.857177
-2.57731
-0.654182
-0.917249
0.880472
1.90146
-2.62712
1.86841
0.848757
-1.13326
-3.27659
0.936779
1.43228
3.30986
1.11684
-2.6017
-0.94042
1.14963
1.9311
-0.958833
3.46297
1.35978
-2.90808
1.44651
1.40249
-2.65961
1.44842
1.91755
-3.27293
0.907224
1.72855
-0.919924
3.46463
-2.93029
1.32164
-1.70272
3.30018
1.99991
-2.80381
-1.76033
-0.862751
2.06719
1.73956
-2.72532
1.85409
2.00246
-2.28726
-3.27693
0.794707
2.645
3.32147
2.32033
-2.87934
-0.837875
2.37547
1.60227
-0.686375
3.51697
2.6496
-3.11668
0.852007
2.71972
-2.89784
2.71394
1.41323
-3.03925
0.699955
3.38361
-0.481482
3.33016
-3.10807
0.779085
-3.49934
2.87354
-2.58729
4.30613
-3.28976
-0.353759
3.7783
1.27786
-2.71341
4.14397
-2.34746
2.22383
-0.416689
2.74897
0.528267
-1.89418
-2.13711
2.40524
-0.467499
-2.0557
0.153874
2.10224
-2.29255
-1.7656
-0.456384
-2.66784
2.59492
0.275994
-1.99982
-1.78487
2.82276
-0.259896
2.49125
-2.38396
2.25532
-0.587447
3.27167
-1.98662
0.75382
-0.27556
-2.7361
-3.55078
-2.20915
4.16167
0.0505702
-2.935
0.530494
3.4704
-2.42342
-0.055672
-2.45021
3.89627
-1.97635
0.791703
-4.22926
-3.36246
-0.701279
2.05591
3.15499
4.47295
-2.9246
1.9211
0.484062
3.86115
0.897753
0.491429
3.26396
-3.01221
4.12623
0.66181
2.47954
-3.0928
1.74577
4.42428
3.78009
-2.50849
4.57664
0.900928
0.473641
4.00179
-2.39703
-0.198558
0.206376
-2.73665
0.597313
4.26424
4.41167
-2.0956
0.999041
-2.67106
1.13973
4.61063
-0.399647
-2.14431
1.00985
4.51904
-2.29734
0.221436
4.29933
-1.61874
0.547028
-1.86296
-0.496712
1.68017
1.60406
1.61061
-1.98574
-1.42297
-0.132707
0.20998
0.110608
1.91528
-2.0801
-1.85393
-0.012028
-1.66006
1.53082
-1.35278
-0.0393608
1.75551
0.075492
-1.63305
-0.500611
-1.48282
1.65441
0.405496
1.30449
-0.914821
-0.904419
0.959541
2.57181
1.20117
-1.02453
-1.43972
1.87924
1.11945
1.5553
-0.816616
0.778425
-0.997527
0.899664
0.0409082
0.807007
0.0486228
-1.63425
-0.629237
1.47383
-0.832495
0.80988
-0.105337
-0.823801
0.999373
0.143114
0.682355
-0.191608
0.223036
-1.65437
-0.551576
1.25672
-1.18966
-0.249866
-0.534623
1.42979
0.29603
0.949082
0.248068
-0.217701
0.157224
-1.13957
-0.226246
0.279396
-1.97023
-0.651903
-0.41001
1.99524
0.71686
1.06073
0.0423233
-0.285375
-0.0869937
0.0293512
0.046258
-0.0272864
-1.22108
1.21587
2.45215
1.42801
-0.305382
-2.29566
-0.0866066
1.55889
0.227271
0.217999
1.33663e-05
-0.000110402
1.93206e-05
-2.49591e-05
-3.32484e-05
7.94474e-05
0.000104447
0.000138331
-0.00218284
-0.000503087
-0.000307927
0.000247386
-0.137909
-1.09927
0.028291
0.123079
3.12039
-0.0770195
-3.80224
1.46744
-1.00114
0.112102
0.836772
-0.0762607
-0.132364
-0.865892
3.02358
-3.7293
0.198138
1.3866
-0.918794
0.569836
0.427283
0.0414187
-1.01154
0.0456118
1.14003
-0.884992
1.25073
0.135048
-0.808303
-0.101255
0.692266
0.512904
-1.04062
-0.0874313
1.15206
0.131492
-0.969715
1.27147
-0.164345
-0.713234
0.156922
2.55815
-0.257015
-3.25091
0.317746
0.967063
-0.523281
0.275498
1.06951
-0.238838
-0.465195
-0.265952
2.11359
-0.415049
-2.40785
0.135091
0.470956
0.293489
0.749157
0.554378
0.171719
-1.07182
-0.178289
1.15944
0.227356
-1.10563
1.24263
-0.589761
-0.17483
0.316136
-2.5693
2.19808
-0.555096
-0.311561
0.629872
0.766279
0.598739
1.73599
-0.463625
-1.02366
0.00877394
1.03945
-2.40253
2.29119
-0.724772
-0.621846
0.839589
-1.31373
0.0559776
0.744505
1.35227
-2.54004
2.59073
-0.967068
-0.826525
1.07991
2.14358
0.502433
-0.752573
-2.15294
0.159764
1.68156
-2.849
2.70968
-1.10774
-1.09288
1.0409
-1.50921
2.4442
1.81263
0.316627
-2.44208
-0.404819
0.184605
2.1468
-3.5318
3.75913
-2.19712
1.41785
-1.28808
2.24516
-0.875418
-3.69307
-1.19007
3.36739
0.994292
1.42951
0.114304
-0.0802171
2.44031
1.04517
-0.591966
0.0545814
-1.21904
-0.75463
1.57762
0.0599736
-2.03199
0.081537
2.02302
0.31226
-0.0731826
-0.896481
0.96981
0.186546
2.38094
0.961959
-0.528023
-0.0969511
0.14343
-1.29687
-0.756568
1.6322
0.114297
-2.07381
-0.130036
2.0866
0.198046
0.266888
-0.243051
0.294327
2.11718
0.627206
-0.208273
-0.194427
0.252401
-1.44377
-0.759736
1.67396
0.219917
-2.04316
-0.257705
2.15882
0.323246
0.164473
-0.215499
-0.587139
1.27997
0.885782
-0.406912
2.08846
0.0750304
0.48198
0.346179
-1.28154
-0.259613
0.323963
1.67444
-0.766356
1.11365
0.387657
-2.0999
-0.395679
2.34885
0.48597
0.0115072
-2.15091
-0.568094
2.25137
-0.235112
0.675954
0.640839
-1.66857
1.18052
-0.401853
0.490438
1.77312
-0.758794
0.637357
-0.63015
-2.45303
0.712567
-0.218624
2.36809
-0.504131
-0.451184
1.95505
1.10686
0.923657
-2.34685
-0.82269
2.57474
-0.487913
1.02078
-1.8674
1.11433
-0.562858
0.59951
1.81021
-0.692175
0.621658
-0.75493
-2.44728
0.732549
-0.327241
1.82678
1.14946
-2.62385
-1.09052
2.52058
-0.667927
1.08889
-1.84226
0.710911
-0.60124
0.519978
1.2101
-0.455121
0.282583
-0.562515
0.239728
-1.59755
-0.156184
0.34508
-0.578933
-0.132948
1.76878
0.457693
0.848695
-2.34992
-0.95186
1.41388
-0.668373
0.640587
-1.05647
0.181813
-0.325465
0.111671
0.204801
-0.0745004
0.00587266
0.00543191
-0.0139625
-0.0446984
-0.00842577
0.00353217
-1.21894
2.78177
-1.94519
0.997893
2.11899
-2.53567
0.354418
0.370153
1.59077
-2.74463
2.38167
-0.881935
-1.43821
0.751694
-1.24125
-3.22223
1.31624
-1.28593
1.38535
3.13587
1.96582
-0.825035
-0.682798
-2.8107
0.866698
0.809487
1.22008
0.920165
-0.0220771
0.0487475
-1.60346
0.024635
-1.25116
0.0242608
-0.943812
1.24648
-1.54407
-0.119889
-1.0645
0.0361082
0.832174
0.0547454
0.0310151
1.24987
-1.50534
-1.62979
1.17918
0.901361
0.11677
-1.55743
-0.111078
-0.993575
0.834335
-0.127168
-1.05446
0.17522
-0.0811593
-0.883679
0.117046
1.24617
-1.26688
1.24955
-1.43248
0.161106
-1.44518
-0.223745
-0.834113
-0.0318827
0.0578488
0.900742
0.256625
0.031689
0.208108
0.610248
0.0410017
0.810505
-0.792097
0.412936
0.607548
0.456022
0.0675469
-0.79637
0.0562434
0.623314
0.0677863
-0.813581
0.443806
0.889284
0.233724
-0.235925
-0.862131
0.0871892
0.912537
0.282142
0.644919
0.476537
-0.803889
-0.0840805
0.25682
0.116074
0.688284
-0.102447
0.906051
0.138636
-0.86125
0.499875
0.649234
-0.830438
0.463115
0.120787
0.929898
0.308349
-0.199368
0.715333
0.85096
0.233009
-1.01118
-0.90215
0.216133
-0.851354
0.156872
1.23207
-1.04512
-0.243708
-0.538922
0.196263
0.877749
-1.26411
0.252132
0.195363
1.2572
-0.783798
0.520584
0.873029
0.2806
-0.74268
-0.34755
-0.38846
0.960436
-0.293262
-0.346335
0.334318
-0.245095
-0.921344
0.294254
1.3991
-0.366651
1.31437
-0.553394
0.334142
-0.502486
-0.157251
-0.316941
-1.00932
0.978878
0.191867
0.373499
0.283346
0.151236
0.725041
0.954594
0.180938
-0.895144
0.548174
0.819898
0.621149
-0.817515
0.206192
0.951473
0.335644
0.750747
0.184508
-0.941935
0.2227
0.628572
-0.395747
0.102909
1.08578
0.468815
-0.139876
-0.215931
0.382401
-0.995042
0.346721
1.49608
-0.210055
-0.721903
-0.11241
0.373743
1.30607
-0.303683
0.441924
0.415913
1.61677
-0.0739427
0.0014846
1.19661
0.561105
0.000621112
-0.851885
-0.0490407
1.49171
-0.522303
0.0901085
0.622333
-0.516853
-1.34882
0.657026
2.03837
0.149247
1.78465
0.047742
0.673149
0.122933
-0.78886
-0.290329
1.94931
0.879242
0.339322
0.179156
0.71603
-1.58473
0.827808
2.32882
0.230183
-1.64288
0.0860255
0.792257
2.11616
0.229537
0.78153
0.906109
2.44221
0.288451
-0.381358
2.3024
0.891345
0.453235
-1.92085
0.0985734
2.13433
-0.748204
0.436771
0.57495
-0.884596
-2.46217
2.42837
0.710717
0.431837
2.42283
0.355777
0.779654
0.550956
-1.2574
-3.21962
0.93601
3.09512
-0.990323
1.20659
2.60411
2.20367
-1.5679
-0.692672
1.02946
2.42849
0.511997
-1.55618
3.1698
1.41509
1.72536
2.38148
-0.843849
-1.58619
1.93123
3.0212
0.916198
1.08696
-0.523401
0.748818
2.99941
-0.742739
0.626604
-0.437336
0.474497
0.379517
-2.42959
0.145692
-0.428821
2.14181
-2.8833
-0.597826
0.592805
2.47763
0.376793
-0.527063
0.747596
0.591956
-0.58797
2.64556
0.368649
0.0420457
1.40621
-1.23093
0.0512663
-0.863807
0.926314
-0.993117
0.926339
0.0424436
1.42913
0.0443413
-1.2078
-0.865518
0.0680355
0.9668
-0.0576873
0.0658646
-0.792375
1.50861
-0.804061
1.46421
0.143355
1.42652
-0.108434
-0.86088
0.188722
-0.799605
-0.145157
1.07326
-0.735546
1.06867
0.178248
1.47508
0.178156
-0.688265
-0.778017
0.230834
1.16132
-0.202775
0.250209
-0.525175
1.63716
-0.156909
-0.607704
1.55803
0.355343
1.84023
-0.284272
-0.254107
0.406356
-0.731345
-0.332632
1.14826
-0.499129
1.61641
0.375372
1.03191
2.03328
0.460097
-0.13147
-0.719757
0.510228
1.20944
1.82424
-0.477533
0.612237
-0.21445
2.26387
-0.380589
-0.29379
2.11483
0.895709
2.44168
-0.810718
0.116946
0.678465
-0.543076
-0.659428
1.08676
-0.347852
2.06772
0.711499
0.93847
2.43423
0.894787
0.18515
-0.444139
0.611482
0.870542
1.57411
-0.856747
0.791289
0.130164
1.99099
-0.834839
0.0467508
2.29157
2.85771
1.44765
1.47077
0.57253
0.827885
2.50177
3.23375
1.43076
1.67498
0.965715
2.76677
1.02809
1.02423
3.04254
1.12316
-3.2454
3.05722
1.08334
1.31995
1.48594
1.63733
-1.3132
0.270069
-0.326628
0.237105
-0.503589
0.152013
-0.00926665
-0.345677
-0.0364454
0.0204508
0.0560845
0.0162405
0.000432364
0.000531241
-0.000965506
-0.00424584
-0.00115613
0.000280022
-0.466672
0.509127
-0.398183
0.41002
0.354572
-0.321009
0.0249469
0.0387656
0.0427281
-0.0661667
-0.116105
-0.0141283
-0.0790575
0.00975111
-0.0136023
0.00794698
0.00573571
0.000279694
0.000422552
-0.00478398
0.000541719
-0.000863655
-0.00133188
-2.01387
2.98572
0.754191
-0.657858
1.85673
-0.510669
-2.8666
-1.49709
2.28484
0.607667
1.31049
-0.255571
1.49802
-1.73056
0.373258
2.29416
0.0151935
0.0235226
0.0139816
-0.162925
-0.0179985
-0.0808754
-0.962685
0.938787
-0.0787768
1.42843
-1.00609
-0.107828
-0.82448
1.02474
1.42991
-1.13974
-0.85312
0.984039
0.11313
-0.756313
1.51628
-0.681026
1.53334
-0.654884
1.15746
0.843103
-0.229304
1.68524
-0.384245
-0.278373
-0.741096
1.07203
1.44843
1.56232
-0.527644
-0.752965
1.00116
0.309389
-0.4482
1.75299
-0.370778
1.91392
-0.479336
1.82923
1.09382
-0.618618
2.39732
0.0597325
-0.617979
-0.63705
1.19497
1.92581
2.25825
-0.0238324
-0.695119
1.23168
0.759143
-0.129247
2.32332
-0.0397912
2.38729
-0.259667
1.95188
0.735798
-0.789918
1.98589
0.344041
0.558204
-0.394711
-0.0720664
0.267414
0.157367
0.505393
2.29622
0.266657
-0.25756
0.583245
0.589931
0.184226
1.4096
0.155705
0.299483
0.643492
0.434258
0.527358
-2.6846
0.545274
0.653232
2.35092
-2.82703
0.683561
0.490296
2.38705
0.702181
0.801328
0.855393
0.722452
2.77563
1.141
0.804611
0.887778
0.56859
2.2352
-2.23133
0.324971
0.0802218
2.26674
0.0344698
0.157706
0.00890914
-0.862145
-0.166295
0.178513
0.118541
0.0169627
-1.42004
-0.03575
0.346493
0.778549
-0.10098
-1.6644
0.150249
-0.613919
1.42889
-2.2955
0.359997
-0.15633
2.30662
0.233419
0.00412761
0.12589
-0.027471
0.14035
0.0377822
-0.743934
-0.13623
0.103324
-0.0512348
0.265025
0.071149
-1.26363
-0.0310113
-2.32404
0.418308
-0.307076
2.28936
0.379764
-0.0548842
0.0676225
-0.0385892
0.0319377
-0.439849
-0.0763186
0.0756348
0.0665733
-0.0737541
0.0612579
-0.850424
-0.0154061
0.137474
0.506919
-0.24141
0.24258
-1.53785
-0.421679
0.861481
0.369004
-0.370813
-2.20485
0.383701
-0.12876
1.4106
0.0239977
-0.0225338
0.0273272
0.0140941
-0.169576
-0.0255114
0.0262973
-0.0414569
0.0455838
0.0240489
-0.304909
-0.00576161
-0.360262
0.238202
-1.74166
0.273229
-0.10872
0.48067
0.0054454
-0.00764967
0.00365653
-0.0465244
-0.00495524
0.00641038
0.00615137
-0.0119982
0.0091028
0.00512381
-0.0742
-0.00207661
0.0507068
-0.0829664
-0.330883
0.0344581
-0.0458842
0.0552852
0.0594997
-0.136977
-0.50691
0.0485225
-0.0246606
0.0772058
0.000151211
0.000194922
0.000336588
-0.000538343
-0.00252485
-0.000107206
0.000213955
0.00031091
-0.00057336
-0.00262203
-0.000155438
0.000139184
-0.0140804
0.00498413
-0.0499556
0.00342629
-0.00360744
0.00597699
5.39363e-05
6.04662e-05
-0.00078195
-1.79208e-05
0.00012727
2.24475e-05
5.46543e-05
-5.21746e-05
-0.00020075
-1.4885e-05
3.23427e-05
0.00331753
-0.032349
-0.00869996
0.00229942
0.00440005
-0.000855695
0.000625422
0.000740813
-0.00163135
-0.00102592
0.000394094
8.50281e-06
1.4547e-05
3.77136e-05
-2.15469e-05
-9.29887e-05
-7.45595e-07
1.63414e-05
1.80768e-05
-0.000142789
9.73905e-05
-3.39314e-05
-2.16316e-05
6.38927e-05
0.000143543
7.14205e-06
-0.000636966
-3.36208e-05
3.62003e-05
-2.25368e-05
7.22705e-05
-0.000308548
-1.15714e-05
2.101e-05
2.7721e-05
6.64124e-06
-3.02037e-05
-1.93879e-06
7.97774e-06
-5.13865e-05
-4.57717e-05
-4.3665e-05
-4.90465e-05
2.20584e-06
3.9601e-06
9.41883e-07
-3.56439e-06
-1.78496e-05
2.68874e-07
-1.8789
0.234989
0.625474
-1.70506
-0.218582
1.01175
-2.09765
1.65821
-0.344045
-1.19787
2.45299
0.415264
2.66717
1.40073
-0.884698
-2.34954
-1.44626
0.878632
1.10539
-0.846325
-1.37101
-1.34565
0.657369
1.72114
2.65094
1.61416
-0.48976
-2.76921
-1.60512
0.575408
0.752592
-1.99589
-0.730657
-0.69192
0.939055
2.44823
-1.68993
0.573503
-1.01376
-0.612504
1.84979
1.00415
2.79196
-0.812074
-2.58031
-1.55299
0.874641
1.55059
2.82613
0.963928
-1.00187
-2.81348
-0.973802
1.16283
0.560769
1.60525
2.67035
-1.14016
-0.495472
0.661912
1.48221
-2.82899
2.79927
-1.39117
-0.649163
1.50676
0.349909
-0.280851
-1.14758
-1.91195
-1.68875
1.50707
0.219726
-1.23991
-0.131745
1.74346
-1.71108
0.325107
-0.967957
-0.330812
1.6543
1.03924
-1.70683
-1.31421
-1.32865
0.938936
1.32721
0.190219
-3.50828
-0.113794
-0.133695
2.54797
0.870299
0.470925
-2.44135
-0.421334
-0.54381
2.09889
1.03099
-2.09095
-1.08993
-0.708743
2.32393
1.58166
0.851464
-2.56654
1.39702
-1.14204
2.29744
1.09708
5.44065e-05
-3.59555e-05
4.7385e-05
3.09537e-05
-0.000154156
-8.55699e-05
-0.467992
2.10301
-1.47184
0.532895
1.26705
1.43897
-0.875962
2.6846
-1.48211
0.892011
1.04132
-2.51554
1.65646
-0.684288
-1.20444
0.633101
-2.40837
0.109997
-1.36543
2.03504
1.77145
-2.12229
0.0883573
2.09031
0.470834
-0.0916438
-2.25628
-1.43308
0.188552
1.62202
2.24263
-3.37364
-0.177798
0.290708
2.4475
0.878397
-2.34151
-0.190444
1.82407
0.293477
-1.40322
2.05988
-2.16334
-0.146207
2.15017
0.220593
0.531575
0.372972
-0.284856
-2.21979
-1.49295
1.58451
2.17806
-2.00709
-0.376763
0.45569
-1.41263
1.96681
1.88119
-2.12283
-0.286323
2.21669
0.356098
0.626365
2.08882
0.444945
-2.22931
-1.46158
1.5506
-2.21497
0.532195
-0.682562
2.08823
1.13083
-1.88568
-0.530908
2.13869
0.62619
-1.56013
2.02787
-2.13372
-0.432642
2.37444
0.530409
0.799889
-0.497369
0.524053
-2.17787
-1.38806
1.35897
1.72366
-1.98139
-0.767776
0.930668
-1.94191
2.14305
2.18096
-0.66465
-2.46483
0.726129
0.987837
2.3021
0.67474
-0.499692
0.370188
-1.7647
-1.13978
0.64853
-2.40295
1.45883
-0.924323
2.52177
1.11265
-1.91791
1.64901
-1.00548
-1.90596
1.62815
0.904275
-0.748922
-2.34438
0.674918
0.784551
1.49745
0.00949401
0.0148944
0.0170327
-0.04339
-0.116484
-0.0692621
-0.864105
-0.526849
-0.909447
0.194173
0.196295
0.121863
-0.400543
0.114133
-1.08337
0.183085
0.17544
0.00316573
0.00369715
0.0020173
-0.0270295
-0.0149058
-1.88426
0.69355
-0.843651
0.708077
0.412979
-0.0449644
0.00848323
0.00846172
-0.0250662
-0.0463632
0.00500104
0.00217083
0.00202169
-0.00513219
-0.0168449
0.00125457
-0.000400558
8.76121e-05
-0.00104082
-0.000600148
0.000144215
0.000169109
0.0083078
0.0145968
-0.111206
-0.0471432
0.0101886
-0.842329
2.79264
-1.52495
0.91606
1.5089
0.925825
-0.975931
2.60878
-0.975846
1.04273
-0.363069
0.350305
-0.688411
-1.66941
0.288238
0.248178
0.199742
0.244635
-1.63765
-0.471111
0.292147
-0.463402
0.662604
0.436235
-2.44445
-1.01907
1.10648
-0.526896
0.0608555
-0.605315
0.0496533
0.0854146
-0.134088
-0.720075
-0.0320273
0.110028
0.0392083
-0.332213
0.115721
0.00547895
-0.00404733
-0.0450711
0.00259983
-0.0176538
0.00510461
-0.000248256
-0.0014683
-0.000537432
9.05296e-05
0.000133137
0.000177191
-1.54713e-05
2.55935e-05
-9.26095e-05
-0.000293922
-9.05289e-05
-5.39454e-05
-2.98005e-05
-2.46033e-05
-5.69289e-05
4.61252e-05
-2.78648e-05
-6.61742e-05
-3.9274e-05
-2.19012e-05
3.75825e-05
6.94074e-06
2.57796e-06
3.97542e-06
-4.96343e-07
-1.54464e-05
-2.72483e-05
-5.30024e-05
-3.64657e-05
-5.16556e-06
-4.60494e-06
-2.1355e-06
-7.31697e-07
-3.31314e-07
-3.89775e-07
1.52884e-05
5.41574e-06
-2.08306e-06
-6.85397e-05
8.22478e-07
3.88176e-06
1.22684e-06
1.24451e-06
2.25416e-07
-1.66722e-05
-1.61467e-05
-1.44939e-05
7.33942e-06
3.61222e-06
3.99268e-06
-3.95063e-06
-3.16746e-05
4.68722e-07
7.36578e-07
5.99158e-07
2.06398e-07
-9.1357e-06
-8.8477e-06
-7.2156e-06
8.68559e-06
3.14309e-06
2.22209e-06
-3.15541e-07
-6.10459e-05
-2.39571e-05
-5.86967e-05
-4.8293e-06
-3.48655e-06
-4.94138e-06
1.5779e-07
1.35674e-07
3.07443e-08
1.6021e-06
6.58338e-07
4.60333e-07
2.15984e-07
-6.698e-06
-3.61353e-06
-6.3532e-06
3.06234e-08
2.50565e-08
7.40312e-09
3.55739e-07
1.47678e-07
1.65809e-07
-3.71154e-08
6.39762e-09
5.56274e-09
1.73414e-09
1.07905e-05
2.43529e-05
-4.63299e-05
-4.44621e-05
-7.85292e-05
-3.2055e-05
-3.9988e-05
1.27566e-05
-1.43069e-05
-1.50851e-05
-1.51854e-05
1.37261e-06
5.55506e-07
-5.63284e-07
9.10675e-07
-4.39619e-06
-2.64324e-06
-3.20083e-06
-7.64451e-06
8.4163e-08
2.92622e-08
-1.68072e-08
4.46589e-08
1.26342e-09
-4.06828e-10
1.88314e-09
1.20089
-0.138386
-1.60953
0.205016
-1.84399
1.23136
0.726
-0.245933
-1.41511
0.249259
-1.60113
0.720647
-0.242488
0.102757
0.145655
-0.8651
0.15022
-0.00169269
0.000352819
-0.0045608
0.000584086
0.000570226
-1.38816
0.147635
0.241973
-0.220516
0.148281
-0.000393521
1.70821e-05
-4.15908e-05
3.52053e-05
8.19829e-05
3.17009e-06
-1.49445e-06
1.60377e-06
1.86845e-06
-1.33842e-05
-4.61046e-06
-5.66417e-06
-2.16601e-05
-3.11066e-06
-1.64105e-06
-6.47376e-06
-2.24032e-06
2.13493e-07
-5.38754e-08
9.16193e-08
1.11894e-07
1.21255e-08
-1.93647e-09
4.61849e-09
5.79755e-09
-5.86624e-11
2.028e-10
2.49415e-10
-1.00499
-2.13689
0.99919
2.55052
-1.65947
2.12405
-0.812557
-2.72322
-1.37181
2.90029
3.24416
-2.71082
-1.43904
-0.849723
3.20728
2.56308
-0.729169
-1.17511
-2.27418
2.76142
-1.24286
-2.27525
-0.783808
2.41553
-2.50169
1.3197
-1.20601
2.96143
-1.22733
2.50734
-2.09414
-2.10323
-1.11622
3.0005
7.19504e-06
-5.5494e-06
3.21377e-06
-3.55398e-05
-1.16299e-05
6.34528e-06
2.4208e-06
2.47855e-05
-2.6163e-05
8.84842e-06
-4.27785e-05
-4.36383e-05
-4.33776e-05
-4.26129e-05
5.40909e-07
-5.79116e-06
-5.3553e-06
-8.49362e-06
-7.79598e-06
1.14801e-06
3.46659e-06
-1.48079e-06
2.29988e-06
1.68734e-06
-1.25931e-05
-3.6071e-06
3.01545e-07
4.93033e-07
-4.59876e-06
-4.32787e-06
-3.64449e-06
2.9895e-06
1.54206e-06
-1.13843e-05
-4.92705e-06
-1.04621e-05
-2.61455e-05
1.90929e-06
-1.2329e-06
-1.33926e-06
-1.50623e-06
-1.82241e-06
6.77974e-08
1.03201e-07