/*--------------------------------*- C++ -*----------------------------------*\
  =========                 |
  \\      /  F ield         | OpenFOAM: The Open Source CFD Toolbox
   \\    /   O peration     | Website:  https://openfoam.org
    \\  /    A nd           | Version:  9
     \\/     M anipulation  |
\*---------------------------------------------------------------------------*/
FoamFile
{
    format      ascii;
    class       surfaceScalarField;
    location    "0.001";
    object      phi;
}
// * * * * * * * * * * * * * * * * * * * * * * * * * * * * * * * * * * * * * //

dimensions      [0 3 -1 0 0 0 0];

internalField   nonuniform List<scalar> 
23931
(
-7.58326
-1.50983
3.11291
-3.64295
1.8793
-1.36295
-5.03239
4.73719
-6.11836
1.70518
-0.0834273
-0.112537
-0.0066104
0.00359812
-7.9378
-0.472843
3.70113
1.0147
-3.8728
0.00277138
-0.249329
-0.33529
-0.430831
-5.27371
5.64015
0.916017
-6.38526
-4.32795
0.588048
7.45765
5.20816
-6.54411
-1.58477
4.62015
7.41254
-3.54856
-6.31539
2.11054
7.03225
0.588706
-3.378
-6.10083
0.595494
4.75107
7.9001
-3.76847
7.18239
4.42499
1.08219
-3.47181
-6.25344
4.78725
1.15242
7.96018
-3.85617
7.52273
1.1337
5.24353
-6.69216
-0.562182
1.14767
7.56181
4.91223
7.52635
4.89845
7.31582
4.50254
-3.52933
-6.30831
-1.69859
7.37146
5.1036
-6.94884
2.30151
-1.73083
4.69039
7.74067
-4.00751
2.34667
4.76655
7.90728
-3.927
7.49062
5.2072
-6.80095
1.74146
7.48149
4.8516
7.29282
4.7184
2.32637
-0.568739
4.4401
1.16744
-4.27681
-7.90928
3.75607
-3.87266
4.42888
-4.24642
6.78867
-0.48656
1.03559
4.20617
0.28183
-6.86992
1.99271
0.65038
1.81645
4.25927
-5.2615
5.72932
-6.37639
0.546586
7.05495
-6.98348
7.08435
1.11803
-7.03741
-0.475066
4.48238
1.00533
6.41068
-4.54543
0.251184
2.69808
6.481
0.576135
2.44828
-1.7722
4.25221
-4.09382
2.35931
-7.82817
3.50944
-3.80209
4.38788
-4.25575
6.48188
1.54254
4.02176
-0.931246
-5.8014
0.833465
0.980727
1.32183
3.60917
1.93958
-5.19463
5.34288
-6.3004
-1.69598
6.83493
-6.84823
2.25849
7.01639
-7.00361
4.25373
1.49613
6.12882
-0.820914
-3.75935
1.12176
0.85916
1.7192
5.53348
1.8839
2.95464
-0.283945
1.81305
0.650096
-0.217955
-0.292883
0.00728475
0.06451
-3.23751
-2.06422
0.0557685
0.162293
0.1383
2.13883
1.34157
0.933988
-0.166462
-1.39458
0.0978631
-0.140838
-0.898239
0.085172
-0.155359
-0.206567
1.00405
-0.00634286
1.91231
6.92353
-1.78498
0.435728
-6.41129
-0.161147
1.55245
6.77822
-0.0111392
-1.49973
-6.72032
-2.91105
-1.47595
6.87661
1.97975
-6.26812
-7.47964
-1.52474
8.48615
2.24256
-2.01109
2.08551
-3.45044
-8.1544
-1.76756
2.31626
-2.3191
2.9603
-6.68469
0.571214
7.30631
-7.37702
-0.541717
8.20899
2.17153
1.00208
-1.94563
-2.86856
-0.590149
3.55662
-8.5173
1.19328
1.482
6.63043
-1.43609
-6.66012
0.242968
6.69912
1.92918
-6.21521
6.8818
0.324425
2.04999
-6.33086
0.332265
1.76265
7.15618
-1.65048
1.88669
0.53075
-1.73794
-0.470475
0.837875
2.41444
7.44147
7.25044
1.7033
6.88777
-1.61648
-6.54611
-0.566794
6.96031
2.36999
1.1364
-6.43295
6.98065
2.23392
-6.39577
-0.913586
2.15666
-1.9893
1.51404
2.05616
7.48918
-1.8746
1.31919
2.51223
7.51638
2.54397
7.48668
1.883
6.65058
-2.65127
0.55663
-6.0669
0.596849
7.78622
0.436826
-6.14967
-2.76019
6.80403
0.9995
-6.2392
6.8654
0.747042
-6.32131
3.03955
1.0416
7.47978
1.10651
7.90046
7.96536
2.09164
-1.86695
-0.603611
2.29877
1.16625
-1.95433
2.25743
-1.91905
-0.601395
-8.46046
1.18856
-8.30151
2.82658
0.586293
2.55707
1.09418
2.6234
-1.17511
6.85901
1.71873
-6.38057
-2.86719
6.86278
-6.29829
6.91617
-6.39686
3.08837
1.54177
7.56097
-1.62871
-3.09604
7.95477
2.18009
7.94554
7.62202
2.06545
8.3688
2.23477
-2.00936
-1.76409
2.2947
-1.90051
2.39369
2.31268
-1.9523
-1.79933
-8.49547
2.86753
2.43427
-8.51784
2.8798
1.63101
2.66484
2.67348
2.19258
-8.41283
3.53085
3.30066
0.60499
-0.556789
-8.29684
1.16084
-8.25809
0.598991
3.37546
1.14519
1.18039
-1.81846
-8.41436
2.44895
-1.78201
-3.47202
2.41645
-3.58921
-8.23097
-8.51845
-3.43009
1.70448
2.30632
-1.31872
2.08442
2.1159
14.8665
-14.4617
2.62227
0.617181
6.20076
-2.77387
-0.516021
-6.23613
-0.622661
2.89732
10.1363
-2.92839
1.03144
-10.177
-15.5559
1.05241
-2.34109
3.26943
2.29468
-8.7914
-2.04784
-1.66308
2.28075
0.557354
1.95883
15.0917
-14.7362
0.133964
3.50711
10.5753
-3.50904
-11.4222
-15.4885
15.7429
1.46584
0.456891
-11.2058
2.25565
0.565245
-1.86685
-7.77756
-1.58185
2.23905
2.17526
-2.27577
1.92381
0.562078
6.40745
-0.475821
-6.54736
-1.82383
-8.24312
-1.68513
2.32109
-2.81481
0.084107
2.34387
6.58699
-0.557089
-7.78103
-2.03371
1.69072
-0.0452746
6.743
-0.454381
-7.87559
-6.65005
-2.74851
7.45878
2.54871
0.339849
-6.69555
-1.96673
7.38934
1.83158
0.404295
3.34933
10.4569
0.329659
-3.3947
-11.069
0.00289969
7.79905
-0.230921
-8.81989
7.8367
2.77097
-9.28325
-0.189206
2.93626
0.435801
-2.86302
10.5693
-3.00989
0.123093
2.86712
7.87841
-2.97238
10.6077
2.83973
0.115455
7.91963
2.21262
6.58322
-8.19487
0.0561357
6.51355
-0.586008
-7.92178
6.45636
1.99428
-8.38368
0.0841908
2.68657
2.67885
0.0105493
6.76752
0.122342
2.0286
6.45267
0.0286662
2.09043
6.57721
0.693146
6.11635
-0.612681
-6.19571
2.4793
6.27582
-2.78446
-6.85336
6.21565
2.12075
-6.90139
-0.0716942
2.66923
-2.76758
6.91207
0.579288
2.68296
-2.80991
6.81981
0.072596
2.16637
6.65972
2.23973
6.752
0.557929
3.12023
10.3117
-3.20572
-10.5954
0.190395
7.37624
0.037403
-7.43621
7.51424
-7.97612
2.82864
0.826713
-2.71876
10.5587
-0.266964
-2.68359
8.00155
0.769691
7.95197
-2.51389
10.5268
1.38234
2.09338
14.971
-14.6045
0.438567
13.6881
-13.7218
13.5261
1.05176
-13.5189
-0.381424
-1.77354
0.969634
13.6455
1.86177
0.430349
13.7301
1.1779
15.4124
-0.0967404
6.72384
-0.256094
-7.15745
-1.67899
6.66848
-7.3002
6.66709
-8.22703
-1.68636
0.227086
6.96086
0.172583
1.77876
0.0971389
6.83744
0.254199
7.15449
1.88661
14.7474
2.88838
-14.2413
-1.667
13.1715
2.28589
-13.0252
13.3753
-13.3166
1.61043
-1.65009
13.5674
1.49968
-1.96069
15.2269
2.81145
13.4604
2.31951
15.3364
0.335427
6.78092
-0.200378
-6.70552
1.79002
6.50837
-7.05616
6.70026
-6.87468
1.90886
0.154425
6.9151
-0.448637
-2.00858
7.32525
1.01017
7.25593
6.99623
0.658505
2.6792
0.349289
-2.45019
8.65779
0.337389
0.60229
2.45588
11.2203
2.5836
-2.35012
0.752123
-2.1884
-8.75328
2.41687
1.10059
-1.78356
1.13669
2.69884
0.609832
2.30104
0.577607
7.23063
0.355865
0.554963
1.95903
-7.61382
2.29135
1.04209
2.52906
0.570034
7.40688
2.0278
0.580722
2.00234
1.00522
1.21366
0.626642
-14.0624
0.576264
0.438856
14.0496
-1.4063
1.08095
1.17889
-15.7096
1.4633
1.30547
1.23497
1.84562
0.56296
-7.67935
0.586293
0.473971
7.61006
1.89788
0.676472
-1.87843
-7.92911
1.10746
1.03928
0.83313
14.0209
1.78333
-1.33433
2.2044
1.25246
-2.06417
2.97002
-2.09012
-13.9609
1.54241
2.94977
1.10644
-15.6503
1.6673
2.01468
2.57189
11.2257
2.4418
1.29461
-1.05669
-2.28515
2.49966
1.6923
-1.7982
-11.2048
2.54996
-2.10753
-8.79208
2.35071
2.61078
1.98107
-1.0039
2.40419
1.60242
-7.70946
2.24859
2.48201
7.53251
1.00601
2.0841
-1.54422
-7.671
1.94488
2.16253
1.99747
2.07666
1.59759
7.78365
1.9379
1.11354
-1.59588
-7.94545
2.23025
-1.31147
-1.93305
1.89002
-1.87017
-8.11487
1.70138
1.56402
0.876581
10.6597
-1.67685
-14.2325
-1.1354
-6.09776
2.75498
-0.0965893
-2.89407
0.204422
-2.74656
0.223021
8.56142
-13.5272
-0.659541
-1.87736
-6.39381
0.45048
-0.121322
5.26344
2.57111
1.11294
-2.8288
-5.59913
-5.72351
6.31241
2.84763
-0.052661
-2.97582
-2.10795
5.53744
0.655466
-5.74334
-5.73203
-2.36758
6.1852
2.12142
-0.211764
1.06722
11.0865
2.20233
-14.3729
-1.22496
1.91989
7.31909
-0.654899
-2.07141
-12.6286
7.60805
2.18817
-0.398664
-12.997
2.07673
-1.43391
6.47861
-2.35448
0.62562
-1.41272
2.03081
6.44903
0.611002
-2.35416
2.12599
-1.32658
5.94732
-1.28915
6.10559
-2.73832
0.985787
10.5543
-14.3652
-1.14892
-2.50752
6.81862
-0.745664
-11.2158
7.55298
-0.331184
-12.9011
-2.0353
-0.969569
6.48496
0.844381
-1.13016
6.60191
0.626245
1.86587
-1.04589
6.3324
-0.765101
6.2043
2.82846
0.871929
-2.96639
5.18637
1.10277
2.35186
-5.62954
0.936311
2.40859
5.51605
2.20536
5.87365
-2.40032
-8.39936
5.84234
2.23622
-8.76845
-2.73523
2.3161
5.54309
5.66956
-2.91889
2.63358
-0.851171
-2.8743
0.829191
-5.9627
-0.0710314
2.13597
0.194802
-0.827844
2.09642
0.80609
-2.79325
5.92874
2.27925
-0.663265
-6.16249
2.77103
0.482142
-2.90802
-0.679262
-2.95794
2.20473
0.494077
5.48116
0.894484
-5.90341
2.11711
0.685548
0.22141
5.93716
-2.26814
6.07582
-7.65572
6.08108
-8.8297
1.96364
5.80551
5.99844
-6.21486
0.0998203
0.0974146
-1.72639
-0.34825
0.376076
-0.668735
0.644995
6.20242
1.89822
-0.515965
-1.99066
-6.45355
1.04119
0.654223
-0.0904871
2.56737
-1.26119
-2.69292
6.05493
0.00469753
-1.25361
2.18247
-2.87577
6.01205
2.35608
-6.25941
2.68431
-2.85514
-2.98859
2.21727
2.00644
-1.42902
6.38915
-0.692709
-1.75346
6.20141
2.03886
-2.02457
-6.47447
3.73325
-1.81163
2.61993
13.1728
-12.9589
-1.84206
3.35291
1.81534
11.7908
-13.046
-1.50686
-7.41438
-2.90748
0.127345
0.0249026
-14.8905
1.64265
2.62056
-1.86407
1.77289
13.1378
-4.72955
-12.5448
-13.7896
1.53374
14.2938
-4.17281
9.09161
3.10577
-1.69805
-3.13338
-9.11943
-9.33598
9.83369
2.86637
-1.60136
-2.5708
1.2705
10.9827
-13.821
-1.30186
-3.51093
8.32563
0.228516
-12.3782
10.568
-3.66069
1.75495
-12.1103
-3.51535
-0.6208
7.7091
0.0378609
0.835809
-3.69424
10.4448
-0.751965
3.33796
-3.38034
0.99923
10.0263
-0.570986
7.36382
2.99091
13.9539
-13.2688
-2.05008
1.8592
13.7289
3.9234
-13.1205
12.787
3.36735
-12.5433
1.83315
2.81566
14.4911
-1.98771
2.33639
13.2837
-1.68575
-1.94405
2.91168
12.9068
3.60315
14.2135
3.01225
-1.40466
-2.87956
6.41073
0.275115
-6.66352
0.19979
6.85576
-3.26287
7.06076
-9.12974
9.66889
-3.48862
-10.4378
3.10686
-3.11582
9.63051
6.91726
-3.16238
-0.433095
0.429923
-10.2396
0.8895
-2.75163
-0.570984
0.651534
-3.20935
-0.451206
10.053
3.05416
-2.95634
1.01606
-2.82069
-7.38446
0.66354
-2.56429
1.42378
-0.23206
11.8419
-3.97879
-11.5129
1.69981
-4.37683
-3.42413
12.1875
1.81149
13.4747
-12.8713
12.3182
-12.043
-1.93341
12.5292
13.9921
2.06662
2.62023
-1.84988
-13.3173
2.03047
-1.45857
2.0344
-1.48726
13.056
-1.84683
2.59387
1.51352
-14.7209
3.39108
2.65401
3.39193
2.46719
-2.16651
-2.1366
7.45011
-0.479572
-1.46716
9.94458
2.97976
-2.78371
-2.68433
-7.45379
-2.38022
12.5733
-3.22423
1.31552
-4.17473
-3.35817
12.8161
-1.65331
1.41742
-14.5317
-0.690118
11.1699
3.5942
0.249969
-9.98393
-2.42699
2.46527
-0.892056
10.5812
3.44407
-9.52242
-2.31502
2.83881
-11.5916
-1.15579
12.4075
3.16959
-2.15
-12.1067
12.9964
1.12403
3.43427
-2.32742
-1.0341
11.1524
-6.25257
0.430669
-10.19
1.09718
10.1763
-5.53127
-9.21591
-11.0312
1.69605
11.874
-5.1674
-10.848
9.94442
2.80646
-4.74447
-3.42342
10.8673
3.5265
-9.75523
-2.36588
0.986114
3.51058
-2.63877
-2.3467
3.63206
12.6723
0.466928
-2.34099
-0.894998
11.1186
4.7769
0.403305
-9.92701
10.8349
-2.56814
4.68187
-9.69537
0.992538
-2.71607
4.68721
12.0666
5.06297
12.8565
0.425027
10.5213
3.42469
-9.48088
-2.29514
-0.999395
3.32987
-2.27204
3.31164
11.5232
-2.25925
0.954549
10.4437
4.50115
-9.41958
10.5095
4.53285
-9.45576
-1.06505
11.5043
4.3533
11.4533
4.33101
10.6591
-5.91923
-2.76507
-9.69223
1.93879
-5.66327
-3.13701
-5.9513
11.4003
0.905603
-0.987348
11.5756
0.44847
-9.86927
10.9271
-2.66361
-9.65297
1.19949
-2.86312
11.6909
12.2729
0.543349
2.15715
2.9652
-3.27574
-2.16833
-13.7175
3.04484
0.981475
-2.29862
3.79595
0.466001
-2.54643
1.4958
12.54
-3.02561
4.34525
-13.2953
-2.75926
3.18018
1.22962
4.60031
0.752074
-3.45522
3.30787
12.44
3.18582
-2.16458
-1.49334
2.95924
-2.08107
3.08942
-2.13406
12.1615
-1.28515
4.12149
1.66798
-12.2989
4.04534
3.73946
4.18549
10.1705
-5.58051
-9.27763
1.36105
-5.34072
-5.32395
10.7723
1.02269
10.3475
-9.3372
10.4108
-9.38707
-1.1701
11.2194
11.2816
3.08553
-3.06703
-3.4735
9.25954
-4.80428
1.48452
-1.84701
2.18885
2.26552
11.6912
-3.26358
-12.2273
-3.12391
1.71192
1.02262
-3.55174
11.1485
-4.94905
1.80382
-5.03419
-4.45184
11.7324
-1.47669
1.78691
-12.0997
-0.000140154
-4.31942e-05
1.90744e-06
-1.533e-06
0.103489
-1.09863
0.084363
-0.0750668
-0.35236
-0.133446
0.0185351
0.0108193
0.0163809
-0.00904073
-5.34613
1.04526
3.04263
4.13553
-0.674657
-0.0017676
-0.00575959
0.00018301
0.000151845
-0.000314216
0.00043874
-0.000999589
-0.0201417
-0.00334413
4.08243
-2.05537
3.21112
-4.98625
-0.0278858
0.0111209
-0.177862
5.10791
1.30715
-5.46106
-0.835213
0.748891
2.43831
1.45904
-4.02045
-0.4851
5.13967
4.80987
1.72821
-5.37953
2.39693
1.32128
3.55526
1.89936
0.895333
1.09147
-3.72655
0.29959
0.4699
-0.216508
0.265215
0.309173
0.251705
-1.40561
0.851
1.38608
4.76437
4.22731
-5.23549
1.5255
2.63161
-0.837015
0.507054
0.374974
-2.36198
1.18005
0.689621
-3.20005
0.149461
0.139846
0.16318
0.0608594
0.064832
-0.0544861
0.00247362
0.00423822
-0.00224483
-0.724836
0.0349619
0.0503807
-0.0299659
0.563084
-0.382301
-0.739725
0.0620601
0.0582101
0.503266
0.585168
0.0322287
0.0252014
0.0312332
0.00162623
0.00241553
0.124044
0.087183
-0.830048
-0.0702837
-0.00361676
0.000277106
0.00043138
-0.000232046
0.0023967
-0.0242798
-0.00196536
-0.00220909
-0.0113754
0.000198259
0.000256885
-0.0817926
0.00181967
-0.015545
0.0839014
0.0686384
-0.533037
0.00776676
0.00975166
-0.000102005
-0.00219516
4.75957e-05
-0.00109402
-0.00554657
0.000123153
-0.0446037
-0.00805255
-0.0394369
0.0171736
-0.127119
0.0419233
-0.283937
0.00395728
0.00461985
-0.407087
0.0300593
-0.000748842
-0.00549627
0.000380136
-0.403829
0.140469
0.301329
0.0151063
0.0123384
0.0153832
0.00108686
1.03248
11.2756
3.6711
-10.0219
-2.52199
-7.77497
-6.52752
0.570281
5.04891
-0.780634
4.99682
-11.3527
-3.61799
3.69136
13.0644
-2.30136
-14.1596
1.11862
3.03062
-2.38436
4.26528
-13.8405
-3.588
2.67651
-2.15503
5.09148
-3.75782
11.6221
-6.29742
-10.395
0.857637
11.6012
-6.23403
-10.1555
-11.8954
-1.50098
9.59101
-5.11884
2.37482
-11.5549
-3.10781
8.00834
-4.54098
3.47509
11.3121
3.70741
2.42091
-10.0267
-2.54265
-0.943748
3.56707
2.32634
12.5667
-2.273
3.58826
12.6105
-2.26923
0.965656
11.1979
4.7881
-10.014
11.2083
2.35929
4.81262
-10.0187
-0.931019
2.37815
5.16073
13.0663
5.22327
13.0364
-4.7636
-2.47534
0.234167
-0.159489
-13.1411
1.47507
4.16433
-1.43132
-11.1434
3.94581
6.59544
12.8477
-2.60433
-6.21703
4.40658
-3.84782
4.83707
-7.86435
5.92437
10.7613
-6.64392
-10.3351
-3.59753
-2.59309
4.35692
-0.521245
-5.66638
-2.68885
4.83353
-0.2653
2.48404
-3.68124
3.61178
4.92221
-10.1658
-2.48489
11.3297
3.76929
-10.0514
-2.57269
3.62179
12.6439
-2.32812
-3.62941
11.3098
4.74648
4.88762
-10.176
11.2329
4.88602
-10.0471
3.70789
5.20635
13.1098
5.20497
5.12092
13.0436
11.677
-6.13727
2.39066
-10.0611
-1.07688
-6.59266
2.36757
-6.42509
11.6905
0.966785
11.551
-9.97043
11.416
2.35502
-9.98983
-0.88513
2.41818
12.8307
12.5873
-0.898908
14.2253
4.04276
2.48161
-2.72038
4.02507
-2.71196
3.15416
2.37196
-2.48014
-0.991348
13.6382
2.40185
4.92737
-13.5674
1.26397
3.07709
4.69365
2.36019
3.25949
11.7795
-6.20932
-10.1484
-3.62774
-6.09407
4.56517
-6.60803
11.9878
-3.64209
11.9116
4.97579
-10.1378
11.4784
-9.99593
3.74715
12.9013
12.4765
5.04368
6.14093
3.42906
-10.0137
-2.16963
4.01389
11.7028
7.79518
-9.8721
-2.60565
6.34072
11.6712
4.94633
-9.89809
11.3425
5.11272
7.5621
-10.2814
6.21682
5.04682
12.367
3.41819
7.01716
12.0805
-2.484
3.93108
6.61708
11.3762
-3.82402
3.88879
5.15038
-2.64372
14.2739
4.04639
-2.7397
3.11526
-2.39883
3.75646
13.6806
4.90837
-13.4283
-3.27594
2.45672
3.75135
4.47659
4.76279
3.24404
8.90651
-4.87655
2.09903
-1.12541
-1.47654
2.36727
-1.14512
12.8087
2.35492
-12.5967
1.65521
2.34449
9.68287
-5.09892
-2.54149
-0.750681
2.10645
-1.55753
3.58687
12.8646
-12.1519
-2.8732
2.94569
4.27537
9.20344
-5.59107
-9.64524
-4.92069
-3.66532
3.66524
-5.40265
9.53586
6.49409
11.6336
-9.99767
10.7593
7.00057
-10.4581
5.71942
11.8365
5.58922
9.2841
-8.14963
2.16233
-8.92268
-1.78008
3.45359
10.7788
-10.5738
-2.42518
-7.7433
5.89126
1.85266
-8.23795
10.0493
4.02067
-9.99751
2.31038
9.71502
-1.92296
5.0775
1.89311
7.38151
0.1899
4.44883
3.30781
5.74875
-2.42258
-12.148
3.0723
0.598318
5.27116
3.59639
-10.7714
-0.111351
2.65663
-0.371995
2.13017
5.58647
-1.82984
8.00867
1.49775
4.24452
-0.438224
2.33072
-0.933365
3.33952
-3.61358
-6.4643
4.03307
-6.36769
8.2278
-9.44822
-3.1684
-0.387684
-0.72337
4.10035
3.72987
5.08503
3.95799
5.84844
-2.63275
-1.93835
0.205047
2.17332
0.238984
-9.07239
2.1459
4.21667
5.72623
2.92458
2.09154
-3.41994
0.0993556
-0.0886443
-6.07115
-0.19834
0.176045
0.386451
-0.72886
3.04194
5.25387
-0.112793
-4.42358
-2.36835
0.540546
0.229875
-0.057369
4.17942
-0.114999
-2.68818
-1.13656
-0.307856
2.75784
4.70033
-4.36232
-2.5608
-0.00154569
6.86539e-05
-6.08619e-05
0.00182638
0.000947642
-0.000820226
2.49341e-05
-2.11962e-05
2.53131e-05
-0.00107232
1.42473e-05
-7.90947e-05
1.13905e-06
0.000895016
0.00064958
4.36537e-05
4.85376e-06
-1.00804e-05
-1.28116e-05
-8.59124e-07
-2.12488e-05
1.20555e-05
-0.000497141
-3.53732e-05
0.00041164
-3.28388
-0.542123
11.3956
3.45788
-11.5594
-1.1032
-0.334377
4.54311
1.15727
-8.47831
-0.225485
-0.0102141
0.0784792
-1.0826
-0.00489979
0.000138469
-0.00159518
-0.0154122
0.000261452
1.05154
8.61309
12.3348
-8.17093
-12.5085
-1.38483e-06
1.68531e-07
-1.99067e-07
-2.75376e-06
1.02649e-06
-3.51366
3.14781
6.23949
8.56527
-5.91154
-8.54111
-2.41943e-07
-2.19565e-07
1.23746e-07
5.29985e-08
-2.05276e-07
-2.49394e-07
-5.41707e-07
-5.88253e-07
-1.21092e-06
-5.11071e-07
-6.54071e-07
-0.000716159
-0.0272503
0.000292691
0.000531062
-0.00542121
-4.9297e-08
-5.21655e-08
-2.33879e-08
3.18638e-08
5.99887e-07
-2.50499e-05
-5.07622e-06
2.10777e-06
-5.06295e-06
1.06508e-06
1.39246
-6.34515
9.94117
-12.2161
0.132847
-0.184911
-1.00129
-3.13577
0.179384
-0.6288
0.0546523
-0.439952
0.106321
-1.46342
-0.0117407
-0.499616
0.00924289
0.0101756
-0.000170146
-0.000103507
-0.0079767
0.000102273
7.89124e-05
8.87703e-08
-3.32275e-07
-4.043e-07
-6.71825e-07
-5.54569e-07
-7.96054e-07
-7.76656e-07
-3.27962e-07
-4.66828e-07
-4.45645e-07
0.00459979
0.00791723
0.00660794
-0.142206
-0.120019
0.956539
-12.9737
-0.427148
0.204291
-4.52905
-1.33654
-0.0448766
1.12077
-0.919028
15.1333
-15.5525
0.187634
-0.0931957
-1.2788
-4.19292
1.10701
-0.535807
0.957655
-12.9729
1.75106
1.13328
-0.914591
15.2586
-15.6807
3.43854
1.48755
-3.30699
-0.791186
11.3506
-11.5388
-2.56222
-0.405206
7.57845
1.37103
-9.49979
-0.724553
-0.00280061
0.0159757
0.000272482
-0.028417
-0.000504148
-7.15614e-05
-0.00616121
-0.665967
0.014165
0.000252388
0.000263446
-8.75007e-05
-0.000471899
-0.027782
1.29581
2.4769
-0.668161
9.49978
-10.2246
0.788006
1.1428
-1.07353
-0.361398
4.51421
-8.50755
0.865502
-12.4837
1.58484
1.16459
2.56511
15.13
-15.6039
3.47218
-3.38746
2.17164
11.1619
-11.4158
4.91606
-4.16969
1.43036
14.0619
-14.5884
3.59809
3.73561
-3.35869
-3.70357
9.71467
-10.7492
1.26329
-1.74308
-8.38764
0.347955
0.0100486
0.014848
-0.0455879
-0.624421
-0.103887
-0.000304126
-0.0187473
0.000245053
2.42847
1.89279
9.21397
-10.1193
1.04837
-0.994747
1.16924
3.78517
-8.29254
0.319938
0.574346
-1.15278
-0.405962
0.577664
-4.71261
2.82214
-2.72764
1.99119
6.15417
-9.161
0.000715065
-0.00223883
-0.0534935
0.000617538
8.72967e-06
1.36283e-05
-5.33316e-05
-0.00114036
-1.63805e-05
-3.09658
6.96634
9.64509
-6.25346
-9.1855
-12.1193
1.54882
7.2607
-7.29583
1.6756
-8.3487
-3.26712
3.03986
-4.54686
0.00291867
-0.0741003
-0.0351699
-0.229404
0.627017
-3.75041
0.222695
-5.66832
9.44788
-9.27634
1.5896
10.8846
-10.9278
3.7517
6.58183
-7.22872
-3.90564
7.50218
-8.61866
-1.20524
-0.177031
1.28911
0.887203
-6.72752
-0.0121752
-3.11089e-05
0.000122828
-0.00010791
-1.06304e-05
-3.15803e-07
-3.54198e-05
-0.0119872
0.000120398
8.49294e-07
-4.01359e-07
-1.04405e-05
-0.000105976
0.649038
-0.289482
1.19863
2.68084
-7.94918
0.0290782
-0.222515
-0.0112643
0.0772387
-1.06787
-2.52515
-3.04914
1.19173
-6.96476
1.34881e-05
-0.00200061
-0.000132192
-0.000112552
-0.228442
0.00113884
-0.0208796
1.53319
5.60548
13.5816
-14.0643
3.49613
-3.74115
3.91692
8.80467
-10.3334
-5.53298
0.167731
0.525793
0.00260435
-0.245683
-0.0280079
0.00351047
-6.75978e-06
-6.81696e-05
8.15614e-07
0.940602
1.05892
2.14234
-7.64483
-0.150498
0.0275221
0.0524321
-0.791929
-0.00551176
-0.00788901
0.00307861
-0.0804708
-0.710574
0.17151
0.316415
-3.04704
-2.26772e-05
-0.000473914
4.24581e-06
-3.13814e-07
-4.03957e-06
-4.95365e-07
-0.802959
14.4169
2.0866
-14.5475
1.12066
15.1216
0.0104064
-15.5629
14.3762
0.0575708
2.08442
-14.5107
0.720914
-1.39783
0.0808475
2.69191
14.076
1.39942
-0.775381
14.6084
2.69165
14.0878
0.0647007
14.5984
-0.904015
14.5079
1.71077
2.12984
-14.6514
1.12161
15.2034
-15.6335
14.4465
2.08801
-14.584
0.886865
-1.40437
2.70006
14.1304
1.42269
-0.903144
1.71062
14.7042
1.68114
2.7292
14.1416
14.6697
-3.53895
0.197885
0.292831
-1.65669
-0.00181166
-0.0619335
0.00135635
-0.013944
1.18862
-1.19514
4.31767
5.30157
-5.05637
-7.1207
2.64656e-07
-9.03399e-06
-8.98773e-07
-2.44989e-05
0.00019143
-0.00283404
-0.0109653
0.000151667
2.72725
-5.51892
1.26654
2.43783
-6.77245
0.00617416
0.013599
-0.199664
-0.0191267
0.0164476
-0.306414
2.50162
14.3905
2.23359
-14.5614
1.22196
14.8737
3.37567
-15.392
14.15
3.28707
2.39388
-14.3491
1.46092
2.49817
14.5527
2.46284
2.79825
13.9207
-1.50552
3.2269
2.89005
13.5057
3.29618
14.2005
8.04845
11.5305
1.83913
-7.57899
-11.446
1.26991
11.771
8.91131
-11.8106
11.3099
2.33494
8.51274
-10.9808
1.32769
8.27601
12.2521
-7.92118
7.96433
2.54736
11.7584
-7.43671
-1.52047
2.95694
11.3524
8.3892
11.7305
8.66167
-0.677981
13.1706
-13.0935
-3.27016
11.3602
0.120198
3.43816
-11.4946
13.1135
0.100864
-13.0066
0.604934
3.61941
0.107572
12.5806
-3.61761
-0.449994
3.49572
9.92387
12.5685
0.107342
3.50253
9.97427
1.32723
3.50256
3.90838
-4.75404
-6.83101
-1.36259e-05
-0.000180311
3.4196e-06
-3.08991e-05
2.26898e-06
0.057362
-0.390217
0.0939408
0.121836
-0.708126
-1.41004
1.23433e-07
-3.84632e-07
-1.39844e-07
-7.43586e-07
1.05546e-06
-3.72286e-06
-1.00159e-05
1.90871e-07
0.0053772
-0.085009
0.00244354
0.00662977
-0.140561
-0.000497283
-9.80629e-05
3.82515e-05
-0.000945829
1.28763e-05
2.93613e-05
-0.000543724
-0.00345019
0.000834349
-0.0236231
-1.5703e-06
-4.47649e-08
-4.00304e-07
-9.91284e-05
-9.52688e-06
9.57299e-07
-0.152518
0.13755
0.191902
-2.11811
1.49198
2.5035
3.72966
-8.39497
-0.0155861
0.000161046
0.000172273
-0.000270431
-4.09449e-06
5.29259e-06
-0.876525
13.2078
1.63357
-13.1583
-3.26731
11.3647
3.42103
-11.51
13.157
-13.0622
3.62282
0.831003
12.5965
-0.679705
-3.63531
3.46905
1.30624
9.81826
3.48918
9.94832
1.58183
12.5482
1.31698
14.4977
-15.0465
-4.05286
13.4633
2.77685
4.7808
-13.6885
13.8231
2.58637
-14.0461
3.91898
-1.53716
2.97466
12.902
1.54636
-4.05113
4.65744
12.8753
2.93819
4.45018
12.1825
13.6483
-0.453003
9.56984
-10.2401
2.54616
9.59072
0.0991786
-10.1791
7.71571
0.0574921
1.36951
-9.47208
-0.310059
1.83656
5.672
1.87205
0.074829
5.90428
0.179052
0.0253787
0.693985
1.80002
0.667432
1.66322
-0.535832
7.49239
1.31417
1.08348
-9.4937
2.50169
9.57691
-10.1902
7.68997
1.34244
-9.48093
-0.475932
1.74912
0.930668
5.42863
1.83412
5.82632
0.251517
0.678635
1.77188
0.630964
0.535889
1.58258
2.38294
13.091
-13.1053
-3.49898
10.8198
2.81443
3.52103
-11.2011
12.8803
3.12562
-12.9604
-3.64699
1.88154
3.41394
9.44245
2.31032
12.2714
3.64
2.97308
11.7898
2.3407
3.28037
8.76018
-0.37009
5.85306
-8.87938
-1.11473
4.80381
0.0105409
1.1789
-8.50257
6.15907
0.0226794
-8.89451
0.119076
0.409822
0.00692558
0.918565
-0.383893
-0.0815829
0.284807
0.526378
0.838062
0.00241897
0.318549
0.579537
-0.426171
5.7883
0.911266
-8.87559
-1.1013
4.80272
1.17301
-8.51924
6.14067
-8.90286
0.403886
0.141935
0.913277
-0.0902938
-0.368562
0.222837
0.277917
0.519308
0.316379
0.578358
0.336427
0.817609
7.3794
10.6874
-6.71188
-9.86415
-3.68006
9.41361
4.00418
7.25253
-9.40035
10.5725
8.13897
-10.0244
-3.78265
6.57825
4.01212
9.51968
-6.37113
7.55898
10.8426
-6.95373
3.94119
10.489
7.77285
4.02197
8.73767
6.52102
-3.60821
10.357
3.56453
-11.0113
-3.84688
12.1192
4.47897
-12.4178
12.5786
-12.7357
3.49908
3.59519
11.0651
-3.45751
-2.63686
2.39708
2.67823
5.47476
3.82321
10.0884
2.99146
7.56713
1.5811
6.87314
1.24849
-9.33908
2.35295
8.67447
2.38928
-9.91006
5.68599
1.13285
1.93473
-9.01887
1.57752
1.31395
4.59386
0.713093
0.523459
1.20784
1.28667
1.50632
3.02454
0.369872
0.636105
0.759742
1.34897
5.06593
-8.68755
-0.859707
2.39149
1.34657
0.876109
-7.80851
3.81086
1.6169
-8.33151
-0.287288
0.254658
0.197726
0.396883
0.422679
0.622644
0.168348
0.306062
0.395747
0.156989
0.101725
0.226448
5.4116
12.9466
2.94708
-13.2761
1.57865
12.8196
6.12375
-13.4992
12.1253
3.06214
5.85297
-12.8354
1.50861
5.02276
11.7255
4.73259
2.74158
10.9853
-1.35224
2.42591
4.63833
8.87412
5.034
9.9132
0.0160687
-1.12062
0.0520455
-0.000100699
6.26734e-07
-0.000152286
2.83329e-07
-7.96934e-07
-1.87947e-07
-1.12565e-06
0.0373884
-1.61611
0.127402
-1.45857
-0.00377433
-0.0239873
0.000718536
-0.0190646
0.000310689
1.54685
9.83586
9.0722
-10.4746
1.88079
-3.35315
3.47076
3.47912
-7.46875
0.606992
12.263
-1.4723
0.0790021
2.75412
-12.1628
-0.361397
1.82168
1.46366
-0.664523
0.988552
-13.0242
0.0472756
2.72415
0.0521494
1.87142
0.0673647
12.2776
0.782929
-1.48256
2.7633
0.99376
-13.063
-0.477782
-12.1311
0.988154
1.81694
1.48622
-0.815889
1.59564
1.87617
1.53084
2.74399
1.57535
8.02184
-7.63051
-11.6495
6.84257
2.82374
-6.97103
7.74265
3.01747
-7.37836
10.781
-1.5896
3.09558
7.77743
1.26726
-11.3049
6.44394
2.27338
5.7811
8.13262
1.46489
11.3146
-11.257
-9.01774
10.4944
3.05215
9.13336
-10.5553
10.9256
2.86374
-10.7469
8.5058
-1.59784
3.06851
10.7265
1.5165
-8.83612
9.8971
8.41669
2.75334
9.32313
7.94918
11.1733
5.61543
7.48882
1.7403
-5.59434
-7.88729
3.43671
8.01365
6.23223
-8.37239
5.73371
1.60884
4.83307
-7.56506
3.14698
5.48283
7.72373
-5.57296
3.71021
1.28079
4.23313
-4.85339
2.5113
4.54304
5.47262
0.531754
1.04247
1.05943
-11.6338
1.39071
1.66112
1.47808
2.32653
2.21717
2.69492
10.6874
-1.4332
2.77513
2.59432
0.720479
-11.6359
1.82442
1.5461
1.39769
2.9493
-0.276103
2.69872
-7.92238
1.25148
3.05215
0.00499997
-7.98347
1.44574
0.00272217
0.967798
-6.92404
-0.041829
0.146012
0.278523
0.172116
0.000377037
0.319221
0.0124254
0.000116821
0.0506503
0.109268
0.0422774
0.094084
1.24958
3.04869
-7.99838
-0.184706
1.27755
0.445133
0.881103
-6.71927
1.44492
0.967085
-6.93009
-0.04489
0.143605
0.112157
0.275154
0.171599
0.318887
0.0132312
0.0505455
0.109216
0.0342629
0.0415665
0.093061
4.94984
6.34564
-5.3014
-7.44796
-0.824724
1.52076
0.674851
1.62146
-6.00947
2.66979
2.84448
-6.73291
-0.619643
0.844394
0.471168
0.885977
-3.27613
1.78741
1.60229
-4.02836
0.136165
0.284433
0.238502
0.0591567
0.131445
0.10537
-0.663682
1.32485
0.620152
-6.80534
-1.53707
0.936154
-0.709107
0.974956
-6.07652
2.09386
-0.971613
-7.62929
0.127887
0.0676671
-0.187286
0.1787
-0.0208699
-0.0652498
0.0115194
0.0191322
0.0326763
-0.0666791
0.0392569
0.0601729
0.039236
0.0962311
2.22532
7.75897
-9.60163
-2.02466
1.90142
1.6721
-7.5017
3.93664
-8.46423
-1.40363
0.420875
0.929139
0.91433
0.865366
1.85848
0.340015
0.407194
0.113568
0.153979
4.94524
11.4373
-12.0867
-3.6644
7.01855
3.80331
3.01709
-9.70857
10.4229
5.15751
-11.7705
-3.11301
2.26697
1.50685
2.74866
3.87778
8.28699
2.42397
3.42976
5.26113
1.23313
0.578274
1.13147
0.815588
1.39643
0.997152
-6.91126
0.597334
0.958217
0.683138
-6.068
0.605603
0.524585
0.404582
-4.84298
0.111613
0.094747
0.191992
0.0479877
0.0668596
0.104194
0.0337926
0.0256785
0.0643019
0.0194539
0.0117593
0.0349274
-5.98851
8.96168
2.48192
-11.6007
1.56004
11.7144
-12.9647
11.0422
2.86363
-12.4126
3.85704
-1.02264
1.89826
5.40191
0.576624
-4.44891
2.70118
1.09665
1.80728
6.87197
0.466783
9.93732
3.25937
0.089617
-3.22099
-0.275817
2.02436
-9.75879
-0.209711
-1.42655
-4.79032
-0.0061788
0.225049
0.0428039
0.0693466
2.11284
3.13429
9.2519
-1.33326
2.40438
0.531194
-10.3835
1.14571
-3.37706
3.52692
-6.9762
-1.3693
0.551415
0.830839
2.10175
3.19636
1.0189
-3.89246
5.66626
3.78708
-5.83051
-10.5043
5.62031
-6.16381
7.04643
-6.88307
3.6458
9.23938
6.77718
-5.57823
-2.06855
0.658933
0.384792
4.6011
2.75388
3.68267
-3.96206
8.788
4.13748
-9.12358
-8.39857
9.51549
8.31171
-9.84017
10.2498
-10.1868
7.62387
3.82104
9.52982
-3.16612
-5.75384
1.31295
2.41925
2.72832
7.30387
6.37387
3.43363
7.03747
-8.91118
0.87631
-0.663726
-3.10134
1.19222
-0.859187
1.6374
1.84985
-1.29391
7.59645
2.86822
2.2539
-0.578517
-2.23456
0.105619
0.0720194
0.831137
1.30977
1.12377
-0.000213211
-0.000170258
1.07016e-05
-8.80972e-06
7.62031e-06
3.74773e-06
-1.00448e-07
3.88052e-08
-4.97136e-07
-6.14327e-07
-6.22409e-07
-4.37764e-07
-3.8145e-07
-4.51364e-07
-3.41222e-07
-4.55777e-07
3.82637e-07
-1.67066e-06
-2.78758e-06
-4.14984e-07
1.17329e-06
-4.13221e-07
-1.07819e-06
-7.09867e-07
-3.65258e-07
-3.36919e-07
-8.36799e-07
-5.86218e-07
-3.34576e-07
-0.0010477
0.000509221
0.000419642
-0.0109796
-0.00924089
0.000314633
4.57325e-07
-1.46887e-05
-8.11695e-06
1.30535e-06
-6.66555e-07
1.29196e-06
-2.49346e-06
-4.38693e-06
-1.87742e-07
8.92834e-07
2.2687e-07
9.91336
3.26075
0.662028
-1.40925
-4.71234
0.218916
-0.315165
-9.63955
-0.43422
-3.2185
1.93094
2.07909
2.115
1.91961
1.17941
-4.15745
-6.25268
0.547241
0.824977
0.791146
-4.95467
0.305697
0.417712
0.474375
-2.34203
0.347889
0.203782
0.300604
-3.1561
0.143415
0.0856678
0.182931
-1.0539
0.0254257
0.043592
0.0584249
0.0059501
0.0122369
0.0179325
7.03395
8.88393
-1.43855
2.57407
0.688752
-9.61005
-4.13723
-2.67379
0.235432
0.354759
0.896406
-7.57821
5.25469
1.71932
4.11081
1.33913
0.48269
0.727045
-5.32805
-0.250864
0.104877
0.0456781
-1.4039
0.314231
0.16266
-3.03114
-0.0270164
0.00486414
0.0140312
0.0180321
0.0447988
0.00723232
0.00427479
0.0138311
0.00115175
0.00403042
8.617
9.33865
2.84476
-10.1244
1.05394
6.3077
6.75293
1.12955
7.11511
6.93356
-9.54752
5.97732
2.06314
5.88291
-9.07982
5.25154
1.95461
5.44336
-0.404613
0.641481
0.913636
0.889471
1.48108
1.46038
-0.0714451
0.435835
-3.96464
-0.261663
0.0914721
-8.84185e-05
-1.22155
0.487412
0.00123061
-4.25004
0.00882698
0.00248976
1.57258e-05
0.0261492
-0.000282683
-0.00740272
0.00307836
-1.06556e-05
0.0036325
0.0222555
2.42094
5.64181
2.45286
-0.289374
-1.29994
0.0299251
-1.75557
-1.10452
0.297995
0.601241
-3.05147
-0.52102
0.196168
2.20878
0.640942
-0.0759296
0.432039
0.191764
-3.94138
-0.261301
0.0912865
-1.21885
0.487285