/*--------------------------------*- C++ -*----------------------------------*\
  =========                 |
  \\      /  F ield         | OpenFOAM: The Open Source CFD Toolbox
   \\    /   O peration     | Website:  https://openfoam.org
    \\  /    A nd           | Version:  9
     \\/     M anipulation  |
\*---------------------------------------------------------------------------*/
FoamFile
{
    format      ascii;
    class       volVectorField;
    location    "0.001";
    object      rhoU;
}
// * * * * * * * * * * * * * * * * * * * * * * * * * * * * * * * * * * * * * //

dimensions      [1 -2 -1 0 0 0 0];

internalField   nonuniform List<vector> 
8401
(
(-404.57 -1551.97 1017.83)
(-362.656 -1274.11 1271.37)
(-0.569735 -2.64256 2.3069)
(-176.289 -1736.22 1145.15)
(-0.171755 -9.6507 8.55273)
(-160.036 -1426.34 1441.22)
(-55.4637 -1218.78 1038.37)
(-264.016 -960.402 707.047)
(-43.0194 -834.936 610.138)
(-54.8273 -1277.46 898.61)
(-108.248 -864.075 632.166)
(-150.518 -1311.69 924.263)
(-151.317 -1252.03 1065.07)
(-185.638 -1649.64 1332.31)
(-61.8656 -1638 1325.65)
(-179.472 -900.834 661.469)
(-383.576 -1388.27 1176.59)
(-385.147 -1456.1 1032.82)
(-256.668 -1367.26 966.107)
(-256.707 -1304.2 1108.36)
(-318.419 -1660.01 1338.99)
(-460.89 -1676.21 1349.31)
(-187.324 -1730.5 1189.98)
(-52.485 -1754.45 1158.67)
(-61.4761 -1720.85 1184.74)
(-181.714 -1716.32 1317.42)
(-31.0382 -1146.68 839.388)
(-109.418 -1081.12 790.746)
(-55.5501 -1728.59 1328.8)
(-49.215 -1443.59 1460.91)
(-61.2156 -1557.85 1461.16)
(-183.468 -1565.42 1466.7)
(-177.069 -1619.07 1423.48)
(-27.6679 -930.543 878.024)
(-54.7395 -1630.45 1436.12)
(-94.2354 -874.151 823.227)
(-466.802 -1747.84 1207.78)
(-301.554 -1676.08 1103.26)
(-322.43 -1738.18 1197.35)
(-310.513 -1672.46 1280.97)
(-189.31 -687.613 500.16)
(-172.917 -929.511 679.112)
(-422.727 -1580.41 1203.93)
(-271.301 -1374.8 1382.53)
(-451.747 -1584.49 1467.81)
(-313.741 -1572.8 1467.13)
(-301.414 -1576.87 1381.73)
(-159.414 -549.563 511.38)
(-146.889 -746.672 699.367)
(-409.008 -1488.3 1296.46)
(-110.039 -1057.11 879.199)
(-0.696452 -8.05724 7.13419)
(-5.33743 -213.212 168.65)
(-4.50119 -172.246 155.923)
(-19.0105 -182.018 143.608)
(-31.8424 -1117.21 930.782)
(-15.7957 -146.968 133.211)
(-174.79 -918.168 761.105)
(-16.5423 -63.8328 49.4154)
(-13.9196 -51.8663 47.3818)
(-0.837199 -5.2665 4.64462)
(-23.6159 -124.366 97.5422)
(-19.5347 -100.029 90.8935)
(-194.591 -693.149 571.192)
(-16.9342 -558.603 184.642)
(-4.8674 -492.746 137.264)
(-196.236 -742.645 457.78)
(-218.393 -941.579 318.666)
(-463.926 -1782.52 1029.52)
(-36.2739 -756.324 361.14)
(-86.0795 -874.744 289.412)
(-165.91 -1623.14 751.77)
(-14.0663 -462.052 125.772)
(-18.4163 -525.77 172.721)
(-22.2643 -552.608 187.466)
(-24.09 -635.043 191.374)
(-38.6484 -664.463 206.937)
(-63.4796 -709.104 268.085)
(-29.669 -681.805 252.688)
(3.46841 -528.384 157.743)
(-75.7045 -593.994 234.893)
(-35.5353 -579.357 212.117)
(-119.991 -708.573 250.052)
(-68.3038 -690.419 230.297)
(-108.839 -731.957 288.7)
(-168.163 -750.112 305.084)
(-34.5854 -662.397 395.416)
(-43.6292 -916.456 541.246)
(-26.403 -584.529 262.371)
(-81.3595 -688.364 413.586)
(-53.491 -610.061 278.784)
(-87.7233 -784.517 376.782)
(-111.473 -946.462 560.831)
(-36.7639 -840.776 275.167)
(-129.044 -1268.56 390.591)
(-48.6361 -1227.52 379.184)
(-143.175 -1406.2 514.375)
(-50.6508 -1373.21 501.625)
(-40.2394 -911.718 349.459)
(-100.908 -944.585 364.032)
(-141.546 -642.096 318.943)
(-134.313 -713.137 434.807)
(-89.9727 -629.495 300.769)
(-145.764 -810.99 395.95)
(-275.195 -1054.69 626.826)
(-186.051 -986.899 586.881)
(-213.001 -844.129 416.227)
(-146.503 -906.075 305.124)
(-330.275 -1391.82 419.703)
(-221.128 -1319.76 403.658)
(-367.361 -1515.32 556.311)
(-246.537 -1449.59 531.088)
(-170.136 -980.237 381.588)
(-251.277 -1031.07 402.095)
(-55.4244 -1601.33 738.57)
(-46.4659 -1078.35 504.389)
(-186.448 -1796.96 1030.65)
(-59.0899 -1792.16 1025.45)
(-55.0968 -1413.93 811.825)
(-122.638 -1112.8 522.038)
(-156.46 -1444.74 833.342)
(-427.161 -1695.79 801.814)
(-402.157 -1571.79 917.534)
(-322.612 -1793.47 1033.42)
(-287.141 -1651.79 771.21)
(-268.606 -1493.98 866.297)
(-207.206 -1161.11 546.785)
(-309.741 -1242.55 585.335)
(-154.78 -1328.81 100.553)
(57.1753 -577.772 331.373)
(-81.3044 -1020.81 393.56)
(-330.027 -1839.03 139.212)
(-328.394 -1537.93 470.434)
(-14.7602 -1304.86 90.0294)
(-7.02299 -860.431 383.576)
(-7.43225 -1569.25 121.389)
(-39.6294 -1583.46 344.529)
(-331.642 -1459.76 507.76)
(43.8675 -496.368 207.243)
(-313.014 -1356.09 356.197)
(26.1388 -466.206 239.926)
(13.7874 -391.101 140.794)
(-33.6614 -966.056 469.643)
(-33.1127 -811.258 266.965)
(-18.8674 -888.063 386.596)
(14.4101 -666.801 331.301)
(-3.71928 -638.39 320.62)
(-32.1846 -1120.91 409.077)
(-14.9468 -882.037 413.383)
(-9.98361 -1089.98 414.487)
(-11.6733 -912.222 424.112)
(-2.46166 -435.926 211.169)
(23.1002 -389.302 155.569)
(-4.11436 -366.427 136.117)
(-15.8425 -684.513 373.766)
(-1.90856 -720.159 386.233)
(-16.0605 -581.135 263.109)
(-5.93606 -617.612 278.978)
(57.5498 -493.834 243.476)
(53.6104 -512.375 283.351)
(47.5995 -429.961 193.826)
(-40.9362 -787.03 418.497)
(-0.541129 -750.381 405.011)
(-0.597168 -655.004 304.513)
(-36.4112 -694.227 329.299)
(-43.2517 -947.041 394.839)
(11.1372 -776.495 369.549)
(26.3107 -712.114 348.653)
(-71.5624 -1174.12 408.441)
(-65.4729 -979.085 426.133)
(-20.9162 -945.545 429.779)
(-130.76 -1225.97 398.294)
(-83.601 -1311.65 96.0561)
(-10.7252 -1077.04 316.597)
(-60.2586 -1099.89 322.83)
(-64.2856 -1294.2 326.04)
(-5.52955 -1421.59 108.215)
(-8.71121 -1269.86 326.672)
(-76.3227 -1437.52 109.073)
(7.06315 -426.107 122.448)
(-10.5214 -393.146 109.107)
(-7.52551 -363.48 127.451)
(-20.148 -590.861 178.153)
(-17.9964 -568.876 197.842)
(-10.718 -602.128 214.671)
(-19.6849 -622.372 193.148)
(-233.05 -1355.44 102.585)
(-180.176 -1191.11 319.563)
(-118.296 -1142.57 326.464)
(-129.135 -1335.36 321.437)
(-239.636 -1505.02 110.551)
(-203.843 -1382.13 308.499)
(-152.504 -1467.45 109.836)
(26.7119 -530.013 179.696)
(38.8412 -437.702 169.564)
(24.0506 -475.413 147.097)
(-8.42731 -636.635 237.748)
(-72.1714 -689.916 241.726)
(-30.1878 -657.751 217.938)
(-42.4604 -672.443 258.741)
(-20.6882 -1337.28 405.607)
(-30.6558 -1142.97 465.318)
(-56.2934 -1447.5 476.121)
(-67.9949 -1362.21 395.942)
(-135.237 -1476.14 469.02)
(-117.804 -1608.24 333.76)
(-64.6943 -1165.04 456.509)
(-58.2788 -1320.1 509.291)
(-32.7862 -856.291 354.249)
(-53.6221 -1230.24 422.353)
(-133.548 -1355.25 506.59)
(-60.4819 -993.505 468.878)
(-57.1355 -886.823 363.461)
(-122.614 -1271.42 429.237)
(-23.6512 -1741.2 138.59)
(-25.5919 -1683.95 258.908)
(-12.9738 -1464.88 302.376)
(-82.0046 -1489.58 296.341)
(-117.091 -1766.86 141.791)
(-112.682 -1711.15 250.806)
(-86.7357 -1594.01 119.549)
(-50.377 -1179.64 341.095)
(-48.9013 -1176.32 329.081)
(-34.6608 -813.636 252.265)
(-61.2423 -843.186 280.671)
(-121.473 -1221.54 338.841)
(-118.628 -1225.11 351.553)
(-72.2372 -847.266 265.359)
(-159.436 -1527.05 285.892)
(-272.506 -1667.5 125.114)
(-316.471 -1781.28 227.472)
(-217.624 -1802.41 140.833)
(-207.831 -1746.11 239.448)
(-249.654 -1566.96 269.733)
(-173.139 -1630.32 121.57)
(-131.501 -1394.55 380.886)
(-196.837 -1199.11 421.866)
(-312.506 -1654.28 299.182)
(-223.764 -1500.88 463.699)
(-206.96 -1632.42 317.717)
(-116.928 -1182.91 439.313)
(-215.052 -1420.65 356.043)
(-185.982 -1037.74 451.913)
(-222.069 -1393.3 501.966)
(-109.61 -1011.86 462.232)
(-101.9 -911.937 369.97)
(-318.264 -1414.41 448.244)
(-207.549 -1322.58 434.385)
(-174.44 -948.88 373.009)
(-106.445 -871.509 291.404)
(-309.114 -1370.14 368.056)
(-191.751 -911.994 288.673)
(-207.203 -1278.2 347.45)
(-202.095 -1282.64 358.916)
(-123.125 -877.619 278.897)
(-174.397 -907.873 299.022)
(-242.853 22.3215 34.6765)
(-734.124 -20.6631 414.107)
(-238.873 11.6139 76.4552)
(-619.215 25.5067 209.755)
(-377.403 -79.2377 253.465)
(-642.834 65.4908 396.786)
(-325.766 -27.7968 144.413)
(-539.876 66.1899 244.678)
(-203.631 20.7608 35.6081)
(-321.341 5.49442 72.7175)
(-267.37 10.2884 60.7402)
(-390.358 -52.2217 127.368)
(-329.557 -40.9239 94.9503)
(-335.814 -84.3337 140.794)
(-396.831 -100.6 209.964)
(-207.313 19.8794 52.6803)
(-285.953 -7.9504 96.7596)
(-267.742 10.1543 79.0552)
(-321.34 -44.3356 94.4149)
(-320.051 -36.6871 103.805)
(-326.47 -61.8223 131.374)
(-345.374 -53.4955 113.342)
(-501.681 -39.8417 340.438)
(-314.839 -68.2606 183.716)
(-435.684 -41.3668 264.31)
(-359.771 -60.3672 146.058)
(-304.567 -43.467 110.662)
(-382.517 -86.7188 213.166)
(-454.807 -95.1488 295.691)
(-506.504 -74.5878 299.699)
(-636.011 -16.9894 307.681)
(-420.834 -62.8156 202.122)
(-479.491 -66.3696 256.674)
(-769.778 24.7822 430.775)
(-569.858 -76.9115 353.984)
(-673.324 24.6423 333.491)
(-314.957 -51.6628 161.158)
(-424.304 -22.5107 209.252)
(-430.106 11.9433 188.98)
(-301.367 -45.6611 113.541)
(-301.987 -36.0479 119.569)
(-379.331 -62.3328 175.742)
(-396.396 -34.0485 152.191)
(-606.819 -1.40817 230.502)
(-448.019 -27.623 141.609)
(-420.94 -47.3267 164.847)
(-476.837 -50.3365 201.868)
(-642.827 71.5942 231.785)
(-639.251 37.6854 252.805)
(-489.425 -21.1481 172.182)
(-810.089 207.05 423.599)
(-569.843 54.0758 318.941)
(-736.09 194.178 350.54)
(-532.732 -32.8393 296.651)
(-787.549 105.898 432.696)
(-610.839 -32.6386 383.047)
(-699.318 97.9817 342.92)
(-695.652 197.878 275.817)
(-540.853 101.379 227.155)
(-695.553 221.569 260.999)
(-511.976 -12.3686 226.023)
(-663.627 139.566 247.811)
(-660.023 108.217 263.071)
(-521.968 26.3151 202.915)
(-772.845 132.602 260.999)
(-534.09 74.9468 199.737)
(-927.07 4.12494 433.802)
(-1381.43 205.339 105.343)
(-1014.34 402.238 72.913)
(-1230.03 400.31 104.874)
(-713.271 137 333.535)
(-993.99 207.288 359.314)
(-361.216 40.7194 83.6118)
(-466.477 38.6539 149.12)
(-598.28 97.6768 250.764)
(-565.899 -24.6832 233.778)
(-721.322 54.0087 329.247)
(-769.013 63.8639 347.396)
(-569.607 -55.9967 295.379)
(-1093.74 202.097 8.83922)
(-1073.32 275.492 26.4204)
(-789.964 186.758 267.866)
(-1168.45 198.311 58.8166)
(-915.29 140.194 288.821)
(-934.987 191.985 288.719)
(-1136.62 261.645 77.1368)
(-851.383 158.2 360.646)
(-523.527 -22.1491 302.594)
(-651.292 17.8057 364.432)
(-510.565 -18.2839 229.821)
(-660.498 109.488 315.445)
(-822.91 97.1568 357.982)
(-622.401 -42.3466 337.631)
(-700.57 -45.7947 356.473)
(-1130.04 78.8147 402.382)
(-914.038 46.3299 386.415)
(-955.935 76.9855 381.611)
(-949.165 48.7636 433.898)
(-1147.12 128.289 387.086)
(-756.115 -37.8574 389.714)
(-839.871 304.063 267.554)
(-1111.56 393.464 94.5522)
(-982.229 301.291 275.932)
(-1042.68 343.762 47.5428)
(-812.851 247.021 270.113)
(-958.851 245.507 286.653)
(-1117.38 325.947 87.1733)
(-1256.43 192.025 98.163)
(-1265.77 165.611 305.719)
(-1087.79 145.872 311.629)
(-1100.53 195.976 296.651)
(-1372.86 276.461 105.866)
(-1272.18 225.256 285.822)
(-1240.91 258.003 100.03)
(-1146.31 296.907 336)
(-797.826 111.444 401.181)
(-947.734 234.295 389.806)
(-983.719 130.902 380.23)
(-948.783 132.596 414.832)
(-1150.23 202.374 367.765)
(-781.222 13.3642 399.834)
(-1131.83 326.894 271.044)
(-1362.63 431.53 113.793)
(-1279.61 375.866 241.76)
(-1116.15 255.825 284.626)
(-1367.01 351.524 110.742)
(-1276.57 295.033 265.161)
(-1232.17 327.289 102.686)
(-128.842 36.669 2.46144)
(-442.054 126.632 145.319)
(-571.24 126.438 176.568)
(-315.781 72.0938 71.4164)
(-130.575 82.8971 5.94886)
(-761.037 473.753 -70.7072)
(-886.741 438.596 -7.17353)
(-419.463 189.987 168.567)
(-239.724 68.5166 50.9953)
(-268.889 68.8348 59.7595)
(-140.132 35.3114 6.14061)
(-127.715 50.746 5.17196)
(-239.548 95.9046 56.5359)
(-273.25 97.8752 62.9644)
(-137.313 50.1722 5.35919)
(-765.802 218.98 -82.7976)
(-500.733 126.69 157.518)
(-854.758 216.311 -77.0056)
(-763.797 305.045 -78.8564)
(-443.97 177.532 151.457)
(-505.92 176.787 164.829)
(-852.178 297.785 -72.1363)
(-251.774 159.422 66.647)
(-311.969 172.477 102.476)
(-165.735 91.3125 18.2129)
(-122.673 63.3515 5.69974)
(-240.752 124.132 60.5911)
(-287.809 131.399 73.6376)
(-148.138 68.353 7.81912)
(-390.86 77.7326 114.874)
(-207.232 40.9704 21.8096)
(-160.921 38.1842 6.46042)
(-331.14 104.381 86.9434)
(-261.631 66.8824 41.6067)
(-170.359 55.0832 11.6955)
(-427.9 112.259 147.998)
(-944.577 210.57 -65.461)
(-658.514 131.695 215.014)
(-1021.51 208.176 -32.7099)
(-582.672 179.612 191.389)
(-999.156 280.86 -11.3734)
(-670.609 182.842 234.673)
(-939.42 291.153 -54.6056)
(-456.245 284.887 170.432)
(-833.95 458.948 -46.8763)
(-527.531 289.642 200.527)
(-762.785 388.876 -74.7873)
(-448.776 229.288 159.41)
(-515.502 230.56 177.693)
(-849.016 379.418 -64.0878)
(-568.534 169.345 278.679)
(-281.236 116.211 62.1697)
(-442.037 54.2186 179.244)
(-360.987 142.995 118.321)
(-358.807 88.3851 90.1768)
(-198.38 78.1906 24.5896)
(-498.294 147.775 199.426)
(-610.849 295.401 241.543)
(-951.03 426.186 29.1127)
(-715.399 302.227 259.834)
(-594.552 235.671 212.901)
(-973.631 353.938 7.94969)
(-691.115 238.83 253.682)
(-919.418 367.675 -33.9255)
(-0.00145113 0.000161907 0.00254496)
(-59.2471 10.5468 63.3344)
(-6.0158 1.17794 10.5142)
(-1068.76 197.601 1235.15)
(-0.0591518 0.0224729 0.103655)
(-0.151825 0.0745875 0.36272)
(-1032.21 486.703 1257.61)
(-5.37612 1.9832 6.31349)
(-1232.18 242.073 1550.09)
(-656.039 127.593 854.75)
(-1204.48 346.167 1505.45)
(-964.425 264.314 1099.62)
(-546.234 159.024 699.245)
(-207.183 40.2213 251.211)
(-136.75 40.1939 169.502)
(-534.929 245.835 587.568)
(-1148.11 435.412 1420.14)
(-791.506 288.957 885.816)
(-215.328 105.961 272.664)
(-388.584 151.622 490.411)
(-68.1933 26.1218 88.1522)
(-25.8639 11.7586 35.9175)
(-1.71264 0.280141 2.38676)
(-21.9297 3.98947 29.2739)
(-486.713 89.2647 513.686)
(-33.439 8.53175 36.5658)
(-352.526 97.524 370.72)
(-12.8627 3.45261 17.8897)
(-0.973225 0.22941 1.35975)
(-49.5369 10.2261 76.1825)
(-0.153598 0.0298513 0.337729)
(-1.20957 0.253813 2.71516)
(-0.0922419 0.0265119 0.202544)
(-0.744841 0.233773 1.69749)
(-30.4246 9.35833 48.6786)
(-3.60033 1.04832 6.45906)
(-0.0173935 0.00749253 0.0379551)
(-0.0446503 0.0160353 0.0976512)
(-0.372877 0.150829 0.870834)
(-6.14033 3.02396 11.458)
(-15.0107 6.01909 25.7765)
(-1.71084 0.631101 3.14186)
(-0.659553 0.287898 1.24161)
(-15.1332 4.81093 17.1978)
(-0.154734 0.0524839 0.215104)
(-81.2587 36.0024 89.565)
(-201.239 74.2868 213.94)
(-6.01042 2.0653 8.75666)
(-0.43726 0.127847 0.61339)
(-2.19001 0.877912 3.27046)
(-90.6665 26.4189 6.49248)
(-183.367 21.8101 185.861)
(-87.2998 21.6964 39.136)
(-142.4 27.7306 11.3512)
(-139.086 25.5839 50.9431)
(-81.1513 51.8104 40.6377)
(-86.5116 55.8363 5.80874)
(-163.115 67.1838 33.5682)
(-182.896 65.0314 77.772)
(-86.1703 25.3128 18.1374)
(-93.2377 22.7497 17.0103)
(-98.6691 24.2029 7.12202)
(-89.9642 35.8107 6.95503)
(-85.024 34.0864 17.5765)
(-86.1489 31.272 16.0945)
(-92.3895 33.7498 6.4255)
(-315.378 11.3994 213.382)
(-173.999 22.9963 79.0891)
(-81.9682 22.7991 49.2811)
(-150.826 72.2635 163.781)
(-85.2462 54.7088 55.8862)
(-273.37 60.1316 248.592)
(-216.544 -0.333594 133.311)
(-85.4465 24.1868 42.5298)
(-85.4983 25.4017 30.6051)
(-91.4677 22.7062 28.4715)
(-83.5664 32.3758 41.277)
(-83.9918 34.1522 29.5034)
(-85.0294 31.1123 27.2792)
(-84.1402 31.0818 38.7127)
(-77.52 49.9887 15.8757)
(-100.944 56.9912 18.7471)
(-115.91 64.3479 10.6935)
(-85.4628 43.5859 6.89535)
(-81.7049 41.6006 16.9442)
(-87.4445 42.4023 16.0265)
(-98.5655 47.1768 6.23253)
(-94.8484 24.2885 16.2577)
(-104.971 26.5924 6.11949)
(-123.621 24.7815 19.0217)
(-103.232 33.7406 16.99)
(-176.304 44.1327 18.1013)
(-116.18 37.8152 8.12579)
(-147.4 37.8624 24.311)
(-78.0464 50.3596 27.8261)
(-107.794 58.496 47.9807)
(-101.892 57.1498 31.9209)
(-78.1191 39.2475 39.0175)
(-80.1632 41.2585 28.2113)
(-88.1976 42.7142 28.1667)
(-93.2225 42.6641 40.948)
(-81.6354 21.5573 53.3165)
(-72.5034 22.549 58.0235)
(-75.5617 29.8711 49.7881)
(-78.6038 32.6708 62.3339)
(-90.0913 32.8018 52.5042)
(-94.7794 23.4519 67.8999)
(-106.259 34.9864 76.0171)
(-100.354 23.6591 40.8512)
(-95.4028 24.355 28.4407)
(-126.151 24.617 32.4635)
(-103.749 33.7765 29.2886)
(-171.591 37.4316 62.3032)
(-108.723 34.7104 43.6426)
(-151.761 38.7417 40.6955)
(-195.15 75.8099 30.833)
(-309.237 2.63269 113.243)
(-260.298 11.241 90.7697)
(-116.754 46.4614 20.0047)
(-246.784 48.5656 43.4144)
(-136.11 53.0093 12.6459)
(-202.733 43.5488 41.8792)
(-164.807 67.4893 52.3133)
(-264.413 0.976171 119.886)
(-261.74 16.7528 108.917)
(-118.628 46.7342 33.8554)
(-230.677 38.0517 88.1415)
(-130.454 49.6099 53.108)
(-206.817 44.7133 61.8561)
(-106.686 64.697 87.4375)
(-177.373 65.301 134.126)
(-130.285 66.0735 77.3779)
(-74.316 39.7952 49.1762)
(-86.4707 43.8756 69.1899)
(-100.738 45.1952 58.6049)
(-133.855 52.0284 96.3714)
(-123.128 30.7578 142.595)
(-85.9365 23.5572 81.2086)
(-145.971 42.8922 172.996)
(-95.4831 36.1352 91.8335)
(-127.573 28.1277 110.054)
(-152.368 37.8344 133.84)
(-184.697 12.6514 197.223)
(-108.583 23.8343 57.4909)
(-218.598 24.2697 98.4416)
(-125.162 36.6407 65.8073)
(-237.046 5.03961 122.646)
(-143.329 26.4342 90.93)
(-176.498 33.7866 110.402)
(-250.088 -14.4805 122.785)
(-139.609 31.5876 216.353)
(-157.81 43.745 204.021)
(-117.832 53.9417 117.084)
(-198.878 35.4015 230.124)
(-177.932 16.6859 175.248)
(-187.945 38.6912 170.887)
(-181.23 6.52519 207.224)
(-214.696 46.5666 117.592)
(-282.651 7.91386 146.779)
(-260.75 -15.6576 114.422)
(-257.281 1.22731 114.583)
(-165.207 49.2032 84.5811)
(-216.162 25.8323 137.086)
(-260.246 -22.4562 123.453)
(-220.724 2.4329 179.131)
(-254.532 -11.866 137.641)
(-210.747 17.4616 154.457)
(-220.537 1.74568 159.976)
(-330.153 25.6969 236.398)
(-243.547 7.66065 204.709)
(-280.068 -9.08026 157.074)
(-235.784 19.4923 180.4)
(-355.418 114.085 278.032)
(-306.896 46.9722 206.653)
(-220.341 -8.8037 159.641)
(-343.907 61.0859 261.221)
(-260.247 21.534 226.937)
(-299.349 4.92811 181.861)
(-0.048846 0.00756345 0.0789253)
(-0.587651 0.104165 1.02968)
(-0.0160298 0.0023202 0.0320758)
(-0.00937582 0.00273851 0.018601)
(-0.000857025 0.000224025 0.00147289)
(-0.342677 0.0892869 0.60593)
(-0.0277691 0.00650143 0.0444433)
(-0.00167749 0.000829653 0.003217)
(-0.000193324 9.35874e-05 0.000312331)
(-0.00449679 0.00166057 0.00691508)
(-0.0044024 0.0010832 0.00858387)
(-0.000422645 8.53097e-05 0.000709042)
(-0.159032 0.0517096 0.281844)
(-0.0124744 0.00325185 0.019709)
(-3017.62 231.814 1189.95)
(-1434.63 118.354 285.971)
(-36.3526 2.68991 15.5251)
(-0.203398 -0.118141 0.075455)
(-1818.85 -1233.03 141.651)
(-0.000153415 -0.000102367 2.33833e-05)
(-2662.68 -1886.18 1351.22)
(-1.66658e-05 -1.08707e-05 4.51851e-06)
(-0.440481 -0.200019 0.0688338)
(-8.03767e-07 -7.48238e-07 4.55638e-07)
(-0.000460582 -0.000210966 0.000214609)
(-2934.94 -1666.56 231.283)
(-166.233 -25.9096 80.3235)
(-53.2923 -26.0738 32.6592)
(-10.872 -1.33184 4.88412)
(-0.123407 -0.0116073 0.0166553)
(-1.29351e-05 -4.47642e-06 1.02958e-05)
(-3.33184 -0.568035 3.70661)
(-2494.81 174.811 160.581)
(-265.143 17.5026 129.297)
(-2348.18 208.035 142.482)
(-240.768 -22.2208 117.663)
(-2468.41 -208.854 161.109)
(-2397.6 -207.661 145.27)
(-3033.06 -300.171 1200.16)
(-2285.53 176.431 610.759)
(-18.4446 0.919827 8.46701)
(-0.446445 0.0210329 0.048629)
(-16.4014 -1.18195 7.49539)
(-0.434836 -0.022825 0.0463684)
(-2824.87 -279.773 1122.36)
(-1429.67 -127.055 280.159)
(-2245.03 -330.856 146.333)
(-2448.38 -345.632 149.06)
(-3021.04 -486.952 1230.68)
(-2771.31 -879.854 191.845)
(-2831.21 -991.997 1363.83)
(-825.501 -273.221 51.4515)
(-13.7331 -3.2261 5.35478)
(-0.288814 -0.0295018 0.0301594)
(-2768.23 -456.384 1120.46)
(-1295.75 -211.963 252.055)
(-332.441 -135.408 64.9866)
(-2138.95 -771.918 1006.9)
(-0.772811 -0.153633 0.327874)
(-0.0168492 -0.00370684 0.00169262)
(-2428.86 -1679.62 1115.34)
(-3010.21 -1919.76 250.698)
(-1424.01 -912.198 850.725)
(-3.87858 -2.17387 1.62264)
(-453.283 -345.542 31.3453)
(-2543.02 -2192.83 233.436)
(-2261.69 -1937.25 1456.61)
(-679.464 59.1037 245.146)
(-0.188649 0.00909964 0.0265847)
(-0.00181088 8.92356e-05 0.000608992)
(-0.185454 -0.00969563 0.0259639)
(-0.00177187 -0.000112907 0.000596348)
(-1120.49 -99.9838 296.647)
(-35.7426 -2.86131 15.2472)
(-729.366 -424.11 422.763)
(-0.0233014 -0.00564801 0.00689296)
(-3.4178 -1.03815 0.103402)
(-2940.48 -1118 215.25)
(-2613.12 -1063.32 1347.61)
(-356.506 -133.652 21.0353)
(-3.82482 -0.928105 1.37732)
(-0.00115194 -7.87474e-05 0.000385737)
(-972.146 -161.352 259.248)
(-23.9067 -3.45451 9.6992)
(-1.38409 -0.351699 0.449503)
(-166.603 -65.7975 43.6694)
(-0.00709792 -0.00179856 0.000778028)
(-0.000127305 -2.74348e-05 3.97767e-05)
(-2422.81 204.789 323.582)
(-2340.2 69.2765 142.566)
(-2408.76 61.8504 323.501)
(-2978.69 65.4885 535.996)
(-2902.86 231.685 184.147)
(-2990.66 234.442 538.671)
(-2891.46 68.1085 184.381)
(-2471.75 -222.434 333.101)
(-2360.17 -71.5972 143.389)
(-2429.71 -80.9145 324.866)
(-2996.39 -99.6019 539.519)
(-2944.82 -257.378 188.46)
(-3029.51 -271.047 552.76)
(-2908.83 -93.2444 185.539)
(-209.496 -129.294 134.55)
(-1.07839 -0.511737 0.135202)
(-1544.52 -1160.92 333.796)
(-0.00046305 -0.000281765 6.66993e-05)
(-0.158571 -0.0828664 0.0872999)
(-1178.44 -1020.18 825.129)
(-7.40665 -5.82988 1.23433)
(-2522.44 -367.807 355.903)
(-2525.07 -498.455 157.31)
(-2596.38 -527.171 396.411)
(-2999.79 -425.454 196.241)
(-3067.48 -447.685 584.763)
(-3121.14 -640.419 631.664)
(-3087.94 -615.204 208.644)
(-1789.56 -1221.97 278.55)
(-1926.87 -1437.58 159.769)
(-1936.88 -1446.18 388.329)
(-2127.26 -1405.62 170.667)
(-2161.67 -1429.03 438.458)
(-2468.02 -1774.23 600.465)
(-2399.36 -1718.9 206.112)
(-2745.87 219.685 712.312)
(-3013.35 53.6061 1187.33)
(-2731.82 58.8802 707.968)
(-3145.33 58.4628 1026.2)
(-2860.1 204.607 1302.88)
(-3144.84 237.518 1024.67)
(-2881.18 43.6341 1310.31)
(-1292.49 -969.848 366.762)
(-0.0029095 -0.00122889 0.000995396)
(-59.4715 -40.2032 29.9152)
(-6.25012e-05 -3.66843e-05 1.78974e-05)
(-0.000219294 -0.00013043 2.4779e-05)
(-2.95763 -2.28032 0.583945)
(-0.0167696 -0.0123816 0.00578075)
(-0.374781 -0.146658 0.043099)
(-7.92841e-05 -2.88618e-05 6.55857e-06)
(-0.00130924 -0.000384939 0.000507302)
(-95.9045 -42.0615 17.2713)
(-1578.06 -673.156 808.136)
(-0.207018 -0.0443135 0.0859732)
(-0.00403932 -0.000801674 0.000471145)
(-2795.62 -263.092 737.075)
(-3022.26 -117.185 1187)
(-2752.48 -100.885 712.682)
(-3156.65 -111.509 1030.68)
(-2838.67 -270.286 1302.1)
(-2875.51 -102.818 1308.19)
(-3166.38 -295.812 1043.13)
(-2631.05 -674.722 171.913)
(-2827.16 -915.122 542.224)
(-2698.95 -708.246 458.984)
(-3171.35 -848.041 682.429)
(-3263.53 -1061.41 237.72)
(-3173.18 -1046.46 724.055)
(-3189.63 -833.699 224.298)
(-2839.86 214.698 1140.12)
(-2848.13 48.0896 1138.35)
(-2311.18 42.6918 612.972)
(-2042.24 142.937 911.92)
(-2095.38 29.1899 930.463)
(-987.784 15.8159 275.084)
(-927.983 69.3574 261.411)
(-2252.74 -214.036 579.283)
(-2843.98 -105.836 1126.81)
(-2300.12 -74.1464 597.668)
(-1986.2 -189.464 880.575)
(-2075.64 -70.9392 916.555)
(-973.52 -28.8412 266.234)
(-888.427 -83.8722 241.338)
(-2838.27 -430.226 787.471)
(-2998.57 -674.218 1278.17)
(-2895.65 -610.948 864.337)
(-2745.63 -433.814 1290.01)
(-3155.2 -483.728 1071.02)
(-3128.17 -671.275 1108.47)
(-2593.14 -571.825 1260.14)
(-1734.75 139.93 310.785)
(-1480.42 32.5973 293.183)
(-1770.38 36.9374 315.403)
(-529.15 9.86223 91.9111)
(-293.458 24.2374 57.4841)
(-483.309 38.7125 84.9198)
(-327.435 6.42454 63.833)
(-1720.45 -156.012 297.435)
(-1480.65 -37.4386 290.844)
(-1766.85 -48.0704 309.347)
(-525.701 -12.9625 89.7855)
(-288.779 -25.9101 55.5399)
(-326.619 -7.43593 63.1609)
(-471.086 -42.9255 79.8497)
(-1878 -1296.07 523.71)
(-2608.77 -1966.83 1404.56)
(-2178.73 -1621.52 776.174)
(-2702.81 -1826.36 1457)
(-2453.39 -1625.18 908.987)
(-2679.02 -1951.24 1147.53)
(-2575.38 -1875.34 1514.33)
(-2948.26 -852.162 1328.53)
(-3021.15 -1020.29 1059.47)
(-2962.19 -809.336 958.054)
(-3052.11 -843.468 1138.17)
(-1968.81 -676.704 1032.95)
(-2882.69 -966.403 1134.47)
(-2354.1 -663.888 1187.72)
(-2137.61 -352.94 547.177)
(-2666.25 -616.37 1116.22)
(-1927.58 -457.476 498.485)
(-1790 -293.258 809.843)
(-708.62 -121.775 193.98)
(-1469.06 -342.476 689.317)
(-460.632 -114.674 129.914)
(-1599.41 -262.444 271.302)
(-1057.21 -258.446 204.58)
(-1369 -331.397 229.244)
(-210.946 -35.5518 39.595)
(-357.014 -61.5255 59.9158)
(-212.321 -52.5724 34.7756)
(-114.136 -27.0159 20.1413)
(-2963.66 -1149.33 637.982)
(-3099.28 -1386.5 238.227)
(-3051.75 -1382.23 719.611)
(-3227.19 -1249.56 240.62)
(-3048.6 -1189.06 736.423)
(-2725.97 -1209.8 684.021)
(-2989.85 -1327.61 222.377)
(-34.3604 -24.2439 1.64861)
(-0.00213878 -0.00176608 4.97598e-05)
(-4.08049e-05 -3.36503e-05 1.38495e-05)
(-65.0125 -69.0835 4.17498)
(-0.34229 -0.382542 0.171878)
(-2738 -2505.32 254.255)
(-1414.26 -1290.12 940.985)
(-3237.91 61.9375 689.394)
(-2122.67 147.234 485.465)
(-3330.38 253.872 223.116)
(-2560.79 43.4977 165.082)
(-3219.58 239.971 685.096)
(-2199.49 34.7469 502.201)
(-3340.81 69.1752 224.505)
(-3247.7 -101.803 694.067)
(-2560.6 -67.4517 166.404)
(-2085.49 -179.832 484.375)
(-3351.49 -294.027 227.528)
(-2191.81 -60.3457 503.92)
(-3229.52 -287.428 696.521)
(-3353.88 -102.586 226.431)
(-2668.43 -1711.04 222.365)
(-2879.56 -1835.46 768.218)
(-2713.92 -1753.65 669.255)
(-2851.44 -2020.47 764.762)
(-2701.11 -1855.23 217.435)
(-2433.27 -1661.04 667.995)
(-2888.75 -2044.86 248.379)
(-2180.31 -1748.89 194.93)
(-2573.48 -2225.59 715.703)
(-2245.47 -1801.48 544.381)
(-2720.15 -2131.16 741.238)
(-2813.84 -2350.16 250.235)
(-2691.69 -2244.4 775.289)
(-2709.5 -2118.77 239.81)
(-2391.12 -1741.19 954.985)
(-2577.41 -1961.52 1495.82)
(-2020.51 -1560.54 904.741)
(-2514.71 -1708.25 1430.74)
(-1679.95 -1181.94 712.001)
(-1951.84 -1419.71 1228.79)
(-650.57 -490.851 329.356)
(-1850.52 -277.062 438.466)
(-3319.29 -485.815 228.37)
(-3164.15 -470.079 699.994)
(-3041.1 -633.291 692.952)
(-1884.9 -394.615 121.75)
(-1483.64 -315.497 361.246)
(-3242.66 -668.724 225.718)
(-1123.72 94.762 299.293)
(-1179.85 26.5756 312.002)
(-740.532 16.5803 266.133)
(-142.946 11.6266 36.298)
(-165.79 3.17929 42.4025)
(-51.5892 0.840835 15.6702)
(-43.9446 3.20026 13.1105)
(-1180.64 -28.7586 311.183)
(-675.39 -62.1237 243.479)
(-740.773 -17.6742 265.919)
(-141.011 -12.207 35.5446)
(-165.597 -3.46292 42.2112)
(-51.5621 -0.902913 15.6392)
(-43.4343 -3.36261 12.9168)
(-1865.95 -1391.03 430.048)
(-784.633 -636.721 170.477)
(-1202.24 -968.514 291.052)
(-511.819 -380.125 108.763)
(-856.171 -634.763 193.463)
(-153.383 -114.302 38.1459)
(-64.1333 -46.1087 12.2191)
(-702.816 -231.319 136.328)
(-543.373 -220.028 93.7278)
(-1004.03 -325.669 168.95)
(-88.7005 -26.3237 13.6643)
(-14.7859 -4.37593 2.05837)
(-27.78 -8.68524 3.8249)
(-45.166 -12.4913 7.09616)
(-2478.43 -735.898 1091.08)
(-1030.55 -402.093 301.111)
(-1561.12 -488.763 421.687)
(-568.037 -208.741 295.222)
(-1035.92 -313.315 510.644)
(-226.459 -70.4497 66.3787)
(-77.0167 -26.2414 24.1777)
(-3034.22 -1216.89 1147.56)
(-2241.54 -1034.82 1224.62)
(-2932.14 -1351.92 1188.29)
(-1379.49 -564.801 751.737)
(-2567.56 -1003.96 1054.95)
(-1999.91 -899.786 858.341)
(-695.859 -326.697 386.361)
(-722.429 -180.354 194.907)
(-535.148 -92.1049 194.412)
(-345.738 -88.679 126.14)
(-94.5732 -14.9868 22.9815)
(-48.9949 -10.6043 11.014)
(-29.4589 -4.14253 8.36664)
(-15.7944 -3.04562 4.18124)
(-2692.62 -1519.43 708.775)
(-3138.81 -1603.24 248.956)
(-2998.77 -1541.36 757.808)
(-2070.65 -1035.37 540.852)
(-1482.2 -823.564 103.633)
(-1074.18 -601.575 296.289)
(-2439.68 -1210.94 177.357)
(-2871.12 44.989 1056.59)
(-1784.53 121.391 889.808)
(-1236.26 84.8169 492.847)
(-294.622 3.21865 144.725)
(-2831.74 199.353 1041.28)
(-1313.1 18.0249 523.75)
(-1848.72 24.0354 920.94)
(-2813.03 -750.977 659.139)
(-1389.59 -375.907 88.2994)
(-2738.48 -884.208 189.593)
(-544.648 -180.656 141.371)
(-2411.33 -783.155 583.002)
(-1014.06 -278.493 255.432)
(-3072.87 -817.032 214.476)
(-2489.56 -1614.99 1451.67)
(-2511.59 -1581.35 1126.95)
(-2815.03 -1842.98 1202.8)
(-2682.72 -1892.81 1221.22)
(-462.354 -315.216 274.667)
(-1943.9 -1358.92 1185.67)
(-1674.05 -1145.65 780.25)
(-2562.63 -2078.51 1534.24)
(-2626.35 -2274.02 1244.22)
(-2511.68 -2029.01 1082.95)
(-2696.78 -2112.47 1245.54)
(-1230.68 -1024.56 789.284)
(-2306.22 -1906.08 1113.93)
(-2191.65 -1691.43 1369.59)
(-970.746 -153.085 395.091)
(-1512.12 -242.232 770.319)
(-2677.15 -405.424 1017.18)
(-2449.92 -520.465 956.801)
(-89.4117 -18.1107 41.777)
(-673.273 -149.983 276.213)
(-1188.04 -269.526 614.853)
(-0.00428369 -0.000762325 0.00386943)
(-9.11357e-06 -2.13852e-06 1.01264e-05)
(-0.000176745 -4.17369e-05 0.000147438)
(-1.56567e-05 -2.80985e-06 1.70799e-05)
(-0.217042 -0.0697166 0.235561)
(-0.000212037 -5.6731e-05 0.000278329)
(-0.00011218 -1.90078e-05 0.000147786)
(-2866.4 -91.6438 1058.96)
(-285.417 -8.61104 140.276)
(-1189.62 -107.592 479.392)
(-1724.6 -161.224 866.369)
(-1298.54 -38.1883 520.037)
(-1827.23 -60.4074 911.981)
(-2810.84 -253.318 1046.78)
(-902.741 -683.239 349.08)
(-476.366 -383.25 138.427)
(-273.682 -198.991 77.4917)
(-191.881 -149.315 73.5236)
(-92.268 -62.3702 32.3826)
(-26.954 -18.0781 6.05836)
(-8.14751 -4.96994 2.1826)
(-2648.77 -2005.11 742.979)
(-1724.21 -1264.69 129.422)
(-254.941 -188.768 74.0878)
(-2112.4 -1694.36 167.025)
(-1753.75 -1405.95 507.386)
(-1321.73 -970.185 380.235)
(-2829.24 -2150.72 240.376)
(-416.67 -139.451 113.411)
(-49.9615 -17.4901 15.4606)
(-165.2 -53.6405 58.0587)
(-6.33818 -1.76261 1.15126)
(-20.3202 -5.15372 4.10093)
(-6.25477 -1.43026 1.52714)
(-1.80764 -0.45816 0.399923)
(-2644.98 -2419.39 786.272)
(-2286.63 -2004.81 190.078)
(-2307.4 -2209.74 201.19)
(-2031.57 -1944.67 621.64)
(-1981.37 -1735.92 585.552)
(-581.836 -533.627 185.374)
(-898.657 -825.897 69.005)
(-238.616 21.1474 104.596)
(-42.7766 0.676327 18.6504)
(-272.301 5.72668 120.397)
(-11.7648 0.152204 3.55103)
(-1.37262 0.0771773 0.43604)
(-1.62003 0.0161658 0.520354)
(-10.0086 0.642398 2.97411)
(-2085.01 -570.651 841.791)
(-38.2437 -8.61847 16.5477)
(-385.988 -134.387 202.214)
(-147.772 -45.5152 55.6416)
(-1541.69 -519.068 646.704)
(-372.52 -103.702 150.992)
(-780.509 -227.914 409.678)
(-235.997 -22.3207 103.371)
(-42.68 -0.75629 18.6057)
(-272.18 -6.18484 120.289)