# vtk DataFile Version 2.0
sampleSurface
ASCII
DATASET POLYDATA
POINTS 7918 float
1.8 -0.989255 0.125 1.897 -1 0.125 1.87555 -1 0 1.8 -0.991265
0 4.27411 -1 0 4.26312 -1 0.125 4.3 -0.995302 0.125
4.3 -0.996487 0 0.3 1.08274 0 0.293071 1.1 0 0.3
1.1 0.0451845 0.250367 1.4 0 0.251694 1.5 0 0.26335 1.5
0.125 0.262016 1.4 0.125 0.3 1.8 0.107743 0.284492 1.8 0
0.3 1.85306 0 2.7 2.29844 0 2.7 2.29328 0.125 2.68972
2.3 0.125 2.69764 2.3 0 4.6 2.24385 0.125 4.6 2.23325
0 4.7 2.29056 0 4.7 2.3 0.0477417 4.68378 2.3 0.125
2.27134 2.7 0 2.3 2.67764 0 2.3 2.65845 0.125 2.24246
2.7 0.125 2.2 3.00528 0.125 2.29311 3.1 0.125 2.27372 3.1
0 2.2 3.01582 0 3.03041 3 0 3 3.04485 0
3 3.01179 0.125 3.00836 3 0.125 4.23283 3 0 4.3
3.06305 0 4.3 3.06109 0.125 4.23496 3 0.125 3.4983 3.4
0 3.49587 3.4 0.125 3.4636 3.5 0.125 3.47026 3.5 0
3.1 3.8965 0.125 3.09534 3.9 0.125 3.09897 3.9 0 3.1
3.89922 0 1.8185 4.2 0 1.9 4.26772 0 1.9 4.25915
0.125 1.82896 4.2 0.125 2.2 4.24193 0.125 2.2 4.25334 0
2.3 4.2199 0 2.3 4.20129 0.125 1.89595 -0.9 0.5 1.9
-0.9 0.504587 1.9 -0.903452 0.5 2.2 -1 0.529098 2.2 -0.978404
0.625 2.3 -0.991512 0.625 2.3 -1 0.595049 3.8 -1 0.604897
3.8 -0.993433 0.625 3.9 -0.983526 0.625 3.9 -1 0.562136 4.2
-0.947946 0.5 4.2 -0.9 0.563709 4.25807 -0.9 0.5 1.4 -0.6
0.534002 1.4 -0.570537 0.625 1.4708 -0.6 0.625 4.7 -0.6 0.604307
4.68242 -0.6 0.625 4.7 -0.592283 0.625 1.01637 -0.2 0.625 1
-0.2 0.587972 1 -0.175186 0.625 0.609794 0.3 0.5 0.7 0.3
0.621683 0.7 0.2 0.547222 0.663987 0.2 0.5 2.2 0.289982 0.5
2.3 0.226052 0.5 2.3 0.265178 0.625 2.2458 0.3 0.625 2.2
0.3 0.532954 3.84205 0.2 0.5 3.9 0.240393 0.5 3.9 0.265629
0.625 3.80286 0.2 0.625 1.80165 0.7 0.5 1.87965 0.6 0.5
1.9 0.6 0.562129 1.9 0.631688 0.625 1.85259 0.7 0.625 4.3
0.6 0.580082 4.3 0.613526 0.625 4.28768 0.6 0.625 2.6 1.47638
0.5 2.6 1.5 0.538736 2.68964 1.5 0.625 2.7 1.4943 0.625
2.7 1.43702 0.5 3 1.40323 0.5 3 1.41115 0.5625 3.05
1.40627 0.5625 3.05 1.4 0.522565 3.02419 1.4 0.5 2.22661 1.8
0.625 2.2 1.8 0.593996 2.2 1.82824 0.625 1.9 2.2 0.590457
1.85024 2.2 0.625 1.9 2.25495 0.625 2.61003 2.3 0.5 2.7
2.23864 0.5 2.7 2.21003 0.625 2.6 2.27717 0.625 2.6 2.3
0.534481 0.6 2.6 0.608812 0.6 2.7 0.545806 0.621843 2.7 0.625
0.605797 2.6 0.625 3.49786 3 0.5 3.47816 3 0.625 3.46822
3.1 0.625 3.49472 3.1 0.5 3.07257 3.8 0.5 3 3.8
0.592596 3 3.87021 0.5 1.8 -0.57515 1 1.8 -0.5 1.09728
1.84867 -0.5 1.125 1.9 -0.545923 1.125 1.9 -0.598175 1 4.2
-0.6 1.08829 4.2 -0.590418 1.125 4.3 -0.543974 1.125 4.3 -0.595056
1 4.277 -0.6 1 1.42268 -0.2 1.125 1.4 -0.2 1.10158
1.4 -0.18035 1.125 1 0.218945 1 1 0.3 1.09305 1.0159
0.3 1.125 1.1 0.205294 1.125 1.1 0.2 1.12142 1.00635 0.2
1 2.6 0.246529 1 2.7 0.200511 1 2.7 0.279439 1.125
2.64123 0.3 1.125 2.6 0.3 1.09567 3 0.21492 1.125 3
0.2 1.10226 3.1 0.2 1.11543 3.1 0.206284 1.125 3.4 0.230352
1.125 3.4 0.2 1.07654 3.5 0.2 1.0376 3.5 0.25237 1.125
2.2 0.6 1.10851 2.21442 0.6 1.125 2.2 0.614816 1.125 4.2
0.7 1.11535 4.2 0.628747 1 4.26014 0.7 1 1.8 1.09531
1 1.84561 1 1 1.9 1 1.08768 1.9 1.05495 1.125
1.88278 1.1 1.125 1.8 1.1 1.003 0.669521 1.5 1 0.7
1.5 1.04309 0.7 1.4 1.04652 0.667041 1.4 1 1.8 1.4
1.10415 1.81477 1.4 1.125 1.80872 1.5 1.125 1.8 1.5 1.11271
4.24778 1.5 1 4.26066 1.5 1.125 4.3 1.46443 1.125 4.3
1.47361 1 1.8 1.8 1.07247 1.83671 1.8 1.125 1.86216 1.9
1.125 1.8 1.9 1.03479 2.6 1.81058 1 2.6 1.9 1.111
2.61472 1.9 1.125 2.7 1.83598 1.125 2.7 1.8 1.09107 2.6097
1.8 1 1 2.67042 1.125 1 2.7 1.11621 1.00572 2.7
1.125 2.2 2.6 1.03848 2.2607 2.6 1.125 2.3 2.63501 1.125
2.3 2.7 1.02427 2.28354 2.7 1 2.2 2.62323 1 1
3 1.09221 1 3.07313 1 1.1 3.09721 1 1.1 3.00653
1.125 1.09349 3 1.125 3.1 3.4 1.10377 3.09548 3.4 1.125
3 3.49164 1.125 3 3.5 1.08206 3.05134 3.5 1 3.1
3.45835 1 2.6 -0.592849 1.5 2.6 -0.5 1.62337 2.61163 -0.5
1.625 2.7 -0.545076 1.625 2.7 -0.598237 1.5 3 -0.6 1.57358
3 -0.581196 1.625 3.1 -0.582618 1.625 3.1 -0.6 1.57792 3.5
-0.59996 1.5 3.49896 -0.6 1.5 3.4 -0.6 1.54669 3.4 -0.573331
1.625 3.5 -0.558912 1.625 3.8 -0.57065 1.5 3.8 -0.5 1.59221
3.9 -0.5 1.51341 3.9 -0.510324 1.5 1.8 -0.2 1.56564 1.8
-0.157793 1.625 1.9 -0.199582 1.625 1.9 -0.2 1.62443 1.42813 0.2
1.625 1.4 0.2 1.59057 1.4 0.249859 1.625 1.03507 0.7 1.5
1.1 0.7 1.5834 1.1 0.617482 1.5 2.63523 0.7 1.5 2.7
0.664421 1.5 2.7 0.7 1.52197 3 0.6 1.52372 3.1 0.6
1.53023 3.1 0.7 1.59538 3 0.7 1.58625 3.4 0.6 1.51778
3.5 0.6 1.50308 3.5 0.7 1.56118 3.4 0.7 1.57844 1.02305
1 1.625 1 1 1.57339 1 1.1 1.60099 1.01151 1.1
1.625 2.27302 1.1 1.5 2.3 1.0492 1.5 2.3 1.1 1.51752
3.9 1 1.57209 3.9 1.1 1.61167 3.87826 1.1 1.625 3.81034
1 1.625 1.00212 1.4 1.625 1 1.4 1.62088 1 1.5
1.62096 1.00207 1.5 1.625 2.3 1.4 1.57176 2.3 1.5 1.56987
2.2 1.5 1.51327 2.2 1.4 1.51215 3.8 1.41889 1.625 3.81743
1.4 1.625 3.9 1.4 1.56807 3.9 1.5 1.51879 3.8 1.5
1.56981 1.00856 1.8 1.625 1 1.8 1.60707 1 1.9 1.5907
1.01539 1.9 1.625 2.29225 1.9 1.5 2.25308 1.8 1.5 2.3
1.8 1.52167 2.3 1.9 1.50407 1.0421 2.3 1.5 1.1 2.3
1.57463 1.1 2.2 1.61254 1.01365 2.2 1.5 4.2 2.2 1.53711
4.3 2.2 1.51386 4.3 2.21484 1.5 4.2 2.22385 1.5 1.44689
3 1.5 1.5 3.05469 1.5 1.5 3 1.56624 2.2 3.45511
1.625 2.2 3.5 1.51288 2.3 3.5 1.57186 2.3 3.47848 1.625
2.67016 3.5 1.5 2.7 3.49698 1.5 2.7 3.44837 1.625 2.6
3.47606 1.625 2.6 3.5 1.55422 2.6 -0.199966 2 2.6 -0.1
2.1184 2.7 -0.1 2.12457 2.7 -0.2 2.06376 2.60032 -0.2 2
3 -0.2 2.10425 3 -0.168002 2.125 3.1 -0.170866 2.125 3.1
-0.2 2.10588 3.4 -0.2 2.09694 3.4 -0.155138 2.125 3.5 -0.131065
2.125 3.5 -0.2 2.0834 3.8 -0.185304 2 3.8 -0.1 2.10344
3.9 -0.1 2.0648 3.9 -0.153056 2 1.8 0.226278 2 1.8
0.3 2.08446 1.9 0.3 2.12171 1.9 0.2 2.07996 1.82928 0.2
2 4.3 0.2 2.11219 4.25209 0.2 2.125 4.3 0.231267 2.125
1.44707 0.7 2 1.5 0.7 2.06401 1.5 0.634832 2 4.7
0.6 2.08281 4.60498 0.6 2.125 4.68086 0.7 2.125 4.7 0.7
2.11481 1.48228 1 2.125 1.4 1 2.08213 1.4 1.1 2.10225
1.44037 1.1 2.125 1.41319 1.4 2.125 1.4 1.4 2.1166 1.4
1.5 2.11679 1.41284 1.5 2.125 1.42797 1.8 2.125 1.4 1.8
2.10827 1.4 1.9 2.09832 1.44712 1.9 2.125 1.43415 2.3 2
1.5 2.3 2.08018 1.5 2.2 2.1083 1.41 2.2 2 1.8
2.68225 2.125 1.8 2.7 2.11956 1.81102 2.7 2.125 4.3 2.7
2.06737 4.3 2.68862 2.125 4.21545 2.7 2.125 4.6 2.61417 2
4.61703 2.6 2 4.6 2.6 2.01853 2.2 3.0066 2.125 2.2
3.1 2.06752 2.3 3.1 2.10231 2.3 3.06849 2.125 2.6 3.0849
2.125 2.6 3.1 2.11109 2.7 3.1 2.09761 2.7 3.07084 2.125
2.25777 0.7 2.5 2.3 0.7 2.53468 2.3 0.658936 2.5 2.6
0.6 2.59705 2.6 0.7 2.61442 2.7 0.7 2.61928 2.7 0.6
2.60779 3 0.6 2.61803 3 0.688422 2.625 3.1 0.680589 2.625
3.1 0.6 2.61857 3.4 0.6 2.61565 3.4 0.7 2.62373 3.5
0.7 2.62157 3.5 0.6 2.61228 3.8 0.6 2.57053 3.8 0.7
2.60467 3.9 0.7 2.58442 3.9 0.6 2.50808 2.3 1 2.61464
2.2 1 2.59882 2.2 1.1 2.60822 2.3 1.1 2.6191 3.9
1 2.62118 3.82826 1 2.625 3.88918 1.1 2.625 3.9 1.1
2.62432 4.27126 1.1 2.5 4.23411 1 2.5 4.2 1 2.53263
4.2 1.1 2.5675 2.3 1.4 2.62442 2.2 1.4 2.61671 2.2
1.5 2.61714 2.3 1.5 2.62495 4.2 1.4 2.60787 4.2 1.5
2.62038 4.3 1.5 2.60584 4.3 1.4 2.56349 2.23708 1.8 2.625
2.2 1.8 2.61976 2.2 1.9 2.62069 2.22538 1.9 2.625 4.65379
1.9 2.5 4.64661 1.8 2.5 4.6 1.8 2.55231 4.6 1.9
2.5601 2.27151 2.2 2.625 2.2 2.2 2.61461 2.2 2.3 2.60377
2.3 2.3 2.62118 2.3 2.24134 2.625 4.2 2.27134 2.625 4.2
2.3 2.61909 4.3 2.3 2.59801 4.3 2.2 2.62131 4.2765 2.2
2.625 2.6 2.67477 2.5 2.7 2.67664 2.5 2.7 2.6 2.58892
2.6 2.6 2.58491 3 2.67497 2.5 3.1 2.67885 2.5 3.1
2.6 2.59758 3 2.6 2.59238 3.4 2.68042 2.5 3.5 2.67454
2.5 3.5 2.6 2.59245 3.4 2.6 2.59971 2.64027 2.3 0.375
2.7 2.26119 0.375 4.54533 2.2 0.125 4.55489 2.2 0 4.5411
2.3 0.5 4.5 2.22535 0.5 4.5 2.20163 0.375 4.57819 2.3
0.375 0.565204 2.7 0.5 0.518041 2.6 0.5 0.50069 2.6 0.375
0.509091 2.7 0.375 0.6 2.9 0.493025 0.514533 2.9 0.375 0.5098
3 0.375 0.6 3 0.499745 0.601469 2.9 0.5 0.600058 3
0.5 3.07358 2.9 0 3.05512 2.9 0.125 3.49326 2.9 0.5
3.5 3 0.48759 3.5 2.9 0.456283 4.2 2.96016 0.125 4.14381
2.9 0.125 4.14225 2.9 0 4.2 2.96205 0 4.2 2.9
0.481565 4.16669 2.9 0.375 4.2 2.93464 0.375 2.19711 3 0.125
2.19257 3 0 1.47946 3.7 0 1.5 3.76145 0 1.5
3.72354 0.125 1.49163 3.7 0.125 1.8 4.19502 0.125 1.7 4.10125
0.125 1.7 4.12446 0 1.8 4.19662 0 1.8 4.1 0.456701
1.74174 4.1 0.375 1.8 4.1569 0.375 4.51032 2.3 0.625 4.5
2.26316 0.625 0.628898 3 0.625 0.642128 2.9 0.625 0.908831 2.7
1 0.9 2.63726 1 0.9 2.7 0.987627 0.924825 3 1
0.931636 2.9 1 0.9 2.9 0.971382 0.9 3 0.979723 3.4
2.9 0.995545 3.39976 2.9 1 3.39199 3 1 3.39972 3
0.875 3.4 2.99511 0.875 3.4746 2.9 0.625 3.42695 2.9 0.875
1.8 3.7211 1 1.78036 3.7 1 1.7065 3.7 0.875 1.73942
3.8 0.875 1.8 3.8 0.951989 1.9 3.8 0.999789 1.9 3.79982
1 2.1 3.79802 1 2.1 3.8 0.997429 2.2 3.8 0.99419
2.2 3.79651 1 1.8 3.86129 0.875 2.6 2.57209 1.375 2.6
2.5 1.45725 2.7 2.5 1.48234 2.7 2.59243 1.375 3.39301 2.9
1.125 3.38234 3 1.125 3.3 2.93389 1.5 3.3 3 1.3995
3.31394 3 1.375 3.36387 2.9 1.375 3.32843 2.9 1.5 1.4
3.06497 1.375 1.4 3 1.45043 1.33827 3 1.375 1.42097 3.1
1.375 1.5 3.1 1.47088 1.78727 3.4 1.375 1.8 3.4 1.39046
1.8 3.32455 1.5 1.77438 3.3 1.5 1.7 3.3 1.44836 1.7
3.3581 1.375 1.7 3.49396 1 1.70273 3.5 1 1.7081 3.5
1.125 1.7 3.48458 1.125 1.8 3.7 1.02504 1.8 3.41233 1.375
4.1 2.29212 1.5 4.1 2.2 1.60828 4.5 2.19203 0 4.5
2.1931 0.125 2.14387 2.9 0.125 2.14507 2.9 0 2.1 2.6
0.43441 2.1 2.64775 0.375 2.2 2.60179 0.375 2.2 2.6 0.377765
2.6 2.93571 0.5 2.7 2.92813 0.5 2.7 2.98575 0.375 2.63315
3 0.375 2.6 3 0.38397 2.9 2.90363 0.5 2.90457 2.9
0.5 2.9678 2.9 0.375 2.9 2.95247 0.375 3.1 2.74881 0.125
3.1 2.7 0.166795 3.10932 2.7 0.125 3.08993 2.8 0.125 3.1
2.8 0.0399167 3.08379 2.7 0.25 3.06175 2.8 0.25 3.10453 2.8
0 3.12172 2.7 0 3.53051 2.7 0.125 3.50129 2.7 0.25
3.53466 2.8 0.25 3.55353 2.8 0.125 3.55848 2.8 0 3.53789
2.7 0 4.20156 2.9 0.5 4.2664 3 0.375 4.3 3
0.459171 4.3 2.99593 0.5 2.6 1.8 0.992854 2.6 2.15388 0.875
2.7 2.1427 0.875 2.7 2.1 0.976574 2.6 2.1 0.95825 4.4
2.38688 0.625 4.36117 2.4 0.625 4.3 2.4 0.746568 4.3 2.39949
0.75 4.4 2.36526 0.75 4.4 2.4 0.552826 2.1 2.7 0.538201
2.1 2.65602 0.625 2.12901 2.7 0.625 2.2 2.69153 0.875 2.12983
2.6 0.875 2.18024 2.6 1 2.6 2.90301 0.625 2.65333 2.9
[...]
CELL_DATA 7693
FIELD attributes 1
p 1 7693 float
108058 115496 101617 102059 101689 151076 95027.8 119800 94471.5 120810 102029
105987 130714 101700 101914 101313 106532 108337 101333 106415 123350
112661 101421 114946 55811 97022.3 28535.8 51323.5 115701 222302 119308
111506 106952 107601 101344 101650 103879 114171 102511 93436.6 27211.1
40245.6 16351.6 161044 99632.1 101480 28412.2 23990.9 45908.5 128545 127657
86960.3 101363 103334 102511 106912 104269 101404 106633 110495 101354
196244 89620.5 109012 107793 202350 41539.9 126822 108588 57646.7 110509
186401 101517 110223 101310 104767 104632 102541 107306 104694 101437
101748 117081 101335 105546 104970 115146 106949 101499 132351 116962
101321 104482 109616 101485 105502 112824 109119 102382 105769 118439
101637 111452 103069 116061 101474 107434 107287 101626 101544 101555
120655 73930.6 96480.8 102911 101748 133400 101038 122128 102099 101573
129803 102011 102313 101319 106919 101417 102979 119473 105035 118838
109089 102521 101476 108373 119930 101305 119029 112596 102234 101300
101317 101698 101482 121692 101302 101304 83512.1 152454 104024 96235.5
93493.1 125968 148012 67399.2 75255.7 128443 103458 104136 111094 104872
187185 95102.3 59888.4 55769 88975.4 110334 125124 156105 126538 134309
104480 103387 102844 109079 139577 108893 89610.3 61423 102055 101355
103499 101514 106559 149048 103561 101300 103655 101301 101336 101390
121334 103925 101441 102290 101383 119960 35024.7 48568.6 50932.8 56704.3
59984.3 87892.7 170576 104713 52672.9 60436.4 54846.6 60457.1 109390 107289
53736.9 65457.2 57477.5 71097.5 100234 183660 55516.4 85357.3 101855 101522
118127 156239 101830 107217 102299 102156 55195.4 52964 92479.1 78334.3
101158 93140.9 84383.6 109112 115564 125591 99364 82117.1 86107.3 54534.8
125040 49983 112411 89844.2 103079 116586 119519 134468 136617 101433
116850 101947 124823 109805 101633 101546 106236 101504 103224 114176
106244 86487 102541 107375 113707 112416 111735 107879 110187 117351
102206 122642 101798 101980 116404 110712 103377 108357 104775 105617
59499.3 138366 118464 97088.3 65801.2 153494 147870 131438 157440 66132.2
75861 116335 90413 75693.2 131142 102782 102017 101352 101324 104839
101337 101376 103248 103094 101377 105759 101341 140575 136626 114072
116053 102621 102914 105326 103255 102093 101690 102170 106101 114616
126378 102914 101827 105717 102746 121797 101411 196473 78640.3 180072
106673 151908 123419 146116 96115.9 74813 146164 112268 109797 106040
106680 103095 102687 102135 102404 101892 101693 101457 101547 101359
115352 155390 102307 104157 102589 101579 101328 108228 104313 102087
124627 101788 101500 112441 104756 101925 102542 104447 101422 101417
99465.7 52237 61979.6 53200.2 60462.5 97323.5 137742 157303 154133 158326
119080 73326.5 89170.2 64038.4 79008.2 135462 155541 164322 66417.6 126979
140359 119154 101750 102536 136378 101337 101393 101492 101837 207908
103931 102376 132699 161169 104999 126105 136552 102867 171429 149019
120436 114206 103265 159275 124708 119838 105082 112730 91368.5 93444.8
97314.4 95892.4 95924.1 87874.1 67931.3 78897.6 96789.5 93037.5 82527.8 87032
46896.8 53712.2 67434 59632 107666 117342 56379.2 46013.8 144090 172123
160645 193031 38907.3 121575 103241 77893.6 75503.8 87806 76865.2 80579.6
100462 101020 73183.6 133783 79438.2 133403 136068 101562 101718 113925
106649 124696 40978.9 144300 102355 92597.1 167136 45473.9 158121 111033
118689 173745 52796.9 73588 178698 78097.3 134962 126460 54573.3 89761.6
83257 65348.2 99202.8 112177 74256.2 132088 47456.9 58132.8 48924.9 110040
117288 60972.7 106736 165861 99403.7 126995 133629 105882 109184 120644
111390 104350 105142 106901 105367 103256 77487.4 83720.9 149972 103318
114322 129528 107484 114140 93293.9 111881 103028 111839 142545 98382.7
106523 95129 118314 88303.2 153439 96849.4 165450 127374 125490 123898
102453 101534 148610 124793 18553.4 20903.4 37960 51746.3 146009 97571.8
109505 101748 122183 101334 99347.4 166827 63013.2 129401 99967.4 79073.2
87475.1 100747 72274.2 116447 59267.4 118677 114017 104940 108601 101459
116972 101661 120745 107634 64249.9 159685 76752.6 191660 92579.1 140939
155872 184289 89763.4 46874.7 99900.8 47745.9 118727 130392 57757.5 53692.6
119555 74304.1 76439.7 129026 105231 102500 107044 105333 137359 101464
101746 102895 102116 87201.4 102294 152703 29212.3 169447 73155.6 52668.7
113874 101310 104521 101704 101305 101396 137118 101347 130959 101970
103766 101352 101581 102388 109080 130047 113167 101610 106225 102531
101365 104358 112418 106911 102025 107407 108901 107586 102470 101781
101455 88543.5 85113.8 131202 85258.8 93655 91941 99785.2 88501.7 118172
101263 145377 142176 147999 119235 105309 110087 107941 106540 103616
113595 102812 125764 105009 102318 106809 101998 106363 101797 103920
105343 149422 85126.6 181555 126836 120596 106759 104641 104353 103186
102976 103473 102609 101821 52508.8 53341.2 108191 44833.5 46077.8 117041
107647 112064 104163 104104 117839 106870 101814 101624 101550 101371
171877 145578 159254 127840 155632 130963 159537 137251 134918 83946.1
105281 77340.5 64790.3 112758 89534.6 110037 107707 136447 133654 131564
138885 118947 118373 86462.1 103921 132657 151289 135278 129741 117885
122270 96276.2 110401 96875.5 140233 86259.1 128465 118028 103597 115269
120991 101871 109610 116042 106570 101501 102416 104292 132431 101950
103103 112573 157309 69891.8 104552 108112 125383 89578.4 155314 116116
127615 131826 89325.7 74843.3 115826 118348 129742 101336 102659 101331
102298 102455 101334 125104 136124 147369 133675 120565 170646 108982
163812 101760 101492 103207 101564 105840 128548 114949 102032 101599
104377 102595 148346 101397 102207 101325 104834 101405 104994 101334
94533 111099 101305 101485 101309 101358 102220 62719.4 89686.1 96247.9
102185 116167 161857 76111 203148 44898.8 62343.6 75116.9 89632.1 39235.8
154878 159258 155358 122936 82748.8 209840 119386 77710.2 57974.9 262822
149113 126397 187720 30233.3 51190 40145.4 160157 64713.9 205015 56933.9
76007.7 50983.5 210192 71961.5 174817 201757 131414 90612 106000 102325
120689 125697 81102.6 126374 120656 123282 128010 100403 132540 124843
124871 81362.3 101665 124663 77977 123975 80947.5 139032 127977 75300.1
125212 72596.4 49318.7 51395.4 29994 23865.2 151251 136493 124876 178497
49058 85258.2 57565.2 161260 100307 197074 126709 80605.9 70551.1 209816
114473 89742.7 106916 112477 137143 145825 121252 113144 111779 121891
120554 109500 111986 117752 113491 109438 104266 118514 119018 73835.6
125748 114450 105799 30083.4 108662 74985.7 155917 85252.6 196690 20139.8
36321.3 96792.1 94521.5 27289.7 38359.2 128580 26816.1 232397 218770 80393.9
32618.3 32991.3 101817 100099 90902.7 92799.5 238628 218326 231860 141146
108296 108180 104990 99243 113666 98997.3 100531 91136.3 90254.2 173276
209060 154849 128225 64075.6 124680 68719.8 139472 188572 183662 55496.5
118039 111786 106365 92937.6 98513.8 98861.2 99303.2 95754 91545.7 89444.8
61324.9 31585.5 223101 172403 179195 42144.1 123681 75049.9 173994 165033
221922 57192.6 79134.6 58910 213956 83919.9 127302 147914 44333.2 71052.1
87053.2 36101.4 107528 97326.8 96505.5 90394.3 21792.6 184854 168110 52612.9
108737 99060.2 59582.1 111431 43581.6 48035 17683.4 162297 196360 174554
79496.1 104463 128517 83927.2 53012.2 39315 102433 87533.4 93149.9 96356.3
84657.1 82130.2 79984 86746.2 95950.2 91980.5 88476 85955.9 98536.5 138112
85027.9 36129.1 34003.8 84757.9 79507.9 79935.6 84206.5 114144 182064 61367.3
121075 118513 59582.3 232669 67518.5 100417 62008.8 246445 90523.2 139394
89257.9 45887.1 100077 111050 64852.6 84346.2 176807 162776 81976.4 86176.3
84908.4 81220.2 87785.9 91819.7 86778.1 83838.1 87821.5 92280.9 86735.8 83342.9
186978 200954 23448.9 25605.3 72856.7 118683 129374 66187.8 83353.9 88821.1
84988.2 80609.4 42864.2 24416.1 33374.4 209760 39233.5 108154 30537.8 78119.5
26640.2 163214 32209.8 65086.6 94102.6 23778.9 96441.8 62651.3 97101.7 108597
114267 107103 40800 45720.3 147060 125588 132167 45225.6 45763.5 224468
155611 33829.7 61391.5 69467.8 78610.7 83034.4 81280.1 77269.1 83607.3 87630.4
83093.1 80291.3 82793.5 91273.9 87073 78658.9 146505 140098 138567 32856.1
79155.5 64391 78435.1 76387.5 74533.3 76525.6 83873.6 80926.5 80520 78309.4
93708.4 173801 137309 83049.6 78250.9 79908.2 80851.6 82225.6 76489.6 79680.7
78457.3 143875 146488 75946.4 76234.7 74420.3 50321.4 126517 89443.3 89796.4
121311 203699 182039 138623 165842 139327 92327.7 123473 115308 243137
220871 75852.2 23909.6 112129 85016.4 126638 32615.4 28324.1 192801 117393
64113.2 119105 60211.3 82779.6 93839.9 85123.4 78926.9 52193.1 129807 104743
64638.5 156821 41474.8 87350.3 20021.5 73018.2 79802.9 154376 140673 88825.2
145376 146242 142556 141962 78574.5 78248.5 76825.7 76611.9 95535.4 91730.1
113321 121346 126902 160399 58476.4 55793.3 51590.8 65109.4 146477 146203
79130.5 77025 76192.2 74486.9 52217.2 155812 148866 131032 36295.5 120053
66564.2 54380 31077.5 79994.5 77619.5 136487 215198 79190.5 74002.3 75612.9
76990.8 141221 143521 139519 140734 72373 60544.2 124482 126274 97057.9
126958 120438 105643 117093 94612.4 105854 118061 127585 141367 144196
144784 146901 131463 135960 144385 83647.5 75067.6 81249.7 76505.3 78581.1
76400.6 74771.5 74897.5 77558.4 75869.7 73587.3 144058 142288 141080 139549
75421.2 74647 37433.6 43588.2 48245.8 44290.7 118764 30243.3 168904 100457
146857 157453 46321.3 44800.4 107602 110347 100830 123659 51474.4 98744.7
118499 134105 149407 96076.8 47708.9 86522.4 76422.7 77507.6 75952.9 74891
73874.9 75325.3 73179.4 72074.4 117917 167534 183266 99817.7 48735.4 33023.5
44145.5 55802 33709.8 28273.3 68688.4 135864 110033 68702.9 57666.3 129509
147712 147197 146568 146416 202856 50198 122688 54809.3 131779 54440.6
144188 146863 148675 66108.7 16080.2 105201 113850 118404 93647.9 99463.8
102351 66365.7 92805.8 77176.7 76787.5 74196.6 122068 113864 80141.5 80390.5
74122.6 80462.5 71919.2 76184.5 74626.2 71180.4 125160 133423 78595.4 141388
138893 136690 143672 16239.5 67292.9 30891.3 45834.7 49278.1 33576.5 60644
78956.6 139929 134383 135303 139113 22424.2 91035.6 93963.6 43698.6 79373.6
119792 45281 54205 31182.5 135094 53227.7 95317.2 153786 45662.5 112257
107267 123840 109240 104460 130748 95660 101139 115477 99041.2 108418
139546 144439 144703 139606 74474.2 74215.8 142754 144845 144693 142327
73993.4 49508.8 138262 142160 138390 135069 50533.6 59825.8 32257.1 146308
66615.2 137890 140115 137590 135430 74747.8 175493 79822.8 101804 35418.1
41879.6 68155.1 144468 114672 135644 127900 133828 116705 49367.9 128915
148603 101382 37651.6 38024.5 114876 57842.3 57839.8 42578.6 72805.5 120793
43530.5 31417.7 63004.9 88417.3 132104 118325 111139 120074 109794 132002
147144 117718 93237.9 123728 125659 105206 97765.4 105266 100636 91663.8
190365 81396 97330 154853 130926 135680 135932 132244 128243 74407.5
178174 81257 184770 146321 75172.7 73565.1 73611.3 71926.4 72761.2 71707.3
71088.4 145252 148510 149047 35107.3 143766 57392.4 27048.4 169727 79747.4
136375 50438.7 177208 101976 211204 100964 121439 111927 85419.8 99699.7
74265.8 71459 72963.3 72325.6 80395 78927.3 142901 144999 110838 164613
95095.2 52123.7 146085 147322 144613 149183 147438 145655 144451 74556.1
132963 137909 136191 130939 128997 143981 145129 126939 92602.7 85869.1
229444 163373 58688.6 160542 38980.2 36512.5 28836.3 38526.3 37600.2 144355
137722 138952 143517 144716 140462 144194 141670 111526 72413.6 231335
59731 223219 40398.5 140797 91356.7 203872 182588 33270.7 72714 53783
61893.8 25443 22801.9 33957.3 65513.3 73439.9 42804.2 38512.9 45720.3 40710.3
57196.6 55071.9 39419.5 43413.7 60878.9 103324 78714.3 203360 235081 124164
117931 120118 127418 103374 110032 118544 148920 204866 117565 118950
93193.3 166380 28074.4 18604.3 43096.4 140429 29460.9 100358 95073.6 101430
128433 124796 105681 195433 134415 136674 188948 26039.2 141387 142047
167365 95771.7 70638.8 73408.7 71825.4 135597 132690 132991 129195 155028
137749 49811.2 35133.9 44560.3 61340.3 104128 129100 112753 111647 92593.6
104450 108222 89119.8 172161 71099.5 156495 44677 97163.9 246612 156450
120419 133981 126101 128518 131120 134300 129892 132602 131850 130052
184154 30444.6 143015 145491 142444 139520 142579 144984 142409 140203
132820 130912 132395 134205 129156 129811 131766 132154 74446.7 52467.2
76131.9 51277.5 138275 140535 138473 137050 148156 144071 81669.4 73534.2
76083.8 83227.4 83286.5 99167.4 29794.2 143471 127394 128143 129238 123664
123025 202576 48210.9 173250 54490.3 106768 75924.9 76925.8 98227 117119
95694.8 110576 99343.4 202731 140973 155611 191020 210558 169774 147588
26533.3 94955.2 85071.4 217476 150755 127100 63189 36474 111715 90583.9
56398.9 52202.1 77364.9 136070 142160 140126 134154 71981.8 138611 143210
141512 136129 70836.5 75355.6 58709.4 77577.8 53286 133460 133717 135427
136838 54918.9 77693 80124 59993.3 137437 136915 136692 136822 71164
71260.3 38717.1 38990.4 56928 56967.9 153442 55335.1 129244 211272 38378.5
176463 20749.3 152001 57452.9 192648 59103.2 156886 201722 70963.7 108418
79145.4 68274.6 53156.9 103488 100126 99614.7 104427 118394 105283 103558
114278 143637 124467 122177 145954 129187 54797.9 66654.5 57316.3 107329
43935.1 24157.6 48763.1 41765.7 61311 72056.7 60756.7 57599.7 96144.5 100717
65909.3 60089.8 99335.7 107383 56806.8 55259.2 76725.2 79058.5 81635.4 33653.5
91891.9 127260 140788 40771.8 46813.5 61649 73847.5 105556 112941 98590.5
106472 102000 231511 214463 59574.7 82067.5 120469 39538.6 164543 141606
63062 86322.1 71250.3 141750 157499 73369.8 79721.6 65700.2 72734.1 79838.3
204102 84495.8 155412 132326 75593.8 89976.4 78733.9 73176.4 57146.6 86883.1
33440.3 24905.3 29264.7 114944 133635 117644 137902 22644.9 23057.4 43956.7
135224 136172 137416 138414 21443.2 69802.4 59210.6 82044.7 97133 25327.4
101180 62334.8 136890 60121 99846.7 129215 83961.6 31415.1 70184.3 86916.3
113682 134856 61912 72088.4 87308.3 103773 128319 127530 133026 135223
60589.9 52039.5 211534 37229.3 201758 133008 133415 117271 48044.9 39315.2
64950.6 13301.6 116745 148122 162825 179030 21694.4 38041.8 26407.8 28174.7
43203 49949.2 67107.7 52055 59498.8 113172 80258.9 85813 34971.2 28685.2
133632 133624 138485 141049 72568.4 60942 76583.9 49172.7 126038 130043
125452 125927 70428.2 81447.6 88956.8 93610.8 32984 63608.1 93816.1 91854.6
130327 75955.5 34310.7 92814.5 121442 144095 21250.7 14701.5 62495.2 34925.8
132984 125499 127466 124770 128938 125359 127922 123150 127327 114396
129164 27981.3 26508.8 100810 26862 99425.5 186792 129786 126491 248501
228215 105172 95886.4 92319.8 76938.4 92583.6 58525.6 55872.2 61148.9 115096
154268 148160 120816 16548.1 28608.6 61880.2 22366 72046.2 89874.8 22918
137143 108668 24760.5 140830 176650 131920 159664 61300.2 36275.9 138224
36474.8 138299 72117.1 83526 89590.3 89658.7 70203.2 67640.5 43975.7 150073
113212 165382 208215 69838.9 45935.6 150799 115125 167954 209577 66650
37343.6 140440 135984 136794 133988 137090 135298 133410 134102 138937
135136 135755 134293 191692 96838.5 134609 96256.4 82370.8 82297.4 79517.6
154355 237203 15768.4 238728 124185 168931 175826 196077 52668.7 113403
56844.5 202180 186256 106102 93854.1 94014 116126 118585 96515.3 49736.1
88308.7 59197.6 61850.4 48316.2 216209 118771 162179 151818 128918 52099.4
33008.4 44636.2 169370 135448 156754 192285 160358 165659 43691 26151.7
120497 27374.8 115960 28867.5 27258.4 113779 103454 31521.2 66068.1 37834
162158 43730.4 146080 44727.1 96710.2 163951 97301.7 162888 46976.3 102804
185332 116614 171258 60578.4 75268.6 41774.4 109915 30247.7 39897.1 129908
81834.1 147492 40628.4 51549.3 168546 123673 118186 121463 132820 98906.4
132030 18891.2 46408.9 31447.9 127050 91649 133747 181997 26437.7 33732.7
88105 60448.6 99429 144530 129767 127847 139814 22801.3 38860 18343.6
33850.3 29641.3 35863 43589.6 91203.3 126615 130355 174671 65178.7 154785
25590.5 50861.8 124819 201645 79842.2 93151.9 137827 95657.7 122114 107961
81104.1 213048 32309.9 94370.1 35490.5 43897.5 129174 128094 116190 129640
25904.8 91354 87331.4 22648.4 72401.3 23217.9 24615.5 17955.2 39336.7 61789.6
183060 69213.8 113844 117203 123807 107616 86759.5 91230.8 109490 103529
103351 97134.2 116496 124579 146837 114987 84326 103811 143579 129454
115822 152794 80290.8 86408.3 120714 81471.3 163089 68283.7 93724.2 105375
171729 70699.8 81622.7 164344 49078.7 42895.5 19126.7 24602.5 42957.4 29788.9
74972.9 38057.6 68138.9 65626.8 24156.5 19787.6 66503.4 23196.6 20119.9 27076.9
22376.9 99752.4 90203 24783.7 45050.1 26939.6 126437 29588.1 118265 40201.1
102382 25883 33630.3 122977 68647.2 132439 31799.8 41940.1 154632 89639.9
126913 67880.5 71724.7 89153.4 83900.1 39883.9 48141 116161 185470 119429
181547 68160 78392.9 25834.3 27090.7 54681.2 56124.7 131668 67988.8 188642
206888 29899.8 81620.8 28935.2 33275.1 113671 63707.5 27786.4 176288 105978
125760 201553 135892 34326.9 195069 58937.1 86354.5 239170 71848.9 49962.4
134267 136312 134655 135345 140825 23424.8 27522.4 43267.9 96206.3 32564.3
26536.5 52618.3 107925 187157 76907.2 130142 36453.5 46229.8 170682 155241
70306.6 138289 44052.4 67498 177816 195312 85576.6 40831.1 38775.2 156095
161649 29266.2 80066.8 56720.9 165764 133875 206234 110823 215221 127643
59685.8 52824.4 125679 80717.5 66393.2 141770 101275 115380 90556.9 120976
84243.3 99138.1 89608 100128 87726.9 186817 19836.4 35857.3 68139.9 24834.8
95620.7 33732.5 112111 68754.9 22393.7 179118 145601 171313 79323 44419.4
71328 91547.2 97049.8 90074.9 97934.2 95690.5 121173 105454 105372 29856.2
133879 65057.1 31449.9 21622.7 46967.6 18580.2 166920 47282.1 93099.8 24255.1
50080.7 19309.5 172793 52574.6 96070.2 26242.6 133651 60188.6 33025.3 88123.9
44474.1 40441.8 159317 168843 31960.4 51033.7 122482 208618 141056 188358
77205 70348.9 126027 95896.3 47730.8 47733.5 121838 61590.1 175840 200905
29652.9 71395.5 36023 200287 131352 154039 80744.3 50551.3 73127.9 103516
206959 135800 137530 77020.5 143284 36174.6 50502.8 173007 116667 60778.9
58922.7 146128 188846 33476.4 104632 52167.4 217692 144793 187892 73571.4
47444.5 161794 119694 178531 229230 68515.5 50491.1 72032 87908.6 83833
99561.3 143051 25693.9 24899.6 38937.1 37197.9 72227 134078 48583.1 31871.8
20476.6 182914 82759.8 51363.5 27840.3 38889 166910 45637.3 70987.6 143478
144372 155105 59580.7 119512 30749.5 44868.1 153289 23566.9 61643.8 59063.4
214826 94738 163398 52329.2 132154 67028.2 186730 215861 107822 107822
111196 107493 93372 113075 92968.3 115242 110682 119862 133998 77326.5
109859 89670.2 81124.9 110409 91606.3 108873 143511 110680 141265 101342
90588.3 93557.7 113300 173866 154378 38377.9 107627 22730.1 73394.9 111185
203522 66284.8 90732 40007.2 161479 216340 127269 29535.3 178582 52563.6
71841.8 223949 74187.8 65798.8 79656 125950 100467 124748 188267 108381
109899 199627 163359 126406 136365 138631 58079.9 21466.7 50549.6 209013
156717 82294.6 151994 121849 85666.7 126554 159974 91217.6 146136 106292
111934 149718 94262.2 89130 85370.9 101254 84481.4 82066.1 111470 129099
144283 128923 88115.6 109584 63236.6 56324.8 118784 64910.4 146765 99377.3
74875.7 51893.3 81528.3 60321.3 117277 82884.7 66191.2 73212.8 148545 276658
81339.4 48244.4 47849.5 53020.6 58845.8 163017 63817.7 74141.5 60493.3 76129.7
140387 164436 87378.3 69589.3 51304.2 45766.8 50696.7 79487.7 65789 170579
109268 112062 167515 120257 148903 152101 114682 122414 169229 31617.1
94908.2 61123.6 241696 96417.4 191319 126255 140678 136750 129640 143449
147877 124655 78759.6 98398.8 50367.2 191634 151210 169890 55855.4 140871
76277.2 191812 43062.2 113987 66007.6 175214 63447.5 211177 164132 39854.6
139197 107692 146986 122432 142625 133875 139006 140754 134224 138650
80351.6 93199.9 147903 184348 62206.3 69427.6 124912 140032 210047 216314
135743 22757 15640.3 20273.7 55905.5 66029.8 79833.2 164559 109417 100897
119650 106970 122059 205084 151796 104119 117160 100490 95310.5 107466
95963.6 81446.3 140794 120661 106386 117431 89266.9 96943.3 133717 56016.7