/*--------------------------------*- C++ -*----------------------------------*\
  =========                 |
  \\      /  F ield         | OpenFOAM: The Open Source CFD Toolbox
   \\    /   O peration     | Website:  https://openfoam.org
    \\  /    A nd           | Version:  9
     \\/     M anipulation  |
\*---------------------------------------------------------------------------*/
FoamFile
{
    format      ascii;
    class       volScalarField;
    location    "0.00295";
    object      overpressureMax;
}
// * * * * * * * * * * * * * * * * * * * * * * * * * * * * * * * * * * * * * //

dimensions      [1 -1 -2 0 0 0 0];

internalField   nonuniform List<scalar> 
22329
(
193049
187820
6671.55
169325
2.28601
9.97007
0.0670693
0.05321
206835
258029
191938
185482
5.80091
2.8785
0.592386
0.369826
268768
196487
254066
198672
258102
209009
273659
199569
203546
266371
190854
244940
195348
252119
248708
195072
252445
184438
182527
240824
237651
240030
192006
244815
181058
234288
170085
232245
270890
264084
266032
244650
246422
242097
240462
272514
268697
267559
248687
247748
243311
244231
263730
261854
259379
242586
240299
238569
236457
260951
253971
256749
235272
237844
234161
231718
257063
263509
262429
238833
235058
234236
239695
259174
255757
261017
237703
231805
233196
236199
257098
249912
254801
230187
234459
232485
228361
273861
263409
380103
278554
386800
257490
253807
348016
340424
271631
360425
371278
252001
253996
336854
336142
389268
376304
374002
345971
344072
333894
335639
383787
367647
371165
338634
341661
331660
328797
375934
363639
335287
359125
331523
325623
321982
366095
348553
354081
322962
327434
318008
313624
362524
346058
360421
323189
313622
312067
324885
277310
309397
307894
299635
271625
301075
270475
354373
343585
357757
321112
307681
310136
318474
303519
275795
305973
297880
267322
295631
269097
350593
332764
346258
304818
315452
312009
301535
300820
269148
297755
265251
293050
290146
262891
323043
341474
328151
308149
293737
297836
303901
266380
290826
294444
286942
257389
283408
260256
291140
264653
256504
283567
282305
292445
263568
289517
260662
255332
278847
280811
287407
262303
258722
276624
285010
282235
249892
273989
256510
247529
249619
252293
230330
224109
226314
228018
251224
275767
267730
271028
244806
247481
279168
224222
208111
225731
221793
203329
220420
204486
193787
58844.5
13477.2
182420
70766.9
18535.5
184247
226803
209632
227573
222782
205900
223503
205299
251478
246631
245721
230276
229478
224612
225355
243166
250278
244631
227251
228521
223735
222573
189041
24565.1
42482.7
176407
4143.67
10860.6
181441
205300
220445
222448
201944
218811
216970
200358
239548
246893
241497
225743
224030
221194
219581
218788
198112
215444
202270
214772
219490
201682
201618
215996
218267
214961
196689
212840
198593
217878
199907
212797
197429
213933
216629
200939
242528
237398
235008
219985
222092
217774
215778
528495
404186
648414
428956
440323
627260
386893
377470
512213
423744
576407
617232
372988
355995
504467
473496
643071
608314
569281
603410
565221
535783
539710
635909
552239
589027
596850
559371
530286
523518
605218
544031
579740
568851
534700
515902
507140
591496
512069
542606
556534
523940
497151
486003
568383
524591
563928
505216
477810
474321
509028
433577
486179
491964
470307
412826
464766
417275
500305
437397
496669
474788
423670
478172
420883
519113
550553
557865
500119
463969
469690
493986
479722
417921
472258
407802
458518
451403
402104
541987
495416
532050
457443
486923
478739
449976
454607
411422
463912
443388
388828
434563
395836
507933
484988
520704
469595
431821
441319
459187
451479
430198
405767
384445
427350
454524
403157
447278
395573
381320
418732
423540
442009
399774
390792
413369
436226
429542
367950
407191
385394
1.21784e+06
1.30099e+06
1.06911e+06
1.05232e+06
946118
976725
803064
784600
1.28788e+06
1.25947e+06
1.24837e+06
1.13133e+06
1.11789e+06
1.0863e+06
1.09694e+06
1.25865e+06
1.18925e+06
1.22324e+06
1.05983e+06
1.09394e+06
1.06675e+06
1.03861e+06
1.11475e+06
991273
1.19784e+06
1.10563e+06
1.18726e+06
1.04421e+06
983291
1.14094e+06
1.09037e+06
1.16845e+06
1.02757e+06
951957
1.00479e+06
970244
964958
843808
834961
824251
951043
942053
816202
920802
804196
821393
925631
787466
803989
904189
921165
773778
877337
912446
767107
795813
869921
756745
858162
743051
769371
841980
879662
898547
733779
646474
581366
735653
923778
710811
984720
562356
717945
863454
698268
864106
553212
516060
691097
628296
1.02117e+06
917630
1.01386e+06
910136
916406
831577
838236
1.00142e+06
891391
884617
899189
905690
821965
809689
961156
931418
872015
838816
848362
793412
772674
821770
727092
814721
752830
685921
679827
759445
828675
729487
821803
754058
682673
676871
760100
898625
792036
778444
809314
821217
748970
723136
721036
800424
812281
745417
660084
734756
669188
804672
706191
791378
744144
661560
671702
732828
784953
682956
765150
648894
721156
704232
635310
773667
672230
751402
648596
718414
700774
633212
719153
665392
743127
684969
602475
663576
619836
699820
651120
726653
680172
595466
615207
657281
689911
634503
631407
576718
629041
626148
695666
682007
570324
610663
612762
621709
672092
619199
600424
601925
660023
645253
542446
589165
588247
628416
558744
529989
557238
573948
609295
574381
422110
372633
362304
392454
400229
413731
379308
3.05046e+06
1.36084e+06
1.37221e+06
1.23382e+06
1.31371e+06
1.2223e+06
1.22135e+06
832154
1.03523e+06
1.57895e+06
3.2745e+06
1.56018e+06
2.11455e+06
1.51036e+06
2.53633e+06
1.52955e+06
1.32105e+06
1.37697e+06
1.31797e+06
1.19487e+06
1.30258e+06
1.30081e+06
1.19946e+06
1.57051e+06
1.99624e+06
2.00779e+06
1.54833e+06
1.97211e+06
1.55325e+06
1.97106e+06
1.37422e+06
1.27343e+06
1.30218e+06
1.18195e+06
1.2772e+06
1.29359e+06
1.15852e+06
1.31422e+06
1.3016e+06
1.30566e+06
1.15879e+06
1.15173e+06
1.16732e+06
1.13778e+06
2.02185e+06
1.57668e+06
2.01864e+06
1.55306e+06
1.55438e+06
1.96226e+06
1.94856e+06
3.22892e+06
2.47266e+06
2.46239e+06
2.88047e+06
2.32327e+06
2.31003e+06
2.84281e+06
2.41198e+06
3.15494e+06
2.44064e+06
2.28565e+06
2.70127e+06
2.25404e+06
2.78521e+06
1.24766e+06
1.27461e+06
1.2838e+06
1.13768e+06
1.0801e+06
1.10638e+06
1.11406e+06
1.09547e+06
1.24194e+06
1.22041e+06
1.01672e+06
1.01143e+06
1.23815e+06
1.10391e+06
1.54403e+06
1.52419e+06
1.81019e+06
1.90131e+06
1.54286e+06
1.89519e+06
1.80178e+06
1.08101e+06
1.22614e+06
1.21857e+06
996642
1.00308e+06
1.23279e+06
1.06111e+06
919857
872796
1.00276e+06
1.02316e+06
862880
910973
989584
1.53745e+06
1.51586e+06
1.53861e+06
1.88043e+06
1.76707e+06
1.78399e+06
1.86528e+06
2.23139e+06
2.0232e+06
2.16879e+06
2.15293e+06
2.2041e+06
2.00725e+06
2.50627e+06
2.13271e+06
2.39464e+06
1.96358e+06
2.16644e+06
1.98777e+06
2.10911e+06
2.45813e+06
1.00506e+06
943195
887799
849358
900607
982162
969482
2.55571e+06
1.32174e+06
1.66723e+06
2.93707e+06
1.57577e+06
1.82388e+06
1.48926e+06
2.05214e+06
1.50596e+06
1.33322e+06
1.02215e+06
1.18072e+06
1.2989e+06
1.23177e+06
759249
952005
2.01793e+06
1.58222e+06
2.01702e+06
1.55047e+06
1.93464e+06
1.92612e+06
1.56245e+06
1.23212e+06
1.30413e+06
1.1857e+06
1.25274e+06
1.12491e+06
1.09026e+06
1.24433e+06
2.38025e+06
2.82064e+06
2.35082e+06
2.60579e+06
2.22139e+06
2.19545e+06
2.50058e+06
1.19687e+06
1.12374e+06
1.13956e+06
1.03642e+06
1.06393e+06
1.01759e+06
990023
2.29816e+06
2.69612e+06
2.32812e+06
2.16669e+06
2.26431e+06
2.12364e+06
2.38646e+06
1.29601e+06
1.13355e+06
1.15409e+06
1.06719e+06
1.30941e+06
1.0673e+06
1.26478e+06
2.02805e+06
1.61698e+06
2.02366e+06
1.91899e+06
1.62357e+06
1.90435e+06
1.59293e+06
2.31212e+06
1.93088e+06
2.08313e+06
2.04818e+06
1.98088e+06
1.88376e+06
2.21962e+06
1.5376e+06
1.74552e+06
1.84823e+06
1.82963e+06
1.50301e+06
1.71909e+06
1.54459e+06
1.04987e+06
1.07075e+06
1.08836e+06
979779
907609
956990
945980
1.22409e+06
993608
1.03769e+06
1.02106e+06
1.2503e+06
1.00203e+06
1.23886e+06
872724
911669
810845
923434
788976
857921
877881
2.00182e+06
2.0227e+06
1.7682e+06
1.90219e+06
1.83025e+06
1.93985e+06
2.11873e+06
1.80633e+06
1.56431e+06
1.64934e+06
1.49949e+06
1.68695e+06
1.77627e+06
1.55539e+06
1.02217e+06
1.30979e+06
1.27484e+06
1.05883e+06
1.02492e+06
1.04813e+06
1.26856e+06
903351
819036
858663
770416
850976
891324
845235
926363
1.0127e+06
1.16727e+06
1.04034e+06
820190
781950
725245
653559
1.11545e+06
1.14565e+06
1.01934e+06
1.09823e+06
976367
1.00295e+06
962766
1.06409e+06
1.00048e+06
1.05074e+06
888369
931434
919998
876796
1.10509e+06
1.00622e+06
1.06372e+06
926870
974358
937878
895417
890222
757249
856050
765950
875873
842804
740740
972790
967194
1.01921e+06
897987
824867
857155
860985
787710
732641
710736
807654
686919
714016
772680
749471
820360
854414
824019
703640
725575
793992
790388
733721
671761
679396
699312
756874
764416
198653
211450
215157
213471
194001
209879
197185
239976
234155
234964
219755
215523
214875
220447
232020
238983
233242
218962
213168
214143
217906
211606
193795
206241
192497
208138
209598
195554
228862
236106
230584
211993
216639
215140
210582
179297
9244.37
181042
153053
718.106
499.106
144510
194541
211323
210693
206513
191423
207123
190914
208864
193913
209920
205805
189545
204853
190332
229961
224759
226911
213421
207403
209015
211525
9609
5364.9
178083
387.615
138138
16767
120.978
207624
190772
206170
188586
203705
202358
187441
194316
190847
190341
181150
180679
176766
177334
202734
189363
204526
200824
184815
199130
186139
193032
188680
189660
178872
179983
175893
174510
202346
187818
183978
198821
198241
202926
187307
201702
186054
183438
196844
197626
200844
186766
190598
187476
186076
177307
175176
172531
169776
187326
182819
184511
168371
172301
166033
160877
185208
195897
199788
198542
178766
194848
184257
185522
183222
186402
170257
159472
162026
168416
183790
187509
187022
171411
164529
163615
172123
197108
180485
175321
192127
193627
195646
182957
184438
180279
183160
155727
165778
162102
150418
180172
178799
181732
156951
133034
143061
149712
180595
176917
176270
152818
151539
132518
134301
180074
173807
175316
145421
149173
129038
123490
176219
171579
168352
140041
132494
115609
105149
173444
156654
163578
107825
121793
91559.8
74969.3
635.738
7.06594
2.9025
2.32276
1244.23
814.907
1723.07
151883
68663.9
150619
138190
51254.9
139679
49314.8
144709
64680.4
148305
135397
40503.3
130964
45653.1
168608
151603
167665
103144
67701
65292.6
105457
331893
176769
119588
1.50066
0.0198493
255010
183548
1.92977
0.0633748
347452
248842
260193
248210
317498
298029
231677
244617
190541
197435
183059
189075
236792
242176
354278
342582
318043
335991
312688
308817
303620
339943
321078
328808
300400
306813
297977
291826
330306
311471
323999
289218
299289
294235
284424
186157
227970
234455
161903
227455
213701
104144
286921
256713
282645
254254
279593
275430
250869
251822
251047
247903
232608
229824
229171
226488
309954
305086
317071
288787
273736
279406
283150
252949
272857
277952
270899
243388
266028
247229
248358
240847
244527
223720
226879
223628
220567
272000
264095
241935
267947
238979
260333
244909
246768
239184
243700
221737
225559
222969
219221
407922
452538
387420
559779
349040
460563
414967
324618
541607
498955
527023
509891
484587
473786
460221
469037
500885
521786
472116
491605
445517
429862
433123
396157
444381
381098
424812
414117
372725
493757
446464
478091
421251
447723
435070
409713
1.66867e+06
868909
737974
1.98109e+06
2.4061e+06
1.7091e+06
1.74449e+06
1.56009e+06
1.50103e+06
1.35702e+06
1.4881e+06
1.37497e+06
975456
1.09063e+06
801767
1.27119e+06
810555
808119
883419
959609
758778
626879
680657
546404
2.24938e+06
2.2579e+06
2.15857e+06
2.14477e+06
2.05225e+06
1.96971e+06
2.03022e+06
2.01135e+06
1.72562e+06
1.97095e+06
1.64028e+06
1.87376e+06
1.82699e+06
1.63712e+06
1.13076e+06
1.43281e+06
1.15026e+06
1.36452e+06
1.09237e+06
1.13823e+06
1.41164e+06
1.02063e+06
931553
1.00115e+06
875168
944562
941466
849798
1.93821e+06
2.11692e+06
2.05396e+06
1.87801e+06
1.80543e+06
1.7759e+06
1.91885e+06
1.92811e+06
1.70299e+06
1.87217e+06
1.79575e+06
1.66575e+06
1.63008e+06
1.83548e+06
948003
906069
846938
892664
833370
808410
789418
1.82528e+06
1.71081e+06
1.90736e+06
1.76375e+06
1.56549e+06
1.69229e+06
1.60983e+06
1.7366e+06
1.60725e+06
1.47018e+06
1.68829e+06
1.44147e+06
1.56043e+06
1.54066e+06
1.23259e+06
1.47593e+06
1.19097e+06
1.18633e+06
1.42559e+06
1.43438e+06
1.22287e+06
1.34926e+06
1.09747e+06
1.31368e+06
1.13738e+06
1.31274e+06
1.37161e+06
1.132e+06
996300
894809
989806
957678
826998
990003
834623
1.7105e+06
1.64607e+06
1.58472e+06
1.46862e+06
1.55206e+06
1.6169e+06
1.74179e+06
894315
754668
884301
916631
760698
921644
793728
924135
837370
872293
787427
815804
773029
748392
854459
780855
836434
746705
774455
746893
708045
692494
661293
737786
681095
733754
704902
639754
1.63167e+06
1.46061e+06
1.40314e+06
1.43853e+06
1.5035e+06
1.56469e+06
1.50651e+06
1.17605e+06
1.34952e+06
1.29782e+06
1.15032e+06
1.37076e+06
1.15107e+06
1.19531e+06
953758
808304
781106
986203
958927
992005
793569
763425
788632
818428
729924
665713
686675
707687
701801
644402
722678
688170
599326
617523
668719
704813
676100
714928
675662
610193
622300
651438
654394
601015
572449
570592
592008
621721
635063
551976
700287
625395
826557
500352
603932
578099
446180
786706
760908
746085
727473
711521
695319
665352
744590
654319
691798
636910
675134
633843
600614
693033
602439
665096
583237
640274
614823
562171
671568
578229
641438
573902
632717
605954
550952
603930
635238
577818
587943
515825
559599
539563
525443
610135
551745
578286
502403
526927
549694
541431
538714
588418
565666
483427
518812
522282
541705
480606
465293
475665
497608
516679
501950
367655
377919
420957
402610
353891
390281
363596
443279
461263
431210
421402
383647
397122
406772
365344
383804
404599
394522
341559
374423
357364
383702
339592
333400
353320
364170
371958
348733
263649
237929
235605
251650
256303
259211
241535
232471
240396
235977
220177
213603
216517
217194
16603
3525.12
175505
144460
469.2
172688
2684.18
213619
195210
211146
194691
210592
208227
192600
237346
232444
217705
229639
215271
213602
211257
205877
192919
208580
205762
188145
203152
190416
191913
204200
207462
205194
187184
202032
189924
231331
223657
226635
209970
212645
208923
206382
222542
220085
224822
205530
209511
207469
203256
202811
185783
185339
197354
199718
200282
187839
219022
217112
222166
205062
197581
200594
202207
982.352
56348
6027.65
5750.88
39.2596
1488.6
9.60998
200778
184539
198689
183215
197299
195508
179966
181537
181027
178968
162990
155326
153584
143224
182015
194394
196593
193443
164440
190980
174191
176325
190329
194053
192115
149527
188134
169655
179323
169516
175448
128279
144231
128566
107802
178077
166908
174573
118815
139711
125538
100409
189834
142303
130890
175710
183798
186615
158880
159863
158013
168898
106176
52443.6
77538.9
81630.1
36.9633
1.10824
24231.5
1.59849
21.6836
0.896186
18.1169
0.458215
44.2491
3.11337
46.0715
0.234071
27.6211
53695.7
36029.2
45378.9
36.6008
58.8898
65315.1
61.5746
55733.2
67860.6
47.5507
56833.5
63.4085
68777.4
23.1202
10.5898
46685.5
30837
14094
15.1474
23226.5
18.5007
38.3165
48501.5
39.5494
49624.6
18.1739
25002.1
29009.5
36915.8
28.7066
8.14662
999.422
10.2599
1274.32
6.18828
3.21281
24519.7
10849
3728.33
5.44085
6908.39
4.13771
2328.78
4421.2
366.25
1.90458
2.16374
998.07
51301.7
139682
132859
34363
124476
115677
27666.6
163479
148865
166067
98573.5
53561.6
60555.9
91504.6
33379.4
90350.4
14578.9
111024
123388
104465
20796.6
146693
90086.4
163096
153886
132236
68999
37803
159598
128828
153994
44699.3
81853.1
69735.1
35054.6
120934
17582.8
32947.3
100046
97840.5
122844
31499
1539.53
231.008
1.74859
1.82842
47.454
3.88042
0.710449
73464.3
9614.9
95645.7
10469.9
76957.9
54916.1
6014.71
117267
25037.7
87063.8
15822.8
93563.1
111657
28801
40765.8
99525.2
134978
116067
146102
55675
25483.4
20532.2
78309.9
103928
93719
8293.89
67440.1
15867.8
140263
84519
111457
27480.1
46696.2
22430.1
11514.3
41282.2
66020.9
7994.83
80948.4
6014.95
54837.1
11575.3
10142.3
27276.7
55791.3
78856.6
118987
98087.7
16103.2
48951.8
59279.4
54330.1
5888.33
5782.79
5149.25
6620.22
60128.7
63192.6
58096.2
7620.57
6448.81
6763.3
7259.53
61524.2
57870.7
63721.1
7290.97
6037.79
6930.5
6351.92
70107.8
65612.5
67846.1
8019.65
8434.22
8016.93
7620.97
58330.9
62561.1
64157
7384.81
6223.58
6436.77
7133.22
70487.9
66587.5
68251.5
8228.21
8531.23
8114.97
7831.92
2.17462
605.232
844.082
59.9193
41.2435
0.792581
0.934757
8760.72
71887.1
69630.5
40914.3
4331.17
42762
4108.1
42852.9
40424.8
47887.1
5022.61
3596.76
4394.62
4112.15
53387.1
43631.6
51463.5
5495.6
4711.01
4497.54
5758.95
50533
40354.6
42176.7
5050.03
5312.41
4269.38
4057.01
51015.5
41414.4
42632
5211.57
5386.35
4330.31
4191.61
58791.3
7860.45
65257.3
37401.3
3113.69
32512.2
3683.56
42301.7
38835.1
35071.6
4846.74
4318.11
3471.25
3898.64
0.388844
71.1044
1.12939
1.96073
481.872
31.649
0.567517
50425.4
4089.81
40782.2
2476.22
26672.5
20362.4
1847.55
6240.98
36282.3
56371.6
36620.7
1953.75
21631.7
3566.71
32154.1
25504.6
33679.4
3289.31
2291.45
3122.75
2417.02
36860.5
25129.8
30401.1
3008.95
3684.72
2955.43
2402.64
25846.9
33060.9
34081.1
3337.53
2371.8
3229.53
2453.3
32736.7
22027.7
25177
2815.29
3227.03
2414.6
2097.78
28693.3
35436.3
27457.6
3702.34
3533.27
2780.93
2650.91
28760.4
49710.5
5248.46
33977
1609.25
17956.6
3260.8
30925.9
20611.1
27750.2
2664.98
2199.12
3000.55
1947.03
19320
17449.9
23756.8
2259.34
1325.48
1827.51
1644.72
1339
13524.3
14217
20873.5
19879.9
1981.75
1886.73
19644.8
18350.4
14578.3
2344.46
1861.81
1738.76
1375.02
852.068
1975.6
21757.9
2940.83
31049.6
14466.9
1293.78
3071.13
17696.8
34174.3
45475.2
72413.8
8617.79
4341.83
1156.45
10625.2
12276.9
15714.7
18090.7
1714.46
1485.15
14962.1
7967.58
11033.1
1018.53
1409.92
1037
745.148
644.501
822.622
8770.55
13019.4
10284
1226.82
966.429
19381.2
1859.82
8079.74
678.587
7631.42
20487
1758.39
17293.2
1304.33
601.477
5667.17
6782.65
14511
1563.14
856.552
8708.64
9156.6
5602.87
5331.13
516.869
491.418
20769.2
992.301
5416.51
898.232
10176.5
11237.8
1872.25
738.157
6825.03
7897.68
4170.41
4833.47
443.889
380.18
5197.54
479.63
337.962
5585.86
7753.11
724.897
516.809
1022.51
4459.16
11438.2
8485.46
281.823
3300.41
754.154
3.76361
0.257621
0.143345
43.039
0.59666
1.60937
0.319419
526.739
1237.89
13906.8
728.153
8263.03
3578.63
304.002
404.007
520.053
5624.25
3421.06
2658.97
308.354
236.818
258735
272590
267604
206448
257972
214439
268129
206672
218902
283193
210875
266671
201270
260017
205795
217538
281286
269175
248116
192864
219502
208239
199335
257303
282821
253100
277703
284266
279112
259215
254281
284457
278155
279299
258252
259366
254432
253442
278744
276378
274067
256550
254230
251903
249838
275816
268503
271446
248527
251518
247447
244764
243822
248414
272658
268861
274009
249524
244856
269087
273160
274214
249688
244221
248801
245044
265733
265367
262151
245397
242240
241930
239012
271558
264742
269445
243020
247427
245585
241348
264348
262532
267046
243449
237211
241032
239426
262259
255467
258878
235874
239062
236031
233002
261456
254409
258427
234800
238422
235702
232237
232220
218796
236826
219707
237925
233210
215286
219787
237048
238036
233342
214621
232472
215382
215633
235518
233410
213436
231155
229306
211784
251930
251350
255273
232873
226708
229549
229955
228193
213374
230940
227128
207619
224692
209828
223628
210347
227854
228771
207150
211115
224497
228914
207267
223954
210558
228131
211219
224641
222930
209537
226984
225354
204531
208101
221491
225319
222406
205558
205258
222116
219454
202812
223441
204423
217821
203021
221268
206381
219781
202849
200142
216584
216736
197786
200315
213973
202295
215659
218906
216440
197272
200053
213380
378353
424858
430519
361563
415524
335252
312129
416853
296362
437749
312639
301158
413937
294605
286963
402103
435011
310484
415226
409371
285909
297504
273226
283865
397206
436512
438831
432940
387781
389814
384148
381911
439298
431783
433424
388607
390179
384557
382947
432064
428879
425682
386113
383119
380324
377288
375999
428757
418172
422197
379758
373978
370232
378507
281582
269043
254270
266044
342290
358347
368342
423446
418269
426117
377716
375471
370603
418848
424819
426667
378169
369419
376510
371079
421919
410390
418565
366953
374014
370981
363878
420355
371789
413504
408399
367282
366113
361707
406558
410638
414855
367628
356760
363891
360567
402569
395480
402448
356801
362402
356793
351148
346779
313802
348672
343074
306802
341202
308415
314035
347454
348945
343405
307348
341896
308640
405877
391791
400567
352648
359766
355346
348214
345048
307724
342163
305331
339649
336820
302771
335219
304621
338829
333639
296654
330178
299872
387331
385503
394421
350391
337516
343212
344709
328903
295682
301330
337149
297220
302925
330772
337470
297497
329765
301967
336058
303177
331159
331323
293752
327242
293245
326477
322547
289698
387432
394696
385804
350436
344709
343228
337516
327680
300063
333867
331150
292369
297674
325047
328166
291980
289819
318855
324794
294995
322143
318280
289892
322937
318352
282090
286027
313688
370365
370339
379228
331110
338224
331127
324107
368769
375992
365421
326944
335396
329737
321409
288758
315299
321186
317336
280602
285362
311546
313173
302791
277885
277076
281779
307406
308553
313090
277777
308511
276825
307245
302679
273093
352203
350666
360844
323457
308660
315309
316594
297682
273642
303368
297646
264457
292044
268972
271601
294050
300890
296373
262479
289641
267945
625294
426419
665518
514181
627871
541470
584737
510357
728798
743012
635667
726372
710628
623155
611732
674167
599819
694293
613605
712617
693458
599168
682367
706263
689716
590519
608192
596334
578325
549292
472561
478709
470461
539325
531125
464219
647634
549528
567997
652132
671746
582880
564698
781660
472383
733072
653286
561278
735534
474001
786497
497096
766089
729044
697776
470559
522074
555680
494293
774838
768333
662102
761787
657974
651576
646889
770733
663423
783799
786478
774067
665857
656574
787665
773422
775244
665566
666809
657534
655644
755282
740820
752847
644634
652176
640844
632950
626889
642075
754671
737621
758706
645895
631355
738868
757265
759850
646803
629054
644308
632360
751433
721403
744061
623772
639423
633787
617597
569000
489084
495634
498018
571736
564312
491608
498557
570972
572484
565095
490543
563256
492259
711056
721598
734299
627117
601348
618633
610205
567709
491424
564578
487514
559823
556146
484130
483720
487832
560657
551655
475943
546317
480303
541640
552717
481508
556051
475606
484494
545268
556834
476298
543455
483168
554688
485145
546087
539329
479805
550776
546405
466428
476067
534291
535291
467018
456504
541320
461902
471833
528763
521993
532422
465403
457063
448000
521375
456740
527786
461244
450431
518874
443510
454484
505018
483066
497411
437709
508900
435539
446739
494719
470019
605848
568531
497691
440836
529148
479844
591366
652638
584149
673254
648884
628461
565930
550192
532890
551360
630305
582031
606088
533082
514602
621510
572199
601336
523163
545480
530028
508147
509651
447210
437907
436061
495562
483473
426685
556456
579822
551390
513006
474334
491641
495020
484442
416352
427628
470225
405238
455885
416446
462801
423773
410426
467862
401367
451092
414516
424759
380879
393376
391483
404315
438462
454893
722739
877405
1.1893e+06
781116
649346
766392
667413
867157
1.12516e+06
1.04361e+06
1.0975e+06
1.04018e+06
992623
973884
927550
1.31467e+06
1.3276e+06
1.2877e+06
1.58409e+06
1.62089e+06
1.30007e+06
1.14455e+06
1.4454e+06
1.77634e+06
2.34808e+06
1.72613e+06
1.31442e+06
1.22685e+06
998338
813633
1.50935e+06
1.08398e+06
1.12042e+06
2.18435e+06
2.16625e+06
2.10096e+06
2.03507e+06
1.97271e+06
1.94787e+06
1.85078e+06
1.56615e+06
1.50962e+06
1.34024e+06
1.48446e+06
1.32066e+06
1.29085e+06
1.2722e+06
1.06597e+06
1.33009e+06
1.58938e+06
814922
975781
987589
1.02174e+06
791993
752813
1.0414e+06
1.27854e+06
1.47274e+06
1.0417e+06
811038
1.97186e+06
1.71219e+06
1.87322e+06
1.61119e+06
1.77807e+06
1.71342e+06
1.56967e+06
1.97331e+06
1.64906e+06
1.86086e+06
1.5924e+06
1.79404e+06
1.70226e+06
1.52823e+06
1.8546e+06
1.56e+06
1.76258e+06
1.52262e+06
1.72907e+06
1.663e+06
1.4792e+06
1.54023e+06
1.42087e+06
1.45496e+06
1.26828e+06
1.29511e+06
1.24616e+06
1.21678e+06
1.41695e+06
1.29106e+06
1.39269e+06
1.15294e+06
1.22753e+06
1.20947e+06
1.13615e+06
1.10483e+06
934096
923025
914376
1.09072e+06
1.07609e+06
904216
1.54448e+06
1.45076e+06
1.40841e+06
1.38036e+06
1.42247e+06
1.29709e+06
1.27866e+06
1.45773e+06
1.45945e+06
1.62184e+06
1.54814e+06
1.27626e+06
1.40113e+06
1.39306e+06
1.41365e+06
1.45239e+06
1.59305e+06
1.54721e+06
1.28156e+06
1.42359e+06
1.38428e+06
1.59437e+06
1.5537e+06
1.72952e+06
1.5949e+06
1.35079e+06
1.47643e+06
1.44525e+06
1.24081e+06
1.42575e+06
1.38401e+06
1.33805e+06
1.20838e+06
1.18534e+06
1.15109e+06
1.26144e+06
1.32593e+06
1.36139e+06
1.18334e+06
1.08125e+06
1.15312e+06
1.11123e+06
1.06236e+06
908222
892489
1.05565e+06
874159
1.03274e+06
890666
2.59892e+06
2.42967e+06
1.69664e+06
2.49224e+06
1.77604e+06
2.45773e+06
1.78645e+06
1.90738e+06
2.46815e+06
2.64096e+06
2.6388e+06
2.19871e+06
2.29937e+06
2.32082e+06
2.23295e+06
2.78404e+06
2.80167e+06
2.79706e+06
2.79386e+06
2.43185e+06
2.4386e+06
2.4618e+06
2.34691e+06
2.44314e+06
2.5606e+06
2.26964e+06
2.11924e+06
2.16791e+06
2.19988e+06
1.77086e+06
1.81485e+06
1.80142e+06
1.97493e+06
2.035e+06
2.04237e+06
1.99236e+06
2.55841e+06
2.71118e+06
2.73479e+06
2.37014e+06
2.30047e+06
2.2511e+06
2.4094e+06
2.16537e+06
1.87203e+06
1.84135e+06
1.87062e+06
2.12862e+06
2.11252e+06
2.14979e+06
1.74275e+06
1.7565e+06
1.68963e+06
2.00405e+06
1.9018e+06
1.92269e+06
1.96489e+06
1.81423e+06
1.72982e+06
1.70825e+06
2.0611e+06
2.00606e+06
1.96759e+06
2.09963e+06
5.79387e+06
2.68977e+06
5.62343e+06
2.52428e+06
2.49307e+06
4.4849e+06
1.71554e+06
4.43213e+06
1.72111e+06
2.40911e+06
2.72202e+06
2.40158e+06
1.74646e+06
1.91489e+06
1.76049e+06
1.92835e+06
2.52359e+06
2.36496e+06
2.40322e+06
2.24933e+06
2.09057e+06
2.11528e+06
2.24619e+06
2.50788e+06
2.37162e+06
2.32593e+06
2.25194e+06
2.08049e+06
2.11178e+06
2.2378e+06
2.549e+06
2.52333e+06
2.35657e+06
2.24564e+06
2.11304e+06
2.14468e+06
2.2221e+06
2.44731e+06
2.56504e+06
2.579e+06
2.2634e+06
2.14243e+06
2.16715e+06
2.25095e+06
2.97727e+06
5.66723e+06
2.92832e+06
2.78321e+06
5.38881e+06
2.82844e+06
5.332e+06
2.68852e+06
2.69229e+06
2.68288e+06
2.39353e+06
2.41381e+06
2.43189e+06
2.36852e+06
2.92594e+06
5.70207e+06
2.98715e+06
2.76896e+06
5.30119e+06
5.29042e+06
2.8263e+06
2.71056e+06
2.71499e+06
2.70134e+06
2.40743e+06
2.43376e+06
2.43935e+06
2.39961e+06
2.06937e+06
1.87744e+06
1.97289e+06
1.72178e+06
1.89325e+06
2.07102e+06
1.95911e+06
2.05242e+06
1.88032e+06
1.71266e+06
1.97256e+06
1.88351e+06
2.06971e+06
1.94353e+06
2.00428e+06
1.91553e+06
1.79608e+06
1.75768e+06
1.93175e+06
1.9865e+06
1.80847e+06
2.0127e+06
1.93833e+06
1.7613e+06
1.80818e+06
1.94098e+06
2.00667e+06
1.81244e+06
2.70189e+06
4.87806e+06
4.47747e+06
2.70998e+06
4.90052e+06
2.75296e+06
2.67854e+06
2.12364e+06
2.15224e+06
1.86752e+06
1.93675e+06
2.177e+06
2.10022e+06
1.88495e+06
2.13223e+06
2.17127e+06
1.94042e+06
1.88223e+06
2.18413e+06
2.12289e+06
1.88968e+06
2.71629e+06
4.94614e+06
2.70645e+06
4.50784e+06
2.75462e+06
4.9339e+06
2.68639e+06
2.28766e+06
3.55883e+06
2.22481e+06
4.02051e+06
2.43957e+06
2.08081e+06
5.8323e+06
4.24754e+06
2.42e+06
2.60848e+06
2.62833e+06
2.14165e+06
2.31695e+06
2.37811e+06
2.17029e+06
6.00311e+06
3.16356e+06
3.34041e+06
5.325e+06
2.9609e+06
3.13894e+06
5.37461e+06
2.59255e+06
2.38222e+06
2.6026e+06
2.42095e+06
2.10958e+06
2.44594e+06
2.14629e+06
2.02559e+06
1.75525e+06
1.7974e+06
1.91765e+06
2.12872e+06
2.20347e+06
1.94963e+06
5.92469e+06
6.05519e+06
3.47678e+06
3.28263e+06
5.2452e+06
3.36234e+06
5.37007e+06
2.8141e+06
4.35052e+06
2.75733e+06
4.83184e+06
2.84715e+06
2.96988e+06
4.78577e+06
1.84106e+06
2.15145e+06
1.82898e+06
2.26742e+06
1.9756e+06
2.31921e+06
1.96352e+06
2.90434e+06
4.14303e+06
2.86736e+06
3.07456e+06
4.60181e+06
3.13751e+06
4.7206e+06
1.47976e+06
1.32405e+06
1.84933e+06
1.87667e+06
2.35098e+06
1.37119e+06
1.78267e+06
2.50301e+06
1.78072e+06
2.61955e+06
2.3843e+06
2.6488e+06
2.40587e+06
2.35696e+06
2.18261e+06
2.17083e+06
859843
938239
1.3441e+06
1.59851e+06
1.32974e+06
862900
941622
2.60659e+06
2.30635e+06
2.37936e+06
2.22913e+06
2.31926e+06
2.13921e+06
2.07129e+06
2.11955e+06
1.83581e+06
2.11759e+06
1.73981e+06
1.96932e+06
1.94759e+06
1.71614e+06
2.10773e+06
1.8393e+06
2.08505e+06
1.77953e+06
1.97521e+06
1.94812e+06
1.74133e+06
1.7071e+06
1.96163e+06
2.0434e+06
1.90547e+06
1.62844e+06
1.84298e+06
1.69136e+06
2.0536e+06
1.81574e+06
2.1007e+06
1.91591e+06
1.64303e+06
1.8631e+06
1.68303e+06
1.51725e+06
1.58701e+06
1.59502e+06
1.34936e+06
1.52603e+06
1.30497e+06
1.29732e+06
1.59523e+06
1.52443e+06
1.35091e+06
1.35238e+06
1.52917e+06
1.30779e+06
1.30281e+06
1.6152e+06
1.63661e+06
1.80487e+06
1.77146e+06
1.45001e+06
1.58487e+06
1.59998e+06
1.72971e+06
1.41145e+06
1.50947e+06
1.50618e+06
1.67995e+06
1.54777e+06
1.55866e+06
1.42593e+06
1.33279e+06
1.43584e+06
1.24156e+06
1.15974e+06
1.16813e+06
1.2342e+06
1.12534e+06
941504
1.12993e+06
1.10036e+06
917684
921690
1.09534e+06
1.33542e+06
1.43238e+06
1.43869e+06
1.24415e+06
1.16451e+06
1.23943e+06
1.17044e+06
1.12972e+06
942990
1.13226e+06
1.10246e+06
921002
1.09988e+06
923219
1.65373e+06
1.5008e+06
1.86254e+06
1.7488e+06
1.90152e+06
2.34604e+06
1.88872e+06
2.5607e+06
2.57696e+06
2.37e+06
2.57353e+06
2.37278e+06
2.35589e+06
2.20114e+06
2.1902e+06
2.56959e+06
2.35915e+06
2.37063e+06
2.33343e+06
2.35262e+06
2.19865e+06
2.1799e+06
2.12684e+06
1.85951e+06
2.12298e+06
1.99416e+06
1.75755e+06
1.98472e+06
1.7651e+06
1.85069e+06
1.97573e+06
2.11337e+06
1.85922e+06
2.12418e+06
1.99142e+06
1.76197e+06
2.12279e+06
1.91345e+06
2.13572e+06
2.01174e+06
1.80683e+06
2.00008e+06
1.81899e+06
1.79743e+06
1.98939e+06
2.1089e+06
1.90968e+06
2.13194e+06
2.00865e+06
1.81605e+06
1.49356e+06
1.62809e+06
1.82002e+06
1.83688e+06
1.50663e+06
1.64165e+06
1.67084e+06
1.83973e+06
1.50945e+06
1.63514e+06
1.66134e+06
1.8286e+06
1.64454e+06
1.67363e+06
1.06033e+06
1.00347e+06
892744
864880
896594
1.00982e+06
1.0542e+06
1.06229e+06
866312
1.00743e+06
895632
1.05852e+06
898109
1.01167e+06
2.87689e+06
1.50266e+06
3.14517e+06