/*--------------------------------*- C++ -*----------------------------------*\
  =========                 |
  \\      /  F ield         | OpenFOAM: The Open Source CFD Toolbox
   \\    /   O peration     | Website:  https://openfoam.org
    \\  /    A nd           | Version:  9
     \\/     M anipulation  |
\*---------------------------------------------------------------------------*/
FoamFile
{
    format      ascii;
    class       volScalarField;
    location    "0.00285";
    object      alpha.c4;
}
// * * * * * * * * * * * * * * * * * * * * * * * * * * * * * * * * * * * * * //

dimensions      [0 0 0 0 0 0 0];

internalField   nonuniform List<scalar> 
23750
(
0.00595752
0.00704935
0.0073724
0.00499664
0.00700485
0.00382196
0.00238335
0.00465456
0.00262289
0.000189082
8.77318e-05
1.0541e-05
0.16538
0.104529
0.111397
0.0786446
0.0972704
0.0765302
0.0637272
0.0503407
0.0637034
0.00623182
0.0158156
0.00267001
0.00151652
0.00171634
0.150492
0.174471
0.169092
0.13518
0.183846
0.145471
0.136624
0.131496
0.115706
0.116059
0.107875
0.12656
0.117496
0.122948
0.116552
0.109435
0.102376
0.0913569
0.11905
0.104366
0.098302
0.114639
0.0850138
0.0895494
0.0892124
0.0983747
0.0943336
0.111159
0.0857839
0.0747364
0.080991
0.0443265
0.102861
0.0515397
0.0668263
0.0569501
0.0212474
0.00725092
0.0200142
0.0243266
0.0446594
0.0247245
0.00435138
0.00111888
0.00134742
0.00241009
0.00202405
0.00563933
0.000635731
0.0068091
0.00125306
0.00155608
0.129519
0.0644971
0.0491108
0.0363185
0.0237657
0.0108018
0.0194955
0.00485496
0.00250732
0.000328437
0.090628
0.127293
0.0995297
0.0700168
0.100517
0.0855356
0.0493262
0.0762708
0.0518317
0.0809246
0.0283889
0.0188136
0.0317651
0.0440549
0.013093
0.0191443
0.0159979
0.0227587
0.0212676
0.011234
0.0100907
0.00890153
0.00647331
0.00523563
0.0282213
0.0175787
0.0092661
0.00428709
0.0283023
0.00214136
0.00059209
0.00174319
0.000721764
0.000204908
0.0418191
0.0682742
0.0363696
0.0632832
0.0669042
0.0356869
0.0427453
0.0146994
0.0378153
0.019625
0.024609
0.0222858
0.0254006
0.0131956
0.00470888
0.0109382
0.00549378
0.00925047
0.00579788
0.00932036
0.00451335
0.00108765
0.00483116
0.00188289
0.00312307
0.00192455
0.00307361
0.00107635
0.00348893
0.00103956
0.00168633
0.000796714
0.000384529
0.000686215
4.00845e-05
0.000446616
0.000236265
0.112279
0.108756
0.0929427
0.08894
0.106765
0.0911903
0.114334
0.104396
0.0828698
0.0838973
0.0714623
0.0994365
0.0848467
0.0876919
0.038402
0.058789
0.051745
0.0272145
0.0619848
0.0329812
0.031358
0.0440249
0.0620247
0.0527512
0.0349561
0.0647253
0.0417903
0.0356055
0.0313029
0.0242768
0.0228933
0.0193534
0.0291166
0.024853
0.0250635
0.0100017
0.0171501
0.0133381
0.0068732
0.0175703
0.00916238
0.00736388
0.020122
0.0199496
0.0164629
0.0142543
0.0219946
0.0183356
0.0146009
0.0185463
0.0128103
0.0157891
0.0113436
0.0171131
0.0130358
0.016824
0.0037789
0.007902
0.00648373
0.00277617
0.00793796
0.00365209
0.00285755
0.0139242
0.0241216
0.0171464
0.0260142
0.0158383
0.022408
0.0149234
0.0112253
0.0137155
0.0132194
0.0114404
0.01124
0.022621
0.0161854
0.00840167
0.0198069
0.0118394
0.008251
0.00861254
0.00561897
0.0085796
0.00584125
0.0114908
0.0139745
0.00925303
0.00680857
0.0145654
0.0113877
0.00668466
0.00780156
0.00420812
0.00504658
0.001919
0.00824108
0.00399704
0.00428928
0.000498238
0.0016308
0.0006638
0.000208874
0.00157402
0.00050534
0.000195383
0.00308622
0.00120398
0.000754341
0.00336086
0.000914177
0.00190149
0.00164278
6.054e-05
4.66288e-06
4.51174e-05
0.0003314
1.73226e-05
3.97026e-05
9.2603e-07
0.00189824
0.00102747
0.00263805
0.000798173
0.000513566
0.0012155
0.000284565
8.47168e-12
0.000853803
9.58564e-06
0.265328
0.206042
0.154964
0.0855033
0.0830192
0.0798615
0.0588251
0.0389771
0.0766772
0.0422377
0.0224707
0.00285449
0.0223663
0.024665
0.00496826
0.00382508
0.284295
0.311372
0.261858
0.261503
0.307147
0.258193
0.288121
0.269281
0.244472
0.24986
0.209333
0.289775
0.242784
0.235402
0.150574
0.194811
0.165076
0.114262
0.188836
0.15025
0.128701
0.130512
0.0934553
0.120454
0.10126
0.12823
0.109296
0.122949
0.119801
0.118472
0.0978166
0.0821926
0.120474
0.118617
0.0957099
0.1194
0.081452
0.119065
0.0901502
0.119304
0.0935162
0.117923
0.1036
0.116509
0.0843794
0.0705722
0.113913
0.109149
0.0741382
0.0824396
0.0596531
0.0669768
0.0356094
0.0937788
0.0579412
0.0497155
0.091731
0.117122
0.0459566
0.0555576
0.0953335
0.110676
0.0440651
0.0840982
0.0494989
0.0744622
0.0346997
0.0976611
0.0407147
0.0688499
0.00632951
0.0345403
0.0144856
0.00868357
0.0188947
0.0137111
0.00437769
0.043824
0.0245915
0.0120357
0.0449269
0.0199203
0.0224464
0.0133921
0.00347495
0.000104945
0.000110649
0.000945225
0.00354666
0.00246868
0.00198999
0.00416838
6.72551e-06
0.00197203
1.51875e-06
0.000331003
2.11164e-08
3.91904e-05
1.22858e-09
0.000330058
2.79388e-07
3.1998e-14
1.25075e-13
0.00969811
0.0173449
0.00707513
0.0155773
0.00160984
8.37716e-05
0.00113797
7.10543e-05
0.00479303
0.00747666
0.00132387
0.00160391
0.000735811
2.87434e-05
0.000969491
0.00191567
0.000332581
0.000816315
0.000184974
0.00016905
9.03948e-06
1.26381e-05
0.000329939
3.5073e-06
6.46189e-05
4.04459e-06
0.00724199
0.000187862
0.000952417
0.00299708
0.00654303
0.000163722
0.000852259
0.00309975
7.12307e-05
0.000386172
0.000479646
0.00061109
7.97475e-05
0.000108204
0.000240287
2.60111e-05
5.02801e-06
8.47284e-05
6.71525e-05
5.80255e-06
4.27818e-07
5.99505e-06
4.78042e-07
9.95668e-09
9.05518e-07
1.24187e-07
1.59103e-08
1.45439e-11
1.24476e-05
3.16857e-06
4.2437e-07
5.94721e-06
8.81043e-08
0.023339
0.0192248
0.0121529
0.0095723
0.0189011
0.0119465
0.023837
0.0213183
0.00882875
0.0141477
0.0086194
0.0174303
0.0109199
0.0170377
0.000265384
0.000421563
0.000931359
0.00159033
0.000414294
0.00091878
0.000270709
0.000237798
0.00145625
0.000285963
0.000641308
0.000374661
0.000834532
0.000178422
0.00742293
0.0098767
0.00573827
0.00298563
0.0116788
0.00640149
0.00351016
0.00487295
0.00191664
0.00309011
0.00149912
0.00428552
0.00221242
0.0034444
5.87836e-05
0.000178489
0.000404501
0.000430672
0.000108785
9.92903e-05
0.000228981
0.00200607
0.0023684
0.00107962
0.00072053
0.00259453
0.00185892
0.000792826
0.00151801
0.00051483
0.00101128
0.000359518
0.00142655
0.000561247
0.00106563
0.0003343
0.000625809
0.000196968
8.44195e-05
0.000653081
0.000325703
8.81122e-05
0.000138528
2.97899e-05
5.16805e-05
8.4681e-06
0.000138452
3.03002e-05
4.86292e-05
0.000101738
0.000394862
9.42882e-05
0.000263834
0.000115952
0.00033711
7.6641e-05
2.55153e-05
2.23063e-05
4.83552e-06
2.75625e-06
2.85861e-05
1.80766e-05
4.31913e-06
0.00580591
0.00176182
0.0041269
0.00573569
0.00174578
0.0024141
0.00243325
0.00266378
0.000793525
0.00118261
0.00157475
0.000457702
0.000620336
0.00108404
0.000420098
0.000103905
0.000228333
0.000285324
6.48159e-05
8.45385e-05
0.000136766
4.81999e-05
5.76009e-06
1.37562e-05
1.65404e-05
1.48048e-06
1.90948e-06
7.7461e-06
0.000261539
9.27597e-05
0.000171319
7.31575e-05
4.80176e-05
2.52272e-05
9.28505e-05
1.69165e-09
6.88532e-10
6.5012e-13
4.43516e-09
3.77008e-11
8.09265e-12
3.28179e-13
4.83921e-06
1.04503e-07
1.15942e-07
1.3712e-11
0.00379596
0.00409871
0.00123942
0.00524592
0.00159615
0.00220424
0.00170393
0.0007281
0.000618274
0.000164299
0.000954455
0.000267526
0.000359306
0.00021843
0.000148373
0.0001033
1.67638e-05
0.000182161
3.67066e-05
4.81889e-05
2.25005e-05
3.72628e-06
9.04145e-07
5.67536e-08
4.25198e-06
2.96674e-07
3.4592e-07
5.50281e-08
2.1117e-05
2.24394e-06
1.38523e-06
1.59758e-05
1.03265e-05
4.90112e-06
5.69186e-07
7.41224e-05
3.54262e-08
6.59553e-08
5.14373e-06
6.25489e-05
2.39558e-08
4.2988e-08
2.28535e-05
5.34841e-09
8.35019e-09
2.12587e-07
3.33036e-07
5.72105e-10
6.90347e-10
2.28975e-08
4.53362e-11
3.78914e-11
1.34218e-09
8.62436e-10
1.93126e-12
8.59752e-13
1.72361e-11
1.04267e-12
7.99129e-13
3.43869e-11
1.53114e-12
1.87461e-13
1.15786e-13
5.34702e-12
9.04244e-13
2.65739e-14
1.47495e-14
8.44037e-09
2.94139e-05
9.21554e-06
9.88885e-05
4.33054e-07
4.90424e-05
0.000152654
8.01815e-06
2.58436e-06
2.71643e-05
1.24827e-06
8.85378e-05
0.00104661
0.00381556
0.00137393
0.00440917
0.000880758
5.83969e-05
1.47011e-06
1.58881e-13
3.96387e-08
1.91093e-06
1.67864e-08
0.000912583
0.000764418
1.25887e-05
0.00395416
0.000804741
0.000681114
6.06688e-06
0.000306469
0.000295279
2.58325e-06
0.000448206
6.13057e-05
7.49084e-05
2.21988e-07
1.04995e-05
2.19994e-06
9.29957e-09
2.83977e-05
1.29932e-07
1.13447e-07
2.46637e-11
1.30402e-09
2.01837e-09
3.68706e-12
1.85658e-08
1.12954e-11
3.08603e-12
1.3819e-12
5.49307e-12
1.86949e-06
2.9048e-07
9.7358e-10
7.05218e-10
6.45446e-09
1.01223e-10
2.77842e-09
1.83366e-11
4.95518e-13
3.60691e-14
8.35891e-16
1.29352e-13
3.26704e-15
2.41151e-14
8.25381e-16
2.9628e-15
1.11614e-16
4.86767e-16
1.02533e-17
2.58222e-17
6.96787e-19
3.49888e-15
1.14183e-16
2.78305e-18
6.83441e-20
1.72732e-07
2.6706e-08
7.46265e-10
7.36511e-13
5.29997e-10
1.64093e-14
3.10105e-16
9.12529e-18
2.44055e-19
6.06156e-21
0.195559
0.23053
0.225058
0.244966
0.236851
0.160992
0.18813
0.167985
0.178133
1.10045e-14
2.61283e-14
7.9845e-16
5.05261e-15
2.13298e-16
8.58233e-16
3.50858e-17
1.33157e-16
4.00119e-18
1.44501e-17
3.89132e-19
1.00503e-11
7.41514e-14
7.85029e-15
3.70754e-15
5.40358e-16
0.0208036
2.49722e-07
2.54868e-07
8.43914e-06
7.21023e-05
9.21085e-07
3.19606e-05
2.08792e-06
1.00074e-08
7.4889e-10
3.69386e-14
0.0999828
0.0887715
0.031904
0.00972661
0.00313933
0.00167459
0.000305707
4.02996e-05
1.8226e-06
6.25544e-09
0.000864324
0.000283182
0.000854215
0.000369458
0.000391712
0.000514655
0.000471186
0.000187766
0.000184908
0.11931
0.0601658
0.0857999
0.0241742
0.0495948
0.0197862
0.0399031
0.084243
0.0662543
0.053605
0.0644279
0.0513101
0.0419387
0.0359865
0.0597954
0.0578603
0.0379578
0.0242936
0.0339084
0.0215521
0.0184934
0.0313789
0.0263204
0.0164929
0.021848
0.0166315
0.0237391
0.0148104
0.0111955
0.0170707
0.0149116
0.0178107
0.0128993
0.0150015
0.0132361
0.0100229
0.013377
0.0115745
0.011832
0.173874
0.0861307
0.022486
0.0183713
0.00666836
0.177367
0.123555
0.129888
0.0920188
0.0266162
0.0360221
0.0326944
0.0191266
0.0295446
0.0129725
0.120424
0.171182
0.123756
0.169418
0.167315
0.121049
0.122943
0.0438455
0.0862581
0.066817
0.0548413
0.067048
0.0557579
0.0430637
0.0171939
0.0250258
0.0168856
0.020672
0.0187219
0.0233891
0.0152802
0.0128357
0.0210905
0.0127826
0.0172014
0.0144642
0.0197063
0.0114849
0.00201704
0.000458396
0.120696
0.1723
0.124736
0.174185
0.16882
0.122432
0.123078
0.105434
0.107595
0.105487
0.107517
0.105337
0.107519
0.105509
0.107373
0.111127
0.153863
0.12306
0.0925611
0.152659
0.111488
0.0924508
0.111484
0.160058
0.124817
0.094167
0.154522
0.113164
0.0928187
0.0982291
0.0828197
0.0982279
0.0829975
0.098191
0.083155
0.0983467
0.0830325
0.0447389
0.0877883
0.0686816
0.0614759
0.0675713
0.0576146
0.0458868
0.0400348
0.0604982
0.0610137
0.0390939
0.0407103
0.0614958
0.0613078
0.0411471
0.0291882
0.0359077
0.0288663
0.0203256
0.0376173
0.0279001
0.0219427
0.030457
0.0440756
0.0317012
0.0251731
0.0400184
0.0318493
0.0234793
0.0265224
0.0182999
0.0252321
0.0197971
0.0275221
0.0218944
0.028248
0.0209903
0.0189122
0.0281144
0.0221504
0.0312649
0.0204046
0.0266122
0.0206571
0.0152397
0.0151322
0.0167261
0.0136249
0.0165082
0.0189545
0.0179969
0.0174387
0.0162971
0.0197736
0.0219368
0.0136469
0.0225782
0.0143789
0.0154993
0.0179816
0.0304266
0.0251337
0.0186091
0.025834
0.0196536
0.0170782
0.014318
0.0119771
0.0127359
0.0134668
0.0155259
0.0152597
0.0163744
0.0145498
0.0107064
0.0110577
0.0123605
0.00971864
0.0105608
0.0154019
0.0146113
0.00735769
0.017544
0.00960916
0.00791865
0.00845103
0.00565678
0.00786588
0.0058859
0.0010265
0.00341757
0.00132892
0.00130201
0.00345604
0.00100031
0.00200567
0.460079
0.44041
0.32922
0.192662
0.150085
0.260539
0.3178
0.124584
0.0689689
0.0600204
0.0383703
0.0378829
0.0522535
0.460472
0.2673
0.261394
0.399104
0.194407
0.139705
0.0653473
0.0621648
0.0604063
0.393709
0.383209
0.378762
0.398893
0.373779
0.3215
0.361359
0.328468
0.207779
0.265337
0.264126
0.217829
0.17706
0.193951
0.190489
0.337676
0.335674
0.258135
0.25702
0.330779
0.253011
0.343525
0.314086
0.237433
0.264351
0.186201
0.310248
0.231454
0.262741
0.140749
0.203291
0.130491
0.097076
0.195607
0.153947
0.0870198
0.110998
0.0746217
0.120207
0.0526532
0.129123
0.0631831
0.0989978
0.0946785
0.117976
0.048615
0.0612481
0.0952695
0.11821
0.0472836
0.0955757
0.0609725
0.119459
0.0467762
0.119343
0.0469801
0.0965001
7.31097e-07
2.27685e-13
6.75734e-12
5.73044e-15
3.8003e-14
1.53625e-05
2.24887e-07
5.71703e-06
5.26029e-08
2.24089e-09
3.74755e-10
2.14614e-13
4.71406e-15
2.89414e-14
4.90097e-16
6.19378e-14
1.04218e-15
9.51495e-15
0.13642
0.180166
0.0230012
0.000888999
3.18895e-05
1.442e-07
5.27398e-09
9.52243e-13
1.66226e-13
0.056319
0.0768172
0.0117893
0.000548096
1.7073e-05
3.41865e-08
4.97735e-12
3.2859e-13
5.05409e-14
0.00548709
0.012553
0.00154218
6.76592e-05
1.28479e-06
2.76132e-10
9.62645e-14
4.56051e-15
1.00918e-14
0.00248554
0.00787995
0.000566352
8.598e-06
2.43394e-08
4.76609e-12
5.3061e-13
5.54835e-16
1.12074e-15
3.63892e-05
0.00340943
3.05149e-05
0.000230238
1.07929e-10
3.29179e-07
6.84912e-15
3.15998e-13
4.99128e-07
0.000302226
7.30758e-11
6.37756e-06
1.84742e-14
1.7607e-12
0.344815
0.263516
0.303452
0.317239
0.182749
0.0734799
0.114499
0.116601
0.0639258
0.176365
0.117557
0.123803
0.00403531
0.0203774
0.00376071
0.000138698
0.000144886
1.1535e-05
0.000855573
0.000114198
0.000137719
8.4135e-06
1.09524e-06
2.33236e-06
2.0702e-07
2.44902e-05
5.61242e-07
1.52477e-06
2.84334e-08
0.167319
0.0637774
0.0749816
0.034323
0.0178953
0.0155206
0.0110371
0.0168225
0.00236168
0.00417098
0.000916386
8.39956e-05
8.20983e-05
5.59541e-06
0.000208018
1.70468e-05
1.36895e-05
6.42933e-07
2.88425e-07
9.29643e-07
7.59434e-09
2.6983e-06
2.30256e-08
7.42629e-08
3.58276e-10
0.0364894
0.0314726
0.0493736
0.011268
0.00554391
0.00372731
0.00725163
0.00333175
0.00857978
0.0161257
0.000334434
0.00073324
0.000136358
9.21427e-06
3.05666e-06
2.46918e-07
2.06583e-05
1.06507e-06
3.98348e-07
5.40394e-09
9.21076e-09
2.47587e-08
3.52189e-11
8.35881e-08
3.0563e-10
4.19678e-10
3.75283e-12
0.0295337
0.0498788
0.0245445
0.0430916
0.00655424
0.00224297
0.00121525
0.00382488
0.000428726
0.0154208
0.0049358
0.0109833
8.78981e-05
0.000179892
4.90312e-06
3.97365e-07
1.52535e-08
1.08285e-09
7.86173e-08
1.63914e-08
1.35633e-10
5.81453e-12
7.80483e-11
8.33281e-11
1.80009e-12
2.76291e-08
7.98143e-08
7.1496e-12
2.75346e-11
0.000151731
1.9519e-06
1.90692e-06
2.15111e-06
2.54426e-05
2.71673e-09
1.78232e-07
0.000463089
3.51919e-06
7.74388e-06
4.21577e-05
9.35753e-05
3.87496e-07
6.93254e-06
0.0528656
0.000179842
0.0220726
0.000100642
0.0021085
3.38925e-06
0.00022399
9.32272e-11
6.04901e-07
1.81633e-11
0.104709
0.0922028
0.05411
0.0148839
0.00571164
0.0447228
0.0463417
0.0135174
0.00525259
0.0458453
0.00832129
0.0241644
0.00349172
0.0031695
0.00665065
0.00765618
0.00235597
0.00117511
0.00375131
0.00214292
0.00182864
0.000335528
0.000409145
0.000755251
0.000917464
0.000204376
0.000156435
0.00111656
0.000331034
0.000383632
1.42954e-05
8.61301e-05
3.55212e-05
8.33172e-05
1.22546e-07
3.96987e-06
0.119246
0.179902
0.120433
0.173066
0.173533
0.116641
0.122652
0.0222898
0.0475431
0.0459816
0.0198781
0.0458726
0.0444098
0.0204858
3.46323e-06
4.91142e-06
2.33012e-05
3.14659e-05
4.78383e-06
2.29541e-05
3.56483e-06
0.0370608
0.0807839
0.0574334
0.0446412
0.0611861
0.0479234
0.0341443
0.0231455
0.00723431
0.0137109
0.00665065
0.0226154
0.0106982
0.0134737
8.16043e-07
2.23653e-06
1.19503e-05
1.00968e-05
1.54254e-06
1.21958e-06
6.88316e-06
0.00933534
0.0145535
0.00944865
0.0104952
0.0110154
0.0124732
0.0078198
0.00103775
0.00284365
0.00198546
0.000998031
0.00283262
0.0014664
0.00198887
2.22047e-08
1.11697e-07
7.55022e-07
5.75041e-07
6.24237e-08
4.32211e-08
3.10004e-07
0.00618372
0.00987751
0.00555079
0.0070948
0.00699595
0.00905327
0.00481379
0.000235928
0.000820155
0.000365397
0.00023464
0.000832235
0.000360726
0.000578568
1.04144e-10
1.17002e-09
8.82641e-09
5.73836e-09
4.5833e-10
3.03379e-10
1.8742e-09
7.21609e-06
0.000802078
8.43957e-05
0.00168668
0.00044026
0.000404831
6.14574e-05
0.00591398
0.000629595
0.00190775
0.000606633
0.00155897
9.77177e-05
0.000445005
9.58783e-05
0.000324747
7.3892e-05
0.000200991
0.000107004
0.000284572
6.6037e-05
2.58338e-14
8.11203e-13
1.62984e-08
1.61223e-07
9.45255e-12
9.03168e-09
1.33068e-13
8.0075e-07
2.13289e-11
1.92509e-09
2.31288e-08
7.47489e-08
9.79029e-13
4.77669e-12
0.116572
0.185443
0.119901
0.174939
0.177347
0.115616
0.12135
0.0709913
0.0990262
0.0952382
0.0917246
0.0720451
0.0697541
0.0949063
0.0913329
0.096795
0.0942838
0.0940634
0.103247
0.153405
0.117455
0.0813306
0.155073
0.103329
0.0800123
0.0847654
0.0508958
0.0662457
0.0823159
0.0505629
0.0630791
0.0651208
0.0829329
0.0702671
0.086256
0.0668043
0.120827
0.178677
0.124081
0.171313
0.172958
0.121225
0.123936
0.101231
0.100284
0.0978542
0.10357
0.103685
0.107152
0.105027
0.105911
0.108539
0.152827
0.121035
0.0841928
0.15472
0.105258
0.0880758
0.110737
0.154833
0.123435
0.0923685
0.155536
0.111509
0.0910483
0.0934598
0.0737965
0.0898926
0.0774779
0.0962096
0.0823287
0.0977641
0.0805587
0.00398605
0.00927087
0.00907694
0.00741987
0.00304618
0.00302426
0.00754506
0.0416948
0.0167141
0.0336531
0.0182314
0.0327143
0.0403667
0.0150349
0.0084396
0.00320884
0.00708407
0.0069439
0.0024828
0.00287702
0.00587686
0.000306629
0.000487975
9.79049e-05
0.000138154
0.000487502
9.73217e-05
0.000306666
0.000295141
0.000132277
0.000410608
7.90322e-05
0.000469772
9.26175e-05
0.000256625
3.82081e-07
5.83303e-07
6.98689e-07
1.03846e-06
5.60246e-07
6.59572e-07
3.99207e-07
3.11893e-06
2.94809e-05
3.43357e-06
1.74982e-05
4.34779e-06
2.13691e-05
2.42273e-06
3.29785e-07
8.56685e-07
3.60556e-07
3.43179e-07
4.88747e-07
5.36474e-07
2.3857e-07
0.0303429
0.0750688
0.0544464
0.0428828
0.0526231
0.0425818
0.031861
0.0437877
0.0199433
0.0251054
0.0254121
0.0343808
0.0436975
0.0201051
0.0268571
0.048514
0.0456247
0.0287776
0.017123
0.0245285
0.0150002
0.0114702
0.0241087
0.0182374
0.0105503
0.0139103
0.00827332
0.00648741
0.0142361
0.0066088
0.0111754
0.00860196
0.0152217
0.0103556
0.0164824
0.00938303
0.0333738
0.0514471
0.0547872
0.0308104
0.0219876
0.0259724
0.0189539
0.0127687
0.0284912
0.0198568
0.014494
0.0197561
0.0114793
0.0178789
0.0130104
0.00513575
0.00152206
0.00326314
0.00278
0.00185302
0.00430877
0.00121453
0.00765516
0.00245687
0.00445951
0.00388571
0.00442305
0.00756071
0.00231385
0.000547406
0.00194492
0.00116341
0.00168271
0.000450803
0.000743488
0.00101994
0.000122123
0.000307648
5.72654e-05
5.31206e-05
0.000190692
0.000199621
3.55638e-05
7.15693e-05
3.07055e-05
6.95281e-05
1.07636e-05
0.000119377
2.00697e-05
4.03898e-05
6.72251e-08
2.15812e-07
1.70987e-07
1.2872e-07
1.39014e-07
1.07932e-07
7.35582e-08
3.796e-07
5.38104e-06
2.66246e-07
1.69451e-06
5.91964e-07
3.5448e-06
1.60674e-07
2.87568e-08
5.50554e-08
1.98294e-08
1.19872e-08
4.81353e-08
3.01097e-08
1.12556e-08
0.00587453
0.0106312
0.00827492
0.00919296
0.00742152
0.00844982
0.00669383
0.00414906
0.0042549
0.0030958
0.00450979
0.00437177
0.00588688
0.00321145
0.00519323
0.00745864
0.00659467
0.0060137
0.00501581
0.00804297
0.00636906
0.00512756
0.00720244
0.00578884
0.00436769
0.00274798
0.00240683
0.00191505
0.0037049
0.00202394
0.00252036
0.00312304
0.00437716
0.00454134
0.00516916
0.00377924
0.00836742
0.00848955
0.00988684
0.00701515
0.00838266
0.00936216
0.010581
0.00619844
0.0113505
0.0068836
0.00768058
0.0102461
0.0168103
0.0131851
0.0115994
0.01392
0.0123092
0.00953884
0.00748562
0.00550173
0.00615327
0.00681072
0.00913141
0.0102332
0.0109443
0.0084405
0.00021105
0.000723413
0.000472361
0.000423897
0.000279423
0.000642028
0.000178873
0.00147189
0.0011111
0.00052467
0.000712826
0.00112273
0.00148174
0.000514616
8.77961e-05
0.00031984
0.000218034
0.00029041
7.72881e-05
0.000117551
0.000201022
1.21616e-05
4.04446e-05
5.53393e-06
4.80799e-06
2.23686e-05
2.36289e-05
2.68211e-06
6.38765e-06
2.38139e-06
7.43175e-06
4.57382e-07
1.36113e-05
1.19076e-06
3.09208e-06
1.33821e-09
7.57844e-09
4.54265e-09
3.37544e-09
4.05922e-09
2.65584e-09
1.57286e-09
7.05216e-09
2.35022e-07
4.57023e-09
3.49186e-08
1.50698e-08
1.13233e-07
1.93098e-09
3.94115e-10
1.08644e-09
2.34833e-10
1.289e-10
8.39012e-10
4.79268e-10
1.03595e-10
0.0031283
0.00566465
0.00451101
0.00579279
0.00375692
0.00490729
0.00383528
0.00174782
0.00111148
0.00150011
0.00207836
0.00160142
0.00260445
0.00120113
0.00263762
0.00394552
0.00322597
0.00328873
0.00244395
0.00488211
0.00305138
0.00225531
0.00403233
0.00306336
0.001753
0.000786
0.00125026
0.000742919
0.0015364
0.0004887
0.000817658
0.00102013
0.00200662
0.00180865
0.00255872
0.00137918
0.00791255
0.0124873
0.0108292
0.0144334
0.00881965
0.0116074
0.00977181
0.00532024
0.00486564
0.00613113
0.00413969
0.00679518
0.00943736
0.0077155
0.00834861
0.00516685
0.00611689
0.00661187
0.00297955
0.00797372
0.00393621
0.00400601
0.00670329
0.0129595
0.00876085
0.00645875
0.0103752
0.00827721
0.0052618
0.00433284
0.00239905
0.00329947
0.00321952
0.00560705
0.00509027
0.00687218
0.00420303
2.97553e-05
5.40528e-05
0.000144356
8.35727e-05
4.84887e-05
0.00013539
2.71339e-05
0.000346119
6.32788e-05
0.000133428
0.000133257
0.000190099
0.000356843
6.43299e-05
1.9387e-05
4.563e-05
1.3581e-05
4.38901e-05
4.69413e-06
1.2662e-05
1.91696e-05
3.77012e-07
3.64014e-06
1.38964e-07
1.11324e-07
1.24865e-06
1.40566e-06
3.26543e-08
8.5438e-08
2.39782e-08
8.66299e-08
2.41865e-09
3.94876e-07
6.03751e-09
1.36271e-08
2.54839e-11
5.85925e-11
3.2478e-11
1.1277e-10
2.46106e-11
8.8239e-11
3.3911e-11
3.54359e-10
1.90815e-09
5.01034e-08
3.59801e-09
1.68362e-09
4.81721e-10
6.79369e-09
5.21235e-10
2.89118e-09
7.11863e-08
1.17817e-08
2.4256e-09
6.44266e-10
1.01559e-08
2.5567e-05
0.000102304
4.63678e-05
0.000133125
3.06193e-05
8.53313e-05
4.17825e-05
6.10929e-06
1.16619e-05
1.18384e-06
1.77403e-06
7.52127e-06
1.06987e-05
8.95514e-07
0.000122439
0.000414941
0.00014888
0.000405294
0.000136101
0.000364557
0.000133793
2.64551e-05
1.95769e-05
5.5828e-06
3.25932e-06
2.91741e-05
1.77514e-05
5.15709e-06
3.38323e-05
4.01916e-05
7.22458e-06
7.12797e-06
3.71543e-05
3.65806e-05
6.67644e-06
1.10093e-05
5.43979e-07
2.08101e-12
3.32639e-06
9.53321e-12
5.71828e-13
1.42888e-07
9.83598e-13
3.09948e-14
1.48376e-09
1.15182e-12
1.41396e-14
0.000467743
7.42461e-07
3.69646e-13
6.38033e-06
1.91149e-12
3.8527e-06
6.13344e-06
2.96967e-06
9.22374e-07
3.26569e-07
0.000163085
1.05552e-06
8.08841e-06
0.000106104
4.54003e-10
9.70105e-06
5.89086e-09
1.93041e-05
3.54314e-11
1.69745e-06
7.22004e-06
5.14452e-12
1.29109e-07
7.67921e-08
1.34968e-07
2.92635e-11
5.43416e-09
7.34873e-06
9.06118e-05
5.5193e-06
5.25873e-05
8.17342e-05
7.30085e-06
1.0549e-05
7.93478e-05
6.96836e-06
5.435e-05
9.04487e-06
2.93769e-05
2.04257e-06
1.57229e-06
1.83228e-05
1.50588e-05
9.21855e-07
3.82805e-07
1.91007e-06
6.91502e-08
5.7372e-08
9.32827e-07
8.73004e-07
2.56817e-08
2.22745e-09
2.94549e-08
5.59741e-10
4.41101e-10
9.76548e-09
6.96144e-09
1.54803e-10
0.000120919
0.000447837
0.000147001
0.000406729
0.000136771
0.000386432
0.000131344
3.16039e-07
1.89259e-09
8.53138e-10
5.49066e-08
3.4191e-08
4.41272e-12
2.71098e-11
4.56137e-05
8.94909e-06
5.04493e-05
3.90091e-06
6.9623e-05
5.83264e-06
3.23764e-05
4.32774e-06
7.20035e-07
3.8543e-06
1.69587e-07
7.59304e-06
3.98691e-07
2.0518e-06
3.14172e-05
0.000257835
3.15969e-05
7.80032e-05
5.51532e-05
0.000130876
1.69326e-05
4.2887e-06
1.8135e-05
4.72704e-05
6.75327e-05
8.91345e-06
9.84595e-06
2.72841e-05
1.34317e-07
2.00352e-08
1.11002e-07
2.29215e-09
3.43763e-07
8.30678e-09
3.91882e-08
1.74663e-06
3.94762e-05
1.78517e-06
5.5029e-06
4.67732e-06
1.37131e-05
5.69045e-07
3.46112e-08
5.32154e-07
1.72651e-06
2.12996e-06
1.50141e-07
1.31249e-07
4.26265e-07
1.00264e-09
2.94703e-09
6.46223e-08
1.15613e-08
3.8845e-09
6.81135e-10
9.84163e-09
7.50024e-09
5.11635e-07
5.10775e-08
2.08034e-08
3.02882e-08
8.96068e-08
8.33021e-09
3.15955e-05
3.89977e-05
6.34572e-06
6.70087e-06
3.51698e-05
3.52925e-05
5.73586e-06
0.00108432
0.000308207
0.000334545
0.000796922
0.000226475
0.000434042
0.000617821
0.00148545
0.000871677
0.000483568
0.00203698
0.000675526
0.00122891
0.000876564
0.000997578
0.00317436
0.00128465
0.00112276
0.00267001
0.000874415
0.00162209
0.000890904
0.00194161
0.00193284
0.000586416
0.00126168
0.00126057
0.000584946
1.10073e-07
1.12711e-05
1.02661e-05
2.6153e-06
1.73669e-09
1.69138e-06
8.01483e-10
1.12593e-11
6.74311e-12
3.67994e-09
4.07091e-07
2.08241e-10
2.31913e-07
9.47306e-11
0.000351756
0.00117428
0.000757224
0.000238775
0.000794406
0.000368845
0.000520314
2.52751e-06
4.17336e-09
3.1735e-06
1.01554e-06
3.86636e-10
7.47319e-08
1.49944e-11
9.06509e-10
1.52397e-12
3.97074e-11
1.28109e-07
4.54594e-11
7.18886e-09
2.36866e-12
3.7919e-05
0.000158327
9.53106e-05
2.64485e-05
0.000113266
4.67964e-05
6.92969e-05
3.57664e-08
1.84705e-12
3.09254e-08
2.36499e-08
4.07578e-12
3.36318e-10
1.24651e-13
1.35928e-12
3.82215e-13
4.96826e-12
2.12868e-09
7.60327e-13
2.93434e-11
1.74973e-13
1.87065e-06
4.98277e-06
1.82373e-05
1.31494e-06
1.43118e-05
3.61519e-06
6.88227e-06
3.56355e-14
2.67297e-13
5.99656e-10
6.13425e-11
8.92495e-14
4.23814e-13
2.36557e-14
1.70568e-14
2.1734e-14
3.16222e-13
5.18825e-12
2.64222e-14
3.16312e-13
1.11791e-14
8.12716e-05
8.79653e-06
2.59249e-05
1.50928e-05
9.75693e-05
3.01559e-05
5.18435e-05
5.62937e-07
1.63827e-08
3.25004e-07
3.04079e-08
5.57275e-07
2.93191e-08
1.56779e-08
1.20781e-08
9.33082e-06
9.86288e-07
6.74045e-05
1.77154e-05
6.20691e-06
7.76248e-08
5.78416e-05
4.18482e-06
3.9169e-05
0.000108213
2.96018e-05
1.11828e-05
1.93067e-07
3.69671e-14
3.21703e-08
7.70609e-12
6.25326e-06
1.70361e-08
1.30135e-10
1.54806e-12
1.29367e-07
1.45274e-06
3.39621e-11
1.10111e-05
4.42531e-08
3.62706e-09
4.54377e-12
0.0018436
0.000740628
0.00158793
0.000565683
0.00105815
0.00121234
0.000493634
0.000119314
0.000453559
0.000266897
0.000142181
0.000188331
0.000315985
8.2017e-05
1.06321e-05
5.74878e-05
3.37254e-05
1.45884e-05
2.56465e-05
4.26722e-05
7.65852e-06
8.38839e-07
3.20815e-06
4.90422e-07
3.38452e-07
6.80499e-07
2.53815e-06
5.73568e-08
2.60084e-07
1.34082e-06
6.97327e-06
3.41318e-06
1.42669e-06
7.8591e-06
4.63554e-07
0.000170712
0.00114897
0.00109791
0.00285725
0.000144118
0.0026851
0.000136041
1.63485e-05
0.000683087
0.000250436
0.00154024
7.38482e-05
0.000510555
2.02089e-05
3.54867e-07
7.84572e-05
2.29458e-05
0.000138652
3.50903e-06
3.06898e-05
2.66896e-07
5.75642e-08
7.4608e-09
8.34737e-06
3.86104e-06
4.1095e-09
9.33782e-09
8.27054e-13
4.19268e-10
5.93274e-06
9.33472e-07
2.03933e-06
4.06661e-09
7.45988e-10
4.59377e-13
4.06679e-14
1.01681e-13
5.80099e-09
4.06086e-10
6.78284e-14
7.70608e-14
1.24157e-14
0.000209384
0.000417358
0.000270709
0.000589569
0.000142349
0.000294937
0.000178198
7.7464e-09
1.47986e-07
1.47673e-07
7.51756e-09
3.2172e-08
1.24548e-09
6.35097e-10
1.00447e-07
7.4055e-09
1.56006e-07
4.76757e-09
6.7759e-08
2.63614e-09
6.78229e-09
4.67188e-08
4.86636e-08
8.13301e-07
7.54093e-07
4.34293e-08
7.46835e-07
4.19322e-08
4.3865e-11
1.88832e-11
3.94138e-07
2.01507e-06
9.25481e-09
1.48333e-06
6.25155e-09
1.04706e-07
2.53943e-12
1.40304e-08
4.03679e-07
1.41046e-09
5.32954e-08
1.6113e-10
9.4193e-12
2.87742e-12
4.21995e-11
5.33247e-09
1.51486e-11
3.80546e-10
2.04299e-12
6.63553e-14
1.99899e-13
3.37155e-12
4.04548e-10
7.65643e-13
1.47146e-11
2.51899e-13
4.4125e-08
4.65189e-08
7.6352e-07
6.39692e-07
3.87598e-08
6.12836e-07
3.61775e-08
1.45431e-07
1.51566e-07
1.13328e-08
4.606e-07
1.80842e-08
2.41433e-07
2.67614e-08
4.28409e-07
2.40756e-08
1.24634e-08
7.45868e-13
0.389625
0.217003
0.0838642
0.087765
0.0414593
0.00065107
0.316426
0.21592
0.257513
0.236047
0.185612
0.168427
0.3982
0.112379
0.104816
0.109668
0.0522122
0.0394501
0.0241969
0.0998723
0.0427064
0.0186938
0.0179763
0.0394709
0.0128746
0.0122759
0.0859031
0.157991
0.0355569
0.0100044
0.0113811
0.0061755
0.00734556
0.16297
0.124535
9.99724e-06
0.189178
0.164017
0.151274
0.131689
0.0907042
0.0339972
0.0421496
0.0150479
0.0153142
0.00964478
0.00711842
0.00416817
0.00672143
0.00333793
0.00220138
0.000579935
0.32568
0.345141
0.335706
0.299093
0.326708
0.317196
0.308319
0.20855
0.225567
0.218424
0.248322
0.236068
0.227546
0.256694
0.288095
0.306516
0.252399
0.270727
0.233494
0.28778
0.218936
0.19536
0.153874
0.144829
0.222154
0.156744
0.201939
0.175307
0.170584
0.122114
0.183701
0.0993926
0.16556
0.154848
0.106436
0.0646206
0.0972043
0.0587965
0.0738107
0.10409
0.119646
0.0620608
0.0735935
0.0584726
0.0809997
0.0635033
0.0480166
0.0683911
0.0440249
0.0257682
0.0352439
0.02265
0.0452595
0.0238208
0.0369072
0.0299526
0.0367049
0.0416347
0.0475373
0.029642
0.038079
0.0343261
0.0334825
0.0149958
0.0161744
0.0127532
0.0182751
0.0172557
0.0222024
0.0138678
0.040626
0.0327398
0.0343032
0.0272146
0.0299932
0.0312999
0.0255857
0.011386
0.0107548
0.00933615
0.0161058
0.0105911
0.0119311
0.0146308
0.0381811
0.0280699
0.0310017
0.0216635
0.0287166
0.0239598
0.0267606
0.00835708
0.00805684
0.00664676
0.0116265
0.0094167
0.0132718
0.00811175
0.00364578
0.00493348
0.00302727
0.00933528
0.00453912
0.00649835
0.00635366
0.183319
0.192424
0.18687
0.167833
0.132734
0.128933
0.0559974
0.0873788
0.0533737
0.0218085
0.0320644
0.020374
0.0117719
0.014185
0.0108112
0.00811416
0.00877686
0.0073148
0.00516525
0.00600522
0.00461012
0.00161586
0.0030327
0.00154044
0.0108009
0.0199426
0.0045419
0.276608
0.305172
0.24907
0.24758
0.295366
0.239668
0.285903
0.24813
0.218925
0.210592
0.163626
0.265405
0.212092
0.196705
0.0831196
0.143571
0.107286
0.0636923
0.134673
0.0878835
0.0628673
0.0512066
0.037266
0.03658
0.0237683
0.0540162
0.0368997
0.0343706
0.0218485
0.028138
0.0173461
0.0149598
0.0260012
0.0241025
0.0141224
0.0196013
0.0133371
0.0207339
0.0111047
0.0220346
0.0123165
0.0180926
0.0150727
0.0195946
0.0100804
0.0103924
0.0167301
0.018184
0.00896283
0.0127121
0.00910698
0.01268
0.00577091
0.0160334
0.00756352
7.65365e-06
0.000118291
7.97109e-14
3.83855e-15
3.27546e-16
2.20911e-13
5.10224e-15
2.78035e-14
8.58102e-16
1.06502e-14
2.59545e-12
1.87752e-14
7.67969e-13
1.43821e-14
1.1705e-13
3.78557e-15
1.28204e-15
2.99722e-14
3.6308e-13
1.00044e-13
6.75812e-10
3.93187e-14
5.16162e-15