/*--------------------------------*- C++ -*----------------------------------*\
  =========                 |
  \\      /  F ield         | OpenFOAM: The Open Source CFD Toolbox
   \\    /   O peration     | Website:  https://openfoam.org
    \\  /    A nd           | Version:  9
     \\/     M anipulation  |
\*---------------------------------------------------------------------------*/
FoamFile
{
    format      ascii;
    class       volScalarField;
    location    "0.00285";
    object      T;
}
// * * * * * * * * * * * * * * * * * * * * * * * * * * * * * * * * * * * * * //

dimensions      [0 0 0 1 0 0 0];

internalField   nonuniform List<scalar> 
23750
(
589.606
601.071
622.882
562.413
615.129
560.719
491.76
602.478
499.415
418.291
452.021
418.629
1026.87
933.915
982.146
896.317
909.59
871.355
831.891
789.874
858.967
635.075
658.225
558.635
496.286
478.398
995.903
1034.03
1012.46
1000.06
1013.63
1008.65
991.112
970.94
965.831
950.702
935.58
978.409
961.579
949.827
936.789
931.209
918.05
892.977
938.853
922.214
906.863
942.249
881.142
921.355
899.215
920.809
900.746
954.359
987.33
915.512
904.033
828.004
971.847
888.929
906.061
977.623
758.43
659.707
826.326
805.626
891.217
891.589
552.918
490.247
474.827
546.696
517.405
675.364
424.047
708.804
448.758
521.387
867.217
919.263
784.92
821.447
630.737
567.267
621.204
471.035
632.912
472.153
778.405
945.345
853.809
748.383
1049.08
1078.23
872.937
1066.45
711.061
986.183
680.382
546.644
801.376
981.574
614.28
792
513.537
699.673
619.662
484.733
583.729
589.863
488.798
521.167
659.657
730.616
486.206
536.819
781.32
488.172
478.795
479.341
430.635
444.764
952.52
1012.69
874.787
917.76
1010.72
874.158
954.284
761.204
910.401
767.971
751.782
836.448
835.345
700.862
535.362
633.456
530.084
533.91
573.441
595.704
494.232
451.442
523.17
431.568
456.61
465.677
507.299
419.55
663.232
483.914
629.194
569.608
519.231
523.014
419.6
440.06
453.695
874.689
824.917
917.897
777.765
825.567
917.052
875.058
870.741
768.624
811.274
888.655
821.392
908.746
860.52
935.362
903.508
964.889
823.749
996.349
858.572
897.69
787.583
787.505
847.551
656.757
834.983
743.898
783.954
727.894
596.448
640.386
652.037
688.61
712.035
676.089
686.456
677.654
685.447
576.584
754.759
634.33
623.085
621.581
608.263
611.449
494.979
641.416
590.924
587.192
611.755
486.646
581.743
566.013
583.508
574.25
606.809
505.351
509.092
543.186
446.584
566.637
466.804
482.895
595.464
632.822
600.14
672.1
588.274
644.963
607.219
573.661
581.481
568.439
586.292
606.117
697.174
698.416
642.704
666.095
619.911
627.794
580.366
613.572
593.21
601.995
607.519
583.107
559.013
486.963
604.882
589.104
554.634
608.923
487.455
606.478
530.855
594.881
546.588
604.662
438.025
440.81
466.13
404.093
487.348
410.58
423.742
606.264
483.725
521.344
598.773
535.811
604.015
596.917
456.739
418.431
452.996
477.197
426.068
447.394
376.142
582.175
512.266
604.878
506.563
503.329
575.052
469.632
287.958
473.656
420.387
956.13
958.14
953.77
862.961
844
838.755
784.472
879.292
851.829
920.803
894.686
557.157
872.519
891.449
645.739
596.892
993.874
962.395
993.153
956.852
963.11
993.876
993.757
992.429
957.304
962.509
992.57
962.18
993.79
990.712
973.562
962.022
985.991
931.237
986.695
950.245
966.443
952.319
894.439
907.915
910.819
926.552
936.479
935.259
931.364
901.288
895.612
835.365
928.823
903.697
888.449
940.049
833.755
930.46
890.75
912.467
886.705
956.263
998.971
957.794
900.834
876.467
977.948
990.026
913.355
1019.32
905.804
1029.11
913.431
1016.06
922.481
1010.53
883.905
937.889
721.536
808.021
850.299
970.495
744.476
922.649
843.421
1028.11
822.688
1003.21
779.881
957.935
727.11
984.131
835.048
813.564
896.642
870.335
688.645
1007.82
858.691
860.026
965.908
925.902
925.402
856.619
540.296
450.974
457.719
478.002
538.389
545.014
517.794
434.464
322.026
410.497
310.229
378.233
290.321
366.5
288.157
444.361
307.368
287.926
287.927
568.933
701.084
546.873
684.632
352.018
336.209
349.458
335.954
517.34
591.415
433.119
460.389
344.901
334.162
415.676
457.319
398.442
430.505
393.463
419.954
351.902
383.537
425.911
345.26
451.452
391.469
531.742
343.944
387.61
424.77
524.369
344.51
388.932
478.483
344.262
384.847
379.996
418.936
352.832
382.001
409.051
351.913
354.91
376.05
400.653
337.585
311.795
359.057
302.654
289.446
313.853
299.021
289.384
287.945
405.553
344.634
336.996
399.734
313.578
787.448
724.403
613.145
571.173
725.409
614.734
787.581
772.956
564.539
685.088
581.959
713.653
605.558
738.638
331.319
323.614
353.449
352.721
323.814
354.112
331.107
331.354
352.042
323.06
352.783
323.703
354.011
331.026
624.288
639.553
544.76
485.531
684.465
588.749
505.829
569.207
456.926
499.055
444.938
540.887
471.866
523.475
329.367
321.948
350.458
340.546
330.311
320.782
348.526
459.771
464.084
425.246
405.153
487.323
436.704
413.105
440.249
400.783
405.759
406.647
416.949
408.312
428.169
416.463
402.807
400.994
382.895
422.762
400.167
389.753
403.189
367.764
381.576
355.806
391.167
373.876
389.959
435.238
425.908
399.895
461.178
405.823
476.6
422.213
398.429
376.83
351.077
350.707
382.855
388.537
359.45
485.193
380.144
436.373
486.958
381.248
407.287
405.894
447.178
371.816
396.631
426.635
367.578
385.328
392.22
394.652
364.132
378.962
392.998
363.25
376.74
377.851
376.102
336.568
350.552
361.144
315.251
325.022
350.069
445.367
408.952
448.35
410.06
412.352
404.585
431.625
289.003
288.285
287.928
291.012
288.033
287.958
287.928
404.719
318.927
323.697
287.979
433.288
468.278
377.237
481.78
380.437
405.685
400.498
386.01
399.93
364.807
410.545
365.507
381.228
379.183
379.229
385.72
352.611
390.95
360.815
373.685
365.807
330.897
316.109
292.281
339.129
298.727
301.992
292.534
379.365
341.987
342.46
379.2
380.724
373.425
331.223
357.769
289.641
290.874
318.72
357.201
289.199
290.041
353.805
288.524
288.822
298.014
304.944
288.104
288.152
291.106
287.957
287.957
288.235
288.208
287.928
287.927
287.942
287.927
287.927
287.946
287.929
287.926
287.926
287.929
287.927
287.926
287.926
291.863
445.771
402.389
408.839
361.439
425.996
428.656
414.048
387.816
442.066
377.738
449.886
484.499
541.367
479.622
479.584
429.913
419.51
336.979
287.927
308.552
382.656
298.407
422.305
389.201
362.769
474.727
424.05
390.429
351.544
420.729
387.688
340.8
420.181
415.761
386.549
308.658
399.398
346.667
290.412
402.202
303.104
299.582
287.956
288.399
288.484
287.932
291.284
287.946
287.932
287.929
287.956
388.234
341.916
289.208
288.792
292.025
288.128
288.375
287.941
287.927
287.926
287.926
287.926
287.926
287.926
287.926
287.926
287.926
287.926
287.926
287.926
287.926
287.926
287.926
287.926
287.926
297.173
291.11
288.315
287.927
288.562
287.926
287.926
287.926
287.926
287.926
871.773
1069.73
998.76
1055.35
981.382
975.607
1049.85
947.151
1072.05
287.926
287.926
287.926
287.926
287.926
287.926
287.926
287.926
287.926
287.926
287.926
287.933
287.926
287.926
287.926
287.926
687.914
384.913
396.445
453.411
455.516
427.89
446.172
441.26
314.985
291.915
287.927
950.747
952.993
986.948
878.915
738.879
660.608
561.283
521.41
421.788
300.555
565.239
485.738
552.33
499.472
517.373
602.819
553.812
477.819
490.595
788.022
728.128
782.765
654.466
702.892
623.622
738.771
785.962
770.643
747.398
775.699
751.935
733.564
728.797
763.29
768.819
724.445
686.076
698.872
657.372
634.866
703.083
681.964
636.748
673.918
623.425
671.115
624.06
580.837
624.862
602.136
606.861
601.501
606.271
583.668
566.373
589.665
587.551
570.99
807.393
782.61
623.774
611.811
714.487
877.207
800.092
869.815
851.099
653.217
711.931
681.245
605.601
655.891
660.955
795.803
821.439
793.448
808.415
822.254
794.301
795.197
726.488
791.986
765.366
745.671
765.517
754.336
727.8
585.431
631.372
600.686
608.649
601.099
616.532
584.018
591.724
619.546
582.551
622.748
584.896
631.526
588.606
593.098
555.079
804.215
842.898
829.027
878.083
843.782
830.131
803.5
780.254
786.376
786.996
779.441
775.931
797.753
799.199
774.891
793.19
806.505
811.057
784.318
819.178
791.945
785.215
801.058
876.09
832.363
816.48
840.757
826.977
791.722
777.693
776.368
784.475
769.314
772.841
786.278
795.745
764.072
729.745
812.337
792.829
810.907
769.89
772.678
750.435
710.414
756.542
748.77
718.058
704.969
764.807
743.289
725.08
675.978
696.781
660.561
631.966
704.672
677.393
631.33
678.688
757.876
676.402
651.108
721.188
697.209
634.136
660.273
620.468
666.613
615.893
655.76
629.629
674.125
612.746
589.259
647.107
621.069
664.552
604.61
632.082
604.985
569.891
588.311
585.829
571.486
569.706
600.273
584.215
585.26
580.131
604.049
613.289
578.543
611.936
578.167
580.733
583.808
657.311
627.542
597.418
626.964
598.451
584.217
564.414
565.733
565.537
564.815
564.904
579.188
579.771
565.149
573.591
569.4
568.612
573.569
600.294
637.234
677.135
609.819
649.131
594.256
619.66
578.622
589.954
574.692
597.956
536.21
585.017
477.295
484.921
595.624
541.682
603.467
803.576
815.982
795.81
790.568
791.799
815.491
824.58
800.681
737.919
714.647
673.482
685.493
856.555
850.786
815.784
920.524
833.672
922.667
915.26
804.894
781.556
772.882
940.941
1031.38
1032.82
940.018
937.349
1027.1
1029.83
933.651
918.504
1022.29
929.408
1011.78
899.604
994.711
1002.78
910.879
966.922
878.271
922.006
968.823
879.718
908.975
911.544
922.559
972.15
878.073
969.967
879.66
913.628
889.629
971.746
866.542
886.477
910.327
954.677
833.786
855.55
842.543
900.21
747.178
923.879
787.361
827.772
809.731
890.085
721.825
770.794
813.514
889.154
709.689
813.357
768.684
911.41
710.06
895.191
706.702
825.874
371.283
287.929
287.953
287.926
287.926
459.429
311.642
436.49
298.082
291.203
288.587
287.929
287.926
287.926
287.926
287.928
287.926
287.926
806.554
810.518
948.792
514.48
321.353
304.423
288.571
287.929
287.926
806.949
805.697
869.907
501.9
321.137
294.854
287.934
287.927
287.926
610.15
635.104
655.707
462.448
313.392
288.429
287.926
287.926
287.926
571.22
599.012
509.01
464.907
293.391
287.956
287.928
287.926
287.926
501.773
670.446
509.956
409.847
288.459
327.24
287.926
287.928
409.699
473.095
288.398
431.05
287.926
287.937
792.415
802.948
798.066
803.241
813.492
737.536
811.882
823.519
742.618
803.099
816.159
798.87
722.969
935.348
720.352
347.542
413.894
350.03
516.617
348.727
415.157
348.901
294.196
325.37
292.089
321.56
292.656
321.717
289.58
812.154
775.663
816.823
719.251
726.995
687.356
625.744
672.398
684.187
761.121
623.013
348.122
414.299
347.26
478.514
344.847
409.117
333.827
291.8
318.762
288.874
316.593
289.359
303.34
288.121
725.587
716.405
713.182
648.782
586.247
579.337
602.865
545.024
597.952
601.958
561.676
577.966
509.652
343.288
401.854
324.492
455.003
329.349
368.938
292.893
288.795
297.511
287.964
298.362
288.021
288.67
287.932
761.737
733.147
817.532
835.954
601.878
535.404
588.062
629.595
509.314
607.257
628.18
649.398
494.362
507.838
461.401
318.536
301.255
289.399
327.369
293.203
288.29
287.953
287.967
288.144
287.929
292.549
293.161
287.947
287.96
415.365
449.443
387.149
468.836
497.521
294.309
363.379
422.195
389.913
377.258
498.648
495.075
378.537
430.233
1019.99
436.008
970.231
434.166
706.656
427.048
539.653
288.216
429.335
288.064
868.625
870.582
915.176
939.463
792.821
1015.82
917.724
925.988
786.252
856.504
715.439
884.543
751.697
736.314
845.82
782.611
736.361
658.169
641.124
603.814
637.091
576.109
584.648
605.13
578.667
548.928
526.248
584.436
572.021
539.072
520.18
503.167
525.865
524.575
371.699
465.008
805.607
805.798
808.777
812.336
807.095
809.132
805.676
948.35
874.375
877.899
888.301
807.132
810.579
887.811
309.421
306.479
328.806
321.532
306.197
328.887
309.776
741.902
793.163
784.108
772.475
779.963
759.374
745.528
832.498
818.334
783.008
767.306
762.728
815.984
714.498
304.385
303.707
328.356
320.269
306.423
302.133
327.382
575.478
627.012
599.073
612.152
598.311
606.546
573.634
613.29
609.655
570.159
564.873
543.878
607.838
501.889
292.562
295.569
317.557
309.14
295.388
293.148
311.131
567.48
598.941
555.649
603.372
563.821
605.596
557.481
509.416
514.023
525.084
460.475
441.255
473.213
437.744
288.099
288.643
291.751
290.279
288.393
288.241
289.295
490.835
669.08
528.904
661.754
430.687
553.606
507.19
695.865
437.083
582.229
566.385
616.894
509.255
553.937
470.415
410.731
423.948
478.579
421.46
480.544
471.769
287.926
287.935
303.388
321.538
287.963
298.411
287.929
335.426
287.977
288.851
304.731
309.326
287.935
287.945
815.718
818.495
809.2
815.664
821.884
809.166
815.12
741.196
778.705
780.451
781.389
663.583
665.853
780.721
809.077
800.063
798.976
809.265
815.753
819.902
834.096
802.442
827.781
807.827
812.063
782.441
738.175
780.097
780.407
660.269
665.947
774.753
807.172
784.675
794.936
798.744
801.865
803.546
796.955
804.187
804.457
797.362
801.835
803.538
801.776
800.83
804.035
799.998
793.664
793.888
800.098
803.758
815.261
805.986
801.63
807.966
807.756
797.372
799.683
803.5
800.397
788.277
804.236
795.287
792.874
800.16
787.385
796.813
791.731
796.854
783.055
791.009
789.059
725.978
863.006
864.232
817.942
667.774
671.686
816.159
874.269
909.805
861.857
876.572
792.466
806.464
853.083
854.004
707.707
833.179
809.406
659.564
668.192
791.641
402.759
402.75
358.37
348.305
404.205
359.166
400.939
403.852
348.766
402.892
360.201
404.251
359.892
403.844
295.976
296.264
293.893
293.908
295.923
293.597
296.355
308.839
321.664
304.892
328.811
305.711
328.966
307.87
295.289
293.381
294.438
292.301
295.306
293.049
294.329
757.668
831.043
785.498
786.442
796.115
803.928
747.214
764.56
679.441
727.206
716.755
641.263
756.128
603.191
735.918
761.861
777.471
719.543
703.252
736.977
708.236
641.693
756.504
693.12
651.715
674.896
624.842
574.721
663.453
506.347
553.112
613.6
679.765
612.615
663.748
627.69
729.529
765.825
770.64
724.116
687.999
721.812
661.593
638.703
709.24
690.705
636.579
672.616
615.435
667.256
620.462
799.465
654.635
757.201
721.667
640.704
761.205
615.783
721.322
705.417
660.785
712.334
595.504
654.661
657.726
591.783
711.364
666.512
677.291
559.12
587.995
631.961
400.521
399.316
360.205
347.157
402.477
394.871
360.034
398.829
346.071
386.565
358.857
390.535
359.657
397.602
291.951
293.387
291.438
290.911
293.176
292.248
290.559
301.708
318.826
297.993
322.302
300.226
325.5
298.6
290.823
290.077
290.157
289.092
291.133
289.756
289.889
585.205
669.886
602.62
623.329
612.102
642.799
577.191
560.228
536.007
510.709
550.364
471.192
575.719
448.361
562.698
574.166
588.607
548.865
568.746
609.04
616.36
555.293
625.619
562.626
560.44
537.885
496.861
491.309
535.501
429.528
435.517
528.154
547.308
526.936
533.974
539.481
558.155
576.652
581.91
551.872
564.871
601.144
596.134
555.853
597.609
560.431
562.171
572.027
601.087
598.755
575.987
598.958
576.446
570.555
547.307
533.19
538.588
544.531
557.611
563.301
563.81
556.168
533.802
625.006
587.647
548.911
530.471
588.391
503.366
542.152
524.253
548.833
528.083
451.882
471.532
497.028
491.876
555.07
527.9
514.402
466.924
480.988
486.297
394.846
382.977
356.685
340.873
396.537
380.276
351.586
390.61
336.635
377.284
329.633
378.805
342.711
381.932
288.622
289.385
288.597
288.398
289.159
288.8
288.268
290.479
303.879
289.568
296.506
291.083
303.644
289.119
288.271
288.152
288.139
287.985
288.39
288.078
288.073
555.967
612.71
552.068
604.571
557.032
613.359
551.301
535.074
492.318
490.786
522.647
427.491
524.88
427.185
534.089
524.748
536.176
523.796
555.821
611.766
638.601
561.738
619.99
551.576
565.579
545.295
535.628
497.035
519.438
442.799
429.831
526.181
530.238
529.797
520.826
537.216
577.54
602.911
579.314
616.86
573.159
611.173
584.37
549.05
532.835
546.274
533.882
561.912
566.467
558.782
569.89
569.529
611.027
632.636
568.962
614.813
558.816
580.086
579.799
628.787
640.112
600.024
621.482
587.675
590.627
547.556
542.085
532.165
557.716
559.989
580.423
568.541
570.363
486.001
484.827
507.089
459.929
464.034
467.12
467.818
509.232
501.515
504.139
459.12
450.567
441.979
462.31
490.535
494.265
480.591
463.93
448.681
464.057
467.513
341.947
372.723
313.37
305.6
366.476
359.084
299.088
313.558
295.605
313.155
289.682
337.965
291.542
295.682
287.962
288.014
287.949
287.98
287.981
287.993
287.955
288.145
289.045
293.119
289.394
288.416
288.445
289.636
288.145
288.422
293.348
289.884
288.407
288.162
289.82
480.743
431.065
430.966
480.578
441.264
490.367
475.44
452.812
426.834
386.986
401.687
433.409
453.721
391.278
469.92
415.133
422.359
490.636
421.591
485.392
467.948
449.332
422.51
390.048
406.876
419.054
451.794
407.032
444.333
410.064
385.59
391.044
415.699
436.036
401.076
299.175
297.52
287.927
296.338
287.934
287.926
290.479
287.927
287.926
288.082
287.928
287.926
427.924
329.565
287.928
421.927
287.937
307.619
297.466
305.626
300.957
291.883
336.054
301.91
322.687
335.134
288.08
334.96
288.293
326.471
287.945
316.11
318.386
287.931
293.53
292.638
294.23
287.962
288.549
367.678
485.96
403.886
312.748
308.434
300.728
298.856
308.308
300.33
312.939
308.852
306.547
296.982
294.947
310.624
305.227
295.185
294.751
298.317
290.103
289.443
298.72
295.297
289.127
288.206
289.034
288.021
288.028
288.603
288.441
287.982
449.628
429.02
420.046
492.352
413.345
488.695
461.577
308.521
288.827
288.353
303.198
298.764
287.943
287.997
312.404
298.302
307.459
298.49
308.026
299.606
311.749
306.257
293.423
301.1
291.473
303.425
293.278
302.811
327.889
337.631
318.031
346.348
319.612
347.342
325.261
314.496
315.646
344.489
333.899
320.917
311.948
341.081
291.601
288.721
290.37
288.17
292.517
288.505
289.625
306.287
331.217
300.587
323.841
306.785
334.676
298.159
289.705
295.03
309.869
307.434
292.476
291.196
298.007
288.213
288.42
291.968
289.798
288.487
288.172
289.577
288.729
298.262
291.628
290.246
289.609
291.961
289.448
410.734
401.403
358.393
379.711
391.033
424.408
368.819
525.778
440.976
495.778
532.165
505.739
547.164
541.822
537.351
447.691
499.801
551.453
508.421
559.93
549.119
528.421
574.336
468.381
458.275
563.62
518.36
571.171
517.662
612.797
616.023
460.072
526.685
530.13
457.389
301.038
371.513
370.65
336.202
288.758
331.685
288.406
287.935
287.933
288.427
311.233
288.123
305.854
288.038
489.713
585.955
563.838
445.443
513.948
452.552
500.156
360.286
290.333
381.407
327.987
288.252
307.424
287.981
288.187
287.93
287.97
302.401
288.001
292.034
287.939
458.126
500.73
484.566
430.535
458.233
431.383
448.042
307.601
287.941
309.656
299.274
287.95
288.601
287.927
287.929
287.927
287.936
290.026
287.932
288.036
287.928
424.071
443.922
471.329
397.932
448.956
419.04
444.705
287.926
287.929
289.122
288.111
287.927
287.929
287.926
287.926
287.926
287.927
287.954
287.926
287.928
287.926
510.04
489.231
497.587
487.568
479.012
477.194
505.269
330.533
293.228
337.711
294.332
341.714
295.903
294.464
311.517
457.284
426.167
461.977
486.008
448.713
343.29
463.304
420.399
454.305
462.389
488.183
452.336
363.817
287.927
329.686
288.007
476.424
309.601
288.555
287.945
328.34
396.334
288.029
480.662
322.473
292.268
287.961
612.683
512.327
603.975
460.333
524.892
529.003
458.451
469.252
541.373
520.178
438.977
471.522
485.685
434.085
451.638
474.68
472.027
429.562
446.351
444.256
426.938
402.96
443.462
384.056
359.38
385.363
424.899
314.785
374.694
424.678
475.037
453.428
413.214
461.678
384.977
436.943
560.291
561.66
694.947
456.763
689.03
458.326
426.073
540.153
507.686
643.358
454.172
579.402
448.122
382.241
484.749
473.398
529.009
436.365
509.746
381.2
323.684
297.34
476.237
499.697
295.247
302.831
287.937
289.478
497.512
434.905
464.651
295.226
290.402
287.935
287.927
287.928
295.743
289.175
287.927
287.928
287.926
528.454
562.339
487.964
543.283
523.761
559.195
564.422
295.349
346.154
337.656
294.178
310.169
289.951
289.278
319.769
291.982
328.33
291.786
316.904
290.825
292.496
296.218
294.674
326.072
329.613
294.759
340.131
296.389
287.946
287.938
295.712
309.441
288.719
306.279
288.514
292.38
287.929
289.637
299.324
288.202
292.274
288.007
287.932
287.929
287.956
288.92
287.941
288.057
287.928
287.926
287.926
287.928
288.026
287.927
287.935
287.926
295.496
294.137
321.539
316.844
293.198
323.419
294.251
329.902
327.447
294.892
312.45
291.232
309.691
292.114
316.982
292.694
291.105
287.931
810.07
834.191
807.372
860.672
826.515
470.214
846.987
854.3
810.958
864.964
868.811
836.533
797.957
886.775
903.717
844.648
857.253
877.863
751.803
799.794
838.71
840.325
720.179
862.58
849.822
684.27
833.43
826.575
883.729
879.908
685.291
906.356
732.703
846.12
889.872
444.846
895.534
909.095
932.636
940.986
943.062
915.765
939.171
858.73
875.365
878.355
785.415
730.155
895.027
895.597
690.485
656.569
842.456
825.043
828.302
858.979
825.957
830.156
852.972
860.242
853.436
861.134
829.449
828.322
834.272
821.859
852.355
833.236
844.327
867.383
849.81
836.369
883.648
870.092
888.315
884.219
838.304
859.373
843.225
857.119
880.798
864.66
858.81
907.682
865.609
902.16
869.575
900.628
896.516
888.93
877.083
873.158
875.913
866.066
874.217
837.835
853.3
892.288
834.405
854.32
870.957
853.105
860.834
829.137
856.268
801.998
836.234
831.262
857.843
851.584
832.829
860.961
824.241
859.909
825.133
841.556
805.912
792.429
817.294
776.237
817.302
760.134
848.821
883.521
868.593
870.443
845.166
832.468
885.394
863.071
786.17
783.625
824.395
748.052
751.437
835.266
876.827
902.836
898.329
916.276
862.018
901.393
877.679
895.353
783.66
788.304
862.528
748.817
848.914
753.523
887.093
798.289
797.281
874.715
782.571
766.004
874.88
901.166
899.503
905.466
913.456
930.401
924.051
938.632
934.696
926.786
890.614
900.079
869.868
872.778
846.594
831.599
885.852
821.845
815.325
900.485
806.621
801.319
853.78
799.726
782.444
637.467
843.35
617.804
835.993
814.852
820.986
815.127
819.304
826.432
830.278
844.011
823.34
842.143
851.123
826.824
835.615
862.143
884.623
858.277
862.935
829.643
881.873
857.682
852.673
864.152
792.317
808.069
781.327
835.332
819.203
837.952
818.442
789.116
752.169
699.763
821.791
780.156
733.454
821.075
688.617
780.875
716.748
778.37
722.416
825.014
837.038
788.029
715.215
692.553
830.045
802.544
718.378
845.343
708.873
828.19
751.8
819.96
730.569
481.28
561.228
287.927
287.926
287.926
287.928
287.926
287.926
287.926
287.926
287.934
287.926
287.93
287.926
287.927
287.926
287.926
287.927
287.934
287.928
289.69
287.927
287.926
287.93
293.132
287.927
287.926
291.017
287.928
287.926
287.926
287.935
287.926
287.93
287.926
287.927
287.926
287.932
288.597
287.927
287.926
288.206
287.929
287.926
287.926
287.926
287.926
287.926
287.926
287.926
287.926
287.926
287.926
287.926
287.926
287.926
287.926
287.926
287.926
287.926
287.926
287.926
287.926
287.926
287.926
287.926
287.926
287.926
287.926
287.926
287.926
287.926
287.926
287.926
287.926
287.926
287.926
287.926
287.926
287.926
287.926
287.926
287.926
287.926
287.926
287.926
287.926
287.926
287.926
287.926
287.926
287.926
287.926
287.926
287.926
287.926
287.926
287.926
287.926
287.926
287.926
287.926
287.926
287.926
287.926
287.926
287.926
448.216
609.655
459.908
843.051
871.714
685.936
804.145
745.752
538.35
578.718
490.102
538.383
599.145
677.085
637.394
628.474
637.71
682.353
711.104
874.259
835.98
883.739
918.178
876.893
884.303
903.002
658.463
760.511
796.461
569.744
475.673
437.075
458.875
495.015
464.128
467.295
456.446
848.955
772.649
739.324
665.998
712.095
823.584
810.596
736.251
689.423
762.234
692.824
728.712
765.896
818.362
718.95
742.595
809.968
755.74
726.019
815.352
754.52
724.62
731.356
446.113
617.115
591.788
719.756
617.787
480.17
418.827
649.327
560.586
852.697
958.065
952.392
932.871
807.97
996.871
1008.79
849.106
1040.2
958.589
1040.81
1041.77
1036.02
942.418
1025.39
1015.3
1007.25
925.673
914.356
998.881
916.958
984.671
886.822
926.547
1001.08
918.415
889.179
984.754
884.721
990.286
961.469
1022.56
941.225
899.786
1024.76
919.866
850.916
897.996
897.926
834.581
835.114
878.084
877.736
822.835
814.754
862.079
856.229
869.38
822.497
866.208
844.316
891.257
880.42
831.437
826.665
870.302
874.487
803.314
822.657
823.114
808.963
809.189
793.569
794.275
810.299
783.15
798.445
853.704
837.438
822.455
849.928
427.616
421.683
415.832
427.731
413.334
500.729
410.069
467.05
411.208
437.798
287.929
287.928
287.926
287.926
954.944
946.89
951.52
950.095
962.321
972.142
959.088
976.68
978.815
980.18
986.123
970.107
953.075
906.871
941.211
922.697
886.597
876.702
899.146
853.129
883.938
818.564
834.441
881.833
870.631
802.631
880.02
787.196
830.202
711.916
763.346
741.916
287.926
287.926
287.926
287.926
287.926
287.926
287.926
287.926
287.926
287.926
287.926
287.926
287.926
287.926
287.926
287.926
287.926
616.672
593.139
507.939
288.582
287.93
287.938
287.927
287.926
287.926
287.926
287.926
287.926
287.926
287.926
287.926
287.926
287.926
287.926
287.926
805.366
797.732
790.16
805.646
792.369
801.221
791.224
791.999
786.099
795.172
787.608
798.92
793.881
794.466
810.604
817.333
778.743
777.079
817.663
820.236
860.083
789.482
767.201
782.228
786.534
788.164
783.331
768.008
823.993
825.057
816.964
843.347
844.61
860.297
858.901
799.179
799.906
812.323
793.537
795.171
807.754
810.896
814.83
822.106
797.354
796.208
800.119
815.441
825.189
797.841
760.611
759.918
795.067
788.391
760.07
760.288
817.448
824.211
815.82
843.969
841.303
860.332
859.999
802.224
803.193
804.843
792.166
793.544
798.807
800.685
801.615
807.067
841.506
808.007
810.573
838.073
841.368
834.473
819.684
804.213
773.168
828.189
795.128
855.633
805.11
823.269
834.495
798.516
782.299
827.31
809.442
767.905
799.942
770.009
729.097
689.601
749.426
709.382
806.592
794.925
804.363
806.652
798.65
804.895
802.989
794.62
803.232
801.615
804.941
806.593
798.354
800.758
894.711
846.336
803.157
829.988
786.19
828.439
873.801
803.039
796.957
801.321
790.051
772.171
798.272
768.362
757.868
761.526
731.679
690.679
730.489
726.062
686.819
800.575
827.505
821.019
774.185
774.494
800.772
801.377
720.378
753.281
748.044
652.091
663.896
683.973
672.124
805.236
809.86
810.964
812.976
822.691
822.623
804.654
783.419
809.351
767.327
823.051
806.57
766.365
781.336
984.048
982.347
838.301
602.792
1048.86
1050.87
992.531
1039.68
909.913
949.109
857.981
712.718
738.651
665.768
1012.64
1054.35
1002.16
1051.62
1057.8
1005.72
1008.7
1017.05
1050.87
1057.44
1019.05
1057.31
1010.58
1026.58
1013.06
1045.96
1020.91
1009.87
1028.57
1016.24
1004.02
978.135
963.032
919.02
922.881
969.816
967.006
937.394
880.199
871.616
883.398
808.071
903.709
828.895
851.046
862.039
759.135
746.749
790.524
787.068
820.907
841.376
770.011
697.308
757.968
611.388
813.897
625.406
720.858
480.485
522.497
691.145
545.881
451.784
590.897
539.422
668.25
581.457
995.758
527.237
487.827
288.112
287.926
287.926
287.926
1085.03
974.995
491.143
428.089
362.39
802.918
1069.82
781.378
645.061
774.415
456.319
436.99
450.144
406.806
386.149
385.322
315.79
291.09
299.562
354.482
613.073
534.152
599.116
524.338
480.479
436.477
451.669
426.511
428.162
420.679
432.391
345.287
417.371
290.97
358.484
288.05
287.964
288.276
305.487
291.055
288.852
287.926
287.926
287.926
287.926
287.926
291.594
287.926
287.926
287.944
287.926
287.926
287.926
287.926
287.926
287.929
287.926
287.926
362.394
287.926
287.926
287.926
287.926
287.926
287.926
287.926
287.926
287.926
287.926
287.926
287.926
287.926
287.926
287.926
287.926
287.926
287.926
287.926
287.926
287.926
287.926
287.926
287.926
287.926
287.926
287.926
287.926
287.926
287.926
287.926
287.926
287.926
287.926
287.926
287.926
287.926
287.926
287.926
287.926
287.926
287.926
287.926
287.926
287.926
287.926
287.926
287.926
287.926
287.926
287.926
287.926
287.926
287.926
287.926
287.926
287.926
287.926
287.926
287.926
287.926
287.926
287.926
287.926
287.926
305.268
287.926
287.928
287.926
287.926
287.926
287.926
287.926
287.926
288.996
287.926
287.926
412.191
287.926
287.926
424.28
287.94
287.926
287.926
287.926
287.926
287.926
287.926
287.926
287.926
287.926
287.926
287.927
287.926
287.926
357.162
287.926
287.926
287.926
287.926
287.926
287.926
287.926
287.926
287.926
287.926
287.926
287.926
287.926
287.926
287.926
287.926
287.926
287.926
287.926
287.926
287.926
287.926
287.926
287.926
287.926
287.926
287.926
287.926
287.926
287.926
287.926
287.926
287.926
287.926
287.926
287.926
287.926
287.926
287.926
287.926
287.926
287.926
287.926
287.926
866.299
924.603
925.448
909.516
910.327
970.068
971.039
709.559
712.398
704.953
647.039
648.609
663.028
660.181
817.742
852.72
837.584
780.104
793.79
807.103
819.622
918.659
890.67
874.205
830.632
863.634
905.514
938.293
803.462
783.767
807.634
834.341
828.941
825.506
805.092
745.581
700.746
741.835
803.088
773.902
764.407
722.635
864.333
924.544
919.847
907.765
970.726
899.311
967.543
761.046
726.821
716.867
750.465
654.2
649.985
669.582
717.031
655.46
671.576
753.628
743.567
691.389
672.66
862.226
810.181
843.4
854.476
840.324
837.426
806.423
704.44
705.622
647.46
643.96
644.311
712.907
646.62
829.364
903.147
864.558
877.485
954.15
920.722
834.442
849.504
876.512
867.976
842.098
859.914
816.591
839.695
728.927
812.679
767.723
874.064
832.687
778.542
729.255
439.396
451.005
287.926
287.926
287.926
287.926
287.928
287.926
287.926
287.926
287.926
287.926
287.926
287.926
287.926
287.926
287.926
287.926
287.926
287.926
287.926
287.926
287.926
287.926
287.926
287.926
287.926
287.926
287.926
287.926
287.926
287.926
287.926
287.926
1051.21
1042.13
1018.85
1017.93
1027.85
1058.96
1023.56
1051.88
1059.27
1024.48
1027.29
1026.64
1048.91
1050.16
1021.49
1056.19
1023.65
1022.59
1043.89
973.19
787.791
577.403
1063.57
638.42
1045.9
627.708
725.976
1057.94
868.173
1042.48
826.017
1071.68
850.823
1019.61
602.601
887.579
500.969
739.07
1014.69
724.277
871.139
558.177
801.251
480.553
849.55
472.581
761.666
393.252
474.178
682.045
447.695
719.274
422.529
475.785
421.145
722.788
439.392
386.901
403.078
990.461
1072.69
996.296
1064.16
1073.17
998.376
988.03
797.518
617.439
819.612
640.435
619.81
822.763
793.914
986.342
1059.21
1053.63
975.241
1068.06
993.873
967.428
796.273
639.312
612.399
803.193
620.207
820.536
780.853
878.362
1026.05
937.841
979.714
930.205
985.883
884.191
701.777
593.981
765.528
568.69
746.769
566.86
714.28
820.613
932.385
898.995
764.972
940.387
823.048
765.995
656.61
533.318
506.917
611.857
536.295
660.836
616.28
688.534
865.34
714.979
817.7
722.424
839.488
672.454
545.18
480.409
569.852
446.942
579.135
455.662
533.584
656.155
790.024
798.449
596.005
819.182
635.167
616.229