/*--------------------------------*- C++ -*----------------------------------*\
  =========                 |
  \\      /  F ield         | OpenFOAM: The Open Source CFD Toolbox
   \\    /   O peration     | Website:  https://openfoam.org
    \\  /    A nd           | Version:  9
     \\/     M anipulation  |
\*---------------------------------------------------------------------------*/
FoamFile
{
    format      ascii;
    class       surfaceScalarField;
    location    "0.00205";
    object      phi;
}
// * * * * * * * * * * * * * * * * * * * * * * * * * * * * * * * * * * * * * //

dimensions      [0 3 -1 0 0 0 0];

internalField   nonuniform List<scalar> 
47728
(
-2.91993
-0.355019
0.61828
0.550117
1.421
-0.791168
3.85622
-3.9568
-1.57929
1.7076
-0.805299
3.56098
-3.90092
-1.72562
0.488601
3.59995
-0.33119
-3.91763
-0.00831596
-0.0201991
-0.1291
-0.00636638
-0.262787
-0.0449814
0.00857206
-1.38898
0.484482
3.89523
1.56571
-0.329316
-3.97295
-0.0207619
-0.718591
-0.114344
0.02819
0.075675
0.475954
3.97592
-0.32436
-4.00646
-1.39849
3.86144
0.642357
1.57134
-3.95611
3.95012
0.631938
-3.99808
1.169
0.398848
-0.271226
3.3909
0.393719
1.2723
-0.267595
3.08058
1.16479
0.526836
3.29519
0.517619
1.25908
2.93732
-0.801889
3.73418
-3.95131
-1.40971
3.80863
1.57633
-3.95829
3.91035
-3.98118
1.13982
-0.651162
-0.634014
1.20031
2.42811
1.15619
3.14692
1.23681
2.71622
0.489339
3.77492
-0.332066
-3.957
-1.72461
3.53634
0.645113
-3.89591
3.72797
0.648097
-3.9511
-1.3291
0.349403
-0.238259
1.94399
0.378832
-0.257646
2.5615
1.30067
0.494733
2.39426
0.450814
1.74915
-1.39308
1.4084
3.3594
-3.81573
-1.2871
0.90652
-0.738352
1.43571
3.87888
-3.95484
-1.2625
3.63469
-1.72201
-0.175107
-3.92342
-0.293051
-0.0508395
-0.00291685
-3.98628
1.16921
-0.145704
3.44642
-1.04034
-0.786716
-0.127113
-0.0100832
0.0847145
0.27532
-0.118036
-1.72824
3.64474
-3.92531
0.0051104
-0.00123026
-0.302763
-0.0530189
0.0243399
-0.00574553
-1.16851
0.133108
-0.174997
0.262335
-0.11108
1.38456
3.99158
-4.00558
-1.20608
0.0485833
-0.696094
-0.0524227
0.0695342
-0.100073
-1.73486
0.435498
3.61877
-3.92282
0.00738893
-0.0237194
-0.148307
-0.00891627
0.896299
-1.72871
-0.749769
3.34796
-3.82339
-0.277789
-0.0482821
0.00800432
0.0401665
-1.08136
0.123569
-0.165285
0.416856
1.39712
3.98615
-4.00967
-1.21849
1.07669
1.44741
3.81015
-3.95069
-1.28054
-1.50512
-1.19332
1.77565
-3.36678
-0.0185547
-0.00265193
-0.00203279
-1.91346
-0.363896
0.257724
0.285454
0.292881
-0.385092
-0.534172
0.0405369
0.0503786
-0.0740408
-0.0158226
-0.101296
0.00541447
-1.71033
1.02776
3.15706
-3.75634
1.3788
-0.17485
-4.00441
-1.20055
-3.91128
-0.14259
1.27809
3.1645
-0.17642
1.55744
-3.97818
1.37113
3.98679
-0.0317696
-3.9977
-1.19364
3.9136
-0.0308127
1.54957
-3.97318
1.16786
-0.0296231
3.47149
-1.03822
-0.0274428
1.27881
3.20345
1.37234
3.98798
-3.99748
-1.19438
-0.11473
3.91748
0.269608
1.56332
-3.98045
3.91551
1.55104
-3.97359
-0.0858605
1.17798
0.213517
3.46516
-1.04881
1.17051
3.47754
-1.04042
0.0871313
1.28178
3.21216
0.21424
1.28747
3.19096
1.40792
3.96287
0.575336
-4.00061
-1.23077
0.427511
3.90686
1.5741
-3.97976
3.87714
0.587735
1.58193
-3.9563
0.346243
1.1827
3.42632
-1.05588
1.18304
0.479449
3.34905
-1.06051
0.345266
1.28738
3.13048
0.474522
1.27972
3.01406
1.42103
3.92733
-3.98535
-1.24514
-0.750767
3.76441
0.916009
1.59654
-3.94837
3.83057
1.58997
-3.95163
-0.610147
1.16898
0.736399
3.03771
-1.06323
1.17942
3.22569
-1.06328
0.597615
1.26387
2.82895
0.711236
1.23537
2.55509
-1.34438
-0.124605
2.07146
-3.79945
-0.136343
2.6891
-0.176827
-3.95118
-1.71542
3.64569
-0.0283847
-3.91744
3.80554
-0.0296883
-3.93952
1.34945
-0.0249344
2.75182
-0.021723
2.13535
-1.71747
3.64886
-3.91771
-0.117291
3.8074
0.273963
-3.95021
3.80785
-3.93873
0.0860887
1.35293
2.76502
-1.35508
-0.0806343
0.195634
2.10941
0.209257
2.72807
2.14867
1.45141
3.70974
1.24272
-3.93807
-1.29411
1.07889
3.6726
1.59645
-3.92994
3.54595
1.23098
1.58276
-3.88662
0.851503
1.14612
2.75083
-1.0562
1.10155
0.942863
2.37296
-1.03491
0.805708
1.18607
2.23908
0.86562
1.10617
1.83029
0.433903
3.78992
-3.95703
-1.73725
3.56416
0.594959
-3.90317
3.74871
0.595331
-3.95118
-1.3468
0.31161
2.00826
0.335116
2.62868
1.32585
0.456761
2.47756
0.41957
1.83988
-0.756217
3.60045
0.914905
-3.90966
-1.73601
3.47875
-3.87093
3.6865
-3.93659
0.567453
1.28941
2.26822
-1.2321
-0.510739
0.574748
1.2196
0.660843
1.98438
1.60399
-0.795679
3.28522
-3.80527
-1.71946
3.43441
-3.85917
3.65812
-3.93347
-1.18834
-0.532111
1.05699
-0.597469
1.84395
1.25558
2.15653
1.47041
1.4403
3.5703
-3.89388
-1.2986
-1.36046
3.053
1.49011
-3.71193
3.35264
1.55007
-3.81518
-0.989748
0.901906
1.30198
-0.913121
1.02462
-0.990981
0.867342
0.980881
1.27429
0.799345
0.790288
1.06519
3.47869
-3.86474
-1.67404
2.85245
1.13357
-3.66247
3.29111
1.19751
-3.79647
-1.14432
0.597309
0.891504
0.725667
1.62574
1.01215
0.742439
1.09422
0.561717
0.62113
-0.692542
0.207982
-0.142994
0.648732
-1.03124
0.0446494
-0.0326968
0.238702
-0.163353
-0.0974219
-0.62484
0.0313915
0.0637811
-0.917507
0.0503964
0.660473
0.305189
0.260548
0.603839
-0.712427
-0.0735844
0.677251
-1.12043
-0.0162964
-0.167412
-0.0862453
-0.691123
-1.18882
0.134482
-0.000788095
-0.175576
0.722671
-0.0185156
-0.697848
0.824483
-0.0143803
0.692045
-8.18588e-05
0.0898683
-1.20657
0.136688
-0.178273
-0.0466636
0.724815
0.124646
-0.702384
0.72684
-0.701384
0.0408104
0.833524
0.69683
-0.811415
-0.00375267
0.0159393
0.0885076
0.111213
0.6908
0.0913006
-0.983368
0.108471
0.0499915
-0.148887
0.206402
0.713194
-0.697234
0.689296
0.282035
-0.683906
-0.757748
0.0257513
0.0814249
0.182763
0.671206
0.674184
0.244683
0.635024
0.0313252
0.0705747
-1.29993
2.511
-3.56762
-1.61089
2.36028
-3.53672
3.00131
-3.69959
0.828068
0.687286
0.739611
-0.457156
-0.591478
0.228998
0.392617
0.446001
-0.343057
0.594274
0.382999
-0.622078
-0.851352
0.0896003
-0.126341
0.65046
-0.65982
0.288327
0.568172
0.579603
-0.45402
-0.0321547
0.0291482
0.0435201
0.307806
0.503565
0.0573722
0.775515
0.613659
-0.0496939
0.0592847
0.0783598
0.0304848
-0.515237
0.0504781
-0.403456
0.0372197
-0.293379
0.457002
0.540138
-0.532055
0.114129
-0.081648
-0.453314
0.0163519
-0.0120261
0.166175
-0.115439
-0.0372207
-0.222335
0.00916777
-0.389893
0.0179834
0.47468
0.201653
0.129864
-0.56928
-0.0393016
-0.50023
-0.00566271
-0.0574127
0.52678
0.588498
-0.0096292
-0.0540975
-0.30961
4.84197e-05
3.63119e-05
-0.0048444
0.0314852
0.533001
0.593641
-0.0549249
-0.31325
-0.583543
-0.0205449
0.065765
-0.516524
-0.00225864
0.00945559
0.091387
-0.555453
0.104529
-0.478272
0.0150799
0.148526
0.420432
0.506987
0.192933
-0.0411305
-0.240365
0.00928546
0.0180151
0.128147
0.393754
0.516639
-0.565833
0.385524
0.4151
-0.487765
0.0335876
0.0302662
-0.0509254
-0.34179
0.0235247
0.0304068
0.294389
0.404775
0.239477
0.242511
0.289758
0.0166392
0.01924
-0.0285784
-0.177233
0.0170396
-0.316952
-0.242037
-0.30569
-0.126089
-0.214459
0.398309
0.216394
0.349425
0.436941
-0.273452
-0.0180584
0.0157562
-0.34917
-0.131943
0.116504
-0.0325425
-0.195972
0.212764
0.0197262
0.0201265
-0.0321273
-0.157506
0.0106928
-0.0180577
0.171925
-0.26134
0.154337
0.164567
0.177653
-0.0102305
-0.0859591
0.00563478
0.0109451
0.0946248
-0.200033
0.01203
-0.249026
0.0882503
0.181073
0.133655
0.158354
0.130291
-0.00961184
-0.0630537
0.00352677
0.00804953
0.0592262
-1.61088
-1.31924
2.8839
1.5095
-2.34375
2.32096
-0.638624
1.15521
0.773546
-1.8677
-1.0166
-1.11209
-0.131462
2.219
1.2478
0.254952
-1.74307
-1.73827
-1.7194
3.24751
1.9576
-2.50192
2.45242
-1.40563
-0.148036
0.281961
-1.99742
-2.8943
-1.46212
1.67568
3.77454
-0.183014
0.337496
-3.55286
-0.182309
1.40122
0.337252
-1.20783
0.265035
-0.130293
-1.39928
2.44011
-1.98194
0.309197
-0.138069
-3.83289
-1.8256
0.249287
-0.128258
1.10524
2.08495
-1.59139
-0.983487
0.283909
-0.128256
-3.52647
1.40242
-1.20908
0.94531
-3.7167
-0.767038
1.48486
-1.28636
-1.41932
0.402872
2.47554
-2.01922
-3.84472
-1.84156
0.481783
1.02239
-1.90033
-0.83803
-3.82175
0.827506
-0.677792
-1.47148
2.59572
-2.14531
0.376257
1.12158
2.13266
-1.64689
-0.998149
-3.5904
0.440095
1.41864
-1.22457
1.0583
-0.912738
1.19562
2.46073
-2.01394
-1.04569
1.21087
1.22112
2.52215
-2.07272
-1.06747
1.72819
-3.8081
-1.52941
1.60192
-1.40979
-3.76825
1.13231
1.51498
-1.31673
1.6659
-3.65475
-1.92076
-1.54302
-1.92345
-3.78843
1.20679
-1.49831
0.983873
2.64367
-2.18784
-0.125689
2.09386
0.247123
-1.60166
-0.991609
1.08947
2.04971
0.000525407
-1.55053
-0.972932
2.17563
-0.00358695
1.22191
-1.69399
-0.151586
1.19455
2.63336
0.286842
-1.05872
1.17508
-0.00969711
2.59595
-1.04367
0.157633
-0.0127205
1.32731
2.71735
1.34999
2.75586
0.295797
1.08543
2.04773
-1.54855
-0.967417
-0.126457
2.20837
0.250724
1.24192
-1.7302
2.17257
1.21929
-1.69073
-0.134261
1.1903
0.27038
2.62477
-1.05418
1.17252
2.59318
-1.03971
0.134468
1.32578
2.71389
0.273986
1.34623
2.74557
1.12872
2.18364
0.506802
-1.70888
-0.999417
0.381447
2.25181
1.26049
-1.7794
2.29659
0.514515
1.27349
-1.83121
0.407645
1.20568
2.66663
-1.06764
1.21579
0.545896
2.70999
-1.07207
0.414524
1.36353
2.78631
0.554212
1.37732
2.8282
-0.684246
1.24541
0.826356
2.83657
-1.0922
1.14036
2.24779
-1.78508
-1.00554
-0.647166
2.41342
0.784155
1.30577
-1.96389
2.35243
1.28847
-1.89581
1.22893
2.76701
-1.08002
0.693956
1.39311
2.88444
0.840688
1.41354
2.9553
-1.59356
-1.33777
2.87068
1.5279
1.80072
-2.33746
-3.75113
1.60979
1.9075
-1.43227
-3.56614
-1.86776
1.74187
-1.59447
-1.35568
-2.89303
-2.12111
-3.50466
1.42908
-1.34404
-2.25259
-1.95436
3.33493
-2.84889
-2.03471
-1.46635
3.27632
1.68848
-2.54069
-1.52592
-0.17328
3.06407
0.320491
-0.138716
2.3384
0.267182
-1.87559
-1.37728
2.41192
-0.0101814
-1.95308
2.29593
-0.00693716
-1.82818
0.164642
1.50097
-0.0155608
2.8541
0.307041
-0.0182236
3.02246
-1.37531
2.40792
-1.94842
-0.127332
2.3262
0.256459
-1.86029
2.29225
-1.82408
0.136487
1.49955
2.84977
-1.52179
-0.13981
0.288829
3.05046
0.280573
2.882
3.01754
0.391213
2.36537
-1.90308
-1.43455
2.5099
0.538486
-2.05631
2.40396
0.524998
-1.94642
-1.54028
0.435358
3.09283
0.423927
2.92328
1.55544
0.564848
2.96735
0.58017
3.14101
2.39456
1.17357
-1.94756
-1.02937
0.975847
1.26703
2.91809
-1.10801
0.929034
2.47373
1.32865
-2.02678
2.52987
1.08064
1.35498
-2.08062
1.29322
1.13461
3.01099
-1.12887
0.996879
1.4402
3.04039
1.16251
1.47241
3.14224
-1.4508
2.55136
-2.10169
-0.65924
2.50308
0.802027
-2.0558
2.4521
-2.00092
0.708384
1.57374
3.0262
-1.59983
-0.730851
0.893031
3.28798
0.862273
3.10227
3.20562
1.25274
2.58605
1.37327
-2.13452
-1.09441
-1.23867
2.65277
1.42324
1.40807
-2.19449
2.58769
1.38531
-2.13464
-1.30418
1.36403
1.48905
3.25683
-1.18547
1.32485
3.12112
-1.15427
1.34038
1.51128
3.26441
1.56064
1.5357
3.43957
-0.169671
1.27924
0.315236
-1.11825
-3.49929
1.38686
-0.0268607
-1.19541
1.26258
-0.0183116
-1.10464
0.175742
3.65393
-0.0203676
1.44235
-3.68037
-0.18703
1.6087
0.346604
0.325045
-0.027895
1.59377
-3.48946
1.38646
-1.1941
-0.134994
1.27756
0.281844
-1.11644
1.26085
-1.10196
0.137368
3.65044
1.44096
-3.67192
-0.130931
0.291066
1.61047
0.288451
1.45977
1.59433
0.953213
2.5537
-2.10537
-1.52849
2.69764
1.14599
-2.23346
2.60685
1.10963
-2.15296
-1.6319
1.06469
3.43029
1.02615
3.19566
1.67068
1.20002
3.30624
1.24884
3.49172
0.426453
1.29358
-1.13072
-3.62714
1.43627
0.59997
-1.24002
1.30671
0.57232
-1.14007
-3.7004
0.452398
1.62713
0.436792
1.47851
3.72485
0.585851
1.49593
0.618076
1.64301
-0.722015
1.34992
0.880397
-1.17166
-3.66813
1.4598
-1.26018
1.32469
-1.15362
0.740808
3.75659
1.52023
-3.79234
-0.79068
0.972624
1.69142
0.907956
1.55424
1.66407
-1.27424
2.74167
1.45273
-2.26394
-1.56524
2.77235
-2.28466
2.66493
-2.20494
1.71985
1.38802
3.45564
-1.45662
-1.78858
1.69706
3.57609
3.54395
1.60189
3.52165
3.83618
-0.191421
0.352653
-1.82386
-0.19631
0.366467
-0.191889
0.356946
3.75114
1.65289
-0.0223692
-1.8089
-3.81907
-0.0290999
-0.0287245
-0.0244023
0.140323
3.74836
1.65142
-1.80919
-3.8175
-1.6721
-0.144502
0.307421
-3.76799
-0.134395
0.300543
0.296512
1.05104
1.38361
-1.19627
-3.81106
1.54577
1.32702
-1.34685
1.42766
1.23801
-1.22832
-3.82193
1.16149
1.71932
1.08925
1.59916
3.83096
1.28863
1.65302
1.3571
1.74946
-1.29142
2.73685
1.47032
-2.26163
1.55029
2.659
-2.20256
-1.12668
2.75735
1.74627
-2.27827
-1.16481
1.41357
1.69488
3.44417
-1.22503
1.76076
1.62828
3.51584
1.48206
1.93815
3.52744
-1.27448
1.72412
2.03295
3.56744
-1.69389
0.467768
-3.79016
0.467436
0.449836
3.8069
1.71644
0.605261
-1.85681
-3.84583
0.657741
0.638201
0.631928
0.769005
3.82353
1.74842
-3.83495
-0.815434
0.999872
-1.8766
-3.83965
-1.7905
-0.806805
0.995249
0.946804
-1.44627
1.54569
1.67762
-1.32491
-3.82848
1.57787
-1.37865
1.48218
-1.2711
3.80951
1.50725
1.71592
-1.5525
-3.75773
1.77796
1.73508
1.7706
1.78084
1.74071
-1.6498
3.0373
1.86923
-2.41002
-1.66854
3.04584
-2.41426
2.86075
-2.33031
-1.88445
1.96499
3.56092
1.85556
3.56787
1.99417
2.14137
3.55816
2.23386
3.49598
-1.39536
3.06848
1.59844
-2.42797
1.96786
2.9146
-2.36376
-1.21068
3.16881
-2.46487
-1.26822
-2.23429
1.67901
3.53191
-1.43932
1.57742
3.57207
-1.34625
2.3432
1.83142
3.54971
1.91576
3.45921
-3.83133
1.18905
-1.84274
1.19575
1.13983
3.80377
1.90188
1.34823
-1.93845
-3.73773
1.38478
1.37894
1.40453
3.75368
1.95977
1.56905
-1.61834
-2.00921
1.83336
-1.56064
-3.69657
1.71904
-1.94103
-3.69934
1.79122
1.6107
1.92238
-1.38734
-3.69314
1.88732
1.76122
1.97171
1.83153
-3.69017
1.59131
2.04533
-1.43698
1.66052
2.16129
-1.44714
3.65063
1.87283
2.19167
1.70763
1.98767
-1.82682
3.33159
-2.63464
-2.12413
3.33707
-2.66049
3.25233
-2.50883
2.42266
2.08514
3.48725
-2.12422
-2.45575
3.3403
3.43195
3.44294
-2.04726
2.02102
-3.65727
1.83423
2.01053
2.05558
3.56506
2.1974
-3.42918
-1.77488
1.74258
2.16204
1.8929
-3.63268
1.53247
-1.41151
-2.37418
1.69696
-1.52126
1.69869
-1.49247
2.36804
3.54582
1.87959
-3.37398
-2.01912
1.45069
1.83775
1.6117
-1.13509
0.386651
2.26875
1.27305
-1.79998
0.557963
-0.420403
2.53562
-1.45353
-2.08745
0.708669
-1.47139
2.58212
-2.136
-0.524742
-1.16164
0.67231
2.38623
1.30846
-1.93231
-3.00011
-1.36279
3.81735
-0.783253
1.57004
-3.33647
-1.80647
-0.858364
3.81693
-2.94265
-1.48448
1.70126
3.79962
0.491827
-3.6114
0.492332
1.4187
-1.22442
0.377415
2.14775
-1.66528
-1.01185
-1.14946
2.3241
1.29297
-1.8639
2.20984
0.516729
-1.73898
-1.01959
0.425149
1.21484
2.68136
-1.07594
1.22962
0.565938
2.73582
-1.08516
0.436477
1.37255
2.80295
0.577264
1.39061
2.85618
0.659871
2.28005
-1.81614
-1.0282
-1.17473
2.44047
1.32464
-1.97861
2.34507
-1.89014
-1.03782
-0.713761
1.25934
2.87493
-1.1056
1.24376
2.80113
-1.09483
0.725427
1.4083
2.92287
1.42893
2.49259
-1.43202
-2.03984
-0.467553
-1.56869
0.613411
3.17291
-1.54939
3.11419
0.402711
2.3829
-1.92469
2.4311
0.539516
-1.97921
0.450823
0.592831
2.99783
-1.49052
2.62597
-2.1653
-0.688095
2.53142
-2.07109
2.48469
-2.03729
-1.61666
-0.768671
-0.74282
3.15228
-1.58984
3.2473
3.06708
0.460672
1.29861
-1.1352
-3.65194
1.43697
0.651673
-1.24024
1.3158
0.607405
-1.14805
-3.7128
0.506968
1.62582
0.474003
3.74493
0.62436
1.5065
0.672094
1.64193
3.75033
-0.760845
-1.18187
-1.48328
-0.843934
1.68879
-0.818686
-1.28687
-3.69919
1.45825
-1.26079
1.33612
-1.163
3.78143
1.53366
1.66388
3.84804
0.514381
-1.83969
0.53808
0.522929
3.84945
-1.72844
0.681077
-1.8547
0.713723
3.82038
0.648942
0.693561
3.84505
-0.815561
3.84047
-1.76276
1.89713
-0.869846
-0.89305
-1.8737
3.83754
1.10428
-0.639567
-0.584471
0.765183
0.699411
-0.647091
-1.92732
-1.47211
-1.21644
1.38582
-0.545007
-0.768736
0.940263
0.663331
-0.552242
-1.32193
-0.682209
-1.20621
1.76055
0.822105
-0.789601
1.10401
-0.893619
0.931638
-0.74328
-0.734087
1.56532
0.953658
0.859926
-0.828691
1.30652
-0.856415
-0.834622
-0.850362
0.972583
0.983572
-1.01184
1.75996
-1.01551
1.1571
1.15875
-0.348619
0.485308
0.451598
-0.19911
-0.363517
0.588752
0.47144
-0.253176
-0.153383
-0.334871
0.752801
1.04555
-0.472846
-0.627111
0.391017
0.664373
0.602721
-0.292347
-0.226662
0.712669
0.499412
0.616958
-0.282124
0.607024
0.873316
1.12386
-0.490769
0.727471
0.888391
1.17415
-0.587298
-0.617178
0.728728
0.749067
-0.451478
-0.768622
-0.814069
1.22957
0.936722
-0.708862
-0.560526
0.682732
-0.347439
-0.461261
-0.69056
0.788817
1.15768
-0.667263
0.520265
-0.255886
-0.397239
0.77031
0.657295
-0.351035
0.919846
1.22995
-0.746745
0.888755
-0.431291
-0.490627
0.460865
0.76727
-0.353306
-0.345212
0.815004
0.575905
-0.404466
-1.00735
0.707633
-0.578583
0.652185
-0.528366
1.21734
1.03076
0.777713
1.26373
0.836834
1.37083
1.4995
0.937988
-0.61061
-0.812537
-0.835911
1.08837
0.972197
-0.951456
1.06906
-0.703659
-0.936273
-1.58111
0.851439
-0.715066
1.20964
0.750441
-0.622378
1.06456
1.63537
0.881748
1.08455
0.993082
1.23334
-0.817408
1.01134
-0.634607
-1.13187
-0.970832
1.51379
1.1189
-0.971571
-0.906232
1.40362
1.0473
-0.69877
0.836613
-0.58777
0.880628
-0.481401
1.07171
1.32452
1.4349
-0.0313039
0.0426012
0.408081
0.164304
0.29682
-0.2785
-1.55107
-1.27075
-0.117404
0.233589
0.620072
-0.66044
-0.010636
-0.149949
0.0511784
0.751901
-0.239733
-0.691876
-0.0268914
0.791482
0.0800019
-0.873956
1.25537
-0.0647387
0.979746
0.147248
0.09835
-0.0610489
-0.632153
0.590986
-0.125663
0.23388
-0.117856
-1.53141
-1.2616
-0.0438147
0.383507
0.0563441
0.430155
-0.259459
0.220072
-0.119329
-1.08417
0.997711
-0.883651
-0.0928878
0.16447
0.441988
0.411505
0.0110044
-0.292827
-0.680548
0.152435
0.65673
-0.205081
-0.324622
-0.737257
0.844971
-0.437257
-1.57432
-1.28383
0.35962
-1.27908
-1.18404
1.71714
-0.547487
-0.964738
1.4152
-0.489866
0.919335
-0.794164
-1.15267
0.330405
1.01671
-0.901452
0.42414
0.28504
0.146335
-0.283223
0.0679823
0.321709
-0.0464055
0.543167
0.13884
0.182776
0.692116
-0.127006
0.65355
-0.585022
0.423999
0.126467
0.567471
0.0126019
0.700174
0.267079
0.751295
-0.584933
0.188539
-0.126575
0.799635
0.810814
0.279306
0.817612
0.8912
-0.401445
0.0155219
0.531981
0.285721
-0.0130368
-0.0520605
-0.0238996
0.580368
0.0746093
-0.589187
0.0194157
0.495495
-0.0293093
-0.271881
0.370028
-0.00545445
0.0275989
0.542396
-0.245376
0.173501
0.031965
0.486945
0.327415
0.651826
0.0309504
0.513651
-0.553614
0.0262597
0.744542
0.687248
0.364784
-0.00617299
0.51044
-0.243348
-0.0467103
0.22391
0.506775
0.257327
0.16794
0.478953
0.319341
-0.0835118
0.669151
0.566056
-0.566824
0.644267
0.510155
-0.546397
0.0790061
0.737198
0.68266
0.768581
0.732751
0.456299
0.515665
-0.0891833
-0.31168
-0.20129
0.60506
0.595892
-0.168702
0.525803
0.587588
-0.0924862
-0.364416
0.733782
-0.605986
0.714509
0.863775
-0.588631
0.379505
0.840958
0.981697
0.858951
1.06082
-0.90671
-0.0475868
1.0888
0.12062
-0.427759
-0.0367723
0.922347
0.0984833
0.00315065
0.0771395
0.0166759
-0.603609
0.561004
0.0289667
-0.0963466
0.36269
0.0341374
0.123417
0.854725
0.0215046
0.862839
0.0177236
1.03514
-0.594508
0.554205
-0.0850727
-0.0517678
0.402242
0.0693326
0.0813825
0.355942
0.130177
0.0814295
0.848012
0.857427
-0.884778
-0.0866297
0.154558
1.06438
0.13731
0.899773
1.02869
0.103885
0.483588
-0.0161509
-0.712036
0.721318
0.234304
-0.291051
0.567143
0.173326
-0.12318
-0.923763
0.239218
1.11747
0.208114
0.96507
0.950407
0.307397
1.02955
0.344161
1.16796
1.09674
-0.0605645
0.143193
-0.768755
-1.00898
-0.100188
1.12823
0.204723
-0.0947265
0.198393
-0.896708
-1.03749
0.979235
0.0118998
-0.871503
0.836858
0.0228829
-0.735763
1.19938
0.0168546
0.938082
0.00649084
1.095
-1.03509
0.974445
-0.864803
-0.106229
0.85664
0.182144
-0.749945
0.830603
-0.728075
0.100727
1.19556
0.933202
-1.23979
-0.115102
0.218224
1.11884
0.178867
0.963476
1.0916
-0.730538
0.792313
-0.375209
-0.255694
0.71735
-0.28837
0.651347
-0.217743
0.412663
0.97394
1.10246
-0.990192
-0.454774
1.16667
1.2289
0.26962
0.879407
-0.769802
-1.22984
1.02244
0.450731
-0.901716
0.885494
0.375843
-0.770088
-1.30033
0.332449
1.13957
0.270527
0.989934
1.36349
0.381597
1.00466
0.456883
1.15301
-0.574926
1.05163
-0.921869
-1.3226
1.03455
-0.90761
0.899325
-0.776091
0.498449
1.43985
1.02643
-1.5152
-0.583906
1.18868
1.04618
1.17046
-1.10682
-0.0832647
0.179174
1.40794
-0.0735584
0.161292
-0.107225
0.216713
1.35538
1.06263
0.0120435
-1.23569
-1.50262
-0.00107238
0.00276601
0.00854784
0.100956
1.35055
1.05844
-1.23267
-1.49682
-1.09129
-0.10355
0.197039
-1.38929
-0.115647
0.224681
0.185511
-1.12077
0.305213
-1.44061
0.344663
0.284601
1.49199
1.14254
0.401155
-1.30225
-1.61647
0.487545
0.470817
0.424043
1.61617
-0.520499
0.647482
1.33967
-0.598834
0.734485
-0.619262
0.761798
1.55492
1.1651
-1.32016
-1.66935
-0.986118
1.69199
1.12022
-0.877178
1.62386
0.974856
-0.844811
1.11209
1.11242
-0.970273
1.14496
1.2601
-0.999003
-1.13901
1.30084
1.2939
1.69199
1.11349
1.26277
1.66829
0.782084
1.36506
0.877537
0.909951
1.71654
1.23297
0.918219
-1.39309
-1.80771
1.05992
1.02364
0.962231
-1.32057
-1.10725
1.26498
1.83959
-1.05716
1.20772
-1.17428
1.33594
1.77308
1.27021
-1.4283
-1.86339
-1.60193
-1.37947
1.99782
1.4392
1.21109
-0.987805
1.09594
-0.870235
1.4011
-0.968081
-0.897424
1.13718
1.04082
-1.05871
1.8375
1.31896
1.21019
-1.79252
-1.6314
1.84358
2.1618
-1.518
-1.49793
-1.30103
1.56683
-1.29046
-1.54828
-1.44489
1.64049
1.9526
1.17053
-1.01957
-1.21255
0.968946
1.29495
-0.968041
-0.833819
-0.677814
0.90424
0.821265
-0.582914
-0.876198
1.0799
1.32221
-0.768208
0.829444
-0.474377
-0.550795
0.77549
1.00537
1.00648
-0.626438
-0.648901
1.09862
0.920543
1.08672
-0.736878
0.96739
1.25024
1.43024
-0.834286
1.11661
1.31521
1.50884
-1.20532
1.28672
-1.08231
1.20817
1.49634
0.996965
-0.718427
-1.08945
1.32747
1.28438
-1.00897
1.20749
1.18193
-0.866409
1.28678
1.39141
1.59854
1.47579
1.69609
0.87374
1.14799
-0.794343
-0.744858
-1.29695
1.37904
1.12366
-1.06824
1.2386
1.02192
-0.902262
-1.44815
1.11681
1.66881
-0.969486
1.04117
-0.901971
1.51881
1.19687
1.62331
1.28027
1.73735
1.77151
1.2716
-0.919657
1.18415
1.42219
-1.03367
1.46298
1.34612
-1.85891
1.22854
1.60154
-1.07257
1.11205
-0.967926
1.92244
1.27019
1.49878
1.39793
1.6491
-1.1943
1.44796
-1.15144
1.39304
1.34021
-1.02343
1.47131
-1.17779
1.59867
1.37293
1.70568
-1.46221
-1.68652
1.8909
1.81141
1.91339
1.37525
-1.52392
1.57145
1.51271
1.44567
1.99445
1.56112
-2.07601
-1.58415
1.77609
1.70692
2.04988
1.23358
-1.07456
1.80095
1.27926
-1.11543
1.33853
-1.16488
1.69936
2.01365
1.33571
-2.10989
-1.85597
1.52821
1.40645
1.45793
2.26091
-1.59616
-2.00588
-1.73793
-1.65447
-1.92329
-2.1784
-2.08324
-1.767
-0.552359
-0.528806
0.709073
-0.475438
0.722855
0.0638546
0.067713
-0.860333
0.160884
0.626695
-1.12144
0.332702
-0.983447
-0.875294
1.28955
1.40616
-0.329235
0.371574
-0.177873
0.498027
-0.232679
-1.13583
1.13585
-1.00186
-0.875255
-1.66999
-0.379458
-0.306248
1.34137
-0.91943
-0.76373
0.774796
-0.646206
-1.48429
0.102786
0.18803
1.09116
0.0483121
-0.756061
0.497192
-1.00881
1.06257
-0.825965
-0.54342
-0.428223
0.675429
0.10021
0.753883
-0.81716
0.530553
-1.03775
-0.656449
1.08096
0.687402
-1.1553
-0.545095
-0.436315
-0.251256
0.49557
-0.31626
0.25755
-0.301978
0.299446
-0.157385
0.489445
-0.0925646
0.45358
0.0117785
1.98108
1.93431
-2.52573
-1.51178
-1.47025
2.35601
-1.36838
1.80471
-1.91078
2.15718
0.729938
-0.486026
1.49843
1.72164
-1.19993
-1.56315
-0.0270693
-1.48019
-1.91004
-1.61625
1.6115
1.03902
2.30285
2.45155
2.40955
-2.98799
3.39777
-2.79846
2.06008
1.8326
2.37303
-2.53679
-1.59969
-0.913776
1.17085
1.25834
-1.67222
1.21257
-1.85657
0.702903
-1.37855
2.22027
-1.99273
2.36271
-2.53606
3.01334
2.48669
-2.78582
-2.89123
3.29241
2.39605
-3.98467
-3.36673
4.49835
-3.07044
3.86768
-0.017113
-0.694901
-2.84606
-2.51711
2.97844
2.81486
1.21586
-1.14498
-0.643636
0.407602
0.82144
1.44545
1.21061
0.0347227
-0.511529
-1.39043
0.541895
0.142452
-0.222592
0.0471107
-0.187801
0.203995
-0.0922948
-0.123047
-0.385872
-2.1256
2.03103
-1.81409
-0.674201
0.407758
2.04495
0.738472
0.642264
-0.675401
-0.391481
-0.499294
0.679106
1.19284
-0.54529
-0.739197
-0.522792
0.412932
0.686998
-3.9505
-3.41062
1.5099
4.35901
3.91974
2.46922
-3.20802
-3.51319
-3.05541
3.67047
2.42224
-3.77878
-2.89779
4.17937
-3.00319
-3.23104
-3.48846
1.73607
3.69833
-3.66994
1.68259
-2.93536
4.0607
2.47239
-3.26438
-2.74191
-2.97355
-3.1802
1.8681
-2.75782
-1.81026
-1.26228
-1.80026
1.3563
2.12412
-1.41784
-1.24204
-1.55151
1.31628
1.00924
-0.939226
-1.13618
0.688604
1.40065
-0.963988
-1.76027
-1.50754
0.902853
-1.09055
-1.13909
-0.940456
1.33096
-0.879859
-0.85562
-0.950051
0.640131
-1.06457
-0.813861
-0.756303
-1.70933
0.912086
-0.575519
1.29192
-1.50953
-1.66611
-1.48066
2.03642
2.46597
-2.45708
-2.08356
-2.77713
2.9538
-0.0404914
-0.110087
-1.90628
-2.05729
0.737067
-0.36779
0.855315
2.07391
0.695894
-1.77911
-0.553621
1.38636
0.848792
-2.16419
0.917123
1.29092
2.15708
-0.886589
-0.173263
-0.391604
0.299417
-0.402034
0.586974
-0.31884
-0.406017
0.77343
0.765556
0.697065
-0.512941
1.57166
-1.40367
0.1439
1.69586
-0.422599
-2.04924
-1.79673
2.05184
0.444448
0.649371
-0.212373
-0.573711
-0.489386
0.682486
-0.0238662
-0.186883
0.238337
-0.0924848
2.49096
-3.03683
-2.98724
3.52656
2.99257
-2.71558
-2.51512
1.96547
3.20629
-3.00817
1.88684
3.49608
2.74803
2.4795
-2.25951
-2.30187
-2.79658
2.49393
-2.56563
-2.89994
-2.68345
-2.53464
1.97113
-2.20556
-2.24063
2.03492
-3.49202
-3.08399
3.77641
3.46512
-1.01424
-2.41842
-2.56803
0.28687
2.75165
-2.93469
-3.12551
3.32965
-0.959016
-2.62497
-2.16564
0.243154
2.82002
-3.23338
-2.677
3.53943
1.22181
-2.5077
-2.8355
-2.05639
-2.30988
0.504484
2.41515
-3.43274
3.85278
-2.90877
2.47758
-2.82115
1.91792
3.20293
-3.27538
1.81312
3.68799
2.30478
2.4527
-2.5216
-2.75574
2.4682
-2.91494
-2.87614
-2.30434
1.95655
-2.80112
2.03979
-2.40183
-1.80587
-0.956475
0.864157
2.04516
1.96163
-0.462778
-1.98448
-1.52125
0.0900977
-0.703033
-1.52038
0.473644
1.27392
-1.10157
-1.31807
-0.576007
1.31853
-1.098
1.31599
-1.17553
-0.830517
-0.595647
-1.1754
-0.84585
-0.459081
-1.33265
-0.939152
0.862729
0.935409
1.18429
-0.408862
-1.36272
0.0882288
-0.700272
-1.6112
0.490195
0.546615
-0.5665
0.405154
-0.750284
0.542315
-0.765832
-0.523242
-0.901402
-0.592955
-0.670226
-0.366962
-0.546853
-0.494268
0.678827
-0.19419
-0.0153365
0.143363
0.153541
0.00558076
-0.209906
0.156512
0.552488
-0.130601
0.0981402
0.165596
-0.470115
0.354792
-0.304729
-0.40433
-0.542833
-0.262616
-0.127511
0.193376
-2.05516
-2.36818
2.02922
2.84199
2.45363
-1.7927
-2.68966
2.43382
-2.10999
-2.65077
-1.63546
2.56888
-2.01195
2.07456
-1.59669
2.45257
-1.74134
2.0707
-1.90435
2.34834
-2.51244
-1.64582
-1.33693
2.04666
-1.55832
-1.28864
2.2523
-2.46095
2.80871
-1.18188
-2.29739
2.53612
-2.88067
3.22101
1.38383
-2.08124
-2.47093
1.67986
-1.54494
0.928545
-1.60643
0.715892
-1.97626
-2.08234
2.11451
2.46343
-2.6808
2.41029
2.46522
-2.70034
2.48199
-2.79476
-2.32441
-2.07372
2.04487
1.77269
1.96441
-1.51475
2.07043
-1.86205
2.08297
2.10475
2.70027
-2.43162
-2.26649
2.87234
-1.23295
-2.24706
0.508262
2.60439
-2.72043
3.14366
-2.39328
1.38352
-2.28487
-1.50865
1.94952
-1.57646
0.870492
-1.6069
-1.95844
-1.99207
0.70616
-1.87149
-1.25534
-1.0934
1.31209
-1.73791
-0.227718
-1.83572
2.01512
-1.85029
-0.244338
-0.040733
-1.62273
-1.44219
-1.05975
-1.09472
-0.349965
1.28122
-1.07635
-0.845656
-0.341486
-0.914203
-0.81128
-0.211236
1.19834
-0.177614
-0.231095
1.74785
-0.230679
-0.209258
-0.45923
0.11868
-0.968903
-0.548468
-0.43457
0.575384
0.704726
-0.667008
-0.0711113
-0.938547
-0.291038
-0.208589
-0.283256
-0.505806
0.690239
-0.179356
0.0176962
0.148081
0.0220888
-0.116055
0.138975
-0.553605
-0.293117
-0.271793
0.208934
0.0911466
-0.0278613
0.199532
-0.512747
-0.289309
0.201903
-3.29167
3.44157
-2.4016
2.9445
-3.41066
2.37981
-4.34864
-1.65293
2.0917
3.45963
0.857427
-3.40581
-0.0724896
1.56345
-2.63718
-1.75769
-0.0518529
-1.69294
5.28928
5.10308
2.42032
-4.22629
-4.60761
0.662474
2.71611
-5.15717
-0.848558
-3.65933
0.66661
-2.66136
-2.47863
-2.70583
-3.84592
2.21021
2.52235
-2.31684
3.0139
-2.40816
0.439353
3.1
-2.52762
-3.38536
2.53141
2.2463
5.35554
5.2727
-1.29337
-4.25386
-4.51321
-1.752
4.64129
5.33981
1.84905
-4.65245
4.94401
5.38177
-2.05493
-4.87263
4.82408
1.58155
5.40818
-1.39064
-4.49391
1.35115
4.45293
4.33385
-1.96674
-4.68518
4.08136
0.888679
3.45231
1.94283
5.15329
-4.4643
0.261264
-3.54004
-9.21022
2.61255
-2.51414
4.16583
-1.8043
1.80625
0.226711
-4.07064
-2.10212
-2.94505
2.82228
-0.428836
3.28406
-5.27106
-4.39304
-0.198058
0.489696
-4.29274
3.08279
-1.62638
-0.155077
-3.65739
-2.65098
2.50936
-2.6265
4.20944
-4.22982
2.66674
-4.29814
4.75088
4.77512
-4.34362
-4.67695
3.63624
4.61439
-4.25496
0.202357
-4.20312
3.17367
2.07353
3.13223
-2.01699
3.47677
-3.68309
1.65001
2.60721
1.24053
-0.295868
4.51645
-4.12316
2.23239
-4.57074
0.307013
-3.39747
-0.944504
-2.25154
1.92679
-0.0666826
-1.6742
2.12154
-1.30505
4.31875
1.26836
-1.26144
-4.32827
0.321028
2.8346
-1.25521
-3.82405
2.68943
-0.475494
1.27367
-3.91631
0.98598
-0.353683
-1.43542
-0.325331
3.50564
0.262279
-2.35136
-2.36963
2.86444
1.74108
-1.95948
3.15738
-0.353578
-3.25794
3.72808
-2.28036
2.97466
-3.51742
-0.449908
-1.94797
-2.39212
2.7762
-2.44392
-3.42035
1.09289
2.12114
-2.37128
1.06243
1.36756
2.8391
0.669107
2.65148
-3.56646
2.50321
-1.89079
-0.813899
2.88494
-2.37054
-3.78479
2.51477
1.84207
-3.5884
-2.7258
-1.31988
-1.29079
-1.13285
2.56248
-1.13023
-0.824622
-2.80171
2.40814
2.11
-0.978217
-3.02124
0.628388
2.39707
-0.858985
-3.60646
-3.42883
2.21414
2.6964
-3.08552
1.98475
2.78861
-3.14272
0.404134
-2.27224
-2.34147
3.09965
-3.19692
3.68111
2.88647
-3.40986
-2.18045
2.77947
0.869532
-0.134608
4.53139
-4.02643
15.228
-3.92032
-0.273388
4.4285
0.00446229
-0.131908
1.10909
0.77872
4.60999
-4.02984
0.595775
3.44322
4.60687
-0.497385
-2.25037
-4.01183
1.38503
0.199092
3.97993
-1.0951
-3.43286
-5.45574
0.486412
0.435885
-0.101734
-5.40585
0.0664035
7.47844
-5.82301
-0.792015
1.13373
1.34563
3.66979
-6.02361
-1.01932
-3.51253
1.04908
-4.44805
-1.65625
4.62223
5.21614
-4.46988
-3.85956
-10.2049
2.77605
3.31529
-3.8935
-1.42117
1.14673
-8.0462
4.5576
5.36519
-3.71097
-4.77548
0.105224
8.84524
1.66188
-2.02228
7.41626
2.62583
-5.2824
-1.65386
2.38346
3.28154
-0.383151
-1.97491
1.8567
3.25923
4.65842
-2.1901
1.24029
-4.07701
-0.862191
4.82155
1.05472
-4.21384
4.77477
-1.37321
3.577
-4.14487
3.39343
0.634189
-0.600468
-2.26627
5.21762
-0.969979
-3.27325
4.40154