/*--------------------------------*- C++ -*----------------------------------*\
  =========                 |
  \\      /  F ield         | OpenFOAM: The Open Source CFD Toolbox
   \\    /   O peration     | Website:  https://openfoam.org
    \\  /    A nd           | Version:  9
     \\/     M anipulation  |
\*---------------------------------------------------------------------------*/
FoamFile
{
    format      ascii;
    class       volVectorField;
    location    "0.00205";
    object      U;
}
// * * * * * * * * * * * * * * * * * * * * * * * * * * * * * * * * * * * * * //

dimensions      [0 1 -1 0 0 0 0];

internalField   nonuniform List<vector> 
16472
(
(46.2848 30.1201 178.842)
(107.114 69.9466 395.488)
(132.56 70.8899 373.828)
(144.276 32.909 376.875)
(1.21124 0.620019 3.80903)
(2.79922 0.643636 8.90291)
(118.484 32.5696 398.411)
(7.80731 2.09273 30.0133)
(104.113 32.0205 404.414)
(119.166 45.1609 395.905)
(104.942 44.3743 402.498)
(89.2376 26.972 369.882)
(98.9146 26.7421 353.532)
(89.1875 37.3441 364.649)
(98.3214 36.9563 346.519)
(120.609 70.7707 386.469)
(119.897 57.8756 391.96)
(105.954 56.9722 399.516)
(88.2972 57.4773 345.577)
(95.0834 55.7054 320.433)
(88.9498 47.5538 356.787)
(97.1621 46.72 335.843)
(132.295 32.9151 389.562)
(143.911 45.5806 372.317)
(132.582 45.6343 386.109)
(107.138 24.2171 291.355)
(105.688 25.9549 328.625)
(104.025 35.6293 318.729)
(103.974 32.8933 278.237)
(108.845 -117.443 359.824)
(108.2 -65.8821 396.965)
(144.162 20.3349 379.222)
(3.18029 0.429632 10.1442)
(89.0655 16.789 372.72)
(8.70786 1.40237 33.5668)
(144.672 -15.7729 379.904)
(3.31571 -0.322553 10.5471)
(12.7529 -1.50163 55.2486)
(103.746 -14.9584 405.394)
(6.97285 -4.18551 28.9723)
(145.067 -28.5369 378.209)
(1.42364 -0.679793 4.44352)
(143.355 -66.3354 359.771)
(3.00375 -0.577185 9.51195)
(11.9512 -2.82133 51.3268)
(104.747 -27.1903 405.188)
(109.49 -79.5115 391.854)
(118.307 -96.5045 271.978)
(0.151846 -0.126234 0.473359)
(28.1334 -26.9719 95.2715)
(5.11317 -3.68085 21.0421)
(0.936228 -0.530197 2.91525)
(141.035 -77.7921 348.17)
(103.295 20.0214 405.001)
(99.0665 16.5835 357.484)
(117.709 20.2762 399.435)
(102.712 8.1587 404.8)
(117.071 8.18047 399.336)
(88.8855 6.88955 373.786)
(98.9877 6.67691 359.029)
(102.795 -3.08276 404.869)
(118.174 -15.3881 399.873)
(117.17 -3.26218 399.467)
(89.7463 -12.0046 373.802)
(89.0729 -2.13818 374.107)
(99.2121 -2.26214 359.46)
(99.7712 -12.1294 358.818)
(105.699 -39.7435 403.385)
(119.126 -27.9084 399.282)
(119.952 -40.6883 396.963)
(90.2833 -22.549 371.897)
(90.5768 -33.296 367.471)
(100.04 -22.64 356.006)
(99.8407 -33.2207 350.103)
(106.84 -52.5806 400.64)
(121.84 -66.8185 388.501)
(120.873 -53.6161 393.433)
(90.4369 -54.4276 351)
(90.6806 -43.9283 360.675)
(99.1588 -43.4575 340.947)
(97.6622 -53.1302 327.601)
(108.931 15.0378 299.295)
(106.505 16.085 334.43)
(131.763 20.4133 391.168)
(143.703 7.99596 379.702)
(131.148 8.13858 391.322)
(106.71 6.35051 336.865)
(109.632 5.81987 302.891)
(143.873 -3.45359 379.907)
(132.232 -15.6738 391.717)
(131.288 -3.395 391.467)
(106.963 -2.31072 337.443)
(109.875 -11.4337 301.597)
(107.3 -12.0093 336.201)
(109.947 -2.23558 303.667)
(110.342 -93.1393 384.357)
(122.465 -80.0858 381.658)
(122.304 -92.9546 372.32)
(89.3844 -64.4064 337.032)
(86.7926 -72.922 316.601)
(94.7912 -61.6608 308.698)
(89.85 -68.0815 282.74)
(132.961 -28.376 390.629)
(144.982 -41.419 374.195)
(133.473 -41.2893 387.532)
(108.721 -20.9481 295.405)
(106.983 -22.2203 331.85)
(105.851 -32.3204 323.52)
(106.257 -30.1112 284.336)
(134.025 -67.1049 376.489)
(144.501 -54.0576 368.153)
(133.872 -54.1981 382.859)
(103.777 -41.7139 310.864)
(95.9642 -44.372 244.033)
(100.381 -50.0413 293.144)
(102.164 -38.1217 267.465)
(141.52 69.8588 356.097)
(143.089 57.9811 365.516)
(132.728 58.3226 380.929)
(91.9779 45.5252 233.032)
(97.2368 52.0266 284.212)
(101.363 44.4881 304.253)
(99.0709 40.2234 258.924)
(110.289 -106.119 373.998)
(117.414 -113.994 341.598)
(120.824 -104.643 359.504)
(74.035 -79.7433 248.196)
(82.0232 -78.7102 288.077)
(81.8213 -70.7498 246.697)
(69.7635 -67.6573 200.52)
(133.498 -79.701 367.768)
(136.91 -87.6931 331.491)
(131.72 -91.3824 355.831)
(86.9912 -47.9943 213.832)
(94.9125 -56.5319 268.645)
(86.5487 -59.9836 235.429)
(74.1589 -47.5633 176.17)
(54.8486 14.6683 194.955)
(11.067 3.29565 48.0566)
(55.8788 16.6738 235.108)
(6.62081 2.49836 25.3343)
(9.53177 3.98352 41.1079)
(53.7925 22.4017 221.646)
(51.746 19.3746 180.117)
(56.8166 9.29061 204.688)
(12.1936 2.20468 53.1881)
(57.1471 10.5291 243.798)
(12.8355 0.905767 56.0565)
(57.8108 4.34924 248.276)
(57.827 3.74492 209.681)
(9.22652 0.555365 35.5852)
(13.0376 -0.183693 56.7989)
(58.0902 -7.27508 247.031)
(58.1209 -1.11133 249.411)
(58.1893 -1.07873 210.863)
(9.11055 -0.995329 34.9158)
(57.8661 -6.64353 208.033)
(9.37674 -0.129426 36.0845)
(10.6228 -3.82473 45.1234)
(57.4375 -13.8623 240.634)
(55.9819 -20.2335 229.443)
(8.42206 -1.82618 32.069)
(56.6027 -12.429 200.642)
(54.1664 -17.799 188.04)
(7.35011 -2.42157 27.7795)
(121.649 -107.712 314.13)
(129.885 -94.6433 307.238)
(128.096 -101.21 338.982)
(74.2516 -58.6553 193.719)
(38.2246 -31.4111 86.0694)
(57.4489 -42.061 132.194)
(57.3881 -50.8506 144.055)
(49.7093 -29.7326 191.154)
(8.88724 -4.27626 37.3287)
(53.4936 -25.6752 213.042)
(50.3899 -21.9554 170.122)
(4.64414 -2.54088 17.2713)
(45.1503 -24.4926 147.393)
(6.03203 -2.64827 22.6171)
(50.6809 27.054 202.962)
(5.91496 3.87155 25.0717)
(7.74352 4.15709 33.117)
(5.29322 2.56992 20.1285)
(3.9722 2.3539 14.9869)
(41.5577 24.3912 135.947)
(47.3421 22.7665 160.236)
(36.7066 8.34395 97.0454)
(4.94691 1.21707 17.1972)
(48.6199 11.8596 147.522)
(2.2953 0.748921 7.26966)
(4.14705 1.44327 14.3557)
(44.6064 15.3074 132.811)
(31.9243 10.2389 83.4219)
(39.908 5.42599 106.531)
(5.55343 0.810038 19.349)
(51.2286 7.54538 157.459)
(52.5788 2.95072 162.639)
(3.39101 0.155383 10.8298)
(5.89597 0.306132 20.5518)
(41.5475 2.05588 111.477)
(52.9763 -0.932045 163.817)
(3.44242 -0.0433831 10.9832)
(41.037 -4.09828 109.46)
(5.79507 -0.592894 20.1012)
(52.3374 -5.55289 160.704)
(5.98776 -0.079425 20.8362)
(41.952 -0.687816 112.535)
(38.5474 -7.37576 101.819)
(5.31282 -1.07639 18.3377)
(50.4493 -10.2435 152.895)
(47.1193 -14.2943 140.08)
(2.53723 -0.736072 7.98997)
(4.57989 -1.40467 15.7125)
(34.404 -9.82839 89.6355)
(44.3452 -31.8193 163.674)
(37.2436 -31.2356 131.48)
(3.4806 -2.92756 14.1896)
(3.32749 -2.17992 12.2655)
(38.1859 -24.8556 120.233)
(29.3126 -22.2757 89.2624)
(2.18074 -1.6669 7.97051)
(1.74049 0.730394 5.48833)
(3.2517 1.45742 11.1925)
(2.36479 1.29628 8.0774)
(19.1021 9.62741 49.823)
(31.7761 17.1666 90.117)
(38.9942 17.2358 113.406)
(25.8546 10.6726 67.1779)
(42.157 -16.9793 122.391)
(2.7659 -1.40674 9.35645)
(22.0484 -10.3561 56.8387)
(1.98345 -0.763026 6.21147)
(35.4709 -17.7937 100.325)
(3.69208 -1.50665 12.5841)
(28.7022 -10.8615 73.99)
(2.15922 -2.07061 8.71844)
(1.18635 -1.27275 4.76874)
(17.9975 -19.3337 60.1448)
(19.5321 -16.9358 59.0138)
(0.66864 -0.649114 2.43884)
(1.27889 -1.11138 4.655)
(10.9117 -10.5883 33.6108)
(1.89873 -1.15293 6.3836)
(15.1426 -8.49707 39.4245)
(27.221 -16.3493 75.4627)
(18.5318 -12.9595 51.521)
(0.562984 -0.370868 1.75323)
(1.1782 -0.83345 3.95186)
(9.34588 -6.08345 24.8029)
(137.429 -113.273 258.744)
(86.697 -56.4681 209.726)
(94.0323 15.4517 198.43)
(148.905 -147.338 278.002)
(119.358 17.0818 222.595)
(125.5 20.9094 325.036)
(104.104 20.8751 382.017)
(118.804 -15.774 221.224)
(154.923 -17.9025 395.608)
(83.3881 -15.1779 184.196)
(104.214 -16.5612 381.061)
(110.539 -68.4142 393.327)
(120.458 -26.7335 224.837)
(156.123 -31.6552 395.721)
(160.438 -74.5066 387.893)
(125.031 -60.2103 236.996)
(84.5974 -25.0231 189.337)
(105.462 -28.9473 383.863)
(89.6443 -78.7718 223.976)
(91.5839 -90.7823 229.933)
(120.7 -130.609 386.935)
(113.088 -83.0472 395.844)
(158.88 -129.478 352.569)
(161.709 -89.3333 382.386)
(127.365 -72.5306 241.389)
(84.0084 14.9598 185.155)
(82.3704 5.53644 180.391)
(92.0615 5.92417 193.796)
(89.971 17.5994 236.011)
(88.5856 6.82902 231.944)
(99.8676 7.20456 244.09)
(101.577 18.1659 248.14)
(81.9748 -5.58844 180.197)
(93.5465 -15.1244 197.254)
(91.8112 -5.33367 193.489)
(89.5995 -16.2802 235.154)
(88.316 -5.28413 231.714)
(99.7267 -5.17889 243.767)
(101.265 -16.4045 247.141)
(84.9045 -35.4862 194.964)
(94.9677 -25.2615 201.854)
(95.8367 -35.9898 206.661)
(90.7441 -27.1136 239.636)
(91.3474 -38.2861 244.313)
(102.587 -27.5257 251.333)
(103.589 -38.8911 255.59)
(93.3927 -60.449 257.302)
(85.6358 -45.8902 201.949)
(98.3055 -57.1943 219.131)
(96.9652 -46.5181 212.684)
(92.2217 -49.3084 250.306)
(104.796 -49.9815 260.943)
(106.299 -61.3837 267.017)
(114.77 -135.905 257.937)
(122.056 -145.994 377.555)
(153.032 -137.881 335.835)
(99.7537 -114.502 199.573)
(112.352 -171.22 324.832)
(167.665 -192.983 312.033)
(126.457 -174.025 282.423)
(129.842 19.7151 272.551)
(105.855 16.1601 210.927)
(116.978 6.82246 218.348)
(103.698 6.33533 206.425)
(113.037 7.60544 256.263)
(114.929 18.8506 260.28)
(127.757 8.05481 268.687)
(116.828 -5.19271 217.922)
(105.403 -15.3439 209.564)
(103.529 -5.21667 206.039)
(112.924 -5.1435 255.89)
(129.475 -17.1739 271.395)
(114.64 -16.7261 259.137)
(127.643 -5.16896 268.286)
(106.971 -25.8911 213.642)
(121.696 -37.7534 228.415)
(108.183 -36.7937 217.737)
(130.999 -28.9899 274.978)
(116.086 -28.1795 263.021)
(117.273 -39.6778 266.829)
(132.307 -40.7116 278.442)
(88.0244 -67.3312 217.371)
(94.9458 -72.0306 264.662)
(100.013 -68.4461 225.243)
(102.044 -80.4131 230.668)
(96.8932 -84.4009 271.747)
(108.281 -73.4966 273.395)
(110.663 -86.4188 279.737)
(123.101 -48.6095 232.693)
(110.997 -58.3913 228.101)
(109.458 -47.3575 222.857)
(118.629 -50.9372 271.606)
(136.373 -65.0203 287.674)
(120.52 -62.8418 276.948)
(133.973 -52.4465 282.755)
(93.9548 -103.4 236.071)
(107.129 -105.94 242.17)
(104.309 -92.8219 236.135)
(102.083 -111.816 286.137)
(99.2133 -97.5773 278.693)
(113.558 -100.192 286.473)
(117.21 -115.243 294.114)
(95.8755 19.4936 297.976)
(103.05 8.41738 379.517)
(94.6388 7.7418 294.538)
(108.209 8.08895 306.911)
(120.016 21.4048 391.074)
(109.659 20.1175 310.461)
(118.834 8.62186 388.966)
(102.976 -4.08478 379.133)
(95.7089 -16.803 297.032)
(94.4722 -4.8201 294.192)
(108.085 -4.84727 306.545)
(120.1 -16.9306 390.442)
(109.523 -17.1502 309.388)
(118.844 -4.13799 388.651)
(113.089 -70.2265 233.027)
(130.047 -85.2799 246.192)
(115.389 -82.5776 237.922)
(139.314 -78.4248 293.2)
(122.946 -75.5985 282.606)
(125.869 -89.1264 288.809)
(142.927 -92.7464 299.411)
(96.9298 -28.3265 300.939)
(106.754 -41.6394 386.518)
(97.8527 -40.0882 304.947)
(121.407 -29.7309 392.629)
(110.92 -29.0192 313.199)
(112.177 -41.0614 317.163)
(122.807 -42.8265 394.129)
(100.938 -64.2412 317.085)
(108.413 -54.658 389.833)
(99.1593 -51.881 310.313)
(113.838 -53.1815 322.659)
(126.966 -70.5296 396.368)
(116.148 -66.0544 329.834)
(124.656 -56.319 395.53)
(121.499 -109.181 249.563)
(133.34 -98.7064 251.85)
(118.117 -95.4291 243.252)
(129.501 -103.714 295.597)
(153.951 -126.133 320.042)
(147.617 -108.411 308.209)
(134.175 -119.82 304.609)
(143.705 21.8336 341.921)
(154.775 22.5374 395.544)
(137.102 21.9797 396.087)
(123.812 8.47741 321.327)
(153.594 8.97876 394.676)
(135.87 8.81772 394.592)
(141.855 8.88082 338.333)
(123.709 -4.89909 320.879)
(153.624 -4.32758 394.658)
(143.436 -18.1733 340.748)
(137.209 -17.4108 395.829)
(125.263 -17.5876 323.826)
(135.876 -4.22158 394.454)
(141.742 -4.97807 337.896)
(103.248 -77.3454 325.408)
(115.816 -98.4516 396.094)
(106.237 -91.5833 335.049)
(129.524 -85.4248 395.746)
(119.213 -79.9235 338.251)
(123.034 -95.0416 347.387)
(132.067 -100.893 392.676)
(110.595 -120.183 249.248)
(96.82 -117.018 242.874)
(100.223 -131.986 250.934)
(105.757 -127.589 294.703)
(121.918 -132.067 303.982)
(110.499 -145.436 306.234)
(128.244 -151.612 318.619)
(145.227 -31.0496 344.317)
(138.551 -30.7068 396.942)
(126.86 -29.8914 327.706)
(128.403 -42.3214 331.917)
(157.344 -45.6191 394.271)
(139.959 -44.2397 396.94)
(147.099 -44.0581 348.241)
(130.6 -55.0556 337.43)
(143.885 -72.6672 394.509)
(158.838 -59.8764 391.751)
(153.239 -72.0649 358.874)
(133.561 -68.6797 344.3)
(141.742 -58.1535 396.275)
(149.799 -57.5803 353.139)
(114.638 -124.716 355.901)
(118.454 -114.449 393.173)
(110.015 -107.255 345.422)
(127.663 -111.663 356.545)
(135.672 -131.949 378.477)
(134.281 -116.594 386.945)
(132.631 -129.538 364.808)
(130.9 -140.988 266.811)
(142.571 -129.39 267.333)
(125.712 -124.243 257.219)
(161.652 -146.062 333.241)
(140.475 -138.265 317.749)
(148.311 -159.328 332.508)
(169.437 -167.177 344.145)
(119.978 -153.668 268.792)
(104.379 -148.705 260.797)
(109.613 -167.883 273.085)
(124.347 -190.502 338.779)
(116.926 -166.572 322.612)
(135.99 -174.045 334.512)
(143.266 -197.407 345.616)
(146.096 -87.6629 391.074)
(157.253 -87.5546 364.506)
(137.388 -83.4347 351.91)
(141.809 -99.3897 359.538)
(162.157 -103.934 374.829)
(148.024 -102.898 385.507)
(161.593 -103.865 369.44)
(146.559 -116.424 366.354)
(169.606 -138.197 368.614)
(148.814 -131.85 367.239)
(161.552 -117.701 365.106)
(149.06 -117.923 377.586)
(165.888 -120.895 371.194)
(151.254 -134.218 370.275)
(119.601 -143.555 365.203)
(135.527 -145.709 367.224)
(137.431 -148.187 369.829)
(121.739 -159.243 365.111)
(124.215 -163.066 370.051)
(141.433 -166.823 368.092)
(133.119 -156.594 352.592)
(157.14 -168.184 293.588)
(145.67 -182.388 296.17)
(137.321 -159.939 278.749)
(156.027 -181.597 344.383)
(177.776 -204.265 338.745)
(161.925 -202.99 345.561)
(175.774 -187.96 346.294)
(171.845 -154.84 361.703)
(146.527 -143.45 353.85)
(155.309 -152.23 368.607)
(157.861 -169.211 361.549)
(143.549 -141.387 310.241)
(170.885 -168.398 350.933)
(140.857 -150.791 335.917)
(118.775 -168.537 348.621)
(129.195 -197.455 356.748)
(127.821 -182.026 366.843)
(143.708 -183.536 359.984)
(117.041 -160.346 299.534)
(142.268 -195.407 346.678)
(127.248 -162.122 332.524)
(95.975 25.7036 203.727)
(123.192 39.1556 231.211)
(124.758 50.477 235.895)
(98.5338 47.7527 216.225)
(117.242 69.7151 334.526)
(154.377 76.3042 362.132)
(127.38 33.2424 329.647)
(105.452 33.173 385.335)
(85.7315 25.0243 190.988)
(97.4101 36.4772 209.65)
(86.5943 35.777 197.74)
(91.4723 28.5387 241.092)
(92.4545 39.7343 246.863)
(103.304 29.3419 252.939)
(104.653 40.6498 258.238)
(87.4051 47.1285 205.203)
(99.8141 60.0657 221.859)
(88.2999 58.7143 212.49)
(94.4396 63.3657 260.481)
(93.3971 51.1436 253.526)
(105.964 52.016 264.292)
(107.463 64.4821 270.328)
(121.484 28.1907 226.718)
(133.357 43.2973 280.948)
(131.743 31.5992 276.613)
(107.958 26.8597 215.591)
(109.697 37.7364 220.701)
(116.793 30.3785 264.704)
(118.318 41.834 269.462)
(126.551 63.4651 239.669)
(112.529 61.6321 230.721)
(111.074 48.8872 226.282)
(137.737 68.3632 290.976)
(121.806 66.0702 280.264)
(135.27 55.2484 285.82)
(119.875 53.3445 274.854)
(97.3439 31.0947 302.517)
(106.757 45.7736 388.782)
(98.5707 42.8526 307.623)
(121.407 34.1178 393.479)
(111.342 32.031 314.952)
(112.94 44.0944 320.037)
(122.856 47.1616 395.395)
(101.84 67.6792 321.411)
(126.954 74.8099 397.22)
(110.568 72.6223 395.595)
(108.432 58.7916 392.383)
(100.011 54.7982 313.9)
(114.777 56.3687 326.641)
(124.704 60.6307 396.772)
(145.76 34.7304 346.149)
(155.972 36.1882 395.408)
(138.499 35.1698 397.184)
(148.005 47.8763 350.789)
(157.173 50.1176 393.835)
(129.273 45.7451 334.853)
(139.935 48.675 397.279)
(134.767 72.588 348.66)
(150.869 61.5862 356.262)
(143.718 77.0031 394.085)
(160.008 78.858 386.533)
(158.572 64.3455 390.938)
(131.664 58.634 341.238)
(141.685 62.5788 396.378)
(56.7565 -51.3611 86.2845)
(125.379 -104.135 213.758)
(68.5424 -48.6205 73.1441)
(103.043 -60.2574 153.951)
(79.0016 -68.8918 90.9328)
(71.4499 -63.7419 133.056)
(72.4668 -73.5053 107.373)
(86.8642 -87.0497 153.11)
(34.2745 -32.0609 39.5486)
(32.5621 -23.8343 34.628)
(55.4086 -42.0342 80.8397)
(43.4214 -27.2175 42.5083)
(44.4554 -35.7173 47.6606)
(65.305 -43.7869 88.644)
(66.3625 -53.4779 93.5123)
(52.8695 -54.836 63.5571)
(62.084 -70.2309 99.0583)
(42.3899 -49.9781 53.7341)
(58.575 -60.8386 91.4949)
(37.1265 -40.8629 45.0605)
(47.4118 -45.0624 54.044)
(68.5786 -63.4333 99.1719)
(66.3974 -39.1482 67.5561)
(54.009 -32.5423 53.9261)
(55.4557 -41.7032 59.2016)
(86.9063 -51.5485 109.951)
(75.1677 -47.2043 98.5521)
(76.7898 -57.4224 103.187)
(89.1385 -62.0308 114.923)
(70.0856 -53.5472 126.8)
(81.6326 -72.2671 179.057)
(80.1534 -61.4018 172.374)
(91.0939 -62.5471 180.528)
(80.1776 -54.7953 134.881)
(81.6268 -65.3503 140.127)
(92.8991 -73.8075 186.001)
(72.7859 -58.3939 80.8213)
(97.8113 -83.6189 130.344)
(84.1722 -78.2317 118.074)
(64.8469 -61.5212 76.3532)
(58.9629 -51.3396 66.3787)
(79.6636 -67.623 109.514)
(92.7842 -72.5084 121.698)
(27.2352 -1.82564 -8.41196)
(108.07 13.8951 177.642)
(58.2284 1.92309 38.1575)
(59.3339 4.1704 49.1121)
(73.9293 8.51827 100.144)
(56.0393 -6.83309 35.2723)
(107.292 -14.0396 175.873)
(25.5457 -2.98849 -20.3381)
(75.2688 -13.734 133.83)
(29.2289 -9.55548 17.6133)
(60.2009 -9.27146 42.4488)
(65.242 -30.1429 62.8827)
(109.119 -23.7035 179.878)
(100.932 -49.1264 149.632)
(68.4594 -43.8564 118.508)
(76.7228 -21.9594 139.987)
(28.0972 -5.1637 4.76158)
(38.1145 -3.46926 7.47374)
(51.1918 -11.7823 40.0138)
(39.7834 -7.55036 18.716)
(51.387 -18.0207 50.9199)
(59.5193 -11.9308 56.0987)
(60.6068 -18.7709 65.1721)
(37.5548 -1.6964 -2.76571)
(51.3096 4.01424 31.1182)
(26.622 -2.36538 -22.4034)
(24.4643 -1.34435 -27.7809)
(34.6677 -1.11153 -8.96662)
(48.402 0.878627 24.5672)
(55.9013 1.17237 42.4959)
(24.2364 -3.64887 -27.1498)
(35.882 -3.89013 -3.28587)
(34.1462 -3.69807 -9.18757)
(49.5573 -8.97573 30.2502)
(47.8097 -5.52614 24.3429)
(55.3014 -5.03143 42.0563)
(57.5095 -8.7615 47.3156)
(30.6292 -16.2922 27.77)
(42.6076 -19.506 36.65)
(41.534 -12.4637 28.9709)
(53.4712 -33.1856 73.1993)
(51.9422 -24.8001 62.9439)
(62.3399 -25.9592 74.761)
(63.9824 -34.5873 82.6229)
(77.9305 6.46778 85.1725)
(67.4279 5.24231 67.187)
(47.6942 0.00825792 17.1879)
(53.4552 0.408674 32.3053)
(43.4732 -0.336937 10.9862)
(63.3992 1.70573 60.988)
(73.6733 2.1794 79.5758)
(52.7336 -4.14148 31.542)
(45.5462 -5.24258 15.071)
(42.7949 -3.85695 10.3361)
(62.8384 -4.83302 60.4229)
(76.2602 -9.93574 82.5158)
(65.6603 -9.21874 64.8178)
(73.1717 -4.7795 78.9074)
(49.1398 -5.98193 23.9361)
(63.0538 -15.5097 49.8002)
(51.3761 -10.901 33.2873)
(79.5178 -15.3139 88.4572)
(68.6344 -13.2086 72.1406)
(70.4866 -20.6911 79.4587)
(81.999 -23.4846 94.1305)
(65.8737 8.26835 83.5764)
(85.145 12.2245 150.038)
(76.2744 11.8186 134.947)
(74.1211 4.0201 129.459)
(63.1547 2.457 77.3273)
(70.7504 2.82994 94.1807)
(82.5565 4.42942 144.811)
(73.6464 -5.81837 129.241)
(64.4412 -11.8872 82.3024)
(62.5697 -5.908 77.0781)
(70.3303 -5.36786 93.7704)
(84.3314 -13.4435 148.612)
(72.5855 -11.4843 98.4696)
(82.2593 -5.38725 144.451)
(64.511 -21.919 57.3607)
(53.4522 -24.1506 48.7254)
(52.9542 -16.6841 42.0455)
(72.5431 -28.5546 87.218)
(85.1663 -41.254 105.702)
(73.9242 -37.4407 93.6273)
(83.7718 -31.6955 100.64)
(66.1319 -17.8315 90.0302)
(76.8724 -31.4252 146.923)
(66.2594 -25.9664 98.7043)
(85.9162 -21.9108 154.067)
(74.5168 -17.6534 105.338)
(75.3879 -26.2495 112.458)
(86.7329 -31.7403 159.794)
(78.8073 -51.0703 164.1)
(77.5289 -41.0324 155.333)
(66.9035 -34.4602 108.881)
(76.9612 -35.0562 120.734)
(89.5116 -51.8798 174.018)
(78.6531 -44.6833 128.428)
(88.0322 -41.635 166.816)
(94.4119 10.3441 131.87)
(82.945 9.3483 116.346)
(95.4987 12.8871 164.366)
(79.4757 3.30569 110.807)
(105.161 5.34182 172.995)
(92.7897 4.82174 159.356)
(90.8126 3.74821 126.789)
(79.1169 -5.10096 110.284)
(104.934 -5.11882 172.473)
(93.1987 -12.0996 129.675)
(94.8239 -13.6526 162.638)
(81.7107 -11.664 114.323)
(92.54 -5.214 158.907)
(90.5113 -4.99317 126.156)
(95.6138 -19.9069 134.458)
(96.585 -22.6849 167.321)
(84.025 -18.512 120.124)
(85.5866 -27.5877 125.869)
(110.684 -34.0228 183.845)
(97.9721 -32.7816 172.045)
(97.579 -29.3318 139.07)
(89.0919 -46.5652 138.857)
(100.988 -53.2388 183.782)
(113.867 -55.2037 193.39)
(87.5289 -36.789 132.587)
(112.097 -44.1935 188.796)
(99.467 -42.7558 177.94)
(99.2868 -38.7237 144.722)
(75.7783 -84.361 145.778)
(72.9996 -74.0061 138.716)
(83.4222 -83.4362 185.002)
(85.8694 -94.924 191.598)
(97.8842 -97.3547 198.051)
(83.6619 -76.0803 145.806)
(95.0582 -85.37 191.611)
(90.7396 -57.1592 144.018)
(102.938 -64.4667 188.908)
(116.105 -66.9388 197.718)
(92.7111 -68.1761 148.762)
(118.555 -78.8884 202.365)
(105.061 -76.1378 193.77)
(105.44 -71.5415 158.798)
(112.968 -94.9088 172.132)
(99.1141 -90.6371 162.093)
(110.956 -100.44 205.472)
(95.3597 -79.169 154.7)
(121.622 -91.1133 207.687)
(107.663 -87.9884 199.222)
(108.726 -82.8885 164.882)
(117.87 -108.174 180.171)
(86.5297 -81.0193 102.711)
(77.6421 -84.8216 117.774)
(90.828 -99.118 161.847)
(129.49 -138.995 197.821)
(111.958 -129.123 141.9)
(87.6896 -123.324 175.142)
(72.1968 -106.056 111.952)
(60.0991 -66.0888 75.9097)
(66.922 -80.6357 109.156)
(49.5369 -60.407 65.7306)
(57.2615 -73.2704 80.0533)
(67.871 -79.4614 90.3264)
(72.2812 -93.1007 121.133)
(83.3973 -97.9882 129.791)
(103.828 -96.188 140.188)
(89.8286 -90.2017 128.344)
(72.3072 -73.2935 88.5335)
(94.7305 -95.0517 115.548)
(80.3224 -87.0037 102.328)
(96.1124 -103.882 139.824)
(110.52 -110.401 150.821)
(64.9305 -88.5105 95.7734)
(83.6607 -112.936 121.206)
(75.7918 -95.0906 105.74)
(83.5329 -124.617 147.806)
(77.8664 -107.752 134.298)
(89.5212 -113.172 142.642)
(95.8799 -130.438 155.506)
(79.3139 -95.6621 154.496)
(88.8056 -107.294 199.025)
(101.264 -110.299 205.258)
(92.1186 -120.96 207.147)
(83.3235 -108.613 164.406)
(95.3232 -112.667 171.633)
(105.122 -124.524 213.204)
(103.256 -111.064 128.842)
(88.5413 -102.737 116.954)
(96.8831 -120.662 131.394)
(102.752 -119.424 151.944)
(124.952 -144.052 172.814)
(109.671 -136.949 163.936)
(117.623 -126.372 161.805)
(103.597 -103.325 170.562)
(129.839 -118.376 220.6)
(114.869 -114 212.399)
(108.657 -117.426 179.832)
(135.092 -134.022 228.558)
(123.385 -122.799 188.812)
(119.383 -128.863 220.227)
(92.3945 -139.847 186.145)
(95.8625 -136.104 215.99)
(100.24 -153.072 225.553)
(100.271 -127.842 182.033)
(114.812 -157.906 231.977)
(105.636 -144.751 192.555)
(109.58 -140.244 222.038)
(136.12 -156.913 207.434)
(148.641 -171.199 250.285)
(141.265 -151.421 238.219)
(130.827 -163.861 240.019)
(124.641 -145.305 229.253)
(120.157 -150.438 199.576)
(114.168 -133.059 189.634)
(49.4312 -50.9241 56.1027)
(5.1796 -3.76991 68.7977)
(-100.865 90.9333 56.7192)
(24.5879 -33.0079 29.0615)
(78.5297 -90.563 109.14)
(35.4306 -43.4318 151.415)
(56.8848 -83.1949 83.2051)
(-5.63145 -5.51984 129.251)
(-77.6144 72.6703 72.5332)
(-51.5321 44.3279 14.8333)
(-75.4991 65.6477 75.7529)
(-54.3803 47.6162 90.4472)
(-34.3564 29.9069 31.4984)
(-31.412 23.538 35.2344)
(-15.8787 9.64247 51.2011)
(-139.622 136.048 245.053)
(-129.169 163.227 103.956)
(-107.492 132.758 17.0325)
(-166.367 104.392 -172.108)
(-178.407 256.076 262.747)
(-127.536 145.984 246.423)
(-81.0061 86.4725 141.119)
(-174.147 162.646 102.132)
(-242.313 220.77 272.661)
(-287.276 336.095 284.054)
(-214.948 237.088 30.0771)
(-83.1333 79.3907 -60.1749)
(-83.9222 116.375 20.6178)
(6.45098 13.9574 -42.0591)
(38.6782 -12.8671 24.1072)
(-156.362 169.002 -63.8809)
(-48.4296 53.727 -57.9586)
(-49.4496 38.5062 -97.4727)
(-292.649 333.544 189.595)
(-274.745 300.012 284.613)
(-249.284 320.147 278.437)
(-277.15 298.276 205.444)
(-252.953 311.389 200.551)
(-236.683 281.458 277.453)
(-238.611 274.001 213.357)
(-156.985 132.756 -139.564)
(-137.536 97.9324 -134.516)
(-102.33 66.3343 -143.041)
(-133.704 128.558 -100.9)
(-98.3812 83.5221 -114.553)
(-80.3448 61.5575 -115.136)
(-76.326 78.1309 -92.7011)
(-57.7865 59.3817 149.496)
(-147.974 133.401 117.716)
(-215.555 184.334 264.762)
(15.4403 -22.7146 179.709)
(-52.7058 43.9053 207.948)
(-55.5078 39.863 157.977)
(-86.9298 57.6873 217.285)
(39.3172 -20.1545 30.3472)
(39.5204 -38.44 41.7322)
(-47.7723 51.3839 91.8668)
(-123.973 114.241 38.1148)
(-155.101 170.913 -30.1543)
(-46.467 49.7405 -37.5669)
(13.7078 -20.8968 14.9867)
(-261.824 260.45 279.403)
(-236.296 219.371 219.678)
(-259.728 258.812 215.283)
(-202.665 199.413 266.396)
(-222.929 239.689 273.436)
(-220.814 233.965 220.246)
(-197.666 194.919 222.982)
(-262.668 293.125 106.756)
(-207.234 218.597 61.8374)
(-251.337 266.212 135.713)
(-186.711 221.211 57.1241)
(-230.453 273.125 129.82)
(-217.189 243.926 153.599)
(-178.675 198.464 83.7455)
(-212.316 293.05 270.195)
(-180.013 241.054 213.993)
(-215.391 279.527 208.155)
(-167.077 219.85 262.545)
(-200.774 253.358 270.561)
(-201.861 242.881 218.28)
(-166.228 208.74 221.986)
(-155.401 154.85 -101.091)
(-133.164 161.652 -35.7552)
(-133.707 151.137 -67.5026)
(-97.4919 105.536 -70.2987)
(-97.8017 97.3117 -90.9473)
(-76.973 90.8274 -72.479)
(-77.0705 96.5172 -54.5178)
(-110.981 91.7416 -96.267)
(-81.094 102.186 -33.1262)
(-107.428 119.497 -66.9085)
(-30.2421 39.8036 -67.0655)
(-56.1136 52.1552 -92.0583)
(-52.7119 67.0064 -72.2786)
(-29.5576 50.5462 -46.1363)
(-48.3248 47.9419 -75.3389)
(-7.86572 14.1233 -53.0485)
(-6.62852 16.8186 -36.2977)
(5.57068 9.92362 -36.5963)
(-34.7549 33.148 -75.7148)
(-30.5795 40.9839 -59.8118)
(7.78513 10.8857 -22.9551)
(-207.742 182.676 222.084)
(-176.719 161.625 258.964)
(-186.245 148.345 255.958)
(-178.088 145.726 223.037)
(-170.533 157.717 223.828)
(-149.934 124.654 244.071)
(-142.665 120.601 217.41)
(-162.558 210.912 162.749)
(-158.6 195.271 81.7222)
(-196.595 245.605 147.962)
(-183.09 214.404 166.245)
(-118.647 141.435 122.348)
(-149.271 171.581 103.289)
(-149.125 182.069 178.991)
(-150.747 182.206 258.765)
(-165.104 172.784 260.031)
(-186.833 212.133 266.332)
(-184.308 204.364 223.578)
(-122.758 138.899 219.8)
(-160.567 166.916 224.985)
(-147.039 174.101 225.958)
(-211.797 197.937 166.486)
(-194.082 191.614 84.3175)
(-234.737 233.2 155.202)
(-199.581 208.682 167.038)
(-143.735 140.714 117.424)
(-176.628 173.657 176.929)
(-164.41 170.277 102.581)
(-96.2088 105.371 -52.0616)
(-150.256 156.908 -2.91777)
(-131.091 155.957 -6.3797)
(-126.768 139.818 18.0959)
(-93.043 94.2204 -38.2399)
(-76.5092 91.204 -38.2708)
(-74.3344 79.9986 -21.1054)
(-82.1095 114.775 -5.4212)
(-108.68 142.418 -8.39505)
(-108.473 136.707 -36.7093)
(-53.9831 76.4764 -52.6948)
(-35.0814 56.4737 -8.77049)
(-56.1007 78.4156 -33.9993)
(-32.514 56.2664 -26.3417)
(-48.0699 54.2317 -45.8752)
(-5.581 16.7604 -22.3955)
(-4.83249 12.4046 -12.6431)
(-30.2225 45.114 -47.8426)
(9.2862 5.06658 -5.07664)
(-31.2895 43.5648 -38.2739)
(8.99362 9.66301 -12.5901)
(-196.803 278.117 346.758)
(224.483 -106.506 384.361)
(198.138 -1.57058 128.975)
(389.476 -169.116 469.52)
(358.164 -58.7794 359.488)
(-151.289 -53.493 241.229)
(-35.162 201.612 288.372)
(-250.078 242.387 265.826)
(386.072 -116.488 473.156)
(381.692 -148.345 546.689)
(398.642 -138.544 553.959)
(433.06 -119.76 474.5)
(382.471 -118.587 500.151)
(329.319 -85.4071 469.367)
(416.663 -148.849 468.307)
(46.3632 -407.862 255.103)
(246.203 -70.8386 482.112)
(-84.2256 128.526 336.792)
(318.326 -252.863 471.118)
(150.529 -135.585 295.295)
(66.2523 83.5245 299.974)
(-197.903 263.676 313.308)
(348.657 -220.11 448.434)
(383.051 -206.982 467.651)
(324.059 -146.957 500.578)
(232.574 -46.585 348.509)
(307.15 -148.819 380.136)
(134.964 2.63776 226.578)
(378.222 -167.885 441.689)
(311.315 -34.2275 302.081)
(122.395 36.4601 162.325)
(113.827 92.0682 159.383)
(430.5 -100.135 448.557)
(263.973 -51.6677 365.161)
(207.402 17.6386 283.272)
(394.669 -107.163 424.586)
(-2.04919 96.6621 300.559)
(103.316 34.7873 356.414)
(-172.155 267.721 345.917)
(-4.61964 148.904 284.433)
(-189.123 290.371 340.727)
(-37.7548 160.852 298.148)
(-194.299 300.383 333.54)
(-239.356 193.721 267.551)
(-99.3028 160.614 220.594)
(-57.4017 202.346 265.415)
(-197.892 285.312 291.574)
(-28.24 70.3676 202)
(-38.668 179.56 255.594)
(-215.684 298.907 304.615)
(251.326 -13.8944 202.299)
(93.166 108.695 169.577)
(90.8629 99.2393 191.267)
(138.94 50.1257 199.719)
(243.957 -63.2274 243.019)
(90.1211 71.6685 184.709)
(323.089 -91.7327 354.939)
(-163.318 285.311 307.131)
(-147.156 263.133 312.659)
(-30.9153 187.408 299.956)
(-35.4334 193.863 285.476)
(-167.199 283.974 328.659)
(-35.4063 181.311 303.432)
(-183.323 304.584 322.251)
(343.672 12.0331 55.9786)
(-6.46151 -1216.66 423.238)
(345.723 -40.8999 55.0352)
(344.791 -38.3181 276.464)
(293.853 -298.255 64.6693)
(453.517 -131.391 45.6532)
(439.52 -661.968 -13.5577)
(489.348 -86.462 55.9211)
(486.482 -77.5503 371.783)
(381.887 -100.764 467.263)
(309.871 -644.649 303.254)
(328.944 -548.963 89.8223)
(366.837 -733.558 -5.26546)
(-97.2113 -657.84 233.475)
(369.931 -84.8164 346.043)
(-273.182 93.67 221.577)
(349.579 -77.731 271.971)
(361.221 -73.4659 375.859)
(356.542 -67.606 366.045)
(393.097 -41.9871 276.638)
(411.611 -77.0966 376.159)
(407.317 -80.8384 360.223)
(396.544 -80.4205 272.862)
(341.127 -46.6877 254.7)
(329.05 -262.852 195.892)
(290.556 -526.432 -11.7414)
(387.751 -73.0677 243.001)
(352.556 -578.101 -17.9061)
(384.794 -315.119 171.681)
(339.905 -374.574 34.0418)
(306.01 -786.623 141.009)
(234.444 -877.986 185.033)
(296.405 -683.049 33.0545)
(333.278 -817.752 118.742)
(351.65 -727.973 23.7833)
(388.406 -598.702 78.6868)
(262.195 -894.646 168.594)
(362.094 -260.602 321.087)
(386.651 -273.02 438.539)
(351.743 -591.748 205.9)
(362.211 -637.797 176.793)
(428.779 -108.447 460.778)
(413.906 -297.044 306.063)
(372.627 -306.392 373.981)
(326.695 -62.0778 126.845)
(347.44 1.185 55.7951)
(343.983 -4.69062 169.213)
(389.75 -12.3368 168.858)
(383.414 -21.6753 53.9196)
(362.446 -126.038 102.732)
(393.684 -4.83567 56.3017)
(203.419 -1032.8 294.153)
(76.1519 -1218.84 401.349)
(118.941 -1077.83 336.405)
(143.16 -1006.51 224.274)
(-67.4948 -1105.17 356.838)
(-122.75 -1052.65 314.861)
(106.824 -1049.09 301.604)
(343.097 -40.345 167.175)
(349.837 -83.7433 54.4641)
(347.005 -83.7934 164.688)
(389.547 -42.5057 168.311)
(395.695 -86.723 55.2736)
(392.448 -44.0949 55.7855)
(392.725 -84.8976 166.24)
(267.788 -905.806 242.814)
(37.5976 -933.058 257.599)
(79.8872 -1149.81 343.396)
(109.866 -868.664 129.418)
(-136.109 -560.735 140.87)
(-200.624 -908.19 191.634)