/*--------------------------------*- C++ -*----------------------------------*\
  =========                 |
  \\      /  F ield         | OpenFOAM: The Open Source CFD Toolbox
   \\    /   O peration     | Website:  https://openfoam.org
    \\  /    A nd           | Version:  9
     \\/     M anipulation  |
\*---------------------------------------------------------------------------*/
FoamFile
{
    format      ascii;
    class       volScalarField;
    location    "0.00305";
    object      impulseMax;
}
// * * * * * * * * * * * * * * * * * * * * * * * * * * * * * * * * * * * * * //

dimensions      [1 -1 -1 0 0 0 0];

internalField   nonuniform List<scalar> 
25624
(
113.35
94.5407
1.93519
58.5193
0.000620264
0.00325181
1.9228e-05
1.43206e-05
148.531
195.123
116.73
98.5817
0.00199387
0.000992935
0.000172898
9.89122e-05
204.546
123.988
189.98
128.869
192.972
151.959
207.271
133.175
142.366
202.821
105.971
179.616
120.779
188.085
183.93
118.497
187.033
79.2873
73.7313
172.808
169.366
173.092
109.967
179.494
70.0865
164.396
54.1015
161.036
205.884
200.205
201.572
189.45
190.927
186.036
184.527
206.79
203.017
202.513
192.463
191.92
187.055
187.614
200.672
198.436
196.219
187.533
185.133
182.563
180.106
198.104
190.532
193.585
178.933
182.27
177.166
173.722
192.425
198.27
197.744
181.661
176.246
175.636
182.241
195.372
191.424
196.773
180.607
172.928
174.539
179.055
193.545
185.72
191.26
170.814
177.026
174.486
168.159
199.237
189.339
237.632
202.166
240.016
181.611
178.301
222.66
219.662
197.403
228.492
233.717
176.198
178.705
217.813
216.752
240.56
235.077
234.526
228.283
227.752
222.215
222.764
239.006
232.135
233.513
225.395
226.756
221.214
219.84
235.881
230.357
223.659
228.176
221.517
218.07
215.895
231.245
222.896
225.691
216.281
219.056
213.389
210.535
229.131
222.103
228.58
216.115
209.955
209.386
216.675
201.617
215.706
215.173
209.471
196.105
210.027
195.532
226.171
221.073
227.559
215.107
206.938
208.361
213.714
212.833
200.628
214.192
208.473
193.076
207.094
194.518
224.361
215.554
222.154
205.061
211.904
209.676
202.757
211.074
195.133
208.905
191.172
205.28
203.05
188.808
209.935
219.625
212.933
207.091
196.905
200.047
204.111
192.454
203.493
206.376
200.441
182.721
197.428
186.002
203.107
189.295
180.984
196.579
195.982
203.683
188.698
202.093
186.139
179.888
193.458
194.938
200.668
187.647
184.148
191.495
198.793
196.477
173.559
189.065
181.667
182.907
185.397
188.55
171.434
161.168
164.959
167.845
175.208
190.563
182.779
186.176
166.588
170.376
193.746
171.529
150.588
173.23
167.529
141.43
165.785
143.58
120.895
14.2438
3.77622
88.4654
17.0863
5.02353
93.7753
174.369
152.732
175.007
168.699
145.812
169.36
145.01
186.46
180.358
179.753
169.501
168.855
161.129
161.815
177.103
185.426
178.673
166.015
167.705
159.91
158.117
109.292
6.43371
10.5701
69.6952
1.1964
3.0972
85.005
145.805
166.535
169.309
138.573
163.5
160.631
134.961
172.444
181.96
175.037
163.786
160.979
155.737
152.719
162.36
127.984
155.917
137.927
155.194
163.045
137.084
138.177
159.268
163.2
157.167
125.268
153.055
130.544
161.144
133.315
152.015
126.386
153.916
159.336
135.576
176.551
169.332
165.626
153.493
157.567
149.031
144.591
288.077
240.951
305.685
250.282
253.228
301.84
235.597
232.568
283.791
248.495
288.888
299.215
230.689
222.83
281.061
270.372
305.182
300.713
284.682
300.112
284.252
279.479
279.974
303.884
281.529
296.625
298.726
283.186
278.31
276.547
295.963
279.413
293.955
290.688
276.75
274.289
271.505
292.491
270.562
283.402
287.143
273.776
268.429
265.127
294.841
287.351
294.189
273.806
267.949
267.346
274.352
251.683
264.398
265.889
260.67
244.827
259.147
246.247
267.361
252.695
266.894
261.731
247.799
262.216
247.274
285.885
290.634
292.748
272.575
264.321
266.099
270.777
262.528
246.27
260.166
243.008
257.2
254.788
240.768
287.931
277.797
284.629
261.982
268.471
265.647
259.16
254.597
243.743
257.518
252.093
235.425
249.128
238.24
277.196
274.204
281.022
262.534
252.587
256.018
259.148
256.014
250.212
241.972
235.051
249.679
256.53
241.44
254.92
238.972
234
247.028
248.577
253.377
240.396
237.119
245.013
251.378
248.937
228.404
242.551
234.856
417.762
439.901
394.579
421.531
434.714
451.622
403.448
396.341
437.086
437.72
433.627
454.905
448.69
434.534
439.85
429.116
412.124
424.282
423.516
437.131
425.13
414.137
408.321
403.459
424.754
405.665
420.884
417.713
401.126
404.227
400.804
413.4
411.26
391.18
403.414
396.892
445.341
439.317
434.269
421.577
433.376
428.585
417.74
423.011
417.339
426.458
420.775
404.27
411.835
411.641
414.177
385.908
395.95
410.957
383.831
400.771
393.745
380.22
389.857
375.093
390.134
384.384
398.636
405.597
368.486
308.238
308.907
328.509
372.239
323.871
381.935
303.869
363.72
358.011
320.65
370.978
300.733
288.734
353.841
335.826
391.036
385.778
389.507
384.203
371.077
365.038
366.284
386.399
365.249
376.672
381.202
368.769
362.598
358.914
376.529
370.498
360.652
364.413
355.127
354.119
348.476
378.161
366.811
376.447
357.144
349.516
348.165
358.498
351.257
327.899
350.409
344.185
322.928
322.18
345.148
364.25
343.668
351.266
357.727
349.391
342.67
336.991
326.356
345.648
348.567
342.16
317.974
339.141
320.486
373.335
359.328
368.762
354.609
342.058
345.652
350.892
341.76
316.68
336.952
314.759
335.192
330.463
310.847
363.006
347.758
356.492
337.505
346.156
340.708
332.378
326.952
312.476
331.952
325.538
302.459
320.635
306.693
343.693
341.664
349.919
335.12
321.897
327.108
329.655
336.689
329.508
316.317
308.02
328.428
315.469
337.714
334.607
306.307
311.273
323.465
326.385
331.594
313.743
308.091
319.758
327.733
323.197
297.016
315.463
304.293
318.47
295.956
292.975
306.213
310.892
313.707
300.214
246.2
229.421
225.792
236.693
239.779
243.176
232.294
865.522
480.001
406.668
418.654
424.967
515.704
540.976
432.585
481.324
537.625
945.019
454.17
630.144
565.841
738.723
592.741
398.458
428.21
409.074
478.888
512.813
516.227
479.173
477.288
564.925
578.102
554.524
613.84
566.142
621.653
456.764
437.165
424.072
474.11
506.747
513.884
466.238
405.34
425.148
409.578
460.553
461.121
464.1
455.419
613.579
509.28
597.001
569.975
572.84
627.919
628.492
930.321
706.462
706.92
832.271
690.078
688.618
820.922
700.957
902.569
704.883
683.679
769.764
675.518
798.766
419.61
424.112
415.646
452.849
431.962
442.435
445.268
500.405
542.903
535.685
503.263
497.286
538.342
505.758
597.906
587.941
627.577
632.643
595.842
634.434
625.277
488.619
513.832
525.485
475.777
486.596
526.808
475.588
477.489
457.561
466.691
475.365
452.003
471.899
460.014
573.18
577.232
586.152
630.646
606.4
617.152
622.826
663.995
633.785
663.565
661.04
657.862
630.916
730.286
654.556
691.071
615.59
645.535
624.347
644.984
712.984
463.832
435.364
451.277
442.804
461.866
451.145
448.385
690.099
486.554
551.923
823.205
548.134
572.418
535.297
613.24
556.282
483.797
400.05
409.689
498.992
508.643
401.829
440.239
621.589
547.035
621.709
560.439
623.14
615.522
553.413
440.29
480.627
439.438
495.998
457.28
451.871
490.135
692.283
778.099
679.469
736.518
663.279
648.88
701.468
416.922
402.796
413.696
419.442
431.829
425.845
411.062
647.708
732.665
664.109
633.706
637.455
619.774
667.304
481.014
445.512
441.388
450.262
494.956
450.809
490.624
614.984
547.324
618.741
608.037
552.571
600.134
551.629
666.361
605.622
632.692
619.671
596.714
596.314
641.268
561.249
594.727
612.257
601.878
549.193
583.992
554.34
417.014
399.646
413.533
423.197
403.453
422.867
406.071
503.463
467.403
464.922
458.385
504.497
462.008
499.23
441.786
423.814
422.765
432.944
414.145
434.089
415.097
607.863
598.053
583.231
582.305
588.587
598.536
617.752
592.084
546.962
564.839
542.388
574.074
582.649
550.589
455.205
499.753
501.376
457.692
458.758
454.823
498.747
428.046
403.776
424.238
407.216
428.14
424.816
408.472
369.346
391.025
405.634
388.04
394.858
407.868
368.711
348.361
397.236
401.247
411.356
393.505
402.474
404.247
395.816
392.656
384.921
388.381
391.263
395.861
388.492
382.532
395.931
381.757
389.141
384.531
395.488
387.774
377.356
412.133
398.858
402.752
395.644
402.268
393.179
386.815
378.114
375.468
383.267
380.259
363.156
373.466
370.065
388.714
391.153
384.889
384.786
371.465
378.617
377.666
382.664
377.674
390.785
382.483
361.729
374.659
370.258
374.317
355.897
359.948
354.819
366.923
367.017
362.81
130.289
149.492
156.953
153.947
116.721
146.296
126.457
172.166
163.477
164.163
152.236
142.683
141.889
152.971
160.486
171.03
162.271
150.932
138.335
140.466
148.997
150.296
116.216
137.655
111.795
142.377
145.929
121.779
155.11
167.17
158.12
135.48
146.413
143.114
131.82
77.2075
2.66152
82.5301
44.3799
0.214268
0.149287
39.518
117.567
147.774
147.009
137.489
106.742
138.313
105.78
143.606
115.879
145.645
136.011
101.374
133.793
104.016
157.012
147.054
151.442
139.046
121.799
127.292
134.141
2.80108
1.55486
73.7353
0.116284
36.3642
4.67946
0.0375104
140.887
105.711
137.419
97.8512
130.808
126.994
93.4412
121.827
113.41
112.466
84.2059
83.2773
74.8477
75.7577
127.97
100.571
133.145
122.304
81.9509
116.668
88.1372
119.224
108.228
110.766
79.0855
81.5904
73.1798
70.7023
126.317
93.6246
78.3136
114.233
113.274
127.209
92.6462
124.698
88.1106
76.481
108.879
111.518
122.265
90.8317
113.421
104.862
100.666
75.7888
71.7246
67.4379
63.4148
104.348
89.8075
95.6477
61.418
66.9243
58.6729
53.249
84.4914
105.337
118.992
114.827
65.5729
100.866
79.9813
98.8104
91.0761
101.39
64.1015
52.0252
54.4158
61.6566
92.8233
104.068
103.117
65.7452
56.881
56.0238
66.6314
109.732
68.3768
60.229
89.0608
95.4461
103.663
74.6012
95.391
80.7091
91.1377
48.8845
58.4394
54.4846
45.0407
80.1619
75.5971
86.0582
49.8377
35.4867
40.5489
44.5511
81.5839
70.4214
69.4935
46.6162
45.8002
35.3094
36.0659
79.8293
65.1489
67.7519
41.9491
44.2504
33.8538
31.7002
69.4413
61.7137
57.4812
38.9374
35.2759
28.9029
25.5446
64.3555
46.8135
52.4937
26.3471
31.0436
21.7344
17.6255
0.183758
0.00238091
0.00100755
0.000811291
0.361037
0.2355
0.495284
47.1562
16.5727
46.3653
39.1427
12.5126
39.8952
12.0803
42.7435
15.6139
44.8998
37.7338
10.123
35.6622
11.2699
57.6089
43.5446
56.7164
24.9554
15.9623
15.4218
25.6259
213.949
61.5466
29.1917
0.000329905
6.06396e-06
191.725
91.9872
0.000606014
2.01444e-05
222.025
171.378
185.741
171.11
206.52
193.128
143.889
178.518
103.641
127.287
73.4224
99.2289
167.336
175.817
225.436
219.775
213.174
216.253
209.645
207.294
203.596
218.217
207.801
212.281
201.1
205.647
199.381
194.572
213.503
202.611
209.82
193.274
200.696
196.779
189.086
87.5958
152.5
164.339
47.2652
152.257
119.701
23.9468
200.198
181.612
196.434
178.91
193.951
189.964
174.494
187.864
187.036
183.042
175.083
170.676
169.732
165.132
200.898
198.161
205.643
192.298
178.842
184.297
187.166
176.862
187.196
192.124
185.377
163.475
180.107
169.377
183.482
173.311
178.496
159.82
165.628
159.817
153.665
186.869
178.812
162.143
182.602
156.986
174.219
166.323
181.763
171.426
177.601
156.701
163.657
158.787
151.481
240.12
255.326
234.48
285.109
219.513
266.351
252.987
206.783
281.114
267.153
279.454
275.325
263.49
261.606
257.868
259.569
272.387
276.874
266.423
270.986
253.842
249.477
247.975
237.868
251.417
232.308
245.894
242.391
228.859
273.197
262.143
269.009
248.905
255.552
251.715
244.962
548.621
401.116
347.138
587.455
654.365
557.201
568.06
541.844
557.813
509.068
510.263
495.387
401.254
456.35
400.405
486.171
395.862
382.782
363.484
389.928
383.84
342.466
371.541
328.053
631.963
625.141
618.651
612.752
608.7
600.719
593.905
609.292
559.374
600.979
552.566
591.638
582.2
549.053
450.138
504.055
454.994
500.456
453.396
457.283
504.339
420.926
401.972
423.898
401.782
423.056
423.259
400.515
599.626
602.485
608.486
593.943
575.928
586.863
582.117
583.246
578.76
591.878
586.609
565.057
573.71
575.104
381.692
388.152
387.461
378.032
377.18
384.125
372.185
578.389
556.025
590.224
572.192
534.749
562.179
542.586
573.412
556.3
528.093
564.501
521.148
548.414
535.393
464.798
508.975
460.024
461.644
504.309
505.791
464.757
500.79
457.948
496.727
459.105
494.056
500.966
458.583
426.375
401.883
425.23
424.125
398.077
426.347
399.338
580.795
566.761
561.993
559.204
567.243
573.486
570.657
422.755
397.756
422.595
422.649
395.262
423.192
398.016
373.157
358.028
368.306
356.831
367.282
361.652
351.051
385.539
369.161
373.736
378.592
381.136
367.492
363.43
379.926
365.498
371.413
376.061
380.048
366.155
360.786
555.762
521.285
514.738
533.302
540.801
547.219
528.308
461.374
495.803
490.49
457.4
499.33
458.333
462.009
424.265
396.126
394.806
426.131
424.799
426.72
396.268
357.945
352.574
363.19
356.345
340.453
351.463
345.594
349.647
353.859
360.557
354.89
337.097
348.545
343.968
374.765
373.167
377.009
361.875
354.557
357.211
358.624
349.888
334.087
332.357
340.752
344.15
345.598
338.799
290.347
335.827
303.946
352.114
284.357
330.258
322.15
270.463
346.573
338.177
345.252
332.914
339.655
331.511
326.214
341.199
322.65
327.779
329.048
334.309
321.115
316.017
322.031
299.576
317.177
298.094
315.727
310.869
293.579
337.868
325
332.373
316.748
324.305
319.117
311.639
307.504
312.368
295.067
306.016
284.149
301.027
288.916
315.176
327.168
319.967
314.06
301.734
306.634
308.971
291.525
301.444
308.888
304.017
279.868
296.635
286.968
299.105
277.516
275.254
286.955
291.813
294.137
282.309
226.638
230.763
244.231
238.559
220.754
234.33
225.023
259.965
264.615
257.7
247.584
236.078
240.726
243.088
226.224
233.284
239.875
236.27
215.767
229.539
222.652
232.299
214.167
211.534
220.775
225.389
227.892
218.652
177.677
154.436
150.958
162.895
168.967
172.06
160.81
160.448
172.835
166.344
153.126
138.238
145.376
146.536
4.55628
1.01567
67.3039
39.1961
0.141016
63.0377
0.77328
154.674
120.434
149.334
119.071
148.219
142.544
111.908
169.054
161.264
148.675
156.15
142.995
139.304
133.061
135.838
112.566
143.113
135.884
94.565
128.071
103.744
109.725
132.022
140.748
134.626
91.5521
125.371
102.28
158.853
143.323
150.218
128.507
136.336
125.693
117.024
141.853
135.675
146.71
115.242
128.28
121.322
107.513
127.425
84.4718
82.9371
108.634
117.607
119.04
93.8657
132.519
128.351
140.197
113.138
88.3674
98.552
103.605
0.299348
13.4406
1.78513
1.74589
0.0126785
0.458529
0.00336995
121.827
79.7525
114.632
74.8972
110.019
102.314
67.0146
84.5622
83.1459
75.6767
55.2397
48.4508
47.198
40.5988
71.0439
96.8122
106.305
93.5215
49.0582
83.6588
58.3653
61.3487
81.7101
96.5908
88.5019
39.8287
73.4265
53.5801
76.3172
58.4974
67.439
33.44
41.1366
33.5717
26.306
73.4685
55.6729
66.0158
29.9612
38.7029
32.4013
24.127
79.4122
36.3153
31.963
54.3463
64.2715
69.3848
45.1803
49.0677
47.6805
57.8542
25.8133
12.5995
18.2174
19.1982
0.0113075
0.000352902
0.00669738
0.000286834
0.00559903
0.000147231
0.0134841
0.00103794
0.00851269
13.0837
9.15218
11.2591
0.0111921
0.0177839
15.7344
0.00712617
0.00341266
11.5374
7.93766
3.93016
0.00476799
6.1559
7.5065
9.3562
0.00879389
0.00265989
0.288635
0.00328533
0.366867
0.00207124
0.00113433
6.45209
3.07868
1.05926
0.00183343
1.98057
0.00146108
0.662908
1.2596
0.107632
0.000523761
0.000706745
0.290879
12.5297
39.928
36.5029
8.71686
32.9674
29.7107
7.155
52.4774
41.9283
55.0163
23.6527
12.8429
14.3667
21.7384
8.48942
21.8677
4.05486
28.1036
32.5326
25.9744
5.55683
40.5196
21.3383
51.977
44.8134
33.7345
16.2402
9.45417
49.1374
32.5419
45.0483
10.9534
19.2899
16.4237
8.84319
31.5968
4.79373
8.38249
24.5951
23.9624
32.2995
8.04739
0.443746
0.0684166
0.000387775
0.000389689
0.014488
0.00141962
0.000228189
17.5436
2.76328
23.3367
2.99457
18.3996
13.2292
1.7458
30.2683
6.54303
20.9874
4.36357
22.7527
28.3205
7.41904
10.1049
23.3297
34.8965
28.1525
40.2722
13.2976
6.6876
5.49557
18.736
25.8052
22.7978
2.39752
16.0988
4.37519
37.1517
19.5448
26.6486
7.13813
11.378
5.99696
3.3667
10.242
15.7658
2.3142
19.4004
1.7454
13.2117
3.28631
2.99961
7.09149
13.2531
18.2628
29.0517
22.9253
4.51842
12.0357
14.3426
13.2278
1.68993
1.65986
1.47377
1.90444
14.5419
15.2411
14.0774
2.194
1.85358
1.94487
2.09011
0.000551456
0.176847
0.246347
0.0183445
0.0127684
0.000253347
0.00029661
2.52722
17.1502
16.6136
10.158
1.25147
10.5661
1.18553
10.6955
10.154
11.8038
1.43601
1.02051
1.25258
1.16969
13.0227
10.87
12.5933
1.57438
1.34444
1.28207
1.65137
14.0957
2.27474
15.5826
9.37318
0.895929
8.26251
1.06108
10.5723
9.79413
8.92975
1.38584
1.23086
0.985394
1.10926
0.000120011
0.0217116
0.000326487
0.000455854
0.140799
0.00983838
0.000183003
12.2395
1.18033
10.1318
0.714097
6.92231
5.47535
0.537553
1.81176
9.12025
13.5536
9.19585
0.567739
5.76615
1.02768
9.34351
6.5967
7.8363
0.85257
1.04637
0.837812
0.682324
8.38289
5.8653
6.60313
0.7974
0.913987
0.684921
0.596989
7.42836
9.01314
7.13737
1.05039
1.00173
0.787442
0.750941
7.3993
12.085
1.52136
8.59427
0.471011
4.90798
0.938876
7.96004
5.5389
7.21346
0.756262
0.626452
0.851258
0.556129
5.22674
4.77385
6.2765
0.642646
0.381853
0.522439
0.471648
0.385151
3.77805
3.95606
5.58993
5.3539
0.564558
0.538169
5.30269
4.98903
4.05084
0.665729
0.53178
0.497344
0.395604
0.253956
0.57369
5.79551
0.846541
7.92564
4.05864
0.381301
0.928357
4.97666
8.67999
11.1032
16.7955
2.58443
1.31947
0.333414
3.01526
3.45404
4.33635
4.92329
0.490266
0.426275
4.1493
2.28344
3.127
0.29433
0.405446
0.299558
0.215579
0.186439
0.237837
2.50704
3.64894
2.92411
0.353497
0.279279
5.24782
0.541366
2.37394
0.202507
2.24559
5.50686
0.512662
4.75125
0.384188
0.179599
1.6732
2.00052
4.06934
0.457572
0.247529
2.48951
2.61431
1.60372
1.52456
0.149601
0.142243
5.56701
0.29544
1.60664
0.267876
2.95707
3.23862
0.544899
0.213339
1.95602
2.26156
1.18704
1.37966
0.128572
0.110305
1.48561
0.13876
0.0981827
1.59879
2.22182
0.209588
0.149516
0.30331
1.3138
3.28538
2.48875
0.0850976
0.969414
0.224996
0.00122886
7.36595e-05
4.31057e-05
0.0132302
0.000188973
0.000578552
9.55158e-05
0.157875
0.365762
3.91886
0.217879
2.43135
1.05403
0.0918463
0.117042
0.150365
1.60917
0.97091
0.755157
0.089771
0.0693769
195.909
208.312
154.46
201.803
134.486
196.405
142.92
162.241
213.516
205.819
183.097
111.705
165.244
150.564
130.119
193.746
212.144
210.039
208.671
199.794
198.221
195.703
194.16
210.42
204.805
206.939
193.851
196.25
192.218
189.816
202.927
202.257
199.307
191.021
187.756
186.959
183.649
206.149
200.412
204.771
186.216
191.199
189.67
184.687
200.848
198.639
203.021
187.725
180.243
185.296
182.716
199.629
192.149
195.946
179.826
184.037
179.858
175.556
198.242
190.663
195.234
177.276
182.395
179.019
173.802
160.276
183.35
181.594
156.58
178.59
176.863
154.606
187.899
187.127
191.796
175.135
165.152
169.781
170.695
176.605
157.694
179.358
174.644
148.68
171.884
151.984
167.464
150.181
173.322
171.604
140.846
148.169
165.731
173.346
169.571
145.976
144.676
168.593
164.75
139.931
169.369
142.065
160.583
138.049
166.574
145.477
163.454
140.633
134.438
160.308
160.31
127.9
134.367
155.204
137.904
157.109
163.213
159.258
124.902
132.947
152.989
236.157
257.04
228.662
221.034
252.351
215.34
210.444
247.043
259.162
225.37
253.028
250.179
209.924
218.839
198.33
207.992
244.788
258.777
257.482
256.784
246.945
246.32
244.981
244.168
244.208
258.139
254.291
255.789
245.45
243.103
241.65
236.201
206.123
194.218
178.268
191.775
219.425
227.233
255.107
250.323
253.91
239.35
242.425
241.402
238.145
255.34
242.533
252.264
249.736
240.394
239.777
237.46
248.902
250.899
252.644
240.194
235.043
238.59
236.796
246.91
243.579
246.802
234.762
237.81
234.714
231.573
248.696
242.247
246.085
232.861
236.547
234.075
230.29
236.026
224.276
235.243
222.495
233.786
232.877
221.354
232.741
222.841
234.191
231.666
217.968
230.037
219.863
240.026
239.379
243.211
231.24
224.135
227.39
228.035
230.87
216.267
228.55
215.677
227.976
225.513
213.003
240.069
243.342
239.495
231.282
228.043
227.402
224.127
227.555
219.162
230.957
229.938
214.106
217.972
226.452
228.602
214.44
212.497
223.121
226.824
216.417
225.017
222.662
213.3
225.816
222.66
206.496
209.949
219.425
232.601
232.596
236.478
220.511
224.453
220.493
216.467
231.958
235.266
230.587
218.417
223.138
219.81
215.009
212.064
220.807
224.617
222.04
205.171
209.308
218.159
219.103
211.774
202.65
201.965
206.184
215.15
215.804
219.094
202.616
215.794
201.873
215.107
211.739
198.266
224.301
223.538
228.314
216.111
206.861
211.189
211.955
207.984
198.672
212.103
207.962
189.558
203.712
194.191
197.113
205.732
210.665
207.204
187.866
202.144
193.382
298.66
248.552
302.353
271.698
294.694
282.406
284.99
270.355
314.97
323.71
301.868
320.863
310.042
297.483
293.814
301.436
289.837
305.504
294.564
310.63
305.222
289.556
311.906
316.929
306.367
287.302
292.277
288.439
283.038
285.27
267.103
269.628
266.21
281.373
278.162
263.382
297.956
277.191
280.854
298.234
301.364
284.341
280.222
363.8
345.972
369.893
326.426
271.693
274.555
287.085
274.149
355.646
368.268
330.797
358.563
321.972
334.043
323.924
335.101
334.105
347.075
304.814
313.363
313.573
303.235
370.56
357.07
359.227
333.632
335.136
323.697
321.042
342.316
331.267
345.966
311.865
296.002
300.301
308.151
299.522
272.571
291.764
274.793
301.613
292.801
270.723
271.324
272.256
287.866
285.39
268.379
283.784
269.849
299.955
273.971
301.816
292.024
265.349
268.075
289.374
279.555
264.658
260.288
283.528
262.363
266.515
280.159
274.646
278.787
263.923
260.244
256.409
274.402
260.064
276.784
262.196
257.73
273.436
254.832
259.235
268.487
261.972
265.993
252.495
269.78
251.772
255.955
265.154
258.408
291.179
281.029
266.107
250.103
277.887
261.195
290.095
298.38
284.754
301.561
298.287
294.864
280.67
277.367
273.712
277.531
294.936
287.298
291.22
273.751
269.771
294.466
286.311
290.846
272.171
276.662
273.242
268.617
270.129
256.203
252.573
251.997
265.499
262.105
248.645
282.863
287.047
282.267
269.478
260.621
264.769
265.42
262.379
244.999
248.923
258.443
241.071
254.458
245.023
256.508
247.701
242.995
257.797
239.638
253.095
244.356
245.353
231.951
236.732
235.977
240.715
249.391
254.112
313.876
344.677
367.156
320.566
313.451
342.301
309.187
352.823
365.088
355.011
364.853
361.862
352.193
352.307
348.65
391.639
414.19
413.361
421.241
383.159
391.236
373.437
381.191
382.812
366.868
425.316
489.891
429.652
437.37
360.01
436.748
408.372
422.347
373.519
372.974
366.202
381.294
376.205
374.058
387.399
430.976
463.088
437.155
463.004
438.211
457.675
450.174
370.206
374.193
385.322
353.861
390.594
368.916
390.817
341.336
317.398
362.97
373.791
423.692
381.962
323.291
377.5
383.792
386.817
386.997
382.969
383.993
385.05
394.547
412.753
402.569
425.699
415.035
404.245
406.542
365.003
401.96
398.631
382.609
378.032
390.437
387.945
438.217
438.983
454.629
422.17
433.416
437.539
421.484
486.244
471.964
473.581
466.462
465.67
453.133
451.774
417.236
394.506
387.782
400.635
431.439
422.554
391.885
383.468
389.042
386.739
383.99
386.106
390.705
386.297
412.419
419.935
416.849
399.779
395.712
400.506
395.5
387.561
389.321
385.975
384.102
386.863
386.391
384.824
380.97
395.215
392.731
389.652
378.215
380.899
389.854
406.026
404.492
418.745
398.669
387.475
402.492
383.247
451.544
435.085
455.955
437.461
414.133
419.075
434.445
396.628
378.431
366.867
411.01
367.136
397.025
380.781
351.679
324.137
352.6
292.037
286.332
321.408
319.559
318.558
281.745
304.461
293.894
279.024
289.089
299.976
289.731
326.61
321.671
335.582
312.001
305.543
314.956
329.578
314.653
303.324
314.614
311.138
317.245
322.635
302.322
298.6
291.625
300.674
280.575
288.872
298.354
290.799
338.544
330.806
344.296
324.736
346.67
333.856
338.372
318.595
303.419
310.602
324.713
303.022
311.222
325.9
318.76
312.819
330.362
309.972
326.445
323.041
305.583
332.276
342.061
331.975
320.506
342.573
330.208
334.016
323.175
669.25
543.799
1076.55
289.47
430.701
1578.4
1219.49
278.371
318.754
337.029
276.896
328.243
351.709
291.546
1558.91
561.06
591.145
1502.49
590.923
623.085
1468.33
392.556
303.891
361.226
383.618
339.347
425.559
312.04
395.087
306.399
329.275
285.701
352.269
381.234
303.805
1469.86
1524.74
627.737
661.754
1348.97
701.614
1418.35
695.67
1274.98
671.462
1400.72
631.006
661.046
1352.98
418.275
483.171
363.328
421.893
365.928
477.536
330.308
733.055
1151.84
718.099
694.55
1212.13
726.529
1290.05
500.084
393.47
361.499
332.499
436.144
363.814
360.153
421.575
335.293
356.42
343.956
347.888
340.192
370.896
353.987
352.44
365.026
356.256
357.423
348.608
356.118
365.694
377.598
400.285
373.142
435.188
400.706
396.577
440.208
335.865
354.092
338.197
423.176
388.123
377.085
418.527
378.338
355.129
346.173
380.593
415.337
392.593
418.693
379.202
411.053
371.17
400.382
440.757
410.283
443.455
477.535
475.752
435.935
434.094
481.617
472.722
467.031
434.188
459.238
433.161
441.504
431.008
460.61
452.957
729.381
497.668
789.752
487.811
559.424
1001.29
592.616
493.116
348.846
1064.94
709.877
424.872
366.111
397.802
375.777
432.57
357.593
333.141
432.47
381.492
484.594
374.607
481.106
549.284
423.605
327.233
343.466
341.511
336.843
334.525
349.091
367.018
1390.21
1288.49
743.756
1260.22
737.057
757.985
1160.94
344.647
361.626
349.275
354.487
342.117
351.631
361.873
568.969
532.331
961.834
561.32
607.839
709.375
556.598
402.03
386.824
466.657
404.484
512.949
488.18
398.683
486.448
418.062
544.484
599.262
526.911
489.445
622.247
426.446
604.082
550.268
604.467
535.786
632.875
494.053
380.829
358.527
339.959
384.118
462.353
428.361
414.575
388.999
370.457
352.396
389.108
470.053
422.089
433.105
737.007
1125.62
746.572
751.803
927.782
732.572
1038.87
761.593
1175.89
762.27
760.94
966.051
750.314
1061.09
364.75
352.512
342.394
368.846
383.838
371.101
390.924
373.212
365.312
355.136
373.222
388.735
396.747
375.862
419.528
477.315
444.483
481.836
436.134
467.316
432.036
629.842
642.465
545.87
551.496
642.817
532.863
636.426
629.921
551.398
642.92
545.786
636.981
642.988
559.533
419.299
481.506
436.005
476.33
431.637
444.168
487.307
745.367
703.683
856.89
873.829
731.081
721.642
954.88
747.002
876.729
731.964
866.065
724.411
705.713
794.908
394.972
412.605
391.994
393.836
405.811
387.314
403.349
394.679
393.611
405.684
391.346
402.918
412.364
397.387
679.861
797.39
709.003
680.745
678.641
654.096
731.199
453.012
490.322
446.683
452.804
506.029
497.536
457.511
639.647
562.73
646.189
639.955
572.514
629.151
569.06
780.818
661.905
694.664
674.249
667.961
643.391
724.501
552.428
624.407
634.436
633.995
563.948
618.968
563.795
481.653
445.825
439.473
449.491
499.462
452.728
493.136
420.638
398.454
413.897
420.514
404.147
425.806
401.85
394.99
415.902
409.171
418.247
401.945
422.363
400.335
404.876
436.116
404.282
425.292
392.96
393.991
424.84
380.083
374.672
374.292
380.816
382.073
381.325
373.074
386.83
370.456
360.114
382.092
371.333
367.313
356.889
392.971
392.729
392.734
386.545
387.048
386.27
384.37
407.504
387.825
393.556
392.322
398.287
378.646
372.545
386.356
381.411
381.848
375.738
382.339
385.529
383.633
391.486
388.422
390.023
383.959
384.413
385.172
382.563
353.413
339.669
365.455
351.24
379.686
361.777
336.091
651.545
638.278
613.729
634.236
626.967
631.4
676.874
412.002
390.488
378.056
365.016
395.371
381.06
409.522
626.396
570.019
596.057
565.931
609.097
613.795
570.032
403.406
403.366
403.412
424.796
427.313
426.099
427.79
456.054
511.811
462.969
508.618
458.164
504.024
460.649
379.752
373.394
381.963
379.478
365.632
375.861
369.98
386.951
389.621
392.139
383.793
375.199
379.513
380.53
372.602
377.437
380.04
378.476
364.346
374.066
369.423
369.655
347.232
375.77
357.146
326.277
331.596
351.121
372.021
367.005
377.403
362.753
349.212
353.278
357.246
342.54
328.751
351.226
347.504
320.517
339.553
325.36
348.738
362.105
358.214
358.092
353.552
344.596
340.017
317.408
335.993
339.073
317.539
336.247
332.437
313.912
357.892
357.831
361.973
344.013
348.781
344.336
338.991
359.267
365.151
360.103
375.275
364.64
369.723
370.747
313.808
332.553
336.316
343.233
317.901
321.785
338.51
348.25
347.643
353.315
339.692
328.867
333.974
334.715
309.982
328.327
332.411
328.334
305.836
323.907
310.014
313.736
327.671
332.462
328.084
304.946
322.951
309.753
296.074
301.218
318.928
323.606
300.591
318.259
305.578
203.303
184.277
183.39
193.406
198.058
198.88
189.127
154.651
142.479
120.34
118.78
127.116
148.145
149.313
304.769
325.781
275.936
660.536
608.561
979.323
456.6
1075.76
362.985
313.012
298.524
282.226
397.333
312.318
379.655
355.624
274.111
334.833
329.374
287.218
370.69
361.073
292.458
281.296
272.907
272.294
275.387
283.036
285.315
277.895
286.912
380.52
352.53
393.136
328.908
427.703
306.964
1442.36
1453.08
598.221
652.457
1344.65
643.454
1329.31
310.809
296.865
295.21
310.835
295.469
297.922
313.569
289.171
290.535
280.05
292.038
298.432
286.116
301.043
318.656
310.983
303.001
303.603
324.862
310.712
318.877
630.314
1375.51
1417.09
670.335
1244.87
694.488
1295.88
285.545
301.411
288.576
292.406
321.403
307.291
291.028
314.663
428.581
376.436
491.019
506.772
415.266
323.441
456.133
370.781
568.926
406.86
534.783
498.129
341.765
690.097
1213.77
1058.51
705.815
709.603
682.585
1196.09
299.827
320.603
347.04
367.464
332.409
302.695
310.009
313.6
322.008
298.743
302.065
359.745
328.005
316.824
702.29
1108.17
716.223
1024.92
713.778
715.492
1159.76
307.712
327.646
363.151
367.667
341.457
314.749
321.765
486.985
333.823
330.795
1050.35
694.367
759.281
547.174
926.173
505.645
370.894
426.779
310.146
478.446
446.037
394.317
389.131
420.052
365.042
474.209
361.057
478.352
539.817
412.907
305.464
326.236
323.377
318.537
313.38
330.99
351.261
320.247
342.412
330.13
332.397
319.712
332.196
342.218
1314.26
1233.7
726.854
1177.13
718.477
735.109
1099.35
414.834
598.425
541.539
591.543
525.999
622.74
482.772
383.753
357.972
340.396
380.329
460.931
422.686
414.097
425.105
598.978
548.348
590.778
531.028
616.255
487.38
363.626
402.864
335.454
384.567
467.077
421.147
427.183
753.794
1142.59
747.717
740.419
941.485
735.999
1019.54
1044.69
713.857
724.603
726.519
869.947
706.876
977.357
352.449
368.692
342.414
364.712
383.011
390.369
365.793
344.14
387.138
330.803
368.668
391.28
398.117
370.143
616.606
540.136
625.174
539.74
622.978
628.806
524.059
412.808
471.622
472.273
437.326
429.176
459.399
427.648
721.454
843.691
679.628
814.078
695.061
710.675
909.69
389.383
388.7
408.103
391.228
402.122
399.877
382.204
348.757
361.985
385.28
374.093
366.665
406.515
361.279
357.463
360.261
363.955
356.86
363.666
362.606
357.682
364.762
352.728
357.559
360.158
356.283
356.595
365.108
365.93
365.47
370.77