/*--------------------------------*- C++ -*----------------------------------*\
  =========                 |
  \\      /  F ield         | OpenFOAM: The Open Source CFD Toolbox
   \\    /   O peration     | Website:  https://openfoam.org
    \\  /    A nd           | Version:  9
     \\/     M anipulation  |
\*---------------------------------------------------------------------------*/
FoamFile
{
    format      ascii;
    class       volScalarField;
    location    "0.00305";
    object      T;
}
// * * * * * * * * * * * * * * * * * * * * * * * * * * * * * * * * * * * * * //

dimensions      [0 0 0 1 0 0 0];

internalField   nonuniform List<scalar> 
25624
(
434.351
429.561
308.03
415.513
287.929
287.96
287.926
287.926
440.328
491.642
437.655
430.86
287.94
287.931
287.927
287.926
499.347
436.33
479.111
435.708
478.712
439.585
496.611
437.694
439.701
499.493
431.703
461.378
435.752
477.397
468.234
434.323
468.372
427.337
425.86
447.27
446.966
450.855
433.541
462.203
424.361
441.894
417.469
438.063
498.498
495.443
495.062
470.944
470.64
466.336
466.397
497.317
493.488
494.189
469.316
469.926
465.782
465.169
498.722
494.958
493.055
470.568
469.094
465.631
463.488
496.255
483.116
489.141
461.781
466.142
459.893
455.214
479.2
487.352
487.968
459.97
452.983
453.448
459.424
488.48
479.487
488.513
460.364
453.377
453.702
460.215
487.362
473.771
484.45
452.002
459.125
456.634
449.297
497.633
476.53
589.235
497.554
587.344
456.216
455.533
543.689
544.042
495.525
574.813
587.26
453.149
456.346
541.764
538.93
586.241
575.23
576.139
557.778
558.569
544.426
543.814
588.618
577.189
576.992
559.519
559.369
544.905
544.709
589.102
576.245
558.544
573.046
555.387
543.035
538.911
582.677
557.697
566.87
540.399
549.343
531.958
522.556
560.656
544.232
561.371
528.016
510.119
510.483
527.551
497.965
528.23
528.773
513.868
483.931
513.483
484.231
561.754
544.513
561.913
528.259
509.858
510.551
527.79
528.932
498.157
529.195
514.032
483.478
513.479
484.234
560.073
536.852
555.862
507.31
525.59
520.874
502.32
527.231
491.192
523.191
481.018
511.229
506.573
476.447
519.352
548.7
529.182
513.568
486.329
495.071
504.292
484.652
507.388
516.452
499.487
462.605
490.623
470.055
497.65
469.819
456.506
480.98
481.255
497.349
470.09
497.652
469.11
456.409
480.29
481.173
496.89
469.997
466.56
477.648
494.337
489.486
449.238
472.927
462.141
468.242
472.623
479.45
452.805
441.307
445.537
448.117
449.973
474.412
459.363
466.557
439.722
444.495
482.589
449.623
440.096
449.584
446.303
439.24
446.22
439.044
438.171
362.196
322.209
428.326
368.519
329.807
429.911
449.154
439.127
448.679
445.95
438.092
445.488
438.551
468.755
457.467
457.797
446.188
446.605
440.024
439.585
457.072
468.853
457.791
446.322
446.76
440.172
439.709
434.98
336.848
352.197
420.27
300.896
317.481
426.777
440.232
447.627
449.057
439.045
445.501
443.918
438.355
451.307
466.132
454.942
444.849
442.241
438.329
436.066
442.166
436.087
437.839
437.024
438.325
441.701
437.458
438.81
442.673
445.421
441.612
436.037
438.927
437.303
442.487
437.957
438.574
436.4
438.668
442.341
437.873
456.841
446.708
441.775
435.323
438.872
433.459
431.341
716.862
609.776
705.526
617.905
613.83
707.169
582.14
582.832
717.932
618.513
721.538
708.901
580.69
557.511
717.291
700.598
706.465
714.876
686.08
715.776
687.389
693.78
692.873
706.832
687.686
716.969
716.368
687.89
694.026
693.582
713.377
687.71
718.273
720.59
688.864
692.735
691.602
718.931
688.612
720.245
722.229
690.129
689.005
682.987
718.623
717.374
719.371
691.662
682.481
682.861
691.038
616.923
650.24
649.499
650.792
610.854
650.868
610.39
646.175
615.235
647.947
649.817
608.043
648.458
609.233
717.844
720.506
719.996
691.764
681.705
682.784
691.07
650.905
618.183
651.481
610.514
650.233
648.417
608.369
720.96
715.114
721.01
679.066
689.354
686.224
674.148
647.236
615.673
650.921
644.407
595.185
637.024
603.444
713.13
709.958
719.095
680.567
654.263
666.043
671.205
643.92
631.108
597.108
582.821
631.696
642.986
598.036
644.448
598.797
583.237
630.943
631.869
643.985
598.793
597.5
628.169
642.196
638.433
575.907
622.85
593.877
522.353
516.447
584.752
559.724
530.907
525.54
569.629
575.908
517.502
537.08
538.198
520.368
522.02
541.888
540.233
518.219
542.46
538.981
529.378
524.154
543.827
548.264
576.432
578.643
557.311
577.419
558.236
561.385
580.396
563.151
579.429
559.272
563.607
589.495
568.499
583.395
527.553
532.546
535.138
550.845
544.689
546.574
553.177
537.512
547.644
539.724
549.426
563.65
556.942
554.969
563.624
588.755
582.346
565.638
591.35
572.002
584.582
595.969
588.439
603.7
582.779
595.385
574.602
568.717
613.835
734.108
724.187
696.415
626.882
700.69
606.991
728.736
621.767
675.512
705.401
624.748
730.688
727.913
641.636
692.556
597.24
600.634
598.277
602.558
627.815
635.36
633.454
601.043
634.849
612.757
606.222
630.192
638.619
643.864
618.808
637.023
644.722
643.039
660.969
653.613
669.178
605.715
616.786
608.237
644.228
652.585
655.461
641.736
665.257
697.458
666.343
677.184
707.839
709.246
675.45
657.708
696.252
682.063
664.088
680.055
687.456
702.524
698.724
671.355
668.231
679.701
713.166
683.3
710.92
612.621
629.452
619.788
648.172
665.955
659.876
653.957
678.584
714.69
691.743
717.368
690.133
701.743
724.496
631.953
658.994
650.088
675.076
663.56
678.144
687.993
720.977
726.086
707.951
715.394
736.193
725.567
732.196
687.66
677.912
670.655
694.621
711.057
701.645
707.471
688.302
697.751
717.324
725.465
699.937
718.778
686.226
691.214
727.044
722.738
706.6
702.894
695.078
720.567
725.979
711.735
701.296
710.852
732.515
718.732
730.532
721.2
734.208
732.351
727.527
725.213
727.841
734.365
631.834
577.448
568.071
602.805
614.397
621.87
587.212
621.802
472.658
457.527
502.52
495.922
530.27
512.265
534.389
494.251
486.506
635.481
464.503
637.444
549.045
639.078
534.827
461.1
460.699
462.977
476.141
472.863
477.009
472.511
470.217
503.859
512.782
486.36
533.061
492.091
538.51
464.988
473.173
465.809
481.102
491.147
482.359
489.441
476.455
496.695
477.098
485.94
500.764
483.519
502.502
529.099
477.415
521.554
506.816
498.434
542.926
547.165
634.815
571.118
577.009
635.915
587.719
589.652
634.042
580.467
630.608
580.152
589.749
622.445
589.042
629.241
484.614
497.554
478.489
489.794
512.276
498.107
505.357
492.286
491.288
517.051
504.798
509.245
496.236
487.786
511.013
538.491
575.077
556.772
515.74
559.016
576.176
497.671
510.833
522.359
523.018
514.472
502.095
506.128
508.037
517.319
507.595
497.908
520.332
511.683
510.171
528.273
542.483
520.78
560.833
581.08
577.535
564.046
645.31
613.546
601.152
601.033
642.941
612.934
636.811
600.205
627.959
613.17
639.508
612.339
600.026
632.355
503.08
522.804
525.763
525.578
516.984
512.04
514.662
596.659
534.478
537.758
610.486
498.353
648.274
604.107
637.658
559.023
485.311
578.769
516.287
596.885
542.508
614.257
526.504
535.781
511.263
541.783
518.256
552.741
559.843
531.258
486.062
500.571
503.925
504.209
502.985
522.286
520.026
579.011
601.744
576.514
616.543
588.976
590.183
613.303
498.698
537.199
518.75
526.639
512.816
533.189
547.949
579.567
596.973
576.101
593.39
614.316
600.117
612.134
516.811
544.647
524.462
543.837
557.013
564.683
538.18
557.079
523.985
548.254
568.694
560.797
580.044
545.383
626.072
616.753
601.737
605.944
639.627
622.834
626.336
538.978
588.18
570.117
578.886
572.141
598.199
551.987
560.412
559.339
540.391
555.786
591.406
576.381
571.059
523.416
536.796
520.236
539.723
559.091
555.875
540.007
539.978
537.358
549.264
546.884
570.324
560.551
558.676
611.937
631.82
639.229
642.954
630.409
620.451
627.604
589.677
583.038
622.554
587.672
610.16
602.272
566.848
561.494
577.753
577.945
598.245
577.884
582.268
558.878
569.811
602.978
603.739
593.869
583.497
590.48
582.235
654.94
594.823
534.539
596.557
595.519
561.875
616.716
674.636
554.543
553.383
542.188
571.812
562.828
559.501
578.565
576.167
610.735
592.448
605.547
585.753
600.785
620.339
574.048
615.128
592.19
601.639
579.718
598.309
620.592
551.097
582.716
572.011
576.568
566.954
586.693
596.669
631.501
636.329
612.954
620.258
661.895
639.847
642.584
615.704
606.107
625.768
609.76
638.778
619.696
629.573
595.373
607.959
586.421
605.639
635.822
614.873
627.192
628.311
668.41
655.836
657.283
637.332
647.936
649.422
437.595
437.935
441.547
439.947
434.61
436.745
436.716
447.622
438.832
438.446
434.307
430.674
431.195
433.82
438.305
447.639
438.892
434.546
431.691
431.626
434.269
437.872
433.917
433.961
433.202
435.294
435.898
435.456
434.233
445.045
436.692
431.409
433.382
432.038
430.931
424.28
314.179
426.286
408.043
290.331
289.608
404.067
434.545
434.964
435.503
434.032
432.473
433.501
432.595
436.038
434.654
435.958
434.516
432.076
434.67
432.543
434.305
429.594
431.655
430.814
430.684
430.66
430.147
316.54
304.487
422.537
289.239
401.205
331.151
288.354
435.651
432.291
434.799
431.164
434.376
433.636
429.954
438.07
435.63
435.701
427.712
427.392
422.701
423.09
432.853
430.905
433.8
432.905
427.072
432.422
428.637
438.126
434.895
435.563
424.992
426.543
421.784
420.242
433.385
430.37
427.26
432.916
433.228
432.946
430.418
433.788
429.628
426.843
433.31
433.456
433.911
430.257
436.606
433.629
431.909
422.84
420.316
418.157
415.631
433.02
427.704
429.908
414.319
417.48
412.75
409.465
428.496
432.776
433.667
433.072
422.507
431.963
426.997
431.757
429.321
432.597
416.746
409.416
411.137
415.171
429.776
432.927
432.908
417.683
412.661
412.18
418.117
432.357
423.254
420.283
430.057
431.051
431.7
425.257
430.365
424.832
428.546
407.086
413.014
410.393
404.245
424.274
422.646
426.502
407.353
396.676
400.842
403.783
426.076
421.874
421.57
406.114
405.555
397.132
397.819
425.47
419.407
420.8
402.424
404.361
395.684
393.364
420.462
417.468
415.157
399.796
396.505
390.166
385.992
418.137
408.946
412.371
387.115
392.401
380.586
373.656
289.818
287.944
287.93
287.929
291.734
290.35
293.119
405.407
367.477
404.823
398.515
357.901
399.15
356.721
401.583
365.395
403.575
397.185
350.803
395.07
354.375
416.205
407.446
415.767
385.571
370.306
369.126
386.486
523.114
421.16
394.686
287.927
287.926
484.854
428.514
287.928
287.926
551.148
442.993
467.631
443.893
508.278
474.15
427.527
456.898
431.296
436.393
424.994
430.254
441.697
454.109
563.983
546.201
529.217
533.352
516.773
511.546
499.808
537.306
506.506
519.962
491.169
503.913
487.993
476.501
527.411
496.741
515.038
476.941
493.924
483.222
467.549
428.207
430.784
439.307
413.741
431.17
429.15
391.645
496.823
458.68
485.669
454.86
480.849
470.895
447.477
476.273
475.305
466.383
456.465
450.519
449.815
444.197
490.001
485.255
502.449
472.695
450.364
458.587
462.691
450.219
464.029
474.601
461.242
435.769
452.275
441.107
466.631
448.902
457.207
438.781
444.436
438.863
434.097
465.747
452.088
435.382
457.192
431.819
445.275
438.489
464.619
447.201
456.258
437.027
443.119
438.266
433.166
599.019
643.835
587.943
718.789
545.111
687.123
634.169
504.71
711.153
682.461
713.142
701.804
672.145
672.765
659.264
658.971
686.58
700.082
671.744
687.689
643.692
626.826
628.018
600.256
639.393
583.922
626.083
612.507
570.623
702.456
670.814
688.268
639.36
658.148
642.538
622.55
609.037
625.502
685.66
635.37
602.042
553.853
654.222
599.701
668.301
668.145
608.528
552.87
595.121
599.752
618.746
656.746
636.748
635.642
669.004
610.124
630.422
684.588
641.897
674.902
588.846
612.169
602.007
621.132
610.589
622.443
630.624
569.971
571.778
585.853
577.39
593.733
608.297
594.719
563.759
571.701
581.216
575.239
583.181
598.87
593.321
578.257
607.867
593.233
607.747
593.745
607.106
619.335
629.892
624.064
616.259
634.033
647.705
644.02
639.779
638.978
647.681
630.503
640.17
659.314
654.878
646.339
625.774
621.262
620.943
636.451
635.561
631.139
645.031
618.987
590.378
602.711
622.658
629.497
636.401
612.128
615.368
634.219
620.112
627.954
635.577
645.591
615.995
610.286
590.542
596.839
611.863
626.27
610.377
622.514
595.832
614.403
614.603
613.554
629.981
612.655
626.04
615.515
617.963
605.684
617.131
632.33
624.295
627.39
648.609
658.188
663.911
667.81
661.463
656.085
652.581
606.932
628.453
618.682
618.429
635.71
627.698
628.618
646.322
678.33
656.741
675.911
654.89
663.954
683.89
629.725
648.738
644.004
640.912
637.639
650.494
652.501
638.749
650.951
643.84
644.501
638.922
651.431
655.597
640.264
649.056
651.45
668.994
657.171
652.911
632.114
624.048
642.033
643.621
640.362
627.857
634.077
632.278
625.928
636.1
638.025
633.99
632.283
630.394
634.132
667.063
683.758
663.547
668.428
685.87
669.078
686.877
681.136
667.206
661.825
668.608
686.631
670.747
686.66
643.053
645.059
642.829
654.191
650.291
654.871
653.088
670.196
682.371
682.923
662.353
668.644
667.56
686.694
715.031
700.107
736.205
688.331
718.4
699.763
693.185
671.153
696.243
707.131
694.187
712.909
700.323
711.679
715.008
700.012
711.992
714.314
698.509
701.419
713.413
708.005
728.141
732.84
729.822
734.405
729.788
728.308
727.384
698.014
699.43
701.428
713.656
713.938
714.002
709.659
720.755
726.988
725.374
722.314
703.499
713.057
716.697
683.817
699.395
693.635
709.071
688.829
700.938
700.391
728.486
723.918
728.493
723.459
704.885
715.012
718.1
714.227
688.908
688.807
687.312
702.41
702.003
704.542
558.973
573.927
614.281
597.331
541.324
581.23
556.228
654.228
671.902
652.915
625.498
586.809
604.853
607.699
565.281
588.852
608.962
594.135
531.803
573.602
551.696
578.324
523.076
518.225
541.959
557.841
562.058
537.481
449.216
430.509
429.123
434.721
439.465
442.261
433.966
435.49
448.552
440.9
433.851
429.697
430.693
430.922
327.173
299.014
419.744
404
289.531
417.584
296.387
439.593
434.785
436.737
434.46
436.431
434.515
432.825
444.903
437.037
432.232
432.95
430.367
430.136
429.792
433.275
433.061
434.651
433.173
429.591
432.401
431.162
432.371
432.945
434.244
433.052
428.918
432.233
430.805
434.495
428.419
429.985
429.949
429.673
430.146
431.063
428.28
427.772
429.093
431.133
430.137
430.539
431.782
432.286
427.66
427.248
431.828
432.048
432.111
429.349
427.95
428.099
427.992
431.401
431.736
432.032
432.118
291.459
364.732
307.71
308.35
288.071
293.565
287.962
432.325
426.488
432.051
425.221
431.965
431.439
422.903
426.018
425.385
422.687
410.74
406.592
405.653
401.024
424.23
431.021
431.698
430.64
415.232
429.417
419.762
420.785
428.872
430.94
429.968
408.616
427.351
417.419
423.087
415.941
419.643
395.145
401.545
395.179
387.421
421.75
414.286
418.929
391.385
399.444
393.964
384.372
428.623
405.901
401.496
421.669
425.18
426.672
412.689
410.837
409.852
415.501
386.717
362.863
375.07
376.903
288.038
287.928
287.99
287.928
287.979
287.927
288.06
287.936
288.008
361.536
347.808
355.138
288.035
288.105
368.965
287.994
287.956
356.641
343.039
322.52
287.97
335.361
341.145
348.427
288.011
287.948
290.88
287.955
291.669
287.943
287.934
336.454
316.574
298.904
287.94
307.683
287.935
294.837
300.915
289.087
287.928
287.929
291.016
357.825
398.925
395.631
345.986
392.189
388.505
339.93
413.009
406.155
414.751
383.656
362.843
366.678
380.646
345.196
378.076
324.08
386.6
391.605
383.875
332.603
404.645
380.154
412.177
407.844
399.063
371.131
353.169
410.649
397.539
407.791
357.528
376.521
371.133
350.538
391.04
328.507
344.871
382.385
381.494
391.772
343.586
292.588
288.668
287.927
287.927
288.077
287.937
287.927
370.8
315.024
380.322
316.802
372.436
361.584
306.385
389.514
337.28
376.812
325.949
379.665
387.083
341.058
355.147
386.609
399.892
392.827
404.302
364.168
341.709
332.253
372.918
383.75
379.461
312.035
367.867
326.02
402.217
381.064
391.552
344.238
359.377
338.724
322.532
353.149
367.241
311.382
374.055
306.344
361.4
318.886
319.523
343.768
367.365
378.311
394.118
386.317
330.316
358.08
365.263
361.763
305.208
304.958
303.058
307.327
365.429
367.743
364.214
309.974
306.783
307.622
309.056
287.928
289.831
290.565
288.128
288.066
287.927
287.928
313.096
370.165
369.092
352.8
301.431
354.105
300.739
353.482
351.452
357.146
302.645
298.383
300.785
299.916
360.804
353.901
359.588
304.028
301.691
301.065
304.778
363.515
310.989
366.907
350.151
297.664
346.09
299.423
353.221
350.598
347.221
302.204
300.59
298.061
299.366
287.926
288.165
287.927
287.928
289.447
288.035
287.927
358.821
300.699
352.687
295.715
340.607
333.727
293.815
307.005
349.585
362.429
349.818
294.17
335.495
299.139
348.656
337.213
342.73
296.652
298.67
296.516
294.894
344.735
333.528
337.094
296.069
297.272
294.902
293.998
340.742
347.176
339.504
298.675
298.178
295.957
295.583
342.881
358.577
304.223
347.622
293.118
330.836
298.181
343.465
332.129
340.179
295.687
294.354
296.69
293.617
330.309
327.797
335.779
294.498
291.83
293.255
292.745
291.852
321.398
322.568
332.095
330.855
293.667
293.399
330.661
328.862
323.214
294.713
293.341
292.984
291.958
290.773
294.216
335.485
297.161
344.905
325.521
292.141
299.263
335.164
352.994
361.518
375.695
316.198
303.873
291.332
316.004
319.174
324.964
328.459
292.911
292.264
323.896
310.307
316.899
290.946
292.064
290.995
290.145
289.842
290.368
312.077
320.52
315.354
291.533
290.788
332.482
293.852
312.881
290.201
311.764
333.872
293.541
329.666
292.158
289.947
306.458
309.557
325.471
292.945
290.473
311.963
312.968
304.291
303.53
289.466
289.389
334.455
291.232
306.03
290.933
317.876
320.036
293.921
290.123
307.461
310.076
300.184
302.107
289.246
289.057
303.146
289.351
288.931
304.244
309.77
290.083
289.463
291.294
302.781
320.103
313.907
288.887
299.024
290.45
287.937
287.926
287.926
288.073
287.927
287.928
287.926
289.718
291.98
324.702
290.384
313.568
300.071
288.969
289.127
289.473
304.312
297.994
295.782
288.846
288.637
492.219
498.221
441.459
488.483
438.969
488.051
439.892
441.402
491.097
499.025
465.443
433.086
446.119
440.837
437.82
485.023
494.321
492.193
494.956
469.028
470.616
468.499
469.568
496.721
497.098
496.513
471.735
471.489
469.892
469.556
498.877
496.843
495.078
471.345
469.884
468.266
465.683
491.697
489.525
493.578
462.42
466.322
466.907
462.626
493.846
489.398
494.193
466.766
460.473
465.757
462.09
496.854
484.804
491.162
462.334
466.944
461.692
456.552
492.196
480.121
488.727
457.644
463.525
460.079
453.711
441.705
451.18
451.727
441.04
449.971
450.289
441.372
475.592
473.439
483.156
455.575
443.844
448.98
450.202
451.3
441.74
451.767
450.096
440.85
449.263
441.324
445.064
440.594
447.9
448.036
440.034
440.812
445.033
450.248
448.528
440.078
440.096
447.719
445.565
439.155
447.599
440.057
443.013
439.766
446.413
440.668
444.428
439.138
437.917
443.081
442.87
436.581
437.993
439.728
439.112
440.955
444.549
442.12
436.395
437.952
438.625
591.778
569.065
569.643
524.66
622.377
515.243
518.771
589.829
588.834
511.774
582.235
592.673
525.532
526.996
495.814
516.664
592.959
568.944
599.791
577.942
550.113
550.352
556.482
556.654
561.096
566.413
576.891
574.517
555.199
560.907
566.272
594.515
518.531
485.008
451.959
481.323
539.454
567.83
612.097
596.724
588.324
568.597
563.418
563.253
567.492
574.146
566.92
582.327
590.691
573.138
571.668
577.089
590.181
584.878
583.675
566.457
570.744
570.248
568.745
601.693
604.031
599.535
582.846
579.262
580.965
580.396
589.473
596.69
596.297
572.9
574.245
577.591
573.054
530.34
516.951
535.009
514.525
534.81
539.285
519.369
546.735
521.468
541.367
545.008
525.323
549.486
523.13
600.425
596.902
601.147
577.624
561.119
569.211
572.794
550.882
528.588
554.545
526.536
552.737
555.108
526.542
602.128
605.119
601.941
581.177
574.382
573.727
563.63
540.77
516.308
538.97
542.899
518.016
520.362
543.514
547.359
523.62
519.108
547.391
550.215
522.737
546.122
556.935
528.635
557.291
555.218
518.251
524.087
551.309
583.27
582.216
593.999
549.686
563.396
550.641
536.109
582.632
593.064
579.954
546.229
561.545
549.569
533.599
523.352
547.213
551.937
551.94
512.194
521.084
544.351
548.715
528.786
508.007
505.145
516.051
538.176
541.556
551.846
509.041
542.918
508.021
541.996
530.856
497.323
555.138
554.035
569.604
535.835
506.258
520.022
521.394
516.978
497.492
530.86
517.741
473.658
503.8
485.546
495.155
513.058
528.556
516.482
471.209
501.085
484.338
620.84
620.289
736.1
630.678
708.645
585.315
657.212
636.914
718.578
752.464
676.26
774.167
731.882
692.954
635.691
684.762
636.907
665.514
614.049
669.916
681.189
637.523
806.474
794.668
738.075
711.525
706.533
651.527
665.477
588.791
584.188
576.342
588.211
602.907
603.543
597.729
703.638
678.973
671.146
699.2
693.478
657.33
671.382
749.719
773.767
793.704
834.09
748.073
673.443
633.49
684.162
767.584
761.898
751.542
778.749
757.584
771.654
780.463
769.908
789.308
788.395
725.768
750.866
776.175
750.4
776.812
812.462
793.637
823.471
795.929
807.556
837.181
830.173
812.138
807.533
804.758
791.098
774.623
832.179
740.328
635.842
725.807
703.564
763.539
750.938
654.487
576.596
593.08
690.262
713.852
587.426
650.141
606.617
821.688
726.293
791.764
779.234
690.452
674.312
806.648
665.46
599.542
608.962
738.54
630.743
620.97
756.354
621.694
601.062
598.638
613.962
622.324
620.173
611.528
618.142
600.299
609.318
620.812
615.782
609.243
633.863
647.804
645.523
624.22
634.714
620.893
619.341
643.186
646.101
712.62
672.547
647.462
628.549
698.6
651.452
719.065
699.086
658.57
684.015
701.046
710.313
674.971
681.735
681.306
679.902
708.494
712.383
713.737
682.352
677.969
713.34
716.07
716.055
686.523
684.249
684.14
680.649
638.906
623.838
626.023
626.402
648.726
650.675
623.083
707.442
713.717
708.891
678.955
658.367
670.897
669.961
649.487
614.029
622.299
647.084
603.769
639.216
615.074
648.1
622.524
613.443
647.834
602.99
640.019
615.009
614.961
575.587
590.701
590.047
603.998
628.622
639.782
723.915
699.972
701.168
702.545
725.269
698.119
733.689
689.273
684.762
704.589
670.07
674.777
697.29
688.529
694.457
594.552
736.853
751.379
723.069
662.365
623.091
692.128
753.542
664.859
662.186
733.122
702.346
724.084
739.321
817.794
747.106
763.814
741.565
680.629
673.913
647.372
697.528
667.659
669.76
696.056
741.249
716.613
736.286
725.576
753.047
731.414
739.736
663.062
692.038
605.948
681.868
616.75
660.753
609.205
834.536
718.214
704.031
771.663
751.471
783.308
702.327
681.301
696.71
709.178
653.829
680.842
709.91
682.25
706.661
749.902
724.325
721.919
694.28
724.049
751.556
650.262
686.321
674.269
693.268
678.621
706.144
718.091
749.423
726.33
724.568
756.075
757.843
738.249
742.726
708.411
702.657
711.314
721.394
725.333
728.213
721.737
759.274
745.409
765.029
749.845
740.134
749.895
763.169
636.134
595.979
579.834
601.779
619.507
587.332
606.643
711.381
727.799
700.957
733.443
768.987
760.907
743.172
688.144
638.418
686.999
713.732
643.813
662.493
710.339
726.351
763.13
736.571
738.179
737.855
711.788
766.016
765.677
769.794
745.361
775.667
790.154
766.723
800.203
705.539
720.431
710.051
728.01
747.457
741.841
726.032
767.924
773.541
780.064
751.238
786.544
763.568
772.477
649.711
635.617
607.345
619.038
582.083
603.88
590.897
591.238
618.478
615.455
612.944
605.803
598.822
601.07
605.915
613.066
614.246
623.108
609.82
597.228
602.423
610.889
631.663
622.841
621.959
608.879
620.819
621.562
610.279
585.434
578.939
582.623
592.598
587.078
590.179
593.718
643.138
627.498
638.689
611.771
624.689
622.46
618.268
596.28
580.191
583.29
593.503
587.575
590.653
599.32
594.119
590.523
600.651
598.035
611.945
608.565
599.955
599.609
612.453
601.355
597.744
612.377
606.999
603.955
633.426
641.981
654.155
842.799
620.634
619.856
530.964
683.516
614.239
594.311
613.324
613.69
611.542
620.625
614.678
551.348
555.783
586.398
557.923
589.725
611.638
589.289
638.38
624.545
624.739
627.954
625.747
640.539
617.453
616.639
595.756
596.652
606.356
617.413
620.988
605.379
642.282
585.729
611.538
632.559
707.407
666.898
632.831
651.661
636.425
632.409
594.982
613.411
631.113
632.975
620.154
629.584
603.917
628.703
619.584
642.012
609.022
745.336
753.792
685.989
656.5
781.928
700.315
690.273
680.331
701.135
609.699
621.74
700.915
614.5
658.028
728.292
627.918
651.171
642.141
666.699
627.545
645.816
649.89
653.554
674.908
673.88
633.919
629.886
648.306
650.962
676.576
720.15
693.834
695.17
670.845
676.653
703.495
614.923
609.961
615.242
632.442
637.993
636.596
631.175
630.355
625.515
616.679
636.115
651.277
645.269
635.025
701.098
729.284
701.058
674.405
703.886
676.311
702.236
686.847
656.625
662.542
662.276
680.426
688.515
655.681
661.596
683.666
675.827
696.873
670.515
687.543
659.318
636.016
535.668
822.164
568.603
595.664
912.905
701.697
631.271
642.495
766.297
680.651
618.759
636.485
601.369
628.39
608.63
652.854
646.874
650.732
647.029
667.511
637.843
657.368
685.21
648.376
642.372
642.818
645.359
632.659
630.496
630.488
635.276
739.563
853.139
738.013
822.91
721.79
792.332
912.269
649.954
656.767
648.73
633.195
628.876
630.735
644.481
539.501
549.47
575.986
587.413
619.519
582.895
528.746
582.689
573.427
535.54
603.466
588.276
528.524
580.438
642.639
636.86
671.747
712.327
660.058
653.393
738.898
648.371
664.128
684.997
703.266
624.621
664.993
652.167
609.342
623.272
615.801
617.532
624.017
627.971
613.757
596.39
636.296
634.568
619.326
594.231
578.392
629.667
818.159
884.468
772.677
832.123
935.331
850.421
932.268
716.68
891.695
778.773
810.018
798.238
729.623
914.07
614.593
628.241
615.817
622.213
659.691
646.55
626.278
600.155
653.986
637.538
621.71
618.783
586.412
646.546
606.766
614.314
563.393
580.284
568.205
621.483
602.508
719.929
651.187
654.079
612.153
660.638
654.907
731.215
560.605
539.443
556.918
493.588
509.533
521.361
506.105
528.605
525.138
523.908
492.231
502.418
519.115
505.909
830.164
738.811
916.018
814.814
736.799
836.596
918.295
569.052
595.412
575.964
552.716
533.609
543.646
561.224
616.137
576.676
658.755
609.388
579.38
651.173
621.52
541.873
569.947
541.358
555.127
527.041
541.366
566.377
595.096
616.999
584.343
558.592
590.135
576.336
574.532
546.345
524.392
530.925
539.06
547.205
524.903
559.68
559.551
534.027
554.584
537.607
544.815
557.244
523.729
564.357
566.233
545.131
556.957
592.191
579.415
572.643
505.325
544.973
521.917
536.619
546.834
560.944
522.586
505.256
541.475
519.464
539.066
547.674
560.065
524.42
562.973
574.112
550.311
558.112
591.615
575.151
579.026
566.779
559.835
542.358
558.717
593.874
576.125
579.233
761.659
739.029
755.1
743.03
772.073
765.129
741.631
667.408
671.254
652.339
627.879
647.475
631.021
655.62
787.008
751.7
774.344
790.676
807.678
810.56
751.282
599.808
606.297
596.426
616.951
613.814
613.856
622.415
759.67
791.744
785.276
784.275
775.17
810.422
815.951
741.129
761.109
669.72
714.403
690.613
768.164
736.151
596.869
586.775
597.942
614.939
605.322
614.366
625.59
786.239
782.936
804.624
801.61
790.946
817.948
799.904
573.552
601.262
612.064
605.318
595.446
591.802
585.681
748.078
778.628
790.913
800.26
768.798
778.394
751.972
555.643
564.833
598.917
566.881
579.767
576.562
543.103
615.716
605.747
591.546
574.124
603.728
591.019
589.143
558.194
566.735
594.842
568.097
578.273
545.562
576.553
639.61
662.434
638.531
636.855
667.163
644.13
661.009
627.408
619.073
606.755
623.416
641.784
634.545
632.16
653.734
636.718
629.038
636.993
670.188
647.08
661.217
816.09
819.582
803.498
828.86
808.172
810.184
831.706
778.254
725.843
789.971
804.05
712.901
728.721
785.959
747.44
751.933
803.517
804.04
709.817
733.972
751.816
696.927
679.571
681.401
680.371
685.931
699.711
704.432
715.554
712.026
706.575
715.565
709.013
716.322
724.584
680.872
680.622
673.005
700.338
692.68
700.557
707.749
677.256
668.597
674.986
645.357
661.531
655.418
653.093
724.546
722.498
725.614
792.813
738.341
746.174
773.129
692.797
695.124
687.661
706.242
712.524
711.771
709.586
728.319
720.936
716.891
721.412
730.332
724.337
729.298
726.452
723.334
716.011
722.858
734.361
727.951
731.499
723.584
728.859
726.36
726.141
730.597
728.313
731.994
503.39
462.442
461.239
476.793
488.785
490.182
473.224
439.353
434.63
434.879
434.772
436.585
436.428
436.713
463.858
557.476
435.264
503.984
469.742
625.268
469.115
634.293
448.554
505.485
507.744
450.69
457.17
445.877
493.752
492.087
432.384
446.119
441.899
432.111
447.719
442.196
435.259
446.092
438.445
435.554
436.248
446.442
445.434
437.329
443.668
470.667
455.401
457.417
449.276
471.022
440.295
537.243
526.39
464.146
498.529
587.083
486.053
603.649
492.92
472.567
465.121
486.703
464.156
462.339
486.198
468.646
481.187
449.48
447.975
447.749
440.605
454.385
530.481
531.228
497.246
463.286
493.875
469.473
486.752
482.63
586.757
562.05
520.511
623.455
544.506
619.484
439.338
453.924
449.477
448.439
448.137
454.132
440.582
437.789
460.609
453.253
474.317
484.106
453.028
441.615
472.159
456.244
508.71
460.154
496.441
486.906
447.706
534.152
621.465
637.304
549.261
560.751
518.492
630.778
447.945
447.961
451.41
458.888
454.344
443.036
451.12
488.858
471.897
467.83
465.209
491.521
470.638
486.853
553.016
630.804
573.324
634.677
569.927
564.711
635.633
462.499
488.004
473.045
490.149
469.176
465.635
484.099
558.993
577.435
504.274
561.569
530.353
579.432
514.145
608.991
480.452
583.97
549.559
542.545
510.887
467.822
564.94
506.544
496.023
544.412
533.403
462.363
486.862
498.469
475.067
527.023
552.538
555.814
458.307
464.977
475.368
469.904
555.509
589.677
565.159
508.387
481.117
494.3
525.942
587.094
566.106
546.514
610.973
554.183
547.469
581.017
559.267
562.692
556.813
502.418
487.437
503.678
483.221
541.663
558.265
553.914
483.554
484.532
478.636
491.403
467.115
518.583
500.688
508.685
492.497
524.913
477.501
456.635
470.439
460.126
471.957
481.539
485.812
467.22
561.81
554.556
553.988
535.934
551.503
530.751
558.304
611.753
571.984
565.527
557.057
592.575
565.863
586.187
592.144
552.663
563.812
506.557
547.151
516.468
539.423
500.757
485.303
476.268
492.358
526.706
504.322
519.272
511.205
493.317
534.191
503.081
528.913
513.652
485.43
485.79
489.954
495.602
522.886
504.167
478.011
501.643
545.622
562.905
559.668
582.414
560.235
541.223
568.957
509.73
553.504
542.527
547.313
524.229
526.23
538.044
694.289
769.835
764.718
678.177
693.045
762.488
913.304
875.393
851.897
795.282
815.429
815.191
778.693
846.431
802.144
762.14
700.652
749.678
732.296
796.692
776.57
736.408
737.786
712.257
756.996
695.321
732.604
753.605
716.694
898.057
857.119
838.221
896.998
875.633
827.1
846.976
799.496
856.246
831.567
802.387
792.048
767.057
823.028
693.866
694.894
721.727
746.418
710.434
726.483
720.827
738.178
804.227
781.477
777.769
764.346
741.842
798.455
770.05
777.802
738.523
768.912
753.551
745.989
790.15