/*--------------------------------*- C++ -*----------------------------------*\
  =========                 |
  \\      /  F ield         | OpenFOAM: The Open Source CFD Toolbox
   \\    /   O peration     | Website:  https://openfoam.org
    \\  /    A nd           | Version:  9
     \\/     M anipulation  |
\*---------------------------------------------------------------------------*/
FoamFile
{
    format      ascii;
    class       volScalarField;
    location    "0.0018";
    object      alpha.c4;
}
// * * * * * * * * * * * * * * * * * * * * * * * * * * * * * * * * * * * * * //

dimensions      [0 0 0 0 0 0 0];

internalField   nonuniform List<scalar> 
15358
(
2.52957e-05
1.86697e-07
1.82933e-05
0.000180738
1.03992e-08
4.68873e-07
1.25889e-10
2.1878e-09
7.18404e-05
0.000169818
0.000386452
8.67482e-05
3.27042e-05
2.95607e-05
9.51182e-06
7.05742e-06
7.47265e-05
2.53015e-05
2.41975e-06
1.01076e-05
2.42002e-06
4.35899e-07
5.49588e-06
2.27618e-05
6.33799e-05
1.48064e-06
7.88816e-06
2.0724e-06
2.93041e-07
1.01686e-05
9.47521e-08
2.76598e-06
7.76323e-08
2.38991e-06
5.32656e-07
1.42502e-08
0.00775838
0.189081
0.25308
0.00687134
0.0410009
0.0194306
0.578382
0.15521
0.0547496
0.00441554
0.479304
0.263177
0.437476
0.406042
0.136428
0.520853
0.319046
0.220455
0.0620504
0.152613
0.0617298
0.106934
0.0647366
0.0166811
0.134585
0.0203699
0.114072
0.0548332
0.0319095
0.0140084
0.00505387
0.570198
0.569566
0.558857
0.553011
0.540731
0.52569
0.541546
0.491594
0.367682
0.103899
0.411601
0.107208
0.216471
0.0455755
0.480102
0.521022
0.542203
0.414626
0.499251
0.471754
0.365957
0.54285
0.541004
0.557428
0.504808
0.504666
0.476974
0.525767
0.2888
0.319392
0.382985
0.304305
0.217183
0.16031
0.243433
0.171028
0.235052
0.213796
0.155984
0.173952
0.123455
0.109063
0.0712094
0.044071
0.0100901
0.0106536
0.0444007
0.0177854
0.00236422
0.520383
0.456017
0.502892
0.483766
0.461394
0.433168
0.505793
0.144077
0.188672
0.202679
0.145377
0.131918
0.101493
0.0926931
0.000919805
0.0562305
0.0124398
0.0133789
0.0600182
0.00847241
0.00110291
0.382751
0.450687
0.491046
0.434602
0.247274
0.387974
0.30825
0.0338786
0.00814514
0.00275077
0.00410353
0.0090363
0.00156033
0.000321561
0.157127
0.184348
0.250017
0.110771
0.130307
0.0738167
0.182616
0.519149
0.490754
0.454416
0.477118
0.441458
0.398778
0.442412
0.382819
0.339777
0.445534
0.412597
0.220169
0.347587
0.290635
0.457898
0.437149
0.366404
0.4597
0.424823
0.403178
0.485841
0.101176
0.0760825
0.116199
0.0815535
0.0437657
0.0521477
0.070316
0.00645356
0.000131042
0.00070361
0.0481289
0.0104009
0.0161753
0.00304518
0.03705
0.361665
0.0809354
0.0401167
0.16165
0.0116102
0.0343343
0.400354
0.192841
0.343546
0.190247
0.33472
0.280138
0.142836
0.225009
0.0975894
0.150971
0.109464
0.118892
0.0707968
0.174373
0.059641
0.0877059
0.0944546
0.0396041
0.0646934
0.0587602
0.0355321
0.370824
0.176116
0.260535
0.185228
0.322611
0.30563
0.236924
0.0732252
0.103015
0.117643
0.0825602
0.0430831
0.0515343
0.0713969
0.0793934
0.109125
0.158321
0.0690722
0.106111
0.0755854
0.049859
0.454939
0.359732
0.409789
0.350802
0.351863
0.299967
0.400462
0.323867
0.42656
0.384751
0.339171
0.322317
0.277297
0.386154
0.129996
0.0898663
0.0473423
0.0905178
0.04866
0.0628354
0.0323455
0.0491816
0.0260128
0.0318645
0.0270281
0.0331199
0.0211989
0.016761
0.0937546
0.0464127
0.0824363
0.0379262
0.0649647
0.0575599
0.0323184
0.074557
0.0865979
0.0898905
0.0324404
0.0494117
0.0484156
0.127388
0.143834
0.233142
0.286044
0.229335
0.0806579
0.184856
0.106814
0.0590785
0.0377307
0.0334378
0.0339145
0.0383199
0.0209663
0.0206873
0.0538441
0.0273369
0.0213924
0.0278286
0.0340947
0.0336738
0.0453919
0.0459956
0.0741656
0.0516519
0.0479261
0.019052
0.0287396
0.0317926
0.216061
0.140794
0.272127
0.223973
0.0788139
0.175036
0.105957
0.059554
0.0316261
0.0357357
0.0335862
0.0379699
0.0207266
0.0194294
0.290288
0.271152
0.286381
0.180401
0.228781
0.240191
0.338993
0.0372645
0.0232676
0.0239814
0.0208687
0.0211824
0.0145064
0.0125586
0.3071
0.306628
0.254355
0.298044
0.248507
0.198057
0.240907
0.00186643
0.0145945
0.0325286
0.00485553
0.0134343
0.000344598
0.00149907
0.0236464
0.0244523
0.0407685
0.0358944
0.0115539
0.0211831
0.0199495
0.036442
0.0270103
0.030429
0.0228641
0.0204101
0.016468
0.012312
0.0342161
0.0393831
0.0634813
0.0449309
0.0144098
0.0240558
0.028197
0.180945
0.0599279
0.0611049
0.107152
0.138705
0.143668
0.0800931
0.0624574
0.0219597
0.0318832
0.0324042
0.0444735
0.0219766
0.0153873
0.187433
0.0620702
0.148909
0.0617371
0.146893
0.114566
0.0476128
0.0281478
0.0117549
0.0171422
0.0111863
0.0169351
0.00989415
0.00649378
0.0628651
0.0218678
0.0327202
0.0319585
0.044502
0.022032
0.015054
0.0165971
0.0138671
0.0208628
0.013793
0.00662763
0.00917566
0.0104851
0.154109
0.248341
0.20304
0.149911
0.127933
0.105817
0.182968
0.0135983
0.0169311
0.0215342
0.0137673
0.00613393
0.00878339
0.0103499
0.0249373
0.00890706
0.00987347
0.0154681
0.0138953
0.00826202
0.00519406
0.0280267
0.00888915
0.0103413
0.0084522
0.0163765
0.0148047
0.0176978
0.0135534
0.0230453
0.0233839
0.0123509
0.00678711
0.00685436
0.0122027
0.0145247
0.00774505
0.0127881
0.00530432
0.00877837
0.00739374
0.0042991
0.230357
0.134387
0.190652
0.143406
0.111223
0.0932878
0.173818
0.0165035
0.00839163
0.0176347
0.0104625
0.0042649
0.00466586
0.00972612
0.0216621
0.0133667
0.0231238
0.0121788
0.00620899
0.0067328
0.011342
0.00854351
0.0176486
0.0178591
0.0106227
0.00474544
0.0105122
0.00477324
0.0144623
0.00650757
0.0122547
0.00470431
0.008526
0.0070172
0.00360221
0.0885305
0.0480596
0.116373
0.0868651
0.0273852
0.0629687
0.0365443
0.0468382
0.0799712
0.111624
0.0840996
0.0252269
0.0569035
0.0356761
0.0155545
0.0245375
0.0243136
0.0113357
0.0111215
0.0186236
0.00824533
0.0236486
0.024042
0.032278
0.0152537
0.00772815
0.0106506
0.0109023
0.0139764
0.00472228
0.0104597
0.00348224
0.00814386
0.00599786
0.00248074
0.0183063
0.00762405
0.0136135
0.00512252
0.00950835
0.00700406
0.00369177
0.00702637
0.00613245
0.0103466
0.00570841
0.00204727
0.00322171
0.00370373
0.00938233
0.00444772
0.00423425
0.00646797
0.00625644
0.00436038
0.00273103
0.100592
0.0762853
0.069819
0.0351212
0.0596752
0.0648107
0.120842
0.00899708
0.00377724
0.00401258
0.00395138
0.00581438
0.00604246
0.00639713
0.00586977
0.00465743
0.00933489
0.00523931
0.00143636
0.0024958
0.00326272
0.0457133
0.00628802
0.0155024
0.0131499
0.0846593
0.143563
0.228965
0.129327
0.0141561
0.0473436
0.00345397
0.0319459
0.0110918
0.0727451
0.127311
0.0799606
0.0252661
0.176799
0.226018
0.17434
0.147323
0.149618
0.111069
0.109333
0.219016
0.167642
0.228405
0.176022
0.149379
0.110616
0.105495
0.193834
0.146052
0.155391
0.11413
0.101758
0.0920811
0.0718541
0.00205067
0.0544747
0.0162686
0.0162117
0.00292897
0.00399636
0.000893381
0.127424
0.0900723
0.0886868
0.0781947
0.0518155
0.0525811
0.0770133
0.121962
0.128579
0.089466
0.0776929
0.0492757
0.0521507
0.0736887
0.0480672
0.0872241
0.0886378
0.063981
0.0334483
0.0339315
0.0629802
0.114455
0.0556468
0.0816388
0.0509335
0.0741341
0.0509889
0.0342767
0.0848511
0.0478356
0.0884075
0.0636359
0.0318885
0.0336643
0.0605762
0.105305
0.0554611
0.0810189
0.0423256
0.0636892
0.0489877
0.0322552
0.04027
0.0751487
0.0599261
0.0276176
0.0527875
0.0411058
0.0213692
0.0372109
0.0367196
0.0340183
0.0246677
0.02241
0.0225114
0.0145969
0.0380118
0.0383742
0.0568255
0.0341791
0.0144788
0.022602
0.0222258
0.0230112
0.0295395
0.0434228
0.0290185
0.00981503
0.0149622
0.019303
0.0438065
0.0143044
0.0282356
0.0223579
0.0286061
0.0226378
0.0431799
0.0434458
0.0210326
0.0266228
0.014101
0.0283047
0.0223857
0.0410784
0.017962
0.0227379
0.0353851
0.0271191
0.0082743
0.013632
0.0172216
0.0245542
0.010465
0.0161963
0.00934015
0.0145906
0.00933096
0.00583834
0.0249863
0.0104173
0.0163235
0.00919241
0.0146064
0.00930022
0.00572674
0.0125262
0.0194307
0.0100243
0.00619186
0.0124645
0.00789012
0.00378126
0.0188035
0.00597557
0.0055407
0.00755093
0.00933229
0.0122864
0.0117646
0.00204335
0.00353525
0.00658745
0.00653587
0.0104583
0.00581294
0.00348181
0.00124151
0.00222626
0.00488904
0.00381949
0.00792397
0.00488416
0.00222404
0.00366823
0.00468206
0.00778795
0.00482308
0.00115861
0.00281785
0.00216822
0.00185562
0.00703042
0.00308214
0.00394379
0.000892871
0.00155957
0.00240415
0.00499064
0.00568613
0.00908194
0.00461022
0.00138732
0.00282324
0.00235932
0.0188842
0.00634551
0.00844497
0.0108812
0.0143441
0.00618538
0.0046021
0.00595223
0.00109925
0.00305367
0.0024379
0.00306816
0.00590327
0.00244287
0.00271141
0.00296069
0.00502473
0.00397504
0.00103902
0.00195848
0.0022174
0.0605213
0.0188187
0.0235237
0.0177032
0.0379971
0.0408042
0.0265311
0.0182676
0.00568843
0.0080068
0.0100107
0.0139627
0.00596432
0.00417005
0.00583773
0.0021241
0.00270143
0.00105125
0.00298694
0.00236784
0.00536904
0.00029819
0.000612791
0.00163093
0.000640584
0.00122086
0.00167415
0.00290198
0.00288188
0.000708477
0.000899215
0.000632573
0.00128948
0.00153565
0.00175824
0.00168415
0.00216487
0.00441787
0.00317693
0.00046029
0.00115319
0.00150039
0.00288468
0.00319673
0.00453022
0.00307769
0.00113765
0.00216427
0.0017692
0.00763361
0.00719109
0.0105255
0.00441816
0.00200313
0.00297221
0.00317423
0.00255501
0.002737
0.00416538
0.00292106
0.000950998
0.00190168
0.00164351
0.116677
0.0935828
0.0230279
0.125499
0.0245597
0.0998284
0.225278
0.283727
0.307733
0.24071
0.310349
0.243572
0.228209
0.166915
0.164337
0.306179
0.211049
0.224108
0.24093
0.226047
0.165517
0.154767
0.180424
0.123378
0.177759
0.115024
0.0735495
0.0748348
0.113076
0.0981809
0.153598
0.15607
0.107698
0.0648481
0.10585
0.0659549
0.167099
0.124509
0.178838
0.114078
0.0693935
0.0741544
0.106779
0.0991637
0.145685
0.154967
0.106924
0.0616416
0.0654508
0.100467
0.0704491
0.0249327
0.0430614
0.0408876
0.0437782
0.0692341
0.0415616
0.069863
0.0405411
0.0386512
0.0246432
0.043332
0.0411723
0.0655425
0.0366901
0.00177037
0.00022344
0.00215643
0.183626
0.0461475
0.0129254
0.192192
0.0372883
0.37328
0.0814603
0.315718
0.312792
0.315395
0.260228
0.258599
0.206227
0.25311
0.0143938
0.00538856
0.000416722
0.00192073
0.0086377
0.032913
0.0073182
0.012323
0.000514801
0.00243203
0.000114502
0.000243675
0.00145239
0.000728217
0.190605
0.06242
0.0624291
0.150833
0.150449
0.117547
0.0483783
0.00112104
2.48176e-05
0.000172936
0.000674312
0.000832634
0.00604512
0.00141332
0.150481
0.248948
0.203595
0.154476
0.128369
0.106181
0.189505
0.156206
0.254375
0.206976
0.156333
0.133853
0.110059
0.192338
0.0159616
0.0247787
0.0248577
0.0116494
0.0115438
0.0190802
0.00859374
0.087217
0.0482197
0.116742
0.0887551
0.0274721
0.0371421
0.0631839
0.0893288
0.0483935
0.117722
0.0894059
0.0280249
0.0373197
0.0648574
0.00716683
0.00776486
0.00732169
0.00438498
0.00441675
0.00408781
0.00239681
0.00980648
0.00463074
0.00473986
0.00676797
0.00665832
0.0046541
0.00299485
0.10915
0.0810926
0.0401485
0.0833531
0.0702696
0.0685579
0.132536
0.00508423
0.00358297
0.00368932
0.00293639
0.00283489
0.00214563
0.00157851
0.0997988
0.0592444
0.0723955
0.0880785
0.0631658
0.00752784
0.0229139
0.0503789
0.0312201
0.194313
0.336631
0.107814
0.126285
0.0946168
0.300214
0.309515
0.156206
0.412074
0.394964
0.35948
0.320899
0.34518
0.282262
0.269879
0.26088
0.18478
0.248025
0.150197
0.209824
0.199746
0.142603
0.358223
0.234226
0.287699
0.25287
0.311931
0.242164
0.192368
0.258164
0.244627
0.296252
0.188597
0.233964
0.22342
0.17878
0.134416
0.105351
0.141319
0.101397
0.0963453
0.0732112
0.0691473
0.0961549
0.164005
0.12679
0.137876
0.174494
0.220761
0.177821
0.0788828
0.0843929
0.114177
0.121043
0.128485
0.166481
0.158067
0.114591
0.152679
0.155865
0.212786
0.204674
0.264219
0.198939
0.0267135
0.0292878
0.004262
0.00471717
0.0200122
0.00144575
0.00432649
0.0662943
0.119168
0.090814
0.0644132
0.0853024
0.0608147
0.0453962
0.0507609
0.0547375
0.0770376
0.0354259
0.0517181
0.048324
0.0325555
0.0719337
0.0475573
0.0681968
0.0344804
0.0505067
0.0474806
0.0321712
0.0704587
0.0490785
0.0679995
0.105181
0.0765711
0.105453
0.139688
0.0397633
0.0422742
0.0421136
0.0293835
0.0273253
0.0274586
0.018446
0.0466001
0.0311136
0.0434142
0.0419024
0.0196378
0.0306728
0.0276012
0.0452084
0.0418726
0.060265
0.0415602
0.0205514
0.0279591
0.0307975
0.319817
0.440638
0.566155
0.611453
0.348319
0.398438
0.208974
0.313746
0.56862
0.595518
0.635156
0.533568
0.585932
0.559625
0.506303
0.466431
0.388086
0.51041
0.538349
0.465518
0.366561
0.439744
0.517565
0.451453
0.508328
0.452771
0.511775
0.45485
0.389331
0.465713
0.468873
0.528261
0.447833
0.50354
0.441147
0.378231
0.39013
0.457203
0.386638
0.323121
0.259529
0.389981
0.322839
0.248515
0.321456
0.390996
0.235983
0.297022
0.369436
0.304596
0.399002
0.406106
0.457432
0.393889
0.28004
0.337852
0.331645
0.163434
0.262091
0.207349
0.326707
0.216636
0.27006
0.265851
0.606571
0.150321
0.196136
0.254471
0.387783
0.119077
0.155477
0.0405833
0.265318
0.115603
0.28886
0.586989
0.564777
0.399245
0.46462
0.144617
0.570749
0.333963
0.261946
0.142632
0.0593387
0.0166362
0.0622635
0.179904
0.0540024
0.450511
0.393459
0.395308
0.328424
0.329299
0.337591
0.272855
0.084768
0.111998
0.0266425
0.0813912
0.0382492
0.0591858
0.0177954
0.320125
0.200798
0.200922
0.261179
0.262393
0.209051
0.154453
0.611373
0.601321
0.593484
0.596911
0.588715
0.571368
0.584039
0.209854
0.332804
0.214219
0.272499
0.27563
0.218598
0.164713
0.341554
0.224186
0.273806
0.228855
0.282852
0.221255
0.174234
0.527773
0.472573
0.561377
0.468433
0.555953
0.521603
0.403219
0.404432
0.323685
0.191002
0.324334
0.195521
0.137832
0.246773
0.178538
0.108026
0.128376
0.11247
0.133272
0.0931699
0.0784063
0.150581
0.149399
0.148077
0.111189
0.109103
0.111556
0.0795758
0.588144
0.551975
0.575761
0.548033
0.544336
0.517176
0.566993
0.61615
0.243204
0.605058
0.631261
0.625584
0.569231
0.393084
0.597703
0.575238
0.343482
0.578806
0.398203
0.250566
0.0906345
0.454601
0.294805
0.494656
0.60612
0.548397
0.567101
0.490174
0.426023
0.528768
0.630775
0.615531
0.626752
0.605515
0.618091
0.610233
0.588265
0.628601
0.627965
0.631194
0.622929
0.621839
0.617268
0.619275
0.352312
0.469966
0.427406
0.37285
0.409598
0.333659
0.295433
0.619002
0.624633
0.623094
0.610672
0.606653
0.601441
0.613965
0.56916
0.617408
0.59739
0.598322
0.521865
0.580854
0.561399
0.478295
0.537102
0.424633
0.349143
0.403668
0.268468
0.474021
0.20618
0.275394
0.319322
0.256585
0.159719
0.187855
0.221681
0.612137
0.592579
0.60934
0.603106
0.590995
0.584163
0.60713
0.60006
0.533468
0.575011
0.588718
0.499482
0.559569
0.549872
0.516407
0.359551
0.426845
0.355637
0.395524
0.286379
0.466707
0.35212
0.321567
0.269532
0.275544
0.198214
0.22191
0.245106
0.594226
0.590566
0.55552
0.581753
0.581815
0.572198
0.600106
0.572039
0.462286
0.50485
0.452591
0.548057
0.536841
0.512858
0.27746
0.325419
0.149771
0.32475
0.20339
0.212926
0.401358
0.202944
0.12186
0.106088
0.136511
0.142824
0.15663
0.176185
0.165408
0.155893
0.209602
0.163146
0.0859647
0.116515
0.124154
0.115286
0.16087
0.210226
0.16245
0.0832222
0.11614
0.119612
0.532856
0.577883
0.552506
0.541778
0.530351
0.502854
0.561035
0.15937
0.169316
0.220803
0.170591
0.0878485
0.128317
0.122642
0.325181
0.514673
0.462188
0.470562
0.256405
0.328988
0.409473
0.406148
0.480346
0.526263
0.476504
0.261008
0.42132
0.331785
0.101926
0.248589
0.182868
0.097957
0.128577
0.180884
0.0685867
0.246259
0.0951341
0.13567
0.0958122
0.127435
0.179873
0.0662853
0.511327
0.501375
0.418425
0.50924
0.472291
0.464569
0.538651
0.0827337
0.0979764
0.0704846
0.0666075
0.0387802
0.055865
0.046648
0.0768004
0.0641708
0.0911893
0.0647036
0.0373531
0.0447141
0.0543218
0.113894
0.0589712
0.060004
0.0823898
0.0819382
0.0572066
0.0403128
0.0806108
0.056865
0.0557363
0.0795356
0.0814073
0.0565129
0.0385512
0.110362
0.0563674
0.0589586
0.0813473
0.0788132
0.0563283
0.0395216
0.67378
0.632808
0.601437
0.669561
0.407199
0.525585
0.619447
0.44882
0.673367
0.661856
0.660364
0.652949
0.651676
0.631858
0.63389
0.658395
0.638838
0.654015
0.621756
0.642961
0.621565
0.597871
0.591629
0.635038
0.593581
0.596357
0.54953
0.548706
0.598188
0.621793
0.581969
0.585225
0.595922
0.55894
0.5569
0.597989
0.552678
0.623241
0.580398
0.584843
0.505098
0.537474
0.556357
0.574851
0.605503
0.564283
0.582751
0.504786
0.541979
0.55161
0.555533
0.501416
0.449726
0.512371
0.511917
0.501518
0.556672
0.543413
0.456567
0.464341
0.440831
0.500297
0.491146
0.50999
0.500371
0.540307
0.300742
0.135136
0.342317
0.317107
0.197343
0.35751
0.541213
0.477262
0.490487
0.490899
0.477688
0.421564
0.420067
0.53005
0.443426
0.450244
0.481844
0.470396
0.415421
0.388852
0.256695
0.314301
0.253966
0.400778
0.339133
0.402563
0.341487
0.291384
0.434825
0.373643
0.375709
0.436188
0.359851
0.294236
0.241768
0.31539
0.255022
0.377393
0.398479
0.338035
0.31836
0.397861
0.369788
0.428603
0.355188
0.271385
0.290964
0.331457
0.194789
0.274413
0.143977
0.141796
0.211015
0.277189
0.21385
0.185372
0.196035
0.143052
0.274671
0.199426
0.21217
0.258196
0.12262
0.0606341
0.0589172
0.0609838
0.0850294
0.0897593
0.0867728
0.416349
0.194521
0.290656
0.196108
0.355643
0.258868
0.350297
0.0451926
0.0253847
0.0207648
0.0252542
0.0306941
0.0376281
0.0309999
0.0669128
0.0891381
0.0316656
0.0889242
0.127585
0.0458601
0.0463035
0.0405441
0.0394322
0.0581434
0.0395164
0.0173594
0.0269891
0.0262153
0.0559713
0.0259619
0.0389793
0.0389482
0.0172326
0.0265644
0.0259389
0.0422172
0.0420953
0.0293608
0.0397143
0.0184288
0.0274138
0.0273107
0.034569
0.0228816
0.0146926
0.0320468
0.0131004
0.020993
0.020773
0.0172972
0.0178057
0.0112098
0.0111987
0.0178592
0.0116146
0.00706524
0.0198104
0.0127598
0.0194901
0.0117852
0.0183743
0.0120214
0.00747563
0.0294281
0.018462
0.0132017
0.0121349
0.0200056
0.0121397
0.00773718
0.011203
0.00705827
0.0116032
0.026677
0.0111786
0.0178281
0.0172719
0.0275707
0.0122789
0.0108107
0.0128345
0.0178613
0.0200164
0.0174156
0.252792
0.0108977
0.00141319
0.0295414
0.071585
0.0798087
0.0193483
0.0649236
0.0454372
0.0269608
0.00584001
0.138819
0.0482955
0.420034
0.107564
0.428945
0.54765
0.10845
0.262656
0.179296
0.1867
0.237027
0.176865
0.132099
0.129467
0.0956355
0.00299446
0.0190518
0.0444723
0.0448895
0.127789
0.0113489
0.037499
0.0436151
0.0173686
0.00350852
0.000609845
0.00775423
0.0197899
0.00425682
0.52059
0.514452
0.517078
0.477581
0.480276
0.429231
0.475992
0.0112843
0.00933552
0.00157868
0.00982471
0.0347201
0.00494733
0.0210327
0.0891623
0.0961505
0.127897
0.0616767
0.0915458
0.064919
0.0427031
0.42438
0.197655
0.198722
0.359634
0.361842
0.297172
0.146428
0.102723
0.0977239
0.139505
0.0581248
0.0893858
0.0656912
0.0425895
0.123222
0.060173
0.0922407
0.0523976
0.084803
0.0630379
0.0392638
0.366583
0.471665
0.42499
0.371517
0.368695
0.312197
0.425815
0.477518
0.374352
0.430769
0.374203
0.374526
0.3166
0.428818
0.0662886
0.0891869
0.089542
0.0458938
0.0460704
0.062691
0.0319399
0.0447618
0.0254404
0.0256524
0.0307823
0.0309576
0.0211221
0.0171199
0.0617408
0.0413105
0.0426198
0.0276116
0.0292326
0.0279206
0.0181996
0.0301347
0.0474399
0.0694332
0.0439339
0.0177326
0.0282757
0.0281395
0.0418096
0.0412063
0.0632472
0.0426214
0.0171263
0.0276593
0.0265926
0.236053
0.145537
0.294442
0.238328
0.0811355
0.107998
0.189187
0.239854
0.146871
0.298268
0.239701
0.081437
0.190824
0.108356
0.0325225
0.0231895
0.0234367
0.0216742
0.0213779
0.0152873
0.0138289
0.315402
0.205937
0.312323
0.315235
0.26007
0.258138
0.372986
0.0340464
0.032701
0.0552199
0.0408531
0.0142586
0.0250493
0.024333
0.0220781
0.0623955
0.0317359
0.0326958
0.0446689
0.0222839
0.0157604
0.062869
0.0224625
0.0320553
0.0329466
0.044853
0.0224505
0.0160251
0.0292403
0.0120067
0.0183393
0.012744
0.0194551
0.011761
0.00746507
0.0284328
0.0136739
0.0187133
0.0133512
0.0183671
0.0116683
0.00834146
0.0140479
0.0168583
0.0209012
0.0142822
0.00711935
0.0111659
0.00961056
0.0189398
0.0118354
0.0191463
0.0110052
0.0180264
0.011424
0.00675816
0.190335
0.117355
0.0622594
0.0623745
0.150716
0.0813179
0.150107
0.0144562
0.0172363
0.0212297
0.0144533
0.00739615
0.00988002
0.0113492
0.0273773
0.0110748
0.0178346
0.0108159
0.0177377
0.0112845
0.00673115
0.0149903
0.00810208
0.0134858
0.00584224
0.00963176
0.00842935
0.00487699
0.0154134
0.008636
0.0139694
0.00612465
0.00982566
0.00863677
0.00516435
0.0273191
0.00941387
0.0103639
0.0103165
0.0174204
0.0165602
0.0162945
0.00696509
0.00411095
0.00242746
0.00709457
0.0115229
0.00728729
0.00434527
0.00271447
0.0049656
0.00833174
0.0130841
0.00812618
0.00767222
0.00460346
0.00708918
0.00432822
0.00254379
0.00451664
0.00737012
0.0116332
0.0073731
0.0247223
0.0248385
0.0328611
0.0159446
0.00858451
0.0116432
0.0115253
0.00633904
0.00636952
0.0109246
0.00676718
0.00204882
0.0038534
0.00380745
0.0122998
0.00441041
0.00730803
0.00715168
0.002393
0.00437826
0.0040793
0.00727828
0.00695146
0.0115003
0.00707991
0.0024242
0.00433918
0.00410272
0.00799183
0.00653279
0.00446827
0.00687881
0.00253166
0.0047697
0.0038018
0.00847471
0.00709027
0.01182
0.00709038
0.00275012
0.00407681
0.00494686
0.00980212
0.00463019
0.0046515
0.00473973
0.00676633
0.00731811
0.00665327
0.0644843
0.0195806
0.0265405
0.0199008
0.0279058
0.0436415
0.0427811
0.0189393
0.00620184
0.00846302
0.0109109
0.0146258
0.00635577
0.00461199
0.00643152
0.0191182
0.0147214
0.011161
0.0147321
0.006435
0.00475648
0.00293659
0.00214582
0.00368957
0.0035836
0.00604608
0.00508499
0.00283543
0.00128326
0.00227195
0.00412225
0.00115329
0.00223345
0.00125703
0.000610681
0.00102248
0.00404023
0.00203656
0.00109544
0.00231894
0.0011974
0.000521478
0.00276155
0.00258967
0.0047399
0.00141248
0.0025673
0.00134426
0.000704745
0.00269157
0.00219595
0.00400133
0.00134635
0.00210605
0.00109429
0.000654904
0.000726486
0.00256954
0.00137106
0.00251644
0.00141351
0.00263709
0.00447604
0.000654774
0.00109427
0.00219595
0.00400139
0.00134596
0.00269105
0.00210604
0.0041137
0.00115113
0.00125511
0.00128147
0.0024284
0.00226749
0.00222894
0.00308274
0.00288561
0.00453545
0.00319979
0.00113847
0.00186708
0.0021674
0.00303508
0.00469691
0.00326258
0.0032636
0.00121206
0.00192093
0.00226538
0.00793887
0.00807157
0.0111043
0.00472139
0.00224128
0.00338361
0.00331713
0.00204533
0.000724888
0.00148832
0.000642886
0.00120326
0.000794163
0.000362889
0.00161162
0.00124922
0.00218267
0.000700652
0.0012492
0.000832603
0.000407342
0.00202388
0.000372725
0.000260735
0.000497039
0.000690101
0.00118146
0.000908849
0.000330985
0.00137382
0.000682951
0.000666722
0.000124297
0.000321497
0.000295278
0.000547289
0.000644091
0.00126893
0.000623378
9.55268e-05
0.000292754
0.000239779
0.00110489
0.000186248
0.000473112
0.000579224
7.65759e-05
0.000244981
0.000219948
0.00204919
0.000659923
0.000836939
0.0005896
0.00129433
0.00140411
0.00105464
0.000436865
0.000600412
0.00101893
0.00049105
8.18582e-05
0.000259022
0.000187593
0.00224049
0.000711216
0.00095922
0.000737809
0.00119295
0.00152282
0.00148339
0.000278599
0.000520947
0.00112165
0.000520959
9.78837e-05
0.00027863
0.000217782
0.0757515
0.000258931
0.0113394
0.0186604
0.0814946
0.0127458
0.0129597
0.0139775
0.00131029
0.0138486
0.00155474
0.0463184
0.0104275
0.0107774
0.000998526
0.00306425
0.000175076
0.00255425
0.0808168
0.042488
0.0454968
0.0454591
0.0486244
0.0262335
0.0243954
0.0800271
0.0452268
0.0459893
0.0482271
0.0491121
0.0265776
0.0261676
0.0635056
0.0355201
0.0379916
0.0259027
0.0275273
0.0202742
0.014653
0.00177506
7.81531e-05
0.00136607
0.000244681
0.00231561
0.000134595
1.33171e-05
0.00230787
0.00557932
0.0012033
0.000266757
0.0008918
5.75373e-05
0.000131588
0.0301938
0.01042
0.0168995
0.0106465
0.0176708
0.00941359
0.00566539
0.0141636
0.0254248
0.0258113
0.0143449
0.00745827
0.0141564
0.00753799
0.0251276
0.013825
0.0270197
0.0140934
0.00633997
0.00694919
0.0130139
0.0237446
0.0139593
0.0254884
0.0141242
0.00680247
0.00739916
0.013073
0.0140518
0.0269
0.0273615
0.0143228
0.00702449
0.00709805
0.0141293
0.00681999
0.00628201
0.00625804
0.00372309
0.00361441
0.00330383
0.00187415
0.0208365
0.00734141
0.0149334
0.00511309
0.0106976
0.00761705
0.00354507
0.0198213
0.00783159
0.0144552
0.00556986
0.0108035
0.00777066
0.00396339
0.00353748
0.00124037
0.000106285
0.00064098
0.000315793
0.00131705
7.84674e-05
0.000201788
0.00659155
0.00400032
0.00582206
0.00654785
0.0104744
0.00348825
0.00204537
0.00507238
0.00576875
0.00942023
0.00496605
0.00144568
0.00295679
0.00249451
0.00452056
0.00553255
0.00942546
0.00479047
0.00118536
0.00279295
0.00214793
0.0046017
0.0034049
0.00319073
0.002663
0.00245179
0.00190432
0.00136016
0.00741819
0.00365243
0.00155473
0.00345066
0.00347096
0.00734076
0.00367678
0.00727293
0.0030337
0.00323899
0.00149325
0.00337457
0.00358326
0.00666308
0.00403314
0.0011955
0.00215218
0.00109391
0.00203333
0.00102065
0.000520685
0.00353043
0.00122709
0.00195067
0.00107467
0.00175633
0.000909799
0.000520086
0.000539572
0.00103237
0.00219825
0.00230672
0.0039104
0.00197582
0.00110493
0.000298462
0.000613884
0.00122277
0.0016752
0.00290657
0.00163394
0.000894252
0.000587814
0.00113859
0.0023546
0.00206588
0.00402461
0.00235553
0.00113903
0.00239547
0.00258234
0.00541803
0.00381179
0.000643816
0.00161763
0.001771
0.00342613
0.000984974
0.00198089
0.000788718
0.00168772
0.000921597
0.000401745
0.00313381
0.000688538
0.0017191
0.000608076
0.00155366
0.000823065
0.000287879
2.36582e-06
4.54408e-05
0.000321256
0.00013258
0.00473547
0.000774635
0.00471584
0.000143632
0.00251477
0.00766702
0.00832971
0.0130765
0.00811986
0.00459939
0.00496345
0.00271315
0.000133589
0.000352794
0.000120415
9.18608e-09
1.68825e-06
9.2968e-05
7.09115e-06
0.00150913
0.00154452
0.00286975
0.00275686
0.00504676
0.00286922
0.00150882
0.00141313
0.00263635
0.00447299
0.00136992
0.00256729
0.00144506
0.000726157
0.00256459
0.00134271
0.00258698
0.00141144
0.00275991
0.00145143
0.000704175
0.00236097
0.000356
0.000571842
0.000495994
0.0013424
0.000946016
0.00105951
0.00204559
0.000794241
0.00148861
0.000642759
0.00112099
0.000724964
0.000362869
0.00174031
0.000530635
0.00120833
0.000499002
0.0010145
0.00063464
0.000255844
0.000124223
0.000330798
0.000295
0.000665988
0.000682316
0.00137243
0.000727753
0.000322197
0.000331925
0.000717136
0.000352737
0.000757123
0.00150942
0.000756645
0.000348982
0.000348919
0.000740535
0.000359195
0.000759108
0.00146921
0.000758956
0.000756926
0.000757238
0.00150993
0.000717492
0.000332102
0.000322299
0.000132621
0.000683517
0.000269967
0.000104864
0.00065693
0.000254834
0.00129884
0.000576131
0.000450335
0.000131163
5.01052e-05
0.000306523
0.000131206
0.000909123
0.0004505
0.000578362
0.000513948
0.0011028
0.000472328
7.64993e-05
0.000219653
0.000186006
0.000319903
0.000435648
0.000898909
0.000405887
4.79036e-05
0.00012438
0.000180494
0.000386865
0.000177884
4.19396e-05
0.000122676
0.000274141
0.000846583
0.00042942
0.000600158
0.000491011
0.00101889
0.00043679
8.1812e-05
0.000187544
0.000223302
0.000424323
0.00028781
0.000778415
0.000366608
4.743e-05
0.000118689
0.000178441
0.000282918
0.00023824
0.000716238
0.00035465
3.08018e-05
0.000104871
0.000127673
0.476964
0.540876
0.356016
0.377801
0.186231
0.410431
0.439055
0.283076
0.544452
0.516278
0.514485
0.497483
0.494145
0.466119
0.467423
0.521476
0.458326
0.499162
0.428592
0.475114
0.451893
0.410918
0.390774
0.328009
0.464261
0.392528
0.464521
0.411391
0.330465
0.441822
0.372925
0.374898
0.34135
0.341263
0.409718
0.409081
0.41864
0.385705
0.454172
0.402928
0.301952
0.325848
0.370625
0.422033
0.320435
0.358931
0.300752
0.332128
0.397125
0.359604
0.28099
0.349444
0.200702
0.197919
0.262723
0.351037
0.265546
0.257293
0.244787
0.19898
0.278617
0.262695
0.344683
0.317463
0.0687368
0.233494
0.0247039
0.130317
0.263873
0.140049
0.0780193
0.0264734
0.295195
0.296263
0.263169
0.212009
0.211776
0.183991
0.18294
0.25419
0.257298
0.284683
0.183235
0.204823
0.179799
0.163618
0.210368
0.208144
0.137694
0.140809
0.0872178
0.138887
0.0888818
0.192
0.138969
0.207402
0.138954
0.082609
0.0881531
0.128827
0.135346
0.0783474
0.135596
0.114296
0.0634011
0.0640711
0.113307
0.118128
0.0762283
0.131563
0.111912
0.0574402
0.0628118
0.102143
0.0842883
0.0269479
0.0501995
0.0449881
0.0457201
0.0829684
0.0511719
0.0831895
0.0417272
0.0473241
0.026609
0.0450871
0.0506649
0.0771426
0.000349776
0.000368804
0.000685571
0.000395715
6.48384e-05
0.000176907
0.000164518
4.37199e-05
0.000349786
0.000138748
1.26799e-05
4.75921e-05
0.00014366
4.54514e-05
3.6151e-05
0.000120397
0.000333397
1.09539e-05
4.27362e-05
0.000137906
4.27421e-05
3.1516e-05
8.9793e-05
3.65598e-05
7.97686e-06
2.75123e-05
0.000276533
0.000102205
0.000131465
0.000314154
0.000578494
0.000314122
4.51942e-05
0.000113424
0.000141946
1.26779e-05
4.75875e-05
0.000133527
4.37055e-05
0.000138708
0.00014364
0.000349664
2.94981e-05
0.000110587
0.000290694
0.000117532
3.21919e-05
8.43249e-06
3.90165e-05
2.50471e-05
7.26767e-05
1.50752e-05
3.44062e-06
1.35257e-05
4.80124e-05
0.000195805
0.000337765
0.0223573
0.00013391
0.000315669
6.22322e-05
0.0240596
0.00332762
5.25006e-06
6.83015e-08
1.11946e-05
5.41281e-07
7.89029e-05
0.00017201
0.00561568
0.000783423
6.77048e-05
9.42132e-05
0.00621708
0.000911599
0.0234717
0.00713228
4.39512e-06
0.00125862
0.0152547
0.00333784
0.00062063
4.58072e-05
0.00147685
1.38949e-06
0.000356041
0.000396151
2.22962e-06
0.000169535
1.42467e-08
0.0237752
0.0161225
0.0163077
0.0101116
0.0102031
0.00664879
0.00660338
0.0066842
0.0073047
0.000465482
2.02549e-06
0.00042566
0.000587783
4.15116e-06
0.0235779
0.0151129
0.016109
0.00940344
0.0100565
0.00651711
0.0060084
0.00774703
0.00215914
0.00161879
0.132303
0.0278605
0.0214343
0.00701062
0.0194789
0.0129094
0.00982467
0.00802256
0.00611434
0.00499909
0.00367591
0.000247381
0.00550298
0.000339125
2.60144e-08
1.01374e-06
0.0014732
4.91913e-05
0.00625512
0.0103639
0.0104568
0.00397487
0.00216807
0.00216803
0.00396069
0.0108199
0.0042865
0.00673611
0.00263446
0.00418785
0.00241214
0.00145069
0.108956
0.0832716
0.0808619
0.0702027
0.0683671
0.0400727
0.0460571
0.00954483
0.00612149
0.0102843
0.00387015
0.00187168
0.00209435
0.00351389
0.000287119
0.000119229
0.0009014
0.00119255
0.0110889
0.00301652
0.000181005
0.0643709
0.0198851
0.0195351
0.0436026
0.042669
0.0264945
0.0129059
0.00091119
0.00345287
0.00346792
0.00210202
0.000501545
0.000498972
0.00209782
0.00593877