/*--------------------------------*- C++ -*----------------------------------*\
  =========                 |
  \\      /  F ield         | OpenFOAM: The Open Source CFD Toolbox
   \\    /   O peration     | Website:  https://openfoam.org
    \\  /    A nd           | Version:  9
     \\/     M anipulation  |
\*---------------------------------------------------------------------------*/
FoamFile
{
    format      ascii;
    class       surfaceScalarField;
    location    "0.0018";
    object      phi;
}
// * * * * * * * * * * * * * * * * * * * * * * * * * * * * * * * * * * * * * //

dimensions      [0 3 -1 0 0 0 0];

internalField   nonuniform List<scalar> 
45575
(
2.27596
-2.63962
2.49112
-3.36347
-2.45439
2.40883
-0.802082
-0.600221
-0.50211
0.0864648
0.10339
0.100435
1.80118
-2.8787
1.95993
-3.26606
2.35855
2.82643
-2.53634
3.51994
2.64294
-3.61116
-2.73458
-0.0249473
-0.0904176
0.00496036
0.00545403
0.00549344
-0.814127
0.0960073
0.100193
-0.320167
0.0789686
-0.00565927
0.000266195
0.000252172
-0.00154581
0.000311185
-0.00127793
-0.00727
-0.0341653
-0.00797788
0.00182442
0.0016972
0.00190793
-2.43915
3.1759
2.45351
2.78735
-3.54055
-2.9197
3.48417
2.98541
-3.60581
3.71508
-3.7128
-2.74372
2.13143
2.44968
3.16132
-2.48367
2.13147
2.0016
2.35316
-2.31029
1.80896
2.18012
2.17342
1.41316
1.5482
1.06178
-2.27516
1.14635
-3.04847
1.66369
1.66346
2.6403
3.21073
-3.54655
-2.64362
2.49062
-3.36336
2.40915
-1.54151
0.693307
-1.41405
0.414996
0.696914
1.54179
-2.00225
1.12537
0.693001
0.696567
0.414812
0.166179
0.132353
0.166244
-2.45333
0.877791
-2.91618
1.2872
1.44611
-2.23049
2.32706
-3.3322
2.0723
3.06738
-3.51543
-1.39724
0.408806
0.262808
0.389847
1.19114
0.88597
0.589342
0.583091
0.355694
0.122266
0.092919
0.107887
1.08456
1.19671
-1.70108
-0.344248
0.0307157
-0.107392
0.030165
0.0272223
0.566873
-1.18997
0.557274
-0.298947
0.0244847
0.0229456
0.466365
0.485782
0.116737
0.153206
0.151461
0.00726232
0.00693646
0.00714611
0.832841
-2.85407
-0.629867
2.90476
-2.56452
3.67713
-0.0160855
-4.22524
5.75001
-5.43541
4.62697
-0.993453
0.0849441
1.36081
4.33179
0.420514
-4.19294
-1.93544
-1.39903
2.27034
3.14543
-2.66768
1.92388
-0.862525
-1.92704
1.06402
2.36737
2.24798
-1.81147
-1.36922
-1.99789
1.57853
3.09555
-2.59929
1.73497
-0.354512
0.565988
6.69158
-6.86633
-0.374958
-0.269842
-4.40206
0.705859
1.17976
4.70945
-0.956885
-2.37181
-3.43536
2.44368
1.06284
-0.880906
3.89738
-2.52859
-2.5435
3.17128
-1.3907
2.8765
1.62325
-6.8768
-0.486866
0.712858
7.14103
-0.486246
0.0922162
-5.41033
1.05099
5.64938
-0.804347
-0.118077
0.107684
4.94154
0.699355
0.333006
-4.86014
1.56917
-1.24284
-0.330224
-6.9193
7.18599
0.224271
1.81269
-1.55755
0.00368624
-4.97359
5.29888
1.2683
-0.975631
0.510074
6.47527
-0.614798
-6.38858
-0.644133
0.0670121
4.53566
0.536528
-4.44391
-0.431205
-1.34881
2.80618
1.98082
0.617447
-2.40277
-1.91778
-3.3739
1.06158
3.84467
-0.880681
-2.47851
-0.464798
2.2512
2.59968
0.575384
-1.68584
1.78836
-1.58084
-4.05476
0.600287
4.4687
1.04908
-0.825514
-1.03188
2.67772
1.55169
-2.20894
-0.705185
-2.13193
2.25221
2.36672
-1.67803
2.16829
1.5861
-1.39811
-1.65995
-3.38232
3.91802
2.46365
-2.60602
-0.580609
2.5228
0.717843
-1.95733
-2.18216
-3.83022
1.16528
1.93374
-0.935684
4.29642
2.15757
-0.716476
2.72222
0.881365
-2.15985
1.01908
-2.3959
-0.858521
2.54104
2.29626
-1.96657
-2.03999
-1.17632
2.99264
-2.46824
1.73736
1.58253
-1.39641
-3.43952
2.24299
3.9683
1.85139
-1.60888
-3.94256
-1.99687
1.88757
4.56396
0.488282
6.5305
-0.681133
-6.50909
-0.295257
-0.379426
6.70578
0.793437
-6.76798
6.56538
-0.654039
0.714318
-6.53348
-0.524697
0.507598
6.71746
-0.316254
0.505393
-0.666548
6.66823
-0.319601
0.543475
-0.631947
0.72555
6.6889
0.73035
6.74708
0.562397
1.60149
6.33672
-0.591702
-6.23084
-0.248928
-6.88604
1.94946
7.14495
0.241372
-0.0428881
-4.86877
2.07595
5.2351
2.78463
-2.3511
-0.447905
6.09763
-5.79623
0.151303
2.43062
-2.0818
0.150723
4.1238
-3.80555
3.24965
-2.81972
-6.63456
-0.0086941
6.87145
0.561387
2.94778
-2.64772
-4.87809
-0.346691
5.26685
0.137099
5.08662
0.750056
-4.9707
0.0241054
-0.25877
6.0636
0.476501
-5.89516
6.04427
-5.79299
-0.093207
0.129801
0.422753
0.591383
5.22255
-0.229694
0.392829
6.24569
-0.20672
-0.108515
0.62858
6.20511
0.526185
0.678055
5.0651
0.447466
6.55227
-0.63288
-6.49533
-1.05143
6.61095
1.32023
-6.54379
6.69023
-6.67754
0.990753
0.566647
-0.598926
6.66437
-0.558123
-0.991068
1.2871
6.71904
-0.563957
1.29826
6.59588
6.74697
-1.48018
2.96113
2.16183
-2.57056
-0.280283
-0.242794
3.65427
0.470421
-3.45201
3.83645
-3.65003
-0.0717353
1.18586
0.679637
4.10485
-0.470084
0.82632
1.80011
3.39819
-0.647453
-1.06699
1.64288
1.00412
3.27256
0.912301
3.9392
-0.463696
2.3964
0.603198
-1.84252
2.60761
2.50694
-1.94565
-0.350334
2.36001
2.69009
-1.79146
-0.367994
-2.3994
0.79136
2.62139
2.88676
-0.662489
0.818436
3.03703
-0.670014
2.26974
0.956521
2.94551
2.52882
0.90606
2.80255
-0.873249
1.28935
2.72965
1.34975
-2.24993
-4.02767
0.601365
2.00986
4.47086
2.12037
-1.59579
-3.47371
1.80394
4.00656
1.96877
-1.61364
-1.45913
2.92426
-2.42881
2.21759
-1.91273
0.567438
3.39378
-3.00802
2.77131
-2.50038
-4.25667
0.877015
4.71821
2.16533
2.6971
-2.35909
-3.94995
-1.66895
4.54981
-0.575406
0.572568
-0.373213
-6.86265
0.749278
-0.474528
7.07768
-0.527235
0.594832
-0.601155
-0.395605
6.85697
0.557516
-0.565371
0.823886
-0.455498
-6.91837
0.962297
7.18612
-0.432154
0.997394
7.05504
0.80009
-0.495847
2.34162
0.612531
-1.77006
-2.68889
2.60799
2.53639
-2.04927
-0.446376
2.44364
-1.87311
-0.387707
2.64207
0.808262
2.96322
-0.673388
0.860364
2.55192
3.1161
-0.702592
2.55898
0.92463
2.8853
0.999281
2.47222
3.06017
1.02376
-3.9061
-3.56085
-0.768629
4.00924
3.63166
0.656689
-0.483373
1.96614
2.2394
-1.95144
-1.55792
0.811438
-2.89052
-0.613926
2.3816
-2.00267
3.24715
0.223227
-2.76818
2.29652
-1.92258
3.12282
-0.0123937
-0.157781
1.90683
2.17986
0.312895
-1.89449
-1.48614
0.230954
-2.75208
2.7879
-2.46165
3.51909
-0.0121996
0.264968
-3.5292
-3.80408
4.07288
3.67335
-0.0171384
0.0742598
4.75703
0.629726
-4.68248
-0.757269
5.84212
1.08206
-5.73559
5.99082
-5.87113
0.917892
-0.0933496
6.10797
0.0962135
-0.985391
0.354951
1.30731
4.70951
1.24649
5.96587
0.445242
4.89
-2.29379
1.21082
2.647
2.22371
-2.09472
-3.52201
2.20468
1.79878
4.06581
-4.04941
-1.98812
2.13054
1.90434
4.87002
-2.04879
-1.93076
3.51497
-3.08016
1.77843
2.3174
-1.59431
2.07402
2.9638
-2.47049
1.91069
-2.36604
-4.03672
2.34214
2.73314
4.78569
-2.85602
-4.85297
-2.12293
2.05874
3.1166
4.98369
-1.19298
2.70282
1.77155
-2.26562
-0.761697
3.34037
1.06369
-3.06476
3.48124
-3.24641
1.18422
-0.934082
1.47193
3.19528
0.805036
-1.15545
1.38852
3.67684
1.30827
1.36801
3.1773
3.78826
1.61565
6.46758
-6.38388
-0.556188
6.33154
1.96062
-6.20369
6.17607
-0.560375
1.9766
-6.04391
-0.530059
1.62234
6.64428
1.64866
-0.520899
6.47437
0.480055
-0.463524
2.04393
6.33369
2.00157
6.56046
-6.44264
0.848715
6.65837
-0.615572
0.123321
0.765776
0.407324
-0.530976
0.606142
-0.395754
6.3719
-0.111503
0.852938
0.0707315
-5.26361
0.244893
1.30267
5.52306
1.1064
6.57655
0.347124
1.02855
1.09764
6.81227
0.525975
-0.518451
-0.411535
-6.92375
7.19388
-6.74082
-1.28956
-0.309677
1.62909
6.94624
-0.480651
-1.07041
1.38651
-0.461604
1.41985
-0.377536
7.00962
-2.32196
2.20663
2.48808
-1.62902
-0.76732
2.38336
0.952243
-1.82277
2.34594
-1.78448
1.09649
2.09906
2.91024
-1.91999
-1.02192
2.29492
1.16458
2.82662
1.26168
2.94273
2.4164
2.77924
-2.89135
1.05117
2.96195
-2.60209
3.70827
-3.75229
-1.7131
-3.37251
1.8576
3.6631
3.18804
-3.90927
-3.54859
1.27432
3.98011
3.57709
0.839191
1.99002
2.26416
-1.96829
-1.58076
-2.92182
1.02024
2.40517
-2.02091
3.28338
-1.19811
2.10071
2.42289
-2.10614
-1.70355
1.38816
-1.46051
-3.10257
2.58481
-2.12691
3.51901
1.70428
0.605055
-0.356731
-3.4187
4.44118
-4.06987
3.75626
-0.346566
3.26542
6.0087
-5.67391
0.158449
0.0943988
2.76769
4.16847
-3.82552
-6.10869
-4.24896
0.468524
4.51999
6.17187
-6.53194
0.0916372
3.63793
6.7627
1.56271
-5.1212
-1.27657
-3.82584
4.12485
5.4457
0.775979
-4.93532
-0.543163
3.24333
5.30292
1.45153
5.65044
-5.53629
0.122465
4.18883
0.298837
1.72585
-3.9869
5.4614
1.85313
-5.31672
0.110039
1.6335
0.264153
4.56157
1.61281
5.79909
-0.119381
2.00636
5.64712
0.194061
1.95825
4.47358
0.908728
1.00345
-0.780505
-3.82736
1.17603
1.25512
4.22407
-0.96851
1.06771
1.47925
-0.867803
3.73199
-0.817306
1.3653
1.24516
0.659021
-4.26078
1.38317
4.60181
1.18665
1.3621
4.1571
1.21638
-0.73953
2.34407
0.889964
-1.76546
-2.50424
2.49248
2.3788
-1.91203
2.30089
-1.71509
-1.03824
2.35109
1.17433
2.90323
2.45754
2.8634
1.13175
2.38102
3.05159
2.29147
1.28128
3.09396
1.14394
6.26617
-0.10075
0.0418385
-5.11289
0.22789
5.39904
-6.13504
-1.39399
1.7107
6.36084
0.0887414
-1.30905
0.235294
1.59315
1.46913
6.47297
0.286869
-3.52097
1.11884
3.97308
-0.920718
-2.13979
0.96267
2.50366
-0.807283
1.00727
-0.833975
3.46164
2.02029
1.16646
-1.83769
-3.32705
2.3011
1.22944
3.836
1.29676
3.94286
2.41539
1.09778
-0.811065
2.86126
0.994109
-2.32534
1.76696
-2.21926
2.8472
-2.32385
1.79115
-0.621705
2.75279
-2.20543
-0.547603
-2.29361
0.976526
3.35891
1.90476
-0.770081
0.93313
3.26864
-0.744721
2.21818
1.10661
3.25602
1.17186
3.37469
1.86664
-0.52015
6.21009
-5.9852
-2.38286
5.84297
-0.445347
2.8113
-5.63508
6.00292
-0.513875
-5.8348
2.47323
0.382028
-0.383905
6.2024
-0.287776
-2.42682
6.38698
2.9002
-0.286128
6.09217
2.91381
6.47834
-6.64456
2.00275
-0.229742
6.88281
-0.420287
1.74434
1.79106
-0.401448
6.54321
0.322839
-0.316377
2.19879
-0.17684
-6.82206
2.3755
7.06852
-0.140464
2.40542
6.8102
2.14788
1.34968
3.25873
-2.94928
0.730641
3.24151
1.62469
-2.91013
2.82846
1.18615
1.54608
-2.36574
0.686994
1.61737
3.61908
1.56464
1.16749
3.21455
0.606717
1.86469
3.6292
1.06359
1.78496
3.28819
1.17118
2.48551
-1.94508
-1.73058
2.52817
2.13129
1.3168
-1.99667
2.62682
1.42763
-2.1161
-1.74591
1.35647
2.17672
2.92447
1.4611
3.02207
1.60037
1.68821
3.13125
2.07499
1.60094
3.06506
2.5509
0.970717
-0.809906
-3.58586
1.09771
2.40591
-0.898627
4.04186
1.00839
2.49671
-0.828228
-3.39304
2.37529
1.22898
3.88785
2.47234
1.10763
3.56003
1.16619
2.41907
1.28128
2.33513
4.03567
1.40836
3.67406
-0.72445
1.24843
0.620463
-4.13664
4.51438
0.643774
-1.41749
1.61786
-3.65703
-1.53848
1.07469
1.72373
4.11459
1.1418
1.57454
1.12196
4.11812
0.154881
4.12152
0.201944
-3.85574
-2.26761
5.18211
2.67947
-4.95092
5.30192
-5.11373
2.41132
-0.0981479
5.53161
0.0393916
-2.28401
4.48622
0.181723
2.60741
5.45322
2.81271
4.45689
0.162679
2.11132
1.86053
-1.8225
-1.43684
-0.00121394
0.177457
2.01032
2.43007
-1.61199
-0.00371262
0.184176
2.33184
2.28546
-2.05136
-0.00555703
2.39156
0.355697
2.33019
-2.11384
2.05509
0.347266
2.49453
-1.65912
-0.203695
0.387452
2.69925
2.46472
2.64267
2.42133
-0.00936228
1.32342
3.44612
1.88251
-1.74795
-3.32869
2.22519
3.86167
-3.47357
-1.4658
1.64736
3.9711
-1.75141
-1.23382
2.20703
1.39792
1.48965
3.94294
2.31108
-1.04609
2.80439
1.22393
-2.24174
2.09375
2.73507
-2.16277
2.90921
-2.37074
1.74742
1.27242
2.13996
3.27627
-2.0679
-1.3608
1.55389
3.47422
1.80043
1.44625
3.33069
3.41276
1.8295
-5.99895
2.05099
6.25945
0.07341
1.87847
0.196287
1.82314
5.88706
-0.037958
2.19966
-0.107849
-4.82574
2.35502
0.296622
5.21994
2.40876
6.18253
2.17047
0.186882
1.937
2.21461
-1.93174
-1.52517
-0.536257
2.4493
0.717127
2.38464
-2.16775
-0.528119
2.10448
0.709164
2.55516
-1.71571
2.42186
2.35709
-2.1444
2.08116
2.52719
-1.69153
0.576375
2.49013
2.72961
0.764393
2.5162
2.76031
6.45504
2.62658
0.230619
-0.21778
-0.103666
-6.73385
6.97084
-0.154415
-2.60029
3.07575
-2.82967
-6.37057
0.0780641
3.26094
6.60657
-0.0405746
6.71955
-0.109974
3.0653
1.07931
2.45037
-1.89896
2.20253
2.59514
1.3144
-2.07386
2.2536
1.35405
2.99095
2.78341
2.1641
1.44054
-2.26438
1.46459
2.21398
3.17507
2.17018
1.58552
3.11759
2.14826
1.6854
3.28323
3.24881
5.71403
-0.349018
-5.46063
-0.249752
5.91258
3.76415
-5.58627
5.6244
-0.22905
3.68471
-5.32203
-0.203654
3.39364
6.28375
3.35505
-0.174191
6.00286
0.110892
-0.0505542
3.79059
5.91998
3.85749
6.18602
-3.00503
-1.60799
3.9412
-3.44999
2.05019
3.40545
-3.12452
0.932564
4.03367
-3.62848
3.46445
0.555885
2.51849
3.52885
-3.13566
-4.85029
-3.65381
1.80002
3.96351
5.23138
-4.39293
1.06985
3.05765
4.84804
-5.16961
-2.67578
-3.82729
3.21966
4.29178
5.80786
-4.19826
-1.81817
3.05301
2.32902
4.84252
-3.39477
2.30347
3.91136
-1.23974
2.28573
1.39466
2.37986
1.31627
3.56905
2.33194
-3.60658
-1.46066
2.2035
1.65271
4.11275
2.24647
1.48109
2.26245
4.05793
2.29891
2.0176
1.01891
-1.99404
-1.60732
0.907414
2.47951
2.41009
-2.192
0.899011
2.12621
2.58456
-1.73753
2.15442
1.08922
2.62427
-1.76606
2.51764
1.09844
2.44002
-2.22365
0.961593
2.5422
2.79436
1.16289
2.5771
2.83888
-3.74681
1.14453
-0.925511
4.20479
-2.26976
1.08716
1.93515
-0.867986
1.06046
-0.854824
3.74568
2.19253
1.24871
-2.11297
-3.84412
1.38658
1.90675
4.32989
1.35037
4.2163
1.29294
1.89452
5.81395
2.58629
0.024764
-0.205821
-4.83743
0.401372
5.23608
-0.124689
-2.47125
2.77773
0.325777
-2.78066
-5.76538
3.15311
6.05547
6.12068
2.97445
0.226654
0.630669
3.28946
-2.92982
-1.8136
3.0887
0.985435
2.09456
-2.66863
2.94803
1.06637
-2.51262
-2.1371
0.561913
2.41609
3.81364
0.561616
3.70121
2.03518
0.993541
3.39161
0.968885
2.31623
3.53434
3.07977
5.1008
-4.83429
-0.0108393
4.23933
3.09187
0.248414
-3.8825
5.05865
3.46527
-4.75567
-0.0611767
2.92577
4.54317
0.278669
3.20507
5.4079
0.200569
3.58779
5.38472
3.24662
4.62404
0.43071
1.42261
2.91082
-2.37375
-1.96554
3.21543
1.8045
-2.75194
1.73973
3.03917
1.64494
-2.53684
-2.00665
1.75889
3.55614
1.78315
1.63817
3.40918
1.95972
1.85261
3.50834
1.98361
3.66976
1.782
0.592282
1.83368
-3.68286
1.93371
1.05085
4.1473
1.76419
1.06371
-4.06172
0.640809
2.24743
4.52143
0.569137
2.07418
3.7471
1.01295
1.98705
1.06184
2.17292
4.22436
-1.56539
2.71546
2.03576
-2.20408
-1.7057
2.96066
2.00043
-2.50001
2.78443
-2.30375
1.94586
1.49602
3.26658
-1.43781
-1.88177
1.97019
2.18921
3.42392
2.23994
3.43562
2.01415
3.23288
-4.10955
5.48965
0.070303
-5.1861
4.4972
-0.153319
5.82206
-5.50747
5.55676
-0.0954219
-5.23252
4.19671
-0.0130758
0.108172
5.82657
0.133355
-4.26749
5.98795
4.59722
0.338516
5.71934
4.53739
6.1039
-3.53383
1.85716
4.02989
-1.63336
1.60075
2.12401
1.67677
3.6261
1.54092
1.90098
-1.57172
-3.59557
2.07993
2.05939
4.13192
2.10542
4.13246
2.06403
1.84148
2.35293
2.05419
-2.03983
-1.64835
-1.29245
2.63852
-2.33146
1.49843
-1.28226
2.2367
2.75216
-1.85485
1.48755
2.19035
2.68127
-1.80461
2.57097
-2.2706
2.47822
1.37166
2.62386
2.90017
2.69368
2.97975
1.59559
1.42722
3.76706
2.10968
-2.04886
-3.87856
1.89207
4.40456
-2.03355
-1.4906
1.69459
1.83176
-3.81071
-1.55194
1.76433
4.32058
1.61202
4.25096
1.85551
-2.82936
2.33772
0.417891
-1.96314
3.18185
0.199487
2.15186
-1.77351
-0.0078031
2.19546
0.382115
-1.81851
3.03918
-0.224096
0.419375
2.61337
0.244342
-2.98527
2.77889
3.3812
-0.0164697
0.451589
2.8224
3.43278
2.57143
-0.013305
2.13043
2.76618
-2.26422
-1.70466
3.1105
2.08448
-2.63942
1.99777
2.93765
2.11824
-2.4482
-1.86076
2.09017
3.47349
2.16896
2.11098
3.27774
1.94341
2.10537
3.42279
2.09366
3.60477
2.23713
-0.060848
3.53091
-6.27167
3.67398
0.232222
6.46774
3.50543
0.00846012
6.15409
-0.0509411
0.162765
3.92146
0.199129
-6.4399
3.96568
6.59421
0.444028
4.02233
6.31402
3.93579
-0.582861
2.65092
0.770655
-2.36138
-2.82295
2.86457
-0.43124
-2.53471
3.64778
2.61991
-0.39551
-2.33564
3.00799
0.620133
-0.423577
2.94965
-0.672197
-3.05705
0.895824
3.38794
3.78954
-0.458449
3.31752
3.78255
0.818492
2.98464
-0.570847
2.23954
0.759662
-1.86468
-2.86166
2.35988
-1.98401
3.21487
2.21804
-1.84367
3.07129
0.615779
2.63983
-0.656987
-3.10647
0.867004
2.90797
3.51444
2.85908
3.46905
0.812529
2.66723
-2.79515
2.83308
-2.50812
3.58956
0.210016
2.5389
-2.25433
-0.0101282
2.59082
-2.30861
-0.226732
2.9707
2.91814
-2.92682
0.244326
3.21948
3.74544
-0.0145492
2.86879
-0.0132456
3.26833
3.77052
2.20746
1.59113
-3.67341
1.87241
2.16982
4.21357
1.67578
2.1765
-3.64417
2.19892
2.05607
4.21665
2.15362
1.82748
3.78466
2.13266
1.9057
2.17479
2.13358
4.39876
-3.84042
5.04603
-4.72388
4.19084
-0.157567
4.33545
0.400379
-3.96319
5.05048
-4.71622
3.94319
0.395617
5.35577
-0.66077
-3.57196
0.902291
4.79098
3.89136
5.31257
4.25606
0.636794
4.71328
-0.262676
3.0898
0.482109
-5.72143
3.50095
5.97527
3.35736
5.66688
0.457317
3.71283
-0.795174
-5.00123
3.53227
1.04046
5.34311
3.80858
5.89094
3.40193
0.692371
2.39502
3.25925
0.953094
-2.83931
0.618492
3.68102
2.81459
-3.28873
0.632263
2.69891
3.94727
3.45066
0.984367
2.70144
-3.03051
2.60867
1.00425
3.70575
0.769365
2.99701
4.10262
1.10749
2.90845
3.89805
-4.14341
0.729615
4.60733
-2.32879
0.66538
2.59503
0.587359
3.85565
2.24506
1.00329
-2.43121
-4.00322
1.22774
2.70422
4.49552
1.11554
4.34406
1.04561
2.51987
0.969993
2.68565
-2.38944
-2.94657
3.04879
-2.65507
1.28656
3.73862
2.73253
-2.42628
1.17549
-3.12563
1.13923
3.4785
3.78475
1.02968
3.02751
3.22612
1.25051
3.09021
1.40297
3.58377
3.75646
0.958269
2.25976
-1.88342
-2.96416
2.4421
1.23513
-2.04759
3.33566
2.28885
1.15964
-1.91057
-3.14607
1.092
2.98027
3.57387
1.02062
2.70021
3.20156
1.23669
2.75436
1.32851
3.08563
3.68008
-1.94222
3.35254
-2.91462
1.75296
-1.89037
3.32737
-2.88515
2.15836
3.17787
-2.7108
2.09523
1.93588
3.63575
-1.94069
-2.23958
4.07015
1.83873
2.5421
3.80876
2.3723
3.82936
1.79881
2.31707
3.1601
-2.70814
-1.39946
3.38785
2.62505
-2.91437
1.88755
-1.43829
2.52724
3.64566
1.93118
3.38931
2.65812
-2.932
2.56711
3.64355
1.50358
2.90686
3.87588
2.89408
3.90457
1.97978
6.02113
4.27214
-0.161868
0.38342
0.310469
-4.26719
4.53781
0.338619
-6.30555
6.38573
-4.30142
-5.89799
0.884352
4.55358
6.0659
0.682538
6.17453
0.638144
4.55193
3.75942
2.17091
1.49355
-1.59177
-3.75108
2.09316
4.31036
-1.50192
-2.1198
2.00089
2.43869
-2.39291
-3.94098
2.70104
4.47686
4.2848
2.47953
2.02345
-1.97812
1.91975
1.82524
-3.88364
2.00158
4.45758
1.81554
3.99926
1.94608
2.04556
-2.00762
-4.23562
2.46724
1.95369
5.03043
2.27887
4.72601
2.18031
1.83779
-2.38571
-0.511462
1.81646
0.678187
2.90287
-2.67111
-1.64784
2.06237
1.88856
3.40062
-1.23311
-2.54151
1.93139
1.43143
3.11184
0.784557
-2.28201
-2.72087
-0.594989
3.37417
0.597019
-1.69329
-0.434046
1.82146
-1.39234
0.513837
-1.38189
-0.372514
1.49852
1.88832
1.23804
-0.0804865
1.23296
0.152628
-0.709175
-1.42227
-0.121873
1.64152
1.58399
0.239841
-1.10825
0.217094
-2.61639
-2.18518
3.22476
-0.00934339
0.17411
-2.23317
1.73298
2.76542
0.00201218
1.68775
-2.4751
-1.43057
-2.91021
2.84102
3.7142
-0.857592
-2.4622
1.86074
1.04381
2.98772
-2.31153
-2.75028
0.988415
3.45001
-1.70175
0.771922
1.8481
-1.41859
-1.42659
0.675599
1.50397
1.93084
0.960238
-0.797024
1.29121
1.52774
-1.04396
-1.80808
-1.11139
1.95993
1.28813
-1.53825
-0.102255
1.41029
0.197839
-0.904417
1.17957
1.1593
-0.627476
0.0013271
1.34696
1.3537
-0.835488
-0.00119135
0.123287
1.40952
1.70786
0.00221975
1.46747
0.240954
1.77411
-0.136277
0.267798
1.64988
1.92377
1.58709
1.86473
0.000310702
1.26182
-0.241847
0.351599
-0.899694
-0.312156
1.5293
0.442454
1.46301
-1.05686
1.26692
1.31029
-0.813774
1.47308
1.45751
-0.986273
1.49322
1.83019
0.41432
1.67881
1.97072
0.567526
1.69147
2.01604
1.25333
0.491209
-0.945906
0.596617
1.56399
1.46284
-1.09534
1.24685
1.45434
0.641536
-0.96894
1.58735
0.754783
1.46611
-1.1174
1.51278
0.84168
1.96298
0.738445
1.70305
2.04835
0.910005
1.71833
2.07416
-2.57634
-3.03808
1.98531
3.73865
3.0008
1.35863
1.13688
1.59792
-1.12019
-1.70949
-1.36788
1.98968
1.95909
1.57697
-1.54308
-1.56562
1.68766
1.92483
-1.50384
1.8214
-2.47217
3.13782
-2.05329
-2.05324
2.3361
2.33635
2.27035
-2.22292
-1.94077
-1.88668
2.20336
2.52118
-2.81603
3.47667
-2.32369
-2.67323
2.71604
3.13944
1.56876
1.5293
-1.04943
-0.00132371
-0.139825
1.74924
0.277721
-1.30301
1.69987
-1.25015
-0.000729371
1.86654
-0.151208
0.296795
2.06496
0.16665
-1.80246
2.15143
-0.00297201
0.325419
2.19865
2.01307
-0.00103617
-0.377598
1.67605
0.526541
-1.22531
1.67955
1.63238
-1.1709
1.78679
-1.35188
1.89691
0.456307
2.10216
-0.496465
-1.91508
0.669423
2.25917
2.22905
0.620103
2.13793
-2.29459
1.77825
0.340856
2.82155
0.150374
1.58815
0.00335146
1.64091
0.297072
2.42094
-0.162965
0.318741
1.83685
0.187791
-2.36513
1.94557
2.89383
-0.00205498
0.361474
1.99287
2.94536
1.7814
0.000116803
1.25602
1.48369
-0.997533
-0.911297
1.66492
1.07319
1.53518
-1.19723
1.6177
1.48713
-1.14715
-1.00482
1.55846
1.17025
2.03707
1.52798
1.99536
1.07643
1.745
2.10513
1.24646
1.78872
2.14791
-0.454411
1.6758
0.612544
-2.33759
1.79932
2.86012
1.66354
2.45894
0.483763
1.86025
-0.536635
-2.49783
0.709158
2.03489
3.01667
2.01455
2.98
0.648795
1.87698
0.692487
1.70405
-1.2547
-1.71618
1.87406
0.943339
-1.44239
1.72774
0.856548
-1.27635
-1.9329
0.8537
2.28507
0.798134
2.16493
1.9564
0.975148
2.18983
1.03723
2.31225
-2.42591
1.83518
2.94544
0.785363
1.68931
1.70767
0.962198
-2.53008
0.894661
2.05823
3.0556
0.82766
1.89524
2.55995
1.00888
1.91823
1.0869
2.08931
3.10495
1.25085
1.73583
1.61099
-1.27788
1.45479
1.69343
1.33676
-1.22922
1.348
1.61228
2.09644
1.82475
1.45428
-1.38329
1.68674
1.54796
2.17313
1.43151
1.85193
2.20637
1.63967
1.93213
2.28038
-1.01643
1.81269
1.18335
-1.36631
-1.74991
1.91042
-1.48081
1.76195
-1.31021
1.14787
1.9943
2.22266
-2.04783
-1.21943
1.41068
2.3936
1.32678
2.26765
2.34748
-2.49915
1.89164
3.03805
-1.13671
1.76133
1.31412
1.73014
2.59426
1.18798
1.94985
-1.28432
-2.63933
1.49579
2.18431
3.28915
2.13102
3.17831
1.37344
1.99233
2.05934
2.54232
-0.177698
0.342991
-2.662
-2.23278
0.407045
3.27343
0.19356
-2.00371
-0.006686
0.202253
-2.49214
3.02986
-0.00588706
0.36872
0.383584
3.07861
-0.0033472
2.08435
2.57476
0.515262
-0.564469
-2.60655
0.744387
3.1577
-0.548202
-2.10542
0.727336
-2.69101
-2.2569
3.31713
3.11523
0.687267
-2.63498
0.937307
3.2114
-2.12836
0.91813
0.871658
2.66455
2.15751
1.05835
-2.35061
-2.78589
1.20266
3.5919
1.13841
3.28674
1.11288
1.56721
1.80453
-1.36015
-1.68633
2.03172
1.9444
-1.63141
1.9437
1.92461
1.82228
-1.50367
-1.77409
1.87389
2.36813
2.0256
1.77492
2.26407
1.87328
2.02586
2.36792
2.13219
2.13203
1.89025
1.87921
-1.44563
-1.4831
2.092
1.70059
-1.69791
2.28982
2.0201
-1.61161
2.19111
-2.11735
1.6193
2.45218
2.40623
1.52241
2.32569
2.20224
1.74068
2.39755
1.84991
2.53026
2.49736
-1.50458
1.87354
1.71672
2.59732
1.80888
1.98797
3.22751
-2.70105
1.72826
2.2564
3.44625
1.57536
2.05081
2.78427
1.80056
2.12591
1.99041
2.35484
3.63319
2.70285
1.24583
2.19842
-1.34935
-2.75578
1.57732
3.58779
-2.40325
-2.83369
2.72946
3.66231
-2.25157
-1.31238
1.52541
3.39547
1.44334
2.47744
-2.41904
-2.10659
2.39537
2.74302
-2.14724
-1.98343
2.60503
2.25371
-1.81199
-1.76049
2.07032
-2.10152
2.17511
-1.7903
2.39954
2.04866
-1.64991
2.30195
2.48741
2.63719
2.60869
-2.30943
-2.30969
2.68868
2.68924
3.71584
-2.91807
-2.16253
2.50136
3.71077
-1.95421
2.22138
-2.76741
2.16235
3.62003
1.9544
2.91792
2.2212
2.50092
3.71077
-2.83096
1.83336
3.66677
-2.32187
1.76053
2.62746
1.65971
2.41128
2.95691
1.90135
-3.2348
-2.7255
2.32182
3.70014
3.17414
2.02125
2.73798
2.13975
3.72287
-1.54744
3.34068
1.83785
3.73791
3.03528
2.79432
3.17973
3.75595
3.38901
1.48476
3.18012
-1.68353
-3.45393
3.69163
1.96595
3.62964
3.66849
3.70038
3.32257
1.74441
-3.02422
2.4956
-2.08328
3.41168
-1.36726
2.38071
-1.99194
1.58876
2.32908
-1.9485
1.46532
3.27867
2.84415
-3.39215
-1.58114
3.25249
4.08274
1.87186
2.98505
1.7125
3.20719
3.84677
0.751154
3.84955
-3.45304
-3.01635
3.87991
1.249
-3.4534
3.36095
3.65775
1.08465
-3.23746
-3.31962
1.17851
4.45043
3.65529
0.955531
4.27778
3.23243
1.27429
4.11269
1.48192
4.33297
3.58403
3.31264
-0.244062
3.28165
0.453589
-3.552
-3.84155
0.516996
4.06621
3.68233
0.259673
-3.264
3.86932
-0.0178902
-3.23514
0.257043
3.78252
-0.0160885
0.485084
3.92231
-0.0160157
0.490874
3.79311
-3.81163
2.23668
4.4467
-2.10398
2.16761
2.42726
2.13811
3.95726
2.17617
2.1256
-2.45222
-4.21848
2.32223
2.84924
5.14392
2.22212
4.70674
2.16563
2.49666
5.60152
4.02688
0.7168
-1.00033
-3.70816
1.25182
4.01381
-4.09089
-5.55322
4.36962
5.79946
-1.061
-5.06142
1.321
5.39044
5.82819
4.31313
0.957946
0.808627
2.87978
-4.17769
2.99733
1.39721
4.674
2.80604
1.1528
-4.54909
1.29623
3.35145
4.98431
0.999737
3.18519
4.37694
3.11285
1.32236
3.30706
1.60406
4.86519
3.35208
3.33763
0.66109
-0.726598
-3.42808
0.973874
3.74367
-0.70918
-3.40319
0.946203
4.07145
-3.55977
-3.88328
4.0443
3.66553
3.97965
3.77698
0.873572
-2.63307
-3.0429
2.82502
3.20557
3.54071
-3.41789
-2.92468
3.60588
3.25172
-2.52254
2.89499
-2.49358
-3.39595
2.83648
3.61122
-3.16217
3.71289
-2.17076
2.48631
4.18873
2.31484
1.96569
-2.05461
-4.55794
1.9996
5.0621
-2.01439
-2.49032
1.95913
2.88035
-2.62302
-4.52464
3.03247
5.20839
5.07732
2.64302
1.87842
-3.46229
1.23478
3.67875
-3.4832
1.20629
4.13847
1.10121
3.49651
3.60823
1.34542
-3.86928
-3.51114
1.51021
3.92584
3.4925
1.50007
3.64923
1.48821
4.16869
-1.46481
3.65756
-3.1742
1.92961
-3.01123
3.88174
-3.43407
3.37213
3.63669
-3.1789
3.24731
1.64649
4.11617
-1.85761
-3.27649
4.48611
2.33092
3.67567
4.35215
3.60039
4.18891
2.10171
-3.49968
1.48095
3.81901
-4.70842
1.54909
5.11269
1.22463
4.58784
3.44247
1.52931
-3.62094
-4.77866
2.10385
3.94013
5.2201
1.84174
5.04915
1.76593
3.77731
-1.56976
2.79173
2.05793
-4.15557
3.01381
4.68881
2.80472
4.3834
1.71443
3.13051
-2.03564
-4.48309
3.4192
2.60839
5.19203
3.33178
4.91453
3.15992
2.19042
-2.04244
-0.383201
1.44163
0.550582
2.48944
-1.5949
-0.413968
-1.17593
2.00938
-1.71309
0.574817
-1.67987
-2.68201
-0.569232
0.759948
3.043
-1.95884
-0.116104
1.38992
0.238532
2.39837
-1.54413
0.198062
-1.59614
-2.54959
2.91405
-0.006426
-0.12902
-1.08478
1.94849
0.261412
-1.65464
-0.436454
0.0333448
1.3785
0.663095
-1.06609
0.0150086
0.175211
0.641638
1.25878
-0.87733
-0.155319
-0.613307
1.1385
-0.085616
-0.766446
-0.365537
0.0105915
0.0106639
0.767421
1.47886
-0.77857
0.0125283
1.219
0.481972
-0.148881
-0.838055
-0.416098
0.809331
0.0191063
1.57407
-0.813384
1.46941
0.0707194
0.719508
-1.14426
-0.0789719
0.164546
1.80295
0.964195
1.7071
0.911555
0.00780609
1.27708
0.562853
-0.899027
-0.512066
-0.137255
1.52208
0.842953
-1.18264
0.232695
-0.0584405
0.933273
1.63559
0.138558
-0.963994
0.874664
1.63673
-0.883074
1.52624
0.788721
-1.19787
0.273356
1.86265
1.02358
1.87357
1.06492
0.405341
-0.070427
1.12249
0.144374
-1.19784
-1.8589
1.35109
2.30231
-1.51602
0.00755629
1.08172
-1.16649
0.00994318
2.17657
-0.11264
0.234712
1.20309
0.144345
-2.08479
1.37848
2.51211
0.00615599
0.295576
1.41894
2.59695
1.15612
0.00753647
-1.03111
1.86978
-1.57296
0.00149975
0.092625
1.61509
-1.31408
0.00458881
1.70478
0.190441
-1.39995
-0.118763
1.28205
0.24422
2.03086
-1.23233
0.149955
2.19773
0.0011195
1.94343
0.00505711
0.301054
2.27146
-0.242649
1.20817
0.372993
-1.30102
-2.02444
1.42399
2.46057
-1.57973
1.17229
-1.25008
2.23364
0.377597
1.24832
-0.464456
-2.25684
1.46741
0.644789
2.67606
1.44924
2.64708
1.2772
0.537235
-1.13706
1.99152
-1.70108
-0.310254
1.76564
-1.45221
0.446585
1.75685
-1.45053
1.32604
0.389225
2.08197
-0.468209
-1.35541
2.33394
0.640958
2.31083
2.09945
0.547061
2.39019
-0.143244
1.46808
0.290723
-1.63717
-2.61999
0.380243
2.98203
0.169686
-2.30903
2.70352
0.000343542
-1.42157
0.173499
-0.0016341
0.33657
2.77884
0.00388271
0.340885
2.43701
1.50124
0.455153
-0.516839
-2.46127
0.702822
2.84682
-0.519281
-1.52464
0.701215
-1.66112
-2.65647
3.01594
2.8195
0.628516
0.636616
-0.395456
-4.33287
3.57433
2.10222
-1.64729
-3.65648
3.2767
-2.18793
-4.47794
3.72131
2.11946
-3.22668
3.68108
-1.72554
2.28765
1.81634
0.0130672
-5.8213
4.26923
-4.85445
0.44062
-5.49628
5.06927
1.48159
-4.20857
-1.21017
-4.62794
4.52515
-0.0323157
-5.03119
5.00195
-4.62096
5.38141
-0.337304
-3.82892
3.96026
-3.61093
0.58968
4.18994
-0.436317
5.12514
4.15926
-4.70209
0.141302
0.167455
3.61858
3.15496
-3.29141
4.0415
4.90967
-0.431132
-4.60479
-0.285585
4.17907
5.50787
-0.305233
5.0745
4.62424
-4.64337
4.83165
-0.292627
4.43283
-4.47735
4.04695
-0.270459
5.23245
0.180965
-0.122868
5.18461
4.45504
5.43433
4.62218
-3.84729
0.955685
3.32127
-3.99386
-4.37791
1.70885
4.33183
3.09287
-4.11883
-2.43892
-4.53667
4.68202
-3.1303
-3.27702
-1.59034
3.55483
2.02602
3.7315
-2.92166
-2.92022
3.2821
-0.744078
3.28045
1.07345
0.568494
3.08486
2.76783
-2.73829
1.84426
-1.36747
2.73053
2.46685
-2.31115
1.54116
1.79283
2.65693
-2.22333
-3.71916
-2.14448
4.38005
2.70112
2.7185
-1.67112
-2.77093
1.90897
-2.06164
3.13782
2.33344
-4.22631
-2.21203
4.29904
2.32282
-3.26497
3.35135
-3.18538
-4.40356
2.03029
3.49326
1.83003
-2.96173
-1.74224
-2.5081
3.36451
2.83419
-3.11149
2.15753
-2.63991
3.63058
3.02054
3.70889
4.40716
-4.10526
0.0249945
3.27859
0.231475
3.96093
0.0427261
3.70998
0.222437
3.48405
-3.37633
4.37968
4.05754
-4.0548
3.7515
4.7151
0.132059
4.72169
4.11709
0.384992
4.06713
3.61358
-3.72241
2.3377
3.33227
-3.75197
1.92212
-2.53141
3.53226
-4.41692
-4.44319
-4.95068
3.19542
4.80895
-3.28748
-3.2872
3.88081
-2.05058
3.88016
1.9798
-3.23217
-3.40959
-2.27456
3.77932
2.30451
4.00941
2.0363
2.75363
2.4655
-2.31783
-3.04908
-2.88423
-1.97473
3.48335
1.87717
-5.5557
4.19906
0.10814
-0.15336
4.2261
4.11131
-0.0953428
5.48742
0.0160847
0.0702756
4.50005
0.133282
-5.74781
4.60081
0.338309
4.54073
4.62918
-4.8165
4.81664
0.0507888
-4.45308
5.15174
-0.19071
5.02984
-4.62426
4.81463
-0.131904
-4.43195
4.81964
0.0323009
0.0507888
5.14896
0.10974
-5.00459
5.30038
5.30383
0.300239
5.10897
5.11262
5.37879
2.58414
2.84532
0.954875
-2.48268
0.617672
2.94534
3.45092
0.620066
3.25663
-2.91432
3.09099
3.06202
0.980562
-2.70058
2.80391
0.980128
3.23604
0.745585
3.62618
3.27088
1.07638
3.45171
3.13935
-5.04864
3.9458
-0.157541
3.42113
0.400283
3.84273
0.356599
5.04334
4.19386
-4.43819
-0.660493
3.89399
0.902047
3.75907
0.604928
4.25925
-4.4113
4.4576
-4.11455
4.74568
-0.12403
3.82611
-3.48168
0.380666
4.40884
-4.05584
0.337273
4.46078
4.74262
-3.96325
-0.616566
4.30091
0.860579
4.30408
4.18683
0.589661
4.75484
4.7584
1.93915
2.83029
-2.43606
1.60033
1.61201
2.83604
-2.42331
2.08158
1.99983
1.64522
3.08269
2.98638
-2.60608
2.21533
1.69634
3.24511
2.27585
2.11365
1.70619
1.7713
3.3921
2.39166
2.49895
2.75083
-2.35647
-1.3812
2.73289
1.85061
3.17362
-1.37387
2.99928
1.83666
-2.58619
2.85591
3.00764
-2.61057