/*--------------------------------*- C++ -*----------------------------------*\
  =========                 |
  \\      /  F ield         | OpenFOAM: The Open Source CFD Toolbox
   \\    /   O peration     | Website:  https://openfoam.org
    \\  /    A nd           | Version:  9
     \\/     M anipulation  |
\*---------------------------------------------------------------------------*/
FoamFile
{
    format      ascii;
    class       volScalarField;
    location    "0.00185";
    object      p;
}
// * * * * * * * * * * * * * * * * * * * * * * * * * * * * * * * * * * * * * //

dimensions      [1 -1 -2 0 0 0 0];

internalField   nonuniform List<scalar> 
15743
(
423920
171530
406490
449375
104806
148605
101541
102587
446553
449957
432321
424846
401277
395972
355338
376840
447601
423899
284147
359609
284107
190792
357458
418598
442603
244574
341502
271032
168575
319278
117984
254664
115246
243011
174320
105842
278397
284343
164492
291597
244399
257375
84137.1
217462
316351
273672
188877
203582
139935
222877
231055
129060
154208
181204
292991
230819
241626
188459
238334
316499
243080
304589
241480
255821
246467
349184
337830
101138
92837
108261
115775
128050
135441
125056
142802
237046
243942
196178
207121
286403
294425
135442
122329
117779
155432
139091
144989
160806
117584
118108
103982
145252
151533
157373
137027
180393
160026
157092
174765
195542
197915
178755
207498
207695
229388
248781
222254
223935
251716
195217
253851
328399
274935
217728
304781
390027
151409
189995
157509
165638
198283
198731
160890
239431
240298
237082
260159
263182
264638
268048
423556
182263
237874
227418
176870
265508
404985
145984
138313
129132
152819
176992
162803
167839
266226
365716
359392
308523
305262
443389
497609
183761
171200
164579
201928
191963
207927
184364
135054
154225
158537
168468
171657
187778
187054
191541
177895
163601
170608
210905
199287
184231
176108
209876
222000
187254
188713
209381
173022
233739
211963
208765
227018
261540
231790
255917
287373
456811
435476
186727
244510
208122
277646
291784
217398
225311
373204
305530
392834
315826
149589
176781
162824
188228
174829
188894
201440
194820
233371
213041
216876
223497
238676
199759
251099
248170
243979
280108
271200
275257
285217
179398
220062
220053
202607
190157
208745
192423
259438
269331
239276
242691
299225
264613
273790
231474
226841
237812
250605
260811
266217
256141
174845
195202
176121
205425
225769
224181
206201
235953
203098
203064
219010
252462
251022
219865
179893
190502
203916
201570
215731
213180
225639
217182
252170
224637
268777
238496
247614
278027
286325
321457
289887
324708
292695
296964
330792
222409
231527
215226
255114
229750
245846
206517
191006
195207
178046
204857
233623
222572
216555
175578
190044
198260
199876
191570
216519
214642
247596
306930
280427
287130
254202
271486
279665
255512
247302
237930
273825
273314
284018
263617
233218
214733
202837
217485
258719
248216
228809
178903
206356
197803
202371
193956
219402
223903
236045
268939
255937
285817
267519
254096
237427
260720
272774
291361
279701
298140
305330
314431
215419
239098
236475
246086
243905
264953
267198
371834
302146
234684
411209
327638
568469
421601
335619
312256
301252
306539
358294
319101
342886
192357
211552
202892
209264
218014
229790
237175
317569
276410
287060
294341
312420
326583
283041
233855
275452
262404
283811
265015
251882
244688
203079
228927
214899
242880
226894
238624
254782
214196
245286
234743
252445
241920
263050
273416
266353
271041
280220
285542
297072
313381
300924
226002
267031
239082
268107
238892
251374
281738
262073
247750
234774
259527
305377
274826
289781
282849
261584
258696
287879
312166
312396
288883
291815
296207
262901
274243
344058
306387
307739
199420
236083
227009
217222
226081
246507
258280
303914
322923
302412
353449
316233
338219
291534
229512
207082
208877
236569
259326
261857
234374
287516
317491
296661
342348
322407
334369
358324
275357
306022
273873
295563
326767
327936
295795
236240
271947
231420
252428
313493
304745
258016
216087
232792
211664
239943
272263
265941
245153
267904
226290
228309
248817
296490
246527
299386
325996
377759
334928
385612
342636
354372
402383
281355
267286
256915
286406
322723
311985
296917
282371
304829
271894
294158
339186
328022
304837
246138
254269
261467
266061
273788
282912
296290
285019
271673
253993
266612
320078
299233
284788
242520
299944
250451
325898
265391
275064
342914
221873
252947
229121
280769
251996
260789
292172
287901
318681
297550
333521
346513
358604
320601
264067
313004
325808
284576
294319
317807
351360
318789
342228
349569
375705
351142
343284
318170
288935
364356
342917
347159
324810
307691
322910
316834
373674
331736
351434
391289
401278
336597
209133
262635
236630
254467
168894
157592
133441
153004
243704
201433
300155
220024
261477
172850
161316
155913
191979
142875
132508
142018
151679
152730
162644
161550
137753
147035
135143
144454
154660
164495
167497
140995
150356
144972
154510
165854
171402
176195
323805
163227
197002
194743
274771
242991
338635
152088
164188
163104
173465
184318
185713
172254
157272
154580
165931
175402
191441
187888
178622
202971
174334
175587
186154
213088
214799
184772
149890
166196
159741
178127
171399
182121
189352
180994
205381
177716
188329
221552
217427
191815
160835
177866
165354
196105
182845
188067
201874
214018
185229
190403
226925
196347
201851
233532
174042
171987
186244
183466
195948
198113
208637
178123
184184
171065
194543
217856
202471
209047
227431
204295
196681
208609
252227
241791
216894
197978
245824
209987
226848
211754
228752
196435
200354
236316
218701
249200
214457
231709
204163
242319
224219
209109
215162
270665
249832
231046
182384
208168
194731
221269
207489
221254
236497
186686
212866
201451
228609
212084
223710
241768
224696
213520
248092
265720
227063
239583
283709
222669
272257
283027
250429
259509
231977
239627
278368
255105
224102
226561
209354
237820
257986
343375
308874
255153
281900
238312
255138
308863
289458
264052
243551
258034
355029
281615
313651
340522
260596
317306
287970
393643
365617
305508
263745
249433
238197
272178
329086
286987
307617
276646
316229
289480
335295
307536
322221
351573
275434
407564
310946
343037
314103
272833
346209
410640
385663
362257
378087
478663
434798
407740
318515
355918
380328
364518
353220
344886
329484
292185
344440
306379
353309
315937
331524
372199
279789
364156
330013
413779
320122
352931
286695
432948
393366
305148
387032
346215
300902
276428
376951
438529
404061
495548
439899
411242
364328
379918
344293
296297
309718
446774
399794
364086
339510
337790
309004
345538
419942
377863
382642
371616
380935
342709
360044
437205
403044
391883
368090
373490
330446
357331
459469
404521
399066
187289
162599
213412
182993
204440
158102
132519
131384
127778
144261
128086
144812
132989
147556
146884
129139
136198
148309
145906
133947
148824
151405
163026
182116
162334
163807
180670
181983
162815
157097
142573
143260
156767
170373
155802
171620
166898
184558
164308
165465
187428
184039
168416
159744
147041
144537
158395
176936
173612
161308
172417
206199
189009
185968
190538
171163
187459
174444
196833
193698
208996
192969
189846
177812
296806
382614
506466
285196
288771
363072
380641
282018
289262
208456
216167
205881
234552
232375
229242
231580
254899
258236
307438
397969
525187
366493
284314
226083
276100
226305
352564
262889
448828
448426
292963
315191
204987
240596
238396
227745
230001
253237
263666
432679
587168
635415
401857
446289
306908
354678
287773
261498
258615
282786
312062
312311
284286
280301
257170
253656
280281
307251
307282
282004
237240
249651
247467
259006
261247
272986
285553
286297
267195
256829
281287
322633
291713
311895
278855
262531
252061
278831
317360
289237
306826
230442
243088
250790
247861
269333
255520
275099
252530
304550
300312
275292
278311
303817
332378
308533
337186
364828
334652
335370
337978
308448
323657
340040
334750
356053
361330
371319
398089
191793
153171
213934
193002
215057
277393
245194
198900
204772
159333
153784
206351
184910
206744
139757
197229
218632
157039
155901
177611
156051
178225
174301
177470
155156
163780
158445
179191
174969
179405
184531
149848
144390
152806
160149
172489
174457
164581
216488
219695
199640
216310
194852
198899
220488
171397
185900
166146
174838
180698
194802
201065
178128
164088
158349
170534
150653
157400
178496
229899
224613
200774
223882
219054
196149
201139
208302
185929
204034
216202
181568
194558
196450
169448
185655
237062
240455
197578
281077
234574
187140
172516
167506
178112
182538
202962
197855
238558
232870
207913
243756
217722
223979
249901
185562
205272
191812
220518
206247
212662
227089
199275
221922
230057
223206
214199
191776
200415
158073
168587
166218
182114
170690
172904
186298
208435
231682
239255
225618
243899
219632
251097
190417
208274
194304
215139
225806
229928
210600
92505.8
91438.5
67476.9
69770.5
120421
133126
144379
123263
73979.8
76458.7
73314.5
93129.7
91778.7
88500.1
91930.8
91782.9
106896
81464.6
82706.8
99175.4
107873
98981.9
73405.3
76731.9
71264.8
85925.7
85262.4
90917.6
91673.1
112733
135256
112814
133066
110113
112582
134272
91514.2
81671.3
84041.7
107901
107118
98625.1
98531.3
140746
135984
117002
144138
125462
117954
138038
102356
127190
105446
110513
125460
131332
107907
140041
125625
123015
117124
132033
136923
114619
59163.4
159464
105772
97232.3
84637.2
137562
120539
170907
122973
153569
119365
78362.8
94187.2
125563
166256
183286
84547.7
126786
135142
160843
221814
249296
195710
144037
190509
80313.6
92501.8
92024.9
96531.1
96133.4
102670
106368
146463
127469
179548
139255
161766
153162
182150
90150.1
109434
106972
102216
100816
111317
117652
44338
55204.8
70418.4
59353.5
74797.5
87559.5
72585.4
132164
106899
126618
110333
116340
119883
135909
105105
123893
109643
125886
113741
117629
130222
95951.6
104982
87336.6
109912
91760.8
101690
119332
116393
124180
140899
129407
147129
153282
137496
152243
168022
158139
178737
166619
171843
187370
118027
114404
115634
127965
123162
125354
134399
68401.6
98411.6
83395.9
102202
107927
118812
88490.9
48979.5
147140
69731.6
18842.4
51748
89406.7
134221
58038.1
99243.3
130550
100684
143008
152871
215879
141165
194290
125805
99726
129291
113234
142543
139175
113966
42447.5
77640.7
72898.5
88468
61617.4
68722.6
90189
22398.6
30707.7
24143.6
25413
36651.2
44998.4
31186.6
148688
147723
153253
171903
164337
159871
167702
35347
27957.3
39381.8
54089.2
48169.9
63836
38819.6
88008
60915.8
81863.1
75940.7
101533
83492.9
94689
109816
104280
126877
139744
122617
142604
117602
153196
149557
143659
159715
172043
162501
167946
37829.9
76057.7
54877
62665.2
66546.4
83390.9
45596.1
80816.4
117781
102210
85752.9
121292
102746
104736
127017
167147
155049
152428
143243
166155
127856
180012
190420
209805
176415
209382
192203
187830
71476.5
66147.1
103798
76842.6
81928.5
92631.9
55035.8
91198.1
116823
116833
126715
98493.3
108534
109771
152981
136737
171054
147124
155906
167495
131678
175954
193466
194238
211542
178119
192143
188946
130063
122856
115531
122947
143017
129644
135977
136841
131176
114853
124571
146725
130518
140714
116912
79321.8
104577
108262
122656
131915
95045.8
142250
137794
126513
130337
158056
142048
146282
143570
107816
127262
119117
154882
135795
139614
115156
110092
97815.2
113527
143219
127368
130279
176923
144000
160688
167981
170456
152790
184856
133232
158090
148326
161782
159290
147282
172344
124133
143620
167783
135932
142136
148986
113947
200006
181628
198309
187106
229086
207837
204624
178560
173774
165082
178851
208058
188285
197247
131553
151440
156763
141641
137685
147114
161347
143767
154059
152035
135709
137761
146378
162815
126788
144894
151969
139250
133290
144888
156941
81836.1
65730.5
64266.8
66877.8
116862
146007
168487
114900
74324
70998.6
65340
152549
139004
109313
121771
68319.1
66597
63841.2
97186.2
113583
96606.6
89651.6
69036.5
68004.2
70601.2
84661.3
82150.3
81057.7
88446.4
180907
184322
193697
141129
173778
164989
152637
68267.9
63758.4
67611.8
81684.4
82168.6
80462.4
82186.1
121600
142381
164881
125126
138340
151334
113659
107587
96718.8
114296
137683
133352
96236.7
111778
103662
98650.7
126097
115014
128764
96671.7
102959
77738.3
77458.2
120188
150170
116007
116735
135672
107950
78364.3
88789.3
87554.1
87313.7
88573.7
97848.5
97652.7
76761.4
90132.9
89063.9
87585.6
88872.2
98608.7
100044
125798
115780
125036
101413
110259
101851
110994
119570
99103
112667
112808
99165.7
108287
119938
129297
118009
127084
104374
102738
112053
113807
101889
113964
100089
109290
122788
120801
110991
135005
120180
146314
145533
130938
120844
131486
139207
136947
147694
121867
134701
132535
123794
135398
154437
157998
163798
141744
147580
151497
132372
168102
170055
162022
147448
147924
153819
194865
238043
224874
227271
205218
216731
213370
177298
182156
207079
176419
163636
188480
194771
162734
165900
149453
158625
189942
172628
175367
145329
173215
156500
156492
185526
168333
173205
168576
166214
182109
158063
186292
172892
170686
230132
257090
273139
236655
282275
252466
264290
186670
182156
200082
202392
184363
198179
217161
199906
220064
204725
208630
189622
204060
224425
180964
185189
215263
201801
197576
201803
219720
200072
217143
198168
169434
202364
184344
186650
238774
259010
284555
249851
255076
233289
266024
258279
263729
354695
200474
196576
166482
219191
171312
190703
185766
246704
156937
263715
189050
200359
182219
104579
194005
140480
139629
151864
134869
139663
144387
155145
160166
332371
273028
211319
205572
156935
252948
203170
180660
195340
260497
331363
243091
199902
237036
115623
130899
128444
137726
135518
158761
156393
275086
292023
398120
278815
215128
290144
221538
153658
163438
145964
157853
150437
166563
174431
124425
158221
156365
143373
141331
161548
175145
175898
191176
170607
191946
172491
177869
197790
150589
171517
155328
181391
165322
170559
187064
187998
160138
162069
183442
211745
209401
184502
155122
181190
157659
181210
207420
204764
182244
169805
172987
171417
184826
183269
188314
199444
184785
220358
217179
200246
198024
214591
235206
162761
166748
173354
177261
191706
183905
195210
212042
203473
182566
184702
214386
193134
205193
168850
177888
161381
177179
203007
185344
194199
188315
178096
164630
183890
219549
196089
208384
181738
174192
160537
181758
215116
203930
194028
221596
237562
233974
240958
244680
256828
265878
205922
254940
234620
232399
229263
231641
208503
201897
198795
182328
188104
226444
208306
205211
222224
190913
202053
229211
207411
218208
240403
187503
216413
198665
225110
205593
216422
236257
185646
204052
189608
220064
204718
208615
224417
224843
241030
244429
243895
247879
269499
265235
239192
240321
218213
233874
281823
256422
256699
222521
235306
212208
225605
203368
215691
239182
205030
253283
240665
238421
227767
216212
230067
231428
233598
213477
231421
274207
251203
252927
177872
206886
188673
213701
195235
207127
226574
262809
304362
271925
314132
283159
295601
330705
254932
291353
263946
304467
278796
291345
321309
195377
235513
226332
223119
204361
216362
213244
220710
241991
260386
221319
201533
216689
238045
264463
259060
235606
216444
238070
220893
242911
215947
234583
255062
233211
214368
197050
214373
249712
247488
226124
237258
285579
259018
261280
238483
235095
215286
228432
277829
249568
253193
226299
269341
250785
230423
275090
247853
255497
216674
220674
201510
221291
260355
238026
241948
269753
307068
299385
299199
325771
293233
334048
263769
295299
267687
295296
319152
325699
290149
252521
304520
303822
300301
275291
276067
278309
308070
350236
368833
347486
318655
336684
339360
276567
322149
289429
335212
302082
316184
351505
313297
271828
299500
329477
299479
313282
344915
356059
371318
334741
340018
306880
323655
361351
289421
267232
244176
300559
271187
293787
331417
326311
278550
312947
342918
300192
309773
364524
286138
268374
262894
319305
291593
299236
331396
320785
361664
327788
358911
366447
407301
405084
312402
257670
282860
256388
279731
255096
234424
405134
407349
361678
327799
358958
320806
366488
244143
300493
293760
289383
262868
267181
271147
345496
339519
308991
337767
419895
371825
377813
329993
302124
333962
333955
407241
366492
369127
365367
362283
330872
346538
420885
380727
384401
380282
471899
407557
480981
418147
454720
539355
394961
410888
368298
462636
410878
446262
515474
328674
443367
454800
421337
422060
354334
390573
361872
285569
319106
324029
439621
367893
377306
386281
367681
328420
343613
473172
394299
419244
306972
435681
365129
339282
468485
403116
416958
388831
481421
482869
506786
440696
425363
436007
494810
415182
416982
475048
573881
486437
577646
371295
465425
458906
457656
410400
410293
415280
475800
465492
404126
465453
564128
475760
553535
209236
486550
247138
235677
204249
286102
236696
226302
374990
275014
350084
219071
293041
243221
393729
275910
453896
334681
206161
208655
204737
232679
229035
227918
232456
203066
200680
202285
225199
226726
225057
223154
213422
213757
237426
220235
243630
238245
245517
293942
457307
362896
403024
300204
490465
429651
334187
326091
418182
610711
486214
655311
549586
226411
238546
228400
261784
251639
254654
266150
228387
209653
211471
235552
252733
233401
255198
257851
280787
253536
254224
293461
286872
259494
218703
231644
214308
238834
265169
259119
243842
277398
248867
250795
250862
279982
282651
248607
261226
250975
274588
266207
291066
280782
300005
263288
302479
270249
302236
266169
274766
314461
224380
251519
231536
273187
250248
258452
283929
255120
294672
462738
387043
372294
287729
471572
436925
224115
243016
237851
226598
209380
258030
278397
262157
251773
240548
269105
318145
283109
298374
315711
291794
279447
286094
358673
301195
332236
342395
350445
365724
371761
387168
395150
423504
264126
288972
353698
301024
304024
261563
291849
268097
318134
305079
361626
309382
296934
274187
278547
309763
285169
342942
312945
326275
364512
344393
367858
376097
382149
390736
433741
433477
355568
318408
271630
265741
246932
283450
309308
432967
393407
346238
300917
276458
305195
338668
343414
305149
262886
276768
241701
262897
305163
331195
316737
282238
293145
416217
350109
333873
265734
318050
283483
346562
301755
327433
387279
308627
403368
332096
394925
322193
353078
435514
384333
478788
367878
449967
262906
322845
240455
423078
256372
220890
235608
216444
238076
242910
259069
264466
433591
371716
492749
113812
354018
507424
475065
290016
312676
283449
263165
257796
283456
290019
279724
255093
234416
282838
257660
281073
312388
291613
299240
268375
319335
286156
292970
331408
308275
438146
392270
409660
329749
376554
358710
380293
454809
407627
481080
432756
472061
539543
415952
537847
446526
540731
454996
499148
610685
439586
361843
377252
324013
319076
285558
315185
413366
378708
356970
371719
352054
314315
324912
355173
355164
310291
354617
311156
279643
311154
324905
352042
314297
356936
378695
413329
449955
321215
398923
461199
325965
407034
289406
346272
383923
460035
461860
430416
460035
335855
383941
339241
352457
306918
365039
468489
416894
435576
452273
415697
366180
397230
468817
463996
448066
405723
449349
456779
461593
440193
347476
391005
415278
475165
417080
495014
574008
577849
506648
462170
565034
458732
526416
570025
627475
530776
429988
440724
361287
403812
445324
458390
458680
168019
195786
136444
202547
201639
184097
215998
218115
202837
189605
183273
211326
206163
198423
203099
183245
161754
173563
186430
197971
191880
182718
135397
157185
162482
134630
158429
180683
156406
219556
225263
227245
225961
227478
215691
212672
149716
135061
153842
176919
157429
156358
172730
210453
218798
222657
221077
223970
208479
202254
218883
202652
200307
200335
179132
200532
178637
215876
179396
200597
217006
178426
197742
195069
310011
239443
298552
223914
240013
221241
300014
288871
237909
238335
240291
254230
254972
257083
256432
236540
239628
237158
257536
256005
258222
260226
235113
235040
220756
253707
241444
252979
242442
235996
222207
235344
255021
246739
244090
257275
274897
301987
276337
278747
303678
305665
277397
281862
305173
278623
281081
314387
308967
284846
275717
290901
263954
300492
302405
274422
265428
277912
310661
271409
293806
305449
267652
281749
545497
532971
467172
521383
700208
611768
625508
477703
357720
427374
461870
477195
425197
478786
529848
492770
409016
469781
492377
445821
492371
472163
463747
476194
433779
467889
387635
456640
688512
571077
505119
569843
710168
678109
650337
461887
477197
433575
477708
427352
425190
357713
521197
499135
426533
460911
485370
451001
491084
464567
472439
433825
365736
427423
460868
440373
453004
246318
366188
372262
346153
390966
434502
602457
162029
457006
252666
463847
462272
316930
398590
330171
349959
300776
404615
237304
285609
221704
389832
260348
345133
394588
314751
368151
177690
436803
430665
205584
449969
105846
239076
252251
254238
302121
304055
330347
328321
265039
252530
442633
218380
450850
428117
271013
241870
262769
257486
314803
307985
334753
342425
414577
508093
522135
308501
318702
398886
424150
252425
270152
280134
324717
337941
353264
367142
453393
273181
450371
110903
185287
317992
444902
303409
272162
274411
361863
391518
392788
359934
270957
312766
294033
374080
354705
382576
399495
308574
334676
337254
335393
338043
364866
363102
285275
308472
278475
366237
402260
396242
373460
581537
685563
521598
410421
330915
444838
649855
308117
347508
350303
336706
339426
368876
380684
403249
389806
390065
404746
395265
393501
404848
307944
328956
294885
410308
383089
394856
419367
254987
294005
287169
289996
296893
354810
351137
479331
427503
466409
101983
383720
393393
470825
395274
401336
391744
405860
386249
390636
408406
337450
305648
332162
394032
414128
416895
430658
258931
310646
303068
295021
302143
362786
376035
456603
491099
394320
447219
502231
102031
367435
394542
361796
363475
394559
422321
428023
390978
104687
345884
456907
419908
472826
370528
101359
348466
365964
325534
408371
432943
427691
421906
400377
388576
406450
379824
411724
414884
370509
366959
403049
368971
397421
427887
433893
393635
284000
322945
314517
331028
340737
394651
417728
346572
362304
365430
380746
384458
398010
420925
712708
210683
698127
644750
467216
657340
650011
400944
379154
367447
400965
452117
436670
414598
385220
410048
373155
404009
458556
442907
417812
417045
379557
412488
417221
337083
357051
415966
415051
346768
418291
378230
416927
375939
415692
400680
400681
365366
435659
430098
435668
426425
298426
398689
388282
355258
365705
441285
459491
321203
325928
289383
398906
346240
406978
461182
415088
412888
365126
340465
415342
371774
415802
405441
414539
376336
431181
432099
434471
419658
367735
343619
328451
386346
419258
448525
473199
408744
355323
416466
415437
292907
401773
341170
450513
372364
375858
443021
448447
442101
445668
343893
429848
347510
433814
456879
454716
431960
498746
465097
457297
429513
460372
468141
423712
396785
451524
383823
446505
435104
441665
451788
474612
511261
462420
396292
418856
434522
462440
368724
435012
355466
438773
448413
452309
446060
371319
457674
465483
410309
415331
458947
525244
402985
475963
427043
481858
437973
466920
522107
418072
314344
411218
306567
408331
392868
262223
386261
435423
427008
463575
459439
467545
459547
405894
450054
218692
295784
466470
405643
309265
390947
231457
248449
238944
253536
263857
273167
292372
265706
283394
246885
294627
271572
318332
355500
314400
290867
370671
423775
330097
363322
450011
263388
320132
281120
359499
306674
334022
400613
336331
355062
304323
372833
473344
423504
445778
461599
440152
347405
405616
456847
449299
462764
475866
493565
546637
438257
497163
479058
453731
413822
450803
433238
424384
456765
459035
407333
387523
455321
411479
441314
453808
459012
428355
467148
428369
449461
459877
457471
388086
427397
411137
289987
373721
261778
390655
320208
401879
446578
449380
432319
424871
355393
396026
401295
521473
533008
545612
611827
625676
635517
700292
101446
488062
213885
101305
101339
304599
101384
441815
221687
101345
101353
265731
101302
101328
437573
437558
368590
458449
478242
478251
450908
467478
458869
384129
478921
445362
476496
436416
448809
476218
387600
467942
463740
472187
433847
499192
460937
426607
521222
507500
485390
450996
425756
442796
450552
456110
337841
380312
445105
267102
367152
394995
367166
152132
323792
205601
454730
456182
436179
459160
368117
450273
406055
511298
710105
608707
520134
456015
511320
608741
576116
679729
593076
526290
476428
513928
584516
472450
460897
440341
471573
433850
464602
365809
474163
445056
477415
476896
510882
471912
379862
247211
347570
386152
361166
138984
305343
195953
540921
533718
467778
518742
727984
602823
622640
434880
458027
470357
458430
471870
432459
375520
387326
444739
313055
447140
413235
471933
460137
467628
448689
465829
456289
411893
345032
447054
593181
560054
567262
649710
587212
659637
531812
649582
659599
531821
644702
593164
567188
559948
573012
577679
630352
461457
545451
652802
603523
395428
451538
342965
272716
420988
376304
194349
454529
262106
395379
410632
405423
456766
389799
376230
421258
464873
307351
428452
386292
223650
451732
362234
380114
244614
395755
379273
447243
238615
463577
391186
464664
391172
478559
463573
378609
477832
452519
441653
205167
354037
350487
461872
455770
479682
447506
212787
368889
355073
697510
723211
627748
743780
662554
723245
712724
205115
350412
441631
378568
452481
477823
456991
336752
356085
439236
425429
151637
298417
320492
754300
711135
750020
586601
752568
696924
715251
706597
697771
737152
737007
729513
708547
637755
362211
465358
528150
475042
343773
338483
177149
472941
415752
414353
324020
325563
273149
157969
338529
177165
343801
488068
362218
528130
465361
319320
115264
117991
174371
243100
254693
148635
421916
371464
252440
421943
142659
326490
252482
207437
347519
458338
413201
129049
236887
294110
505727
251279
399639
424382
136205
250654
306095
458246
400431
232966
413878
136376
251546
301102
286506
372347
271776
184797
105688
124865
120628
402397
186944
125556
204860
246411
364256
268444
259804
357969
169112
299690
109107
197957
133639
429166
297519
193835
311457
111877
146558
207552
125401
179290
106259
125388
101616
107181
102587
373363
662355
539243
450684
173223
602455
373330
507626
556228
295088
588330
146963
393685
346615
160559
114998
102055
121241
101521
105404
102379
517957
555234
251053
687416
742187
656717
491367
137957
147031
303517
220807
102302
115404
112680
120334
377248
229977
116657
198019
113812
102898
363792
115420
189823
115215
189994
110500
102527
198010
213880
120331
102898
116650
229945
377237
109701
350025
184319
107462
162014
109700
102051
117627
104435
147877
102971
126328
105838
101602
318738
107116
111773
106040
181588
138832
168952
311666
111371
106853
106770
140670
170244
169959
132883
105834
158632
105259
150487
108123
101808
124031
105306
152911
103446
129241
106226
101668
145799
101559
102025
102154
105041
111839
104406
108319
101864
111637
436352
106845
190781
165696
101298
101777
101298
101298
101298
101298
101298
101298
101298
101298
101298
101298
101298
101298
101298
135760
101317
101298
101299
102955
101336
101336
103284
478895
101313
413115
466390
445886
471823
109076
101601
325406
355181
372957
304397
336396
423598
405746
473339
115201
122792
461859
101300
101305
101983
101383
445401
476465
384193
467494
458910
470757
436331
387114
447028
460184
471895
413097
444612
312803
432284
472774
435009
375289
458321
470363
457914
383678
455728
479677
447466
368861
354983
212729
458261
236763
347362
393240
128993
293946
207251
441734
415617
472879
157859
272912
414207
323850
168910
133494
259477
419718
299338
197691
357731
201021
242271
328982
146062
114272
108518
103266
101298
101298
101298
101299
101298
102967
101299
189898
221619
363705
110485
189719
115406
102526
238941
389872
238916
118860
220931
118854
103146
101303
101299
101646
101298
101298
101298
101304
107114
106034
138796
318658
181560
168876
111764
104428
102966
117577
105827
126247
252433
147782
113486
109361
155974
101997
104539
101761
101393
487387
510239
320716
336998
371710
580106
613175
332405
352593
404356
558415
682530
330689
210112
224696
324150
335724
218250
229312
361422
231899
260302
343071
374806
236194
265614
344649
230676
238924
439458
458655
302901
309013
388222
244799
272913
473662
558770
314059
342355
213358
209278
212355
246725
245016
243966
247773
416974
272060
315294
389007
445966
278400
327431
218229
223547
217282
251235
257700
256883
251991
231144
240302
239565
264676
263868
272145
272819
654097
346482
381315
504728
448878
339543
392009
207858
220300
210442
243401
249580
240859
251778
220778
223966
214859
247709
261166
253429
255620
249806
260053
249189
281681
292089
292469
281992
227980
244590
236482
268290
260467
268924
276914
231980
244970
245783
259113
260866
273551
272155
500169
358088
366689
527991
547358
365783
377036
283011
322474
281337
319506
321258
280696
283739
469691
286139
338733
602765
716238
357694
432896
286956
325822
292933
329545
324624
292263
287657
257502
254374
246293
278734
298565
290152
286963
234641
251427
247841
269128
264086
276429
281207
268896
303636
269507
297712
333173
296520
334522
274728
305622
271373
300524
342634
305305
337579
272370
285061
286111
303560
304634
318347
316617
567409
371946
395500
562483
625680
384278
416579
299539
335962
298936
306881
344206
343646
307191
256721
252346
263894
275964
284506
287955
296681
279388
316935
326255
284916
318949
277106
287117
689898
399846
498741
396236
142357
427298
547223
283358
327989
330090
296611
322629
288919
290992
279788
321020
286728
349875
312149
321144
359633
270204
292905
284542
311910
303278
318157
327059
316215
352252
326562
362465
352504
326962
316255
334968
303878
295990
304556
352032
343487
312701
261710
284494
273103
307144
294878
307588
320812
299466
317721
301260
333327
346369
349538
330907
355506
355782
366308
389364
401264
404338
419242
314608
364864
362550
335130
353451
326309
323051
307384
330275
295799
332645
388589
347026
372226
318402
309235
300563
334701
363423
352885
344180
359648
357449
358914
395043
392248
393561
393638
337969
373725
338928
352074
383875
387118
350137
598970
375860
388532
625047
591225
544299
571169
334583