/*--------------------------------*- C++ -*----------------------------------*\
  =========                 |
  \\      /  F ield         | OpenFOAM: The Open Source CFD Toolbox
   \\    /   O peration     | Website:  https://openfoam.org
    \\  /    A nd           | Version:  9
     \\/     M anipulation  |
\*---------------------------------------------------------------------------*/
FoamFile
{
    format      ascii;
    class       volScalarField;
    location    "0.00325";
    object      rho.air;
}
// * * * * * * * * * * * * * * * * * * * * * * * * * * * * * * * * * * * * * //

dimensions      [1 -3 0 0 0 0 0];

internalField   nonuniform List<scalar> 
28817
(
1.10302
1.33686
1.76114
1.53717
2.2697
2.24251
0.930853
1.11982
0.893406
0.765561
0.735597
1.0433
0.922971
1.00292
0.915085
0.82661
1.53234
1.37675
1.2254
1.07909
0.729099
0.663918
0.669917
0.810032
0.740023
0.747506
0.818403
0.746956
0.697412
0.680315
0.780605
0.760332
0.832666
0.854908
0.79226
0.754409
0.722233
0.808945
0.844783
0.88553
0.923828
0.80966
0.885326
0.802523
0.990569
0.979896
0.889683
0.899087
2.27865
2.24154
1.45442
1.15642
1.62479
1.19109
1.69752
0.846574
1.06944
0.98634
0.997567
0.855735
0.933337
1.08214
0.867735
0.837379
0.793005
0.935629
0.887204
0.968865
1.02003
0.842886
0.907797
0.822309
1.03549
1.00851
0.915054
0.939585
0.895014
1.016
0.871242
0.950599
1.13188
0.976583
1.10247
0.818125
0.523357
0.579525
0.863932
0.657243
0.834698
0.526685
0.625665
0.629863
0.699476
0.875639
0.735485
0.926787
0.777116
0.634368
0.765184
0.507296
0.553099
0.574379
0.540934
0.568973
0.615897
0.612459
0.510969
0.563554
0.586181
0.546131
0.57321
0.618226
0.633221
0.60727
0.582711
0.623517
0.552186
0.590696
0.656397
0.685799
0.625377
0.587157
0.628523
0.715117
0.662097
0.660874
0.716427
0.610087
0.627217
0.611576
0.687877
0.663248
0.663029
0.691158
0.606371
0.586767
0.63509
0.668886
0.748213
0.727562
0.686575
0.64996
0.636801
0.614383
0.668839
0.71335
0.681897
0.698932
0.665374
0.648605
0.615114
0.658988
0.696219
0.719559
0.757046
0.812974
0.728141
0.689271
0.671286
0.635693
0.712351
0.744638
0.735521
0.698379
0.670561
0.669544
0.644312
0.702429
0.729731
0.758887
0.829381
0.754752
0.784502
0.720003
0.788331
0.721711
0.771444
0.751982
0.710386
0.900702
0.823435
0.854425
0.781915
0.700114
0.732437
0.772095
0.800954
0.843842
0.801467
0.762709
0.784092
0.845364
0.767876
0.798443
0.816063
0.729547
0.744729
0.840764
0.891266
0.80851
0.841806
0.875196
0.767601
0.797593
0.961416
0.91524
0.925709
1.01888
0.969525
0.88
0.833764
0.909077
0.872019
0.962874
1.07117
0.972775
1.01365
1.11419
1.58099
2.2927
2.28986
1.35552
1.88204
1.25961
1.81136
0.927254
1.12213
0.967092
1.1696
1.01119
1.05332
1.21408
1.0036
1.04988
0.953138
1.06111
1.21785
1.11447
1.16331
1.1066
1.00959
1.2645
1.28039
1.16235
1.02129
1.17659
1.06578
1.17116
1.0135
1.10181
1.31895
1.15586
1.26405
1.17119
1.14093
1.30429
1.04047
1.22999
1.06873
1.19876
2.2712
1.26529
1.74999
1.60539
1.09371
1.17222
0.962519
1.68468
1.69559
0.999251
1.02362
1.06336
1.14523
1.18502
1.21247
1.25494
1.16187
1.36035
1.28548
1.04336
1.10977
1.23189
1.30441
1.09366
1.21577
1.13549
1.37596
1.28917
1.33418
1.42312
0.769507
0.478188
0.752366
0.637265
0.500119
0.606357
0.964431
0.784573
0.779962
1.1395
0.657768
0.928833
0.691138
0.518559
0.997996
0.809195
0.481931
0.513445
0.51774
0.54691
0.550761
0.582594
0.587309
0.488596
0.538683
0.525409
0.57018
0.557852
0.595917
0.610557
0.544139
0.559196
0.589592
0.586777
0.616391
0.632677
0.662169
0.556177
0.611807
0.561039
0.678961
0.626538
0.632212
0.685573
0.621383
0.584424
0.569727
0.642339
0.715571
0.659014
0.697079
0.637292
0.757829
0.641584
0.796199
0.67545
0.681067
0.803157
0.611333
0.575509
0.620028
0.687981
0.649563
0.697861
0.738702
0.767932
0.663889
0.649827
0.691259
0.835073
0.708092
0.815413
0.660631
0.606476
0.63557
0.7419
0.683362
0.715042
0.775592
0.685376
0.842057
0.714633
0.863167
0.732807
0.765291
0.899362
0.913141
0.849762
0.722946
0.729805
0.922933
0.787985
0.858147
0.727695
0.7101
0.67044
0.752906
0.861282
0.796073
0.81561
0.741883
0.823434
0.895057
0.939415
0.761227
0.80181
0.872575
0.793026
0.882295
0.750859
0.804481
0.991489
0.849362
0.942469
0.360396
0.259019
0.361457
0.317665
0.485098
0.453666
0.269027
0.287808
0.43049
0.380468
0.247931
0.271772
0.257391
0.270469
0.336397
0.327078
0.327085
0.474849
0.414028
0.553021
0.311105
0.291003
0.460611
0.397918
0.397234
0.388184
0.338374
0.450128
0.495868
0.398387
0.407453
0.296755
0.265405
0.319678
0.268636
0.341454
0.306487
0.301654
0.261111
0.251951
0.258885
0.317837
0.324858
0.30741
0.299683
0.404849
0.449103
0.404334
0.478515
0.410957
0.382033
0.418679
0.314006
0.289981
0.324767
0.325467
0.349396
0.326502
0.362522
0.246817
0.26162
0.249181
0.288815
0.311542
0.300993
0.28997
0.394607
0.349952
0.375998
0.343934
0.389797
0.343121
0.384695
0.377575
0.307217
0.357408
0.359942
0.320152
0.32956
0.354077
0.340427
0.395836
0.376569
0.35437
0.375964
0.391195
0.4132
0.298758
0.351301
0.337817
0.352267
0.338101
0.376486
0.391458
0.361088
0.427649
0.389363
0.417257
0.369268
0.404264
0.448758
0.388789
0.458564
0.398407
0.358129
0.415488
0.355127
0.406493
0.355553
0.417627
0.387493
0.387177
0.351743
0.386771
0.420607
0.371608
0.423615
0.391278
0.405526
0.365652
0.391985
0.43111
0.376822
0.318859
0.335827
0.38012
0.340605
0.363331
0.398514
0.336478
0.412885
0.365457
0.407939
0.349275
0.345133
0.393083
0.434668
0.452987
0.415105
0.431558
0.498781
0.453353
0.475227
0.394202
0.385342
0.369026
0.407128
0.453097
0.432017
0.424737
0.017311
0.0923254
0.32531
0.145095
0.0635014
0.0432329
0.105934
0.0819917
0.0332361
0.149591
0.117966
0.0183019
0.0247304
0.0203903
0.0209614
0.014701
0.0617373
0.0235349
0.216733
0.137216
0.170471
0.17287
0.150165
0.237812
0.2496
0.0493847
0.0692732
0.0632047
0.0394035
0.0586725
0.065161
0.0458866
0.023029
0.028549
0.0340146
0.0272442
0.0195684
0.0323625
0.0220283
0.016833
0.017761
0.0171696
0.0149981
0.0151414
0.016362
0.0152154
0.11526
0.109714
0.0862059
0.113985
0.0849162
0.0902472
0.116979
0.0341209
0.0550968
0.0519488
0.0601003
0.0452593
0.042268
0.0688247
0.0250664
0.020215
0.0192575
0.0328159
0.0317223
0.0225698
0.0251602
0.113757
0.0852843
0.080005
0.0858634
0.126429
0.0972386
0.114548
0.13079
0.149737
0.141519
0.166269
0.143107
0.157624
0.167525
0.0851412
0.05593
0.0759368
0.0751133
0.0667954
0.055379
0.088561
0.0266063
0.0424727
0.0383314
0.0441957
0.0379085
0.0244541
0.0272379
0.0143644
0.0155891
0.0149575
0.0165492
0.0160308
0.0177735
0.0151281
0.235124
0.296013
0.379761
0.206704
0.170127
0.278892
0.256753
0.125843
0.0975761
0.1192
0.0978502
0.129296
0.109599
0.120793
0.0169258
0.0192119
0.0171696
0.0176161
0.0170581
0.0192565
0.015826
0.149199
0.181777
0.182892
0.153719
0.143505
0.171262
0.178986
0.0736965
0.0737197
0.0614609
0.103817
0.0558105
0.0851136
0.0919299
0.200455
0.222946
0.191016
0.210258
0.179947
0.192686
0.224396
0.096596
0.131731
0.126604
0.137148
0.111022
0.111439
0.120657
0.0184898
0.0184525
0.0181067
0.0245888
0.0206944
0.0211321
0.016391
0.0508466
0.0458104
0.0402603
0.0263987
0.0388758
0.0313493
0.0312983
0.140108
0.148334
0.143098
0.164433
0.160782
0.165223
0.167602
0.19748
0.195187
0.181852
0.223172
0.206915
0.209399
0.236926
0.152051
0.162167
0.144693
0.16744
0.194417
0.184429
0.171592
0.251044
0.214067
0.215207
0.198992
0.232215
0.203935
0.230426
0.186887
0.215416
0.184153
0.189013
0.215637
0.188966
0.218633
0.225219
0.279693
0.249485
0.257248
0.230409
0.262782
0.291181
0.216473
0.265554
0.246335
0.253908
0.232995
0.26206
0.283498
0.193939
0.230786
0.218526
0.239857
0.224056
0.250982
0.266
0.189875
0.214875
0.214838
0.229938
0.205593
0.191314
0.216101
0.294262
0.305345
0.274505
0.289598
0.341568
0.31163
0.319284
0.253798
0.266513
0.241461
0.276483
0.318009
0.291138
0.30394
0.0162326
0.0111807
0.135703
0.0645088
0.00946639
0.0098465
0.0119598
0.0163879
0.0229735
0.0134172
0.0177141
0.0164102
0.113653
0.0377177
0.0999628
0.0363207
0.0253293
0.11413
0.0136941
0.016452
0.0193024
0.0184703
0.0134799
0.0121579
0.0166222
0.0342984
0.0236403
0.0273737
0.0275388
0.0401358
0.0252917
0.038725
0.0104763
0.0100024
0.0109716
0.0129568
0.0120433
0.0108874
0.0117501
0.0692646
0.0499909
0.0498436
0.0720056
0.0553871
0.0578228
0.0817933
0.0519029
0.00619779
0.0110993
0.00837702
0.0072928
0.0138774
0.0186067
0.183962
0.0314496
0.0834274
0.0162678
0.131189
0.0320753
0.128148
0.0309178
0.0310751
0.0191838
0.0178674
0.0213624
0.0360324
0.0345123
0.00821005
0.0103693
0.0129714
0.0107874
0.0114735
0.00972401
0.0139177
0.0305159
0.0554104
0.0467555
0.0342726
0.0291712
0.0457818
0.0528159
0.0193777
0.0169679
0.014399
0.0136889
0.0222686
0.0165293
0.0184222
0.00887424
0.00833888
0.00777634
0.00979433
0.0099092
0.00912176
0.0105294
0.0619276
0.0863329
0.0530946
0.0625063
0.120764
0.068355
0.102025
0.0860842
0.0774663
0.0660799
0.0686887
0.107632
0.0780062
0.0968462
0.0145896
0.0152365
0.0134351
0.0120739
0.0142501
0.0136121
0.0129576
0.0129695
0.0139016
0.0201435
0.0159496
0.012411
0.0160156
0.0163278
0.020826
0.0293873
0.0251983
0.0423966
0.0449391
0.0386876
0.0475616
0.00931831
0.00854902
0.0103649
0.00612455
0.00897898
0.00793891
0.0112353
0.0335516
0.0165104
0.0175481
0.0352509
0.0359399
0.0437287
0.02166
0.0715344
0.117044
0.115187
0.0760482
0.0713212
0.077037
0.112122
0.0714463
0.124608
0.0715121
0.121666
0.0710314
0.0797324
0.12222
0.0110956
0.0117313
0.0132987
0.0134184
0.0110943
0.0130551
0.0117473
0.00751685
0.0087057
0.0102901
0.00722674
0.00928422
0.00871783
0.0101195
0.00943429
0.0107439
0.00657704
0.00939999
0.0241026
0.0134568
0.0160004
0.013238
0.015623
0.0119111
0.0112384
0.0262416
0.0160779
0.0169518
0.0579484
0.0214336
0.0434609
0.0576214
0.0443367
0.0743361
0.031185
0.0226344
0.057498
0.0441848
0.0586787
0.0467238
0.0319233
0.0767871
0.122174
0.095696
0.0796064
0.0952196
0.150284
0.111862
0.134774
0.00654391
0.00666794
0.00574805
0.00705927
0.00733793
0.00819607
0.00745656
0.0122616
0.0137379
0.0114578
0.0102376
0.0120273
0.0119276
0.0111514
0.119949
0.0921116
0.0786835
0.0958835
0.148374
0.112717
0.134172
0.0140705
0.0359293
0.0279665
0.037928
0.0195734
0.0208907
0.0249142
0.0756552
0.117498
0.0616861
0.0642298
0.0943139
0.0454142
0.0969923
0.00899489
0.0146033
0.00893066
0.0100075
0.0108028
0.0118102
0.00844756
0.113043
0.166216
0.150215
0.166997
0.129906
0.131884
0.150513
0.354566
0.283084
0.402157
0.295345
0.0792167
0.118279
0.170511
0.155408
0.119023
0.155012
0.284276
0.0896769
0.0941262
0.0873724
0.109226
0.105045
0.102056
0.125837
0.324005
0.309839
0.21427
0.217608
0.255236
0.162346
0.270553
0.123112
0.216869
0.153573
0.17788
0.142889
0.17691
0.22789
0.178908
0.320632
0.401451
0.313117
0.423358
0.331196
0.384876
0.140185
0.129301
0.110102
0.151845
0.12874
0.146462
0.17358
0.136227
0.103307
0.119077
0.13514
0.122773
0.144999
0.159291
0.25018
0.202494
0.177
0.205314
0.309219
0.267812
0.238306
0.168397
0.155084
0.152901
0.18773
0.197333
0.219574
0.190811
0.262373
0.186238
0.20052
0.179128
0.241781
0.16612
0.216203
0.184183
0.136537
0.162001
0.167433
0.215775
0.183216
0.19882
0.152981
0.169988
0.183187
0.20965
0.212622
0.210236
0.25665
0.379804
0.320574
0.309809
0.353562
0.30012
0.271007
0.326895
0.380125
0.379977
0.391691
0.344568
0.451894
0.309125
0.383206
0.207899
0.173205
0.165208
0.186728
0.171924
0.207328
0.219027
0.162598
0.196049
0.209222
0.18106
0.16993
0.205246
0.210564
0.219253
0.308793
0.259274
0.240099
0.264367
0.22273
0.256397
0.232785
0.359363
0.357732
0.280352
0.270288
0.328422
0.400265
0.255483
0.229437
0.200593
0.264753
0.244363
0.303698
0.328719
0.36018
0.271547
0.231252
0.345996
0.265844
0.32237
0.400715
0.429763
0.450247
0.435541
0.406181
0.373469
0.435726
0.39148
0.269398
0.28002
0.242959
0.244042
0.283745
0.25018
0.283695
0.201598
0.200684
0.185695
0.217162
0.248775
0.233183
0.231266
0.311116
0.231605
0.259242
0.242732
0.2748
0.240508
0.283947
0.429256
0.388657
0.325067
0.38407
0.444635
0.434129
0.431623
0.360666
0.309468
0.305408
0.359039
0.365487
0.402691
0.364062
0.465925
0.380537
0.332703
0.375797
0.461589
0.401571
0.444015
0.343156
0.365186
0.314073
0.316868
0.318831
0.345515
0.349085
0.360004
0.309873
0.321425
0.338606
0.386094
0.349195
0.342836
0.248351
0.295017
0.277971
0.292126
0.262706
0.260057
0.282525
0.439342
0.443129
0.455881
0.410817
0.43796
0.386566
0.368949
0.412489
0.419985
0.429084
0.382446
0.423728
0.408506
0.448431
0.328785
0.326562
0.316822
0.349366
0.379055
0.362472
0.361057
0.274129
0.269483
0.250496
0.278778
0.323986
0.302883
0.296878
0.360195
0.37284
0.365272
0.365929
0.40514
0.380897
0.379542
0.379152
0.363438
0.389776
0.369251
0.405034
0.3759
0.382334
0.305741
0.359627
0.351167
0.351288
0.330516
0.323355
0.3344
0.38054
0.428993
0.416734
0.43019
0.39877
0.398153
0.405451
0.373954
0.404431
0.466676
0.486907
0.351237
0.424148
0.38703
0.389582
0.402809
0.437593
0.413955
0.451622
0.44473
0.481889
0.452236
0.342533
0.426391
0.411385
0.450526
0.404064
0.389385
0.332573
0.522053
0.481241
0.483902
0.511229
0.504932
0.448332
0.431246
0.440404
0.357511
0.376487
0.375933
0.431607
0.365908
0.364461
0.384158
0.413988
0.443996
0.376961
0.389474
0.352963
0.38901
0.352517
0.315542
0.331071
0.332595
0.367554
0.328917
0.362168
0.385781
0.41445
0.420981
0.364539
0.402461
0.383316
0.378974
0.401465
0.438247
0.384297
0.419811
0.493005
0.437375
0.469952
0.41923
0.47592
0.446685
0.422887
0.489596
0.454724
0.45979
0.416509
0.388952
0.354462
0.349764
0.406578
0.381626
0.380623
0.422625
0.392515
0.361892
0.39229
0.451159
0.424425
0.422501
0.433391
0.403834
0.37072
0.395907
0.45724
0.433003
0.425258
0.449047
0.524492
0.497284
0.523779
0.473885
0.469043
0.498328
0.519627
0.483561
0.458937
0.426087
0.486552
0.463158
0.452317
0.50585
0.433752
0.524332
0.499453
0.493999
0.408096
0.592498
0.451054
0.571418
0.570684
0.709071
0.559566
0.51847
0.42814
0.615211
0.469281
0.450638
0.499926
0.43884
0.491482
0.432271
0.484212
0.458179
0.407778
0.434875
0.424717
0.428043
0.421615
0.457143
0.466077
0.454801
0.458157
0.44579
0.484899
0.470192
0.484731
0.508602
0.488476
0.476927
0.452042
0.536335
0.50349
0.491718
0.528956
0.430223
0.434724
0.421223
0.472932
0.469219
0.465789
0.475087
0.480456
0.537211
0.511039
0.52555
0.497086
0.534996
0.563372
0.479257
0.463682
0.450184
0.493615
0.543731
0.504231
0.532091
0.44001
0.431498
0.422619
0.468145
0.492573
0.477224
0.481018
0.487739
0.547088
0.515103
0.563472
0.523266
0.547452
0.588763
0.449147
0.494608
0.473907
0.511434
0.494251
0.518052
0.537374
0.519769
0.56265
0.514914
0.512762
0.573727
0.560697
0.522022
0.5156
0.574003
0.540037
0.580139
0.524872
0.564017
0.528152
0.60734
0.542751
0.576936
0.574632
0.649026
0.60412
0.617606
0.53559
0.525243
0.503291
0.546648
0.603915
0.578635
0.568672
0.638871
0.591365
0.61216
0.55923
0.541695
0.565087
0.585439
0.677535
0.644197
0.671455
0.59341
0.653417
0.625642
0.617201
0.853357
0.926101
0.788718
0.823882
1.03907
0.890872
0.964948
0.86557
0.98481
1.06154
1.0865
0.91295
0.934918
1.01037
0.0397178
0.234814
0.445179
0.177593
0.0677786
0.24461
0.295507
0.101883
0.0647928
0.235422
0.31644
0.421025
0.321189
0.515622
0.373312
0.301364
0.401991
0.0580002
0.0468131
0.0680207
0.0479614
0.0689701
0.0802351
0.0563059
0.346982
0.536049
0.431518
0.663958
0.549465
0.428024
0.521458
0.10985
0.197421
0.125259
0.200333
0.126462
0.142671
0.22027
0.057364
0.0932052
0.080824
0.0931267
0.0784207
0.10622
0.0669176
0.055172
0.0912796
0.079155
0.0923093
0.0763495
0.105006
0.0658056
0.271645
0.257841
0.296639
0.262029
0.301329
0.284808
0.326787
0.29757
0.347259
0.323288
0.351122
0.328067
0.355303
0.379328
0.222832
0.159756
0.14324
0.159877
0.263394
0.242448
0.176319
0.216574
0.156959
0.141003
0.158673
0.256907
0.174353
0.238969
0.374887
0.372918
0.376072
0.401519
0.403929
0.404526
0.433411
0.105837
0.0898135
0.13224
0.0888021
0.118758
0.119293
0.0774295
0.279929
0.345402
0.321191
0.326116
0.305975
0.350921
0.374078
0.175723
0.28011
0.205688
0.277111
0.190708
0.260317
0.191623
0.289352
0.36439
0.332335
0.337287
0.311395
0.357653
0.388896
0.402303
0.459865
0.429711
0.461241
0.431544
0.46216
0.493111
0.396587
0.384165
0.361026
0.389583
0.453759
0.414709
0.425702
0.373835
0.376069
0.349216
0.382113
0.437493
0.409046
0.407801
0.399525
0.458335
0.428946
0.46425
0.433553
0.46354
0.495443
0.408496
0.473699
0.43657
0.479548
0.439768
0.469158
0.509691
0.355824
0.350126
0.331311
0.380835
0.431606
0.402888
0.410791
0.503322
0.495647
0.464862
0.499071
0.576366
0.53152
0.541468
0.489366
0.488807
0.458099
0.493786
0.562189
0.527623
0.526317
0.416732
0.485349
0.477068
0.475678
0.442858
0.445103
0.452243
0.514184
0.504695
0.47153
0.50235
0.585006
0.537327
0.546436
0.0335391
0.0272596
0.210164
0.114067
0.409759
0.245567
0.359243
0.0724141
0.0209371
0.0293
0.0388394
0.136365
0.0244363
0.0791669
0.2242
0.0719488
0.119122
0.234683
0.184982
0.105716
0.164384
0.319883
0.15772
0.225943
0.322318
0.251171
0.185672
0.251366
0.0472218
0.0513437
0.0309882
0.0533386
0.0331296
0.0360725
0.0603224
0.0184658
0.0189989
0.0216286
0.0207019
0.023547
0.0248834
0.0217412
0.0969028
0.0796286
0.10465
0.0819831
0.111729
0.124807
0.0944585
0.156719
0.0579356
0.222966
0.0411046
0.148853
0.0260179
0.09198
0.291834
0.386518
0.294129
0.268754
0.199955
0.125839
0.197802
0.138991
0.143917
0.125413
0.158732
0.137301
0.146746
0.164586
0.0213511
0.0293907
0.0247058
0.0291996
0.0284741
0.0349584
0.0248917
0.0632628
0.047531
0.037417
0.0447133
0.097345
0.0573239
0.0773247
0.093979
0.125224
0.114069
0.139736
0.130976
0.115737
0.149197
0.319918
0.496075
0.402555
0.364097
0.288468
0.221288
0.293091
0.146703
0.144493
0.129994
0.153201
0.182545
0.165433
0.166557
0.161375
0.175958
0.17851
0.178376
0.181185
0.197297
0.197806
0.0312013
0.0236037
0.0269294
0.0290326
0.0294541
0.0342019
0.0252017
0.0328572
0.0253476
0.0347473
0.0303081
0.0390186
0.0415193
0.030046
0.0446459
0.0615115
0.0381464
0.0425222
0.0859381
0.0506768
0.0716105
0.164731
0.206671
0.182741
0.201895
0.182304
0.199344
0.222236
0.159563
0.0954514
0.131816
0.149888
0.135988
0.181885
0.112536
0.0557548
0.111918
0.0650577
0.110407
0.0670841
0.0773808
0.130887
0.266391
0.46534
0.545412
0.518738
0.360274
0.283464
0.455634
0.0345669
0.0340556
0.0487535
0.0331881
0.040911
0.0413509
0.029067
0.197672
0.186219
0.162759
0.175418
0.23005
0.212375
0.192834
0.15361
0.154981
0.186113
0.149041
0.176508
0.210826
0.178961
0.176138
0.232725
0.210281
0.217155
0.197375
0.233895
0.254747
0.0489836
0.0281555
0.0407513
0.0488375
0.0406075
0.0585309
0.0340476
0.0533153
0.111228
0.0806968
0.116158
0.0637116
0.0683127
0.0930181
0.197328
0.223047
0.197891
0.247229
0.218623
0.21665
0.24156
0.206595
0.243605
0.207987
0.266335
0.226856
0.223826
0.257907
0.182303
0.226317
0.2211
0.205552
0.218449
0.19052
0.192753
0.168994
0.166758
0.207584
0.157069
0.203392
0.139394
0.176382
0.0535714
0.0352697
0.0458662
0.0491096
0.042181
0.0576548
0.0356304
0.244655
0.257546
0.238957
0.282793
0.261621
0.277995
0.302439
0.224532
0.227537
0.201568
0.218599
0.268658
0.24359
0.24281
0.0946441
0.134716
0.0793456
0.0933202
0.178765
0.110144
0.155427
0.245327
0.183582
0.216852
0.243399
0.236814
0.273776
0.209031
0.236262
0.223235
0.205839
0.221836
0.27077
0.251108
0.243006
0.0917415
0.129128
0.0790049
0.0903223
0.171021
0.104142
0.150452
0.0578951
0.0487284
0.0804755
0.0487531
0.0690799
0.067967
0.0408756
0.270862
0.264916
0.24189
0.268037
0.321647
0.299349
0.289805
0.229939
0.173575
0.201634
0.237434
0.230488
0.266695
0.203979
0.289971
0.279248
0.249608
0.242771
0.300769
0.275879
0.268099
0.250675
0.240439
0.221863
0.260294
0.310064
0.290462
0.280198
0.258364
0.287568
0.324002
0.306999
0.276802
0.34458
0.326021
0.290481
0.347253
0.317036
0.346354
0.314056
0.339965
0.373305
0.267701
0.334319
0.307633
0.310729
0.28475
0.327112
0.354103
0.10784
0.200917
0.142087
0.198239
0.126029
0.122973
0.176575
0.260909
0.310835
0.283167
0.331099
0.302127
0.326085
0.355006
0.257137
0.328103
0.303613
0.30242
0.276894
0.325154
0.34904
0.24143
0.298327
0.293704
0.291654
0.271074
0.265008
0.267057
0.271959
0.264069
0.335899
0.26305
0.30393
0.302933
0.235498
0.296793
0.364364
0.352174
0.349696
0.330344
0.328912
0.31778
0.3741
0.370729
0.343096
0.365848
0.428786
0.400079
0.393678
0.37601
0.37214
0.340979
0.366592
0.436917
0.402914
0.397856
0.319803
0.335867
0.30343
0.410584
0.375074
0.35208
0.384061
0.335218
0.33385
0.306704
0.350945
0.409936
0.380512
0.378837
0.395771
0.436588
0.367049
0.487489
0.415917
0.388927
0.463271
0.33596
0.3274
0.302797
0.352376
0.410482
0.386663
0.375972
0.437739
0.385661
0.364562
0.388815
0.484422
0.409757
0.465811
0.0710141
0.203259
0.0139575
0.0274032
0.134856
0.0223179
0.0152182
0.0736258
0.0274406
0.107888
0.18408
0.268971
0.103638
0.0457908
0.181434
0.140298
0.0204845
0.039465
0.0229507
0.0400161
0.0272026
0.0317204
0.0558642
0.0740843
0.0654742
0.0973551
0.0629878
0.0924673
0.118887
0.08671
0.0158952
0.0133196
0.0144973
0.0168109
0.0186091
0.0182494
0.0153777
0.107281
0.163901
0.130721
0.153575
0.123192
0.149327
0.17964
0.0196588
0.0122367
0.0157905
0.0209209
0.0176047
0.0257191
0.0151831
0.142173
0.0865542
0.120178
0.143852
0.133133
0.167228
0.110435
0.0386513
0.0546831
0.0298239
0.0406194
0.0918157
0.0512646
0.0738021
0.0191991
0.027228
0.0223572
0.0231547
0.0213783
0.0286481
0.0180634
0.0558723
0.04513
0.0355565
0.0418966
0.0929563
0.0531734
0.074085
0.0825699
0.132228
0.111867
0.140661
0.131779
0.109049
0.162894
0.172292
0.184381
0.152056
0.173108
0.223865
0.195456
0.202593
0.15716
0.167043
0.139695
0.168549
0.213374
0.188716
0.195909
0.0268749
0.0221009
0.0404062
0.023099
0.0326661
0.0334903
0.0188044
0.0528319
0.113213
0.0796066
0.114241
0.0650737
0.0658351
0.0938948
0.167565
0.158495
0.218335
0.158904
0.192463
0.134625
0.191723
0.194915
0.245688
0.244378
0.242445
0.219392
0.217706
0.221802
0.0211814
0.151169
0.284086
0.0683473
0.0095523
0.0134212
0.0409604
0.0211858
0.0255672
0.12943
0.201289
0.0973415
0.10469
0.184747
0.120545
0.177809
0.265067
0.0142988
0.038163
0.0251619
0.0359684
0.0196412
0.0280284
0.0519641
0.218926
0.216979
0.290303
0.325683
0.217298
0.29343
0.381841
0.0759882
0.0645218
0.045686
0.0617459
0.0944024
0.117605
0.0835127
0.167459
0.132273
0.113482
0.166331
0.12999
0.150348
0.184124
0.0118004
0.00757119
0.0087442
0.00887178
0.0108782
0.0146999
0.0111231
0.18677
0.201403
0.23239
0.201816
0.233665
0.217824
0.249054
0.0504601
0.0369832
0.0270765
0.0370023
0.0871152
0.0483479
0.0683642
0.0188585
0.010791
0.0142663
0.0188614
0.0165449
0.0241685
0.0134319
0.0301334
0.0741583
0.0549633
0.0387198
0.091985
0.0513784
0.0711108
0.0151941
0.0120747
0.0159625
0.0197668
0.0177476
0.0258406
0.0140573
0.139169
0.0815613
0.115672
0.139196
0.127741
0.104708
0.162329
0.144214
0.110818
0.0868952
0.142282
0.13331
0.108001
0.167382
0.182931
0.169552
0.148525
0.169585
0.220236
0.190831
0.201325
0.152385
0.202895
0.17342
0.172391
0.223979
0.19558
0.203373
0.250091
0.261693
0.294146
0.295822
0.263382
0.278386
0.310394
0.23397
0.265129
0.248741
0.251385
0.234011
0.265149
0.282262
0.233343
0.262522
0.247083
0.253996
0.235239
0.265685
0.28358
0.0246384
0.0205684
0.0211997
0.0382141
0.0314855
0.0306325
0.0168721
0.0492252
0.107695
0.110236
0.0762132
0.0631044
0.0615932
0.0886236
0.164113
0.15222
0.155322
0.212666
0.129646
0.189779
0.186896
0.192509
0.241592
0.24432
0.238795
0.216907
0.213903
0.221911
0.320223
0.275639
0.306805
0.294466
0.341745
0.311739
0.325631
0.309908
0.294352
0.277976
0.29437
0.342531
0.311726
0.325725
0.271308
0.273634
0.252852
0.283306
0.32296
0.303246
0.301499
0.3121
0.361601
0.361139
0.351638
0.331656
0.330563
0.342827
0.0885864
0.221893
0.342805
0.0168503
0.0325858
0.154886
0.0543771
0.0310174
0.213468
0.14947
0.129606
0.207859
0.293691
0.276133
0.201254
0.369525
0.287617
0.252833
0.320491
0.382406
0.395382
0.315066
0.428607
0.381058
0.0246215
0.0211694
0.0205653
0.0306235
0.0314522
0.0381872
0.0255522
0.0491879
0.110148
0.107676
0.0615735
0.0630291
0.0761631
0.129371
0.164074
0.155233
0.152196
0.186869
0.189695
0.2126
0.17774
0.192485
0.244253
0.241566
0.213878
0.216835
0.238731
0.264997
0.0264235
0.0480944
0.0392752
0.0469106
0.0385913
0.0568514
0.0315378
0.0252714
0.0462497
0.0378149
0.0462302
0.0376017
0.0556045
0.0310017
0.283277
0.273571
0.271284
0.301487
0.303188
0.29336
0.322891
0.132347
0.0936444
0.0779649
0.0917922
0.174476
0.10821
0.151729
0.128099
0.0905302
0.0754585
0.0905046
0.170205
0.105879
0.149437
0.18133
0.243254
0.216024
0.23946
0.230824
0.20404
0.267481
0.268164
0.269146
0.242348
0.26523
0.317817
0.29337
0.290467
0.176096
0.236623
0.210954
0.236585
0.225674
0.201213
0.262028
0.263416
0.262117
0.236934
0.262079
0.31245
0.287464
0.287576
0.312082
0.361512
0.361104
0.330548
0.331581
0.351564
0.381738
0.0559138
0.0458397
0.0453458
0.0782089
0.0662554
0.0669162
0.0378283
0.29612
0.348741
0.324955
0.344161
0.317709
0.346658
0.372772
0.291985
0.344458
0.321794
0.339079
0.315023
0.344409
0.368323
0.106546
0.193912
0.13932
0.191583
0.122176
0.123456
0.171439
0.263647
0.253524
0.25076
0.316881
0.22716
0.288913
0.291949
0.289245
0.342754
0.344604
0.339756
0.315014
0.318274
0.314094
0.352934
0.376306
0.405508
0.374938
0.430675
0.400839
0.404833
0.403442
0.373129
0.35054
0.373072
0.427635
0.39711
0.403379
0.368757
0.365858
0.34069
0.369787
0.42508
0.3952
0.39785
0.454944
0.485983
0.45707
0.398306
0.454504
0.424113
0.426485
0.392631
0.46495
0.459547
0.454549
0.430024
0.424565
0.421184
0.472929
0.513903
0.442976
0.415959
0.532367
0.449274
0.494512
0.456531
0.436884
0.628038
0.585501
0.588281
0.401331
0.325691
0.485692
0.367488
0.368493
0.344306
0.40903
0.387857
0.388917
0.43095
0.404571
0.477379
0.445299
0.463684
0.427936
0.470187
0.505838
0.369041
0.446933
0.413892
0.449665
0.415524
0.458771
0.493908
0.421114
0.519481
0.458201
0.515114
0.44502
0.483567
0.550679
0.439403
0.560568
0.476244
0.418043
0.538892
0.453814
0.498884
0.552942
0.492664
0.524459
0.52095
0.623456
0.556404
0.587146
0.495691
0.491782
0.534322
0.500642
0.581445
0.539984
0.53828
0.634215
0.594005
0.550555
0.474849
0.51217
0.514948
0.553916
0.534354
0.618628
0.622656
0.609296
0.57189
0.568971
0.580895
0.668616
0.594618
0.67768
0.723141
0.640938
0.555231
0.597239
1.16991
1.37235
1.35579
1.24576
1.26094
1.45537
1.47413
1.20953
1.26906
1.10556
1.1495
1.42268
1.31428
1.25427
1.32028
1.23715
1.18356
1.47653
1.53618
1.44352
1.38584
1.22124
1.4311
1.39714
1.31631
1.2841
1.5014
1.53776
2.23855
1.58314
1.35045
2.14796
2.05495
1.81112
2.06595
1.79882
1.63992
1.73878
1.3622
1.40672
1.43904
1.48664
1.30474
1.52235
1.4733
1.35633
1.40268
1.58234
1.63449
1.19924
1.35924
1.47435
1.42054
1.25399
1.36477
1.30428
1.51868
1.83638
1.9433
1.76122
1.86773
1.45889
1.54197
1.4736
1.34494
1.362
1.69689
1.56747
1.58881
1.72168
1.41167
1.57804
1.64145
1.51273
1.45468
1.69483
1.76502
2.03144
1.6294
1.97466
1.91463
1.85269
1.52728
1.57831
1.50108
1.42117
1.38718
1.61916
1.80291
1.65903
1.7568
1.62066
1.47402
2.20992
2.25682
2.27045
1.3126
1.24718
1.6033
1.96901
1.94369
2.06804
1.72587
1.75144
2.09004
2.04538
1.65595
2.00353
1.78765
2.1511
1.83449
2.1188
1.46267
1.63225
1.51061
1.85894
1.70784
1.76586
1.92437
1.8255
2.08918
2.14416
1.7059
2.04958
1.98081
1.63754
1.69177
1.62702
1.56506
1.83475
2.07532
1.91434
1.99664
2.26964
1.30709
1.44029
2.07652
2.23866
1.23649
1.30788
2.13607
1.74985
2.09051
2.18415
1.89108
1.95455
2.2167
1.95996
2.17871
2.21825
2.02282
2.27058
2.09399
2.24667
2.12728
2.00767
2.08805
2.22269
2.23882
2.2487
2.25895
2.0266
2.16919
1.87156
1.90004
2.25254
2.1856
2.05363
2.20081
2.10266
2.16517
2.26248
2.25221
2.26603
2.26853
1.9386
2.12921
2.26572
2.23045
1.98553
2.20688
2.08897
2.216
2.26822
2.18848
2.15806
2.26523
2.26898
2.26365
2.17112
2.25266
2.03932
2.09681
2.29779
2.27161
2.21102
2.26347
2.1974
2.26268
2.24498
2.25295
2.24906
2.24512
0.797369
0.993735
0.816452
0.694767
1.11805
0.980975
1.23984
1.171
0.745867
0.69961
0.651032
0.73105
0.778817
0.784287
0.834879
0.855059
0.743206
0.797327
0.891228
0.831882
0.891194
0.954138
0.868988
0.80348
0.754307
0.912506
0.84434
0.898073
0.969586
0.840492
1.03858
0.8932
1.04596
0.899499
0.955058
1.10578
0.483708
0.56908
0.420092
0.506107
0.502332
0.567859
0.594489
0.652755
0.450703
0.446885
0.423365
0.476133
0.454872
0.460183
0.489806
0.474078
0.530488
0.502426
0.520582
0.487113
0.520682
0.553493
0.480843
0.537525
0.511387
0.535364
0.497442
0.52583
0.563694
0.459075
0.426377
0.452575
0.486925
0.463504
0.496106
0.519885
0.628667
0.589207
0.560958
0.564827
0.532469
0.556122
0.594462
0.594915
0.555707
0.530648
0.518091
0.493735
0.530752
0.555819
0.525666
0.547045
0.50368
0.535887
0.604228
0.578948
0.559875
0.685524
0.642899
0.613981
0.637876
0.597161
0.608244
0.570558
0.578295
0.466441
0.710517
0.586775
0.76916
0.711965
0.604651
0.658804
0.507307
0.495623
0.497038
0.537353
0.530124
0.539786
0.574064
0.377891
0.453279
0.417059
0.577928
0.531615
0.438522
0.615938
0.575175
0.413853
0.396429
0.396233
0.416731
0.432981
0.433441
0.454454
0.317973
0.355425
0.382412
0.475613
0.360744
0.450936
0.377916
0.473331
0.328952
0.350534
0.329661
0.345155
0.363283
0.363321
0.379548
0.342158
0.392157
0.37678
0.36072
0.377645
0.396082
0.413354
0.407013
0.431283
0.429272
0.39931
0.400024
0.417077
0.452135
0.344449
0.395831
0.377774
0.36079
0.378782
0.395873
0.413698
0.43222
0.453627
0.41632
0.43486
0.499028
0.453514
0.475054
0.416499
0.473161
0.434324
0.434377
0.495727
0.452975
0.473247
0.396531
0.396283
0.416855
0.413895
0.454589
0.433563
0.433041
0.49679
0.473257
0.520233
0.522417
0.474226
0.49625
0.547465
0.439768
0.465779
0.440146
0.479534
0.455172
0.478556
0.50587
0.416206
0.453743
0.46303
0.477101
0.438593
0.477027
0.502531
0.520315
0.547619
0.496398
0.453381
0.52265
0.474407
0.496949
0.550561
0.582075
0.612546
0.524462
0.497747
0.522322
0.552183
0.565358
0.522846
0.490836
0.463885
0.492913
0.503522
0.534018
0.546046
0.575104
0.606477
0.547705
0.520325
0.495218
0.520251
0.652501
0.618176
0.555218
0.66039
0.591298
0.627311
0.699341
0.624548
0.533027
0.575904
0.618318
0.570528
0.617428
0.669186
0.55984
0.569296
0.526266
0.602808
0.564905
0.610529
0.650708
0.683802
0.582207
0.645977
0.608066
0.64229
0.579242
0.548989
0.732327
0.620798
0.690025