/*--------------------------------*- C++ -*----------------------------------*\
  =========                 |
  \\      /  F ield         | OpenFOAM: The Open Source CFD Toolbox
   \\    /   O peration     | Website:  https://openfoam.org
    \\  /    A nd           | Version:  9
     \\/     M anipulation  |
\*---------------------------------------------------------------------------*/
FoamFile
{
    format      ascii;
    class       volScalarField;
    location    "0.0008";
    object      impulse;
}
// * * * * * * * * * * * * * * * * * * * * * * * * * * * * * * * * * * * * * //

dimensions      [1 -1 -1 0 0 0 0];

internalField   nonuniform List<scalar> 
7331
(
1854.17
4123.47
1738.36
534.697
1628.34
312.908
1622.56
380.888
681.53
948.732
1830.28
1750.39
825.463
711.678
1748.45
660.558
1318.16
1498.89
762.028
1091.82
777.392
791.474
578.45
529.088
922.862
441.834
720.445
568.31
439.494
383.615
472.426
538.608
357.248
509.186
368.586
488.958
1492.77
2783.63
3016.41
1897.65
1847.04
2710.38
1781.74
1194.39
2024.42
1268.38
932.852
877.713
1736.35
1233.46
1240.52
2330.91
1386.7
1025.83
1299.46
1824.47
892.223
1098.36
1223.43
744.08
755.619
1090.38
692.734
1050.11
632.609
627.042
1786.13
1705.57
706.686
1734.75
585.48
418.278
361.898
338.304
333.052
353.128
415.083
376.214
536.065
589.399
1679.04
1631.19
597.69
537.611
1685.61
572.806
1669.49
545.807
1638.41
542.118
1687.13
558.131
0.000129358
154.154
3.56529
0.315971
6.64255e-07
155.599
138.734
1.14122
2.23677
2.19408e-06
0.197956
2.68111e-05
1.54357e-06
15.218
422.325
341.566
259.707
510.522
16.8223
156.88
0.825634
202.054
164.813
204.979
2.27517
148.729
0.853476
1.95688e-06
10.9116
406.731
326.578
58.1454
0.664899
381.186
153.872
0.518323
187.361
152.148
0.0195092
0.0893895
103.107
64.7289
0.000770174
0.000790543
125.947
17.2029
1.00758
29.1345
0.0735613
0.000446379
114.449
12.5649
1.41002e-05
0.00668176
46.8411
0.593161
254.502
262.448
349.66
257.375
161.543
169.271
248.89
347.121
263.895
351.329
259.005
166.446
254.49
170.626
180.75
209.247
187.232
99.6105
111.595
117.999
94.1205
209.846
182.255
187.384
99.6468
114.3
95.2701
118.54
510.306
520.866
431.193
336.147
388.678
327.421
398.137
426.434
519.815
432.378
337.27
390.313
331.627
397.79
148.679
153.873
170.532
87.7902
69.9884
73.9435
83.2208
165.409
153.655
170.46
87.6523
70.0931
83.6356
73.7901
239.378
217.139
304.963
146.504
233.191
210.501
125.17
489.65
460.58
384.578
370.337
311.63
288.983
344.444
166.954
165.292
145.899
98.2428
82.1407
64.9169
79.3025
11.9534
0.171193
0.000209633
30.255
0.134074
333.045
115.044
2.13414e-05
5.56445e-06
0.158127
0.00356023
0.0163034
66.6038
35.7922
136.772
118.232
132.774
60.5322
72.4668
56.6953
46.4608
2.05056e-06
0.00558073
0.220618
14.2713
0.267978
2.97493e-06
0.000405759
423.941
322.107
356.402
259.62
271.763
223.271
311.48
188.398
242.991
277.164
181.417
70.2313
146.824
99.0449
136.744
86.1269
118.25
44.8277
33.6698
56.9392
24.9089
130.854
93.2971
97.9345
51.6737
55.1899
31.8737
29.0501
51.7125
93.2332
125.768
130.559
97.7016
55.0635
31.813
230.657
115.003
271.211
161.826
121.909
222.349
279.86
0.0520033
1.04202e-06
7.72667e-05
3.85679e-06
0.00113028
22.4051
0.0977935
118.382
273.699
226.36
231.669
162.108
122.726
279.944
93.5449
76.649
107.033
38.1746
14.4507
20.2196
29.9147
96.5603
82.5412
66.0434
43.5177
31.6274
22.8915
14.5677
154.721
57.9773
72.0672
17.5956
63.159
77.661
147.235
75.8093
61.2691
152.067
156.125
18.1085
64.1245
78.7088
4.53733e-07
1.89248e-05
1.14511e-06
0.00192434
0.096405
0.0596824
1.54333e-05
29.9484
2.11456
36.1659
4.30906
2.55637
39.8159
27.119
101.222
254.32
206.596
183.656
116.037
81.7693
229.806
28.0145
3.92943
37.8914
30.0951
4.41302
2.59926
40.2141
281.081
279.756
232.693
225.554
180.227
131.872
172.981
48.0182
61.1519
132.782
112.237
6.11209
34.8358
46.3574
73.1096
24.7731
45.5763
7.27212
18.2774
6.71513
1.89653
1.30828
28.5626
21.0304
13.2046
1.02131
0.588584
18.8059
7.8363e-05
4.80802e-05
0.0559976
4.6515e-05
1.76474
7.42844e-05
1.49173e-06
24.3324
1.46656
15.9242
0.992099
1.76503
17.6983
22.0644
16.1563
1.54474
22.5403
24.3769
0.998685
1.78391
17.7187
202.213
74.7701
155.705
41.5842
108.163
68.524
17.9001
1.04515
4.36328e-05
7.14084e-07
2.72982e-07
2.78926e-06
0.0299726
4.67792e-06
154.205
88.1973
35.2803
159.553
58.7435
119.411
197.986
0.907201
11.9219
16.9002
10.2452
0.239279
0.409513
6.89668
52.8046
19.4676
56.7279
10.5663
0.983893
9.09181
1.23106
17.4124
9.18525
52.936
19.4615
56.5987
10.5529
1.23303
52.5598
32.6623
22.8266
13.9916
9.13908
1.64373
3.16235
45.2048
12.7756
18.3311
4.24166
6.88778
1.11516
0.595031
8.54771
0.381725
9.77596
3.08925
0.0721831
0.0892231
2.55297
117.398
220.81
177.467
81.525
60.2753
36.3674
115.912
87.1891
2.45401
9.43038
15.1338
20.9663
59.8502
30.0066
2.59336
0.322951
8.65428
0.383272
9.78789
3.09232
0.089412
43.9966
6.98311
31.3838
0.577591
6.21218
3.06483
0.2438
2.82343
15.6534
3.29261
0.652489
0.561401
0.0712541
0.0845133
6.00243
0.0891294
3.09259
0.0431759
1.57689
0.689465
0.0185991
4.53741
0.0802507
0.0354939
0.701446
0.141553
1.2715
2.77768
6.16081
0.349303
0.0514446
3.2098
0.202329
9.56058
1.85903
15.701
115.991
81.3369
44.5792
10.4243
4.17879
70.9088
7.46599
1.02424
11.3369
1.94655
0.394108
0.0476406
0.0246408
8.66897
6.08448
1.59358
1.44872
0.312884
0.198937
0.0383804
2.60066
6.70399
17.6736
0.981268
0.0161746
0.219865
0.0736733
57.5024
37.9708
105.763
32.9783
0.477271
9.16829
4.35411
3.7907
0.411748
1.33798
0.126763
0.0312887
0.00984587
0.00294317
8.04289e-08
0.00770328
3.64618e-06
4.68472e-06
1.03547e-07
2.51321e-07
1.53517e-08
0.436144
9.43627
5.02455
0.161511
0.0298134
0.0122763
0.355406
0.0280234
0.247709
1.03939
0.218988
0.00131946
0.00581259
0.0503923
2.6511
5.04446
33.5039
13.006
0.0200776
0.424073
0.928003
0.423277
0.00937461
0.000968394
0.0277644
0.0116791
0.340471
0.0348593
0.0284778
0.00956067
0.346795
0.42349
0.000970876
0.011689
0.0349395
16.2357
7.58616
0.0514057
1.78827
2.75521
0.553657
31.5328
0.29134
2.04349
3.58723
0.109818
0.00444256
0.008348
0.0582796
0.00947225
0.629742
0.34332
0.0455011
0.00219274
0.00122327
0.087684
1.82606
0.0742127
2.20494
0.0686214
0.0902308
0.00287615
0.00235827
2.19311
0.0540687
0.0709084
0.0682171
0.089373
0.00285143
0.00225879
0.00551416
0.0161663
0.203562
0.086787
0.000181094
0.00228683
0.00668923
0.00665638
0.130256
0.238183
0.0312299
0.000450352
0.000857508
0.0165516
0.320885
0.0190051
0.0231392
0.00661542
0.000580796
0.000476935
0.00795116
0.441716
0.0312901
0.0412869
0.0172855
0.0129507
0.00130394
0.000536951
0.0871628
0.175595
0.0119417
0.0042744
0.0001394
0.000297738
0.00208334
0.000347081
0.0164136
0.0141163
0.00173621
5.1367e-05
4.33388e-05
0.00206329
0.691787
0.00980129
0.134832
0.00140615
0.0187504
0.00356798
0.000264044
1.36465
0.0115107
0.163753
0.00262623
0.0360138
0.00431065
0.000312939
0.326808
0.0045321
0.0279989
0.00136921
0.00763504
0.000652904
0.000107423
0.00540899
0.0002389
0.00984273
0.00115281
1.54597e-05
2.88411e-05
0.000590339
2.62213
0.0101045
0.00444361
0.00233883
0.245226
0.0501398
0.112036
0.0430249
0.000221564
0.00834688
0.000139899
0.00533766
0.00100436
2.76749e-05
0.135698
0.00117714
0.00523878
0.000853638
0.00384048
0.00015912
3.78238e-05
0.0259347
5.55363e-05
0.000154313
0.00043494
0.000672824
0.00582544
0.00196485
0.0321521
0.000494826
0.00889866
4.88351e-05
0.000763055
0.000211341
1.46609e-05
0.00440666
0.000741331
1.24816e-05
0.000222904
0.000336726
0.000119189
0.00904833
0.00303376
8.66659e-06
0.000122672
4.43473e-05
0.000232401
8.32579e-05
0.00159243
5.45957e-05
0.00228749
0.000729961
7.37885e-06
0.00023122
6.9054e-05
3.72321e-06
0.00052197
0.000732616
0.00017533
4.64367e-05
1.82848e-05
1.3719e-05
2.8589e-06
0.00105635
0.00103136
0.0147848
0.000389925
7.71477e-06
3.32697e-05
3.35273e-05
7.599e-06
0.00246421
9.36437e-05
0.00298188
0.000104448
8.66602e-05
8.17916e-06
0.00161623
5.83597e-05
0.00198132
8.94576e-05
5.56828e-06
7.36497e-05
6.06802e-06
5.80521e-05
0.00156192
0.00197036
8.87821e-05
5.38343e-06
7.07177e-05
5.98069e-06
9.24674e-05
0.00234142
0.00294789
0.000103365
7.26018e-06
8.26366e-05
8.00189e-06
3.755e-05
1.36927e-05
0.000495423
9.2412e-05
1.38926e-06
8.22586e-06
3.64323e-06
0.000894388
1.21673e-05
0.00036334
3.56385e-06
4.05763e-05
1.77949e-05
2.84487e-06
2.51103e-05
6.98505e-05
0.000935406
0.000111335
2.03698e-06
4.60213e-06
9.79853e-06
0.00026483
9.50628e-05
0.00181225
4.4693e-05
3.38743e-06
9.16222e-06
5.33845e-06
0.00136109
2.02051e-05
0.000569379
4.92928e-06
4.78774e-05
2.16223e-05
4.04962e-06
5.06537e-06
3.11921e-05
0.000172248
1.55934e-05
1.30732e-06
1.63251e-06
3.55166e-06
0.000156811
2.89858e-06
1.59034e-05
6.88419e-06
1.3469e-05
6.14252e-06
0.000188775
9.81199e-05
3.0272e-06
4.98465e-06
2.17235e-06
8.49045e-06
4.12681e-06
4.79951e-05
4.7234e-06
2.36729e-05
0.000100027
6.2911e-06
2.20783e-06
2.3355e-06
3.07009e-06
8.19131e-06
3.97489e-05
0.000163491
8.36834e-06
3.58348e-06
4.69137e-06
3.75304e-06
1.4203e-06
1.97538e-06
1.55271e-05
5.04833e-06
1.11672e-06
1.21577e-06
1.35355e-06
4.81387e-05
2.26007e-06
4.65909e-06
2.14291e-06
3.05469e-06
2.10604e-06
2.0517e-06
0.00257697
0.275376
1.76841
4.03503e-06
0.0109507
0.436677
56.7743
1.85528
8.40816
2.57006
32.3891
49.1344
25.9971
6.22038
1.64812
26.8086
10.0298
38.8859
18.0468
3.81737
0.830686
0.327333
12.1147
2.17377
0.0536996
1.23905
8.4367
0.260774
0.0299517
0.0662545
0.00726855
0.00166116
0.00479824
0.186393
0.0412369
0.00102841
0.182844
0.540806
4.66447
0.123524
0.00430458
0.0130175
0.0440498
0.001079
0.0440437
0.10322
0.0205889
0.000193432
0.000509088
0.00804195
3.38853e-05
0.00130366
0.000268824
0.00645482
1.90863e-05
0.000155963
0.000721689
0.00296844
2.55276e-05
8.69507e-06
0.000100427
7.05156e-05
0.00030822
0.00103416
255.77
346.716
302.038
276.856
315.296
337.897
296.311
321.896
342.793
268.223
266.607
255.486
266.85
279.466
279.53
268.576
302.418
333.112
318.247
366.616
351.648
296.57
349.969
302.493
286.341
283.78
313.278
297.345
295.736
313.3
306.03
312.341
306.963
280.542
292.132
294.744
285.432
272.025
262.447
282.873
284.821
294.018
276.516
296.316
321.6
341.146
324.844
325.338
309.141
309.643
326.697
315.214
326.023
326.3
336.66
329.286
333.368
343.832
306.421
287.499
296.311
299.194
324.447
317.569
307.6
325.37
342.96
327.095
301.996
318.653
297.495
313.255
329.511
332.041
327.583
313.855
331.952
330.851
319.995
363.308
364.891
356.741
338.511
349.345
342.582
355.932
343.815
335.829
349.781
346.074
346.224
353.525
345.996
325.243
338.418
335.628
342.141
342.169
349.441
340.988
349.522
353.118
357.935
327.913
356.09
358.642
340.111
352.6
318.489
330.795
339.127
346.533
353.774
333.299
332.689
332.306
348.731
348.523
291.487
325.391
324.594
329.948
255.97
294.079
342.598
276.101
313.449
311.643
66.8694
143.196
255.185
330.796
96.6637
27.5681
310.474
124.672
333.682
319.943
293.285
312.434
285.054
269.049
258.881
323.318
224.135
256.004
284.193
300.597
272.801
244.038
293.486
242.493
283.123
186.37
234.525
222.151
171.848
228.845
132.358
218.446
107.448
196.611
184.622
96.1134
60.8107
144.392
183.341
116.905
203.484
167.391
80.3127
180.572
248.551
200.507
224.581
268.356
204.411
151.29
29.7083
101.083
153.399
139.99
22.381
56.4183
87.6503
6.54035
48.7372
96.7777
121.012
13.9601
42.7697
69.7059
4.46045
0.232297
3.82091
16.7517
0.000248991
0.00192633
0.579457
0.79569
22.1474
22.5582
139.205
138.963
8.42406
0.00181809
5.88507e-05
13.8326
0.0012416
17.4932
0.0118744
0.000857585
3.36832
122.932
6.09559
0.00108015
1.0244
128.852
4.05748e-05
0.37408
135.296
212.386
216.372
146.744
151.138
75.1
71.6535
133.881
216.142
210.957
145.559
151.001
74.9245
70.5721
200.023
182.974
133.91
115.883
106.007
61.1716
47.3502
9.36604e-05
0.000128456
1.93889e-06
0.170672
92.5187
8.72272e-06
0.0768999
9.43312
80.1233
59.457
65.4696
11.674
45.0092
5.26139
0.134538
0.555992
0.0147781
2.16968e-06
0.000159766
0.190667
0.000250312
9.50594e-06
0.086291
3.99026
0.000524887
1.10773e-06
0.0280306
1.57807e-05
159.37
63.7787
57.77
91.9117
83.7152
31.1039
15.5223
28.9222
2.07156
47.8915
6.04262
28.9113
2.06995
0.523781
8.82414
16.5805
56.1001
9.74473
58.8573
18.1309
0.927737
24.7773
75.9224
80.5475
24.1243
2.00296
21.5886
2.47324
2.09696
22.1591
76.7471
24.8271
80.6101
24.2374
2.49722
9.63144
58.6183
54.9892
17.9855
0.746072
16.0031
0.911799
36.7185
0.676587
16.0665
8.24016
24.1974
1.43523
0.247727
65.8081
9.94734
50.8976
1.20895
16.4586
9.94913
0.523617
47.119
3.40344
35.7062
0.470576
12.0085
7.09406
0.223461
54.2537
35.2852
31.6728
12.6292
11.1829
4.75347
0.698249
236.576
106.873
262.097
112.848
96.739
0.246839
131.235
126.236
9.19056
186.105
1.44662
5.27731
0.163677
88.0494
73.1946
0.220865
266.37
242.467
237.825
207.017
201.96
171.311
176.351
252.353
210.535
227.253
172.607
190.553
159.512
140.91
214.615
187.247
147.726
156.745
115.329
115.819
83.829
148.91
74.6576
205.152
143.458
199.973
126.077
70.1985
131.125
51.8929
55.3914
29.2422
32.0526
98.237
93.6347
170.198
131.488
188.392
114.18
45.345
60.1298
95.6152
114.705
31.7402
43.7
14.6683
23.0563
82.8458
66.2685
150.195
75.9464
118.818
41.9122
78.7173
50.2876
21.2085
144.882
59.266
112.487
28.269
71.4981
44.832
12.8064
18.3199
6.7529
45.7007
7.27666
46.8509
24.8138
1.90301
10.6592
56.9851
0.999085
1.24685
19.6045
53.0966
17.3568
35.9115
13.9169
61.0117
23.0325
9.12954
1.84842
0.35977
3.09986
7.05032
0.586516
6.28499
12.6896
44.2567
31.5625
0.421632
39.0475
10.0725
3.33574
31.077
75.3098
20.6674
0.0038007
0.0231905
0.833438
0.00853185
0.321934
0.440021
0.150534
0.0383243
0.198328
6.06767
0.31303
1.59083
22.3815
8.67102
3.98727
2.83377
12.2463
0.434628
0.013459
0.0999355
0.0680963
4.12039
16.4297
33.2607
4.27492
0.0377522
1.12216
0.165805
1.34658
10.6557
22.6076
2.98131
0.0199983
0.792981
0.0785812
12.2579
0.435276
2.83803
0.580266
0.100023
0.0682145
0.0134782
0.0162458
0.596059
0.0743043
0.989795
2.62198
17.7608
6.72772
0.000207051
0.000233505
3.34075e-07
5.1924e-07
1.82197e-05
4.2273e-08
4.78509e-07
21.6287
0.131711
0.141604
1.98127
1.75254
0.0663827
0.00472762
0.00030411
0.0045643
0.00124056
0.0512314
0.179297
0.0511889
0.0126428
0.0674785
0.0431424
1.58476
1.87136
0.00230505
0.0511241
0.0811139
1.84483
0.00227307
0.0638686
0.0405581
1.49658
0.050322
0.0800605
0.000142796
0.000407755
0.00218682
0.088599
0.0166778
0.035182
0.00600887
4.90773
0.0202445
0.686603
0.00631975
0.195132
0.0239572
0.000757808
3.04292
0.0110476
0.450899
0.00379049
0.148449
0.019411
0.000507035
0.0379774
12.2214
1.36544
0.095369
1.43924
0.0393985
0.00265312
0.0378424
0.0246868
0.916659
0.41225
0.000466272
0.0162904
0.0110655
0.0035632
0.0186775
0.689135
0.00139768
0.0518236
0.00977557
0.000260757
3.59047
0.0356753
0.749861
0.00561994
0.113014
0.0211053
0.00103438
0.703123
0.00919074
0.0863505
0.00196565
0.0162576
0.00196689
0.000210783
0.0115042
0.000308386
0.00430401
0.0360602
0.0026259
0.0979509
1.36671
0.327266
0.00454033
0.0597772
0.000654909
0.0076485
0.00137213
0.000108348
5.89179e-05
0.0105222
0.00235058
3.81477e-05
0.0015838
0.000313288
9.49717e-06
9.50704e-06
0.000248588
3.80702e-05
0.0105062
0.000312855
0.00234839
0.0015808
0.137196
0.000150198
0.00118802
0.000888554
0.0327251
0.00510616
0.00363059
0.00751003
0.00775721
0.0104086
0.000361217
0.000359881
0.000274784
1.87191e-05
0.00356358
0.00115786
0.0465609
0.00187481
6.0795e-06
0.000140597
5.18704e-05
0.00432248
0.00181214
0.0624667
0.00219333
7.14972e-06
0.000157546
7.03367e-05
0.00102851
3.09091e-05
0.000385317
0.00105315
4.3743e-06
7.42335e-05
2.9714e-05
0.00524837
0.00373307
0.0810332
0.00224529
1.5638e-05
0.000115006
0.000157374
139.569
143.562
7.02216
6.18344
147.562
143.188
0.311204
0.26147
143.028
50.0084
52.2408
142.068
145.215
54.122
51.956
144.058
147.885
147.693
55.8625
52.9196
56.0102
53.294
148.353
146.424
147.59
55.7799
55.7563
56.4918
54.886
52.2284
51.824
142.81
144.356
145.089
53.8814
53.2154
7.75045
0.318447
7.74378
0.303687
7.91695
7.58143
0.311509
0.268427
0.260454
6.89677
7.71019
0.304712
7.72359
0.30598
6.71094
0.254737
0.23012
0.259259
6.73988
7.29147
0.286415
0.263651
6.7688
6.69609
7.28368
0.284126
7.17434
0.288977
0.242788
0.0927826
0.194774
0.0600887
135.164
140.844
103.032
114.313
50.6324
50.6014
140.872
135.909
135.507
47.0953
47.4028
139.594
46.8835
49.8095
127.764
133.138
45.4657
42.0025
127.174
113.362
126.455
41.1746
33.9386
41.6123
33.4652
117.035
109.607
123.218
39.2273
28.0397
31.4716
35.5939
272.635
195.777
207.22
225.544
310.963
293.288
264.783
241.509
237.241
251.32
255.686
256.394
259.742
266.767
270.417
250.838
277.672
264.579
277.108
266.934
277.159
286.443
289.391
294.45
269.545
273.735
280.305
283.786
297.296
264.457
225.188
262.544
222.829
267.121
269.189
223.014
300.578
293.688
281.803
289.576
305.73
301.393
297.128
223.416
225.66
268.449
272.118
218.29
221.993
274.507
271.816
217.45
271.264
272.787
206.321
217.114
272.386
273.976
209.209
202.611
267.954
214.648
271.392
273.693
0.24044
6.32738
6.34476
5.48276
0.205253
0.19998
5.57658
5.41665
0.227713
6.10228
0.148878
5.09325
0.181662
4.34668
2.87478
0.0891695
4.19463
0.149175
0.144158
4.29676
2.78965
0.101206
0.0774533
3.80692
1.97862
0.127583
2.47575
3.13965
79.7217
0.795019
4.28492
115.044
0.0234862
11.8473
0.0718448
93.7527
127.116
41.6654
118.974
106.62
36.7694
34.5428
29.9898
23.5342
18.116
81.6863
107.728
95.4754
30.5523
24.4244
99.1462
71.6947
90.9861
17.0155
26.1032
22.1874
13.7901
288.82
201.734
277.622
317.001
221.931
303.358
274.817
285.127
235.647
287.718
1034.67
164.287
302.854
27.8468
190.356
122.434
263.163
295.35
224.58
185.116
326.419
137.245
295.058
562.985
453.975
433.978
492.316
853.168
238.741
370.883
289.743
281.984
284.498
316.217
309.973
300.234
304.256
69.8818
70.3142
267.848
305.373
303.989
328.067
201.921
312.305
300.695
286.69
281.779
284.361
309.646
299.83
300.665
313.388
296.052
303.77
310.525
306.109
310.331
308.936
313.976
297.227
313.002
295.555
303.362
310.252
59.8422
298.758
296.059
115.823
286.486
12.7686
195.137
317.687
302.523
293.716
308.729
301.425
300.407
320.217
466.328
333.64
362.722
351.241
452.967
365.972
467.688
633.105
613.774
884.792
985.97
631.288
600.397
841.252
305.31
317.133
302.444
317.062
307.024
297.032
295.275
0.162096
32.6971
0.0476472
45.0286
0.00853744
17.0152
0.0521338
317.307
280.965
316.293
295.129
253.31
294.871
256.971
251.377
314.152
292.301
280.441
315.922
294.749
256.634
541.524
257.872
60.0915
438.521
778.231
201.304
361.503
221.713
18.7991
4.78822
144.97
315.232
99.4855
273.069
325.978
324.182
326.398
326.253
308.099
292.551
288.738
326.53
325.644
326.372
306.304
308.129
292.559
289.502
322.675
304.41
307.295
292.113
299.264
314.986
275.581
366.925
473.282
469.385
345.945
360.674
460.875
444.506
287.058
236.697
276.765
226.552
285.115
240.993
280.025
221.493
283.646
276.072
286.854
226.593
240.845
279.996
310.67
298.586
307.553
284.254
255.457
263.921
278.187
325.618
319.378
319.975
308.417
285.666
279.924
265.37
240.272
309.249
286.443
274.077
244.088
297.508
222.187
402.245
312.919
356.71
294.205
344.962
440.366
382.935
923.669
605.613
623.319
579.394
726.152
551.771
787.312
144.814
1.85503
0.00265277
78.771
262.582
3.33083
159.809
210.401
276.336
267.297
262.428
192.921
206.949
252.409
745.116
491.429
615.055
542.97
582.303
469.524
707.781
261.935
206.811
266.212
242.259
170.991
176.077
237.6
271.321
305.254
307.774
263.609
213.521
260.016
217.864
266.587
271.176
307.673
263.516
212.467
259.019
217.76
262.463
206.661
266.191
242.206
171.137
238.123
175.881
306.405
269.58
291.221
242.262
266.33
245.331
219.963
462.888
344.905
442.199
325.767
421.241
393.248
301.234
291.444
293.931
270.583
275.681
252.586
221.929
244.81
130.431
117.08
108.588
43.9148
38.9764
35.849
31.1956
255.485
217.944
252.739
164.638
278.558
230.478
197.125
257.194
242.566
282.764
201.377
249.028
233.512
183.915
578.751
701.181
545.312
660.389
519.246
481.943
590.526
280.25
246.491
255.766
227.914
238.118
206.132
193.927
84.742
0.968014
4.99788
120.505
135.111
5.61568
19.2384
0.0687263
132.22
44.9746
134.809
123.046
46.7686
39.189
37.6814
136.271
122.383
124.049
46.9366
47.7022
39.7577
38.8283
242.149
168.638
151.135
204.159
215.962
182.511
231.344
516.879
540.992
607.554
409.226
485.671
441.851
661.224
269.48
302.786
326.529
420.096
328.126
394.674
357.974
252.217
172.465
236.489
159.219
227.039
210.367
140.676
25.4887
111.22
97.2869
83.0886
18.879
97.3079
25.4976
104.479
86.7081
106.771
29.921
19.1168
28.7575
19.981
85.0725
29.3036
105.535
87.01
107.398
30.2104
20.0697
459.97
621.637
506.044
439.351
447.105
388.669
518.213
194.461
263.871
240.241
178.382
149.279
122.066
203.72
243.688
233.677
213.142
211.233
187.928
176.308
146.967
378.704
322.271
415.01
358.58
218.746
312.771
267.354
204.909
125.714
74.3916
143.124
130.923
199.682
148.633
204.884
74.3325
143.857
125.941
200.315
130.741
148.613
147.655
186.141
214.592
187.14
83.7664
156.706
115.178
222.192
241.161
264.434
211.957
127.903
183.44
159.528
79.6736
26.668
100.111
71.135
91.6261
22.5877
13.5857
547.813
371.466
450.044
409.883
381.695
327.106
484.116
274.583
292.21
365.07
329.919
156.779
248.716
238.744
219.907
124.759
197.946
155.255
99.2599
178.324
80.2475
178.161
211.78
223.539
163.272
96.3092
109.364
149.498
112.992
170.006
183.049
141.593
59.1933
70.8081
127.82
635.367
425.066
329.755
636.321
1066.72
576.074
460.74
419.491
323.058
313.451
413.776
459.532
361.027
467.363
353.872
461.43
319.278
356.583
312.917
412.762
458.504
353.112
1058.25
1076.5
631.007
624.599
908.747
624.255
925.898
631.909
620.841
914.495
1081.36
630.755
624.197
929.293
464.977
366.89
420.188
332.197
466.235
422.922
364.985
414.744
324.74
361.791
463.772
330.855
421.449
363.877
583.743
767.483
510.079
648.016
579.332
515.943
781.945
770.875
506.484
637.808
583.095
649.527
514.996
784.139
66.061
5.79306
47.0776
60.7909
80.014
17.3486
9.87103
113.834
131.167
188.115
169.965
45.1355
95.3393
112.585
5.26564
65.4835
11.6784
59.4757
80.1484
17.5
9.43682
211.709
116.25
173.078
90.4307
146.761
102.653
51.4422
0.175589
0.114356
3.51646
5.41917
0.193612
0.125314
3.80331
0.201286
0.128641
0.19145
0.120719
5.41758
3.71228
3.90043
0.145533
0.0937688
2.96466
0.108323
0.0686375
3.34491
2.25225
0.100092
4.74774
3.176
0.07306
0.121201
3.74284
2.41847
362.732
354.028
214.529
322.13
306.878
274.852
419.46
195.519
113.724
167.908
76.8485
129.329
97.9722
49.2814
150.276
50.2875
118.833
41.9754
106.974
75.9888
21.2275
144.718
28.1553
44.7597
59.1861
112.405
71.3261
87.8764
285.7
136.345
139.364
107.824
230.335
197.259
191.958
103.935
73.7234
10.2837
54.008
53.358
127.431
38.7275
0.0419551
0.0449321
0.0256433
1.42403
0.897579
2.33572
1.52603
0.081009
2.652
0.0267571
0.0476202
1.64126
0.9532
1.64219
92.6894
36.1187
7.63527
24.4676
45.2417
32.2328
80.0466
0.0621692
2.06902
0.0274146
0.0677101
0.029744
2.23567
1.0462
0.063831
0.0298506
0.0274227
0.973062
2.13249
2.27042
1.05093
0.0508089
1.72075
0.0222757
0.0367845
0.0156583
1.27229
0.567662
0.0219195
0.789628
1.7814
0.0149658
0.0372297
1.30469
0.549458
70.8016
68.9882
123.943
56.9471
3.07355
20.1161
19.3526
20.6529
31.0577
75.2912
39.0587
0.421737
5.27949
10.0747
3666.36
562.774
467.739
445.328
311.76
337.112
380.292
331.037
669.926
1496.2
1373.59
775.19
1121.91
777.595
787.488
534.981
534.506
922.707
436.676
736.123
567.708
434.644
521.638
800.893
445.465
404.033
680.902
556.976
401.226
376.091
466.949
543.777
353.562
485.847
505.462
360.016
1514.62
3053.91
3103.7
2093.03
2554.83
1739.84
1634.32
1210.06
2264.78
1387.66
1020.47
1824.46
1300.41
892.934
1197.86
2012.23
1322.8
961.49
1822.03
904.763
1289.82
1035.72
1133.09
734.156
733.867
1132.14
699.936
1125.83
394.318
465.13
424.634
372.226
552.256
390.812
412.612
414.577
358.2
325.632
330.871
412.949
343.671
367.926
330.19
357.445
419.304
362.239
432.984
352.659
361.283
336.913
397.24
352.834
338.589
348.824
361.132
370.011
265.235
296.902
293.63
1549.19
1464.2
1607.93
299.814
423.435
1694.21
335.608
265.199
291.378
299.816
335.76
340.123
413.633
337.402
340.652
364.155
424.309
315.341
358.305
378.011
331.654
415.049
344.515
325.593
357.637
311.606
368.012
549.438
1648.7
1673.12
580.346
1635.78
549.549
560.832
400.021
350.562
365.149
339.208
354.262
338.321
370.888
289.968
303.589
321.012
271.356
315.425
286.631
320.41
332.147
291.538
331.472
325.46
300.599
332.081
348.413
279.082
287.61
302.384
299.808
271.802
285.58
285.352
313.308
293.081
313.29
322.954
299.718
306.102
335.202
308.889
321.422
317.221
317.679
317.304
304.005
325.668
537.808
550.506
1539.11
1600.8
560.038
1592.08
535.89
558.358
1576.45
557.092
1644.69
573.081
1611.84
553.601
330.758
334.735
330.516
343.89
336.046
324.253
347.744
357.769
327.389
279.96
288.868
332.625
285.835
340.445
302.774
300.172
280.604
290.171
293.33
286.608
302.774
544.796
490.511
358.119
374.085
267.515
290.499
309.157
272.039
522.077
474.397
462.608
382.803
349.229
382.418
360.866
550.954
474.553
522.135
382.332
357.799
384.914
363.635
1507.63
290.93
329.567
351.818
416.35
369.758
440.654
364.753
335.171
369.221
336.358
425.774
356.897
444.279
364.526
337.294
276.93
261.205
273.471
291.652
303.85
311.546
303.593
301.716
258.231
288.144
265.318
277.365
312.386
300.752
281.576
1214.64
279.488
251.258
531.125
586.826
326.033
259.144
303.835
263.14
252.367
293.472
265.92
307.169
298.567
289.932
300.168
313.908
314.419
317.066
312.975
296.884
287.689
311.439
291.141
298.401
317.752
312.136
246.1
250.592
262.349
258.405
244.9
256.812
247.439
238.925
244.177
283.019
293.116
241.192
294.239
243.672
247.978
290.199
290.142
297.418
247.374
248.326
300.524
262.036
248.949
260.6
258.146
247.467
248.503
258.273
1692.36
1678.93
461.68
527.07
1547.99
260.848
248.25
1555.07
502.97
526.169
458.554
377.158
335.302
358.526
365.185
483.754
496.118
544.076
396.593
361.016
382.425
377.203
619.675
1696.45
603.362
554.544
1644.73
1638.04
549.958
588.363
1672.43
600.446
538.535
1636.9
534.97
1627.04
329.696
292.57
295.575
266.642
302.308
298.906
321.19
315.111
275.302
256.728
284.177
306.284
289.362
288.415
522.632
1595.58
520.499
1543.73
515.615
1589.27
524.164
510.596
1596.27
1545.4
510.972
511.658
507.532
1585.73
1501.04
524.376
520.178
543.448
1439.97
549.054
1439.67
275.913
278.06
291.575
274.059
290.728
273.069
290.861
1495.81
1495.95
524.853
553.775
1425.68
545.575
1432.33
293.579
277.927
275.331
277.537
291.535
273.825
290.85
619.295
570.174
1512.93
1531.27
587.438
593.953
1570.05
320.248
318.855
326.359
334.387
311.819
329.873
321.141
317.443
254.259
364.441
275.599
321.417
253.74
357.567
369.3
283.219
258.782
319.698
276.888
256.352
358.793
261.85
251.02
271.543
262.015
261.707
251.832
270.15
263.319
253.656
273.535
261.624
262.285
252.374
270.046
1328.76
618.624
1203.28
577.697
1219.78
611.677
1341.18
276.599
295.243
284.847
302.549
276.585
294.67
283.754
298.237
279.233
287.853
276.646
302.938
294.862
284.036
577.023
1342.39
615.359
1226.1
582.907
611.206
1348.33
402.389
1505
330.238
297.057
220.542
1460.76
331.32
306.974
1185.68
293.319
991.5
370.481
282.788
327.496
264.149
310.152
270.974
327.899
322.519
290.599
253.137
243.072
247.856
306.492
327.675
261.693
271.718
256.971
249.626
250.123
263.248
259.69
272.971
250.427
282.018
309.043
333.454
209.122
331.273
170.787
1490.85
560.743
538.63
1428.66
564.243
587.204
1401.19
305.323
281.505
288.822
297.076
279.291
288.42
306.005
337.012
961.756
640.994
1320.07
402.815
905.813
381.735
222.506
359.028
277.122
301.167
340.369
338.289
310.008
294.611
281.778
268.297
293.311
273.823
285.658
301.296
363.529
291.728
268.801
358.471
316.06
398.23
284.363
257.087
278.701
268.437
284.359
267.741
278.581
289.188
264.027
382.209
336.578
361.847
315.574
408.958
282.315
589.535
1405.38
621.174
615.563
1282.09
643.077
1354.25
309.772
315.709
298.319
299.967
331.423
313.721
317.826
301.429
291.195
282.709
291.884
317.734
300.053
310.394
1321.35
623.749
596.602
615.652
1137.09
633.568
1280.71
294.249
300.812
290.578
311.623
298.604
303.098
307.472
397.801
347.101
344.766
471.837
440.646
442.267
311.23
310.54
305.578
285.42
292.949
315.474
310.679
303.321
322.792
360.146
354.176
448.577
444.892
485.651
387.811
309.467
325.354
319.139
326.048
319.896
335.731
346.656
304.561
333.271
323.814
317.126
318.978
310.843
322.299
322.419
350.667
335.215
344.082
329.017
338.262
345.605
636.243
1138.28
1070.53
640.435
652.03
641.484
1219.37
323.624
332.206
323.596
309.033
306.006
309.034
304.962
650.091
1210.13
1186.5
668.997
662.634
666.549
1076.8
318.841
333.992
326.693
306.919
310.164
309.374
300.871
277.318
213.763
276.599
209.144
275.562
271.133
200.579
503.263
392.348
488.156
503.25
394.067
494.146
402.376
378.531
484.922
478.356
496.354
376.51
478.626
393.314
337.608
350.593
339.24
337.676
346.956
322.127
359.085
337.204
317.078
326.227
329.463
330.213
350.236
306.289
232.886
333.078
325.579
153.701
261.77
14.7564
277.97
75.9272
393.344
322.864
387.841
345.52
349.059
1076.38
1429.41
368.308
1352.84
358.732
1585.25
308.97
346.478
288.895
333.728
317.645
273.309
271.644
321.758
321.547
266.276
270.68
262.918
314.877
338.351
276.937
274.189
285.407
287.638
266.829
281.023
289.49
276.331
354.402
309.584
361.213
352.118
353.155
334.707
332.825
1558.04
550.028
572.85
1534.64
566.968
595.888
1496.54
316.84
303.986
306.256
315.324
299.371
307.07
324.271
817.337
1218.09
398.048
786.472
444.227
393.068
481.703
350.056
322.113
284.971
299.002
263.732
246.331
270.388
297.651
341.466
280.68
368.422
325.418
297.567
404.946
284.172
268.545
331.494
363.83
315.96
398.567
291.532
300.499
279.945
293.003
300.344
304.089
288.677
312.385
285.272
267.836
281.391
294.216
292.772
300.897
282.268
330.516
324.922
327.306
341.316
337.767
336.898
349.483
625.859
1508.07
598.204
625.975
1331.79
652.826
1429.13
615.715
1459.32
589.616
621.424
1281.04
643.301
1404.47
315.981
327.562
310.642
315.877
343.243
333.667
325.435
299.684
315.539
298.047
309.499
331.241
313.425
327.341
313.586
320.364
276.969
1621.92
1680.53
309.686
299.146
1558.3
1535.89
314.918
282.891
332.192
346.752
312.2
273.635
276.687
324.389
387.67
405.729
322.712
335.584
361.165
339.619
290.687
395.004
318.316
388.552
308.599
336.43
345.003
295.238
306.425
353.14
295.461
310.96
329.265
337.811
327.806
567.499
533.014
1668.46
1641.91