/*--------------------------------*- C++ -*----------------------------------*\
  =========                 |
  \\      /  F ield         | OpenFOAM: The Open Source CFD Toolbox
   \\    /   O peration     | Website:  https://openfoam.org
    \\  /    A nd           | Version:  9
     \\/     M anipulation  |
\*---------------------------------------------------------------------------*/
FoamFile
{
    format      ascii;
    class       volScalarField;
    location    "0.0008";
    object      overpressureMax;
}
// * * * * * * * * * * * * * * * * * * * * * * * * * * * * * * * * * * * * * //

dimensions      [1 -1 -2 0 0 0 0];

internalField   nonuniform List<scalar> 
7331
(
6.19562e+06
9.36766e+07
7.98692e+06
5.72189e+06
7.78283e+06
3.44709e+06
6.13743e+06
4.21194e+06
5.24182e+06
1.04039e+07
7.07776e+06
6.19136e+06
7.0273e+06
5.871e+06
7.04321e+06
7.58952e+06
2.14967e+07
2.53403e+07
9.29335e+06
1.49679e+07
1.09331e+07
1.09523e+07
6.34636e+06
5.73017e+06
1.21728e+07
4.60067e+06
7.83765e+06
6.17685e+06
4.83494e+06
4.01983e+06
5.10002e+06
7.13996e+06
3.86386e+06
5.75143e+06
4.05668e+06
5.7258e+06
2.82495e+07
7.27661e+07
7.74385e+07
3.78309e+07
3.31562e+07
5.90813e+07
3.13617e+07
2.17485e+07
4.29702e+07
2.09958e+07
1.39274e+07
1.40016e+07
3.95034e+07
2.09006e+07
2.1217e+07
4.82427e+07
2.22989e+07
1.4331e+07
2.19e+07
4.16287e+07
1.3729e+07
1.70966e+07
1.71177e+07
1.0657e+07
1.03918e+07
1.73744e+07
1.03651e+07
1.71391e+07
5.21012e+06
5.17301e+06
7.84287e+06
8.24241e+06
5.92344e+06
7.92638e+06
4.82252e+06
4.67792e+06
3.9272e+06
3.74932e+06
3.70391e+06
3.99671e+06
4.44668e+06
4.2331e+06
3.80624e+06
4.52566e+06
6.19283e+06
6.62813e+06
4.30924e+06
4.01599e+06
6.86223e+06
4.64382e+06
8.13281e+06
4.18085e+06
7.32864e+06
4.20814e+06
7.71044e+06
4.50319e+06
5.39746
1.7413e+06
142530
12578.5
0.0135042
1.884e+06
1.72872e+06
61118.5
95098.6
0.0564547
8030.26
1.20681
0.043475
522815
2.14888e+06
1.88803e+06
1.54296e+06
2.50777e+06
559002
1.73433e+06
32530.1
1.23198e+06
1.02293e+06
1.2381e+06
88578.6
989282
33685.1
0.0430087
415342
2.1355e+06
1.87882e+06
1.32837e+06
36516
2.25449e+06
1.54393e+06
20381.1
1.22667e+06
1.00408e+06
819.686
4194.76
1.19014e+06
830670
35.2772
36.1691
967830
468990
44530.6
596305
3158.73
20.6115
948723
382551
0.580652
291.756
751138
27835.3
1.53348e+06
1.53851e+06
1.89741e+06
1.80714e+06
1.51692e+06
1.52495e+06
1.79693e+06
1.89562e+06
1.54402e+06
1.9016e+06
1.8106e+06
1.52434e+06
1.80221e+06
1.52939e+06
1.09323e+06
1.2391e+06
1.10294e+06
999792
1.18675e+06
1.20164e+06
984415
1.24193e+06
1.09527e+06
1.10367e+06
1.00012e+06
1.19827e+06
986428
1.20606e+06
2.5158e+06
2.54034e+06
2.16523e+06
2.02076e+06
2.21541e+06
2.00679e+06
2.23623e+06
2.15431e+06
2.53863e+06
2.17043e+06
2.02472e+06
2.20549e+06
2.0082e+06
2.23303e+06
991807
1.0035e+06
1.03526e+06
910458
838060
853439
896373
1.02304e+06
1.00234e+06
1.03497e+06
909449
834438
894485
851531
1.53189e+06
1.53178e+06
1.86695e+06
1.51052e+06
1.78586e+06
1.77179e+06
1.48527e+06
2.48043e+06
2.42227e+06
2.11541e+06
2.18687e+06
1.99387e+06
1.97482e+06
2.14193e+06
1.07864e+06
1.21853e+06
1.05686e+06
1.15657e+06
950089
881516
1.09061e+06
513011
10153.8
13.0334
941852
7556.66
2.15792e+06
1.51943e+06
0.998064
0.168481
7280.2
157.148
786.291
1.06852e+06
659718
970984
942776
980000
799163
863782
797763
722974
0.0209211
255.655
8673.08
370316
11140.8
0.0357318
16.3071
2.34339e+06
2.06169e+06
2.08964e+06
1.94599e+06
2.00997e+06
1.90125e+06
2.07941e+06
1.53438e+06
1.83264e+06
1.84983e+06
1.75193e+06
1.27704e+06
1.72622e+06
1.41573e+06
1.21424e+06
971880
1.02839e+06
757542
760996
965537
564269
977888
943817
951774
759373
778803
625457
597405
756082
941819
964661
976307
950716
776492
623825
1.86049e+06
1.64931e+06
1.95325e+06
1.7536e+06
1.67235e+06
1.84833e+06
1.96863e+06
2510.26
0.015816
3.89895
0.117065
51.7012
529528
4770.34
1.65242e+06
1.94492e+06
1.84525e+06
1.86099e+06
1.75128e+06
1.67317e+06
1.96556e+06
907846
887194
946053
672821
385696
480102
588655
921654
923948
874402
707903
611333
526872
400500
1.69875e+06
1.23697e+06
1.24436e+06
576113
1.28388e+06
1.28148e+06
1.686e+06
1.2695e+06
1.26366e+06
1.68997e+06
1.70128e+06
587434
1.29115e+06
1.2893e+06
0.0143107
0.762962
0.0151282
90.6988
3977.02
2749.12
0.667767
609002
83007.1
761265
166996
98019.1
801679
576692
1.60008e+06
1.93393e+06
1.83246e+06
1.80985e+06
1.68459e+06
1.49896e+06
1.9049e+06
585900
155203
782951
610257
170719
99515.9
807087
2.01942e+06
2.06153e+06
1.95885e+06
1.93722e+06
1.84826e+06
1.7911e+06
1.86464e+06
1.13652e+06
1.16782e+06
1.66166e+06
1.60752e+06
269603
967312
1.03633e+06
872473
573181
765337
240037
453361
230726
82683.4
53078.5
670045
498836
370344
45421
24084
521198
3.57606
2.15742
2587.3
2.088
78481.2
3.38783
0.0415071
519465
57581.3
397443
39085.8
68590.9
425354
490907
399736
60623.6
495136
519279
39396.1
69402.1
425109
1.81147e+06
1.3707e+06
1.78293e+06
1.03227e+06
1.6394e+06
1.42525e+06
643879
47486.6
1.9989
0.0237105
0.00655057
0.0551212
1455.89
0.0979054
1.77911e+06
1.5665e+06
1.02087e+06
1.81142e+06
1.31616e+06
1.72216e+06
1.86108e+06
35931
327612
418003
298613
9510.72
16160
219994
827242
506206
849223
325853
43566.2
292597
54154.1
471673
294199
825870
505660
847426
325286
54220.8
829416
798893
560536
452736
295173
71947.7
144932
739787
371318
470202
156529
229568
48325.8
25981.6
260094
15164.4
287030
119826
3099.69
3806.29
102087
1.80924e+06
1.97184e+06
1.89213e+06
1.60335e+06
1.44963e+06
1.12105e+06
1.77815e+06
1.49713e+06
125650
414171
547288
717265
1.30306e+06
832156
103355
12855.7
261852
15236.9
287005
119842
3815.04
769152
251808
657993
25757
220288
125541
11006.1
108259
392570
122914
25195.1
21706.5
2938.98
3460.33
199588
3786.34
118369
1861.38
66018.3
29397.1
805.344
160597
3371.56
1492.92
29057.1
5787.65
52759.9
107153
210719
15653.2
2228.08
137425
8331.63
326669
77355.7
611192
1.73573e+06
1.55052e+06
1.20248e+06
453748
221610
1.49809e+06
235973
42742.1
317988
78414.7
15281.3
1989.36
1041.03
292769
220616
69014
67018.7
14035
8858.22
1820.25
114218
245010
479506
44317.2
769.656
9985.8
3480.28
1.38044e+06
1.04023e+06
1.68699e+06
1.01972e+06
29146.7
439485
225806
139392
17377
56219.5
5570.68
1338.77
425.493
132.991
0.00228991
369.348
0.138893
0.180813
0.00276112
0.00674143
0.000213277
20420.6
367999
195895
7374.91
1628.7
585.074
18286.8
1202.17
10381.6
43873.4
9380.04
60.4222
259.028
2288.66
147091
242961
986725
544712
1174.92
25490.6
53515.9
18068.6
413.496
44.1606
1252.91
512.186
14530.3
1570.94
1283.85
421.381
14790.2
18080.7
44.2736
512.692
1574.44
651458
371314
3185.44
101866
160378
32891.3
1.00886e+06
13222.2
89100
144252
4958.94
210.017
389.655
2675.11
415.048
30075.5
14663.4
2066
111.402
56.1354
4416.77
80971.4
3462.84
96053.3
3167.45
4194.9
135.338
111.136
95606.3
2500.41
3311.19
3148.73
4154.89
134.154
106.509
247.712
735.971
8796.34
3910.71
8.50385
105.181
311.842
287.664
5548.9
9904
1380.35
20.447
38.5344
734.642
13273
836.69
1014.5
283.704
25.7071
21.1975
338.595
20313.5
1453.98
1938.97
820.623
610.488
61.9941
25.8822
3837.28
7440.69
533.071
186.673
6.30736
13.3991
93.0816
14.0299
641.767
554.59
72.7587
2.09545
1.76438
86.0661
31961.8
486.536
6449.39
68.5144
878.489
175.166
13.2028
63875.5
576.786
7860.29
130.056
1722.83
212.794
15.7242
14050.6
218.038
1287.97
63.8794
336.675
30.3369
5.10079
221.478
9.80742
392.331
48.8989
0.60798
1.17886
25.493
151828
623.978
280.269
141.957
15313.8
3120.97
6705.12
1929.66
10.3498
385.076
6.57241
246.803
48.424
1.27192
6446.24
58.3108
256.057
41.8754
186.555
7.77887
1.77464
1189.75
2.53584
7.24366
21.0879
31.5384
272.729
93.894
1448.98
23.7352
411.586
2.2112
34.882
9.84616
0.588844
207.278
40.6686
0.451258
11.7242
16.2788
5.5636
475.251
140.116
0.311989
5.82786
2.00862
11.0193
3.8186
74.1304
2.29966
97.2234
31.942
0.248753
10.262
3.09707
0.0840547
26.3088
36.9903
8.56006
2.36316
0.854832
0.61725
0.0652654
54.7938
53.552
741.214
19.807
0.143763
1.48972
1.48492
0.159738
116.676
4.30338
140.904
4.84936
3.99596
0.187238
75.8093
2.64079
92.7516
4.16726
0.121582
3.41193
0.144648
2.62879
73.3226
92.2329
4.13624
0.11694
3.27631
0.143575
4.25071
110.895
139.259
4.80082
0.151737
3.80958
0.18481
1.82984
0.625988
23.8792
4.60499
0.0181637
0.365499
0.13187
42.5472
0.50035
17.5868
0.0728067
1.89274
0.78569
0.0399032
1.16922
3.46624
45.6501
5.57033
0.0245332
0.154007
0.425885
13.2779
4.67152
87.8163
2.07689
0.037788
0.332793
0.134088
65.2293
0.861683
27.7356
0.0964518
2.21701
0.935428
0.0555488
0.188887
1.46194
7.9066
0.703336
0.012195
0.0263569
0.124002
6.97531
0.0327859
0.639827
0.215872
0.528618
0.182395
8.36542
4.50182
0.0677861
0.164613
0.0256735
0.33315
0.120348
2.20574
0.159382
1.16609
5.13667
0.243808
0.025736
0.0304365
0.0714018
0.287023
1.97483
8.45221
0.299499
0.0418033
0.0995017
0.04757
0.0306814
0.061673
0.79004
0.229361
0.0144273
0.0190454
0.0268754
2.69756
0.035665
0.179904
0.0296008
0.0845014
0.0284724
0.0271954
98.8466
9538.92
65782.2
0.114593
433.716
16869.6
726916
75720.1
228016
91581.3
583037
688120
522202
182185
61877
524029
289776
623368
425278
125103
31956.9
12715.9
331294
86301
2232.63
51332.7
256908
10151.3
1257.63
2528.08
264.688
64.2403
178.996
6613.04
1592.31
40.3186
7849.69
22680.8
163434
4991
191.224
555.798
1865.34
42.3398
1699.67
3835.15
802.65
7.98719
20.3476
323.311
1.34672
55.0407
10.9511
261.225
0.745471
6.44485
30.9249
124.354
1.06206
0.323589
4.50168
2.96991
13.5365
44.6732
2.46696e+06
1.76738e+06
2.45589e+06
1.78318e+06
1.89963e+06
2.59987e+06
2.35061e+06
1.92363e+06
1.99791e+06
2.63664e+06
2.29326e+06
2.19634e+06
2.49349e+06
2.63673e+06
2.31596e+06
2.23432e+06
1.4931e+06
1.87457e+06
2.37193e+06
2.06944e+06
2.50706e+06
1.51459e+06
1.84495e+06
2.79689e+06
2.79794e+06
2.42765e+06
2.80872e+06
2.80122e+06
2.43036e+06
2.45966e+06
2.42727e+06
2.16704e+06
2.1246e+06
2.44597e+06
2.55697e+06
2.2663e+06
2.20316e+06
2.03147e+06
1.97673e+06
1.81372e+06
2.03925e+06
1.77962e+06
1.99576e+06
1.80011e+06
2.55258e+06
2.29467e+06
2.24364e+06
2.7329e+06
2.70272e+06
2.36381e+06
2.40611e+06
2.64756e+06
2.4225e+06
2.66853e+06
2.43064e+06
2.36944e+06
2.20364e+06
2.19065e+06
2.16369e+06
2.12114e+06
1.86359e+06
2.10502e+06
1.86129e+06
2.14465e+06
1.83222e+06
1.91046e+06
1.70833e+06
1.69221e+06
2.00251e+06
1.75345e+06
1.97133e+06
1.75683e+06
1.96147e+06
1.72102e+06
1.70298e+06
2.05167e+06
1.80323e+06
2.09173e+06
1.77845e+06
2.31325e+06
2.07769e+06
2.23274e+06
2.61858e+06
2.4006e+06
2.3235e+06
2.1478e+06
1.88125e+06
2.15273e+06
1.86289e+06
2.14982e+06
1.99468e+06
1.96824e+06
1.73775e+06
2.11207e+06
1.83605e+06
2.09071e+06
1.78765e+06
1.99164e+06
1.95848e+06
1.74665e+06
1.79233e+06
1.83682e+06
2.12639e+06
1.6564e+06
1.87652e+06
1.93164e+06
1.7025e+06
1.96057e+06
1.62801e+06
1.70196e+06
1.77683e+06
2.0414e+06
1.9104e+06
1.69063e+06
1.63616e+06
1.64865e+06
1.82214e+06
1.78516e+06
1.4609e+06
1.60135e+06
1.61104e+06
1.68665e+06
1.37753e+06
1.51385e+06
1.7411e+06
1.42215e+06
1.56155e+06
1.56445e+06
857612
949957
1.33024e+06
1.58891e+06
899464
592279
1.52179e+06
1.08857e+06
1.61134e+06
1.53439e+06
1.36295e+06
1.50575e+06
1.33944e+06
1.31292e+06
1.29e+06
1.55704e+06
1.22749e+06
1.2787e+06
1.4344e+06
1.47244e+06
1.30926e+06
1.26016e+06
1.43746e+06
1.30434e+06
1.41e+06
1.168e+06
1.24597e+06
1.22511e+06
1.14832e+06
1.14e+06
935928
1.12032e+06
929098
1.10857e+06
1.09144e+06
916974
823391
1.04204e+06
1.07116e+06
918094
1.09623e+06
1.06805e+06
888514
1.16237e+06
1.33458e+06
1.2325e+06
1.27099e+06
1.37454e+06
1.19524e+06
1.12019e+06
613799
1.01159e+06
1.06572e+06
1.04937e+06
527346
811284
990438
229910
826084
1.00093e+06
1.02768e+06
394253
727874
936186
183785
12284.2
177054
472537
10.3175
89.8243
25143.5
34586.1
558239
563579
1.1018e+06
1.10129e+06
274172
84.8001
2.46517
362545
49.1433
368516
420.543
34.0935
114501
1.07927e+06
215321
50.8821
48816.5
1.11954e+06
1.73077
16940.5
1.09497e+06
1.23491e+06
1.2434e+06
1.12236e+06
1.13084e+06
982998
968840
1.09295e+06
1.24273e+06
1.231e+06
1.11951e+06
1.13035e+06
982597
964833
1.21406e+06
1.18958e+06
1.10506e+06
1.08423e+06
1.05998e+06
922580
838333
4.90353
6.87163
0.0273276
8356.84
1.07836e+06
0.318103
3678.66
247014
791771
732059
747173
284196
660651
160561
6435.35
27510.2
740.344
0.028849
8.12573
9339.18
13.3714
0.39722
3946.33
146513
26.3598
0.0320075
1289.13
0.706473
1.15706e+06
963542
922069
1.05364e+06
1.02371e+06
691759
466289
546487
76435.1
673353
177777
546406
76385.7
20577.6
283397
458438
866291
304423
882209
484964
40210
594819
987195
1.00372e+06
586964
88636.3
551207
107002
92441.5
559148
990238
595126
1.00382e+06
588134
107885
302026
881479
860694
482740
32437.4
448344
39507.7
614378
26339.2
399344
253964
502493
54822.4
9757.04
948092
333563
867109
54999
468247
334321
24229.7
810054
135728
716923
20597.1
371227
254928
9969.63
936709
762568
716274
423158
385943
198974
34943.2
1.21579e+06
989603
1.28733e+06
1.06623e+06
921984
11145
1.05358e+06
968437
295001
1.1023e+06
66928.7
212735
7857.65
1.0325e+06
872785
10033.9
1.30185e+06
1.26117e+06
1.24859e+06
1.13314e+06
1.1196e+06
1.08751e+06
1.09853e+06
1.2576e+06
1.18706e+06
1.22245e+06
1.05993e+06
1.09532e+06
1.06794e+06
1.03855e+06
1.16083e+06
1.14075e+06
1.01646e+06
1.08891e+06
1.00108e+06
967403
954254
1.1152e+06
967048
1.19883e+06
1.10483e+06
1.18658e+06
1.04474e+06
949170
978455
760817
780188
599664
627458
952376
944557
1.13736e+06
1.08878e+06
1.16682e+06
1.02756e+06
812748
904194
1.00394e+06
949116
612513
709305
402434
529147
924875
875545
1.04556e+06
971921
1.03682e+06
746104
913276
823754
548415
1.09849e+06
929701
1.05446e+06
650312
947650
804147
404649
454054
231773
766443
240143
751162
573762
82951.6
328010
850976
44237.1
54839.3
508561
829366
471797
743980
414137
888856
578486
327965
85398.1
17469.5
126796
253757
26164
222366
385279
771467
660192
20735.5
785717
356757
146502
707534
991055
548406
144.414
795.189
27890.4
308.728
11088.2
14944.8
5451.69
1817.72
8829.97
220084
14042.9
68886.6
529120
292845
146432
110750
334824
17066.4
589.881
4152.69
2884.88
171392
484795
718496
177041
1849.86
53502.4
7880.99
59912
350683
566162
127878
950.548
37362.2
3670.03
335006
17090.4
110876
25177.2
4156
2889.43
590.685
773.477
27982.7
3511.05
44708.1
115061
481152
245747
11.6114
13.181
0.00886065
0.0141271
0.835348
0.000661145
0.0128389
608252
6917.73
7459.72
98186.4
87204.4
3472.74
254.041
12.3492
172.109
49.1038
1997.34
6391.09
1995.77
504.432
3132.41
1961.62
70310.1
82031.2
107.229
2320.56
3753.82
80922.9
105.709
2965.52
1843.84
66558.9
2282.88
3704.04
5.98588
16.5439
84.9296
3351.68
658.011
1375.66
246.679
204522
1029.53
34401.2
319.004
9558.38
1224.06
39.3629
133622
545.946
22016.6
187.457
7216.71
981.495
25.9014
1953.65
408851
68512.3
5002.34
72107.3
2024.35
140.506
1767.82
1130.9
41382.5
18830.4
22.2821
770.734
516.634
174.836
875.223
31829.2
68.2546
2500.91
485.402
13.1607
155509
1833.77
37339.3
282.735
5516.69
1065.77
53.6517
30582.2
440.058
3948.88
91.7501
714.549
91.8111
10.1957
576.702
15.6963
212.693
1725.64
130.261
4779.18
63980.6
14068
218.351
2753.14
30.3778
337.156
63.9826
5.11289
2.46764
422.878
100.628
1.59346
68.4658
14.0599
0.340881
0.340535
10.3024
1.59042
422.29
14.0401
100.541
68.3471
6494.89
7.1289
58.5122
43.1644
1591.43
249.067
174.897
406.784
421.12
568.06
19.7659
19.6595
14.8598
0.755476
189.446
59.7837
2395.11
98.5839
0.217582
7.52046
2.64733
232.104
95.5843
3267.01
116.153
0.277005
8.47812
3.66953
53.4905
1.48513
19.7127
54.7062
0.118092
3.87531
1.45768
282.382
199.722
4244.37
118.542
0.447029
5.82187
8.16773
839734
846958
169470
154202
829256
832554
8478.54
7206.84
835534
616528
622645
838556
832743
628826
624164
841573
840174
835052
637959
634809
642189
632567
831101
827987
829259
633371
633265
638399
627175
619801
615862
831851
831274
830899
625360
619507
178096
8686.59
177971
8304.63
181077
175654
8486.69
7561.91
7401.63
168328
178760
8420.05
179866
8405.49
163639
7199.4
6560.99
7219.42
162361
171666
7913.41
7279.13
161686
159955
170720
7829.44
169072
7937.45
6749.44
2871.08
5659.61
1934.45
841621
833680
823679
828390
613807
610700
830726
831585
835055
599023
597870
838170
603047
614073
841722
839361
594158
577588
833094
829439
835399
568322
519159
568580
517248
836212
827955
836742
558614
475868
503507
536366
1.10181e+06
968934
966392
942999
1.64149e+06
1.59945e+06
1.4697e+06
1.32989e+06
1.30669e+06
1.38931e+06
1.41413e+06
1.1692e+06
1.18411e+06
1.21026e+06
1.22754e+06
1.38471e+06
1.53508e+06
1.46508e+06
1.26011e+06
1.21568e+06
1.25666e+06
1.29323e+06
1.58591e+06
1.32673e+06
1.49651e+06
1.51634e+06
1.26975e+06
1.28384e+06
1.33503e+06
1.06161e+06
937518
1.0525e+06
946493
1.07193e+06
1.08133e+06
952778
1.61826e+06
1.59968e+06
1.55308e+06
1.30489e+06
1.35051e+06
1.34554e+06
1.32594e+06
965039
953383
1.07957e+06
1.09863e+06
972641
962166
1.11669e+06
1.12479e+06
957984
1.0983e+06
1.10602e+06
969066
962895
1.12959e+06
1.11803e+06
975627
971263
1.13471e+06
970708
1.13499e+06
1.12811e+06
6720.21
154621
154154
140078
5848.36
5735.83
141261
140109
6449.77
151798
4459.3
133228
5294.23
118780
84611.3
2778.29
114664
4411.38
4295.08
116368
82796.2
3148.71
2449.16
106840
62029.1
3868.96
75173.7
91957.5
795325
26572.1
117940
837225
794.202
283182
2299.98
810609
843023
576716
839339
829658
545936
530381
494397
432670
370611
784625
828960
813606
498290
442097
825188
771634
811601
362912
461114
421163
317156
1.60813e+06
1.11912e+06
1.30077e+06
1.69502e+06
1.13753e+06
1.46812e+06
1.29448e+06
1.59842e+06
1.1548e+06
1.82171e+06
4.08356e+06
1.10904e+06
1.44212e+06
708830
1.09484e+06
850039
1.28564e+06
1.59295e+06
1.13207e+06
1.23022e+06
1.50873e+06
977608
1.4472e+06
2.44731e+06
2.01781e+06
2.0256e+06
2.53704e+06
3.68723e+06
1.55523e+06
1.69731e+06
1.63063e+06
1.60799e+06
1.63412e+06
1.47329e+06
1.4666e+06
1.46869e+06
1.46637e+06
947624
948879
1.37474e+06
1.47253e+06
1.50415e+06
1.68266e+06
1.11761e+06
1.46468e+06
1.45817e+06
1.62259e+06
1.60933e+06
1.63569e+06
1.46839e+06
1.46869e+06
1.66517e+06
1.71023e+06
1.67398e+06
1.48227e+06
1.48614e+06
1.47482e+06
1.49983e+06
1.48188e+06
1.68922e+06
1.65672e+06
1.71105e+06
1.67412e+06
1.48218e+06
1.50034e+06
902406
1.44143e+06
1.47576e+06
967609
1.44389e+06
403686
1.23311e+06
1.46296e+06
1.43851e+06
1.60953e+06
1.57134e+06
1.56941e+06
1.39872e+06
1.44928e+06
2.02549e+06
1.69306e+06
1.62288e+06
1.70595e+06
2.07004e+06
1.62034e+06
2.05696e+06
2.73898e+06
2.60239e+06
3.6073e+06
3.97204e+06
2.74371e+06
2.58412e+06
3.5016e+06
1.44854e+06
1.65624e+06
1.63093e+06
1.60293e+06
1.58473e+06
1.39629e+06
1.40086e+06
4903.43
521834
1584.73
660766
308.888
365403
1726.47
1.37686e+06
1.30269e+06
1.37244e+06
1.3213e+06
1.19488e+06
1.31803e+06
1.1994e+06
1.18939e+06
1.37232e+06
1.30971e+06
1.30101e+06
1.3741e+06
1.31974e+06
1.19799e+06
2.86503e+06
2.0746e+06
1.33069e+06
2.42455e+06
3.50897e+06
1.58968e+06
1.6923e+06
1.43387e+06
623099
187472
1.25082e+06
1.46445e+06
929345
1.36186e+06
1.67839e+06
1.61687e+06
1.70173e+06
1.6366e+06
1.49168e+06
1.44184e+06
1.42468e+06
1.70043e+06
1.62124e+06
1.63551e+06
1.4754e+06
1.49084e+06
1.44105e+06
1.42688e+06
1.54121e+06
1.4469e+06
1.5134e+06
1.34618e+06
1.38097e+06
1.41729e+06
1.28908e+06
1.70492e+06
2.17365e+06
2.12458e+06
1.61254e+06
1.61509e+06
2.08122e+06
2.10123e+06
1.31398e+06
1.15873e+06
1.30124e+06
1.15139e+06
1.30552e+06
1.16726e+06
1.31312e+06
1.13721e+06
1.2993e+06
1.29809e+06
1.31269e+06
1.15159e+06
1.16612e+06
1.31317e+06
1.53224e+06
1.43872e+06
1.51712e+06
1.33309e+06
1.26149e+06
1.26265e+06
1.33507e+06
1.64599e+06
1.58403e+06
1.59523e+06
1.53595e+06
1.39251e+06
1.39586e+06
1.35263e+06
1.17442e+06
1.36651e+06
1.29188e+06
1.25904e+06
1.26904e+06
1.34767e+06
1.14954e+06
1.9625e+06
1.54705e+06
1.56886e+06
1.54532e+06
1.56957e+06
2.02364e+06
1.95129e+06
3.83855e+06
2.73669e+06
2.74281e+06
2.56255e+06
3.24306e+06
2.5414e+06
3.37814e+06
1.10689e+06
85701.7
140.667
913675
1.36504e+06
146285
1.18495e+06
1.11305e+06
1.27428e+06
1.26912e+06
1.23545e+06
1.07722e+06
1.09968e+06
1.22824e+06
3.18129e+06
2.28826e+06
2.80584e+06
2.42052e+06
2.73025e+06
2.26188e+06
3.08886e+06
1.28659e+06
1.13242e+06
1.30115e+06
1.26005e+06
1.08686e+06
1.09775e+06
1.24774e+06
1.3858e+06
1.50873e+06
1.52062e+06
1.3539e+06
1.23735e+06
1.34402e+06
1.2473e+06
1.37056e+06
1.38554e+06
1.52077e+06
1.3545e+06
1.23505e+06
1.34135e+06
1.24726e+06
1.2875e+06
1.13084e+06
1.30049e+06
1.25909e+06
1.08608e+06
1.24806e+06
1.09654e+06
1.52286e+06
1.40624e+06
1.47404e+06
1.25929e+06
1.32724e+06
1.29688e+06
1.23697e+06
2.21623e+06
1.71778e+06
2.2348e+06
1.63334e+06
2.1178e+06
2.12584e+06
1.68312e+06
1.37971e+06
1.43153e+06
1.31767e+06
1.35431e+06
1.23737e+06
1.20176e+06
1.34474e+06
852215
844740
837648
595462
567325
544583
509622
1.21431e+06
1.24157e+06
1.28674e+06
1.07494e+06
1.316e+06
1.16602e+06
1.11275e+06
1.34883e+06
1.31739e+06
1.43747e+06
1.2161e+06
1.31564e+06
1.28153e+06
1.18857e+06
2.71249e+06
3.31054e+06
2.66788e+06
3.09258e+06
2.51109e+06
2.47602e+06
2.9321e+06
1.35586e+06
1.27695e+06
1.27668e+06
1.19136e+06
1.19591e+06
1.13675e+06
1.12457e+06
808588
32146.9
132469
840879
850706
145052
393282
2228.32
843493
594519
843891
842844
603393
562091
552031
847036
846992
846058
609488
610325
567330
563473
1.1797e+06
1.03071e+06
1.00226e+06
1.10678e+06
1.11775e+06
1.05268e+06
1.17043e+06
2.39046e+06
2.6394e+06
2.86343e+06
2.20219e+06
2.35668e+06
2.22876e+06
2.97912e+06
1.54211e+06
1.57017e+06
1.56475e+06
2.01641e+06
1.92509e+06
2.01375e+06
1.93618e+06
1.25719e+06
1.05972e+06
1.21546e+06
1.06728e+06
1.22186e+06
1.1865e+06
1.03791e+06
457149
839667
822423
795188
384549
822528
457268
831358
814189
835085
495540
389878
485304
400472
813125
492892
836778
816589
837597
499120
402357
2.5384e+06
3.09435e+06
2.60838e+06
2.43453e+06
2.56219e+06
2.36337e+06
2.75109e+06
1.22761e+06
1.41567e+06
1.2705e+06
1.17331e+06
1.42912e+06
1.16526e+06
1.37182e+06
1.33827e+06
1.28304e+06
1.19306e+06
1.26555e+06
1.17784e+06
1.12542e+06
1.11635e+06
2.21158e+06
1.76856e+06
2.2333e+06
2.12343e+06
1.78387e+06
2.09371e+06
1.74512e+06
1.19811e+06
1.04401e+06
965924
1.10407e+06
1.0528e+06
1.18594e+06
1.11472e+06
1.19766e+06
965352
1.10556e+06
1.04405e+06
1.1871e+06
1.0522e+06
1.11475e+06
1.01637e+06
1.10254e+06
1.16075e+06
1.14033e+06
954018
1.08876e+06
1.00074e+06
1.27741e+06
1.3325e+06
1.38813e+06
1.23726e+06
1.1118e+06
1.18736e+06
1.153e+06
799946
470020
830672
775840
818450
429233
316874
2.73529e+06
2.17647e+06
2.32948e+06
2.30457e+06
2.30413e+06
2.13889e+06
2.59453e+06
1.60469e+06
1.91689e+06
2.01475e+06
2.01696e+06
1.62225e+06
1.90269e+06
1.65945e+06
1.27606e+06
1.04837e+06
1.13026e+06
1.10689e+06
1.25257e+06
1.30279e+06
993671
1.13654e+06
1.1919e+06
1.20252e+06
1.08634e+06
998264
1.04646e+06
1.0598e+06
961751
1.04863e+06
1.0638e+06
1.023e+06
835828
898469
996149
2.70977e+06
1.97859e+06
1.55338e+06
2.84489e+06
4.15425e+06
2.46132e+06
2.00286e+06
1.98163e+06
1.66969e+06
1.65063e+06
1.94816e+06
1.96254e+06
1.61476e+06
1.99136e+06
1.59972e+06
1.98796e+06
1.66727e+06
1.61322e+06
1.65506e+06
1.95618e+06
1.96641e+06
1.60407e+06
4.12498e+06
4.17682e+06
2.6995e+06
2.60503e+06
3.66285e+06
2.60329e+06
3.71281e+06
2.71949e+06
2.60488e+06
3.67797e+06
4.19082e+06
2.70656e+06
2.60585e+06
3.71744e+06
1.99678e+06
1.57062e+06
1.97133e+06
1.54855e+06
2.00799e+06
1.97274e+06
1.56072e+06
1.9643e+06
1.54273e+06
1.56179e+06
1.99544e+06
1.54419e+06
1.96867e+06
1.55946e+06
2.47462e+06
3.2312e+06
2.31133e+06
2.88309e+06
2.46353e+06
2.3248e+06
3.27735e+06
3.24234e+06
2.30616e+06
2.85213e+06
2.47167e+06
2.88433e+06
2.32132e+06
3.27845e+06
741326
170270
664536
730551
784867
362825
252181
1.02673e+06
1.08822e+06
1.16609e+06
1.13662e+06
810798
1.00337e+06
1.06558e+06
160655
747255
284277
732232
791965
368638
247085
1.27535e+06
1.13416e+06
1.21409e+06
1.06661e+06
1.13469e+06
1.08061e+06
912805
5192.4
3549.89
101364
140915
5675.06
3862.48
107969
5890.98
3963.56
5658.78
3755.59
141890
106519
110320
4392.1
2959.84
88284.2
3366.85
2212.35
97184.1
69952.1
3180.4
129045
94415.1
2380.34
3791.65
107825
75370
2.25924e+06
2.29862e+06
1.98794e+06
2.18587e+06
2.1743e+06
2.07062e+06
2.44755e+06
1.19497e+06
1.10063e+06
1.18569e+06
976966
1.05669e+06
1.04997e+06
877859
1.04602e+06
823746
1.03691e+06
746856
990194
972226
548747
1.09793e+06
648626
803352
928939
1.05415e+06
946690
1.03177e+06
2.00314e+06
1.71232e+06
1.83016e+06
1.583e+06
1.96608e+06
1.87553e+06
1.70241e+06
1.09678e+06
1.25068e+06
352352
1.06303e+06
917263
1.35859e+06
769293
1374.41
1473.93
859.287
45839.1
29383.9
71956.4
49103.3
2623.54
81552.8
910.175
1583.83
53328.4
31666.4
53359
990283
714429
270302
569672
801984
664529
939638
2022.2
65199.3
927.573
2194.41
1003.56
69859.9
34675
2084.18
1007.96
931.6
32447.2
67307.6
70894.9
34859.5
1668.57
55271.4
760.69
1223.1
543.22
41559.9
19089.4
754.678
26605
57585.3
525.223
1252.21
43052.3
18677.6
1.03903e+06
1.03621e+06
1.14498e+06
944776
146053
577565
565589
548080
707129
990872
785787
20737.1
212787
356753
9.03212e+07
6.02937e+06
5.21911e+06
4.36776e+06
3.44291e+06
3.87414e+06
4.17166e+06
3.62043e+06
7.28998e+06
2.37623e+07
2.2381e+07
9.55187e+06
1.45913e+07
1.00706e+07
1.05816e+07
5.81279e+06
5.77879e+06
1.13197e+07
4.46348e+06
8.08583e+06
6.03831e+06
4.89786e+06
5.33622e+06
1.03376e+07
4.60448e+06
3.89781e+06
6.91873e+06
5.85468e+06
4.22189e+06
4.01759e+06
5.06716e+06
6.94262e+06
3.79856e+06
5.34156e+06
5.62858e+06
4.07931e+06
2.50744e+07
6.50144e+07
6.99168e+07
3.68538e+07
5.17758e+07
2.8129e+07
3.10648e+07
1.82984e+07
4.17084e+07
1.99424e+07
1.33161e+07
3.57585e+07
1.90784e+07
1.226e+07
2.07338e+07
4.2089e+07
2.15169e+07
1.39173e+07
3.79307e+07
1.37692e+07
2.09396e+07
1.59378e+07
1.71855e+07
1.00521e+07
1.09964e+07
1.58701e+07
1.01278e+07
1.71555e+07
4.49756e+06
5.18579e+06
4.70967e+06
4.37014e+06
5.97984e+06
4.45952e+06
4.79417e+06
4.72645e+06
3.87313e+06
3.82231e+06
3.66762e+06
4.34221e+06
4.04718e+06
4.30064e+06
3.44039e+06
3.80223e+06
4.55235e+06
3.65323e+06
4.35472e+06
3.99806e+06
3.90486e+06
3.85675e+06
4.63981e+06
4.16085e+06
4.02535e+06
4.13714e+06
4.16994e+06
4.42704e+06
2.79007e+06
3.21742e+06
2.52775e+06
6.58366e+06
6.67055e+06
7.86168e+06
3.23092e+06
4.45487e+06
7.8356e+06
2.91044e+06
2.7928e+06
2.57786e+06
3.2458e+06
3.73422e+06
3.90573e+06
4.33425e+06
3.70862e+06
3.76571e+06
3.93726e+06
4.68119e+06
3.46317e+06
4.01496e+06
4.23777e+06
3.66152e+06
4.75875e+06
4.07621e+06
3.82289e+06
3.86056e+06
3.43213e+06
4.3082e+06
4.22914e+06
7.50884e+06
8.20109e+06
4.69541e+06
7.91591e+06
4.28116e+06
4.5279e+06
4.6735e+06
4.16505e+06
4.22592e+06
4.03262e+06
4.17673e+06
3.89038e+06
4.43722e+06
3.1984e+06
3.04333e+06
3.36372e+06
2.76124e+06
3.00043e+06
3.08582e+06
3.48664e+06
3.53039e+06
3.00277e+06
3.52024e+06
3.57009e+06
3.23979e+06
3.25201e+06
3.88104e+06
3.05329e+06
3.18433e+06
3.52718e+06
3.39655e+06
2.77362e+06
3.00033e+06
3.07665e+06
3.5835e+06
3.02941e+06
3.58269e+06
3.55318e+06
3.24343e+06
3.29497e+06
3.93388e+06
3.16825e+06
3.54693e+06
3.67646e+06
3.61091e+06
3.16967e+06
3.19548e+06
3.5432e+06
3.54844e+06
3.93475e+06
6.84572e+06
7.07071e+06
3.66413e+06
7.44494e+06
3.89212e+06
4.13514e+06
7.62683e+06
4.11169e+06
8.15408e+06
4.00557e+06
7.92521e+06
4.33367e+06
3.82307e+06
3.51982e+06
3.82015e+06
3.99122e+06
3.7431e+06
3.54329e+06
4.1552e+06
2.77896e+06
3.19239e+06
2.66668e+06
2.76692e+06
2.88567e+06
2.9429e+06
2.99473e+06
2.70347e+06
3.21916e+06
2.69945e+06
2.80373e+06
2.87525e+06
2.95876e+06
2.99618e+06
6.93342e+06
5.48865e+06
3.86372e+06
3.77714e+06
2.79424e+06
3.06421e+06
3.32986e+06
2.94426e+06
5.87899e+06
5.17187e+06
5.00118e+06
4.11352e+06
3.65242e+06
4.11452e+06
4.03113e+06
7.08554e+06
5.1785e+06
5.85718e+06
4.12368e+06
3.81859e+06
4.17055e+06
4.14982e+06
6.04704e+06
2.71904e+06
3.62e+06
3.95541e+06
4.45026e+06
3.73443e+06
4.48309e+06
3.87753e+06
3.51016e+06
4.0002e+06
3.68516e+06
4.64293e+06
4.05037e+06
4.50498e+06
3.88545e+06
3.51653e+06
2.97493e+06
2.74264e+06
2.98029e+06
3.17315e+06
3.48061e+06
3.44302e+06
3.24536e+06
3.42144e+06
2.66537e+06
3.07306e+06
2.75233e+06
2.97324e+06
3.44004e+06
3.18459e+06
2.52641e+06
4.64929e+06
1.74229e+06
2.43483e+06
3.08767e+06
2.83946e+06
2.1289e+06
2.55814e+06
1.91467e+06
1.75381e+06
2.43319e+06
2.43576e+06
1.76682e+06
1.92241e+06
2.98826e+06
3.10177e+06
3.04335e+06
3.36403e+06
3.55773e+06
3.45771e+06
3.26339e+06
3.02733e+06
3.08653e+06
3.50978e+06
3.07403e+06
2.99469e+06
3.46512e+06
3.26673e+06
2.36314e+06
2.40709e+06
2.58824e+06
2.26413e+06
2.11526e+06
2.24013e+06
2.14949e+06
2.31531e+06
2.36844e+06
2.54872e+06
2.29724e+06
2.08246e+06
2.27945e+06
2.12045e+06
2.39426e+06
2.58415e+06
2.59585e+06
2.31867e+06
2.12453e+06
2.1566e+06
2.30825e+06
2.58235e+06
2.40041e+06
2.56447e+06
2.26065e+06
2.13806e+06
2.15981e+06
2.24554e+06
6.4286e+06
6.9178e+06
4.54542e+06
5.68757e+06
6.30267e+06
2.73929e+06
2.58109e+06
6.40389e+06
5.05207e+06
6.03914e+06
4.65802e+06
3.74742e+06
3.38629e+06
3.74852e+06
3.77395e+06
5.06472e+06
5.61748e+06
6.7421e+06
4.04531e+06
3.81694e+06
4.07582e+06
4.07651e+06
4.41108e+06
7.0229e+06
4.59827e+06
3.92556e+06
6.83446e+06
6.40485e+06
4.11203e+06
4.34822e+06
6.34582e+06
4.12653e+06
3.76219e+06
6.83444e+06
3.93716e+06
6.38916e+06
3.41264e+06
3.16538e+06
2.9668e+06
2.78672e+06
3.21205e+06
2.97125e+06
3.43816e+06
3.23001e+06
2.91271e+06
2.66106e+06
2.83859e+06
3.2366e+06
3.01735e+06
2.86926e+06
3.57814e+06
6.59442e+06
3.3542e+06
6.15403e+06
3.27295e+06
6.31309e+06
3.70063e+06
3.48086e+06
6.65661e+06
6.19582e+06
3.3007e+06
3.59053e+06
3.23307e+06
6.33615e+06
5.92398e+06
3.07216e+06
3.0201e+06
2.87577e+06
5.61623e+06
2.92745e+06
5.56128e+06
2.71081e+06
2.71953e+06
2.72197e+06
2.39976e+06
2.42744e+06
2.38346e+06
2.45012e+06
5.93472e+06
5.87481e+06
3.03063e+06
2.9181e+06
5.51544e+06
2.86377e+06
5.51501e+06
2.72371e+06
2.71772e+06
2.39224e+06
2.7118e+06
2.71504e+06
2.39545e+06
2.44466e+06
3.76032e+06
3.92621e+06
6.88596e+06
7.21747e+06
3.72626e+06
3.88717e+06
7.4616e+06
2.88274e+06
3.45157e+06
3.07649e+06
3.23101e+06
3.07008e+06
3.42155e+06
3.22227e+06
2.11692e+06
1.89448e+06
2.03251e+06
1.74726e+06
2.12283e+06
1.91274e+06
2.01028e+06
2.02889e+06
1.7537e+06
1.91496e+06
2.11737e+06
1.74939e+06
1.92359e+06
2.00318e+06
2.01257e+06
1.92029e+06
1.79961e+06
1.76941e+06
1.99542e+06
1.9402e+06
1.81538e+06
2.00387e+06
1.93909e+06