/*--------------------------------*- C++ -*----------------------------------*\
  =========                 |
  \\      /  F ield         | OpenFOAM: The Open Source CFD Toolbox
   \\    /   O peration     | Website:  https://openfoam.org
    \\  /    A nd           | Version:  9
     \\/     M anipulation  |
\*---------------------------------------------------------------------------*/
FoamFile
{
    format      ascii;
    class       volScalarField;
    location    "0.0008";
    object      rho;
}
// * * * * * * * * * * * * * * * * * * * * * * * * * * * * * * * * * * * * * //

dimensions      [1 -3 0 0 0 0 0];

internalField   nonuniform List<scalar> 
7331
(
1.74723
0.226798
1.69666
0.326589
1.72073
0.236283
1.78495
0.244388
0.713678
0.795837
1.73772
1.75305
0.755651
0.733129
1.73642
0.329821
0.381113
0.225178
0.225001
0.333888
0.333407
0.239643
0.2433
0.328247
0.23957
0.243838
0.329191
0.244917
0.326196
0.327886
0.328042
0.240951
0.242986
0.329965
0.325442
0.245057
0.230844
0.222285
0.227905
0.22494
0.228148
0.226818
0.223917
0.273977
0.261256
0.39048
0.403865
0.408205
0.267993
0.26845
0.24114
0.226301
0.240282
0.221251
0.224939
0.240341
0.236468
0.23724
0.222705
0.239407
0.221407
0.225766
0.234571
0.230499
0.692381
0.696335
1.70707
1.70323
0.710829
1.71202
0.688752
0.326245
0.242827
0.319532
0.240686
0.322909
0.244772
0.323189
0.711278
0.70314
1.76695
1.7528
0.715784
0.700507
1.74161
0.692871
1.71088
0.691576
1.73313
0.694072
1.72085
0.688036
1.22504
3.17885
1.71337
1.28847
1.225
3.4297
3.2155
1.47529
1.57448
1.225
1.26779
1.22501
1.225
2.51184
2.3905
2.76173
3.00873
2.2331
2.58363
3.1625
1.36889
2.85534
2.51058
2.8372
1.55678
2.51102
1.37431
1.225
2.30471
2.44945
2.84604
3.12279
1.36721
2.53204
3.65402
1.32178
2.95612
2.5769
1.23055
1.24914
3.37164
2.81931
1.22527
1.22528
2.63584
2.47543
1.41657
2.59764
1.24362
1.22516
2.67506
2.31162
1.225
1.22709
2.78987
1.35557
3.04575
2.9955
2.71497
3.1901
3.5139
3.50398
3.22208
2.70761
2.98817
2.70083
3.17964
3.49466
3.17607
3.50284
2.64545
2.8083
2.61268
2.95439
3.25244
3.2607
2.93962
2.8077
2.63812
2.61445
2.95422
3.25754
2.93629
3.26606
2.30318
2.26731
2.35281
2.67393
2.48079
2.71202
2.44554
2.33274
2.24381
2.33574
2.65851
2.42103
2.65586
2.42813
2.51346
2.50003
2.4883
2.81475
2.74781
2.76467
2.80078
2.50716
2.50165
2.49101
2.81293
2.74262
2.79509
2.76208
3.14687
3.29597
2.96667
3.55315
3.28984
3.38673
3.60251
2.34556
2.3904
2.52384
2.54004
2.78061
2.87964
2.62582
2.72404
3.0936
2.83741
3.26537
2.93531
2.92664
3.27372
2.50782
1.26592
1.2251
2.78427
1.2613
2.67383
3.75411
1.22501
1.225
1.26624
1.22617
1.23025
3.40046
2.75069
2.56798
2.66465
2.68318
2.73119
2.79683
2.79026
2.7033
1.225
1.2268
1.27023
2.24284
1.28178
1.225
1.22513
2.44688
2.75722
2.62163
3.00922
2.90556
3.16993
2.7454
3.47879
3.31556
3.12704
3.48931
3.56519
3.56008
3.6203
3.2469
3.01632
2.95279
2.86984
3.05104
3.22704
2.6731
2.62877
2.80136
2.80538
2.71627
2.74061
2.63972
2.59415
2.71429
2.79809
2.63235
2.62857
2.8039
2.73811
2.6391
3.06107
3.24497
2.82194
3.17446
3.2584
3.08626
2.79152
1.24061
1.225
1.22503
1.225
1.2254
2.59295
1.25236
3.24096
2.7781
3.04741
3.05225
3.17308
3.2605
2.78189
2.76743
2.8724
2.80301
2.71947
2.31751
2.50056
2.60064
2.74131
2.8132
2.82966
2.6747
2.59721
2.50046
2.30557
3.4469
3.19743
3.43254
2.61788
3.24449
3.4707
3.44657
3.45227
3.22083
3.42861
3.44541
2.64414
3.2548
3.48038
1.225
1.22501
1.225
1.22567
1.24765
1.24125
1.22501
2.66294
1.53732
2.95016
1.7865
1.58605
3.0136
2.60382
3.24024
2.89611
3.14744
3.23891
3.2583
3.21583
3.0174
2.62724
1.75275
2.98835
2.66882
1.79977
1.59225
3.02605
2.93888
2.89138
3.16642
3.11826
3.33664
3.4388
3.33009
3.11836
3.37859
3.46095
3.47018
1.99201
2.96647
3.27627
2.79899
2.63772
2.80108
1.99542
2.40784
1.95931
1.5502
1.44221
2.8296
2.48605
2.26611
1.41475
1.3379
2.60167
1.22503
1.22502
1.24073
1.22502
1.53661
1.22503
1.225
2.49389
1.45714
2.27361
1.39433
1.49582
2.33478
2.43858
2.28589
1.46924
2.45375
2.49654
1.39603
1.49968
2.3372
3.49601
3.70285
3.61235
3.35248
3.55904
3.43915
2.77945
1.42949
1.22502
1.225
1.225
1.225
1.23425
1.225
3.32802
3.24998
2.88587
3.30374
3.12078
3.37346
3.1683
1.38186
2.13941
2.31914
2.09908
1.27511
1.30507
1.91462
2.85234
2.5519
2.87661
2.17566
1.41216
2.0941
1.45138
2.48567
2.10285
2.85321
2.55322
2.87528
2.17664
1.45215
3.0036
3.18669
2.74572
2.53947
2.16707
1.526
1.75079
2.85119
2.34405
2.55342
1.78975
1.99618
1.44125
1.35143
1.99824
1.30027
2.06588
1.65191
1.24325
1.247
1.59611
3.50851
3.1765
3.39916
3.39307
3.28808
3.0399
3.43174
3.43621
1.62893
2.16993
2.59507
2.65948
3.31923
3.05284
1.60252
1.29006
2.00827
1.30077
2.0683
1.6532
1.24708
2.80998
2.02795
2.72053
1.34474
1.9247
1.67609
1.28209
1.62039
2.29413
1.66758
1.34045
1.32584
1.24223
1.24502
1.85697
1.24711
1.64777
1.23656
1.48484
1.35771
1.23039
1.77992
1.24516
1.2347
1.36124
1.25768
1.45193
1.6229
1.91656
1.30192
1.23894
1.71907
1.27009
2.2114
1.5355
2.38925
3.36473
3.32108
3.08602
2.13357
1.74644
3.2784
1.95943
1.40815
2.13628
1.52874
1.29935
1.23713
1.23173
2.14128
1.9752
1.51098
1.50443
1.2964
1.27332
1.23648
1.65473
2.01916
2.49659
1.41639
1.23012
1.27735
1.24555
3.41765
3.37726
3.60771
3.07587
1.33807
2.21912
1.88008
1.71551
1.30978
1.459
1.25583
1.2335
1.22792
1.22597
1.225
1.22754
1.225
1.225
1.225
1.225
1.225
1.32823
2.37002
1.9305
1.26659
1.23509
1.22908
1.3135
1.23291
1.27979
1.41494
1.2743
1.22546
1.22686
1.23894
1.62695
1.93307
3.0303
2.4043
1.23192
1.31872
1.41826
1.31257
1.22789
1.22534
1.23309
1.22854
1.29688
1.23499
1.23329
1.22794
1.29834
1.3128
1.22534
1.22854
1.23502
2.46139
2.00896
1.24042
1.49482
1.62695
1.33443
2.88417
1.29586
1.59135
1.77688
1.25421
1.22654
1.22778
1.24166
1.22794
1.36113
1.30021
1.23813
1.22582
1.22543
1.25026
1.54631
1.2455
1.59817
1.24395
1.24944
1.22599
1.22582
1.5957
1.24022
1.24465
1.24382
1.24919
1.22598
1.22578
1.22678
1.22994
1.27125
1.24762
1.22507
1.22578
1.2272
1.22708
1.25663
1.27826
1.2341
1.22516
1.2253
1.23005
1.29173
1.23049
1.23159
1.22699
1.2252
1.22516
1.22736
1.32387
1.23428
1.23709
1.23045
1.22914
1.22547
1.2252
1.24699
1.26462
1.2286
1.22634
1.22505
1.2251
1.22569
1.22511
1.22932
1.22876
1.22554
1.22502
1.22501
1.22564
1.37624
1.22837
1.26106
1.22552
1.23093
1.22628
1.2251
1.49104
1.22893
1.26793
1.22596
1.23588
1.22654
1.22512
1.29561
1.22654
1.23311
1.22548
1.22733
1.22523
1.22504
1.22658
1.22508
1.22771
1.22537
1.22501
1.22501
1.2252
1.63627
1.22881
1.22679
1.22597
1.286
1.24063
1.25728
1.23719
1.22508
1.22771
1.22505
1.22679
1.22537
1.22501
1.26085
1.22544
1.22682
1.22532
1.22635
1.22506
1.22501
1.23275
1.22502
1.22506
1.22516
1.22524
1.22693
1.2257
1.23412
1.22518
1.22782
1.22502
1.22527
1.22508
1.225
1.22652
1.22531
1.225
1.22509
1.22513
1.22505
1.22824
1.22605
1.225
1.22505
1.22502
1.22509
1.22503
1.22557
1.22502
1.22572
1.22525
1.225
1.22508
1.22502
1.225
1.2252
1.22528
1.22507
1.22502
1.22501
1.22501
1.225
1.22542
1.22541
1.22999
1.22515
1.225
1.22501
1.22501
1.225
1.22585
1.22503
1.22603
1.22504
1.22503
1.225
1.22557
1.22502
1.22569
1.22503
1.225
1.22503
1.225
1.22502
1.22555
1.22569
1.22503
1.225
1.22503
1.225
1.22503
1.22581
1.22601
1.22504
1.225
1.22503
1.225
1.22501
1.22501
1.22519
1.22504
1.225
1.225
1.225
1.22532
1.225
1.22514
1.225
1.22502
1.22501
1.225
1.22501
1.22503
1.22535
1.22504
1.225
1.225
1.225
1.2251
1.22504
1.22564
1.22502
1.225
1.225
1.225
1.22549
1.22501
1.22521
1.225
1.22502
1.22501
1.225
1.225
1.22501
1.22506
1.22501
1.225
1.225
1.225
1.22506
1.225
1.22501
1.225
1.225
1.225
1.22507
1.22504
1.225
1.225
1.225
1.225
1.225
1.22502
1.225
1.22501
1.22504
1.225
1.225
1.225
1.225
1.225
1.22502
1.22507
1.225
1.225
1.225
1.225
1.225
1.225
1.22501
1.225
1.225
1.225
1.225
1.22502
1.225
1.225
1.225
1.225
1.225
1.225
1.22574
1.27432
1.49045
1.225
1.22799
1.30624
2.64436
1.52651
1.91111
1.56375
2.54615
2.61691
2.47578
1.80713
1.47321
2.48055
2.09207
2.5717
2.34349
1.6643
1.3678
1.28914
2.1658
1.55447
1.23849
1.43985
2.00874
1.27714
1.23302
1.24004
1.22689
1.22548
1.2263
1.26074
1.23491
1.22531
1.26704
1.33249
1.78291
1.2528
1.22637
1.22877
1.23652
1.22532
1.23564
1.24709
1.2303
1.22506
1.22516
1.22727
1.22501
1.22542
1.22509
1.22685
1.22501
1.22505
1.22524
1.22591
1.22501
1.225
1.22504
1.22502
1.22511
1.22534
0.188736
0.8215
0.151798
0.241131
0.305039
0.17405
0.172658
0.395236
0.556689
0.184252
0.160595
0.163087
0.178986
0.175269
0.15767
0.160363
1.43041
0.487159
0.158824
0.700622
0.209529
1.42565
0.998399
0.170244
0.179805
0.157251
0.156239
0.168956
0.158523
0.161105
0.167686
0.212135
0.225341
0.162615
0.160412
0.171271
0.176009
0.169279
0.172574
0.228559
0.184603
0.322253
0.191278
0.297356
0.168945
0.266195
0.222707
0.154544
0.158293
0.174553
0.187972
0.144837
0.156738
0.146514
0.175315
0.18115
0.21507
0.279739
0.181686
0.170867
0.24397
0.192223
0.441168
0.220889
0.328008
0.441494
0.859048
0.769598
0.237197
0.536478
0.253602
0.481718
0.431092
0.901546
0.793498
0.254466
0.662727
0.324908
0.52605
0.370919
0.696527
0.414804
0.162543
0.225862
0.242123
0.448515
0.51009
0.231377
0.65539
0.298552
0.427987
0.579572
0.971203
0.231983
0.658979
0.318142
0.786351
0.420443
0.582795
0.946979
1.04198
0.846163
0.460866
1.22893
0.99613
0.785086
1.11873
0.760308
1.21321
1.05802
0.86811
0.510661
0.793454
1.1018
1.15147
1.12248
0.766907
0.926901
1.49867
1.24208
1.2241
1.19602
1.73748
1.40265
1.08476
1.58887
1.32973
1.31095
2.82322
2.56914
1.85007
1.09554
2.73023
2.65117
1.33085
2.90857
0.967491
1.24683
1.43586
1.32989
1.51735
1.68329
1.75982
1.225
2.0357
1.71687
1.5114
1.41304
1.60474
1.86801
1.50112
1.94969
1.57261
2.52251
2.03825
2.13668
2.6201
2.00691
2.60723
2.07368
2.74878
2.30188
2.3784
2.77042
2.80312
2.65941
2.31319
2.66361
2.16871
2.49783
2.79552
2.49855
1.82848
2.36086
2.1118
1.67005
2.28648
2.75334
2.66122
2.91645
2.66747
2.7341
2.55398
2.80772
2.93971
1.97592
2.92159
2.91436
2.82368
2.33604
2.76725
2.95227
1.87865
1.28978
1.87536
2.5061
1.22508
1.22566
1.34274
1.37975
2.64693
2.66013
2.87526
2.87431
2.06918
1.22563
1.22502
2.25305
1.22538
2.18945
1.22794
1.22526
1.63422
2.91558
1.92357
1.22538
1.43882
2.96674
1.22501
1.30892
2.8737
2.32029
2.29507
2.82366
2.8181
3.03483
3.01908
2.87808
2.2958
2.33237
2.82564
2.81628
3.03358
3.01591
2.42479
2.57038
2.87536
2.96531
2.98499
2.99987
2.96392
1.22504
1.22505
1.225
1.2704
3.11732
1.225
1.24622
1.95582
2.655
2.64235
2.63822
2.03428
2.60884
1.7613
1.26099
1.35602
1.22999
1.225
1.22506
1.27616
1.2251
1.225
1.24758
1.74495
1.2252
1.225
1.23312
1.22501
2.7587
3.09116
3.0512
3.05802
3.04607
2.85
2.53718
2.52292
1.5263
2.61261
1.80549
2.523
1.52615
1.32433
2.09461
2.47721
2.93543
2.14993
2.95594
2.53387
1.4021
2.71355
3.02332
3.03805
2.70805
1.57266
2.6418
1.63559
1.58685
2.65895
3.02617
2.71642
3.03885
2.71266
1.63972
2.14145
2.9539
2.92996
2.52658
1.37095
2.45361
1.39882
2.58028
1.34551
2.30428
2.01416
2.46873
1.45252
1.27562
3.01462
2.23588
2.98896
1.45812
2.50344
2.24123
1.34089
2.89385
1.71
2.82596
1.32353
2.30075
2.04287
1.27707
3.13596
2.97776
2.9158
2.48638
2.39929
1.9242
1.38699
1.79224
2.86852
1.62049
2.93724
2.74078
1.28271
2.78436
2.63427
2.09884
2.194
1.50414
1.95707
1.26791
3.03032
2.79913
1.27756
1.57495
1.82524
1.86146
2.1021
2.13186
2.42188
2.39852
1.69482
2.06169
1.93649
2.32498
2.20434
2.49219
2.61944
1.94334
2.2595
2.50671
2.54499
2.78118
2.72891
2.90576
2.77938
2.98911
2.24897
2.78945
2.28251
2.79226
2.97209
2.62727
2.71662
2.74103
2.59613
2.64138
2.80484
2.80077
2.51926
2.84166
2.37016
2.83706
2.91501
2.95531
2.9098
2.67376
2.59789
2.67505
2.30848
2.50263
2.8127
2.82973
2.54017
3.01628
2.84921
2.86755
2.88421
2.917
2.66593
2.72269
3.04974
2.93266
2.78
2.95895
2.91902
2.40375
2.40872
1.96165
2.80185
1.99567
2.79001
2.63852
1.55103
2.17974
2.87741
1.41448
1.45372
2.55521
2.85339
2.4798
2.9267
2.44371
2.98684
2.73789
2.26126
1.57612
1.31305
1.67951
2.03234
1.3463
1.92919
2.31635
2.81129
2.72243
1.32723
2.97214
2.33159
1.76502
2.90271
3.04612
2.66272
1.22606
1.23035
1.35065
1.22719
1.28158
1.29875
1.25531
1.23647
1.27319
1.97392
1.29644
1.51058
2.59252
2.14151
1.74473
1.63831
2.19626
1.30852
1.22895
1.24841
1.24204
1.83355
2.57506
2.88308
1.85147
1.23652
1.45687
1.26799
1.47269
2.28232
2.66234
1.69858
1.23119
1.39402
1.24634
2.1965
1.30862
1.63868
1.34288
1.24842
1.24206
1.22896
1.23015
1.35614
1.24571
1.41776
1.65724
2.49915
2.02096
1.22509
1.2251
1.225
1.225
1.22501
1.225
1.225
2.82963
1.26351
1.26635
1.62017
1.58077
1.24563
1.22679
1.2251
1.22626
1.22538
1.23738
1.25995
1.23737
1.22844
1.24368
1.23712
1.5108
1.55275
1.22579
1.23918
1.24707
1.54783
1.22578
1.24273
1.23644
1.49689
1.23895
1.24676
1.22505
1.22513
1.22563
1.24452
1.22941
1.23372
1.22675
1.94136
1.23175
1.38498
1.22723
1.27615
1.23291
1.2253
1.72152
1.22868
1.33201
1.22633
1.26441
1.2314
1.2252
1.23723
2.44346
1.51369
1.25379
1.5256
1.23765
1.22602
1.23607
1.23229
1.40699
1.3174
1.22517
1.23013
1.22851
1.22628
1.23091
1.37573
1.22552
1.24056
1.22836
1.2251
1.80633
1.2366
1.39652
1.22702
1.25684
1.23202
1.22541
1.36467
1.228
1.2476
1.22568
1.22974
1.22568
1.22508
1.22893
1.22512
1.22654
1.23589
1.22596
1.2524
1.4914
1.2957
1.22654
1.24127
1.22523
1.22734
1.22548
1.22504
1.22502
1.22791
1.22574
1.22501
1.22551
1.22511
1.225
1.225
1.22508
1.22501
1.22791
1.22511
1.22574
1.22551
1.26097
1.22506
1.22544
1.22532
1.23501
1.22676
1.22625
1.22779
1.2279
1.22884
1.22515
1.22515
1.22511
1.22501
1.22635
1.22544
1.23959
1.22572
1.225
1.22506
1.22502
1.22665
1.22571
1.24456
1.22585
1.225
1.22507
1.22503
1.2254
1.22501
1.22515
1.22541
1.225
1.22503
1.22501
1.22699
1.22643
1.24982
1.22587
1.225
1.22505
1.22506
2.58751
2.56677
1.78566
1.74564
2.58851
2.62626
1.27231
1.26624
2.59911
2.564
2.59543
2.57385
2.58445
2.60143
2.57241
2.56399
2.55866
2.56542
2.60443
2.57704
2.59919
2.58007
2.56409
2.6169
2.58821
2.62065
2.62064
2.60931
2.63151
2.617
2.62355
2.64571
2.64548
2.61913
2.62443
2.63055
1.82644
1.27314
1.82619
1.27169
1.82814
1.82784
1.27234
1.26695
1.26593
1.77854
1.81908
1.27137
1.81703
1.27155
1.77139
1.26515
1.26194
1.26571
1.77834
1.80435
1.26923
1.26643
1.7869
1.78722
1.81345
1.26952
1.81545
1.26984
1.26354
1.2427
1.2573
1.23726
2.60737
2.6192
2.65956
2.66789
2.59054
2.59472
2.62829
2.62245
2.62061
2.55232
2.55666
2.60733
2.544
2.57439
2.63078
2.62229
2.53719
2.50877
2.64301
2.66326
2.64095
2.50522
2.445
2.51126
2.43582
2.65066
2.6602
2.64383
2.48583
2.36662
2.40926
2.45348
1.12405
2.21826
2.13872
1.84948
0.418646
0.335015
0.26688
0.249225
0.248315
0.259253
0.261799
0.477632
0.484428
0.517652
0.529371
0.253996
0.287931
0.270086
0.55059
0.505532
0.559656
0.616177
0.324999
0.71267
0.281216
0.286283
0.589418
0.607774
0.740295
0.999935
1.84312
0.985048
1.90787
1.06708
1.0891
1.92172
0.361159
0.327946
0.299719
0.650002
0.898605
0.800449
0.726352
1.93255
1.87637
1.04358
1.14194
2.01649
1.95686
1.22877
1.36336
2.01045
1.19194
1.22022
2.15034
2.02587
1.39327
1.27959
2.11648
2.17794
1.53565
2.06211
1.45095
1.37058
1.26322
1.75834
1.7611
1.71023
1.2586
1.25789
1.7166
1.70529
1.26156
1.74356
1.25108
1.68771
1.25548
1.64484
1.54904
1.24211
1.63604
1.25104
1.25032
1.64373
1.54103
1.24408
1.24021
1.61124
1.47356
1.24798
1.5157
1.5665
2.6581
1.34542
1.64088
2.63912
1.23036
2.02723
1.23934
2.64857
2.62243
2.50132
2.64136
2.64632
2.4627
2.43659
2.38728
2.29699
2.18956
2.62929
2.65106
2.64256
2.39712
2.30866
2.65253
2.64315
2.64749
2.17724
2.33727
2.27425
2.09128
0.379315
2.13369
2.11279
0.528515
1.9656
0.805135
2.13385
0.37807
1.91846
2.9488
2.0512
2.63568
0.943789
2.96593
2.20598
2.64629
2.26721
0.491232
2.02125
2.98112
1.33072
2.58402
1.24614
1.94592
2.03312
0.990443
2.34302
2.16713
3.14227
1.58408
0.348808
0.334854
0.310975
0.837375
0.755245
0.685576
0.762817
2.97176
2.97416
1.711
1.20255
1.37987
0.763992
2.13006
0.837539
0.755712
0.344628
0.335793
0.31096
0.756175
0.685197
0.390982
0.463646
0.341595
0.739836
0.968902
0.810619
0.898234
0.968321
0.517404
0.382216
0.461954
0.340532
0.739795
0.901402
2.95489
1.30738
1.45197
2.72897
1.34134
2.40177
2.41544
0.99506
0.899244
0.444243
0.708701
0.642493
1.11342
1.23545
1.54627
0.671231
1.2639
0.92913
1.23379
1.51995
1.75684
1.34121
1.67268
2.09067
2.09759
1.47957
1.79491
2.13201
1.10246
0.652976
0.493303
0.840885
0.692845
1.13546
1.25159
1.25319
2.4317
1.23514
2.60859
1.22719
2.18178
1.23596
1.44641
2.05735
1.36503
1.24894
1.97542
1.32576
1.92141
1.98467
1.45489
1.32569
2.06141
1.36761
1.24934
1.92166
2.19498
3.02312
3.68758
2.39893
2.19008
3.50666
1.80564
3.01059
2.93879
1.90817
3.31972
1.59009
2.81561
1.39939
0.759939
1.07241
0.700414
1.01492
1.14055
1.40366
1.44776
0.6998
1.06629
1.01233
1.19452
1.13845
1.40074
1.43506
1.01194
1.20175
0.916719
1.35308
1.7262
1.50236
1.57009
1.26136
1.80146
1.53231
1.95352
1.7735
1.9517
2.0738
1.26583
1.91108
1.43984
1.9334
1.32996
1.86777
1.39031
1.97245
1.3336
1.44963
1.26733
1.93271
1.86723
1.39239
1.06223
1.18871
0.945002
1.33046
1.52775
1.49902
1.38733
0.896456
1.18239
1.06557
1.29452
1.40683
1.51783
1.59478
2.10511
1.61023
1.46489
1.63233
2.44366
1.7929
2.26479
2.4063
2.47746
1.89935
2.62032
2.05488
2.14982
2.49245
2.1366
1.81351
1.65204
1.91052
2.19398
2.00766
2.16735
2.78101
1.57713
1.22602
2.88425
1.49143
1.76434
2.79009
2.05684
1.45453
1.54517
1.58839
2.17705
2.15544
1.65076
2.13029
2.18799
2.22069
2.03333
2.26372
2.25652
2.17369
1.6213
2.10389
1.57585
1.82676
2.42459
2.40108
1.86314
1.68551
1.36822
1.33256
1.69876
2.24681
1.72517
2.21733
1.72314
1.68777
1.33584
1.70082
2.25511
1.73642
2.21688
1.60894
2.10534
1.57408
1.8259
2.42399
1.85388
2.40318
1.22321
1.49928
1.38744
1.65058
1.50364
1.70953
1.92431
1.96006
2.01824
2.06065
2.15688
2.1675
2.32575
2.5128
1.44884
1.86105
1.71907
1.987
1.83361
2.26431
2.41977
2.61866
2.6451
2.65913
2.52121
2.4902
2.45552
2.41115
1.8222
2.67686
2.24831
2.73444
1.98525
2.08201
2.47084
1.79664
1.9157
1.52703
2.35271
1.80727
1.92243
2.50875
1.9332
2.2009
2.01502
2.20878
2.08226
2.14704
2.21431
1.38389
1.63048
1.61645
1.75823
1.72955
2.13366
2.16455
2.67298
1.36716
1.68249
2.63249
2.59837
1.71844
2.23704
1.23894
2.60548
2.52483
2.59598
2.63132
2.53726
2.48549
2.46833
2.59255
2.63514
2.63236
2.54078
2.54625
2.49378
2.4831
1.74383
2.34719
2.57754
2.00841
1.96981
2.33282
1.78634
2.113
2.30253
2.23639
2.40886
2.18211
2.32695
2.20867
2.83428
2.41173
2.20433
2.24379
2.78935
2.34084
2.60874
1.69559
2.32624
1.79308
2.49464
1.93829
2.06347
2.62111
2.33528
2.65911
2.66028
2.65109
2.21813
2.66027
2.33534
2.65675
2.68396
2.66294
2.39995
2.23183
2.37904
2.25717
2.68064
2.39035
2.66365
2.68789
2.66606
2.40626
2.26048
2.17331
2.19424
2.08218
2.24018
2.31075
2.41114
2.23266
2.82638
2.2987
2.1597
2.85742
3.65019
3.26557
3.07779
1.70829
1.76819
1.92718
2.08845
2.2881
2.36936
2.73907
2.49202
2.37968
2.22111
2.59493
3.67736
2.98135
3.0669
2.25167
2.79413
2.98918
2.79163
2.78615
2.28562
2.7815
2.25371
2.98934
2.79146
2.79398
2.28243
2.78741
2.78349
2.50733
2.19412
1.94402
2.2607
2.90545
2.54526
2.78172
2.11057
1.81725
1.629
2.12009
2.9426
2.4289
2.71567
2.66966
2.35107
2.66255
2.66078
2.66443
2.28961
2.09242
2.26175
2.53086
2.25205
2.35609
2.50717
2.71887
2.30245
2.76799
3.04659
2.50918
2.77933
3.79
3.3349
3.27239
2.66001
2.9978
2.4685
2.92123
3.54885
3.19424
3.14114
2.65445
2.05249
2.03249
2.68651
2.9918
3.05567
2.67647
2.83405
2.3473
2.32359
2.74764
2.9124
2.97562
2.73947
1.20929
0.829573
2.34075
2.10142
2.00569
1.87487
1.9141
0.838156
0.51994
0.457909
0.759291
1.27446
1.08604
1.35353
0.998618
1.37684
0.522551
1.08669
0.459768
0.76278
1.28057
0.998979
1.92473
1.94121
1.17853
1.49739
1.96273
1.52601
1.9825
1.2429
1.57409
2.04764
1.96749
1.18867
1.51229
2.01052
1.81827
1.73985
2.28254
2.29747
1.87548
2.26258
1.65906
2.33047
2.36937
1.7504
1.82972
2.30444
2.27621
1.66179
1.80902
2.00019
2.07235
2.1152
1.82039
2.07143
2.01869
2.08485
2.12868
2.17626
1.82521
2.14048
2.08818
2.04686
2.61124
1.78382
2.58705
2.62043
2.63254
2.17484
1.96386
2.83858
2.84347
2.37309
2.52136
2.91382
2.9103
2.93803
1.76144
2.63811
2.03434
2.64227
2.65503
2.1895
1.95582
2.1525
3.08659
2.64308
3.10402
2.79618
3.06309
3.10692
1.25483
1.24619
1.59329
1.70662
1.25732
1.2479
1.61453
1.25845
1.24846
1.25711
1.24724
1.70624
1.60757
1.62193
1.25066
1.24298
1.55389
1.24523
1.23882
1.58088
1.4983
1.24411
1.66986
1.57037
1.23972
1.24741
1.61097
1.51382
2.5351
2.58168
3.29801
2.70925
2.82544
2.98414
2.39298
2.24709
3.03282
2.63517
3.03867
2.8209
3.03759
3.05688
2.53998
2.91678
2.84898
2.86815
2.86865
3.01627
2.66631
2.72346
2.77798
2.91815
3.04886
2.9323
2.95839
3.02993
3.14052
3.94849
3.67178
3.8686
3.49623
3.57162
3.74558
3.21827
3.7201
2.36151
3.52868
3.23493
3.61392
3.06655
1.23394
1.23452
1.23077
1.41766
1.35687
1.50526
1.42902
1.24109
1.53303
1.23107
1.23514
1.44277
1.3651
1.44285
3.03066
2.90853
2.14856
2.71658
3.02934
2.86688
2.97356
1.23773
1.48337
1.23119
1.23875
1.23168
1.49989
1.37743
1.23806
1.2317
1.23121
1.36787
1.48949
1.50341
1.37802
1.23566
1.44985
1.23014
1.233
1.22875
1.40173
1.31573
1.23009
1.34515
1.45656
1.22862
1.23316
1.40631
1.31378
3.17745
3.19204
3.04548
3.11047
1.77598
2.76531
2.75509
2.66207
2.90194
3.04559
2.97198
1.32723
1.95716
2.33152
0.229251
0.21872
0.216037
0.216887
0.206224
0.196085
0.216812
0.203453
0.224187
0.228988
0.228859
0.226897
0.227785
0.223052
0.224526
0.219788
0.221041
0.223637
0.21619
0.224696
0.220314
0.216115
0.219481
0.2232
0.215769
0.21473
0.222506
0.220612
0.21324
0.216443
0.219206
0.220181
0.214604
0.219076
0.221381
0.213092
0.237183
0.230285
0.230302
0.22798
0.232901
0.230957
0.231491
0.228713
0.229876
0.23055
0.223164
0.233406
0.228209
0.216533
0.228491
0.229867
0.22772
0.222803
0.231486
0.215304
0.229085
0.22969
0.225031
0.221373
0.220865
0.226867
0.214973
0.227359
0.21026
0.217051
0.213831
0.207345
0.220325
0.211127
0.21255
0.215719
0.212102
0.203213
0.211309
0.216454
0.208853
0.210619
0.206388
0.211773
0.214797
0.21134
0.217015
0.208268
0.209199
0.200399
0.211622
0.20231
0.199279
0.204349
0.20649
0.206782
0.231104
0.189778
0.204815
1.68799
1.71301
1.7114
0.228637
0.241974
1.69093
0.154245
0.19628
0.168705
0.198144
0.190511
0.197737
0.213607
0.237608
0.317209
0.241695
0.32385
0.234528
0.319614
0.322158
0.207734
0.213535
0.205958
0.201402
0.210761
0.204013
0.209555
0.684337
1.68789
1.69598
0.686157
1.69191
0.683086
0.684545
0.209792
0.201782
0.204731
0.197552
0.201349
0.194283
0.205862
0.23125
0.316604
0.316347
0.227964
0.313574
0.228386
0.317478
0.316814
0.226855
0.317914
0.237216
0.227536
0.318283
0.318021
0.193523
0.200931
0.198456
0.194387
0.192795
0.189272
0.196674
0.194381
0.193599
0.195344
0.205896
0.197113
0.190853
0.203462
0.185782
0.191869
0.194768
0.191144
0.18005
0.185003
0.188532
0.688191
0.688133
1.69187
1.68657
0.690849
1.69003
0.685098
0.689382
1.70323
0.692831
1.70255
0.694557
1.69808
0.686296
0.191292
0.186712
0.192301
0.195782
0.189547
0.188702
0.199619
0.307475
0.316607
0.221298
0.22493
0.307806
0.226953
0.31002
0.1667
0.190311
0.186636
0.189524
0.182577
0.193062
0.185707
0.214623
0.215042
0.206469
0.207626
0.199978
0.194266
0.194045
0.197561
0.216889
0.214603
0.215684
0.211244
0.209908
0.210895
0.20932
0.214865
0.215997
0.216966
0.211167
0.20992
0.211043
0.20915
1.73487
0.179009
0.200032
0.205034
0.21185
0.207628
0.212977
0.206902
0.201665
0.206643
0.200024
0.211975
0.204785
0.21297
0.206768
0.201616
0.198308
0.198483
0.196349
0.203655
0.201552
0.203869
0.205593
0.202074
0.199836
0.204018
0.200325
0.198702
0.204003
0.205484
0.316148
1.93903
0.280233
0.232248
0.692237
0.787993
0.33743
0.191007
0.247324
0.21182
0.195888
0.15304
0.210075
0.250939
0.190328
0.192488
0.188886
0.193945
0.197235
0.199249
0.19539
0.189491
0.193454
0.197704
0.194597
0.190456
0.199453
0.195399
0.195433
0.196593
0.19242
0.174935
0.173945
0.170698
0.178927
0.231815
0.233222
0.316492
0.308224
0.210124
0.310552
0.213375
0.229493
0.312493
0.314828
0.306479
0.207159
0.212174
0.306836
0.191623
0.193232
0.188796
0.173794
0.170832
0.177798
0.167687
1.6709
1.68766
0.322481
0.323313
1.68559
0.232037
0.233554
1.70921
0.323198
0.235106
0.240396
0.320753
0.238301
0.319697
0.23825
0.323713
0.240852
0.235234
0.32077
0.238339
0.23827
0.32051
0.691779
1.68623
0.68943
0.685122
1.68356
1.67498
0.684097
0.689508
1.6716
0.692114
0.685968
1.69283
0.685654
1.67854
0.31963
0.232817
0.319722
0.232476
0.233744
0.321831
0.318865
0.320169
0.233351
0.232961
0.322862
0.319522
0.233863
0.323318
0.684375
1.68356
0.686878
1.68458
0.686881
1.68005
0.684173
0.68598
1.70022
1.69264
0.692756
0.68782
0.68928
1.68607
1.71242
0.700665
0.694596
0.71789
1.78207
0.72949
1.75324
0.186169
0.18766
0.180847
0.168132
0.154358
0.165056
0.156871
1.70135
1.70167
0.691424
0.717743
1.7363
0.713808
1.73887
0.177795
0.184319
0.16255
0.186987
0.180471
0.167143
0.156211
0.714608
0.69211
1.7012
1.70363
0.696788
0.696251
1.69408
0.163573
0.187637
0.170268
0.177134
0.179131
0.185066
0.182904
0.332305
0.213372
0.465927
0.260431
0.341098
0.209824
0.435683
0.462395
0.277205
0.210564
0.330667
0.259171
0.208614
0.433708
0.162813
0.169485
0.202699
0.198815
0.166376
0.164327
0.192662
0.164672
0.167039
0.202114
0.162181
0.197855
0.163386
0.192106
1.79301
0.947091
1.86761
0.778236
1.8773
0.925944
1.79832
0.165084
0.169274
0.211977
0.229991
0.167805
0.166677
0.200657
0.169345
0.166876
0.213001
0.164705
0.230717
0.166597
0.200597
0.783928
1.85226
0.970509
1.90041
0.804608
0.933657
1.81717
1.37832
1.7664
1.11156
0.172787
2.00791
1.86083
0.314985
0.312054
1.98622
0.323637
2.1363
1.10139
0.180199
0.183048
0.187717
0.300444
0.243404
0.884531
0.955679
0.314713
0.218826
0.22842
0.206553
0.314236
0.326533
0.209284
0.180452
0.184712
0.192548
0.167698
0.164823
0.165872
0.162387
1.77567
0.285752
0.390668
0.986175
2.11829
0.704251
2.40142
1.81041
0.727394
0.710663
1.8219
0.749292
0.782391
1.87147
0.158867
0.182694
0.17336
0.152817
0.160585
0.161966
0.163
2.32706
2.1856
2.18506
1.97125
0.435737
2.17067
1.46676
2.00714
1.17887
2.26166
0.225034
0.265462
1.23473
1.16737
0.175359
0.166289
0.169495
0.233123
0.182885
0.177566
0.223051
0.3426
0.222327
0.209251
0.362979
0.301976
0.468668
0.228763
0.176841
0.229771
0.172642
0.32315
0.196029
0.189164
0.299905
0.220335
0.541088
0.360961
0.413543
0.438876
0.711414
0.252889
0.755334
1.91152
0.806241
0.842036
1.98692
0.960132
1.92535
0.176549
0.158954
0.162995
0.180489
0.286099
0.235449
0.194292
0.181485
0.243232
0.17306
0.19535
0.442436
0.328445
0.222579
1.89837
1.03925
0.843251
0.912645
2.03717
1.15207
1.95121
0.317481
0.340558
0.618687
0.40811
0.710002
0.766591
0.88395
0.547232
0.593586
0.718277
1.3714
0.854702
1.00926
0.343226
0.446327
0.536518
0.258374
0.244422
0.806069
0.413611
0.491128
0.286751
0.502633
0.529539
0.716166
0.759816
1.19661
0.948959
0.216155
0.379104
0.401112
0.354872
0.374746
0.701506
0.75648
0.262502
0.597922
0.689674
0.841034
0.458504
0.54207
0.337169
0.226114
0.519344
0.394058
0.544338
0.41465
0.739207
0.862889
1.03451
2.0765
2.08792
1.54187
1.22218
1.32982
2.01036
0.543218
0.748614
0.542903
1.05528
0.856717
1.05504
1.24177
0.918169
2.05469
2.06308
1.12931
1.15952
1.43033
2.13864
0.471047
0.846003
0.592871
1.22539
0.974173
1.11183
1.34054
1.23388
2.08806
1.34727
2.12408
1.40516
1.51395
2.19092
1.59686
0.932161
1.17322
1.59686
1.66205
1.8154
1.37787
1.00457
1.69397
1.26421
1.62667
1.72028
1.88454
1.39929
1.07072
0.74317
0.689344
1.07049
1.48261
1.36071
1.17855
0.80127
1.12201
0.738702
1.0784
1.52045
1.18463
1.3887
1.9243
0.771581
1.18393
2.60083
1.70356
2.41042
1.57601
2.82691
1.40029
1.12462
0.949775
0.862696
0.555696
2.13836
1.9067
0.334438
1.92323
0.363426
1.75971
0.324074
0.75678
0.181237
0.179773
0.194156
0.182937
0.198241
0.178416
0.319572
0.232236
0.233016
0.228914
0.316442
0.312354
0.213749
0.195691
0.194608
0.191172
0.192681
0.187798
0.172606
0.176161
0.811104
1.35794
0.978617
0.214742
0.82545
0.253671
0.151023
1.80055
0.707544
0.718522
1.80224
0.719681
0.74344
1.8562
0.18679
0.190647
0.186703
0.171762
0.182989
0.168179
0.158772
2.19274
2.00923
0.548738
2.16743
2.07503
2.32731
2.1474
1.18539
0.33681
0.258622
1.72916
1.49995
1.63108
1.72122
0.221417
0.310975
0.215665
0.334577
0.2836
0.221415
0.42653
0.228879
0.209198
0.315176
0.342943
0.302424
0.469622
0.222354
0.176513
0.178531
0.174775
0.176484
0.22262
0.181205
0.214225
0.177573
0.169471
0.166292
0.175339
0.233196
0.223016
0.180182
0.147442
0.172723
0.147824
0.162517
0.163098
0.166625
0.219109
0.791419
1.85782
0.741
0.791349
1.96602
0.905297
1.90607
0.841948
1.85802
0.754695
0.806073
1.98581
0.960755
1.90984
0.177233
0.158581
0.170072
0.1772
0.2603
0.179757
0.223333
0.18044
0.15888
0.162983
0.176505
0.285883
0.23533
0.182966
0.32031
0.187975
0.182745
1.73583
1.69598
0.237556
0.320468
1.73119
1.805
0.316379
0.200462
0.206379
0.204417
0.19231
0.195919
0.176207
0.158822
0.241394
0.322349
0.319059
0.240575
0.32161
0.319457
0.235309
0.21327
0.208045
0.21318
0.202212
0.210304
0.20939
0.204793
0.2043
0.828834
0.184556
0.186528
0.309297
0.163132
0.175737
0.686236
0.689964
1.70627
1.70507
0.685819
0.686167
1.71831
0.197825
0.202173
0.209644
0.198075
0.200966
0.205768
0.194299
0.325154
0.230703
0.231173
0.320158
0.237036
0.319688
0.230713
0.321899
0.233444
0.234416
0.23286
0.320565
0.319575
0.231676
0.19848
0.196981
0.194941
0.197019
0.205706
0.203456
0.200519
0.193332
0.199758
0.197368
0.199057
0.202449
0.196722
0.199982
1.76242
0.697976
0.708314
0.698126
1.71773
0.689557
1.73698
1.76146
0.70748
0.698666
0.698459
1.71582
0.691605
1.73523
0.187017
0.181812
0.191747
0.188447
0.195698
0.192646
0.189322
0.198409
0.192667
0.194824
0.179646
0.189241
0.176599
0.169501
0.189963
0.192614
0.191269
0.192637
0.194928
0.199426
0.189976
0.312219
0.213822
0.229039
0.319545
0.23307
0.323902
0.232276
0.172623
0.187813
0.192712
0.195705
0.191182
0.194645
0.198285
0.188367
0.15787
0.157074
0.192764
0.156352
0.157681
0.208466
0.720308
1.85784
0.743805
1.80151
0.718733
0.707936
1.76187
0.168195
0.171779
0.182996
0.178426
0.186707
0.190672
0.186809
0.17458
0.161011
0.181391
0.144064
0.161747
0.151063
0.149751
0.157025
0.184674
0.189957
0.171755
0.18469
0.157056
0.147431
0.247307
0.164516
0.157681
0.164482
0.341707
0.185693
0.247196
0.224953
0.175635
0.159431
0.167144
0.408875
0.200699
0.263401
0.147869
0.151043
0.172769
0.14741
0.219074
0.162504
0.166616
0.436238
1.19734