/*--------------------------------*- C++ -*----------------------------------*\
  =========                 |
  \\      /  F ield         | OpenFOAM: The Open Source CFD Toolbox
   \\    /   O peration     | Website:  https://openfoam.org
    \\  /    A nd           | Version:  9
     \\/     M anipulation  |
\*---------------------------------------------------------------------------*/
FoamFile
{
    format      ascii;
    class       volVectorField;
    location    "0.0008";
    object      rhoU;
}
// * * * * * * * * * * * * * * * * * * * * * * * * * * * * * * * * * * * * * //

dimensions      [1 -2 -1 0 0 0 0];

internalField   nonuniform List<vector> 
7331
(
(-111.769 464.676 -369.334)
(-6.78556 64.7629 -11.4336)
(-709.41 496.61 -626.579)
(-140.64 100.712 -35.3759)
(-726.095 1142.57 -659.731)
(-102.807 160.948 -14.8524)
(-117.072 1192.73 -691.837)
(-14.577 166.654 -17.4045)
(-125.663 297.866 -36.3104)
(-51.6071 210.871 60.0185)
(-286.831 483.573 -483.198)
(-108.564 704.495 -545.491)
(-128.578 214.235 9.88949)
(-45.2253 298.641 -14.8153)
(-298.421 712.789 -604.027)
(-59.0128 141.772 -38.5981)
(-11.8577 91.611 -43.0015)
(-48.5326 62.4092 -10.6023)
(-4.91069 108.423 -8.58207)
(-57.7885 97.7482 -39.78)
(-19.0745 140.059 -42.3379)
(-43.8523 105.483 -19.8086)
(-105.489 75.1965 -18.4163)
(-99.7796 142.481 -35.8753)
(-73.9701 74.3886 -19.3639)
(-105.139 105.663 -17.6101)
(-99.3025 100.326 -36.3166)
(-75.2435 106.726 -18.487)
(-140.272 141.837 -33.7563)
(-19.6575 224.631 -33.3457)
(-59.5533 184.81 -34.6532)
(-14.1965 135.014 -19.2283)
(-44.3604 167.548 -16.6572)
(-19.2348 183.312 -37.6853)
(-60.7385 224.953 -31.8241)
(-44.6527 138.328 -18.2938)
(-21.1404 76.3088 -30.0931)
(-7.35378 63.1433 -29.6436)
(-21.5275 62.6828 -10.9698)
(-6.3537 78.8582 -10.2721)
(-21.212 76.7082 -9.80637)
(-22.2413 62.0559 -30.0695)
(-6.62242 77.5752 -30.1518)
(-17.9028 86.4502 -48.3236)
(-7.17268 71.096 -51.2835)
(-30.0766 93.1339 -40.4287)
(-11.7802 125.66 -40.4035)
(-37.1447 128.325 -39.0257)
(-17.3807 72.0397 -49.7233)
(-6.03337 85.017 -49.3993)
(-35.7283 85.0965 -30.3582)
(-36.0161 65.0654 -12.2315)
(-52.4986 66.3438 -29.349)
(-49.4852 77.9452 -6.78617)
(-33.7466 78.4793 -9.63298)
(-39.1091 70.1186 -29.8672)
(-53.7556 83.7681 -31.0918)
(-20.8907 93.1759 -26.9874)
(-7.26961 92.7278 -11.757)
(-5.19071 113.916 -30.3318)
(-21.3565 104.555 -7.16543)
(-19.6271 90.7403 -11.5628)
(-23.3416 109.538 -29.8519)
(-7.60006 93.802 -26.996)
(-292.668 207.171 -45.0368)
(-208.516 294.604 -47.9572)
(-493.102 490.196 -571.2)
(-718.517 714.873 -656.523)
(-208.947 209.12 -26.9382)
(-505.937 713.463 -638.522)
(-292.595 292.45 -51.8078)
(-100.501 183.261 -32.2164)
(-104.133 135.648 -15.9343)
(-140.895 218.757 -28.4884)
(-74.0652 165.269 -15.6597)
(-101.596 221.842 -29.5246)
(-74.6511 137.423 -17.2505)
(-140.584 180.897 -27.3225)
(-45.4482 480.076 -55.1077)
(-126.139 385.943 -50.8408)
(-111.969 952.077 -640.39)
(-317.97 1170.66 -685.463)
(-44.5404 391.086 -44.6151)
(-127.38 471.698 -54.3925)
(-308.132 945.3 -659.451)
(-209.058 380.526 -52.4019)
(-723.589 931.553 -666.812)
(-293.116 462.266 -45.3817)
(-521.619 1155.02 -677.322)
(-209.934 465.726 -51.1724)
(-514.367 936.642 -667.176)
(-292.396 377.258 -48.4765)
(-0.00209029 -0.00454195 0.015281)
(-4158.43 -439.3 323.356)
(-363.661 -41.4037 68.215)
(-35.4569 -2.7977 8.45327)
(-1.21505e-05 -1.37984e-05 3.51227e-05)
(-3772.61 -2579.97 386.312)
(-4077.4 -709.649 327.611)
(-131.094 -88.4623 46.1647)
(-242.816 -48.1908 45.3269)
(-0.000156338 -5.94859e-05 1.77476e-05)
(-22.9492 -3.34765 5.212)
(-0.00331315 -0.000264142 0.00142522)
(-0.000108563 3.47933e-06 7.53976e-05)
(-1251.99 -146.025 476.108)
(-3179.28 -312.018 506.027)
(-3089.94 -316.159 650.515)
(-2885.14 256.98 670.539)
(-3229.76 314.803 212.162)
(-1349.38 108.396 518.258)
(-4133.61 361.11 315.988)
(-88.7697 -7.88181 15.9773)
(-2579.77 -292.457 432.426)
(-2221.33 -250.851 375.234)
(-2550.27 239.453 448.931)
(-237.452 20.6853 23.7206)
(-2167.65 227.468 525.239)
(-92.1845 7.46968 16.9677)
(-3.32653e-05 -4.05558e-05 0.000117593)
(-974.462 -194.394 380.726)
(-3234.28 -528.493 515.103)
(-3172.5 -532.821 670.827)
(-2920.79 -1110.23 251.499)
(-84.5053 -30.603 37.2124)
(-3434.16 -1310.85 233.656)
(-3234.2 -1394.33 981.03)
(-56.391 -9.1966 9.45648)
(-2636.59 -496.076 440.001)
(-2243.49 -424.791 370.891)
(-2.35578 -0.623771 0.287523)
(-11.57 -3.42907 2.04171)
(-2692.61 -1214.39 477.72)
(-2020.07 -927.85 463.367)
(-0.0998901 -0.00587061 0.0339346)
(-0.102425 0.00540074 0.0347041)
(-2224.59 -252.464 739.381)
(-1108.09 -127.085 705.753)
(-107.682 10.2099 60.0859)
(-1537.4 153.871 653.596)
(-9.12421 0.602016 2.36942)
(-0.0581643 -0.00638883 0.0196518)
(-2217.69 -431.608 740.641)
(-888.386 -188.736 566.023)
(-0.00162058 -0.000323851 0.00053465)
(-0.835552 -0.202215 0.145471)
(-1837.38 -846.078 611.022)
(-64.8262 -26.3349 36.0064)
(-2927.2 -325.606 663.331)
(-2859.65 -131.09 649.816)
(-3022.02 -123.887 649.849)
(-3712.05 -161.639 896.378)
(-3407.01 -404.629 902.009)
(-3401.95 -156.957 891.066)
(-3757.63 -412.942 917.373)
(-3024.82 268.456 649.575)
(-2841.58 67.8447 658.578)
(-2995.24 77.1816 654.557)
(-3689.43 83.7825 900.253)
(-3400.56 311.459 918.696)
(-3706 328.789 906.306)
(-3395.52 75.2854 904.794)
(-2345.04 -264.732 333.325)
(-2519.65 -111.965 428.222)
(-2302.61 -96.3968 334.769)
(-2454.76 -93.0883 300.801)
(-2850.81 -339.862 461.471)
(-2864.71 -122.196 469.683)
(-2437.45 -281.3 290.323)
(-2506.56 65.987 439.074)
(-2319.75 228.828 346.65)
(-2292.17 66.5894 342.845)
(-2446.81 68.6046 309.908)
(-2859.22 276.351 493.058)
(-2428.4 244.768 308.415)
(-2863.06 71.7314 485.958)
(-3349.54 -322.535 217.381)
(-3292.46 -104.219 215.04)
(-3121.64 -110.399 506.35)
(-3596.79 -142.485 606.603)
(-3589.02 -361.85 227.66)
(-3660.48 -381.454 622.475)
(-3532.18 -125.64 223.621)
(-3089.68 293.839 496.497)
(-3246.52 103.562 213.098)
(-3085.67 91.9747 506.962)
(-3560.5 92.5458 603.582)
(-3482.16 331.193 220.167)
(-3568.01 329.043 599.949)
(-3492.68 101.721 221.8)
(-2192.06 -247.647 524.284)
(-2167.27 -84.4822 519.331)
(-2188.96 -88.6535 375.73)
(-2293.52 -81.7465 354.481)
(-2160.01 -235.692 485.87)
(-2178.96 -72.4615 493.147)
(-2278.34 -256.586 345.144)
(-2193.89 223.632 382.715)
(-2158.27 69.8051 521.685)
(-2178.76 66.933 380.422)
(-2283.2 67.2487 358.769)
(-2144.04 218.217 488.074)
(-2260.58 231.41 354.786)
(-2170.15 64.5281 494.13)
(-3004.58 -546.699 695.922)
(-3103.8 -812.197 759.434)
(-3282.01 -789.799 725.135)
(-3375.15 -654.66 930.931)
(-3787.49 -676.188 968.148)
(-3810.49 -961.357 1052.88)
(-3312.01 -901.474 977.491)
(-3391.24 -553.74 213.342)
(-3411.15 -795.854 212.737)
(-3287.51 -768.341 533.503)
(-3645.68 -609.695 230.627)
(-3720.93 -631.311 656.09)
(-3792.46 -904.422 707.089)
(-3713.57 -877.478 239.654)
(-2373.48 -449.117 325.883)
(-2694.66 -736.149 450.397)
(-2397.43 -658.899 314.921)
(-2786.25 -552.518 448.479)
(-2361.8 -463.104 267.254)
(-2222.68 -616.695 234.393)
(-2663.15 -742.161 429.101)
(-1002.85 -705.705 548.17)
(-25.5621 -10.9305 1.36312)
(-0.0353422 -0.0112453 0.0132271)
(-1976.45 -889.245 170.86)
(-18.9575 -6.21122 8.11723)
(-3506.01 -1605.82 254.432)
(-3161.52 -1610.5 1113.25)
(-0.00269178 -0.00097603 0.000588763)
(-0.000465309 -0.000185725 5.69358e-05)
(-18.4818 -10.9969 2.95516)
(-0.451027 -0.118445 0.0513766)
(-2.18791 -0.622899 0.400252)
(-2480.85 -1318.17 467.884)
(-1652.44 -898.125 368.726)
(-2204.45 -422.092 525.501)
(-2214.15 -611.923 527.369)
(-2263.58 -620.316 365.114)
(-2072.69 -396.838 458.638)
(-2203.75 -427.935 321.682)
(-2058.43 -567.075 285.508)
(-1895.82 -521.048 410.632)
(-8.26375e-06 -2.99728e-05 5.54225e-05)
(-0.114011 -0.406039 0.649702)
(-4.31181 -11.1556 22.6835)
(-83.8129 -592.535 837.715)
(-2.27618 -17.9059 27.0816)
(-1.92366e-06 -4.8916e-05 9.59965e-05)
(-0.000370504 -0.0133986 0.0465027)
(-3416.57 -1045.96 220.72)
(-3446.52 -1318.96 637.413)
(-3350.98 -1031.15 569.144)
(-3871.37 -1202.33 778.345)
(-3894.55 -1483.2 290.454)
(-3941.51 -1522.43 874.155)
(-3794.47 -1167.6 259.903)
(-3194.79 -1108.18 855.486)
(-3555.53 -1416.17 988.037)
(-3419.52 -1087.5 828.418)
(-3794.81 -1247.67 1164.75)
(-2873.8 -1214.62 1038)
(-3689.16 -1493.69 1282.05)
(-3170.74 -1108.66 1024.34)
(-2730.56 -989.347 465.154)
(-2272.88 -1036.76 266.052)
(-2385.08 -869.772 300.295)
(-1959.92 -705.985 194.991)
(-1908.36 -850.296 337.595)
(-2404.76 -865.586 396.657)
(-1465.9 -663.899 142.364)
(-2209.59 -83.4537 732.802)
(-2217.14 -252.806 980.898)
(-2221 -79.9343 980.457)
(-1975.5 -210.748 627.491)
(-2013.23 -62.8231 639.394)
(-1610.48 -47.5085 682.011)
(-1533.81 -164.19 652.426)
(-1967.43 197.238 627.214)
(-2201.94 234.549 974.033)
(-2203.45 234.467 735.963)
(-2200.33 72.2803 732.42)
(-2212.35 70.6824 977.805)
(-2006.78 57.7948 638.7)
(-1608.39 43.8123 681.639)
(-4082.09 -166.383 794.319)
(-3870.02 -416.634 927.789)
(-4001.84 -413.38 269.247)
(-4175.51 -159.205 320.422)
(-3926.87 -154.544 926.012)
(-4112.68 -439.149 812.639)
(-3954.32 -150.465 263.002)
(-6.52354 -3.5403 1.44269)
(-4.01192e-05 -1.5489e-05 1.10255e-05)
(-0.0101482 -0.00462367 0.00375916)
(-0.000320192 -7.25265e-05 0.0001327)
(-0.147586 -0.0370947 0.0234871)
(-1296.05 -715.013 436.079)
(-12.2567 -4.56158 5.75491)
(-3883.79 328.353 916.062)
(-3918.48 355.988 260.519)
(-4055.2 361.009 790.476)
(-4056.56 94.8298 790.819)
(-4159.18 93.4209 318.604)
(-3924.35 78.1464 923.033)
(-3923.6 101.103 261.685)
(-2174.93 -801.894 512.412)
(-2122.73 -972.519 313.058)
(-2249.41 -819.311 352.5)
(-1764.13 -634.496 233.511)
(-992.302 -455.074 215.178)
(-1251.45 -566.346 161.507)
(-1546.99 -562.6 331.333)
(-2183.45 -615.664 734.479)
(-2168.48 -431.246 962.712)
(-2063.13 -592.649 915.975)
(-1845.86 -351.754 585.73)
(-1589.69 -442.528 507.632)
(-1336.63 -262.145 573.556)
(-995.811 -288.844 433.176)
(-3877.77 -168.506 1157.51)
(-2890.49 -320.235 1074.4)
(-2978.2 -346.632 958.593)
(-1391.79 -55.4163 525.787)
(-3004.43 -120.582 1102.27)
(-3055.16 -130.194 974.911)
(-3855.63 -434.691 1173.75)
(-3034.33 258.704 991.633)
(-2964.82 237.101 1090.43)
(-3858.34 333.646 1163.2)
(-3872.32 77.937 1160.25)
(-1423.18 21.5933 541.429)
(-3024.5 49.7135 1109.34)
(-3070.04 56.6772 990.957)
(-1.09099e-05 -1.88634e-05 3.74521e-05)
(-0.000504695 -0.000673839 0.00212733)
(-6.88997e-06 -2.14419e-05 3.95926e-05)
(-0.0480041 -0.144131 0.228777)
(-2.43364 -4.9039 10.6538)
(-2.64912 -3.61733 7.02915)
(-0.000505771 -0.00113314 0.00160544)
(-1650.38 -52.8931 168.917)
(-221.057 -23.3539 20.3359)
(-1997.43 -229.637 325.439)
(-427.601 -14.1896 81.1862)
(-260.481 -7.153 24.9758)
(-2100.74 -77.6298 345.603)
(-1561.07 -172.473 155.279)
(-3713.94 -656.311 929.273)
(-4053.57 -686.223 282.621)
(-4122.75 -716.344 852.597)
(-4115.93 -1005.01 908.78)
(-3898.55 -951.228 323.685)
(-3431.9 -843.025 908.351)
(-4122.57 -984.025 305.589)
(-1598.05 150.294 171.379)
(-397.423 33.7606 78.7823)
(-2058.46 184.06 357.132)
(-1658.1 38.8857 175.865)
(-437.509 7.48837 85.1898)
(-265.012 5.03527 26.2983)
(-2116.31 43.492 359.315)
(-3577.06 -1639.38 745.093)
(-3648.21 -1945.34 293.252)
(-3722.37 -1997.23 890.411)
(-3996.65 -1827.08 332.123)
(-3947.16 -1827.1 976.977)
(-3764.22 -2016.74 1053.02)
(-3976.25 -2118.72 370.132)
(-2635.42 -485.354 1013.63)
(-2790.47 -537.71 930.438)
(-3767.74 -691.818 1210.91)
(-3608.05 -922.737 1249.86)
(-613.307 -169.965 248.498)
(-2208.94 -569.501 892.398)
(-2470.77 -663.358 870.353)
(-2080.93 -777.897 700.228)
(-1380.28 -650.004 617.395)
(-1837.56 -692.334 812.27)
(-587.032 -274.625 196.215)
(-1160.02 -433.172 377.448)
(-552.293 -213.565 242.356)
(-195.218 -86.9868 80.5274)
(-142.263 -26.7495 12.1735)
(-1746.84 -347.352 287.264)
(-1340.35 -264.613 128.903)
(-980.106 -278.338 91.9871)
(-117.195 -29.9829 22.2864)
(-65.7914 -15.7636 5.02083)
(-1342.7 -378.736 229.199)
(-0.00774725 0.000542381 0.00762495)
(-0.00594374 0.000340375 0.00254268)
(-6.77346 0.483853 3.74333)
(-0.00574892 -0.000372299 0.00247373)
(-175.944 -20.2466 121.406)
(-0.00731536 -0.000611041 0.00724465)
(-0.000102772 -4.34395e-06 7.0706e-05)
(-1415.72 -41.2206 192.315)
(-154.962 -15.1326 18.0695)
(-1076.86 -110.709 226.915)
(-106.341 -2.24058 19.6182)
(-184.434 -4.42526 22.3866)
(-1158.65 -31.7756 244.563)
(-1336.07 -141.311 177.808)
(-1092.12 103.741 233.731)
(-164.164 14.1001 20.1826)
(-1359.34 129.053 188.636)
(-1419.77 34.567 196.079)
(-107.315 1.98196 19.9378)
(-186.956 3.61587 23.1123)
(-1161.58 28.6698 246.609)
(-3625.27 -1739.94 1186.38)
(-2867.95 -1647.84 1188.53)
(-3568 -1986.25 1368.46)
(-2307.3 -1140.2 948.018)
(-3434.85 -1634.63 1361.19)
(-2945.33 -1590.82 1307.99)
(-1373.76 -782.498 649.336)
(-107.785 -22.0456 73.0747)
(-0.0043394 -0.000460215 0.00423078)
(-5.96129e-05 -7.13684e-06 4.02083e-05)
(-1.68303e-05 -3.38332e-06 1.03361e-05)
(-0.000150327 -3.958e-05 6.10912e-05)
(-3.70066 -1.10441 2.07492)
(-0.00021657 -7.20031e-05 0.000196634)
(-4035.6 -1278.86 967.547)
(-3546.04 -1109.22 299.591)
(-2234.46 -862.959 681.644)
(-4091.24 -1576.32 356.051)
(-2961.19 -932.475 839.552)
(-3807.72 -1481.01 1004.43)
(-4166.34 -1300.04 333.988)
(-97.4788 -17.3674 10.39)
(-874.231 -168.609 183.201)
(-1126.41 -219.028 145.152)
(-784.546 -221.384 97.9945)
(-27.0945 -5.75222 4.05329)
(-45.0158 -10.2215 4.1419)
(-569.631 -161.433 118.659)
(-1972.24 -222.447 1073.62)
(-1202.78 -36.3455 765.724)
(-2011.93 -66.1735 1095.05)
(-796.566 -22.4597 423.215)
(-105.127 -11.0093 58.6782)
(-708.103 -79.0145 376.061)
(-129.738 -3.12359 73.4373)
(-1119.27 116.095 711.157)
(-716.114 73.6504 380.133)
(-1969.38 204.807 1069.8)
(-1203.48 31.4045 765.788)
(-2006.92 58.4951 1091.89)
(-796.858 20.4283 423.608)
(-130.065 2.7389 73.6237)
(-2014.33 -1086.43 215.05)
(-1884.13 -1147.66 407.478)
(-1382.73 -870.579 143.021)
(-1097.66 -586.827 224.77)
(-739.776 -404.017 71.8353)
(-174.897 -100.189 16.7775)
(-330.083 -192.805 82.4579)
(-1835.23 -992.851 252.848)
(-904.209 -572.187 202.706)
(-1163.25 -732.086 152.431)
(-379.61 -203.965 83.6577)
(-570.505 -309.663 72.5707)
(-118.868 -65.7955 13.5595)
(-65.3183 -34.0779 12.2511)
(-677.934 -70.4075 214.348)
(-42.3781 -0.751944 10.2956)
(-755.788 -20.129 237.524)
(-298.977 -7.54382 122.294)
(-8.95107 -0.63744 2.31522)
(-10.9543 -0.159069 2.8992)
(-254.162 -26.7188 102.868)
(-3551.85 -2420.52 1099.33)
(-3797.78 -2321.04 347.622)
(-3778.64 -2325.33 1031.42)
(-3259.45 -1948.98 1017.41)
(-2861.45 -1889.58 283.888)
(-2202.33 -1454.42 756.037)
(-3669.46 -2207.24 366.521)
(-3324.04 -1087.38 1253.91)
(-280.848 -94.81 118.533)
(-883.942 -358.938 388.493)
(-1235.5 -526.415 517.726)
(-1596.64 -531.668 677.331)
(-2864.69 -1137.9 1177.47)
(-1954.45 -676.996 743.625)
(-258.564 25.297 104.919)
(-36.25 2.65084 8.72862)
(-687.976 66.6719 218.662)
(-42.5833 0.685565 10.3871)
(-757.889 18.6707 238.9)
(-299.65 6.98679 122.774)
(-10.9793 0.145942 2.91131)
(-1839.12 -370.381 1002.29)
(-568.993 -176.848 360.333)
(-1571.91 -460.419 858.646)
(-63.3533 -11.6951 33.9896)
(-522.144 -108.964 276.238)
(-292.193 -87.0196 150.376)
(-28.3107 -6.61193 13.9918)
(-24.3437 -174.407 232.731)
(-25.0737 -627.783 895.256)
(-7.165 -199.545 264.55)
(-1.21264 -33.9453 61.7811)
(-4.21629 -29.13 53.6844)
(-0.530811 -3.84077 7.9637)
(-0.139476 -4.54178 9.34633)
(-509.925 -99.9828 162.237)
(-10.9053 -2.11798 2.30661)
(-296.734 -84.0802 93.5639)
(-5.38991 -0.704556 1.31776)
(-165.707 -31.7155 64.7457)
(-75.4394 -18.9459 26.7126)
(-2.33041 -0.399856 0.52253)
(-408.04 -149.094 49.821)
(-9.74954 -2.36553 1.3233)
(-4.29373 -1.19041 0.302243)
(-75.6547 -29.6827 13.7764)
(-16.6672 -4.21847 1.33625)
(-135.511 -56.3396 15.2376)
(-270.64 -97.6695 55.5384)
(-540.901 -199.33 50.4497)
(-41.9809 -11.8854 7.8145)
(-6.38074 -1.82233 0.372351)
(-332.881 -146.85 67.4688)
(-23.7147 -6.25505 1.5663)
(-820.266 -301.523 150.713)
(-196.719 -84.7357 17.7145)
(-1271.46 -583.183 418.859)
(-3788.99 -1728.48 349.623)
(-3348.05 -1525.17 972.207)
(-2519.71 -1316.31 804.013)
(-895.702 -460.143 77.3684)
(-439.874 -220.884 148.958)
(-3151.91 -1638.91 294.844)
(-138.865 -372.772 510.552)
(-24.3479 -66.7014 94.4221)
(-130.215 -507.836 706.932)
(-32.1833 -124.449 169.544)
(-5.45941 -20.2681 38.7008)
(-0.661086 -2.56615 5.40306)
(-0.46911 -1.32273 2.82733)
(-676.99 -380.752 307.933)
(-510.763 -321.097 176.006)
(-166.351 -83.8801 52.8423)
(-152.945 -88.2171 63.1314)
(-36.2055 -14.9694 11.7158)
(-23.4573 -10.6217 5.76596)
(-5.00671 -1.93986 1.26808)
(-252.749 -99.3309 154.232)
(-553.824 -268.334 303.5)
(-1129.32 -441.603 622.184)
(-106.507 -37.4843 50.0033)
(-2.09084 -0.560308 0.857112)
(-26.0553 -8.89757 10.1987)
(-9.27767 -2.44878 4.12593)
(-2684.2 -1825.48 1317.27)
(-2161.79 -1380.02 1043.74)
(-3297.57 -2055.03 1456.32)
(-2070.88 -1261.51 1000.54)
(-61.1083 -35.2472 33.8391)
(-839.235 -561.289 420.785)
(-446.736 -276.418 234.081)
(-105.275 -214.007 294.359)
(-12.0481 -26.5533 40.5455)
(-50.2947 -82.9824 121.332)
(-4.41866 -8.10556 13.8872)
(-0.935441 -1.58816 3.6288)
(-0.230079 -0.527346 1.15244)
(-0.0828662 -0.159769 0.358497)
(-1.82421e-06 -2.99732e-06 6.02486e-06)
(-0.366871 -0.462776 0.957303)
(-0.000141799 -0.000215913 0.000335895)
(-0.000248551 -0.000222788 0.000438835)
(-2.9917e-06 -3.46857e-06 7.13263e-06)
(-9.21728e-06 -1.10273e-05 1.53322e-05)
(-2.30514e-07 -3.02957e-07 5.59226e-07)
(-49.2086 -32.3119 4.93808)
(-822.841 -559.036 224.46)
(-454.892 -315.826 49.4026)
(-19.4443 -9.99552 1.52852)
(-4.06847 -1.97896 1.34991)
(-1.56184 -0.784365 0.110316)
(-43.4787 -23.3755 13.316)
(-3.46888 -0.777208 0.665761)
(-28.1936 -9.59386 6.85281)
(-112.248 -37.9238 32.7128)
(-25.553 -7.11638 7.59611)
(-0.172901 -0.0376255 0.0325569)
(-0.744944 -0.150582 0.152162)
(-6.44404 -1.83509 1.62806)
(-305.348 -137.176 132.677)
(-515.33 -253.747 237.126)
(-2126.12 -1000.28 948.82)
(-1116.84 -606.521 525.925)
(-3.1189 -0.963008 1.2726)
(-59.1407 -24.3445 22.5809)
(-114.72 -55.9411 57.1017)
(-47.8269 -0.918414 19.5205)
(-1.19248 -0.0753653 0.3324)
(-0.124912 -0.00118782 0.0425548)
(-3.49537 -0.251007 1.4152)
(-1.47519 -0.016882 0.416707)
(-38.9606 -3.39934 15.4566)
(-4.37093 -0.0604386 1.78667)
(-3.58254 0.231987 1.44861)
(-1.21513 0.0702567 0.339398)
(-39.6705 3.18748 15.7953)
(-47.8844 0.839343 19.5746)
(-0.125196 0.00103352 0.0426249)
(-1.4765 0.015383 0.417676)
(-4.38028 0.05297 1.79022)
(-1288.81 -762.08 447.784)
(-692.826 -437.634 62.4208)
(-8.5157 -3.27964 1.92571)
(-205.924 -104.684 15.6834)
(-307.193 -185.283 106.995)
(-74.0478 -33.9496 21.758)
(-2013.35 -1179.38 186.244)
(-32.6585 -20.736 3.14833)
(-205.541 -135.609 44.3391)
(-333.305 -228.484 42.3071)
(-13.2849 -6.58106 1.11426)
(-0.56635 -0.270156 0.0675062)
(-1.04661 -0.519316 0.0698046)
(-7.24862 -3.40126 1.04163)
(-1.19025 -0.331796 0.0597441)
(-74.3146 -32.2821 16.8978)
(-39.421 -15.9909 2.90049)
(-5.7811 -2.22603 0.361963)
(-0.307643 -0.0909995 0.0590892)
(-0.159132 -0.0488025 0.00739522)
(-11.6537 -4.5814 2.73427)
(-181.981 18.5156 125.243)
(-8.31143 0.641449 6.07394)
(-214.894 4.81392 149.009)
(-8.24316 0.108335 4.60687)
(-9.9984 0.139865 7.37217)
(-0.343791 0.00319256 0.221133)
(-0.283368 0.017219 0.180922)
(-213.567 -5.85789 148.201)
(-6.53822 -0.528634 3.62982)
(-7.92884 -0.709112 5.83249)
(-8.1968 -0.132331 4.58848)
(-9.90246 -0.184019 7.31835)
(-0.340798 -0.00423959 0.219776)
(-0.271063 -0.0191041 0.174331)
(-0.711987 -0.0834721 0.192246)
(-2.05086 -0.269275 0.811135)
(-24.1105 -3.75057 8.96036)
(-10.9062 -2.20153 3.71598)
(-0.0239008 -0.00351643 0.00791008)
(-0.300697 -0.047081 0.0783224)
(-0.867373 -0.148382 0.328476)
(-0.827919 -0.224468 0.0507437)
(-15.5504 -5.54599 2.34164)
(-27.2384 -10.4175 2.40709)
(-3.88733 -1.46468 0.28085)
(-0.0580498 -0.01736 0.0061705)
(-0.109545 -0.033455 0.00600737)
(-2.06946 -0.74939 0.264453)
(-0.624457 -21.4544 31.9017)
(-0.150968 -1.34772 2.14149)
(-0.0367609 -1.63441 2.59265)
(-0.0458353 -0.373667 0.769719)
(-0.000683196 -0.0362842 0.0681976)
(-0.00321679 -0.0300285 0.0562336)
(-0.0108114 -0.447214 0.917889)
(-47.5677 -12.5084 30.9259)
(-3.81725 -0.554806 2.07405)
(-4.6662 -0.745292 3.3834)
(-1.99201 -0.412223 1.4103)
(-1.61036 -0.303104 0.846947)
(-0.157666 -0.0204667 0.100327)
(-0.0658503 -0.0112361 0.0411094)
(-1.95329 -5.89613 9.68201)
(-2.78487 -11.7493 18.4357)
(-0.177568 -0.854125 1.3609)
(-0.0562608 -0.243594 0.504758)
(-0.00245626 -0.00904592 0.0164941)
(-0.00381702 -0.0190515 0.0353563)
(-0.0381243 -0.120934 0.250018)
(-0.00189633 -0.0115967 0.0400208)
(-0.0200096 -0.648876 1.81827)
(-0.0818054 -0.560513 1.57202)
(-0.0103575 -0.076529 0.203949)
(-4.69778e-05 -0.00195318 0.00591031)
(-0.00024917 -0.00165725 0.00497592)
(-0.0023598 -0.0901528 0.241241)
(-75.7513 -46.1601 22.5536)
(-1.28575 -0.643748 0.298508)
(-16.5989 -8.43577 4.89679)
(-0.184822 -0.0840995 0.0316409)
(-2.3957 -1.04541 0.475489)
(-0.480328 -0.190436 0.100718)
(-0.0356529 -0.0155672 0.00667635)
(-144.87 -73.8783 71.9804)
(-1.52543 -0.571403 0.638013)
(-20.1104 -9.11629 7.81172)
(-0.354935 -0.0989912 0.134026)
(-4.73165 -1.552 1.55828)
(-0.586293 -0.198296 0.168419)
(-0.0426987 -0.0133609 0.0153211)
(-13.653 -19.8159 33.0144)
(-0.183875 -0.297285 0.562741)
(-1.05832 -1.80433 3.3064)
(-0.048484 -0.0700394 0.172507)
(-0.252951 -0.379719 0.910065)
(-0.0199737 -0.036588 0.0811781)
(-0.0036833 -0.00623472 0.0135048)
(-0.0862279 -0.217362 0.623526)
(-0.00194674 -0.00817151 0.0279014)
(-0.109696 -0.392261 1.10955)
(-0.0131626 -0.0516253 0.136503)
(-0.000241037 -0.000589654 0.00169894)
(-0.000231483 -0.0011221 0.00331307)
(-0.00948656 -0.0270429 0.0707002)
(-299.294 -169.584 138.284)
(-1.61217 -0.634627 0.724672)
(-0.774856 -0.259231 0.201462)
(-0.384353 -0.115929 0.149924)
(-35.7567 -17.5677 13.416)
(-8.30596 -2.9104 2.51244)
(-16.1608 -6.84333 7.84445)
(-5.44913 -1.76337 1.13065)
(-0.0294255 -0.00699594 0.00535004)
(-1.09065 -0.311941 0.235826)
(-0.0185882 -0.0053569 0.00275123)
(-0.693392 -0.231419 0.123527)
(-0.135775 -0.0423954 0.0261208)
(-0.00358307 -0.00101736 0.00062763)
(-15.8784 -4.67042 9.58173)
(-0.144378 -0.0371096 0.0953468)
(-0.62821 -0.151936 0.429625)
(-0.111262 -0.0260397 0.0539243)
(-0.4944 -0.108895 0.248071)
(-0.0198408 -0.00403317 0.0120508)
(-0.00453586 -0.0010062 0.00269256)
(-3.34712 -0.779013 1.04823)
(-0.00709468 -0.00123672 0.00238675)
(-0.0205366 -0.0042581 0.0049625)
(-0.0584598 -0.0125404 0.0204127)
(-0.0897807 -0.0164204 0.0225726)
(-0.768475 -0.184947 0.217887)
(-0.260557 -0.0527598 0.0941022)
(-0.879453 -2.19396 3.70103)
(-0.0147219 -0.0382811 0.0590603)
(-0.283704 -0.613652 1.05145)
(-0.00101284 -0.00324255 0.00571907)
(-0.0170234 -0.0457916 0.0929235)
(-0.00578712 -0.0130379 0.0259579)
(-0.000330969 -0.000885876 0.00150405)
(-0.574153 -0.227596 0.0325959)
(-0.107046 -0.0426915 0.0296001)
(-0.00123706 -0.000502969 7.14369e-05)
(-0.0320296 -0.0103434 0.00663045)
(-0.0442982 -0.019285 0.00246534)
(-0.0155069 -0.00541994 0.000871076)
(-1.26095 -0.484552 0.326224)
(-0.389608 -0.153077 0.0236216)
(-0.000860088 -0.000349094 3.23247e-05)
(-0.0159255 -0.00679773 0.00170163)
(-0.00562655 -0.0019521 0.000658515)
(-0.0300863 -0.0131185 0.00158385)
(-0.0106973 -0.00376537 0.000418756)
(-0.2061 -0.0789826 0.023119)
(-0.000757411 -0.00199166 0.0064892)
(-0.0464743 -0.0944421 0.271943)
(-0.0179102 -0.0311323 0.0886266)
(-7.76249e-05 -0.000250557 0.000691994)
(-0.00459569 -0.010931 0.0282787)
(-0.00170601 -0.00334146 0.00845641)
(-5.6423e-05 -8.9288e-05 0.000231061)
(-0.0244783 -0.0357689 0.06697)
(-0.0397308 -0.0449721 0.0947762)
(-0.00724523 -0.00938256 0.0228303)
(-0.0025043 -0.00325626 0.00587367)
(-0.000832166 -0.000957544 0.00223867)
(-0.000524397 -0.00077374 0.00160696)
(-6.32768e-05 -8.34073e-05 0.000168634)
(-0.144838 -0.0676991 0.0411262)
(-0.141457 -0.0568071 0.054436)
(-1.97236 -0.869795 0.632686)
(-0.0540334 -0.0201842 0.014249)
(-0.000379584 -0.000167607 0.00013492)
(-0.00400318 -0.00171129 0.00100323)
(-0.00399147 -0.00144363 0.00140942)
(-0.000367917 2.34662e-05 0.000318059)
(-0.269081 0.0176959 0.229753)
(-0.00927658 7.65465e-05 0.00920703)
(-0.323223 0.0031981 0.278282)
(-0.0116806 9.13392e-05 0.0089513)
(-0.00965717 0.000620448 0.00734577)
(-0.000429002 3.71352e-06 0.000374118)
(-0.206516 0.0116536 0.0969967)
(-0.00726871 5.24764e-05 0.00312334)
(-0.252108 0.00218821 0.119097)
(-0.0109087 7.98368e-05 0.00625945)
(-0.000325441 1.94221e-05 0.000169885)
(-0.00894764 0.000538046 0.00510655)
(-0.000386946 3.24538e-06 0.000201597)
(-0.00723156 -6.42365e-05 0.00311417)
(-0.199591 -0.0127845 0.0942919)
(-0.250783 -0.00269665 0.11872)
(-0.0108224 -0.000105084 0.0062253)
(-0.000312685 -2.28487e-05 0.000164333)
(-0.00857913 -0.000593042 0.0049308)
(-0.000383647 -4.74062e-06 0.00020036)
(-0.00915308 -0.000116759 0.009105)
(-0.25497 -0.019872 0.219306)
(-0.319325 -0.00458161 0.275669)
(-0.0115544 -0.000129398 0.0088767)
(-0.000348657 -2.90821e-05 0.000303093)
(-0.00918358 -0.000691154 0.00703402)
(-0.00042289 -6.63059e-06 0.000369809)
(-0.00500707 -0.00206676 0.000682567)
(-0.00175192 -0.000590635 0.000211396)
(-0.0662259 -0.0243323 0.0106177)
(-0.0127587 -0.00448208 0.00225678)
(-5.04567e-05 -1.92883e-05 9.71334e-06)
(-0.000994672 -0.000403109 0.000197684)
(-0.000366425 -0.000121521 7.74843e-05)
(-0.115508 -0.0137662 0.0540658)
(-0.0013702 -0.000242911 0.000580155)
(-0.0476251 -0.00749575 0.0218655)
(-0.00019392 -1.53529e-05 0.000101322)
(-0.00495657 -0.000435105 0.00281721)
(-0.00205216 -0.000387332 0.00115169)
(-0.000106649 -1.52801e-05 5.55157e-05)
(-0.00330179 -0.000756008 0.00075619)
(-0.00958356 -0.00230557 0.00322341)
(-0.12816 -0.0329672 0.0338247)
(-0.0155223 -0.00455371 0.00384489)
(-6.82998e-05 -1.92309e-05 2.42034e-05)
(-0.000430958 -0.000122226 9.53465e-05)
(-0.00116906 -0.000335356 0.000385265)
(-0.0104001 -0.0199956 0.0333502)
(-0.00299818 -0.0076795 0.0114929)
(-0.0614179 -0.12997 0.224253)
(-0.00124986 -0.00283249 0.00541759)
(-2.84937e-05 -6.32267e-05 9.37069e-05)
(-0.000243406 -0.000467738 0.000855244)
(-7.62217e-05 -0.000212137 0.000336784)
(-0.150262 -0.0214515 0.127711)
(-0.00187925 -0.000416287 0.0017971)
(-0.0641616 -0.0120871 0.0534251)
(-0.000222079 -2.09955e-05 0.000189846)
(-0.00534509 -0.000518026 0.00406438)
(-0.00225953 -0.000458759 0.00168375)
(-0.000129679 -1.8832e-05 0.000107993)
(-9.98429e-05 -0.000171376 0.000524856)
(-0.000974197 -0.00145134 0.00399808)
(-0.00492839 -0.00766007 0.0217756)
(-0.000399905 -0.000772756 0.00191109)
(-9.0187e-06 -1.55329e-05 3.24377e-05)
(-1.55472e-05 -2.95301e-05 7.16723e-05)
(-8.38578e-05 -0.000144013 0.000331858)
(-0.000970183 -0.00804717 0.0192183)
(-4.97043e-06 -4.4873e-05 8.84159e-05)
(-1.52804e-05 -0.00082921 0.00172518)
(-5.65745e-06 -0.000229609 0.000601222)
(-8.50428e-05 -0.000690262 0.00142455)
(-2.83742e-05 -0.000194815 0.000508549)
(-0.000202762 -0.00960897 0.0230473)
(-0.00117983 -0.00522421 0.0123499)
(-2.85471e-05 -7.36608e-05 0.000187713)
(-7.2797e-05 -0.000222571 0.000436847)
(-6.62424e-06 -3.62076e-05 6.85015e-05)
(-6.57937e-05 -0.000437942 0.000894432)
(-2.28466e-05 -0.000130146 0.000334206)
(-0.000807076 -0.00259965 0.00600521)
(-0.000434963 -6.17578e-05 0.000185586)
(-0.00315424 -0.000638597 0.00138724)
(-0.0138947 -0.00258185 0.00622063)
(-0.000639705 -0.000104337 0.000348302)
(-6.53819e-05 -1.55133e-05 3.27382e-05)
(-8.11449e-05 -1.10027e-05 4.18361e-05)
(-0.000184606 -4.76263e-05 0.000102532)
(-0.000638017 -0.000113863 0.000585012)
(-0.00463904 -0.00112069 0.00364973)
(-0.0197025 -0.00434782 0.0159616)
(-0.000729303 -0.000120254 0.000530567)
(-9.38658e-05 -2.45201e-05 7.31921e-05)
(-0.000244535 -7.18393e-05 0.00016757)
(-0.000113227 -1.59876e-05 8.91429e-05)
(-1.15508e-05 -3.66419e-05 8.33903e-05)
(-2.30455e-05 -8.46398e-05 0.000162878)
(-0.000337276 -0.000950446 0.00213676)
(-0.00010091 -0.000284861 0.000617344)
(-6.42121e-06 -1.96364e-05 3.60572e-05)
(-9.45854e-06 -2.32495e-05 5.1564e-05)
(-1.48566e-05 -3.97303e-05 6.92796e-05)
(-0.0032748 -0.00327878 0.00674385)
(-5.10955e-05 -5.26481e-05 8.1694e-05)
(-0.000218077 -0.000248959 0.000437538)
(-4.12735e-05 -3.49595e-05 7.29046e-05)
(-9.57824e-05 -9.97384e-05 0.000216018)
(-2.95265e-05 -4.15616e-05 7.09179e-05)
(-3.25689e-05 -3.4166e-05 5.93302e-05)
(-0.0729869 0.0386664 0.283168)
(-9.35991 2.52792 26.3081)
(-81.119 53.9175 154.688)
(-0.000115981 6.03387e-05 0.000317592)
(-0.43392 0.106568 1.22797)
(-22.4626 5.36063 42.5232)
(-890.475 251.97 1732.41)
(-113.425 65.4785 162.795)
(-276.542 75.1914 551.417)
(-122.924 30.7542 214.081)
(-837.661 208.605 1374.32)
(-857.87 349.699 1640.28)
(-760.475 276.604 1217.16)
(-223.358 89.1968 433.266)
(-81.9045 30.6427 145.439)
(-695.663 459.381 1226.74)
(-431.849 259.88 639.983)
(-800.844 426.777 1483.09)
(-630.352 302.984 973.016)
(-155.015 82.2581 292.656)
(-40.7408 20.2919 76.7687)
(-15.3135 9.53451 32.3031)
(-530.811 121.47 743.442)
(-138.223 31.4798 186.646)
(-2.8961 0.656054 6.06379)
(-80.6568 27.1104 112.699)
(-408.678 139.629 563.056)
(-13.1601 4.67865 26.3899)
(-1.60654 0.526512 3.41889)
(-2.57214 0.657461 7.12168)
(-0.194851 0.0528846 0.765149)
(-0.0498708 0.0130324 0.18432)
(-0.132066 0.0538651 0.515289)
(-6.4628 2.59903 18.4321)
(-1.56275 0.606587 4.50016)
(-0.030529 0.012297 0.115434)
(-11.622 5.99294 19.3435)
(-35.0618 14.9874 52.1677)
(-254.035 116.704 348.698)
(-6.20833 2.90645 13.3362)
(-0.230483 0.11384 0.517356)
(-0.694343 0.285875 1.50797)
(-2.21691 1.26299 5.05841)
(-0.0309102 0.0210314 0.120423)
(-1.58484 1.05327 4.77089)
(-3.70342 1.97778 10.7456)
(-0.754488 0.390545 2.27778)
(-0.00599229 0.00393001 0.0226186)
(-0.0152429 0.00799691 0.0580315)
(-0.291865 0.185934 0.910554)
(-0.00127912 0.000291288 0.00378757)
(-0.0580903 0.0129654 0.153863)
(-0.00903749 0.00219479 0.0312059)
(-0.256587 0.0939406 0.736918)
(-0.000714179 0.000255698 0.00208468)
(-0.00535447 0.00213326 0.0182752)
(-0.0327618 0.0106193 0.0859464)
(-0.120116 0.056385 0.34892)
(-0.000923037 0.000653591 0.0029725)
(-0.000318045 9.6199e-05 0.000903071)
(-0.00479711 0.00234909 0.0123409)
(-0.00253332 0.000911702 0.00840174)
(-0.0143802 0.00572726 0.0373958)
(-0.0430136 0.0240456 0.124402)
(-200.542 55.1779 13.5059)
(-461.82 65.417 450.949)
(-180.519 51.9858 86.3818)
(-333.155 59.0145 20.638)
(-384.497 51.7801 136.451)
(-186.571 120.586 93.5247)