/*--------------------------------*- C++ -*----------------------------------*\
  =========                 |
  \\      /  F ield         | OpenFOAM: The Open Source CFD Toolbox
   \\    /   O peration     | Website:  https://openfoam.org
    \\  /    A nd           | Version:  9
     \\/     M anipulation  |
\*---------------------------------------------------------------------------*/
FoamFile
{
    format      ascii;
    class       volScalarField;
    location    "0.0027";
    object      impulseMax;
}
// * * * * * * * * * * * * * * * * * * * * * * * * * * * * * * * * * * * * * //

dimensions      [1 -1 -1 0 0 0 0];

internalField   nonuniform List<scalar> 
21258
(
49.4231
30.6565
0.0174391
7.10674
4.94712e-05
6.9491e-05
2.24381e-06
1.33948e-06
92.7592
173.026
52.726
35.3074
0.000173196
8.39435e-05
7.48982e-06
4.61971e-06
186.404
61.3861
165.495
67.1024
169.856
97.5105
190.24
72.3851
84.3391
183.971
41.6688
149.805
57.6629
162.701
156.415
54.9626
161.054
18.0696
14.2975
138.738
133.172
139.302
45.8216
149.614
12.0099
124.775
4.59078
118.973
188.282
180.302
182.24
163.28
165.455
158.305
156.024
189.546
184.282
183.554
167.729
166.911
159.829
160.684
180.937
177.778
174.619
160.427
156.839
153.012
149.213
177.299
166.363
170.829
147.28
152.483
144.57
138.989
169.052
177.533
176.769
151.664
143.103
142.137
152.568
173.383
167.617
175.401
150.044
137.789
140.399
147.621
170.741
159.186
167.43
134.298
144.397
140.311
129.861
179.432
165.091
232.051
183.498
235.072
153.352
148.33
211.24
207.258
176.841
219.886
226.94
145.055
148.944
204.755
203.437
235.747
228.367
227.667
219.847
219.183
211.65
212.348
233.81
224.584
226.384
216.166
217.935
210.372
208.545
229.773
222.241
213.873
219.341
211.01
206.165
203.202
223.641
212.095
215.966
203.781
207.652
199.714
195.668
220.228
210.504
219.512
203.233
194.579
193.823
203.96
182.744
202.635
201.945
194.021
174.813
194.751
174.012
216.357
209.164
218.203
201.919
190.481
192.457
200.025
198.852
181.397
200.678
192.707
170.511
190.811
172.593
213.941
201.659
210.96
187.866
197.546
194.454
184.613
196.465
173.6
193.486
167.759
188.307
185.187
164.301
193.738
207.471
197.998
190.795
176.139
180.72
186.513
169.704
185.836
189.95
181.467
155.105
177.096
160.112
185.077
164.872
152.424
175.748
174.924
185.85
164.015
183.706
160.262
150.78
171.339
173.471
181.705
162.501
157.294
168.506
179.062
175.754
140.872
164.949
153.538
154.92
158.708
163.441
135.296
117.907
124.42
129.259
143.398
167.073
155.491
160.641
129.396
135.699
171.78
132.299
95.6043
134.992
125.968
83.2007
123.165
86.0636
56.9403
0.268064
0.039126
26.5563
0.368477
0.0558409
30.9771
136.786
98.5603
137.783
127.836
89.0162
128.872
87.9768
160.199
150.829
149.907
131.982
130.948
117.846
118.945
145.79
158.676
148.258
126.241
129.069
115.83
112.798
45.3758
0.0788195
0.1639
12.9207
0.00984983
0.0305389
23.7556
89.0001
124.233
128.724
79.4182
119.442
114.77
74.739
138.284
153.417
142.494
122.451
117.654
108.743
103.636
117.621
66.0999
107.155
78.51
106.065
118.687
77.4813
78.7959
112.396
118.804
109.136
62.8058
102.511
69.1881
115.682
72.7112
101.064
64.211
104.065
112.772
75.5707
144.947
133.089
126.782
104.867
111.805
97.462
90.2143
273.212
234.83
297.253
247.072
250.825
293.441
226.49
222.537
268.95
244.764
280.122
290.891
220.082
209.472
266.213
254.84
296.692
289.987
280.757
289.355
280.147
272.707
273.355
295.418
276.993
285.988
288.01
278.876
271.372
269.436
287.651
274.597
283.403
280.153
271.564
266.972
263.892
284.049
264.199
272.467
276.5
268.08
260.386
256.487
282.028
272.472
281.358
264.479
256.247
255.524
265.159
248.86
261.859
263.722
256.198
239.593
254.317
241.422
265.657
250.145
265.012
257.531
243.417
258.196
242.729
271.021
277.895
279.953
263.107
252.233
254.149
261.164
259.503
241.887
256.542
237.236
251.916
248.937
234.323
275.242
262.856
271.917
249.722
258.686
255.599
246.63
249.364
238.567
253.161
245.537
227.173
241.712
230.974
264.022
259.05
268.164
252.087
239.052
243.076
248.13
249.36
241.164
235.358
225.761
240.453
250.055
234.652
248.006
231.469
224.418
237.214
239.104
246.118
233.32
229.062
234.775
243.69
240.7
217.064
231.759
226.103
417.762
439.901
390.876
420.14
434.714
451.622
401.887
394.892
437.086
437.677
433.609
454.905
448.69
434.522
439.82
429.116
412.124
424.282
423.516
437.131
425.13
414.137
403.576
399.058
423.176
401.195
419.457
416.443
396.925
403.225
396.71
412.186
410.153
387.441
402.454
392.922
445.341
439.317
434.269
421.481
433.335
428.56
417.658
423.011
417.339
426.458
420.766
404.2
411.764
411.637
412.795
381.252
391.583
409.664
379.264
399.267
389.524
375.717
385.776
370.621
388.711
380.42
397.547
404.424
359.692
297.827
293.047
316.614
361.088
312.622
374.899
288.236
355.219
352.956
309.728
363.988
285.098
272.512
345.54
327.529
382.658
377.558
381.523
376.272
360.322
354.053
355.013
378.877
355.432
369.376
373.57
358.458
351.95
348.653
369.957
364.444
351.342
357.75
346.372
344.223
338.945
369.828
358.169
368.316
345.698
337.157
335.973
346.839
338.649
316.13
338.073
331.301
309.788
309.145
332.059
358.724
335.872
345.232
351.405
341.169
333.486
328.051
314.819
334.054
336.571
329.546
305.342
326.827
307.643
365.408
350.955
361.051
343.414
330.209
333.642
339.969
330.614
306.07
326.284
302.339
323.175
318.728
298.606
355.472
339.486
349.121
325.796
335.478
330.241
320.757
316.958
302.07
321.703
314.04
290.229
309.232
294.546
336.61
333.432
342.73
324.844
310.23
315.529
319.444
323.055
314.74
301.896
292.233
313.782
301.139
323.919
321.179
290.613
297.222
309.055
311.875
318.364
299.561
294.142
305.405
314.671
310.259
281.29
301.089
290.388
305.597
281.809
277.069
291.529
296.426
300.759
286.263
237.267
218.771
213.542
224.29
228.275
233.381
222.681
865.522
480.001
406.668
418.654
424.967
515.704
540.976
432.585
481.324
537.625
945.019
454.17
630.144
565.841
738.723
592.741
398.458
428.21
409.074
478.888
512.813
516.227
479.173
477.288
564.925
578.102
554.524
613.84
566.142
621.653
456.764
437.165
424.072
474.11
506.747
513.884
466.238
405.34
425.148
409.578
460.553
461.121
464.1
455.419
613.579
509.28
597.001
569.975
572.84
627.919
628.492
930.321
706.462
706.92
832.271
690.078
688.618
820.922
700.957
902.569
704.883
683.679
769.764
675.518
798.766
419.61
424.112
415.646
452.849
431.962
442.435
445.268
500.405
542.903
535.685
503.263
497.286
538.342
505.758
597.906
587.941
627.577
632.643
595.842
634.434
625.277
488.619
513.832
525.485
475.777
486.596
526.808
475.588
477.489
457.561
466.691
475.365
452.003
471.899
460.014
573.18
577.232
586.152
630.646
606.4
617.152
622.826
663.995
633.785
663.565
661.04
657.862
630.916
730.286
654.556
691.071
615.59
645.535
624.347
644.984
712.984
463.832
435.364
451.277
442.804
461.866
451.145
448.385
690.099
486.554
551.923
823.205
548.134
572.418
535.297
613.24
556.282
483.797
400.05
409.689
498.992
508.643
401.829
440.239
621.589
547.035
621.709
560.439
623.14
615.522
553.413
440.29
480.627
439.438
495.998
457.28
451.871
490.135
692.283
778.099
679.469
736.518
663.279
648.88
701.468
416.922
402.796
413.696
419.442
431.829
425.845
411.062
647.708
732.665
664.109
633.706
637.455
619.774
667.304
481.014
445.512
441.388
450.262
494.956
450.809
490.624
614.984
547.324
618.741
608.037
552.571
600.134
551.629
666.361
605.622
632.692
619.671
596.714
596.314
641.268
561.249
594.727
612.257
601.878
549.193
583.992
554.34
417.014
399.646
413.533
423.197
403.453
422.867
406.071
503.463
467.403
464.922
458.385
504.497
462.008
499.23
441.786
423.814
422.765
432.944
414.145
434.089
415.097
607.863
598.053
583.231
582.305
588.587
598.536
617.752
592.084
546.962
564.839
542.388
574.074
582.649
550.589
455.205
499.753
501.376
457.692
458.758
454.823
498.747
428.046
403.776
424.238
407.216
428.14
424.816
408.472
367.249
391.025
405.634
384.691
394.858
407.868
364.202
343.576
397.236
401.247
411.356
393.505
402.474
404.247
395.816
392.656
384.921
388.381
391.263
395.861
388.492
382.532
395.114
378.806
388.534
380.99
394.637
387.04
374.034
412.133
398.858
402.752
395.56
402.265
393.177
386.707
377.902
372.963
382.893
379.671
360.343
372.985
367.007
388.714
391.153
384.889
384.786
371.286
378.487
377.665
381.211
373.791
389.743
381.477
357.132
373.14
366.439
373.378
352.229
358.277
350.16
365.359
366.09
359.089
68.9332
97.073
108.905
104.064
53.0904
92.0978
64.2745
137.731
123.193
124.291
102.818
87.2181
86.0722
103.958
118.132
135.911
121.178
100.7
80.6358
83.9025
97.5119
98.245
52.5002
79.2141
47.732
86.1423
91.4369
58.7775
108.831
129.487
114.036
76.3015
93.2625
87.9472
70.9267
17.8858
0.0252208
21.7362
2.65659
0.00160822
0.00112173
1.79288
54.0005
94.2679
93.1721
79.0343
42.3724
80.124
41.4764
88.0641
52.1642
91.132
76.9836
37.1467
73.901
39.7369
111.986
94.9805
102.489
81.5755
57.2835
64.5625
74.185
0.0201411
0.0134572
15.508
0.000881252
1.36021
0.0295174
0.000421369
83.9947
41.43
78.9373
33.7684
69.8232
64.7927
29.6996
57.8603
49.3739
48.4884
23.3897
22.7391
16.9168
17.486
66.0059
36.3329
72.9295
58.8632
20.0794
52.1015
25.0755
55.2433
44.3793
46.833
19.7712
21.5269
15.849
14.3172
63.9258
29.7889
17.4221
49.2662
48.2804
64.9754
28.9884
61.9115
25.0961
16.146
43.4925
46.3611
58.8867
27.416
49.4219
41.1647
37.2487
17.5377
14.9326
12.4018
10.2268
40.6451
27.6631
32.7106
9.21481
12.0973
7.9521
5.75786
22.1217
39.7355
54.9051
50.028
9.46964
35.1846
18.6302
35.5576
28.73
37.9082
10.5762
5.33102
6.1946
9.34789
30.207
40.3347
39.4969
11.445
7.14563
6.81724
11.9051
44.3363
10.9586
6.91163
24.2565
29.963
37.936
14.8233
32.4952
20.4363
28.8031
4.32142
7.85435
6.22499
3.28227
20.0187
16.7534
24.5939
4.60885
1.52215
2.32246
3.16101
21.0676
13.3299
12.8096
3.66163
3.46617
1.50547
1.59834
19.7724
10.352
11.7972
2.60038
3.09721
1.32974
1.09867
12.7841
8.5961
6.69293
2.04349
1.50007
0.849407
0.614902
9.90483
3.19314
4.82896
0.660872
1.02933
0.416113
0.262063
0.00210621
0.000195513
0.000101811
8.75654e-05
0.00309236
0.00261646
0.00435817
4.13877
0.34942
3.93699
2.35715
0.213314
2.48753
0.201968
3.07484
0.314538
3.56976
2.11845
0.153004
1.80043
0.180945
6.72423
2.49863
6.39023
0.582419
0.21682
0.203555
0.618862
199.233
7.39618
0.675572
2.15763e-05
6.43297e-07
168.071
29.4787
4.73464e-05
1.61852e-06
210.826
136.943
159.663
136.747
188.813
169.06
90.3125
147.837
39.1813
65.1403
13.933
35.011
129.435
143.709
215.638
207.692
199.364
202.66
194.294
191.005
185.634
205.388
190.406
196.929
181.866
188.499
179.462
172.364
198.801
183.116
193.483
170.785
181.544
175.79
164.535
24.5813
103.963
124.471
2.73564
103.753
53.8364
0.308097
181.065
153.296
175.545
149.163
171.984
166.041
142.121
162.328
161.146
155.046
141.102
133.81
132.347
124.513
180.414
176.562
187.392
169.141
148.871
157.28
161.44
145.808
161.769
169.159
159.124
123.806
151.053
133.753
155.653
139.416
147.886
115.257
125.232
115.381
104.887
161.533
149.382
121.827
155.043
112.872
142.154
128.783
153.124
136.448
146.528
110.249
122.095
113.727
101.409
229.665
244.453
225.944
275.803
204.82
250.229
233.451
186.442
271.043
259.95
268.015
263.142
255.266
252.181
247.445
250.126
260.067
265.8
251.968
257.802
242.196
236.365
240.506
230.632
245.151
222.885
237.443
232.711
218.062
259.501
245.177
254.541
234.554
243.755
238.908
229.544
548.621
401.116
344.56
587.455
654.365
557.201
568.06
541.844
557.813
509.068
510.263
495.387
401.254
456.35
400.405
486.171
395.862
382.782
361.596
389.928
383.84
337.377
371.26
320.977
631.963
625.141
618.651
612.752
608.7
600.719
593.905
609.292
559.374
600.979
552.566
591.638
582.2
549.053
450.138
504.055
454.994
500.456
453.396
457.283
504.339
420.926
401.972
423.898
401.782
423.056
423.259
400.515
599.626
602.485
608.486
593.943
575.928
586.863
582.117
583.246
578.76
591.878
586.609
565.057
573.71
575.104
381.692
388.152
387.461
378.032
377.18
384.125
372.185
578.389
556.025
590.224
572.192
534.749
562.179
542.586
573.412
556.3
528.093
564.501
521.148
548.414
535.393
464.798
508.975
460.024
461.644
504.309
505.791
464.757
500.79
457.948
496.727
459.105
494.056
500.966
458.583
426.375
401.883
425.23
424.125
398.077
426.347
399.338
580.795
566.761
561.993
559.204
567.243
573.486
570.657
422.755
397.756
422.595
422.649
395.262
423.192
398.016
373.011
356.129
368.144
354.082
366.808
361.087
348.174
385.539
369.161
373.736
378.592
381.136
367.492
363.369
379.926
365.196
371.398
376.061
380.048
366.091
360.285
555.762
521.285
514.738
533.302
540.801
547.219
528.308
461.374
495.803
490.49
457.4
499.33
458.333
462.009
424.265
396.126
394.806
426.131
424.799
426.72
396.268
357.47
350.473
362.942
355.581
336.616
350.295
342.391
345.838
351.918
359.511
353.638
331.597
346.234
339.885
374.765
373.118
377.009
361.671
353.1
356.345
358.114
348.25
328.734
326.194
336.918
341.216
343.332
334.211
277.328
330.074
293.281
347.285
267.629
321.712
313.428
250.646
341.699
330.533
339.29
325.145
333.546
322.573
317.057
336.038
313.786
319.622
321.906
327.829
311.483
305.605
312.028
288.403
306.903
285.567
304.197
298.988
280.514
330.687
316.055
324.93
304.796
313.95
308.422
299.202
295.809
301.542
283.114
293.505
269.151
287.573
275.032
304.649
319.224
310.37
302.766
287.504
293.45
296.783
276.998
286.355
295.685
290.339
262.399
280.917
271.819
284.68
260.265
256.766
269.129
275.197
278.653
266.261
214.867
220.724
235.372
227.437
206.504
221.532
212.626
243.119
249.103
239.604
233.512
217.646
223.955
227.474
214.331
219.763
229.018
224.135
199.488
214.656
209.291
218.643
197.081
193.385
202.315
208.869
212.446
203.572
147.421
108.281
102.374
123.547
133.643
138.49
119.353
117.653
138.713
127.827
104.089
80.1292
91.3602
93.1581
0.049466
0.00799881
11.4479
1.69467
0.00101729
9.20596
0.00588209
104.967
57.117
96.4855
55.6411
94.8711
86.2075
47.7769
132.533
119.25
96.8058
110.381
87.6118
81.8889
72.535
76.3694
48.4128
86.942
76.5398
30.5677
65.9547
39.3445
45.5152
71.354
83.6378
74.8677
27.9473
62.6173
37.9412
114.975
88.5225
100.13
66.023
77.311
62.2578
51.2195
86.3037
76.4704
94.2673
49.1847
65.8317
56.6088
40.4212
65.1965
21.9475
20.7674
43.0026
53.1092
54.7515
29.9769
71.6122
65.5897
83.5238
46.6682
22.037
31.2334
36.2484
0.00144184
0.152188
0.0114607
0.00839695
0.000300201
0.00185849
0.000195208
58.2327
18.3782
49.7067
14.9824
44.6048
36.5247
10.162
23.3459
22.2712
16.776
6.50048
4.1759
3.83013
2.32361
12.4676
31.1032
40.5802
28.1031
3.10729
19.7549
6.07172
7.36437
18.335
30.9821
23.737
1.45258
12.607
4.39124
17.1884
7.0484
11.5495
1.26276
2.4199
1.28006
0.650363
15.3049
5.92923
10.767
0.927215
1.99424
1.15554
0.526639
16.5992
1.04163
0.697693
3.86416
7.60073
10.1798
2.28666
3.73922
3.38091
6.78974
0.621014
0.132849
0.276911
0.309082
0.000355312
2.44222e-05
0.084049
2.85013e-05
0.000295026
2.05786e-05
0.000260691
1.25414e-05
0.000391386
3.80986e-05
0.000391728
1.68825e-05
0.000340497
0.221796
0.137957
0.18355
0.000386936
0.000452375
0.293602
0.000478768
0.228067
0.302866
0.00039371
0.237439
0.000480656
0.314308
0.0003056
0.000257261
0.184842
0.114307
0.0482865
0.000278708
0.081131
0.000290377
0.000370022
0.190184
0.000369925
0.198125
0.000297616
0.087376
0.107089
0.143032
0.000334012
0.000224624
0.00332062
0.000238552
0.00417122
0.000203247
0.000147394
0.088314
0.0363486
0.0107385
0.000191428
0.0220844
0.000132173
0.00606018
0.012933
0.000857875
4.74069e-05
6.77642e-05
0.00236772
0.215761
2.50601
1.92497
0.121919
1.44473
1.09381
0.091573
4.8493
2.19526
5.74276
0.512389
0.144018
0.177762
0.420392
0.117149
0.524563
0.0427409
0.947874
1.39208
0.780829
0.064566
1.91952
0.395887
4.63988
2.71899
1.04881
0.219312
0.0816049
3.82422
0.959628
2.8016
0.108285
0.321532
0.22893
0.0757148
1.28151
0.0527861
0.113605
0.679684
0.642423
1.35514
0.107472
0.00355288
0.000468216
2.62378e-05
2.72309e-05
0.000295964
0.000154877
1.34824e-05
0.329577
0.0262803
0.606363
0.0290003
0.362534
0.191978
0.0150959
1.14565
0.0805873
0.479729
0.0469166
0.572428
0.966282
0.0959252
0.0926477
0.384841
1.1772
0.63017
1.89276
0.151174
0.0490575
0.0636194
0.377687
0.76831
0.575734
0.0223818
0.278951
0.0472334
1.42159
0.24514
0.52851
0.0518051
0.11125
0.0402845
0.0182474
0.12384
0.267129
0.0213663
0.405341
0.0152853
0.192412
0.032792
0.0163159
0.052581
0.111708
0.216742
0.677996
0.362379
0.0276028
0.198185
0.254339
0.227529
0.0188131
0.0183141
0.0164729
0.0208993
0.262664
0.279214
0.24988
0.0240948
0.0206688
0.0216964
0.0229443
0.261624
0.240432
0.275613
0.0224739
0.0187116
0.0213499
0.019703
0.318828
0.287511
0.30275
0.0246181
0.0259123
0.0246522
0.0234179
0.244381
0.272101
0.280051
0.0228548
0.0195306
0.0200402
0.0222769
0.323728
0.298726
0.307536
0.0256735
0.0263463
0.0250711
0.0244388
4.44622e-05
0.00118054
0.00171219
0.000212198
0.000174787
2.07276e-05
2.33356e-05
0.0238034
0.313048
0.29544
0.122873
0.0103926
0.130419
0.00981183
0.169128
0.158791
0.194396
0.016186
0.0116661
0.014157
0.0133507
0.224532
0.174606
0.213614
0.0177917
0.0154182
0.014692
0.0186739
0.200635
0.151755
0.160135
0.0156768
0.0165232
0.0133195
0.0126399
0.203986
0.158079
0.162818
0.0163827
0.0168066
0.0135496
0.0132069
0.217095
0.0210643
0.261721
0.108217
0.00714461
0.08898
0.00865255
0.164945
0.147348
0.131309
0.0153938
0.013841
0.0111534
0.012414
1.14253e-05
0.000233095
2.18241e-05
3.1617e-05
0.000807872
0.000115656
1.44379e-05
0.168308
0.00976153
0.12209
0.00544617
0.0682006
0.0488476
0.0039433
0.0157473
0.101558
0.199934
0.103005
0.00412039
0.0512371
0.00812148
0.115583
0.0887207
0.12198
0.0102264
0.00717926
0.00971402
0.00755104
0.140505
0.0904031
0.111574
0.00977333
0.0118721
0.00954751
0.00784374
0.0901545
0.120304
0.123997
0.0104006
0.00747617
0.0101313
0.00767823
0.123555
0.0790231
0.0914792
0.0091323
0.0104685
0.00787858
0.00686624
0.106138
0.136026
0.100898
0.0121203
0.0115476
0.00913797
0.00870836
0.0740845
0.163252
0.012908
0.0927199
0.00338673
0.0412646
0.00738391
0.111959
0.0718588
0.0995335
0.00853033
0.00701805
0.00951439
0.00628455
0.0677991
0.0604194
0.0841859
0.00724666
0.0043502
0.00592971
0.00532144
0.00436932
0.0465039
0.0490008
0.0742885
0.0705633
0.00641719
0.00611573
0.0694218
0.0648038
0.0505574
0.00761802
0.00609395
0.00572495
0.00457561
0.00175566
0.00425532
0.0522025
0.00660291
0.0825644
0.0324855
0.00265565
0.00403467
0.0228125
0.0527038
0.0785883
0.176935
0.0133692
0.005934
0.00379609
0.0357967
0.0418726
0.0548031
0.0637533
0.00554481
0.00483097
0.0515671
0.0259046
0.0371701
0.00332791
0.00454517
0.00340039
0.00250097
0.00224021
0.00277611
0.0288528
0.0445415
0.0344179
0.00401033
0.00320659
0.0459201
0.00407998
0.0167458
0.00152709
0.0157328
0.048791
0.0038548
0.0402259
0.00279151
0.00131652
0.0110807
0.0136882
0.0327837
0.0033684
0.00273764
0.0283047
0.0298589
0.017067
0.0161757
0.00178552
0.00171612
0.0484596
0.00203637
0.00998097
0.0018301
0.0210382
0.0235165
0.00392192
0.00239498
0.021524
0.0253506
0.0122167
0.014446
0.00158612
0.00141714
0.0157819
0.00164274
0.0012501
0.0171299
0.0249167
0.00233645
0.00173645
0.00213082
0.00825322
0.0246941
0.0173909
0.000706934
0.00578593
0.00158461
3.86811e-05
8.21371e-06
7.066e-06
0.00011101
1.21575e-05
5.11811e-05
8.96684e-06
0.00111668
0.00254717
0.0303317
0.00153955
0.0164786
0.00615176
0.000752917
0.00142379
0.00173526
0.0170837
0.00962029
0.00724233
0.00118721
0.0010006
174.102
191.382
182.807
84.8594
178.177
103.438
183.175
85.4806
112.087
199.622
99.9999
181.937
73.3331
174.451
83.8329
110.433
198.426
187.961
154.969
47.4111
121.753
94.788
68.0619
170.691
199.367
172.39
194.464
200.151
195.265
179.088
173.315
200.267
194.758
195.397
178.511
179.24
173.487
172.763
196.589
193.562
191.721
177.153
175.082
171.407
169.33
194.253
186.448
189.368
169.074
172.401
166.618
163.214
158.506
165.89
188.975
183.662
189.799
166.843
159.5
183.832
189.309
189.95
167.034
158.963
166.304
159.709
183.967
182.936
178.83
165.091
160.413
159.103
154.229
188.095
180.038
186.237
157.539
164.928
162.81
155.343
180.836
177.57
183.838
160.015
148.676
156.478
152.408
179.367
168.622
174.083
148.566
154.949
148.484
141.739
177.212
166.248
172.964
144.094
152.171
147.02
138.581
142.865
111.465
150.073
112.655
151.161
143.979
104.615
112.913
150.554
151.369
144.206
104.07
143.389
104.877
107.836
148.991
146.566
102.43
141.81
139.341
99.8451
162.301
161.046
168.022
140.912
124.275
132.015
133.702
139.282
104.354
143.342
136.034
91.9986
131.851
96.3629
125.364
94.5854
134.675
135.82
86.0124
95.7482
126.547
136.063
86.2731
125.963
95.2116
135.238
96.0103
126.802
124.289
93.5722
133.615
131.079
81.2415
90.9864
121.671
134.367
128.546
88.7045
86.7559
126.771
120.751
80.6356
127.66
83.1043
113.645
77.7323
123.333
87.4924
118.131
81.7332
73.8657
113.917
113.733
65.7729
73.6335
105.658
77.8333
108.2
118.072
111.842
61.9515
71.6954
101.77
230.475
256.742
258.673
220.09
251.624
224.712
216.881
251.262
202.956
259.303
217.154
209.996
250.446
201.83
195.126
244.974
259.16
216.113
252.135
248.767
194.687
206.986
178.143
191.78
242.099
260.322
259.314
257.906
246.181
246.45
244.033
243.633
259.239
257.774
257.858
246.42
246.59
244.192
243.929
258.736
257.365
256.543
245.879
244.934
243.229
242.051
241.944
258.001
253.62
255.364
243.666
240.523
238.515
230.509
189.374
172.157
147.949
168.682
207.041
218.124
235.793
255.731
251.517
255.272
240.688
240.148
236.463
251.601
255.062
255.282
240.879
236.261
240.522
236.681
254.431
249.067
253.285
235.313
239.696
238.333
233.812
254.802
239.676
251.258
248.259
236.789
235.956
232.825
247.289
249.661
251.745
236.594
229.516
234.355
231.923
244.752
240.481
244.651
229.186
233.288
229.136
224.899
232.171
217.591
232.776
229.47
212.741
228.799
213.467
217.693
232.513
232.909
229.613
213.034
229.168
213.586
247.003
238.723
243.764
226.576
231.575
228.265
223.132
231.674
214.516
230.358
211.973
228.254
226.832
210.334
226.561
212.492
228.683
225.014
205.682
222.728
208.261
235.728
234.855
240.011
224.447
214.71
219.194
220.087
219.913
202.608
207.998
225.433
203.39
208.751
220.693
225.593
203.542
220.349
208.314
225.111
208.887
220.867
223.94
203.453
220.761
202.563
219.922
216.578
198.902
235.765
240.129
234.954
224.495
220.098
219.218
214.708
219.303
207.227
224.133
222.61
200.11
205.547
217.706
220.683
200.74
197.909
213.12
218.254
203.416
215.683
212.702
199.363
217.018
212.687
189.865
194.683
208.24
225.572
225.572
230.912
209.647
215.158
209.633
203.933
224.673
229.205
222.784
206.758
213.341
208.689
201.923
197.509
210.014
215.282
211.797
187.867
193.726
206.412
207.775
197.519
184.387
183.347
189.374
202.255
203.198
207.794
184.385
203.203
183.354
202.258
197.515
178.146
213.952
212.91
219.606
203.443
190.184
196.438
197.494
192.136
178.691
198.007
192.13
165.254
186.004
172.164
176.505
189.015
196.024
191.087
162.816
183.827
171.016
298.66
245.391
298.396
271.682
290.271
282.406
284.99
270.265
314.97
318.158
301.868
313.827
309.918
297.483
293.814
300.274
289.837
305.504
294.564
310.63
305.222
289.556
302.161
308.417
304.154
286.497
292.277
288.439
282.901
285.27
267.099
269.628
266.195
281.373
278.162
263.259
294.559
274.724
280.057
295.492
299.673
284.341
279.059
319.422
270.434
360.991
331.757
302.101
324
265.772
324.929
272.539
320.514
314.442
305.837
265.061
274.555
287.085
272.63
320.148
318.274
303.54
318.528
304.211
302.357
302.375
362.517
330.281
359.908
347.084
349.709
317.616
319.15
334.904
326.589
337.271
302.843
307.233
308.543
302.078
319.946
316.618
318.165
303.838
304.534
301.813
300.184
327.345
330.915
363.088
348.424
350.417
318.507
315.192
335.72
326.547
337.816
307.902
297.731
300.769
304.8
317.441
310.637
315.471
295.427
299.762
299.041
294.149
301.73
277.203
277.947
272.971
291.812
292.323
272.549
272.304
287.121
286.686
286.429
271.441
286.303
271.381
308.749
311.887
314.24
297.703
289.744
295.426
292.33
287.503
272.571
287.826
271.254
286.324
286.05
270.723
271.324
272.256
287.866
285.317
268.379
283.784
269.849
296.082
300.299
274.693
290.855
267.124
270.595
287.18
285.27
266.253
280.438
269.173
284.144
269.464
282.161
279.74
268.708
283.781
282.913
263.835
267.8
278.498
279.555
264.6
259.935
281.586
262.195
266.511
276.832
274.646
278.787
263.817
259.845
255.502
274.402
259.673
276.784
262
257.066
273.436
253.658
258.767
268.279
259.993
265.391
250.7
269.67
249.773
254.993
264.385
255.072
285.446
280.195
265.494
243.597
267.477
258.733
282.828
295.62
284.754
300.113
294.938
290.383
279.407
274.859
269.839
275.239
290.745
280.145
285.474
269.873
264.384
289.175
278.208
284.594
267.065
273.533
268.959
262.433
270.006
255.219
250.768
249.958
264.684
260.099
245.465
274.166
279.663
273.118
263.895
251.762
257.339
258.382
260.532
240.521
245.88
255.1
235.095
249.622
240.535
252.233
244.131
237.7
254.145
233.104
247.627
239.598
236.983
222.36
229.062
228.019
234.597
242.564
249.115
307.945
340.139
364.399
316.759
303.274
337.778
300.287
349.138
363.66
350.718
363.118
360.317
348.456
348.078
344.424
391.639
374.872
364.871
381.2
373.508
391.236
373.394
371.498
382.812
366.868
378.039
443.318
373.563
376.874
321.869
383.148
350.523
373.57
373.519
372.974
366.202
381.294
375.735
374.058
384.185
387.941
420.656
392.193
417.248
388.787
409.032
396.558
370.017
373.769
385.322
352.218
390.594
367.808
390.817
318.662
312.538
360.648
362.919
369.277
342.832
320.953
377.5
383.792
386.817
386.997
382.969
383.993
385.05
377.577
380.289
386.338
377.298
381.656
383.375
373.912
365.003
377.591
376.368
382.609
378.032
380.184
381.25
391.374
381.271
402.792
362.595
378.872
378.045
359.615
441.855
418.793
424.111
412.262
414.079
395.579
391.218
362.967
343.731
334.522
345.371
377.77
363.629
334.702
383.468
389.042
386.739
383.99
386.106
390.705
386.297
378.835
374.396
378.227
377.209
374.234
371.881
379.173
387.561
389.321
385.975
384.102
386.863
386.391
384.824
378.491
375.726
385.331
378.673
374.062
380.899
371.549
354.812
366.28
365.197
361.92
352.273
352.519
350.085
392.704
376.548
399.287
374.446
356.98
358.087
370.588
344.675
333.81
332.957
349.178
330.97
343.03
332.234
351.679
324.137
352.6
292.037
286.332
321.408
319.559
318.558
281.745
304.461
293.894
279.024
289.089
299.976
289.731
326.61
321.671
335.582
312.001
305.543
314.956
329.578
314.653
303.324
314.614
311.138
317.245
322.635
302.322
298.6
291.625
300.674
280.575
288.872
298.354
290.799
338.544
330.806
344.296
324.736
346.67
333.856
338.372
318.595
303.419
310.602
324.713
303.022
311.222
325.9
318.76
312.819
330.362
309.972
326.445
323.041
305.583
332.276
342.061
331.975
320.506
342.573
330.208
334.016
1618.57
316.265
1587.57
304.076
298.494
1352.32
286.813
1316.21
291.427
275.636
304.333
275.763
275.139
340.29
278.361
316.469
306.005
271.75
274.359
308.145
268.34
268.733
312.91
299.784
271.203
265.838
305.963
264.6
267.287
306.554
285.309
283.459
271.914
280.324
268.939
271.267
279.343
279.403
286.282
287.895
282.092
272.204
273.838
281.583
530.736
1605.71
525.489
553.142
1557.03
558.814
1552.03
302.741
316.298
301.432
296.634
312.436
312.368
295.958
528.424
1585.45
538.811
554.9
1522.91
1533.52
567.254
304.621
318.989
317.495
298.064
314.799
313.429
298.448
324.245
271.098
361.465
284.803
271.42
326.627
357.332
325.322
274.634
285.045
371.336
271.855
333.387
358.835
280.151
270.546
283.277
274.844
271.578
280.088
282.337
281.219
273.724
275.99
284.926
273.275
281.895
282.901
595.439
1433.69
1340.94
653.396
1452.04
608.87
641.677
294.759
310.799
295.94
357.462
310.414
294.771
295.086
295.776
313.033
344.383
297.815
320.423
296.866
295.748
593.895
1469.01
644.617
1357.89
599.477
1470.11
640.284
323.175
669.25
543.799
1076.55
289.47
430.701
1578.4
1219.49
278.371
318.754
337.029
276.896
328.243
351.709
291.546
1558.91
561.06
591.145
1502.49
590.923
623.085
1468.33
392.556
303.891
361.226
383.618
339.347
425.559
312.04
395.087
306.399
329.275
285.701
352.269
381.234
303.805
1469.86
1524.74
627.737
661.754
1348.97
701.614
1418.35
695.67
1274.98
671.462
1400.72
631.006
661.046
1352.98
418.275
483.171
363.328
421.893
365.928
477.536
330.308
733.055
1151.84
718.099
694.55
1212.13
726.529
1290.05
461.237
472.938
361.262
348.174
332.499
384.969
346.011
360.153
376.726
335.293
342.505
343.956
347.888
340.192
354.49
347.489
393.426
385.775
399.104
368.051
460.359
356.858
353.972
352.44
365.026
356.256
357.423
348.608
356.118
365.694
354.761
365.586
348.962
400.667
375.248
368.969
403.122
331.594
338.379
338.197
401.471
369.281
355.79
392.324
355.491
355.129
346.173
357.075
382.11
366.932
386.58
367.393
373.238
357.674
367.874
390.822
371.863
400.726
411.833
360.183
361.083
392.634
412.952
422.775
426.896
375.347
419.599
392.858
391.373
416.835
420.389
416.869
441.001
445.226
408.102
402.73
436.439
431.895
430.836
395.56
407.489
389.906
389.23
387.821
412.126
410.225
453.139
473.473
454.54
438.798
450.4
446.634
442.056
403.456
374.736
394.509
405.768
390.571
379.689
413.822
469.673
451.409
454.704
434.422
429.006
426.985
439.905
381.935
364.183
387.782
398.433
357.15
389.958
368.6
460.244
476.982
342.399
368.918
369.573
336.836
388.156
325.689
328.158
333.845
326.03
331.399
327.599
360.648
370.254
325.241
331.659
330.831
324.288
323.788
332.768
333.566
334.156
355.476
347.5
375.265
397.989
381.525
392.046
336.337
339.713
334.747
334.873
333.59
351.66
380.377
352.125
393.911
372.264
402.142
416.132
388.98
432.17
423.18
355.521
324.353
406
361.972
390.229
437.906
482.618
432.334
391.261
410.985
486.995
440.068
469.331
420.536
485.156
445.038
456.952
416.101
445.352
466.81
412.358
423.345
393.184
382.596
382.46
415.539
419.866
403.983
370.398
392.911
358.323
393.102
370.862
405.766
729.381
497.668
789.752
487.811
559.424
1001.29
592.616
493.116
348.846
1064.94
709.877
424.872
366.111
397.802
375.777
432.57
357.593
333.141
432.47
381.492
484.594
374.607
481.106
549.284
423.605
327.233
343.466
341.511
336.843
334.525
349.091
367.018
1390.21
1288.49
743.756
1260.22
737.057
757.985
1160.94
344.647
361.626
349.275
354.487
342.117
351.631
361.873
568.969
532.331
961.834
561.32
607.839
709.375
556.598
402.03
386.824
466.657
404.484
512.949
488.18
398.683
486.448
418.062
544.484
599.262
526.911
489.445
622.247
426.446
604.082
550.268
604.467
535.786
632.875
494.053
380.829
358.527
339.959
384.118
462.353
428.361
414.575
388.999
370.457
352.396
389.108
470.053
422.089
433.105
737.007
1125.62
746.572
751.803
927.782
732.572
1038.87