/*--------------------------------*- C++ -*----------------------------------*\
  =========                 |
  \\      /  F ield         | OpenFOAM: The Open Source CFD Toolbox
   \\    /   O peration     | Website:  https://openfoam.org
    \\  /    A nd           | Version:  9
     \\/     M anipulation  |
\*---------------------------------------------------------------------------*/
FoamFile
{
    format      ascii;
    class       volScalarField;
    location    "0.00185";
    object      rho.c4;
}
// * * * * * * * * * * * * * * * * * * * * * * * * * * * * * * * * * * * * * //

dimensions      [1 -3 0 0 0 0 0];

internalField   nonuniform List<scalar> 
16029
(
1.089
8.05393
2.94916
10.801
4.94198
7.5449
23.0108
4.04476
6.34311
2.78908
27.3356
6.25318
5.7628
5.88325
9.39451
9.76611
73.3896
24.127
110.214
1.76755
9.66287
3.39782
13.3345
5.9181
22.7675
33.2193
1.33562
1.62809
1.44301
3.93075
2.87708
1.98235
2.79619
2.31986
3.09652
4.77478
5.84583
3.71552
2.55477
4.45126
4.10489
2.25709
3.03576
4.84736
9.07563
3.37037
4.54952
3.61424
10.5805
16.8337
5.45385
3.48034
4.45051
7.09581
1.19434
1.27371
1.15892
1.32129
1.39978
1.54437
1.45669
5.15279
2.252
2.42037
1.92229
3.56853
2.58202
4.50443
2.15259
4.46748
3.32202
5.07951
6.7006
2.94089
4.16733
1.42428
1.52332
1.62118
1.73589
1.87725
1.98747
1.63774
1.29966
1.80468
1.61185
1.94429
1.57632
1.75268
2.17185
2.21169
2.29755
2.40493
2.56819
2.68849
2.66332
2.78432
2.51002
2.87566
2.5942
3.23858
2.90575
3.00204
3.3391
3.32363
7.51834
28.738
2.75697
5.54384
4.94369
19.6822
5.94505
4.63865
3.50637
4.34363
5.5784
2.4638
2.83705
2.08574
1.61244
1.70135
1.8862
2.20673
2.31988
1.7856
2.67041
2.00142
2.3501
2.38411
2.77062
2.68459
3.1623
4.85896
5.53644
11.4083
8.41457
5.26852
9.9555
25.8965
1.86191
2.33715
2.04458
1.9774
2.78963
2.45119
2.26012
3.37374
2.66097
2.95463
3.44791
3.1154
3.5895
3.98421
3.34865
20.2144
4.97581
3.42687
5.44108
4.33793
14.3117
1.87667
2.08032
2.20196
2.18753
2.31036
2.71042
2.57644
2.40702
2.64977
2.50831
2.96409
2.78537
2.90125
3.07327
2.13108
2.32366
3.0055
2.50347
2.62513
2.44817
2.01822
2.32856
2.3352
1.91409
2.12835
3.10351
2.58749
2.59997
3.15484
3.24988
3.72447
3.6941
3.80667
4.28804
4.4212
2.96866
2.82282
2.69046
3.11295
3.60713
3.44676
3.27655
2.00883
1.99288
2.08286
2.58042
2.40623
2.49407
2.49079
2.57058
3.56207
3.06896
3.485
3.04905
3.64638
4.23526
6.11112
16.7757
70.9085
7.45043
3.75072
9.26863
36.2735
5.48141
9.17657
35.6011
4.76125
18.5981
6.55034
30.0119
7.73762
3.48688
4.81875
5.5969
9.94054
7.37807
13.5392
14.0345
24.308
6.59285
12.264
15.3159
39.284
78.4841
3.04147
3.89331
3.1834
3.87228
3.15454
3.29741
4.0526
2.68849
3.10553
2.50861
3.19566
2.60986
3.03308
3.67793
10.0911
3.49869
5.52643
7.46178
14.2454
4.71168
7.21923
2.40075
3.31595
3.31334
3.47884
2.9139
2.92385
2.74085
3.5071
4.57139
3.8998
4.18922
5.56648
4.67168
4.9471
2.35498
2.09887
2.19525
2.71303
2.80006
2.89995
2.61911
5.71412
12.6929
53.47
6.96525
4.01643
24.8171
5.70823
3.86072
4.22853
3.44517
3.56125
4.97678
3.98483
4.3985
2.83418
3.96243
3.29668
3.77658
3.18412
3.7718
4.53301
2.20516
2.687
2.29131
2.81228
3.13421
2.71658
3.24815
2.47064
3.08361
2.60423
3.18492
3.58215
3.72825
3.04385
1.81732
3.04088
2.54981
0.948055
1.19216
0.854483
1.55692
1.02086
2.1254
1.79653
4.40949
2.36235
1.52563
2.49075
1.97403
3.4373
0.897275
0.925609
0.962447
1.05513
1.11268
1.15421
1.09542
1.00965
1.07361
1.0101
1.21128
1.22145
1.29141
1.14911
1.05881
1.26452
1.20912
1.45081
1.21676
1.26646
1.51987
1.75938
1.45303
1.67591
1.72944
1.96168
1.81655
2.05908
1.11428
1.46097
1.34695
1.33929
1.76255
1.44035
1.62258
2.18178
1.88251
2.08129
2.40481
2.17839
2.28263
2.51626
1.27921
1.62976
1.33865
1.38969
1.61416
1.6915
1.32538
1.63843
2.09403
1.89712
2.14121
1.9525
2.22259
2.45918
1.46205
1.91074
1.48473
1.69788
1.5633
1.78261
1.39159
2.61896
2.13275
2.35982
2.4677
3.02964
2.74442
2.72002
1.79247
1.75295
1.46834
1.53078
2.21947
1.86712
1.83503
1.62226
2.12835
2.12216
2.35928
1.74809
1.97708
1.95686
2.07106
2.80045
2.32673
2.60592
2.17173
2.44077
2.93613
3.10267
2.83524
2.56845
2.69213
3.60302
3.25503
2.96734
2.54992
2.78696
2.32974
2.6344
3.50711
2.91848
3.16664
2.91461
3.95715
3.5948
3.9131
3.25498
3.53046
3.21222
4.19397
5.10476
4.3266
6.06502
5.05633
5.22601
6.30148
6.91822
5.25124
3.98828
14.0409
21.5616
6.02673
7.92675
3.34669
3.9799
3.83084
4.08799
3.91749
4.54401
4.74623
2.70908
3.4559
2.84165
3.30814
3.83086
3.97177
3.17011
2.85318
3.17828
3.28897
3.26859
3.38252
3.91336
4.05416
3.7215
4.12893
5.11899
4.32552
6.07938
5.32061
4.83523
2.59951
2.84473
3.06149
2.95808
3.66296
3.16141
3.42186
2.57268
2.74356
2.85681
3.04351
3.14872
3.46396
3.35242
4.15913
3.92576
4.00206
4.87069
4.94053
4.61295
5.78208
4.06243
3.52025
3.29552
3.43305
4.65952
4.24351
3.65243
3.59698
3.44192
2.93707
3.53229
4.89083
4.10668
4.2419
16.4621
29.9071
81.3532
55.6722
34.5669
11.5441
39.6213
5.58111
5.85665
4.59661
6.7096
5.24139
5.43494
7.14689
3.15257
3.66926
2.97118
3.66207
3.76532
3.05877
3.06279
3.78536
3.7871
3.15504
3.6455
5.09816
4.33752
4.33872
3.03147
3.86259
3.50229
3.97767
3.60298
4.33775
4.83575
3.69157
4.349
5.22304
5.08479
4.11496
4.6014
3.90937
4.1104
4.26533
3.60623
4.35243
6.05257
5.22472
5.05122
3.6331
3.09193
3.21078
3.84891
4.17768
4.31091
3.72816
3.34333
3.69553
3.14077
3.97856
3.4294
3.76808
4.37507
3.63461
4.1028
4.25444
4.18684
4.33914
5.03411
4.87091
3.29708
4.15287
3.4
3.82447
3.50045
3.92517
3.20316
6.08888
15.6888
35.3931
12.4907
18.4605
26.8637
102.711
5.24087
4.61846
4.44555
5.37401
6.92524
5.64541
6.50584
3.84105
4.4087
5.24654
4.28872
4.44158
4.56049
3.69667
5.44562
6.58533
5.79682
6.74008
5.89379
7.06402
8.26944
3.01189
3.1428
3.58971
3.66151
3.80725
4.26545
4.45802
19.9675
5.87439
9.04957
42.0749
118.078
13.1153
29.571
5.08948
6.97147
7.50693
7.36011
6.2934
5.75942
6.04517
3.63517
4.08728
4.22887
4.17098
4.30753
4.96563
4.81556
6.13352
7.20623
7.41514
7.52274
7.78391
9.26124
9.90014
3.40496
4.63626
3.94108
3.77363
4.05273
3.30272
3.89424
3.96395
4.12428
3.51534
4.18366
5.45293
4.86138
4.68601
4.54747
6.71514
5.71762
6.15289
5.32901
6.78239
7.94893
3.63866
3.86441
4.27003
4.36197
4.03691
4.7817
5.25974
3.8589
4.55822
4.05251
5.81244
4.9731
5.22596
6.13792
4.32903
4.40531
4.54849
5.16134
5.36789
5.62843
6.8404
4.02225
5.5545
4.67702
5.62925
4.75686
5.49801
6.47523
6.51079
16.5682
71.4404
32.2559
10.0487
109.714
40.6764
5.03361
6.22116
4.74051
5.62459
9.05317
7.7608
6.06704
3.56254
4.47826
4.34674
4.84575
3.78471
4.2273
4.08139
4.21094
5.83517
5.71685
5.72123
4.85552
4.97391
4.98132
3.8696
5.13276
4.00631
6.96411
4.9767
5.18171
7.34976
4.7088
7.04189
5.88651
6.34695
5.41302
6.88163
8.2212
3.98586
5.41659
4.61296
5.46578
4.68299
5.39008
6.27815
7.55475
34.9597
84.3886
29.8236
79.2139
81.4587
91.676
7.73093
8.29169
6.29454
6.58539
12.0249
9.07215
8.21508
4.02969
5.83943
4.18526
7.80069
5.13822
5.37622
8.26264
4.4617
3.66199
3.7706
4.11578
4.73809
4.86947
3.99664
5.00488
5.0751
5.34659
6.71185
7.13227
7.62872
8.13354
4.81226
4.48325
5.4899
4.78818
5.31985
5.90076
6.70892
4.12482
4.54869
4.69868
4.71785
4.86692
5.54732
5.37914
4.40195
4.94641
5.6561
5.68401
7.82082
6.40106
6.76806
4.79547
5.77295
4.95613
5.85017
6.64176
6.84366
5.67084
6.30094
8.23769
7.76832
8.88313
8.12121
10.5843
12.0561
4.75655
5.53044
4.28067
5.61498
9.55321
6.40215
8.14176
6.06958
4.96562
5.13123
5.94882
6.87928
7.08887
5.76577
5.07789
6.44547
4.50368
5.86953
10.898
6.76599
9.20809
4.82039
4.70109
4.08038
4.45875
6.15467
5.27489
5.15619
4.75018
5.69652
4.90277
5.74854
6.52576
6.71939
5.57919
23.1989
57.0271
104.103
59.2362
173.128
100.418
179.203
8.05578
8.36164
6.95001
8.50592
12.8967
10.2671
10.2665
5.09087
7.65077
6.19198
8.32382
6.54538
8.68179
11.5524
6.29004
6.86049
5.89754
9.4169
7.97041
9.15129
10.9256
4.49296
5.98024
5.11629
6.17471
5.29318
6.03597
7.06516
7.86424
7.01499
7.08984
9.17685
9.28968
8.16181
10.8407
179.549
16.8209
48.4835
98.3132
112.765
31.1062
106.861
6.88929
13.8224
10.0936
12.0808
10.1296
7.64175
8.79756
4.54774
6.12926
4.93903
5.25457
5.40481
5.08801
4.41523
8.57369
9.02535
7.23271
8.70717
14.6477
10.9302
10.7039
7.29645
7.1799
6.23378
8.05809
11.3043
9.42926
9.62427
6.60375
6.57734
5.59747
6.47379
9.03113
7.69936
7.5901
6.39249
6.28459
5.41874
6.36778
8.69409
7.42714
7.47202
5.04486
7.29583
6.3101
6.75332
5.96732
7.70186
8.92387
38.4111
24.3214
26.0705
10.3191
26.4753
73.0252
45.4545
112.321
8.40108
9.43033
10.7814
11.7025
13.7779
15.138
18.197
5.22921
5.90708
4.86586
6.00465
8.60351
6.57736
7.80685
4.90036
5.92948
5.04769
5.82377
6.73191
6.92402
5.65578
5.61764
4.45593
4.61389
7.00038
5.39421
5.62109
7.29423
5.4972
9.33462
6.58622
11.8504
7.70412
9.76242
15.421
5.55218
6.93961
5.87036
10.9251
8.81197
9.40364
11.6724
11.3126
8.93853
9.4553
15.5783
11.8391
13.0807
18.201
6.18461
6.23807
5.333
6.23373
8.48737
7.27887
7.25817
6.65718
8.05464
6.7041
9.4322
7.41161
8.75146
11.7655
5.21379
6.2154
5.38134
6.39945
7.28421
7.50434
6.2096
7.57985
6.76425
6.78637
8.85335
8.89325
7.82032
10.4164
8.00915
10.5219
8.29594
6.66077
8.40009
10.9949
14.8643
43.0929
128.55
71.6513
151.038
94.0363
92.8601
124.696
6.01601
12.0392
7.4833
13.6854
8.25112
10.5627
18.0764
9.73716
16.6482
10.6368
19.3246
12.636
14.439
23.8948
4.93362
6.71795
6.45462
6.94459
5.88001
5.73026
5.52774
6.41777
6.3457
5.46889
6.30798
8.81
7.50554
7.33132
9.79914
9.88908
11.1397
13.5724
16.0097
15.6546
23.113
7.65959
7.74132
6.51677
10.624
15.9479
12.7824
13.2212
6.95094
8.16191
7.99011
10.2371
8.22472
8.40122
6.74531
6.85483
6.76156
5.85841
6.96535
9.76163
8.1897
8.19792
8.48587
7.46234
7.71643
9.93249
10.4628
8.92611
12.5152
11.9503
11.3057
7.23694
7.66125
21.0989
12.7566
12.0484
9.92757
8.6926
6.7219
7.07499
15.2753
10.5143
9.26522
5.71683
7.83768
6.34116
9.75863
7.35992
8.38197
11.3855
7.15223
5.60269
5.77141
6.66244
8.35359
8.66085
6.46483
12.1163
10.0697
12.4274
16.4068
12.393
14.9856
21.2726
10.6911
9.3074
8.06958
10.9896
9.42356
12.6956
15.0801
8.27356
13.3916
11.0344
11.4995
9.5703
12.9777
16.2866
10.5306
19.2637
16.3838
17.4932
12.7682
13.3207
13.5694
13.2795
10.8393
9.90259
14.6116
26.2435
21.3872
17.3323
9.56025
9.98416
7.96654
10.5007
19.7414
15.0766
12.8349
7.80319
12.1963
10.3577
10.7023
9.08057
12.3201
14.9322
7.64042
3.23009
65.7141
8.48147
6.29449
31.1746
2.72619
4.62703
5.04018
22.6381
5.27234
10.2525
50.8304
21.3658
12.4492
9.25852
48.5632
2.809
3.42078
3.25044
3.34991
3.51705
4.17136
4.29272
2.96706
3.87876
3.54534
4.04298
3.7099
4.54678
4.99847
4.55324
4.15226
3.62097
4.38482
5.09044
5.71387
6.77581
12.3019
34.0177
87.122
83.9061
26.6042
78.3202
101.353
3.9714
5.21877
4.09681
7.35766
5.29634
5.47574
7.71346
6.95969
4.4987
6.70051
9.50867
5.79069
5.99616
9.93432
5.74858
6.25678
4.84485
7.34166
6.04142
8.34817
10.7541
5.3992
4.90095
7.50492
6.4397
12.4106
7.25252
10.8259
4.80166
5.59976
4.35315
5.86655
9.79877
6.58737
8.45894
4.11506
2.67567
2.0214
4.73544
2.84405
1.51829
2.24243
2.36342
3.87582
3.95955
3.33293
10.2869
3.87122
3.41831
2.55873
5.44903
3.19013
1.58368
1.66006
1.76425
1.72496
1.83396
1.92742
1.99983
1.87279
1.6994
1.84196
2.14614
1.95719
2.12966
2.33303
2.3567
2.26291
2.09576
2.39713
2.70156
2.61464
2.97101
1.90173
2.3169
1.97052
2.63841
2.21906
2.29826
2.72627
2.04157
2.44791
2.11727
2.65287
2.24982
2.3313
2.7465
2.29022
2.4543
2.09506
2.44224
3.16192
2.67277
2.89086
2.46242
2.60024
2.25169
2.47923
3.20692
2.71643
2.92072
5.39669
4.80784
12.2103
15.8521
6.47419
11.0137
46.2792
3.00711
2.91028
2.65613
3.49552
3.06195
3.40647
3.94125
2.99542
2.91159
2.56287
3.56122
3.00263
3.43546
4.10038
2.75259
3.64075
3.11821
3.62572
3.05479
3.49623
4.1876
3.16039
3.14798
2.62141
2.71338
4.00824
3.25694
3.26565
4.51166
3.85393
3.43159
4.03109
4.7087
4.61146
5.47085
4.63165
3.34113
3.95426
3.98073
5.70521
4.79915
4.66623
3.56503
4.92817
4.20808
4.04948
5.85476
4.91312
4.74276
2.88449
3.8122
3.81994
4.27419
3.16503
3.46678
3.46904
4.32836
4.34979
3.5756
4.12701
6.48389
5.08372
5.04416
8.16486
5.50122
6.75251
4.63087
5.35858
5.58458
6.60275
4.53818
5.50444
6.66489
6.91341
5.54466
6.70503
8.60415
5.86941
7.1553
5.70528
7.12243
5.63069
6.80817
8.95581
4.83854
7.4152
7.30878
7.98639
6.06926
6.00472
5.75803
10.0553
7.42413
6.20562
14.9751
8.59556
10.6723
18.9259
6.51596
7.44717
5.50027
11.9824
7.78
9.64942
15.3329
11.2082
10.6989
8.27797
8.08452
10.7036
6.52935
8.30749
8.69245
9.23602
6.96333
9.72095
13.1021
14.5796
20.6759
20.0032
9.18715
13.9889
9.39131
6.98133
8.6959
12.5976
8.63285
17.2603
12.198
9.04519
6.91119
8.45437
11.9499
14.3022
12.5176
8.14932
8.5336
23.9178
13.1886
15.0279
16.4207
12.0702
7.99165
12.5243
28.42
20.4694
16.9064
12.0151
16.0154
9.24581
13.7913
33.7413
24.8584
18.4867
13.2096
16.3528
9.74964
14.0952
34.8302
24.7754
19.575
7.91011
7.39434
6.28201
7.28432
12.0482
9.6762
8.69539
8.51942
16.1806
17.2836
23.911
10.0359
14.397
13.547
10.694
8.20393
12.2647
12.9306
29.3208
20.892
17.7622
7.54544
10.7705
11.2085
10.4753
8.91818
9.12308
8.83786
19.6569
13.966
11.806
16.6615
36.0867
28.9455
20.2317
6.80004
8.05114
7.85858
10.4202
8.29099
8.08353
6.60747
9.98604
16.7461
12.0439
18.0867
12.3341
15.0382
24.0072
17.0623
19.2369
26.5591
14.5854
16.5483
9.33287
10.7527
7.72305
13.2572
12.2113
17.1412
8.75966
11.5777
10.3723
9.51871
15.2831
12.4359
20.3492
16.2982
21.7692
27.1065
8.14956
9.05595
7.13101
9.72449
16.8434
13.6534
11.5418
15.6615
22.674
13.0748
15.6387
33.3799
18.9235
27.6485
7.88088
13.3541
10.5763
11.3944
9.17269
12.6195
17.0485
19.7174
16.6512
14.6731
21.3276
26.7323
30.5254
40.8002
107.582
104.546
72.0705
110.304
111.875
105.428
15.3457
10.8264
19.9422
11.5732
22.715
12.8437
13.7584
24.3259
7.36424
11.5457
10.847
10.3627
9.05577
8.77257
8.59335
12.2447
19.9727
14.4201
27.6453
20.1947
24.9207
35.1335
8.61264
14.1002
11.7247
12.9279
10.5481
15.4383
19.8475
14.9853
15.0223
10.3868
39.1899
23.3689
14.4875
23.2203
39.69
16.0455
23.4908
14.6187
10.8849
16.0159
23.4534
15.7038
11.3962
17.9481
28.2849
42.979
16.6338
24.4184
47.4317
28.2593
16.305
17.6059
11.4252
18.792
30.6237
26.3694
27.2809
16.1261
29.764
18.09
17.4499
11.3669
20.476
21.937
12.5059
16.3738
46.8388
29.0658
27.1484
27.3526
23.8159
17.0133
20.553
53.1885
30.367
35.2595
7.90982
10.5537
14.5532
9.44591
9.78023
10.9483
7.65912
11.5944
22.0981
14.2519
26.211
16.0198
20.4428
35.2046
15.6809
14.9775
10.267
12.3473
31.4078
19.0218
18.9084
20.1552
17.7559
14.601
18.2963
40.2036
23.1053
28.6161
19.6373
20.0272
13.5796
35.5217
23.072
34.7106
53.4842
20.711
23.337
26.6364
30.4612
35.4296
37.894
53.0945
47.145
41.9673
29.4771
16.2611
22.9116
25.7658
37.2726
59.7782
40.8974
23.1656
19.7976
13.8824
23.712
34.6655
9.54164
21.4626
14.0917
17.1227
11.5399
17.7789
28.3901
8.71902
15.7112
16.5761
13.5491
10.9038
12.3434
10.6028
14.0428
13.4565
11.1975
15.5259
29.1077
19.5394
21.0007
21.0222
23.7716
14.6839
42.33
25.3136
37.2699
61.55
29.4246
37.0578
19.1079
41.3542
32.8266
52.1832
66.6912
27.3735
30.2249
38.3785
21.0905
23.5741
13.0419
16.574
1.86358
14.0026
2.16457
29.8489
4.8553
2.15919
4.36911
2.50742
3.66557
3.63923
2.5117
4.36773
2.50236
3.48942
4.3866
1.87975
3.51031
2.52224
4.42862
2.15283
2.2504
2.23816
2.51546
2.50197
2.59399
2.60931
2.18391
2.26303
2.24257
2.5361
2.50922
2.59855
2.62172
19.1687
5.43167
2.70123
2.71261
5.42852
4.86973
19.1449
3.34191
5.27806
4.28153
3.31888
5.34146
4.22244
13.9326
2.36903
2.49587
2.35294
2.7212
2.90977
2.89512
2.74038
2.49728
2.3624
2.35051
2.71874
2.91461
2.73396
2.89658
1.94608
1.85288
1.93508
2.41248
2.33808
2.32556
2.42562
18.3111
6.42434
4.69835
4.63625
18.1228
6.40641
29.9399
3.00238
3.62716
2.97128
3.07763
3.81442
3.77983
3.10528
3.61806
2.97963
2.96317
3.0726
3.79558
3.09144
3.77324
1.85851
1.96447
1.94155
2.42007
2.35711
2.44449
2.33285
2.13183
2.48667
2.11963
2.62568
3.04768
3.03128
2.6396
2.4936
2.15422
2.12759
2.6343
3.07019
2.66185
3.03967
0.787384
2.42026
1.50424
2.05618
0.993569
0.799798
1.5201
0.987274
2.07076
1.42695
3.40084
1.87458
1.40367
2.42892
1.84484
3.36727
0.788284
0.878318
0.87601
1.06064
0.99661
1.06497
0.995043
0.822468
0.883012
0.898847
1.06723
1.02486
1.08356
1.00476
0.986085
1.18206
1.16871
1.16899
1.40888
1.17869
1.39402
0.997173
1.1665
1.17747
1.17152
1.41052
1.18563
1.39396
1.40828
1.65741
1.63423
1.90801
1.68708
1.93056
1.66802
1.41487
1.63724
1.62801
1.90268
1.68242
1.66559
1.91544
1.8471
2.0431
2.07182
2.13466
2.39226
2.16189
2.36252
2.04029
1.83841
2.03315
2.12577
2.35917
2.13438
2.35123
1.28082
1.22618
1.57237
1.49551
1.28741
1.56395
1.22082
1.28725
1.50132
1.24658
1.59089
1.30514
1.57036
1.22818
1.40599
1.72762
1.69745
2.04054
1.41702
1.71627
1.68173
1.4103
2.04522
1.74649
1.70512
1.42938
1.72265
1.68388
2.2587
2.01486
2.73696
2.40123
2.28088
1.99595
2.71396
2.25489
2.40351
2.01682
2.73461
1.99572
2.27195
2.71244
2.51029
3.05358
2.81364
3.36267
2.53785
3.02344
2.78104
2.50189
3.35084
3.03494
2.7802
2.51456
3.01657
2.76918
2.69011
3.11951
3.1064
3.20693
3.19262
3.8265
3.84273
2.69404
3.1298
3.10981
3.21735
3.19598
3.82994
3.85354
3.21883
3.45758
3.99721
4.34324
3.96858
3.43931
3.2421
3.21623
4.34325
3.98735
3.46187
3.23526
3.96519
3.44061
2.97265
2.89845
3.58035
3.47464
3.56429
2.88423
2.98833
2.98011
3.48308
2.91755
3.60246
3.00519
3.57368
2.89164
2.92639
3.31735
2.90692
3.55962
3.54022
4.12804
4.15306
2.91201
3.34733
2.94198
3.58317
3.54826
4.1336
4.17023
3.20772
3.67888
3.84825
4.37274
3.8321
3.66261
3.22404
3.21677
4.38852
3.87685
3.70554
3.24474
3.84429
3.67259
3.78622
4.23432
3.75178
4.8291
5.72472
5.66263
4.86778
3.74712
4.24565
3.77247
4.82713
5.6805
4.86078
5.64952
6.80454
3.79908
4.8397
3.78472
4.86171
6.76632
4.88161
3.95679
5.3985
3.93884
5.00868
7.62665
7.58285
5.035
5.39853
3.96493
3.94151
5.01134
7.62263
5.04233
7.58293
4.84438
3.81204
3.78884
4.86608
6.81149
4.8946
6.76965
4.64797
4.99922
4.95102
6.61077
6.52911
7.42051
7.5038
4.66186
4.96789
4.94112
6.5473
6.51058
7.40239
7.4393
4.33269
5.26642
4.31546
5.21932
6.7697
6.75304
5.24199
5.28787
4.36937
4.32776
5.23189
6.85132
5.28046
6.77996
5.45413
6.38268
5.4074
8.58729
10.7138
10.65
8.65753
6.37891
5.42903
5.4002
8.57376
10.6689
8.60293
10.6403
11.0242
7.01954
11.6581
19.0636
11.5967
10.9637
7.06371
7.02155
19.0607
11.6492
11.0213
7.06736
11.5962
10.9652
6.51733
13.8526
9.65861
8.46015
6.5654
9.56559
8.40473
6.51447
9.61524
8.52427
13.8703
9.55028
8.42337
6.55913
18.0665
10.5498
10.5025
12.4899
22.1661
12.5257
22.1224
3.3768
4.43302
22.1983
5.22096
2.69336
4.45173
4.97401
22.1882
2.68898
3.20451
2.68353
3.19746
3.37017
4.10892
4.1166
2.68429
3.38374
3.21132
3.19906
3.37184
4.11168
4.12636
6.57393
6.59276
4.44102
9.34316
5.70469
5.69051
9.31507
3.91327
7.2188
4.96138
4.94945
3.90404
5.21047
7.18892
6.60386
4.43631
6.57846
5.69439
9.35269
5.71588
9.31999
4.95365
3.923
3.90677
5.21448
7.22434
5.23259
7.1919
2.20762
3.81008
2.31248
1.62677
1.48973
2.21176
2.3242
3.82207
1.47917
1.7197
1.47559
1.71668
1.62285
1.88322
1.88832
1.47976
1.63261
1.7323
1.72123
1.62501
1.88577
1.89587
2.59561
1.86731
2.20276
1.86296
2.17218
2.17783
2.5893
1.99384
2.30452
1.98892
2.19794
2.6021
2.20518
2.59206
2.20357
1.87258
1.86449
2.17425
2.60208
2.18504
2.59085
2.30869
2.00634
1.99335
2.20086
2.61166
2.21394
2.5953
3.10792
2.565
3.09021
3.7986
2.57275
3.07953
3.09943
2.5677
3.80219
3.11701
3.1014
2.58186
3.08302
3.10189
14.0449
8.00016
12.2784
7.97029
22.137
12.2411
14.0127
7.97358
22.1391
14.0506
12.28
8.00612
12.2446
14.0179
22.3919
12.6501
10.6578
18.116
10.5322
12.5229
22.1822
26.2976
18.9999
15.1074
14.9896
30.064
26.1945
18.9003
14.9627
30.1284
26.1711
18.9241
14.9985
26.1703
18.8857
18.6667
49.3888
48.5231
28.1033
27.3902
41.3094
66.4368
26.6524
15.3713
19.3624
16.4617
30.72
28.1554
20.6493
24.5742
54.2328
47.1302
67.1719
37.524
43.7362
30.4514
23.9806
21.0697
16.9622
30.0632
49.0623
36.8149
42.4513
19.7274
42.2468
24.1805
45.2179
25.8325
32.2047
54.7738
20.6331
23.0911
15.5361
19.163
48.9655
27.0282
31.4154
17.9376
21.8793
14.5957
18.7689
45.0563
24.4884
32.6075
28.5546
32.0996
41.8601
38.6569
50.6407
54.907
74.0125
14.6099
13.5786
10.9043
15.6496
32.5852
22.9247
20.6587
18.7039
36.2792
27.5757
32.5279
22.6066
31.2733
23.2497
15.1834
30.0312
32.0173
40.6412
23.6115
24.3953
19.0432
22.7459
27.1195
15.9093
20.2844
57.7985
30.2614
36.6344
29.8745
23.0374
17.8847
26.6151
66.0804
35.3943
47.8412
25.0197
48.024
38.0786
55.6
44.6525
68.4518
80.812
22.3505
53.9511
51.6202
59.5021
39.6774
37.19
31.4394
41.7403
37.1178
27.954
67.7561
45.0978
64.1002
103.139
66.272
38.2434
22.7801
66.0371
101.749
66.2318
38.2009
41.7242
43.1996
24.6669
70.3105
102.593
68.4908
39.7819
73.4703
54.0612
61.2028
36.935
40.1629
21.9598
30.194
44.5243
40.3881
25.0621
42.1328
74.4928
69.1214
104.386
23.007
19.1671
14.5501
23.204
55.1162
31.5641
38.9118
79.119
69.4536
100.425
47.2029
71.4724
26.5927
40.4594
51.3945
33.681
60.9095
81.5421
96.4285
85.4687
55.6397
45.8498
79.0623
102.278
51.7795
84.5582
29.4486
52.5369
24.6141
69.4356
52.8797
62.4765
33.578
36.9314
43.8109
34.2714
81.4654
46.07
83.8499
50.0975
71.5093
125.294
33.3394
71.018
45.9818
79.6314
54.5126
80.861
123.823
34.8513
60.6396
51.5721
61.5164
60.0347
81.8483
72.2989
47.9175
60.5203
34.8287
44.1526
87.3407
70.4028
61.6716
43.1356
33.7737
28.7869
37.7909
44.3052
51.4267
41.2349
39.249
42.7062
24.3003
31.6597
95.748
52.6965
57.8433
48.5924
53.0159
31.3677
55.9966
97.8254
80.8641
84.4849
43.8756
107.535
62.5308
104.179
62.6665
93.5072
144.391
26.8782
60.9929
81.9034
71.4565
41.8514
36.9508
50.3507
79.3028
47.4645
61.442
85.0886
133.462
137.268
103.242
28.4846
19.2846
24.9959
25.8229
35.0028
32.7863
19.3351
29.5333
6.679
17.8079
41.8309
25.1326
50.1882
6.60339e-06
60.745
0.00553457
1.2298e-08
33.582
46.373
2.38068e-07
7.98336e-13
19.9259
53.8557
2.06367e-07
8.90916e-12
2.22045e-16
11.3926
52.9895
0.000193674
7.1751e-10
2.22045e-16
2.22045e-16
0.336235
1.5993e-05
5.49533e-10
2.22045e-16
2.22045e-16
2.22045e-16
4.45666e-06
2.67378e-11
2.22045e-16
2.22045e-16
2.22045e-16
2.22045e-16
1.07658e-11
2.22045e-16
2.22045e-16
2.22045e-16
2.22045e-16
2.22045e-16
2.22045e-16
2.22045e-16
2.22045e-16
2.22045e-16
2.22045e-16
2.22045e-16
12.1982
4.14188
5.26027
4.17963
10.6215
5.33856
12.7385
46.6224
38.0527
22.7649
8.58452
38.3774
33.5853
47.1121
11.2671
54.9038
32.5039
6.85547
49.5981
35.9763
55.5107
11.3566
43.824
48.5678
25.6583
43.5697
51.3448
49.0799
60.484
25.1541
9.15909
6.73769
26.1514
25.5247
65.5597
4.23802
4.12934
4.22475
5.15285
5.02754
5.02114
5.15955
4.14423
4.27872
4.24062
5.18533
5.11193
5.25069
5.05139
4.55701
5.25207
4.54463
5.62528
6.75605
6.75992
5.62988
5.28074
4.60885
4.56473
5.66656
6.92608
5.74523
6.821
6.84831
10.8687
6.81603
10.8126
11.2187
18.669
18.7524
6.81925
10.8666
11.2658
10.8146
11.2206
18.6684
18.7352
8.59037
36.4444
52.474
52.1319
60.79
32.9779
9.27505
11.364
16.7808
16.7455
20.6663
20.6309
30.3754
30.4128
11.3763
20.6424
16.7694
16.7377
20.6185
30.3546
30.3784
17.1798
19.6656
17.5135
25.5303
27.0628
25.5904
27.0092
12.8487
14.9476
8.60327
8.5587
12.7784
14.8672
22.656
8.55578
12.8221
12.7741
14.9008
14.8584
22.6494
22.7193
21.7566
20.424
18.1895
26.6024
28.1113
25.9167
27.2955
14.4855
6.61228
9.44377
6.60856
9.43039
9.17736
14.5064
6.6518
9.62186
9.49077
9.42353
9.27193
14.6386
14.8642
22.1946
26.1165
22.5334
30.7201
28.8126
28.6777
30.6078
10.1774
10.5719
6.89907
6.91382
10.2285
10.6218
6.69319
38.8507
43.2633
21.5411
18.707
37.2362
33.9644
38.4053
6.98962
10.3884
6.87902
11.0354
7.11157
10.7884
6.76435
0.00411889
6.52911e-07
2.06315e-13
28.7855
31.0355
2.0336e-08
1.39492e-15
18.5943
25.8432
0.0180382
1.14131e-06
3.46548e-13
0.00432242
1.65043e-06
6.04772e-13
0.0172857
7.98293e-08
8.25126e-15
2.22045e-16
59.5635
8.92718e-08
2.4518e-13
2.22045e-16
49.0138
0.0753078
0.00211153
60.6614
0.000801425
4.87066e-08
0.0273284
2.43258e-07
8.78011e-13
40.4444
24.5633
1.55273e-07
2.36379e-14
49.4384
0.0269384
9.35028e-08
1.40103e-13
2.22045e-16
57.9373
75.726
3.9252e-05
3.45845e-13
2.22045e-16
2.22045e-16
3.14199e-07
7.70301e-13
2.22045e-16
2.22045e-16
2.22045e-16
4.45943e-13
2.22045e-16
2.22045e-16
2.22045e-16
2.22045e-16
2.22045e-16
2.22045e-16
2.22045e-16
2.22045e-16
2.22045e-16
2.22045e-16
2.22045e-16
2.22045e-16
2.22045e-16
2.22045e-16
14.6202
46.7455
41.7217
35.8445
50.2466
5.74659e-06
0.513533
0.00164299
9.94775e-10
12.5223
45.9808
3.41804e-07
8.01365e-13
15.9445
53.0386
3.4242e-05
3.71203e-12
2.22045e-16
22.5923
52.6278
2.61976e-05
1.26737e-10
2.22045e-16
2.22045e-16
0.0627193
9.48296e-06
5.81833e-11
2.22045e-16
2.22045e-16
2.22045e-16
1.27702e-05
3.42748e-12
2.22045e-16
2.22045e-16
2.22045e-16
2.22045e-16
1.79958e-13
2.22045e-16
2.22045e-16
2.22045e-16
2.22045e-16
2.22045e-16
2.22045e-16
2.22045e-16
2.22045e-16
2.22045e-16
2.22045e-16
2.22045e-16
30.0683
41.9209
0.0105354
5.06514e-10
2.22045e-16
0.0214021
2.23431e-09
2.22045e-16
2.22045e-16
2.22045e-16
2.22045e-16
2.22045e-16
2.22045e-16
2.22045e-16
2.22045e-16
2.22045e-16
2.22045e-16
2.22045e-16
2.22045e-16
2.22045e-16
2.22045e-16
2.22045e-16
8.47773e-14
2.22045e-16
2.22045e-16
2.22045e-16
2.22045e-16
2.22045e-16
2.22045e-16
3.43215e-07
8.2229e-10
2.31148e-16
2.22045e-16
2.22045e-16
2.22045e-16
2.22045e-16
62.7494
0.00249041
1.03952e-09
3.09752e-16
2.22045e-16
2.22045e-16
2.22045e-16
24.1027
79.7334
0.602065
3.01841e-09
3.07651e-16
2.22045e-16
2.22045e-16
13.6266
85.1763
9.3162
1.77696e-09
3.81067e-16
2.22045e-16
11.9473
86.0207
1.25296
1.74502e-09
2.22045e-16
19.8279
74.8449
3.1728e-07
9.10757e-13
2.22045e-16
2.22045e-16
2.22045e-16
2.22045e-16
2.22045e-16
2.22045e-16
2.22045e-16
2.22045e-16
2.22045e-16
2.22045e-16
2.22045e-16
2.22045e-16
2.22045e-16
2.22045e-16
2.22045e-16
2.22045e-16
2.22045e-16
2.22045e-16
2.22045e-16
2.22045e-16
2.22045e-16
8.43974e-10
2.81555e-14
2.22045e-16
2.22045e-16
2.22045e-16
2.22045e-16
2.22045e-16
1.75381
4.03764e-07
2.23315e-10
2.22045e-16
2.22045e-16
2.22045e-16
2.22045e-16
57.2003
97.5108
0.00138233
4.20409e-12
2.22045e-16
2.22045e-16
2.22045e-16
29.2362
118.071
0.000187505
1.12879e-11
2.22045e-16
2.22045e-16
37.927
122.209
7.36472e-05
6.05104e-12
2.22045e-16
46.9473
50.0836
1.30882e-10
2.22045e-16
2.22045e-16
2.22045e-16
2.22045e-16
2.22045e-16
2.22045e-16
2.22045e-16
2.22045e-16
2.22045e-16
2.22045e-16
2.22045e-16
2.22045e-16
2.22045e-16
2.22045e-16
2.22045e-16
2.22045e-16
2.22045e-16
2.22045e-16
2.22045e-16
2.22045e-16
2.22045e-16
2.22045e-16
3.93757e-15
2.22045e-16
2.22045e-16
2.22045e-16
2.22045e-16
2.22045e-16
2.22045e-16
4.05072e-08
8.4072e-11
2.22045e-16
2.22045e-16
2.22045e-16
2.22045e-16
2.22045e-16
131.711
0.00175677
3.69086e-11
2.22045e-16
2.22045e-16
2.22045e-16
2.22045e-16
197.217
0.13042
6.46951e-12
2.22045e-16
2.22045e-16
2.22045e-16
136.782
214.54
3.64378e-13
2.22045e-16
2.22045e-16
165.718
165.548
1.7067e-13
2.22045e-16
2.22045e-16
2.22045e-16
2.22045e-16
2.22045e-16
2.22045e-16
2.22045e-16
2.22045e-16
2.22045e-16
2.22045e-16
2.22045e-16
2.22045e-16
2.22045e-16
2.22045e-16
2.22045e-16
2.22045e-16
2.22045e-16
2.22045e-16
2.22045e-16
2.22045e-16
2.22045e-16
2.22045e-16
2.22045e-16
2.22045e-16
2.22045e-16
2.22045e-16
2.22045e-16
2.22045e-16
2.22045e-16
1.03155e-11
1.17392e-15
2.22045e-16
2.22045e-16
2.22045e-16
2.22045e-16
2.22045e-16
73.2894
6.85832e-07
2.42011e-15
2.22045e-16
2.22045e-16
2.22045e-16
2.22045e-16
82.6625
96.7378
2.00135e-05
3.18424e-15
2.22045e-16
2.22045e-16
2.22045e-16
100.718
13.7937
3.41635e-06
1.66743e-15
2.22045e-16
2.22045e-16
100.066
86.8467
7.85838e-09
2.22045e-16
2.22045e-16
2.22045e-16
2.22045e-16
2.22045e-16
2.22045e-16
2.22045e-16
2.22045e-16
2.22045e-16
2.22045e-16
2.22045e-16
2.22045e-16
2.22045e-16
2.22045e-16
2.22045e-16
2.22045e-16
2.22045e-16
2.22045e-16
2.22045e-16
2.22045e-16
2.22045e-16
2.22045e-16
2.22045e-16
2.22045e-16
2.22045e-16
2.22045e-16
2.22045e-16
2.22045e-16
2.22045e-16
2.22045e-16
6.57955e-16
2.22045e-16
2.22045e-16
2.22045e-16
2.22045e-16
2.22045e-16
2.22045e-16
2.67862e-09
6.65852e-15
2.22045e-16
2.22045e-16
2.22045e-16
2.22045e-16
2.22045e-16
0.00604971
0.00223099
1.35078e-14
2.22045e-16
2.22045e-16
2.22045e-16
2.22045e-16
110.533
20.8936
0.0166209
1.15354e-14
2.22045e-16
2.22045e-16
2.22045e-16
15.655
9.52248e-06
4.17804e-15
2.22045e-16
2.22045e-16
2.22045e-16
2.22045e-16
2.22045e-16
2.22045e-16
2.22045e-16
2.22045e-16
2.22045e-16
2.22045e-16
2.22045e-16
2.22045e-16
2.22045e-16
2.22045e-16
2.22045e-16
2.22045e-16
2.22045e-16
2.22045e-16
2.22045e-16
2.22045e-16
2.22045e-16
2.22045e-16
2.22045e-16
2.22045e-16
2.22045e-16
2.22045e-16
2.22045e-16
2.22045e-16
2.22045e-16
2.22045e-16
2.22045e-16
2.22045e-16
2.22045e-16
2.22045e-16
2.22045e-16
2.22045e-16
2.22045e-16
8.26171e-16
2.22045e-16
2.22045e-16
2.22045e-16
2.22045e-16
2.22045e-16
2.22045e-16
7.40172e-10
9.23828e-15
2.22045e-16
2.22045e-16
2.22045e-16
2.22045e-16
2.22045e-16
51.1013
0.000568867
1.41396e-14
2.22045e-16
2.22045e-16
2.22045e-16
2.22045e-16
32.0398
97.3556
0.000598536
1.30876e-08
7.19301e-15
2.22045e-16
2.22045e-16
2.22045e-16
2.22045e-16
2.22045e-16
2.22045e-16
2.22045e-16
2.22045e-16
2.22045e-16
2.22045e-16
2.22045e-16
2.22045e-16
2.22045e-16
2.22045e-16
2.22045e-16
2.22045e-16
2.22045e-16
2.22045e-16
2.22045e-16
2.22045e-16
2.22045e-16
2.22045e-16
2.22045e-16
2.22045e-16
2.22045e-16
2.22045e-16
2.22045e-16
2.22045e-16
2.22045e-16
2.22045e-16
2.22045e-16
2.22045e-16
2.22045e-16
2.22045e-16
2.22045e-16
2.22045e-16
2.22045e-16
2.22045e-16
2.22045e-16
2.22045e-16
2.22045e-16
2.22045e-16
2.22045e-16
2.22045e-16
2.22045e-16
1.57968e-15
2.22045e-16
2.22045e-16
2.22045e-16
2.22045e-16
2.22045e-16
2.22045e-16
8.0844e-09
5.72782e-15
2.22045e-16
2.22045e-16
2.22045e-16
2.22045e-16
2.22045e-16
0.0067442
1.98172e-06
5.12376e-07
2.4586e-15
2.22045e-16
2.22045e-16
2.22045e-16
2.22045e-16
2.22045e-16
2.22045e-16
2.22045e-16
2.22045e-16
2.22045e-16
2.22045e-16
2.22045e-16
2.22045e-16
2.22045e-16
2.22045e-16
2.22045e-16
2.22045e-16
2.22045e-16
2.22045e-16
2.22045e-16
2.22045e-16
2.22045e-16
2.22045e-16
2.22045e-16
2.22045e-16
2.22045e-16
2.22045e-16
2.22045e-16
2.22045e-16
2.22045e-16
2.22045e-16
2.22045e-16
2.22045e-16
2.22045e-16
2.22045e-16
2.22045e-16
2.22045e-16
2.22045e-16
2.22045e-16
2.22045e-16
2.22045e-16
2.22045e-16
2.22045e-16
2.22045e-16
2.22045e-16
2.22045e-16
2.22045e-16
2.22045e-16