/*--------------------------------*- C++ -*----------------------------------*\
  =========                 |
  \\      /  F ield         | OpenFOAM: The Open Source CFD Toolbox
   \\    /   O peration     | Website:  https://openfoam.org
    \\  /    A nd           | Version:  9
     \\/     M anipulation  |
\*---------------------------------------------------------------------------*/
FoamFile
{
    format      ascii;
    class       volScalarField;
    location    "0.00185";
    object      rho.air;
}
// * * * * * * * * * * * * * * * * * * * * * * * * * * * * * * * * * * * * * //

dimensions      [1 -3 0 0 0 0 0];

internalField   nonuniform List<scalar> 
16029
(
0.0775263
1.92262
0.738481
2.29972
1.33119
2.29377
2.8988
1.0087
1.66341
0.895387
3.41284
1.75888
1.24278
1.116
1.84551
1.64672
3.38129
3.01158
1.40026
0.223084
2.17949
0.813099
2.55499
1.4803
3.24884
2.90827
0.12845
0.269908
0.217228
0.872418
0.491469
0.274173
0.670061
0.787493
1.03862
1.67611
2.07846
1.47406
0.917584
1.7616
1.05687
0.579984
0.868667
1.1202
2.01727
0.910698
1.35091
1.08201
2.41528
2.97368
1.50829
1.12383
1.46457
2.28103
0.0986026
0.129154
0.102207
0.119557
0.152595
0.188316
0.149779
1.35743
0.35398
0.491936
0.270218
0.872249
0.664546
1.22253
0.399218
0.950465
0.592752
0.957087
1.25194
0.468662
0.818179
0.165329
0.169346
0.21229
0.2352
0.24613
0.294701
0.191185
0.174372
0.386336
0.32224
0.429069
0.248128
0.297911
0.493953
0.767089
0.808618
0.828866
0.958429
0.981375
1.00705
1.03148
0.82962
0.937849
0.871011
1.09902
1.02714
1.07928
1.15492
1.1163
2.31142
2.728
0.989819
1.97421
1.53072
2.71839
1.5207
1.02375
0.666618
1.09654
1.44686
0.408439
0.587867
0.321873
0.182153
0.223287
0.26944
0.330063
0.380064
0.223711
0.738657
0.50415
0.659713
0.634204
0.804064
0.706893
0.883305
1.15819
1.19826
2.19334
1.49771
1.02899
1.73198
2.8898
0.331182
0.530768
0.457209
0.356991
0.635059
0.563675
0.42414
0.988655
0.786438
0.899279
1.0843
0.947552
1.03522
1.18311
0.9629
3.25343
1.71455
1.13836
1.51345
1.61342
3.11063
0.271082
0.291027
0.341917
0.316113
0.367188
0.451569
0.400977
0.856805
0.937439
0.876166
1.12186
1.05946
1.08428
1.14811
0.328936
0.351198
0.540462
0.402716
0.453364
0.40255
0.27943
0.450382
0.545346
0.339248
0.394565
0.731611
0.511398
0.608234
0.980808
1.02631
1.1332
1.19476
1.25726
1.3118
1.38393
0.982173
0.976252
0.916701
1.1323
1.27106
1.20849
1.1961
0.315794
0.288235
0.334572
0.49016
0.421029
0.468046
0.443517
0.659621
0.909901
0.823164
0.856351
0.782205
0.967802
1.05276
1.61347
2.57693
1.80206
1.91218
1.2025
2.48022
2.6748
1.98567
2.68034
1.6294
1.84896
3.37161
2.35131
2.18055
1.39949
0.574865
0.895703
0.969124
1.87209
1.22522
2.22354
2.68689
3.1198
1.69706
2.28429
2.66773
3.3699
2.50933
1.18836
1.51034
1.21638
1.56971
1.25179
1.28324
1.61266
0.603785
0.675075
0.472378
0.706397
0.497829
0.576829
0.777921
2.09912
0.599859
1.00992
1.55944
2.5141
0.935319
1.28073
0.459561
0.746481
0.663906
0.799514
0.583106
0.675968
0.532997
0.959312
1.19907
1.08868
1.13235
1.42131
1.29572
1.23539
0.402731
0.314923
0.36256
0.523601
0.52543
0.571397
0.477163
1.28416
2.46442
3.29882
1.76331
1.06314
3.29827
1.60379
1.3528
1.57588
1.26959
1.34157
1.80741
1.43278
1.68932
0.769812
1.13339
0.962093
0.97598
0.83782
1.04038
1.21131
0.441988
0.684798
0.462133
0.619761
0.822508
0.598616
0.842024
0.373339
0.515967
0.424072
0.545434
0.605814
0.647038
0.498547
0.233108
0.853453
0.617002
0.0528217
0.141551
0.0409069
0.170592
0.091038
0.52038
0.436659
1.47918
0.71472
0.341359
0.751384
0.618776
1.31711
0.0458037
0.0541124
0.0602319
0.0667021
0.0860433
0.0946264
0.0735139
0.0629009
0.0829094
0.0694288
0.107456
0.0981932
0.126247
0.0835299
0.10143
0.196463
0.177281
0.270413
0.143196
0.157078
0.292839
0.49115
0.315854
0.466695
0.447034
0.613718
0.47336
0.637522
0.117784
0.268387
0.226462
0.178318
0.372425
0.208284
0.326716
0.722035
0.598142
0.702838
0.875578
0.754052
0.774714
0.895621
0.107031
0.2081
0.134739
0.146465
0.184108
0.223275
0.116694
0.381517
0.589406
0.532007
0.568523
0.513977
0.677631
0.734168
0.16376
0.277758
0.15211
0.204004
0.18869
0.245684
0.131036
0.822212
0.657477
0.761539
0.813808
1.0008
0.872494
0.936774
0.316301
0.387426
0.217437
0.23432
0.542272
0.335179
0.410562
0.259478
0.400957
0.489957
0.574283
0.294223
0.362897
0.444696
0.595895
0.951288
0.776702
0.773459
0.620411
0.799462
0.973789
1.13269
1.07771
0.931255
0.953054
1.34558
1.15705
1.10076
0.70859
0.807293
0.658051
0.838123
1.06532
0.893176
1.01146
0.993853
1.26646
1.21609
1.39838
1.05532
1.20099
1.14607
1.1983
1.40441
1.25857
1.60358
1.44826
1.53539
1.7143
1.74347
1.1145
0.776988
2.72698
3.00048
1.20699
1.50767
1.0705
1.2293
1.17868
1.37371
1.31235
1.44238
1.50444
0.438718
0.637989
0.488865
0.585018
0.702901
0.743547
0.538777
1.01273
1.11301
1.14053
1.20622
1.23703
1.36365
1.40148
1.13473
1.30858
1.58518
1.22801
1.71259
1.44946
1.42031
0.533402
0.714818
0.755927
0.651819
0.914227
0.697231
0.871913
0.457617
0.479878
0.528157
0.590649
0.635286
0.714906
0.672237
0.994417
0.884054
0.928061
1.07561
1.13519
0.999266
1.21733
1.65616
1.38365
1.31392
1.34743
1.82238
1.70506
1.42043
0.74584
0.631983
0.549832
0.660857
0.930167
0.751114
0.85138
3.0313
3.08021
3.00809
1.23872
3.4012
2.83494
1.44277
1.81171
1.9698
1.55708
1.97983
1.60159
1.71336
2.17969
0.690631
0.899748
0.624079
0.908025
0.935295
0.666427
0.648954
0.819036
0.752219
0.613391
0.69985
1.03613
0.848396
0.894582
1.05337
1.25742
1.18722
1.3717
1.29035
1.4646
1.55859
1.40853
1.58414
1.92336
1.92555
1.5036
1.7909
1.48483
0.981108
1.04634
0.909058
1.12337
1.38112
1.29467
1.20721
0.709794
0.566916
0.613108
0.808656
0.87777
0.916071
0.768191
0.808543
0.871538
0.655288
0.970119
0.757354
0.83198
1.03932
0.616246
0.690788
0.725733
0.721815
0.757226
0.881347
0.850414
0.728158
1.04377
0.742217
0.943891
0.782216
0.9792
0.687248
1.10867
2.07189
3.11954
1.726
2.55679
2.61078
3.24639
1.45755
1.35564
1.30668
1.60046
1.87646
1.66823
1.79314
0.688653
0.82241
0.99009
0.764744
0.800763
0.8588
0.647518
1.32074
1.45186
1.26014
1.55713
1.33962
1.44392
1.69838
0.910752
0.93132
1.16186
1.08048
1.10106
1.34602
1.37155
2.83529
1.1693
1.51567
3.28693
3.04026
2.11997
2.87183
1.33036
1.68837
1.66842
1.8576
1.55652
1.54846
1.43659
0.641936
0.721746
0.757983
0.768807
0.804915
0.937842
0.9054
1.5742
1.64517
1.77747
1.77208
1.92648
1.9711
2.18004
0.81056
1.24907
1.01788
1.00194
1.04448
0.788013
1.02278
0.823199
0.943377
0.734209
0.920329
1.21835
1.12156
1.02286
0.9551
1.2438
1.15742
1.15326
1.07335
1.30379
1.39751
1.00694
1.19995
1.25423
1.17837
1.13299
1.41204
1.46959
1.36429
1.65021
1.39286
2.00367
1.64104
1.67558
2.05381
1.31188
1.35273
1.48328
1.47378
1.62811
1.68797
1.86165
0.7205
0.9835
0.818763
1.01931
0.850831
0.966496
1.12648
1.37475
2.6934
3.20437
3.11493
1.7732
3.03303
3.25453
1.72272
2.1109
1.63404
1.8019
2.51207
2.35516
1.9087
0.845932
1.15174
1.10475
1.2926
0.897291
1.08774
1.05603
0.792838
1.13422
1.08088
1.06871
0.895658
0.95582
0.976113
1.28672
1.5753
1.31997
1.95725
1.59219
1.64169
2.02892
1.05381
1.47203
1.29141
1.28339
1.12911
1.37907
1.57093
0.749233
1.02816
0.854002
1.08106
0.902419
1.02806
1.19842
1.8259
2.81599
1.80214
2.85605
2.55585
2.01697
1.43678
1.94829
2.18056
1.7623
1.90468
2.75472
2.44374
2.13798
1.50373
2.04787
1.54967
2.26846
1.72715
1.7875
2.33402
1.13135
0.815479
0.854325
0.94454
1.20869
1.24353
0.906837
1.89871
2.01862
2.08362
2.39216
2.46546
2.69072
2.76999
1.32335
1.12927
1.40343
1.23769
1.30993
1.54367
1.63186
0.816653
0.899371
0.935861
1.0033
1.03975
1.18588
1.15092
1.44149
1.51255
1.81043
1.7321
2.26099
1.81321
2.1381
0.819286
0.996526
0.849415
1.0288
1.18478
1.21206
1.00063
1.63738
1.93795
1.85665
2.15033
2.03226
2.33854
2.49838
1.45761
1.64905
1.3754
1.72475
2.28833
1.84776
2.1411
1.14665
0.895467
0.92743
1.07798
1.31052
1.33998
1.04869
1.74638
2.16387
1.62761
1.88615
2.54222
2.02918
2.42934
1.23909
1.17095
0.966407
1.05375
1.56501
1.35221
1.25567
0.855482
1.03903
0.887293
1.09435
1.25736
1.28663
1.06415
3.05375
3.41747
2.19306
3.44306
2.85417
2.79714
1.66085
1.58838
1.47073
1.3628
1.5527
2.00947
1.67143
1.84659
1.44668
1.82043
1.62545
2.05891
1.8145
2.08582
2.35316
2.11704
2.36889
2.19809
2.75404
2.5865
2.89378
3.05162
0.922625
1.22003
1.0357
1.33401
1.14265
1.28601
1.47566
1.33735
1.19908
1.24359
1.44316
1.50254
1.35179
1.62645
2.16696
2.62635
3.3469
1.46165
1.2775
3.23189
2.23504
2.01469
2.9494
2.44892
2.7534
2.64497
2.15191
2.28954
1.05313
1.56011
1.14689
1.34764
1.38336
1.18303
1.01636
1.83721
1.78722
1.54423
1.65655
2.39343
1.91846
1.9959
1.38067
1.30341
1.21079
1.47454
1.81704
1.58158
1.68326
1.23273
1.17982
1.0149
1.16009
1.59154
1.42385
1.31969
1.08943
1.07413
0.933169
1.10815
1.44224
1.28876
1.26272
1.20309
1.58646
1.49123
1.49274
1.39432
1.73306
1.84988
2.83091
2.69056
2.94584
1.91079
2.82036
2.7091
3.09374
1.47453
2.59246
2.51584
2.84907
2.94878
3.21654
3.14208
3.3609
1.38412
1.59176
1.3316
1.66774
2.11538
1.73531
2.01876
0.974175
1.2757
1.00727
1.17098
1.45877
1.49146
1.13955
1.54328
1.27259
1.29537
1.90954
1.59023
1.62028
1.95131
1.56999
2.11278
1.71717
2.45079
2.01507
2.22653
2.60492
2.18303
2.42386
2.26145
2.85196
2.8384
2.90453
2.89329
2.02921
1.82761
2.00524
2.43243
2.18632
2.4852
2.84458
1.12117
1.13983
0.974823
1.17991
1.53715
1.37027
1.34574
1.93644
2.08845
1.71004
2.42283
1.91717
2.04061
2.61509
1.03958
1.23915
1.07356
1.36388
1.5526
1.58641
1.33016
1.43057
1.26249
1.32629
1.5384
1.62432
1.44312
1.75746
1.62519
1.94983
1.71473
1.47028
1.74636
2.07092
2.34942
2.95798
2.0258
1.24295
1.33675
3.26962
1.4385
1.23461
1.91076
2.65276
2.12422
2.65515
2.21215
2.41119
2.74548
2.15933
3.07352
2.42229
2.97368
2.39847
2.76041
3.33289
1.16029
1.68228
1.49019
1.72014
1.49597
1.36072
1.28913
1.37206
1.2778
1.10093
1.26116
1.78824
1.58952
1.43582
2.10878
2.07878
2.36309
2.39924
2.60643
2.67067
2.78459
2.56599
2.53618
2.39044
3.00322
2.99686
3.11967
2.94877
1.26412
1.55494
1.47178
1.90622
1.50051
1.58484
1.23595
1.34755
1.33063
1.16856
1.46255
1.89621
1.68838
1.65517
1.69232
1.47994
1.61045
1.81465
1.99002
1.75739
2.17033
2.54979
2.47924
2.07342
2.14813
2.72969
2.59224
2.53128
2.50423
2.5626
1.99721
2.04195
3.14627
2.56449
2.62909
1.45467
1.89889
1.54368
2.24395
1.82382
1.93408
2.40614
1.78779
1.30456
1.34028
1.5354
2.03018
2.0787
1.49888
1.72199
1.58858
1.88928
2.19923
1.80532
1.96482
2.43564
1.56895
1.44592
1.30768
1.67318
1.48922
1.78174
1.99146
1.41425
1.98759
1.70774
1.84774
1.55465
1.8667
2.22739
1.77929
2.62847
2.25181
2.37987
1.91864
2.06935
2.17258
2.48709
2.25916
2.13101
2.7237
3.1471
3.11517
2.86543
1.95572
2.26376
1.82722
2.18387
3.02746
2.82631
2.354
1.37414
1.82498
1.66548
1.79104
1.5917
1.92658
2.16069
1.73243
1.00319
2.50515
2.14801
1.74092
2.72225
0.90826
1.43971
1.52418
2.72081
1.42296
2.05181
2.70083
2.69308
2.44575
2.08034
2.559
0.925819
1.11548
1.06408
1.08687
1.13874
1.31
1.34082
0.956255
1.18252
1.12503
1.23579
1.17747
1.3916
1.46699
1.31695
1.15379
1.06899
1.26195
1.36435
1.57178
1.71101
2.15005
2.80902
1.98182
2.18795
2.73628
2.62204
1.27776
1.26081
1.56676
1.29092
1.96289
1.5717
1.61552
2.0294
1.94145
1.40538
1.88494
2.26896
1.68573
1.73513
2.32419
1.38722
1.55816
1.25864
1.65505
1.49283
1.89397
2.13047
1.58106
1.49621
2.0297
1.81531
2.49796
1.93135
2.40453
1.4144
1.63687
1.34066
1.68779
2.27142
1.79505
2.1334
1.10323
0.830601
0.599488
1.41191
0.920783
0.447905
0.749493
0.817361
1.25289
0.992143
0.874696
2.06403
0.995962
0.961897
0.714904
1.51633
0.993174
0.456774
0.529591
0.55312
0.539704
0.564164
0.638965
0.651931
0.520594
0.479911
0.561958
0.63171
0.589132
0.677216
0.718345
0.639285
0.65148
0.575379
0.689661
0.759061
0.775318
0.846107
0.627005
0.763719
0.639116
0.882811
0.746207
0.761656
0.901151
0.674693
0.835131
0.688603
0.921271
0.767014
0.783541
0.942439
0.700703
0.789664
0.662656
0.789354
0.981455
0.832872
0.932812
0.762683
0.868159
0.716579
0.813483
1.03563
0.860633
0.979233
1.24356
1.23048
2.13857
2.3508
1.41031
2.03843
2.83458
0.79112
0.788798
0.71071
0.9306
0.838764
0.930207
1.02937
0.888213
0.820749
0.753896
1.04892
0.893326
0.969794
1.13489
0.826092
1.08342
0.904003
1.11271
0.925747
1.00747
1.2096
1.04652
1.06468
0.889308
0.908812
1.28399
1.08956
1.07
1.095
0.975509
0.883588
1.03803
1.16557
1.14678
1.28684
1.15968
0.900906
1.05173
1.06222
1.36784
1.24008
1.1725
0.995742
1.32075
1.19149
1.10558
1.46995
1.32719
1.22218
0.942423
1.16881
1.19465
1.33546
0.993995
1.13154
1.10945
1.25011
1.28061
1.06489
1.15451
1.65236
1.39003
1.35408
1.66816
1.27819
1.507
1.12168
1.23776
1.3189
1.45623
1.10885
1.28943
1.44732
1.52508
1.30439
1.4643
1.72429
1.47788
1.67409
1.38366
1.64728
1.36174
1.53218
1.87704
1.26344
1.69707
1.6458
1.82942
1.52606
1.48358
1.39518
2.29129
1.85651
1.69991
2.59246
2.0871
2.2739
2.677
1.64849
1.88707
1.51583
2.42768
1.94287
2.13556
2.57797
1.98978
1.90535
1.64502
1.60653
1.92765
1.40579
1.66418
1.75135
1.86612
1.54675
1.96112
2.25406
2.40732
2.64545
2.62663
1.85544
2.35456
1.92117
1.55718
1.76307
2.21955
1.8151
2.56133
2.27706
1.92935
1.57261
1.74805
2.18855
2.57545
2.50076
2.08594
2.15116
2.72797
2.5439
2.60665
2.54715
2.31467
1.82158
2.35997
2.7826
2.70283
2.57166
2.29386
2.58542
2.05648
2.46985
2.75938
2.7383
2.63512
2.61877
2.80182
2.37352
2.59838
2.77723
2.79442
2.74628
1.92189
1.65346
1.44689
1.64706
2.47445
2.22041
1.86936
2.25759
2.67432
2.71082
2.73814
2.39374
2.65139
2.60065
2.16286
1.91134
2.35063
2.45307
2.79364
2.72324
2.64484
1.34355
1.85123
2.00973
1.74968
1.58218
1.67163
1.5026
3.21769
2.76022
2.63073
2.99075
3.1571
3.38214
3.03355
1.37309
1.73331
1.59719
2.14044
1.7692
1.62871
1.3424
1.73203
2.32149
1.87057
2.54085
2.00034
2.17829
2.8041
2.66922
2.6984
2.73309
2.60352
2.65088
2.24873
2.37208
2.11409
2.76966
2.87008
3.19849
2.2178
2.65504
2.73365
2.77642
2.97602
3.00051
3.01138
3.22329
3.29054
2.96393
1.79243
2.07592
1.6538
2.072
2.7913
2.59455
2.24627
3.27527
3.40214
3.182
3.33841
3.22273
3.38815
3.29685
1.53518
2.27928
1.88035
2.10598
1.69728
2.06989
2.57996
2.5347
2.62304
2.25817
2.72522
3.1956
3.04934
3.41357
1.2263
1.23366
2.72737
1.22753
1.2503
1.23461
1.22519
3.04877
3.38304
3.10188
3.35464
3.25114
3.28725
3.33283
1.46242
2.26872
2.10408
1.91961
1.87901
1.72297
1.64096
2.77283
3.33037
3.11302
3.40612
3.29826
3.44673
3.47239
1.6082
2.16073
1.9635
2.2257
1.95404
2.40687
2.69714
2.29698
2.27101
1.86985
2.83305
2.66231
2.24397
2.68411
2.93213
2.53582
2.75777
2.3227
2.04908
2.53297
2.75626
2.43331
2.14446
2.69438
2.98463
2.92486
2.59059
2.78188
2.82192
2.75732
2.38796
2.48793
2.02633
2.56426
2.78199
2.73681
2.77271
2.40532
2.78405
2.55312
2.48034
2.03952
2.73923
2.75078
2.53554
2.66175
2.53565
2.75362
2.77632
3.22237
2.97467
2.673
3.10372
3.49724
3.36423
3.47458
1.7889
2.37527
2.7527
2.0743
2.11904
2.41692
1.74842
2.10114
2.93188
2.27289
3.18377
2.55591
2.78362
3.28053
2.89335
3.01493
2.35219
2.51346
3.32836
3.00973
3.14525
2.30122
2.08585
1.88162
2.16892
3.06831
2.45464
2.74418
2.69012
2.8087
2.46905
3.01308
2.90235
2.87054
2.81148
3.09091
2.9245
3.171
3.35144
3.46652
3.33632
3.49596
2.71051
2.75085
2.75554
2.53015
2.70067
2.74783
2.79783
2.72628
2.80702
2.71864
2.61177
2.338
2.72619
2.80637
1.97657
2.97052
2.46288
2.81144
2.21968
2.71022
3.09977
1.9116
2.76897
2.8483
2.49724
2.25272
2.54339
2.1538
2.13937
2.01139
1.74322
2.08391
2.94558
2.40849
2.57172
2.68512
2.73659
2.45144
2.79663
2.77179
2.82072
2.66771
3.29022
3.26497
2.91702
3.26394
3.38251
3.45095
3.15746
2.77064
2.74989
2.67498
2.72929
2.73636
2.50232
2.62426
0.246522
3.10165
0.760796
2.23835
1.51196
0.763406
1.73484
0.90874
1.46892
1.45798
0.909678
1.73221
0.646099
0.839129
1.19716
0.258171
0.855702
0.652503
1.20757
0.760682
0.802359
0.802028
0.950357
0.949447
0.996092
0.997877
0.768863
0.807768
0.803869
0.958971
0.952358
0.997942
1.00334
2.71194
1.94071
0.976885
0.979068
1.93696
1.508
2.71354
1.12865
1.48941
1.61064
1.12171
1.49693
1.59221
3.09448
0.853342
0.906774
0.850756
1.04834
1.10934
1.10512
1.05283
0.907207
0.850499
0.849822
1.0473
1.10993
1.04968
1.10541
0.291904
0.24706
0.292201
0.440311
0.39114
0.39202
0.439837
3.3771
2.31916
1.83967
1.81886
3.37188
2.31582
2.26988
1.18674
1.45708
1.17812
1.2368
1.55829
1.54671
1.24461
1.45342
1.17717
1.17488
1.23471
1.55015
1.23844
1.544
0.250571
0.303477
0.295728
0.444891
0.406362
0.453898
0.396891
0.418778
0.643664
0.418169
0.573683
0.805037
0.802538
0.574271
0.64588
0.429284
0.421524
0.577469
0.811113
0.585554
0.804813
0.0346322
0.736944
0.153142
0.500555
0.0822181
0.0357144
0.161419
0.0825619
0.507228
0.302317
1.31905
0.601923
0.298902
0.739105
0.591165
1.30546
0.0347991
0.04729
0.0472997
0.0761371
0.0577661
0.0761486
0.0579626
0.0376996
0.0481795
0.0502993
0.0774352
0.0621034
0.0805526
0.0592622
0.0817065
0.163866
0.162164
0.129424
0.252482
0.130157
0.250476
0.0852249
0.163031
0.167036
0.130848
0.257696
0.134986
0.251954
0.298798
0.460948
0.455466
0.601833
0.430819
0.607144
0.427233
0.302937
0.456016
0.45393
0.600317
0.432914
0.427689
0.602875
0.595021
0.702696
0.709674
0.750188
0.882531
0.75718
0.874916
0.697362
0.591533
0.698474
0.746723
0.869504
0.746758
0.870409
0.120826
0.0944824
0.189263
0.153369
0.120829
0.189408
0.0946585
0.12269
0.155815
0.100419
0.198094
0.127125
0.19202
0.0964172
0.199204
0.295246
0.3675
0.498168
0.200049
0.294512
0.365205
0.201285
0.500284
0.304291
0.373818
0.206986
0.297274
0.367086
0.764208
0.580057
0.943224
0.732862
0.769596
0.576266
0.93737
0.762851
0.73353
0.582444
0.940243
0.576834
0.766014
0.936354
0.925038
1.13061
1.08306
1.30807
0.932255
1.1225
1.07416
0.921766
1.30343
1.12213
1.06966
0.92279
1.11964
1.06954
0.97342
1.09942
1.09353
1.18974
1.18358
1.33601
1.34506
0.974353
1.09955
1.09381
1.19084
1.1841
1.33594
1.34419
1.29553
1.36597
1.63828
1.72239
1.62716
1.35854
1.30278
1.29432
1.72186
1.63327
1.36563
1.29908
1.62559
1.35855
0.63673
0.591428
0.875929
0.839715
0.875912
0.592367
0.636469
0.641762
0.845415
0.608139
0.891679
0.651305
0.881458
0.59785
0.897394
1.12226
0.893063
1.06686
1.06252
1.32713
1.33369
0.893907
1.12637
0.899346
1.06908
1.06358
1.32703
1.33253
0.761955
0.983102
0.988703
1.19506
0.987725
0.980738
0.762812
0.766114
1.1991
1.00235
0.989975
0.774421
0.992847
0.983351
1.35843
1.5968
1.34903
1.62003
1.99465
1.97745
1.63057
1.34666
1.59664
1.35082
1.61797
1.97951
1.62376
1.97267
1.92708
1.27118
1.50019
1.26274
1.55712
1.90912
1.56974
1.48114
1.92477
1.47129
1.68442
2.23681
2.22303
1.69877
1.924
1.4806
1.47131
1.68377
2.23372
1.69594
2.2225
1.49922
1.26979
1.26256
1.55641
1.92005
1.56662
1.90732
1.82331
1.99988
1.98276
2.37505
2.35225
2.64727
2.66728
1.82586
1.98846
1.97919
2.35688
2.34664
2.64342
2.65333
1.25625
1.48566
1.25219
1.56677
1.88292
1.87591
1.57337
1.48857
1.26
1.25376
1.56731
1.88733
1.57416
1.87762
2.15373
2.30557
2.13601
2.80281
2.8302
2.82766
2.81372
2.30519
2.14542
2.1337
2.8022
2.83279
2.80832
2.82947
2.45597
2.02145
2.53019
2.71528
2.52493
2.44588
2.03947
2.01999
2.71698
2.52884
2.45182
2.03387
2.52518
2.4452
1.96576
3.09326
2.47123
2.52868
1.97391
2.45901
2.51814
1.9676
2.47491
2.54463
3.09554
2.46023
2.52356
1.9799
3.38027
3.02435
3.02038
3.23938
3.37228
3.23714
3.38678
1.10777
1.38356
2.71788
1.55547
0.900982
1.38846
1.50294
2.719
0.902933
1.05644
0.899713
1.05123
1.10198
1.29084
1.29906
0.899086
1.10474
1.0538
1.05046
1.10109
1.28971
1.29509
1.84849
1.86293
1.39294
2.24656
1.66697
1.65371
2.23316
1.24985
1.93687
1.50783
1.49651
1.24198
1.54384
1.91976
1.85615
1.3823
1.8466
1.65194
2.24002
1.66077
2.23145
1.49525
1.2463
1.24102
1.54237
1.92874
1.54997
1.91754
0.74465
1.2401
0.806921
0.523888
0.446256
0.74408
0.809796
1.23758
0.441339
0.545462
0.443662
0.547174
0.525052
0.631936
0.631952
0.445822
0.526712
0.549863
0.549046
0.52621
0.632795
0.634227
0.87604
0.621458
0.743186
0.621365
0.737666
0.738965
0.87304
0.66588
0.805549
0.666276
0.75699
0.910769
0.758522
0.907304
0.742975
0.622712
0.621797
0.737998
0.87502
0.739867
0.87275
0.806739
0.669538
0.667757
0.757647
0.911675
0.760139
0.90781
1.03733
0.877228
1.05306
1.23216
0.880206
1.04775
1.03223
0.877461
1.23158
1.03568
1.05273
0.880575
1.04787
1.03183
2.56341
2.0599
2.48349
2.04333
2.72206
2.47586
2.56011
2.04109
2.72361
2.56102
2.47913
2.0519
2.4751
2.56006
3.36984
3.24546
3.03836
3.38088
3.02458
3.24112
3.38458
2.97413
2.92805
3.19366
3.19959
2.29674
3.01399
2.94772
3.20212
2.31003
2.99656
2.94279
3.19647
3.02328
2.95423
2.82416
2.62354
2.76214
2.82752
2.94953
2.81651
2.19543
2.93989
3.19715
2.92208
3.20707
2.03546
2.84185
2.8888
3.28637
3.01465
3.20288
3.29848
3.43254
3.41979
3.19389
3.33133
3.06779
3.20055
3.29319
2.42617
2.79213
3.18946
3.36292
3.08482
3.41721
3.35137
3.42111
3.4046
2.82229
2.48996
2.6343
2.08491
2.299
3.249
2.79198
2.92927
2.2472
2.57055
2.03571
2.41044
3.22247
2.718
3.05998
3.46251
3.38582
3.49913
3.45265
3.4256
3.44629
3.26088
2.45905
2.23558
1.91753
2.33783
3.11234
2.89528
2.69468
3.21498
2.439
2.68562
1.84129
3.1988
2.68374
2.82219
2.69704
3.17688
3.30847
3.33121
3.10809
3.24708
2.88437
2.89051
3.04909
2.37642
2.63482
3.3047
3.0858
3.20621
3.13256
2.7428
2.48611
2.99396
3.31479
3.13911
3.32052
3.30754
3.23794
3.45053
3.05965
3.44684
3.33297
2.56051
2.75459
2.48167
2.6537
2.2359
2.69
2.7637
2.79369
3.20853
3.32751
2.88069
3.3659
3.28961
3.46063
3.3809
2.8056
2.85313
2.66927
2.81612
2.32303
2.80594
2.85279
2.83734
2.85501
2.72343
2.74583
2.13261
2.77844
2.8557
1.90724
2.59165
2.30667
2.77407
2.71851
2.72249
2.78205
2.82559
2.83085
2.70399
2.83285
2.69226
2.77681
2.1355
3.01487
2.82061
2.51957
2.94079
3.11226
3.10285
3.15283
2.79865
2.81731
1.99451
3.07676
2.76308
2.95651
2.93129
2.78107
2.7885
2.61996
2.47448
1.49501
2.02065
2.75
2.83252
2.6021
1.76214
2.81074
2.39975
2.77678
2.79964
2.59609
3.29002
3.20241
3.26567
2.94888
3.06423
3.16611
3.23197
3.42409
3.47705
3.3921
3.36629
3.46474
3.16748
3.19423
3.46534
3.47097
3.38918
3.39974
3.43542
3.20864
3.37445
2.56481
3.28954
1.90171
2.88269
2.3395
1.47419
3.42852
3.23645
3.44681
3.3246
1.93682
2.42332
3.14114
2.10426
2.44847
3.13022
2.95063
1.32297
1.75468
2.09458
3.21523
3.33572
3.04244
3.15285
2.99252
3.20374
3.32199
2.83072
2.79664
2.81255
2.74321
1.60603
2.35651
2.23857
3.41503
2.99467
3.46603
3.22245
3.42044
3.31069
2.38948
2.92058
3.22021
3.25662
3.2924
3.19605
3.12728
3.28093
3.38434
3.44552
3.25521
3.33045
1.66124
2.83339
2.56582
1.27242
2.42459
2.21342
2.23752
1.22535
1.22592
2.4467
1.2289
2.15239
2.95814
1.22544
2.97742
1.2253
1.225
1.24242
1.225
1.225
2.60741
1.2253
1.225
1.225
2.70951
1.22652
1.225
1.225
1.225
2.42309
1.22528
1.225
1.225
1.225
1.225
1.22501
1.225
1.225
1.225
1.225
1.225
1.225
1.225
1.225
1.225
1.225
1.225
1.225
1.225
1.225
1.225
1.225
1.225
1.225
1.225
1.225
1.225
1.225
1.225
2.85204
1.14463
1.49158
1.16354
2.77038
1.50877
2.86483
1.28369
1.34147
2.69092
2.49316
1.34779
2.61844
1.28683
2.42443
1.40282
2.71798
1.88646
2.22225
2.67205
1.41289
2.42008
1.50438
1.23689
2.69398
1.491
1.65807
1.2375
2.06848
3.16919
2.37166
1.845
2.97403
3.1711
1.38661
1.17501
1.14487
1.17471
1.59199
1.55737
1.55726
1.59269
1.15185
1.19376
1.18163
1.60187
1.58373
1.61974
1.56692
1.27991
1.48948
1.27886
1.71473
1.97151
1.96901
1.7163
1.49608
1.29815
1.28579
1.72512
1.99941
1.74459
1.97927
1.89411
2.41336
1.87675
2.40126
2.41314
2.7029
2.70194
1.87468
2.40754
2.41873
2.40008
2.41187
2.70386
2.70199
1.22504
1.90752
2.67433
2.6933
1.24311
1.37721
1.22505
2.41942
2.62318
2.62486
2.63737
2.64223
2.61911
2.60779
2.42655
2.63549
2.62368
2.62409
2.64054
2.61577
2.60126
2.47712
2.42688
2.46673
1.97135
1.80233
1.9152
1.74476
2.63982
2.7866
2.49335
2.48528
2.63846
2.7922
2.7071
2.486
2.64173
2.64007
2.79408
2.79594
2.71169
2.701
2.35085
2.39744
2.45114
1.74342
1.5757
1.83902
1.6684
2.85441
1.82951
2.3526
1.82515
2.34466
2.36905
2.85564
1.83093
2.36279
2.34849
2.39373
2.37718
2.85959
2.86493
2.37538
2.1804
2.34237
1.43361
1.61501
1.56044
1.39568
2.74716
2.76915
2.1941
2.19529
2.75023
2.77228
2.1539
1.23437
1.22627
2.86765
2.95499
1.37211
1.96559
1.28764
2.20762
2.75724
2.18754
2.79049
2.22826
2.77824
2.16657
1.225
1.225
1.225
2.0551
1.22515
1.225
1.225
2.44183
2.27278
1.225
1.225
1.225
1.225
1.225
1.225
1.225
1.225
1.225
1.225
1.22613
1.225
1.225
1.225
1.94758
1.22501
1.225
1.49462
1.225
1.225
1.225
1.225
1.225
2.69238
1.22516
1.225
1.225
2.73751
1.225
1.225
1.225
1.225
2.34541
1.2323
1.225
1.225
1.225
1.225
1.225
1.225
1.225
1.225
1.225
1.225
1.225
1.225
1.225
1.225
1.225
1.225
1.225
1.225
1.225
1.225
1.225
1.225
1.225
1.225
2.95563
1.22522
1.22534
2.74329
1.22524
1.225
1.22501
1.225
1.225
2.74321
1.22523
1.225
1.225
2.64734
1.22621
1.225
1.225
1.225
2.69735
1.22523
1.225
1.225
1.225
1.225
1.225
1.225
1.225
1.225
1.225
1.225
1.225
1.225
1.225
1.225
1.225
1.225
1.225
1.225
1.225
1.225
1.225
1.225
1.225
1.225
1.225
1.225
1.225
1.225
2.01152
1.2295
1.225
1.225
1.225
1.225
1.225
1.225
1.225
1.225
1.225
1.225
1.225
1.225
1.225
1.225
1.225
1.225
1.225
1.225
1.225
1.225
1.225
1.225
1.225
1.225
1.225
1.225
1.225
1.225
1.225
1.225
1.225
1.225
1.225
1.225
1.22589
1.225
1.225
1.225
1.225
1.225
1.225
3.09592
1.37444
1.22503
1.225
1.225
1.225
1.225
2.56107
2.49922
1.22511
1.225
1.225
1.225
2.13405
2.59106
1.22504
1.225
1.225
3.01357
1.23345
1.225
1.225
1.225
1.225
1.225
1.225
1.225
1.225
1.225
1.225
1.225
1.225
1.225
1.225
1.225
1.225
1.225
1.225
1.225
1.225
1.225
1.225
1.225
1.225
1.225
1.225
1.225
1.225
1.225
1.225
1.22503
1.225
1.225
1.225
1.225
1.225
1.225
2.61986
1.23128
1.225
1.225
1.225
1.225
1.225
3.09541
1.35273
1.225
1.225
1.225
1.225
2.98584
1.38644
1.225
1.225
1.225
3.09384
1.22532
1.225
1.225
1.225
1.225
1.225
1.225
1.225
1.225
1.225
1.225
1.225
1.225
1.225
1.225
1.225
1.225
1.225
1.225
1.225
1.225
1.225
1.225
1.225
1.225
1.225
1.225
1.225
1.225
1.225
1.225
1.225
1.225
1.225
1.225
1.225
1.225
1.225
1.22661
1.22501
1.225
1.225
1.225
1.225
1.225
1.48425
1.22504
1.225
1.225
1.225
1.225
1.80967
1.28324
1.225
1.225
1.225
1.25124
1.22597
1.225
1.225
1.225
1.225
1.225
1.225
1.225
1.225
1.225
1.225
1.225
1.225
1.225
1.225
1.225
1.225
1.225
1.225
1.225
1.225
1.225
1.225
1.225
1.225
1.225
1.225
1.225
1.225
1.225
1.225
1.225
1.225
1.225
1.225
1.225
1.225
1.225
1.22574
1.225
1.225
1.225
1.225
1.225
1.225
1.2607
1.22995
1.225
1.225
1.225
1.225
1.225
2.04569
1.22519
1.225
1.225
1.225
1.225
1.91993
1.23168
1.225
1.225
1.225
1.225
1.225
1.225
1.225
1.225
1.225
1.225
1.225
1.225
1.225
1.225
1.225
1.225
1.225
1.225
1.225
1.225
1.225
1.225
1.225
1.225
1.225
1.225
1.225
1.225
1.225
1.225
1.225
1.225
1.225
1.225
1.225
1.225
1.225
1.225
1.225
1.225
1.225
1.225
1.225
1.225
1.225
1.22501
1.225
1.225
1.225
1.225
1.225
1.225
1.39511
1.22524
1.22501
1.225
1.225
1.225
1.225
1.2252
1.225
1.225
1.225
1.225
1.225
1.225
1.225
1.225
1.225
1.225
1.225
1.225
1.225
1.225
1.225
1.225
1.225
1.225
1.225
1.225
1.225
1.225
1.225
1.225
1.225
1.225
1.225
1.225
1.225
1.225
1.225
1.225
1.225
1.225
1.225
1.225
1.225
1.225
1.225
1.225
1.225
1.225
1.225
1.225
1.225
1.225
1.225
1.225
1.225
1.225
1.225
1.225
1.225
1.2254
1.225
1.225
1.225
1.225
1.225
1.225
2.71658
1.25308
1.225
1.225
1.225
1.225
1.225
1.225
1.225
1.225
1.225
1.225
1.225
1.225
1.225
1.225
1.225
1.225
1.225
1.225
1.225
1.225
1.225
1.225
1.225
1.225
1.225
1.225
1.225
1.225
1.225
1.225
1.225
1.225
1.225
1.225
1.225
1.225
1.225
1.225
1.225
1.225
1.225
1.225
1.225
1.225
1.225
1.225
1.225
1.225
1.225
1.225
1.225
1.225
1.225
1.225
1.225
1.225
1.225
1.225
1.225
1.225
1.225
1.225
1.225
1.225
1.225
1.225
1.225
1.225
1.225
1.225
1.225
1.225
1.225
1.225
1.225
1.225
1.225
1.225
1.225
1.225
1.225
1.225
1.225
1.225
1.225
1.225
1.225
1.225
1.225
1.225
1.225
1.225
1.225
1.225
1.225
1.225
1.225
1.225
1.225
1.225
1.225
1.225
1.225
1.225
1.225
1.225
1.225
1.225
1.225
1.225
1.225
1.225
1.225
1.225
1.225
1.225
1.225
1.225
1.225
1.225
1.225
1.225
1.225
1.225
1.225
1.225
1.225
1.225
1.225
1.225
1.225
1.225
1.225
1.225
1.225
1.225
1.225
1.225
1.225
1.225
1.225
1.225
1.225
1.225
1.225
1.225
1.225
1.225
1.225
1.225
1.225
1.225
1.225
1.225
1.225
1.225
1.225
1.225
1.225
1.225
1.225
1.225
1.225
1.225
1.225
1.225
1.225
1.225
1.225
1.225
1.225
1.225
1.225
1.225
1.225
1.225
1.225
1.225
1.225
1.225
1.225
1.225
1.225
1.225
1.225
1.225
1.225
1.225
1.225
1.225
1.225
1.225
1.225
1.225
1.225
1.225
1.225
1.225
1.225
1.225
1.225
1.225
1.225
1.225
1.225
1.225
1.225
1.225
1.225
1.225
1.225
1.225
1.225
1.225
1.225
1.225
1.225
1.225
1.225
1.225
1.225
1.225
1.225
1.225
1.225
1.225
1.225
1.225
1.225
1.225
1.225
1.225
1.225
1.225
1.225
1.225
1.225
1.225
1.225
1.225
1.225
1.225
1.225
1.225
1.225
1.225
1.225
1.225
1.225
1.225
1.225
1.225
1.225
1.225
1.225
1.225
1.225
1.225
1.225
1.225
1.225
1.225
1.54235
1.31548
1.22966
1.27221
1.225
1.73749
1.22502
1.225
1.22524
1.22502
1.225
1.225
1.225
1.225
1.225
1.225
1.225
1.225
1.225
1.225
1.225
1.225
1.225
1.225
1.225
1.225
1.225
1.225
1.80825
1.22512
1.22501
1.225
1.225
1.225
1.225
1.225
1.225
1.225
1.225
1.225
1.225
1.225
1.225
1.225
1.225
1.225
1.225
1.225
1.225
1.225
1.225
1.225
1.225
1.225
1.225
1.225
1.22606
2.00879
1.22941
2.28377
1.22611
1.23288
2.48799
2.9354
1.35864
1.74504
1.18247
2.7966
1.53167
2.88112
1.22879
2.25577
1.22541
2.02765
1.22598
1.23225
2.48024
2.40638
1.37994
1.22503
1.23959
1.2276
1.22526
1.88448
2.38409
2.40858
1.22836
1.92141
2.14066
2.64618
1.37763
2.6973
2.54212
2.0951
2.99686
2.85699
1.47829
1.88786
2.2096
1.22577
1.32671
2.52066
1.32423
2.58317
1.27493
2.65162
1.30399
2.14493
1.22546
1.45397
1.59902
1.23542
3.13644
1.19782
2.16448
2.90127
2.67653
1.46464
2.56497
3.20249
1.18049
2.30952
2.52679
2.8987
1.40583
2.70175
2.60812
1.23556
1.42438
1.2364
2.59349
1.53392
1.22507
3.10577
1.41336
1.7164
2.4721
2.65691
2.83015
1.84373
2.07975
1.3179
1.22507
2.77498
1.83163
2.15853
1.22655
2.67312
1.28899
1.22501
1.22908
1.2702
1.62297
1.22523
2.12514
1.2609
3.3048
1.87328
2.9539
3.17053
1.35643
1.9217
1.61933
2.7525
2.95051
1.36976
2.00451
3.02069
1.21621
1.21338
1.24788
1.70432
1.61175
1.65001
1.66299
1.22771
1.22502
1.27828
2.82107
2.29521
1.22535
1.2471
1.22516
1.73226
1.2254
1.2461
1.225
1.22867
1.22501
1.26696
1.22515
1.22501
2.05249
1.22545
1.22928
1.22501
1.39336
1.273
1.30578
1.79446
1.88004
1.92688
1.7499
1.57311
1.3188
1.35541
1.83845
2.03691
1.77857
2.1023
1.15372
1.38959
1.41804
1.41746
1.44616
1.75411
1.72343
2.86751
1.22615
2.80757