/*--------------------------------*- C++ -*----------------------------------*\
  =========                 |
  \\      /  F ield         | OpenFOAM: The Open Source CFD Toolbox
   \\    /   O peration     | Website:  https://openfoam.org
    \\  /    A nd           | Version:  9
     \\/     M anipulation  |
\*---------------------------------------------------------------------------*/
FoamFile
{
    format      ascii;
    class       volScalarField;
    location    "0.003";
    object      impulse;
}
// * * * * * * * * * * * * * * * * * * * * * * * * * * * * * * * * * * * * * //

dimensions      [1 -1 -1 0 0 0 0];

internalField   nonuniform List<scalar> 
25712
(
1464.5
3261.38
265.257
1423.6
311.979
1074.67
1910.88
470.655
922.712
1732.77
759.991
274.662
631.441
1109.07
641.063
3622.35
2725.38
3059.12
1611.47
1249.71
1413.44
1173.1
1036.16
1121.25
1135.28
1618.15
2058.06
1453.14
1048.39
1596.54
1707.3
828.539
1158.42
574.374
1040.29
748.593
1291.28
644.977
2194.44
1959.03
2470.88
493.834
482.357
863.113
673.203
542.149
442.492
761.826
476.209
635.614
449.244
689.601
433.209
709.819
484.541
1158.75
1225
1298
540.275
481.053
685.071
650.031
509.386
518.114
683.212
265.671
318.755
330.506
243.495
245.717
349.438
365.423
319.067
348.476
278.69
367.239
254.335
518.686
408.312
290.895
278.634
340.412
322.498
258.347
347.562
360.009
753.981
1464.34
603.509
1486.33
632.197
801.414
1506.7
303.228
368.432
417.425
333.318
383.584
339.693
405.216
171.07
0.000454724
0.000170818
5.26805e-06
3.9842e-07
0.00221849
1.69124e-05
1.28632e-06
0.0299057
120.593
12.1596
83.8233
62.1403
0.176423
0.242979
21.0907
1.26222
0.0664607
0.113784
17.4769
1.5852
2.68057
119.453
78.5417
116.235
112.301
93.4064
216.065
58.9153
120.391
74.3946
76.4066
102.744
77.6654
78.5814
103.22
2.24829
0.296223
0.363235
1.52082
0.429071
1.68353
2.15196
7.56317
7.27588
15.8685
23.5534
6.40697
9.09588
16.583
117.687
77.9303
78.8754
101.534
78.7311
78.9768
99.497
0.607214
20.6028
26.2569
15.2678
54.9911
46.7287
60.3903
57.4863
123.365
101.777
107.523
128.353
107.88
60.2212
44.6585
58.6678
81.0908
47.9462
60.0426
64.2366
190.67
145.72
171.38
118.434
210.945
191.265
200.018
83.7305
99.4172
0.00440764
2.16353e-05
0.000269024
0.0763486
2.80441
0.487743
0.00649071
9.31963e-06
1.58297e-05
0.000225915
0.000309561
2.70759e-05
0.000238658
2.48099e-06
8.86121e-07
4.52331e-06
1.81551e-06
3.92611e-07
7.27856e-06
4.30265e-07
5.64599e-08
2.07421e-07
8.75634e-08
1.64873e-08
6.16487e-07
3.88947e-08
3.44055e-09
7.88485e-09
3.51466e-09
6.06078e-10
4.14764e-08
2.75346e-09
2.00844e-10
2.60986e-10
1.20143e-10
2.02246e-11
2.30175e-09
1.60015e-10
1.09059e-11
7.43372e-12
3.38769e-12
5.61461e-13
81.2317
8.47165
0.00128753
9.63453e-06
0.000149303
0.0429181
1.46295
0.156826
0.00207219
3.51484e-06
6.57928e-06
0.000124162
0.00013292
1.01356e-05
6.67164e-05
1.12449e-06
3.80959e-07
2.4082e-06
8.88797e-07
1.8103e-07
2.87303e-06
1.78766e-07
2.36122e-08
1.00588e-07
4.1057e-08
7.33216e-09
2.46226e-07
1.57936e-08
1.39707e-09
3.49266e-09
1.54374e-09
2.64118e-10
1.66384e-08
1.11915e-09
8.1741e-11
1.07467e-10
4.94715e-11
8.59715e-12
9.30842e-10
6.57751e-11
4.47799e-12
2.91244e-12
1.31258e-12
2.25918e-13
74.3018
0.200098
1.235e-05
3.08678e-05
0.00882681
0.23893
0.00610512
0.000100704
2.83015e-06
1.33231e-06
2.25215e-05
2.43604e-05
1.00932e-06
6.63635e-06
4.44628e-07
8.23539e-08
6.95656e-07
2.67842e-07
4.24116e-08
7.77468e-07
4.87159e-08
4.98409e-09
2.15642e-08
9.55113e-09
1.5878e-09
5.73824e-08
3.87869e-09
2.99326e-10
6.01732e-10
2.86161e-10
5.22776e-11
3.74803e-09
2.63687e-10
1.81631e-11
1.59592e-11
7.59452e-12
1.52177e-12
2.07535e-10
1.49839e-11
9.63216e-13
3.92417e-13
1.63103e-13
2.74061e-14
25.6802
0.000436126
0.00361308
0.000116961
0.00054988
0.00658599
2.04891e-05
0.000527361
4.33999e-05
3.02698e-06
1.82762e-06
7.60523e-07
1.52593e-07
1.02461e-05
1.82464e-06
1.4901e-07
5.6669e-08
2.29753e-08
5.04349e-09
6.3658e-07
9.64349e-08
7.2311e-09
1.72974e-09
6.66665e-10
1.54961e-10
3.65443e-08
4.65639e-09
3.39614e-10
5.38013e-11
1.83563e-11
4.5311e-12
1.92478e-09
2.12717e-10
1.52602e-11
1.70439e-12
4.73786e-13
1.07927e-13
8.78989e-11
8.78657e-12
5.93233e-13
3.7835e-14
3.51671e-15
0
94.7786
49.6129
4.78709
0.00158605
5.00855e-06
40.3395
4.24331
0.0506832
0.000234754
1.65132e-05
2.28049e-07
0.0562729
0.00066158
1.45283e-05
3.64394e-07
2.70278e-08
8.26645e-09
2.62002e-05
2.59457e-06
3.51945e-07
1.68622e-08
1.23232e-09
2.77499e-10
9.56544e-07
1.38602e-07
1.41135e-08
7.82243e-10
5.30627e-11
9.05808e-12
4.44014e-08
6.65784e-09
5.90354e-10
3.4945e-11
2.16423e-12
2.74667e-13
2.04005e-09
2.91219e-10
2.42411e-11
1.43312e-12
6.66963e-14
9.70128e-16
8.4611e-11
1.11734e-11
8.72387e-13
3.18929e-14
0
0
132.709
15.8201
0.0313447
8.2073e-05
3.5525e-06
1.95668e-07
0.00339246
1.74956
0.00286909
4.66474e-06
1.50277e-07
1.08449e-08
0.000449319
8.37861e-05
1.55088e-06
1.19297e-07
6.58379e-09
4.79075e-10
4.52065e-06
7.02806e-07
8.53125e-08
5.57594e-09
3.03167e-10
2.02147e-11
2.49056e-07
4.11668e-08
4.24305e-09
2.67019e-10
1.40915e-11
8.30187e-13
1.30932e-08
2.06013e-09
1.94388e-10
1.22618e-11
6.1021e-13
2.00089e-14
6.36463e-10
9.30976e-11
8.3032e-12
5.05437e-13
1.18841e-14
0
2.7102e-11
3.65932e-12
2.91523e-13
5.57823e-15
0
0
0.00246949
0.00141536
2.65472e-05
1.54388e-06
1.24795e-07
7.29157e-09
0.000465351
0.0008276
2.37102e-06
1.57802e-07
9.008e-09
5.10881e-10
9.67414e-06
1.52012e-06
1.46196e-07
9.67281e-09
5.44408e-10
2.96996e-11
6.35797e-07
8.81047e-08
8.35919e-09
5.48579e-10
3.03942e-11
1.56676e-12
3.31223e-08
4.65642e-09
4.30992e-10
2.85148e-11
1.54214e-12
6.22094e-14
1.64954e-09
2.27135e-10
2.0529e-11
1.34739e-12
5.43272e-14
0
7.81503e-11
1.03271e-11
8.8512e-13
3.98965e-14
0
0
3.26351e-12
3.89142e-13
1.75836e-14
0
0
0
2.08635e-05
6.91202e-06
9.2585e-07
7.74253e-08
5.0876e-09
2.8845e-10
5.91699e-06
1.16111e-06
1.13498e-07
7.78842e-09
4.66949e-10
2.49707e-11
6.80267e-07
9.05865e-08
8.47634e-09
5.75562e-10
3.35545e-11
1.7227e-12
4.20127e-08
5.69405e-09
5.28474e-10
3.61343e-11
2.06868e-12
7.72464e-14
2.38484e-09
3.19581e-10
2.92347e-11
1.98355e-12
9.34961e-14
0
1.25843e-10
1.63879e-11
1.44779e-12
7.87016e-14
0
0
6.13824e-12
7.4045e-13
4.60811e-14
0
0
0
2.26767e-13
1.27329e-14
0
0
0
0
2.07204e-06
3.69034e-07
4.11647e-08
3.28707e-09
2.21922e-10
1.27641e-11
3.45917e-07
5.18015e-08
5.10952e-09
3.66361e-10
2.28309e-11
1.19653e-12
3.19119e-08
4.38364e-09
4.16142e-10
2.95768e-11
1.7797e-12
7.08193e-14
2.23089e-09
2.99052e-10
2.78943e-11
1.96815e-12
9.58001e-14
0
1.37224e-10
1.78362e-11
1.61502e-12
9.27685e-14
0
0
7.56481e-12
9.33263e-13
6.17244e-14
0
0
0
3.37362e-13
2.35256e-14
0
0
0
0
1.69772e-15
0
0
0
0
0
8.28488e-08
1.4439e-08
1.63259e-09
1.35103e-10
9.46554e-12
5.24475e-13
1.37007e-08
2.02895e-09
2.04665e-10
1.55417e-11
9.89166e-13
3.48033e-14
1.34083e-09
1.84018e-10
1.78031e-11
1.29512e-12
6.18456e-14
0
1.0172e-10
1.34289e-11
1.2431e-12
6.97279e-14
0
0
6.57262e-12
8.06297e-13
5.2872e-14
0
0
0
3.3433e-13
2.35256e-14
0
0
0
0
2.54659e-15
0
0
0
0
0
0
0
0
0
0
0
0.00318394
4.06446e-05
0.00195537
4.12979e-05
9.69392e-06
1.74964e-05
9.00174e-06
1.20658e-05
0.000131509
0.0468308
9.1801e-05
0.0340157
40.4137
0.302691
10.3728
40.5017
0.226176
8.31877
107.9
13.754
10.8414
82.7997
105.429
11.0248
7.27951
0.00022967
0.00711841
0.000253793
0.00332117
0.00018428
0.00566252
0.000200996
1.9935e-05
2.1932e-05
7.05139e-06
1.6777e-05
1.61519e-05
1.69422e-05
5.62135e-06
0.0119169
3.92752e-05
0.000404724
0.000224378
0.00826783
3.1825e-05
0.000335466
2.01794
0.00157181
0.00415093
0.0544469
1.40594
0.00138204
0.00295574
0.00134182
2.36898e-05
1.07279e-05
5.32693e-06
8.49872e-06
2.57373e-06
2.61291e-06
6.77657e-05
0.0274212
2.13043e-05
0.00984346
41.4866
0.185626
7.10499
41.1825
0.0723702
2.94381
97.1237
9.39515
5.34945
87.181
71.5525
3.78064
0.924988
0.000109881
0.00258013
0.000111542
4.79346e-05
0.000576118
4.94337e-05
9.87721e-06
9.06768e-06
3.08048e-06
4.78395e-06
5.07819e-06
4.19278e-06
1.60666e-06
0.00580639
1.96513e-05
0.00022115
8.28183e-05
0.00187412
9.96214e-06
0.000121203
1.10039
0.00121864
0.00226039
0.0149537
0.356042
0.000756094
0.000999055
8.873e-06
0.00257232
3.25801e-06
1.52024e-06
0.00107238
3.83526e-05
1.09458e-05
0.0062086
1.18817e-05
0.000788106
56.6473
0.046244
1.83156
44.4907
0.00678216
0.244922
58.5691
2.27257
0.384472
53.6342
14.679
0.230072
0.0110276
6.70982e-05
0.000252908
2.97316e-05
0.000788055
0.000507914
0.000142904
3.94189e-06
4.17903e-06
1.10878e-06
0.000194044
4.44757e-05
3.50149e-05
7.95347e-06
0.000616338
3.52622e-06
4.372e-05
1.47532e-05
0.000169405
2.52208e-06
1.60253e-05
0.211074
0.000346079
0.000607472
0.00160568
0.0246107
0.000151825
0.000299841
0.0234371
8.0678
0.0101327
0.00041676
4.97169
0.396564
0.000111169
0.000319831
0.12473
0.00346581
26.8977
0.0028314
0.0988522
3.51198
0.00113262
0.00248544
4.88763
0.0803767
0.00256689
3.91684
0.0151672
0.00138506
0.00015036
0.0355209
0.0053565
0.00502405
5.14325
0.116902
0.166369
0.000596934
0.000408851
8.99747e-05
1.30778
0.0550112
0.00324772
0.000551573
5.18099e-05
1.33999e-05
4.78548e-06
0.0156207
0.000383084
0.000118587
2.16763e-05
0.00890993
3.88798e-05
7.90255e-05
0.000120098
0.000308096
6.69597e-06
1.80791e-05
76.3599
15.7845
1.56416
98.7965
70.0226
19.3976
0.70128
21.7769
0.486747
0.0142569
33.6227
6.43124
0.150414
0.001532
0.195508
0.00485645
0.000531668
0.368277
0.00308553
0.000463526
0.000128228
225.002
86.3639
32.1967
182.187
0.296125
298.937
232.053
0.0154939
9.97489e-05
229.824
33.0186
0.173991
0.000284239
8.85123e-05
8.86572e-07
121.041
42.956
0.000228934
1.68009e-05
6.73277e-07
4.68703e-08
1.38307
0.00696331
3.32034e-06
3.85249e-07
3.27856e-08
1.9955e-09
3.21505e-05
1.28642e-06
2.02749e-07
1.87542e-08
1.4794e-09
9.37939e-11
3.28467e-07
5.68597e-08
8.25207e-09
8.12603e-10
6.50043e-11
4.18246e-12
29.7014
30.8926
228.36
152.369
187.277
226.059
176.745
185.355
35.3108
39.8484
234.569
150.766
180.213
210.519
146.849
162.985
82.0388
277.443
74.6062
198.317
138.451
142.251
250.453
142.52
131.574
127.945
255.502
59.0723
168.077
19.7328
115.165
63.0022
24.2964
128.076
18.1146
22.3603
0.160316
123.445
168.941
114.434
101.115
237.591
201.424
155.603
101.096
252.558
81.1
53.0288
186.357
152.647
65.345
26.4942
127.185
24.1597
2.3258
112.855
6.27322
3.79186
0.0305541
118.623
107.029
40.7153
69.3111
86.587
72.2421
67.5894
60.7833
61.1381
52.1668
71.7666
35.03
40.8931
28.9769
11.4341
18.7391
9.7675
22.0526
1.70139
4.87907
2.24222
0.152985
0.581209
0.230103
0.47191
0.000364735
0.00247138
0.000635567
0.00296887
0.00230013
0.000601393
0.000389534
6.48731e-05
1.5923e-05
0.000129461
3.92616e-05
1.52958e-05
0.0001232
6.90203e-05
0.000313372
0.00249971
0.00150643
0.000431176
0.00194978
0.000525974
0.000246177
5.50812e-05
4.44248e-05
1.28442e-05
8.4793e-05
1.50322e-05
0.000100737
4.39654e-05
1.46753e-06
3.72962e-06
4.12022e-06
9.54579e-06
3.64702e-06
3.94473e-06
1.53138e-06
2.70317e-06
2.03504e-05
4.75191e-06
1.66367e-05
1.91659e-05
4.56329e-06
2.86437e-06
1.38031e-06
9.4595e-06
3.19268e-06
3.06758e-06
3.60549e-06
3.64665e-06
1.13844e-06
2.33992e-06
1.4258e-05
1.3562e-05
3.32757e-06
1.66479e-05
3.90823e-06
1.88419e-06
0.0013073
0.000172513
0.000923371
0.000124936
0.00016258
0.000870083
0.0013837
0.0104029
0.0792661
0.00658102
0.0444358
0.0754579
0.00622505
0.0109762
0.00116142
0.000109013
0.000117345
0.000637835
0.000142837
0.00077098
0.00096741
0.00933889
0.0400083
0.059281
0.00464876
0.0685391
0.00555629
0.00790643
40.2612
66.8158
66.566
35.6985
48.6134
48.073
36.1579
3.01988
0.524674
1.6809
0.28816
0.502057
1.60598
3.12719
66.3661
41.0158
66.2506
35.0572
46.0628
47.2378
34.1787
2.84975
0.261603
0.410774
1.29434
0.463464
1.47318
2.61178
0.000115474
0.00105219
0.000325645
0.000179494
0.000222363
2.15886e-05
8.27817e-06
6.27884e-05
1.48932e-05
3.20037e-05
5.25899e-06
4.74833e-05
1.33626e-05
1.20632e-05
3.13736e-06
1.96338e-05
3.84474e-06
2.81508e-05
9.06657e-06
4.94548e-07
2.02991e-06
2.18206e-06
3.73816e-06
7.86678e-07
1.30046e-06
1.46111e-06
9.10495e-07
9.97162e-06
2.30046e-06
6.42336e-06
1.35055e-06
7.00626e-06
1.64044e-06
3.34806e-07
2.58489e-06
8.4357e-07
9.29827e-07
9.15016e-07
9.56626e-07
2.86843e-07
5.6931e-07
3.88946e-06
2.68547e-06
7.47221e-07
4.42251e-06
1.05856e-06
3.60699e-07
0.000549654
8.88804e-05
0.000491432
5.07332e-05
0.000753432
6.34092e-05
0.000356449
0.00472339
0.0484786
0.00366519
0.0207382
0.00630801
0.0375656
0.00269641
0.000374476
3.23403e-05
2.58102e-05
0.000149336
4.15889e-05
0.00023966
0.000237915
0.00332421
0.0148377
0.0186451
0.00120418
0.02729
0.00186709
0.00218145
65.8705
41.6352
64.9779
31.1348
44.3948
32.9193
42.0828
1.94934
0.347999
1.08425
0.144061
2.30833
0.28002
0.860871
63.2864
60.5772
39.9731
28.7068
34.9836
38.9661
25.6231
1.55779
0.105303
0.151696
0.453013
0.21277
0.644443
1.1695
9.36793e-05
4.99458e-06
2.2175e-05
3.72244e-05
1.37457e-05
3.96052e-05
8.09235e-05
0.000885554
0.000307777
0.00384882
0.00572242
0.000396228
0.000647328
0.00803088
4.99663e-06
1.68492e-06
1.30533e-06
1.27599e-05
5.85451e-07
1.44044e-05
5.59642e-06
1.61824e-06
1.50259e-06
5.55747e-07
1.48084e-06
3.31246e-07
1.24328e-06
1.86347e-06
5.62809e-05
0.000116183
0.00162562
0.000388332
0.000156335
4.9732e-05
0.00061395
1.74047e-05
6.31918e-06
6.08335e-05
0.000126369
5.68509e-06
1.50175e-05
0.000203075
7.43701e-05
1.4322e-05
8.64716e-05
6.3637e-06
0.000139451
7.53984e-06
4.40346e-05
0.00074185
0.0117192
0.000718742
0.00346842
0.00133291
0.00681747
0.000386775
3.5839e-05
4.07051e-06
1.91844e-05
1.23527e-05
4.80757e-06
2.0666e-05
2.00797e-05
0.00037275
0.00179136
0.0016866
8.35245e-05
0.00358168
0.000187099
0.000167222
51.3272
37.8733
34.7555
17.8233
30.1701
21.949
24.6518
0.522727
0.100583
0.296919
0.0271459
0.816345
0.0612069
0.179551
36.2024
30.5221
25.2108
13.4892
12.7354
18.6944
9.28515
0.302124
0.0143357
0.0166977
0.0489027
0.0337686
0.0990861
0.156232
0.494109
0.0357934
0.0481289
0.197878
0.0684212
0.287153
0.374353
2.82731
1.47253
9.35516
11.5133
1.8906
2.50596
11.49
0.0685346
0.0166718
0.00390784
0.0930806
0.00681583
0.149736
0.0382495
0.0267155
0.000759552
0.0013128
0.00438333
0.00242401
0.00905309
0.0139794
0.613483
0.76314
7.03992
2.58312
1.15294
0.343738
4.70616
0.27691
0.0449624
1.15387
1.10777
0.104562
0.133396
2.61528
0.000773836
0.000218068
3.86923e-05
0.0013035
6.97621e-05
0.00270847
0.000355766
0.00025844
0.00070483
4.21838e-05
0.000137693
8.20625e-05
0.00032681
0.0001129
0.010136
0.0136002
0.406816
0.0373658
0.0337889
0.00392361
0.126315
0.00304322
0.000363756
0.0128746
0.0112623
0.00106225
0.0011024
0.0396376
17.5302
12.7983
19.0883
2.77744
7.39381
5.58507
3.42779
0.0294163
0.00735924
0.0216171
0.00101938
0.0719378
0.00284108
0.00825602
9.28193
3.21343
7.19478
1.08667
0.336815
1.19577
0.361136
0.0104939
0.000390115
0.00464175
0.00100522
0.00120977
0.0026752
0.00415917
63.824
60.9959
51.9864
48.1331
29.8101
41.3959
34.7941
11.3241
18.0954
9.93067
4.5626
1.54211
4.13247
1.47812
166.136
119.68
117.778
259.686
171.589
135.167
284.472
104.883
227.671
99.4778
213.572
144.203
86.8504
206.14
82.864
162.766
77.2272
139.841
101.433
29.8276
81.7035
81.6941
27.4706
101.38
101.346
27.4376
81.9566
32.9022
82.8177
28.458
102.658
101.483
30.6994
83.7282
37.7358
84.3579
36.1737
103.992
33.4035
105.096
84.4197
83.719
41.4948
38.8279
105.79
105.744
41.2355
79.1396
42.5792
42.9905
45.3879
105.154
43.397
103.685
85.098
296.555
347.055
142.128
369.664
147.411
84.3998
68.0324
42.4716
40.6987
47.1707
97.2084
101.159
48.4838
47.4897
31.8581
37.3261
47.5249
91.241
48.8255
82.4384
33.7089
15.6446
24.1159
44.0401
54.2312
70.1243
38.7124
119.393
72.8744
73.3084
140.747
74.9822
73.1399
137.927
159.765
110.073
240.24
114.513
250.789
152.487
108.421
73.0527
71.8856
129.264
76.0628
76.1176
134.148
92.164
69.4167
65.2635
123.324
72.8913
75.0255
116.376
125.365
269.284
89.0726
181.869
94.3767
198.362
114.344
67.8247
59.115
50.9599
98.3891
69.6895
65.2814
108.163
37.9097
41.1857
30.7237
87.0275
53.2382
59.7698
74.0405
13.3166
21.0391
13.4566
44.6534
46.1799
39.3695
59.6462
80.8497
321.449
135.148
230.559
83.1515
292.468
125.825
77.1136
201.791
221.375
97.7386
259.577
113.485
72.6681
101.492
77.6094
75.4729
67.9088
72.6289
80.5629
87.3303
0.000364923
0.0772905
126.24
0.000318597
0.000519926
0.000232087
0.0204208
0.00833605
0.152707
18.2008
11.1903
129.034
150.711
115.058
54.9273
64.5754
0.000891172
0.000674038
7.14686e-05
0.000514669
0.000221661
8.51812e-05
0.00038941
0.000147098
4.29176e-05
0.000216246
0.000161568
7.07071e-05
0.000401378
4.3391e-05
0.000445356
0.000211079
0.00182106
0.00256827
0.026908
0.0111603
0.00339936
0.0013976
0.0154372
0.789731
0.193691
0.0896116
1.01979
0.119347
1.18942
0.641974
3.95276
5.49156
14.7797
14.9672
5.18344
3.86458
13.3217
126.636
71.812
70.2254
142.845
68.2489
70.8206
144.378
96.525
77.7062
79.1949
111.519
78.8037
75.7588
92.5283
5.06256e-05
0.000562613
0.0896932
0.000260216
4.78832e-05
2.92219e-05
3.76994e-06
16.996
0.542941
4.55997
20.7514
0.50168
20.4766
0.0188759
0.176534
0.00787136
0.000654459
4.53015
0.0705723
0.00525424
0.00041217
0.00135107
0.000250679
5.77754e-05
0.0144747
0.000290321
0.000165508
2.94412e-05
3.83611e-05
1.00736e-05
1.87917e-06
6.34286e-05
1.13093e-05
4.08871e-06
6.30766e-07
76.2891
34.2335
83.4428
31.6
114.501
62.3654
0.393182
88.9556
0.191059
52.4771
11.3061
0.177692
0.0845316
0.000728229
16.0031
0.000257379
1.05733
0.0334247
0.000355827
0.000409086
8.24536e-05
0.0394862
0.000303545
1.42702e-05
0.00010712
1.81809e-05
1.08974e-05
1.3136e-06
16.531
26.3876
5.87757
9.98058
25.8395
5.64447
16.8959
15.9581
9.29127
23.6703
4.65251
24.9459
5.23172
15.1516
12.6295
21.9493
3.94281
5.72173
14.0559
19.7425
3.15784
10.8752
4.28549
13.961
1.65961
17.0509
2.37137
8.87232
4.69723
10.6392
1.07702
1.03235
6.75641
7.33201
0.645523
2.89961
0.529653
2.24238
0.174752
4.41024
0.354255
1.54878
0.293626
0.965199
0.0761354
0.0344438
0.716516
0.3616
0.0293058
0.104203
0.00984257
0.0294589
0.00290608
0.11319
0.00959585
0.0325051
34.0168
34.3553
9.29411
22.8128
26.1176
44.7236
13.8617
23.0293
9.82539
4.32345
2.21451
17.5767
12.88
6.51472
1.66018
4.21875
0.145352
0.616921
1.39704
5.38364
0.1656
0.469567
0.152415
0.0445853
0.0121947
0.444944
0.137528
0.0440349
0.94
0.585682
1.5454
0.0493537
0.0812188
0.144198
0.0162216
0.012949
0.0540827
0.00166251
0.00353319
0.0201849
0.0420156
0.00102094
0.00402374
0.00670479
0.000971403
0.000109467
0.012329
0.00128905
0.000332348
0.000146372
0.00511355
1.0574
52.3891
2.91279
1.96551
0.000987361
155.753
105.153
52.2967
162.147
210.691
154.836
156.719
139.75
0.999081
81.9009
185.867
116.121
81.2801
36.3519
40.0423
0.00101129
7.77686
68.7394
24.931
5.47269
0.235835
0.376849
0.00258481
7.75161e-05
9.18572
0.02202
0.0101337
0.000122159
71.1246
165.718
80.2356
80.8548
86.7277
112.655
48.1952
8.99913
6.34676
11.8243
30.8206
37.1504
41.7099
16.9068
62.9129
29.3332
47.8901
22.694
41.7063
32.0346
54.51
48.4014
69.6912
35.2988
52.7661
40.4271
74.8256
56.3094
1.37348
0.00407396
0.00123274
1.90592
0.773198
0.00284969
0.000777962
0.515718
0.00196816
0.000505147
0.427565
0.0737696
0.000788162
0.000220658
0.0295547
0.000359946
0.000147596
0.0206205
0.00093329
0.000173042
5.08974e-05
0.000232477
3.97441e-05
1.17686e-05
0.000151077
2.9521e-05
8.63731e-06
2.05384e-06
3.09035e-06
8.71388e-07
2.06902e-07
1.80704e-06
2.54047e-07
1.05325e-07
2.69143e-08
0.00360637
8.60045e-06
5.0109e-05
3.24724e-06
1.09678e-05
8.12995e-07
4.41393e-06
2.53535e-07
3.26125e-06
1.8862e-07
0.00333441
0.00102928
0.000297449
5.37742e-05
3.9759e-05
0.0361073
1.13078e-05
1.11627e-06
5.94851e-08
1.61708e-05
2.67312e-06
1.51801e-07
7.85516e-09
1.05169e-05
3.09565e-06
1.99873e-07
1.18062e-08
6.31749e-10
1.40623e-06
1.50985e-07
1.11489e-08
7.01771e-10
3.92417e-11
6.20143e-08
6.63221e-09
5.20281e-10
3.43915e-11
1.95141e-12
471.378
571.428
443.709
290.76
634.107
490.097
249.997
729.393
208.835
372.681
525.459
236.306
185.278
605.366
466.128
99.3583
688.009
203.303
314.38
296.683
447.161
237.635
48.0606
556.05
415.262
41.865
601.692
265.321
220.062
170.558
392.307
339.467
46.2738
0.0273067
555.764
452.322
289.314
0.573897
592.636
472.449
77.6742
41.6021
14.9313
7.2284e-05
359.808
360.272
265.255
85.7049
0.000140405
335.502
52.0654
0.0171273
0.000167675
4.83464e-06
236.022
140.169
0.000156431
0.000124899
1.58374e-06
0.0152984
2.61886e-05
7.17614e-06
4.85209e-07
51.9065
1.82006
1.01872e-05
1.95798e-06
1.40629e-07
0.0128061
1.24361e-05
1.61232e-06
1.32348e-07
8.19796e-09
757.931
736.749
530.734
710.658
481.012
625.984
515.141
690.027
466.498
787.304
758.26
384.184
703.393
373.241
226.187
723.901
668.911
741.755
675.344
366.163
626.453
338.958
197.052
580.715
642.853
611.834
589.95
636.56
543.571
458.669
600.751
450.066
486.48
374.384
506.904
395.43
648.772
636.558
549.79
327.015
510.049
563.341
616.102
442.036
486.793
472.3
448.858
479.711
593.536
504.403
405.37
353.91
434.2
361.22
336.065
468.96
328.375
320.705
192.963
330.533
245.829
620.768
499.48
455.178
510.269
434.842
366.699
337.25
342.133
234.671
311.213
668.893
727.501
667.207
506.024
677.995
456.015
570.097
474.761
625.541
413.514
631.439
669.866
614.047
550.597
574.504
525.949
565.209
546.068
520.072
431.99
431.561
393.159
337.686
386.694
365.867
276.396
291.325
302.656
240.157
300.632
352.337
310.149
197.983
98.3287
224.26
183.253
131.572
259.005
189.293
62.9617
2.34027
136.341
10.3571
328.405
267.36
740.243
756.567
738.73
747.331
719.157
729.521
653.496
698.6
652.038
709.189
696.86
650.849
655.34
645.22
700.175
678.607
633.846
688.428
642.663
635.765
784.706
772.405
716.367
645.922
657.328
80.0076
378.955
466.344
157.014
473.731
156.845
80.9622
707.499
708.976
694.879
691.134
658.979
679.248
722.392
700.065
83.1268
457.024
157.207
358.299
82.0576
446.322
157.255
649.287
573.394
594.621
639.29
633.404
681.226
613.278
670.069
603.117
649.742
637.023
677.881
624.803
607.629
665.57
647.083
597.615
603.869
580.072
530.595
576.488
568.509
614.547
565.221
521.737
593.513
550.064
572.994
550.11
564.08
523.835
490.215
541.743
494.797
460.807
530.904
494.047
456.018
686.291
619.062
653.69
679.595
607.638
648.581
586.144
579.082
617.696
85.4736
406.379
154.117
312.995
85.5076
389.326
151.343
544.172
467.03
498.338
565.622
600.826
630.26
567.365
612.23
554.761
579.642
522.453
475.06
465.289
531.753
470.081
516.106
512.795
452.307
458.331
505.631
524.036
462.824
513.284
582.313
566.181
547.622
556.354
537.701
521.967
482.446
490.87
536.172
462.398
524.571
449.662
493.032
467.435
495.687
437.518
413.948
489.92
472.662
416.259
438.023
416.324
357.422
388.741
406.218
445.518
388.385
380.005
456.661
424.5
428.029
419.294
416.485
385.439
337.834
383.201
325.387
294.403
373.646
343.023
290.895
647.444
571.666
594.399
486.047
552.194
515.569
472.05
534.398
538.101
467.211
494.103
493.478
412.712
469.41
419.051
390.097
444.835
386.398
301.742
350.003
179.946
348.575
120.374
274.169
120.482
280.302
176.141
320.746
80.322
480.438
158.324
383.923
480.137
157.857
80.8049
84.2903
349.2
421.334
155.909
434.597
156.902
85.1383
478.511
596.898
514.361
543.267
466.906
586.652
497.326
363.424
355.416
314.14
474.529
348.47
349.343
308.714
339.329
334.388
263.331
433.58
293.649
313.986
234.524
467.237
530.371
440.753
435.809
498.201
484.982
342.018
491.19
439.531
371.438
276.859
463.275
370.589
269.959
320.072
221.211
327.709
176.287
301.391
162.654
363.986
485.571
453.999
307.113
242.775
382.75
333.313
188.638
434.588
334.14
203.178
83.8707
305.246
172.321
136.349
213.03
134.181
143.868
15.2247
152.226
27.1018
667.328
623.192
664.142
624.5
654.907
609.913
611.537
647.032
618.49
573.284
638.958
593.344
574.267
594.658
440.345
543.194
486.832
468.524
389.363
526.798
453.379
1.55586
67.9488
5.42099
0.28211
0.000329756
3.59976
0.00157947
142.8
115.844
3.64775
3.0814e-05
3.01005e-06
649.97
726.434
690.348
759.743
955.422
562.918
427.84
643.915
605.649
786.218
713.49
882.014
396.743
542.793
509.958
665.749
663.27
761.234
336.957
473.513
537.881
188.341
235.822
252.474
37.838
133.608
0.00158786
1.69703e-05
5.41477e-06
4.40423e-07
2.85754e-08
2.37854
2.08553e-05
2.42351e-06
2.76551e-07
2.37273e-08
1.61265e-09
9.09598e-05
6.5685e-06
8.00448e-07
8.5222e-08
6.89253e-09
4.44927e-10
7.92946e-07
1.13504e-07
1.27014e-08
1.11428e-09
7.76723e-11
1.16459e-06
2.68494e-07
3.61977e-08
3.82571e-09
3.16072e-10
2.12389e-11
851.505
922.323
812.341
792.033
892.344
667.078
880.02
730.777
657.481
852.592
1019.17
962.132
906.761
736.025
875.53
730.181
672.718
815.259
633.788
838.31
681.331
594.651
780.537
933.7
839.165
796.472
674.038
784.629
575.167
639.717
661.806
751.401
800.736
666.901
896.175
948.551
891.027
1047.64
1012.03
834.292
855.509
811.35
884.806
833.208
723.593
721.685
687.665
670.614
614.326
283.674
911.733
879.466
965.23
920.078
879.489
962.756
911.325
931.62
973.809
991.073
918.155
899.962
907.113
857.634
933.259
868.766
948.505
888.032
813.137
846.754
838.782
877.697
846.414
836.82
813.804
777.415
798.815
797.204
778.466
803.61
865.751
826.156
814.664
836.685
826.04
792.884
767.849
777.28
787.511
756.415
1086.68
1010.62
1076.55
1083.55
1116.64
988.127
1021.3
1050.82
841.082
837.388
929.191
855.514
874.481
806.939
823.175
886.191
955.237
902.593
933.95
859.855
844.878
915.088
857.737
874.419
830.314
894.125
867.207
877.416
908.203
840.887
841.894
838.616
791.189
847.718
812.587
872.567
819.044
765.253
813.429
802.433
822.975
779.586
798.618
787.253
730.436
764.597
743.776
749.074
748.31
803.95
760.516
744.981
780.906
767.993
728.747
714.653
708.1
730.574
695.203
989.008
903.067
955.354
932.338
974.431
872.34
884.004
921.305
788.505
767.578
827.352
756.065
785.208
715.744
743.012
759.665
839.013
804.861
792.381
748.028
763.146
814.761
747.347
787.418
727.957
773.796
710.792
689.518
741.368
662.941
703.95
705.708
645.088
679.522
687.756
727.975
658.133
673.309
735.062
717.07
716.78
704.296
703.084
684.043
841.776
757.803
795.29
724.957
779.415
712.546
697.353
746.736
571.043
638.928
616.897
587.823
706.137
793.97
779.267
709.435
643.954
769.154
754.198
601.396
734.955
627.95
631.619
569.692
698.264
615.969
617.884
736.593
696.839
588.316
544.994
641.554
628.178
549.896
678.242
568.336
534.54
489.305
567.589
550.096
519.915
586.061
576.628
510.439
454.57
544.872
550.659
545.203
408.84
492.647
495.601
384.092
350.825
429.478
409.694
303.861
171.91
82.8739
0.354129
0.196225
0.000259214
6.4797e-05
1.1054e-05
4.50442e-06
276.716
131.317
131.555
200.679
194.301
131.758
59.7638
62.8865
146.229
57.0115
59.9303
145.92
130.656
65.7098
68.1734
146.079
65.5602
62.7849
145.452
538.866
526.235
568.506
291.05
251.691
186.282
362.419
120.345
183.276
355.404
120.44
285.928
880.008
1233.59
1109.73
929.35
690.741
1057.13
1015.43
1148.83
994.336
906.615
983.665
859.118
696.662
747.956
541.72
648.703
460.1
479.905
645.392
708.004
512.68
1158.03
1219.46
1146.1
1071.77
869.589
633.48
375.565
330.874
294.276
944.934
980.2
1010.4
1053.61
980.501
1007.37
944.518
1035.49
948.254
964.525
1185.96
929.975
972.137
910.454
944.139
854.436
886.708
1030.48
810.931
805.746
759.305
750.613
660.901
708.182
808.189
572.701
614.093
650.902
599.472
612.371
572.643
604.049
529.703
545.449
479.462
487.436
528.274
552.064
482.613
616.539
594.619
572.846
723.359
648.913
664.203
583.193
526.077
598.712
865.563
1105.15
846.611
1058.07
1313.63
1217.84
798.837
1033.9
733.681
930.586
1175.64
1035.63
665.495
874.271
578.154
699.337
971.225
767.508
1057.66
1018.13
1155.08
1100.99
1018.38
1150.19
1056.98
1034.75
1080.82
978.042
1101.39
998.957
1127.65
1007.73
1399.89
1296.84
1379.68
1259.22
1290.86
1337.48
948.341
956.416
1074.22
1008.11
981.339
931.316
1042.9
906.818
975.159
858.715
946.584
899.343
1001.53
857.025
1245.82
1134.05
1199.51
1088.8
1084.38
1148.61
745.184
807.401
880.906
813.431
799.538
752.796
814.599
696.5
754.286
656.254
699.203
702.245
753.512
652.733
1007.03
901.113
926.71
831.286
784.2
852.017
226.932
191.463
120.287
295.549
120.284
299.444
189.033
592.572
485.589
513.043
625.986
570.375
527.239
600.544
449.314
460.055
481.012
528.863
498.506
502.19
438.25
563.294
602.188
574.112
584.469
557.738
594.54
568.879
534.633
523.861
545.566
502.814
528.712
540.508
514.669
737.195
699.824
711.035
735.522
709.981
713.111
732.284
578.459
568.25
521.429
556.368
590.611
679.79
615.447
874.133
937.275
933.827
963.84
875.435
889.098
956.782
599.824
619.396
595.1
612.786
585.797
605.738
580.95
546.572
541.089
567.552
534.413
556.866
553.062
527.04
496.485
507.479
492.371
482.371
494.194
465.192
477.311
685.574
664.056
688.107
704.193
658.348
681.786
682.272
796.659
802.865
810.294
760.738
770.264
763.58
760.18
914.011
822.696
891.219
938.376
834.763
861.527
910.902
513.623
519.377
501.898
517.796
502.89
506.217
489.376
667.611
617.965
641.727
636.552
637.126
660.046
613.33
310.254
375.646
350.94
430.342
361.985
462.595
393.68
611.85
562.719
584.13
608.259
558.77
585.586
580.997
728.369
712.959
720.616
698.21
709.121
714.639
730.665
781.55
741.321
759.684
719.679
749.041
733.493
712.308
466.134
460.646
477.556
431.798
448.876
460.99
443.802
833.519
835.295
880.199
851.597
856.15
909.143
907.763
639.881
660.366
649.416
627.413
617.03
626.825
637.833
574.346
538.376
548.921
573.797
584.835
560.363
549.929
550.35
497.766
475.078
535.436
472.521
516.99
588.704
561.3
526.622
543.195
534.681
535.56
555.85
516.474
867.471
769.35
838.609
774.016
849.041
809.552
884.754
512.534
494.365
521.749
533.705
498.083
524.466
506.66
778.689
759.252
756.85
751.656
738.107
733.929
752.689
697.227
668.24
652.293
664.793
676.482
686.712
675.036
802.886
698.461
765.625
696.136
733.186
764.668
806.8
481.812
468.093
485.334
471.363
488.132
473.046
455.885
862.57
830.361
888.705
809.444
869.872
793.95
846.537
698.062
672.288
710.704
725.381
701.381
665.347
688.909
610.738
577.789
587.71
586.189
596.632
573.07
562.941
656.991
668.615
645.997
670.051
658.635
636.169
647.433
401.639
378.799
448.935
449.508
492.111
423.125
416.412
679.317
611.81
647.85
644.153
673.292
636.656
608.566
684.369
725.309
634.998
635.27
663.917
683.316
722.168
552.649
535.123
561.529
546.76
511.874
537.708
520.099
470.685
472.849
483.072
437.331
450.618
463.074
450.348
227.814
194.102
255.557
308.294
231.166
298.806
203.521
609.385
589.334
619.473
563.327