/*--------------------------------*- C++ -*----------------------------------*\
  =========                 |
  \\      /  F ield         | OpenFOAM: The Open Source CFD Toolbox
   \\    /   O peration     | Website:  https://openfoam.org
    \\  /    A nd           | Version:  9
     \\/     M anipulation  |
\*---------------------------------------------------------------------------*/
FoamFile
{
    format      ascii;
    class       volScalarField;
    location    "0.003";
    object      rho.air;
}
// * * * * * * * * * * * * * * * * * * * * * * * * * * * * * * * * * * * * * //

dimensions      [1 -3 0 0 0 0 0];

internalField   nonuniform List<scalar> 
25712
(
0.0692001
0.0443176
0.0906794
0.0690845
0.172901
0.138443
0.0561649
0.0742786
0.0724393
0.0579009
0.0858597
0.120875
0.144201
0.115666
0.173477
0.0391532
0.0457047
0.0402434
0.0567522
0.082566
0.0689
0.140646
0.169702
0.18035
0.0674369
0.0646192
0.0557328
0.0579845
0.0666227
0.0571783
0.0658436
0.0710225
0.0629265
0.0802413
0.0675396
0.0711791
0.0607696
0.0778292
0.0498466
0.048522
0.0430813
0.102742
0.0937524
0.0777535
0.102352
0.0882946
0.110564
0.0923404
0.121262
0.121348
0.155625
0.137513
0.130434
0.111884
0.145828
0.0976117
0.109414
0.0859299
0.221014
0.189634
0.171158
0.213394
0.179237
0.234179
0.214552
0.103697
0.109657
0.0936846
0.0925618
0.107333
0.105268
0.0916446
0.0745825
0.0748927
0.0810849
0.0817578
0.081585
0.0752137
0.0816477
0.143998
0.153838
0.155735
0.129369
0.126896
0.12307
0.147258
0.0707318
0.0696672
0.0711543
0.0701765
0.0716429
0.0720033
0.0706025
0.187623
0.191809
0.217588
0.222531
0.17978
0.202947
0.234651
1.65231
1.22502
1.22501
1.225
1.225
1.22527
1.225
1.225
1.22766
0.731921
1.75219
2.01623
1.90407
1.24816
1.2391
1.50072
1.2919
1.23047
1.23424
1.58879
1.32941
1.40846
0.8416
1.27339
0.902922
1.0431
1.23806
0.920069
2.45606
0.782352
0.681709
0.722107
0.940991
0.873696
0.917497
0.884632
1.31255
1.24106
1.24483
1.29976
1.24707
1.29763
1.32455
1.36678
1.44824
1.26838
1.46438
1.3673
1.46124
1.22953
0.908745
0.770195
0.824062
1.00792
1.03416
0.970561
1.08503
1.27529
1.797
1.94437
1.84487
1.76197
1.69261
1.67001
2.24499
1.27808
1.48768
1.77584
1.18396
1.72838
1.54902
1.53258
1.24674
1.17944
1.44541
1.16637
1.43509
0.956855
1.47325
1.03852
1.89282
0.919898
1.31477
1.28607
0.963592
1.85206
1.22542
1.225
1.22502
1.2313
1.46455
1.28934
1.2257
1.225
1.225
1.22501
1.22503
1.225
1.22502
1.225
1.225
1.225
1.225
1.225
1.225
1.225
1.225
1.225
1.225
1.225
1.225
1.225
1.225
1.225
1.225
1.225
1.225
1.225
1.225
1.225
1.225
1.225
1.225
1.225
1.225
1.225
1.225
1.225
1.07424
2.03102
1.2251
1.225
1.22501
1.22873
1.36151
1.24772
1.22526
1.225
1.225
1.22501
1.22501
1.225
1.22501
1.225
1.225
1.225
1.225
1.225
1.225
1.225
1.225
1.225
1.225
1.225
1.225
1.225
1.225
1.225
1.225
1.225
1.225
1.225
1.225
1.225
1.225
1.225
1.225
1.225
1.225
1.225
1.225
1.225
1.62278
1.26124
1.225
1.225
1.22587
1.25068
1.22607
1.22501
1.225
1.225
1.225
1.225
1.225
1.225
1.225
1.225
1.225
1.225
1.225
1.225
1.225
1.225
1.225
1.225
1.225
1.225
1.225
1.225
1.225
1.225
1.225
1.225
1.225
1.225
1.225
1.225
1.225
1.225
1.225
1.225
1.225
1.225
1.225
2.20845
1.22508
1.22534
1.22501
1.22505
1.22592
1.225
1.22504
1.225
1.225
1.225
1.225
1.225
1.225
1.225
1.225
1.225
1.225
1.225
1.225
1.225
1.225
1.225
1.225
1.225
1.225
1.225
1.225
1.225
1.225
1.225
1.225
1.225
1.225
1.225
1.225
1.225
1.225
1.225
1.225
1.225
1.225
1.225
1.39959
2.09457
1.65464
1.22531
1.225
2.02627
1.54368
1.23097
1.22504
1.225
1.225
1.23154
1.22508
1.225
1.225
1.225
1.225
1.225
1.225
1.225
1.225
1.225
1.225
1.225
1.225
1.225
1.225
1.225
1.225
1.225
1.225
1.225
1.225
1.225
1.225
1.225
1.225
1.225
1.225
1.225
1.225
1.225
1.225
1.225
1.225
1.225
1.225
1.34229
2.22608
1.23013
1.22501
1.225
1.225
1.22545
1.43495
1.2255
1.225
1.225
1.225
1.22505
1.22501
1.225
1.225
1.225
1.225
1.225
1.225
1.225
1.225
1.225
1.225
1.225
1.225
1.225
1.225
1.225
1.225
1.225
1.225
1.225
1.225
1.225
1.225
1.225
1.225
1.225
1.225
1.225
1.225
1.225
1.225
1.225
1.225
1.225
1.225
1.22535
1.2252
1.225
1.225
1.225
1.225
1.22505
1.22516
1.225
1.225
1.225
1.225
1.225
1.225
1.225
1.225
1.225
1.225
1.225
1.225
1.225
1.225
1.225
1.225
1.225
1.225
1.225
1.225
1.225
1.225
1.225
1.225
1.225
1.225
1.225
1.225
1.225
1.225
1.225
1.225
1.225
1.225
1.225
1.225
1.225
1.225
1.225
1.225
1.225
1.225
1.225
1.225
1.225
1.225
1.225
1.225
1.225
1.225
1.225
1.225
1.225
1.225
1.225
1.225
1.225
1.225
1.225
1.225
1.225
1.225
1.225
1.225
1.225
1.225
1.225
1.225
1.225
1.225
1.225
1.225
1.225
1.225
1.225
1.225
1.225
1.225
1.225
1.225
1.225
1.225
1.225
1.225
1.225
1.225
1.225
1.225
1.225
1.225
1.225
1.225
1.225
1.225
1.225
1.225
1.225
1.225
1.225
1.225
1.225
1.225
1.225
1.225
1.225
1.225
1.225
1.225
1.225
1.225
1.225
1.225
1.225
1.225
1.225
1.225
1.225
1.225
1.225
1.225
1.225
1.225
1.225
1.225
1.225
1.225
1.225
1.225
1.225
1.225
1.225
1.225
1.225
1.225
1.225
1.225
1.225
1.225
1.225
1.225
1.225
1.225
1.225
1.225
1.225
1.225
1.225
1.225
1.225
1.225
1.225
1.225
1.225
1.225
1.225
1.225
1.225
1.225
1.225
1.225
1.225
1.225
1.225
1.225
1.225
1.225
1.225
1.225
1.225
1.225
1.225
1.225
1.225
1.225
1.225
1.225
1.225
1.225
1.225
1.225
1.225
1.225
1.225
1.225
1.22528
1.225
1.22517
1.225
1.225
1.225
1.225
1.225
1.22501
1.22862
1.22501
1.22773
1.01133
1.24665
1.71084
1.02884
1.24192
1.67543
1.18973
1.81856
1.95186
0.98944
1.2248
1.78355
1.81949
1.22501
1.22572
1.22501
1.22532
1.22501
1.22559
1.22501
1.225
1.225
1.225
1.225
1.225
1.225
1.225
1.22614
1.225
1.22503
1.22501
1.22581
1.225
1.22502
1.39361
1.22506
1.22534
1.22961
1.34812
1.22505
1.22523
1.22512
1.225
1.225
1.225
1.225
1.225
1.225
1.22501
1.22725
1.225
1.2259
1.09069
1.23932
1.64723
1.19963
1.23125
1.4706
1.66758
1.75499
1.72334
1.34431
2.1547
1.54247
1.34788
1.22501
1.22529
1.22501
1.225
1.22505
1.225
1.225
1.225
1.225
1.225
1.225
1.225
1.225
1.22563
1.225
1.22502
1.22501
1.22521
1.225
1.22501
1.32359
1.22505
1.22517
1.22639
1.25885
1.22504
1.22506
1.225
1.22523
1.225
1.225
1.22511
1.225
1.225
1.22559
1.225
1.22509
1.4499
1.22916
1.39183
1.68792
1.22572
1.25032
2.31837
1.44285
1.27944
1.99985
2.25991
1.25194
1.22686
1.22501
1.22502
1.225
1.22506
1.22503
1.22501
1.225
1.225
1.225
1.22502
1.225
1.225
1.225
1.22509
1.225
1.225
1.225
1.22502
1.225
1.225
1.24584
1.22503
1.22504
1.22513
1.22779
1.22501
1.22502
1.22693
1.5293
1.22592
1.22505
1.47545
1.26398
1.22501
1.22504
1.23858
1.22545
1.88102
1.22532
1.23601
1.54976
1.22516
1.22535
1.81257
1.23509
1.22544
1.66334
1.22797
1.2252
1.22501
1.2283
1.22546
1.22559
1.49168
1.23569
1.24064
1.22503
1.22503
1.22501
1.33433
1.23101
1.22532
1.22503
1.22501
1.225
1.225
1.22689
1.22505
1.22501
1.225
1.22612
1.225
1.22501
1.22502
1.22503
1.225
1.225
1.75557
1.79718
1.37798
1.71542
2.18125
2.10022
1.31473
2.10831
1.27727
1.22674
2.37977
1.86069
1.24608
1.22521
1.25345
1.22561
1.22508
1.28033
1.22555
1.22505
1.22501
1.2881
2.38285
2.48931
1.55499
1.27422
1.35446
1.7896
1.22806
1.22501
1.10617
2.45476
1.25159
1.22503
1.22501
1.225
2.28926
2.55869
1.22502
1.225
1.225
1.225
1.38129
1.22605
1.225
1.225
1.225
1.225
1.225
1.225
1.225
1.225
1.225
1.225
1.225
1.225
1.225
1.225
1.225
1.225
0.501225
0.509787
0.820025
0.55857
0.85058
0.837714
0.699078
0.868758
0.542465
0.606925
1.14866
0.642332
0.938109
1.3789
0.737037
1.15215
0.88784
1.17226
1.12751
1.48595
0.881709
1.39241
1.12678
2.01717
0.98653
1.57962
1.29437
1.49565
1.81488
1.96961
2.30836
2.09998
2.48492
2.06008
2.45139
2.27952
1.25511
0.943005
0.978556
1.12201
1.36547
1.1709
1.61783
1.1974
1.92951
1.70595
1.73369
2.0827
1.77531
2.04031
2.40362
2.41491
2.10518
2.11087
1.51333
2.26599
1.84558
1.66737
1.23032
1.40081
1.16463
1.86051
1.9047
1.55748
1.23383
1.36766
1.92659
1.66202
1.83801
1.74776
2.14748
1.90976
1.98321
1.94989
1.98394
1.82982
2.09563
1.41461
1.58127
1.43138
1.24455
1.28536
1.25089
1.28096
1.22503
1.22523
1.22504
1.22526
1.22521
1.22504
1.22503
1.225
1.225
1.22501
1.225
1.225
1.22501
1.22501
1.22503
1.22522
1.22513
1.22503
1.22518
1.22504
1.22502
1.225
1.225
1.225
1.22501
1.225
1.22501
1.225
1.225
1.225
1.225
1.225
1.225
1.225
1.225
1.225
1.225
1.225
1.225
1.225
1.225
1.225
1.225
1.225
1.225
1.225
1.225
1.225
1.225
1.225
1.225
1.225
1.225
1.225
1.225
1.225
1.22511
1.22502
1.22508
1.22501
1.22501
1.22508
1.22512
1.22583
1.2307
1.22555
1.22846
1.23046
1.22552
1.22587
1.2251
1.22501
1.22501
1.22506
1.22501
1.22507
1.22509
1.22576
1.22815
1.22947
1.2254
1.23004
1.22547
1.22565
1.01508
1.02991
1.03806
1.60034
1.54823
1.55676
1.59412
1.35879
1.25678
1.33222
1.24575
1.25571
1.32853
1.36097
1.05661
1.0541
1.09017
1.61597
1.60716
1.57577
1.63977
1.35614
1.24412
1.25152
1.31317
1.25396
1.32211
1.3522
1.22501
1.22509
1.22502
1.22501
1.22502
1.225
1.225
1.225
1.225
1.225
1.225
1.225
1.225
1.225
1.225
1.225
1.225
1.225
1.225
1.225
1.225
1.225
1.225
1.225
1.225
1.225
1.225
1.225
1.225
1.225
1.225
1.225
1.225
1.225
1.225
1.225
1.225
1.225
1.225
1.225
1.225
1.225
1.225
1.225
1.225
1.225
1.225
1.22505
1.22501
1.22505
1.225
1.22507
1.22501
1.22503
1.22542
1.22878
1.22532
1.22676
1.22554
1.22804
1.22525
1.22504
1.225
1.225
1.22502
1.225
1.22502
1.22502
1.2253
1.2263
1.22665
1.22512
1.22731
1.22518
1.22521
1.13719
1.13953
1.19557
1.70443
1.64984
1.67008
1.70304
1.336
1.24845
1.30199
1.23651
1.34598
1.24485
1.28901
1.26688
1.35185
1.27036
1.7374
1.81022
1.75899
1.7625
1.32143
1.23374
1.23702
1.26183
1.24093
1.27516
1.30382
1.22501
1.225
1.225
1.225
1.225
1.225
1.22501
1.22508
1.22503
1.22533
1.22547
1.22504
1.22506
1.22563
1.225
1.225
1.225
1.225
1.225
1.225
1.225
1.225
1.225
1.225
1.225
1.225
1.225
1.225
1.22501
1.22501
1.22515
1.22504
1.22502
1.22501
1.22506
1.225
1.225
1.22501
1.22501
1.225
1.225
1.22502
1.22501
1.225
1.22501
1.225
1.22501
1.225
1.225
1.22508
1.22608
1.22507
1.22534
1.22513
1.22566
1.22504
1.225
1.225
1.225
1.225
1.225
1.225
1.225
1.22504
1.22519
1.22518
1.22501
1.22536
1.22502
1.22502
1.5635
1.35253
1.44698
1.76805
1.85053
1.7747
1.87207
1.26707
1.23345
1.25021
1.22756
1.28506
1.23046
1.24096
1.80812
1.54659
1.64618
1.73536
1.81219
1.8634
1.67287
1.25148
1.22643
1.22666
1.22984
1.22819
1.23427
1.23962
1.25192
1.22767
1.22859
1.23925
1.22958
1.24249
1.24884
1.32819
1.31109
1.3972
1.55177
1.30403
1.34903
1.37538
1.23063
1.2264
1.22539
1.23259
1.22564
1.23556
1.22854
1.22755
1.22509
1.22514
1.22549
1.22525
1.22597
1.22642
1.2646
1.27818
1.40752
1.39641
1.28361
1.25313
1.40532
1.24699
1.22976
1.31464
1.31697
1.23498
1.23759
1.37391
1.22509
1.22503
1.225
1.22516
1.22501
1.22531
1.22505
1.22503
1.22508
1.22501
1.22502
1.22501
1.22504
1.22502
1.22617
1.22656
1.26493
1.2293
1.22866
1.22548
1.23866
1.22537
1.22505
1.22654
1.22637
1.22514
1.22514
1.22946
1.87424
1.69821
1.70644
1.45119
1.69542
1.57614
1.52011
1.22804
1.22577
1.22726
1.22513
1.23204
1.22532
1.22593
1.77144
1.48134
1.6186
1.33191
1.26487
1.35182
1.26334
1.22619
1.22505
1.22559
1.22514
1.22515
1.22534
1.22554
1.95428
1.54558
1.74887
2.05448
2.02108
1.96407
2.11678
1.93994
1.93225
1.77381
1.65329
1.37959
1.58157
1.39377
0.933261
0.590447
0.656586
1.08406
0.841263
1.36184
1.48414
0.888203
1.48843
0.962649
1.62134
1.25466
1.91014
1.88248
1.16599
1.93225
1.29876
2.05163
1.70689
0.502904
0.624477
0.62912
0.317505
0.443103
0.446163
0.316168
0.637286
0.522992
0.653475
0.32154
0.463507
0.451591
0.330611
0.677367
0.570278
0.7106
0.357664
0.480485
0.342875
0.503382
0.754468
0.811599
0.654335
0.375023
0.56817
0.532466
0.395526
0.99106
0.716776
0.799808
0.455032
0.611747
0.420892
0.666492
0.467998
1.05853
1.16996
0.750331
1.04742
0.674087
0.519488
1.29156
0.910377
1.04005
0.504464
0.842809
0.739805
0.579126
1.72452
1.42375
1.20854
0.835222
0.990308
0.689742
1.19206
1.91162
1.73948
1.62529
1.04446
1.82678
1.45645
1.36949
1.02717
0.746425
0.804197
0.771709
0.600842
0.549889
0.847824
1.03288
0.808027
1.34815
0.729001
1.21153
1.14172
1.2323
0.869862
0.952997
1.03193
0.663209
0.733129
0.93554
1.5318
1.06232
1.2002
1.13291
0.888808
0.807674
1.2431
1.46161
1.60064
1.09804
1.83545
1.02835
1.7353
1.56963
1.93021
1.37185
1.55679
1.52504
0.982931
1.09033
1.37621
2.14721
1.72563
1.82786
1.67473
1.31797
1.20081
1.82303
1.97682
1.85461
1.79913
2.13669
1.45833
1.66234
1.97992
0.66623
1.30236
0.847513
1.444
0.58497
1.45076
0.977581
0.787281
1.60638
1.77621
1.49129
1.59385
1.16509
1.0127
1.27319
1.03533
1.12711
1.4793
1.32352
1.55863
1.40016
1.22502
1.2306
1.04139
1.22502
1.22504
1.22502
1.22644
1.22578
1.23454
1.52926
1.57932
0.79844
0.904265
0.984034
1.66128
1.86528
1.22507
1.22506
1.22501
1.22504
1.22502
1.22501
1.22503
1.22501
1.225
1.22502
1.22501
1.22501
1.22503
1.225
1.22504
1.22502
1.22515
1.2252
1.2268
1.22585
1.22526
1.22511
1.22611
1.26552
1.23613
1.23107
1.27869
1.23233
1.28176
1.26185
1.35161
1.42362
1.30474
1.54829
1.36407
1.38889
1.34192
0.866999
0.693769
0.646534
0.706326
0.471978
0.508003
0.649744
1.17327
1.1104
0.884905
1.06879
0.95486
1.20393
1.27572
1.22501
1.2251
1.24028
1.22503
1.22501
1.225
1.225
1.83617
1.28291
1.55448
1.89663
1.27203
2.05084
1.22738
1.24433
1.22585
1.22503
1.64978
1.2347
1.22566
1.22502
1.22516
1.22501
1.225
1.22713
1.22502
1.22501
1.225
1.22501
1.225
1.225
1.22501
1.225
1.225
1.225
2.03828
2.34125
2.235
2.41304
1.60475
2.10806
1.2799
2.0246
1.25409
2.41091
2.00278
1.25032
1.23759
1.22508
2.26054
1.22503
1.38053
1.23013
1.22504
1.22502
1.22501
1.23173
1.22505
1.225
1.22501
1.225
1.225
1.225
1.64398
1.75208
1.5491
1.70392
1.75486
1.54217
1.64323
1.64843
1.69299
1.77852
1.51269
1.76391
1.5306
1.65619
1.66888
1.79518
1.48613
1.6044
1.6647
1.80858
1.44992
1.66224
1.54461
1.79876
1.35958
1.81205
1.40617
1.6385
1.52984
1.75911
1.31655
1.32307
1.59441
1.68241
1.2817
1.44824
1.27678
1.43165
1.24209
1.56507
1.25753
1.36279
1.25427
1.32173
1.23288
1.22915
1.29331
1.26408
1.22822
1.2363
1.2263
1.22889
1.22537
1.23859
1.22614
1.22888
1.99916
1.77466
1.7281
1.96057
1.84467
1.92267
1.91341
2.03233
1.7824
1.55817
1.45715
1.86342
1.95478
1.72765
1.41337
1.58348
1.24161
1.29667
1.37311
1.69916
1.24559
1.28148
1.24202
1.23022
1.22665
1.27305
1.24241
1.23077
1.33895
1.29947
1.3893
1.23201
1.2361
1.2427
1.22755
1.2268
1.23134
1.22523
1.2255
1.22755
1.23052
1.22515
1.22561
1.22599
1.22514
1.22502
1.22668
1.22521
1.22505
1.22501
1.22594
1.38866
2.67236
1.62817
1.50299
1.2252
1.23378
2.08338
2.46831
1.40022
1.36766
1.88044
1.91818
1.71705
1.36384
2.31528
1.7008
2.51074
2.59287
2.5837
2.5272
1.22515
1.97624
2.73316
2.49468
1.7827
1.2594
1.28435
1.22546
1.225
1.99155
1.22888
1.2267
1.22501
2.23711
1.94211
2.07947
2.46977
1.62806
2.2286
2.46527
1.87823
1.77955
1.85554
2.27309
2.22753
1.95326
2.22388
1.67634
1.75349
1.5753
1.79537
1.68161
1.93205
1.81111
1.76566
1.52794
1.68839
1.45791
1.61284
1.38964
1.34444
1.3835
1.2254
1.22512
1.39918
1.3182
1.22526
1.22507
1.28939
1.22519
1.22505
1.2686
1.23588
1.22506
1.22501
1.22958
1.22503
1.22501
1.22761
1.22514
1.22501
1.22501
1.22503
1.225
1.225
1.22502
1.225
1.225
1.225
1.225
1.225
1.225
1.225
1.225
1.225
1.225
1.22551
1.225
1.225
1.225
1.225
1.225
1.225
1.225
1.225
1.225
1.22537
1.22511
1.22502
1.225
1.225
1.22938
1.225
1.225
1.225
1.225
1.225
1.225
1.225
1.225
1.225
1.225
1.225
1.225
1.225
1.225
1.225
1.225
1.225
1.225
1.225
1.225
1.225
1.225
0.267752
0.403943
0.623899
1.6086
0.555102
0.801521
1.35496
0.544914
0.511673
1.49621
0.630736
2.70828
3.20593
0.679489
0.977248
2.40476
0.637494
0.595766
1.66959
1.81805
1.27231
3.26085
3.41332
1.22039
1.7224
2.54518
0.996623
1.02338
2.868
1.97964
1.23602
2.31738
3.38729
1.22977
1.27509
2.01252
2.57585
1.31488
1.29218
1.60119
2.44282
3.08293
2.38248
1.22501
1.18205
1.88914
3.29458
3.4596
1.22502
0.874189
2.41817
1.22734
1.22501
1.225
1.83878
3.28362
1.22502
1.22502
1.225
1.22709
1.225
1.225
1.225
2.66549
1.43299
1.225
1.225
1.225
1.22685
1.225
1.225
1.225
1.225
0.522762
0.576266
0.714372
0.560071
0.610765
0.574093
0.792679
0.611506
0.656151
0.516722
0.568991
0.516467
0.593255
0.551745
0.669198
0.624999
0.875229
0.61687
0.858906
0.581971
0.879449
0.759918
0.690758
1.11014
0.995119
1.15176
1.27869
1.16526
1.4588
1.58204
1.04231
1.20109
1.81095
2.26224
1.51945
1.49961
0.973642
1.16697
1.42721
0.849587
1.43848
1.15253
1.17807
1.006
1.19806
0.996362
1.39985
1.80788
1.28704
1.62584
1.67889
2.559
1.55952
2.01453
2.48432
1.68474
1.78465
2.85294
3.35286
2.07741
2.09747
1.18399
0.995114
1.38777
1.59649
1.53634
1.96103
2.01352
0.781147
1.14763
1.22032
0.566533
0.553575
0.575313
0.8725
0.658574
0.695727
1.04648
1.35206
0.916376
0.938302
0.650987
0.700075
0.708664
0.990219
1.13126
1.11947
1.40616
1.40371
1.53719
1.56651
1.76567
1.73132
1.55958
1.00402
1.42267
1.55533
1.79956
1.29892
1.74979
2.97907
1.58175
1.89175
2.99482
3.87658
1.93759
2.25645
3.6021
2.11606
2.28478
3.67444
1.55222
2.47941
2.09344
0.97749
0.967754
0.519954
0.531685
0.528975
0.545818
0.576368
0.544014
0.615649
0.561939
0.585304
0.569166
0.571181
0.594641
0.606126
0.629685
0.58253
0.61709
0.634421
0.585588
0.607344
0.660779
0.52568
0.539518
0.566239
0.61128
0.586723
0.266529
0.532345
0.523753
0.393418
0.504668
0.380789
0.276013
0.627741
0.691827
0.698696
0.774595
0.898815
0.787147
0.681715
0.762479
0.307186
0.554432
0.411613
0.625923
0.289483
0.599112
0.436403
0.780631
0.877264
0.783747
1.09632
1.035
0.935474
1.13576
0.957016
1.19292
1.06735
1.13938
1.04118
1.16372
1.26272
1.04262
1.12457
1.27682
1.24689
1.29376
1.5338
1.36557
1.36263
1.21269
1.402
1.35914
1.10845
1.06673
1.18908
1.1755
1.28177
1.21687
1.54864
1.35183
1.64523
1.53655
1.46498
1.37643
1.72936
0.92828
1.10937
1.05806
1.04109
1.26463
1.12455
1.26251
1.3568
1.20216
0.425473
0.827414
0.555164
0.95038
0.388751
0.93275
0.610238
1.28037
1.41095
1.26132
1.13658
1.16698
1.07534
1.27043
1.06145
1.25955
1.15046
1.07682
1.0148
1.11641
1.08541
1.13799
1.20103
1.34186
1.44026
1.2513
1.34276
1.20747
1.27935
1.54987
1.28309
1.40269
1.39706
1.41556
1.39683
1.53181
1.70699
1.70152
1.52123
1.78207
1.55765
1.86081
1.66543
1.6734
1.48539
1.61657
1.726
1.50192
1.63546
1.80297
1.84705
1.91663
2.16717
1.88453
2.01302
1.78579
1.99307
2.05984
1.81824
1.69275
1.8436
1.89971
1.9843
1.84083
2.20098
1.98344
2.28252
2.08607
2.14211
1.96989
2.32969
1.08055
1.27476
1.15278
1.11417
1.07814
1.33878
1.24563
1.20204
1.51433
1.76558
1.66544
1.48297
1.68819
1.63159
1.89463
1.83197
1.77421
1.89741
2.0199
1.87566
0.683718
0.698851
0.529468
0.86447
0.475294
0.774294
0.757549
1.09205
0.26283
0.488307
0.372295
0.523686
0.495769
0.375632
0.260798
0.329402
0.685012
0.735367
0.50786
0.65902
0.468363
0.356655
0.534877
0.496325
0.698444
0.521311
0.592291
0.524021
0.786655
1.35298
0.77424
0.922642
0.888501
1.48431
0.795257
0.948317
1.61566
0.868361
1.23504
1.49519
2.1511
1.02246
1.49029
1.13469
1.02453
1.03906
1.24517
1.14611
1.2944
2.17868
1.25847
1.66474
1.96315
3.01014
1.87281
2.50439
2.32862
1.23979
1.59191
2.36491
2.95023
1.36268
2.0596
1.87118
1.24458
1.86356
1.92714
3.05632
1.67195
2.82355
3.83044
2.11931
2.83537
3.48677
3.75373
3.29667
4.05638
3.15183
1.71491
2.32449
3.43551
2.46691
2.18287
2.64523
0.668297
0.678283
0.725419
0.711165
0.741611
0.742362
0.785657
0.810886
0.958724
0.936007
0.836936
0.827609
1.0156
0.885873
0.81308
0.78038
0.876671
1.09203
1.4741
0.918207
1.41162
1.47129
2.80487
1.86708
1.27651
1.22505
1.6828
1.22533
1.78921
1.99585
1.56416
1.225
1.225
0.152192
0.186196
0.280558
0.362154
0.388395
0.373905
1.00894
0.31702
0.475264
0.315565
0.482276
0.4916
0.751019
0.555569
0.815365
0.571624
0.899475
0.811511
1.28279
0.754957
0.916522
2.33555
1.87333
1.1034
2.35402
2.2918
1.22516
1.225
1.225
1.225
1.225
1.47874
1.225
1.225
1.225
1.225
1.225
1.22501
1.225
1.225
1.225
1.225
1.225
1.225
1.225
1.225
1.225
1.225
1.225
1.225
1.225
1.225
1.225
1.225
0.293141
0.343178
0.274914
0.31007
0.399681
0.506064
0.386976
0.42734
0.525748
0.443496
0.344488
0.401176
0.444723
0.437817
0.446812
0.431081
0.664057
0.660345
0.627897
0.490719
0.784982
0.958201
0.713529
0.448047
0.660776
0.713107
0.84952
0.752481
0.786864
0.950436
1.07345
0.811995
0.753208
1.07838
0.433797
0.395697
0.441768
0.366925
0.424504
0.537353
0.553453
0.600061
0.642131
0.731436
0.872164
0.921518
0.992165
0.982946
1.04108
1.1864
0.305448
0.338817
0.302611
0.34954
0.345264
0.308881
0.299037
0.285486
0.3205
0.288648
0.316894
0.321947
0.366353
0.39552
0.358598
0.362042
0.325624
0.354757
0.435168
0.381822
0.432976
0.393845
0.388754
0.440554
0.427616
0.482388
0.479
0.48742
0.473958
0.451578
0.410285
0.439151
0.489309
0.40545
0.456437
0.485317
0.498086
0.534281
0.502409
0.531222
0.303811
0.351277
0.310111
0.321953
0.289899
0.367928
0.360028
0.327028
0.477778
0.486526
0.411799
0.489675
0.457292
0.532337
0.501173
0.418112
0.365379
0.361262
0.422777
0.460699
0.44306
0.405094
0.508141
0.401103
0.504953
0.464852
0.481753
0.559517
0.486136
0.555224
0.527891
0.578257
0.658887
0.609022
0.576026
0.531447
0.605802
0.599542
0.487275
0.537206
0.552932
0.534249
0.550948
0.60032
0.649062
0.583051
0.581429
0.647874
0.678378
0.626629
0.714479
0.768434
0.625934
0.67672
0.773632
0.731758
0.822088
0.726537
0.834393
0.406415
0.509241
0.466279
0.560812
0.487508
0.579076
0.609955
0.532531
0.580878
0.645067
0.626733
0.766607
0.67572
0.816657
0.722865
0.721759
0.640438
0.635523
0.728537
0.784729
0.75095
0.695466
0.85448
0.69157
0.851828
0.790461
0.809358
0.905399
0.819242
0.892512
0.881073
0.963225
1.06484
0.987065
0.957861
0.889729
0.975213
1.00741
0.81437
0.874398
0.921939
0.884079
0.925087
0.994233
0.696787
0.856173
0.793005
0.909928
0.823696
0.966264
0.992967
0.894286
1.0268
0.979884
0.965621
1.04114
0.254016
0.241704
0.274709
0.219156
0.361757
0.267961
0.302502
0.372917
0.347323
0.451588
0.394692
0.487806
0.420844
0.479785
0.435771
0.314156
0.437282
0.441391
0.669023
0.434661
0.669674
0.589941
0.481321
0.72027
0.737566
0.989648
0.815701
0.842568
0.735631
0.566396
0.845975
0.660191
0.926473
0.692151
0.932885
0.925328
1.07774
0.881036
1.10896
1.01507
1.32038
0.992942
1.25692
0.710323
1.86106
2.57213
1.26069
1.24594
1.22502
1.225
1.225
1.225
0.856198
0.592464
0.682051
0.690494
0.809879
0.63372
0.506337
0.534091
0.519298
0.368896
0.3886
0.48716
0.736943
0.566996
0.604478
0.557091
0.44039
0.412585
0.600387
0.975641
0.966898
0.966688
0.630911
0.93252
0.56587
0.566706
0.389486
0.620053
0.62776
0.428735
0.696987
0.258261
0.234467
0.329036
0.58849
0.892873
0.233719
0.284975
0.286411
0.327382
0.511156
0.512674
0.586669
0.827012
0.83049
0.827686
0.806624
0.903542
0.88877
0.890944
0.807814
0.886375
0.267084
0.241048
0.273373
0.383646
0.670725
0.940364
0.935254
0.845979
1.19075
0.269715
0.231317
0.266078
0.24024
0.237875
0.272474
0.26319
0.255214
0.281607
0.252436
0.256286
0.323347
0.381736
0.376991
0.441826
0.506453
0.437149
0.443421
0.581526
0.667773
0.661145
0.750259
0.815374
0.741061
0.75443
0.7528
0.795861
0.725638
0.848563
0.717509
0.837442
0.760504
0.777521
0.874259
0.906292
0.792457
0.867645
0.780604
0.810564
0.878021
0.941706
0.928283
0.726397
0.846657
0.758448
0.864154
0.788921
0.770567
0.192339
0.205334
0.212895
0.252024
0.20597
0.253393
0.279257
0.291353
0.387144
0.46415
0.29304
0.465798
0.519428
0.534444
0.71815
0.751577
0.536216
0.754143
0.184644
0.203121
0.180506
0.211815
0.209622
0.186822
0.178314
0.195844
0.225139
0.248917
0.221691
0.222602
0.198243
0.218864
0.181117
0.212574
0.187554
0.226076
0.222931
0.199093
0.300365
0.287536
0.25743
0.342226
0.2539
0.33766
0.304664
0.353998
0.399024
0.459476
0.419373
0.394413
0.358424
0.41486
0.259068
0.344218
0.306614
0.400743
0.421086
0.360203
0.547061
0.529581
0.484562
0.608673
0.480026
0.602859
0.552106
0.6127
0.683384
0.742006
0.678612
0.675672
0.61898
0.671157
0.486287
0.611253
0.554299
0.686857
0.680366
0.621605
0.777973
0.479648
0.356207
0.573806
0.327705
0.524229
0.519552
0.301036
0.553244
0.416963
0.318294
0.440051
0.653047
0.43173
0.53013
0.598931
0.47419
0.541488
0.63486
0.709794
0.879606
0.352046
0.313472
0.371143
0.327383
0.381176
0.345398
0.405988
0.387351
0.452537
0.41543
0.449577
0.418318
0.451927
0.490012
0.194674
0.171607
0.181312
0.224072
0.199099
0.209532
0.215395
0.300931
0.173292
0.350401
0.458425
0.328231
0.251501
0.380979
0.199101
0.205502
0.198925
0.18051
0.167346
0.174029
0.174069
0.381918
0.35599
0.423446
0.317793
0.379744
0.353474
0.418816
0.494481
0.541345
0.485032
0.478351
0.432529
0.473749
0.520607
0.445356
0.486629
0.521463
0.479985
0.525406
0.511333
0.561781
0.210333
0.257868
0.261055
0.250982
0.292666
0.241281
0.296457
0.248653
0.211079
0.218189
0.199522
0.207174
0.23723
0.229708
0.218492
0.240128
0.244718
0.191822
0.210174
0.18616
0.214864
0.588277
0.589608
0.637645
0.518662
0.559802
0.562071
0.604492
0.315254
0.380502
0.376657
0.420785
0.356005
0.354883
0.423622
1.29132
0.829292
0.923405
0.564397
0.937946
0.71648
1.02556
0.438682
0.501635
0.502973
0.486938
0.552056
0.488272
0.555147
0.254659
0.226757
0.275885
0.266138
0.238079
0.285757
0.245437
0.235647
0.227733
0.268548
0.264642
0.303893
0.259937
0.300147
0.502125
0.585997
0.554869
0.575017
0.542044
0.596762
0.630498
0.251161
0.257911
0.26488
0.220264
0.227052
0.233561
0.226927
0.169506
0.186909
0.204807
0.158374
0.175747
0.215195
0.197513
0.351474
0.445628
0.411651
0.405001
0.375973
0.442299
0.480572
0.396754
0.501112
0.636157
0.571645
0.983693
0.720935
0.468168
0.563036
0.607766
0.62094
0.678747
0.607992
0.618403
0.661784
0.283026
0.329861
0.332807
0.291555
0.295392
0.24527
0.249461
0.503703
0.492932
0.455698
0.493332
0.59069
0.541108
0.53519
0.281527
0.309918
0.31687
0.269144
0.294572
0.3026
0.261504
0.283743
0.302459
0.327531
0.3691
0.272269
0.316709
0.332685
0.389675
0.451532
0.454578
0.40625
0.345487
0.409832
0.34899
0.678043
0.731293
0.685836
0.636111
0.599742
0.645886
0.684494
0.280791
0.242505
0.248132
0.272761
0.277238
0.307916
0.312361
0.314252
0.372868
0.370674
0.353339
0.413921
0.416875
0.353795
0.394132
0.512189
0.467046
0.422483
0.388517
0.459423
0.501643
0.272242
0.266523
0.287381
0.220059
0.236986
0.252466
0.235582
1.17866
0.898717
0.697459
1.12428
0.787843
0.990008
1.21134
0.431979
0.501275
0.499879
0.552042
0.479337
0.482906
0.554081
0.596219
0.524224
0.588823
0.534887
0.470254
0.541194
0.474856
0.586062
0.593693
0.533545
0.51902
0.626205
0.569228
0.569308
0.528416
0.635243
0.573593
0.644935
0.565034
0.613063
0.680781
1.22839
1.55057
1.18117
0.735726
1.20101
0.881891
1.64497
0.219383
0.337195
0.255632
0.312508
0.225687
0.266488
0.353158
0.348231
0.306545
0.306508
0.293217
0.319458
0.316875
0.337587
0.380292
0.339174
0.341188
0.293771
0.375084
0.328821
0.337093
0.46669
0.395733
0.437088
0.515318
0.395584
0.468605
0.514533
0.568748
0.6303
0.638217
0.625403
0.699397
0.690661
0.623181
0.677974
0.710336
0.733917
0.7384
0.768965
0.716126
0.797955
0.765098
0.644864
0.6954
0.675425
0.613428
0.658407
0.725132
0.618745
0.615686
0.661409
0.620247
0.669619
0.68926
0.724788
0.285096
0.291728
0.29971
0.322124
0.331727
0.328767
0.338318
0.53815
0.592566
0.607503
0.674619
0.538529
0.592738
0.612115
0.310077
0.407774
0.332246
0.362519
0.285113
0.30169
0.384114
0.318835
0.37024
0.372349
0.41409
0.354159
0.356932
0.412784
0.731187
0.666825
0.656237
0.652922
0.66275
0.596866
0.605381
0.756203
0.77415
0.823407
0.670308
0.710496
0.723761
0.774138
0.401706
0.481111
0.444596
0.18894
0.384134
0.485968
0.35212
0.645373
0.693275
0.602214
0.651348
0.778182
0.726833
0.690701
0.381769
0.331305
0.426226
0.405183
0.35882
0.349341
0.4409
0.79787
0.82271
0.745019
0.667258
0.751201
0.680616
0.723969
0.164566
0.192425
0.182549
0.224915
0.217
0.235651
0.207024
0.316596
0.38528
0.348102
0.345403
0.390422
0.355791
0.350027
0.387306
0.354511
0.394756
0.373346
0.328817
0.337235
0.36465
0.487026
0.432699
0.521554
0.423557
0.460062
0.539624
0.56673
0.432808
0.499677
0.502016
0.478372
0.550917
0.477676
0.551963
0.394439
0.507503
0.459484
0.462994
0.437287
0.394894
0.511365
0.769643
0.752498
0.705555
0.841576
0.771519
0.756113
0.821119
0.822057
0.796313
0.746683
0.702707
0.826843
0.775296
0.745545
0.796859
0.830654
0.784748
0.908924
0.818094
0.854205
0.868811
0.312936
0.292326
0.307456
0.266953
0.264728
0.282033
0.250042
0.56754
0.660815
0.59729
0.741904
0.648288
0.664503
0.750434
0.503248
0.558461
0.605576
0.45507
0.545467
0.486365
0.590852
0.653869
0.57624
0.645769
0.714377
0.627302
0.630896
0.706519
0.377712
0.463212
0.418439
0.401528
0.413657
0.364657
0.452976
0.583577
0.608386
0.52975
0.534144
0.673905
0.588787
0.611464
0.81572
0.770812
0.784282
0.738564
0.699572
0.709097
0.746408
0.327734
0.246249
0.23356
0.276737
0.386949
0.288529
0.368874
0.359875
0.414477
0.403529
0.380306
0.33258
0.345554
0.369535
0.861188
0.965186
0.892533
0.808506
0.838908
0.781594
0.873074
0.935562
0.811518
0.810086
0.694514
0.722092
0.790438
0.805369
0.426017
0.405302
0.373559
0.368983
0.412465
0.380517
0.418547
0.614002
0.513866
0.47874
0.563423
0.520247
0.612435
0.563771
0.457876
0.394951
0.439672
0.504605
0.397209
0.457692
0.503574
0.838432
0.757227
0.687784
0.767876
0.759194
0.756985
0.686382
1.25713
0.879397
1.22662
0.899275
0.905944
1.26762
1.64316
0.374074
0.433142
0.353048
0.316894
0.424919
0.3325
0.4044
0.798105
0.643048
0.704545
0.693512
0.625241
0.68752
0.773438
0.717948
0.757708
0.775298
0.82566
0.82814
0.907317
0.904902
1.20584
1.37579
2.04397
1.60065
2.26824
2.1992
1.17342
1.95195
1.94102
1.64011
1.92948
1.41669
1.18207
1.87193
0.834766
0.781264
0.927037
0.715915
0.78532
0.827902
0.915579
0.705989
0.846557
0.741318
0.938077
0.794033
0.814881
0.94237
0.802801
0.730936
0.718583
0.878692
0.860605
0.798347
0.785081
0.858212
0.828201
0.808161
0.908167
0.971475
0.94294
0.883417
0.973021
0.874441
0.836476
0.807777
0.889217
0.764646
0.842984
0.443817
0.388895
0.47208
0.433565
0.432677
0.398261
0.479658
0.412969
0.448381
0.513259
0.41433
0.456855
0.385562
0.476492
0.94324
0.846841
0.91009
0.889563
0.793665
0.858792
0.974992
0.881579
0.851907
0.961443
0.752632
0.811324
0.850292
0.9261
1.31156
0.783988
0.769011
1.06042
0.611543
0.608449
1.09277
0.526126
0.578843
0.605432
0.66022
0.526946
0.576176
0.604501
0.442195
0.482624
0.4738
0.429312
0.43714
0.411044
0.402157
0.526856
0.557296
0.609096
0.612434
0.48039
0.524181
0.561247
0.813497
0.818396
0.712554
0.650399
0.743301
0.711859
0.65096
1.01953
0.923149
0.995851
0.916478
0.846053
0.829504
0.900316
0.457807
0.522592
0.489104
0.672577
0.602849
0.618114
0.676544
0.209778
0.230624