/*--------------------------------*- C++ -*----------------------------------*\
  =========                 |
  \\      /  F ield         | OpenFOAM: The Open Source CFD Toolbox
   \\    /   O peration     | Website:  https://openfoam.org
    \\  /    A nd           | Version:  9
     \\/     M anipulation  |
\*---------------------------------------------------------------------------*/
FoamFile
{
    format      ascii;
    class       volScalarField;
    location    "0.0028";
    object      rhoE;
}
// * * * * * * * * * * * * * * * * * * * * * * * * * * * * * * * * * * * * * //

dimensions      [1 -1 -2 0 0 0 0];

internalField   nonuniform List<scalar> 
26330
(
425310
392986
420624
393337
489610
401854
583621
391057
339289
320676
372236
432195
369016
445877
451446
365017
385953
418538
464745
341170
380713
337717
348655
347583
355955
355238
365521
365480
317140
361796
435669
379792
456024
410521
522921
475130
336198
382439
464259
545414
357760
421695
363530
370193
369430
384192
383832
389779
389213
329071
335021
340495
342231
348099
359997
357255
353316
352116
360899
365001
374740
382692
376631
359667
373062
359333
377890
389729
392298
376741
395126
373827
374311
385219
403312
406930
383607
377142
387298
377284
397985
405279
408624
396187
439364
458828
555185
458413
543501
533028
585901
320844
333045
340172
338449
345366
357032
364074
565921
374162
443651
593597
631634
462389
551493
391429
365672
368764
381461
407275
404978
381295
351159
369056
353763
374028
392326
390196
373940
499820
476197
463439
425383
490438
548702
497705
615671
404282
428159
405279
411469
430542
434869
409197
382641
365406
370641
393061
406383
405795
390509
338288
349539
361926
353678
365784
375942
382070
406325
429182
389575
372690
392546
411894
450741
422199
390795
397663
406245
431451
431514
403100
398312
416213
409358
437278
413676
421040
395328
347503
328406
341504
368997
354549
375127
391157
358047
371030
351008
396967
375997
384865
407932
365477
402649
372508
412198
383384
392415
423841
364905
390760
371145
410740
392315
400654
421544
396417
425464
439277
417846
413408
420860
398597
420385
439131
426640
456766
444353
431826
416467
344936
376322
362126
388742
374222
392789
409166
389941
429496
395988
436526
404988
413484
448207
379558
378962
357942
386961
409713
410922
435365
620081
560061
468909
632257
582425
557680
669151
417215
458778
446843
434119
443563
430835
417462
463302
448271
436978
502256
471689
458844
487759
509082
434933
476569
448441
410120
435307
476982
456786
416566
445606
471324
519309
438820
481571
384732
392786
368913
398111
443878
423565
416077
396031
394208
407136
417431
431540
429440
455594
432968
425124
403294
414531
472928
438937
447295
429781
465610
405550
476193
438620
466236
506451
416749
400245
383856
406010
461870
440454
424368
403676
397638
381672
413836
458233
437337
432300
454536
441361
422136
433296
492372
469094
455384
443936
424109
407091
427127
488298
465463
446355
424647
487531
447594
507040
463786
489908
535942
432149
428247
404228
468425
438051
464722
498125
533626
517025
485240
552859
571286
533638
517247
509320
532810
494878
564308
581902
538698
522490
440850
468687
443244
472789
472756
501220
503862
538902
548783
597068
502158
554476
465581
511822
430585
490831
495385
481154
457605
466592
451350
420402
487540
445599
487721
446816
474261
519425
417326
470909
442260
483653
454932
483396
515144
445429
522434
473375
516575
470075
500358
552361
449667
516103
515314
499245
489515
474701
471349
491040
458163
496650
498185
582609
534911
541746
253245
253245
253245
253245
253245
253245
253245
253325
253245
253245
253245
253245
253245
253245
271140
253255
253245
253245
253245
253245
253245
1.25805e+06
595409
254294
253247
253245
253245
253245
798823
1.10939e+06
1.29828e+06
276266
253250
253245
253245
538468
642313
865540
1.36875e+06
332737
253250
253245
467311
577031
811400
1.36894e+06
284003
253247
443325
573110
853529
1.33242e+06
255016
498777
723208
1.3256e+06
257840
253245
253245
253245
253245
253245
253245
253245
253245
253245
253245
253245
253245
253245
253245
253406
253247
253245
253245
253245
253245
253245
1.12221e+06
323731
253385
253246
253245
253245
253245
895075
1.28067e+06
1.12718e+06
256358
253247
253245
253245
578298
710589
972203
1.36888e+06
263773
253246
253245
498527
634579
900307
1.3769e+06
257483
253246
439277
630132
953806
1.20196e+06
253493
536634
802554
1.04882e+06
253309
253245
253245
253245
253245
253245
253245
253245
253245
253245
253245
253245
253245
253245
253245
253246
253245
253245
253245
253245
253245
253245
313260
253699
253247
253245
253245
253245
253245
1.32886e+06
1.29767e+06
296237
253263
253245
253245
253245
739881
913126
1.39208e+06
650326
253303
253245
253245
604942
821294
1.25562e+06
701508
253270
253245
575284
651095
1.36273e+06
330840
253247
657484
752624
256394
253246
253245
253245
253245
253245
253245
253245
253245
253245
253245
253245
253245
253245
253245
253245
253245
253245
253245
253245
253245
253245
253245
253249
253246
253245
253245
253245
253245
253245
732765
260748
253260
253245
253245
253245
253245
796272
1.0758e+06
559298
253413
253245
253245
253245
665077
734658
920804
935720
253452
253245
253245
593711
792600
971170
666856
253272
253245
614233
713699
1.30705e+06
253247
253245
253245
253245
253245
253245
253245
253245
253245
253245
253245
253245
253245
253245
253245
253245
253245
253245
253245
253245
253245
253245
253245
253245
253245
253245
253245
253245
253245
253245
253251
253247
253245
253245
253245
253245
253245
575395
258496
253260
253245
253245
253245
253245
953232
868348
339099
253304
253245
253245
253245
544578
691879
823283
364693
253268
253245
253245
742466
961810
253249
253245
253245
253245
253245
253245
253245
253245
253245
253245
253245
253245
253245
253245
253245
253245
253245
253245
253245
253245
253245
253245
253245
253245
253245
253245
253245
253245
253245
253245
253245
253245
253245
253245
253245
253245
253245
253245
253259
253247
253245
253245
253245
253245
253245
644097
257974
253253
253245
253245
253245
253245
637482
786984
862921
253255
253245
253245
253245
947856
936018
609297
253245
253245
253245
253245
253245
253245
253245
253245
253245
253245
253245
253245
253245
253245
253245
253245
253245
253245
253245
253245
253245
253245
253245
253245
253245
253245
253245
253245
253245
253245
253245
253245
253245
253245
253245
253245
253245
253245
253245
253245
253245
253245
253245
253245
253245
253254
253247
253245
253245
253245
253245
253245
395775
254507
253249
253245
253245
253245
253245
895921
341720
253302
253245
253245
253245
253245
253245
253245
253245
253245
253245
253245
253245
253245
253245
253245
253245
253245
253245
253245
253245
253245
253245
253245
253245
253245
253245
253245
253245
253245
253245
253245
253245
253245
253245
253245
253245
253245
253245
253245
253245
253245
253245
253245
253245
253245
253245
253245
253245
253245
253245
253245
253245
253245
253247
253245
253245
253245
253245
253245
253245
253247
253247
253245
253245
253245
253245
253245
253245
253245
253245
253245
253245
253245
253245
253245
253245
253245
253245
253245
253245
253245
253245
253245
253245
253245
253245
253245
253245
253245
253245
253245
253245
253245
253245
253245
253245
253245
253245
253245
253245
253245
253245
253245
253245
253245
253245
253245
253245
253245
253245
253245
253245
253245
253245
253245
253245
253245
253245
253245
253245
253245
253245
253245
253245
253245
253245
253245
253245
253245
253245
253245
253245
253245
253245
253245
253245
253245
253245
253245
253245
253245
253245
253245
253245
253245
253245
253245
253245
253245
253245
253245
253245
253245
253245
253245
253245
253245
253245
253245
253245
253245
253245
253245
253245
253245
253245
253245
253245
253245
253245
253245
253245
253245
253245
253245
253245
253245
253245
253245
253245
253245
253245
253245
253245
253245
253245
253245
253245
253245
253245
541242
396698
445669
485478
571420
397939
462358
531289
388751
451148
460048
560589
388545
468934
520709
413893
418497
458640
572379
477255
606175
607071
447791
480057
561030
643846
448404
499105
386330
402482
404785
406248
408736
426986
422580
591874
402117
474513
578974
706379
448550
548452
403879
472201
580609
481707
545645
691218
514172
399540
409821
414242
416958
421797
437241
431981
423818
572494
475800
490519
629106
569944
755542
386489
410059
412721
405914
408416
429107
435287
396944
416988
413358
424242
420843
438564
444444
418081
425610
430863
437829
443143
457265
451703
668773
453906
508573
686364
806472
535671
597654
497282
664310
615816
596340
696304
676548
1.00708e+06
531913
653948
727462
644860
694541
711838
1.06413e+06
580363
596052
458511
671523
904961
497863
567028
416140
435620
430812
448553
443523
459954
467117
452323
454715
459555
473302
477684
487402
482372
707784
539703
612370
903540
1.17941e+06
637751
712847
737033
468797
568821
611504
785875
489669
602436
421349
448028
425680
448131
467770
472989
443434
426105
450623
431014
455708
472376
477949
450351
448714
462517
459247
481330
478023
490638
497045
393102
417107
419876
430335
433318
444883
460970
762981
480292
608173
607218
813511
492306
646086
426268
456384
430919
450949
473546
479073
446099
412727
423823
431211
437077
444759
454008
470224
793786
499137
586865
683481
848360
511873
622373
440392
473053
445758
463138
487307
493353
457496
452108
433770
427716
452361
488696
478859
460390
460578
439304
432921
455190
495170
485086
463344
440586
464320
446010
474809
489815
496018
468843
504551
465710
471317
488102
518625
525004
482115
770987
538632
553290
628684
888995
668676
958191
477314
453175
447305
467010
509615
499513
474963
454460
438331
432376
459427
493460
483692
467315
436077
443572
457208
458564
472950
478502
496863
455089
468616
448227
479461
513168
502431
488487
465361
485725
470570
501515
514293
520316
496058
993393
583067
670994
855116
1.09094e+06
613027
714585
502689
543575
507266
520691
555785
561976
515463
492799
581468
744047
584458
676429
998681
631711
510570
482198
474679
493367
544518
532531
502877
490580
479323
473192
507031
538723
527584
516019
466380
470793
490333
486125
506778
509004
528466
816413
504430
625058
761284
984405
589179
748642
419218
471306
474699
448387
451585
482401
508827
845229
541269
671334
755225
1.03027e+06
608096
807511
761314
550876
584562
724872
1.0447e+06
591398
628841
428165
478447
455258
487076
463354
492107
519142
443228
490743
459173
503487
472634
491280
525123
449124
501157
465514
510395
475788
494737
532683
548410
464805
511046
500909
553368
537966
596352
480815
493077
455291
480388
518468
491970
520079
883717
562756
646074
857793
1.10937e+06
634242
776240
463102
518655
479714
525174
487523
506909
548239
571312
637389
718345
608057
814874
710865
1.18992e+06
484348
511738
503775
548967
518386
510211
478484
474654
496722
499967
538554
502783
506172
469371
550486
518201
511243
526883
583365
570528
536522
447749
493142
463742
508306
479581
498476
530169
474108
498642
496277
504858
502339
537337
530068
453489
504016
478782
521067
494470
521603
551663
465784
510630
483303
529477
502411
523473
553370
480923
510846
565730
524241
583012
558849
622273
486171
505973
512478
514898
521722
552750
544855
494471
560611
514023
562816
517681
540050
589648
991165
614785
699198
695169
1.00905e+06
836995
1.32051e+06
874805
579282
690853
1.07301e+06
1.37175e+06
701617
792408
490198
557794
537924
529242
526030
517577
500058
480605
547124
521728
525341
510075
513556
490533
508820
542906
527077
581049
534167
550235
502465
479896
523690
521164
512106
509576
545827
559186
505212
522797
529597
537326
544243
573993
565770
520799
574104
612860
559619
524593
478010
509128
533953
490413
512852
555920
530688
553169
581401
597310
564188
510743
571175
603862
634186
671187
502646
532009
520012
541881
529521
561697
575659
517099
569411
608252
555201
505582
474464
520204
508018
509601
485001
560795
530486
555500
589283
522421
550016
537685
565886
552902
583798
598481
509467
555693
595129
555162
519958
476410
506891
560882
624950
662452
565937
599198
510530
540078
515721
572687
590935
555314
542396
559027
527014
539113
578476
555723
616077
585950
562831
533067
515442
506689
480416
516133
588087
553565
546419
558422
487341
527080
519992
597485
561958
550651
535823
502466
463555
498775
531744
540337
577983
591319
548291
552729
507610
509878
539452
544351
667018
595903
646795
602048
621163
573924
555785
574479
540248
535095
501866
499095
535001
540173
1.16635e+06
634906
743033
1.18076e+06
1.38761e+06
763223
901799
531221
604853
552379
603325
552326
576600
632993
539741
507741
509996
584308
548804
553110
591854
745173
671031
584856
683549
1.07153e+06
957393
721684
862299
634445
689172
718330
951367
1.10755e+06
608552
555903
546799
515144
537476
621136
581991
572188
530272
545729
502343
532976
616234
578833
564808
518049
511682
485174
523829
594120
559001
554746
539099
542950
505481
527323
609064
564038
568247
574043
595768
555396
621579
601622
646656
667494
545066
562897
570517
587630
595689
627588
617865
526076
541038
538453
566015
563282
579055
607290
503601
515828
473281
506467
540337
551614
590953
624177
580741
529141
586155
546908
497909
531187
516781
521091
482268
484447
453486
488427
522604
647072
536139
582155
632381
581626
646697
703874
691134
771428
830318
1.18936e+06
1.14348e+06
1.16022e+06
1.18113e+06
632109
594987
578340
632321
648246
672287
689878
624645
803399
609348
750537
839374
867661
355102
546991
627217
610705
585923
595858
572100
558864
535300
537530
506722
551595
622989
584833
585566
518308
550003
560485
575908
587289
596604
626437
1.27252e+06
629827
815585
928711
1.34648e+06
669944
870361
534114
586136
541581
579611
620642
631390
570785
1.23233e+06
617443
833618
865617
1.32315e+06
656268
890322
536497
581999
544025
590147
624549
635419
580909
815239
1.26213e+06
768881
1.24705e+06
1.09004e+06
829495
1.15848e+06
1.14901e+06
634724
721796
882220
402994
779159
958582
792007
945648
548759
741533
310906
915089
859479
544505
665658
605047
642689
586273
652830
717060
606482
587848
546345
644997
598948
667529
718620
533606
612567
562270
583942
534380
566008
620801
468200
529434
496187
542712
508130
539350
579314
529122
577487
536295
576695
614403
624834
568024
566146
594532
579949
621534
605844
638792
656045
536393
592649
534365
502863
553175
587396
630948
593298
574778
544183
569355
661720
602825
623008
564929
533696
562465
583717
657584
615586
621374
622654
671789
655836
700620
686290
724005
742239
551663
596321
559643
610532
643277
654920
600685
589617
606217
614267
639748
648738
680389
669531
538668
568683
585529
595802
614064
620581
652241
1.35316e+06
671959
977384
913475
1.37291e+06
715991
1.06497e+06
528856
576924
629777
624117
572183
624284
683694
863419
888532
919217
1.22582e+06
1.39945e+06
1.21169e+06
816121
631202
540417
592592
569728
667972
625149
605791
616032
577084
639823
716231
682993
688150
763662
573502
635016
678366
685533
642062
712905
760615
596060
563605
550173
589354
659831
642427
604617
587200
558160
544791
586379
652938
635720
601577
556653
618404
564932
602151
651372
663358
592435
591812
566378
552729
600152
664078
646509
615847
629236
588757
574272
612483
693497
675048
628631
598947
640980
624914
677553
660226
692887
711649
640701
594908
644123
708118
657542
599507
544997
1.34769e+06
713512
899201
1.21565e+06
1.32753e+06
761138
968944
584056
653124
592581
629261
684772
697578
619002
908254
1.31272e+06
1.44818e+06
1.06368e+06
462873
1.07508e+06
1.25899e+06
628218
703673
746438
794061
707784
748580
843555
633238
606853
577277
604635
704191
665897
637271
606571
582904
568875
621295
684736
666571
637705
612162
569611
540195
597801
644598
630125
680934
1.08325e+06
630146
807100
1.173e+06
1.44221e+06
738380
1.12604e+06
765083
814130
1.14652e+06
872143
1.14533e+06
1.41891e+06
1.32273e+06
567007
659556
658361
646149
616391
605535
603043
556021
646152
636108
641322
596607
601272
590865
665252
618630
603043
640692
730086
710480
657953
592589
639507
601699
665959
697838
711257
654421
537996
624122
575361
628882
582290
624935
677208
546166
595373
639525
639368
586938
630045
688791
554557
638486
635165
598721
595754
644200
689075
543440
627631
581609
635822
591526
635607
685257
653153
595092
541575
637527
582692
639943
703919
585866
616590
645302
648347
679388
681945
718453
346672
378296
312536
375232
345783
435720
467669
367824
295469
320106
319232
356868
263772
296459
292599
302693
299850
311982
309005
315564
318447
356541
253704
291363
330677
389136
267798
312175
281070
272744
288048
280601
297154
304051
289929
408519
282322
327435
426089
503573
351539
402143
422626
330445
370084
373514
434774
311153
366483
310889
317486
308073
323444
334891
332739
326062
329014
344312
326152
332341
352115
350298
334899
333224
299051
314491
321550
329604
340559
308871
306906
283590
296557
312826
314680
323603
301321
252194
264492
271445
264218
270447
282851
283283
256274
280377
268832
286142
274744
288307
299958
340057
359104
350775
367615
358004
349438
342093
328244
345132
342138
343625
340551
356324
356961
301302
294865
300491
313901
319560
314559
333906
444169
307579
377138
414118
507597
354060
407508
277045
293864
278115
311157
296099
298045
314663
290990
313311
290774
325312
303078
304412
327844
330667
361332
342147
334852
349944
341760
320857
319216
329977
327647
336196
333253
350474
347277
556144
382085
437732
537105
691493
464161
538657
324339
365128
337269
371855
343234
358116
387695
361108
379277
360639
373832
390557
393060
373096
318805
306964
295466
310219
347533
334733
322217
300027
295112
283371
303991
334735
321863
316098
355379
370743
354674
370981
385309
387653
370352
339952
332854
317074
320066
362931
344402
337648
311479
328152
325806
333268
331158
347148
353929
538972
393390
455091
539033
682282
454657
488513
309805
347193
329107
350884
331306
351098
371505
374822
350840
354633
369520
391878
390520
368740
366603
346168
348917
366754
387174
385271
366381
321419
366059
340883
363738
337358
357295
384900
253300
260718
359274
282083
323749
301147
316956
356299
294153
347470
279837
295302
292881
290426
292904
302913
305443
244598
296043
296022
288965
347355
310372
380815
268507
267565
265097
278739
281351
291586
279930
275397
352713
398979
325721
423904
425226
455142
309150
321600
306730
316458
333123
331278
318789
304493
314385
301852
314052
328689
326521
316533
244625
259959
257613
258450
260613
273529
275333
283485
311553
295640
306202
314782
322585
296516
278743
303802
290356
303573
310053
317563
294198
249153
277263
275104
263506
265664
280990
292815
327551
343943
341753
355694
340209
342575
329596
294392
291912
289751
308836
311022
307643
327015
277036
298660
278609
311174
291345
294241
315202
272359
291825
274168
306396
288973
291944
310507
318711
330219
350030
327743
332998
335452
311283
343723
361764
332063
334323
317279
350893
379385
317307
284213
305048
300705
335844
322828
312947
291595
298185
279794
298405
330945
318070
310630
328267
325852
307590
311744
354348
331320
333759
330287
310863
332724
352186
328332
348215
372974
345456
325670
306391
347188
325977
345805
367796
396817
418222
405022
434814
445325
422417
464693
431678
408822
377795
383229
354333
372967
403293
393367
399996
370002
377882
349530
370397
400394
327115
373384
366977
360272
352896
346205
339951
392330
396363
365610
382714
447575
412150
414845
371826
381896
353033
375990
429994
397334
406994
389062
405060
402577
427064
409101
406415
386773
331748
339946
318870
355997
341946
364462
380097
354388
356960
365090
340230
342770
319372
332334
350637
383597
357224
396120
370534
379006
406677
352978
346064
368460
391658
368285
376872
402325
386604
428757
412176
409862
408331
405848
388287
384577
377756
356093
376878
432734
407071
399858
368510
371502
347936
373441
395372
399214
422944
393839
400083
371901
396633
374570
348625
369290
480389
415240
455294
469809
443862
488556
517800
451774
484452
470803
497446
483428
505321
520650
433077
519712
478478
492164
453696
501521
547324
379290
389952
363601
389596
437448
417503
407094
420442
426165
394117
457324
422608
452266
489754
490788
453287
420921
423985
458730
394979
427040
403222
463446
473236
463371
435760
427599
436985
419041
416825
392658
403244
460094
432184
429971
396361
383339
367696
391711
441981
421904
409291
422145
428993
398402
461641
428486
454554
490680
402573
462231
426412
466294
430721
456863
495869
521527
508829
478760
529715
620138
580579
563924
521582
583877
567645
546950
613936
597049
563715
509052
493938
521813
531760
582129
563541
548668
418391
481322
473089
470767
450184
447915
438317
528502
487280
451338
486712
572466
526478
527932
495529
494650
456197
489384
580219
532552
531354
500645
498156
462450
491618
576542
533877
531073
577398
672078
649464
632846
631647
613596
595423
527637
622805
627819
623431
574944
571485
574060
675452
612938
705360
753964
679603
636955
574171
1.36781e+06
681909
927503
1.11488e+06
1.3553e+06
818585
1.16741e+06
737242
934970
1.25674e+06
838023
1.4398e+06
1.34284e+06
1.22725e+06
666618
618560
563897
660723
602681
648424
713902
641266
619130
581975
609741
721805
672923
650802
578018
656934
606228
678404
624130
655903
713859
571458
650859
609789
665006
622425
665468
712729
653849
610409
569284
667736
625446
673565
720862
1.37946e+06
696262
905586
1.26418e+06
1.3113e+06
836759
1.12641e+06
583665
667191
612260
685636
627316
659331
721585
586758
662427
615752
690118
639299
672337
726312
721268
643569
698902
698912
788986
759176
721613
628417
650941
612225
678064
744036
724116
696728
635361
682637
645141
718239
748328
762850
705505
681169
618499
579602
643788
712693
686534
761408
577058
625497
632464
620182
674528
637910
695466
619933
673816
694830
624736
637276
576724
584594
520505
607297
562428
609789
667528
607321
562400
736843
648747
659358
698228
767687
783018
685725
1.3103e+06
816328
875326
1.05884e+06
1.19695e+06
1.16322e+06
1.06721e+06
602566
709230
704329
684296
639692
662096
642730
656138
742352
719223
705639
806721
774489
728548
705579
656379
675569
719011
804666
774025
740404
635771
651250
698827
603565
724425
666293
648877
612817
566962
528843
576072
681897
620417
624377
750272
689581
671253
710976
820407
797633
730552
604021
679614
634296
711759
662308
697084
749397
594900
675646
631722
698456
652016
693982
744717
667231
665337
703731
700385
741153
739754
779692
647771
594988
602750
649265
696473
664630
722253
628002
671332
683860
677263
690015
754590
739832
1.37342e+06
744400
1.13317e+06
1.22049e+06
1.11234e+06
896655
1.39669e+06
695435
674688
656950
731635
799087
777271
751718
610539
706778
641579
720918
652830
686933
758948
639630
649312
602630
707229
666476
721767
767495
640969
681821
694854
694503
708073
770255
754819
681779
612882
575934
624477
567236
528875
566880
1.29311e+06
791649
1.01974e+06
1.36944e+06
795576
969524
1.33561e+06
642037
748499
675461
759118
683742
720000
799589
610645
676649
732091
717883
648108
699371
778276
915482
1.42971e+06
1.11535e+06
906764
1.41025e+06
1.4016e+06
982106
656992
708823
728864
792009
817173
787354
886474
710350
767834
790916
739481
859498
822462
760887
763939
739999
694564
768896
864300
823810
795363
625989
673694
670122
751744
686357
682609
615490
647102
687730
702792
778619
700955
716647
635725
635798
707727
698113
769201
777393
759738
848025
530307
572245
627928
577663
668925
677493
753832
638941
715208
695940
721581
702178
767765
788739
641450
750467
761673
727083
709164
677738
686644
634636
758483
690516
706945
847303
776264
768823
660460
791329
733130
736982
888900
793901
819834
611174
597892
554558
590395
732591
655659
643183
636900
764927
717813
713934
698507
694686
654142
673667
734874
712024
810498
749719
726238
661459
653133
740079
690085
777072
723937
765682
822319
652757
732180
687242
773612
724535
763261
814899
744115
630993
667915
793339
706606
747798
842568
652249
726652
707156
740383
720605
783751
805065
673246
704074
645402
692417
755446
730805
796028
588201
605729
636058
655063
693930
721975
795179
684614
722927
737489
748620
763873
825419
808412
872979
923871
1.21737e+06
1.19495e+06
636034
1.00717e+06
1.29304e+06
710221
814179
722445
760908
847735
864632
746939
757508
796337
854518
796148
979855
904252
853584
860131
782555
761527
807871
986095
923607
840140
658402
792094
732815
749081
713231
729160
676319
682612
688385
631988
680639
805321
737159
743565
743366
680156
621328
677215
812471
736410
744133
692809
693988
764909
682974
829066
749460
751156
707939
694118
645843
696803
825695
766519
750659
689986
680641
748874
690160
825574
746082
761055
678800
685420
681627
736168
741873
740614
803236
1.3804e+06
827176
993056
1.20897e+06
494442
1.30287e+06
1.46043e+06
663826
807498
719798
779654
699676
760170
853883
799865
763199
803796
857059
908751
862323
985017
685891
825192
784251
759398
763301
739176
704699
830106
755524
735677
775155
911881
882632
796869
709736
695277
649690
701081
823520
767929
751703
698392
687722
643017
697284
814395
759559
747465
656616
808978
727360
705501
872406
780668
780695
696843
770880
750434
798841
777524
840385
864225
717067
848004
755687
855505
759789
800878
906736
1.31959e+06
916736
1.19847e+06
1.23606e+06
936644
1.39719e+06
330661
702018
698999
714753
755474
767714
773275
831962
704433
699513
653601
715313
828490
772862
767072
723353
722725
674150
742361
856278
797820
796974
786311
730575
662098
734402
880432
787758
816714
701230
782945
738715
832377
781932
825290
881026
710473
802622
746491
852436
790496
832736
901012
727092
763639
779139
799823
816097
881613
863590
717605
743422
749988
782110
788932
819291
861442
681018
727407
752994
788930
804094
818693
876714
743628
821628
780722
907446
796748
838547
729326
752642
731271
682198
731212
866487
807742
784359
763779
736171
689796
745971
888465
797757
829914
732918
755296
769533
794646
809796
836524
880775
671319
735757
771549
819015
736236
772010
876941
965045
1.15203e+06
695480
1.15333e+06
434089
253889
372874
780151
682077
704610
837825
756959
798775
900202
757206
880952
926634
834454
811480
854961
778120
746125
742121
679663
715227
858546
785005
780800
761603
778445
702960
739969
890072
801144
819010
797602
772553
719384
767048
919453
852490
823799
847761
756552
709686
794370
970176
847605
900421
740690
815859
793651
856597
831998
899880
929101
724826
904638
1.36503e+06
1.37716e+06
479069
970637
1.38222e+06
735787
827952
750412
829561
903045
921261
812996
847666
907003
915640
973866
1.06972e+06
982386
1.16264e+06
762809
879385
890035
832825
841906
930653
1.00572e+06
1.14211e+06
565520
1.15569e+06
292660
253603
946005
411553
940411
924784
384179
267796
253384
750508
276414
634284
788883
812959
779320
712862
690045
701568
807209
909643
846833
1.01429e+06
928259
864053
791577
815516
789318
732640
771474
935539
859920
831083
802323
806017
915197
765614
986826
859978
858319
785704
779827
732098
813188
937597
868908
874409
612450
669305
749196
758910
676036
749824
860420
759585
840528
801319
743953
705955
781575
902705
743464
832299
758442
842584
913778
932317
825542
784777
833048
753148
910521
822735
880627
975778
783740
801158
830822
843512
876423
900769
954347
749312
860176
749129
675553
758667
670991
612291
569300
944889
1.36251e+06
1.38122e+06
380494
1.01818e+06
1.3303e+06
483354
1.07468e+06
1.33026e+06
486443
261191
1.35962e+06
1.28638e+06
785882
956984
830339
960108
830505
880293
1.03723e+06
915503
671933
858701
258291
325430
273004
253322
763000
879977
931058
891915
842430
832979
793571
824224
785046
740009
805706
971506
907640
857212
778847
633744
701356
812241
711521
787109
904198
693526
781985
693631
846835
748485
847037
925541
748923
850759
764021
837120
922319
940860
820369
794310
916221
861896
955100
893168
983727
1.06856e+06
832801
875461
893431
949602
969489
1.06685e+06
1.04505e+06
416987
1.00029e+06
1.37031e+06
1.21689e+06
307665
1.0907e+06
1.3673e+06
771309
883854
787376
859298
959035
978656
841699
782403
871308
798708
900538
978812
998612
882039
1.20956e+06
882820
1.31543e+06
1.33217e+06
276051
1.31042e+06
1.26535e+06
819116
798107
840137
871813
891870
927177
993613
1.39011e+06
1.28617e+06
1.34969e+06
799950
259139
1.25065e+06
897854
874854
260407
976340
1.14837e+06
354292
329369
253354
701654
803093
719369
857647
768370
877904
931991
793470
912954
950277
982560
860972
891739
826191
822957
1.04223e+06
987242
910626
949978
881999
847416
817082
904386
780799
875525
749950
829281
970808
755510
936694
843003
916281
831029
937125
1.05693e+06
701967
719932
637980
878954
769478
858281
932414
838113
948496
861413
936478
855077
973781
1.0898e+06
908489
1.00428e+06
937268
1.07415e+06
1.00192e+06
1.10285e+06
1.17037e+06
740281
875597
801298
878311
805941
874444
959082
815273
893177
803229
901300
808794
880918
995985
1.12081e+06
904430
1.27071e+06
1.10411e+06
266703
1.37483e+06
1.31784e+06
748861
888925
893173
810659
811270
880173
974233
798015
977903
1.41474e+06
1.18799e+06
256628
1.45327e+06
628894
1.36656e+06
1.17981e+06
1.44069e+06
858058
256146
1.25711e+06
522260
272784
910760
901875
254222
253269
495204
262516
740108
883152
894193
904381
804186
811668
817000
759932
911182
948613
919145
840960
821135
844061
909243
867567
805753
854783
1.07747e+06
977531
923497
921503
869626
809605
854493
1.08799e+06
920827
982428
835335
847879
787584
883899
1.0414e+06
948236
961561
858858
976325
862920
940184
840264
949884
1.09254e+06
846991
792810
771753
857657
981592
950900
881704
842480
784485
763549
844080
968545
939123
867265
865949
798391
777290
851862
990944
959689
875365
687305
860427
747877
910787
800031
883195
947305
849599
924645
825941
957189
848016
918244
1.05429e+06
753154
883617
815431
893859
827006
898995
979904
788108
939158
846112
957971
855731
923043
1.04533e+06
763555
890955
898840
831494
838678
916659
987746
849182
943861
912457
1.03704e+06
994194
1.09743e+06
1.14964e+06
834975
849615
894768
898771
951870
975852
1.04881e+06
865498
1.10527e+06
1.08267e+06
1.01085e+06
1.00463e+06
939299
915123
761072
913586
894776
889572
834662
830132
816072
906835
909035
795526
843051
1.1626e+06
966998
972505
900952
823154
801260
875119
1.03746e+06
1.0003e+06
900530
682428
871775
748689
922707
834814
902637
936547
887397
834905
812671
918120
1.06093e+06
1.02128e+06
947059
823725
918248
841098
965848