/*--------------------------------*- C++ -*----------------------------------*\
  =========                 |
  \\      /  F ield         | OpenFOAM: The Open Source CFD Toolbox
   \\    /   O peration     | Website:  https://openfoam.org
    \\  /    A nd           | Version:  9
     \\/     M anipulation  |
\*---------------------------------------------------------------------------*/
FoamFile
{
    format      ascii;
    class       volScalarField;
    location    "0.003";
    object      p;
}
// * * * * * * * * * * * * * * * * * * * * * * * * * * * * * * * * * * * * * //

dimensions      [1 -1 -2 0 0 0 0];

internalField   nonuniform List<scalar> 
25358
(
269792
281120
113735
274730
101301
101318
101298
101298
227273
149340
271743
278632
101308
101302
101299
101299
140078
260146
154766
254778
151767
221998
137463
250352
236980
141749
275246
166124
263499
156732
161342
265630
158057
283998
283685
174672
178909
174205
272398
166257
283268
185432
277108
190087
138802
144308
142988
157917
156339
161265
162955
137954
141629
142134
154654
155288
160153
159478
143842
146045
148218
159988
162559
165188
167981
146351
154033
150857
169530
165699
171436
175666
152324
146349
146876
166021
172367
173129
165310
149154
153270
147761
167214
176445
174431
169050
150986
159230
153288
179121
171487
174568
182538
144062
154294
110177
141494
108442
163071
166674
125688
128212
145813
118006
113326
169100
166237
129815
130124
108066
113216
113635
116197
116536
121647
121262
109144
115476
114370
118232
117195
122362
123506
111575
116939
119652
118773
121476
125043
127018
115456
123692
121009
126481
123736
129465
132427
119076
126173
119531
127577
133934
134402
127150
141941
127612
127971
133446
147640
133045
148130
121472
126972
120298
128351
136592
135240
129599
129779
142748
128656
134198
150462
135439
149020
122998
131850
124921
138387
131259
133394
140701
131308
148067
133294
152375
137113
139285
154848
137418
127280
134365
136042
147070
143577
139243
150873
138795
135773
141990
161702
145274
157933
139778
154748
163707
146596
147103
139329
155302
140614
157899
164853
149547
148035
141982
156301
160026
151572
143819
146199
172262
154189
162780
162329
159558
156118
178393
192314
186871
183098
170505
152749
161398
157441
181304
176296
149164
183480
224107
181430
188177
237800
190465
234527
269493
183359
125863
280087
195469
133738
279707
180079
220874
179291
186689
231199
185840
232342
158664
165541
166212
180903
181724
192249
191320
169237
159704
167387
185398
183157
193922
196543
275151
142217
165680
278836
109000
121374
280276
231586
189851
186265
242197
193607
197689
247465
174915
163497
171709
188441
192426
200164
204942
194936
255685
204463
242930
205562
193986
244023
243360
200119
194402
202928
259469
209752
253346
196635
249237
210781
257487
207613
199255
246131
169804
178977
183981
203898
197492
211214
219276
143540
113512
131208
105884
103618
129672
122250
124577
142842
107285
127869
128899
125939
132452
142800
144181
130942
135274
118872
135010
119198
126247
126063
130373
119381
133979
134518
119344
126256
126147
128190
119373
133440
133008
119526
125995
126009
127768
121087
133076
132821
120062
126361
127184
139291
143343
139053
132440
138248
138338
132330
104824
108015
107144
114164
111590
114891
110518
105889
104054
106422
113539
109285
113051
109754
143070
138281
138656
132396
138215
138310
132266
109099
109004
110427
112972
115766
116882
114672
137982
142993
137852
138177
132133
132185
138351
114183
111070
112111
118351
119196
120238
116733
138460
143416
137971
132549
139751
138835
133355
120599
127166
115511
122752
127574
120156
116002
121140
117830
123492
128620
128053
121760
116756
119189
129302
122496
123486
127665
130263
120882
67962.4
67381.5
101151
89797.5
71454.9
70292.2
91978.3
92633.2
67586.4
77892.8
77839
68491.6
68857.4
78528.4
78342.8
67723.6
77669.5
77736.4
69950.5
69318.9
78796.5
79210.5
103128
102164
90177.9
102525
89787.7
89716.9
101890
88787.3
101796
89258.1
89668
101452
89760.6
101618
70745.8
72872.7
73458.8
81732.6
79637.8
79910.2
82149
72368.8
75444.8
74376.4
80414.9
83766.4
82845.5
81173.5
90395.7
103091
102063
90491.2
103128
92206.1
101977
103354
102007
103743
93304.9
102203
91182
90701.6
114625
129730
141430
135096
124665
133018
112340
140793
114457
109391
132136
112460
140905
142416
114771
115982
114757
113935
113886
113494
123600
123903
124505
113072
121437
112776
113145
122507
123219
122440
111695
111044
120507
112180
119528
121727
121048
113786
114463
113540
124495
126214
125817
124950
132058
134528
131313
132174
136651
136208
132645
110334
117347
111327
111860
118489
120380
119651
133801
129466
130470
131551
135089
130768
135632
113409
114547
113313
124028
125203
125477
123536
128423
131199
127348
134606
129962
129242
134152
113283
115188
113380
124999
123089
122761
124984
125238
130297
126279
128555
133588
127990
133720
113390
115575
113438
122436
125217
125016
122182
133386
135612
138721
141177
135264
138379
133775
132914
140927
137627
134623
134902
132397
137964
137445
134393
131884
131485
141228
134334
137376
131159
137756
141685
134756
134397
131098
137425
124838
125480
129814
133432
131609
126632
122962
67555.1
42170.1
36189
59422.8
58192.9
62535.5
56740.8
68495.8
55214.5
42173.8
66741.2
33130.1
78608.4
66084.6
76933.7
62009.8
42000.5
37271.9
42727.4
46511.9
41515.2
43061.4
45434.8
35056.9
36742.5
39950.6
40980.9
49189.2
43471.5
52224.5
39180.7
45795.6
43867.2
48083.1
48369.5
45373.1
50227.3
49869.3
58570.5
50344.5
52789.7
59828.9
52093.2
60325
48730.3
38106.3
44181.9
50185.4
46694.1
55448.7
58156.5
68184.9
48293.1
51599.1
72305.6
58865.3
60861.7
72669.2
57636.9
68608.7
54978.1
62508.6
70827
63482.3
72154.2
51957.5
58939.9
50983.5
53765.9
61825.5
55113.8
60983.8
51513.8
48372.5
58563.3
56099
57637.2
50265.3
50124.8
51230.3
63594.5
71740.2
61734.4
53603
63482.8
72058.1
53320
55233.1
60560.6
61558.6
59493.9
52647.2
55481.8
59506.3
65318.7
62131.8
56170.6
66088.4
60658.4
62754.8
58331.8
64980.4
56066.7
64822.2
71880.5
72027.7
65683.7
81890
74728.4
67526.8
68234.4
81211.5
74677.4
76681.7
68681.9
74467.7
73887.3
80007.1
74391.2
68761
75762
57470.6
64792.3
63899.3
67226.7
62196
59089.5
63680.8
57592.1
51809.7
52140.7
64979.5
46370.7
73163.9
69731.9
77111
67139.3
45679.2
63039.5
60251.2
68799.3
64441.3
75680
60881.3
52340.3
49412.8
54008.8
53328.4
59813.1
60196.7
55500.9
48240.8
48530.6
50448
51479
52675
55000.7
53910.7
58567
61721.8
57713.7
68916.3
63539
62614.1
66519.3
53411.1
61275.3
54835
62958.1
56792.4
58517.4
64320
55352.2
58937
56233.4
61354.9
62895.7
60705.4
64166
50364.2
53524.5
52093.4
56828.1
57233.5
58521.7
55706.5
54015.5
51078.9
54116.9
59857.8
57839.9
59717.4
56808
72927.9
73136.6
68367
67411.8
75525.8
72325.8
71069.1
60247.4
71613.4
66070.9
65859.6
68039.9
71207.7
61727.2
57073.3
62100
55923.2
60022.5
66928.7
61529.1
65610.5
57699.5
63603.3
57833.4
60024.3
66033.3
65538.3
59801.7
65681.5
66155.3
70050
62744.6
71818.3
67578.4
67759.2
66456.4
68048.8
71587.8
74041.1
71672.6
66080.7
69143.5
65432.3
63694.9
71196.5
68823.9
70952.6
65418
62714
61890
62870.4
67340.1
69310
67385.5
63752.6
61377.7
64494
71077.8
71329.6
73736.7
69447.4
66232.1
69407.3
99809.2
70769.1
68527
100743
76406.5
76796.7
104323
106530
69416.2
77990.2
70840.5
78695.7
72022.9
79916.3
80935
70123.4
79589.3
79242.2
74144.6
73149
81864.9
82530.1
88706.3
100564
88984.7
101461
90130.4
90776.1
101633
73519.9
78398.9
74927.9
84956.9
82160.8
83429
86412.5
89238.6
100323
89219.3
91343.9
101628
91638.2
101760
77754.1
80140.8
81793.5
84690.5
89266.3
87943.2
85678.4
94225.6
102536
91877.7
92831.3
105094
95394.4
103026
93720.1
103772
97551.4
105858
96575.7
94356.5
103481
253238
215189
202909
207832
267248
220898
257807
175432
186624
185766
205634
222348
223611
204551
190656
176788
188193
207685
230042
226123
210969
214144
267931
236552
271254
228021
221956
262814
198448
181753
194017
235467
215618
221661
242306
280027
118494
280655
264077
102710
102284
258120
266302
218238
219449
236222
274745
234959
275156
225381
267710
221775
238709
277577
242508
276126
195951
211550
204224
229270
259276
250304
238523
119795
111284
279568
102068
253576
132918
101548
230346
275259
236625
279425
247461
253323
281411
269014
273264
273573
281560
281234
278737
279137
252139
278189
244056
260029
283897
266875
282980
270428
275266
274266
280134
280809
278181
277285
254120
281451
283824
269300
270029
253040
281573
256363
282759
283794
273994
271612
259691
282072
273379
276481
277814
279164
277791
275984
274147
276906
280143
279149
273280
275908
271603
268010
283431
276992
263871
268641
282233
280285
283877
278178
279843
277459
274427
266968
268751
273174
279674
276845
276992
275209
270571
269872
275738
273609
283104
280322
286333
283572
278528
283916
279048
280294
279837
264389
271370
268820
260744
280361
279905
280324
265257
248349
255602
260277
280432
279237
278782
262440
261496
247922
249265
280278
277363
278227
257254
259861
245422
241492
278700
276048
274034
253407
247934
235806
227587
277202
266480
271000
229833
240377
216315
201840
102475
101310
101302
101301
103644
102805
104510
261738
193363
260795
251465
175373
252635
173261
256490
189351
259132
249322
163347
245954
169248
274227
263025
273527
225899
194926
192512
227842
133310
281303
240851
101299
101298
152872
280034
101300
101298
124533
176039
158386
175759
141091
156626
215049
167930
277198
257569
284166
279021
182293
170861
121018
126877
129752
130616
133590
135951
140084
128609
140038
134976
143195
138045
144904
150506
133524
145460
137542
151247
143059
147558
156196
283220
203534
186011
271926
203341
260126
231007
142398
163241
146637
166236
149189
153781
171747
157040
157825
162346
174183
179795
180797
187053
147760
150611
142257
152827
168756
162000
158969
169032
157271
151571
159134
186382
165408
178394
161978
174469
167808
194941
186597
194713
204248
157011
166154
187443
162052
194901
171910
182125
163697
176600
168765
199011
188912
196033
207397
126981
130880
119671
128596
135661
145427
153272
149485
129990
122651
133854
135275
124780
128554
130552
127517
134981
132115
140365
137430
133226
136613
119605
116367
116670
122115
122595
125478
125539
139419
147285
141005
141230
134709
136718
143392
61813.8
71265.7
101186
62825.5
57510.6
53652.4
73042.4
65074.5
77542.8
78434
62347.4
53623.3
64595.5
65841.5
73143.8
78926.9
85749.7
77241.4
99434.9
72010.8
79458.7
107474
90567
112442
55696.7
58483
57122.2
62656.4
61029.5
62197.3
63397.5
54751
55826.8
56523.4
59288.8
60408.5
62048
61298.3
55362
56016.8
57676.2
59048
60521.8
62908.4
61396.2
58825.2
66352.3
60939
68755.8
63517.2
65766.7
70710.3
62184.8
60367.2
59315.1
64302.3
67286.2
67095.6
64996.2
67854.4
72115.1
66446
67627.5
73702.9
73369.6
68452.7
80432.4
73268
75630
81288.1
83671.9
77124.7
84720
62263.3
58549.8
59149.4
64402.4
67060.1
67339.8
63914.4
66183.1
72061.1
71025
67703.9
72897.1
73576.6
66993.8
63911.3
58914.4
60559
65736.1
67626.6
64258.2
68991.6
64711.2
71415.6
70644.1
68276.9
72939.1
67041.1
73860.3
66629
68583.5
63572.7
68407.1
75821.3
71451.8
73067.7
69676.6
72164.6
75232.7
78060.5
75401.2
72376.9
69915
68356.3
77899.7
73543.5
70728.7
80160.7
75976.9
75279
89503.4
99410
89974.7
101742
92323.4
93065.3
102130
74999.6
84434.8
82578.4
81375.1
79039.5
86240.2
88254
83681.9
90829.3
87050.3
85603.5
81194.1
88388.6
92434.3
69911
72598.4
75391.6
78478.1
75761.8
72768.7
69501.8
71068.3
73147.4
75701.6
79824.9
69861.1
76621.4
74270.8
73435
80630.2
82791.3
81869.5
78734.9
76514.5
77786
92450.1
99984.4
90928
94255.2
104483
96005.3
102989
104365
98788.9
95369.4
96372.8
108564
100108
105100
85794.2
87902.6
83315.7
90184.1
96917.4
94471.5
92394.2
97906
108215
110239
104227
101943
99906.2
106378
134153
110074
129782
108701
143547
116666
117035
150692
108526
116640
111050
116596
111238
119362
119650
108978
118512
117205
113312
111944
120496
122042
124748
130460
124929
133945
127941
128419
134835
113619
117593
114178
125816
122363
122984
126807
127423
125767
131886
129532
138913
131434
136459
121327
115289
119148
124201
130765
128439
126097
138461
135555
131479
132334
145209
136851
139707
133835
144394
147551
141502
138795
136096
141644
127820
123470
123028
128928
134126
132997
129518
146430
143319
149871
139461
150136
146339
142990
128509
135834
128958
131872
139516
138902
132107
135443
141296
144097
147339
142715
139736
136341
168021
199047
203974
186973
178815
175206
189807
191715
174931
183463
204896
231516
218253
216351
130826
107860
278580
258134
102231
276812
106329
207407
264678
216607
265670
218215
228418
271572
179569
190075
212078
197558
222439
229125
240805
240651
271328
227745
240241
281494
252680
276902
272945
246099
231326
242084
282255
256154
277535
193793
218767
207007
248978
234908
253507
266533
220815
232159
212570
268599
248992
260243
277277
253362
283959
284014
274891
266046
264559
281582
238142
245445
224150
271325
289984
284597
280815
103309
183613
112985
112909
101381
104408
101319
260804
284151
269179
284036
273495
279538
282892
280688
280528
280118
269536
264230
262979
255763
283774
283050
276701
284665
273712
287927
279762
280969
288112
283050
286595
263642
288593
276934
280368
275005
278465
245075
256529
245228
229905
279668
273266
277924
238277
253196
243065
223811
288448
258523
250780
282621
287121
288297
270010
268719
267441
274562
228555
179600
204255
207927
101369
101300
101339
101300
101332
101299
101383
101304
101351
178880
158052
169453
101368
101411
191406
101342
101318
171098
150980
126514
101326
140300
148348
159136
101352
101313
103143
101317
103648
101309
101303
141968
120928
108026
101308
113821
101305
105563
109278
102003
101300
101301
103188
175412
252690
247445
155675
241202
234779
146551
270803
261157
272475
222114
180474
187740
216201
154375
213860
127666
231257
240496
225838
136947
259639
215124
270787
264616
249586
196283
162620
268336
247120
264667
170768
207945
196887
158946
238592
132306
153815
222095
220208
240021
151859
104181
101750
101300
101300
101391
101305
101299
198860
119164
218431
120704
202112
180372
112515
235907
142888
210983
129619
216568
231624
148140
166234
224965
251413
238082
259236
182823
145733
136578
203264
225339
216724
116748
193037
129689
255166
212510
234680
148688
173271
141437
124154
165319
191677
116206
205652
112511
180253
122641
121534
148332
185078
207446
240312
223870
131904
173565
184961
179492
111989
111805
110616
113371
185800
189152
183594
115237
113034
113619
114566
101300
102451
102902
101419
101382
101299
101300
117602
197346
195142
164840
109351
167046
108930
166569
163594
172310
110371
107753
109214
108687
178415
167415
176280
111247
109785
109393
111735
184305
115946
190838
160547
107097
154199
108141
165980
161815
156896
110065
109082
107541
108322
101299
101441
101300
101300
102219
101363
101299
175536
108896
164710
105951
146130
137225
104830
112942
159213
181916
159628
105028
139082
107936
159192
142878
150422
106705
107919
106616
105645
153562
138402
142857
106359
107084
105657
105108
147837
157198
146088
107935
107631
106294
106068
149081
174821
111072
156191
104404
133724
107374
151258
136531
146705
106111
105303
106707
104858
134594
131836
140968
105400
103745
104642
104322
103765
125503
126654
136743
135313
104905
104739
135034
133100
127260
105539
104700
104481
103831
102974
105062
139225
106788
152228
128262
103817
107483
135609
159534
173824
201602
118672
110061
103432
120497
123385
129057
132687
104436
104028
127904
115758
121239
103181
103896
103214
102676
102490
102818
117190
124661
119901
103561
103083
135805
104852
116883
102632
116020
137430
104667
132680
103832
102482
112228
114388
128305
104311
102882
117086
117896
111446
110945
102258
102211
137853
103251
111814
103068
120892
122822
104881
102663
113669
115620
108825
110033
102124
102007
110695
102188
101930
111408
115361
102638
102256
103298
109881
123072
117664
101864
107659
102781
101305
101298
101298
101386
101299
101300
101298
102341
103715
127368
102735
117314
108209
101908
102051
102263
111475
107477
106136
101877
101746
148657
136915
221276
144068
250691
148900
239609
211325
132210
139184
162569
272264
192396
226673
255844
151407
133506
135743
137034
149532
150741
153411
154642
135044
140411
138541
154564
152406
156384
158653
141885
142727
145495
157233
160409
161444
164820
139683
145321
140936
163090
157848
159148
164504
144377
146896
142451
161014
169145
163432
166528
145026
152567
148755
168709
164182
168901
173839
146762
154473
149650
172438
166434
170117
176496
213588
173278
174701
219326
178205
179743
221806
157151
158162
153087
174592
187503
181445
180009
179504
216914
176791
182001
230009
184952
225399
191244
228796
184092
185802
242349
231447
193200
182906
187139
233172
235657
188710
193426
242321
188312
239994
199896
246135
191615
235224
196082
240764
249107
198971
199348
257254
249662
206917
245674
204881
195865
201257
261294
251963
211398
110266
90537.6
117725
122555
107150
128257
133212
99573.1
97169.8
117406
95295
97896.1
132971
124561
144934
135347
101919
90902.4
100644
93811
96118.2
95904.8
99023
98633.9
99488.2
89597.7
93178.6
92253.2
97318.9
100015
102174
110263
136698
149341
167499
151698
127426
119173
103997
100138
96901.9
105364
102076
101626
105006
92665.4
101812
95375.4
97976.8
104023
104448
106622
98562.8
96174.3
95255.4
103030
108486
105150
106367
100639
103420
100622
108957
106323
108993
111735
98430.6
104551
101056
110737
107381
109606
113018
104705
119129
106289
120659
107693
109235
122359
110364
120809
108363
111276
125704
113215
124000
106609
107263
103726
112065
118693
115610
114957
112317
126928
114432
127707
115131
117278
130135
106597
103711
107241
112017
114948
115565
118685
114474
124267
110920
112472
129882
125941
116073
114496
129225
131461
119928
116381
127527
118053
119788
129732
116908
119821
136398
133024
122828
113744
113736
109924
122322
118364
122321
126522
114442
111273
115844
124351
119653
122987
127924
131283
121911
118305
120514
137989
133791
124227
123180
130437
140359
141177
136813
127057
126354
123121
140300
126329
140993
126969
130383
144811
122264
123015
118090
126866
136859
132075
131340
134393
144478
130065
134365
154493
138970
149279
145947
136512
131403
135059
156145
140440
150052
93346.6
105415
123658
96335.8
115527
86131.8
99648.7
96271.8
145611
202873
120425
200007
135119
118162
95357.9
107616
95414.9
104222
91354.8
106666
107611
95457.8
180956
192852
127509
114743
116197
98881.1
103649
86889
88716.4
86517
89295.9
89440.7
89308.9
91749
114120
109047
104230
111308
110520
100272
105488
239347
250377
266409
243587
156797
103607
97928.1
138909
252412
249290
233427
261649
227147
242763
236321
236074
243223
259989
170427
208108
216434
173376
258241
276438
269537
258118
250827
243826
250167
271136
246021
266968
222552
169120
173302
225028
201000
104035
172782
146071
210754
182067
109137
86330.2
89601.8
130696
136874
89003.2
100076
92641.6
226120
152131
218926
189313
116727
113576
194192
101945
92045
95436.7
140988
98910.5
95785.7
141592
92678.3
88701.5
91865.3
95152.4
98190.4
92305
94948.3
92574.1
92553.8
96317.5
93136.7
99063.7
95195.6
97537
104539
100229
101597
96380.1
102218
98389.5
100880
108253
118755
104459
100336
116680
130219
106020
123548
111378
100636
108310
113433
115957
106021
109279
112859
108531
114911
122268
118908
112860
116789
118565
125093
120484
116940
111415
114189
119340
96905.8
98565.1
101600
102316
101296
104580
105401
126011
122962
127314
117391
125710
122258
121031
104113
108905
105036
108225
112844
112259
108901
111144
106512
111184
109178
114404
114184
109661
121571
122239
117272
118073
113236
117647
112724
117592
108600
114632
113835
123992
107205
125783
105737
104697
114748
103586
101252
109714
109883
108255
63246.3
229898
251841
187641
159197
69573
102106
170103
108406
130919
210995
197927
247419
230789
279665
211190
239358
213584
157056
150004
142694
176870
168489
152146
175948
195305
191726
204148
198551
212189
209467
216261
92801.6
111288
70028.8
98237.8
69513.8
97034.4
69392.5
237619
116031
108156
171032
234451
276285
115334
145263
130150
168371
90623.8
132809
154592
107965
184110
228911
203983
223705
196243
201670
225796
154362
181127
178682
143280
149363
171283
163535
201193
222368
204713
232615
218223
224799
247251
195676
204116
200446
214957
212973
219004
223404
225587
223655
244739
233854
221315
232593
254600
84593.3
64419.8
63121.4
73724.4
75587.5
62968.5
72337.3
205908
231150
205488
195445
207533
218228
186214
104690
76828.6
119996
139554
80307.1
90338.3
121433
152813
215078
192579
178198
139659
126403
199251
258763
248388
247412
243668
261589
267945
252278
222015
237025
212202
233975
267180
260901
244137
260966
262138
269429
250158
278619
274568
272939
97652.4
68924.3
74639.2
59753.8
71404.3
95007.6
96137.7
104958
60334.2
67500.5
67439.1
63403.1
71319.3
71000.7
62633.8
89330.9
77695.5
91244.7
76972.4
82294.2
82789.1
95751.2
59990.5
58894
66996.3
70829.4
62884.6
72809.3
61627.6
71132.6
81331.1
81353.2
66937.7
76063.7
75705.7
66189.3
81891.1
79025.4
94160
83887.4
102849
86393.6
97911.7
99610.9
92045.1
92858.2
106685
87514.1
87274.2
100489
72045.7
82878.5
86347.9
76214.4
67556.9
78364.9
65736.4
113608
127619
104285
88790.4
113339
92945.7
103740
56216.9
51813.7
74190.4
136274
53834.8
62688.4
25082.6
65033.9
52169.3
40538.8
47325
57285
49079.8
52641.4
57111
28081.7
29212.5
36327.4
29547.1
37406.4
44346.7
35255.7
54470.4
54088.2
50920.9
54859.5
58958.7
58501.2
57688.9
60889.4
65264.7
65560.6
61125.5
55671.6
57120.5
60982
46290.1
34281.2
44034.9
50633.5
65255.3
60238.7
45450.4
62073.1
50084.1
55533.9
37444.8
46440.1
52129.7
46783.2
69808.2
66610.2
66479.3
59913.3
62863.8
63927.8
61507.1
96087.4
92824.3
74584.9
60088.9
96222
73213.3
63580.4
178494
165429
120374
110008
224750
132069
115893
188122
104738
122794
107178
125903
111221
127982
129896
110466
137472
129167
123628
113998
133209
145672
143176
171921
147906
170111
148305
151840
175657
114735
121974
115930
138244
133054
133969
140166
150747
136394
121574
141743
173390
159525
152399
162322
177708
151978
156335
197515
170929
181306
175075
157954
153528
155479
183207
178622
161250
165109
199446
199014
212174
185523
189333
175567
53361.8
46351.2
98332.3
58189.4
63330.7
179296
91045.2
66408.3
58344
57165.4
58207.3
80842.3
138466
60803.9
92125.9
70033.1
106216
72147.7
56733.5
62351.6
61705
61337.8
62586.5
72127.5
67680
62311.7
67447.5
79320
65822
76577.5
84353.5
72082.5
65909.9
93400.4
68921.3
101799
72997.7
94684.8
143029
86429.5
122020
97192.8
115723
92863
103081
127496
46958.1
43402.7
40161.5
56802.6
58506.4
52409.7
47891
56679.2
58985.9
46860.6
62694.8
57296.9
48049.3
60367.3
78409
67084.4
72344
88639.3
92254.7
77271.3
112568
69466.1
63454.1
70441.4
84650
69491.4
69978.6
77624.3
93729.6
71464.7
83450
91246.8
89786.8
79414.2
98949
75996.4
74877.6
87387.2
88872.9
68549.5
69469.3
79591
130174
144156
97232.3
127341
203464
156811
182945
61509.4
104472
82993.2
108392
74588.9
71942.5
142844
114646
128118
102460
109713
126646
129723
112507
82786.2
124719
104675
101375
77442.1
71298.6
115452
88090
85267.4
54985.6
64455.7
61825
84401.2
82757.7
100003
70138.6
93442.7
68283.1
71977.4
87706
111412
40346
44408.7
43528
37519.7
38562.6
41765.4
40591.8
48673.5
45001.9
45773.5
38893.1
41551.7
43306.5
41043.4
130071
81867.5
179363
88862.6
78599.7
144287
166099
39406.2
44577
43556.6
42270.5
40422.1
43179.2
44877.8
94202.1
55318.5
91255.6
66501.6
61331.3
104147
84190.5
52240.7
55294.7
49009.6
53786.9
46469.9
47869.4
54511.4
50512.2
49056.8
47150
46378.4
51274.8
49809.4
48004.8
47662
44634.2
45600.5
46412.8
48296.6
44272.1
50066
48270.3
45164.4
45844.9
45015.2
47916.8
48551.1
44100.7
47179
50346.7
44889.4
46993.6
53768.5
52120.3
49012.9
42003.7
49133.3
43474.6
45695.6
50339.8
51057
44822.3
42427.8
50129.7
45007.7
47600.2
50607.2
52445.4
45235.7
50869.2
54945.6
48969.7
50244.3
58987.6
53478.6
56318.5
56442.2
54034.2
49770.4
51499.3
61973.5
56057.8
57671.3
249769
226958
242331
238921
271432
263593
245484
100151
98129
95777.3
85294.9
87819.6
82722.5
92919.3
227521
140374
156600
208301
225561
201356
132415
64413.7
66136.6
63901.5
73212.7
72887.8
72574.7
74332.7
248018
220084
233471
260376
267450
238755
220916
160914
153884
92030.6
115901
104854
178701
139581
65601.6
64823
68311.4
77134.9
74102.7
74345.5
77775.6
255992
215880
255049
255817
278479
241685
201248
49824.2
54130.1
57511.7
55877
54586
52973.9
51346.8
261149
283592
287948
281960
282837
282028
269918
48740.1
51933.2
57331.9
53357.9
53919.7
52352.6
48239.6
66902.8
64183.9
59823.2
54005.5
61942.7
58761.1
57349.5
50494.2
52465
58924.3
53771.6
55432.3
48690.7
54025.8
82896.1
93596.4
83488.8
82149.8
93062.1
83340.8
92107.1
73316.8
71032.1
67088.1
75442.9
80845.9
78993.1
77376.2
94848.8
86716
84420.6
83850.7
96660.2
86829.1
93952.7
262100
249623
272764
224801
165005
183630
204221
156818
119103
184070
174532
112084
117822
149228
133325
149787
198786
173436
114703
121287
133950
108095
101523
101331
100851
102074
108537
110046
115334
114314
115525
117314
115418
115450
118750
102884
106124
103530
113830
111001
110599
113607
97111.5
94293.3
95455.5
84525.8
89166.9
87694
86034.9
118588
116587
117097
150858
122440
125125
134691
104478
106144
103298
111184
115418
114154
112565
120484
116062
114599
116474
123376
118303
120789
121632
121626
118329
118461
126461
121682
122620
130054
126514
120984
119332
127851
122427
124228
139316
160473
161355
150299
145010
144236
154869
208225
229271
265098
266872
258521
219481
217030
23806.6
77265.5
20293.3
16721.5
14131.1
63370.6
34912.5
57304.8
27539
57794.3
41893.9
32794.8
36856.1
32445.2
57197.2
56905.4
20043.5
17584.1
17142.2
21404.4
19407.3
18631.8
21851.9
32660.7
25134.6
25167.3
27488.1
35096.9
34862.9
27621.1
21075.1
20534.3
18713.3
21045.8
24784.6
23832.3
22743.7
13837.3
13761.2
13809.8
19315.8
26620.9
18039
28850.3
54425.7
43304.2
41877.8
54397
43946
43598
54282.7
35111.2
30019.4
26100.5
35456.8
29925.3
28020.6
37891.9
65504.4
58451.1
48113.6
44614.5
57862.5
47265.9
55653.8
15037.7
17588.4
14695.2
22114.2
38223
27410.6
33018.9
29805.2
39492.6
37377.4
37528.2
33117.5
39980.5
30176.7
23657.4
22842.7
28777.7
27096.2
29423
21542.9
24413.7
25374.1
28893.5
38440.5
31056.1
33241.9
29464.2
25859.5
28691.7
42665.9
60860.8
36821.7
40639
25921.9
46554.6
37981.8
32775.8
34442.1
42175.7
40713.1
30951.1
39323.6
55679.4
48073.8
46206.4
46120.1
57058.4
48353.5
55447
33775.9
55371.4
50059.9
63471.3
45504.9
40054.7
51412.6
46143.9
55698.4
49316.9
57025.1
48625.2
47131.2
55208.5
41278.6
85153.7
28600.8
35639
20681.4
52076.1
46298.7
60619.1
39542.5
67073.4
48452.3
52671.4
46281.4
40229.1
59159.4
57865.1
23376.7
34575.4
26854.6
28344.7
27630.7
31210.3
31990.7
38036
45951.4
58651.3
33009.3
40705.8
42214.3
35656.4
68589.5
84210.5
70617.7
59489.6
49503
49986.1
59390.3
21942.7
26195.1
25577.2
41606.5
33750.1
36813
41198.3
38540.9
35646.7
30816.5
33363.9
35294.8
35514.7
33808.9
53409.6
48649.2
57509.2
41800.1
37752.5
36970.5
41152.8
33128.6
43685
34763.1
39030.7
43259.5
47001.6
36929.4
35574.2
44349.5
41447.6
42782.3
43260.4
46149.7
38263.7
34418.4
30499.2
29625.4
37370.8
40878.9
38380.1
40466.6
54867.9
52619.3
44607.5
45743.7
56531.5
52362
50550
76869.2
58812.7
66101.7
48623.8
54804.1
46901.6
57338.9
56811.6
50542
48769.9
49512.5
58560.8
51615
57220.7
40919.8
40124.7
48226.9
45211.8
48038.2
41937.1
38906.8
43093.5
40728.3
45067.4
48476.2
47384
39772.7
43524.6
44687
46436
49868.8
53340.4
50786.5
44081.1
47351.1
49135.5
56132.7
52646.2
58749.3
52050.6
48930.4
56785.5
177540
247651
199823
128312
124235
198216
238126
193628
170799
145623
190210
166416
169978
216398
195050
207116
166802
190629
213407
238446
220105
199096
128280
147772
148879
148167
154235
179550
175309
216605
212146
188532
263231
240686
217594
240687
278904
294847
268025
246366
257125
230067
271181
149538
158784
173781
200694
153413
178038
183648
172830
195818
171222
202904
226297
201419
226842
225495
229640
178991
231893
205904
208145
249742
45087.5
66894.4
53766.7
20298.3
39604.7
20114.6
22602.8
19889.8
49735.3
58702.2
94800.9
127597
32846.4
57026.6
67995.7
74041.8
18727.5
22547.1
19195.4
23606.5
23677.3
20651.9
31549.5
22881.3
50291.6
34620
57678
33720.4
44740.7
49002.9
19568.5
20022.6
19135.7
20932.9
20525.4
19872.4
20897.6
51182.5
85569.5
68696.6
69209.7
76469.1
63069
83361.6
29494.3
48756.1
45481
22541
31816.8
30564.7
40892.7
63327.3
70557.1
84159.9
47439.5
67815.6
62847.6
51228.9
43566.1
30877
31243.9
32629.4
39878.2
24268.5
42139.9
55681.7
64492.2
64147.1
61560.1
46598.6
53109.3
59083.7
16852.6
26452.7
18580.1
19666.1
19756.4
22899.3
21120.1
23530.2
24115.5
21279.8
23989.2
28641.1
21248
22014.6
107441
86903.5
103574
85744.3
105053
76113.4
93112.2
85659.4
83914.5
72866.1
71925.7
79909.6
69295.1
82839.3
58654.3
57133.7
64607.6
58058.4
66431.5
62817
54758.6
51005
51016.2
46759.3
51441.6
39640.5
46496.3
47358.4
33660.2
25174.4
36584.7
28663.5
27244.2
36657.6
23344.8
78691.9
74907.7
89514.1
97340.1
80935.1
74878
88024
112922
181780
217240
161170
98520.3
175424
174461
104667
87697.1
126296
110205
91570.7
98992.2
110171
117531
152536
129397
126153
148107
111741
131282
150030
117205
101272
93750
96654.1
112297
116030
120547
161474
149860
136428
159983
133618
139449
165273
106796
115826
104516
124760
132816
126353
136123
193074
195480
169798
152470
194259
176159
171025
138145
159371
134845
137973
165954
142029
162473
146019
156110
183034
173825
148854
170607
157984
63030.4
146501
48219.8
56383.5
38375.6
11315.7
48632.9
16886.6
43356.5
108849
71605.1
95316.4
102585
70692.4
67336.8
144502
35773.7
55338.4
58121.7
38794.2
70098.3
43781.9
62999.1
80182.3
80730.6
98456.5
93421.4
110719
92636.1
77638.7
11058.4
28698.1
16876.9
4833.73
13454
24854.3
10980.6
122096
99665.2
119125
132645
160008
114015
140903
52914
48928.9
54964
49757.8
59892
54948.1
60011.4
60940.6
62142.2
72843.7
82323.2
65941.3
78097.4
68931.4
25042.7
38377.8
73820.2
45658.5
59605.9
36737.6
70854.1
72237.9
97383.7
116581
104583
78228.5
95829.6
87632.6
41952.4
26420.8
39914.8
37307.4
51398.5
50643.2
24814.8
84368.9
108349
89411.5
102062
120592
96122.6
127167
120021
141127
172615
128076
139619
116355
158205
6060.21
2484.08
10058.4
19929.7
11494.1
18018.8
6301.64
51863.2
61335.5
65597.3
54420
45297.8
59764.5
66750.6
93566.5
82098.6
75144.8
73799.1
89212.6
87992.6
78015.2