/*--------------------------------*- C++ -*----------------------------------*\
  =========                 |
  \\      /  F ield         | OpenFOAM: The Open Source CFD Toolbox
   \\    /   O peration     | Website:  https://openfoam.org
    \\  /    A nd           | Version:  9
     \\/     M anipulation  |
\*---------------------------------------------------------------------------*/
FoamFile
{
    format      ascii;
    class       volScalarField;
    location    "0.003";
    object      rhoE;
}
// * * * * * * * * * * * * * * * * * * * * * * * * * * * * * * * * * * * * * //

dimensions      [1 -1 -2 0 0 0 0];

internalField   nonuniform List<scalar> 
25358
(
775850
811090
284894
784851
253252
253296
253245
253245
631419
389622
781964
803905
253270
253255
253247
253246
363251
742956
405761
723785
396808
613838
355565
708974
663749
367990
793272
439332
754419
411450
425304
761208
415426
817504
816325
465395
478418
463743
784314
439819
814265
498258
790817
512709
359583
375315
371520
415101
410404
425182
430216
357113
367404
369023
405180
407227
421818
419608
373925
380257
386468
421225
428879
436830
445173
381057
403299
394064
449799
438279
455580
468422
398656
380991
382710
439482
458451
461037
437112
389312
401431
385300
443103
471095
465017
448589
394559
418767
401213
479181
455856
465135
489632
374235
403714
280958
366788
276459
430290
441117
321505
328428
379162
300263
288715
448275
439449
332714
333107
275409
288358
289551
296480
297490
310990
309829
278312
294361
291494
301979
299257
312914
315951
284447
298092
305654
302727
310349
320013
325256
293905
315434
308432
323494
316221
331842
339964
303660
322963
304989
327137
344756
346222
325825
368259
327504
328645
343843
384557
342559
386188
310118
325113
307031
329236
352237
348524
332600
333568
370548
330527
345920
392822
349317
388730
314103
338209
319133
357197
337086
342918
363688
337690
385585
343083
398294
353916
359956
405471
353675
325399
345127
350271
381986
371895
359304
393699
358361
349906
367599
425773
377011
414559
361823
405451
432430
381380
383037
360365
407307
364148
414796
435788
389948
385670
367952
410189
420977
395730
373100
379869
457748
403332
429107
427962
419646
409484
476800
519996
503034
491282
452312
398922
424689
412921
485203
469953
388435
492498
620924
486072
507335
666666
514526
655709
774036
479866
316712
807424
516801
337858
805928
481752
609822
479075
502566
644065
499631
648278
417460
437810
440083
484573
487416
520229
516976
449027
420524
443571
498724
491858
525465
533608
793261
361121
427554
800372
272717
304846
807580
645719
512455
501199
681375
524369
537229
699161
465977
431620
456351
508062
520416
544888
559933
528662
727463
558545
683413
562377
525347
687576
685232
544905
526810
553825
740384
575316
719195
534111
705354
578850
733802
568895
542382
694829
450449
478322
493695
556587
536323
579757
605278
380002
288527
355403
270866
265021
348947
312202
318471
376411
274240
332047
344779
321990
339245
374807
373028
354244
362903
312684
361794
313456
330217
329814
352016
313306
357226
359794
313658
330022
329242
339738
312270
353890
350048
310955
327861
326405
334993
310941
344628
346563
310241
325613
326239
370832
379263
369878
345268
359830
360083
345019
268197
278487
276362
293228
284767
294979
282042
273108
266187
274496
291615
278765
290321
280043
378003
366148
368201
344931
359057
359810
344085
280865
278180
283447
288165
296862
299078
292228
363646
373417
361023
358151
342824
341696
357569
290900
282850
286658
302059
303229
306210
297161
358127
372603
358912
341302
359425
357818
342266
309270
326171
294511
313661
327357
308046
295889
310669
300644
315634
329945
328603
312143
297875
304065
331443
313720
315774
326456
333580
308279
213234
222822
307782
286773
224899
226524
285593
281414
221897
254423
252366
223584
223187
251507
252741
218494
240370
247540
216649
220843
248008
242365
329754
322259
291651
325399
288193
284394
319071
272296
317831
281479
279455
305083
272247
313260
226417
231429
231752
256595
253693
252786
256176
221519
228058
230934
250189
250596
254334
245742
284940
315574
317449
283230
313607
284371
315001
309950
310422
304386
276645
303802
273635
279347
343162
340607
382658
378136
378229
367806
337519
377612
336553
296451
361874
324993
375483
370638
323835
306164
359747
352004
354630
348369
372990
368392
372117
347213
356805
334596
342704
365825
362713
354972
326540
315402
346472
315161
335113
345787
335828
346328
340593
343414
364674
365759
362796
367897
384577
375656
380980
377814
377508
375471
380532
305331
315005
298698
306333
324316
326507
318611
372190
369327
375985
373629
369026
367884
372539
338699
330790
331880
359854
353143
358585
353361
360920
354389
350976
364590
360672
352498
359127
323611
316965
315266
346565
345509
337188
339860
332670
346621
341107
344426
349276
337819
353446
301632
310784
307771
329347
329076
333632
323099
376020
378433
378979
381384
376276
377338
378413
372447
379644
372231
369476
373216
367743
374991
368957
364808
361832
355258
373282
359871
365148
348880
359138
371348
352277
355264
344201
361471
318732
320035
332123
341405
336777
322976
313519
245686
148590
132622
190470
195743
206990
193646
210054
184157
151558
246436
123257
271345
223838
271338
214004
149083
135202
150559
160770
148203
152506
158033
129219
136161
146960
148433
177284
156373
187512
140155
156763
152700
164196
167041
158929
168274
171688
195648
172185
177642
198381
176413
198658
175832
138641
160825
176915
166352
197907
206263
251062
175361
187129
260216
210426
217335
260760
207339
251069
198669
222462
251937
224918
257840
171686
193780
172059
178403
195048
178642
197604
174706
168646
198974
187764
191822
174243
171043
180862
218858
248920
217964
188336
223635
249625
178599
186765
203845
197851
195526
180756
182003
195242
210433
203220
186137
211528
197761
203870
201483
222354
195581
227354
246644
248624
229013
284503
259458
237785
239968
281798
259011
269940
240834
260460
254729
277017
257404
240164
265920
187662
201542
200029
211793
199775
188186
203557
203825
166784
176203
234926
164696
246769
217314
265122
223842
158355
178762
187035
202655
208033
203883
187512
187470
173211
192047
185535
210495
210019
190040
161417
164818
164099
174340
171871
173793
178074
209808
222092
206026
244071
224140
219748
234501
171582
183918
170526
191980
178402
177493
189329
194720
210701
199577
213954
218502
209818
224872
166857
163602
164275
173699
178185
173385
178799
188017
176258
190779
206576
189749
203224
190720
254081
250898
237675
232986
258381
246585
246420
205122
243622
228474
225498
222258
239577
206307
166853
180740
168351
176064
185976
175362
187094
190736
198087
184222
184713
206809
196961
192197
198651
198698
207427
186320
205023
196946
196252
228099
232685
239917
251728
242487
224747
238344
221271
203360
232835
219673
235534
218012
205039
184074
190016
204330
195420
195709
183912
191251
185124
194232
195464
203781
195643
184803
194630
272150
197043
207890
297213
211346
224278
297669
281818
203684
233365
211906
227962
208090
236292
231372
199877
219325
223259
203012
205098
227400
224159
263269
287735
255887
295955
264531
257894
287417
217282
220976
213717
245889
240396
235870
241739
244416
279482
249707
252365
273847
247719
280107
209982
219031
218293
232514
237102
238915
229945
270851
295924
266954
261029
291211
265553
288386
256195
276891
258459
285807
261453
252346
281995
718909
592723
553872
569309
767157
610930
734650
467994
502464
499477
562538
615080
619628
558706
514813
472067
507280
569016
640341
627719
579275
589250
769386
662159
780446
634077
614267
751952
538962
486990
525154
657922
593785
612934
680379
805716
297280
807628
745933
256782
255713
725459
764101
602219
606547
661474
791224
656767
793183
625755
768942
614101
669758
800765
682324
796302
531027
580210
557083
637482
737148
707016
667760
300696
278572
803637
255173
709391
335658
253870
641873
793448
662489
806259
698796
718524
811989
771943
786379
787916
810300
809661
800799
801684
714475
802481
687204
741197
818219
764563
816247
777407
793637
790354
806009
808321
798956
795838
721435
811449
817511
772354
775509
717146
812425
729035
815658
817164
788714
780867
740271
813855
787454
797423
801419
802535
797606
791172
784495
798785
807750
805237
781246
790817
775186
762093
817227
798413
754453
770618
810018
808856
817903
802446
806895
800293
785490
758501
764906
781021
806370
797738
798736
788169
770780
768846
789479
787222
813243
802711
826989
818930
803209
817045
804890
807024
806941
749190
774438
765121
736084
807073
804907
807837
752195
691946
717703
734322
807455
801173
800250
741626
738804
690680
694976
806865
795081
798287
723772
733047
681904
668109
800044
790094
782507
710039
690573
648369
620637
794213
754920
771275
628035
664004
583569
536995
256192
253276
253255
253253
259131
257021
261312
739490
510395
736542
703508
455922
707299
449752
721377
498078
730716
695955
420811
684070
437970
782540
742799
780705
615168
515292
507990
621308
341678
806098
664883
253248
253245
399857
807683
253251
253245
317416
468977
415829
468217
364117
409375
590453
444689
799298
733782
817485
804828
488453
453579
308043
323973
332381
334244
343045
349812
361566
328561
360856
346456
370454
355654
375462
391799
342516
376703
353840
394181
370228
383268
408743
816857
554771
499958
772145
554210
739001
631158
368618
430338
380865
439377
388377
401867
455993
412106
414456
427921
463879
481029
484140
503499
383245
391698
367321
398691
446138
425948
416824
447771
412172
395300
417755
500586
436510
476160
426805
464476
444322
528205
502061
527490
557667
411516
438922
504007
426529
527042
456195
487598
432002
470993
447226
541095
509319
531666
567694
323013
333582
303954
331612
348106
375231
395563
387606
333714
313548
344772
347296
318181
328730
333348
324870
345394
338345
359796
352299
340154
349193
303683
295506
296519
310708
311868
319244
319787
359180
379575
362477
362867
345068
350007
368498
188412
188097
262216
211232
201092
176869
244042
202788
249182
223069
178876
167418
179256
184977
195945
212769
219214
202129
266550
196718
210756
280168
230742
286479
193739
201858
196111
215378
208684
209990
215496
187500
179172
189962
189742
202246
204056
191293
164236
169656
166344
178465
174320
176715
180485
167632
180634
169697
187155
176719
179254
189192
207295
205655
200700
214102
223050
220126
218278
229809
239001
223568
224710
243595
240048
229384
217743
196846
203299
216755
223369
204203
223033
201186
183011
194956
207837
199458
213117
194642
217017
231793
216114
218132
216738
232426
203849
175857
173432
170343
180675
189491
184189
186076
190167
196450
202615
187558
204343
192063
199115
178636
183636
173481
183197
197533
188514
192687
228337
235689
245490
247395
243092
233528
231503
186425
205910
197246
189355
208892
200402
198528
240923
262840
238740
269708
245429
244161
267355
198645
219891
217371
210619
206684
224484
227640
219488
237345
229706
221699
212388
230246
238710
221036
210977
219155
238056
234694
225498
206622
191533
200739
207764
208817
195644
203159
196971
193613
207845
213413
210931
204959
199219
202562
240034
261428
238405
244690
268789
247170
266964
274155
257698
250945
250492
280060
258242
272898
220093
225525
215578
232612
246611
241892
236493
252146
276829
282300
265233
260894
255509
273859
344491
284671
337515
289820
371716
303871
299591
388519
285700
308526
293358
305030
290459
313512
311156
284041
305585
304091
291328
289727
311076
313428
327270
337121
324849
347445
333991
332649
347943
297854
303407
296152
326976
319535
318303
327023
327811
324962
339440
333737
356806
337464
351033
309674
296746
305430
319453
334447
329541
322964
358661
351512
341901
341863
374901
352974
360409
344234
371359
380425
363166
356809
349147
364570
325827
314009
312486
328435
343429
339572
330623
376395
368169
386291
357255
387249
376569
366939
328119
347833
328891
336669
358948
356332
337965
346486
363845
372028
380370
367109
358531
349789
444409
539884
555374
501895
477023
466009
511171
517725
465888
492068
559730
644790
602043
596004
329988
269809
798990
725265
255580
792523
265915
567913
758317
597042
761724
602196
635279
781393
480089
512616
582488
536028
615391
636978
675253
675670
780589
633054
674311
812057
716129
798349
785863
694019
644861
680487
814192
727937
800287
524226
602986
565700
702524
655856
717698
761707
609549
645969
583355
768759
702551
740377
798169
718451
818584
818584
791440
761680
756554
812260
665530
689737
620107
778044
838948
822292
809972
258287
480781
282953
282756
253453
261055
253296
743824
818607
772367
817407
786814
806423
812247
808769
808053
805505
767587
748408
743958
718199
815816
817419
797351
822189
778545
831304
800445
804964
831543
817314
827734
743017
831686
790112
806409
785590
798642
680360
720898
680917
628260
803682
779281
796652
656680
709095
673341
608075
832249
725272
698198
808395
825213
830001
765432
762726
758194
784002
623764
468703
544636
556358
253423
253250
253347
253249
253330
253247
253458
253261
253376
466346
405549
438431
253419
253527
504136
253354
253294
443312
385515
318430
253316
355804
378137
408608
253380
253282
257871
253292
259139
253273
253259
360400
303670
270231
253269
285117
253262
263973
273429
255010
253250
253252
257984
456095
707844
689198
398829
667358
645052
373156
770823
736221
776933
602693
471335
493353
583300
395138
575654
321510
632992
664762
614916
346621
730670
579653
770313
748197
695317
519607
418768
761799
686705
748593
442492
556481
521495
408209
658293
333993
393525
602444
596476
662959
388043
260483
254376
253250
253249
253478
253263
253248
527608
299040
590535
303082
537851
470957
281741
649033
362985
566405
326747
584589
634407
377606
429240
611593
701716
655409
729294
478390
370907
345614
541563
613341
585019
292721
509520
326929
714871
570955
643908
379171
449877
358994
312193
426542
505310
291308
549143
281730
470597
308182
305272
378172
485188
554631
663033
608017
332917
450576
484623
468186
280387
279912
276856
283952
487071
497346
480492
288786
283081
284592
287047
253251
256132
257264
253547
253455
253248
253249
294952
522800
516084
425178
273614
431513
272540
430085
421471
446879
276227
269534
273263
271918
464882
432546
458606
278476
274724
273721
279730
482847
290632
502800
412795
267867
394682
270525
428377
416341
402257
275443
272925
268995
270985
253246
253603
253250
253251
255552
253407
253247
456534
272452
424778
264957
372006
347395
262120
282843
408949
475595
410137
262620
352495
270001
408806
362914
383949
266869
269957
266643
264181
392801
350583
362865
265991
267834
264213
262824
376685
403119
371833
269998
269225
265828
265253
380253
454405
278027
400327
261046
337842
268570
386305
345458
373551
265363
263316
266874
262193
340173
332696
357641
263562
259385
261647
260838
259436
315749
318797
346026
342138
262311
261891
341372
336118
320417
263915
261792
261239
259602
257445
262707
352883
267081
389102
323112
259565
268848
342983
409904
451530
536178
297750
275432
258596
302538
310145
325221
335002
261127
260098
322136
290142
304487
257966
259766
258048
256697
256230
257053
293875
313516
300971
258921
257719
343517
262177
293071
256587
290826
347939
261709
335017
259603
256211
281001
286585
323233
260810
257215
293606
295716
278987
277701
255648
255530
349118
258141
279935
257682
303577
308664
262250
256665
284723
289785
272269
275360
255312
255020
277058
255474
254827
278891
289111
256602
255644
258260
274970
309326
295114
254660
269295
256959
253263
253246
253246
253465
253247
253250
253246
255858
259310
320724
256846
294197
270697
254772
255130
255661
279062
268833
265426
254693
254366
387613
354100
610831
374284
709593
388257
672020
578366
340589
360592
428583
783648
520424
628893
727369
395556
344292
350561
354250
389718
393326
401262
404952
348717
363980
358601
404805
398323
410176
416985
368269
370608
378517
412826
422368
425387
435555
361719
377897
365323
430276
414536
418425
434497
375251
382453
369704
424008
448456
431273
440560
377205
398942
387878
447307
433693
447855
462807
382118
404535
390457
458461
440336
451479
470854
585685
459917
464380
604353
475328
480171
612513
412425
415430
400458
465075
504870
486076
481666
479511
596459
470927
487277
639841
496637
624403
516481
635721
493849
499234
681254
644576
522651
490331
503770
650771
658915
508588
523582
681504
507151
673335
543874
694026
517638
657214
531747
676397
704708
541250
542388
732634
706508
566349
692666
559753
531177
548360
746434
714205
580374
279977
236533
298965
314778
276346
329624
343399
255488
254121
300524
247425
252677
342710
320227
376250
349269
260896
237592
262302
244086
247664
247197
254636
253606
256635
234202
242051
239913
250959
257229
262792
280003
352942
389044
443141
396017
325223
302956
269641
257553
250653
269373
261705
260463
268339
241612
262452
247090
252665
267570
268338
273264
253243
248222
246189
264126
277312
269545
271891
258192
263969
258072
278506
272617
278548
284912
253346
266776
259029
282820
274946
280061
288237
267882
305282
272213
309231
275429
279621
313917
283171
309946
277816
285121
323164
290258
318474
271167
272874
264720
285757
302339
294528
292777
288222
326542
293462
328575
295131
300416
335065
271164
264779
272905
285696
292772
294463
302338
292398
318851
283455
287674
334149
323485
296760
293136
332577
338559
307086
298112
327903
302120
306653
333998
299506
306709
352076
342836
314363
288655
288624
279072
311885
301444
311888
323263
290561
282734
294381
317553
305008
313749
327221
338159
312198
303004
308526
356573
344954
318154
315309
334729
363160
365515
353241
325590
323639
315188
362997
323578
365007
325378
334588
375897
311092
313183
299973
324233
352228
338718
336622
345703
374921
333680
345622
404203
358660
388860
379223
351791
337482
347614
409131
362926
391146
256117
267789
328429
251186
299437
231772
260004
248847
411642
619654
338947
591159
371379
325283
256557
284115
252610
279404
246113
291015
288317
252605
503416
552195
343453
304355
313393
261668
270849
236237
233986
229796
234754
239630
236578
239351
298635
279733
269172
290661
292076
261734
272711
815924
839895
876738
731779
424458
272527
268270
380860
859340
843983
755205
880244
726785
781183
750689
767293
772077
857156
507022
650105
667641
505384
863435
896855
891694
810790
798791
764221
771031
856123
760325
862311
674286
469877
493510
667811
604550
278787
503908
399978
633175
529827
290916
230067
239069
366341
380462
235068
270645
245255
669787
414613
654138
546377
306103
300396
553656
271774
240645
247185
386828
257011
251188
382615
242414
235310
239955
246128
251873
241324
245491
244419
240786
248351
243325
253971
245919
252092
266428
256874
259051
249110
260665
252332
258628
274884
305804
269779
257189
295710
333018
270480
319447
290796
262771
286271
296713
300429
274150
280326
288084
278257
297515
313581
306133
288065
297296
307957
321559
310613
299386
286275
291743
304337
250612
252920
259099
261041
259824
266574
267796
322476
315507
326136
298949
319850
311180
307793
265289
276065
266795
274819
285888
284552
276067
282717
270794
282252
277402
290145
289773
278129
308483
310584
297346
299550
286959
298342
285814
307785
288839
318365
304805
320003
279324
328435
281171
288261
315442
286531
276110
298123
299532
291110
179866
710523
791814
703414
503870
195767
279273
480199
318697
455923
699086
684754
806471
792392
878324
726692
846630
768974
530940
500349
481473
570498
552549
486494
546835
720601
695634
754583
706392
773942
755654
767283
252141
311513
204886
256911
187309
263714
189768
697538
306654
293644
477834
776858
909987
312848
454471
374308
511454
260326
398692
453746
304537
613140
720678
647502
720320
634773
618696
688354
503538
564015
569415
426750
459597
516238
480382
717613
746648
708357
802129
775405
779293
834442
691095
695887
694591
743675
751101
760199
763099
807578
782799
862374
812631
785396
818366
885915
242090
186229
183788
210880
214651
179675
203319
637051
727269
648384
583904
605305
649463
544124
295436
218189
347672
398039
222915
252505
338719
434500
638905
576902
517673
387317
352883
575360
858346
777123
795961
739106
811867
860998
758830
744765
782610
719677
797203
870171
864402
821702
903381
916709
915476
868749
922676
928077
937328
374257
311016
311311
267418
299368
372762
357806
384110
256590
301801
288667
270796
301394
310565
281547
364019
335156
372863
324284
337031
343569
373173
282933
274458
305288
312107
290001
314486
285094
305740
327661
330399
285032
314674
320068
293582
340975
339153
375144
342763
377226
341689
371726
376378
352631
353322
385333
346983
346370
375518
308833
331196
334165
320719
298213
320472
295175
401656
439013
376904
345204
401235
349808
378365
269879
249822
337402
572911
235534
280366
113976
278460
218572
169932
203365
242370
205459
229277
254210
131838
128266
160204
132165
159870
193803
160237
261795
249744
230461
252721
280813
282166
269638
259461
279596
292926
260881
235072
252781
274183
224590
163596
200477
231274
302583
287797
209148
272071
212719
235143
163509
196955
228136
205729
309568
306843
300789
278916
291883
302927
286051
418501
395680
333184
274202
421012
337450
282761
615275
623818
426398
414999
730680
452108
419103
646289
412064
470198
415999
471723
412785
469645
467428
414774
481887
467954
432176
411443
467518
495551
542082
635127
547050
617126
538412
539192
623339
417493
425857
415310
479779
472392
467935
479979
501753
463970
425406
484386
567304
530709
512676
560436
632958
542373
541026
661185
573716
625583
616310
543871
539968
536922
622310
616560
547589
558233
666343
646838
698181
611061
639643
586300
189483
149521
351322
189563
215070
751398
392933
254641
279866
213786
287720
320306
454705
174854
282550
259341
389981
314653
279734
289106
295759
287007
301136
330246
301055
288247
298036
327318
293665
316860
329421
303687
313107
420948
324596
456097
343441
419243
619774
344440
430022
368672
409192
351819
371507
429423
158996
156111
153083
177783
199543
186860
163035
161474
178469
163301
171269
168881
155640
171528
330483
301031
333261
381991
360791
324095
452997
298940
242730
308577
349624
253673
257377
315172
346523
302034
325799
335504
332063
314212
343649
265811
306880
334271
320644
241617
231323
307453
545082
622327
428986
532566
832953
627880
766137
228589
417065
347447
432318
274145
262095
564538
397738
436871
370627
375607
389636
417241
366345
270338
411790
370808
340372
229951
222825
362904
300165
292069
170507
217168
197313
305913
266848
387742
243920
334216
239166
256419
332971
409366
147421
156819
156921
134693
141343
150273
142601
162028
153202
148407
134385
136525
137979
137887
498526
287820
693795
321880
280910
539666
649921
146240
165413
158851
157991
149108
156467
164187
299653
164179
263831
193868
185831
312206
254643
165290
164284
151410
161165
145064
145219
159396
178183
177804
169033
165093
180435
174330
172117
146083
148100
143843
143198
151887
144030
149517
168531
156432
162837
158618
159076
167402
150741
171963
178411
162392
167332
188825
182091
175598
147737
172364
156395
161122
166643
175639
153396
142812
153976
143569
146893
158642
156087
147346
149373
159939
147482
148160
164689
153480
160853
164913
158515
150986
151722
172287
160184
164434
844690
792390
832025
826649
913515
902780
836164
282738
272907
268099
241152
246442
230240
256280
669568
386292
432545
596196
654527
567672
361331
179925
181557
178762
202036
204336
200475
201959
766199
639606
692159
800422
838339
701034
634827
455635
425357
253270
318831
290270
503778
387173
183278
184825
190319
212447
208225
205128
210630
824654
642524
780660
796403
886381
715340
577268
174534
187525
194836
193290
187835
182573
180793
892224
914571
947028
909218
933397
948734
906788
168181
167401
189243
171667
181686
176715
160177
179366
175033
166783
154825
169301
164004
160385
150716
159578
166002
163260
160238
153122
156477
226880
257622
231801
224976
249471
224802
250308
194424
191061
183859
204692
213016
210782
206775
261838
237101
234990
229438
258745
233621
255259
793283
753905
844804
647225
449469
511456
573508
430493
325437
514558
481268
301082
319007
405349
364822
415290
564596
478935
306615
327836
363562
290425
276487
272753
271393
271486
288518
289759
304781
306258
313467
310706
310021
306312
311019
276951
286134
282802
303679
299226
294241
299436
256644
252520
252458
227727
233928
232744
228603
310807
309450
313462
409156
324501
334944
361361
274739
279070
274545
292647
299204
298058
293801
313233
305122
303796
306038
318930
308575
313879
319463
321070
314826
311645
327664
318012
319088
334258
325835
313629
311278
329598
317614
321242
359663
422014
424663
391533
376092
373823
405321
570418
638035
759704
765691
736929
606170
598360
92014.4
265913
83154.1
65955.4
57854.9
236749
127676
217168
105563
210686
153131
128539
132418
122076
186927
194637
83551.4
73573.1
72574.7
86743.5
79234.5
77130.4
87195.5
130678
100789
102935
109090
135271
132401
107909
84034.9
82053.6
76711.3
83973
94000.9
92609.7
88504.4
51816.9
51738.7
56871
76981.7
102257
72611.3
110659
201334
163842
161501
194988
163346
160111
192881
132774
112330
101040
131587
110834
106542
137414
232284
208159
176684
160770
197657
166934
194606
60842.3
65327.8
54724.6
86573.4
147313
105230
126827
115104
143449
139511
138318
123137
143782
114964
93332.8
90011.4
108975
104062
111796
86030.4
95006.6
97803.9
107547
141303
115453
124105
110978
98335.8
109660
164153
230137
136874
150367
100163
179159
137764
119800
125942
147413
144530
115455
140215
194451
168831
166414
164703
193798
168582
192225
127363
212096
183003
238677
167310
149488
197774
162454
186179
166576
190768
167328
162990
188593
150790
284722
107698
139623
79006.1
188283
161282
224948
142847
206769
172493
188682
154429
142337
172083
183639
90615.5
128159
100594
105313
104539
116096
117441
139149
166958
207685
119939
144843
147984
128139
238613
273927
240947
197704
170976
168891
191968
82732.6
102424
96187.5
161341
127406
138178
160897
142083
131314
113700
123687
128097
131525
123373
182294
175755
200743
144056
132956
131703
138829
121444
159016
128597
143249
154714
170062
134193
127890
152120
145331
147394
150699
154699
136062
129454
121041
111822
140606
156191
143654
157360
209389
191481
165046
169042
208589
190299
192103
242633
190623
219871
160181
168213
150569
180334
184802
166582
164993
163413
180094
165291
180776
150012
143744
171853
160051
172909
152952
140654
145298
140668
154108
153563
154626
139776
142999
164992
172126
178868
195335
183752
161550
178481
157770
168036
158750
175443
161662
152743
174375
603732
804053
580101
390535
445911
674844
888911
712583
643339
547815
701303
605461
620336
774894
688180
746215
548723
670416
703397
829395
747471
634832
474006
512112
529467
513617
551101
618709
586651
797025
773668
682323
939254
853127
758575
841237
901621
1.01197e+06
918931
825203
802576
722937
905443
473643
519211
591909
659219
454639
547117
579774
590567
688475
601266
689503
740280
663518
768860
729796
690278
523733
714206
623963
646951
802504
217518
309037
256934
108445
186329
100092
103644
93456.9
213246
272379
379926
517640
138711
251371
290574
328681
84823.5
100306
85399.2
108125
103387
92912.3
135117
99408.3
211503
148251
251183
142302
189191
208880
95437.4
94237.3
88723.7
100754
95547.1
91355.6
102967
222858
369092
302960
307370
335946
274492
369336
138257
228407
207075
106776
138432
138080
177645
282028
320432
364691
201931
288762
283109
226197
181410
135560
134220
138051
170855
107595
178109
235072
289508
275790
273824
195238
228970
253167
90101.5
132032
95211.1
102527
100302
113792
109436
111123
115815
98250.1
108041
130486
96874
107234
449528
382617
434464
362341
439193
340709
405915
366675
354076
313157
322372
345803
300747
366258
277675
264217
298965
273405
307985
289190
248340
243061
230719
220743
243657
175725
207135
209375
170004
132009
178029
136487
135303
168609
119280
342348
334126
374549
405502
360765
339747
383849
423310
645001
856867
631330
404354
734947
674768
447653
383573
536593
474505
397535
432174
469120
503357
596221
515379
517379
604607
472740
543891
582149
469145
414092
398091
413650
466478
482152
475826
674255
633481
578812
660274
558984
590333
691666
420279
451844
432830
497774
478087
477318
510593
793621
762717
697253
627992
755484
722394
662219
545384
643623
550859
565546
643549
552973
660445
576284
553747
680965
647923
554718
672029
586143
251385
520871
186115
274540
145518
42235.4
246605
89599.1
215785
348504
276364
364495
392301
318929
316534
572367
171129
270671
274286
180046
323800
216422
302510
364171
363308
428301
417193
475766
405341
356301
57764.8
143083
82172.5
21583
58979.9
121959
53782
488788
426408
495694
543687
620840
471341
544987
264266
245200
269696
249637
285143
271290
289697
287392
294754
332156
360760
300427
335595
318108
96899.4
158182
313513
206248
236402
143235
316961
279311
411887
482194
435645
307651
366288
380408
210167
137183
201986
188810
241362
250583
121301
352126
428787
384167
418356
442871
381619
482843
445610
562219
654604
506218
483473
425799
588222
21259.3
9741.67
38307.2
85588.4
41386.6
65753.7
24544
241232
248240
293765
215302
181095
273134
304060
387226
300400
296489
315711
336593
353638
340798
160171
177165
83377.4
243966
117209
250969
96345
450121
420199
323534
461957
378125
403354
521575
206006
217483
211069
626834
542605
294447
229024
267403
225524
228140
645411
639472
247203
293183
237447
231720
577704
454513
502911
261633
281861
241511
229601
606415
550092
534275
325206
303161
254451
266003
645431
549596
344020
531622
356202
272794
272955
326159
279594
365407
223257
221083
223861
218570
402592
289686
392345
228579
231198
227276
233621
638035
457424
499508
350850
358012
267934
260689
207012
207380
209942
209104
212260
207223
212644
393800
286927
369261
235524
237394
239974
239759
208744
217240
213174
211664
215547
213754
214798
214040
221709
226169
218341
218080
221475
221710
277812
242467
307366
280283
337175
241263
243337
211741
219229
225933
216944
217826
210381
219377
213895
222098
222320
227099
219665
220338
216704
233266
229468
225462
221368
230127
224868
225465
224801
225800
219963
223543
234752
229658
228066
230790
235543
241618
227096
237994
233473
231695
1.06859e+06
1.01838e+06
1.03685e+06
1.34489e+06
858521
862740
540883
731595
1.25756e+06
1.37428e+06
1.29828e+06
1.23244e+06