/*--------------------------------*- C++ -*----------------------------------*\
  =========                 |
  \\      /  F ield         | OpenFOAM: The Open Source CFD Toolbox
   \\    /   O peration     | Website:  https://openfoam.org
    \\  /    A nd           | Version:  9
     \\/     M anipulation  |
\*---------------------------------------------------------------------------*/
FoamFile
{
    format      ascii;
    class       volVectorField;
    location    "0.003";
    object      U;
}
// * * * * * * * * * * * * * * * * * * * * * * * * * * * * * * * * * * * * * //

dimensions      [0 1 -1 0 0 0 0];

internalField   nonuniform List<vector> 
25358
(
(30.8882 -120.804 280.634)
(66.3947 -123.184 275.238)
(2.83106 -10.5997 26.8461)
(61.2116 -113.282 260.498)
(8.19451e-05 -0.00176678 0.00632875)
(0.0101806 -0.0200807 0.0442054)
(6.10385e-06 -5.72131e-05 0.000165315)
(2.64239e-05 -5.62046e-05 0.000150702)
(27.3906 -77.9513 253.308)
(45.0859 -62.0969 151.95)
(29.692 -83.7371 295.732)
(63.3021 -85.3202 290.029)
(0.00218839 -0.00338054 0.0239049)
(0.00204655 -0.00130136 0.00990897)
(0.000122886 -0.000380766 0.00209845)
(0.000194398 -0.000213552 0.00120657)
(20.1397 -59.5888 139.518)
(30.0784 -109.634 277.426)
(21.819 -81.4373 159.062)
(4.60032 -107.59 272.899)
(3.33173 -79.5675 154.918)
(12.0569 -76.7326 247.941)
(3.03546 -57.9583 133.977)
(61.249 -82.9203 271.145)
(43.6027 -79.8726 261.491)
(26.0458 -59.8571 142.014)
(65.6618 -113.556 279.24)
(48.9166 -85.3678 168.048)
(38.8415 -110.496 278.897)
(28.2869 -82.0295 160.585)
(22.5751 -90.1184 165.278)
(4.59416 -119.053 278.711)
(3.44047 -88.1116 161.384)
(4.20404 -147.068 266.891)
(31.344 -146.472 264.014)
(3.68765 -107.897 174.681)
(24.4531 -110.281 178.655)
(50.6678 -94.6667 174.128)
(39.8088 -121.403 280.4)
(36.1716 -91.7319 168.613)
(39.9885 -145.528 261.149)
(39.2629 -112.64 182.562)
(62.6842 -139.134 246.493)
(47.12 -114.518 185.663)
(14.3938 -59.2257 137.34)
(20.5656 -66.3031 146.306)
(14.7411 -65.9462 144.443)
(22.2844 -65.0602 169.16)
(16.0492 -64.7682 166.963)
(16.364 -71.8823 173.494)
(22.7084 -72.2437 175.474)
(8.48986 -58.6028 135.745)
(3.12592 -64.5742 141.33)
(8.69933 -65.3479 143.078)
(3.47955 -63.6297 163.556)
(9.60501 -64.239 165.271)
(9.79704 -71.3287 171.96)
(3.56034 -70.5986 170.23)
(32.1704 -60.464 144.989)
(26.6281 -66.6807 148.369)
(32.9445 -67.3659 150.871)
(28.6926 -65.3823 171.662)
(35.3497 -65.9498 174.618)
(29.2636 -72.699 177.689)
(36.106 -73.4116 180.302)
(38.5637 -61.231 148.315)
(46.149 -69.2316 157.096)
(39.4623 -68.2043 153.798)
(49.26 -67.5947 181.663)
(42.1923 -66.6793 177.983)
(43.1472 -74.334 183.4)
(50.4456 -75.4717 186.973)
(9.27409 -80.5507 156.583)
(3.2337 -71.7289 148.284)
(8.97322 -72.6326 149.988)
(10.0516 -79.0923 178.54)
(3.75891 -86.7594 183.541)
(10.3676 -87.6504 185.299)
(3.65225 -78.2692 176.798)
(21.1401 -73.5265 152.777)
(15.644 -81.0308 157.647)
(15.1691 -73.1665 151.169)
(16.773 -79.6542 179.964)
(24.004 -88.7894 188.444)
(17.2686 -88.2285 186.679)
(23.2934 -80.1243 181.773)
(27.3938 -74.0215 154.507)
(34.981 -82.8704 162.552)
(33.8895 -74.7803 156.672)
(30.991 -89.5215 190.47)
(30.0412 -80.727 183.801)
(37.0851 -81.5601 186.274)
(38.2829 -90.5371 193.008)
(20.5491 -82.4426 138.382)
(46.4132 -86.752 146.933)
(12.832 -52.0256 62.7195)
(3.06886 -80.4959 134.967)
(5.21059 -51.1204 59.4756)
(3.44853 -109.892 154.934)
(23.3915 -112.157 158.215)
(2.50471 -78.698 93.9323)
(17.1512 -81.0499 97.5329)
(26.7376 -83.0471 139.673)
(31.0098 -56.6182 75.6922)
(21.5115 -53.2635 67.2869)
(30.3857 -113.012 159.509)
(42.9665 -104.772 156.799)
(22.5273 -81.9509 98.7696)
(36.553 -76.6259 96.8399)
(1.94872 -49.7004 57.7897)
(2.1318 -58.1263 70.0038)
(5.73514 -59.6172 71.6878)
(2.4082 -61.8752 80.7452)
(6.60898 -63.2145 82.2708)
(7.08381 -71.8512 91.605)
(2.56954 -70.4947 90.1012)
(9.01288 -51.8727 60.9024)
(14.1629 -60.4502 74.4574)
(9.97812 -60.2006 72.8749)
(15.8145 -63.9574 84.5814)
(11.2457 -63.7452 83.2384)
(12.0325 -72.2626 92.4421)
(16.8889 -72.5502 93.6823)
(16.9598 -52.4357 64.7357)
(18.706 -61.043 76.1968)
(20.7009 -64.4221 86.1528)
(23.5482 -62.0182 78.5917)
(25.8929 -65.2544 88.3843)
(22.0952 -73.1229 95.2026)
(27.5371 -74.0627 97.4312)
(26.1907 -54.6102 70.9619)
(33.6391 -66.0211 86.4049)
(28.4807 -63.6796 82.0468)
(36.7457 -68.3348 95.7675)
(31.2288 -66.5427 91.6208)
(33.1159 -75.6081 100.589)
(38.9589 -77.6784 104.515)
(2.31503 -67.7891 82.1419)
(6.99393 -80.1538 95.575)
(6.32682 -69.24 83.8573)
(7.54995 -81.3672 101.043)
(2.83798 -90.6442 108.954)
(8.0767 -91.9108 110.408)
(2.69758 -80.0841 99.5153)
(8.67004 -81.622 136.499)
(2.75228 -71.9157 107.8)
(7.71913 -73.2022 109.275)
(8.14762 -82.1306 116.965)
(3.1904 -89.5853 141.625)
(2.87954 -80.8872 115.526)
(9.07543 -90.7176 143.097)
(15.6081 -70.1129 86.1587)
(12.1294 -80.5908 96.3718)
(11.0096 -69.7363 84.8184)
(12.8418 -81.7414 101.769)
(19.302 -92.738 112.239)
(13.7396 -92.2723 111.085)
(18.0354 -82.1297 102.941)
(18.3578 -73.9283 111.155)
(14.6766 -82.0536 137.273)
(13.0964 -73.6398 110.038)
(13.7898 -82.5035 117.635)
(21.4258 -91.5642 144.864)
(19.3217 -82.8488 118.672)
(15.3074 -91.1274 143.811)
(20.5737 -70.8452 87.6653)
(28.0625 -83.3446 100.68)
(25.7537 -72.0457 89.8167)
(25.2295 -93.5742 113.59)
(23.5947 -82.8093 104.414)
(29.3428 -83.9327 106.57)
(31.3176 -94.8752 115.637)
(23.9455 -74.4909 112.484)
(33.1106 -83.9603 141.489)
(29.7572 -75.3546 114.48)
(27.8689 -92.2238 146.103)
(25.1884 -83.4575 119.988)
(31.2378 -84.4146 121.95)
(34.4774 -93.1938 147.867)
(39.6748 -88.326 106.847)
(31.0046 -74.015 92.945)
(33.6929 -85.5518 103.429)
(35.2339 -85.714 109.569)
(44.1818 -99.271 121.671)
(37.5708 -96.849 118.388)
(41.4613 -88.0023 113.204)
(39.637 -85.2176 143.949)
(41.8969 -78.2943 120.844)
(35.7179 -76.6412 117.306)
(37.4269 -85.8603 124.685)
(48.2337 -96.2558 153.161)
(43.8995 -87.7061 127.994)
(41.222 -94.5679 150.255)
(8.57864 -91.8044 124.561)
(3.31045 -99.3694 148.181)
(9.96104 -111.031 156.339)
(3.12608 -101.073 130.728)
(9.0385 -102.259 132.066)
(3.0007 -90.6247 123.139)
(9.48907 -100.487 149.632)
(14.5007 -92.1736 125.171)
(22.3588 -101.435 151.399)
(16.7271 -111.514 157.106)
(21.43 -103.144 133.75)
(15.2797 -102.647 132.688)
(20.323 -92.5814 126.209)
(15.9791 -100.917 150.335)
(29.049 -102.16 152.644)
(27.9171 -103.921 135.003)
(26.4907 -93.2642 127.503)
(32.8273 -94.3442 129.417)
(37.5936 -114.289 161.35)
(34.5511 -105.132 136.869)
(35.9076 -103.233 154.427)
(41.8368 -83.9862 165.063)
(47.448 -76.9597 162.417)
(40.5576 -75.7586 159.334)
(44.3537 -82.6793 189.353)
(53.7976 -93.6673 200.329)
(45.8461 -91.9198 196.27)
(51.9257 -84.1026 193.054)
(50.3906 -106.723 159.657)
(46.1301 -97.9488 135.102)
(48.5155 -108.917 142.271)
(41.3674 -106.842 139.346)
(52.9213 -118.28 166.802)
(45.0704 -116.054 163.8)
(39.327 -95.9541 132)
(24.5475 -70.581 204.035)
(19.6852 -77.3304 250.298)
(17.7196 -70.2061 201.552)
(18.0724 -78.2538 208.965)
(28.2106 -87.794 262.246)
(25.0698 -78.7368 211.39)
(20.2219 -87.0511 259.504)
(13.1077 -83.1398 295.206)
(14.0805 -39.0504 147.509)
(5.33424 -18.7508 50.2159)
(30.3729 -110.09 284.634)
(2.21912 -43.1099 166.138)
(0.794312 -24.0072 64.7149)
(4.55326 -109.752 286.63)
(10.7833 -69.693 199.587)
(4.4233 -76.2079 246.091)
(3.9412 -69.1449 197.828)
(10.9896 -77.6917 207.038)
(4.49194 -85.7426 255.425)
(4.01894 -77.0412 205.223)
(12.3512 -86.3767 257.283)
(9.62591 -89.1547 162.997)
(3.55853 -97.4358 167.856)
(10.03 -98.51 169.432)
(3.87778 -96.2019 190.89)
(10.7424 -97.1532 192.67)
(11.1555 -107.793 201.229)
(3.99484 -106.802 199.435)
(23.4401 -99.6357 171.661)
(16.1851 -89.6413 163.97)
(16.8055 -99.0335 170.379)
(24.8466 -98.4445 195.898)
(17.8554 -97.7674 194.072)
(18.5416 -108.464 202.698)
(25.8613 -109.277 204.689)
(46.5085 -84.4385 294.392)
(17.0494 -22.787 80.3359)
(18.211 -32.5921 119.425)
(62.7432 -108.317 270.698)
(3.63375 -6.15596 16.8962)
(5.69291 -15.6535 41.9968)
(38.8591 -109.912 282.318)
(35.3106 -78.7669 257.063)
(38.7898 -71.7588 210.661)
(31.5152 -71.0442 207.044)
(36.4333 -88.7696 265.543)
(32.2499 -79.3704 214.337)
(39.777 -80.3006 217.907)
(44.998 -90.0156 269.222)
(37.5598 -101.561 175.081)
(29.2688 -90.7831 166.722)
(30.3767 -100.416 173.125)
(32.1294 -99.336 198.071)
(39.7602 -100.568 200.876)
(33.5081 -110.398 207.143)
(41.5359 -111.998 210.353)
(11.2583 -86.5582 215.169)
(13.0473 -108.303 274.431)
(4.20824 -95.7075 222.376)
(4.56116 -96.3409 264.757)
(11.613 -96.5449 224.217)
(4.10779 -85.8202 213.305)
(12.6998 -97.0364 266.491)
(52.2609 -81.3006 266.33)
(54.2459 -73.9912 219.95)
(46.3406 -72.7331 214.966)
(47.6302 -81.5843 222.232)
(62.9418 -93.0882 276.656)
(55.8948 -83.1905 227.055)
(53.8426 -91.4778 272.986)
(18.5389 -87.1843 217.075)
(29.1421 -98.4875 270.598)
(26.6832 -98.0236 228.346)
(21.4955 -108.942 275.856)
(19.1452 -97.2456 226.01)
(25.7684 -87.8083 219.501)
(20.8578 -97.7347 268.36)
(43.2515 -93.009 171.098)
(45.0068 -103.144 177.705)
(52.8559 -105.161 181.053)
(56.0576 -104.451 209.176)
(47.7044 -102.26 204.552)
(49.9513 -114.108 214.401)
(58.8953 -116.742 219.277)
(-0.337896 6.53517 180.546)
(24.4422 -42.1878 66.2176)
(-4.80581 65.1467 145.194)
(9.1926 -36.2906 52.7147)
(1.11203 -33.6143 46.6275)
(3.00171 56.2622 137.177)
(1.88713 -62.3357 92.6001)
(14.6702 -65.424 96.0928)
(14.82 2.19065 174.164)
(12.4876 -36.8112 55.0269)
(2.32358 31.3833 118.774)
(4.03434 51.8201 131.538)
(19.5372 -66.7562 96.7375)
(34.9722 -75.2031 102.645)
(18.7816 -0.494868 168.532)
(25.6917 -17.4451 154.434)
(-1.63069 63.0972 144.157)
(-3.21387 47.2821 159.998)
(-3.36363 32.9527 98.913)
(0.842582 45.4129 159.13)
(-1.60559 31.0648 100.201)
(0.249952 18.0403 123.893)
(-2.33217 20.0327 122.971)
(0.736933 59.9939 141.472)
(2.2528 25.4834 99.2227)
(7.78623 40.2633 152.156)
(4.35976 42.9013 156.459)
(0.052583 28.2694 100.341)
(3.15185 15.5401 123.319)
(6.4956 13.1354 121.19)
(3.91456 46.6723 125.652)
(3.98573 21.9439 96.734)
(9.9566 36.3883 146.382)
(10.9065 31.5676 140.349)
(5.64637 17.6737 93.9759)
(9.23834 9.76311 117.473)
(11.6085 5.49229 113.594)
(3.05129 39.8456 121.126)
(8.25575 5.42162 93.6931)
(11.0911 17.0522 132.821)
(11.2391 25.1056 135.618)
(6.81473 12.0987 92.82)
(13.3322 -0.187671 111.228)
(15.1927 -6.98112 110.643)
(-1.70907 27.6663 171.426)
(5.00426 5.02742 180.51)
(3.02376 26.0137 170.974)
(2.0596 1.51016 141.721)
(-0.222528 -15.2203 153.983)
(3.83076 -17.1362 154.813)
(-1.25086 3.47659 140.88)
(6.14264 -36.0273 50.5128)
(4.7174 -10.2442 58.1217)
(2.39428 -9.17403 56.1847)
(4.31686 -17.0674 77.9628)
(10.8442 -44.0923 68.0742)
(7.39535 -18.3569 78.8399)
(7.3457 -43.6276 66.3362)
(-0.763955 -6.08144 51.9538)
(3.32796 -34.962 48.5878)
(0.619251 -7.42359 54.0687)
(1.61295 -15.4465 76.5588)
(1.31809 -41.2338 62.9247)
(-0.375736 -13.8881 74.6059)
(3.93317 -42.7236 64.8173)
(10.2142 3.66852 178.431)
(11.6306 22.2486 164.288)
(7.44753 24.1503 168.547)
(5.96823 -0.564766 140.811)
(13.3163 -20.656 150.649)
(8.54585 -18.8361 153.76)
(10.1675 -2.65714 138.087)
(7.14323 -11.8331 59.7567)
(16.3637 -37.855 57.5887)
(10.1434 -14.0422 61.3818)
(14.7134 -45.0065 69.7232)
(10.6218 -20.3932 79.0032)
(14.0812 -23.0881 79.4169)
(18.9611 -46.4099 71.8313)
(14.5451 18.8858 158.457)
(21.7961 -4.53815 162.677)
(16.9092 14.4868 152.435)
(17.676 -23.2533 146.278)
(13.7533 -5.68986 133.818)
(16.8592 -9.65895 129.416)
(21.3838 -26.8233 141.748)
(16.2398 -21.3239 68.7942)
(20.3466 -39.5785 61.3329)
(13.1101 -17.1693 64.3624)
(17.3642 -26.8382 81.2148)
(27.7055 -51.746 79.2483)
(20.8469 -31.5824 84.3521)
(23.2351 -48.6451 75.0593)
(18.8607 0.622398 144.519)
(23.8105 -10.3881 157.926)
(18.0767 8.25241 147.686)
(19.276 -15.1195 126.33)
(27.722 -37.9315 135.898)
(24.5279 -31.8616 138.283)
(21.7203 -21.6993 124.597)
(2.82748 -26.9391 96.4277)
(0.749601 -39.4807 111.049)
(1.58306 -50.8032 78.3776)
(5.57575 -63.9301 94.4052)
(4.14278 -41.2498 112.746)
(0.161872 -25.2685 94.5827)
(4.68828 -52.3307 80.2673)
(6.38224 -28.3634 97.2369)
(12.7054 -53.7963 82.6775)
(10.1346 -64.6246 95.2601)
(12.8791 -43.8993 112.273)
(8.43621 -42.4871 113.084)
(10.2141 -29.7937 97.1456)
(8.67788 -53.1145 81.4251)
(17.0939 -54.9645 83.7944)
(17.344 -45.9628 110.725)
(14.0959 -31.939 96.2506)
(18.0077 -34.8485 95.6522)
(24.558 -68.7118 97.8768)
(21.7392 -48.8308 109.482)
(21.7195 -56.7142 85.3864)
(-50.3813 103.403 -15.8083)
(-7.76899 69.9001 -40.8219)
(-23.5456 96.1826 91.6494)
(-0.375555 26.6903 66.5451)
(-14.4063 28.4873 -4.49129)
(-0.14594 3.66765 -17.3815)
(5.65602 -24.0975 79.2271)
(8.32504 -0.7157 77.9622)
(-25.0117 76.9559 -32.4233)
(-5.24181 63.3255 10.9745)
(-19.925 69.8649 14.0945)
(-4.11078 33.9781 -28.6445)
(-16.8042 42.0151 -22.075)
(-12.6054 35.3789 21.3586)
(-1.84817 27.3268 18.9237)
(-40.0751 86.5603 -22.4572)
(-40.4015 96.7393 20.1936)
(-32.1575 80.3344 18.2768)
(-34.3486 74.1517 -8.17732)
(-27.4757 54.8672 -13.2832)
(-20.7114 48.3585 25.8421)
(-25.4891 66.7891 27.3958)
(-2.69792 64.6605 107.95)
(0.804848 33.0277 109.774)
(-4.0672 60.9364 62.3565)
(-11.5439 70.4603 103.872)
(-16.8521 67.273 60.9002)
(-9.09067 33.8003 65.1843)
(-4.06744 39.3311 106.201)
(-32.9891 94.1683 56.4985)
(-17.9731 81.6355 98.5387)
(-26.3332 78.6804 59.6217)
(-14.9054 46.5103 65.0204)
(-9.91766 65.5014 97.0015)
(-18.6686 63.7664 62.6695)
(-7.53537 50.6403 102.362)
(-7.73885 12.7785 -11.8107)
(2.46782 -19.8086 -4.66777)
(0.347238 -10.433 -1.19033)
(4.78523 -24.9875 36.9225)
(2.0017 -1.90834 27.257)
(-3.43861 7.12967 29.7743)
(4.50729 -15.7643 38.4283)
(-19.0422 49.3687 -0.264805)
(-5.25804 27.8519 8.10064)
(-2.79362 6.42989 4.41113)
(-7.29062 22.5058 33.375)
(3.33342 20.6522 42.494)
(3.90462 0.526478 41.2321)
(-10.1043 42.2973 34.8711)
(3.44436 -2.60359 72.164)
(5.71111 -14.7476 118.612)
(3.29776 5.65029 113.601)
(-0.491645 5.90124 71.7124)
(9.47523 -7.58776 116.248)
(6.98709 -15.5574 78.6521)
(3.26362 12.4107 111.044)
(12.234 3.95768 112.761)
(3.06074 24.5138 107.216)
(14.3477 18.0988 108.009)
(9.26788 17.2846 76.0436)
(3.3075 39.935 102.497)
(-3.78389 38.8658 69.3668)
(-2.37249 20.502 71.1221)
(5.12217 0.242126 150.495)
(-4.34316 57.9525 125.581)
(0.360231 16.8077 190.858)
(-4.95997 81.532 163.088)
(-3.29713 81.5438 156.564)
(3.89268 76.7419 149.139)
(-10.0138 97.4438 116.81)
(15.6598 16.4509 182.471)
(15.3306 12.9227 141.973)
(-31.6433 115.586 83.9732)
(4.30076 74.865 142.264)
(-1.31801 81.5726 116.967)
(18.9489 15.8436 176.48)
(22.7523 2.75247 160.558)
(19.7992 32.951 128.104)
(14.5086 46.8669 106.54)
(-2.13367 74.0751 138.644)
(0.396086 45.4502 141.636)
(-4.24393 78.1908 133.111)
(1.17426 49.7723 137.244)
(-0.601004 83.4737 151.099)
(3.30529 58.6133 158.213)
(-0.589176 56.0474 162.675)
(-6.99549 86.2359 125.537)
(0.0429754 93.9403 133.418)
(0.857625 69.3974 124.294)
(0.816171 57.8629 131.29)
(0.0758053 87.3932 142.706)
(5.54864 63.0224 151.39)
(7.45009 69.4843 143.433)
(-13.8481 109.914 108.775)
(-18.7605 118.42 99.9773)
(-2.35064 102.038 124.514)
(-4.12095 90.6135 108.526)
(-6.89403 106.852 114.877)
(6.72957 76.9451 135.026)
(4.53151 81.9972 125.662)
(2.98158 20.4863 145.943)
(11.0639 5.16789 147.019)
(6.42493 25.4685 142.201)
(7.12241 36.4752 164.886)
(3.41981 13.1565 174.062)
(10.3047 15.646 170.549)
(1.6536 33.8115 168.908)
(-4.22645 84.0724 166.808)
(-0.545878 80.5724 160.256)
(-0.147143 84.5433 162.515)
(2.93971 61.9904 170.839)
(-2.96413 60.3522 173.998)
(2.14677 59.5752 171.849)
(-2.06509 61.3534 174.283)
(-24.8027 120.272 90.9811)
(-20.2029 99.5249 98.9475)
(-14.0256 92.2813 93.1568)
(-8.34646 94.477 100.173)
(-13.2231 105.767 105.771)
(0.128609 82.5478 116.842)
(-5.37334 78.1369 109.83)
(1.90203 78.8797 155.277)
(3.36352 87.2908 148.067)
(1.76332 85.0163 155.618)
(5.98 63.187 164.879)
(8.42455 57.604 162.02)
(8.51659 65.7784 157.857)
(5.55052 58.4598 167.573)
(8.80844 33.8046 136.741)
(18.3574 22.6131 135.641)
(10.5134 44.4692 130.273)
(10.858 40.9582 158.736)
(18.9332 26.0954 157.939)
(15.2071 20.0886 164.875)
(13.5509 47.2263 151.454)
(2.58776 90.7195 140.324)
(2.66953 72.1008 135.106)
(-0.644269 91.9225 131.856)
(10.084 56.1991 155.438)
(9.20126 68.9804 150.324)
(7.99078 70.5123 142.197)
(10.0583 53.8123 148.547)
(10.1233 55.9362 123.063)
(19.9368 42.1502 120.633)
(8.90513 65.3875 115.118)
(20.7301 32.0527 149.741)
(14.46 54.03 143.363)
(13.8849 58.9279 134.554)
(21.8034 36.7011 141.462)
(-12.1789 81.292 118.512)
(-1.06372 66.5824 129.193)
(-6.13877 88.7617 124.285)
(4.4546 68.4117 134.827)
(6.45687 41.266 139.351)
(0.524461 62.3443 129.08)
(8.19704 48.9172 142.904)
(1.56118 69.6265 100.632)
(17.867 47.3171 113.334)
(6.07055 70.5202 107.477)
(11.3116 60.207 126.03)
(17.9788 34.5857 126.43)
(20.4687 37.8664 133.26)
(7.5621 56.6694 119.075)
(5.78942 40.6873 178.369)
(1.45967 18.6486 186.823)
(-1.18588 39.0076 183.634)
(6.53096 16.1495 189.988)
(8.14635 19.3061 184.724)
(4.52124 38.3 182.183)
(-0.146188 40.0499 181.143)
(9.98712 42.3937 173.202)
(11.665 16.0211 187.127)
(12.3192 37.7577 173.609)
(17.1349 24.3679 174.286)
(13.269 21.2413 180.272)
(13.0813 45.372 166.732)
(8.84546 37.7701 178.647)
(14.5953 36.6344 167.247)
(19.419 26.9232 166.81)
(14.7678 48.1711 159.282)
(14.9627 49.4521 151.321)
(21.183 13.8338 170.13)
(21.222 28.0788 159.111)
(16.0268 34.4842 160.511)
(13.525 47.7123 143.868)
(15.1136 22.724 151.149)
(22.238 9.32656 164.667)
(19.7655 20.9153 146.342)
(20.9313 26.1377 151.87)
(11.1804 42.1991 138.49)
(16.1574 29.8551 154.897)
(21.6983 -38.8916 96.3836)
(31.2316 -62.8245 91.4322)
(29.6012 -71.6082 99.9141)
(30.4099 -57.8012 110.449)
(25.9398 -52.8819 109.426)
(25.6049 -43.9205 98.2646)
(26.3379 -59.3608 88.0199)
(-100.847 269.758 -74.9013)
(-101 82.8539 -182.352)
(-24.7292 101.472 -276.886)
(-66.215 109.515 -53.6207)
(-11.9847 80.1525 -93.3458)
(-104.697 63.5685 -85.6958)
(-32.0248 43.6621 -148.493)
(-19.7064 37.5683 -25.8614)
(-10.89 22.1352 -111.704)
(-100.095 107.495 -201.753)
(-39.2578 313.283 -124.404)
(-21.5775 117.217 -295.515)
(-82.9013 107.237 -31.0583)
(-111.779 79.0266 -73.6326)
(-41.2173 194.503 -62.2854)
(-42.3241 88.6439 -132.116)
(-26.6369 97.5294 -215.858)
(-51.2691 95.3852 -253.082)
(-59.3467 92.8729 -196.917)
(-58.0064 62.9116 -170.99)
(-28.5044 73.8075 -236.143)
(-60.6583 73.8361 -212.044)
(-25.0979 61.5924 -188.519)
(-44.6741 115.86 -273.354)
(-26.4693 169.841 -261.184)
(-53.5652 173.46 -236.09)
(-32.4748 109.753 -246.935)
(-40.9769 173.418 -186.118)
(-63.0313 110.717 -223.536)
(-72.0791 171.873 -164.929)
(-78.2448 84.9428 -218.658)
(-104.23 90.3875 -145.263)
(-84.6133 87.3336 -170.681)
(-83.3513 65.6613 -146.549)
(-112.787 76.5751 -149.419)
(-89.9625 71.591 -180.617)
(-101.795 76.1363 -122.413)
(-19.0905 89.4833 -151.121)
(-33.3764 86.0547 -80.6517)
(-47.7307 92.5065 -134.7)
(-39.2328 58.5792 -117.882)
(-8.11955 43.023 -77.2988)
(-14.6757 52.4458 -130.876)
(-24.9072 50.5416 -67.3065)
(-108.212 162.582 -164.401)
(-71.9962 110.085 -238.973)
(-81.2319 169.625 -199.307)
(-117.27 103.139 -156.719)
(-92.8652 105.332 -190.647)
(-98.4847 160.945 -138.656)
(-118.376 148.887 -115.293)
(-58.59 306.905 -113.041)
(-35.0397 241.976 -123.789)
(-63.4212 242.243 -107.539)
(-42.6716 252.999 -87.2972)
(-45.1709 221.438 -74.3266)
(-72.8998 214.512 -65.8549)
(-61.7769 241.551 -79.6121)
(-108.917 216.929 -71.2048)
(-76.5224 290.977 -93.2273)
(-87.7533 233.29 -86.1861)
(-94.0099 198.608 -54.8345)
(-96.1726 207.59 -56.7365)
(-109.484 179.684 -48.1133)
(-79.2099 225.903 -67.0552)
(-89.4264 105.611 -96.8844)
(-52.0651 94.1793 -65.1798)
(-71.627 95.9273 -114.163)
(-60.5231 67.6907 -100.592)
(-50.3335 81.5337 -45.4193)
(-76.0605 83.5447 -85.4236)
(-39.6565 62.6491 -54.5497)
(-51.2854 40.3981 -140.827)
(-31.1628 55.779 -192.29)
(-64.0494 48.487 -129.493)
(-18.9662 15.455 -122.745)
(-44.3452 24.1958 -107.831)
(-65.1343 59.8779 -170.563)
(-21.7437 33.9178 -158.065)
(-40.7704 102.863 -190.171)
(-73.1001 86.5085 -113.399)
(-45.4476 128.868 -87.2403)
(-47.556 159.633 -128.041)
(-73.6849 102.674 -166.655)
(-77.5212 152.121 -112.816)
(-71.7667 119.505 -76.301)
(-75.5463 49.8783 -118.5)
(-113.636 70.6083 -117.034)
(-88.9599 52.8814 -106.904)
(-81.4137 54.9764 -72.279)
(-66.1713 37.0101 -89.3713)
(-93.7729 62.3982 -143.291)
(-93.7364 65.1121 -97.4276)
(-7.40254 -0.236514 -89.2486)
(-1.37737 -11.3036 -46.5526)
(-4.13884 11.9815 -62.8537)
(-30.5988 31.1226 -99.993)
(-7.6148 -1.51061 -40.5175)
(-21.4227 10.1381 -79.7)
(-16.2422 21.0862 -54.3823)
(-119.663 93.7387 -111.776)
(-96.6763 79.8353 -93.3158)
(-100.814 95.7637 -138.751)
(-99.7238 136.703 -95.635)
(-102.478 93.6486 -53.4179)
(-90.6919 104.772 -64.9715)
(-114.056 123.787 -79.5887)
(-37.8119 142.92 -44.9328)
(-41.9271 142.035 -34.9097)
(-46.3697 185.598 -48.4974)
(-71.3698 174.738 -44.3028)
(-56.2284 132.895 -40.9624)
(-64.2599 131.316 -31.827)
(-61.1221 183.453 -56.8725)
(-89.3733 157.956 -38.9517)
(-91.0852 153.619 -42.6541)
(-91.9486 102.601 -25.0021)
(-70.7342 119.993 -35.8934)
(-80.4391 116.336 -28.421)
(-102.799 141.137 -34.9038)
(-76.8786 168.86 -49.0608)
(-47.9982 45.153 -84.8619)
(-34.7441 57.9167 -36.06)
(-44.2722 48.2888 -57.6121)
(-14.2649 15.453 -32.3358)
(-34.6376 26.565 -67.878)
(-60.707 65.059 -72.3378)
(-26.8541 36.7425 -43.6294)
(-178.975 164.646 -37.7609)
(-168.772 150.367 -88.2838)
(-175.424 143.999 -94.927)
(-125.408 245.441 -62.2663)
(-121.893 115.315 -167.745)
(-109.547 63.7226 -14.6752)
(-130.974 98.3766 -29.413)
(-93.3575 96.2567 -27.0765)
(-120.341 82.1743 -57.7918)
(-119.064 97.04 -152.366)
(-94.7847 160.242 -39.5528)
(-75.0282 129.233 -48.5535)
(-114.93 112.826 -30.8625)
(-112.151 78.29 -68.0391)
(-30.3723 93.5934 -15.2887)
(-68.2306 88.0617 -63.8315)
(-127.849 158.788 -136.345)
(-140.146 128.948 -138.954)
(-146.229 157.239 -114.52)
(-131.373 108.477 -126.919)
(-129.678 140.424 -96.8542)
(-143.329 134.646 -84.1211)
(-144.633 117.324 -104.707)
(-116.281 106.939 -123.893)
(-135.341 117.334 -127.819)
(-127.966 128.825 -106.179)
(-126.335 91.7825 -122.895)
(-113.431 96.2508 -103.153)
(-121.323 119.107 -87.2045)
(-138.02 110.671 -101.784)
(-128.743 200.198 -63.9054)
(-154.564 220.609 -54.1844)
(-150.43 185.835 -60.3331)
(-115.444 189.848 -48.8736)
(-124.905 163.954 -45.2083)
(-138.739 150.02 -44.9761)
(-135.111 171.734 -43.589)
(-98.9281 124.693 -86.074)
(-81.1874 146.652 -46.4048)
(-106.213 144.296 -78.1148)
(-57.5647 103.264 -41.648)
(-84.5521 105.257 -76.273)
(-90.1796 125.803 -67.553)
(-63.1376 121.751 -39.0606)
(-175.046 148.92 -48.045)
(-175.467 193.069 -46.1015)
(-167.262 168.331 -54.9927)
(-150.94 136.646 -41.3506)
(-152.11 129.877 -30.3265)
(-155.81 121.911 -36.0717)
(-149.94 151.884 -37.1589)
(-154.82 135.935 -107.51)
(-150.958 163.728 -79.674)
(-140.703 150.106 -92.0261)
(-128.334 138.902 -74.917)
(-156.345 140.197 -67.0489)
(-132.116 151.054 -64.6727)
(-149.979 128.052 -84.1355)
(-176.524 146.891 -79.2893)
(-161.745 138.063 -116.502)
(-165.935 152.993 -97.225)
(-155.356 131.224 -71.077)
(-164.214 130.483 -70.446)
(-161.463 126.513 -57.572)
(-157.235 124.769 -86.934)
(-105.184 140.225 -37.4997)
(-101.176 92.1119 -23.1689)
(-114.865 127.436 -33.0295)
(-124.646 116.298 -32.327)
(-102.162 86.5045 -23.8249)
(-109.628 84.7101 -21.2155)
(-117.556 126.889 -33.5352)
(-130.054 97.2942 -89.1778)
(-111.122 86.8151 -45.154)
(-122.827 114.743 -67.3818)
(-133.08 110.078 -58.7923)
(-125.842 87.829 -46.7653)
(-118.664 84.6995 -38.1283)
(-139.048 103.474 -73.1014)
(-121.13 165.922 -63.0427)
(-87.7158 157.519 -43.303)
(-112.992 159.625 -70.3135)
(-94.1701 140.699 -60.1814)
(-72.4533 137.481 -31.7434)
(-99.089 147.21 -52.9622)
(-66.9437 133.536 -35.7622)
(-123.795 85.9014 -94.6027)
(-87.2253 76.9755 -58.8282)
(-103.951 86.8366 -80.6176)
(-107.753 109.103 -67.2751)
(-116.206 92.8921 -54.324)
(-87.3537 97.5392 -49.2333)
(-131.516 103.482 -77.1366)
(-49.1618 72.2082 -50.0108)
(-40.5923 80.7825 -32.9826)
(-22.9736 61.2441 -23.5191)
(-71.2282 108.964 -56.1965)
(-24.939 80.2891 -21.2409)
(-49.6708 92.2973 -44.1841)
(-44.5531 100.019 -30.4475)
(-133.735 106.995 -28.7856)
(-128.438 96.3591 -22.8761)
(-118.661 69.7722 -12.1018)
(-108.452 76.3923 -19.3386)
(-116.139 77.8278 -17.0533)
(-136.405 96.2491 -23.3876)
(-127.432 112.89 -28.4601)
(-140.5 108.251 -48.5508)
(-148.793 115.748 -48.4894)
(-129.397 80.7153 -23.9231)
(-129.227 94.2695 -37.6339)
(-124.144 83.595 -30.3224)
(-144.924 104.683 -38.7318)
(-145.437 110.48 -60.0921)
(-109.605 126.694 -58.0407)
(-137.848 127.772 -47.5895)
(-117.098 105.095 -42.1689)
(-84.281 117.367 -37.226)
(-86.3797 111.586 -42.8521)
(-109.378 135.854 -50.4837)
(-136.941 118.114 -62.0858)
(-72.8875 122.833 -49.2963)
(-50.8447 115.775 -23.5291)
(-52.5522 107.771 -30.8825)
(-26.3064 90.7123 -18.512)
(-50.3287 104.046 -37.9067)
(-75.78 128.36 -42.0235)
(-46.5184 111.814 -27.326)
(-44.4152 126.762 64.4406)
(-77.3703 150.637 -11.0868)
(-57.8109 123.07 -13.7669)
(-28.1794 111.623 85.259)
(-30.6529 100.555 1.18108)
(-7.63123 49.9538 8.10253)
(14.9707 32.8519 101.744)
(7.98324 56.4715 83.151)
(-63.6424 139.649 -13.3973)
(-45.4811 115.837 19.9061)
(-40.9936 95.0021 -6.474)
(-51.274 131.86 18.7342)
(-45.8623 112.58 -6.48519)
(-29.856 86.785 27.0935)
(-33.7282 103.638 25.3952)
(-70.7553 148.635 -12.8639)
(-64.7972 141.101 15.1965)
(-57.5537 140.424 16.1142)
(-55.7983 126.705 -4.16729)
(-50.5523 123.25 -5.64798)
(-38.4033 113.95 23.3946)
(-43.7448 117.268 22.2937)
(-37.3377 111.727 53.0315)
(-33.0138 123.727 78.5792)
(-42.3301 126.529 49.0641)
(-12.8196 81.41 91.1917)
(-21.6352 82.2288 59.4985)
(-24.9359 97.4365 55.2033)
(-15.9426 94.1616 84.3688)
(-24.4554 70.9781 0.998513)
(-10.0907 67.9939 7.40307)
(-27.8536 89.2634 0.322125)
(1.92427 41.0761 40.7924)
(-13.82 62.5563 34.2402)
(-16.1228 79.849 31.6013)
(0.126942 58.1854 37.775)
(-54.7255 133.645 39.3099)
(-38.226 129.058 70.8942)
(-47.616 134.27 43.4452)
(-28.8543 106.658 50.1946)
(-25.1149 101.908 71.3388)
(-34.447 108.851 46.4571)
(-19.6423 101.436 77.2645)
(-35.5177 104.314 2.62862)
(-11.8153 78.6672 8.04223)
(-16.8278 81.9401 9.08942)
(-20.0178 90.8814 30.1713)
(-7.30786 72.8273 34.524)
(-2.24165 69.1919 36.224)
(-24.6122 94.9424 28.758)
(8.94171 35.4231 71.9996)
(1.86521 55.471 96.6232)
(-5.9512 57.3468 65.957)
(-7.47865 73.0208 61.2415)
(14.4951 45.8622 95.1603)
(7.96605 50.8563 67.0179)
(0.262984 68.635 89.8537)
(-11.3483 83.0476 56.9954)
(-7.09492 79.0565 77.5316)
(0.64322 64.3779 58.7027)
(11.9186 54.3331 89.1142)
(5.09904 61.0568 63.0009)
(-15.5292 86.6358 52.8426)
(-2.81665 77.0409 83.4733)
(37.6612 -99.4611 273.083)
(34.5198 -99.117 231.284)
(33.2376 -88.6693 222.451)
(41.0931 -89.8541 225.879)
(47.7533 -111.529 279.912)
(42.7922 -100.658 235.111)
(46.4431 -100.685 275.796)
(10.4766 -108.97 176.271)
(10.9735 -120.672 184.301)
(3.8294 -119.561 182.667)
(11.6497 -119.936 211.439)
(4.23575 -132.693 221.309)
(12.2605 -133.825 223.194)
(4.11504 -118.869 209.606)
(25.6291 -122.247 187.091)
(17.5187 -109.549 177.273)
(18.3214 -121.341 185.483)
(19.3703 -120.732 213.025)
(28.7093 -136.103 227.585)
(20.4267 -134.773 225.012)
(27.1126 -121.743 215.126)
(49.3129 -91.4625 230.143)
(64.4876 -103.452 279.836)
(60.7111 -105.317 246.186)
(56.7295 -112.603 280.096)
(51.4736 -102.728 240.213)
(58.012 -93.5268 235.557)
(55.4047 -102.047 278.306)
(41.3029 -125.078 191.847)
(31.7078 -111.233 180.298)
(33.2898 -123.411 189.11)
(37.3828 -137.91 230.96)
(35.2382 -123.126 217.731)
(43.807 -125.074 221.252)
(46.5233 -140.344 235.141)
(30.2365 -117.583 277.253)
(0.414672 -14.514 36.4183)
(4.38988 -117.727 280.007)
(3.34325 -127.891 242.225)
(0.0265318 -1.42243 3.11911)
(0.227619 -0.990178 2.1737)
(26.6878 -124.113 234.07)
(13.3442 -119.736 279.831)
(4.31437 -106.965 232.366)
(12.0471 -107.889 234.28)
(12.5724 -121.032 246.738)
(4.53737 -130.09 279.176)
(4.41901 -120.022 244.786)
(13.5378 -130.692 279.889)
(27.8618 -109.739 238.984)
(22.0573 -120.258 280.381)
(19.9171 -108.708 236.259)
(20.8699 -121.964 248.684)
(31.4287 -131.255 278.77)
(29.3082 -123.152 251.25)
(22.4475 -130.981 279.62)
(55.4084 -116.864 189.585)
(58.4273 -130.171 200.1)
(49.6367 -127.298 195.498)
(52.7658 -127.697 226.106)
(65.9024 -146.699 245.027)
(56.0257 -143.336 239.997)
(62.2587 -130.955 232.149)
(8.91204 -17.1786 37.2937)
(2.91202 -8.5308 21.7449)
(38.594 -117.064 274.434)
(0.224454 -0.770962 1.6928)
(33.3609 -120.936 227.134)
(14.8751 -32.2098 57.6855)
(0.118 -0.246748 0.542293)
(36.1553 -111.168 242.453)
(48.7536 -122.044 279.555)
(44.9203 -113.09 246.673)
(40.4039 -131.522 277.235)
(38.0991 -124.715 254.266)
(47.2178 -126.617 257.627)
(49.3103 -131.681 275.073)
(4.78149 -82.7994 294.402)
(4.73743 -91.837 294.107)
(13.1851 -92.1999 294.717)
(4.59326 -80.2737 293.315)
(12.6472 -80.3847 293.33)
(12.4762 -87.6017 286.784)
(4.43068 -87.4833 286.826)
(63.602 -118.12 256.529)
(57.6174 -122.698 277.852)
(54.0966 -115.475 251.504)
(56.5783 -128.711 261.181)
(66.3094 -131.075 268.564)
(66.1407 -130.924 264.34)
(57.9781 -131.586 272.192)
(21.3509 -83.4588 295.628)
(30.009 -92.6838 294.117)
(21.5505 -92.4667 294.676)
(28.5812 -80.1699 290.544)
(20.5929 -80.3415 292.349)
(20.409 -87.4986 285.608)
(28.3609 -87.2199 283.541)
(13.151 -135.264 258.497)
(4.40873 -139.792 274.693)
(13.3847 -147.389 267.137)
(4.4578 -148.278 265.103)
(13.6115 -149.129 266.241)
(4.47588 -134.284 256.817)
(13.5578 -140.264 275.112)
(21.8815 -136.081 259.916)
(31.6288 -140.113 272.778)
(22.4 -147.083 265.994)
(31.9076 -150.406 266.902)
(22.7037 -149.708 266.7)
(30.762 -137.108 261.722)
(22.5899 -140.288 274.302)
(38.086 -84.0515 295.359)
(38.4775 -92.9339 292.883)
(46.9262 -93.2383 290.982)
(36.4041 -79.9154 287.846)
(44.0128 -79.586 284.323)
(36.0933 -86.7711 280.476)
(43.5081 -86.1128 276.349)
(54.9165 -84.8862 292.641)
(63.5657 -93.7179 285.064)
(55.3122 -93.5509 288.417)
(58.2314 -78.2966 274.2)
(51.3309 -79.0991 279.898)
(50.4945 -85.152 270.986)
(56.8966 -83.7332 264.083)
(40.5207 -139.735 270.541)
(41.1966 -151.176 266.654)
(39.9009 -138.403 263.668)
(49.2092 -139.881 265.369)
(48.1884 -144.152 257.401)
(50.4888 -151.954 265.763)
(49.1593 -139.133 267.63)
(30.2554 -101.628 290.273)
(21.7687 -110.174 286.177)
(21.6989 -101.488 291.403)
(20.1067 -93.9345 277.234)
(27.1457 -97.9426 262.772)
(19.5649 -98.8744 266.031)