/*--------------------------------*- C++ -*----------------------------------*\
  =========                 |
  \\      /  F ield         | OpenFOAM: The Open Source CFD Toolbox
   \\    /   O peration     | Website:  https://openfoam.org
    \\  /    A nd           | Version:  9
     \\/     M anipulation  |
\*---------------------------------------------------------------------------*/
FoamFile
{
    format      ascii;
    class       volScalarField;
    location    "0.0028";
    object      alpha.c4;
}
// * * * * * * * * * * * * * * * * * * * * * * * * * * * * * * * * * * * * * //

dimensions      [0 0 0 0 0 0 0];

internalField   nonuniform List<scalar> 
25309
(
2.69817e-23
1.02015e-21
3.6449e-20
1.16846e-18
3.14718e-17
7.03433e-16
2.1806e-14
1.82203e-24
6.81615e-23
2.41679e-21
7.79744e-20
2.20686e-18
5.3015e-17
1.16978e-15
9.75009e-26
3.59153e-24
1.25341e-22
3.99847e-21
1.14102e-19
2.8209e-18
5.86311e-17
4.30989e-27
1.56059e-25
5.34236e-24
1.66924e-22
4.68695e-21
1.15526e-19
2.41672e-18
1.67665e-28
5.96653e-27
2.00329e-25
6.12099e-24
1.67709e-22
4.04197e-21
8.34218e-20
2.04307e-14
1.01441e-15
4.09833e-17
1.42199e-18
4.09179e-11
8.67145e-05
6.18749e-12
8.25168e-15
5.08489e-16
1.90867e-17
0.00075337
7.16995e-07
1.77085e-09
2.31717e-15
1.93981e-16
1.51632e-10
2.59479e-05
0.0029086
0.0150899
6.83577e-12
4.55375e-06
2.95807e-05
0.00476701
0.0272635
7.35096e-15
5.81706e-09
3.4709e-05
0.00017095
0.00191895
4.51801e-31
1.96669e-29
8.08736e-28
3.03762e-26
1.02233e-24
3.00943e-23
7.54417e-22
1.56859e-20
2.69892e-19
1.46618e-29
6.52686e-28
2.7489e-26
1.05834e-24
3.65323e-23
1.10746e-21
2.88051e-20
6.2106e-19
1.13938e-17
4.35628e-28
1.98e-26
8.52734e-25
3.36609e-23
1.20245e-21
3.85481e-20
1.07119e-18
2.36356e-17
2.24584e-16
1.13156e-26
5.23013e-25
2.29572e-23
9.31889e-22
3.51336e-20
1.2178e-18
3.36194e-17
2.37026e-16
3.01412e-15
2.51192e-25
1.17023e-23
5.19277e-22
2.16896e-20
8.7212e-19
3.08681e-17
2.57149e-16
5.3357e-15
1.95745e-12
4.66421e-24
2.15379e-22
9.45875e-21
3.99075e-19
1.68086e-17
2.51482e-16
4.50781e-15
3.43644e-12
3.62882e-07
7.16633e-23
3.20135e-21
1.32462e-19
5.12587e-18
2.24817e-16
1.91269e-15
6.6677e-13
2.47993e-07
0.00445308
9.163e-22
3.97349e-20
1.58184e-18
5.61562e-17
3.80746e-13
3.61802e-07
0.000133047
0.00338918
0.0391201
1.6061e-31
6.81211e-30
2.72396e-28
9.93309e-27
3.24289e-25
9.23597e-24
2.22135e-22
4.36772e-21
6.89825e-20
5.09795e-30
2.20475e-28
9.00414e-27
3.35624e-25
1.11743e-23
3.22545e-22
7.8042e-21
1.529e-19
2.23821e-18
1.47955e-28
6.51381e-27
2.71218e-25
1.03062e-23
3.49067e-22
1.02845e-20
2.61751e-19
5.6669e-18
7.04676e-17
3.74599e-27
1.67179e-25
7.0606e-24
2.72001e-22
9.39412e-21
2.95588e-19
8.96269e-18
1.12124e-16
5.61376e-16
8.08387e-26
3.62377e-24
1.53482e-22
5.92868e-21
2.10757e-19
7.5953e-18
1.16224e-16
1.15796e-15
1.00739e-13
1.45582e-24
6.45687e-23
2.68394e-21
1.00604e-19
3.64006e-18
1.14596e-16
8.65219e-16
1.65228e-13
4.205e-08
2.1731e-23
9.37975e-22
3.71854e-20
1.2733e-18
3.87157e-17
3.05238e-16
3.94033e-14
2.45007e-08
0.00148082
2.70652e-22
1.12974e-20
4.20048e-19
1.20854e-17
7.84416e-15
3.15779e-08
4.49354e-05
0.00112715
0.00412651
2.02192e-32
8.26832e-31
3.18871e-29
1.12131e-27
3.53619e-26
9.78094e-25
2.30657e-23
4.49209e-22
7.05434e-21
6.25403e-31
2.6058e-29
1.02504e-27
3.68173e-26
1.18634e-24
3.34774e-23
8.01557e-22
1.56145e-20
2.40127e-19
1.7747e-29
7.5223e-28
3.01525e-26
1.1059e-24
3.64658e-23
1.0554e-21
2.58232e-20
4.99166e-19
7.18855e-18
4.40705e-28
1.89422e-26
7.71595e-25
2.88613e-23
9.7633e-22
2.91668e-20
7.26054e-19
1.30855e-17
4.9756e-17
9.35859e-27
4.05114e-25
1.66557e-23
6.32252e-22
2.1915e-20
6.69172e-19
1.59296e-17
7.14032e-17
5.16386e-15
1.65976e-25
7.15301e-24
2.92985e-22
1.11501e-20
3.9016e-19
1.1422e-17
6.95112e-17
8.59028e-15
1.64432e-11
2.42174e-24
1.02534e-22
4.11624e-21
1.55158e-19
5.45814e-18
6.64832e-17
2.69258e-15
8.74406e-12
3.44548e-07
2.91075e-23
1.20505e-21
4.6287e-20
1.57688e-18
5.12724e-17
8.3249e-15
1.35116e-13
4.45293e-08
6.21887e-05
2.07928e-33
8.1501e-32
3.01328e-30
1.01688e-28
3.08554e-27
8.25418e-26
1.89891e-24
3.65172e-23
5.72345e-22
6.23742e-32
2.48403e-30
9.34418e-29
3.21144e-27
9.92701e-26
2.70293e-24
6.31159e-23
1.22209e-21
1.89779e-20
1.72275e-30
6.9662e-29
2.66318e-27
9.31567e-26
2.93563e-24
8.16722e-23
1.95017e-21
3.81672e-20
5.80792e-19
4.18595e-29
1.71411e-27
6.64364e-26
2.36188e-24
7.59933e-23
2.17395e-21
5.32806e-20
1.02998e-18
1.40475e-17
8.76318e-28
3.61403e-26
1.41204e-24
5.07875e-23
1.66634e-21
4.88737e-20
1.19204e-18
2.18696e-17
8.08387e-17
1.54553e-26
6.36182e-25
2.4792e-23
8.91746e-22
2.94349e-20
8.55995e-19
1.90489e-17
9.56115e-17
6.2841e-15
2.25429e-25
9.16397e-24
3.50948e-22
1.23757e-20
4.0308e-19
1.12535e-17
6.37362e-17
6.07025e-15
3.92161e-11
2.69488e-24
1.07844e-22
4.03089e-21
1.3796e-19
4.67139e-18
9.75596e-17
1.35178e-14
2.1779e-13
1.37686e-06
1.94197e-34
7.35266e-33
2.62799e-31
8.58633e-30
2.53158e-28
6.62462e-27
1.50669e-25
2.90702e-24
4.64682e-23
5.68487e-33
2.17984e-31
7.9e-30
2.61909e-28
7.83725e-27
2.07954e-25
4.78344e-24
9.28114e-23
1.47741e-21
1.53718e-31
5.96677e-30
2.18999e-28
7.35886e-27
2.23293e-25
6.00834e-24
1.40011e-22
2.73725e-21
4.32723e-20
3.67417e-30
1.44075e-28
5.3439e-27
1.81634e-25
5.58189e-24
1.52465e-22
3.61072e-21
7.09048e-20
1.08291e-18
7.6264e-29
3.00905e-27
1.12278e-25
3.842e-24
1.19152e-22
3.2984e-21
7.88676e-20
1.50082e-18
1.99851e-17
1.34865e-27
5.32147e-26
1.98253e-24
6.76906e-23
2.09774e-21
5.80482e-20
1.34887e-18
2.27279e-17
9.28434e-17
1.99654e-26
7.82675e-25
2.88545e-23
9.70577e-22
2.95345e-20
7.989e-19
1.68895e-17
8.58871e-17
3.97391e-15
2.44015e-25
9.48718e-24
3.4536e-22
1.13968e-20
3.41825e-19
9.56495e-18
1.34702e-16
1.04047e-14
3.26741e-07
1.57156e-35
5.82574e-34
2.04007e-32
6.53906e-31
1.89714e-29
4.91193e-28
1.11494e-26
2.17249e-25
3.55316e-24
4.78474e-23
4.53961e-34
1.70039e-32
6.02271e-31
1.95392e-29
5.74015e-28
1.50456e-26
3.453e-25
6.7808e-24
1.11107e-22
1.4884e-21
1.21405e-32
4.5932e-31
1.64361e-29
5.39043e-28
1.60153e-26
4.24546e-25
9.84489e-24
1.94759e-22
3.19264e-21
4.23694e-20
2.87963e-31
1.09867e-29
3.96511e-28
1.31231e-26
3.93666e-25
1.05417e-23
2.46943e-22
4.9203e-21
8.04751e-20
1.04882e-18
5.96355e-30
2.28813e-28
8.30187e-27
2.76288e-25
8.33838e-24
2.24895e-22
5.311e-21
1.06276e-19
1.72915e-18
2.18263e-17
1.06021e-28
4.07459e-27
1.47906e-25
4.92083e-24
1.48427e-22
4.00401e-21
9.45806e-20
1.88896e-18
3.05367e-17
1.7285e-16
1.59144e-27
6.10144e-26
2.20481e-24
7.28418e-23
2.17584e-21
5.80034e-20
1.35478e-18
2.70039e-17
1.72042e-16
3.71345e-11
1.98347e-26
7.5816e-25
2.72571e-23
8.93174e-22
2.63464e-20
6.94033e-19
1.67798e-17
2.38396e-16
1.85512e-11
1.69671e-07
1.05274e-36
3.84832e-35
1.32944e-33
4.20675e-32
1.20688e-30
3.09933e-29
7.01122e-28
1.37066e-26
2.2655e-25
3.1012e-24
3.01662e-35
1.11274e-33
3.88201e-32
1.24125e-30
3.60016e-29
9.34796e-28
2.137e-26
4.2133e-25
6.99644e-24
9.56763e-23
8.01683e-34
2.98284e-32
1.04972e-30
3.38743e-29
9.91985e-28
2.60121e-26
6.00332e-25
1.19295e-23
1.98806e-22
2.70876e-21
1.89369e-32
7.09761e-31
2.51605e-29
8.18222e-28
2.41564e-26
6.38824e-25
1.4868e-23
2.97451e-22
4.96394e-21
6.70042e-20
3.91792e-31
1.47597e-29
5.25755e-28
1.71829e-26
5.09957e-25
1.35614e-23
3.17426e-22
6.37508e-21
1.06177e-19
1.41312e-18
6.98645e-30
2.63743e-28
9.40751e-27
3.07701e-25
9.13559e-24
2.43001e-22
5.68556e-21
1.13947e-19
1.90378e-18
2.57885e-17
1.05556e-28
3.98225e-27
1.41741e-25
4.61876e-24
1.36373e-22
3.59889e-21
8.32352e-20
1.65357e-18
2.8789e-17
2.01058e-16
1.32699e-27
4.99985e-26
1.77474e-24
5.75575e-23
1.68651e-21
4.39322e-20
9.95825e-19
2.02502e-17
2.12592e-16
8.33693e-16
5.8205e-38
2.10352e-36
7.18487e-35
2.24812e-33
6.38187e-32
1.62399e-30
3.6492e-29
7.10922e-28
1.17609e-26
1.61794e-25
1.65656e-36
6.03519e-35
2.07923e-33
6.56519e-32
1.88144e-30
4.83356e-29
1.09601e-27
2.1515e-26
3.57498e-25
4.91625e-24
4.37836e-35
1.60731e-33
5.57935e-32
1.77557e-30
5.12983e-29
1.32882e-27
3.03726e-26
6.0024e-25
1.00068e-23
1.37246e-22
1.03011e-33
3.80565e-32
1.32933e-30
4.25806e-29
1.23844e-27
3.22988e-26
7.43141e-25
1.4763e-23
2.46352e-22
3.35305e-21
2.12664e-32
7.89169e-31
2.76814e-29
8.90355e-28
2.60022e-26
6.80891e-25
1.57231e-23
3.12833e-22
5.19586e-21
6.94724e-20
3.7911e-31
1.40967e-29
4.95103e-28
1.59345e-26
4.65331e-25
1.21759e-23
2.80551e-22
5.54636e-21
9.06775e-20
1.17551e-18
5.73501e-30
2.13161e-28
7.47426e-27
2.39772e-25
6.96625e-24
1.80905e-22
4.11783e-21
7.96452e-20
1.26059e-18
1.58463e-17
7.21684e-29
2.67954e-27
9.37122e-26
2.99189e-24
8.6253e-23
2.21205e-21
4.92201e-20
9.12067e-19
1.36527e-17
1.22711e-16
2.70238e-39
9.66355e-38
3.26568e-36
1.01074e-34
2.83849e-33
7.14996e-32
1.59202e-30
3.07958e-29
5.07238e-28
6.96977e-27
7.63814e-38
2.75112e-36
9.36738e-35
2.92208e-33
8.27253e-32
2.10039e-30
4.71194e-29
9.16955e-28
1.51525e-26
2.08034e-25
2.00704e-36
7.27704e-35
2.49395e-33
7.83157e-32
2.23212e-30
5.70553e-29
1.28804e-27
2.51892e-26
4.17022e-25
5.70695e-24
4.69892e-35
1.71306e-33
5.90222e-32
1.86341e-30
5.33934e-29
1.3718e-27
3.11087e-26
6.10173e-25
1.00937e-23
1.37052e-22
9.66439e-34
3.53659e-32
1.2227e-30
3.87255e-29
1.11279e-27
2.86567e-26
6.50732e-25
1.27532e-23
2.09679e-22
2.79997e-21
1.71839e-32
6.29819e-31
2.17939e-29
6.90271e-28
1.98155e-26
5.09134e-25
1.15132e-23
2.23812e-22
3.61769e-21
4.67454e-20
2.59404e-31
9.50249e-30
3.28224e-28
1.03592e-26
2.95696e-25
7.53322e-24
1.68177e-22
3.20046e-21
4.98331e-20
6.07309e-19
3.25501e-30
1.19073e-28
4.10052e-27
1.28716e-25
3.64204e-24
9.15281e-23
1.99916e-21
3.6611e-20
5.31939e-19
5.70347e-18
1.11327e-40
3.93962e-39
1.31716e-37
4.03139e-36
1.11926e-34
2.7873e-33
6.13989e-32
1.17647e-30
1.92365e-29
2.63115e-28
3.12292e-39
1.11226e-37
3.74294e-36
1.15325e-34
3.22355e-33
8.08048e-32
1.79059e-30
3.44674e-29
5.64797e-28
7.71532e-27
8.1502e-38
2.91979e-36
9.87968e-35
3.06072e-33
8.60088e-32
2.16691e-30
4.82325e-29
9.31304e-28
1.52664e-26
2.07741e-25
1.89642e-36
6.8264e-35
2.31999e-33
7.21768e-32
2.03613e-30
5.14739e-29
1.14867e-27
2.21974e-26
3.62974e-25
4.89946e-24
3.87972e-35
1.40104e-33
4.77418e-32
1.48857e-30
4.20595e-29
1.06396e-27
2.37265e-26
4.57119e-25
7.41855e-24
9.85981e-23
6.86686e-34
2.48293e-32
8.46384e-31
2.63728e-29
7.43735e-28
1.87471e-26
4.15593e-25
7.93038e-24
1.26604e-22
1.63574e-21
1.03221e-32
3.72984e-31
1.26876e-29
3.93803e-28
1.1037e-26
2.75661e-25
6.02958e-24
1.12758e-22
1.74387e-21
2.14779e-20
1.28882e-31
4.64929e-30
1.57602e-28
4.86274e-27
1.35018e-25
3.32484e-24
7.11939e-23
1.28832e-21
1.89144e-20
2.16466e-19
2.55145e-15
4.2499e-16
5.43088e-17
6.08315e-18
1.86019e-16
1.50676e-13
1.82846e-11
7.85931e-06
8.52382e-05
1.00687e-20
4.93474e-19
2.65002e-17
8.97253e-16
3.45866e-12
1.44283e-06
0.000267575
0.00601965
0.060893
8.07877e-20
3.55911e-18
1.28652e-16
1.61113e-15
1.86527e-13
1.70553e-07
0.00018983
0.128304
3.72725e-19
1.51562e-17
6.01523e-16
1.55545e-14
2.89425e-11
9.89054e-06
0.0015005
0.163742
9.30996e-19
4.16669e-17
1.97578e-15
2.50446e-11
1.10976e-05
0.00181533
0.0475475
9.85115e-19
4.74109e-17
2.74251e-21
1.15382e-19
4.63121e-18
1.79668e-16
1.64088e-13
1.82292e-07
9.26035e-05
0.00186041
0.0117729
2.17514e-20
9.83476e-19
3.78557e-17
5.81243e-16
4.97891e-14
9.33236e-09
5.44916e-05
0.0222375
1.11547e-19
4.26282e-18
1.26481e-16
2.04586e-15
1.27804e-12
1.34348e-06
0.000474529
0.0277622
2.83813e-19
1.10645e-17
3.91767e-16
6.01577e-12
4.29596e-08
8.77386e-05
0.00186698
0.0109563
2.8618e-19
1.11024e-17
2.84005e-22
1.18061e-20
4.55633e-19
1.45341e-17
1.89698e-16
3.79299e-14
1.03277e-12
3.70156e-05
1.61042e-05
2.01184e-21
8.22694e-20
3.09756e-18
1.05022e-16
1.47351e-15
3.17453e-12
7.66213e-07
0.00015022
1.03909e-20
4.22853e-19
1.8319e-17
4.29217e-16
2.33162e-14
8.88326e-10
1.22753e-05
0.00213482
2.97566e-20
1.2896e-18
5.42549e-17
1.38699e-15
2.49641e-12
8.52708e-07
0.00017151
0.00418128
3.48599e-20
1.46217e-18
2.59422e-23
1.03544e-21
3.85016e-20
1.25574e-18
3.33119e-17
3.68827e-16
7.36512e-14
1.55406e-05
3.13908e-06
1.85889e-22
7.29007e-21
2.67955e-19
9.87466e-18
1.89304e-16
4.78185e-15
6.18065e-11
7.83075e-05
0.000155327
9.52129e-22
3.76154e-20
1.43966e-18
5.03475e-17
6.28679e-16
4.66927e-14
1.43164e-08
0.000223532
2.90307e-21
1.15401e-19
4.26685e-18
1.26691e-16
1.16538e-13
1.07799e-07
7.62784e-05
0.00200622
4.03242e-21
1.61933e-19
2.40661e-24
9.34598e-23
3.39855e-21
1.11079e-19
3.13784e-18
7.19091e-17
6.06517e-16
4.49917e-14
8.89559e-07
1.80036e-23
6.96041e-22
2.51547e-20
8.41132e-19
2.75858e-17
3.51416e-16
1.01638e-14
8.19424e-09
7.84079e-07
9.44986e-23
3.68804e-21
1.38143e-19
4.81226e-18
1.36325e-16
1.41696e-15
1.11153e-13
3.13979e-08
3.03347e-22
1.19761e-20
4.5208e-19
1.52771e-17
4.14779e-16
1.03045e-14
1.90802e-11
2.66368e-06
4.44675e-22
1.73826e-20
6.41443e-19
2.06373e-17
5.283e-16
8.30797e-13
2.18535e-07
2.82518e-06
2.00179e-25
7.66278e-24
2.75974e-22
9.05535e-21
2.66111e-19
6.79172e-18
1.40117e-16
9.44362e-16
1.77178e-10
5.73425e-07
1.5454e-24
5.93595e-23
2.14086e-21
7.04565e-20
2.15263e-18
6.2806e-17
6.82306e-16
1.26196e-13
1.72741e-07
7.66871e-07
8.3696e-24
3.25217e-22
1.204e-20
4.14383e-19
1.26279e-17
2.89924e-16
2.63067e-15
4.35942e-13
2.70924e-23
1.06014e-21
3.96022e-20
1.35366e-18
3.99721e-17
9.60226e-16
1.56844e-14
2.10289e-10
3.96248e-23
1.52855e-21
5.55772e-20
1.80428e-18
4.95042e-17
1.15084e-15
6.57126e-12
6.03565e-07
1.3514e-26
5.1035e-25
1.8151e-23
5.89438e-22
1.7285e-20
4.4998e-19
1.00052e-17
1.72987e-16
6.54027e-16
9.29359e-09
1.05603e-25
4.01457e-24
1.4361e-22
4.67986e-21
1.38234e-19
3.73804e-18
8.90359e-17
1.00874e-15
5.8177e-14
4.10638e-08
5.80334e-25
2.23294e-23
8.13489e-22
2.73445e-20
8.32092e-19
2.13267e-17
4.05548e-16
3.07554e-15
1.87676e-24
7.24762e-23
2.66037e-21
8.96463e-20
2.68356e-18
6.77011e-17
1.46382e-15
9.76782e-12
2.72924e-24
1.04117e-22
3.75308e-21
1.22613e-19
3.50923e-18
8.54913e-17
1.91519e-15
1.21839e-11
7.34595e-28
2.7323e-26
9.56444e-25
3.05129e-23
8.76917e-22
2.235e-20
4.90717e-19
8.65094e-18
1.04008e-16
2.68488e-16
5.73599e-27
2.14808e-25
7.56817e-24
2.42465e-22
6.97521e-21
1.7827e-19
4.00539e-18
7.55605e-17
7.15032e-16
1.14827e-13
3.15371e-26
1.19451e-24
4.2636e-23
1.3917e-21
4.10923e-20
1.06353e-18
2.23607e-17
3.41092e-16
1.02023e-25
3.8677e-24
1.3875e-22
4.55722e-21
1.3424e-19
3.40396e-18
7.03196e-17
1.14426e-15
1.48463e-25
5.5698e-24
1.97377e-22
6.369e-21
1.82717e-19
4.48708e-18
9.06347e-17
1.45784e-15
3.29661e-29
1.2068e-27
4.15386e-26
1.30046e-24
3.65732e-23
9.08698e-22
1.94544e-20
3.42494e-19
4.5318e-18
4.10937e-17
2.55601e-28
9.40859e-27
3.25552e-25
1.02265e-23
2.87426e-22
7.09355e-21
1.50137e-19
2.63149e-18
3.77106e-17
3.16391e-16
1.39519e-27
5.18686e-26
1.81226e-24
5.75221e-23
1.63826e-21
4.10563e-20
8.71073e-19
1.46939e-17
4.52572e-27
1.68057e-25
5.88273e-24
1.87592e-22
5.36331e-21
1.33632e-19
2.77134e-18
4.53756e-17
6.62262e-27
2.43704e-25
8.45207e-24
2.66578e-22
7.50841e-21
1.83213e-19
3.69783e-18
5.81996e-17
1.29622e-30
4.67396e-29
1.58153e-27
4.85957e-26
1.33878e-24
3.25264e-23
6.81179e-22
1.1886e-20
1.64229e-19
1.73461e-18
9.96671e-30
3.60228e-28
1.22291e-26
3.76375e-25
1.0349e-23
2.49369e-22
5.12979e-21
8.6925e-20
1.16531e-18
1.20267e-17
5.38177e-29
1.96075e-27
6.70569e-26
2.0761e-24
5.73216e-23
1.385e-21
2.8495e-20
4.79583e-19
1.75259e-28
6.3716e-27
2.1777e-25
6.75029e-24
1.86815e-22
4.51389e-21
9.20486e-20
1.51943e-18
2.58491e-28
9.32558e-27
3.16378e-25
9.73189e-24
2.66989e-22
6.37978e-21
1.28179e-19
2.07529e-18
0.000463171
0.0039222
1.75828e-05
1.0469e-05
0.000436344
5.82303e-06
0.000190057
5.30669e-05
0.000538539
8.99745e-05
0.000768945
1.3015e-13
2.40972e-06
1.70249e-10
2.43609e-05
3.38634e-07
4.39604e-05
1.88111e-15
3.01105e-11
3.15185e-15
1.72121e-09
1.50635e-14
7.92805e-09
1.91468e-16
1.80763e-15
5.77865e-16
4.35611e-15
6.77246e-16
3.99809e-15
6.35817e-18
7.4452e-17
2.01462e-17
2.42166e-16
2.68316e-17
2.97189e-16
0.00386522
0.0596311
0.26131
0.101474
0.0353779
0.0821977
0.0166513
0.0369754
0.0142054
0.00102988
0.00372701
0.0039458
0.0242531
0.000505499
0.00407438
0.0240669
0.000323451
0.00270144
0.000500006
0.004042
0.0163187
0.00278436
0.00594741
0.0353771
0.0115254
0.0115209
0.00309827
0.0259762
0.0336299
0.0239154
0.0115663
0.00598309
0.0498716
0.160333
0.0206886
0.0495555
0.00308416
0.0259339
0.0320555
0.0266502
0.0139909
0.0220622
0.00244448
0.0473614
0.00629265
0.0447441
0.0243525
0.0033664
0.0190313
0.0117456
0.00262553
4.38759e-05
0.000435842
0.000222392
0.00121473
0.0114691
0.00128145
0.0227118
0.0028915
0.0115291
0.00861905
0.0188328
0.00085417
0.00199722
0.238037
0.232299
0.210408
0.200747
0.182854
0.156859
0.172738
0.00802795
0.0043234
0.000810789
0.00810317
0.0044631
0.000401079
0.00176801
0.00327948
0.00123619
0.000373713
0.0103466
0.0221675
0.00145735
0.00238334
0.00802321
0.00446046
0.000396783
0.00175643
0.00217871
0.00132488
0.00026147
0.140887
0.123156
0.108949
0.11843
0.105238
0.0763992
0.0852646
0.00860991
0.0706286
0.0512008
0.0485947
0.00419027
0.00718799
0.065681
0.176846
0.0871662
0.154345
0.0796527
0.136821
0.116714
0.0675201
0.0225733
0.0127874
0.0233482
0.0146783
0.0132016
0.00811689
0.00788115
0.0239564
0.015298
0.0150815
0.0137064
0.0135348
0.00832517
0.00844412
0.0753019
0.0383379
0.0825432
0.0601358
0.0551671
0.0254921
0.0271295
0.0688571
0.0341211
0.0707566
0.0521008
0.0529062
0.0249468
0.024749
0.147274
0.199147
0.179564
0.128605
0.110847
0.100476
0.14189
0.00417074
0.00716622
0.065519
0.00540845
0.0528537
0.00316617
0.0396629
0.0230318
0.0152053
0.0146143
0.0136104
0.0130573
0.00839321
0.00807217
0.0959427
0.0405914
0.0759129
0.0401944
0.0741628
0.0553257
0.0312221
0.065415
0.0331191
0.0675151
0.0514993
0.0503872
0.0245264
0.0239689
0.0016999
0.00182631
0.00447625
0.00614222
0.000186337
0.00097168
0.000611695
0.106765
0.0729925
0.130549
0.0954899
0.0435307
0.074831
0.0551862
0.0204869
0.0105403
0.0130999
0.00932529
0.0116585
0.00723682
0.00581712
0.029927
0.061579
0.0557253
0.0438533
0.0479744
0.0226782
0.020489
0.0176417
0.00667403
0.00368712
0.00108991
0.00804592
0.000692008
0.00643989
0.0549813
0.0893354
0.0797556
0.0523605
0.0371043
0.0340077
0.0578332
0.00333059
0.000635464
0.000397595
0.00372381
0.0285449
0.00207956
0.0206413
0.115408
0.0953075
0.0859742
0.0821338
0.0746226
0.0526909
0.057728
0.0175303
0.00428642
0.043632
0.00087893
0.00894496
0.00251399
0.0329546
0.137502
0.0759185
0.125763
0.103879
0.0654005
0.0605045
0.113621
0.0803805
0.0454264
0.0722914
0.0491949
0.0318242
0.0292947
0.0541788
0.0485205
0.0410315
0.018799
0.0383542
0.0322818
0.0176534
0.0146567
0.000319493
7.81989e-06
0.000195066
0.000154961
0.000627139
7.8997e-05
1.20773e-05
3.448e-05
0.00186012
0.000208724
1.09921e-05
0.00021675
0.000920449
0.000209014
0.000779534
8.18936e-05
0.000312251
0.000128268
0.000201497
3.83371e-06
7.98421e-06
0.000327027
8.32271e-06
0.000200784
0.00078095
0.000333012
0.000203727
8.40751e-06
0.00991257
0.0186057
0.0185397
0.00837336
0.00833106
0.0148668
0.00677761
0.0174667
0.0114035
0.0181056
0.00743418
0.0126806
0.0123424
0.00719522
0.000388666
0.000977863
0.00101109
0.000405709
0.00104576
4.37732e-05
0.000184117
0.00058311
2.34256e-05
0.000289263
0.000106004
0.00020011
2.85738e-06
4.83187e-05
5.10408e-06
0.000131698
0.000213398
0.00091895
0.000618031
0.000130962
0.000206765
0.00777348
0.00394494
0.00798828
0.00432055
0.00205278
0.00421921
0.0020896
0.057327
0.0593589
0.0957314
0.0791072
0.0297365
0.047497
0.0474345
0.00402402
0.00830228
0.00818629
0.00441844
0.00215354
0.00448009
0.00212768
0.0186613
0.011625
0.0194393
0.0128994
0.00751222
0.0132549
0.00747414
0.0183208
0.0115172
0.0184223
0.0128052
0.00749054
0.00747884
0.0127748
0.0408203
0.0319761
0.0572526
0.0391147
0.0161866
0.0262325
0.0230862
0.034428
0.0301945
0.0528594
0.0369987
0.0142229
0.0228042
0.0220198
0.0840228
0.0363647
0.0633065
0.0330777
0.0560542
0.0401141
0.0241648
0.00729596
0.00747397
0.00657583
0.00477093
0.00418629
0.0041162
0.00261777
0.0164891
0.00110305
0.00211965
0.001876
0.0162169
0.000238643
0.00235329
0.0418196
0.0261487
0.0390986
0.0180708
0.0124948
0.0188097
0.0122413
0.0340225
0.0124072
0.015335
0.0209094
0.026344
0.0118649
0.009414
0.0160236
0.000235339
0.00233996
0.00176093
0.0135131
0.000162523
0.00146128
0.0814047
0.0661402
0.0492621
0.0329253
0.0606539
0.0456883
0.0889726
0.00824871
0.00387465
0.00792833
0.00213516
0.00444945
0.00427271
0.00204252
0.0379903
0.0259475
0.0382176
0.01789
0.0122578
0.012225
0.0178511
0.0377855
0.0255479
0.0371847
0.0122365
0.0177749
0.017469
0.0120408
0.00021822
0.00191991
0.000459177
0.00199384
0.000207244
0.000220829
8.13174e-06
0.00701578
0.00381764
0.00721708
0.00430027
0.00214106
0.00419244
0.00218723
0.00389731
0.00747907
0.00738559
0.00440006
0.00226216
0.0022321
0.00446165
0.00842381
0.00996175
0.0160982
0.0115401
0.00570705
0.0102109
0.006628
0.0670162
0.0409064
0.0607877
0.0355051
0.0247703
0.0229644
0.0386371
0.00206527
0.000940206
0.000238681
0.00040269
0.00247883
4.37843e-05
0.000294046
0.000204257
0.000134578
0.00137715
0.000217631
7.75838e-06
0.000127418
3.73559e-06
0.00743078
0.00377261
0.00714126
0.00224856
0.00443482
0.00426502
0.00216056
0.0621885
0.0284069
0.0261746
0.0227338
0.0466447
0.0360618
0.0374878
0.0243521
0.0325115
0.0355577
0.0166319
0.0103252
0.0150915
0.0114474
0.0357982
0.0239295
0.0222208
0.0227363
0.0211293
0.0126745
0.0134464
0.0151441
0.00547965
0.00690798
0.00831932
0.0114141
0.00531327
0.00396746
9.65499e-05
0.000328058
0.000177157
0.000395726
0.000603051
0.000122864
0.000223359
0.00346266
0.00573958
0.00711328
0.00382205
0.00144873
0.00306739
0.00181606
0.0318315
0.0212424
0.0109176
0.0195019
0.0197603
0.018169
0.0346634
0.00441056
0.00169706
0.00287526
0.00149526
0.00252425
0.00156763
0.000916987
0.00666047
0.00506243
0.00920429
0.00460614
0.00856143
0.00691687
0.00356762
0.0652447
0.0666153
0.0617321
0.0312567
0.0345102
0.0332153
0.0323301
0.0610743
0.0655952
0.0609429
0.0312722
0.0334264
0.0315335
0.0331753
0.00291591
0.000963376
0.0118634
0.000107031
0.00164528
0.000562537
0.00616667
0.000225406
0.00021054
2.04286e-05
0.00114313
0.0032054
0.000116195
0.000707084
0.00993994
0.0173765
0.0161129
0.00783276
0.0120116
0.00730786
0.00552143
0.00475673
0.00138986
0.0112931
3.47903e-05
0.000471026
0.00012235
0.001182
0.000257069
1.02965e-05
5.57383e-05
2.19263e-07
4.36209e-05
0.000125583
2.28069e-06
0.00337506
0.00511671
0.0063883
0.00381782
0.0015376
0.00192804
0.00305896
0.0468097
0.0227675
0.0430971
0.0293104
0.016112
0.0151495
0.0316573
0.0268542
0.0312952
0.0455329
0.0274948
0.0114914
0.018135
0.0169733
0.0282288
0.0151869
0.0233481
0.00877017
0.0129846
0.0106657
0.00705197
0.00797377
0.0058565
0.00594055
0.00485086
0.00487781
0.00341298
0.00337488
0.00807708
0.00603414
0.0060025
0.00492284
0.00490528
0.00344322
0.00346107
0.014481
0.00482285
0.00660359
0.00735708
0.0109437
0.00509701
0.00350807
0.00466607
0.00193717
0.00390276
0.00189564
0.00385784
0.00313829
0.00151533
0.0609544
0.0639993
0.0596013
0.0333743
0.0314899
0.0306879
0.0324944
1.21617e-05
1.2793e-05
2.26033e-05
3.62746e-06
7.75177e-06
2.83316e-05
1.52622e-05
7.31661e-06
1.20348e-05
6.37296e-05
8.21197e-05
4.32711e-05
8.87926e-07
1.12476e-05
3.87385e-05
8.02409e-08
5.52133e-08
8.4354e-08
6.64944e-08
4.10911e-07
4.84518e-07
1.74278e-06
3.59298e-07
4.22967e-07
1.54773e-06
2.82904e-07
2.38935e-07
1.09294e-06
3.85445e-08
2.78388e-07
3.07281e-09
8.57927e-10
2.1344e-07
5.0953e-08
5.69948e-12
1.08579e-08
9.76506e-14
1.24826e-10
2.34228e-09
5.00026e-09
5.0166e-08
4.67476e-08
2.22092e-12
1.1918e-11
2.40946e-11
5.14397e-09
3.40899e-10
4.69445e-10
6.63935e-17
2.43498e-18
8.46388e-20
7.34198e-18
3.01441e-19
1.11454e-20
7.9307e-07
1.58772e-06
9.46354e-07
4.77725e-06
4.46844e-06
9.36449e-06
2.04499e-06
9.91982e-06
3.06557e-05
1.75393e-05
1.88045e-05
2.46442e-08
5.19624e-07
2.51888e-07
2.57255e-06
1.36367e-07
2.51996e-07
9.016e-07
1.51903e-06
2.52353e-06
5.89958e-06
9.94219e-12
2.99174e-07
7.61859e-16
6.26641e-17
3.31823e-06
2.44995e-07
3.17305e-08
2.58506e-08
1.3959e-07
2.37475e-07
6.597e-08
1.20285e-06
7.42441e-07
1.94741e-06
3.93848e-07
9.06709e-11
3.16187e-08
6.80377e-14
3.76018e-12
7.37337e-09
8.44101e-15
7.03488e-12
1.26626e-12
1.56664e-08
2.07641e-09
1.64946e-08
4.27052e-10
1.95762e-08
2.45437e-07
3.02108e-09
5.62166e-09
6.61677e-08
8.17321e-10
1.00895e-07
4.43421e-08
3.98383e-08
1.89713e-07
6.0319e-09
2.05955e-07
1.87961e-06
6.71165e-07
7.3516e-07
7.41128e-10
1.36708e-11
3.33726e-15
1.00105e-15
6.91294e-15
7.16994e-13
3.59118e-16
3.30358e-15
9.2013e-16
9.65381e-11
4.87988e-16
3.51745e-17
1.19162e-18
1.45336e-07
3.8254e-13
9.25581e-17
3.32118e-16
4.25767e-18
1.36588e-17
1.6538e-19
1.27674e-05
5.84495e-07
9.10287e-08
4.22002e-06
3.87616e-11
1.33748e-08
1.15909e-19
4.02341e-18
1.14527e-20
2.0882e-20
1.72881e-20
2.41209e-19
8.06769e-19
1.40834e-19
6.13328e-19
9.89367e-17
2.71779e-15
9.9734e-18
2.72157e-17
4.97043e-18
2.20592e-17
2.47344e-16
1.36215e-16
2.16851e-15
3.4583e-16
1.99321e-11
2.6819e-15
8.51642e-23
3.20231e-21
9.02084e-23
2.05838e-21
2.87413e-25
4.37247e-26
7.39876e-26
1.56545e-26
3.96157e-22
2.92772e-23
9.6191e-23
1.03292e-20
4.2936e-24
5.84697e-23
1.31393e-21
1.10828e-20
2.89367e-21
2.03522e-21
8.86928e-22
1.75934e-25
4.9458e-26
1.72322e-25
1.02443e-26
2.17728e-25
1.44022e-26
1.23799e-25
5.73802e-26
7.00384e-26
5.37746e-27
1.32802e-26
6.55124e-26
6.19586e-26
4.55409e-27
1.54657e-21
4.58798e-22
6.52614e-22
1.14446e-20
4.62801e-20
7.18675e-20
1.40721e-20
2.32753e-22
2.71095e-22
9.7024e-23
2.43042e-23
2.52551e-23
9.66075e-24
4.26224e-23
1.68451e-20
4.1973e-21
1.31351e-20
1.21965e-25
3.82466e-26
8.09178e-27
4.31592e-25
2.48908e-25
6.39937e-26
1.20464e-25
6.30051e-26
1.52206e-26
2.26274e-26
4.45691e-27
3.96075e-26
5.40498e-26
1.13559e-25
3.24112e-26
5.30286e-26
4.89663e-27
1.20533e-27
1.2589e-26
1.62387e-26
2.90803e-26
1.64866e-27
6.74473e-27
1.51512e-26
2.7593e-28
2.5988e-27
3.33085e-27
5.92929e-27
3.7259e-28
1.80359e-27
2.94914e-27
3.21949e-27
7.47902e-26
2.10233e-26
3.07142e-26
2.69912e-26
3.22567e-26
2.71542e-27
7.41309e-28
1.788e-26
3.86183e-27
8.00189e-27
3.96801e-27
8.57635e-27
6.62171e-28
3.62208e-24
7.48239e-23
7.04037e-23
6.66459e-23
1.01868e-23
4.74318e-24
5.74162e-24
7.63235e-24
8.99068e-18
4.81415e-19
1.84463e-17
1.23709e-17
1.47468e-16
3.54475e-18
9.51156e-17
9.14522e-19
4.4085e-19
9.38062e-19
7.18643e-20
4.27251e-19
1.50861e-17
1.05833e-19
6.87337e-20
8.41173e-20
4.70341e-19
1.8464e-18
1.0593e-23
7.26427e-22
1.0363e-22
1.62627e-22
7.41615e-22
4.60402e-23
9.34743e-24
1.62969e-13
2.64567e-16
4.87396e-12
7.16981e-12
2.23723e-10
1.52406e-13
1.72083e-10
4.9667e-15
5.4872e-15
2.04185e-13
8.42914e-14
1.38918e-16
2.15422e-18
1.67009e-13
6.81577e-14
5.08032e-13
6.56601e-13
2.54998e-13
3.70381e-13
4.15981e-14
1.40428e-13
9.42657e-14
5.13634e-15
4.0321e-14
6.99401e-14
1.54562e-13
3.63488e-14
6.79132e-14
5.48062e-15
3.14247e-15
9.48153e-14
1.43535e-14
3.2421e-14
2.53328e-14
3.54543e-14
2.37036e-15
9.4647e-16
6.3119e-15
2.03218e-14
3.28962e-14
1.27843e-15
3.07861e-15
1.88923e-14
1.68768e-14
2.61553e-13
4.57303e-15
5.3318e-14
1.26328e-16
5.95412e-16
1.93057e-18
1.99903e-17
4.88373e-18
1.5844e-16
7.88307e-17
2.24859e-15
1.0802e-15
5.12377e-16
4.58875e-16
2.64328e-16
3.04969e-16
1.53585e-14
8.32837e-15
9.56871e-15
3.54079e-17
5.37218e-18
5.48456e-16
8.18129e-17
5.53474e-15
1.17854e-16
1.11748e-16
2.09527e-17
4.1605e-17
3.26527e-15
8.78296e-16
3.59656e-14
9.67282e-16
1.98531e-14
1.27494e-18
1.17869e-19
1.59203e-17
1.16103e-15
1.437e-18
3.80421e-18
5.47946e-18
4.41092e-19
1.99624e-18
4.13173e-15
1.55812e-16
4.41868e-15
1.34837e-17
4.89764e-17
4.85574e-16
2.59517e-20
1.46571e-19
2.7218e-19
2.16673e-18
7.50278e-20
2.19816e-19
2.43789e-20
1.17709e-19
3.94357e-18
3.90659e-17
1.07699e-18
2.05568e-18
8.52933e-18
3.6618e-12
6.37734e-13
8.80025e-14
1.16618e-18
6.82184e-16
1.99014e-17
1.67714e-17
4.37375e-16
3.11925e-18
1.36758e-17
6.01532e-17
1.536e-16
1.2995e-17
5.92906e-17
3.25127e-18
1.97775e-18
8.7211e-17
6.86351e-18
3.13471e-17
8.3272e-18
3.30946e-17
1.6902e-18
5.50538e-16
1.3795e-16
6.04011e-15
2.19757e-15
1.31649e-16
5.89129e-15
5.80903e-16
3.39393e-16
1.16247e-15
6.63884e-17
2.85681e-15
7.98297e-17
3.12663e-15
2.70589e-16
5.51018e-19
3.14671e-18
1.28441e-17
2.98329e-17
7.37961e-19
2.22748e-18
1.1672e-17
1.60471e-19
6.91065e-18
4.06638e-19
2.08757e-18
6.70686e-19
2.47739e-18
1.05269e-19
9.72056e-17
3.16814e-17
1.54228e-15
5.02634e-16
1.3407e-16
2.39372e-17
1.38302e-15
2.61578e-17
1.00277e-16
3.65256e-18
1.31575e-16
6.26145e-18
2.97971e-16
9.5237e-18
2.36701e-16
8.6345e-15
3.76767e-16
1.30493e-15
8.72824e-16
4.3416e-15
7.315e-17
2.01494e-20
1.18956e-19
4.77489e-19
9.64658e-19
3.04207e-20
7.42524e-20
4.00971e-19
4.67873e-21
1.72464e-19
9.47778e-21
4.93779e-20
1.81986e-20
6.4738e-20
2.69089e-21
1.72682e-18
9.66727e-19
3.68028e-17
1.31712e-17
3.33321e-18
6.37423e-19
2.43144e-17
1.42024e-17
1.18209e-16
4.48369e-16
6.21284e-16
2.77362e-17
5.06847e-17
3.25462e-16
4.51952e-19
1.94765e-18
7.24323e-20
2.20071e-18
1.37845e-19
4.62643e-18
1.71882e-19
5.13829e-22
2.48363e-21
1.05091e-20
1.94805e-20
7.00513e-22
2.29007e-21
8.57463e-21
1.98654e-21
1.0307e-20
2.15725e-18
9.46681e-21
4.02141e-20
2.76779e-21
1.01548e-19
1.70993e-19
1.77461e-20
5.80385e-19
2.2025e-19
5.80388e-20
2.33096e-20
3.55761e-19
7.3186e-18
1.57317e-19
3.17243e-17
2.56336e-17
6.0266e-19
1.06997e-18
3.73327e-16
9.78851e-13
1.48996e-10
2.05579e-13
6.04235e-13
8.49043e-12
1.85178e-11
3.27598e-14
6.84243e-17
4.92887e-15
2.11142e-15
1.78995e-14
1.19383e-16
1.01553e-15
5.42787e-16
9.16254e-20
2.04604e-20
4.49503e-19
7.67173e-18
1.03882e-17
1.0199e-18
3.08002e-18
4.79447e-17
9.81355e-20
2.15227e-18
2.78795e-18
1.69241e-17
1.21363e-18
2.4564e-15
6.88644e-16
1.93867e-16
2.87419e-17
7.7646e-15
2.438e-16
1.00146e-16
1.45362e-17
2.88113e-16
3.18981e-18
1.38429e-16
1.54555e-19
1.05596e-17
5.41083e-21
5.70191e-19
6.88215e-20
1.58362e-18
9.62526e-19
2.79527e-19
4.64053e-17
8.65882e-18
4.09955e-17
2.58558e-20
7.50501e-21
3.50654e-19
8.52133e-20
9.25146e-20
3.47248e-20
1.63108e-17
8.33737e-19
1.24872e-17
2.06003e-21
6.14009e-22
2.06107e-20
3.86378e-21
6.59848e-21
3.05136e-21
1.13499e-18
3.3609e-20
7.42632e-19
1.62868e-22
9.08625e-22
6.18356e-22
6.63452e-20
1.58166e-21
7.21577e-20
5.25563e-21
3.04802e-20