/*--------------------------------*- C++ -*----------------------------------*\
  =========                 |
  \\      /  F ield         | OpenFOAM: The Open Source CFD Toolbox
   \\    /   O peration     | Website:  https://openfoam.org
    \\  /    A nd           | Version:  9
     \\/     M anipulation  |
\*---------------------------------------------------------------------------*/
FoamFile
{
    format      ascii;
    class       volScalarField;
    location    "0.0028";
    object      rho.c4;
}
// * * * * * * * * * * * * * * * * * * * * * * * * * * * * * * * * * * * * * //

dimensions      [1 -3 0 0 0 0 0];

internalField   nonuniform List<scalar> 
25309
(
2.22045e-16
2.22045e-16
2.22045e-16
2.22045e-16
2.22045e-16
5.66824e-14
1.93636e-07
2.22045e-16
2.22045e-16
2.22045e-16
2.22045e-16
2.22045e-16
2.22045e-16
1.2137e-12
2.22045e-16
2.22045e-16
2.22045e-16
2.22045e-16
2.22045e-16
2.22045e-16
2.22045e-16
2.22045e-16
2.22045e-16
2.22045e-16
2.22045e-16
2.22045e-16
2.22045e-16
2.22045e-16
2.22045e-16
2.22045e-16
2.22045e-16
2.22045e-16
2.22045e-16
2.22045e-16
2.22045e-16
6.56184e-08
2.82293e-13
2.22045e-16
2.22045e-16
31.9911
11.3899
2.47194
1.63659e-08
3.2467e-14
2.22045e-16
5.10967
53.4011
56.2747
5.10422e-10
4.54612e-16
33.8702
18.8757
3.65387
2.85412
2.10398
29.2154
18.066
3.48411
2.86355
4.64623e-09
70.6519
22.0276
12.9576
4.84619
2.22045e-16
2.22045e-16
2.22045e-16
2.22045e-16
2.22045e-16
2.22045e-16
2.22045e-16
2.22045e-16
2.22045e-16
2.22045e-16
2.22045e-16
2.22045e-16
2.22045e-16
2.22045e-16
2.22045e-16
2.22045e-16
2.22045e-16
2.22045e-16
2.22045e-16
2.22045e-16
2.22045e-16
2.22045e-16
2.22045e-16
2.22045e-16
2.22045e-16
2.22045e-16
3.73027e-13
2.22045e-16
2.22045e-16
2.22045e-16
2.22045e-16
2.22045e-16
2.22045e-16
2.22045e-16
3.05173e-13
8.15825e-11
2.22045e-16
2.22045e-16
2.22045e-16
2.22045e-16
2.22045e-16
2.22045e-16
1.57828e-13
5.3497e-10
0.27629
2.22045e-16
2.22045e-16
2.22045e-16
2.22045e-16
2.22045e-16
1.03585e-12
3.08089e-10
1.27167
88.9458
2.22045e-16
2.22045e-16
2.22045e-16
2.22045e-16
3.45651e-13
1.34426e-10
0.0229992
92.7185
4.29268
2.22045e-16
2.22045e-16
2.22045e-16
2.22045e-16
0.00725224
67.4082
10.1973
4.46019
2.70156
2.22045e-16
2.22045e-16
2.22045e-16
2.22045e-16
2.22045e-16
2.22045e-16
2.22045e-16
2.22045e-16
2.22045e-16
2.22045e-16
2.22045e-16
2.22045e-16
2.22045e-16
2.22045e-16
2.22045e-16
2.22045e-16
2.22045e-16
2.22045e-16
2.22045e-16
2.22045e-16
2.22045e-16
2.22045e-16
2.22045e-16
2.22045e-16
2.22045e-16
2.22045e-16
5.76369e-16
2.22045e-16
2.22045e-16
2.22045e-16
2.22045e-16
2.22045e-16
2.22045e-16
2.22045e-16
1.43084e-14
6.82776e-13
2.22045e-16
2.22045e-16
2.22045e-16
2.22045e-16
2.22045e-16
2.22045e-16
5.55836e-15
2.18971e-12
6.96822e-05
2.22045e-16
2.22045e-16
2.22045e-16
2.22045e-16
2.22045e-16
4.55871e-14
2.19434e-12
0.000308683
110.986
2.22045e-16
2.22045e-16
2.22045e-16
2.22045e-16
2.22045e-16
1.90873e-12
5.63189e-06
107.718
5.67003
2.22045e-16
2.22045e-16
2.22045e-16
2.22045e-16
1.42298e-07
76.9298
14.9907
5.90247
4.63349
2.22045e-16
2.22045e-16
2.22045e-16
2.22045e-16
2.22045e-16
2.22045e-16
2.22045e-16
2.22045e-16
2.22045e-16
2.22045e-16
2.22045e-16
2.22045e-16
2.22045e-16
2.22045e-16
2.22045e-16
2.22045e-16
2.22045e-16
2.22045e-16
2.22045e-16
2.22045e-16
2.22045e-16
2.22045e-16
2.22045e-16
2.22045e-16
2.22045e-16
2.22045e-16
2.22045e-16
2.22045e-16
2.22045e-16
2.22045e-16
2.22045e-16
2.22045e-16
2.22045e-16
2.22045e-16
2.22045e-16
3.25581e-16
2.22045e-16
2.22045e-16
2.22045e-16
2.22045e-16
2.22045e-16
2.22045e-16
2.22045e-16
3.1079e-16
4.63695e-08
2.22045e-16
2.22045e-16
2.22045e-16
2.22045e-16
2.22045e-16
2.22045e-16
1.15205e-15
3.40945e-07
30.4921
2.22045e-16
2.22045e-16
2.22045e-16
2.22045e-16
2.22045e-16
1.76378e-14
6.16516e-10
12.5379
109.218
2.22045e-16
2.22045e-16
2.22045e-16
2.22045e-16
2.22045e-16
1.43918e-07
0.00043095
242.265
23.1492
2.22045e-16
2.22045e-16
2.22045e-16
2.22045e-16
2.22045e-16
2.22045e-16
2.22045e-16
2.22045e-16
2.22045e-16
2.22045e-16
2.22045e-16
2.22045e-16
2.22045e-16
2.22045e-16
2.22045e-16
2.22045e-16
2.22045e-16
2.22045e-16
2.22045e-16
2.22045e-16
2.22045e-16
2.22045e-16
2.22045e-16
2.22045e-16
2.22045e-16
2.22045e-16
2.22045e-16
2.22045e-16
2.22045e-16
2.22045e-16
2.22045e-16
2.22045e-16
2.22045e-16
2.22045e-16
2.22045e-16
2.22045e-16
2.22045e-16
2.22045e-16
2.22045e-16
2.22045e-16
2.22045e-16
2.22045e-16
2.22045e-16
2.22045e-16
3.11908e-15
2.22045e-16
2.22045e-16
2.22045e-16
2.22045e-16
2.22045e-16
2.22045e-16
2.22045e-16
1.15326e-15
1.98638e-07
2.22045e-16
2.22045e-16
2.22045e-16
2.22045e-16
2.22045e-16
2.22045e-16
5.79592e-16
1.86514e-07
136.495
2.22045e-16
2.22045e-16
2.22045e-16
2.22045e-16
2.22045e-16
1.76075e-14
5.64977e-08
0.00237325
84.5274
2.22045e-16
2.22045e-16
2.22045e-16
2.22045e-16
2.22045e-16
2.22045e-16
2.22045e-16
2.22045e-16
2.22045e-16
2.22045e-16
2.22045e-16
2.22045e-16
2.22045e-16
2.22045e-16
2.22045e-16
2.22045e-16
2.22045e-16
2.22045e-16
2.22045e-16
2.22045e-16
2.22045e-16
2.22045e-16
2.22045e-16
2.22045e-16
2.22045e-16
2.22045e-16
2.22045e-16
2.22045e-16
2.22045e-16
2.22045e-16
2.22045e-16
2.22045e-16
2.22045e-16
2.22045e-16
2.22045e-16
2.22045e-16
2.22045e-16
2.22045e-16
2.22045e-16
2.22045e-16
2.22045e-16
2.22045e-16
2.22045e-16
2.22045e-16
2.22045e-16
2.22045e-16
2.22045e-16
2.22045e-16
2.22045e-16
2.22045e-16
2.22045e-16
2.22045e-16
2.22045e-16
2.92428e-16
2.22045e-16
2.22045e-16
2.22045e-16
2.22045e-16
2.22045e-16
2.22045e-16
2.22045e-16
2.47051e-16
3.35833e-08
2.22045e-16
2.22045e-16
2.22045e-16
2.22045e-16
2.22045e-16
2.22045e-16
3.89337e-16
1.38893e-07
130.726
2.22045e-16
2.22045e-16
2.22045e-16
2.22045e-16
2.22045e-16
2.22045e-16
2.22045e-16
2.22045e-16
2.22045e-16
2.22045e-16
2.22045e-16
2.22045e-16
2.22045e-16
2.22045e-16
2.22045e-16
2.22045e-16
2.22045e-16
2.22045e-16
2.22045e-16
2.22045e-16
2.22045e-16
2.22045e-16
2.22045e-16
2.22045e-16
2.22045e-16
2.22045e-16
2.22045e-16
2.22045e-16
2.22045e-16
2.22045e-16
2.22045e-16
2.22045e-16
2.22045e-16
2.22045e-16
2.22045e-16
2.22045e-16
2.22045e-16
2.22045e-16
2.22045e-16
2.22045e-16
2.22045e-16
2.22045e-16
2.22045e-16
2.22045e-16
2.22045e-16
2.22045e-16
2.22045e-16
2.22045e-16
2.22045e-16
2.22045e-16
2.22045e-16
2.22045e-16
2.22045e-16
2.22045e-16
2.22045e-16
2.22045e-16
2.22045e-16
2.22045e-16
2.22045e-16
2.22045e-16
2.22045e-16
2.22045e-16
2.22045e-16
2.22045e-16
2.22045e-16
2.22045e-16
2.22045e-16
2.22045e-16
4.52909e-16
80.3375
2.22045e-16
2.22045e-16
2.22045e-16
2.22045e-16
2.22045e-16
2.22045e-16
2.22045e-16
3.2878e-15
34.9249
134.133
2.22045e-16
2.22045e-16
2.22045e-16
2.22045e-16
2.22045e-16
2.22045e-16
2.22045e-16
2.22045e-16
2.22045e-16
2.22045e-16
2.22045e-16
2.22045e-16
2.22045e-16
2.22045e-16
2.22045e-16
2.22045e-16
2.22045e-16
2.22045e-16
2.22045e-16
2.22045e-16
2.22045e-16
2.22045e-16
2.22045e-16
2.22045e-16
2.22045e-16
2.22045e-16
2.22045e-16
2.22045e-16
2.22045e-16
2.22045e-16
2.22045e-16
2.22045e-16
2.22045e-16
2.22045e-16
2.22045e-16
2.22045e-16
2.22045e-16
2.22045e-16
2.22045e-16
2.22045e-16
2.22045e-16
2.22045e-16
2.22045e-16
2.22045e-16
2.22045e-16
2.22045e-16
2.22045e-16
2.22045e-16
2.22045e-16
2.22045e-16
2.22045e-16
2.22045e-16
2.22045e-16
2.22045e-16
2.22045e-16
2.22045e-16
2.22045e-16
2.22045e-16
2.22045e-16
2.22045e-16
2.22045e-16
2.22045e-16
2.22045e-16
2.22045e-16
2.22045e-16
2.22045e-16
2.22045e-16
2.22045e-16
2.22045e-16
4.37852e-16
2.22045e-16
2.22045e-16
2.22045e-16
2.22045e-16
2.22045e-16
2.22045e-16
2.22045e-16
2.22045e-16
2.22045e-16
9.30651e-14
2.22045e-16
2.22045e-16
2.22045e-16
2.22045e-16
2.22045e-16
2.22045e-16
2.22045e-16
2.22045e-16
2.22045e-16
2.22045e-16
2.22045e-16
2.22045e-16
2.22045e-16
2.22045e-16
2.22045e-16
2.22045e-16
2.22045e-16
2.22045e-16
2.22045e-16
2.22045e-16
2.22045e-16
2.22045e-16
2.22045e-16
2.22045e-16
2.22045e-16
2.22045e-16
2.22045e-16
2.22045e-16
2.22045e-16
2.22045e-16
2.22045e-16
2.22045e-16
2.22045e-16
2.22045e-16
2.22045e-16
2.22045e-16
2.22045e-16
2.22045e-16
2.22045e-16
2.22045e-16
2.22045e-16
2.22045e-16
2.22045e-16
2.22045e-16
2.22045e-16
2.22045e-16
2.22045e-16
2.22045e-16
2.22045e-16
2.22045e-16
2.22045e-16
2.22045e-16
2.22045e-16
2.22045e-16
2.22045e-16
2.22045e-16
2.22045e-16
2.22045e-16
2.22045e-16
2.22045e-16
2.22045e-16
2.22045e-16
2.22045e-16
2.22045e-16
2.22045e-16
2.22045e-16
2.22045e-16
2.22045e-16
2.22045e-16
2.22045e-16
2.22045e-16
2.22045e-16
2.22045e-16
2.22045e-16
2.22045e-16
2.22045e-16
2.22045e-16
2.22045e-16
2.22045e-16
2.22045e-16
2.22045e-16
2.22045e-16
2.22045e-16
2.22045e-16
2.22045e-16
2.22045e-16
2.22045e-16
2.22045e-16
2.22045e-16
2.22045e-16
2.22045e-16
2.22045e-16
2.22045e-16
2.22045e-16
2.22045e-16
2.22045e-16
2.22045e-16
2.22045e-16
2.22045e-16
2.22045e-16
2.22045e-16
2.22045e-16
2.22045e-16
2.22045e-16
2.22045e-16
2.22045e-16
2.22045e-16
2.22045e-16
2.22045e-16
2.22045e-16
2.22045e-16
2.22045e-16
2.22045e-16
2.22045e-16
2.22045e-16
2.22045e-16
2.22045e-16
2.22045e-16
2.22045e-16
2.22045e-16
2.22045e-16
2.22045e-16
2.22045e-16
2.22045e-16
2.22045e-16
2.22045e-16
2.22045e-16
2.22045e-16
2.22045e-16
2.22045e-16
2.22045e-16
2.22045e-16
2.22045e-16
2.22045e-16
2.22045e-16
2.22045e-16
2.22045e-16
2.22045e-16
2.22045e-16
2.22045e-16
2.22045e-16
2.22045e-16
2.22045e-16
2.22045e-16
2.22045e-16
2.22045e-16
2.22045e-16
2.22045e-16
2.22045e-16
2.22045e-16
2.22045e-16
2.22045e-16
2.22045e-16
2.22045e-16
2.22045e-16
2.22045e-16
2.22045e-16
2.22045e-16
2.22045e-16
2.22045e-16
2.22045e-16
2.22045e-16
2.22045e-16
2.22045e-16
2.22045e-16
2.22045e-16
2.22045e-16
2.22045e-16
2.22045e-16
2.22045e-16
2.22045e-16
2.22045e-16
2.22045e-16
2.22045e-16
2.22045e-16
2.22045e-16
2.22045e-16
2.22045e-16
2.22045e-16
2.22045e-16
2.22045e-16
2.22045e-16
2.22045e-16
2.22045e-16
2.22045e-16
2.22045e-16
2.22045e-16
2.22045e-16
2.22045e-16
2.22045e-16
2.22045e-16
2.22045e-16
2.22045e-16
2.22045e-16
2.22045e-16
2.22045e-16
2.22045e-16
2.22045e-16
2.22045e-16
2.22045e-16
2.22045e-16
2.22045e-16
2.22045e-16
2.22045e-16
2.22045e-16
2.22045e-16
2.22045e-16
2.22045e-16
2.22045e-16
2.22045e-16
2.22045e-16
2.22045e-16
2.22045e-16
2.22045e-16
2.22045e-16
2.22045e-16
2.22045e-16
2.22045e-16
2.22045e-16
2.22045e-16
2.22045e-16
2.22045e-16
2.22045e-16
2.22045e-16
2.22045e-16
2.22045e-16
2.22045e-16
2.22045e-16
2.22045e-16
2.22045e-16
2.22045e-16
2.22045e-16
2.22045e-16
2.22045e-16
2.22045e-16
2.22045e-16
2.22045e-16
2.22045e-16
2.22045e-16
2.22045e-16
3.02473e-10
3.28036e-13
2.22045e-16
2.22045e-16
1.39488e-15
0.00074542
13.0572
36.3185
13.5858
2.22045e-16
2.22045e-16
2.22045e-16
6.30648e-11
1.22443
51.1844
8.0611
3.93667
2.40486
2.22045e-16
2.22045e-16
2.77795e-15
3.25922e-09
0.000989484
50.1449
9.14421
1.92065
2.22045e-16
2.22045e-16
1.34045e-12
3.53887e-07
12.2026
26.434
4.7105
1.74702
2.22045e-16
2.22045e-16
8.55928e-11
8.46073
23.3089
4.28791
2.27304
2.22045e-16
2.22045e-16
2.22045e-16
2.22045e-16
2.22045e-16
5.09962e-14
0.000629477
69.3058
11.3955
5.2266
3.51229
2.22045e-16
2.22045e-16
2.22045e-16
2.21067e-10
0.000155624
55.361
14.1152
2.8197
2.22045e-16
2.22045e-16
3.34851e-15
2.84068e-09
0.0609601
38.5671
6.53537
2.61858
2.22045e-16
2.22045e-16
2.65831e-13
1.77145
57.2506
13.7406
5.11293
2.73894
2.22045e-16
2.22045e-16
2.22045e-16
2.22045e-16
2.22045e-16
2.22045e-16
4.38713e-13
3.98906e-06
0.119318
27.2634
39.6655
2.22045e-16
2.22045e-16
2.22045e-16
3.42458e-16
5.67846e-11
1.39395
76.8552
13.5027
2.22045e-16
2.22045e-16
2.22045e-16
1.73735e-11
6.31996e-06
84.6425
30.3875
4.78255
2.22045e-16
2.22045e-16
2.22045e-16
1.47015e-10
0.572037
86.8316
13.0447
3.67105
2.22045e-16
2.22045e-16
2.22045e-16
2.22045e-16
2.22045e-16
2.22045e-16
2.22045e-16
2.35223e-13
3.89663e-05
39.903
56.291
2.22045e-16
2.22045e-16
2.22045e-16
2.22045e-16
1.34109e-13
1.26236e-08
131.024
16.6281
10.2581
2.22045e-16
2.22045e-16
2.22045e-16
2.22045e-16
9.9916e-11
6.60092e-05
146.81
9.86549
2.22045e-16
2.22045e-16
2.22045e-16
2.22045e-16
0.000388776
94.6455
17.8711
4.23034
2.22045e-16
2.22045e-16
2.22045e-16
2.22045e-16
2.22045e-16
2.22045e-16
2.22045e-16
2.22045e-16
1.52812e-13
1.07148e-05
86.3747
2.22045e-16
2.22045e-16
2.22045e-16
2.22045e-16
2.22045e-16
8.65348e-14
1.09158e-07
109.32
78.1665
2.22045e-16
2.22045e-16
2.22045e-16
2.22045e-16
2.22045e-16
8.67945e-11
0.00023321
99.1109
2.22045e-16
2.22045e-16
2.22045e-16
2.22045e-16
2.06933e-14
1.76423e-08
11.1598
44.8331
2.22045e-16
2.22045e-16
2.22045e-16
2.22045e-16
1.0038e-14
0.0251671
60.3713
44.5472
2.22045e-16
2.22045e-16
2.22045e-16
2.22045e-16
2.22045e-16
2.22045e-16
2.22045e-16
4.65561e-12
189.688
89.6777
2.22045e-16
2.22045e-16
2.22045e-16
2.22045e-16
2.22045e-16
2.22045e-16
5.32971e-12
2.1324e-05
121.137
78.1987
2.22045e-16
2.22045e-16
2.22045e-16
2.22045e-16
2.22045e-16
3.08263e-15
2.05447e-09
0.00350986
2.22045e-16
2.22045e-16
2.22045e-16
2.22045e-16
2.22045e-16
2.09098e-13
4.48129e-08
70.4922
2.22045e-16
2.22045e-16
2.22045e-16
2.22045e-16
2.22045e-16
2.38323e-13
2.82128
65.1233
2.22045e-16
2.22045e-16
2.22045e-16
2.22045e-16
2.22045e-16
2.22045e-16
2.22045e-16
2.22045e-16
7.28293e-13
139.455
2.22045e-16
2.22045e-16
2.22045e-16
2.22045e-16
2.22045e-16
2.22045e-16
2.22045e-16
5.29178e-13
4.01102e-05
125.576
2.22045e-16
2.22045e-16
2.22045e-16
2.22045e-16
2.22045e-16
2.22045e-16
5.18563e-15
1.57646e-10
2.22045e-16
2.22045e-16
2.22045e-16
2.22045e-16
2.22045e-16
2.22045e-16
1.53496e-12
5.57606
2.22045e-16
2.22045e-16
2.22045e-16
2.22045e-16
2.22045e-16
2.22045e-16
4.58284e-12
7.85911
2.22045e-16
2.22045e-16
2.22045e-16
2.22045e-16
2.22045e-16
2.22045e-16
2.22045e-16
2.22045e-16
2.22045e-16
1.75932e-14
2.22045e-16
2.22045e-16
2.22045e-16
2.22045e-16
2.22045e-16
2.22045e-16
2.22045e-16
2.22045e-16
6.69036e-12
8.60743e-05
2.22045e-16
2.22045e-16
2.22045e-16
2.22045e-16
2.22045e-16
2.22045e-16
2.22045e-16
2.10706e-15
2.22045e-16
2.22045e-16
2.22045e-16
2.22045e-16
2.22045e-16
2.22045e-16
2.22045e-16
3.59346e-13
2.22045e-16
2.22045e-16
2.22045e-16
2.22045e-16
2.22045e-16
2.22045e-16
2.22045e-16
8.41646e-13
2.22045e-16
2.22045e-16
2.22045e-16
2.22045e-16
2.22045e-16
2.22045e-16
2.22045e-16
2.22045e-16
2.22045e-16
2.22045e-16
2.22045e-16
2.22045e-16
2.22045e-16
2.22045e-16
2.22045e-16
2.22045e-16
2.22045e-16
2.22045e-16
2.22045e-16
2.51188e-15
2.22045e-16
2.22045e-16
2.22045e-16
2.22045e-16
2.22045e-16
2.22045e-16
2.22045e-16
2.22045e-16
2.22045e-16
2.22045e-16
2.22045e-16
2.22045e-16
2.22045e-16
2.22045e-16
2.22045e-16
2.22045e-16
2.22045e-16
2.22045e-16
2.22045e-16
2.22045e-16
2.22045e-16
2.22045e-16
2.22045e-16
2.22045e-16
2.22045e-16
2.22045e-16
2.22045e-16
2.22045e-16
2.22045e-16
2.22045e-16
2.22045e-16
2.22045e-16
2.22045e-16
2.22045e-16
2.22045e-16
2.22045e-16
2.22045e-16
2.22045e-16
2.22045e-16
2.22045e-16
2.22045e-16
2.22045e-16
2.22045e-16
2.22045e-16
2.22045e-16
2.22045e-16
2.22045e-16
2.22045e-16
2.22045e-16
2.22045e-16
2.22045e-16
2.22045e-16
2.22045e-16
2.22045e-16
2.22045e-16
2.22045e-16
2.22045e-16
2.22045e-16
2.22045e-16
2.22045e-16
2.22045e-16
2.22045e-16
2.22045e-16
2.22045e-16
2.22045e-16
2.22045e-16
2.22045e-16
2.22045e-16
6.81843
3.38981
21.6072
27.7245
6.22301
34.2858
8.48627
13.9229
5.70955
11.1716
5.05784
0.000225493
48.3213
70.4296
21.4715
68.2856
17.3408
1.43339e-09
25.1857
1.04559e-08
55.844
3.97587e-08
55.7397
1.36437e-15
7.60465e-10
5.32843e-14
1.37692e-08
1.81807e-14
4.30726e-10
2.22045e-16
2.22045e-16
2.22045e-16
1.56887e-14
2.22045e-16
7.00554e-16
3.40565
2.22839
1.38873
1.809
2.59075
2.12248
3.00792
2.47918
2.3645
4.99885
3.4089
3.37451
2.01916
6.20451
3.35937
2.03926
7.08372
3.86177
6.21518
3.36697
2.31553
3.75957
3.56707
2.33406
2.65245
2.62656
4.3282
2.45333
2.08618
2.98686
3.46911
4.05176
2.53784
1.67475
3.06038
2.26075
4.36649
2.46963
2.14568
2.36555
2.74367
2.68291
4.86321
2.40917
3.72717
2.59083
2.80321
4.32823
3.09052
3.25415
4.07312
15.4986
7.49836
8.037
5.05188
2.56064
4.78393
2.52924
4.78205
2.97634
3.42637
2.81554
6.769
5.21426
1.44798
1.48376
1.54761
1.60165
1.6589
1.77457
1.71587
2.8658
3.3609
6.21481
2.86345
3.3392
8.52141
5.23823
4.63635
7.08876
9.30587
3.54339
2.7442
6.4393
5.44125
2.89863
3.371
8.60398
5.2823
4.2841
6.02446
10.4906
1.75479
1.88654
1.97064
1.93373
2.01622
2.25605
2.17658
3.09845
2.60409
2.67757
2.2355
3.53163
3.06776
2.1173
1.57738
1.92946
1.68422
2.01576
1.78623
1.90593
2.14442
2.05825
2.35822
2.02118
2.33703
2.33218
2.73706
2.75436
2.01231
2.33701
2.33349
2.33491
2.33006
2.73124
2.73118
2.20573
2.65054
2.34593
2.56182
2.33694
2.48906
2.8364
1.82115
2.12212
1.9414
2.01737
2.08407
2.35509
2.33683
1.81563
1.60188
1.66907
1.91324
2.01643
2.07619
1.85376
3.55945
3.09683
2.11172
3.38462
2.28279
3.87652
2.4222
2.08036
2.35325
2.39347
2.35268
2.39593
2.74481
2.78781
1.93409
2.48162
2.14907
2.5094
2.18816
2.42666
2.74865
1.83996
2.09562
1.81236
2.01645
2.05052
2.35334
2.40713
5.8495
4.95984
4.28652
3.71135
10.2579
7.03219
7.43968
1.9618
2.06899
1.81162
2.04789
2.46531
2.21288
2.29418
2.16386
2.65081
2.48241
2.66872
2.49056
2.8903
3.09123
2.23636
1.90761
2.00565
2.21936
2.12039
2.49664
2.62249
3.2631
3.88587
4.51301
5.85858
3.79216
6.71786
4.04308
2.48264
2.13161
2.21424
2.51955
2.73389
2.80491
2.44404
4.56972
6.40953
7.3803
4.18465
2.86017
4.85249
3.07741
1.98863
2.12066
2.188
2.2039
2.26335
2.47389
2.41503
2.91584
3.59325
2.39501
5.50436
3.36535
4.12044
2.53991
1.8546
2.16551
1.90379
2.03013
2.25369
2.29778
1.97974
2.22743
2.60616
2.30296
2.56114
2.81428
2.88032
2.48885
2.12862
2.27289
2.71991
2.34468
2.49387
2.78404
2.97606
7.08475
32.6277
8.22508
8.91565
5.41344
12.8067
27.1082
17.0724
4.14175
8.18843
27.2408
8.17291
4.94364
7.95173
5.03914
12.8186
7.15546
9.54165
8.10294
40.4514
32.3061
7.0105
31.9864
8.11462
5.02027
6.96943
8.04735
31.8105
3.4127
2.98021
2.99196
3.68128
3.67257
3.24698
3.96687
2.45245
2.66056
2.38451
3.15221
2.74309
2.81369
3.23659
8.47861
6.67376
5.66486
9.11063
6.58194
24.2728
12.2543
6.97432
20.644
9.19428
14.8734
10.5975
55.2426
16.1488
35.6483
9.70928
8.2131
4.94938
5.59665
9.42076
8.00241
2.80427
3.38194
2.78567
3.30045
4.08235
3.32458
4.04487
2.23967
2.27374
2.0225
2.15124
2.62453
2.40949
2.37519
3.36608
2.7737
2.7766
3.28513
4.0152
3.2792
4.0232
2.44607
2.7781
2.75273
2.75403
3.19186
2.96784
3.12332
2.35884
2.62388
2.37212
2.71462
3.11422
3.10385
2.71103
2.65691
2.72382
2.39072
2.68842
3.29451
2.97288
3.00865
2.76291
2.77574
2.4671
2.72427
3.34513
3.03933
3.03343
2.13677
2.61201
2.33637
2.65924
2.40134
2.61364
2.87859
2.92219
2.93047
2.96436
3.35062
3.4103
3.43222
3.95322
2.94395
5.35571
4.57194
5.07754
2.71953
9.33901
4.06518
2.74753
2.56509
2.44316
2.67731
3.09151
2.9692
2.91934
2.43642
3.15938
2.93088
2.85632
2.66463
3.19217
3.42957
2.78436
9.41374
4.09098
4.45777
2.96051
10.744
5.6224
2.17939
2.30017
2.40915
2.63912
2.35181
2.45496
2.12829
2.78466
3.40926
2.82546
4.02101
3.2882
3.33244
4.06837
2.22861
2.47193
2.26104
2.61109
2.88612
2.88666
2.60057
2.23417
2.5139
2.27476
2.91456
2.62454
2.67956
2.96828
8.90228
4.27159
7.4507
4.21686
10.9374
8.34705
32.4343
2.79016
3.38577
2.77296
3.29036
4.08522
3.31277
4.04655
3.37574
2.77046
2.76872
3.27823
4.02268
4.02784
3.27504
3.10572
2.88025
2.56918
2.9309
3.62886
3.10399
3.38877
2.34476
2.65443
2.41055
2.70831
2.91135
2.97128
2.64952
5.16017
7.69441
10.3966
7.70172
5.04623
16.1408
10.1363
11.0757
9.93584
4.84152
8.3891
32.8001
13.8134
40.4977
2.78623
3.44682
2.83437
4.033
3.28678
3.33442
4.08777
2.30306
2.7196
2.76317
2.79987
2.47857
2.57181
2.53481
2.58371
2.4438
2.34526
2.76575
3.17175
2.88773
3.0508
2.77392
3.02277
3.09156
3.04913
3.11736
3.4699
3.40189
3.23698
4.28953
3.97358
3.82236
3.52098
4.2845
4.63298
18.8121
12.1851
12.8152
10.6662
9.18015
15.8386
12.2292
3.52416
3.12239
2.92545
3.44875
4.49289
3.68523
4.20525
2.84085
3.08168
3.53663
3.11941
3.14897
3.18525
2.77195
3.41958
4.71164
3.9362
4.86892
4.03571
4.69181
5.68459
3.42476
3.82639
3.25372
3.96362
3.33411
3.6097
4.37873
2.62104
2.36396
2.36836
2.49906
2.73181
2.48196
2.73531
2.14998
2.16505
2.19074
2.41771
2.36074
2.39475
2.38574
4.32806
5.33493
3.16857
11.2178
5.01458
6.31437
3.66544
8.5779
10.5626
21.0828
5.57083
4.6579
11.6992
7.70965
3.4055
3.04108
3.07065
3.6714
3.31192
3.69028
3.9803
3.83365
4.75483
3.10783
18.3401
7.78711
11.8222
5.99831
7.40117
28.8882
14.8586
89.2153
14.6071
9.53984
47.4086
3.58627
3.16552
2.94698
3.45659
4.55014
4.23791
3.70367
2.49583
2.85496
2.54849
2.77253
3.05469
3.11052
2.71793
2.83805
2.80451
2.5589
2.8518
3.41419
3.12141
3.12776
2.57081
2.98301
2.72552
3.33727
3.04809
3.24402
3.54788
2.91748
3.11583
3.08276
3.52075
3.48117
3.83099
3.85452
2.85386
3.0911
3.08299
3.49051
3.47884
3.83181
3.8397
3.2575
4.27929
3.96106
3.85165
3.53126
4.28034
4.64121
4.31224
5.98163
4.66448
5.92373
4.63016
5.00835
6.47977
2.14654
2.13989
2.17674
2.3711
2.40796
2.44763
2.40945
42.0748
43.6714
30.0685
61.4509
41.9955
21.3488
29.4335
37.4375
38.9338
16.6329
18.3724
22.4084
78.2939
31.1718
22.0763
346.017
115.376
336.447
357.935
218.216
199.272
124.087
230.076
211.588
131.645
254.34
270.565
155.439
397.711
74.1483
139.165
84.4128
107.475
156.5
2.29116
403.947
9.30821e-05
441.316
411.268
423.243
356.916
370.043
3.28574
41.5581
98.0903
385.878
429.297
404.774
2.22045e-16
2.22045e-16
2.22045e-16
2.22045e-16
2.22045e-16
2.22045e-16
106.457
60.3656
111.381
43.9094
43.0724
29.3318
66.8254
30.0759
15.0196
20.6269
21.2145
351.327
146.97
244.998
95.5513
240.452
229.119
138.974
92.567
89.1027
60.1654
33.5478
174.975
1.00959e-12
1.37913e-15
44.8687
111.177
150.878
156.048
105.748
78.786
116.168
63.1942
67.2114
42.6098
100.224
163.112
193.116
0.000186554
2.62847
163.053
7.75447e-07
9.73538
0.494677
165.87
326.108
261.527
244.072
220.088
105.919
231.064
203.52
164.469
260.738
153.497
256.303
281.581
174.837
343.79
168.135
66.0547
105.831
105.238
111.016
37.9508
1.56798e-07
7.71686e-10
1.38404e-06
0.0467444
2.51363e-12
1.88585e-08
8.87077e-13
113.289
3.08779e-12
2.22045e-16
2.22045e-16
83.3159
0.0029638
2.22045e-16
4.73817e-15
2.22045e-16
2.22045e-16
2.22045e-16
31.6769
66.433
319.483
69.337
55.301
126.194
2.22045e-16
2.22045e-16
2.22045e-16
2.22045e-16
2.22045e-16
2.22045e-16
2.22045e-16
2.22045e-16
2.22045e-16
2.22045e-16
2.45927e-11
2.22045e-16
2.22045e-16
2.22045e-16
2.22045e-16
6.68048e-16
2.22045e-16
1.15323e-09
5.14107e-16
84.104
1.92505e-10
2.22045e-16
2.22045e-16
2.22045e-16
2.22045e-16
2.22045e-16
2.22045e-16
2.22045e-16
2.22045e-16
2.22045e-16
2.22045e-16
2.22045e-16
2.22045e-16
2.22045e-16
2.22045e-16
2.22045e-16
2.22045e-16
2.22045e-16
2.22045e-16
2.22045e-16
2.22045e-16
2.22045e-16
2.22045e-16
2.22045e-16
2.22045e-16
2.22045e-16
2.22045e-16
2.22045e-16
2.22045e-16
2.22045e-16
2.22045e-16
2.22045e-16
2.22045e-16
2.22045e-16
2.22045e-16
2.22045e-16
2.22045e-16
2.22045e-16
2.22045e-16
2.22045e-16
2.22045e-16
2.22045e-16
2.22045e-16
2.22045e-16
2.22045e-16
2.22045e-16
2.22045e-16
2.22045e-16
2.22045e-16
2.22045e-16
2.22045e-16
2.22045e-16
2.22045e-16
2.22045e-16
2.22045e-16
2.22045e-16
2.22045e-16
2.22045e-16
2.22045e-16
2.22045e-16
2.22045e-16
2.22045e-16
2.22045e-16
2.22045e-16
2.22045e-16
2.22045e-16
2.22045e-16
2.22045e-16
2.22045e-16
2.22045e-16
2.22045e-16
2.22045e-16
2.22045e-16
2.22045e-16
2.22045e-16
2.22045e-16
2.22045e-16
2.22045e-16
2.22045e-16
2.22045e-16
2.22045e-16
2.22045e-16
2.22045e-16
2.22045e-16
2.22045e-16
2.22045e-16
2.22045e-16
2.22045e-16
2.22045e-16
2.22045e-16
2.22045e-16
2.22045e-16
2.22045e-16
2.22045e-16
2.22045e-16
2.22045e-16
2.22045e-16
2.22045e-16
2.22045e-16
2.22045e-16
2.22045e-16
2.22045e-16
2.22045e-16
2.22045e-16
2.22045e-16
2.22045e-16
2.22045e-16
2.22045e-16
5.41479e-15
2.22045e-16
1.44882e-15
2.22045e-16
2.22045e-16
2.22045e-16
2.22045e-16
2.22045e-16
2.22045e-16
2.22045e-16
2.22045e-16
2.22045e-16
2.22045e-16
2.22045e-16
2.22045e-16
2.22045e-16
2.22045e-16
2.22045e-16
2.22045e-16
2.22045e-16
2.22045e-16
0.00609502
8.47861e-15
15.8061
27.3036
440.846
0.00423461
434.732
4.46555e-08
5.99944e-08
0.0104204
0.000831048
1.30337e-15
2.22045e-16
1.22884e-05
3.82029e-07
0.00296041
0.00790241
0.000557126
0.00232034
5.80186e-08
0.000139464
3.82776e-05
5.19952e-12
6.25461e-07
7.52558e-07
8.75838e-06
4.44885e-07
7.52517e-07
5.63086e-12
2.14168e-13
2.32247e-06
1.82513e-08
4.38403e-08
1.52958e-07
4.38563e-08
9.41793e-14
3.11066e-14
5.04155e-10
1.813e-08
3.56495e-08
3.40564e-14
2.14708e-12
1.81299e-08
7.86504e-08
0.00164086
1.88211e-09
1.03895e-05
2.22045e-16
4.65472e-11
2.22045e-16
2.22045e-16
2.22045e-16
2.22045e-16
2.22045e-16
6.76244e-13
1.30566e-14
5.64148e-14
3.04819e-14
2.73177e-15
3.00152e-15
1.10269e-07
4.59793e-09
1.76217e-08
2.22045e-16
2.22045e-16
4.48778e-15
2.22045e-16
9.01609e-11
3.71934e-16
2.22045e-16
2.22045e-16
2.22045e-16
7.5346e-11
5.29351e-12
3.15443e-06
2.7019e-13
9.32962e-08
2.22045e-16
2.22045e-16
2.22045e-16
2.04549e-15
2.22045e-16
2.22045e-16
2.22045e-16
2.22045e-16
2.22045e-16
1.00555e-09
3.15033e-16
3.69782e-09
2.22045e-16
2.22045e-16
2.09202e-13
2.22045e-16
2.22045e-16
2.22045e-16
2.22045e-16
2.22045e-16
2.22045e-16
2.22045e-16
2.22045e-16
2.22045e-16
2.22045e-16
2.22045e-16
2.22045e-16
2.22045e-16
8.45493
0.0624522
0.00083268
2.22045e-16
2.80997e-12
2.22045e-16
2.22045e-16
2.00636e-12
2.22045e-16
2.22045e-16
2.22045e-16
2.22045e-16
2.22045e-16
2.22045e-16
2.22045e-16
2.22045e-16
2.22045e-16
2.22045e-16
2.22045e-16
2.22045e-16
2.22045e-16
2.22045e-16
2.22045e-16
2.22045e-16
5.77489e-12
6.76244e-13
2.22045e-16
5.73138e-12
2.22045e-16
2.22045e-16
1.30567e-14
2.22045e-16
1.06982e-13
2.22045e-16
1.10351e-13
2.22045e-16
2.22045e-16
2.22045e-16
2.22045e-16
2.22045e-16
2.22045e-16
2.22045e-16
2.22045e-16
2.22045e-16
2.22045e-16
2.22045e-16
2.22045e-16
2.22045e-16
2.22045e-16
2.22045e-16
2.22045e-16
2.22045e-16
4.13807e-14
4.48778e-15
2.22045e-16
2.22045e-16
4.13984e-14
2.22045e-16
2.22045e-16
2.22045e-16
2.22045e-16
2.22045e-16
2.22045e-16
2.22045e-16
2.22045e-16
1.1711e-10
2.22045e-16
5.393e-12
4.43816e-15
4.40635e-11
2.22045e-16
2.22045e-16
2.22045e-16
2.22045e-16
2.22045e-16
2.22045e-16
2.22045e-16
2.22045e-16
2.22045e-16
2.22045e-16
2.22045e-16
2.22045e-16
2.22045e-16
2.22045e-16
2.22045e-16
2.22045e-16
2.22045e-16
2.22045e-16
2.22045e-16
2.22045e-16
2.22045e-16
2.22045e-16
2.22045e-16
2.22045e-16
6.35333e-16
7.9875e-16
2.22045e-16
2.22045e-16
5.82361e-16
2.22045e-16
2.22045e-16
2.22045e-16
2.22045e-16
2.22045e-16
2.22045e-16
2.22045e-16
2.22045e-16
2.22045e-16
2.22045e-16
2.22045e-16
2.22045e-16
2.22045e-16
2.22045e-16
2.22045e-16
2.22045e-16
2.22045e-16
2.22045e-16
2.22045e-16
2.22045e-16
2.22045e-16
2.22045e-16
2.22045e-16
2.22045e-16
2.22045e-16
2.22045e-16
2.22045e-16
2.22045e-16
2.22045e-16
2.22045e-16
2.22045e-16
2.22045e-16
2.22045e-16
2.22045e-16
1.34742e-13
0.163941
413.215
0.00910041
0.0554523
32.1552
70.5228
4.21579e-06
2.22045e-16
3.66549e-08
1.26292e-09
7.58155e-07
2.44359e-15
2.23502e-12
2.10319e-13
2.22045e-16
2.22045e-16
2.22045e-16
2.22045e-16
2.22045e-16
2.22045e-16
2.22045e-16
2.22045e-16
2.22045e-16
2.22045e-16
2.22045e-16
2.22045e-16
2.22045e-16
3.85401e-10
9.23583e-12
2.79399e-14
2.22045e-16
1.77834e-07
4.8771e-15
2.22045e-16
2.22045e-16
3.58172e-14
2.22045e-16
5.45678e-14
2.22045e-16
2.22045e-16
2.22045e-16
2.22045e-16
2.22045e-16
2.22045e-16
2.22045e-16
2.22045e-16
2.22045e-16
2.22045e-16
2.22045e-16
2.22045e-16
2.22045e-16
2.22045e-16
2.22045e-16
2.22045e-16
2.22045e-16
2.22045e-16
2.22045e-16
2.22045e-16
2.22045e-16
2.22045e-16
2.22045e-16
2.22045e-16
2.22045e-16
2.22045e-16
2.22045e-16
2.22045e-16
2.22045e-16
2.22045e-16
2.22045e-16
2.22045e-16
2.22045e-16
2.22045e-16
2.22045e-16
2.22045e-16
2.22045e-16
2.22045e-16
2.22045e-16
2.22045e-16
2.22045e-16
2.22045e-16
2.22045e-16
2.22045e-16
2.22045e-16
2.22045e-16
2.22045e-16
2.22045e-16
2.22045e-16
2.22045e-16
2.22045e-16
2.22045e-16
2.22045e-16
2.22045e-16
2.22045e-16
2.22045e-16
2.22045e-16
2.22045e-16
2.22045e-16
2.22045e-16
2.22045e-16
2.22045e-16
2.22045e-16
2.22045e-16
2.22045e-16
2.22045e-16
2.22045e-16
2.22045e-16
2.22045e-16
2.22045e-16
2.22045e-16
2.22045e-16
2.22045e-16
2.22045e-16
2.22045e-16
2.22045e-16
2.22045e-16
2.22045e-16
2.22045e-16
2.22045e-16
2.22045e-16
2.22045e-16
2.22045e-16
2.22045e-16
2.22045e-16
2.22045e-16
2.22045e-16
2.22045e-16
2.22045e-16
2.22045e-16
2.22045e-16
2.22045e-16
2.22045e-16
2.22045e-16
2.22045e-16
2.22045e-16
2.22045e-16
2.22045e-16
2.22045e-16
2.22045e-16
2.22045e-16
2.22045e-16
2.22045e-16
2.22045e-16
2.22045e-16
2.22045e-16
2.22045e-16
2.22045e-16
2.22045e-16
2.22045e-16
2.22045e-16
2.22045e-16
2.22045e-16
2.22045e-16
2.22045e-16
2.22045e-16
2.22045e-16
2.22045e-16
2.22045e-16
2.22045e-16
2.22045e-16
2.22045e-16
2.22045e-16
2.22045e-16
2.22045e-16
2.22045e-16
2.22045e-16
2.22045e-16
2.22045e-16
2.22045e-16
2.22045e-16
2.22045e-16
2.22045e-16
2.22045e-16
2.22045e-16
2.22045e-16
2.22045e-16
2.22045e-16
2.22045e-16
2.22045e-16
2.22045e-16
2.22045e-16
2.22045e-16
2.22045e-16
2.22045e-16
2.22045e-16
2.22045e-16
2.22045e-16
2.22045e-16
2.22045e-16
2.22045e-16
2.22045e-16
2.22045e-16
2.22045e-16
2.22045e-16
2.22045e-16
2.22045e-16
2.22045e-16
2.22045e-16
2.22045e-16
2.22045e-16
2.22045e-16
2.22045e-16
2.22045e-16
2.22045e-16
2.22045e-16
2.22045e-16
2.22045e-16
2.22045e-16
2.22045e-16
2.22045e-16
2.22045e-16
2.22045e-16
2.22045e-16
2.22045e-16
2.22045e-16
2.22045e-16
2.22045e-16
2.22045e-16
2.22045e-16
2.22045e-16
2.22045e-16
2.22045e-16
2.22045e-16
2.22045e-16
2.22045e-16
2.22045e-16
2.22045e-16
2.22045e-16
2.22045e-16
2.22045e-16
2.22045e-16
2.22045e-16
2.22045e-16
2.22045e-16
2.22045e-16
2.22045e-16
2.22045e-16
12.9874
4.90356e-07
3.35896e-16
2.22045e-16
2.22045e-16
0.819447
1.35124e-08
2.22045e-16
2.22045e-16
2.22045e-16
2.35558e-10
2.22045e-16
2.22045e-16
2.22045e-16
2.22045e-16
2.22045e-16
2.22045e-16
2.22045e-16
2.22045e-16
2.22045e-16
2.22045e-16
2.22045e-16
2.22045e-16
2.22045e-16
2.22045e-16
2.22045e-16
2.22045e-16
2.22045e-16
2.22045e-16
2.22045e-16
2.22045e-16
2.22045e-16
2.22045e-16
2.22045e-16
2.22045e-16
2.22045e-16
2.22045e-16
2.22045e-16
2.22045e-16
2.22045e-16
2.22045e-16
2.22045e-16
2.22045e-16
2.22045e-16
2.22045e-16
2.22045e-16
2.22045e-16
2.22045e-16
2.22045e-16
2.22045e-16
2.22045e-16
2.22045e-16
2.22045e-16
2.22045e-16
2.22045e-16
2.22045e-16
2.22045e-16
2.22045e-16
2.22045e-16