/*--------------------------------*- C++ -*----------------------------------*\
  =========                 |
  \\      /  F ield         | OpenFOAM: The Open Source CFD Toolbox
   \\    /   O peration     | Website:  https://openfoam.org
    \\  /    A nd           | Version:  9
     \\/     M anipulation  |
\*---------------------------------------------------------------------------*/
FoamFile
{
    format      ascii;
    class       volScalarField;
    location    "0.0028";
    object      rho.air;
}
// * * * * * * * * * * * * * * * * * * * * * * * * * * * * * * * * * * * * * //

dimensions      [1 -3 0 0 0 0 0];

internalField   nonuniform List<scalar> 
25309
(
1.225
1.225
1.225
1.225
1.225
1.225
1.225
1.225
1.225
1.225
1.225
1.225
1.225
1.225
1.225
1.225
1.225
1.225
1.225
1.225
1.225
1.225
1.225
1.225
1.225
1.225
1.225
1.225
1.225
1.225
1.225
1.225
1.225
1.225
1.225
1.225
1.225
1.225
1.225
1.22664
2.00603
1.22531
1.225
1.225
1.225
1.36493
1.99601
1.23771
1.225
1.225
1.22582
2.69017
1.56384
1.00137
1.2251
2.36054
2.74511
1.21337
0.851362
1.225
1.25911
2.73154
2.50499
1.44607
1.225
1.225
1.225
1.225
1.225
1.225
1.225
1.225
1.225
1.225
1.225
1.225
1.225
1.225
1.225
1.225
1.225
1.225
1.225
1.225
1.225
1.225
1.225
1.225
1.225
1.225
1.225
1.225
1.225
1.225
1.225
1.225
1.225
1.225
1.225
1.225
1.225
1.225
1.225
1.225
1.225
1.225
1.225
1.225
1.22526
1.225
1.225
1.225
1.225
1.225
1.225
1.225
1.22542
2.53838
1.225
1.225
1.225
1.225
1.225
1.225
1.22511
2.33918
0.919694
1.225
1.225
1.225
1.225
1.22504
2.11864
2.27445
1.05426
0.51403
1.225
1.225
1.225
1.225
1.225
1.225
1.225
1.225
1.225
1.225
1.225
1.225
1.225
1.225
1.225
1.225
1.225
1.225
1.225
1.225
1.225
1.225
1.225
1.225
1.225
1.225
1.225
1.225
1.225
1.225
1.225
1.225
1.225
1.225
1.225
1.225
1.225
1.225
1.225
1.225
1.225
1.225
1.225
1.225
1.22503
1.225
1.225
1.225
1.225
1.225
1.225
1.225
1.22505
1.74794
1.225
1.225
1.225
1.225
1.225
1.225
1.22501
1.56589
1.12246
1.225
1.225
1.225
1.225
1.225
1.45775
2.59792
1.27687
0.870307
1.225
1.225
1.225
1.225
1.225
1.225
1.225
1.225
1.225
1.225
1.225
1.225
1.225
1.225
1.225
1.225
1.225
1.225
1.225
1.225
1.225
1.225
1.225
1.225
1.225
1.225
1.225
1.225
1.225
1.225
1.225
1.225
1.225
1.225
1.225
1.225
1.225
1.225
1.225
1.225
1.225
1.225
1.225
1.225
1.225
1.225
1.225
1.225
1.225
1.225
1.225
1.225
1.22501
1.22839
1.225
1.225
1.225
1.225
1.225
1.225
1.225
1.22699
2.89116
1.225
1.225
1.225
1.225
1.225
1.22501
1.22507
2.23198
1.93169
1.225
1.225
1.225
1.225
1.225
1.225
1.225
1.225
1.225
1.225
1.225
1.225
1.225
1.225
1.225
1.225
1.225
1.225
1.225
1.225
1.225
1.225
1.225
1.225
1.225
1.225
1.225
1.225
1.225
1.225
1.225
1.225
1.225
1.225
1.225
1.225
1.225
1.225
1.225
1.225
1.225
1.225
1.225
1.225
1.225
1.225
1.225
1.225
1.225
1.225
1.225
1.225
1.225
1.22501
1.225
1.225
1.225
1.225
1.225
1.225
1.225
1.22501
1.23485
1.225
1.225
1.225
1.225
1.225
1.225
1.22501
1.22513
2.9791
1.225
1.225
1.225
1.225
1.225
1.225
1.225
1.225
1.225
1.225
1.225
1.225
1.225
1.225
1.225
1.225
1.225
1.225
1.225
1.225
1.225
1.225
1.225
1.225
1.225
1.225
1.225
1.225
1.225
1.225
1.225
1.225
1.225
1.225
1.225
1.225
1.225
1.225
1.225
1.225
1.225
1.225
1.225
1.225
1.225
1.225
1.225
1.225
1.225
1.225
1.225
1.225
1.225
1.225
1.225
1.225
1.225
1.225
1.225
1.225
1.225
1.225
1.22501
1.225
1.225
1.225
1.225
1.225
1.225
1.225
1.22501
2.83969
1.225
1.225
1.225
1.225
1.225
1.225
1.225
1.225
1.225
1.225
1.225
1.225
1.225
1.225
1.225
1.225
1.225
1.225
1.225
1.225
1.225
1.225
1.225
1.225
1.225
1.225
1.225
1.225
1.225
1.225
1.225
1.225
1.225
1.225
1.225
1.225
1.225
1.225
1.225
1.225
1.225
1.225
1.225
1.225
1.225
1.225
1.225
1.225
1.225
1.225
1.225
1.225
1.225
1.225
1.225
1.225
1.225
1.225
1.225
1.225
1.225
1.225
1.225
1.225
1.225
1.225
1.225
1.225
1.225
1.23254
1.225
1.225
1.225
1.225
1.225
1.225
1.225
1.225
1.22915
2.44077
1.225
1.225
1.225
1.225
1.225
1.225
1.225
1.225
1.225
1.225
1.225
1.225
1.225
1.225
1.225
1.225
1.225
1.225
1.225
1.225
1.225
1.225
1.225
1.225
1.225
1.225
1.225
1.225
1.225
1.225
1.225
1.225
1.225
1.225
1.225
1.225
1.225
1.225
1.225
1.225
1.225
1.225
1.225
1.225
1.225
1.225
1.225
1.225
1.225
1.225
1.225
1.225
1.225
1.225
1.225
1.225
1.225
1.225
1.225
1.225
1.225
1.225
1.225
1.225
1.225
1.225
1.225
1.225
1.225
1.225
1.225
1.225
1.225
1.225
1.225
1.225
1.225
1.225
1.225
1.225
1.225
1.225
1.225
1.225
1.225
1.225
1.225
1.225
1.225
1.225
1.225
1.225
1.225
1.225
1.225
1.225
1.225
1.225
1.225
1.225
1.225
1.225
1.225
1.225
1.225
1.225
1.225
1.225
1.225
1.225
1.225
1.225
1.225
1.225
1.225
1.225
1.225
1.225
1.225
1.225
1.225
1.225
1.225
1.225
1.225
1.225
1.225
1.225
1.225
1.225
1.225
1.225
1.225
1.225
1.225
1.225
1.225
1.225
1.225
1.225
1.225
1.225
1.225
1.225
1.225
1.225
1.225
1.225
1.225
1.225
1.225
1.225
1.225
1.225
1.225
1.225
1.225
1.225
1.225
1.225
1.225
1.225
1.225
1.225
1.225
1.225
1.225
1.225
1.225
1.225
1.225
1.225
1.225
1.225
1.225
1.225
1.225
1.225
1.225
1.225
1.225
1.225
1.225
1.225
1.225
1.225
1.225
1.225
1.225
1.225
1.225
1.225
1.225
1.225
1.225
1.225
1.225
1.225
1.225
1.225
1.225
1.225
1.225
1.225
1.225
1.225
1.225
1.225
1.225
1.225
1.225
1.225
1.225
1.225
1.225
1.225
1.225
1.225
1.225
1.225
1.225
1.225
1.225
1.225
1.225
1.225
1.225
1.225
1.225
1.225
1.225
1.225
1.225
1.225
1.225
1.225
1.225
1.225
1.225
1.225
1.225
1.225
1.225
1.225
1.225
1.225
1.225
1.225
1.225
1.225
1.225
1.225
1.225
1.225
1.225
1.225
1.225
1.225
1.225
1.225
1.225
1.225
1.225
1.225
1.225
1.225
1.225
1.225
1.225
1.225
1.225
1.225
1.225
1.225
1.225
1.225
1.225
1.225
1.225
1.225
1.225
1.225
1.225
1.225
1.225
1.225
1.225
1.225
1.225
1.225
1.225
1.225
1.225
1.225
1.225
1.225
1.225
1.225
1.225
1.225
1.225
1.225
1.225
1.225
1.225
1.225
1.225
1.225
1.225
1.225
1.225
1.225
1.225
1.225
1.225
1.225
1.225
1.225
1.225
1.225
1.225
1.225
1.225
1.225
1.225
1.22501
1.22553
2.8989
2.81116
1.225
1.225
1.225
1.225
1.22518
2.57789
2.01543
0.916863
0.443868
1.225
1.225
1.225
1.225
1.22501
1.54478
2.44158
0.367793
1.225
1.225
1.225
1.225
1.22535
2.63082
1.74086
0.321988
1.225
1.225
1.225
1.22522
2.51806
1.72381
0.634333
1.225
1.225
1.225
1.225
1.225
1.225
1.22502
1.91587
2.33514
1.13954
0.699604
1.225
1.225
1.225
1.225
1.22501
1.27535
2.70195
0.697657
1.225
1.225
1.225
1.225
1.22505
2.11934
2.07019
0.668555
1.225
1.225
1.225
1.22509
1.34195
2.5705
1.39127
0.929861
1.225
1.225
1.225
1.225
1.225
1.225
1.225
1.22502
1.22532
2.3041
2.44382
1.225
1.225
1.225
1.225
1.225
1.22533
2.70303
2.02236
1.225
1.225
1.225
1.225
1.225
1.23899
2.81926
1.32826
1.225
1.225
1.225
1.225
1.22514
2.39441
2.53768
1.23578
1.225
1.225
1.225
1.225
1.225
1.225
1.225
1.225
1.22505
2.7319
2.92764
1.225
1.225
1.225
1.225
1.225
1.225
1.23046
2.3727
1.92904
1.225
1.225
1.225
1.225
1.225
1.22501
1.40684
2.17204
1.225
1.225
1.225
1.225
1.22501
1.60002
2.87116
1.69619
1.225
1.225
1.225
1.225
1.225
1.225
1.225
1.225
1.225
1.22503
2.89011
1.225
1.225
1.225
1.225
1.225
1.225
1.225
1.3662
2.51862
1.225
1.225
1.225
1.225
1.225
1.225
1.22502
1.53633
1.225
1.225
1.225
1.225
1.225
1.225
1.2255
2.42989
1.225
1.225
1.225
1.225
1.225
1.22505
1.68711
2.44375
1.225
1.225
1.225
1.225
1.225
1.225
1.225
1.225
1.24557
2.51201
1.225
1.225
1.225
1.225
1.225
1.225
1.225
1.22504
2.31781
2.49195
1.225
1.225
1.225
1.225
1.225
1.225
1.225
1.22509
1.225
1.225
1.225
1.225
1.225
1.225
1.225
1.22962
1.225
1.225
1.225
1.225
1.225
1.225
1.22535
2.15681
1.225
1.225
1.225
1.225
1.225
1.225
1.225
1.225
1.225
1.44783
1.225
1.225
1.225
1.225
1.225
1.225
1.225
1.225
1.22502
1.74671
1.225
1.225
1.225
1.225
1.225
1.225
1.225
1.225
1.225
1.225
1.225
1.225
1.225
1.225
1.225
1.22546
1.225
1.225
1.225
1.225
1.225
1.225
1.225
1.22558
1.225
1.225
1.225
1.225
1.225
1.225
1.225
1.225
1.225
1.225
1.225
1.225
1.225
1.225
1.225
1.225
1.225
1.225
1.225
1.22503
1.225
1.225
1.225
1.225
1.225
1.225
1.225
1.225
1.225
1.225
1.225
1.225
1.225
1.225
1.225
1.225
1.225
1.225
1.225
1.225
1.225
1.225
1.225
1.225
1.225
1.225
1.225
1.225
1.225
1.225
1.225
1.225
1.225
1.225
1.225
1.225
1.225
1.225
1.225
1.225
1.225
1.225
1.225
1.225
1.225
1.225
1.225
1.225
1.225
1.225
1.225
1.225
1.225
1.225
1.225
1.225
1.225
1.225
1.225
1.225
1.225
1.225
1.225
1.225
1.225
1.225
1.225
1.225
1.225
1.225
1.225
1.225
1.225
1.225
1.225
1.225
1.225
1.225
1.225
1.225
1.225
1.225
1.225
1.225
1.225
1.225
1.225
1.225
1.225
1.225
1.225
1.225
1.225
1.225
1.225
1.225
1.225
1.225
1.225
1.225
1.225
1.225
1.225
1.225
1.225
1.225
1.225
1.225
1.225
1.225
1.225
1.225
1.69921
1.44481
2.30124
2.46036
1.56768
2.45652
1.5803
2.19224
1.47007
1.9819
1.35337
1.22503
2.42346
1.22882
2.41084
1.92392
2.33604
1.225
1.22626
1.225
1.23703
1.225
1.25899
1.225
1.225
1.225
1.225
1.225
1.225
1.225
1.225
1.225
1.225
1.225
1.225
1.24841
0.533152
0.226372
0.455629
0.66921
0.512523
0.815432
0.675749
0.976418
1.67215
1.42569
1.43237
0.850389
1.93585
1.24972
0.857585
2.12197
1.57647
1.95613
1.25758
0.939951
1.36176
1.08356
0.761044
0.923404
0.912193
1.23954
0.733166
0.682442
0.592506
0.757888
0.873136
0.510223
0.280355
0.660588
0.487442
1.24691
0.735412
0.688415
0.717337
0.845125
0.778432
1.30657
0.565689
1.02392
0.546192
0.738236
1.16004
0.696147
0.880687
1.27271
2.59192
1.92957
2.21457
1.74723
1.00148
1.50989
0.737658
1.10748
0.869819
0.941004
0.806924
1.48347
1.34023
0.256133
0.251747
0.281873
0.296271
0.323654
0.354987
0.328191
1.02656
1.28975
1.89664
1.02664
1.29162
2.1686
1.42138
0.97547
1.09965
1.44436
0.774772
0.605176
1.12778
0.970344
1.03443
1.30625
2.1907
1.4302
1.59441
1.50193
2.34101
0.310295
0.326603
0.354062
0.341663
0.368954
0.421266
0.397484
1.09527
0.684535
0.743225
0.626792
1.34641
1.20226
0.566304
0.333146
0.478519
0.357888
0.509391
0.393908
0.422971
0.535239
0.863335
1.01043
0.850265
0.970401
1.00439
1.15201
1.15175
0.847676
0.973487
0.971077
1.00877
1.00553
1.15349
1.15601
0.66252
0.863668
0.701103
0.755272
0.692418
0.789978
0.895727
0.553147
0.695368
0.58777
0.601964
0.621952
0.749002
0.741425
0.350642
0.283412
0.313214
0.392998
0.413442
0.437717
0.367266
1.3573
1.2117
0.563544
1.33353
0.619867
1.48181
0.681736
0.87109
0.980717
0.99602
1.01692
1.03336
1.16476
1.18427
0.381549
0.515747
0.417148
0.531508
0.431671
0.476022
0.566928
0.552138
0.681807
0.54877
0.599584
0.604055
0.742698
0.750094
1.18921
1.28406
0.955273
1.00497
1.82001
1.28686
1.54767
0.420472
0.504313
0.386885
0.457718
0.600356
0.498227
0.565514
0.896903
1.07412
1.02555
1.11509
1.06445
1.22055
1.27807
0.700642
0.562525
0.577791
0.630165
0.614639
0.76219
0.778628
0.642741
0.869276
0.980096
1.34437
0.789091
1.45998
0.831398
0.464273
0.381232
0.405314
0.480956
0.530948
0.548114
0.460591
1.03237
1.66514
1.79682
1.15492
0.619768
1.2884
0.679395
0.394515
0.420567
0.44509
0.466576
0.489052
0.546939
0.526453
0.847655
1.41233
0.661424
1.90481
0.987813
1.5615
0.721668
0.391506
0.531726
0.414775
0.452148
0.55675
0.575126
0.429678
0.418372
0.53015
0.441762
0.502554
0.582446
0.599683
0.482338
0.596639
0.618221
0.760608
0.650122
0.674087
0.799538
0.824445
1.66529
2.43661
1.74027
1.81621
1.41385
2.18984
2.4371
2.3121
1.35766
1.89244
2.45428
2.0535
1.44024
1.72512
1.36697
2.20243
1.70124
1.89047
1.74522
2.42877
2.43774
1.64857
2.43592
1.72231
1.34855
1.6508
1.71559
2.43638
0.724898
0.6305
0.649862
0.750987
0.77555
0.681203
0.807526
0.811082
0.918403
0.801538
1.01824
0.880512
0.890406
1.0299
1.86746
1.42964
1.72506
1.69569
1.54033
2.68651
2.41698
1.67918
2.72888
1.89371
2.08118
1.91813
2.97895
2.22012
2.48286
2.25913
2.07739
1.45732
1.56553
1.89679
1.7542
1.11158
1.24774
1.11141
1.30797
1.4469
1.30812
1.44395
0.580257
0.583132
0.475866
0.510465
0.713983
0.624252
0.611034
1.24774
1.11333
1.11195
1.3082
1.44772
1.31049
1.44384
0.830923
0.967277
0.932502
0.893984
1.04075
0.960893
1.01646
0.798009
0.912331
0.804537
0.878715
1.01155
1.00931
0.875577
0.511598
0.550262
0.460185
0.528292
0.662443
0.589158
0.609821
0.57765
0.587781
0.496332
0.550027
0.717384
0.641692
0.632282
0.459334
0.60278
0.504006
0.640434
0.544763
0.597775
0.686929
1.07971
1.14271
1.18616
1.22881
1.2749
1.35685
1.45317
0.908238
1.57339
1.35245
1.38304
0.84024
2.13755
1.4881
0.805889
0.767612
0.721325
0.833957
0.953783
0.919202
0.902734
0.642181
0.812714
0.785608
0.733064
0.701708
0.852622
0.883956
0.85248
2.15844
1.50001
1.62914
0.897696
2.33003
1.46103
0.496786
0.528313
0.609031
0.686028
0.548285
0.626574
0.47546
1.12029
1.2764
1.13779
1.45849
1.31988
1.3421
1.48185
0.659608
0.739824
0.670063
0.812368
0.889026
0.890859
0.807343
0.658895
0.743589
0.665117
0.894012
0.810775
0.819222
0.903769
2.46251
1.67455
2.2193
1.67437
2.58289
2.26228
2.85652
1.19816
1.4265
1.19841
1.37409
1.63038
1.37322
1.62843
1.42805
1.20378
1.20032
1.37516
1.63502
1.62936
1.37857
0.970277
0.946671
0.825487
0.904617
1.07003
0.923776
1.04683
0.48006
0.565578
0.502085
0.611798
0.66834
0.685195
0.593238
1.0828
1.15914
1.55572
1.571
0.988205
2.06219
1.43376
2.61069
2.49181
1.83413
2.28977
2.84779
2.76945
2.75275
1.2136
1.47009
1.23421
1.6499
1.38999
1.41466
1.67952
0.551771
0.691041
0.730904
0.760334
0.599709
0.673421
0.647855
0.757601
0.694157
0.676929
0.83202
0.93927
0.849699
0.918322
0.531052
0.592476
0.606883
0.609582
0.624204
0.712491
0.699616
0.661707
0.822574
0.78329
0.766117
0.718992
0.845933
0.893043
1.8329
1.42068
1.63525
1.45812
1.29369
1.88786
1.65516
1.31028
1.22336
1.17089
1.38174
1.57861
1.44185
1.5213
0.570683
0.63306
0.771395
0.663767
0.647949
0.678896
0.553426
1.17128
1.43905
1.3287
1.4833
1.37612
1.56231
1.67905
1.00043
1.03464
0.897741
1.09958
0.948349
0.977182
1.1337
0.699247
0.63144
0.641088
0.772036
0.831892
0.762939
0.837919
0.582324
0.580699
0.594973
0.746203
0.723413
0.73712
0.73319
1.28089
1.88444
0.932362
2.58651
1.41873
2.06106
1.0722
1.92426
1.6254
2.54908
1.41237
1.00932
1.9495
1.34749
0.842228
0.730273
0.768871
0.874724
0.810653
0.919217
0.959976
1.11552
1.71053
0.935639
2.69929
1.67788
2.41892
1.50107
1.59663
2.42777
2.27066
2.08206
2.00751
1.80161
2.40307
1.51299
1.33048
1.27168
1.45807
1.7992
1.72848
1.52388
0.588073
0.754457
0.606709
0.672932
0.818287
0.833959
0.655483
0.645663
0.6128
0.554889
0.658231
0.806834
0.727992
0.741584
0.717009
0.843287
0.745421
0.967764
0.872977
0.901694
1.00402
1.04411
1.15352
1.1455
1.15709
1.14532
1.29222
1.29551
1.02322
1.15204
1.14758
1.14965
1.14547
1.29481
1.29957
0.705022
0.911592
0.836888
0.826025
0.743884
0.875499
0.961513
0.846053
1.00794
0.876676
1.04357
0.906726
0.942635
1.08529
0.580041
0.570891
0.587684
0.724828
0.73932
0.751073
0.736323
2.42321
2.9004
2.2407
2.5334
2.40251
2.02781
2.22958
2.88893
3.83253
1.83696
3.00345
2.44237
2.85252
2.96438
2.04095
2.70306
1.60375
2.62009
2.57811
3.171
3.21928
3.21272
3.1382
3.18136
3.22965
3.1391
3.08575
3.31827
2.29173
1.93144
1.27529
1.23729
1.95663
1.65033
1.22539
1.67373
1.22504
1.24204
1.36389
1.51033
2.32832
2.32468
1.22577
1.22752
1.22939
1.40831
1.2525
1.26331
1.225
1.225
1.225
1.225
1.225
1.225
2.66778
2.58386
3.00243
2.08013
1.61647
1.49744
2.20452
1.93418
1.22632
1.36276
1.72987
1.86178
2.64608
2.96586
3.0611
2.44919
2.81215
2.84493
2.62093
2.73029
2.57055
1.22715
2.80699
1.225
1.225
2.75023
2.43099
1.54201
1.60567
1.89496
1.77862
1.55876
2.18533
1.79431
1.74936
2.09515
1.23255
1.75008
1.22504
1.22582
1.46319
1.22501
1.22643
1.22541
1.38614
1.3222
1.5878
1.25233
1.5175
1.73135
1.28797
1.33471
1.5773
1.25981
1.82704
1.77635
1.69882
1.86281
1.42225
2.11513
1.74886
1.84883
2.24302
1.25006
1.22726
1.225
1.225
1.22501
1.22526
1.225
1.225
1.225
1.23085
1.225
1.225
1.225
1.87732
1.22505
1.225
1.225
1.225
1.225
1.225
2.7053
2.21628
2.64777
4.22543
1.2283
1.41786
1.225
1.225
1.225
1.225
1.225
1.225
1.225
1.225
1.225
1.225
1.225
1.225
1.225
1.225
1.225
1.225
1.225
1.225
1.225
1.22929
1.225
1.225
1.225
1.225
1.225
1.225
1.225
1.225
1.225
1.225
1.225
1.225
1.225
1.225
1.225
1.225
1.225
1.225
1.225
1.225
1.225
1.225
1.225
1.225
1.225
1.225
1.225
1.225
1.225
1.225
1.225
1.225
1.225
1.225
1.225
1.225
1.225
1.225
1.225
1.225
1.225
1.225
1.225
1.225
1.225
1.225
1.225
1.225
1.225
1.225
1.225
1.225
1.225
1.225
1.225
1.225
1.225
1.225
1.225
1.225
1.225
1.225
1.225
1.225
1.225
1.225
1.225
1.225
1.225
1.225
1.225
1.225
1.225
1.225
1.225
1.225
1.225
1.225
1.225
1.225
1.225
1.225
1.225
1.225
1.225
1.225
1.225
1.225
1.225
1.225
1.225
1.225
1.225
1.225
1.225
1.225
1.225
1.225
1.225
1.225
1.225
1.225
1.225
1.225
1.225
1.225
1.225
1.225
1.225
1.225
1.225
1.225
1.225
1.225
1.225
1.225
1.225
1.225
1.225
1.225
1.225
1.225
1.225
1.225
1.225
1.225
1.225
1.225
1.225
1.22511
1.225
1.22648
1.22704
1.2527
1.2251
1.24736
1.22501
1.22501
1.22513
1.22506
1.225
1.225
1.225
1.225
1.225
1.22501
1.225
1.225
1.225
1.225
1.225
1.225
1.225
1.225
1.225
1.225
1.225
1.225
1.225
1.225
1.225
1.225
1.225
1.225
1.225
1.225
1.225
1.225
1.225
1.225
1.225
1.225
1.225
1.225
1.225
1.225
1.225
1.225
1.225
1.225
1.225
1.225
1.225
1.225
1.225
1.225
1.225
1.225
1.225
1.225
1.225
1.225
1.225
1.225
1.225
1.225
1.225
1.225
1.225
1.225
1.225
1.225
1.225
1.225
1.225
1.225
1.225
1.225
1.225
1.225
1.225
1.225
1.225
1.225
1.225
1.225
1.225
1.225
1.225
1.225
1.225
1.225
1.225
1.225
1.225
1.225
1.225
1.225
1.225
1.225
1.225
1.225
1.225
1.225
1.22597
1.22526
1.22506
1.225
1.225
1.225
1.225
1.225
1.225
1.225
1.225
1.225
1.225
1.225
1.225
1.225
1.225
1.225
1.225
1.225
1.225
1.225
1.225
1.225
1.225
1.225
1.225
1.225
1.225
1.225
1.225
1.225
1.225
1.225
1.225
1.225
1.225
1.225
1.225
1.225
1.225
1.225
1.225
1.225
1.225
1.225
1.225
1.225
1.225
1.225
1.225
1.225
1.225
1.225
1.225
1.225
1.225
1.225
1.225
1.225
1.225
1.225
1.225
1.225
1.225
1.225
1.225
1.225
1.225
1.225
1.225
1.225
1.225
1.225
1.225
1.225
1.225
1.225
1.225
1.225
1.225
1.225
1.225
1.225
1.225
1.225
1.225
1.225
1.225
1.225
1.225
1.225
1.225
1.225
1.225
1.225
1.225
1.225
1.225
1.225
1.225
1.225
1.225
1.225
1.225
1.225
1.225
1.225
1.225
1.225
1.225
1.225
1.225
1.225
1.225
1.225
1.225
1.225
1.225
1.225
1.225
1.225
1.225
1.225
1.225
1.225
1.225
1.225
1.225
1.225
1.225
1.225
1.225
1.225
1.22538
1.23939
1.22511
1.22526
1.2268
1.22848
1.22503
1.225
1.22501
1.225
1.22502
1.225
1.225
1.225
1.225
1.225
1.225
1.225
1.225
1.225
1.225
1.225
1.225
1.225
1.225
1.225
1.225
1.225
1.225
1.225
1.225
1.22501
1.225
1.225
1.225
1.225
1.225
1.225
1.225
1.225
1.225
1.225
1.225
1.225
1.225
1.225
1.225
1.225
1.225
1.225
1.225
1.225
1.225
1.225
1.225
1.225
1.225
1.225
1.225
1.225
1.225
1.225
1.225
1.225
1.225
1.225
1.225
1.225
1.225
1.225
1.225
1.225
1.225
1.225
1.225
1.225
1.225
1.225
1.225
1.225
1.225
1.225
1.225
1.225
1.225
1.225
1.225
1.225
1.225
1.225
1.225
1.225
1.225
1.225
1.225
1.225
1.225
1.225
1.225
1.225
1.225
1.225
1.225
1.225
1.225
1.225
1.225
1.225
1.225
1.225
1.225
1.225
1.225
1.225
1.225
1.225
1.225
1.225
1.225
1.225
1.225
1.225
1.225
1.225
1.225
1.225
1.225
1.225
1.225
1.225
1.225
1.225
1.225
1.225
1.225
1.225
1.225
1.225
1.225
1.225
1.225
1.225
1.225
1.225
1.225
1.225
1.225
1.225
1.225
1.225
1.225
1.225
1.225
1.225
1.225
1.225
1.225
1.225
1.225
1.225
1.225
1.225
1.225
1.225
1.225
1.225
1.225
1.225
1.225
1.225
1.225
1.225
1.225
1.225
1.225
1.225
1.225
1.225
1.225
1.225
1.225
1.225
1.225
1.225
1.225
1.225
1.225
1.225
1.225
1.225
1.225
1.225
1.225
1.225
1.225
1.225
1.225
1.225
1.225
1.225
1.225
1.225
1.225
1.225
1.225
1.225
1.225
1.225
1.225
1.225
1.225
1.225
1.225
1.225
1.225
1.225
1.225
1.225
1.225
1.225
1.225
1.225
1.225
1.225
1.225
1.225
1.225
1.225
1.225
1.225
1.225
1.225
1.225
1.225
1.225
1.225
1.2254
1.225
1.225
1.225
1.225
1.22509
1.225
1.225
1.225
1.225
1.225
1.225
1.225
1.225
1.225
1.225
1.225
1.225
1.225
1.225
1.225
1.225
1.225
1.225
1.225
1.225
1.225
1.225
1.225
1.225
1.225
1.225
1.225
1.225
1.225
1.225
1.225
1.225
1.225
1.225
1.225
1.225
1.225
1.225
1.225
1.225
1.225
1.225
1.225
1.225
1.225
1.225
1.225
1.225
1.225
1.225
1.225
1.225
1.225
1.225
1.225
1.225
1.225
1.225
1.225
1.225
1.225
1.225
1.225
1.225
1.225
1.225
1.225
1.225
1.225
1.225
1.225
1.225
1.225
1.225
1.225
1.225
1.225
1.225
1.225
1.225
1.225
1.225
1.225
1.225
1.225
1.225
1.225
1.225
1.225
1.225
1.225
1.225
1.225
1.225
1.225
1.225
1.225
1.225
1.225
1.225
1.225
1.225
1.225
1.225
1.225
1.225
1.225
1.225
1.225
1.225
1.225
1.225
1.225
1.225
1.225
1.225
1.225
1.225
1.225
1.225
1.225
1.225
1.225
1.225
1.225
1.225
1.225
1.225
1.225
1.225
1.225
1.225
1.225
1.225
1.225
1.225
1.225
1.225
1.225
1.225
1.225
1.225
1.225
1.225
1.225
1.225
1.225
1.225
1.225
1.225
1.225
1.225
1.225
1.225
1.225
1.225
1.225
1.225
1.225
1.225
1.225
1.225
1.225
1.225
1.225
1.225
1.225
1.225
1.225
1.225
1.225
1.225
1.225
1.225
1.225
1.225
1.225
1.225
1.225
1.225
1.225
1.225
1.225
1.225
1.225
1.225
1.225
1.225
1.225
1.225
1.225
1.225
1.225
1.225
1.225
1.225
1.225
1.225
1.225
1.225
1.225
1.225
1.225
1.225
1.225
1.225
1.225
1.225
1.225
1.225
1.225
1.225
1.225
1.225
1.225
1.225
1.225
1.225
1.225
1.225
1.225
1.225
1.225
1.225
1.225
1.225
1.225
1.225
1.225
1.225
1.225
1.225
1.225
1.225
1.225
1.225
1.225
1.225
1.225
1.225
1.225
1.225
1.225
1.225
1.225
1.225
1.225
1.225
1.225
1.225
1.225
1.225
1.225
1.225
1.225
1.225
1.225
1.225
1.225
1.225
1.225
1.225
1.225
1.225
1.225
1.225
1.225
1.225
1.225
1.225
1.225
1.225
1.225
1.225
1.225
1.225
1.225
1.225
1.225
1.225
1.225
1.225
1.225
1.225
1.225
1.225
1.225
1.225
1.225
1.225
1.225
1.225
1.225
1.225
1.225
1.225
1.225
1.225
1.225
1.225
1.225
1.225
1.225
1.225
1.225
1.225
1.225
1.225
1.225
1.225
1.225
1.225
1.225
1.225
1.225
1.225
1.225
1.225
1.225
1.225
1.225
1.225
1.225
1.225
1.225
1.225
1.225
1.225
1.225
1.225
1.225
1.225
1.225
1.225
1.225
1.225
1.225
1.225
1.225
1.225
1.225
1.225
1.225
1.225
1.225
1.225
1.225
1.225
1.225
1.225
1.225
1.225
1.225
1.225
1.225
1.225
1.225
1.225
1.225
1.225
1.225
1.225
1.225
1.225
1.225
1.225
1.225
1.225
1.225
1.225
1.225
1.225
1.225
1.225
1.225
1.225
1.225
1.225
1.225
1.225
1.225
1.225
1.225
1.225
1.225
1.225
1.225
1.225
1.225
1.225
1.225
1.225
1.225
1.225
1.225
1.225
1.225
1.225
1.225
1.225
1.225
1.225
1.225
1.225
1.225
1.225
1.225
1.225
1.225
1.225
1.225
1.225
1.225
1.225
1.225
1.225
1.225
1.225
1.225
1.225
1.225
1.225
1.225
1.225
1.225
1.225
1.225
1.225
1.225
1.225
1.225
1.225
1.225
1.225
1.225
1.225
1.225
1.225
1.225
1.225
1.225
1.225
1.225
1.225
1.225
1.225
1.225
1.225
1.225
1.225
1.225
1.225
1.225
1.225
1.225
1.225
1.225
1.225
1.225
1.225
1.225
1.225
1.225
1.225
1.225
1.225
1.225
1.225
1.225
1.225
1.225
1.225
1.225
1.225
1.225
1.225
1.225
1.225
1.225
1.225
1.225
1.225
1.225
1.225
1.225
1.225
1.225
1.225
1.225
1.225
1.225
1.225
1.225
1.225
1.225
1.225
1.225
1.225
1.225
1.225
1.225
1.225
1.225
1.225
1.225
1.225
1.225
1.225
1.225
1.225
1.225
1.225
1.225
1.225
1.225
1.225
1.225
1.225
1.225
1.225
1.225
1.225
1.225
1.225
1.225
1.225
1.225
1.225
1.225
1.225
1.225
1.225
1.225
1.225
1.225
1.225
1.225
1.225
1.225
1.225
1.225
1.225
1.225
1.225
1.225
1.225
1.225
1.225
1.225
1.225
1.225
1.225
1.225
1.225
1.225
1.225
1.225
1.225
1.225
1.225
1.225
1.225
1.225
1.225
1.225
1.225
1.225
1.225
1.225
1.225
1.225
1.225
1.225
1.225
1.225
1.225
1.225
1.225
1.225
1.225
1.225
1.225
1.225
1.225
1.225
1.225
1.225
1.225
1.225
1.225
1.225
1.225
1.225
1.225
1.225
1.225
1.225
1.225
1.225
1.225
1.225
1.225
1.225
1.225
1.225
1.225
1.225
1.225
1.225
1.225
1.225
1.225
1.225
1.225
1.225
1.225
1.225
1.225
1.225
1.225
1.225
1.225
1.225
1.225
1.225
1.225
1.225
1.225
1.225
1.225
1.225
1.225
1.225
1.225
1.225
1.225
1.225
1.225
1.225
1.225
1.225
1.225
1.225
1.225
1.225
1.225
1.225
1.225
1.225
1.225
1.225
1.225
1.225
1.225
1.225
1.225
1.225
1.225
1.225
1.225
1.225
1.225
1.225
1.225
1.225
1.225
1.225
1.225
1.225
1.225
1.225
1.225
1.225
1.225
1.225
1.225
1.225
1.225
1.225
1.225
1.225
1.225
1.225
1.225
1.225
1.225
1.225
1.225
1.225
1.225
1.225
1.225
1.225
1.225
1.225
1.225
1.225
1.225
1.225
1.225
1.225
1.225
1.225
1.225
1.225
1.225
1.225
1.225
1.225
1.225
1.225
1.225
1.225
1.225
1.225
1.225
1.225
1.225
1.225
1.225
1.225
1.225
1.225
1.225
1.225
1.225
1.225
1.225
1.225
1.225
1.225
1.225
1.225
1.225
1.225
1.225
1.225
1.225
1.225
1.225
1.225
1.225
1.225
1.225
1.225
1.225
1.225
1.225
1.225
1.225
1.225
1.225
1.225
1.225
1.225
1.225
1.225
1.225
1.225
1.225
1.225
1.225
1.225
1.225
1.225
1.225
1.225
1.225
1.225
1.225
1.225
1.225
1.225
1.225
1.225
1.225
1.225
1.225
1.225
1.225
1.225
1.225
1.225
1.225
1.225
1.225
1.225
1.225
1.225
1.225
1.225
1.225
1.225
1.225
1.225
1.225
1.225
1.225
1.225
1.225
1.225
1.225
1.225
1.225
1.225
1.225
1.225
1.225
1.225
1.225
1.225
1.225
1.225
1.225
1.225
1.225
1.225
1.225
1.225
1.225
1.225
1.225
1.225
1.225
1.225
1.225
1.225
1.225
1.225
1.225
1.225
1.225
1.225
1.225
1.225
1.225
1.225
1.225
1.225
1.225
1.225
1.225
1.225
1.225
1.225
1.225
1.225
1.225
1.225
1.225
1.225
1.225
1.225
1.225
1.225
1.225
1.225
1.225
1.225
1.225
1.225
1.225
1.225
1.225
1.225
1.225
1.225
1.225
1.225
1.225
1.225
1.225
1.225
1.225
1.225
1.225
1.225
1.225
1.225
1.225
1.225
1.225
1.225
1.225
1.225
1.225
1.225
1.225
1.225
1.225
1.225
1.225
1.225
1.225
1.225
1.225
1.225
1.225
1.225
1.225
1.225
1.225
1.225
1.225
1.225
1.225
1.225
1.225
1.225
1.225
1.225
1.225
1.225
1.225
1.225
1.225
1.225
1.225
1.225
1.225
1.225
1.225
1.225
1.225
1.225
1.225
1.225
1.225
1.225
1.225
1.225
1.225
1.225
1.225
1.225
1.225
1.225
1.225
1.225
1.225
1.225
1.225
1.225
1.225
1.225
1.225
1.225
1.225
1.225
1.225
1.225
1.225
1.225
1.225
1.225
1.225
1.225
1.225
1.225
1.225
1.225
1.225
1.225
1.225
1.225
1.225
1.225
1.225
1.225
1.225
1.225
1.225
1.225
1.225
1.225
1.225
1.225
1.225
1.225
1.225
1.225
1.225
1.225
1.225
1.225
1.225
1.225
1.225
1.225
1.225
1.225
1.225
1.225
1.225
1.225
1.225
1.225
1.225
1.225
1.225
1.225
1.225
1.225
1.225
1.225
1.225
1.225
1.225
1.225
1.225
1.225
1.225
1.225
1.225
1.225
1.225
1.225
1.225
1.225
1.225
1.225
1.225
1.225
1.225
1.225
1.225
1.225
1.225
1.225
1.225
1.225
1.225
1.225
1.225
1.225
1.225
1.225
1.225
1.225
1.225
1.225
1.225
1.225
1.225
1.225
1.225
1.225
1.225
1.225
1.225
1.225
1.225
1.225
1.225
1.225
1.225
1.225
1.225
1.225
1.225
1.225
1.225
1.225
1.225
1.225
1.225
1.225
1.225
1.225
1.225
1.225
1.225
1.225
1.225
1.225
1.225
1.225
1.225
1.225
1.225
1.225
1.225
1.225
1.225
1.225
1.225
1.225
1.225
1.225
1.225
1.225
1.225
1.225
1.225
1.225
1.225
1.225
1.225
1.225
1.225
1.225
1.225
1.225
1.225
1.225
1.225
1.225
1.225
1.225
1.225
1.225
1.225
1.225
1.225
1.225
1.225
1.225
1.225
1.225
1.225
1.225
1.225
1.225
1.225
1.225
1.225
1.225
1.225
1.225
1.225
1.225
1.225
1.225
1.225
1.225
1.225
1.225
1.225
1.225
1.225
1.225
1.225
1.225
1.225
1.225
1.225
1.225
1.225
1.225
1.225
1.225
1.225
1.225
1.225
1.225
1.225
1.225
1.225
1.225
1.225
1.225
1.225
1.225
1.225
1.225
1.225
1.225
1.225
1.225
1.225
1.225
1.225
1.225
1.225
1.225
1.225
1.225
1.225
1.225
1.225
1.225
1.225
1.225
1.225
1.225
1.225
1.225
1.225
1.225
1.225
1.225
1.225
1.225
1.225
1.225
1.225
1.225
1.225
1.225
1.225
1.225
1.225
1.225
1.225
1.225
1.225
1.225
1.225
1.225
1.225
1.225
1.225
1.225
1.225
1.225
1.225
1.225
1.225
1.225
1.225
1.225
1.225
1.225
1.225
1.225
1.225
1.225
1.225
1.225
1.225
1.225
1.225
1.225
1.225
1.225
1.225
1.225
1.225
1.225
1.225
1.225
1.225
1.225
1.225
1.225
1.225
1.225
1.225
1.225
1.225
1.225
1.225
1.225
1.225
1.225
1.225
1.225
1.225
1.225
1.225
1.225
1.225
1.225
1.225
1.225
1.225
1.225
1.225
1.225
1.225
1.225
1.225
1.225
1.225
1.225
1.225
1.225
1.225
1.225
1.225
1.225
1.225
1.225
1.225
1.225
1.225
1.225
1.225
1.225
1.225
1.225
1.225
1.225
1.225
1.225
1.225
1.225
1.225
1.225
1.225
1.225
1.225
1.225
1.225
1.225
1.225
1.225
1.225
1.225
1.225
1.225
1.225
1.225
1.225
1.225
1.225
1.225
1.225
1.225
1.225
1.225
1.225
1.225
1.225
1.225
1.225
1.225
1.225
1.225
1.225
1.225
1.225
1.225
1.225
1.225
1.225
1.225
1.225
1.225
1.225
1.225
1.225
1.225
1.225
1.225
1.225
1.225
1.225
1.225
1.225
1.225
1.225
1.225
1.225
1.225
1.225
1.225
1.225
1.225
1.225
1.225
1.225
1.225
1.225
1.225
1.225
1.225
1.225
1.225
1.225
1.225
1.225
1.225
1.225
1.225
1.225
1.225
1.225
1.225
1.225
1.225
1.225
1.225
1.225
1.225
1.225
1.225
1.225
1.225
1.225
1.225
1.225
1.225
1.225
1.225
1.225
1.225
1.225
1.225
1.225
1.225
1.225
1.225
1.225
1.225
1.225
1.225
1.225
1.225
1.225
1.225
1.225
1.225
1.225
1.225
1.225
1.225
1.225
1.225
1.225
1.225
1.225
1.225
1.225
1.225
1.225
1.225
1.225
1.225
1.225
1.225
1.225
1.225
1.225
1.225
1.225
1.225
1.225
1.225
1.225
1.225
1.225
1.225
1.225
1.225
1.225
1.225
1.225
1.225
1.225
1.225
1.225
1.225
1.225
1.225
1.225
1.225
1.225
1.225
1.225
1.225
1.225
1.225
1.225
1.225
1.225
1.225
1.225
1.225
1.225
1.225
1.225
1.225
1.225
1.225
1.225
1.225
1.225
1.225
1.225
1.225
1.225
1.225
1.225
1.225
1.225
1.225
1.225
1.225
1.225
1.225
1.225
1.225
1.225
1.225
1.225
1.225
1.225
1.225
1.225
1.225
1.225
1.225
1.225
1.225
1.225
1.225
1.225
1.225
1.225
1.225
1.225
1.225
1.225
1.225
1.225
1.225
1.225
1.225
1.225
1.225
1.225
1.225
1.225
1.225
1.225
1.225
1.225
1.225
1.225
1.225
1.225
1.225
1.225
1.225
1.225
1.225
1.225
1.225
1.225
1.225
1.225
1.225
1.225
1.225
1.225
1.225
1.225
1.225
1.225
1.225
1.225
1.225
1.225
1.225
1.225
1.225
1.225
1.225
1.225
1.225
1.225
1.225
1.225
1.225
1.225
1.225
1.225
1.225
1.225
1.225
1.225
1.225
1.225
1.225
1.225
1.225
1.225
1.225
1.225
1.225
1.225
1.225
1.225
1.225
1.225
1.225
1.225
1.225
1.225
1.225
1.225
1.225
1.225
1.225
1.225
1.225
1.225
1.225
1.225
1.225
1.225
1.225
1.225
1.225
1.225
1.225
1.225
1.225
1.225
1.225
1.225
1.225
1.225
1.225
1.225
1.225
1.225
1.225
1.225
1.225
1.225
1.225
1.225
1.225
1.225
1.225
1.225
1.225
1.225
1.225
1.225
1.225
1.225
1.225
1.225
1.225
1.225
1.225
1.225
1.225
1.225
1.225
1.225
1.225
1.225
1.225
1.225
1.225
1.225
1.225
1.225
1.225
1.225
1.225
1.225
1.225
1.225
1.225
1.225
1.225
1.225
1.225
1.225
1.225
1.225
1.225
1.225
1.22501
1.225
1.225
1.22502
1.225
1.22538
1.22519
1.22758
1.22503
1.22503
1.22501
1.22501
1.225
1.22516
1.225
1.225
1.225
1.22501
1.225
1.225
1.225
1.225
1.225
1.225
1.225
1.225
1.225
1.225
1.225
1.225
1.225
1.225
1.225
1.225
1.225
1.225
1.225
1.2254
1.225
1.225
1.225
1.225
1.225
1.225
1.225
1.22501
1.22508
1.22501
1.22506
1.22684
1.22502
1.22513
1.22513
1.22575
1.22501
1.225
1.225
1.225
1.225
1.225
1.225
1.225
1.225
1.225
1.225
1.225
1.225
1.225
1.225
1.225
1.225
1.22501
1.225
1.225
1.225
1.225
1.225
1.225
1.225
1.22501
1.225
1.225
1.225
1.225
1.225
1.225
1.22502
1.22515
1.225
1.22501
1.22504
1.22508
1.225
1.225
1.225
1.225
1.225
1.22501
1.22547
1.225
1.22502
1.225
1.22501
1.225
1.225
1.23061
1.22617
1.2444
1.22764
1.32109
1.29003