/*--------------------------------*- C++ -*----------------------------------*\
  =========                 |
  \\      /  F ield         | OpenFOAM: The Open Source CFD Toolbox
   \\    /   O peration     | Website:  https://openfoam.org
    \\  /    A nd           | Version:  9
     \\/     M anipulation  |
\*---------------------------------------------------------------------------*/
FoamFile
{
    format      ascii;
    class       volScalarField;
    location    "0.0028";
    object      rhoE;
}
// * * * * * * * * * * * * * * * * * * * * * * * * * * * * * * * * * * * * * //

dimensions      [1 -1 -2 0 0 0 0];

internalField   nonuniform List<scalar> 
25309
(
253245
253245
253245
253245
253245
253245
253246
253245
253245
253245
253245
253245
253245
253245
253245
253245
253245
253245
253245
253245
253245
253245
253245
253245
253245
253245
253245
253245
253245
253245
253245
253245
253245
253245
253245
253246
253245
253245
253245
253728
736354
253336
253245
253245
253245
498332
566123
257074
253245
253245
253487
1.10628e+06
854940
746092
253275
811282
1.19055e+06
736299
713112
253245
264279
1.35691e+06
1.1708e+06
641992
253245
253245
253245
253245
253245
253245
253245
253245
253245
253245
253245
253245
253245
253245
253245
253245
253245
253245
253245
253245
253245
253245
253245
253245
253245
253245
253245
253245
253245
253245
253245
253245
253245
253245
253245
253245
253245
253245
253245
253245
253245
253245
253245
253246
253323
253245
253245
253245
253245
253245
253245
253246
253370
931977
253245
253245
253245
253245
253245
253245
253277
794693
617310
253245
253245
253245
253245
253256
661572
1.11877e+06
664739
492316
253245
253245
253245
253245
253245
253245
253245
253245
253245
253245
253245
253245
253245
253245
253245
253245
253245
253245
253245
253245
253245
253245
253245
253245
253245
253245
253245
253245
253245
253245
253245
253245
253245
253245
253245
253245
253245
253245
253245
253245
253245
253245
253245
253245
253254
253245
253245
253245
253245
253245
253245
253245
253259
467860
253245
253245
253245
253245
253245
253245
253249
384766
678209
253245
253245
253245
253245
253246
340094
1.30458e+06
734091
540914
253245
253245
253245
253245
253245
253245
253245
253245
253245
253245
253245
253245
253245
253245
253245
253245
253245
253245
253245
253245
253245
253245
253245
253245
253245
253245
253245
253245
253245
253245
253245
253245
253245
253245
253245
253245
253245
253245
253245
253245
253245
253245
253245
253245
253246
253245
253245
253245
253245
253245
253245
253245
253247
254270
253245
253245
253245
253245
253245
253245
253246
253842
1.3094e+06
253245
253245
253245
253245
253245
253247
253267
742553
862588
253245
253245
253245
253245
253245
253245
253245
253245
253245
253245
253245
253245
253245
253245
253245
253245
253245
253245
253245
253245
253245
253245
253245
253245
253245
253245
253245
253245
253245
253245
253245
253245
253245
253245
253245
253245
253245
253245
253245
253245
253245
253245
253245
253245
253245
253245
253245
253245
253245
253245
253245
253245
253245
253247
253245
253245
253245
253245
253245
253245
253245
253247
256292
253245
253245
253245
253245
253245
253245
253249
253283
1.30571e+06
253245
253245
253245
253245
253245
253245
253245
253245
253245
253245
253245
253245
253245
253245
253245
253245
253245
253245
253245
253245
253245
253245
253245
253245
253245
253245
253245
253245
253245
253245
253245
253245
253245
253245
253245
253245
253245
253245
253245
253245
253245
253245
253245
253245
253245
253245
253245
253245
253245
253245
253245
253245
253245
253245
253245
253245
253245
253245
253245
253245
253245
253245
253247
253245
253245
253245
253245
253245
253245
253245
253248
1.12539e+06
253245
253245
253245
253245
253245
253245
253245
253245
253245
253245
253245
253245
253245
253245
253245
253245
253245
253245
253245
253245
253245
253245
253245
253245
253245
253245
253245
253245
253245
253245
253245
253245
253245
253245
253245
253245
253245
253245
253245
253245
253245
253245
253245
253245
253245
253245
253245
253245
253245
253245
253245
253245
253245
253245
253245
253245
253245
253245
253245
253245
253245
253245
253245
253245
253245
253245
253245
253245
253245
255497
253245
253245
253245
253245
253245
253245
253245
253245
254477
841697
253245
253245
253245
253245
253245
253245
253245
253245
253245
253245
253245
253245
253245
253245
253245
253245
253245
253245
253245
253245
253245
253245
253245
253245
253245
253245
253245
253245
253245
253245
253245
253245
253245
253245
253245
253245
253245
253245
253245
253245
253245
253245
253245
253245
253245
253245
253245
253245
253245
253245
253245
253245
253245
253245
253245
253245
253245
253245
253245
253245
253245
253245
253245
253245
253245
253245
253245
253245
253245
253245
253245
253245
253245
253245
253245
253245
253245
253245
253245
253245
253245
253245
253245
253245
253245
253245
253245
253245
253245
253245
253245
253245
253245
253245
253245
253245
253245
253245
253245
253245
253245
253245
253245
253245
253245
253245
253245
253245
253245
253245
253245
253245
253245
253245
253245
253245
253245
253245
253245
253245
253245
253245
253245
253245
253245
253245
253245
253245
253245
253245
253245
253245
253245
253245
253245
253245
253245
253245
253245
253245
253245
253245
253245
253245
253245
253245
253245
253245
253245
253245
253245
253245
253245
253245
253245
253245
253245
253245
253245
253245
253245
253245
253245
253245
253245
253245
253245
253245
253245
253245
253245
253245
253245
253245
253245
253245
253245
253245
253245
253245
253245
253245
253245
253245
253245
253245
253245
253245
253245
253245
253245
253245
253245
253245
253245
253245
253245
253245
253245
253245
253245
253245
253245
253245
253245
253245
253245
253245
253245
253245
253245
253245
253245
253245
253245
253245
253245
253245
253245
253245
253245
253245
253245
253245
253245
253245
253245
253245
253245
253245
253245
253245
253245
253245
253245
253245
253245
253245
253245
253245
253245
253245
253245
253245
253245
253245
253245
253245
253245
253245
253245
253245
253245
253245
253245
253245
253245
253245
253245
253245
253245
253245
253245
253245
253245
253245
253245
253245
253245
253245
253245
253245
253245
253245
253245
253245
253245
253245
253245
253245
253245
253245
253245
253245
253245
253245
253245
253245
253245
253245
253245
253245
253245
253245
253245
253245
253245
253245
253245
253245
253245
253245
253245
253245
253245
253245
253245
253245
253245
253245
253245
253245
253245
253245
253245
253245
253245
253245
253245
253245
253245
253245
253245
253245
253245
253249
253402
1.21358e+06
1.2105e+06
253245
253245
253245
253245
253298
971227
997795
625146
474634
253245
253245
253245
253245
253249
376079
1.21349e+06
510719
253245
253245
253245
253245
253348
1.0292e+06
911683
508728
253245
253245
253245
253309
936327
928446
592922
253245
253245
253245
253245
253245
253245
253252
551727
1.16751e+06
686896
493569
253245
253245
253245
253245
253246
269763
1.33245e+06
505067
253245
253245
253245
253245
253258
659972
1.05243e+06
491627
253245
253245
253245
253270
293774
1.29215e+06
705726
470779
253245
253245
253245
253245
253245
253245
253245
253252
253341
1.07588e+06
1.19268e+06
253245
253245
253245
253245
253245
253342
1.11679e+06
875841
253245
253245
253245
253245
253246
257626
1.39046e+06
585621
253245
253245
253245
253245
253285
853286
1.19486e+06
552329
253245
253245
253245
253245
253245
253245
253245
253245
253259
1.32468e+06
1.26835e+06
253245
253245
253245
253245
253245
253246
254916
1.04104e+06
757337
253245
253245
253245
253245
253245
253248
320545
917763
253245
253245
253245
253245
253248
402824
1.36964e+06
715090
253245
253245
253245
253245
253245
253245
253245
253245
253245
253255
1.18224e+06
253245
253245
253245
253245
253245
253245
253246
300263
923868
253245
253245
253245
253245
253245
253245
253251
363713
253245
253245
253245
253245
253245
253245
253393
837950
253245
253245
253245
253245
253245
253259
430643
852967
253245
253245
253245
253245
253245
253245
253245
253245
259520
933189
253245
253245
253245
253245
253245
253245
253245
253256
749839
912102
253245
253245
253245
253245
253245
253245
253245
253271
253245
253245
253245
253245
253245
253245
253246
254614
253245
253245
253245
253245
253245
253245
253347
650132
253245
253245
253245
253245
253245
253245
253245
253245
253245
329563
253245
253245
253245
253245
253245
253245
253245
253245
253250
450594
253245
253245
253245
253245
253245
253245
253245
253245
253245
253245
253245
253245
253245
253245
253245
253380
253245
253245
253245
253245
253245
253245
253245
253415
253245
253245
253245
253245
253245
253245
253245
253245
253245
253245
253245
253245
253245
253245
253245
253245
253245
253245
253245
253254
253245
253245
253245
253245
253245
253245
253245
253245
253245
253245
253245
253245
253245
253245
253245
253245
253245
253245
253245
253245
253245
253245
253245
253245
253245
253245
253245
253245
253245
253245
253245
253245
253245
253245
253245
253245
253245
253245
253245
253245
253245
253245
253245
253245
253245
253245
253245
253245
253245
253245
253245
253245
253245
253245
253245
253245
253245
253245
253245
253245
253245
253245
253245
253245
253245
253245
253245
253245
253245
253245
253245
253245
253245
253245
253245
253245
253245
253245
253245
253245
253245
253245
253245
253245
253245
253245
253245
253245
253245
253245
253245
253245
253245
253245
253245
253245
253245
253245
253245
253245
253245
253245
253245
253245
253245
253245
253245
253245
253245
253245
253245
253245
686164
634453
867740
915465
574404
929684
565338
819715
531399
724741
493547
253253
860242
254376
906480
530229
888339
253245
253615
253245
256866
253246
263718
253245
253245
253245
253245
253245
253245
253245
253245
253245
253245
253245
253245
576336
490884
506530
471385
594595
574141
615130
578105
522879
687218
621209
628512
474293
770612
579933
478656
839506
674533
779487
582856
494285
606410
611347
535212
469127
460786
626216
552761
443994
483580
574760
604679
513098
440219
526282
425299
632256
554474
444658
457885
467307
577074
665750
501160
677333
531638
608088
717959
546916
634058
556307
1.04988e+06
793578
875117
724571
503801
638244
466365
549773
477326
632599
587347
753708
682771
506712
507542
508329
529612
529743
531324
531090
483373
558951
807661
484688
560409
957609
669897
625209
568042
749937
538536
426935
570223
474122
489594
570452
972619
676489
673689
715427
1.06437e+06
441402
449317
452456
461705
465417
475912
471816
729541
836849
796112
590517
795032
748966
591051
490365
476702
493197
503793
517463
520800
510068
478972
509219
469919
519903
506083
568097
566554
470126
526993
522998
513344
509130
571292
574964
632387
674318
730960
740907
617926
534023
665444
455771
459186
507362
483252
512143
487782
478962
510708
507888
509400
532220
532474
534036
531534
802472
756440
585247
792590
600791
843319
608820
482677
531134
535930
517705
522970
579343
585841
432148
442563
446033
456148
459331
473574
474221
445311
441534
446246
477771
479493
478981
483760
597194
745359
583170
654236
907785
657407
784437
500106
482913
496053
524477
526990
529766
517533
487549
552171
542632
540463
530227
595244
608442
450554
449717
455974
492556
485316
490834
499122
526531
606738
641634
752252
575852
801804
593445
478747
460550
464614
489006
501513
506169
484718
662089
861082
924083
711738
547044
756614
558728
512940
514287
517273
535589
538203
545853
542250
643732
812929
608362
988563
675395
867083
618031
551297
576296
551110
553407
578743
581642
552651
485678
517556
489712
501907
528671
533639
497505
462907
470763
476447
500310
509039
508580
519730
600853
897411
625909
655549
513208
828200
912034
874241
568171
704407
915840
788027
553424
618708
499345
834519
615520
685169
627921
861975
896811
593362
900429
617935
490835
594724
613918
900159
435792
447185
461066
458467
473217
481877
496937
452127
464841
446883
512851
490237
496522
519661
788024
632358
721451
817526
735257
1.31383e+06
1.11354e+06
694162
1.12275e+06
773886
874096
774565
1.27242e+06
871991
900180
873764
799003
561246
590429
686753
632201
560692
576220
561914
613780
627182
613286
625103
538804
576559
544951
549565
587810
583771
546340
577267
567103
564288
615307
629348
618511
625706
475122
505782
576017
503314
531700
567705
510983
444910
460317
450622
489058
507916
505399
486577
479846
461841
461647
490556
518150
510849
494743
520621
489439
488210
504142
548126
539446
508955
506075
513786
514415
538789
537545
548428
553400
517074
565348
554398
582750
572594
625972
647968
682798
814797
727474
699315
600906
1.06173e+06
827093
737821
595296
600539
548027
635407
647545
578772
480215
502741
488548
532523
519619
532964
548593
610960
1.07531e+06
834605
880364
629914
1.16974e+06
742845
556290
558643
585076
599414
561557
588887
554421
570373
588044
575840
633335
622532
629769
640258
515624
560148
529949
523976
565509
566501
518763
513159
560267
517168
570035
521366
527343
576998
1.02015e+06
701848
950763
701632
1.17134e+06
899714
1.12986e+06
556395
621978
557474
629070
702449
627842
701007
624156
564586
560582
631275
707625
702504
635223
487378
478147
459032
504314
538991
513676
528213
520865
536035
524650
557747
568965
574360
553295
665002
606262
802010
833402
628477
1.01981e+06
753070
1.19146e+06
1.00375e+06
766546
913442
1.11988e+06
1.29916e+06
1.03647e+06
569389
643860
576470
714379
640469
649070
725282
555229
567128
605613
599892
563315
593076
555500
568094
532225
524107
535127
595663
544257
585474
496808
514583
519841
522976
528379
556192
549671
469234
510626
483367
531443
505245
523150
552417
798072
657101
812470
659250
573480
811214
690257
595699
595572
584027
640184
663117
654440
649920
518366
534363
581754
549057
539921
554824
513550
534547
630419
604500
621708
595159
674414
704925
499019
513284
489764
552358
525127
538952
568423
824726
706194
691737
670222
789634
673845
776858
592028
613390
610697
635714
622788
626873
632765
753112
964190
663372
1.29143e+06
801355
1.05511e+06
699489
969159
829962
1.28912e+06
786247
610795
967011
693179
519027
520966
547797
537582
565646
566783
587722
698442
907764
642378
1.35264e+06
842437
1.21748e+06
761850
571737
921558
864286
612383
734327
647998
832498
656873
600463
586495
661244
760796
740287
677935
566475
613978
570370
583336
626028
633064
578449
528876
540141
525561
563000
592743
581809
571190
541100
599642
551365
607904
554911
567642
622739
497048
518655
512912
542266
532982
571095
573997
481264
519022
514747
537377
533222
573042
577598
497718
559203
513893
563247
520246
539225
587096
451419
502482
476972
519430
492662
519742
549758
587256
587299
590252
623674
628850
634784
628979
1.62425e+06
1.90118e+06
1.39432e+06
1.57668e+06
1.4385e+06
1.05545e+06
1.24589e+06
1.20469e+06
1.91248e+06
968329
1.49343e+06
1.32467e+06
1.05294e+06
1.25628e+06
1.16247e+06
1.32724e+06
408009
1.21535e+06
1.20789e+06
2.10085e+06
2.21193e+06
2.45213e+06
2.04442e+06
2.15297e+06
2.45332e+06
1.99728e+06
1.87852e+06
2.41831e+06
944757
552482
270400
257050
580119
438782
253359
492257
253256
259193
313229
388603
996551
978109
253483
254055
254711
349431
264285
268063
253245
253245
253245
253245
253245
253245
1.41309e+06
1.18729e+06
1.67968e+06
1.12556e+06
893678
806120
1.18386e+06
1.00726e+06
588136
695420
847780
623584
1.52898e+06
1.76641e+06
2.15372e+06
1.18039e+06
1.65164e+06
1.89418e+06
1.6178e+06
1.90421e+06
1.7928e+06
253927
1.45096e+06
253245
253245
1.06756e+06
917601
380359
406787
562818
516834
395147
933561
688137
715962
800656
255552
490994
253256
253489
339497
253247
253672
253368
315992
290403
422843
262163
387670
593676
276441
293086
459776
265112
579866
575619
572457
813128
346056
896890
958055
940641
1.12037e+06
260945
253941
253246
253245
253247
253322
253245
253246
253245
254987
253245
253245
253245
508059
253261
253245
253245
253245
253245
253245
1.33833e+06
685620
1.27155e+06
2.33279e+06
254249
321354
253245
253245
253245
253245
253245
253245
253245
253245
253245
253245
253245
253245
253245
253245
253245
253245
253245
253246
253245
254642
253245
253245
253245
253245
253245
253245
253245
253245
253245
253245
253245
253245
253245
253245
253245
253245
253245
253245
253245
253245
253245
253245
253245
253245
253245
253245
253245
253245
253245
253245
253245
253245
253245
253245
253245
253245
253245
253245
253245
253245
253245
253245
253245
253245
253245
253245
253245
253245
253245
253245
253245
253245
253245
253245
253245
253245
253245
253245
253245
253245
253245
253245
253245
253245
253245
253245
253245
253245
253245
253245
253245
253245
253245
253245
253245
253245
253245
253245
253245
253245
253245
253245
253245
253245
253245
253245
253245
253245
253245
253245
253245
253245
253245
253245
253245
253245
253245
253245
253245
253245
253245
253245
253245
253245
253245
253245
253245
253245
253245
253245
253245
253245
253245
253245
253245
253245
253245
253245
253245
253245
253245
253245
253245
253245
253245
253245
253245
253245
253245
253277
253245
253712
253893
263191
253275
261154
253247
253247
253284
253263
253245
253245
253246
253245
253246
253247
253246
253246
253245
253246
253246
253245
253245
253245
253246
253245
253245
253245
253245
253246
253245
253245
253245
253245
253245
253245
253245
253245
253245
253245
253245
253245
253245
253246
253245
253246
253245
253245
253245
253245
253245
253245
253245
253245
253245
253245
253245
253245
253245
253245
253245
253245
253245
253245
253245
253245
253245
253245
253245
253245
253245
253245
253245
253245
253245
253245
253245
253245
253245
253245
253245
253245
253245
253245
253245
253245
253245
253245
253245
253245
253245
253245
253245
253245
253245
253245
253245
253245
253245
253245
253245
253245
253245
253245
253551
253325
253262
253245
253245
253245
253245
253245
253245
253245
253245
253245
253245
253245
253245
253245
253245
253245
253245
253245
253245
253245
253245
253245
253245
253245
253245
253245
253245
253245
253245
253245
253245
253245
253245
253245
253245
253245
253245
253245
253245
253245
253245
253245
253245
253245
253245
253245
253245
253245
253245
253245
253245
253245
253245
253245
253245
253245
253245
253245
253245
253245
253245
253245
253245
253245
253245
253245
253245
253245
253245
253245
253245
253245
253245
253245
253245
253245
253245
253245
253245
253245
253245
253245
253245
253245
253245
253245
253245
253245
253245
253245
253245
253245
253245
253245
253245
253245
253245
253245
253245
253245
253245
253245
253245
253245
253245
253245
253245
253245
253245
253245
253245
253245
253245
253245
253245
253245
253245
253245
253245
253245
253245
253245
253245
253245
253245
253245
253245
253245
253245
253245
253245
253245
253362
258481
253278
253324
253832
254383
253253
253245
253247
253246
253250
253245
253246
253245
253245
253245
253245
253245
253245
253245
253245
253245
253245
253245
253245
253245
253245
253246
253245
253245
253245
253247
253245
253245
253245
253245
253245
253245
253245
253245
253245
253245
253245
253245
253245
253245
253245
253245
253245
253245
253245
253245
253245
253245
253245
253245
253245
253245
253245
253245
253245
253245
253245
253245
253245
253245
253245
253245
253245
253245
253245
253245
253245
253245
253245
253245
253245
253245
253245
253245
253245
253245
253245
253245
253245
253245
253245
253245
253245
253245
253245
253245
253245
253245
253245
253245
253245
253245
253245
253245
253245
253245
253245
253245
253245
253245
253245
253245
253245
253245
253245
253245
253245
253245
253245
253245
253245
253245
253245
253245
253245
253245
253245
253245
253245
253245
253245
253245
253245
253245
253245
253245
253245
253245
253245
253245
253245
253245
253245
253245
253245
253245
253245
253245
253245
253245
253245
253245
253245
253245
253245
253245
253245
253245
253245
253245
253245
253245
253245
253245
253245
253245
253245
253245
253245
253245
253245
253245
253245
253245
253245
253245
253245
253245
253245
253245
253245
253245
253245
253245
253245
253245
253245
253245
253245
253245
253245
253245
253245
253245
253245
253245
253245
253245
253245
253245
253245
253245
253245
253245
253245
253245
253245
253245
253245
253245
253245
253245
253245
253245
253245
253245
253245
253245
253245
253245
253245
253245
253245
253245
253245
253245
253245
253245
253245
253245
253245
253245
253245
253245
253245
253245
253245
253245
253245
253245
253363
253246
253245
253245
253245
253272
253245
253245
253245
253245
253245
253245
253245
253245
253245
253245
253245
253245
253245
253245
253245
253245
253245
253245
253245
253245
253245
253245
253245
253245
253245
253245
253245
253245
253245
253245
253245
253245
253245
253245
253245
253245
253245
253245
253245
253245
253245
253245
253245
253245
253245
253245
253245
253245
253245
253245
253245
253245
253245
253245
253245
253245
253245
253245
253245
253245
253245
253245
253245
253245
253245
253245
253245
253245
253245
253245
253245
253245
253245
253245
253245
253245
253245
253245
253245
253245
253245
253245
253245
253245
253245
253245
253245
253245
253245
253245
253245
253245
253245
253245
253245
253245
253245
253245
253245
253245
253245
253245
253245
253245
253245
253245
253245
253245
253245
253245
253245
253245
253245
253245
253245
253245
253245
253245
253245
253245
253245
253245
253245
253245
253245
253245
253245
253245
253245
253245
253245
253245
253245
253245
253245
253245
253245
253245
253245
253245
253245
253245
253245
253245
253245
253245
253245
253245
253245
253245
253245
253245
253245
253245
253245
253245
253245
253245
253245
253245
253245
253245
253245
253245
253245
253245
253245
253245
253245
253245
253245
253245
253245
253245
253245
253245
253245
253245
253245
253245
253245
253245
253245
253245
253245
253245
253245
253245
253245
253245
253245
253245
253245
253245
253245
253245
253245
253245
253245
253245
253245
253245
253245
253245
253245
253245
253245
253245
253245
253245
253245
253245
253245
253245
253245
253245
253245
253245
253245
253245
253245
253245
253245
253245
253245
253245
253245
253245
253245
253245
253245
253245
253245
253245
253245
253245
253245
253245
253245
253245
253245
253245
253245
253245
253245
253245
253245
253245
253245
253245
253245
253245
253245
253245
253245
253245
253245
253245
253245
253245
253245
253245
253245
253245
253245
253245
253245
253245
253245
253245
253245
253245
253245
253245
253245
253245
253245
253245
253245
253245
253245
253245
253245
253245
253245
253245
253245
253245
253245
253245
253245
253245
253245
253245
253245
253245
253245
253245
253245
253245
253245
253245
253245
253245
253245
253245
253245
253245
253245
253245
253245
253245
253245
253245
253245
253245
253245
253245
253245
253245
253245
253245
253245
253245
253245
253245
253245
253245
253245
253245
253245
253245
253245
253245
253245
253245
253245
253245
253245
253245
253245
253245
253245
253245
253245
253245
253245
253245
253245
253245
253245
253245
253245
253245
253245
253245
253245
253245
253245
253245
253245
253245
253245
253245
253245
253245
253245
253245
253245
253245
253245
253245
253245
253245
253245
253245
253245
253245
253245
253245
253245
253245
253245
253245
253245
253245
253245
253245
253245
253245
253245
253245
253245
253245
253245
253245
253245
253245
253245
253245
253245
253245
253245
253245
253245
253245
253245
253245
253245
253245
253245
253245
253245
253245
253245
253245
253245
253245
253245
253245
253245
253245
253245
253245
253245
253245
253245
253245
253245
253245
253245
253245
253245
253245
253245
253245
253245
253245
253245
253245
253245
253245
253245
253245
253245
253245
253245
253245
253245
253245
253245
253245
253245
253245
253245
253245
253245
253245
253245
253245
253245
253245
253245
253245
253245
253245
253245
253245
253245
253245
253245
253245
253245
253245
253245
253245
253245
253245
253245
253245
253245
253245
253245
253245
253245
253245
253245
253245
253245
253245
253245
253245
253245
253245
253245
253245
253245
253245
253245
253245
253245
253245
253245
253245
253245
253245
253245
253245
253245
253245
253245
253245
253245
253245
253245
253245
253245
253245
253245
253245
253245
253245
253245
253245
253245
253245
253245
253245
253245
253245
253245
253245
253245
253245
253245
253245
253245
253245
253245
253245
253245
253245
253245
253245
253245
253245
253245
253245
253245
253245
253245
253245
253245
253245
253245
253245
253245
253245
253245
253245
253245
253245
253245
253245
253245
253245
253245
253245
253245
253245
253245
253245
253245
253245
253245
253245
253245
253245
253245
253245
253245
253245
253245
253245
253245
253245
253245
253245
253245
253245
253245
253245
253245
253245
253245
253245
253245
253245
253245
253245
253245
253245
253245
253245
253245
253245
253245
253245
253245
253245
253245
253245
253245
253245
253245
253245
253245
253245
253245
253245
253245
253245
253245
253245
253245
253245
253245
253245
253245
253245
253245
253245
253245
253245
253245
253245
253245
253245
253245
253245
253245
253245
253245
253245
253245
253245
253245
253245
253245
253245
253245
253245
253245
253245
253245
253245
253245
253245
253245
253245
253245
253245
253245
253245
253245
253245
253245
253245
253245
253245
253245
253245
253245
253245
253245
253245
253245
253245
253245
253245
253245
253245
253245
253245
253245
253245
253245
253245
253245
253245
253245
253245
253245
253245
253245
253245
253245
253245
253245
253245
253245
253245
253245
253245
253245
253245
253245
253245
253245
253245
253245
253245
253245
253245
253245
253245
253245
253245
253245
253245
253245
253245
253245
253245
253245
253245
253245
253245
253245
253245
253245
253245
253245
253245
253245
253245
253245
253245
253245
253245
253245
253245
253245
253245
253245
253245
253245
253245
253245
253245
253245
253245
253245
253245
253245
253245
253245
253245
253245
253245
253245
253245
253245
253245
253245
253245
253245
253245
253245
253245
253245
253245
253245
253245
253245
253245
253245
253245
253245
253245
253245
253245
253245
253245
253245
253245
253245
253245
253245
253245
253245
253245
253245
253245
253245
253245
253245
253245
253245
253245
253245
253245
253245
253245
253245
253245
253245
253245
253245
253245
253245
253245
253245
253245
253245
253245
253245
253245
253245
253245
253245
253245
253245
253245
253245
253245
253245
253245
253245
253245
253245
253245
253245
253245
253245
253245
253245
253245
253245
253245
253245
253245
253245
253245
253245
253245
253245
253245
253245
253245
253245
253245
253245
253245
253245
253245
253245
253245
253245
253245
253245
253245
253245
253245
253245
253245
253245
253245
253245
253245
253245
253245
253245
253245
253245
253245
253245
253245
253245
253245
253245
253245
253245
253245
253245
253245
253245
253245
253245
253245
253245
253245
253245
253245
253245
253245
253245
253245
253245
253245
253245
253245
253245
253245
253245
253245
253245
253245
253245
253245
253245
253245
253245
253245
253245
253245
253245
253245
253245
253245
253245
253245
253245
253245
253245
253245
253245
253245
253245
253245
253245
253245
253245
253245
253245
253245
253245
253245
253245
253245
253245
253245
253245
253245
253245
253245
253245
253245
253245
253245
253245
253245
253245
253245
253245
253245
253245
253245
253245
253245
253245
253245
253245
253245
253245
253245
253245
253245
253245
253245
253245
253245
253245
253245
253245
253245
253245
253245
253245
253245
253245
253245
253245
253245
253245
253245
253245
253245
253245
253245
253245
253245
253245
253245
253245
253245
253245
253245
253245
253245
253245
253245
253245
253245
253245
253245
253245
253245
253245
253245
253245
253245
253245
253245
253245
253245
253245
253245
253245
253245
253245
253245
253245
253245
253245
253245
253245
253245
253245
253245
253245
253245
253245
253245
253245
253245
253245
253245
253245
253245
253245
253245
253245
253245
253245
253245
253245
253245
253245
253245
253245
253245
253245
253245
253245
253245
253245
253245
253245
253245
253245
253245
253245
253245
253245
253245
253245
253245
253245
253245
253245
253245
253245
253245
253245
253245
253245
253245
253245
253245
253245
253245
253245
253245
253245
253245
253245
253245
253245
253245
253245
253245
253245
253245
253245
253245
253245
253245
253245
253245
253245
253245
253245
253245
253245
253245
253245
253245
253245
253245
253245
253245
253245
253245
253245
253245
253245
253245
253245
253245
253245
253245
253245
253245
253245
253245
253245
253245
253245
253245
253245
253245
253245
253245
253245
253245
253245
253245
253245
253245
253245
253245
253245
253245
253245
253245
253245
253245
253245
253245
253245
253245
253245
253245
253245
253245
253245
253245
253245
253245
253245
253245
253245
253245
253245
253245
253245
253245
253245
253245
253245
253245
253245
253245
253245
253245
253245
253245
253245
253245
253245
253245
253245
253245
253245
253245
253245
253245
253245
253245
253245
253245
253245
253245
253245
253245
253245
253245
253245
253245
253245
253245
253245
253245
253245
253245
253245
253245
253245
253245
253245
253245
253245
253245
253245
253245
253245
253245
253245
253245
253245
253245
253245
253245
253245
253245
253245
253245
253245
253245
253245
253245
253245
253245
253245
253245
253245
253245
253245
253245
253245
253245
253245
253245
253245
253245
253245
253245
253245
253245
253245
253245
253245
253245
253245
253245
253245
253245
253245
253245
253245
253245
253245
253245
253245
253245
253245
253245
253245
253245
253245
253245
253245
253245
253245
253245
253245
253245
253245
253245
253245
253245
253245
253245
253245
253245
253245
253245
253245
253245
253245
253245
253245
253245
253245
253245
253245
253245
253245
253245
253245
253245
253245
253245
253245
253245
253245
253245
253245
253245
253245
253245
253245
253245
253245
253245
253245
253245
253245
253245
253245
253245
253245
253245
253245
253245
253245
253245
253245
253245
253245
253245
253245
253245
253245
253245
253245
253245
253245
253245
253245
253245
253245
253245
253245
253245
253245
253245
253245
253245
253245
253245
253245
253245
253245
253245
253245
253245
253245
253245
253245
253245
253245
253245
253245
253245
253245
253245
253245
253245
253245
253245
253245
253245
253245
253245
253245
253245
253245
253245
253245
253245
253245
253245
253245
253245
253245
253245
253245
253245
253245
253245
253245
253245
253245
253245
253245
253245
253245
253245
253245
253245
253245
253245
253245