/*--------------------------------*- C++ -*----------------------------------*\
  =========                 |
  \\      /  F ield         | OpenFOAM: The Open Source CFD Toolbox
   \\    /   O peration     | Website:  https://openfoam.org
    \\  /    A nd           | Version:  9
     \\/     M anipulation  |
\*---------------------------------------------------------------------------*/
FoamFile
{
    format      ascii;
    class       volScalarField;
    location    "0.0027";
    object      rho;
}
// * * * * * * * * * * * * * * * * * * * * * * * * * * * * * * * * * * * * * //

dimensions      [1 -3 0 0 0 0 0];

internalField   nonuniform List<scalar> 
22864
(
2.0477
1.225
1.225
1.225
1.225
1.22501
1.225
1.225
1.22509
0.880586
1.29424
2.34431
2.12574
1.22511
1.22663
1.5155
1.23427
1.22525
1.22538
1.46542
1.23318
1.23654
1.03489
1.7439
1.13811
1.35625
1.69988
1.18189
1.81525
0.952049
0.77609
0.83315
1.17573
1.02081
1.10385
1.08382
1.24613
1.22724
1.22769
1.23739
1.22845
1.24
1.24377
1.30984
1.30233
1.37824
1.53506
1.29368
1.3291
1.35814
1.13068
0.900634
0.980779
1.28769
1.34341
1.20904
1.42723
1.22708
1.45533
1.48156
1.30858
2.00094
1.8969
1.99204
1.92955
1.77335
2.10538
2.4041
1.59545
2.406
1.91659
1.78429
1.62949
1.61531
1.74663
1.53204
1.84596
1.23135
2.14836
1.34536
2.49177
1.19167
1.89019
1.80213
1.57528
2.37548
1.22502
1.225
1.225
1.22528
1.23281
1.22518
1.22501
1.225
1.225
1.225
1.225
1.225
1.225
1.225
1.225
1.225
1.225
1.225
1.225
1.225
1.225
1.225
1.225
1.225
1.225
1.225
1.225
1.225
1.225
1.225
1.225
1.225
1.225
1.225
1.225
1.225
1.225
1.225
1.225
1.225
1.225
1.225
1.75211
1.22599
1.22501
1.225
1.225
1.22514
1.2284
1.22504
1.225
1.225
1.225
1.225
1.225
1.225
1.225
1.225
1.225
1.225
1.225
1.225
1.225
1.225
1.225
1.225
1.225
1.225
1.225
1.225
1.225
1.225
1.225
1.225
1.225
1.225
1.225
1.225
1.225
1.225
1.225
1.225
1.225
1.225
1.225
1.225
2.10366
1.22501
1.225
1.225
1.22502
1.22531
1.225
1.225
1.225
1.225
1.225
1.225
1.225
1.225
1.225
1.225
1.225
1.225
1.225
1.225
1.225
1.225
1.225
1.225
1.225
1.225
1.225
1.225
1.225
1.225
1.225
1.225
1.225
1.225
1.225
1.225
1.225
1.225
1.225
1.225
1.225
1.225
1.225
1.25428
1.225
1.22502
1.225
1.225
1.225
1.225
1.225
1.225
1.225
1.225
1.225
1.225
1.225
1.225
1.225
1.225
1.225
1.225
1.225
1.225
1.225
1.225
1.225
1.225
1.225
1.225
1.225
1.225
1.225
1.225
1.225
1.225
1.225
1.225
1.225
1.225
1.225
1.225
1.225
1.225
1.225
1.225
1.98446
1.73827
1.22886
1.225
1.225
1.73633
1.23645
1.22504
1.225
1.225
1.225
1.22506
1.225
1.225
1.225
1.225
1.225
1.225
1.225
1.225
1.225
1.225
1.225
1.225
1.225
1.225
1.225
1.225
1.225
1.225
1.225
1.225
1.225
1.225
1.225
1.225
1.225
1.225
1.225
1.225
1.225
1.225
1.225
1.225
1.225
1.225
1.225
1.87266
1.23727
1.22501
1.225
1.225
1.225
1.22501
1.22613
1.225
1.225
1.225
1.225
1.225
1.225
1.225
1.225
1.225
1.225
1.225
1.225
1.225
1.225
1.225
1.225
1.225
1.225
1.225
1.225
1.225
1.225
1.225
1.225
1.225
1.225
1.225
1.225
1.225
1.225
1.225
1.225
1.225
1.225
1.225
1.225
1.225
1.225
1.225
1.225
1.22501
1.225
1.225
1.225
1.225
1.225
1.225
1.225
1.225
1.225
1.225
1.225
1.225
1.225
1.225
1.225
1.225
1.225
1.225
1.225
1.225
1.225
1.225
1.225
1.225
1.225
1.225
1.225
1.225
1.225
1.225
1.225
1.225
1.225
1.225
1.225
1.225
1.225
1.225
1.225
1.225
1.225
1.225
1.225
1.225
1.225
1.225
1.225
1.225
1.225
1.225
1.225
1.225
1.225
1.225
1.225
1.225
1.225
1.225
1.225
1.225
1.225
1.225
1.225
1.225
1.225
1.225
1.225
1.225
1.225
1.225
1.225
1.225
1.225
1.225
1.225
1.225
1.225
1.225
1.225
1.225
1.225
1.225
1.225
1.225
1.225
1.225
1.225
1.225
1.225
1.225
1.225
1.225
1.225
1.225
1.225
1.225
1.225
1.225
1.225
1.225
1.225
1.225
1.225
1.225
1.225
1.225
1.225
1.225
1.225
1.225
1.225
1.225
1.225
1.225
1.225
1.225
1.225
1.225
1.225
1.225
1.225
1.225
1.225
1.225
1.225
1.225
1.225
1.225
1.225
1.225
1.225
1.225
1.225
1.225
1.225
1.225
1.225
1.225
1.225
1.225
1.225
1.225
1.225
1.225
1.225
1.225
1.225
1.225
1.225
1.225
1.225
1.225
1.225
1.225
1.225
1.225
1.225
1.225
1.225
1.225
1.225
1.225
1.225
1.225
1.225
1.225
1.225
1.225
1.225
1.225
1.225
1.225
1.225
1.225
1.225
1.225
1.225
1.225
1.225
1.225
1.225
1.225
1.225
1.225
1.225
1.225
1.225
1.225
1.225
1.225
1.225
1.22501
1.225
1.22501
1.225
1.225
1.225
1.225
1.225
1.225
1.2252
1.225
1.22513
1.35527
1.22643
1.28096
1.38135
1.22599
1.26243
2.13969
1.29634
1.23743
1.61546
2.17338
1.27077
1.23092
1.225
1.22502
1.225
1.22501
1.225
1.22501
1.225
1.225
1.225
1.225
1.225
1.225
1.225
1.225
1.22502
1.225
1.225
1.225
1.22502
1.225
1.225
1.23178
1.22501
1.22503
1.22518
1.22941
1.22501
1.22503
1.22501
1.225
1.225
1.225
1.225
1.225
1.225
1.225
1.2251
1.225
1.22503
1.47042
1.22576
1.25362
1.5703
1.22522
1.23329
2.34643
1.25881
1.22846
2.1603
1.76921
1.23273
1.22528
1.225
1.22501
1.225
1.225
1.225
1.225
1.225
1.225
1.225
1.225
1.225
1.225
1.225
1.22501
1.225
1.225
1.225
1.22501
1.225
1.225
1.22827
1.22501
1.22502
1.22505
1.22583
1.22501
1.22501
1.225
1.22501
1.225
1.225
1.225
1.225
1.225
1.22501
1.225
1.225
1.8142
1.22513
1.22964
1.70662
1.22501
1.22534
1.45454
1.22884
1.22509
1.61363
1.22775
1.22519
1.225
1.225
1.225
1.225
1.225
1.225
1.225
1.225
1.225
1.225
1.225
1.225
1.225
1.225
1.225
1.225
1.225
1.225
1.225
1.225
1.225
1.22543
1.225
1.225
1.22501
1.22503
1.225
1.225
1.22507
1.28569
1.22502
1.225
1.24968
1.22567
1.225
1.225
1.22516
1.225
1.39348
1.225
1.2251
1.22744
1.225
1.225
1.22543
1.22505
1.22501
1.22568
1.225
1.225
1.225
1.22509
1.22503
1.22501
1.2512
1.22531
1.2254
1.225
1.225
1.225
1.22845
1.22507
1.22501
1.225
1.225
1.225
1.225
1.22501
1.225
1.225
1.225
1.225
1.225
1.225
1.225
1.225
1.225
1.225
2.18838
1.32485
1.22764
2.37373
2.08899
1.27296
1.22535
1.27089
1.22568
1.22501
1.29021
1.22693
1.22506
1.22501
1.22503
1.225
1.225
1.22506
1.225
1.225
1.225
2.09135
1.75451
1.23768
2.60552
1.22501
2.11391
2.78176
1.22501
1.225
1.46562
1.28892
1.22504
1.225
1.225
1.225
2.62987
1.36102
1.225
1.225
1.225
1.225
1.22602
1.225
1.225
1.225
1.225
1.225
1.225
1.225
1.225
1.225
1.225
1.225
1.225
1.225
1.225
1.225
1.225
1.225
0.727906
0.755356
1.28842
0.810732
1.3618
1.32284
1.0822
1.40566
0.845995
0.989324
1.82904
0.983554
1.56908
2.27325
1.19683
2.12184
1.52659
1.73056
1.82439
2.49403
1.55893
2.5414
1.68422
2.6023
1.82846
2.57765
1.95285
1.84522
2.81337
1.255
1.99023
1.55479
1.22997
2.35887
1.22644
1.23341
1.22501
1.19387
1.28905
1.55704
2.0737
1.67756
2.47056
1.6422
2.4762
2.64112
2.23599
1.6186
2.6752
2.77926
1.70306
1.24415
2.32638
1.26883
1.22541
2.22278
1.22555
1.22571
1.225
1.99687
1.55412
1.84262
2.20164
2.13705
1.77459
1.95077
2.07282
2.00886
1.94959
2.11509
1.39562
1.67569
1.42216
1.24187
1.30022
1.24722
1.29267
1.22595
1.23276
1.22736
1.22507
1.22563
1.22517
1.2253
1.225
1.22501
1.225
1.22501
1.22501
1.225
1.225
1.225
1.225
1.225
1.225
1.225
1.225
1.225
1.225
1.22501
1.22501
1.225
1.22501
1.225
1.225
1.225
1.225
1.225
1.225
1.225
1.225
1.225
1.225
1.225
1.225
1.225
1.225
1.225
1.225
1.225
1.225
1.225
1.225
1.225
1.225
1.225
1.225
1.225
1.225
1.225
1.225
1.225
1.225
1.225
1.225
1.225
1.225
1.225
1.225
1.225
1.225
1.225
1.225
1.225
1.225
1.225
1.225
1.22504
1.22536
1.22502
1.22519
1.22534
1.22502
1.22504
1.225
1.225
1.225
1.225
1.225
1.225
1.225
1.22503
1.22516
1.22525
1.22501
1.2253
1.22502
1.22503
1.36068
1.50484
1.5122
1.62999
1.77987
1.77418
1.63637
1.24637
1.22796
1.23376
1.22635
1.22779
1.23328
1.24756
1.53575
1.41832
1.57883
1.62298
1.76577
1.77005
1.61458
1.2444
1.22619
1.2271
1.23123
1.2275
1.2324
1.24177
1.225
1.225
1.225
1.225
1.225
1.225
1.225
1.225
1.225
1.225
1.225
1.225
1.225
1.225
1.225
1.225
1.225
1.225
1.225
1.225
1.225
1.225
1.225
1.225
1.225
1.225
1.225
1.225
1.225
1.225
1.225
1.225
1.225
1.225
1.225
1.225
1.225
1.225
1.225
1.225
1.225
1.225
1.225
1.225
1.225
1.225
1.225
1.225
1.225
1.225
1.225
1.225
1.225
1.225
1.22501
1.22519
1.22501
1.22507
1.22502
1.22513
1.22501
1.225
1.225
1.225
1.225
1.225
1.225
1.225
1.22501
1.22504
1.22505
1.225
1.22509
1.225
1.22501
1.6394
1.5242
1.70628
1.57824
1.75589
1.60096
1.73433
1.23546
1.22666
1.22992
1.22555
1.23867
1.22622
1.22863
1.76464
1.80475
1.60213
1.54293
1.62
1.69154
1.4956
1.23242
1.22536
1.22554
1.22661
1.22584
1.2275
1.22988
1.225
1.225
1.225
1.225
1.225
1.225
1.225
1.225
1.225
1.22501
1.22502
1.225
1.225
1.22503
1.225
1.225
1.225
1.225
1.225
1.225
1.225
1.225
1.225
1.225
1.225
1.225
1.225
1.225
1.225
1.225
1.225
1.225
1.225
1.225
1.225
1.225
1.225
1.225
1.225
1.225
1.225
1.225
1.225
1.225
1.225
1.225
1.225
1.225
1.225
1.225
1.22503
1.225
1.22501
1.225
1.22502
1.225
1.225
1.225
1.225
1.225
1.225
1.225
1.225
1.225
1.225
1.225
1.225
1.22501
1.225
1.225
1.78298
1.61114
1.59136
1.37166
1.52652
1.43706
1.4236
1.22669
1.22532
1.22595
1.22506
1.22798
1.22517
1.2255
1.56513
1.53922
1.45823
1.3114
1.26979
1.33073
1.26483
1.22585
1.22503
1.22503
1.22509
1.22508
1.22524
1.22537
1.22828
1.22513
1.22519
1.22577
1.22533
1.22649
1.2269
1.25152
1.23247
1.34042
1.34456
1.23942
1.24175
1.38178
1.22518
1.22505
1.22501
1.22528
1.22501
1.22555
1.22508
1.22505
1.225
1.225
1.22501
1.225
1.22501
1.22502
1.22723
1.2278
1.28937
1.23335
1.23135
1.2259
1.25156
1.22567
1.22506
1.22741
1.22747
1.22518
1.22525
1.23336
1.225
1.225
1.225
1.225
1.225
1.225
1.225
1.225
1.225
1.225
1.225
1.225
1.225
1.225
1.22501
1.22501
1.22563
1.22504
1.22504
1.225
1.22516
1.225
1.225
1.22501
1.22501
1.225
1.225
1.22504
1.27609
1.28193
1.3611
1.2307
1.24111
1.24162
1.22955
1.22504
1.22501
1.22503
1.225
1.22513
1.225
1.22501
1.2379
1.22918
1.24227
1.22654
1.22517
1.22604
1.22532
1.22501
1.225
1.225
1.225
1.225
1.225
1.225
2.08739
2.01515
1.92191
1.84426
1.46902
1.74786
1.48675
1.23853
1.2898
1.24753
1.2293
1.2271
1.23167
1.22615
1.33786
0.826054
0.948737
1.61445
1.17667
2.12665
2.3259
1.37671
2.31114
1.5168
2.48883
1.95993
1.90436
2.88363
1.8649
2.73402
1.91144
2.59724
2.21141
0.734073
0.940409
0.948636
0.393591
0.591225
0.594336
0.392839
0.973129
0.794596
1.02004
0.400817
0.629551
0.6049
0.418122
1.08475
0.911466
1.1658
0.480176
0.666752
0.44433
0.717222
1.26505
1.38469
1.08313
0.527436
0.87084
0.7835
0.589777
1.68186
1.1992
1.34411
0.775737
0.985702
0.672454
1.13245
0.711931
1.55231
1.71658
1.23804
1.53734
1.04856
0.826061
1.9003
1.49442
1.59774
0.906883
1.56406
1.31683
1.08961
1.62935
1.5152
1.60726
1.57751
1.85346
1.33153
2.02575
1.36294
1.26957
1.37567
1.66335
1.51239
1.90224
1.52079
1.34966
0.906426
1.03748
0.996678
0.775324
0.694044
1.11481
1.52597
1.22997
2.08999
1.08542
1.84639
1.73723
1.81709
1.21426
1.44291
1.44556
0.878004
1.01634
1.25706
2.24509
1.69443
1.90505
1.68492
1.41275
1.20044
1.9411
2.25752
2.50081
1.75829
2.70089
1.63562
2.61802
2.31165
2.01248
1.97686
1.85536
2.25848
1.60757
1.77234
2.152
1.36172
1.61333
1.41414
2.18898
1.77744
1.83243
1.92436
1.23719
1.30157
1.25302
1.35612
1.62379
1.44945
1.58945
1.25476
1.93102
1.52271
2.25869
0.997526
2.20292
1.89009
1.58873
2.62434
2.85538
2.16422
2.53884
2.20965
1.84725
1.76904
1.34702
1.54846
1.96713
1.85152
2.06445
1.94771
1.225
1.22533
1.35128
1.225
1.225
1.225
1.2251
1.22501
1.22589
1.47476
1.33991
0.972369
1.15446
1.24254
1.95522
2.14266
1.225
1.225
1.225
1.225
1.225
1.225
1.225
1.225
1.225
1.225
1.225
1.225
1.225
1.225
1.225
1.225
1.22501
1.22501
1.22514
1.22504
1.22501
1.22501
1.22507
1.23114
1.22633
1.22544
1.23247
1.22571
1.23507
1.22903
1.26601
1.27769
1.39016
1.41496
1.27947
1.25693
1.39309
1.07135
0.811429
0.741242
0.893914
0.560466
0.622729
0.805501
1.59765
1.50733
1.07685
1.37846
1.195
1.68464
1.78284
1.225
1.225
1.22501
1.225
1.225
1.225
1.225
1.34449
1.22572
1.23862
1.38214
1.22615
1.29862
1.22502
1.22524
1.22502
1.22501
1.22969
1.22504
1.22501
1.225
1.225
1.225
1.225
1.22501
1.225
1.225
1.225
1.225
1.225
1.225
1.225
1.225
1.225
1.225
2.28251
1.33791
2.32189
1.28909
2.34709
2.07779
1.22514
2.39902
1.22505
1.53452
1.23697
1.22506
1.22503
1.22501
1.23335
1.225
1.22518
1.22501
1.225
1.225
1.225
1.225
1.225
1.225
1.225
1.225
1.225
1.225
1.41119
1.55275
1.25672
1.27733
1.54003
1.25493
1.41874
1.39838
1.27078
1.48587
1.24748
1.51802
1.25171
1.38025
1.32921
1.44344
1.2428
1.2454
1.35678
1.39295
1.23818
1.30122
1.2385
1.29832
1.2308
1.34166
1.23407
1.27509
1.24242
1.26814
1.22842
1.22729
1.25561
1.24825
1.22682
1.23387
1.22596
1.22921
1.22535
1.23578
1.22585
1.22892
1.22545
1.22634
1.22512
1.22503
1.22649
1.22535
1.22504
1.22511
1.225
1.22501
1.225
1.22507
1.22501
1.22502
1.58217
1.71506
1.25799
1.37588
1.49839
1.88037
1.26788
1.33438
1.25159
1.23465
1.22763
1.31728
1.25265
1.23612
1.22651
1.2324
1.22517
1.22558
1.22701
1.23153
1.22513
1.22536
1.22516
1.22504
1.22501
1.22556
1.22509
1.22503
1.22529
1.22517
1.22598
1.22501
1.22502
1.22506
1.225
1.225
1.22504
1.225
1.225
1.22501
1.22502
1.225
1.225
1.225
1.225
1.225
1.225
1.225
1.225
1.225
1.225
1.22508
1.24816
1.2251
1.22508
1.225
1.63519
2.5001
1.52838
1.9432
1.88483
2.60897
2.66086
2.45899
1.22527
2.19708
2.46981
2.68735
2.13442
1.28654
1.29294
1.225
1.22673
1.55337
1.23773
1.22662
1.22504
1.22505
1.225
1.225
1.22661
1.225
1.225
1.225
1.50006
2.80205
1.65126
1.40743
1.9981
2.0586
1.27119
1.22901
1.22738
1.23814
1.2537
1.27351
1.37101
1.22986
2.01512
1.64482
1.84538
1.46828
1.83657
1.61348
2.01503
1.94326
1.95338
1.75884
1.79457
1.79348
1.861
1.71917
1.22594
1.22501
1.22501
1.22981
1.22543
1.22502
1.22501
1.22525
1.22501
1.225
1.22568
1.22502
1.225
1.225
1.22501
1.225
1.225
1.22501
1.225
1.225
1.225
1.225
1.225
1.225
1.225
1.225
1.225
1.225
1.225
1.225
1.225
1.225
1.225
1.225
1.225
1.225
1.225
1.225
1.225
1.225
1.225
1.225
1.225
1.225
1.225
1.22501
1.225
1.225
1.225
1.225
1.22504
1.225
1.225
1.225
1.225
1.225
1.225
1.225
1.225
1.225
1.225
1.225
1.225
1.225
1.225
1.225
1.225
1.225
1.225
1.225
1.225
1.225
1.225
0.914826
0.807011
1.1108
2.83052
0.840616
1.31209
2.21571
0.832903
0.762235
2.21158
0.964685
2.95861
2.93271
0.983537
1.62058
1.93494
0.955196
0.89695
1.45486
1.63541
1.98549
3.16721
1.272
1.77064
2.79818
1.24861
1.44478
1.52164
2.29723
2.49457
1.97576
3.09925
1.30283
1.22501
1.82128
3.18966
3.99819
1.22502
1.79252
2.1834
2.30122
1.32978
1.23603
1.225
1.7898
3.3141
4.26568
1.24887
1.225
1.27761
1.72556
1.22502
1.225
1.225
2.6261
2.77905
1.225
1.225
1.225
1.22501
1.225
1.225
1.225
1.45878
1.22653
1.225
1.225
1.225
1.22501
1.225
1.225
1.225
1.225
0.777873
0.843157
1.13796
0.846158
0.978607
0.861357
1.2579
0.91347
1.05543
0.774542
0.838388
0.797707
0.898015
0.85909
1.02613
0.900872
1.2362
0.895113
1.2202
0.906759
1.28683
1.15827
1.0446
1.59086
1.39835
1.62998
1.83036
1.59567
1.98573
2.45812
1.50127
1.75073
2.73512
3.63545
2.07042
2.08225
1.38025
1.60085
1.96233
1.27578
1.99332
1.6104
1.63422
1.43907
1.74809
1.4518
2.14477
2.83361
1.78684
2.18846
2.8023
4.51565
2.39638
3.00907
4.02631
2.26282
2.5902
4.53749
2.65725
3.15367
3.16114
1.64147
1.43995
2.11216
2.17229
2.34846
2.89869
3.03205
1.11479
1.54979
1.89287
0.877637
0.845541
0.892018
1.38144
0.972719
1.11577
1.5034
2.1275
1.32688
1.45669
1.00312
1.03896
1.08324
1.46378
1.61925
1.62293
1.93827
1.99409
2.15658
2.19566
2.39253
2.45382
2.57787
1.49243
2.25472
2.38514
2.92104
1.94727
2.80003
4.56125
2.53853
3.01991
3.41266
1.4185
3.06589
3.13594
1.44937
3.14675
3.04366
1.25247
1.22504
2.54133
1.22559
1.46555
1.40661
0.772772
0.790543
0.785074
0.807973
0.840514
0.803469
0.944095
0.849026
0.89965
0.8594
0.861448
0.914308
0.930042
0.964276
0.877102
0.918562
0.970836
0.880303
0.932989
1.00567
0.786669
0.804093
0.862992
0.946385
0.909813
0.380032
0.82656
0.810506
0.572662
0.779221
0.55184
0.395212
0.901186
0.986471
0.992966
1.09909
1.2791
1.11798
0.978146
1.08575
0.443091
0.857772
0.602359
0.972011
0.416442
0.923718
0.640078
1.14976
1.31603
1.18743
1.53972
1.47455
1.29501
1.58663
1.34034
1.69163
1.47338
1.58549
1.41937
1.6062
1.73022
1.43516
1.54039
1.77675
1.74701
1.78629
2.11755
1.86361
1.91007
1.66592
1.9525
1.96152
1.6093
1.58007
1.69088
1.74248
1.83386
1.76178
2.15928
1.88141
2.25009
2.09402
2.0486
1.93213
2.33737
1.28413
1.56107
1.45803
1.42106
1.72837
1.53324
1.75604
1.84846
1.6456
0.626794
1.24615
0.81833
1.40382
0.564504
1.38562
0.916232
1.80419
1.98576
1.79537
1.60536
1.61422
1.489
1.81414
1.45811
1.7954
1.63854
1.55063
1.47529
1.65954
1.5761
1.69128
1.75923
1.99026
2.24481
1.89215
1.99767
1.77725
1.94768
2.20789
1.79146
1.93325
1.99203
1.97874
2.00028
2.15439
2.40292
2.32632
2.06993
2.40977
2.16397
2.55826
2.29669
2.49172
2.20085
2.55983
2.6214
2.24886
2.39251
2.85585
2.70071
2.67709
3.27237
2.81876
2.8574
2.55318
3.08759
2.7747
2.4454
2.27352
2.47853
2.51756
2.66774
2.5348
3.1642
2.79269
3.39844
3.18586
3.00454
2.91612
3.41321
1.48894
1.81368
1.63001
1.64551
1.55073
1.97373
1.87424
1.75667
2.0644
2.36424
2.28047
2.18554
2.56396
2.363
2.58088
2.74134
2.48262
2.68546
3.11366
2.81276
0.916258
0.978031
0.722755
1.22657
0.6371
1.07529
1.0363
1.67407
0.373727
0.750528
0.539386
0.810685
0.763715
0.543243
0.371129
0.475787
1.05599
1.11926
0.744359
1.01079
0.6866
0.515601
0.997276
0.812651
1.10655
0.873215
1.04703
0.833723
1.23388
2.72133
1.24825
1.47961
1.46533
3.02849
1.28372
1.51677
3.28822
1.39696
1.97512
2.45848
3.83655
1.59616
2.34821
1.72143
1.47044
1.50837
1.98648
1.66603
1.96015
2.8395
1.86678
2.65581
2.99175
3.15689
3.05648
4.33865
3.81573
1.82824
2.53001
3.91151
2.60107
1.98775
2.79171
3.00178
1.81922
3.16921
2.62146
2.55261
2.83275
4.59952
3.0938
3.71485
4.61535
2.7512
1.78655
4.7158
1.93172
1.61562
2.77419
2.2937
1.60023
1.22516
2.66738
1.22725
0.981354
1.03195
1.06084
1.07258
1.07994
1.12088
1.17693
1.17928
1.39643
1.39975
1.2173
1.2435
1.52045
1.32573
1.26194
1.11239
1.36367
1.62051
2.31393
1.30687
2.21749
1.22501
1.25713
1.22514
1.22501
1.225
1.22509
1.225
2.28642
2.44428
1.22991
1.225
1.225
0.683847
0.425371
0.608219
0.573834
0.574258
0.757415
1.44613
0.50772
0.726115
0.470471
0.68525
0.683964
1.25906
0.764159
1.14108
0.781205
1.25712
1.10308
2.04278
1.00879
1.2527
1.92498
2.40775
1.47475
1.43798
2.74838
1.22501
1.225
1.225
1.225
1.225
1.22688
1.225
1.225
1.225
1.225
1.225
1.225
1.225
1.225
1.225
1.225
1.225
1.225
1.225
1.225
1.225
1.225
1.225
1.225
1.225
1.225
1.225
1.225
0.475652
0.521694
0.456763
0.500228
0.577188
0.765679
0.574741
0.631647
0.784659
0.634456
0.521203
0.57745
0.634823
0.626626
0.623428
0.601698
0.917381
0.897445
0.896656
0.683366
1.09039
1.3578
0.969891
0.624007
0.89737
0.967676
1.16413
1.02395
1.04209
1.30013
1.46549
1.10639
1.02451
1.47423
0.635431
0.587766
0.649668
0.519109
0.58295
0.751821
0.755417
0.826184
0.878451
0.996581
1.19269
1.25513
1.35666
1.34782
1.45808
1.65003
0.485092
0.521131
0.47431
0.533368
0.532595
0.485383
0.474229
0.45308
0.478361
0.453504
0.477147
0.497294
0.547502
0.5752
0.525378
0.546161
0.498002
0.523838
0.64462
0.572993
0.635492
0.587525
0.585216
0.648791
0.63168
0.710421
0.704189
0.71717
0.69781
0.660609
0.602743
0.631725
0.698479
0.600187
0.665064
0.694557
0.727571
0.768398
0.734214
0.762989
0.474074
0.533269
0.485139
0.478607
0.453507
0.547502
0.525618
0.497974
0.704674
0.717891
0.603108
0.699357
0.666178
0.769117
0.735186
0.578174
0.518515
0.516257
0.581578
0.633804
0.621409
0.568935
0.693335
0.566842
0.692593
0.635991
0.660034
0.763365
0.66375
0.758376
0.721477
0.785569
0.898985
0.828992
0.785762
0.723314
0.826601
0.826407
0.680991
0.750757
0.755524
0.747728
0.755692
0.825834
0.904576
0.823566
0.820155
0.903183
0.931091
0.851838
0.977465
1.05007
0.854412
0.925554
1.0652
1.01771
1.13848
1.00755
1.16402
0.56943
0.693803
0.636946
0.765888
0.665463
0.785759
0.830693
0.724468
0.824181
0.902647
0.850908
1.04685
0.924742
1.13049
1.0041
0.976115
0.874089
0.865728
0.98995
1.0639
1.02658
0.947133
1.16146
0.942511
1.16211
1.0727
1.08759
1.22803
1.10804
1.20102
1.18912
1.30843
1.45172
1.34291
1.30298
1.20421
1.31991
1.39942
1.11936
1.19696
1.25669
1.22343
1.27274
1.36056
0.950424
1.16362
1.0787
1.23138
1.11478
1.3141
1.34844
1.2122
1.4345
1.34982
1.31667
1.46915
0.56639
0.444896
0.486559
0.438409
0.614105
0.462073
0.505464
0.753062
0.57781
0.749364
0.663328
0.813867
0.635534
0.768536
0.670587
0.475806
0.633936
0.635426
0.93566
0.615368
0.92745
0.897299
0.692153
1.01981
1.03648
1.44428
1.14368
1.19013
1.01837
0.773267
1.16059
0.889538
1.2936
0.918424
1.2792
1.30594
1.58792
1.18514
1.55885
1.50375
2.16445
1.40704
1.88531
1.01331
2.34824
2.31326
1.22564
1.22532
1.225
1.225
1.225
1.225
1.11683
0.701126
0.818398
0.849758
1.0208
0.755993
0.556492
0.594169
0.615523
0.404219
0.433208
0.569744
0.88956
0.637047
0.685277
0.668744
0.509146
0.467463
0.731205
1.39238
1.37022
1.36615
0.847191
1.21825
0.730947
0.771127
0.504623
0.815518
0.864943
0.56562
0.950401
0.433452
0.392902
0.471987
0.807566
1.21899
0.392989
0.435314
0.435619
0.471307
0.699152
0.701956
0.802884
1.12094
1.12445
1.12344
1.10022
1.283
1.27051
1.22036
1.09884
1.2602
0.43149
0.403111
0.442111
0.530841
0.917166
1.30212
1.32665
1.1929
1.68504
0.442092
0.393156
0.4316
0.403077
0.403251
0.442091
0.431684
0.413318
0.434339
0.413131
0.413351
0.46908
0.5293
0.525448
0.605734
0.693205
0.601183
0.607636
0.793424
0.91036
0.895218
1.01717
1.094
0.995656
1.02368
1.02641
1.07596
0.988289
1.17043
0.970314
1.14775
1.04084
1.07555
1.2279
1.29252
1.11492
1.21281
1.08226
1.13785
1.19022
1.31312
1.28298
0.987619
1.15972
1.03202
1.2025
1.10728
1.06103
0.36405
0.358226
0.380346
0.395951
0.358146
0.396339
0.42576
0.427527
0.543335
0.636779
0.428296
0.639594
0.711297
0.733762
0.949492
1.02043
0.738183
1.02407
0.336337
0.358394
0.326937
0.367991
0.368186
0.33611
0.327062
0.343864
0.376998
0.395156
0.360118
0.376874
0.343986
0.359418
0.327033
0.36799
0.336168
0.377059
0.360523
0.34407
0.430208
0.425497
0.387499
0.479658
0.385672
0.475924
0.433676
0.493206
0.549925
0.630879
0.577512
0.545325
0.497594
0.571963
0.388353
0.48125
0.435259
0.55185
0.580247
0.499518
0.748485
0.724758
0.667657
0.834051
0.659573
0.819782
0.761224
0.831599
0.931206
0.99676
0.924748
0.911348
0.849182
0.905188
0.671928
0.840585
0.767554
0.937892
0.928741
0.855641
0.980931
0.598586
0.452549
0.760826
0.408194
0.687402
0.659477
0.603425
0.965258
0.721384
0.525007
0.644626
0.92651
0.687306
0.943337
1.03802
0.823201
0.759438
0.875432
1.00035
1.25693
0.638539
0.57217
0.616628
0.653751
0.69377
0.622427
0.670157
0.676592
0.705383
0.659267
0.788867
0.738598
0.716558
0.765731
0.430735
0.439029
0.442815
0.470937
0.481478
0.484469
0.466441
0.755014
0.789226
0.868965
0.819742
0.763621
0.624639
0.678173
0.37318
0.369683
0.360059
0.337672
0.331849
0.340792
0.328454
0.584602
0.578022
0.643201
0.546994
0.600731
0.599203
0.656857
0.70345
0.768209
0.706949
0.703269
0.651973
0.710979
0.764265
0.771284
0.755231
0.806065
0.843217
0.818698
0.899919
0.873615
0.450941
0.469724
0.457657
0.480073
0.515973
0.49364
0.502922
0.45248
0.405982
0.413967
0.414534
0.421339
0.460449
0.454259
0.377723
0.397229
0.395281
0.34459
0.361056
0.346854
0.359477
0.817882
0.826425
0.887674
0.755582
0.809697
0.81842
0.87489
0.494162
0.569169
0.555154
0.613878
0.560081
0.545491
0.62839
1.61402
1.35756
1.48632
1.022
1.51414
0.984745
1.57826
0.625274
0.702768
0.700221
0.690637
0.771114
0.700044
0.771189
0.512925
0.524037
0.552033
0.570264
0.527169
0.556314
0.508923
0.421864
0.428935
0.44153
0.44845
0.485317
0.469756
0.492899
0.87843
0.911549
0.85636
1.03203
0.961093
0.930054
0.995615
0.437883
0.44678
0.44335
0.399364
0.408397
0.404786
0.394984
0.697119
0.661503
0.672023
0.718635
0.733232
0.710638
0.698065
0.705383
0.819256
0.755011
0.724736
0.673392
0.72816
0.790399
0.807965
0.955303
1.07863
0.903385
1.4794
1.02751
0.740868
0.768923
0.826252
0.835129
0.914684
0.83538
0.843954
0.9012
0.424383
0.475344
0.47371
0.427537
0.427472
0.38488
0.384344
0.889932
0.870549
0.810853
0.783859
0.932868
0.860031
0.841227
0.494052
0.530833
0.538726
0.502098
0.539802
0.546109
0.496217
0.523953
0.583209
0.564639
0.60082
0.538039
0.569445
0.550956
0.5424
0.625019
0.626499
0.564742
0.488948
0.567156
0.489618
0.929146
1.00856
0.948811
0.912645
0.861723
0.930325
0.98857
0.453784
0.416898
0.414017
0.436849
0.434495
0.480068
0.477347
0.483713
0.543283
0.533894
0.525244
0.590656
0.601206
0.534021
0.632644
0.767604
0.704467
0.704467
0.65216
0.715799
0.776999
0.665047
0.630577
0.673453
0.643123
0.651074
0.691951
0.681666
1.45561
1.37837
1.16938
1.77361
1.12385
1.48306
1.99848
0.607366
0.696012
0.691957
0.762945
0.671093
0.680398
0.767854
0.8069
0.717116
0.795109
0.724995
0.64608
0.736135
0.651982
0.848476
0.841573
0.774715
0.776631
0.92045
0.849353
0.835473
0.932031
1.00833
0.901437
1.10763
0.994536
0.964451
1.08632
1.50702
1.54417
1.40809
0.940226
1.71054
1.17493
2.14559
0.723172
0.720978
0.6924
0.794584
0.759481
0.731827
0.763983
0.647099
0.649898
0.59514
0.613691
0.657736
0.60109
0.638877
0.582578
0.551931
0.532415
0.513291
0.59034
0.5592
0.54037
0.675997
0.614842
0.655928
0.755207
0.599797
0.690647
0.740891
0.777052
0.845964
0.858053
0.854594
0.942436
0.928937
0.850659
0.903367
0.949542
0.970824
0.989117
1.03671
0.969597
1.0649
1.07846
0.9047
0.971366
0.992403
0.894797
0.957364
1.06898
0.980872
1.11725
1.07364
1.11603
1.08056
1.22688
1.19734
0.479666
0.488654
0.485821
0.524903
0.521909
0.534306
0.532581
0.760733
0.84481
0.847969
0.93886
0.7697
0.835885
0.850205
0.645524
0.724515
0.689071
0.69657
0.667438
0.7086
0.740474
0.468222
0.5271
0.523969
0.578222
0.51906
0.515953
0.582789
0.972244
0.892193
0.87396
0.865817
0.884656
0.797919
0.814118
1.05431
1.07569
1.16568
0.970129
1.0482
1.06157
1.166
0.972038
1.02077
1.0162
0.825863
0.907799
0.875051
0.81242
1.13448
1.17824
1.06046
1.03142
1.26781
1.16986
1.11093
0.663421
0.628503
0.712161
0.651483
0.673652
0.616039
0.702615
1.10258
1.12793
1.01003
0.918522
1.0346
0.931199
0.990855
0.753601
0.805204
0.769322
0.749604
0.776115
0.790009
0.73604
0.497541
0.577393
0.547489
0.526881
0.574909
0.545731
0.523983
0.628134
0.586528
0.63805
0.640725
0.584782
0.592281
0.63174
0.885471
0.776205
0.856499
0.855967
0.827668
0.956005
0.9274
0.599314
0.689597
0.689882
0.66015
0.758862
0.664171
0.75707
0.578146
0.715431
0.651287
0.662727
0.643688
0.587632
0.727361
1.01591
0.992507
0.93629
1.11933
1.02886
1.00849
1.09215
1.16188
1.11076
1.03943
1.02126
1.25027
1.15131
1.0941
1.07999
1.11282
1.03687
1.23675
1.1073
1.14322
1.19515
0.750076
0.706236
0.7172
0.732625
0.762009
0.774978
0.720457
0.979352
1.0493
0.947811
1.21818
1.08641
1.053
1.1976
0.793523
0.831963
0.898001
0.755798
0.840324
0.806814
0.907948
0.882629
0.786384
0.870663
0.965329
0.857164
0.860493
0.954304
0.601371
0.691872
0.654346
0.657111
0.642187
0.607132
0.695846
0.813843
0.840922
0.73977
0.750194
0.935092
0.825013
0.847082
1.09776
1.02344
1.04895
0.991765
0.929719
0.949627
1.01042
0.832083
0.830498
0.795157
0.771419
0.850126
0.812446
0.806873
0.739475
0.747645
0.734342
0.695093
0.693158
0.703258
0.684882
1.19381
1.33877
1.22813
1.09419
1.14609
1.06745
1.18303
1.40246
1.3378
1.32574
1.23424
1.20272
1.3444
1.35457
0.641149
0.627322
0.572366
0.583974
0.638652
0.583899
0.628505
0.876984
0.781403
0.712733
0.821373
0.770026
0.888961
0.807935
0.635867
0.571239
0.622234
0.704507
0.567303
0.642044
0.696472
1.14866
1.04415
0.94277
1.04168
1.02786
1.04354
0.93978
1.83582
1.14762
1.7911
1.16244
1.16225
1.79162
2.34235
0.780551
0.770664
0.733271
0.749983
0.831814
0.794028
0.784734
1.15131
0.929053
1.01879
1.02706
0.93167
1.0278
1.16408
1.15212
1.24616
1.25333
1.31951
1.34052
1.3774
1.46282
1.48771
1.60673
2.36534
2.1704
2.39527
2.45746
1.67304
1.7863
2.16566
1.37448
1.80588
1.40634
1.96271
2.51181
1.17163
1.12155
1.26528
0.973453
1.08982
1.16956
1.29865
1.23011
1.39892
1.21518
1.4348
1.34814
1.3647
1.55297
1.06798
0.97637
0.956758
1.17596
1.14766
1.06997
1.04984
1.14839
1.09788
1.06693
1.2163
1.32496
1.28089
1.17991
1.51254
1.29912
1.32449
1.15143
1.30204
1.16299
1.3261
0.657166
0.598675
0.690867
0.630535
0.654766
0.598568
0.692082
0.770794
0.766509
0.812144
0.712612
0.761423
0.72006
0.75533
1.38344
1.19865
1.32616
1.38678
1.19156
1.33726
1.59328
1.28963
1.22635
1.44078
1.12506
1.22948
1.30981
1.46303
1.40582
1.2528
1.24961
1.43277
1.08339
0.967139
1.67574
0.724301
0.802114
0.834086
0.9068
0.730673
0.791694
0.829004
0.735615
0.756075
0.741627
0.682117
0.693865
0.692417
0.681617
0.753407
0.782481
0.852854
0.864253
0.701359
0.76061
0.79451
1.15293
1.15179
1.00457
0.92605
1.03878
1.01397
0.916947
1.40896
1.24616
1.37848
1.25728
1.1403
1.1183
1.21637
0.903445
0.93209
0.879201
1.12388
1.03596
1.00354
1.08694
0.841247
0.817693
0.831112
0.867286
0.88094
0.87376
0.861041
2.14113
2.00311
1.77471
2.37236
1.79031
2.80471
2.57204
1.297
1.1714
1.32498
1.20856
1.35624
1.3151
1.52174
1.31212
1.46892
1.35631
1.4151
1.40627
1.55822
1.64179
0.949508
1.04433
1.05876
1.11522
1.13766
1.28101
1.25254
1.79462
1.54673
1.70631
1.79081
2.04826
2.52153
2.26994
1.41487
1.63082
1.46611
1.3995
1.23479
1.27999
1.35143
1.26867
1.19653
1.17648
1.1283
1.05541
1.1355
1.06817
1.04347
0.846678
0.967749
0.914966
0.859282
0.98106
1.05945
0.79877
0.852204
0.865129
0.807169
0.820168
0.868956
0.856245
1.29441
1.30495
1.248
1.44487
1.46471
1.27636
1.15794
1.2207
1.12937
1.15962
1.28621
1.40361
1.25211
1.36667
0.75117
0.776434
0.763072
0.704207
0.685224
0.698228
0.690765
1.16269
1.03869
1.05773
0.941881
1.03318
0.941655
1.05015
0.775285
0.814304
0.820059
0.75273
0.711562
0.710129
0.752475
1.34197
1.61713
1.83846
1.48714
1.34553
1.62492
1.78879
0.865879
0.894885
0.85397
0.955409
0.904803
0.897912
0.944938
0.831866
0.748714
0.681361
0.770384
0.746937
0.84144
0.760694
1.03382
1.02682
0.893555
0.949074
0.837534
0.829226
0.958825
1.34339
1.6003
1.40322
1.44003
1.43031
1.52237
1.65352
1.36559
1.34977
1.24356
1.39578
1.23207
1.43516
1.5554
0.791231
0.806158
0.789421
0.869417
0.850095
0.864557
0.853775
1.31814
1.35649
1.208
1.17688
1.5364
1.31255
1.37463
0.83256
0.937955
0.889554
0.883388
0.841752
0.893123
0.939471
0.250638
0.250267
0.250942
0.232722
0.249896
0.228405
0.254814
0.255559
0.232454
0.22848
0.228907
0.25472
0.232647
0.399731
0.260753
0.271195
0.271777
0.285394
0.287894
0.411603
0.421817
0.288735
0.423968
0.489184
0.489944
0.492445
0.237628
0.260792
0.27045
0.24767
0.260343
0.238208
0.246945
0.261085
0.248235
0.238708
0.283036
0.286569
0.262021
0.316208
0.260916
0.313713
0.285006
0.319334
0.36138
0.417201
0.37594
0.357485
0.32261
0.371795
0.262753
0.317496
0.286087
0.363221
0.377952
0.324241
0.494931
0.485063
0.437718
0.558026
0.433517
0.552233
0.499447
0.439878