/*--------------------------------*- C++ -*----------------------------------*\
  =========                 |
  \\      /  F ield         | OpenFOAM: The Open Source CFD Toolbox
   \\    /   O peration     | Website:  https://openfoam.org
    \\  /    A nd           | Version:  9
     \\/     M anipulation  |
\*---------------------------------------------------------------------------*/
FoamFile
{
    format      ascii;
    class       volScalarField;
    location    "0.0027";
    object      rho.c4;
}
// * * * * * * * * * * * * * * * * * * * * * * * * * * * * * * * * * * * * * //

dimensions      [1 -3 0 0 0 0 0];

internalField   nonuniform List<scalar> 
22864
(
6.82474
2.25253e-08
1.94494e-09
3.12416e-13
2.22045e-16
0.000779982
1.14482e-09
6.0441e-16
0.0665643
3.0488
47.5842
46.03
34.5331
0.0790325
40.2673
20.9366
33.4721
2.50857
4.60763
26.9418
34.4001
43.9753
4.20206
10.9234
4.46835
6.4604
9.48714
5.60372
61.7393
3.56721
2.46787
2.85984
4.57138
3.34568
3.97134
3.8442
24.8295
38.85
34.5712
33.6134
32.8464
30.3952
27.8745
16.9438
26.2516
13.9693
16.5231
21.2246
21.3345
10.8963
4.98095
3.33639
3.92181
5.52622
5.96544
4.80753
6.82735
43.331
35.9214
44.8573
52.7674
27.3378
25.1167
20.7984
61.3743
10.5986
16.1878
26.3408
8.38193
28.3182
18.9574
18.989
10.373
8.47258
14.7042
8.06813
14.4397
6.20618
14.1221
6.44913
34.0581
5.08418
8.86775
9.36363
10.022
55.2392
0.792551
6.39035e-09
4.10699e-06
22.0829
54.0566
2.2004
0.288731
8.52156e-10
7.87342e-12
1.85014e-06
5.28913e-08
2.69488e-15
1.82909e-05
2.40343e-12
2.22045e-16
3.22423e-12
2.37592e-16
2.22045e-16
1.22572e-10
2.22045e-16
2.22045e-16
2.22045e-16
2.22045e-16
2.22045e-16
2.22045e-16
2.22045e-16
2.22045e-16
2.22045e-16
2.22045e-16
2.22045e-16
2.22045e-16
2.22045e-16
2.22045e-16
2.22045e-16
2.22045e-16
2.22045e-16
2.22045e-16
2.22045e-16
2.22045e-16
2.22045e-16
2.22045e-16
2.22045e-16
12.4
49.2616
0.0191427
2.15138e-11
9.57689e-08
7.97718
55.5707
0.0244717
0.00177819
1.72801e-11
3.49572e-14
1.76009e-07
1.39828e-08
2.22045e-16
4.5677e-09
7.84873e-16
2.22045e-16
1.10777e-14
2.22045e-16
2.22045e-16
4.25455e-13
2.22045e-16
2.22045e-16
2.22045e-16
2.22045e-16
2.22045e-16
2.22045e-16
2.22045e-16
2.22045e-16
2.22045e-16
2.22045e-16
2.22045e-16
2.22045e-16
2.22045e-16
2.22045e-16
2.22045e-16
2.22045e-16
2.22045e-16
2.22045e-16
2.22045e-16
2.22045e-16
2.22045e-16
2.22045e-16
2.22045e-16
45.6772
5.6579e-05
5.73587e-16
9.19675e-12
0.0450595
10.3701
4.13e-09
3.09105e-07
2.49646e-14
2.22045e-16
3.26582e-12
6.35779e-15
2.22045e-16
9.08649e-12
2.22045e-16
2.22045e-16
2.22045e-16
2.22045e-16
2.22045e-16
2.22045e-16
2.22045e-16
2.22045e-16
2.22045e-16
2.22045e-16
2.22045e-16
2.22045e-16
2.22045e-16
2.22045e-16
2.22045e-16
2.22045e-16
2.22045e-16
2.22045e-16
2.22045e-16
2.22045e-16
2.22045e-16
2.22045e-16
2.22045e-16
2.22045e-16
2.22045e-16
2.22045e-16
2.22045e-16
2.22045e-16
2.22045e-16
179.93
3.65262e-12
0.00178244
1.45406e-12
8.75731e-09
2.59433e-08
2.22045e-16
2.0194e-07
3.25018e-10
2.22045e-16
2.22045e-16
2.22045e-16
2.22045e-16
2.14908e-13
2.22045e-16
2.22045e-16
2.22045e-16
2.22045e-16
2.22045e-16
2.22045e-16
2.22045e-16
2.22045e-16
2.22045e-16
2.22045e-16
2.22045e-16
2.22045e-16
2.22045e-16
2.22045e-16
2.22045e-16
2.22045e-16
2.22045e-16
2.22045e-16
2.22045e-16
2.22045e-16
2.22045e-16
2.22045e-16
2.22045e-16
2.22045e-16
2.22045e-16
2.22045e-16
2.22045e-16
2.22045e-16
2.22045e-16
17.0774
91.9635
186.191
2.3292e-10
2.22045e-16
58.877
80.4095
0.00736687
1.11129e-15
2.22045e-16
2.22045e-16
0.00649815
2.58779e-10
2.22045e-16
2.22045e-16
2.22045e-16
2.22045e-16
1.64265e-14
2.22045e-16
2.22045e-16
2.22045e-16
2.22045e-16
2.22045e-16
2.22045e-16
2.22045e-16
2.22045e-16
2.22045e-16
2.22045e-16
2.22045e-16
2.22045e-16
2.22045e-16
2.22045e-16
2.22045e-16
2.22045e-16
2.22045e-16
2.22045e-16
2.22045e-16
2.22045e-16
2.22045e-16
2.22045e-16
2.22045e-16
2.22045e-16
2.22045e-16
2.22045e-16
2.22045e-16
2.22045e-16
2.22045e-16
13.2272
128.881
9.16574e-07
2.22045e-16
2.22045e-16
2.22045e-16
5.2281e-05
11.2119
1.44926e-11
2.22045e-16
2.22045e-16
2.22045e-16
9.67136e-10
8.74371e-16
2.22045e-16
2.22045e-16
2.22045e-16
2.22045e-16
2.22045e-16
2.22045e-16
2.22045e-16
2.22045e-16
2.22045e-16
2.22045e-16
2.22045e-16
2.22045e-16
2.22045e-16
2.22045e-16
2.22045e-16
2.22045e-16
2.22045e-16
2.22045e-16
2.22045e-16
2.22045e-16
2.22045e-16
2.22045e-16
2.22045e-16
2.22045e-16
2.22045e-16
2.22045e-16
2.22045e-16
2.22045e-16
2.22045e-16
2.22045e-16
2.22045e-16
2.22045e-16
2.22045e-16
2.22045e-16
5.39925e-06
8.79899e-09
3.11347e-14
2.22045e-16
2.22045e-16
2.22045e-16
2.32639e-10
8.22793e-13
2.22045e-16
2.22045e-16
2.22045e-16
2.22045e-16
2.22716e-16
2.22045e-16
2.22045e-16
2.22045e-16
2.22045e-16
2.22045e-16
2.22045e-16
2.22045e-16
2.22045e-16
2.22045e-16
2.22045e-16
2.22045e-16
2.22045e-16
2.22045e-16
2.22045e-16
2.22045e-16
2.22045e-16
2.22045e-16
2.22045e-16
2.22045e-16
2.22045e-16
2.22045e-16
2.22045e-16
2.22045e-16
2.22045e-16
2.22045e-16
2.22045e-16
2.22045e-16
2.22045e-16
2.22045e-16
2.22045e-16
2.22045e-16
2.22045e-16
2.22045e-16
2.22045e-16
2.22045e-16
1.28715e-11
2.27946e-16
2.22045e-16
2.22045e-16
2.22045e-16
2.22045e-16
2.22045e-16
2.22045e-16
2.22045e-16
2.22045e-16
2.22045e-16
2.22045e-16
2.22045e-16
2.22045e-16
2.22045e-16
2.22045e-16
2.22045e-16
2.22045e-16
2.22045e-16
2.22045e-16
2.22045e-16
2.22045e-16
2.22045e-16
2.22045e-16
2.22045e-16
2.22045e-16
2.22045e-16
2.22045e-16
2.22045e-16
2.22045e-16
2.22045e-16
2.22045e-16
2.22045e-16
2.22045e-16
2.22045e-16
2.22045e-16
2.22045e-16
2.22045e-16
2.22045e-16
2.22045e-16
2.22045e-16
2.22045e-16
2.22045e-16
2.22045e-16
2.22045e-16
2.22045e-16
2.22045e-16
2.22045e-16
2.22045e-16
2.22045e-16
2.22045e-16
2.22045e-16
2.22045e-16
2.22045e-16
2.22045e-16
2.22045e-16
2.22045e-16
2.22045e-16
2.22045e-16
2.22045e-16
2.22045e-16
2.22045e-16
2.22045e-16
2.22045e-16
2.22045e-16
2.22045e-16
2.22045e-16
2.22045e-16
2.22045e-16
2.22045e-16
2.22045e-16
2.22045e-16
2.22045e-16
2.22045e-16
2.22045e-16
2.22045e-16
2.22045e-16
2.22045e-16
2.22045e-16
2.22045e-16
2.22045e-16
2.22045e-16
2.22045e-16
2.22045e-16
2.22045e-16
2.22045e-16
2.22045e-16
2.22045e-16
2.22045e-16
2.22045e-16
2.22045e-16
2.22045e-16
2.22045e-16
2.22045e-16
2.22045e-16
2.22045e-16
2.22045e-16
2.22045e-16
2.22045e-16
2.22045e-16
2.22045e-16
2.22045e-16
2.22045e-16
2.22045e-16
2.22045e-16
2.22045e-16
2.22045e-16
2.22045e-16
2.22045e-16
2.22045e-16
2.22045e-16
2.22045e-16
2.22045e-16
2.22045e-16
2.22045e-16
2.22045e-16
2.22045e-16
2.22045e-16
2.22045e-16
2.22045e-16
2.22045e-16
2.22045e-16
2.22045e-16
2.22045e-16
2.22045e-16
2.22045e-16
2.22045e-16
2.22045e-16
2.22045e-16
2.22045e-16
2.22045e-16
2.22045e-16
2.22045e-16
2.22045e-16
2.22045e-16
2.22045e-16
2.22045e-16
2.22045e-16
2.22045e-16
2.22045e-16
2.22045e-16
2.22045e-16
2.22045e-16
2.22045e-16
0.0569352
1.12765e-08
0.00582682
1.07593e-08
7.69831e-14
2.22045e-16
3.53386e-14
2.22045e-16
6.37089e-11
15.9147
2.3157e-11
9.02896
6.47706
36.0561
34.607
6.77511
36.5311
35.1467
19.7218
42.8931
85.6483
10.4022
20.5453
43.5056
83.1546
0.000425026
1.16195
0.000657746
0.324701
9.5504e-05
0.518814
0.000136489
3.75944e-12
7.67879e-09
7.4733e-15
9.13196e-10
4.48432e-12
8.90696e-10
4.6462e-15
0.0854599
1.16314e-11
4.80229e-06
2.17849e-06
0.0481182
5.90135e-12
2.44846e-06
44.6448
0.0145168
0.106192
13.8905
44.5154
0.00970466
0.0915181
0.000816449
2.1403e-10
7.20106e-13
2.77229e-16
2.22045e-16
2.22045e-16
2.22045e-16
5.28672e-13
5.10184
1.2834e-14
0.0267048
8.12859
38.8995
37.1805
11.6065
13.8911
56.2194
42.0786
45.9138
85.2103
24.8088
81.2199
67.6821
4.89818
4.90445e-06
0.019278
1.15479e-06
4.6931e-08
0.000389787
1.27275e-08
3.17533e-14
2.78266e-12
2.22045e-16
6.0812e-14
2.6689e-15
1.426e-14
2.22045e-16
0.00638999
1.10667e-13
1.21864e-07
8.84867e-09
0.000794665
5.42136e-15
1.54775e-08
46.5802
0.00144811
0.0317972
0.651017
51.6555
0.000669611
0.000753541
5.43083e-16
3.46246e-06
2.22045e-16
2.22045e-16
1.13992e-08
2.22045e-16
2.22045e-16
0.00135389
2.22045e-16
1.06003e-10
23.6994
3.20233
69.1996
46.6792
3.45062e-05
9.24975
103.507
81.277
0.105878
97.9308
117.912
1.70186
3.20778e-05
1.69694e-09
2.94879e-05
8.5356e-11
3.61132e-07
1.33899e-07
4.12588e-12
2.22045e-16
2.22045e-16
2.22045e-16
5.00478e-09
1.39707e-14
2.54312e-15
2.22045e-16
8.45508e-06
2.22045e-16
1.81653e-11
2.22045e-16
1.78221e-09
2.22045e-16
2.22045e-16
17.967
8.10186e-06
1.50471e-06
0.000969335
0.00657518
1.82537e-09
1.18825e-07
0.0580117
54.7088
0.00128396
3.49615e-13
68.073
13.8765
2.22045e-16
1.22484e-14
0.243111
4.86251e-10
103.293
3.4142e-08
0.192344
113.162
7.83216e-14
3.53624e-11
4.12543
0.00860874
1.33114e-05
9.76593
1.15989e-06
9.06175e-06
2.72766e-11
0.0178515
0.00351127
1.01925e-06
56.706
1.83195
3.55653
3.34821e-08
7.39801e-09
8.3082e-14
80.4117
0.0122493
0.00054241
2.87977e-08
3.92527e-16
2.22045e-16
2.22045e-16
5.60227e-06
2.20888e-12
1.82519e-12
2.22045e-16
1.30618e-05
4.05335e-16
3.80176e-12
2.88701e-16
4.00504e-12
2.22045e-16
2.22045e-16
38.8478
68.075
91.9601
35.6368
90.9065
102.18
0.356256
164.186
13.1623
1.08977e-05
149.08
43.3243
0.000533477
1.62181e-05
0.000117762
1.75004e-08
2.22045e-16
0.00185404
1.04556e-07
1.03273e-09
7.38978e-14
14.1884
77.5482
140.405
63.9452
5.61366e-05
18.3177
70.9243
5.31355e-05
5.83144e-15
7.73994
126.59
0.000150096
1.03648e-10
4.69948e-15
2.22045e-16
48.023
128.842
2.80044e-11
1.21419e-14
2.22045e-16
2.22045e-16
32.3149
8.11306e-09
2.22045e-16
2.22045e-16
2.22045e-16
2.22045e-16
3.76029e-14
2.22045e-16
2.22045e-16
2.22045e-16
2.22045e-16
2.22045e-16
2.22045e-16
2.22045e-16
2.22045e-16
2.22045e-16
2.22045e-16
2.22045e-16
3.54828
3.69929
8.48737
5.3864
9.77953
8.78596
7.50913
10.0965
4.42484
6.27444
12.3622
7.39118
11.7197
23.0427
10.6438
20.6086
13.9912
24.4991
27.3447
31.0839
17.8861
41.8799
21.6637
116.085
25.2479
67.847
33.8092
67.9407
147.08
244.205
182.875
158.356
215.226
212.424
39.6131
258.81
9.33992e-07
6.71043
7.63551
10.7193
21.696
10.5001
25.7042
11.8883
56.2145
48.7408
55.2253
127.904
37.6137
86.7199
136.593
199.556
267.163
226.419
1.5514
205.454
6.94501
7.86376
3.28767e-07
16.2933
9.20821
46.3026
45.5928
25.0468
13.9865
20.8219
46.1571
27.7105
40.7695
30.8516
125.853
74.4491
104.912
149.481
107.252
137.941
120.003
18.6087
236.671
108.458
0.00588094
13.7044
0.195157
1.08439
4.47036e-07
0.00622235
0.000593032
0.0434261
0.00521825
0.000379506
5.9081e-07
3.50985e-12
3.55373e-14
1.15987e-07
8.1852e-09
2.26945e-14
9.86076e-08
4.91177e-12
1.93272e-07
0.0180731
0.000809693
6.70732e-05
0.00284337
0.000345537
2.9489e-08
1.21085e-12
1.07593e-08
2.76875e-14
1.31055e-08
2.89883e-14
3.00772e-08
1.52665e-13
2.22045e-16
2.22045e-16
7.89765e-15
6.36718e-14
2.22045e-16
5.29298e-15
2.22045e-16
2.22045e-16
9.95872e-16
2.22045e-16
2.22045e-16
7.55218e-16
2.22045e-16
2.22045e-16
2.22045e-16
3.36204e-14
2.22045e-16
3.75977e-16
2.22045e-16
2.13163e-15
2.22045e-16
2.22045e-16
2.22045e-16
2.22045e-16
2.22045e-16
3.1092e-16
2.22045e-16
2.22045e-16
0.00042446
4.1658e-09
5.61805e-06
5.98619e-11
3.35128e-09
4.74514e-06
0.000495952
1.39615
40.408
0.0584552
15.0483
40.1901
0.051676
1.52556
0.000259393
2.89388e-11
3.96316e-10
9.77487e-07
1.68086e-09
2.81528e-06
8.82611e-05
1.05459
12.7262
33.5881
0.0176572
39.9533
0.0359067
0.534889
6.53921
8.25072
8.31769
12.7889
14.9817
15.0473
12.739
24.8001
32.0747
30.7712
35.8853
31.9408
30.6463
24.87
8.57889
7.26639
9.15664
13.0895
16.3206
15.4244
13.8044
24.935
35.808
32.5839
31.3534
31.921
30.6615
25.6811
1.92064e-10
8.69221e-05
2.56604e-05
2.14367e-09
1.1497e-05
9.96468e-16
2.38636e-16
1.19593e-09
2.49479e-11
8.98817e-15
2.22045e-16
4.21271e-10
2.22045e-16
7.20128e-13
2.22045e-16
9.9317e-13
2.22045e-16
6.02483e-12
2.22045e-16
2.22045e-16
2.22045e-16
2.22045e-16
2.22045e-16
2.22045e-16
2.22045e-16
2.22045e-16
2.22045e-16
2.22045e-16
2.22045e-16
2.22045e-16
2.22045e-16
2.22045e-16
2.22045e-16
2.22045e-16
2.22045e-16
2.22045e-16
2.22045e-16
2.22045e-16
2.22045e-16
2.22045e-16
2.22045e-16
2.22045e-16
2.22045e-16
2.22045e-16
2.22045e-16
2.22045e-16
2.22045e-16
1.68642e-06
4.07197e-11
1.58653e-07
3.8197e-13
1.5002e-05
2.12299e-12
1.0442e-08
0.0315961
23.0403
0.00541074
2.06751
0.146733
13.2101
0.000859762
1.04103e-07
1.28596e-14
2.69996e-16
2.659e-12
4.51916e-14
1.83249e-10
2.30214e-09
0.00542447
0.317749
1.88302
1.42449e-06
6.07234
4.23433e-05
0.00044631
10.1898
9.52347
11.849
17.3659
17.9516
15.13
20.5566
30.8553
34.6674
33.3357
43.6772
27.4973
38.6095
37.0464
14.3339
18.0441
14.6407
20.7386
29.9857
24.3961
25.5586
36.2421
34.5916
54.1586
51.9644
44.7845
43.1207
44.0261
1.75055e-13
2.22045e-16
2.42039e-14
2.439e-15
2.22045e-16
2.22045e-16
8.45451e-15
2.74649e-07
1.56231e-11
0.000257272
0.000591782
1.02402e-09
4.86006e-09
0.0110337
2.22045e-16
2.22045e-16
2.22045e-16
2.22045e-16
2.22045e-16
2.22045e-16
2.22045e-16
2.22045e-16
2.22045e-16
2.22045e-16
2.22045e-16
2.22045e-16
2.22045e-16
2.22045e-16
2.59854e-16
6.62849e-15
1.26403e-06
4.67718e-12
9.93478e-13
1.07313e-15
2.75898e-09
2.22045e-16
2.22045e-16
2.22045e-16
2.41498e-16
2.22045e-16
2.22045e-16
6.94962e-13
5.71955e-14
2.22045e-16
5.62115e-15
2.22045e-16
1.39149e-11
2.22045e-16
2.22045e-16
1.63226e-07
0.139161
1.58711e-08
1.74795e-05
9.12148e-06
0.00969411
1.63e-10
2.22045e-16
2.22045e-16
2.22045e-16
2.22045e-16
2.22045e-16
2.22045e-16
2.22045e-16
6.68186e-10
8.11791e-08
1.18255e-06
5.51185e-16
0.000245917
4.04362e-14
6.2708e-13
32.5489
19.2149
26.3149
43.226
38.3307
32.6184
50.9224
70.5512
32.6192
65.1612
0.173521
55.1155
10.8713
36.3115
69.0687
37.4279
55.2275
59.5113
97.8636
69.9727
84.6752
94.736
0.00469929
0.0441184
0.309995
1.85208
6.28934
30.0634
55.3671
1.50833
2.08002
24.1275
9.61055
67.1308
59.5959
44.2863
61.1099
43.6075
43.3774
56.1578
49.8221
32.4844
3.00351
0.0357133
3.05848e-06
3.57353
0.000638195
20.9161
0.0621226
0.0437243
1.02907e-09
1.61944e-09
2.46429e-07
1.20643e-06
0.000401229
0.000337839
85.1194
75.2809
57.4932
82.3733
69.6398
30.0462
73.4698
28.5931
0.0122602
112.751
102.009
2.84846
1.90695
91.0174
1.97261e-10
1.23015e-13
2.22045e-16
3.57018e-11
2.22045e-16
4.20266e-07
3.04393e-15
3.6993e-14
1.4215e-09
2.22045e-16
2.22045e-16
2.22045e-16
2.25151e-13
2.22045e-16
0.000120801
1.81267e-05
27.8212
0.00100649
0.0266615
1.04955e-08
1.27901
2.19762e-07
2.22045e-16
5.2327e-05
1.69641e-06
6.2738e-11
2.84533e-12
0.0210601
152.618
128.956
84.2521
165.643
135.836
120.728
180.394
0.0389047
0.000426836
0.00262632
5.49295e-12
2.44044
6.92868e-07
4.28928e-06
209.718
248.295
188.35
82.2654
0.243328
36.8406
3.72103
3.25838e-05
2.22045e-16
8.44612e-08
1.30958e-15
4.38542e-11
2.69425e-10
2.77993e-09
61.6326
32.0573
49.7777
68.1556
81.0885
59.0089
93.1795
206.107
142.316
187.146
185.002
97.4255
172.285
30.849
9.61509
5.447
6.9763
10.0915
7.54405
35.6805
24.8698
16.7579
24.1868
23.778
34.3618
24.3943
208.63
107.583
83.2808
116.224
135.81
188.766
134.557
3.58033
5.05202
5.09706
2.66699
3.91356
3.94898
2.65122
5.25036
3.96323
5.59564
2.73375
4.2966
4.05149
2.90484
6.20972
5.16802
7.18842
3.66565
4.724
3.20014
5.39443
8.63918
10.7718
7.90133
4.36068
7.7945
6.38022
5.36961
19.0221
10.3806
14.3202
9.09408
9.85301
6.84537
12.9431
11.3104
18.6047
22.5986
20.8083
17.5447
15.177
15.3957
41.9909
20.7559
31.5996
12.6628
25.7763
17.7551
18.5249
111.141
83.894
50.5281
48.3017
40.6271
28.7536
70.0596
174.779
215.58
138.715
87.3576
208.413
126.624
158.254
8.29616
4.8458
6.04496
5.49639
4.71621
3.85984
6.72361
12.6091
12.1858
17.555
9.11719
13.1172
17.1539
14.7748
7.88724
10.993
10.752
5.88386
7.601
8.35766
33.9362
16.3248
25.4245
14.5504
14.6926
10.2896
20.9677
54.0993
34.4638
52.7827
74.5902
34.8119
50.0325
84.8238
87.5966
40.7229
64.4482
51.0472
21.9646
34.1767
32.0705
174.551
96.6644
138.557
82.0701
85.7466
54.3214
127.101
280.887
194.093
261.348
247.392
132.508
200.403
183.602
33.4284
29.8241
30.5009
49.4354
21.9105
40.8335
49.1086
57.5151
79.639
95.9134
164.991
59.3226
87.1593
108.224
12.233
7.28291
9.82556
19.1705
13.6933
21.3458
15.3016
0.000269787
3.55428
7.37233
1.31594e-06
0.000936787
6.66044e-08
0.451549
0.000809349
37.6097
26.7529
39.3642
4.63898
6.04447
5.95839
25.3004
37.6053
9.51767e-05
3.98767e-06
5.97925e-12
3.7359e-06
5.66068e-09
7.64757e-08
2.06662e-07
3.72415e-07
2.67248e-13
6.42688e-11
6.59188e-11
1.54241e-08
4.90433e-08
2.05412e-14
1.87131e-08
4.24165e-09
2.27862e-05
6.87918e-05
3.02331
0.0185399
0.00148284
9.34778e-07
0.234913
45.9201
45.2402
11.2994
40.4732
33.348
37.4127
48.539
34.5699
32.4971
18.2191
34.1804
26.9573
40.2619
24.1895
5.5452
4.00227
3.37434
4.53134
2.62865
3.17973
3.76543
8.66593
7.61574
4.66911
7.27043
5.70739
10.046
11.3357
2.22045e-16
1.47383e-11
4.3639e-07
8.25506e-12
2.22045e-16
2.22045e-16
2.22045e-16
54.5438
8.48748
61.7214
63.3491
21.2162
84.6568
0.000371857
0.863818
1.18967e-05
3.31641e-07
109.407
6.31151e-05
3.11716e-05
3.7451e-09
1.2732e-08
2.76469e-09
1.17178e-15
2.98821e-06
1.24503e-10
6.88834e-13
2.22045e-16
2.22045e-16
2.22045e-16
2.22045e-16
2.22045e-16
2.22045e-16
2.22045e-16
2.22045e-16
55.5322
97.7652
68.3819
120.437
26.3703
71.7804
0.0181697
63.2734
0.00014551
126.68
115.069
0.000297975
0.000130859
9.69439e-07
160.672
2.03875e-11
0.0682412
1.76391e-06
1.23315e-10
1.76429e-11
2.22045e-16
3.07699e-09
1.04824e-13
2.22045e-16
2.22045e-16
2.22045e-16
2.22045e-16
2.22045e-16
20.9038
24.6156
30.0715
34.4231
24.5573
29.9327
20.9495
21.0883
34.4298
25.6803
30.6053
24.8013
29.9445
21.8084
26.2874
27.5409
32.4968
40.9852
23.4029
30.6989
36.1218
30.9124
47.1115
43.086
50.5164
35.6216
42.0122
37.6661
61.7451
54.1278
62.3
85.2073
47.4458
70.1265
77.533
82.497
49.6071
120.471
11.8835
92.8377
49.1106
110.458
14.6854
70.6666
0.610837
0.00131927
95.8521
6.67287
0.00662172
0.173338
3.61128e-07
7.91577e-06
4.59968e-10
0.0285813
5.36527e-06
0.000322249
72.9339
48.6629
82.8887
75.0334
64.9251
54.2872
89.8795
92.2819
103.936
98.7043
73.8872
83.2747
112.661
105.18
42.4506
127.831
0.310929
6.8328
82.0647
135.206
0.0618284
2.83956
0.272777
0.00437723
2.92663e-07
11.809
0.0221311
0.000295187
0.890693
0.0965763
23.5888
1.85678e-06
4.63603e-05
0.00815627
2.15876e-10
3.16755e-08
0.00393961
2.18384e-12
6.04479e-11
5.10303e-06
5.51178e-05
3.64481e-15
6.85161e-13
5.16186e-11
4.24836e-15
2.22045e-16
4.48262e-08
2.22045e-16
2.22045e-16
1.98731e-10
6.55787e-06
0.00601299
342.838
0.0348982
0.0174663
2.5403e-08
10.6447
48.2288
117.06
15.0734
12.3308
27.5553
31.9433
29.1925
0.208256
99.9002
22.6817
90.6187
114.429
145.06
156.753
2.79447e-06
38.0703
163.082
213.917
39.2301
0.00269244
0.00119496
6.88144e-07
3.90207e-14
49.677
3.33596e-07
1.0556e-06
3.17998e-12
303.571
170.21
283.895
340.517
215.76
285.357
338.192
199.129
83.9632
300.389
316.374
295.198
269.533
229.995
26.9462
42.9376
25.2781
54.7128
35.1804
60.5144
38.3442
34.2699
19.4623
32.8549
18.3867
24.8889
14.4191
13.6508
41.8931
0.000947511
0.00123637
53.5317
15.542
0.0173013
0.000352321
5.77748
0.000569984
4.96177e-06
38.4267
0.00150868
0.000122812
1.97747e-08
9.00989e-05
6.28649e-08
6.4745e-10
0.000546471
1.93755e-08
4.54167e-09
3.85678e-15
1.67618e-11
1.48432e-15
2.22045e-16
9.24836e-12
2.22045e-16
2.22045e-16
2.22045e-16
2.22045e-16
2.22045e-16
2.22045e-16
2.22045e-16
2.22045e-16
2.22045e-16
2.22045e-16
0.000569017
1.25387e-10
4.89302e-07
4.27748e-13
1.16182e-11
2.22045e-16
2.22045e-16
2.22045e-16
2.22045e-16
2.22045e-16
0.0362442
0.00113453
1.47063e-06
2.59673e-10
9.30404e-11
0.0015187
4.75026e-13
2.22045e-16
2.22045e-16
1.91178e-10
2.22045e-16
2.22045e-16
2.22045e-16
1.7141e-11
2.22045e-16
2.22045e-16
2.22045e-16
2.22045e-16
2.22045e-16
2.22045e-16
2.22045e-16
2.22045e-16
2.22045e-16
2.22045e-16
2.22045e-16
2.22045e-16
2.22045e-16
2.22045e-16
2.52521
2.51097
3.75379
7.05755
3.65961
5.11154
13.2333
4.16078
5.00767
7.94432
3.27822
18.6508
29.6611
4.59444
6.17169
75.0197
5.30631
6.87728
3.44379
6.25247
6.68604
30.9456
100.481
9.19786
16.5058
151.155
11.3004
16.4969
8.66309
11.1998
5.53548
9.46863
63.2388
8.98982e-05
9.14427
20.691
113.564
0.000567234
12.0049
24.7208
60.2284
59.6204
58.2628
6.92435e-10
7.43209
16.214
99.9714
360.428
5.74294e-15
6.78892
75.6641
0.00149413
1.16553e-09
1.13829e-15
15.4061
67.0611
3.24164e-11
8.65349e-15
2.22045e-16
0.000215605
7.10495e-11
8.85683e-16
2.22045e-16
126.393
29.8553
1.62779e-13
2.22045e-16
2.22045e-16
3.63893e-06
7.23761e-14
2.22045e-16
2.22045e-16
2.22045e-16
3.6534
4.21891
4.77553
4.16756
4.9681
3.80319
5.24356
4.74308
5.49356
3.67795
4.23768
4.49966
4.72478
5.01282
6.78334
4.79289
8.38788
4.80999
8.47801
5.51352
9.15808
9.13505
9.75102
8.19167
10.2748
9.14405
10.7216
10.6579
17.7455
13.511
11.2346
15.5306
16.6578
44.4965
20.4329
25.1972
10.4669
11.0617
18.3505
11.4241
20.749
7.81532
9.51488
5.61295
7.74356
6.68915
12.5492
14.9607
11.55
20.5822
12.196
38.3941
15.9171
37.0872
71.4855
24.446
44.6187
63.0383
298.928
52.1098
104.403
9.76528
6.95819
13.0716
21.4159
16.5408
37.2178
50.8291
5.4939
8.93427
13.8623
4.63721
4.24039
4.72577
5.72034
5.32825
5.99039
7.47638
9.94578
9.12609
9.95679
5.80325
6.20967
6.70924
12.0587
13.9511
14.9998
14.7395
13.0349
16.2763
28.6179
29.4478
35.9524
11.922
7.23381
14.3006
11.8615
15.8496
10.4367
25.6636
59.4224
18.722
35.9161
45.4329
118.953
38.2141
91.1683
331.059
76.3098
183.865
131.573
0.00104663
223.37
8.02293
8.47579
7.95237
3.53123
3.73284
3.60695
3.88733
4.09647
3.76325
4.62714
4.05001
4.59582
4.24954
4.12496
4.68514
4.5456
4.77998
4.40452
4.61247
5.17231
4.28001
4.83942
5.10675
3.75591
3.91036
4.39338
5.21763
4.87898
2.80905
4.7196
4.7211
4.05325
4.43263
3.812
2.98991
4.66124
5.66747
5.50194
6.86275
8.0745
6.62801
5.68751
6.8948
3.764
5.2178
4.46301
6.30244
3.29452
5.99525
5.09377
7.47613
9.75161
7.99678
10.5356
9.87133
9.28693
12.5535
8.83944
11.9674
11.213
10.4659
9.69972
9.7332
12.7348
8.9677
11.3779
11.5411
12.2038
15.0924
16.5
15.1187
14.2107
13.2025
13.7638
14.8756
10.8551
12.0591
13.8509
11.817
13.4013
15.023
18.6799
16.9333
19.7143
22.9775
16.354
18.654
23.3391
9.4806
12.8346
11.518
10.0217
13.2992
11.7895
15.4884
15.7356
13.627
8.57193
10.9244
9.02308
14.4629
6.72378
13.8
11.5199
17.1203
23.2215
18.6821
7.85349
8.7813
7.86634
10.2227
7.38556
9.42322
8.38541
7.033
6.43971
8.17726
7.4483
7.80752
8.49498
11.1584
11.8355
10.0586
10.3266
9.07848
9.55802
13.8867
10.4704
14.0276
12.5452
12.5923
11.3558
15.4844
17.4017
19.0335
17.0332
23.9525
15.369
22.295
19.2463
15.895
13.8636
14.9299
20.5423
12.6748
17.4524
19.4207
20.5618
28.5842
37.2583
27.1245
27.361
22.251
26.2479
37.6986
23.6602
28.2892
29.4127
29.1604
28.8507
35.9975
53.5224
37.2092
55.1079
73.514
37.6484
49.4934
82.5366
7.96409
10.4674
8.47026
8.52806
7.50629
11.3961
10.5055
9.19888
17.8821
24.6674
20.1769
14.2937
21.3038
18.0411
28.7304
27.863
22.7126
36.7339
71.0559
48.455
4.88304
4.48699
4.33687
6.37175
3.50452
5.1775
6.02701
10.7446
2.73136
4.21504
3.66497
4.58481
4.29947
3.70943
2.69824
4.4473
7.47214
8.74197
7.26686
7.13847
6.00397
5.40723
3.37914
3.09512
4.44028
2.90672
3.56381
3.23166
4.85846
8.1143
5.94532
7.05924
5.63226
9.73677
6.18216
7.34831
11.7809
7.1664
11.7275
11.5693
35.4199
10.0495
23.0078
5.55134
5.83449
4.2676
5.60648
5.92975
7.12615
13.5795
7.79305
13.3096
9.03697
19.5695
15.4634
48.6493
58.1054
18.253
31.2253
68.3939
280.058
24.3687
116.574
8.37723
6.79494
13.6639
8.79431
10.4285
11.0865
31.9544
35.079
19.4679
77.0359
15.5944
59.2341
52.1419
227.324
355.66
68.2731
194.159
371.132
0.0994166
228.375
70.8298
5.17294
5.74929
6.22591
5.65261
6.01925
6.64541
6.48456
7.47987
8.78715
9.71996
7.19828
7.94355
9.44725
7.70541
4.23493
4.49926
5.28551
5.44205
8.50207
5.24467
9.50006
2.84815e-06
358.184
0.0831506
1.06053e-06
5.3283e-11
0.0261995
5.63498e-08
14.512
24.7754
55.0775
6.12956e-08
1.4147e-13
1.30548
0.982626
1.60574
2.01515
2.27124
1.67497
3.84258
1.52271
2.42289
1.59406
2.93725
3.22629
2.96419
2.5711
3.56679
3.50024
7.24107
7.45279
6.14441
3.26424
5.16027
9.559
12.6721
7.25344
71.4462
42.4053
0.00136644
6.75655e-10
5.45029e-16
2.22045e-16
2.22045e-16
77.9686
6.21555e-12
3.8153e-16
2.22045e-16
2.22045e-16
2.22045e-16
9.49568e-10
1.38348e-15
2.22045e-16
2.22045e-16
2.22045e-16
2.22045e-16
2.22045e-16
2.22045e-16
2.22045e-16
2.22045e-16
2.22045e-16
2.52793e-16
2.22045e-16
2.22045e-16
2.22045e-16
2.22045e-16
2.22045e-16
1.53969
1.90571
1.40584
1.6366
2.33707
3.21302
2.25072
2.48899
3.36453
2.73282
1.92064
2.35913
2.76013
2.55471
2.74995
2.44159
4.55115
5.28673
4.19349
3.19424
6.15108
6.85382
6.01446
2.77779
5.35818
6.09648
6.36703
6.39051
4.3614
6.88973
8.89529
7.31716
6.50226
9.14028
2.68993
2.34673
2.77294
2.02473
2.51285
3.73358
3.92624
4.49823
4.77175
5.42545
8.47961
8.80933
10.1738
6.56231
6.93656
8.24581
1.63952
1.86281
1.61633
1.96894
1.92442
1.67242
1.58488
1.48439
1.69723
1.5118
1.66334
1.73918
2.08758
2.2825
1.99304
2.03938
1.77518
1.9499
2.65354
2.19082
2.6611
2.32289
2.25979
2.73949
2.57781
3.10137
3.13504
3.21475
3.02465
2.79431
2.45468
2.66357
3.18496
2.3893
2.88238
3.09633
3.25115
3.68411
3.36534
3.57161
1.62782
1.98569
1.68429
1.71162
1.52258
2.10597
2.01095
1.78915
3.17261
3.25442
2.48004
3.22058
2.91766
3.72528
3.40669
2.41966
2.00437
1.95901
2.48282
2.84263
2.68637
2.35442
3.38136
2.30053
3.30409
2.91289
3.05283
3.92302
3.13754
3.80552
3.57663
4.24078
5.1132
4.58814
4.13067
3.67321
4.44414
4.3416
3.11746
3.69347
3.89046
3.59816
3.80155
4.45194
4.90937
4.23013
4.112
5.04893
5.32321
4.83875
5.80926
6.78127
4.71045
5.47998
6.53486
5.96255
7.5735
6.15524
7.2851
2.37815
3.41502
2.94496
3.9765
3.17744
4.28749
4.64953
3.71625
4.27465
5.10041
4.8904
6.8877
5.54794
7.68031
6.2252
5.13129
4.7012
4.53874
5.34201
6.01866
6.11666
5.51597
7.39618
5.30222
6.99217
6.30986
5.56654
6.18843
5.82016
5.90004
6.56284
8.22187
8.24553
7.41534
7.6852
6.92513
6.99089
9.23689
6.97649
8.2915
8.584
7.88361
8.05509
9.86469
5.6048
7.55856
6.4285
6.24971
5.90046
8.43454
7.53657
7.05992
6.55559
6.52225
6.20068
6.91092
1.42802
1.23223
1.43156
1.10565
1.86712
1.36361
1.58256
2.27082
1.91627
2.74526
2.07342
2.67856
2.39776
2.89382
2.2079
1.57479
2.49087
2.14711
3.06203
2.33299
4.19576
3.04291
2.83865
4.18059
3.35991
4.76354
4.63952
4.84509
3.22906
3.05367
4.97445
2.91055
3.81559
3.48072
5.24737
5.13208
4.65269
4.44183
5.9206
4.84718
6.82237
5.2383
7.13188
2.85532
10.5337
41.027
34.9305
11.2722
5.08225e-06
3.50223e-08
9.15059e-11
1.04775e-13
3.87048
2.44352
3.32366
3.38959
4.74195
2.84043
1.84198
2.12198
2.28875
1.3936
1.60791
1.97172
3.91315
2.4617
2.87331
2.67768
2.20207
1.87132
3.15969
6.14251
5.85521
6.16719
3.55139
5.93443
3.32157
3.08297
2.36051
4.00587
3.70124
2.8643
4.26343
1.317
1.18176
1.71472
4.0165
5.45632
1.17512
1.44438
1.45591
1.69782
3.30547
3.35123
3.95926
5.17735
5.21938
4.38112
4.53716
5.07797
5.48999
5.43267
4.55234
5.6912
1.38388
1.22545
1.43376
2.12125
4.55573
5.73498
5.18945
5.39131
7.78846
1.39967
1.15655
1.37516
1.21813
1.19922
1.42423
1.35141
1.29098
1.41796
1.26997
1.29933
1.66093
2.09494
2.04102
2.64272
3.21108
2.57065
2.67798
3.83647
4.49124
4.3366
4.88339
4.96989
4.69914
4.94153
3.85758
4.38057
3.78896
4.76347
3.67933
4.59932
3.96242
4.08999
5.07689
5.34374
4.51963
4.88936
4.19939
4.45573
5.20913
5.72949
5.48623
3.80284
4.75886
3.95767
5.07908
4.67389
4.19767
0.94228
1.00991
1.03768
1.23018
1.0152
1.23941
1.35038
1.43484
2.04474
2.7528
1.44849
2.79092
2.98203
3.30402
3.77392
4.33742
3.35008
4.3712
0.892695
0.994548
0.873341
1.04768
1.03223
0.905825
0.859917
0.938791
1.10662
1.20963
1.05019
1.08988
0.952589
1.03402
0.87828
1.05342
0.910776
1.11322
1.05745
0.957927
1.43493
1.40585
1.21338
1.75588
1.19093
1.71229
1.46902
1.78056
2.20296
2.67786
2.27633
2.14402
1.82734
2.21696
1.22424
1.77761
1.48616
2.23245
2.30721
1.85094
3.04637
3.21066
2.74035
3.75903
2.66815
3.64312
3.13554
3.32137
4.09472
4.18526
3.6292
3.95716
3.42736
3.51611
2.77811
3.81117
3.17893
4.14334
3.65931
3.46815
4.34012
2.34572
1.96126
2.98501
1.64307
2.5261
2.77991
1.29743
2.21139
1.62491
1.4921
2.00838
2.71988
2.06826
2.15313
2.3749
1.84781
2.33639
2.64369
2.86517
3.42721
1.42381
1.37652
1.5469
1.41487
1.54424
1.50706
1.66835
1.52593
1.77728
1.66922
1.7595
1.65332
1.78291
1.88742
1.01713
0.951407
0.983528
1.17655
1.09878
1.13369
1.13995
1.61639
1.68364
2.14332
2.42897
2.05545
1.50774
1.93828
0.978964
1.00841
0.97103
0.871682
0.81228
0.845306
0.838667
1.77708
1.69133
1.97643
1.44664
1.67576
1.61052
1.82876
2.18744
2.34556
2.18696
1.97859
1.84363
1.97811
2.09927
1.73126
1.88962
2.00917
1.87364
1.99993
2.00272
2.12439
1.07823
1.25914
1.28148
1.28068
1.45265
1.24332
1.4876
1.27307
1.05889
1.09708
1.01981
1.05634
1.22421
1.18539
1.06569
1.15916
1.18419
0.918159
0.991625
0.893444
1.01323
2.4885
2.48255
2.63
2.10624
2.2406
2.21964
2.35164
1.54355
1.84829
1.893
2.18156
1.75037
1.79285
2.09473
4.64004
3.28007
4.23116
2.39221
4.39698
2.97287
4.31245
2.25532
2.38936
2.57605
2.55322
2.6016
2.38271
2.85761
1.35412
1.25831
1.50567
1.47192
1.29744
1.54876
1.31495
1.1726
1.13794
1.32952
1.30483
1.55296
1.32139
1.52058
1.98169
2.28047
2.13547
2.36168
2.1578
2.26298
2.437
1.2767
1.32021
1.3633
1.09604
1.13605
1.17074
1.12901
1.3475
1.34534
1.38956
1.40772
1.45517
1.49985
1.45048
1.53755
1.86372
1.6872
1.7564
1.63124
1.79556
1.94327
1.83491
2.5037
2.54792
2.76793
4.45511
2.99007
2.23934
2.81119
2.7397
3.00124
3.25227
2.76591
3.07171
2.92805
1.37462
1.64301
1.67
1.37542
1.39986
1.14396
1.16541
2.04127
1.94995
1.82091
1.92206
2.25782
2.10364
2.0397
1.47591
1.65868
1.70789
1.41484
1.5825
1.62887
1.37311
1.47428
1.60944
1.65803
1.95025
1.42177
1.68404
1.71243
2.08615
2.52409
2.59787
2.10148
1.69941
2.15441
1.73315
2.79909
2.9526
2.78629
2.5197
2.37755
2.49105
2.64881
1.44677
1.20736
1.24046
1.35643
1.38629
1.5866
1.62359
1.55957
1.9192
1.9374
1.85038
2.28144
2.24061
1.82435
1.88549
2.34928
2.16593
1.90687
1.76416
1.97559
2.125
1.66047
1.55681
1.71581
1.41931
1.46692
1.59555
1.54266
3.799
3.26293
2.74103
5.18284
3.17555
3.88923
5.15637
2.3909
2.73868
2.87644
3.31335
2.79446
2.68944
3.09896
3.50293
3.10218
3.33594
2.82891
2.50521
2.94273
2.587
2.55572
2.51475
2.36423
2.1214
2.43506
2.2902
2.24268
2.0848
2.41771
2.16564
2.54162
2.2341
2.30741
2.5913
4.38897
5.15125
4.30399
3.03864
5.62621
4.04371
9.39502
1.45325
1.6747
1.50228
1.75909
1.57039
1.61613
1.80216
1.98808
1.79092
1.71023
1.65555
1.8478
1.76032
1.93004