/*--------------------------------*- C++ -*----------------------------------*\
  =========                 |
  \\      /  F ield         | OpenFOAM: The Open Source CFD Toolbox
   \\    /   O peration     | Website:  https://openfoam.org
    \\  /    A nd           | Version:  9
     \\/     M anipulation  |
\*---------------------------------------------------------------------------*/
FoamFile
{
    format      ascii;
    class       volScalarField;
    location    "0.0027";
    object      rho.air;
}
// * * * * * * * * * * * * * * * * * * * * * * * * * * * * * * * * * * * * * //

dimensions      [1 -3 0 0 0 0 0];

internalField   nonuniform List<scalar> 
22864
(
2.04282
1.225
1.225
1.225
1.225
1.22501
1.225
1.225
1.22509
0.878992
1.29424
2.34425
2.12569
1.22511
1.22663
1.51548
1.23427
1.22525
1.22538
1.46542
1.23318
1.23654
1.03389
1.74372
1.13711
1.35566
1.6996
1.17818
1.81522
0.950775
0.774981
0.832261
1.17515
1.02029
1.10343
1.08309
1.24613
1.22724
1.22769
1.23739
1.22845
1.24
1.24377
1.30983
1.30233
1.3782
1.53503
1.29368
1.3291
1.35808
1.12993
0.899937
0.980245
1.28723
1.34314
1.20871
1.42688
1.22708
1.45533
1.48155
1.30858
2.00089
1.89686
1.99195
1.92953
1.77286
2.10514
2.4039
1.59475
2.40583
1.9165
1.78423
1.62935
1.61507
1.74654
1.53186
1.84584
1.22852
2.14759
1.34313
2.49156
1.18751
1.88816
1.8003
1.57468
2.37539
1.22502
1.225
1.225
1.22528
1.23281
1.22518
1.22501
1.225
1.225
1.225
1.225
1.225
1.225
1.225
1.225
1.225
1.225
1.225
1.225
1.225
1.225
1.225
1.225
1.225
1.225
1.225
1.225
1.225
1.225
1.225
1.225
1.225
1.225
1.225
1.225
1.225
1.225
1.225
1.225
1.225
1.225
1.225
1.75155
1.22599
1.22501
1.225
1.225
1.22514
1.2284
1.22504
1.225
1.225
1.225
1.225
1.225
1.225
1.225
1.225
1.225
1.225
1.225
1.225
1.225
1.225
1.225
1.225
1.225
1.225
1.225
1.225
1.225
1.225
1.225
1.225
1.225
1.225
1.225
1.225
1.225
1.225
1.225
1.225
1.225
1.225
1.225
1.225
2.10357
1.22501
1.225
1.225
1.22502
1.22531
1.225
1.225
1.225
1.225
1.225
1.225
1.225
1.225
1.225
1.225
1.225
1.225
1.225
1.225
1.225
1.225
1.225
1.225
1.225
1.225
1.225
1.225
1.225
1.225
1.225
1.225
1.225
1.225
1.225
1.225
1.225
1.225
1.225
1.225
1.225
1.225
1.225
1.25428
1.225
1.22502
1.225
1.225
1.225
1.225
1.225
1.225
1.225
1.225
1.225
1.225
1.225
1.225
1.225
1.225
1.225
1.225
1.225
1.225
1.225
1.225
1.225
1.225
1.225
1.225
1.225
1.225
1.225
1.225
1.225
1.225
1.225
1.225
1.225
1.225
1.225
1.225
1.225
1.225
1.225
1.225
1.9843
1.73826
1.22886
1.225
1.225
1.73632
1.23645
1.22504
1.225
1.225
1.225
1.22506
1.225
1.225
1.225
1.225
1.225
1.225
1.225
1.225
1.225
1.225
1.225
1.225
1.225
1.225
1.225
1.225
1.225
1.225
1.225
1.225
1.225
1.225
1.225
1.225
1.225
1.225
1.225
1.225
1.225
1.225
1.225
1.225
1.225
1.225
1.225
1.87221
1.23727
1.22501
1.225
1.225
1.225
1.22501
1.22613
1.225
1.225
1.225
1.225
1.225
1.225
1.225
1.225
1.225
1.225
1.225
1.225
1.225
1.225
1.225
1.225
1.225
1.225
1.225
1.225
1.225
1.225
1.225
1.225
1.225
1.225
1.225
1.225
1.225
1.225
1.225
1.225
1.225
1.225
1.225
1.225
1.225
1.225
1.225
1.225
1.22501
1.225
1.225
1.225
1.225
1.225
1.225
1.225
1.225
1.225
1.225
1.225
1.225
1.225
1.225
1.225
1.225
1.225
1.225
1.225
1.225
1.225
1.225
1.225
1.225
1.225
1.225
1.225
1.225
1.225
1.225
1.225
1.225
1.225
1.225
1.225
1.225
1.225
1.225
1.225
1.225
1.225
1.225
1.225
1.225
1.225
1.225
1.225
1.225
1.225
1.225
1.225
1.225
1.225
1.225
1.225
1.225
1.225
1.225
1.225
1.225
1.225
1.225
1.225
1.225
1.225
1.225
1.225
1.225
1.225
1.225
1.225
1.225
1.225
1.225
1.225
1.225
1.225
1.225
1.225
1.225
1.225
1.225
1.225
1.225
1.225
1.225
1.225
1.225
1.225
1.225
1.225
1.225
1.225
1.225
1.225
1.225
1.225
1.225
1.225
1.225
1.225
1.225
1.225
1.225
1.225
1.225
1.225
1.225
1.225
1.225
1.225
1.225
1.225
1.225
1.225
1.225
1.225
1.225
1.225
1.225
1.225
1.225
1.225
1.225
1.225
1.225
1.225
1.225
1.225
1.225
1.225
1.225
1.225
1.225
1.225
1.225
1.225
1.225
1.225
1.225
1.225
1.225
1.225
1.225
1.225
1.225
1.225
1.225
1.225
1.225
1.225
1.225
1.225
1.225
1.225
1.225
1.225
1.225
1.225
1.225
1.225
1.225
1.225
1.225
1.225
1.225
1.225
1.225
1.225
1.225
1.225
1.225
1.225
1.225
1.225
1.225
1.225
1.225
1.225
1.225
1.225
1.225
1.225
1.225
1.225
1.225
1.225
1.225
1.225
1.225
1.225
1.22501
1.225
1.22501
1.225
1.225
1.225
1.225
1.225
1.225
1.2252
1.225
1.22513
1.35494
1.22643
1.28096
1.38101
1.22599
1.26243
2.13925
1.29634
1.23743
1.61485
2.17295
1.27077
1.23092
1.225
1.22502
1.225
1.22501
1.225
1.22501
1.225
1.225
1.225
1.225
1.225
1.225
1.225
1.225
1.22502
1.225
1.225
1.225
1.22502
1.225
1.225
1.23178
1.22501
1.22503
1.22518
1.22941
1.22501
1.22503
1.22501
1.225
1.225
1.225
1.225
1.225
1.225
1.225
1.2251
1.225
1.22503
1.4701
1.22576
1.25361
1.57008
1.22522
1.23329
2.34629
1.25881
1.22846
2.16
1.76919
1.23273
1.22528
1.225
1.22501
1.225
1.225
1.225
1.225
1.225
1.225
1.225
1.225
1.225
1.225
1.225
1.22501
1.225
1.225
1.225
1.22501
1.225
1.225
1.22827
1.22501
1.22502
1.22505
1.22583
1.22501
1.22501
1.225
1.22501
1.225
1.225
1.225
1.225
1.225
1.22501
1.225
1.225
1.81406
1.22513
1.22964
1.70658
1.22501
1.22534
1.45454
1.22884
1.22509
1.61362
1.22775
1.22519
1.225
1.225
1.225
1.225
1.225
1.225
1.225
1.225
1.225
1.225
1.225
1.225
1.225
1.225
1.225
1.225
1.225
1.225
1.225
1.225
1.225
1.22543
1.225
1.225
1.22501
1.22503
1.225
1.225
1.22507
1.28569
1.22502
1.225
1.24968
1.22567
1.225
1.225
1.22516
1.225
1.39347
1.225
1.2251
1.22744
1.225
1.225
1.22543
1.22505
1.22501
1.22568
1.225
1.225
1.225
1.22509
1.22503
1.22501
1.2512
1.22531
1.2254
1.225
1.225
1.225
1.22845
1.22507
1.22501
1.225
1.225
1.225
1.225
1.22501
1.225
1.225
1.225
1.225
1.225
1.225
1.225
1.225
1.225
1.225
2.18832
1.32485
1.22764
2.37363
2.08898
1.27296
1.22535
1.27089
1.22568
1.22501
1.29021
1.22693
1.22506
1.22501
1.22503
1.225
1.225
1.22506
1.225
1.225
1.225
2.08972
1.75448
1.23768
2.60524
1.22501
2.11254
2.78131
1.22501
1.225
1.46301
1.28892
1.22504
1.225
1.225
1.225
2.62965
1.36102
1.225
1.225
1.225
1.225
1.22602
1.225
1.225
1.225
1.225
1.225
1.225
1.225
1.225
1.225
1.225
1.225
1.225
1.225
1.225
1.225
1.225
1.225
0.727107
0.754532
1.28447
0.806943
1.35933
1.31881
1.07858
1.40314
0.845174
0.988679
1.82669
0.980096
1.56693
2.27245
1.19465
2.12106
1.52607
1.72846
1.82418
2.49352
1.55789
2.54113
1.68242
2.60222
1.82781
2.57751
1.95153
1.84517
2.81321
1.255
1.99021
1.55478
1.22997
2.35883
1.22644
1.23341
1.22501
1.19316
1.28746
1.55669
2.07352
1.67586
2.46999
1.64141
2.47613
2.64047
2.23592
1.61859
2.6748
2.77909
1.70305
1.24415
2.32634
1.26883
1.22541
2.22274
1.22555
1.22571
1.225
1.99659
1.55382
1.8426
2.20159
2.13695
1.77445
1.95068
2.07279
2.00881
1.94957
2.11503
1.39562
1.67567
1.42216
1.24187
1.30022
1.24722
1.29267
1.22595
1.23276
1.22736
1.22507
1.22563
1.22517
1.2253
1.225
1.22501
1.225
1.22501
1.22501
1.225
1.225
1.225
1.225
1.225
1.225
1.225
1.225
1.225
1.225
1.22501
1.22501
1.225
1.22501
1.225
1.225
1.225
1.225
1.225
1.225
1.225
1.225
1.225
1.225
1.225
1.225
1.225
1.225
1.225
1.225
1.225
1.225
1.225
1.225
1.225
1.225
1.225
1.225
1.225
1.225
1.225
1.225
1.225
1.225
1.225
1.225
1.225
1.225
1.225
1.225
1.225
1.225
1.225
1.225
1.225
1.225
1.225
1.225
1.22504
1.22536
1.22502
1.22519
1.22534
1.22502
1.22504
1.225
1.225
1.225
1.225
1.225
1.225
1.225
1.22503
1.22516
1.22525
1.22501
1.2253
1.22502
1.22503
1.36034
1.50435
1.51171
1.62987
1.7797
1.77401
1.63626
1.24636
1.22796
1.23376
1.22635
1.22779
1.23328
1.24755
1.53525
1.41798
1.57834
1.62287
1.76562
1.76989
1.61448
1.2444
1.22619
1.2271
1.23123
1.2275
1.2324
1.24177
1.225
1.225
1.225
1.225
1.225
1.225
1.225
1.225
1.225
1.225
1.225
1.225
1.225
1.225
1.225
1.225
1.225
1.225
1.225
1.225
1.225
1.225
1.225
1.225
1.225
1.225
1.225
1.225
1.225
1.225
1.225
1.225
1.225
1.225
1.225
1.225
1.225
1.225
1.225
1.225
1.225
1.225
1.225
1.225
1.225
1.225
1.225
1.225
1.225
1.225
1.225
1.225
1.225
1.225
1.22501
1.22519
1.22501
1.22507
1.22502
1.22513
1.22501
1.225
1.225
1.225
1.225
1.225
1.225
1.225
1.22501
1.22504
1.22505
1.225
1.22509
1.225
1.22501
1.63893
1.52392
1.70587
1.57817
1.75575
1.60088
1.73423
1.23546
1.22666
1.22992
1.22555
1.23867
1.22622
1.22863
1.76433
1.80453
1.60198
1.54288
1.61996
1.69147
1.49557
1.23242
1.22536
1.22554
1.22661
1.22584
1.2275
1.22988
1.225
1.225
1.225
1.225
1.225
1.225
1.225
1.225
1.225
1.22501
1.22502
1.225
1.225
1.22503
1.225
1.225
1.225
1.225
1.225
1.225
1.225
1.225
1.225
1.225
1.225
1.225
1.225
1.225
1.225
1.225
1.225
1.225
1.225
1.225
1.225
1.225
1.225
1.225
1.225
1.225
1.225
1.225
1.225
1.225
1.225
1.225
1.225
1.225
1.225
1.225
1.22503
1.225
1.22501
1.225
1.22502
1.225
1.225
1.225
1.225
1.225
1.225
1.225
1.225
1.225
1.225
1.225
1.225
1.22501
1.225
1.225
1.7829
1.61104
1.5913
1.37166
1.5265
1.43705
1.42359
1.22669
1.22532
1.22595
1.22506
1.22798
1.22517
1.2255
1.56512
1.53919
1.45822
1.31139
1.26979
1.33072
1.26483
1.22585
1.22503
1.22503
1.22509
1.22508
1.22524
1.22537
1.22828
1.22513
1.22519
1.22577
1.22533
1.22649
1.2269
1.25152
1.23247
1.34042
1.34456
1.23941
1.24175
1.38178
1.22518
1.22505
1.22501
1.22528
1.22501
1.22555
1.22508
1.22505
1.225
1.225
1.22501
1.225
1.22501
1.22502
1.22723
1.2278
1.28937
1.23335
1.23135
1.2259
1.25156
1.22567
1.22506
1.22741
1.22747
1.22518
1.22525
1.23336
1.225
1.225
1.225
1.225
1.225
1.225
1.225
1.225
1.225
1.225
1.225
1.225
1.225
1.225
1.22501
1.22501
1.22563
1.22504
1.22504
1.225
1.22516
1.225
1.225
1.22501
1.22501
1.225
1.225
1.22504
1.27609
1.28193
1.3611
1.2307
1.24111
1.24162
1.22955
1.22504
1.22501
1.22503
1.225
1.22513
1.225
1.22501
1.2379
1.22918
1.24227
1.22654
1.22517
1.22604
1.22532
1.22501
1.225
1.225
1.225
1.225
1.225
1.225
2.08736
2.01509
1.92188
1.84425
1.46901
1.74785
1.48675
1.23853
1.2898
1.24753
1.2293
1.2271
1.23167
1.22615
1.33663
0.824491
0.947508
1.61262
1.17504
2.12628
2.32479
1.37611
2.31038
1.51633
2.48827
1.95941
1.90433
2.88335
1.86475
2.73386
1.91136
2.59717
2.21133
0.733265
0.939216
0.947427
0.391336
0.588001
0.591065
0.39061
0.971901
0.793759
1.0188
0.398529
0.626193
0.601578
0.415807
1.08354
0.910707
1.16468
0.478113
0.66348
0.442077
0.714216
1.26411
1.38396
1.08263
0.525677
0.86883
0.780942
0.588384
1.68151
1.19883
1.34386
0.77497
0.984211
0.671406
1.13139
0.710252
1.5493
1.71314
1.23685
1.53277
1.04679
0.824877
1.90019
1.49426
1.59764
0.906341
1.56361
1.31611
1.08925
1.62933
1.51518
1.60721
1.5774
1.8532
1.33132
2.02562
1.36293
1.26957
1.37566
1.6633
1.51238
1.90219
1.52077
1.34916
0.905922
1.03711
0.995101
0.774424
0.692849
1.11363
1.52506
1.2292
2.08897
1.08445
1.84503
1.73654
1.81684
1.21398
1.4427
1.44496
0.877338
1.01585
1.25621
2.24497
1.69428
1.90494
1.68449
1.41247
1.20008
1.94079
2.25727
2.49994
1.75805
2.70062
1.63527
2.61762
2.31149
2.01244
1.97679
1.85532
2.25833
1.60736
1.77219
2.15178
1.36172
1.61331
1.41414
2.1889
1.77738
1.83234
1.92433
1.23719
1.30156
1.25302
1.35611
1.62377
1.44944
1.58944
1.25431
1.92863
1.52197
2.25796
0.996756
2.20145
1.88967
1.58848
2.62398
2.85502
2.16415
2.53806
2.20945
1.84714
1.76882
1.34679
1.54828
1.96704
1.85139
2.06435
1.94756
1.225
1.22533
1.35059
1.225
1.225
1.225
1.2251
1.22501
1.22589
1.47475
1.33991
0.971059
1.15291
1.24198
1.95517
2.14261
1.225
1.225
1.225
1.225
1.225
1.225
1.225
1.225
1.225
1.225
1.225
1.225
1.225
1.225
1.225
1.225
1.22501
1.22501
1.22514
1.22504
1.22501
1.22501
1.22507
1.23114
1.22633
1.22544
1.23247
1.22571
1.23507
1.22903
1.26601
1.27769
1.39013
1.41495
1.27946
1.25693
1.39307
1.07037
0.810744
0.74032
0.891852
0.558513
0.621183
0.802866
1.59738
1.50712
1.07645
1.37804
1.1947
1.68448
1.78264
1.225
1.225
1.22501
1.225
1.225
1.225
1.225
1.34449
1.22572
1.23862
1.38214
1.22615
1.29862
1.22502
1.22524
1.22502
1.22501
1.22969
1.22504
1.22501
1.225
1.225
1.225
1.225
1.22501
1.225
1.225
1.225
1.225
1.225
1.225
1.225
1.225
1.225
1.225
2.28247
1.33791
2.32186
1.28909
2.34692
2.07777
1.22514
2.39897
1.22505
1.53452
1.23697
1.22506
1.22503
1.22501
1.23335
1.225
1.22518
1.22501
1.225
1.225
1.225
1.225
1.225
1.225
1.225
1.225
1.225
1.225
1.41118
1.55272
1.25672
1.27733
1.54
1.25493
1.41872
1.39836
1.27077
1.48584
1.24748
1.518
1.2517
1.38024
1.32921
1.44342
1.2428
1.2454
1.35677
1.39294
1.23818
1.30122
1.2385
1.29832
1.2308
1.34165
1.23407
1.27509
1.24242
1.26814
1.22842
1.22729
1.25561
1.24825
1.22682
1.23387
1.22596
1.22921
1.22535
1.23578
1.22585
1.22892
1.22545
1.22634
1.22512
1.22503
1.22649
1.22535
1.22504
1.22511
1.225
1.22501
1.225
1.22507
1.22501
1.22502
1.58217
1.71505
1.25799
1.37588
1.49839
1.88035
1.26788
1.33437
1.25159
1.23465
1.22763
1.31728
1.25265
1.23612
1.22651
1.2324
1.22517
1.22558
1.22701
1.23153
1.22513
1.22536
1.22516
1.22504
1.22501
1.22556
1.22509
1.22503
1.22529
1.22517
1.22598
1.22501
1.22502
1.22506
1.225
1.225
1.22504
1.225
1.225
1.22501
1.22502
1.225
1.225
1.225
1.225
1.225
1.225
1.225
1.225
1.225
1.225
1.22508
1.24816
1.2251
1.22508
1.225
1.63429
2.49999
1.52838
1.94253
1.88351
2.60846
2.66045
2.45873
1.22527
2.19706
2.46922
2.68727
2.1344
1.28654
1.29294
1.225
1.22673
1.55336
1.23773
1.22662
1.22504
1.22505
1.225
1.225
1.22661
1.225
1.225
1.225
1.50006
2.80192
1.65125
1.40743
1.99806
2.05857
1.27118
1.22901
1.22738
1.23814
1.2537
1.27351
1.37101
1.22986
2.01506
1.64481
1.84533
1.46828
1.83654
1.61347
2.015
1.94322
1.95328
1.75882
1.79449
1.79344
1.86086
1.71907
1.22594
1.22501
1.22501
1.22981
1.22543
1.22502
1.22501
1.22525
1.22501
1.225
1.22568
1.22502
1.225
1.225
1.22501
1.225
1.225
1.22501
1.225
1.225
1.225
1.225
1.225
1.225
1.225
1.225
1.225
1.225
1.225
1.225
1.225
1.225
1.225
1.225
1.225
1.225
1.225
1.225
1.225
1.225
1.225
1.225
1.225
1.225
1.225
1.22501
1.225
1.225
1.225
1.225
1.22504
1.225
1.225
1.225
1.225
1.225
1.225
1.225
1.225
1.225
1.225
1.225
1.225
1.225
1.225
1.225
1.225
1.225
1.225
1.225
1.225
1.225
1.225
0.461309
0.466076
0.928657
2.82334
0.745144
1.27714
2.21381
0.800555
0.755342
2.19709
0.812534
2.95768
2.93232
0.927762
1.60199
1.9349
0.928946
0.891098
1.44455
1.62934
1.96158
3.16632
1.272
1.76006
2.79569
1.24861
1.4333
1.51908
2.29597
2.49345
1.94273
3.09449
1.30283
1.22501
1.81407
3.18738
3.99774
1.22502
1.78624
2.17875
2.30116
1.32977
1.23603
1.225
1.78146
3.31137
4.26543
1.24887
1.225
1.2742
1.72555
1.22502
1.225
1.225
2.62449
2.77895
1.225
1.225
1.225
1.22501
1.225
1.225
1.225
1.45877
1.22653
1.225
1.225
1.225
1.22501
1.225
1.225
1.225
1.225
0.733432
0.804424
1.08547
0.810188
0.96231
0.772422
1.21621
0.880453
1.03972
0.73392
0.802515
0.785552
0.867899
0.846879
1.02027
0.868594
1.22069
0.864906
1.20501
0.89558
1.27273
1.15197
1.04092
1.57796
1.38607
1.62097
1.82288
1.58784
1.97962
2.45422
1.49003
1.74493
2.73183
3.63418
2.06504
2.07882
1.3679
1.5931
1.95559
1.2707
1.98714
1.60121
1.62722
1.4239
1.73986
1.44591
2.14169
2.83054
1.78049
2.18382
2.79816
4.51466
2.39387
3.00769
4.02549
2.25879
2.58867
4.5369
2.6572
3.1526
3.16075
1.63481
1.43456
2.10918
2.16704
2.34594
2.89717
3.03089
1.11055
1.54765
1.89118
0.852012
0.81281
0.865907
1.3518
0.944352
1.1021
1.48724
2.12137
1.31263
1.45014
0.980814
1.01729
1.06437
1.4535
1.60982
1.6145
1.93229
1.9892
2.15202
2.19176
2.3893
2.45124
2.57371
1.48795
2.2527
2.38207
2.91868
1.9445
2.79934
4.56074
2.53699
3.01897
3.41236
1.4185
3.06542
3.13574
1.44937
3.14626
3.04351
1.25247
1.22504
2.54128
1.22559
1.46286
1.40417
0.71822
0.74594
0.730503
0.764996
0.79452
0.751441
0.905778
0.802962
0.871315
0.823018
0.815054
0.885455
0.892251
0.926792
0.841446
0.878028
0.943834
0.835405
0.904369
0.971355
0.745872
0.764589
0.830757
0.921499
0.883781
0.373825
0.814032
0.794433
0.565555
0.762676
0.544713
0.389026
0.86385
0.960959
0.964322
1.07924
1.26291
1.09646
0.953994
1.06672
0.437849
0.843072
0.595603
0.962434
0.410572
0.911062
0.63404
1.1323
1.30345
1.17199
1.52941
1.46231
1.28199
1.5768
1.32703
1.68237
1.46285
1.57655
1.40989
1.59807
1.72291
1.42525
1.53138
1.76969
1.73905
1.77849
2.11239
1.85684
1.9031
1.65741
1.94641
1.95516
1.5986
1.5704
1.68203
1.73372
1.82594
1.75418
2.15464
1.87446
2.24585
2.08948
2.04279
1.9262
2.33398
1.27119
1.55091
1.44735
1.41171
1.72088
1.52413
1.74769
1.8413
1.63679
0.624573
1.23908
0.815153
1.39982
0.56165
1.37986
0.913808
1.79647
1.98039
1.78853
1.59768
1.60642
1.48121
1.80852
1.44907
1.78903
1.6321
1.54299
1.4677
1.65476
1.56999
1.68516
1.753
1.98597
2.24124
1.88832
1.99274
1.77213
1.94293
2.20378
1.78488
1.92747
1.98709
1.97326
1.99513
2.15001
2.39961
2.32255
2.0647
2.40641
2.1594
2.5556
2.29283
2.4888
2.1972
2.5572
2.61933
2.24507
2.38938
2.8539
2.69842
2.67483
3.27125
2.81706
2.85562
2.55051
3.08611
2.77303
2.44234
2.27021
2.47569
2.51512
2.66561
2.53256
3.16313
2.79084
3.3976
3.18514
3.00314
2.91473
3.41264
1.48171
1.80838
1.62414
1.64111
1.54525
1.96969
1.87065
1.75202
2.05875
2.36044
2.27625
2.18195
2.56179
2.35975
2.57838
2.73948
2.47973
2.6834
3.11289
2.81122
0.913535
0.972845
0.720773
1.22341
0.634622
1.07129
1.03418
1.67195
0.367597
0.734457
0.532473
0.798238
0.747256
0.536204
0.365105
0.471346
1.04815
1.11066
0.740286
1.00028
0.681514
0.51199
0.727502
0.618988
1.02273
0.642833
0.820239
0.659666
1.1716
2.71522
1.23999
1.47429
1.43825
3.02379
1.27538
1.51142
3.28492
1.39045
1.97267
2.45471
3.83569
1.59245
2.34735
1.69199
1.44903
1.4687
1.96151
1.64952
1.94719
2.83454
1.85146
2.65105
2.98372
3.15526
3.05252
4.33726
3.81521
1.8256
2.52944
3.9107
2.60102
1.9858
2.79161
2.99248
1.80757
3.16529
2.61541
2.55153
2.82668
4.59846
3.09344
3.71212
4.61455
2.75062
1.78653
4.71526
1.9317
1.61561
2.77385
2.29367
1.60023
1.22516
2.66732
1.22725
0.947848
1.00825
1.03787
1.04396
1.05409
1.10136
1.15496
1.16117
1.38207
1.38742
1.19799
1.22792
1.50853
1.30953
1.16681
1.05232
1.32149
1.5862
2.29911
1.27018
2.20966
1.22501
1.25713
1.22514
1.22501
1.225
1.22509
1.225
2.28549
2.44381
1.22991
1.225
1.225
0.129234
0.213602
0.311746
0.458043
0.505399
0.408771
1.39654
0.39678
0.594081
0.409264
0.627055
0.645341
1.12384
0.703508
1.0917
0.757534
1.2419
1.0896
2.01601
0.939817
1.23912
1.92389
2.40578
1.47157
1.43798
2.74807
1.22501
1.225
1.225
1.225
1.225
1.22688
1.225
1.225
1.225
1.225
1.225
1.225
1.225
1.225
1.225
1.225
1.225
1.225
1.225
1.225
1.225
1.225
1.225
1.225
1.225
1.225
1.225
1.225
0.372469
0.442133
0.350663
0.396367
0.520668
0.663344
0.503014
0.551884
0.690357
0.58145
0.444118
0.522624
0.583668
0.568656
0.581924
0.568981
0.892391
0.879922
0.838068
0.643428
1.07039
1.33887
0.952734
0.583749
0.880414
0.951038
1.14956
1.0097
1.02252
1.28774
1.45705
1.09254
1.01073
1.46612
0.575709
0.519821
0.590395
0.475553
0.552329
0.715197
0.727101
0.798704
0.863689
0.984002
1.17941
1.24394
1.34567
1.33977
1.45138
1.64666
0.395166
0.434993
0.388278
0.455327
0.448186
0.401075
0.382397
0.368935
0.41542
0.373959
0.410336
0.417154
0.477427
0.514348
0.465649
0.47053
0.422863
0.46008
0.57407
0.493798
0.572543
0.516877
0.507355
0.586456
0.560307
0.647785
0.650539
0.66371
0.634799
0.595737
0.538489
0.573891
0.649531
0.529648
0.607367
0.640077
0.668933
0.724241
0.683716
0.71246
0.390133
0.457579
0.402879
0.417236
0.375682
0.47953
0.467494
0.424718
0.654557
0.667882
0.541219
0.652489
0.611149
0.727363
0.687742
0.544493
0.473706
0.468509
0.550055
0.600922
0.576771
0.525899
0.663378
0.520817
0.660305
0.605336
0.634939
0.744894
0.640396
0.738363
0.696873
0.763187
0.87998
0.81104
0.761562
0.700497
0.807114
0.795258
0.637653
0.712688
0.726247
0.705819
0.723945
0.797349
0.874367
0.788009
0.780184
0.875872
0.907715
0.829862
0.958925
1.03327
0.830599
0.90402
1.04718
0.995007
1.12217
0.986662
1.14673
0.52763
0.664775
0.6072
0.748037
0.64282
0.764089
0.813349
0.702371
0.790294
0.876442
0.829632
1.03049
0.903887
1.11457
0.983914
0.96154
0.858751
0.848935
0.976804
1.05018
1.0111
0.932402
1.14959
0.926395
1.14921
1.06028
1.07467
1.21794
1.09656
1.18946
1.17721
1.29843
1.44245
1.33375
1.29207
1.19356
1.3095
1.3882
1.10452
1.18348
1.24528
1.20928
1.26067
1.34957
0.936229
1.15214
1.06677
1.22196
1.1039
1.30443
1.33981
1.20204
1.42547
1.34106
1.30636
1.46172
0.283572
0.296923
0.338903
0.264908
0.440653
0.337614
0.381733
0.42283
0.430512
0.555152
0.478592
0.592075
0.538003
0.595496
0.545022
0.406428
0.565381
0.564675
0.873763
0.569774
0.897636
0.747211
0.622079
0.957647
0.978695
1.40412
1.11154
1.1502
0.963285
0.737807
1.13965
0.826427
1.24414
0.885149
1.2607
1.28128
1.54232
1.16037
1.54347
1.44972
2.13921
1.38503
1.87191
0.955261
2.34624
2.31312
1.22564
1.22532
1.225
1.225
1.225
1.225
1.10695
0.697737
0.816195
0.843595
1.01687
0.753233
0.554108
0.592225
0.610555
0.399846
0.429567
0.563773
0.88784
0.635493
0.684064
0.664663
0.506714
0.464469
0.7279
1.38509
1.36111
1.35962
0.841231
1.21435
0.726756
0.763781
0.500954
0.812107
0.858726
0.562577
0.94547
0.326863
0.300184
0.426201
0.792046
1.20981
0.298675
0.368972
0.370813
0.424228
0.68003
0.683438
0.786793
1.1097
1.11391
1.10811
1.08883
1.27042
1.26341
1.2104
1.08826
1.25365
0.342326
0.311774
0.354605
0.499016
0.903684
1.29434
1.31324
1.18768
1.68061
0.347764
0.294064
0.340642
0.310173
0.305658
0.352833
0.335531
0.329976
0.36423
0.325469
0.331594
0.419052
0.496556
0.490568
0.58165
0.672581
0.575413
0.584254
0.775886
0.896301
0.879712
1.00462
1.08118
0.981623
1.01176
1.01285
1.06281
0.975288
1.1604
0.955565
1.13577
1.02928
1.06337
1.21928
1.28343
1.10654
1.20218
1.07222
1.12726
1.17855
1.30449
1.27252
0.975411
1.1506
1.02137
1.19473
1.09945
1.05186
0.238291
0.262044
0.269773
0.325966
0.263437
0.32782
0.361675
0.377449
0.509822
0.616807
0.379541
0.620206
0.68691
0.716725
0.928311
1.00777
0.721695
1.01211
0.235771
0.257692
0.230291
0.272725
0.268488
0.239849
0.22602
0.251236
0.290513
0.321522
0.286398
0.286313
0.255216
0.282233
0.231748
0.274175
0.241268
0.292035
0.288163
0.256646
0.390825
0.372437
0.333587
0.445118
0.328784
0.439214
0.396537
0.464863
0.524787
0.609465
0.556404
0.518531
0.470914
0.549472
0.335751
0.447671
0.399128
0.527418
0.559708
0.473564
0.730604
0.706336
0.649445
0.818846
0.640063
0.803185
0.744635
0.814821
0.917339
0.982528
0.910468
0.896029
0.83376
0.889399
0.654228
0.825931
0.75147
0.924629
0.915123
0.840777
0.975803
0.59253
0.448187
0.753734
0.403059
0.679067
0.654408
0.30612
0.758744
0.476476
0.389092
0.551878
0.841164
0.52822
0.657702
0.850011
0.55975
0.675055
0.783755
0.921609
1.18165
0.373906
0.348975
0.424665
0.335003
0.41185
0.383958
0.466077
0.428946
0.534535
0.484496
0.5356
0.477403
0.531662
0.586949
0.227816
0.189111
0.204708
0.263911
0.221496
0.238
0.249213
0.317783
0.191822
0.480013
0.545458
0.355305
0.264528
0.448659
0.249589
0.260923
0.249929
0.22825
0.206344
0.216873
0.218181
0.476219
0.435442
0.529437
0.375194
0.458379
0.41686
0.506303
0.617747
0.680104
0.610439
0.583678
0.526324
0.579078
0.63989
0.519548
0.579218
0.620025
0.589287
0.637205
0.641333
0.684737
0.247896
0.316268
0.326557
0.304226
0.358663
0.284872
0.370791
0.309349
0.257899
0.270097
0.23717
0.250216
0.288183
0.274837
0.27938
0.308357
0.315402
0.24445
0.268987
0.234774
0.276255
0.730794
0.740844
0.800608
0.634476
0.682474
0.69407
0.74593
0.401154
0.483869
0.485785
0.543059
0.445659
0.451348
0.539966
1.595
1.25319
1.41748
0.743425
1.43885
0.882411
1.51254
0.569352
0.639248
0.651298
0.633677
0.706608
0.627166
0.722061
0.30065
0.253344
0.321548
0.301863
0.27078
0.337086
0.285596
0.296028
0.281247
0.343687
0.335606
0.389378
0.321984
0.380844
0.602157
0.701514
0.658567
0.77373
0.698625
0.73266
0.791687
0.314237
0.326361
0.339029
0.274261
0.286062
0.297766
0.286078
0.149733
0.169132
0.19218
0.140046
0.162619
0.203171
0.178869
0.367469
0.534932
0.463044
0.457093
0.419489
0.514083
0.572173
0.466044
0.716813
0.92325
0.719282
1.43014
0.948686
0.573494
0.723491
0.765268
0.790751
0.871753
0.774774
0.799186
0.841234
0.366615
0.43035
0.433493
0.379959
0.384571
0.317085
0.322794
0.653605
0.62755
0.549787
0.592961
0.765138
0.674179
0.660747
0.351542
0.383445
0.396407
0.328006
0.355048
0.369067
0.314428
0.343759
0.35474
0.400518
0.459415
0.32087
0.382545
0.415347
0.512816
0.597538
0.602593
0.536506
0.454093
0.542297
0.458541
0.832282
0.914325
0.858416
0.768623
0.72653
0.795019
0.84671
0.361034
0.308447
0.318224
0.351071
0.357949
0.396884
0.403836
0.404037
0.48525
0.484199
0.457269
0.541447
0.542901
0.454795
0.482047
0.645516
0.585876
0.499663
0.458401
0.558251
0.614951
0.284244
0.286523
0.307497
0.216314
0.240004
0.25456
0.229722
1.4232
1.29981
1.03661
1.73674
1.05408
1.4238
1.96501
0.569179
0.657005
0.659945
0.731343
0.63307
0.634491
0.729045
0.78781
0.696257
0.772382
0.701334
0.620973
0.715917
0.630191
0.749983
0.753256
0.676008
0.640749
0.799222
0.714005
0.709587
0.698291
0.849781
0.723193
0.934023
0.766418
0.784358
0.93323
1.49728
1.54042
1.39445
0.916511
1.70365
1.15962
2.14314
0.210453
0.364195
0.257609
0.357423
0.229891
0.27193
0.391111
0.409061
0.33868
0.35646
0.331071
0.359289
0.373055
0.391209
0.486755
0.428004
0.437178
0.364138
0.474399
0.40701
0.4273
0.603316
0.495323
0.555
0.661037
0.502848
0.599072
0.666402
0.748449
0.812199
0.831365
0.826918
0.917191
0.896719
0.8161
0.858477
0.883651
0.924705
0.946419
0.973751
0.908466
1.02169
1.00222
0.820684
0.887652
0.877469
0.771455
0.832137
0.956022
0.762939
0.877517
0.865013
0.882445
0.879926
1.04472
1.0222
0.358167
0.370564
0.385033
0.406064
0.423138
0.418752
0.436053
0.703215
0.770946
0.783868
0.892111
0.695636
0.778585
0.801743
0.34825
0.479064
0.371131
0.410655
0.3057
0.322477
0.436438
0.413452
0.483782
0.485556
0.540911
0.459772
0.463359
0.540372
0.955211
0.87426
0.852187
0.843204
0.866136
0.774953
0.794856
0.947233
0.977705
1.06634
0.817772
0.892184
0.915289
1.02451
0.629239
0.752075
0.778216
0.24564
0.559932
0.593688
0.39059
0.931917
1.02067
0.840265
0.849545
1.13301
1.02304
0.932222
0.457393
0.386196
0.514949
0.502435
0.415968
0.420262
0.544748
1.05087
1.09147
0.96973
0.859654
0.994385
0.888134
0.933899
0.158907
0.221166
0.184546
0.218499
0.216217
0.244242
0.192639
0.408095
0.497179
0.445555
0.445571
0.506262
0.459743
0.453101
0.480866
0.443921
0.494849
0.454762
0.396388
0.411139
0.439238
0.632268
0.500094
0.645722
0.540712
0.554012
0.746353
0.737271
0.570673
0.662663
0.666665
0.632096
0.73245
0.631897
0.734428
0.510381
0.665521
0.601913
0.603534
0.561184
0.507358
0.66703
0.99071
0.959037
0.910623
1.09645
1.00509
0.977348
1.06136
1.08626
1.02351
0.954179
0.892692
1.14087
1.0392
0.96289
1.00783
1.0635
0.989257
1.19213
1.04232
1.09924
1.12877
0.329216
0.304593
0.329212
0.270428
0.264883
0.292073
0.244371
0.787932
0.909582
0.782132
1.1094
0.941985
0.916776
1.09056
0.618525
0.708235
0.774826
0.541311
0.677901
0.585675
0.75118
0.864579
0.766328
0.848962
0.948318
0.834358
0.841221
0.933849
0.476361
0.591811
0.527596
0.494689
0.521802
0.450349
0.569972
0.77614
0.810017
0.701841
0.70412
0.898393
0.779168
0.809005
1.07747
1.0027
1.03274
0.969604
0.907336
0.931812
0.993377
0.41226
0.310329
0.261911
0.292524
0.480757
0.32643
0.428443
0.399257
0.490357
0.470008
0.446905
0.366776
0.388548
0.428096
1.14358
1.30562
1.19373
1.05499
1.08859
1.01057
1.14416
1.34663
1.231
1.23211
1.06543
1.03308
1.2304
1.2295
0.555026
0.514944
0.47895
0.471087
0.528565
0.49231
0.541139
0.800105
0.642812
0.607129
0.725511
0.659433
0.792394
0.732
0.599189
0.512972
0.572145
0.662399
0.516204
0.599952
0.660166
1.12172
1.01965
0.916453
1.01836
0.997933
1.01282
0.906795
1.83277
1.14141
1.78714
1.15365
1.15669
1.78939
2.34037
0.422763
0.509759
0.394629
0.341138
0.504217
0.36706
0.465457
1.08188
0.833768
0.929675
0.918301
0.803472
0.913269
1.07324
1.02731
1.13098
1.13953
1.23279
1.25108
1.30741
1.38697
1.47592
1.5998
2.36383
2.16658
2.39444
2.45568
1.66413
1.78338
2.16024
1.36693
1.80111
1.39194
1.91847
2.50229
1.13498
1.07551
1.2378
0.929667
1.0545
1.13912
1.27519
1.06119
1.28656
1.0526
1.3683
1.22873
1.23686
1.4746
1.05241
0.95971
0.936318
1.16187
1.12997
1.05459
1.03099
1.11388
1.07291
1.03299
1.19403
1.30332
1.25024
1.14918
1.44248
1.20813
1.21659
1.04539
1.21006
1.01885
1.2086
0.578785
0.498379
0.611077
0.563894
0.555904
0.516256
0.627408
0.481889
0.540027
0.636696
0.495961
0.551504
0.446472
0.588287
1.31023
1.11016
1.24084
1.28661
1.06242
1.22276
1.51307
1.2312
1.16132
1.38885
1.0267
1.1371
1.2322
1.39426
1.39042
1.15412
1.17576
1.39344
0.922404
0.786435
1.63576
0.696655
0.770368
0.808295
0.885297
0.698668
0.764377
0.806919
0.53725
0.613609
0.597194
0.53546
0.550368
0.501677
0.485301
0.681393
0.731921
0.801762
0.802021
0.615821
0.671638
0.733094
1.10072
1.11143
0.950297
0.85399
0.994812
0.945169
0.86075
1.39219
1.22613
1.35545
1.23269
1.11896
1.09008
1.1891
0.625669
0.6981
0.620711
0.989784
0.868046
0.840938
0.951515
0.278702
0.258593
0.289313
0.330717
0.366225
0.364943
0.331689
2.13624
1.99727
1.75108
2.36823
1.77832
2.80159
2.56612
1.23058
1.0984
1.27885
1.15861
1.3128
1.25104
1.48394
1.21424
1.38215
1.25407
1.3748
1.35121
1.49542
1.59297
0.917522
1.02518
1.03291
1.09811
1.11466
1.26294
1.2391
1.78739
1.54365
1.69514
1.78385
2.0433
2.52117
2.26834
1.3664
1.60061
1.43406
1.36139
1.17667
1.24125
1.29407
1.25074
1.18234
1.15693
1.10795
1.03373
1.12102
1.05217
0.929397
0.665531
0.847652
0.699674
0.63719
0.835912
0.930214
0.364149
0.41875
0.445312
0.298728
0.327168
0.388722
0.358526
1.25189
1.27312
1.20338
1.40811
1.43818
1.24468
1.1216
1.20253
1.11049
1.14502
1.27328
1.39186
1.23538
1.35092
0.648138
0.703062
0.689522
0.624148
0.576984
0.591481
0.610065
1.14564
1.01836
1.04186
0.92018
1.0157
0.92323
1.03125
0.646284
0.677895
0.715776
0.650009
0.583101
0.541863
0.620849
1.27982
1.56991
1.79602
1.4073
1.25829
1.56421
1.73791
0.377659
0.550462
0.380648
0.659743
0.470275
0.463396
0.641899
0.796071
0.68996
0.631993
0.72811
0.698165
0.799017
0.724645
0.939029
0.949919
0.773714
0.871778
0.692652
0.713679
0.862509
1.32925
1.56145
1.37397
1.40705
1.36422
1.44306
1.6105
1.33934
1.32997
1.20811
1.37421
1.2041
1.41769
1.54296
0.44143
0.543842
0.52175
0.612024
0.501151
0.524821
0.59117
1.23909
1.28227
1.10109
1.06954
1.48077
1.22932
1.29632
0.461599
0.664473
0.521266
0.560398
0.408508
0.477386
0.641347
0.146132
0.159179
0.161021
0.140994
0.154493
0.141184
0.163668
0.160013
0.144912
0.136803
0.142892
0.16491
0.14632
0.36617
0.162056
0.190183
0.191638
0.211549
0.220649
0.381129
0.394726
0.222448
0.397456
0.463082
0.466737
0.469668
0.148442
0.172429
0.186755
0.166614
0.168679
0.15223
0.163342
0.173752
0.167965
0.153652
0.225985
0.216868
0.191534
0.266277
0.188207
0.261516
0.230067
0.277678
0.325872
0.388799
0.345858
0.320189
0.282744
0.34039
0.193089
0.268576