/*--------------------------------*- C++ -*----------------------------------*\
  =========                 |
  \\      /  F ield         | OpenFOAM: The Open Source CFD Toolbox
   \\    /   O peration     | Website:  https://openfoam.org
    \\  /    A nd           | Version:  9
     \\/     M anipulation  |
\*---------------------------------------------------------------------------*/
FoamFile
{
    format      ascii;
    class       volVectorField;
    location    "0.0027";
    object      rhoU;
}
// * * * * * * * * * * * * * * * * * * * * * * * * * * * * * * * * * * * * * //

dimensions      [1 -2 -1 0 0 0 0];

internalField   nonuniform List<vector> 
22864
(
(164.988 132.383 637.947)
(0.000282039 0.000590779 0.00055175)
(7.48423e-05 0.000117441 0.000240036)
(7.59524e-06 9.37128e-06 2.14978e-05)
(2.64397e-07 3.2215e-07 7.90806e-07)
(0.000597411 0.000794479 0.00216572)
(1.10431e-05 1.41562e-05 4.04889e-05)
(1.26455e-06 1.33102e-06 3.84275e-06)
(0.00681486 0.0308655 -0.00843746)
(65.6554 103.659 -2.34818)
(8.81328 24.1843 -2.31622)
(279.545 530.622 384.893)
(186.116 464.927 176.384)
(0.0112022 0.0218266 0.028752)
(0.194462 0.245013 -0.532888)
(48.7503 93.1827 -111.142)
(0.99413 2.27498 -2.49523)
(0.0303379 0.05645 -0.0518043)
(0.0420758 0.0990317 -0.0807715)
(29.6733 82.3504 -65.5851)
(0.761282 2.2976 -1.59894)
(1.25365 3.49076 -1.96153)
(102.493 138.649 8.41158)
(166.213 393.153 -26.8043)
(84.4886 207.865 22.5528)
(133.494 276.567 43.6136)
(169.208 401.439 42.6102)
(145.778 265.098 274.805)
(112.625 84.9826 259.796)
(82.8468 119.516 2.46112)
(56.748 48.7644 21.7569)
(70.0383 58.7066 27.9039)
(90.6962 179.853 -6.01804)
(59.9217 109.19 5.81456)
(74.6705 132.051 10.7224)
(71.9558 153.642 -11.1149)
(2.73941 2.35009 -8.27924)
(0.271613 0.130886 -0.783332)
(0.296229 0.38272 -0.895437)
(1.53877 2.10988 -4.06621)
(0.391041 0.203655 -1.23484)
(2.07113 1.6425 -5.73548)
(2.16562 2.96828 -6.33113)
(16.1684 23.996 -46.5592)
(10.8256 16.1135 -26.1943)
(51.5129 106.18 -122.693)
(50.1819 101.537 -131.367)
(13.7274 19.0553 -35.9312)
(13.7554 20.53 -38.1757)
(48.7962 106.028 -129.658)
(124.998 162.618 15.8178)
(84.9154 70.4749 35.0038)
(101.857 85.4957 43.1614)
(113.379 214.105 0.307678)
(115.496 208.473 21.0948)
(92.5413 163.827 16.2084)
(142.307 261.337 7.67569)
(0.196865 0.688438 -0.216409)
(26.3592 86.5166 -14.2659)
(33.7563 97.2059 20.0131)
(11.2069 29.0054 1.45424)
(161.478 414.299 29.9011)
(125.612 348.997 -48.9407)
(157.24 438.087 22.8286)
(119.608 259.444 203.44)
(223.44 439.15 219.304)
(261.708 559.049 247.859)
(301.98 584.082 551.547)
(176.064 376.83 178.844)
(353.672 606.005 506.426)
(166.415 412.004 -42.8775)
(109.876 290.227 -132.105)
(120.786 298.223 -102.087)
(138.627 346.378 -29.58)
(102.156 288.454 -141.264)
(103.602 264.899 -98.5369)
(149.441 402.293 -52.7787)
(160.878 300.387 247.641)
(303.614 451.328 625.49)
(151.691 296.351 253.596)
(441.437 516.913 687.919)
(118.885 247.395 267.677)
(246.352 300.268 552.873)
(272.928 299.307 500.606)
(62.5603 489.469 11.0442)
(514.193 625.176 11.0062)
(0.0053805 -0.000699588 0.00016675)
(4.87912e-05 -6.78967e-06 1.49111e-06)
(-0.000393264 0.000173425 1.17312e-05)
(-0.0689977 0.0751097 0.00088544)
(0.158956 2.77202 0.0215044)
(0.0271419 0.0563845 0.000437987)
(0.00373945 0.000925581 0.000121445)
(2.24582e-05 3.51612e-06 1.57182e-06)
(-1.32783e-05 2.13098e-05 1.31829e-06)
(-7.78675e-05 0.000377 1.47875e-05)
(8.64179e-05 0.000423698 7.38326e-06)
(6.59855e-06 1.47638e-05 7.6654e-07)
(0.000333036 0.000122961 1.38161e-05)
(8.86676e-06 3.44396e-06 5.24949e-07)
(-3.02073e-07 1.17661e-06 6.82641e-08)
(-1.1019e-06 1.61289e-05 6.19495e-07)
(1.39751e-06 5.80351e-06 2.55624e-07)
(2.05518e-07 5.90042e-07 2.28495e-08)
(2.09575e-05 1.28613e-05 1.51891e-06)
(9.88655e-07 5.26162e-07 5.55253e-08)
(2.52089e-08 6.06087e-08 3.78117e-09)
(-1.48393e-08 3.96676e-07 1.2732e-08)
(3.46432e-08 1.91465e-07 6.68709e-09)
(5.54047e-09 2.12747e-08 6.90981e-10)
(1.19965e-06 1.08396e-06 8.26289e-08)
(6.69515e-08 5.13437e-08 3.78066e-09)
(3.07312e-09 3.77886e-09 2.31756e-10)
(1.40365e-11 9.83846e-09 2.90076e-10)
(7.77145e-10 4.92142e-09 1.45509e-10)
(1.19399e-10 6.53156e-10 1.88586e-11)
(5.93809e-08 6.76402e-08 4.05432e-09)
(3.89986e-09 3.72323e-09 2.22048e-10)
(2.11013e-10 2.19293e-10 1.22005e-11)
(1.43242e-11 2.3904e-10 6.59336e-12)
(1.49638e-11 1.11226e-10 2.9605e-12)
(2.26388e-12 1.76768e-11 4.70664e-13)
(2.84193e-09 3.51702e-09 1.94879e-10)
(2.02425e-10 2.08804e-10 1.15981e-11)
(1.19391e-11 1.16688e-11 6.25278e-13)
(7.32542e-13 5.39103e-12 1.52814e-13)
(2.64346e-13 2.22637e-12 5.81698e-14)
(4.05483e-14 4.14957e-13 7.67386e-15)
(75.6988 544.936 94.3158)
(0.279505 0.22055 0.0610523)
(0.00225338 -0.000244115 0.000460543)
(2.08191e-05 -2.55951e-06 4.70744e-06)
(-0.000175465 7.33674e-05 3.55593e-05)
(-0.0336735 0.0370966 0.00479366)
(0.108257 1.19588 0.15849)
(0.00563771 0.0110316 0.00170518)
(0.00108464 0.000311881 0.000231398)
(1.02681e-05 1.36121e-06 2.33497e-06)
(-3.80006e-06 6.4515e-06 1.33972e-06)
(-1.63785e-05 0.000157326 2.58493e-05)
(3.17614e-05 0.000188738 2.70375e-05)
(2.64504e-06 6.26674e-06 1.10723e-06)
(4.88561e-05 2.23395e-05 1.19561e-05)
(2.9653e-06 1.3467e-06 7.67031e-07)
(-6.83862e-08 3.78666e-07 1.05562e-07)
(-3.00999e-07 4.7242e-06 8.35786e-07)
(5.13484e-07 2.62817e-06 4.37947e-07)
(7.72801e-08 2.66882e-07 4.77676e-08)
(6.29132e-06 3.95249e-06 1.81394e-06)
(3.30964e-07 1.94624e-07 9.40731e-08)
(1.11033e-08 2.11497e-08 7.23685e-09)
(-3.83764e-09 1.28308e-07 2.24719e-08)
(1.09731e-08 6.58195e-08 1.12002e-08)
(1.72441e-09 8.94869e-09 1.54767e-09)
(3.79453e-07 3.51685e-07 1.30169e-07)
(2.44283e-08 1.93726e-08 7.48701e-09)
(1.21995e-09 1.33816e-09 4.67833e-10)
(4.01836e-11 3.20447e-09 5.58181e-10)
(2.32808e-10 1.50816e-09 2.58599e-10)
(3.40054e-11 2.53145e-10 4.25378e-11)
(2.14365e-08 2.45261e-08 7.96046e-09)
(1.49371e-09 1.44612e-09 4.8288e-10)
(8.41596e-11 8.37124e-11 2.75399e-11)
(5.98891e-12 7.53955e-11 1.30859e-11)
(4.19465e-12 3.25422e-11 5.39652e-12)
(6.21109e-13 6.36926e-12 1.02366e-12)
(1.08295e-09 1.34251e-09 4.23289e-10)
(7.84648e-11 8.17441e-11 2.64913e-11)
(4.70533e-12 4.55183e-12 1.4587e-12)
(2.75114e-13 1.6549e-12 2.75122e-13)
(6.42626e-14 6.34941e-13 9.04758e-14)
(8.71599e-15 1.37561e-13 1.18424e-14)
(241.925 530.884 178.332)
(0.00338514 0.00253713 0.00109938)
(8.5729e-06 1.05034e-06 -9.7399e-06)
(-2.45322e-05 9.47282e-06 7.07228e-06)
(-0.00513846 0.00702104 0.0019107)
(0.0237386 0.106565 0.0231607)
(0.000175027 0.000267983 7.11875e-05)
(0.000105847 4.33289e-05 9.00008e-07)
(5.04319e-06 2.34872e-06 -1.43623e-06)
(-3.09515e-07 6.66116e-07 1.48228e-07)
(-2.1745e-06 2.45748e-05 5.09489e-06)
(2.3832e-06 1.06567e-05 2.44897e-06)
(6.3405e-07 1.95418e-06 4.50903e-07)
(1.47359e-05 7.88229e-06 1.90837e-06)
(9.33763e-07 4.57076e-07 3.03847e-08)
(2.43274e-08 4.94293e-08 1.00806e-08)
(-2.71804e-08 6.01275e-07 1.26231e-07)
(4.77213e-08 2.70359e-07 6.21034e-08)
(1.06826e-08 5.34207e-08 1.09537e-08)
(1.38447e-06 1.04727e-06 2.67182e-07)
(8.45894e-08 5.75327e-08 1.08497e-08)
(4.33425e-09 4.2067e-09 9.10059e-10)
(-4.48608e-11 1.353e-08 3.00293e-09)
(9.26341e-10 6.21148e-09 1.41715e-09)
(1.74776e-10 1.32961e-09 2.7488e-10)
(8.53723e-08 8.59622e-08 2.14216e-08)
(5.59454e-09 4.87924e-09 1.08235e-09)
(3.09833e-10 2.75478e-10 6.33718e-11)
(1.84354e-11 2.92325e-10 6.89892e-11)
(1.6052e-11 1.33462e-10 3.0643e-11)
(2.89485e-12 3.26394e-11 6.66792e-12)
(4.51907e-09 5.50448e-09 1.36179e-09)
(3.15708e-10 3.29117e-10 7.86468e-11)
(1.87308e-11 1.7945e-11 4.34634e-12)
(1.07639e-12 6.31878e-12 1.55476e-12)
(2.8933e-13 2.70739e-12 6.05477e-13)
(4.7559e-14 7.62393e-13 1.37466e-13)
(2.14333e-10 2.82003e-10 7.31972e-11)
(1.56629e-11 1.74049e-11 4.48059e-12)
(9.32918e-13 9.50232e-13 2.34005e-13)
(4.08629e-14 1.38508e-13 2.84217e-14)
(2.07782e-15 4.62326e-14 7.57912e-15)
(0 1.09897e-14 8.52651e-16)
(5.86971 9.60733 4.35465)
(0.00010978 7.39903e-05 4.88559e-05)
(0.00263845 0.00338096 -0.00423695)
(4.819e-05 3.58657e-05 -5.60006e-05)
(-0.000127748 0.000243733 0.00010069)
(0.000157648 0.000470011 0.000191295)
(1.77052e-06 3.06734e-06 1.72024e-06)
(0.000368803 0.000863877 -0.00044786)
(4.34939e-05 8.19991e-05 -2.56376e-05)
(2.62577e-06 2.22864e-06 -8.46025e-07)
(4.54616e-08 6.61518e-07 3.3965e-07)
(6.36816e-08 3.56723e-07 1.68976e-07)
(3.07274e-08 1.12182e-07 4.88039e-08)
(1.06437e-05 2.40153e-05 -3.93182e-06)
(1.85225e-06 3.45322e-06 -7.83013e-07)
(1.37926e-07 1.30965e-07 -3.30049e-08)
(5.29573e-09 1.9739e-08 8.77578e-09)
(1.35293e-09 9.32765e-09 4.50407e-09)
(4.82851e-10 3.2774e-09 1.21581e-09)
(6.48089e-07 1.52064e-06 -1.01179e-07)
(8.555e-08 1.50511e-07 -2.09919e-08)
(6.27441e-09 6.73832e-09 -9.65464e-10)
(2.96268e-10 6.2559e-10 1.89276e-10)
(3.39939e-11 2.28119e-10 1.03959e-10)
(7.58272e-12 8.55687e-11 2.94195e-11)
(3.28067e-08 7.6949e-08 -1.03562e-09)
(3.70117e-09 6.38611e-09 -4.0561e-10)
(2.62818e-10 3.12908e-10 -2.14061e-11)
(1.34737e-11 2.10149e-11 3.59393e-12)
(9.17282e-13 5.33457e-12 2.17511e-12)
(1.26571e-13 2.07319e-12 6.84016e-13)
(1.47029e-09 3.39655e-09 6.9399e-11)
(1.49819e-10 2.58159e-10 -4.31034e-12)
(1.0343e-11 1.33493e-11 -2.96059e-13)
(5.21527e-13 7.22225e-13 7.01069e-14)
(2.09635e-14 1.12705e-13 3.72324e-14)
(5.68434e-16 4.2201e-14 1.03266e-14)
(5.90524e-11 1.29674e-10 6.41781e-12)
(5.59891e-12 9.4235e-12 1.85878e-13)
(3.5644e-13 4.93969e-13 3.12639e-15)
(1.11448e-14 1.80004e-14 9.4739e-17)
(0 0 0)
(0 0 0)
(342.777 491.757 78.5466)
(136.611 195.239 47.0022)
(0.616832 1.26135 0.53685)
(0.000148867 0.000178805 0.00015152)
(2.4939e-06 2.12873e-06 2.52472e-06)
(103.494 204.779 62.612)
(1.82008 3.69837 -0.67879)
(0.00628695 0.013605 -0.000813822)
(2.00774e-05 2.52714e-05 -6.73285e-07)
(6.17807e-07 3.92103e-06 2.21818e-06)
(4.27713e-08 1.00151e-07 8.8773e-08)
(0.00694514 0.018952 0.00479304)
(0.000254338 0.000569056 -1.95845e-05)
(7.19815e-06 8.30372e-06 4.11291e-07)
(2.62308e-07 1.34e-07 1.36761e-08)
(7.34347e-09 5.8612e-09 4.66111e-09)
(8.79928e-10 3.64795e-09 2.66054e-09)
(1.41532e-05 3.85856e-05 2.72438e-06)
(3.06765e-06 7.26254e-06 3.45803e-07)
(3.17865e-07 3.82323e-07 1.04319e-08)
(1.47739e-08 1.0848e-08 5.51918e-10)
(5.42781e-10 4.15898e-10 1.62336e-10)
(2.67897e-11 1.1779e-10 7.09467e-11)
(6.77227e-07 1.96319e-06 9.58994e-08)
(1.26064e-07 3.18296e-07 9.17646e-09)
(1.22831e-08 1.61211e-08 2.40795e-10)
(6.32457e-10 5.84684e-10 1.33975e-11)
(2.62259e-11 2.28582e-11 4.46069e-12)
(1.01579e-12 3.56769e-12 1.75381e-12)
(2.9829e-08 9.42715e-08 3.60156e-09)
(4.93956e-09 1.19112e-08 2.20059e-10)
(4.48269e-10 6.35357e-10 6.04463e-12)
(2.42899e-11 2.62168e-11 3.63419e-13)
(1.05196e-12 1.02089e-12 1.2155e-13)
(3.4485e-14 9.62257e-14 3.56219e-14)
(1.21501e-09 4.07974e-09 1.37905e-10)
(1.84791e-10 4.27711e-10 7.14484e-12)
(1.57353e-11 2.38792e-11 2.33247e-13)
(8.45952e-13 1.02864e-12 1.36424e-14)
(2.91395e-14 3.20177e-14 6.63173e-16)
(0 0 0)
(4.5524e-11 1.50418e-10 5.18028e-12)
(6.36345e-12 1.41394e-11 2.64132e-13)
(4.91793e-13 8.03766e-13 9.56864e-15)
(2.0212e-14 3.06954e-14 0)
(0 0 0)
(0 0 0)
(305.547 465.462 308.927)
(2.31653 2.36818 3.15105)
(0.00172609 0.0015074 0.00207456)
(2.89375e-05 2.45396e-05 3.1501e-05)
(9.78222e-07 1.02674e-06 1.12905e-06)
(5.41011e-08 4.94478e-08 7.65362e-08)
(0.000974823 0.00281576 0.00158241)
(0.179647 0.325393 0.141749)
(0.000191799 0.000265349 0.00012327)
(2.56827e-06 1.69454e-06 8.77648e-07)
(7.21221e-08 4.60189e-08 1.94426e-08)
(2.67097e-09 3.25577e-09 3.03769e-09)
(0.000175646 0.000473235 0.000196022)
(1.60764e-05 2.87687e-05 1.12929e-05)
(1.88542e-06 3.04862e-06 9.94027e-07)
(1.07137e-07 9.20425e-08 2.92876e-08)
(3.92419e-09 2.68019e-09 7.93085e-10)
(1.40197e-10 1.65219e-10 1.03583e-10)
(3.52168e-06 9.05815e-06 3.03853e-06)
(7.59687e-07 1.54921e-06 5.58655e-07)
(7.91282e-08 1.17359e-07 3.6433e-08)
(4.78362e-09 4.53314e-09 1.35635e-09)
(2.01514e-10 1.54282e-10 4.19961e-11)
(7.3256e-12 7.8515e-12 3.44225e-12)
(1.96562e-07 5.54978e-07 1.8467e-07)
(3.45577e-08 7.43385e-08 2.42063e-08)
(3.36347e-09 4.9378e-09 1.45157e-09)
(2.05754e-10 2.18629e-10 6.20401e-11)
(9.20028e-12 8.03225e-12 1.9845e-12)
(3.38787e-13 3.37128e-13 1.02034e-13)
(8.83862e-09 2.7591e-08 8.53674e-09)
(1.43325e-09 3.18312e-09 9.4005e-10)
(1.33486e-10 2.05005e-10 5.56923e-11)
(8.18328e-12 9.65289e-12 2.50623e-12)
(3.61649e-13 3.47466e-13 6.51805e-14)
(8.14756e-15 7.55062e-15 4.73695e-16)
(3.59365e-10 1.19908e-09 3.44437e-10)
(5.51629e-11 1.25494e-10 3.3799e-11)
(4.91369e-12 7.99966e-12 1.99397e-12)
(2.79176e-13 3.72699e-13 7.24754e-14)
(6.94442e-15 7.92615e-15 9.4739e-17)
(0 0 0)
(1.36017e-11 4.4671e-11 1.2384e-11)
(1.93369e-12 4.3688e-12 1.10248e-12)
(1.52154e-13 2.7228e-13 4.73695e-14)
(3.39817e-15 6.63173e-15 9.4739e-17)
(0 0 0)
(0 0 0)
(0.00070762 0.00111373 0.001408)
(0.000475328 0.000411149 0.000685516)
(1.98703e-05 1.47087e-05 2.49839e-05)
(1.88765e-06 1.02498e-06 1.20488e-06)
(7.23307e-08 4.44648e-08 4.49307e-08)
(3.118e-09 2.25784e-09 2.67632e-09)
(0.000210789 0.000355622 0.000383953)
(4.22559e-05 5.75858e-05 5.78647e-05)
(2.79974e-06 2.93322e-06 2.8605e-06)
(1.44236e-07 9.54724e-08 8.51036e-08)
(6.86202e-09 4.17389e-09 3.82978e-09)
(2.60574e-10 1.88098e-10 1.59792e-10)
(9.09878e-06 1.77147e-05 1.18881e-05)
(1.3854e-06 2.33671e-06 1.48182e-06)
(1.30402e-07 1.61767e-07 1.07293e-07)
(8.40738e-09 7.01477e-09 4.48002e-09)
(4.18951e-10 3.06715e-10 1.78017e-10)
(1.68355e-11 1.3345e-11 7.91545e-12)
(4.38372e-07 1.05474e-06 5.52836e-07)
(6.66945e-08 1.21153e-07 6.66673e-08)
(6.45623e-09 8.46183e-09 4.55024e-09)
(4.24119e-10 4.16239e-10 2.12307e-10)
(2.17059e-11 1.85511e-11 8.51297e-12)
(8.968e-13 7.78131e-13 3.42861e-13)
(2.01823e-08 5.54822e-08 2.59115e-08)
(3.09816e-09 6.10501e-09 2.92048e-09)
(2.95012e-10 4.17753e-10 1.91725e-10)
(1.93615e-11 2.15952e-11 9.35321e-12)
(9.81744e-13 9.48241e-13 3.62187e-13)
(3.56219e-14 3.10757e-14 7.86334e-15)
(8.89463e-10 2.62504e-09 1.11844e-09)
(1.32718e-10 2.77134e-10 1.17146e-10)
(1.23288e-11 1.88073e-11 7.585e-12)
(7.81571e-13 9.69604e-13 3.61145e-13)
(3.30489e-14 3.36994e-14 8.52651e-15)
(0 0 0)
(3.6971e-11 1.13685e-10 4.43796e-11)
(5.26406e-12 1.14903e-11 4.34454e-12)
(4.47261e-13 7.4938e-13 2.60153e-13)
(2.07451e-14 3.20122e-14 7.10543e-15)
(0 0 0)
(0 0 0)
(1.39967e-12 4.31335e-12 1.58682e-12)
(1.69313e-13 4.10409e-13 1.30266e-13)
(6.97453e-15 1.98952e-14 3.69482e-15)
(0 0 0)
(0 0 0)
(0 0 0)
(9.5796e-06 1.50661e-05 2.75306e-05)
(8.68988e-06 7.02991e-06 1.40983e-05)
(1.06066e-06 7.5246e-07 1.64853e-06)
(7.3531e-08 4.15702e-08 6.61847e-08)
(3.93471e-09 2.33208e-09 2.89622e-09)
(1.90843e-10 1.24096e-10 1.46509e-10)
(6.38215e-06 8.87992e-06 1.16474e-05)
(1.02556e-06 1.15808e-06 1.71123e-06)
(1.00086e-07 9.04667e-08 1.22647e-07)
(6.71993e-09 4.57036e-09 5.40746e-09)
(3.64008e-10 2.3294e-10 2.48871e-10)
(1.66364e-11 1.15565e-11 1.10427e-11)
(4.72328e-07 8.59569e-07 8.57007e-07)
(6.80849e-08 9.81404e-08 9.68334e-08)
(6.64802e-09 7.2251e-09 6.87262e-09)
(4.56657e-10 3.86764e-10 3.45613e-10)
(2.52038e-11 1.92595e-11 1.5913e-11)
(1.13611e-12 8.71976e-13 6.70184e-13)
(2.59711e-08 5.90216e-08 4.63788e-08)
(3.83466e-09 6.41555e-09 5.05101e-09)
(3.70749e-10 4.59706e-10 3.49808e-10)
(2.54758e-11 2.55048e-11 1.84037e-11)
(1.39136e-12 1.23105e-12 8.27261e-13)
(5.60855e-14 4.53511e-14 2.63375e-14)
(1.30156e-09 3.31434e-09 2.22069e-09)
(1.90326e-10 3.51762e-10 2.34195e-10)
(1.80939e-11 2.49708e-11 1.60451e-11)
(1.20932e-12 1.38422e-12 8.39956e-13)
(5.64404e-14 5.51173e-14 3.0127e-14)
(0 0 0)
(6.04848e-11 1.6468e-10 9.73482e-11)
(8.56624e-12 1.69733e-11 9.87152e-12)
(7.72844e-13 1.1717e-12 6.51141e-13)
(4.32598e-14 5.62437e-14 2.76638e-14)
(0 0 0)
(0 0 0)
(2.57974e-12 7.42335e-12 3.93861e-12)
(3.2626e-13 7.11941e-13 3.60103e-13)
(2.05525e-14 4.12129e-14 1.7432e-14)
(0 0 0)
(0 0 0)
(0 0 0)
(8.09071e-14 2.84788e-13 1.27192e-13)
(4.89775e-15 1.91373e-14 5.96856e-15)
(0 0 0)
(0 0 0)
(0 0 0)
(0 0 0)
(1.54092e-06 1.54107e-06 3.65339e-06)
(2.99855e-07 2.43828e-07 5.80102e-07)
(3.62789e-08 2.50333e-08 5.70286e-08)
(2.96674e-09 1.81505e-09 3.2111e-09)
(1.9051e-10 1.14658e-10 1.70537e-10)
(1.00711e-11 6.38882e-12 8.74448e-12)
(2.45212e-07 3.19507e-07 5.71963e-07)
(3.79458e-08 3.96305e-08 6.90946e-08)
(3.95732e-09 3.33884e-09 5.29907e-09)
(2.93302e-10 2.1035e-10 2.91707e-10)
(1.77074e-11 1.20288e-11 1.48659e-11)
(8.7861e-13 6.02056e-13 6.83542e-13)
(1.97692e-08 3.51186e-08 4.47227e-08)
(2.94682e-09 3.98646e-09 4.91522e-09)
(2.94417e-10 3.0644e-10 3.57692e-10)
(2.12966e-11 1.85659e-11 2.01442e-11)
(1.2308e-12 9.77717e-13 9.86233e-13)
(5.32433e-14 3.70786e-14 3.61903e-14)
(1.23002e-09 2.62593e-09 2.62552e-09)
(1.80195e-10 2.8547e-10 2.79791e-10)
(1.76115e-11 2.1336e-11 2.00578e-11)
(1.23358e-12 1.25123e-12 1.12095e-12)
(6.12455e-14 5.30353e-14 4.60432e-14)
(0 0 0)
(6.67796e-11 1.58546e-10 1.3345e-10)
(9.489e-12 1.6704e-11 1.37907e-11)
(8.77537e-13 1.20513e-12 9.55254e-13)
(5.10361e-14 6.16836e-14 4.538e-14)
(0 0 0)
(0 0 0)
(3.22605e-12 8.31025e-12 6.10823e-12)
(4.20551e-13 8.17453e-13 5.88329e-13)
(3.00344e-14 4.96624e-14 3.41061e-14)
(0 0 0)
(0 0 0)
(0 0 0)
(1.15961e-13 3.67556e-13 2.36906e-13)
(7.65769e-15 2.7118e-14 1.56319e-14)
(0 0 0)
(0 0 0)
(0 0 0)
(0 0 0)
(9.4739e-16 6.25278e-15 3.89826e-15)
(0 0 0)
(0 0 0)
(0 0 0)
(0 0 0)
(0 0 0)
(6.17289e-08 6.19813e-08 1.64133e-07)
(1.11274e-08 9.11979e-09 2.26624e-08)
(1.33529e-09 9.47798e-10 2.07613e-09)
(1.1641e-10 7.54081e-11 1.37173e-10)
(8.17674e-12 5.02875e-12 8.03112e-12)
(4.5001e-13 2.58259e-13 4.22157e-13)
(8.77057e-09 1.14157e-08 2.25686e-08)
(1.39241e-09 1.43235e-09 2.64652e-09)
(1.49122e-10 1.26147e-10 2.08141e-10)
(1.17331e-11 8.84503e-12 1.27919e-11)
(7.33402e-13 5.0818e-13 6.99742e-13)
(3.16428e-14 1.62951e-14 2.81375e-14)
(7.62828e-10 1.30115e-09 1.82919e-09)
(1.14766e-10 1.49596e-10 2.00821e-10)
(1.17052e-11 1.2087e-11 1.51082e-11)
(8.5651e-13 7.63028e-13 9.08926e-13)
(4.22328e-14 3.10744e-14 4.17799e-14)
(0 0 0)
(5.15359e-11 1.03639e-10 1.14135e-10)
(7.45047e-12 1.13315e-11 1.20881e-11)
(7.0811e-13 8.5663e-13 8.95379e-13)
(4.12976e-14 4.2822e-14 4.73695e-14)
(0 0 0)
(0 0 0)
(2.93596e-12 6.6152e-12 6.09911e-12)
(3.81341e-13 6.69426e-13 6.18551e-13)
(2.70499e-14 4.03588e-14 3.85588e-14)
(0 0 0)
(0 0 0)
(0 0 0)
(1.2335e-13 3.35861e-13 2.85354e-13)
(8.64341e-15 2.48216e-14 2.1411e-14)
(0 0 0)
(0 0 0)
(0 0 0)
(0 0 0)
(1.7053e-15 8.10405e-15 5.59382e-15)
(0 0 0)
(0 0 0)
(0 0 0)
(0 0 0)
(0 0 0)
(0 0 0)
(0 0 0)
(0 0 0)
(0 0 0)
(0 0 0)
(0 0 0)
(0.00429913 -0.00116398 7.08034e-05)
(8.64071e-05 -6.66386e-05 1.87111e-06)
(0.00276723 -0.000914857 0.000477464)
(8.68142e-05 -7.88402e-05 1.46252e-05)
(2.09235e-05 -1.35574e-05 3.96089e-07)
(-1.40843e-05 -1.47484e-06 1.92922e-07)
(2.00829e-05 -1.32053e-05 3.11852e-06)
(-9.1196e-06 -1.5495e-06 1.33059e-06)
(-0.000139212 2.48233e-07 2.0894e-06)
(-0.0639446 0.0367391 0.000593891)
(-9.17057e-05 -5.23856e-06 1.11461e-05)
(-0.042452 0.0243208 0.00562485)
(36.9801 248.221 7.07348)
(-0.429332 0.363305 0.00418136)
(-2.28505 20.7504 0.194169)
(37.6449 253.405 29.6493)
(-0.295431 0.251572 0.0354984)
(-1.10683 13.904 1.44285)
(399.036 763.35 15.1765)
(1.28176 26.1578 0.248309)
(2.04165 4.15613 0.0352662)
(67.2976 505.16 51.4872)
(409.473 772.123 85.1216)
(1.08174 16.8413 1.85077)
(0.941592 1.93961 0.258091)
(0.000518044 -6.99841e-05 2.0457e-05)
(0.00608396 0.000431737 0.00018447)
(0.000507089 4.30902e-05 1.39272e-05)
(0.00401972 -0.000505685 0.000531714)
(0.000392446 -4.64321e-05 4.30009e-05)
(0.00434169 0.000354861 0.000562702)
(0.000380733 3.09628e-05 5.32988e-05)
(-2.01425e-05 3.646e-06 5.14086e-07)
(4.70553e-05 1.4247e-06 1.20991e-06)
(1.43321e-06 -5.03532e-07 2.61764e-07)
(3.69248e-05 -4.62467e-06 4.77665e-06)
(-1.59861e-05 2.72965e-06 1.68943e-06)
(3.56274e-05 5.16037e-07 5.5277e-06)
(1.52233e-06 -9.11776e-07 9.40522e-07)
(-0.00592147 0.00456777 0.000160995)
(-4.45659e-05 3.06335e-05 1.01961e-06)
(-0.000440538 0.000512578 1.18335e-05)
(-0.000317652 0.000136349 2.06141e-05)
(-0.00474195 0.00363199 0.000501902)
(-3.50975e-05 2.37608e-05 4.73863e-06)
(-0.000361562 0.000418419 5.77658e-05)
(-0.149984 2.43135 0.018962)
(-0.00234584 0.00464412 9.30061e-05)
(0.000206691 0.00986423 0.000190387)
(-0.0460729 0.0501594 0.00802869)
(-0.0579728 1.56797 0.159302)
(-0.00185662 0.00381435 0.000400938)
(-0.000125587 0.0087978 0.000910089)
(0.00193509 -0.000596523 0.000346036)
(4.83853e-05 -3.94132e-05 1.22017e-05)
(2.05429e-05 -1.96593e-05 4.40526e-06)
(1.10936e-05 -6.78182e-06 2.99697e-06)
(-5.52177e-06 -6.03826e-07 7.7791e-07)
(4.43249e-06 -3.12174e-06 6.79505e-07)
(-1.15711e-06 -4.24465e-07 2.99052e-07)
(-5.86843e-05 -5.3153e-07 8.08607e-06)
(-0.0317805 0.0183997 0.00333659)
(-1.40809e-05 -2.61301e-06 3.28169e-06)
(-0.00824135 0.00468561 0.00218826)
(34.8129 271.43 51.932)
(-0.226165 0.194527 0.0338215)
(-0.612225 10.5564 1.37503)
(31.9411 281.056 70.4131)
(-0.0658853 0.0565503 0.0166506)
(0.0433513 2.91775 0.580079)
(467.497 676.066 144.669)
(0.939328 12.3791 1.71143)
(0.536122 1.11904 0.183733)
(273.398 697.662 177.239)
(174.66 207.554 79.7102)
(0.430342 2.74565 0.577359)
(0.0424859 0.0858261 0.0218568)
(0.00023277 -2.84426e-05 5.38294e-05)
(0.00209771 0.000283223 0.000429741)
(0.000202555 2.22709e-05 4.38338e-05)
(0.000110107 -1.07843e-05 1.59932e-05)
(0.000969896 0.000150928 0.000253723)
(9.79745e-05 4.1582e-06 2.35595e-05)
(-8.33239e-06 1.41417e-06 1.92957e-06)
(1.90967e-05 7.31181e-07 3.45097e-06)
(8.64083e-07 -4.26365e-07 5.89568e-07)
(9.38222e-06 -1.1717e-06 1.10055e-06)
(-3.1953e-06 4.68953e-07 6.09727e-07)
(8.9044e-06 -5.86022e-07 2.05579e-06)
(6.70828e-07 -6.95639e-07 4.0776e-07)
(-0.00269635 0.00205468 0.000487795)
(-1.87026e-05 1.28441e-05 2.63897e-06)
(-0.000208124 0.000237566 3.32658e-05)
(-8.40541e-05 3.30375e-05 1.36208e-05)
(-0.00158659 0.00116354 0.000359297)
(-7.78409e-06 4.97542e-06 2.41943e-06)
(-0.000112337 0.000123851 3.90041e-05)
(-0.0256943 1.15213 0.1455)
(-0.00113213 0.00235868 0.000246752)
(-9.3096e-05 0.00661004 0.000704361)
(-0.0112774 0.0128365 0.00379291)
(0.00569887 0.283196 0.0560319)
(-0.000683352 0.00171454 0.000364685)
(8.31826e-06 0.00283676 0.000668239)
(9.45499e-06 -8.00089e-06 -2.0293e-06)
(0.00102387 0.000529002 -0.00201264)
(2.52807e-06 -2.03217e-06 -1.06877e-06)
(-3.56632e-07 -2.19799e-07 6.25733e-08)
(0.000311334 0.000186925 -0.000633234)
(8.51093e-06 -4.30946e-07 -1.3621e-05)
(-5.24468e-06 -3.54367e-07 1.22226e-06)
(-0.0044127 0.00261048 0.000923483)
(1.40358e-06 -9.01291e-08 -2.444e-06)
(-0.00026185 0.000143207 0.00010123)
(11.6975 404.631 111.42)
(-0.0365442 0.0324345 0.00968209)
(0.0550132 1.61444 0.355202)
(32.8771 255.914 88.877)
(-0.0027474 0.00226192 0.00113356)
(0.0142346 0.117054 0.0381659)
(63.7473 75.7101 32.1929)
(0.274866 1.34291 0.309759)
(0.0143437 0.027073 0.00678661)
(94.3363 151.839 69.9572)
(0.640369 0.741066 0.340666)
(0.0196324 0.0622848 0.0223027)
(0.000881549 0.00125956 0.000497179)
(6.89017e-05 3.57339e-06 -4.60323e-05)
(0.000426441 0.000108264 3.0928e-05)
(4.50758e-05 9.69653e-06 -6.03486e-06)
(0.000485792 0.00039861 -0.000909543)
(0.000445889 0.000552096 -0.000624884)
(0.000102113 0.000115751 -0.000153709)
(5.2923e-08 1.25666e-07 -9.08475e-07)
(4.60378e-06 1.23765e-06 -1.76264e-06)
(6.59911e-07 -1.53696e-07 -2.60554e-07)
(0.000111237 7.75797e-05 -0.000215119)
(1.77625e-05 9.38419e-06 -3.07439e-05)
(2.29955e-05 2.82627e-05 -3.39157e-05)
(4.12803e-06 3.5323e-06 -5.54243e-06)
(-0.000548994 0.000397632 0.000161801)
(-1.85995e-06 1.26312e-06 4.96324e-07)
(-3.13139e-05 3.39625e-05 9.154e-06)
(-1.43214e-06 1.41105e-06 -8.6389e-07)
(-8.4596e-05 6.28067e-05 2.94226e-05)
(1.67406e-07 4.30084e-07 -2.90833e-07)
(-5.78462e-06 5.87449e-06 3.02661e-06)
(0.00490126 0.145383 0.0303233)
(-0.000263128 0.000671166 0.00013913)
(2.06462e-05 0.00106946 0.000197174)
(-0.00130798 0.00245677 0.000792087)
(0.000935922 0.00968669 0.00282705)
(-5.94127e-05 0.000132838 5.16676e-05)
(1.29424e-06 0.000452092 0.000125246)
(0.0109379 0.0108195 -0.0219868)
(10.9911 19.0381 -13.8875)
(0.00369962 0.00310706 -0.00725158)
(0.00011522 1.58896e-05 -0.000174795)
(4.55596 7.67944 -5.51703)
(0.128729 0.204162 -0.146624)
(2.06678e-05 7.02308e-06 -3.10648e-05)
(-7.54713e-05 4.40986e-05 2.66785e-05)
(0.0296196 0.048313 -0.0331856)
(0.00030718 0.000573599 -0.000372049)
(15.1545 62.6773 29.644)
(-0.000786171 0.000688657 0.000330237)
(0.00641786 0.0337085 0.00944798)
(0.335163 0.806481 0.385055)
(5.6432e-05 0.000133261 -7.78399e-05)
(-3.19055e-05 0.000323215 0.000151184)
(0.100049 0.107611 0.0556594)
(0.00395395 0.0148674 0.00464173)
(0.000926766 0.00147383 0.000630142)
(0.126681 0.188028 0.105069)
(0.000830916 0.000740223 0.000629775)
(0.000489136 0.00139508 0.000644984)
(0.00010482 0.000168319 9.44936e-05)
(0.0115243 0.0212272 -0.0199195)
(0.00381774 0.00765362 -0.00612975)
(0.00107941 0.00175005 -0.00138583)
(3.8174 7.63561 -4.78062)
(0.0330324 0.100624 -0.0354772)
(0.0545543 0.120522 -0.0563221)
(0.000404294 0.000414244 -0.000567448)
(0.000241005 0.000370017 -0.000303761)
(5.04432e-05 6.22792e-05 -6.29588e-05)
(0.557422 1.01623 -0.62556)
(0.0126289 0.0221022 -0.0113356)
(0.00215126 0.00435096 -0.00169089)
(0.000423514 0.000762344 -0.000284987)
(-4.79134e-06 5.80511e-06 1.47914e-06)
(7.61718e-06 7.03179e-06 -7.78953e-06)
(1.91547e-07 6.29324e-07 -1.06456e-07)
(0.00102052 0.00144898 -0.000737037)
(7.85827e-05 8.34853e-05 -4.49732e-05)
(6.07594e-05 8.56842e-05 -2.78071e-05)
(5.08965e-06 4.92472e-06 -1.78477e-06)
(-1.12092e-05 0.00139765 0.000481431)
(-4.79197e-06 1.12377e-05 5.11008e-06)
(-5.19954e-07 5.30244e-05 1.96937e-05)
(-1.55805e-06 1.41553e-05 4.76548e-06)
(-2.08167e-06 6.94039e-05 3.6201e-05)
(5.06716e-08 6.89308e-07 2.74535e-07)
(-1.1086e-07 2.63381e-06 1.52829e-06)
(348.412 516.157 95.1327)
(17.979 33.7768 -7.32532)
(0.426995 0.823956 -0.0635322)
(459.186 624.833 338.943)
(276.484 342.643 210.839)
(8.8629 14.7427 6.36092)
(0.0618887 0.0991382 0.0435982)
(8.88076 15.6836 5.55337)
(0.105344 0.212889 -0.0173349)
(0.00144818 0.00358368 -0.000251394)
(14.4121 18.4613 11.7696)
(0.337688 0.505613 0.348747)
(0.0110961 0.0176347 0.0096622)
(0.00123523 0.00189112 0.000779631)
(0.0043204 0.00840281 0.00529408)
(0.000333377 0.000876879 -5.05321e-05)
(9.48906e-09 3.11754e-05 1.85725e-05)
(0.00984956 0.0165792 0.0124907)
(0.000426122 0.000595797 0.000392336)
(0.000329837 0.00045623 0.000169357)
(3.33044e-05 5.83079e-05 1.64873e-05)
(1328.34 437.922 37.4551)
(298.467 103.341 75.7125)
(4.79397 1.38277 1.48898)
(1449.77 439.784 917.769)
(0.00479608 0.000972895 0.00186364)
(819.745 338.129 898.459)
(1346.48 258.01 1417.39)
(0.00173225 0.00117358 0.00137382)
(2.41253e-05 4.00635e-06 1.56399e-05)
(236.997 273.883 388.895)
(13.3009 12.317 17.7611)
(0.00725324 0.0055038 0.00969424)
(0.000211767 0.000143701 0.000271001)
(1.7715e-05 3.95876e-06 1.98243e-05)
(6.76727e-07 2.62022e-07 6.32362e-07)
(502.775 306.101 816.287)
(33.0882 15.0937 45.5379)
(0.000155515 7.15957e-05 0.000222631)
(9.7712e-06 5.46348e-06 1.12579e-05)
(7.74179e-07 3.31643e-07 6.35897e-07)
(3.79125e-08 1.61821e-08 3.24365e-08)
(0.141275 0.0769191 0.321879)
(0.000299577 0.000164301 0.000458802)
(4.38447e-06 2.60236e-06 6.02004e-06)
(4.86214e-07 2.66945e-07 6.30122e-07)
(3.46477e-08 1.64851e-08 3.30917e-08)
(1.91308e-09 9.0378e-10 1.68769e-09)
(8.67603e-06 7.06221e-06 1.95182e-05)
(1.25894e-06 1.012e-06 2.41532e-06)
(1.94801e-07 1.26805e-07 3.11903e-07)
(2.03007e-08 1.13481e-08 2.63275e-08)
(1.57122e-09 7.82638e-10 1.64884e-09)
(9.18849e-11 4.56301e-11 8.95217e-11)
(3.14752e-07 2.70751e-07 7.42066e-07)
(5.36561e-08 4.40773e-08 1.16256e-07)
(7.86488e-09 5.26652e-09 1.3417e-08)
(8.22093e-10 4.71575e-10 1.09838e-09)
(6.62633e-11 3.38342e-11 7.25319e-11)
(4.02527e-12 2.00752e-12 4.11963e-12)
(108.972 119.86 8.27662)
(113.321 130.496 30.822)
(716.333 418.797 25.5606)
(289.364 266.216 15.4741)
(593.322 436.759 24.6275)
(755.217 424.813 108.594)
(449.2 362.984 80.2657)
(627.345 452.561 102.66)
(118.749 167.292 58.3234)
(128.671 226.806 96.1191)
(1160.94 422.988 276.101)
(347.929 308.378 146.019)
(679.805 505.118 193.417)
(1412.56 405.646 525.395)
(401.004 384.26 239.749)
(879.667 717.39 395.072)
(124.577 460.578 201.007)
(1169.61 374.721 651.12)
(139.405 516.969 240.743)
(1503.35 431.003 629.383)
(484.385 536.725 366.066)
(922.988 846.402 515.523)
(1115.45 398.883 578.323)
(994.762 336.487 546.388)
(545.846 639.131 446.046)
(817.162 770.495 491.923)
(1281.46 373.655 787.136)
(123.685 371.991 195.7)
(1309.13 278.65 1088.11)
(5.55074 10.6688 6.18227)
(404.049 147.186 240.576)
(97.4551 113.973 72.2173)
(1.32662 1.17311 0.726834)
(683.787 217.15 502.91)
(0.457219 0.0923048 0.294288)
(1.86569 2.2988 1.49882)
(0.00199868 0.00147495 0.00137759)
(198.806 215.615 92.0174)
(240.315 335.21 229.903)
(311.241 338.912 136.831)
(470.405 546.705 202.541)
(374.419 375.107 562.352)
(849.785 494.283 955.963)
(385.993 419.988 325.897)
(536.863 610.352 435.237)
(1300.21 294.586 1344.27)
(420.143 542.227 194.554)
(109.962 153.651 70.0174)
(990.439 489.306 1103.94)
(967.923 397.406 1163.37)
(138.556 152.088 125.01)
(3.72301 4.944 4.18971)
(632.302 134.894 578.748)
(9.17374 15.4799 8.35504)
(0.068966 0.109505 0.0818825)
(474.759 163.997 583.883)
(0.113622 0.0145363 0.174482)
(0.114373 0.174971 0.163453)
(0.000609648 0.000680083 0.000782941)
(361.487 536.052 262.283)
(232.034 312.391 55.157)
(134.874 268.16 -3.21021)
(288.64 496.017 181.595)
(366.183 530.325 89.4976)
(279.402 377.296 81.11)
(302.396 418.908 67.3546)
(246.92 408.388 39.3008)
(229.79 391.624 17.0705)
(194.404 331.61 11.7977)
(282.811 478.812 37.5783)
(37.7133 57.7423 17.7246)
(116.265 184.052 23.7697)
(43.6271 69.4113 11.2413)
(2.95069 5.46275 1.385)
(14.4745 24.515 1.83412)
(3.90516 7.29076 0.624264)
(13.2809 22.0414 4.37164)
(0.143825 0.304415 0.133855)
(1.304 2.7388 0.438211)
(0.340997 0.822786 0.123026)
(0.00907347 0.0209055 0.00773648)
(0.0886885 0.208589 0.0199425)
(0.020422 0.0548982 0.00523977)
(0.0421014 0.0939788 0.0346007)
(0.00050104 -0.000126224 3.06267e-05)
(0.00306791 -0.000328266 3.36637e-05)
(0.00107051 -0.000661641 2.10355e-05)
(0.00406831 -0.00116958 0.000272879)