/*--------------------------------*- C++ -*----------------------------------*\
  =========                 |
  \\      /  F ield         | OpenFOAM: The Open Source CFD Toolbox
   \\    /   O peration     | Website:  https://openfoam.org
    \\  /    A nd           | Version:  9
     \\/     M anipulation  |
\*---------------------------------------------------------------------------*/
FoamFile
{
    format      ascii;
    class       volScalarField;
    location    "5e-05";
    object      alpha.c4;
}
// * * * * * * * * * * * * * * * * * * * * * * * * * * * * * * * * * * * * * //

dimensions      [0 0 0 0 0 0 0];

internalField   nonuniform List<scalar> 
3360
(
6.34844e-56
1.68874e-52
4.31061e-49
1.05618e-45
2.43499e-42
1.2909e-58
1.21707e-55
7.58952e-56
1.99115e-52
4.97871e-49
1.19148e-45
2.68957e-42
9.41251e-59
1.52341e-55
8.63217e-58
2.25073e-54
5.43961e-51
1.25386e-47
2.75444e-44
1.24497e-60
2.21156e-57
1.2968e-59
3.8033e-56
4.17779e-53
4.19799e-50
7.70519e-47
3.04876e-62
5.19283e-59
2.54479e-57
2.91527e-54
1.68575e-67
4.22567e-68
5.84291e-70
7.70147e-68
1.30189e-65
4.71108e-65
2.62915e-53
1.27333e-63
3.6967e-60
3.75867e-62
5.34083e-59
6.08746e-56
2.72489e-65
8.0768e-62
3.40616e-62
4.39481e-59
1.44838e-61
2.04964e-65
5.43246e-67
3.56425e-62
1.53608e-61
2.02361e-65
1.0273e-65
1.57836e-64
4.34457e-59
9.51768e-59
2.90756e-63
9.44069e-63
5.21621e-68
1.79983e-67
6.48441e-68
1.86717e-68
1.43896e-67
4.96337e-68
5.36395e-70
3.86666e-70
2.8382e-70
3.02224e-68
1.49152e-69
5.59376e-70
1.2899e-65
1.80281e-67
1.78214e-67
1.11671e-64
1.40919e-66
4.28151e-67
7.60454e-64
1.23349e-60
1.2175e-59
4.2643e-60
7.62504e-60
7.61834e-60
5.00157e-57
8.95523e-57
5.00011e-57
8.94693e-57
4.93792e-67
2.93916e-67
2.15803e-67
4.15196e-64
1.97101e-64
1.19253e-64
4.63201e-64
6.25123e-66
1.03678e-66
5.04896e-67
4.32116e-64
3.04819e-64
5.87191e-64
1.22362e-64
4.84507e-65
1.64854e-64
5.66372e-65
1.36693e-61
4.53934e-62
1.39702e-61
4.16012e-62
2.89431e-63
1.59163e-64
1.57933e-64
1.35508e-61
1.37811e-61
1.35051e-61
1.37919e-61
1.29082e-62
8.46876e-64
3.60584e-64
3.00552e-61
1.41126e-61
4.18646e-61
9.69736e-62
9.58767e-66
4.21654e-67
9.50666e-62
1.44034e-51
7.58834e-62
2.69953e-58
8.02787e-62
2.27733e-66
2.13785e-66
1.82188e-65
1.26908e-67
1.70934e-67
6.20806e-68
1.08217e-61
7.07429e-63
1.64022e-58
1.29732e-57
1.22972e-58
1.23713e-57
2.51502e-63
9.43005e-62
3.95399e-60
3.08094e-59
2.34682e-63
3.79536e-60
2.54761e-63
3.65061e-60
3.65254e-60
2.24899e-63
2.24859e-63
5.13673e-62
4.49182e-65
9.78222e-65
2.70813e-65
1.55542e-65
1.22371e-62
1.17263e-62
1.90682e-58
5.33965e-59
7.46566e-56
7.61335e-56
1.30818e-55
1.42925e-55
1.67398e-58
9.87904e-56
7.96205e-53
4.63807e-53
8.3459e-53
7.28556e-53
6.23045e-56
1.04468e-55
8.08128e-62
8.25672e-62
8.26111e-62
4.6624e-65
4.66248e-65
5.02198e-65
5.00163e-65
8.77077e-59
5.76448e-62
2.70269e-58
2.69986e-58
1.76407e-61
1.76691e-61
1.76845e-61
1.81592e-63
1.67835e-63
1.16773e-62
4.55921e-60
5.67544e-60
1.32154e-60
1.31352e-60
1.38192e-61
1.13859e-64
2.79955e-64
1.08252e-64
4.74451e-65
4.81964e-62
3.20639e-62
5.45955e-64
1.83025e-60
6.07382e-64
2.05766e-60
5.11983e-65
1.66551e-61
5.23223e-66
4.56537e-66
1.78053e-62
1.48563e-63
1.52863e-62
4.91955e-60
6.27906e-66
5.36332e-63
5.72217e-64
2.2268e-62
2.18483e-60
1.49819e-63
5.55892e-62
2.14614e-52
5.34058e-49
1.27273e-45
1.38358e-61
1.17482e-58
3.28016e-55
8.88441e-52
3.65332e-48
1.38627e-45
3.40113e-55
9.39985e-52
5.56582e-47
1.10564e-56
3.0206e-53
1.17734e-57
7.78548e-62
4.57281e-63
1.01053e-58
1.03561e-57
6.61289e-62
3.96998e-63
3.36402e-54
4.56083e-61
1.50163e-59
2.85019e-55
2.97797e-54
1.25559e-60
1.28932e-59
1.40565e-57
7.7271e-52
3.84983e-57
3.64756e-54
5.02779e-61
4.34421e-60
3.59411e-55
3.8042e-54
4.59316e-61
1.31302e-59
1.57431e-57
9.47044e-52
1.55055e-57
8.57342e-56
4.47521e-62
9.13231e-61
1.34987e-58
9.06796e-54
4.41643e-59
5.47038e-64
1.87132e-63
1.87049e-63
1.83183e-60
6.54203e-60
6.53729e-60
5.35665e-64
1.85324e-63
1.92505e-63
2.58929e-60
6.28373e-60
7.0031e-60
4.98592e-65
1.43432e-65
1.80586e-65
1.63614e-61
5.52477e-62
5.98699e-62
5.23097e-66
3.27139e-66
3.28999e-66
1.38151e-65
1.49253e-66
4.63237e-66
1.77982e-62
1.18949e-62
1.19468e-62
1.54725e-63
4.89972e-64
4.31332e-64
4.94202e-62
4.1753e-63
1.65035e-62
5.18206e-60
1.62204e-60
1.6489e-60
9.60495e-66
2.35021e-66
1.35742e-65
2.00074e-62
1.97039e-62
6.30321e-62
6.4789e-64
1.98429e-63
2.0604e-63
5.72281e-63
2.10149e-62
6.76592e-62
2.15179e-60
6.60033e-60
6.91546e-60
3.93422e-64
5.67679e-64
3.99487e-64
5.06917e-62
5.65003e-62
5.15855e-62
5.3639e-63
4.57199e-63
2.43766e-63
2.43075e-63
3.78942e-60
1.57789e-60
1.55694e-60
3.79004e-60
9.03963e-63
1.13309e-63
2.98895e-63
3.29886e-60
1.47342e-60
4.55792e-60
8.75469e-61
4.54892e-61
1.54216e-60
1.54163e-60
1.16133e-57
3.49767e-58
3.4692e-58
1.16157e-57
1.50115e-59
8.10442e-60
8.06411e-60
1.16728e-56
4.81704e-57
4.73738e-57
1.1675e-56
1.29218e-60
4.10522e-61
3.50424e-61
9.94933e-58
3.17773e-58
9.81495e-58
2.62051e-58
2.98185e-59
3.43363e-60
9.82507e-60
1.0122e-56
4.49908e-57
1.39759e-56
2.62662e-57
1.39991e-57
4.94901e-57
4.94647e-57
3.44227e-54
9.98638e-55
9.88663e-55
3.44324e-54
3.99316e-57
1.25743e-57
1.19402e-57
2.86327e-54
9.09142e-55
2.81279e-54
7.73806e-55
4.29052e-61
1.54427e-60
1.58689e-60
1.2057e-57
3.84515e-58
3.1613e-58
1.18976e-57
1.21205e-59
1.63777e-59
3.76863e-59
1.26459e-56
5.61851e-57
3.26303e-57
1.75008e-56
5.37619e-61
1.65532e-60
1.70068e-60
1.28716e-57
4.1009e-58
1.27016e-57
3.37095e-58
4.63392e-60
1.74687e-59
4.0254e-59
1.339e-56
5.91869e-57
1.84588e-56
3.45342e-57
1.77492e-57
4.84341e-57
5.23949e-57
3.62559e-54
1.12109e-54
1.03517e-54
3.47698e-54
1.63934e-57
5.05804e-57
5.2292e-57
3.64486e-54
1.15445e-54
3.5843e-54
9.74571e-55
4.39356e-62
1.13933e-62
1.53426e-62
3.62701e-59
1.20587e-59
8.0336e-60
3.59562e-59
3.45015e-61
3.30732e-61
3.51208e-61
2.80633e-58
1.4086e-58
2.83649e-58
4.14083e-58
1.33365e-58
4.08019e-59
4.68661e-59
1.02922e-55
3.44088e-56
2.80553e-56
1.02376e-55
4.13425e-59
4.4633e-59
4.18039e-59
3.27574e-56
3.15365e-56
3.16471e-56
3.26457e-56
3.39103e-51
3.89424e-48
1.74434e-64
4.57093e-66
3.81326e-64
1.51406e-66
1.66028e-62
6.77369e-50
2.33446e-52
3.59062e-56
3.38624e-57
3.1883e-56
3.90059e-63
2.14595e-61
1.20854e-58
1.01663e-63
1.49979e-61
2.77806e-56
2.58176e-60
2.09482e-64
3.74882e-64
3.31061e-64
5.10835e-66
1.64025e-65
1.58822e-65
4.17674e-65
4.90687e-64
1.49526e-64
4.71783e-67
3.07147e-66
5.78229e-67
1.79994e-62
1.55955e-64
1.62343e-64
5.75385e-54
1.02373e-53
5.75222e-54
1.01528e-53
6.60056e-51
6.59868e-51
4.47661e-63
1.42209e-62
1.38977e-62
1.1364e-59
3.62787e-60
1.1237e-59
3.06889e-60
3.56645e-62
3.06241e-61
1.30467e-61
1.05468e-58
7.52752e-59
1.47221e-58
2.82548e-59
4.38587e-64
1.50223e-63
5.04049e-64
3.77435e-61
5.40175e-61
4.05499e-61
5.27354e-61
1.70568e-61
2.06676e-61
1.89591e-61
1.25715e-58
7.17347e-59
6.95923e-59
1.19941e-58
3.57411e-60
1.20741e-61
1.24138e-61
9.46137e-59
3.36214e-59
9.37311e-59
2.73538e-59
1.27157e-51
1.63935e-55
1.27696e-54
1.91197e-52
1.20859e-51
1.42686e-55
1.15947e-54
3.2298e-48
4.31151e-52
3.41034e-51
4.92159e-49
3.12133e-48
3.83946e-52
3.15189e-51
1.57809e-44
1.0917e-48
2.35686e-47
1.2145e-45
8.6782e-45
9.92588e-49
9.87604e-48
1.38314e-61
1.38342e-61
1.38397e-61
2.13298e-58
2.13441e-58
2.13334e-58
2.13467e-58
3.85522e-51
4.66527e-52
5.73318e-49
5.69468e-49
3.64564e-48
4.49525e-52
3.76534e-51
1.16768e-48
1.4855e-45
1.7823e-44
1.18794e-48
2.6356e-47
9.82094e-45
1.14806e-47
1.51411e-47
1.17899e-50
4.23086e-50
2.3094e-49
1.61733e-46
1.00678e-46
1.19145e-49
7.16063e-63
1.78595e-63
7.66318e-63
4.71491e-60
4.21191e-60
2.53497e-60
1.39138e-60
3.65887e-50
3.60952e-53
8.3869e-53
1.58495e-53
2.19365e-50
6.34446e-51
4.74754e-54
2.27023e-49
4.39297e-50
4.14265e-53
1.31451e-51
5.8758e-49
3.40631e-53
3.8283e-50
3.09444e-56
1.41002e-56
1.50627e-53
8.17857e-54
5.81444e-57
1.83852e-57
2.57462e-54
2.9432e-52
2.28398e-55
1.44338e-51
1.43222e-54
1.4238e-54
2.2877e-52
1.73175e-55
1.77603e-50
1.74903e-50
1.75984e-47
1.76212e-47
1.0021e-62
2.16972e-59
3.42011e-56
6.18863e-53
1.29163e-49
2.59943e-46
6.80856e-66
1.53243e-62
3.13246e-59
6.54245e-56
1.32891e-52
2.47779e-49
4.12557e-46
3.36926e-67
9.42089e-64
1.20325e-60
1.53594e-57
2.12767e-54
3.51498e-51
6.66797e-48
4.44448e-69
1.08981e-65
2.47878e-62
5.33082e-59
1.05821e-55
1.91037e-52
3.13265e-49
1.67069e-70
3.76196e-67
5.62089e-64
8.32407e-61
1.29249e-57
2.19506e-54
3.87595e-51
2.62859e-72
6.84785e-69
1.62984e-65
3.54142e-62
6.96258e-59
1.23896e-55
2.01354e-52
6.50197e-74
1.41951e-70
2.46563e-67
4.15979e-64
6.94224e-61
1.1692e-57
1.9624e-54
1.35211e-75
3.6742e-72
8.99591e-69
1.97698e-65
3.8874e-62
6.86946e-59
1.10324e-55
2.22951e-77
5.04892e-74
9.91424e-71
1.84629e-67
3.25037e-64
5.46222e-61
8.84406e-58
5.98271e-79
1.68402e-75
4.23043e-72
9.4454e-69
1.87109e-65
3.30172e-62
5.24117e-59
7.00158e-81
1.68486e-77
3.6356e-74
7.28254e-71
1.3395e-67
2.26994e-64
3.59871e-61
2.93583e-64
8.98505e-61
3.61833e-67
1.35057e-66
7.36999e-69
2.73091e-68
5.44325e-68
7.65101e-66
1.05449e-62
1.19271e-69
1.28029e-66
1.28003e-66
8.27014e-70
6.71067e-70
2.15526e-66
1.6188e-72
2.79276e-68
2.27876e-71
1.43612e-71
2.48771e-68
2.48681e-68
3.36477e-74
5.99059e-68
4.06121e-65
1.53692e-66
6.95822e-66
3.96364e-62
3.09146e-67
6.13091e-66
1.00655e-62
3.3681e-60
1.05913e-62
1.05937e-62
1.05473e-62
2.15603e-66
2.16141e-66
2.16324e-66
2.27707e-69
4.43965e-69
5.61782e-69
2.25646e-69
2.20737e-72
1.62268e-72
5.89312e-72
3.36977e-75
7.03633e-72
3.41023e-75
2.17651e-72
4.84978e-74
1.51062e-73
8.12818e-77
3.24263e-74
5.75731e-74
1.01568e-73
6.7476e-77
1.00575e-62
2.68198e-63
2.67812e-63
4.26314e-60
1.26679e-59
1.26551e-59
3.37072e-60
5.44439e-68
5.61926e-68
5.62493e-68
5.35038e-71
1.26857e-70
5.94673e-71
7.63875e-71
5.99149e-68
5.36368e-68
5.36909e-68
5.261e-71
1.33678e-70
1.13444e-70
6.95234e-71
2.86336e-65
4.06255e-65
2.86169e-65
4.37541e-68
7.25708e-68
2.95249e-68
9.08088e-68
5.62695e-62
3.96431e-62
5.62901e-62
2.83133e-65
8.23086e-65
1.55981e-73
2.28214e-65
1.06091e-64
3.22326e-64
2.09344e-73
7.12187e-66
2.99411e-75
8.34221e-68
4.49165e-68
8.2297e-65
5.75704e-68
4.4935e-68
1.12704e-70
1.12744e-70
2.25245e-71
2.25322e-71
1.561e-73
1.06256e-64
8.98316e-68
5.85722e-68
3.47889e-65
1.05791e-64
2.95018e-68
5.82637e-68
1.48874e-70
2.39932e-64
1.47981e-70
2.97442e-71
2.95609e-71
2.08078e-73
1.56307e-66
8.40158e-70
2.13618e-72
4.31504e-73
1.48993e-77
4.13968e-76
5.19275e-74
1.20874e-73
3.83793e-76
1.69077e-74
4.48776e-77
2.04266e-77
5.87368e-76
6.96782e-74
1.6229e-73
6.14669e-77
5.46804e-76
2.26838e-74
7.92735e-79
1.16035e-77
1.00386e-75
2.75257e-75
9.34412e-79
9.0895e-78
9.5541e-76
2.48007e-70
5.82266e-70
3.30496e-73
1.12704e-70
5.82184e-70
3.30355e-73
2.48147e-70
2.14092e-70
1.1271e-70
5.48954e-70
3.02846e-73
5.48519e-70
3.02131e-73
2.14586e-70
1.48772e-77
1.20901e-73
3.94262e-76
5.1965e-74
3.63187e-76
1.6915e-74
4.49312e-77
3.55098e-70
7.96087e-70
4.67992e-73
1.48907e-70
3.54835e-70
7.96382e-70
4.68432e-73
2.7025e-70
1.48079e-70
7.08575e-70
3.90434e-73
7.10049e-70
3.92624e-73
2.68718e-70
2.02722e-77
1.61446e-73
5.22222e-76
6.92487e-74
4.84122e-76
2.2554e-74
6.09846e-77
7.23026e-72
1.42422e-71
1.00658e-74
2.02521e-72
8.42476e-72
1.30932e-71
8.25819e-75
3.22351e-64
3.2237e-64
3.22391e-64
3.53081e-67
6.4348e-67
3.52926e-67
6.43638e-67
7.12012e-66
7.32967e-66
7.33146e-66
7.46993e-69
1.21603e-68
8.21308e-69
1.14965e-68
2.39875e-64
2.40325e-64
2.40162e-64
2.65469e-67
5.54181e-67
5.55098e-67
2.6449e-67
5.05193e-69
7.65007e-66
7.61404e-66
7.61561e-66
1.104e-68
7.83415e-69
7.88848e-69
1.09754e-68
2.2991e-64
1.53627e-56
8.23545e-65
8.23997e-65
1.95456e-64
4.93044e-59
2.29875e-64
2.29917e-64
2.29882e-64
2.49398e-67
4.7235e-67
4.72284e-67
2.49499e-67
1.54173e-56
1.53667e-56
1.54213e-56
1.47011e-56
4.49091e-54
1.95442e-64
1.95547e-64
1.9553e-64
2.13238e-67
4.36544e-67
4.36289e-67
2.13542e-67
6.99076e-59
4.93138e-59
6.99362e-59
1.32796e-59
3.96123e-57
4.50442e-54
1.33431e-59
1.32829e-59
1.33465e-59
3.96605e-57
1.46356e-56
8.00924e-67
4.07152e-63
1.4002e-63
5.98123e-64
4.10997e-63
3.91564e-66
3.99557e-67
3.1696e-53
5.1307e-56
3.18372e-53
3.17011e-53
3.18423e-53
1.87027e-53
1.11424e-50
8.33234e-56
5.13045e-56
8.33367e-56
1.13167e-50
2.72513e-53
1.0011e-66
1.80922e-74
4.4727e-74
2.79202e-72
9.21168e-72
6.88938e-72
3.05984e-72
7.37171e-75
1.13565e-72
7.34918e-72
4.88002e-78
2.41197e-77
6.04301e-75
1.81231e-74
2.43304e-77
6.04913e-75
4.86466e-78
1.20136e-77
4.47372e-74
5.97759e-77
1.49188e-74
5.9882e-77
1.49208e-74
1.20079e-77
2.00729e-78
9.98118e-78
2.47328e-75
7.38476e-75
2.0119e-78
1.00359e-77
2.47145e-75
2.54055e-75
2.62197e-69
1.562e-75
2.08287e-69
4.19019e-77
1.96295e-71
3.45935e-73
2.66771e-70
2.54045e-66
7.41527e-81
1.19219e-80
5.0871e-78
6.86144e-78
1.96792e-78
1.99571e-75
3.69832e-78
6.57671e-76
3.06568e-72
3.42502e-75
1.00781e-72
4.95196e-81
1.43133e-80
3.14257e-78
8.32643e-78
5.67813e-74
1.40612e-78
1.60052e-75
4.37965e-78
5.26891e-76
2.4478e-72
4.14192e-75
8.71381e-72
8.04126e-73
2.45495e-72
1.06621e-82
2.18006e-80
8.29819e-80
4.10163e-76
1.03673e-78
2.43316e-80
1.32483e-77
6.33095e-78
4.43454e-78
6.29918e-74
2.16575e-74
6.58099e-74
2.97003e-76
7.13573e-75
2.14988e-74
1.56675e-77
2.81292e-71
7.22626e-76
9.80278e-70
7.57734e-75
3.79924e-76
2.07046e-71
3.72534e-73
3.30152e-73
7.92274e-73
9.45436e-70
1.80257e-70
8.26192e-70
7.79402e-61
2.06996e-56
1.07919e-63
3.73388e-68
1.61901e-59
2.21894e-62
1.24224e-66
2.82183e-60
2.50553e-84
7.65534e-84
3.65061e-81
7.41889e-81
7.66317e-84
3.65253e-81
2.50162e-84
4.67152e-84
1.1924e-80
1.16168e-83
6.84096e-81
1.16228e-83
6.84149e-81
4.6703e-84
1.09939e-80
3.77011e-81
9.93183e-78
5.08833e-78
3.77278e-81
9.9422e-78
1.09602e-80
2.2846e-80
6.8626e-78
5.09443e-81
1.88266e-77
5.09715e-81
1.88308e-77
2.28316e-80
1.80107e-84
5.19469e-84
2.61571e-81
4.95393e-81
1.79945e-84
5.20318e-84
2.61643e-81
5.56858e-84
1.43166e-80
1.40127e-83
8.12775e-81
1.40142e-83
8.12899e-81
5.56593e-84
5.33136e-81
2.34087e-81
5.13728e-78
3.14347e-78
5.33866e-81
2.34302e-81
5.13547e-78
2.05683e-80
8.3278e-78
6.19108e-81
1.73413e-77
6.19537e-81
1.79801e-77
1.96115e-80
9.70647e-78
5.67918e-74
7.62234e-77
1.12057e-74
7.62658e-77
1.1995e-74
9.06868e-78
3.46971e-86
1.26118e-85
4.62173e-83
1.02341e-82
3.62706e-86
1.03485e-85
4.82329e-83
8.09224e-84
1.21649e-80
6.90386e-83
2.07024e-80
9.12035e-84
1.17373e-80
2.88346e-83
1.83438e-82
6.55441e-83
1.87827e-79
7.83814e-80
2.32197e-82
5.41977e-83
1.72523e-79
9.44123e-80
6.47563e-79
1.33867e-76
3.49317e-76
1.12836e-79
4.48311e-79
1.26644e-76
4.56174e-82
5.82382e-79
4.21712e-81
1.07267e-78
4.29546e-82
6.01309e-79
4.36379e-81
2.5943e-77
8.5558e-80
1.50951e-77
5.8642e-77
2.65293e-80
1.07201e-76
5.31598e-77
4.07483e-74
6.53706e-74
1.73646e-70
2.39975e-71
1.43403e-73
6.00775e-74
5.98121e-71
8.53791e-75
5.85572e-78
7.38009e-76
2.60944e-75
6.01271e-78
8.34407e-75
3.91507e-75
1.25845e-71
2.79997e-72
1.72015e-68
3.61968e-69
1.23373e-71
4.71389e-72
1.74795e-68
2.61508e-58
5.39813e-58
1.58791e-61
2.11575e-59
1.47242e-58
3.43131e-58
1.05177e-59
3.30833e-62
1.71037e-64
5.9084e-65
5.46017e-62
2.62849e-65
1.79879e-62
4.46222e-62
2.25706e-68
8.80559e-70
5.36808e-67
2.02483e-66
3.02645e-63
1.5476e-63
7.63784e-65
1.88531e-67
3.31235e-68
4.52203e-65
8.28591e-68
1.04851e-64
4.37158e-65
1.74044e-62
2.27992e-65
4.72088e-66
1.53626e-63
2.30645e-65
1.72841e-62
5.83621e-63
2.67544e-79
6.14025e-73
2.15384e-79
4.90389e-73
1.71387e-81
4.31199e-75
1.60866e-76
1.26529e-73
3.93744e-85
4.94593e-82
1.65349e-82
1.64871e-82
6.65695e-76
8.93874e-80
2.19064e-76
8.20525e-85
3.20145e-85
3.99686e-82
1.34263e-82
3.19961e-82
1.33622e-82
5.33954e-76
7.2419e-80
1.75595e-76
6.06272e-87
1.70225e-84
3.01167e-84
4.20332e-82
2.53405e-84
4.46637e-82
4.4011e-78
1.29303e-79
1.478e-78
1.23015e-81
3.15722e-79
5.48697e-79
1.53005e-76
1.76709e-88
3.93871e-85
4.19757e-88
2.81009e-85
4.20219e-88
2.81073e-85
1.76586e-88
3.403e-85
3.37222e-85
4.97123e-82
4.94403e-82
3.36824e-85
4.96936e-82
3.40693e-85
1.19141e-85
1.654e-82
1.12913e-85
1.70018e-82
1.13022e-85
1.7007e-82
1.1903e-85
1.12586e-88
9.44907e-88
5.46964e-85
4.50841e-85
3.44528e-88
7.12422e-88
1.77256e-85
4.66836e-89
1.65455e-85
3.39912e-88
2.28331e-85
2.44203e-88
7.34144e-86
1.43688e-88
2.75992e-85
2.73486e-85
4.01508e-82
3.99671e-82
2.76024e-85
2.73451e-85
4.01494e-82
9.95223e-86
1.34488e-82
9.17677e-86
1.39833e-82
9.22498e-86
1.4006e-82
9.90312e-86
8.74153e-91
6.80527e-90
4.11357e-87
3.40284e-87
2.55646e-90
5.09061e-90
1.39266e-87
1.22389e-88
3.3027e-85
6.20329e-87
1.29056e-84
4.52518e-88
1.88616e-85
2.09849e-87
2.06857e-87
2.01705e-87
3.04385e-84
3.06602e-84
2.06679e-87
2.01814e-87
3.10085e-84
1.77708e-85
2.35767e-82
8.16814e-85
4.41178e-82
1.60254e-85
2.43862e-82
1.45452e-84
3.55925e-81
8.80926e-84
9.96597e-82
6.36743e-81
2.58792e-84
1.33301e-80
3.15819e-81
3.13377e-78
9.7837e-82
3.27639e-79
1.02449e-78
2.09568e-81
1.27206e-78
1.57592e-78
4.64479e-73
1.14942e-69
2.27329e-66
4.01164e-63
7.59854e-60
9.27322e-57
1.73105e-53
1.93721e-76
4.69918e-73
9.68081e-70
1.79753e-66
3.12138e-63
4.60249e-60
8.37678e-57
6.80727e-80
1.67622e-76
3.61177e-73
7.01003e-70
1.23655e-66
2.00154e-63
3.49476e-60
2.10857e-83
5.38092e-80
1.21827e-76
2.48317e-73
4.57452e-70
7.78877e-67
1.31401e-63
2.87044e-79
7.71022e-76
1.61018e-72
2.95984e-69
5.07849e-66
8.37458e-63
1.48643e-59
2.12887e-82
6.08963e-79
1.60521e-75
3.28573e-72
6.26989e-69
1.14103e-65
2.00371e-62
1.03942e-82
2.71833e-79
5.98095e-76
1.17909e-72
2.14302e-69
3.69746e-66
6.43294e-63
8.96644e-86
2.5553e-82
6.39185e-79
1.36573e-75
2.6675e-72
4.79069e-69
7.81294e-66
3.22627e-86
8.64164e-83
2.01576e-79
4.23403e-76
8.12027e-73
1.44567e-69
2.4455e-66
2.99995e-89
8.72e-86
2.22272e-82
4.97798e-79
1.00391e-75
1.81645e-72
2.90857e-69
8.42805e-70
2.31963e-66
3.84057e-63
5.40368e-60
8.54187e-69
2.35138e-65
5.30154e-72
1.40922e-68
2.28358e-75
5.21433e-72
7.69362e-79
1.54771e-75
2.15673e-82
3.94276e-79
6.23232e-69
1.6379e-65
3.66927e-72
9.35415e-69
1.53788e-75
3.38295e-72
5.10567e-79
9.94993e-76
1.41948e-82
2.5245e-79
6.15259e-71
1.6809e-67
3.43465e-74
9.00717e-71
1.2884e-77
2.71528e-74
3.79854e-81
6.8089e-78
9.40831e-85
1.50675e-81
3.8905e-70
8.17341e-67
1.83892e-73
3.12041e-70
7.10653e-77
1.08698e-73
2.39931e-80
3.43719e-77
7.20512e-84
9.82866e-81
7.16598e-67
1.2097e-63
2.54132e-70
4.00577e-67
8.24378e-74
1.20044e-70
2.47795e-77
3.36203e-74
6.9164e-81
8.89735e-78
3.89424e-64
6.27606e-61
1.27415e-67
2.00847e-64
3.88402e-71
5.84847e-68
1.11596e-74
1.59002e-71
3.03097e-78
4.09981e-75
6.31458e-60
6.19094e-57
1.96479e-63
2.05288e-60
5.91945e-67
6.43514e-64
1.72622e-70
1.91175e-67
4.8369e-74
5.40419e-71
1.28972e-77
1.45461e-74
2.21949e-59
2.24652e-56
1.08306e-62
1.12144e-59
4.41691e-66
4.66197e-63
1.61897e-69
1.72663e-66
5.45427e-73
5.85983e-70
1.69694e-76
1.84334e-73
4.87434e-80
5.3896e-77
9.61051e-63
1.04206e-59
5.5011e-66
5.863e-63
2.61023e-69
2.75652e-66
1.08081e-72
1.13891e-69
3.99033e-76
4.23475e-73
1.32605e-79
1.43082e-76
3.98879e-83
4.40941e-80
3.85411e-66
4.28198e-63
2.40174e-69
2.57931e-66
1.2448e-72
1.31329e-69
5.54291e-76
5.83681e-73
2.16056e-79
2.30184e-76
7.46138e-83
8.12312e-80
2.30334e-86
2.57935e-83
4.48294e-76
4.18034e-79
9.63899e-80
1.32683e-82
4.52195e-86
1.08053e-86
5.08444e-83
2.07604e-79
7.01092e-76
2.61476e-72
1.94111e-83
3.44406e-86
1.43736e-89
6.50259e-90
3.06133e-86
1.28512e-82
4.85939e-79
1.71899e-75
3.68998e-87
7.8765e-90
3.8123e-93
3.04623e-93
1.46474e-89
6.27245e-86
2.38976e-82
8.03722e-79
6.65724e-91
1.63419e-93
8.81398e-97
1.13648e-96
5.57274e-93
2.4053e-89
9.05466e-86
2.91505e-82
1.14064e-94
3.10543e-97
1.80377e-100
3.43981e-100
1.71948e-96
7.4679e-93
2.78016e-89
8.65839e-86
3.7624e-76
3.67448e-79
8.26164e-80
1.18452e-82
4.16605e-86
8.58931e-87
4.00328e-83
1.61421e-79
5.33795e-76
1.9574e-72
1.70652e-83
3.14849e-86
1.3569e-89
5.03301e-90
2.33248e-86
9.60649e-83
3.54979e-79
1.22707e-75
3.33737e-87
7.38866e-90
3.67999e-93
2.2997e-93
1.08559e-89
4.55507e-86
1.69724e-82
5.57387e-79
6.19498e-91
1.56924e-93
8.65434e-97
8.41705e-97
4.04918e-93
1.71298e-89
6.31315e-86
1.98659e-82
1.08839e-94
3.03579e-97
1.78999e-100
2.51388e-100
1.23274e-96
5.25022e-93
1.91533e-89
5.83773e-86
9.78781e-71
7.02059e-73
2.42122e-74
8.11881e-77
5.5104e-78
5.7071e-81
1.08695e-84
1.16703e-81
1.69093e-84
5.55573e-88
6.38344e-89
2.92878e-85
1.38212e-81
4.77984e-78
1.84238e-74
2.29393e-85
4.13306e-88
1.64647e-91
3.71009e-92
1.79238e-88
7.93014e-85
3.06089e-81
1.1049e-77
4.19694e-89
8.82081e-92
4.00715e-95
1.6303e-95
8.02417e-92
3.53017e-88
1.36409e-84
4.61591e-81
7.15971e-93
1.68407e-95
8.39235e-99
5.59891e-99
2.79446e-95
1.22691e-91
4.6562e-88
1.4917e-84
1.13885e-96
2.9073e-99
1.54401e-102
1.54881e-102
7.84491e-99
3.44748e-95
1.28761e-91
3.95957e-88
1.83233e-72
1.25777e-74
4.35306e-77
4.17322e-76
1.323e-78
2.72327e-84
1.22148e-86
8.75725e-80
8.53284e-83
2.24201e-86
1.14724e-83
1.70346e-83
2.29222e-86
1.52051e-89
9.8019e-87
2.84381e-83
4.6577e-80
9.5336e-77
1.97959e-73
3.05366e-87
5.04584e-90
3.95077e-93
4.17468e-90
1.10191e-86
2.25389e-83
4.8466e-80
9.85905e-77
5.04434e-91
9.59384e-94
9.6808e-97
1.46394e-93
3.91745e-90
8.98643e-87
1.98761e-83
3.99327e-80
7.67598e-95
1.61211e-97
2.24788e-100
4.47412e-97
1.24697e-93
3.06684e-90
6.94327e-87
1.39049e-83
1.07537e-98
2.42223e-101
4.95187e-104
1.21329e-100
3.5357e-97
9.13657e-94
2.11525e-90
4.252e-87
8.1877e-71
3.94744e-69
1.9786e-74
1.24516e-76
1.18548e-77
1.15935e-74
4.37128e-78
1.35139e-80
6.81288e-83
1.53004e-79
8.9169e-82
1.32016e-83
1.59596e-83
4.17729e-80
1.10154e-76
1.92386e-73
4.29486e-70
1.69018e-85
3.32249e-87
6.42617e-87
1.77177e-83
4.43307e-80
8.95005e-77
1.90906e-73
3.95791e-70
2.9545e-89
6.88986e-91
2.2544e-90
6.39596e-87
1.60597e-83
3.47791e-80
7.32798e-77
1.44266e-73
4.75184e-93
1.2354e-94
6.98494e-94
2.04079e-90
5.25736e-87
1.19498e-83
2.52991e-80
4.85864e-77
7.01439e-97
1.95513e-98
1.93377e-97
5.8439e-94
1.55925e-90
3.69232e-87
7.92871e-84
1.50863e-80
9.47826e-101
2.75929e-102
4.82247e-101
1.51223e-97
4.19313e-94
1.03101e-90
2.2576e-87
4.30101e-84
6.01136e-73
1.66316e-69
9.92308e-66
1.48161e-62
2.46278e-76
3.87946e-73
1.29485e-72
2.27222e-69
9.04256e-80
8.29573e-77
3.26245e-77
6.33988e-74
2.85665e-70
5.38279e-67
9.82957e-64
2.41713e-83
1.63809e-80
1.36097e-80
3.40909e-77
9.87487e-74
1.93392e-70
3.5983e-67
4.90916e-87
2.99406e-84
4.83092e-84
1.28401e-80
3.27029e-77
6.49302e-74
1.22491e-70
2.22237e-67
8.43795e-91
5.06065e-88
1.56147e-87
4.23237e-84
1.03082e-80
2.09538e-77
4.01005e-74
7.32428e-71
1.32073e-94
7.89526e-92
4.56262e-91
1.25952e-87
3.06359e-84
6.43366e-81
1.25424e-77
2.28899e-74
1.88055e-98
1.13431e-95
1.20874e-94
3.42141e-91
8.50708e-88
1.85682e-84
3.70675e-81
6.76853e-78
2.4325e-102
1.49798e-99
2.91618e-98
8.5211e-95
2.19198e-91
4.98627e-88
1.02346e-84
1.88032e-81
6.15513e-76
1.93742e-72
3.8855e-69
6.55884e-66
1.06377e-62
1.6647e-59
3.38128e-79
9.02948e-76
1.53433e-72
2.82449e-69
5.0461e-66
9.43007e-63
2.08514e-59
1.33556e-82
3.21191e-79
5.64807e-76
1.14322e-72
2.2573e-69
4.55345e-66
9.58997e-63
4.28462e-86
1.00464e-82
1.96274e-79
4.3413e-76
9.20651e-73
1.88626e-69
3.65124e-66
5.97142e-63
1.18571e-89
2.8938e-86
6.39736e-83
1.52357e-79
3.38343e-76
6.90295e-73
1.24742e-69
1.83789e-66
2.94838e-93
7.78217e-90
1.93093e-86
4.87585e-83
1.11726e-79
2.26809e-76
3.92432e-73
5.45981e-70
6.74645e-97
1.95326e-93
5.34126e-90
1.41327e-86
3.31935e-83
6.7443e-80
1.14412e-76
1.55818e-73
1.43533e-100
4.55189e-97
1.34651e-93
3.70521e-90
8.90445e-87
1.82424e-83
3.09226e-80
4.23297e-77
2.84834e-104
9.80113e-101
3.08929e-97
8.8043e-94
2.16705e-90
4.50916e-87
7.74737e-84
1.08543e-80
1.10067e-85
3.304e-82
9.41573e-79
2.0528e-75
4.17429e-72
7.97287e-69
1.40286e-65
2.03213e-62
4.5103e-89
1.4276e-85
4.28322e-82
9.98968e-79
2.14032e-75
4.16601e-72
7.13425e-69
9.9971e-66
1.5614e-92
5.24509e-89
1.65316e-85
4.09016e-82
9.1144e-79
1.7919e-75
3.00097e-72
4.07006e-69
4.72287e-96
1.68535e-92
5.5651e-89
1.44689e-85
3.32728e-82
6.61066e-79
1.09796e-75
1.47201e-72
1.27066e-99
4.79916e-96
1.6538e-92
4.4861e-89
1.06103e-85
2.1389e-82
3.57244e-79
4.83289e-76
3.07046e-103
1.22046e-99
4.3725e-96
1.23195e-92
2.99547e-89
6.15804e-86
1.04624e-82
1.45049e-79
6.70391e-107
2.78833e-103
1.03547e-99
3.02296e-96
7.56558e-93
1.59447e-89
2.78078e-86
3.99268e-83
5.35419e-89
1.63238e-85
4.40078e-82
1.00414e-78
2.07655e-75
3.85948e-72
6.27971e-69
8.45104e-66
2.47492e-92
8.01315e-89
2.29037e-85
5.54986e-82
1.20234e-78
2.28873e-75
3.71471e-72
4.94623e-69
9.42236e-96
3.22945e-92
9.72593e-89
2.48383e-85
5.59053e-82
1.08611e-78
1.76893e-75
2.34954e-72
3.06138e-99
1.10675e-95
3.49554e-92
9.34494e-89
2.17492e-85
4.31576e-82
7.11625e-79
9.56911e-76
8.67177e-103
3.29208e-99
1.08588e-95
3.02435e-92
7.2653e-89
1.47669e-85
2.48622e-82
3.42859e-79
2.17102e-106
8.61546e-103
2.95757e-99
8.55643e-96
2.12181e-92
4.43381e-89
7.6782e-86
1.09615e-82
4.84785e-110
2.00359e-106
7.14075e-103
2.1426e-99
5.49078e-96
1.1842e-92
2.1222e-89
3.15663e-86
1.94329e-92
6.06161e-89
1.65722e-85
3.94135e-82
8.33885e-79
1.54845e-75
2.46716e-72
3.2949e-69
9.63455e-96
3.19751e-92
9.27464e-89
2.32942e-85
5.14275e-82
9.80506e-79
1.57627e-75
2.09941e-72
3.87584e-99
1.36066e-95
4.15983e-92
1.09682e-88
2.51514e-85
4.9241e-82
8.05137e-79
1.08533e-75
1.31197e-102
4.84719e-99
1.55398e-95
4.2807e-92
1.01697e-88
2.04738e-85
3.42809e-82
4.73393e-79
3.82558e-106
1.48036e-102
4.95633e-99
1.42164e-95
3.4962e-92
7.25575e-89
1.25153e-85
1.78637e-82
9.75895e-110
3.93987e-106
1.37333e-102
4.09338e-99
1.04243e-95
2.23665e-92
3.99499e-89
5.93126e-86
2.19939e-113
9.24443e-110
3.34911e-106
1.03642e-102
2.73583e-99
6.08649e-96
1.1306e-92
1.75365e-89
1.19333e-73
5.17841e-73
3.24237e-73
3.64357e-74
1.60173e-76
2.15955e-75
3.29062e-79
1.87874e-88
2.12919e-71
1.22356e-71
2.77929e-74
6.78733e-75
2.09211e-75
3.73425e-78
1.17291e-74
5.54935e-75
6.41352e-76
2.57154e-78
7.35485e-81
3.81006e-90
3.47318e-77
4.93909e-81
7.01448e-85
1.90443e-89
5.216e-83
2.62208e-81
1.10886e-86
2.36768e-86
4.49824e-83
6.07115e-82
4.55322e-84
2.32207e-83
1.16414e-74
1.12546e-73
7.94153e-70
4.20884e-69
1.20772e-71
2.0768e-70
2.1258e-63
9.65416e-63
1.21623e-66
6.47643e-66
2.34024e-73
8.78908e-80
3.96664e-78
6.27481e-70
3.80613e-69
2.93255e-73
2.05248e-72
1.2812e-82
4.5125e-86
1.35869e-84
1.45763e-87
3.08435e-81
1.02443e-79
1.42176e-77
4.11007e-77
1.11382e-80
8.34358e-80
3.93713e-78
9.5258e-88
6.21303e-86
4.14745e-89
1.81857e-84
1.60502e-85
2.1028e-86
8.7272e-87
1.69322e-65
1.20206e-65
1.214e-65
1.35693e-65
1.1704e-76
9.88692e-82
1.22579e-81
3.70677e-73
2.2444e-72
1.58915e-76
1.07918e-75
1.17065e-72
1.41356e-74
2.29942e-76
1.82182e-72
8.13353e-76
3.52739e-72
3.2153e-73
2.15864e-79
2.16466e-75
4.53568e-78
1.76898e-76
4.58212e-78
2.57217e-76
1.48758e-79
4.08285e-85
1.886e-88
2.16302e-88
1.76058e-85
2.67597e-88
1.76785e-85
3.32425e-85
4.75756e-74
2.77811e-74
1.52423e-73
8.52334e-77
1.30149e-73
6.27861e-77
7.0137e-74
6.12564e-87
8.80575e-90
3.73158e-87
3.75762e-90
1.43134e-86
4.59915e-90
3.31071e-87
2.52396e-81
3.47436e-77
9.54374e-80
2.73772e-78
7.49735e-80
3.20497e-78
2.41059e-81
5.16107e-87
6.66352e-88
3.46375e-84
1.62726e-85
1.86971e-87
2.6217e-87
1.11737e-84
2.51891e-88
6.43179e-92
1.91292e-89
7.07964e-89
1.26507e-91
1.05642e-88
1.0839e-88
5.05366e-85
1.04009e-85
3.92771e-82
1.87461e-82
2.12132e-85
1.78069e-85
9.34152e-82
1.43689e-84
2.79288e-84
8.17843e-81
3.93015e-82
4.78614e-84
1.23762e-84
2.65195e-81
4.86969e-71
9.65211e-71
2.54061e-74
8.59515e-72
2.76775e-71
1.08117e-70
2.36975e-72
1.99732e-68
1.23712e-68
1.36404e-71
6.97513e-70
1.25466e-68
1.64624e-68
2.51684e-69
8.23779e-68
1.63274e-67
4.69262e-71
1.45795e-68
4.68413e-68
1.83047e-67
4.01859e-69
2.09187e-72
4.78257e-74
5.76729e-75
2.36133e-71
1.47796e-75
1.08494e-71
7.61542e-72
6.71817e-65
1.11455e-64
4.535e-65
1.39457e-64
2.38838e-77
2.8697e-78
1.276e-74
7.34145e-79
5.86552e-75
4.11683e-75
1.12973e-75
7.72624e-69
5.14512e-71
1.93726e-72
1.03834e-75
1.13094e-80
8.41896e-83
6.29413e-69
5.35628e-71
1.59898e-72
3.20664e-75
1.51609e-80
7.58507e-83
2.16643e-82
4.80715e-72
1.2626e-74
3.85312e-71
4.4931e-72
1.24989e-74
2.70307e-77
2.68002e-77
1.95999e-82
1.55589e-85
1.12192e-80
1.87542e-82
1.53266e-85
5.35722e-72
1.64757e-74
2.29909e-71
2.81228e-72
1.5217e-74
3.59787e-77
3.3277e-77
2.60324e-86
2.31698e-82
1.66029e-85
1.39016e-80
5.4285e-84
1.28459e-82
1.269e-85
2.50094e-76
5.35165e-79
3.86336e-88
7.92459e-86
4.49843e-84
2.62228e-87
4.7389e-83
2.59514e-86
7.30603e-86
2.15888e-83
3.51197e-86
2.15044e-83
9.89811e-83
1.137e-84
1.1556e-87
3.38856e-85
3.18196e-88
1.56735e-84
7.53287e-88
2.81199e-85
4.14228e-70
2.26202e-70
2.18307e-73
2.37488e-72
1.12581e-72
3.76442e-72
1.02182e-75
2.19127e-77
5.1955e-79
8.3653e-76
2.1011e-75
1.43326e-76
3.32347e-76
7.04825e-78
2.13561e-78
9.95034e-76
4.07619e-79
1.91158e-75
6.34047e-76
1.75225e-76
5.34925e-82
7.27164e-84
2.59733e-83
9.13631e-80
5.16837e-79
2.49194e-80
4.01818e-80
1.84625e-78
1.55437e-80
6.41158e-80
1.76067e-76
1.26238e-75
5.05175e-77
8.89641e-77
9.91296e-66
5.41791e-66
5.41966e-66
2.77596e-69
7.41746e-69
2.78028e-69
1.07247e-68
8.11945e-63
8.11666e-63
1.48001e-62
4.5003e-66
1.1801e-65
4.50673e-66
1.71054e-65
4.47347e-72
9.67379e-76
2.34615e-75
1.29779e-72
6.00122e-72
2.17206e-75
5.2067e-75
7.64651e-69
1.04718e-72
4.28498e-72
2.27886e-69
1.02766e-68
3.25162e-72
9.78942e-72
5.41077e-79
2.50531e-82
5.77691e-82
3.28761e-79
4.74247e-79
2.49852e-82
4.73139e-82
9.39383e-84
1.8353e-80
5.5611e-84
7.16024e-81
2.1417e-83
1.01866e-80
5.07053e-84
7.0516e-84
4.94275e-81
7.04627e-81
3.57649e-84
7.41405e-81
3.50623e-84
7.09102e-84
1.1825e-71
7.32271e-72
7.36564e-75
4.20916e-73
7.38607e-72
1.17159e-71
1.49053e-72
1.50685e-75
6.72284e-79
3.18497e-79
1.37813e-76
1.59652e-78
7.76873e-76
5.01377e-76
5.30224e-75
1.28327e-77
6.61102e-79
4.3022e-75
4.52768e-78
1.12616e-74
1.03026e-75
2.72709e-81
1.35776e-82
7.40132e-82
7.52783e-79
6.34253e-80
3.68823e-79
2.2989e-79
5.88517e-81
2.93382e-82
1.81642e-78
2.05721e-81
5.57198e-78
2.59688e-78
4.96731e-79
4.55205e-80
7.15934e-77
2.17793e-80
2.70401e-77
4.16095e-77
2.17394e-80
9.35193e-80
4.53251e-80
2.68023e-77
7.14125e-77
2.16343e-80
4.13793e-77
2.15817e-80
9.35238e-80
6.30222e-80
9.69835e-77
2.96958e-80
3.59966e-77
1.30306e-79