/*--------------------------------*- C++ -*----------------------------------*\
  =========                 |
  \\      /  F ield         | OpenFOAM: The Open Source CFD Toolbox
   \\    /   O peration     | Website:  https://openfoam.org
    \\  /    A nd           | Version:  9
     \\/     M anipulation  |
\*---------------------------------------------------------------------------*/
FoamFile
{
    format      ascii;
    class       volScalarField;
    location    "0.00295";
    object      alpha.c4;
}
// * * * * * * * * * * * * * * * * * * * * * * * * * * * * * * * * * * * * * //

dimensions      [0 0 0 0 0 0 0];

internalField   nonuniform List<scalar> 
28759
(
0.138275
0.108101
0.0244818
0.0189873
0.00196385
0.00292128
0.000365489
0.0394957
0.213264
0.0702773
0.108079
0.0403606
0.037269
0.0178584
0.0484211
0.242047
0.121316
0.051272
0.0212558
0.0827221
0.0421741
0.189964
0.17394
0.154489
0.175143
0.156214
0.123959
0.138993
0.0328517
0.0048592
0.00286806
0.00879473
0.00937628
0.00290089
0.00132115
0.0109989
0.0387418
0.0200144
0.00317679
0.00139803
0.00680985
0.00296135
0.216905
0.198283
0.176946
0.206584
0.185282
0.147009
0.164168
0.132524
0.0568019
0.107319
0.0585622
0.109574
0.0872241
0.0469981
0.153529
0.06636
0.124222
0.0713586
0.131692
0.104366
0.0566323
0.13877
0.0963904
0.123319
0.0962609
0.0810403
0.0729333
0.107596
0.0974338
0.139964
0.125336
0.0965997
0.0801251
0.0726059
0.107581
0.157614
0.108521
0.140565
0.113143
0.0934317
0.0843139
0.126082
0.00297419
0.00191639
0.000823726
0.00148714
0.000722472
0.000879298
0.000504439
0.0163643
0.0265569
0.0274251
0.0131237
0.0134833
0.0221764
0.0108614
0.000683778
0.00500425
0.0019558
0.000709366
0.000466002
0.00268174
0.000789463
0.0705851
0.0484492
0.0890399
0.06935
0.030765
0.053505
0.0384353
0.0460343
0.0681889
0.0860843
0.0685457
0.0300278
0.0529551
0.0376895
0.00172213
0.00259231
0.00248058
0.00614548
0.002808
0.00109309
0.00162544
0.000424407
0.171968
0.124967
0.154674
0.118589
0.10133
0.09195
0.131684
0.0771327
0.0530565
0.0988242
0.0810145
0.0347903
0.0614423
0.044636
0.0189545
0.0308866
0.0333746
0.0149277
0.0160283
0.0265424
0.0126677
0.00870955
0.00618459
0.00774328
0.0108343
0.00779222
0.00544353
0.00425253
0.091089
0.0610394
0.111012
0.0856463
0.0390502
0.0679129
0.0476564
0.0726532
0.0577127
0.0584135
0.0371934
0.0531682
0.0527023
0.0804536
0.00738898
0.0094255
0.00640464
0.00489795
0.00752362
0.00593351
0.00373018
0.0106891
0.0178717
0.0217108
0.0147493
0.0180759
0.00885846
0.00726034
0.0228978
0.0091984
0.0111487
0.0151323
0.0184444
0.00898897
0.0073777
0.0248132
0.00964367
0.0119373
0.0168814
0.0211858
0.0101209
0.00812046
0.0531227
0.0236742
0.0287926
0.0235857
0.0398258
0.0397374
0.0303112
0.0878462
0.0713419
0.0689195
0.0446423
0.0651937
0.0628482
0.0970792
0.0105196
0.00506391
0.00808514
0.00525842
0.00855693
0.00662379
0.00393648
0.0287318
0.0115185
0.0136155
0.018997
0.0226668
0.010742
0.00899797
0.00362619
0.00410241
0.00494035
0.00362313
0.00289828
0.00265629
0.00205058
9.6227e-05
0.000157626
0.000849
0.000111498
0.000195423
0.000158466
5.49924e-05
0.064433
0.0345015
0.029161
0.0278162
0.0491468
0.0471453
0.0367387
0.00427428
0.0037615
0.00609661
0.00173014
0.00258081
0.0042483
0.00289693
0.00185314
0.00368063
0.00281782
0.00422483
0.00540917
0.00372094
0.00284928
0.00424485
0.0054408
0.0036815
0.0024562
0.00183111
0.0037138
0.00284231
0.00373549
0.00474584
0.0058875
0.00474963
0.00224658
0.00383232
0.00288162
0.00398178
0.00360238
0.00366904
0.00278544
0.00278734
0.00264809
0.00194509
0.0120014
0.0119468
0.0148935
0.00729936
0.00469634
0.00591401
0.0059176
0.00242547
0.00199915
0.00350553
0.00195854
0.00239156
0.00163664
0.00129685
0.00483756
0.00374759
0.00603021
0.00477666
0.00220208
0.00383207
0.00286767
0.00504138
0.00384162
0.00633788
0.00521241
0.00232227
0.0041412
0.0030035
0.0145835
0.0139019
0.0178353
0.00851107
0.00538102
0.00700074
0.00672001
0.00575181
0.00407962
0.00701014
0.00544801
0.00240295
0.00445802
0.00307526
0.00327558
0.00178359
0.00223316
0.00172582
0.00219797
0.00148815
0.00113566
0.00199489
0.00208439
0.00268209
0.00146809
0.0019679
0.00145851
0.00104014
0.00111126
0.00188858
0.0028793
0.00121545
0.000700794
0.00112059
0.00190778
0.00172028
0.0018722
0.00288774
0.00119781
0.000687819
0.00111531
0.0019018
0.00130343
0.00148074
0.00220843
0.00148199
0.000845757
0.00096796
0.000536943
0.00103567
0.0011786
0.000724599
0.0016106
0.00116669
0.00248512
0.00185629
0.00382562
0.00170618
0.00241465
0.00173312
0.00307018
0.00305049
0.00222318
0.00264112
0.00139439
0.00202144
0.00141082
0.00193916
0.00142543
0.000982585
0.00263641
0.0014076
0.00197117
0.0014475
0.00194481
0.00137538
0.00098268
0.00268414
0.00132922
0.00193125
0.00143313
0.00194793
0.00134984
0.000932667
0.00427877
0.00267442
0.00183315
0.0018152
0.0034639
0.00336819
0.00235369
0.00114767
0.00167291
0.00133269
0.00112021
0.000559464
0.000765157
0.000854591
1.90074e-15
7.10739e-17
8.32769e-18
5.4831e-19
3.36229e-20
1.69824e-21
7.48115e-23
5.06932e-10
2.43926e-15
1.99626e-16
1.79809e-17
1.11881e-18
5.64377e-20
2.42386e-21
3.78042e-07
1.62576e-11
1.76149e-14
2.93502e-16
3.02065e-17
1.65259e-18
7.18386e-20
6.28363e-05
2.21086e-06
4.00593e-09
1.92896e-13
7.20507e-16
3.77477e-17
1.76288e-18
0.00251242
0.000228404
1.08565e-05
7.58686e-08
1.70314e-12
1.13931e-15
3.27008e-17
0.0322167
0.00407138
0.000372711
1.96917e-05
1.63871e-07
1.90698e-12
6.6109e-16
0.0318123
0.00455478
0.000420665
1.95063e-05
8.70578e-08
2.63317e-13
0.0291934
0.00425899
0.0003499
1.09458e-05
6.25622e-09
0.024453
0.00244285
6.05192e-05
5.86215e-08
1.7248e-16
1.80242e-17
1.81405e-18
1.53214e-19
9.98085e-21
5.28457e-22
2.43078e-23
1.24114e-14
4.34578e-16
5.23336e-17
4.99783e-18
3.2366e-19
1.67771e-20
7.49727e-22
1.04306e-09
9.42677e-13
3.53405e-15
8.84136e-17
9.19112e-18
4.95069e-19
2.14881e-20
1.92406e-05
4.47776e-07
2.78291e-10
1.69938e-14
1.4909e-16
1.12272e-17
5.3402e-19
0.000884358
9.23091e-05
3.77317e-06
9.4787e-09
1.0997e-13
1.82574e-16
1.00168e-17
0.00831878
0.0014808
0.00016573
7.98373e-06
2.81847e-08
1.22262e-13
1.26748e-16
0.00809267
0.00171102
0.000190574
8.02769e-06
1.20573e-08
2.05476e-14
0.00226703
0.0016291
0.000158714
3.98821e-06
4.80519e-10
0.00660431
0.000905708
2.4708e-06
1.07129e-10
1.70448e-17
2.25585e-18
2.12922e-19
1.73688e-20
1.15013e-21
6.20877e-23
2.91397e-24
3.64926e-16
6.26214e-17
5.88886e-18
5.20159e-19
3.5348e-20
1.90659e-21
8.81109e-23
7.40472e-14
5.65935e-15
1.17295e-16
1.31833e-17
9.68417e-19
5.31453e-20
2.43297e-21
2.38939e-07
8.03491e-10
1.73048e-13
4.66591e-16
2.27287e-17
1.24896e-18
5.75415e-20
4.35948e-05
3.39528e-06
5.17869e-08
6.62536e-12
1.09494e-15
2.54042e-17
1.10446e-18
0.000493797
7.19445e-05
9.37831e-06
1.99227e-07
2.6202e-11
1.0978e-15
1.58952e-17
0.000490146
0.00012858
1.20555e-05
2.10207e-07
9.28106e-12
4.05055e-16
0.000573549
0.000406096
9.52891e-06
6.69805e-08
3.24892e-13
0.000428101
0.000313353
6.12208e-09
1.4337e-14
1.55086e-18
1.92212e-19
1.88713e-20
1.56627e-21
1.0628e-22
5.88242e-24
2.83999e-25
3.86724e-17
5.62997e-18
5.4691e-19
4.65505e-20
3.2121e-21
1.76872e-22
8.40163e-24
1.22343e-15
8.90115e-17
1.31908e-17
1.22781e-18
8.91286e-20
4.88824e-21
2.28461e-22
1.09305e-12
3.05383e-14
4.01001e-16
2.88619e-17
2.32938e-18
1.17982e-19
5.39429e-21
6.85942e-07
1.11161e-08
4.41481e-12
1.84785e-15
3.73966e-17
2.66515e-18
1.06596e-19
0.000258778
3.90615e-05
1.27954e-07
7.31256e-11
2.35597e-15
3.32683e-17
1.73874e-18
0.000491893
0.000228363
5.19878e-05
2.35471e-07
9.04528e-11
1.49632e-15
1.74227e-17
0.00072656
7.54603e-05
4.69469e-05
1.5044e-07
8.16834e-12
3.66752e-16
0.00072243
0.000329814
2.84066e-05
5.59948e-14
4.88284e-16
1.35825e-19
1.64277e-20
1.65055e-21
1.38683e-22
9.47865e-24
5.32234e-25
2.62666e-26
3.59237e-18
4.6763e-19
4.74685e-20
4.07408e-21
2.80716e-22
1.56483e-23
7.61177e-25
7.97334e-17
1.13578e-17
1.20998e-18
1.09184e-19
7.6667e-21
4.2533e-22
2.0352e-23
2.33292e-15
1.54824e-16
2.39444e-17
2.61801e-18
1.83297e-19
1.01001e-20
4.76936e-22
1.43488e-12
6.03234e-14
6.96408e-16
4.11855e-17
4.13241e-18
2.02807e-19
9.4393e-21
5.29124e-07
6.8485e-09
3.48801e-12
1.71716e-15
4.63286e-17
3.42431e-18
1.50456e-19
3.42591e-05
3.08217e-05
5.19161e-08
1.73388e-11
1.65356e-15
3.25439e-17
1.78967e-18
0.000320407
6.116e-05
3.56534e-05
6.03004e-08
5.79597e-12
6.77458e-16
1.78715e-17
6.68712e-05
2.42251e-05
8.12259e-14
1.07613e-15
1.24239e-16
1.14836e-20
1.38939e-21
1.39445e-22
1.15279e-23
7.78616e-25
4.36989e-26
2.17452e-27
3.22686e-19
4.00644e-20
4.058e-21
3.38422e-22
2.28251e-23
1.26865e-24
6.2301e-26
8.07302e-18
1.07605e-18
1.09544e-19
9.23874e-21
6.21983e-22
3.41697e-23
1.65138e-24
1.69494e-16
2.48328e-17
2.57063e-18
2.22938e-19
1.50063e-20
8.1383e-22
3.86476e-23
8.04e-16
3.27795e-16
4.76514e-17
4.64339e-18
3.11652e-19
1.6636e-20
7.77715e-22
2.70026e-12
4.79353e-14
9.49017e-16
7.07576e-17
5.35355e-18
2.80259e-19
1.29916e-20
5.06489e-07
3.47754e-09
7.05634e-13
1.4515e-15
6.23118e-17
3.61935e-18
1.73546e-19
7.5504e-05
2.25425e-05
7.67982e-07
9.76767e-13
9.2499e-16
3.65309e-17
1.85732e-18
5.11093e-06
2.0306e-06
3.25692e-07
1.75922e-15
2.44771e-16
1.82121e-17
8.07255e-22
9.79466e-23
9.7365e-24
7.93027e-25
5.31154e-26
2.97925e-27
1.49109e-28
2.31387e-20
2.81539e-21
2.81486e-22
2.3006e-23
1.5353e-24
8.53701e-26
4.22469e-27
6.053e-19
7.51812e-20
7.56768e-21
6.20992e-22
4.12458e-23
2.27019e-24
1.10904e-25
1.35119e-17
1.79329e-18
1.80979e-19
1.49144e-20
9.84092e-22
5.3522e-23
2.57835e-24
2.46874e-16
3.64414e-17
3.72873e-18
3.1106e-19
2.03566e-20
1.09248e-21
5.19275e-23
7.97031e-16
3.9639e-16
5.92658e-17
5.34394e-18
3.52538e-19
1.86943e-20
8.80443e-22
1.50024e-12
3.70035e-14
7.3884e-16
6.69802e-17
4.80323e-18
2.57598e-19
1.21726e-20
2.08582e-07
7.19423e-10
1.46548e-13
7.0453e-16
4.94065e-17
2.78659e-18
1.34531e-19
7.39454e-06
1.02446e-07
1.78728e-11
2.42926e-16
2.6328e-17
1.20707e-18
4.53871e-23
5.52894e-24
5.46517e-25
4.42145e-26
2.95528e-27
1.66289e-28
8.38229e-30
1.28759e-21
1.56541e-22
1.55276e-23
1.25901e-24
8.39304e-26
4.69117e-27
2.34345e-28
3.35637e-20
4.0921e-21
4.08616e-22
3.32644e-23
2.21229e-24
1.22809e-25
6.07663e-27
7.54418e-19
9.39553e-20
9.49291e-21
7.7843e-22
5.16982e-23
2.85112e-24
1.39766e-25
1.37819e-17
1.84697e-18
1.89701e-19
1.57482e-20
1.04645e-21
5.74361e-23
2.79485e-24
1.83785e-16
2.96995e-17
3.11556e-18
2.65991e-19
1.77852e-20
9.75788e-22
4.73709e-23
4.91416e-16
2.5897e-16
3.87122e-17
3.53663e-18
2.43577e-19
1.35165e-20
6.61386e-22
7.22241e-14
8.9241e-15
2.85335e-16
3.52276e-17
2.59039e-18
1.48391e-19
7.43286e-21
7.73491e-14
5.33628e-13
1.81288e-16
2.327e-17
1.30222e-18
6.68192e-20
2.09211e-24
2.56132e-25
2.52944e-26
2.04421e-27
1.36939e-28
7.74772e-30
3.93861e-31
5.81365e-23
7.1064e-24
7.03982e-25
5.70381e-26
3.81667e-27
2.1497e-28
1.0852e-29
1.48592e-21
1.81724e-22
1.81107e-23
1.47448e-24
9.86719e-26
5.5359e-27
2.77604e-28
3.29256e-20
4.05836e-21
4.09469e-22
3.36577e-23
2.25863e-24
1.26416e-25
6.30361e-27
6.05107e-19
7.66777e-20
7.91479e-21
6.62151e-22
4.47824e-23
2.50904e-24
1.24724e-25
8.66512e-18
1.17743e-18
1.25917e-19
1.087e-20
7.4743e-22
4.21924e-23
2.10169e-24
9.42165e-17
1.46875e-17
1.57163e-18
1.42935e-19
1.01544e-20
5.8393e-22
2.93975e-23
5.68845e-16
1.22207e-16
1.56078e-17
1.4582e-18
1.09103e-19
6.48705e-21
3.33449e-22
3.81101e-15
1.06722e-16
1.21408e-17
9.32788e-19
5.73617e-20
3.01619e-21
8.43494e-26
1.03827e-26
1.02751e-27
8.32251e-29
5.60121e-30
3.19188e-31
1.6379e-32
2.29145e-24
2.82184e-25
2.80269e-26
2.27722e-27
1.53284e-28
8.70978e-30
4.44574e-31
5.72005e-23
7.05413e-24
7.05002e-25
5.76113e-26
3.8856e-27
2.20432e-28
1.12022e-29
1.24173e-21
1.54036e-22
1.55722e-23
1.2858e-24
8.71674e-26
4.94724e-27
2.50652e-28
2.2661e-20
2.85273e-21
2.94315e-22
2.47495e-23
1.69595e-24
9.66627e-26
4.89483e-27
3.34351e-19
4.32301e-20
4.60649e-21
3.99369e-22
2.79096e-23
1.60723e-24
8.17184e-26
3.9801e-18
5.22202e-19
5.76352e-20
5.23479e-21
3.77754e-22
2.21758e-23
1.13928e-24
4.39432e-17
5.14692e-18
5.7341e-19
5.45164e-20
4.11032e-21
2.48033e-22
1.29563e-23
4.53188e-17
4.62078e-18
4.55716e-19
3.56909e-20
2.20935e-21
1.17324e-22
0.00767825
0.0902266
0.0298954
0.0150686
0.0044917
0.0331606
0.014018
0.0072128
0.0734991
0.0273897
0.0136985
0.00426237
0.0299656
0.0131141
0.0120875
0.0801401
0.0313934
0.0267244
0.00606304
0.012921
0.00362257
0.00704127
0.106089
0.032317
0.015505
0.0040657
0.0416643
0.0153639
0.081899
0.0601409
0.0592029
0.0544374
0.0537086
0.038325
0.0418369
0.00266128
0.016111
0.00757718
0.00105476
0.000381267
0.00230543
0.00106293
0.0072595
0.00742639
0.00254955
0.0071437
0.0010572
0.000378711
0.00134653
0.0812203
0.0647309
0.0587865
0.0667485
0.0607406
0.0422705
0.0459893
0.0154756
0.00122495
0.00218907
0.00704474
0.00215987
0.000984105
0.000308231
0.0530863
0.0237305
0.0235808
0.0403958
0.0400032
0.0294001
0.0180929
0.0588614
0.0256024
0.0437182
0.0266371
0.0453524
0.0324593
0.0198823
0.0728615
0.0571271
0.0523249
0.0567132
0.052086
0.0360185
0.0388872
0.00236298
0.0203406
0.00553703
0.000971435
0.00030632
0.00185851
0.00104469
0.00161023
0.000247343
0.000421417
0.000600024
0.000238578
0.000232919
2.06005e-05
0.00178755
0.000431399
0.000136565
0.000645771
0.000390417
0.000232247
1.82303e-05
0.000498589
0.00033625
0.00209951
6.57616e-05
1.06572e-05
0.000400837
0.00015
0.0541247
0.0238212
0.0397151
0.0240349
0.0397835
0.0281662
0.0176451
0.0965067
0.0740433
0.0677811
0.076649
0.0702462
0.0470532
0.0509534
0.000311722
0.00136534
0.000565807
7.58133e-05
1.35331e-05
0.000538781
0.000198278
0.000803003
0.0193079
0.0043772
0.00282172
0.000561473
0.0098448
0.00272946
0.0426538
0.0270526
0.0390316
0.0264758
0.0188775
0.0177175
0.0285644
0.0447767
0.0277327
0.0410858
0.0284361
0.0197311
0.0185322
0.0306102
0.0717794
0.0306587
0.0513451
0.0321507
0.0534611
0.0365731
0.0227042
0.0147113
0.0119982
0.0119372
0.0059604
0.00592569
0.00948056
0.00476662
0.000698777
0.0175501
0.0036618
0.00266549
0.00049241
0.0135674
0.00230989
0.0410962
0.0254909
0.0377535
0.0259843
0.0180445
0.0169755
0.0279888
0.0078142
0.0128316
0.0133216
0.0062944
0.0064868
0.0103089
0.00510669
0.000701351
0.0204411
0.00451388
0.00249187
0.000488316
0.0156772
0.00279275
0.0471945
0.0296156
0.0434477
0.0290698
0.0203101
0.0190995
0.0312547
0.0213686
0.0183326
0.0298722
0.0209429
0.00965339
0.0144325
0.0134566
0.0202901
0.0179563
0.0290769
0.0206091
0.00933138
0.0138875
0.013278
0.0396114
0.0249321
0.0366039
0.0243106
0.0169775
0.0160239
0.0260069
0.0229056
0.0381938
0.0354386
0.0236467
0.0156645
0.0148067
0.0252618
0.00152731
0.0148766
0.0116171
0.00339834
0.000447578
0.00214135
0.00031144
0.0235055
0.0205527
0.0334696
0.0230288
0.0103711
0.0155659
0.0147417
0.0219038
0.0192555
0.0314677
0.0224853
0.0100529
0.0150814
0.0143826
0.00750464
0.0120946
0.0122324
0.00593757
0.00597911
0.00928846
0.00462209
0.0177558
0.0199226
0.0284862
0.0194938
0.00889427
0.0131765
0.0126844
0.0497174
0.0301041
0.0458903
0.030503
0.0204814
0.0192601
0.0327418
0.000433948
0.0187092
0.00381325
0.00153607
0.000289865
0.00963728
0.00232015
0.0515987
0.0299956
0.0476474
0.0306045
0.019858
0.0186618
0.0328667
0.00105928
0.000608122
0.000201592
0.000514414
0.000234921
3.19171e-05
0.000342233
0.0184657
0.017526
0.0278324
0.0190157
0.00826364
0.0122133
0.0124098
0.0239308
0.0219955
0.0355731
0.0242758
0.0104608
0.0157072
0.015607
0.00957018
0.0153593
0.0161567
0.00732606
0.00766518
0.0117613
0.00569034
0.000354224
0.00552623
0.00166723
0.000248897
4.93374e-05
0.000788914
0.000249004
0.00384771
0.0017738
0.00175626
0.00311498
0.00309137
0.00246977
0.00136599
0.000310546
0.0026852
0.00140616
0.000242877
4.25803e-05
0.000734839
0.000202584
0.000199452
0.000706047
0.000607001
0.000201766
2.95689e-05
0.000523336
0.000342659
0.00403946
0.0017987
0.00323176
0.00180479
0.0032923
0.00259263
0.00139638
0.00958863
0.00378946
0.00481759
0.00543244
0.00731179
0.00373774
0.0028284
0.00941953
0.00364685
0.00473001
0.00526643
0.00722546
0.00369352
0.00274341
0.00116738
0.00243486
0.00181817
0.00156579
0.00113367
0.00101836
0.000712206
0.00141295
0.00136263
0.00122409
0.000803672
0.000894426
0.000765469
0.000490731
0.000303207
0.00296126
0.00168746
0.000195185
3.89675e-05
0.000764177
0.000241321
0.0106403
0.00404994
0.00523737
0.00577763
0.00792802
0.00398868
0.00296068
0.000671303
0.000486992
0.000273262
0.000558618
0.000160331
0.00021021
2.29562e-05
0.0188729
0.0126383
0.0125456
0.00737351
0.0120095
0.0119199
0.0200782
0.0173487
0.0118403
0.011561
0.00693141
0.0112509
0.0109962
0.0184691
0.0239653
0.0231819
0.0371459
0.0243858
0.0101439
0.0152306
0.0157098
0.0100107
0.00385214
0.00498967
0.00562674
0.00775154
0.00392113
0.00291054
0.0181217
0.0123529
0.0121036
0.0117333
0.0114955
0.00722932
0.00752956
0.00385903
0.00167896
0.00303552
0.0016548
0.00302943
0.00234497
0.00125846
0.00933281
0.00358879
0.00465989
0.00502528
0.00692119
0.00351686
0.00260903
0.00241253
0.00157526
0.00113645
0.00153151
0.00109482
0.000981179
0.000680169
0.0165394
0.0112293
0.0106943
0.0108247
0.0103201
0.00649418
0.00674369
0.00924345
0.0033353
0.00458411
0.00466265
0.0067755
0.00343273
0.00240549
0.000114868
0.00227814
0.000591675
0.00129814
0.000191783
0.000182843
2.30282e-05
0.000152488
0.000909901
0.000320016
7.75315e-05
1.78813e-05
0.000405361
0.000172693
0.0153686
0.00630909
0.00692866
0.0068819
0.0100388
0.00996252
0.0102387
0.0141578
0.00594844
0.00654273
0.00641822
0.00942356
0.00922692
0.00949053
0.0154454
0.00984079
0.0103573
0.00584573
0.0098816
0.00939258
0.0163483
0.0147479
0.00678424
0.00666334
0.00980779
0.00961562
0.00618935
0.00442007
0.0192254
0.0126261
0.0119962
0.0125268
0.0118982
0.00720776
0.00750855
0.00125862
0.000790815
0.000513546
0.000712281
0.00105381
0.00160117
0.00108715
0.00410312
0.0113836
0.00824219
0.00580104
0.00836395
0.00414154
0.00294178
0.000829781
0.00129643
0.00210314
0.00151348
0.000961019
0.000893652
0.000557263
0.00913862
0.00626586
0.0089918
0.00606691
0.00869312
0.00559188
0.0040173
0.00118727
0.000749352
0.000495129
0.000697548
0.00105537
0.00153211
0.00101577
0.00357839
0.0024665
0.00467335
0.00188482
0.00369827
0.00276758
0.00140053
0.0104456
0.00691525
0.0100275
0.00684586
0.00994105
0.00616318
0.0043748
0.00107634
0.000782224
0.000497038
0.00069814
0.00104931
0.00144035
0.00101293
0.00108457
0.000668348
0.000436312
0.000942744
0.000637236
0.00144929
0.000978769
0.0127235
0.00553459
0.0050421
0.00582068
0.00833409
0.00792646
0.00860094
0.0191331
0.0119476
0.0123263
0.00675773
0.0113441
0.0117042
0.020355
0.0019567
0.00137985
0.00249544
0.00193368
0.000782709
0.00146718
0.00104718
0.00101133
0.00244403
0.00187908
0.00190901
0.000756639
0.00142158
0.00103221
0.000741475
0.00109802
0.00148876
0.00111162
0.000752216
0.000818674
0.000526264
0.000189234
0.000592616
0.000315269
0.000957954
0.000528106
0.000608444
0.000326232
0.000246114
0.000753336
0.000448962
0.000744868
0.000418914
0.000700503
0.00121667
0.000374571
0.000328026
0.000608866
0.000537011
0.000965625
0.000613101
0.000330043
0.00017179
0.00531659
0.00136655
9.6859e-05
1.7457e-05
0.000628383
0.000173253
0.0120389
0.00408189
0.00580062
0.00559688
0.00841608
0.00414629
0.00280362
0.000596075
0.00093065
0.000515072
0.000356383
0.000573193
0.000306298
0.000185096
2.89324e-05
4.8676e-05
0.000192373
0.000117915
8.68897e-06
5.14377e-06
3.06553e-07
1.39691e-05
0.000208807
5.07583e-05
0.000103021
3.65418e-06
7.48705e-06
2.30681e-07
0.00399028
0.00397402
0.0057157
0.00294288
0.00141884
0.00208987
0.00209057
0.00139707
0.00203137
0.00263138
0.00201847
0.000778552
0.00150279
0.00106153
0.00197955
0.0013941
0.00255679
0.00200086
0.000790739
0.00149768
0.0010644
0.00380668
0.00373872
0.00535023
0.00278822
0.00137386
0.00201996
0.00198446
0.000689796
0.000746874
0.00119407
0.000410095
0.000725833
0.000442006
0.000242959
0.014065
0.0092651
0.00884589
0.00859336
0.00820924
0.00503661
0.00521887
0.00286987
0.00392895
0.0038692
0.00207512
0.00204977
0.00263457
0.00141536
0.0010109
0.00108483
0.00146408
0.00109939
0.000726862
0.000811936
0.000506707
0.000472015
0.000784449
0.00107028
0.000661806
0.00105816
0.00143654
0.000956251
0.000268302
0.000264716
0.00043857
0.000484605
0.000767524
0.00048042
0.000295511
0.000438593
0.00103808
0.000652699
0.000403561
0.000647967
0.000435307
0.000259177
0.000246519
0.000143245
8.91112e-05
1.6246e-05
1.05164e-05
8.90996e-07
9.46539e-06
0.000404334
0.000662118
0.00116155
0.000688762
0.000381302
0.000417155
0.00022621
8.03419e-05
2.16529e-05
0.000121004
5.63402e-05
1.8654e-06
2.22106e-06
7.67193e-08
0.0156027
0.00576504
0.00648997
0.00671349
0.00946549
0.00977085
0.0103851
0.00129102
0.00184091
0.00238087
0.00179443
0.000706652
0.00134246
0.000951449
0.00516155
0.00365209
0.00353632
0.00193686
0.00187219
0.00240359
0.00129244
4.49726e-05
0.00260871
0.000421729
0.000265349
3.19695e-05
0.00169585
0.00030135
0.00763945
0.00441809
0.00733553
0.00439708
0.00263284
0.0025773
0.00453418
4.64784e-05
0.00251521
0.000378313
0.000300858
3.33583e-05
0.00164682
0.000271714
0.0070064
0.0041355
0.00674023
0.00398678
0.00242857
0.00238078
0.0041014
0.000124196
1.46948e-05
0.000141667
7.15841e-06
7.17024e-07
6.58525e-05
1.01312e-05
5.17657e-06
0.00027842
9.87505e-05
1.80343e-06
1.16449e-07
3.18146e-05
4.39956e-06
3.05828e-05
4.09417e-06
0.000214516
1.14251e-06
5.12094e-08
1.90495e-05
2.08648e-06
0.00098059
0.000400173
0.000683759
0.000380997
0.000629057
0.000421751
0.000243445
0.000707801
0.000642937
0.00101422
0.000390138
0.000622186
0.000415525
0.000249615
0.000845428
0.000309702
0.00054015
0.000259353
0.000457134
0.000285584
0.000157666
0.000711054
0.000248997
0.000454252
0.000231559
0.000427311
0.000266496
0.000140272
0.00738208
0.00424641
0.00708911
0.0043336
0.00257661
0.00252176
0.00446884
0.0078691
0.00521002
0.00746784
0.00483687
0.00693629
0.00434357
0.00310837
0.000952528
0.000643721
0.00102022
0.00138402
0.00099159
0.00072845
0.000452645
0.00321668
0.00339
0.00485795
0.00251524
0.00115309
0.00178982
0.00169152
0.00140007
0.00272197
0.00203934
0.00203954
0.000744148
0.00146959
0.00103046
0.000961983
0.000330716
0.000599655
0.000294609
0.000545561
0.000332707
0.000176418
0.00763101
0.00437927
0.00732741
0.00428237
0.0025421
0.00249063
0.00441391
0.0176038
0.0112665
0.0107061
0.0101761
0.00969546
0.00579059
0.00601914
0.00580742
0.0039719
0.0039185
0.00207018
0.00203066
0.00257375
0.00135733
3.08182e-05
0.00199841
0.000242646
0.000251446
2.1333e-05
0.00131995
0.000171969
0.000782005
0.000520377
0.000363294
0.000369807
0.000528855
0.00035136
0.000233553
0.000111099
7.77999e-05
0.000105066
4.46616e-06
1.10291e-05
8.45688e-06
4.15279e-07
0.000874502
0.00230842
0.00168108
0.0017412
0.000634658
0.00122478
0.000914803
0.000595067
0.000943022
0.000564606
0.000367879
0.000352556
0.000393646
0.000221271
0.000881831
0.0005295
0.00033666
0.000373588
0.000603068
0.000344257
0.000210713
0.0038595
0.00447553
0.00627747
0.00384174
0.001713
0.00229182
0.00281317
0.00371601
0.00434602
0.00607507
0.00378831
0.001682
0.00224411
0.0027784
0.00642466
0.00356547
0.00619158
0.00379427
0.00216424
0.00212617
0.00389947
0.00362424
0.00415777
0.00579416
0.00349949
0.00159557
0.00212413
0.00257635
0.00313656
0.00383691
0.00533774
0.00333515
0.0014295
0.00190191
0.00245674
0.0144168
0.00613007
0.00894334
0.00559237
0.00813376
0.00494462
0.00347198
0.000350561
0.000538308
0.000328508
0.000216397
0.000333813
0.000483748
0.000740477
2.59088e-05
0.00215145
0.000342082
0.000155216
1.69711e-05
0.001378
0.000242411
0.00731909
0.00394959
0.00702416
0.00413862
0.002311
0.00226469
0.00426621
0.000102455
3.99176e-05
7.72605e-06
2.07888e-06
1.89588e-07
3.57503e-05
5.81301e-06
0.000775602
0.000452518
0.000285794
0.000280414
0.000508425
0.000313125
0.00017157
0.0036789
0.00382504
0.00574246
0.00289441
0.00122536
0.00187807
0.00196847
0.00382551
0.00445729
0.00626872
0.00374001
0.00165087
0.00221527
0.00272583
0.00064018
0.00104853
0.00143457
0.00103783
0.000616858
0.000753672
0.000432809
2.41222e-05
0.000438257
0.000130165
1.6994e-05
2.07219e-06
0.000152814
1.80307e-05
0.000139917
0.000126762
2.06457e-05
0.00010396
1.74384e-05
1.64582e-06
1.3196e-05
0.00150458
0.000735568
0.00055629
0.000564257
0.0010735
0.00108021
0.000787444
0.00144709
0.000720508
0.00055772
0.000547142
0.00105426
0.0010353
0.000772243
0.00344163
0.00424687
0.00599983
0.00361155
0.00149043
0.00201127
0.0026254
0.00566448
0.00331058
0.00546345
0.00303185
0.00181831
0.00178843
0.00311051
0.000826707
0.000371368
0.00053124
0.000436722
0.000603953
0.000369804
0.000255313
0.000803522
0.000578888
0.000351735
0.000420797
0.000594186
0.000363126
0.0002451
0.00148428
0.000566552
0.000564108
0.00107756
0.00106815
0.000740256
0.000387973
0.000822108
0.000367956
0.00052022
0.000435706
0.000601127
0.000360224
0.000251293
0.000326831
0.000480257
0.000727992
0.000345005
0.000501151
0.000329704
0.000214608
0.00443475
0.0030184
0.00279222
0.0015787
0.0014508
0.00183551
0.000966135
0.278526
0.117188
0.0451904
0.0191101
0.00678519
0.00197621
0.003301
0.152036
0.394225
0.260157
0.0956818
0.0502217
0.151233
0.0832642
0.360011
0.350758
0.316652
0.35493
0.321535
0.278123
0.310235
0.0234882
0.0752757
0.0388474
0.00883941
0.00379033
0.0189868
0.00823687
0.265855
0.124315
0.227091
0.129198
0.232829
0.196332
0.105493
0.00264794
0.0159072
0.00656758
0.00405824
0.00124108
0.0119061
0.00429864
0.0436311
0.216904
0.109137
0.0402003
0.0187214
0.0681795
0.0372507
0.305376
0.230767
0.27292
0.235728
0.221368
0.195865
0.265101
0.316179
0.249915
0.284727
0.242114
0.233929
0.208522
0.271218
0.177169
0.110926
0.203375
0.169434
0.0773125
0.145671
0.0901113
0.159142
0.101775
0.191209
0.163429
0.0701318
0.134511
0.0860057
0.0402822
0.0599971
0.0629716
0.0313637
0.032997
0.0500945
0.0256584
0.0254291
0.0142667
0.0194124
0.0147933
0.0203194
0.0154482
0.0110217
0.201538
0.191293
0.185369
0.135129
0.169961
0.16414
0.22708
0.191598
0.180506
0.176883
0.159488
0.156155
0.127056
0.14351
0.014223
0.0117987
0.0121114
0.0104287
0.0106059
0.00887243
0.00765464
0.00976469
0.0316755
0.00879658
0.00294119
0.00138888
0.00486075
0.00291733
0.0480779
0.0196396
0.0246658
0.0325591
0.0401917
0.020235
0.0161981
0.0531169
0.0226043
0.0272021
0.0360127
0.0422737
0.0212022
0.0177046
0.139352
0.0942602
0.0623871
0.0593525
0.118084
0.11317
0.0731488
0.131151
0.0571926
0.0558769
0.109462
0.107017
0.0879179
0.046567
0.000932866
0.0104124
0.00359454
0.00153626
0.000217601
0.00359736
0.0010879
0.0130511
0.00854626
0.00946661
0.00854755
0.00954559
0.00679258
0.00599891
0.147302
0.104554
0.130597
0.101243
0.0873793
0.0784932
0.113689
0.0130358
0.0114597
0.0162504
0.0123545
0.00654865
0.00995077
0.00849511
0.0116748
0.0108058
0.0149721
0.0119172
0.00632886
0.00932934
0.00830891
0.140839
0.0971403
0.124671
0.0987337
0.0831612
0.074545
0.110971
0.0289748
0.0275663
0.0339784
0.0168008
0.0113962
0.0141053
0.0135219
0.0158406
0.0266036
0.0260419
0.0131401
0.0129246
0.0218755
0.0107675
0.00082755
0.0029543
0.00150276
0.000828733
0.000232759
0.00203559
0.00136049
0.00879501
0.00561144
0.00765903
0.00486482
0.00655282
0.0055487
0.00402424
0.0738905
0.0480624
0.0906089
0.0712964
0.0318292
0.0566522
0.0387048
0.0684322
0.0457463
0.0862787
0.0694518
0.0302147
0.0536948
0.0377171
0.00911594
0.00561044
0.00777948
0.00489235
0.00661276
0.00553784
0.00395138
0.145705
0.0182985
0.00887428
0.387193
0.254094
0.0841627
0.256525
0.139319
0.0817479
0.0455875
0.352836
0.342158
0.343197
0.309195
0.308882
0.265887
0.29756
0.0714406
0.0395064
0.0109077
0.0381367
0.0214912
0.00822649
0.00374885
0.259003
0.121218
0.119875
0.220666
0.221615
0.186325
0.0991546
0.0156309
0.00572476
0.00353209
0.00779715
0.00211057
0.00303542
0.0020526
0.297309
0.226683
0.266442
0.225369
0.21219
0.188233
0.253547
0.298994
0.227338
0.266777
0.225544
0.213875
0.188896
0.254326
0.03793
0.0582656
0.0573984
0.029993
0.0304541
0.0467971
0.0240872
0.1009
0.158461
0.188026
0.156233
0.0683329
0.130102
0.0822145
0.098714
0.156521
0.186278
0.155558
0.0672431
0.129306
0.0814025
0.0240973
0.0141611
0.0140195
0.0187548
0.0189985
0.0147532
0.0107861
0.187817
0.173732
0.174644
0.123482
0.154274
0.153789
0.212342
0.0142245
0.0118924
0.0117965
0.0105828
0.0106574
0.00889413
0.00783322
0.0478077
0.0199852
0.024585
0.0318683
0.0384641
0.0195056
0.0159375
0.0465069
0.0193422
0.0239396
0.0312781
0.0380126
0.0193003
0.0156876
0.128985
0.0557295
0.0857069
0.0553982
0.105893
0.106045
0.0673059
0.0122514
0.00893068
0.00972676
0.00979045
0.0132521
0.00707472
0.00634528
0.00836864
0.0149942
0.0118644
0.0116505
0.00633996
0.00925045
0.00827498
0.0107387
0.0115697
0.0146767
0.011563
0.00631474
0.00915816
0.00823961
0.0260353
0.0258584
0.031345
0.0157189
0.0106148
0.0128546
0.01292
0.00786985
0.00895977
0.00668392
0.00492586
0.00664629
0.00571667
0.00411359
0.00567927
0.00660728
0.0088561
0.00492888
0.00663349
0.00571424
0.00412911
0.00739614
0.0083182
0.00733927
0.00584813
0.00576341
0.005082
0.00394142
0.00301144
0.00440294
0.0050374
0.00635167
0.00709371
0.00504775
0.00442654
0.00355341
0.00438929
0.00500987
0.00630855
0.00703818
0.00505056
0.00443229
0.00956414
0.00614021
0.0049425
0.0048827
0.00775009
0.00753099
0.00639602
0.0047831
0.00597253
0.0068327
0.00477872
0.00273917
0.00329696
0.00410531
0.004926
0.00609534
0.00685139
0.00483474
0.00290326
0.00342765
0.00419178
0.0762192
0.0628844
0.061336
0.0399661
0.057005
0.0555214
0.0849793
0.00631252
0.00733298
0.00920542
0.00486332
0.00740099
0.00593331
0.00376369
0.0048582
0.00485318
0.00587591
0.00730928
0.00732455
0.00917031
0.00631993
0.0225193
0.00928698
0.0110144
0.015506
0.0184523
0.00903349
0.007579
0.0106385
0.021539
0.0178486
0.0148101
0.0180349
0.00887278
0.0073061
0.0548918
0.0305703
0.0247397
0.0241067
0.0422776
0.0411418
0.0308332
0.0035783
0.00359053
0.00485166
0.00396963
0.00201016
0.00280917
0.00285566
0.00408787
0.0036504
0.00490126
0.00362198
0.00291105
0.0026997
0.00209554
0.00296807
0.00270504
0.00365855
0.00295157
0.00364524
0.00493249
0.00413298
0.00274953
0.00519789
0.00405182
0.00235784
0.00348637
0.0026575
0.00175681
0.00582275
0.00246861
0.00405013
0.00240411
0.00396905
0.00268345
0.00160553
0.00500657
0.00246188
0.00384358
0.00218306
0.00338406
0.00255876
0.00159843