/*--------------------------------*- C++ -*----------------------------------*\
  =========                 |
  \\      /  F ield         | OpenFOAM: The Open Source CFD Toolbox
   \\    /   O peration     | Website:  https://openfoam.org
    \\  /    A nd           | Version:  9
     \\/     M anipulation  |
\*---------------------------------------------------------------------------*/
FoamFile
{
    format      ascii;
    class       volScalarField;
    location    "0.00295";
    object      rho;
}
// * * * * * * * * * * * * * * * * * * * * * * * * * * * * * * * * * * * * * //

dimensions      [1 -3 0 0 0 0 0];

internalField   nonuniform List<scalar> 
28759
(
0.433257
0.412212
0.578487
0.55827
0.979757
0.829698
1.376
0.485947
0.355275
0.412929
0.395464
0.469457
0.464486
0.54965
0.482032
0.3732
0.404706
0.503473
0.564422
0.430008
0.473524
0.360658
0.367225
0.372962
0.372816
0.378882
0.391686
0.38508
0.474379
0.702231
0.83222
0.610544
0.624424
0.776424
0.942601
0.643109
0.494203
0.542349
0.87677
0.983486
0.700735
0.802543
0.378915
0.382157
0.388279
0.392107
0.398629
0.408328
0.401238
0.374344
0.429246
0.388198
0.435648
0.394183
0.40846
0.451983
0.392034
0.442992
0.402745
0.452677
0.412707
0.423941
0.466173
0.380548
0.402545
0.386777
0.406534
0.415372
0.423892
0.399104
0.420579
0.391577
0.398622
0.412526
0.427031
0.436395
0.404648
0.392542
0.412268
0.399246
0.420126
0.425654
0.434656
0.41219
0.891044
0.9243
1.19879
0.947627
1.10376
1.14309
1.22773
0.543485
0.492906
0.501205
0.566229
0.57716
0.518918
0.598751
1.15302
0.76102
0.89099
1.28682
1.36112
0.956493
1.19545
0.439085
0.459705
0.415507
0.430784
0.504356
0.456183
0.476713
0.446335
0.420314
0.403426
0.424548
0.488839
0.442901
0.469545
1.03112
0.954374
0.924756
0.770002
0.943931
1.16618
1.02161
1.37598
0.411959
0.441794
0.419428
0.430002
0.444602
0.454245
0.421685
0.429556
0.457379
0.415142
0.437303
0.499343
0.453292
0.481604
0.566674
0.509848
0.520973
0.586951
0.601195
0.536333
0.620864
0.714379
0.775969
0.710098
0.659505
0.715328
0.77342
0.840297
0.458723
0.476697
0.434617
0.447002
0.520335
0.47313
0.491571
0.429121
0.445604
0.439197
0.48017
0.449041
0.45589
0.420197
0.635402
0.606974
0.66646
0.718656
0.649183
0.677185
0.754104
0.588348
0.530037
0.51121
0.556941
0.536958
0.619899
0.642502
0.52878
0.647937
0.611718
0.577403
0.546518
0.632616
0.669488
0.525746
0.627082
0.607146
0.570967
0.552637
0.640578
0.661367
0.448444
0.525116
0.50143
0.516631
0.469251
0.476551
0.495433
0.443388
0.460229
0.45038
0.49321
0.470907
0.460746
0.43407
0.635075
0.734182
0.661281
0.756576
0.679558
0.705721
0.789582
0.548385
0.673588
0.636339
0.597043
0.564693
0.656093
0.695127
0.766204
0.773206
0.720476
0.785097
0.850958
0.830088
0.907989
1.56064
1.41393
1.1044
1.57439
1.44168
1.40834
1.67014
0.462201
0.514938
0.540243
0.528909
0.491404
0.48089
0.508872
0.860328
0.874353
0.789823
1.03559
0.946142
0.853202
0.933068
1.01063
0.843029
0.918174
0.836992
0.770516
0.842481
0.917571
0.851327
0.783013
0.865341
0.942771
1.0311
0.850062
0.926172
0.738798
0.693322
0.664211
0.705086
0.827413
0.733821
0.790242
0.820854
0.804569
0.831027
0.875492
0.906811
0.873181
0.960229
0.599062
0.588096
0.565779
0.654253
0.721172
0.679008
0.693306
0.895229
0.968135
0.82829
0.995194
0.919026
0.989244
1.07872
0.740395
0.773711
0.693568
0.721049
0.867658
0.767761
0.809126
0.714697
0.76799
0.688067
0.732001
0.858088
0.758561
0.823497
0.618305
0.604159
0.583031
0.677045
0.74617
0.719008
0.700603
0.774812
0.814855
0.725956
0.751999
0.910804
0.801713
0.848112
0.883915
1.03264
0.949521
1.07795
0.987009
1.05303
1.15706
0.860016
0.888
0.812494
0.922836
0.875677
0.965189
1.02343
1.132
1.02043
0.929069
1.12402
1.24444
1.13141
1.01994
1.05054
1.05146
0.946298
1.14808
1.2699
1.14249
1.03011
1.01638
1.03084
0.951056
1.03997
1.11413
1.12883
1.2105
1.13428
1.12138
1.25184
1.03233
1.13348
0.929066
1.01543
0.748637
0.903783
0.828763
0.882323
0.778457
0.796425
0.844964
0.852919
1.0208
0.934137
0.968982
0.897382
0.989812
1.07549
0.847458
0.983993
0.929834
0.959361
0.915636
1.0128
1.06621
0.903591
1.08914
0.996553
1.02168
0.945056
1.04769
1.13933
0.778568
0.861664
0.946072
0.917731
0.830229
0.806827
0.882399
1.04072
0.966619
1.05287
1.06069
1.25436
1.13253
1.16598
1.225
1.225
1.225
1.225
1.225
1.225
1.225
1.23119
1.225
1.225
1.225
1.225
1.225
1.225
1.89446
1.22589
1.22501
1.225
1.225
1.225
1.225
2.62174
2.71874
1.31515
1.22508
1.225
1.225
1.225
1.23235
1.85626
2.72948
2.17695
1.22554
1.225
1.225
0.588907
0.887055
1.48195
2.40797
2.58056
1.22561
1.225
0.511982
0.759295
1.35518
2.38523
2.28949
1.22512
0.489949
0.756142
1.45529
2.69867
1.376
0.559207
1.08424
2.47465
1.50362
1.225
1.225
1.225
1.225
1.225
1.225
1.225
1.225
1.225
1.225
1.225
1.225
1.225
1.225
1.23861
1.22514
1.225
1.225
1.225
1.225
1.225
2.74445
2.43098
1.24074
1.22501
1.225
1.225
1.225
1.46263
2.09181
2.82002
1.53478
1.22508
1.225
1.225
0.776242
1.07065
1.66654
2.66151
1.96297
1.22509
1.225
0.673279
0.91504
1.53319
2.64136
1.62297
1.22502
0.815888
0.907968
1.63461
2.81241
1.2527
0.735921
1.28558
2.7966
1.23189
1.225
1.225
1.225
1.225
1.225
1.225
1.225
1.225
1.225
1.225
1.225
1.225
1.225
1.225
1.22503
1.22501
1.225
1.225
1.225
1.225
1.225
2.4131
1.27467
1.22514
1.225
1.225
1.225
1.225
2.15103
2.75437
2.43433
1.22811
1.225
1.225
1.225
1.36335
1.7775
2.2629
2.83804
1.23531
1.225
1.225
1.20861
1.45325
2.08127
2.84651
1.22936
1.225
1.23591
1.19817
2.20579
2.58975
1.22527
1.31241
1.38713
1.53794
1.22501
1.225
1.225
1.225
1.225
1.225
1.225
1.225
1.225
1.225
1.225
1.225
1.225
1.225
1.225
1.225
1.225
1.225
1.225
1.225
1.225
1.225
1.22537
1.22504
1.225
1.225
1.225
1.225
1.225
2.84048
1.84152
1.22776
1.22501
1.225
1.225
1.225
1.6744
2.01309
2.82172
1.25591
1.22501
1.225
1.225
1.43623
1.59502
1.84039
2.86081
1.26293
1.22501
1.225
1.24506
1.84444
1.90893
2.84388
1.22994
1.225
1.29038
1.53399
2.25151
1.22505
1.225
1.225
1.225
1.225
1.225
1.225
1.225
1.225
1.225
1.225
1.225
1.225
1.225
1.225
1.225
1.225
1.225
1.225
1.225
1.225
1.225
1.225
1.225
1.225
1.225
1.225
1.225
1.225
1.225
1.22545
1.22507
1.225
1.225
1.225
1.225
1.225
2.78509
1.63848
1.22727
1.22501
1.225
1.225
1.225
2.15218
2.01917
2.55391
1.23415
1.22501
1.225
1.225
1.33327
1.71321
1.94586
2.61167
1.22856
1.225
1.225
1.793
2.16179
1.22506
1.225
1.225
1.225
1.225
1.225
1.225
1.225
1.225
1.225
1.225
1.225
1.225
1.225
1.225
1.225
1.225
1.225
1.225
1.225
1.225
1.225
1.225
1.225
1.225
1.225
1.225
1.225
1.225
1.225
1.225
1.225
1.225
1.225
1.225
1.225
1.225
1.225
1.22581
1.22505
1.225
1.225
1.225
1.225
1.225
2.4529
1.46597
1.2256
1.225
1.225
1.225
1.225
1.57841
1.829
2.47187
1.2258
1.225
1.225
1.225
2.20404
2.40268
2.45462
1.225
1.225
1.225
1.225
1.225
1.225
1.225
1.225
1.225
1.225
1.225
1.225
1.225
1.225
1.225
1.225
1.225
1.225
1.225
1.225
1.225
1.225
1.225
1.225
1.225
1.225
1.225
1.225
1.225
1.225
1.225
1.225
1.225
1.225
1.225
1.225
1.225
1.225
1.225
1.225
1.225
1.225
1.225
1.225
1.225
1.22548
1.22504
1.225
1.225
1.225
1.225
1.225
2.25114
1.2869
1.22516
1.225
1.225
1.225
1.225
2.3389
2.15589
1.22869
1.225
1.225
1.225
1.225
1.225
1.225
1.225
1.225
1.225
1.225
1.225
1.225
1.225
1.225
1.225
1.225
1.225
1.225
1.225
1.225
1.225
1.225
1.225
1.225
1.225
1.225
1.225
1.225
1.225
1.225
1.225
1.225
1.225
1.225
1.225
1.225
1.225
1.225
1.225
1.225
1.225
1.225
1.225
1.225
1.225
1.225
1.225
1.225
1.225
1.225
1.225
1.225
1.22503
1.22501
1.225
1.225
1.225
1.225
1.225
1.22502
1.22517
1.225
1.225
1.225
1.225
1.225
1.225
1.225
1.225
1.225
1.225
1.225
1.225
1.225
1.225
1.225
1.225
1.225
1.225
1.225
1.225
1.225
1.225
1.225
1.225
1.225
1.225
1.225
1.225
1.225
1.225
1.225
1.225
1.225
1.225
1.225
1.225
1.225
1.225
1.225
1.225
1.225
1.225
1.225
1.225
1.225
1.225
1.225
1.225
1.225
1.225
1.225
1.225
1.225
1.225
1.225
1.225
1.225
1.225
1.225
1.225
1.225
1.225
1.225
1.225
1.225
1.225
1.225
1.225
1.225
1.225
1.225
1.225
1.225
1.225
1.225
1.225
1.225
1.225
1.225
1.225
1.225
1.225
1.225
1.225
1.225
1.225
1.225
1.225
1.225
1.225
1.225
1.225
1.225
1.225
1.225
1.225
1.225
1.225
1.225
1.225
1.225
1.225
1.225
1.225
1.225
1.225
1.225
1.225
1.225
1.225
1.225
1.225
1.225
1.225
1.225
1.225
1.225
1.225
1.225
1.225
1.225
1.225
1.225
1.225
1.225
1.225
1.225
1.225
0.672796
0.419259
0.491436
0.594904
0.752297
0.491861
0.569214
0.660545
0.420735
0.500485
0.567129
0.736549
0.484588
0.580077
0.650632
0.436034
0.515422
0.509693
0.739531
0.591432
0.824132
0.785764
0.457355
0.524867
0.685347
0.881614
0.533854
0.610466
0.412446
0.432503
0.434892
0.442053
0.444431
0.469325
0.459339
0.828359
0.561192
0.642431
1.02526
1.20304
0.838
0.966447
0.634853
0.639742
0.809645
0.654917
0.960962
1.17296
0.923526
0.427929
0.437283
0.447027
0.442762
0.452836
0.476015
0.46528
0.591473
1.03741
0.894751
0.668175
0.905301
1.01042
1.30141
0.43946
0.507504
0.510743
0.46167
0.464325
0.490146
0.536515
0.446445
0.513098
0.466643
0.51981
0.472639
0.496659
0.544146
0.445834
0.454356
0.465049
0.465611
0.476707
0.501436
0.490078
0.971976
0.613146
0.767842
1.19975
1.39692
0.979121
1.05826
1.02205
1.51962
1.37673
1.28628
1.49774
1.5534
2.18559
1.05757
1.39979
1.69301
1.35833
1.51533
1.52947
2.26803
1.36755
1.41494
0.989724
1.66323
2.0435
1.24418
1.43366
0.466133
0.53619
0.486318
0.549803
0.498658
0.524175
0.575192
0.467248
0.472449
0.48337
0.487388
0.498387
0.520935
0.509652
1.52461
1.13122
1.32432
2.04441
2.45474
1.42792
1.65426
1.16479
0.532125
0.747226
0.838373
1.25222
0.609267
0.823583
0.457661
0.499916
0.467585
0.500815
0.531971
0.541646
0.490823
0.460582
0.501643
0.47097
0.505958
0.535261
0.545423
0.495408
0.486234
0.553915
0.504311
0.570246
0.519912
0.54467
0.596426
0.551218
0.576177
0.580417
0.663397
0.668941
0.60811
0.700439
1.23016
0.550352
0.830984
0.833126
1.31858
0.583105
0.913816
0.463229
0.510927
0.47353
0.504404
0.540758
0.550691
0.494321
0.648441
0.583705
0.592549
0.673632
0.685363
0.618124
0.713935
1.30679
0.566125
0.778158
0.980521
1.39963
0.601302
0.859382
0.472392
0.523026
0.48339
0.513013
0.55198
0.562864
0.502202
0.521252
0.534323
0.488248
0.522294
0.608723
0.563318
0.568171
0.532714
0.541578
0.494438
0.525998
0.619063
0.572703
0.572404
0.478315
0.520505
0.489407
0.533432
0.564061
0.574844
0.522275
0.571061
0.505048
0.516523
0.550087
0.60578
0.617156
0.538555
1.18716
0.635675
0.674467
0.874556
1.51578
0.961124
1.6133
0.545698
0.552894
0.504465
0.534911
0.634282
0.585826
0.582953
0.52287
0.538166
0.491413
0.527356
0.613554
0.567252
0.574439
0.687704
0.61308
0.629865
0.711416
0.732962
0.655234
0.75994
0.560827
0.542822
0.511287
0.556602
0.646838
0.597931
0.606722
0.494386
0.536203
0.505601
0.552862
0.584531
0.595964
0.541226
1.67959
0.678828
0.944679
1.35051
1.79488
0.782238
1.04472
0.528524
0.60091
0.54017
0.573837
0.638353
0.650305
0.561966
1.0089
1.08377
1.32407
1.16409
1.3609
1.86629
1.30006
0.59679
0.592975
0.540411
0.574395
0.695685
0.642715
0.626261
0.559884
0.578808
0.528205
0.577792
0.673322
0.621301
0.630007
0.715616
0.634824
0.653935
0.740204
0.764313
0.680776
0.793108
1.33647
0.682322
0.897674
1.29297
1.72024
1.02228
1.26646
0.724113
0.858668
0.867059
0.75874
0.765743
0.802944
0.911532
1.40382
0.809241
0.994773
1.28004
1.78993
1.05987
1.38989
1.35846
1.12142
1.09027
1.51307
1.91445
1.27796
1.29329
0.741967
0.875626
0.772243
0.894087
0.787346
0.820598
0.933596
0.605404
0.735909
0.697065
0.68148
0.640863
0.737123
0.780431
0.614433
0.75418
0.70846
0.693202
0.645864
0.743155
0.794031
1.12199
0.930115
1.0167
1.03363
1.13531
1.13477
1.2528
1.06259
1.09559
1.05863
1.1383
1.17731
1.1733
1.26053
1.48906
0.839971
0.938238
1.49141
1.89046
1.10634
1.32424
0.629006
0.777982
0.728102
0.711727
0.659117
0.760513
0.817019
1.16636
1.37181
1.467
1.14136
1.46454
1.43458
2.0574
0.552305
0.604736
0.593937
0.682471
0.614975
0.603828
0.541757
0.544481
0.587489
0.593034
0.669623
0.596819
0.602465
0.534771
0.628909
0.618091
0.565074
0.600228
0.736445
0.679047
0.654389
0.610496
0.739443
0.703912
0.687533
0.648871
0.747643
0.788095
0.541923
0.587788
0.585773
0.597374
0.595153
0.665472
0.656274
0.790547
0.930639
0.819025
0.962453
0.845863
0.876922
0.999911
0.638016
0.770298
0.738389
0.724638
0.685884
0.79157
0.830458
0.965336
1.05362
1.15817
1.08511
1.19554
1.18274
1.30842
0.560718
0.602966
0.612656
0.617935
0.627968
0.69584
0.686358
0.676072
0.85026
0.785573
0.779481
0.708306
0.818093
0.892806
1.72051
0.93557
1.22712
1.04555
1.70492
1.45111
2.13362
1.56892
1.18641
1.34732
1.95453
2.22837
1.48452
1.62305
0.574545
0.704843
0.68559
0.672618
0.63783
0.626056
0.621784
0.566264
0.691041
0.663603
0.6699
0.618428
0.624251
0.611908
0.593443
0.665195
0.638466
0.749606
0.648848
0.675885
0.582302
0.563618
0.664904
0.661978
0.619215
0.616786
0.686989
0.73257
0.577315
0.620535
0.631124
0.641607
0.652513
0.724862
0.714546
1.11374
1.24131
1.32257
1.19154
1.12481
1.01929
1.08888
0.800158
0.660291
0.691511
0.756421
0.714056
0.82711
0.86909
1.2794
1.18644
1.04378
1.15254
1.25218
1.3198
1.42733
0.630567
0.681337
0.634786
0.698499
0.65066
0.717882
0.765156
1.11311
1.23634
1.31469
1.18275
1.08406
1.01673
1.11804
0.857305
0.943671
0.828115
1.01724
0.888147
0.920835
1.0555
0.651328
0.704251
0.654902
0.729025
0.677557
0.749092
0.80005
0.989914
1.062
1.18927
1.13149
1.01456
0.942941
1.04594
1.21098
1.34728
1.41758
1.20935
1.26887
1.09695
1.15964
0.617591
0.752512
0.773299
0.721989
0.672414
0.700678
0.668332
0.619668
0.703337
0.668642
0.7968
0.714926
0.679855
0.608026
0.844809
0.906684
0.798837
0.846115
1.02018
0.895683
0.962397
0.986893
0.812909
0.866746
0.853336
1.03866
0.911593
0.970899
1.08393
0.972234
0.909708
0.9625
1.07289
1.02565
1.14781
1.46573
1.2679
1.35549
1.14482
1.22704
1.24341
1.33116
1.52667
1.24782
1.39358
1.26163
1.38996
1.25031
1.12969
1.3509
1.32055
1.23273
1.20565
1.1241
1.23207
1.31985
1.90283
0.877947
1.14058
1.94042
2.42743
1.32525
1.5743
0.705378
0.899203
0.822706
0.827396
0.741721
0.859552
0.949911
1.24546
1.14733
1.2297
1.3791
1.27146
1.35906
1.46871
1.81262
1.66132
1.44865
1.65751
2.3379
2.22674
2.53935
1.99531
1.52595
1.70931
1.74349
2.36856
2.42762
2.52152
0.762064
0.747231
0.69725
0.799836
0.932809
0.867039
0.849882
0.95568
0.897678
0.838728
0.875817
1.07393
0.940381
0.998745
0.849299
0.917791
0.807742
0.859619
1.03184
0.905281
0.979032
0.736211
0.743211
0.685046
0.784505
0.910682
0.836459
0.844361
1.25165
1.24841
1.13078
1.39228
1.26342
1.39476
1.52833
0.647247
0.699293
0.710274
0.742811
0.754106
0.838209
0.827492
0.781646
0.7382
0.73458
0.839221
0.834778
0.805718
0.906737
1.03927
1.00446
0.935977
0.982888
1.09675
1.05218
1.17902
1.24578
1.11059
1.03201
1.1915
1.06524
0.987909
1.09949
1.29722
1.30857
1.19592
1.18718
1.09148
1.19765
1.29994
1.38416
1.12816
1.24676
1.36531
1.24667
1.38434
1.52465
1.48613
1.63059
1.71648
2.11059
2.37541
2.87823
2.44759
1.4196
1.30425
1.17979
1.33463
1.46547
1.45784
1.59
1.5519
1.85247
1.5035
1.72897
2.41753
2.40657
2.22167
0.646637
0.824305
0.801054
0.760753
0.743433
0.706511
0.70113
0.968265
0.886462
0.850246
0.912333
1.08919
0.954618
1.04114
0.706268
0.755965
0.775008
0.858785
0.880197
0.841021
0.945404
2.11664
0.886984
1.36434
1.57732
2.24426
0.968911
1.45693
0.661624
0.768664
0.671033
0.757625
0.8679
0.87726
0.748463
2.06243
0.864331
1.40799
1.44716
2.18095
0.942946
1.50033
0.670368
0.765166
0.679597
0.781666
0.879888
0.889144
0.772476
1.70224
2.17365
1.62433
2.61896
2.88996
1.91635
2.39949
2.62416
1.53294
1.7519
2.48378
2.40388
1.8407
2.29367
1.83363
2.29014
1.38249
2.42192
2.08936
2.13691
2.41092
1.15362
1.43146
1.2749
1.39167
1.26014
1.40027
1.55618
1.27302
1.26048
1.1527
1.39423
1.28709
1.4309
1.5577
1.22111
1.46626
1.31195
1.45317
1.3053
1.39892
1.55129
1.13674
1.33452
1.22286
1.3719
1.25907
1.35067
1.46543
0.656012
0.756168
0.665076
0.753718
0.857485
0.866633
0.744706
0.730057
0.791231
0.736605
0.840058
0.782151
0.864849
0.921725
1.11166
1.20831
1.04538
1.00041
1.08209
1.12794
1.26349
0.834767
0.801015
0.74885
0.858133
1.0158
0.909217
0.946654
1.01675
0.889087
0.925022
0.957858
1.14647
1.00191
1.09774
1.29357
1.53582
1.40122
1.61635
1.4805
1.59582
1.72961
0.690347
0.787772
0.700332
0.81536
0.916583
0.926353
0.805469
0.691085
0.748895
0.760882
0.810404
0.822644
0.916567
0.904705
0.731321
0.78315
0.811055
0.8911
0.922728
0.881458
0.992159
2.33728
0.989671
1.68594
1.54811
2.48232
1.07541
1.78693
1.11631
1.20574
1.34296
1.32963
1.19367
1.2819
1.43327
1.91446
1.8096
1.85628
2.83027
2.36466
2.52166
2.87307
1.1235
0.908511
0.982362
0.944256
1.1722
1.02654
1.07879
1.32597
1.22433
1.37719
1.53904
1.4749
1.47723
1.65318
1.22568
1.37421
1.46834
1.47746
1.36165
1.53824
1.64844
0.790578
0.739221
0.692885
0.77915
0.948091
0.899153
0.825955
0.77741
0.731733
0.68645
0.775018
0.935913
0.888119
0.821257
0.70922
0.840697
0.718984
0.806653
0.941917
0.951615
0.79722
0.786503
0.747431
0.701237
0.803253
0.959375
0.910791
0.850729
0.863439
0.790465
0.741685
0.828671
1.02477
0.973982
0.877363
0.721583
0.852802
0.791306
0.920368
0.854767
0.947983
1.01405
1.36764
1.28344
1.32803
1.48466
1.40294
1.25881
1.15786
2.54141
1.07139
1.55042
1.9773
2.65413
1.16893
1.64804
0.745869
0.897608
0.75653
0.851642
1.00788
1.0183
0.841443
1.83425
2.25119
2.60234
2.91453
2.74527
2.29906
2.72833
1.34602
1.51054
1.59316
1.70393
1.50917
1.61384
1.79897
0.891741
0.846697
0.787874
0.90518
1.09248
1.01331
0.962911
0.810254
0.772416
0.723468
0.838685
1.00076
0.949229
0.889576
1.23725
1.10438
1.06133
1.15008
1.29112
1.19536
1.34388
1.88163
1.15499
1.42372
2.0336
2.62886
1.45471
1.99275
1.50905
1.43856
1.95403
1.55546
2.01184
2.73171
2.17617
0.919609
1.05988
1.13192
1.10853
0.992887
0.972852
1.04907
0.900361
1.034
1.08893
1.09935
0.956554
0.965603
1.02554
0.923806
0.835956
0.782229
0.876198
1.09965
1.04343
0.929544
0.778312
0.884583
0.788705
0.93986
1.04976
1.06017
0.929499
1.02005
1.21561
1.14135
1.1525
1.08533
1.21732
1.29459
1.03974
1.11402
1.25058
1.1737
1.09523
1.22897
1.31874
0.897336
1.09356
1.08707
0.960201
0.954802
1.02994
1.16865
1.03344
1.22344
1.15738
1.16625
1.10528
1.24105
1.31061
1.39342
1.24893
1.1516
1.36107
1.22087
1.31773
1.47458
0.817646
0.877413
0.930862
0.993698
1.05219
1.01142
1.13097
0.355017
0.399159
0.467341
0.534159
0.694367
0.871316
0.923659
0.385822
0.303844
0.335693
0.407703
0.450419
0.3426
0.387454
0.307844
0.313251
0.317449
0.320324
0.324564
0.33398
0.329584
0.51683
0.388121
0.443175
0.646749
0.749978
0.501777
0.606146
0.316417
0.356315
0.326963
0.363749
0.334309
0.344837
0.377316
0.826257
0.529749
0.649035
0.852129
1.07846
0.633824
0.790192
0.458099
0.348412
0.393669
0.467398
0.534871
0.40463
0.461704
0.323932
0.340146
0.328241
0.34463
0.351574
0.35645
0.340046
0.33739
0.360038
0.341931
0.351255
0.363995
0.369329
0.346502
0.372142
0.385508
0.352901
0.363394
0.420835
0.382669
0.398926
0.352115
0.371303
0.338902
0.356729
0.407961
0.369951
0.392104
0.43429
0.405737
0.414081
0.456923
0.46643
0.431203
0.488194
0.470615
0.534798
0.498997
0.546331
0.509676
0.537679
0.580808
0.361847
0.374207
0.36821
0.392192
0.379976
0.373739
0.356766
0.353145
0.364205
0.362139
0.369492
0.367295
0.384
0.378135
0.56108
0.565769
0.577853
0.599275
0.611887
0.617643
0.655518
0.606219
0.463235
0.605297
0.785654
0.908773
0.68334
0.768713
0.423951
0.503595
0.479802
0.467763
0.449123
0.510597
0.533788
0.440516
0.532608
0.499151
0.483576
0.457293
0.520345
0.553368
0.375293
0.408288
0.435029
0.428872
0.394684
0.388606
0.413395
0.366572
0.42469
0.422585
0.384474
0.382311
0.400338
0.442273
1.18398
0.68044
0.851713
1.12087
1.59545
0.90797
1.14431
0.594985
0.678405
0.63607
0.693167
0.649488
0.696893
0.745103
0.381017
0.406389
0.387114
0.402464
0.41479
0.42315
0.395481
0.592167
0.594968
0.550384
0.577518
0.681068
0.618584
0.629848
0.557172
0.569703
0.527812
0.565686
0.652013
0.594311
0.616056
0.377121
0.400537
0.38291
0.400504
0.411381
0.41956
0.39366
0.500212
0.49234
0.474746
0.542393
0.595404
0.574644
0.564493
0.528197
0.486556
0.483538
0.55703
0.553177
0.505484
0.580278
1.02265
0.806166
0.938001
1.1639
1.42995
0.940029
1.03113
0.605632
0.69188
0.642771
0.704902
0.66016
0.70398
0.757003
0.42376
0.445363
0.40336
0.419896
0.486624
0.441664
0.463284
0.418101
0.441375
0.399308
0.417975
0.482812
0.438113
0.461315
0.632891
0.741776
0.671938
0.738392
0.675546
0.720811
0.794746
0.330734
0.486327
0.661698
0.293231
0.338662
0.391141
0.333423
0.377922
0.385042
0.442744
0.297373
0.307583
0.305696
0.309934
0.311903
0.324297
0.319932
0.375302
0.448189
0.569723
0.43998
0.506144
0.600903
0.728697
0.305139
0.350059
0.347938
0.318916
0.320954
0.334636
0.366945
0.513784
0.703195
0.810513
0.63146
0.875121
0.855074
0.939804
0.322777
0.343514
0.327291
0.339537
0.350596
0.355696
0.334899
0.319157
0.337831
0.323446
0.337639
0.347215
0.351939
0.333173
0.420922
0.398731
0.396048
0.446525
0.449914
0.418747
0.474505
0.370198
0.355557
0.337762
0.351403
0.407696
0.36927
0.386923
0.366028
0.349627
0.333768
0.349388
0.403474
0.365324
0.384865
0.456182
0.526084
0.521703
0.487113
0.491194
0.521673
0.562543
0.352797
0.363639
0.361956
0.383844
0.367161
0.369054
0.347943
0.544439
0.556404
0.551906
0.584691
0.589265
0.597634
0.634057
0.422916
0.510916
0.479781
0.467494
0.442616
0.503805
0.534505
0.417469
0.499913
0.472666
0.461635
0.439818
0.499997
0.526363
0.366238
0.424914
0.400347
0.422658
0.382222
0.384206
0.404511
0.614836
0.666512
0.620628
0.625283
0.577352
0.673917
0.719752
0.616728
0.528153
0.566701
0.557772
0.653156
0.595612
0.606523
0.560039
0.552666
0.519335
0.552875
0.641265
0.585215
0.601016
0.48691
0.483664
0.463123
0.528589
0.581379
0.553546
0.558102
0.641903
0.60521
0.66012
0.705513
0.649015
0.691417
0.75687
0.685379
0.643101
0.595071
0.692325
0.643084
0.685217
0.742741
0.72862
0.7382
0.745414
0.791041
0.810988
0.802133
0.873492
0.871314
0.802578
0.749339
0.728426
0.682076
0.736828
0.788975
0.795482
0.782484
0.730622
0.717056
0.671294
0.730348
0.782083
0.604885
0.673144
0.715185
0.699874
0.645689
0.632999
0.664632
0.792613
0.765089
0.714755
0.769108
0.920863
0.853607
0.825223
0.737646
0.730166
0.68332
0.750705
0.872684
0.811279
0.804614
0.420353
0.433835
0.432253
0.468198
0.443276
0.441612
0.412176
0.643999
0.619105
0.587483
0.688974
0.623844
0.654205
0.727375
0.68379
0.69031
0.655544
0.619594
0.625257
0.588117
0.64453
0.50989
0.616089
0.586149
0.554047
0.528438
0.608323
0.638802
0.578593
0.504174
0.526191
0.548832
0.525667
0.604564
0.631693
0.438871
0.488618
0.508775
0.506873
0.462826
0.461163
0.483545
0.782272
0.764332
0.719514
0.773375
0.905066
0.849512
0.828795
0.746448
0.744782
0.695537
0.751459
0.813981
0.799904
0.874265
0.806332
0.801096
0.745133
0.81448
0.752538
0.695831
0.746384
0.92798
0.785174
0.853572
0.944879
0.86812
0.947009
1.03366
0.818166
0.974704
0.877886
1.00404
0.902602
0.972399
1.08052
0.825248
1.0137
0.901298
1.00114
0.891958
0.975332
1.10067
0.7246
0.686711
0.65204
0.685837
0.811176
0.720123
0.76782
0.869659
0.859742
0.799646
0.950099
0.878538
0.951752
1.0367
1.03669
0.952191
0.86962
0.878436
0.949431
0.799261
0.859059
0.829442
0.98759
0.996703
0.969228
0.919106
0.895343
0.893144
0.57792
0.575367
0.549832
0.633071
0.698259
0.665871
0.66241
0.700633
0.73612
0.661542
0.69069
0.822861
0.729497
0.773721
0.870331
0.851429
0.796631
0.904393
0.850616
0.937291
1.00319
0.810057
0.961277
0.886184
0.918303
0.857443
0.945374
1.01911
1.08814
1.0558
0.968541
1.06152
1.31113
1.19994
1.16128
1.007
1.2618
1.13587
1.08863
1.36038
1.23082
1.20831
1.05277
0.948254
1.03163
1.05415
1.27271
1.15036
1.16938
0.722004
0.800457
0.863144
0.857388
0.762151
0.757574
0.813641
1.13101
1.02995
0.947035
1.02939
1.22904
1.11006
1.13066
1.05752
1.05281
0.965637
1.03893
1.25096
1.12852
1.14197
0.968108
0.961189
0.90751
1.00683
1.14461
1.07982
1.07161
1.18349
1.46151
1.47156
1.42371
1.33925
1.29353
1.30875
1.11439
1.27858
1.33912
1.32838
1.2017
1.19237
1.23429
1.43587
1.28526
1.48865
1.56239
1.39362
1.32999
1.22175
2.28764
1.01984
1.58655
1.9148
2.74841
1.39602
1.97175
1.40941
1.66302
2.06549
1.48707
2.36284
2.82089
2.08088
1.30329
1.1596
1.07809
1.21539
1.12856
1.26784
1.36679
1.04352
1.10044
0.957526
0.996808
1.25396
1.09494
1.14433
0.804468
0.999269
0.905041
1.01247
0.895403
0.997042
1.11604
0.929615
1.11851
0.982185
1.14655
1.00662
1.07278
1.21659
1.28149
1.22254
1.0916
1.23169
1.17667
1.32113
1.38386
2.36045
1.04936
1.5437
2.07241
2.78877
1.43703
1.92805
0.813517
1.01958
0.915881
1.02655
0.900996
1.00367
1.13235
0.821604
1.01048
0.923948
1.03737
0.927027
1.03125
1.14266
1.67733
1.38615
1.54163
1.54206
1.83675
1.69813
1.67815
0.867274
0.9084
0.813734
0.965112
1.13942
1.08447
1.02088
0.837154
0.955666
0.848622
1.02968
1.14999
1.16153
1.01815
1.44858
1.29839
1.23338
1.34663
1.50496
1.4113
1.57988
1.35814
1.50037
1.57514
1.48543
1.63422
1.58907
1.72083
1.48461
1.63238
1.71913
1.49784
1.58673
1.35666
1.44721
1.29478
1.52903
1.41363
1.53641
1.65437
1.52864
1.41306
1.09556
0.890084
0.901154
1.00908
1.21414
1.22572
0.998298
2.33558
1.32337
1.42845
1.79772
2.77374
1.90641
2.79368
0.98677
1.23029
1.14998
1.18363
1.03934
1.08107
1.12655
1.41973
1.73007
1.59487
1.55976
1.87232
1.73339
1.69557
1.55844
1.41733
1.54994
1.59272
1.86922
1.73293
1.72566
1.53038
1.57601
1.69663
1.50275
1.77982
1.65953
1.61697
1.54195
1.42635
1.31947
1.45192
1.68182
1.56291
1.56795
1.12415
0.990212
0.929529
1.03598
1.314
1.25306
1.09533
0.850796
1.04534
0.958001
1.08365
0.971222
1.08159
1.19458
0.967693
1.16395
1.02061
1.20501
1.05661
1.1262
1.27714
1.00627
0.949012
1.02266
1.07668
1.1568
1.11677
1.24971
1.61289
1.41008
1.49815
1.56954
1.6906
1.65363
1.77422
0.87349
0.998921
1.00862
1.01223
1.02196
1.18273
1.17207
2.59608
1.15997
1.87977
2.02585
2.84178
1.5608
2.33984
0.983818
0.939676
0.87812
1.05985
1.25413
1.19037
1.12527
0.868606
1.10447
0.975697
1.10657
0.955652
1.06228
1.21634
1.19813
1.29069
1.14956
1.29929
1.24431
1.40025
1.46183
0.896527
1.01989
1.02979
1.05007
1.06017
1.21834
1.2074
1.68023
1.54077
1.44909
1.56604
1.43198
1.31714
1.42463
2.73041
1.26375
1.73901
2.6172
2.8248
1.6881
2.16344
0.92132
1.19017
1.03645
1.18963
1.01488
1.12938
1.3082
1.1711
1.27088
1.42692
1.32562
1.21975
1.36943
1.4883
1.7428
2.74231
1.8998
1.6191
2.3462
2.27728
2.86816
1.42404
1.52353
1.56176
1.71153
1.75704
1.6568
1.86667
1.64675
1.71281
1.8424
1.64434
1.97236
1.83701
1.77544
1.78175
1.64712
1.52017
1.71596
1.97865
1.83704
1.85055
0.867728
1.00222
0.995668
1.17545
1.01199
1.00537
0.858505
0.914919
1.03705
1.07453
1.24117
1.04693
1.08465
0.90548
1.37295
1.53313
1.50114
1.66677
1.68368
1.60812
1.80821
1.33228
1.43714
1.55806
1.44929
1.61615
1.63035
1.75344
0.894983
1.08103
1.03083
1.0948
1.04425
1.20615
1.25914
1.04379
1.23621
1.31869
1.2561
1.1581
1.1019
1.19517
1.37176
1.60502
1.48502
1.53249
1.80562
1.68101
1.66591
1.42836
1.66636
1.57055
1.59784
1.87498
1.71631
1.76435
1.54461
1.51077
1.39543
1.49114
1.76883
1.64435
1.60794
0.889348
1.19898
1.08532
1.07794
1.03445
1.02764
0.937477
0.966837
1.14813
1.09294
1.31849
1.15894
1.10334
0.956773
1.07495
1.28759
1.13295
1.35697
1.19675
1.27384
1.43368
0.952296
1.15903
1.06698
1.22738
1.1096
1.22744
1.3436
1.55224
1.32473
1.38356
1.62741
1.44677
1.50703
1.69583
0.918824
1.10435
1.05254
1.13624
1.0833
1.24234
1.29701
1.63734
1.71434
1.61456
1.71771
1.82395
1.79315
1.90676
1.47569
1.51442
1.55774
1.61212
1.65958
1.70426
1.8191
0.999698
1.12493
1.13542
1.18846
1.1994
1.35673
1.34481
2.7718
1.51679
2.01033
2.69283
2.72413
1.63909
2.15461
0.994341
1.24496
1.00651
1.1245
1.36782
1.38076
1.11238
1.61237
1.67577
1.7611
1.71636
1.99277
1.89395
1.8176
1.90199
1.82187
1.68824
1.80101
2.16587
2.00766
1.93735
0.936819
1.2648
1.1206
1.15944
1.06938
1.10735
0.986345
1.23096
1.24278
1.15853
1.30136
1.48667
1.3836
1.39665
1.52566
1.4252
1.27446
1.36282
1.62861
1.45095
1.52761
1.45335
1.40037
1.56937
1.37625
1.65918
1.47844
1.54255
1.28077
1.25392
1.18645
1.33384
1.52476
1.43967
1.40966
1.44671
1.37037
1.53664
1.39051
1.65057
1.46987
1.55959
1.29754
1.23658
1.22896
1.3815
1.31951
1.39016
1.48198
2.63683
1.50117
1.74909
2.84865
2.76986
2.16225
2.52421
1.2489
1.5362
1.4064
1.42177
1.29885
1.46278
1.59874
1.72368
1.62439
1.69157
1.8279
1.90785
1.77829
2.00838
0.99062
1.34334
1.23967
1.1813
1.18359
1.12704
1.04409
1.27808
1.1096
1.03942
1.15645
1.48403
1.41312
1.22593
1.14721
1.18102
1.04058
1.12933
1.4077
1.2606
1.27296
1.12387
1.16595
1.02776
1.12163
1.38716
1.2421
1.26412
1.3512
1.63989
1.4607
1.42071
1.72259
1.53321
1.59399
1.02285
1.21178
1.1586
1.27805
1.22339
1.38106
1.43589
1.08519
1.41215
1.20996
1.40974
1.18889
1.31129
1.53286
2.57991
1.52818
1.96909
2.0069
2.80421
2.50876
2.52049
1.34636
1.26455
1.2961
1.42071
1.37257
1.45543
1.53899
1.13616
1.1898
1.04888
1.15887
1.41765
1.27061
1.30493
1.17566
1.2349
1.0882
1.21527
1.47931
1.32778
1.36725
1.60772
1.52676
1.36513
1.47862
1.74004
1.55048
1.65774
1.03598
1.26574
1.1626
1.35411
1.22727
1.35808
1.48188
1.15819
1.39462
1.22763
1.48613
1.31366
1.4036
1.57261
1.08229
1.21602
1.22737
1.29811
1.31014
1.47264
1.45972
1.12384
1.16116
1.17559
1.26786
1.28304
1.34297
1.45249
1.25296
1.31715
1.36347
1.48027
1.44014
1.53168
1.6131
1.13475
1.35853
1.26589
1.52892
1.27743
1.37074
1.12383
1.23784
1.25358
1.1062
1.1925
1.49975
1.3487
1.34137
1.38912
1.33749
1.27409
1.43107
1.63717
1.50085
1.5572
1.15743
1.18726
1.2211
1.29713
1.33315
1.38378
1.49656
1.62604
1.77882
1.86649
1.93879
1.77981
1.86747
2.03721
2.1858
2.5618
2.82123
2.62721
2.46632
1.27364
2.38552
1.88044
1.65368
1.73913
1.96976
1.82312
1.91058
2.07047
1.16051
1.45615
1.55547
1.35912
1.30257
1.39726
1.21836
1.16659
1.15822
1.01457
1.11881
1.44655
1.27465
1.2651
1.20259
1.24292
1.06599
1.17326
1.51477
1.3114
1.35339
1.33218
1.33074
1.17504
1.26704
1.6041
1.44785
1.42268
1.69776
1.51072
1.44536
1.57118
1.8459
1.6402
1.76831
1.10917
1.31196
1.2534
1.39946
1.3379
1.49995
1.5598
2.83823
1.57151
2.35666
2.55412
2.75838
1.66794
2.50328
1.16268
1.36718
1.17331
1.37102
1.56871
1.5822
1.35902
1.75263
1.89692
1.84412
1.98757
2.10122
1.92311
2.19712
1.70677
2.00274
2.02007
1.8552
1.87285
2.01351
2.18473
2.76532
2.78635
2.58605
2.09775
1.25237
2.44706
2.4437
2.3903
2.42307
2.36279
1.71384
1.23374
2.42696
1.85191
1.5963
1.88277
1.89305
1.84325
1.75548
1.71239
1.71697
1.25967
1.51714
1.39702
1.69397
1.53066
1.40978
1.24739
1.32949
1.26837
1.13008
1.24449
1.60488
1.44685
1.38289
1.64477