/*--------------------------------*- C++ -*----------------------------------*\
  =========                 |
  \\      /  F ield         | OpenFOAM: The Open Source CFD Toolbox
   \\    /   O peration     | Website:  https://openfoam.org
    \\  /    A nd           | Version:  9
     \\/     M anipulation  |
\*---------------------------------------------------------------------------*/
FoamFile
{
    format      ascii;
    class       volScalarField;
    location    "0.00295";
    object      rho.c4;
}
// * * * * * * * * * * * * * * * * * * * * * * * * * * * * * * * * * * * * * //

dimensions      [1 -3 0 0 0 0 0];

internalField   nonuniform List<scalar> 
28759
(
1.52424
1.58932
2.27648
2.3998
4.79197
4.10011
7.47487
2.00672
1.06937
1.45571
1.55113
2.2377
2.00472
2.70096
2.16426
1.0575
1.52195
1.92386
2.58464
1.43918
1.95923
1.11342
1.20911
1.25543
1.22152
1.26776
1.42971
1.38133
1.81309
3.55194
4.39729
3.0481
3.1699
4.52203
6.20622
3.00058
1.77485
2.36356
4.1194
5.79693
3.01069
4.3902
1.10268
1.18802
1.23592
1.19394
1.2422
1.39606
1.34553
1.22791
1.6212
1.37634
1.62398
1.38615
1.55298
1.80626
1.21823
1.59104
1.35693
1.5872
1.36062
1.518
1.75572
1.3698
1.60242
1.41816
1.61326
1.76255
1.81744
1.56214
1.6402
1.3949
1.44333
1.62603
1.78811
1.84198
1.57502
1.34275
1.57447
1.39292
1.5746
1.72132
1.77654
1.52187
3.88398
4.9973
6.2056
5.51589
7.52665
6.16809
8.22056
2.28051
2.00771
1.99798
2.52949
2.50266
2.20646
2.76549
7.44172
3.27491
5.01358
6.30715
7.56065
3.84637
6.25041
1.75845
1.80765
1.56297
1.74883
2.22258
1.96242
2.00716
1.80473
1.73238
1.54445
1.74016
2.22358
1.94682
2.00682
4.64811
4.11132
4.15512
3.14913
3.97085
5.36638
4.78418
7.22466
1.34913
1.57656
1.39993
1.57568
1.71885
1.77289
1.52288
1.70154
1.76435
1.51784
1.6983
2.15813
1.90057
1.94647
2.19835
1.95321
1.93329
2.43007
2.38598
2.12408
2.62778
2.84412
3.14498
2.90564
2.62474
2.89888
3.23834
3.51581
1.69385
1.74816
1.51872
1.69569
2.1252
1.88901
1.93419
1.82922
2.00439
1.99236
2.297
2.05024
2.06159
1.77476
3.08254
2.75263
3.13085
3.51074
3.04376
3.40127
3.98543
2.78666
2.43282
2.215
2.66282
2.42762
3.0345
3.31223
2.19299
2.96994
2.73223
2.64015
2.41623
3.00796
3.26204
2.14984
2.94047
2.67934
2.56498
2.33447
2.88635
3.16159
1.9543
2.45401
2.42304
2.45582
2.17776
2.18428
2.22395
1.77453
1.93317
1.93675
2.22046
1.98885
1.99366
1.71986
2.63575
3.42395
2.95049
3.35199
2.88586
3.2194
3.80516
2.09921
2.77204
2.5764
2.49646
2.30422
2.82787
3.03713
3.87755
3.55109
3.37883
3.84025
4.06812
4.4226
4.73157
10.9279
8.86552
5.46795
10.7476
8.93127
8.83901
13.2409
1.89476
2.33576
2.34562
2.36718
2.10358
2.11309
2.14163
3.54866
3.6651
3.19183
4.65
4.10722
3.54876
3.98331
4.53617
3.65243
3.9739
3.51843
3.24236
3.64921
3.96984
3.51256
3.22945
3.6353
4.15181
4.54473
3.64512
3.97028
4.0175
3.79133
3.43205
3.7717
5.0516
4.14976
4.50229
3.4681
3.77875
3.7119
4.03532
3.98062
4.28727
4.65461
2.89705
2.909
2.65454
3.29334
3.8958
3.59411
3.5697
4.28268
4.49181
3.70207
4.47548
4.25681
4.97727
5.24326
3.67624
3.93258
3.35261
3.73273
4.97276
4.07609
4.46049
3.65306
3.8851
3.29313
3.57614
4.84794
3.94966
4.30704
2.7382
2.77831
2.53104
3.10023
3.64332
3.32755
3.3955
3.40755
3.7228
3.14448
3.49055
4.63707
3.7658
4.2117
3.63945
4.49127
4.24886
4.47209
4.20984
4.95757
5.28287
5.0996
4.74916
4.44864
5.8348
5.08599
5.51149
6.42967
5.32203
4.52304
3.98338
5.19094
6.1556
5.31597
4.5185
4.66508
4.5445
3.98926
5.22043
6.20371
5.3311
4.52665
4.74135
4.76651
4.20162
4.77574
5.48446
5.46627
6.3811
5.58548
5.24853
6.16722
4.78832
5.26052
4.15308
4.53638
4.12248
5.57703
4.91902
5.61334
4.52389
4.48871
5.02377
4.37573
5.45137
4.69427
5.77718
5.05235
5.49094
6.40897
4.35561
5.48745
4.70341
5.69283
4.94646
5.44811
6.38228
4.21592
5.36032
4.60449
5.5182
4.86681
5.39973
6.29635
3.85983
4.56887
5.19734
5.31631
4.15228
4.25223
4.74604
5.83933
4.98582
5.24011
5.84648
7.35916
6.89806
6.189
1.71838e-11
2.22045e-16
2.22045e-16
2.22045e-16
2.22045e-16
2.22045e-16
2.22045e-16
46.9684
1.39907e-10
9.39993e-14
2.22045e-16
2.22045e-16
2.22045e-16
2.22045e-16
44.5142
10.1637
1.40822e-06
8.51097e-14
2.22045e-16
2.22045e-16
2.22045e-16
11.2527
39.0533
93.2452
0.00091735
1.51782e-13
2.22045e-16
2.22045e-16
3.77356
7.08419
22.2905
110.351
0.216051
7.01215e-12
2.22045e-16
2.37168
3.66096
6.67438
16.9755
104.284
0.285449
5.62868e-13
2.41221
3.7405
6.69412
17.1858
113.297
0.00257332
2.45864
3.83213
6.9966
22.6539
104.413
2.51586
4.02523
11.6929
58.5911
1.04568e-14
2.22045e-16
2.22045e-16
2.22045e-16
2.22045e-16
2.22045e-16
2.22045e-16
1.68181e-07
5.00396e-13
2.22045e-16
2.22045e-16
2.22045e-16
2.22045e-16
2.22045e-16
50.2767
0.043165
3.34547e-09
6.0312e-15
2.22045e-16
2.22045e-16
2.22045e-16
17.1093
56.8708
96.3671
3.14651e-07
2.92101e-15
2.22045e-16
2.22045e-16
4.92349
9.48111
32.4794
122.34
8.88658e-05
7.31651e-16
2.22045e-16
3.10616
4.77538
8.62563
23.9816
133.079
0.000136115
4.26313e-15
3.28666
4.90953
8.67317
24.1877
129.883
3.20212e-07
5.05883
5.0495
9.06681
32.7417
107.762
3.3862
5.32987
43.0194
109.408
2.22045e-16
2.22045e-16
2.22045e-16
2.22045e-16
2.22045e-16
2.22045e-16
2.22045e-16
3.23091e-13
2.17826e-15
2.22045e-16
2.22045e-16
2.22045e-16
2.22045e-16
2.22045e-16
2.6672e-05
1.16446e-07
1.46319e-15
2.22045e-16
2.22045e-16
2.22045e-16
2.22045e-16
84.2269
137.775
0.00106458
1.52821e-14
2.22045e-16
2.22045e-16
2.22045e-16
14.7545
38.7404
157.848
9.03757
2.42602e-12
2.22045e-16
2.22045e-16
7.78356
17.3795
26.5289
116.867
65.8814
2.00552e-12
2.22045e-16
8.70877
13.3506
25.4199
116.575
16.7691
2.03966e-14
7.32634
9.69725
27.6644
160.618
0.00673672
8.86248
9.70447
228.765
2.99096e-07
2.22045e-16
2.22045e-16
2.22045e-16
2.22045e-16
2.22045e-16
2.22045e-16
2.22045e-16
2.22045e-16
2.22045e-16
2.22045e-16
2.22045e-16
2.22045e-16
2.22045e-16
2.22045e-16
1.66707e-12
2.09386e-15
2.22045e-16
2.22045e-16
2.22045e-16
2.22045e-16
2.22045e-16
0.121664
1.85468e-06
1.31538e-14
2.22045e-16
2.22045e-16
2.22045e-16
2.22045e-16
109.021
279.158
6.05344
3.14222e-10
2.22045e-16
2.22045e-16
2.22045e-16
8.72508
20.7838
214.346
313.094
6.67887e-11
2.22045e-16
2.22045e-16
6.92647
9.14878
18.6156
173.788
395.641
4.64363e-11
2.22045e-16
6.15946
12.7155
19.2611
207.362
21.3163
2.41986e-14
6.12484
8.22875
23.1368
1.05222e-05
1.57838e-13
2.22045e-16
2.22045e-16
2.22045e-16
2.22045e-16
2.22045e-16
2.22045e-16
2.22045e-16
2.22045e-16
2.22045e-16
2.22045e-16
2.22045e-16
2.22045e-16
2.22045e-16
2.22045e-16
2.22045e-16
2.22045e-16
2.22045e-16
2.22045e-16
2.22045e-16
2.22045e-16
2.22045e-16
1.80822e-11
2.22045e-16
2.22045e-16
2.22045e-16
2.22045e-16
2.22045e-16
2.22045e-16
0.168834
1.68595e-05
1.0456e-13
2.22045e-16
2.22045e-16
2.22045e-16
2.22045e-16
84.5048
245.752
3.4843
5.35715e-11
2.22045e-16
2.22045e-16
2.22045e-16
15.7213
16.7117
218.223
67.8412
3.65821e-11
2.22045e-16
2.22045e-16
7.55747
13.0942
15.9352
208.218
11.5784
1.36935e-13
2.22045e-16
12.9373
18.1155
1.41979e-05
4.35896e-13
2.22045e-16
2.22045e-16
2.22045e-16
2.22045e-16
2.22045e-16
2.22045e-16
2.22045e-16
2.22045e-16
2.22045e-16
2.22045e-16
2.22045e-16
2.22045e-16
2.22045e-16
2.22045e-16
2.22045e-16
2.22045e-16
2.22045e-16
2.22045e-16
2.22045e-16
2.22045e-16
2.22045e-16
2.22045e-16
2.22045e-16
2.22045e-16
2.22045e-16
2.22045e-16
2.22045e-16
2.22045e-16
2.22045e-16
8.32308e-12
2.08739e-15
2.22045e-16
2.22045e-16
2.22045e-16
2.22045e-16
2.22045e-16
0.449811
1.2671e-06
9.35362e-14
2.22045e-16
2.22045e-16
2.22045e-16
2.22045e-16
76.5997
182.745
0.0240585
1.53484e-13
2.22045e-16
2.22045e-16
2.22045e-16
10.9767
17.0298
67.4173
0.0582203
1.03966e-13
2.22045e-16
2.22045e-16
30.8294
45.8191
91.7653
5.39403e-13
5.21414e-15
2.22045e-16
2.22045e-16
2.22045e-16
2.22045e-16
2.22045e-16
2.22045e-16
2.22045e-16
2.22045e-16
2.22045e-16
2.22045e-16
2.22045e-16
2.22045e-16
2.22045e-16
2.22045e-16
2.22045e-16
2.22045e-16
2.22045e-16
2.22045e-16
2.22045e-16
2.22045e-16
2.22045e-16
2.22045e-16
2.22045e-16
2.22045e-16
2.22045e-16
2.22045e-16
2.22045e-16
2.22045e-16
2.22045e-16
2.22045e-16
2.22045e-16
2.22045e-16
2.22045e-16
2.22045e-16
2.22045e-16
2.22045e-16
7.82306e-13
1.94012e-15
2.22045e-16
2.22045e-16
2.22045e-16
2.22045e-16
2.22045e-16
0.113917
2.54427e-07
1.18468e-14
2.22045e-16
2.22045e-16
2.22045e-16
2.22045e-16
90.1331
159.436
9.24828e-05
6.99649e-15
2.22045e-16
2.22045e-16
2.22045e-16
28.5719
109.597
25.2496
8.92842e-16
2.22045e-16
2.22045e-16
2.22045e-16
2.22045e-16
2.22045e-16
2.22045e-16
2.22045e-16
2.22045e-16
2.22045e-16
2.22045e-16
2.22045e-16
2.22045e-16
2.22045e-16
2.22045e-16
2.22045e-16
2.22045e-16
2.22045e-16
2.22045e-16
2.22045e-16
2.22045e-16
2.22045e-16
2.22045e-16
2.22045e-16
2.22045e-16
2.22045e-16
2.22045e-16
2.22045e-16
2.22045e-16
2.22045e-16
2.22045e-16
2.22045e-16
2.22045e-16
2.22045e-16
2.22045e-16
2.22045e-16
2.22045e-16
2.22045e-16
2.22045e-16
2.22045e-16
2.22045e-16
2.22045e-16
2.22045e-16
2.22045e-16
2.22045e-16
2.21376e-12
8.78118e-15
2.22045e-16
2.22045e-16
2.22045e-16
2.22045e-16
2.22045e-16
1.68087e-05
2.70117e-08
6.6168e-15
2.22045e-16
2.22045e-16
2.22045e-16
2.22045e-16
2.09328e-05
0.011859
2.22045e-16
2.22045e-16
2.22045e-16
2.22045e-16
2.22045e-16
2.22045e-16
2.22045e-16
2.22045e-16
2.22045e-16
2.22045e-16
2.22045e-16
2.22045e-16
2.22045e-16
2.22045e-16
2.22045e-16
2.22045e-16
2.22045e-16
2.22045e-16
2.22045e-16
2.22045e-16
2.22045e-16
2.22045e-16
2.22045e-16
2.22045e-16
2.22045e-16
2.22045e-16
2.22045e-16
2.22045e-16
2.22045e-16
2.22045e-16
2.22045e-16
2.22045e-16
2.22045e-16
2.22045e-16
2.22045e-16
2.22045e-16
2.22045e-16
2.22045e-16
2.22045e-16
2.22045e-16
2.22045e-16
2.22045e-16
2.22045e-16
2.22045e-16
2.22045e-16
2.22045e-16
2.22045e-16
2.22045e-16
2.22045e-16
2.22045e-16
2.22045e-16
2.22045e-16
2.22045e-16
2.55271e-12
2.22045e-16
2.22045e-16
2.22045e-16
2.22045e-16
2.22045e-16
2.22045e-16
3.26404e-10
2.22045e-16
2.22045e-16
2.22045e-16
2.22045e-16
2.22045e-16
2.22045e-16
2.22045e-16
2.22045e-16
2.22045e-16
2.22045e-16
2.22045e-16
2.22045e-16
2.22045e-16
2.22045e-16
2.22045e-16
2.22045e-16
2.22045e-16
2.22045e-16
2.22045e-16
2.22045e-16
2.22045e-16
2.22045e-16
2.22045e-16
2.22045e-16
2.22045e-16
2.22045e-16
2.22045e-16
2.22045e-16
2.22045e-16
2.22045e-16
2.22045e-16
2.22045e-16
2.22045e-16
2.22045e-16
2.22045e-16
2.22045e-16
2.22045e-16
2.22045e-16
2.22045e-16
2.22045e-16
2.22045e-16
2.22045e-16
2.22045e-16
2.22045e-16
2.22045e-16
2.22045e-16
2.22045e-16
2.22045e-16
2.22045e-16
2.22045e-16
2.22045e-16
2.22045e-16
2.22045e-16
2.22045e-16
2.22045e-16
2.22045e-16
2.22045e-16
2.22045e-16
2.22045e-16
2.22045e-16
2.22045e-16
2.22045e-16
2.22045e-16
2.22045e-16
2.22045e-16
2.22045e-16
2.22045e-16
3.32892
1.72416
2.44737
2.84532
3.84428
2.17422
2.92425
3.41045
1.80737
2.48951
2.94343
3.95056
2.22029
2.96637
2.94165
1.802
2.21951
2.49823
3.45571
2.96438
3.99535
3.24504
1.71836
2.40037
2.73802
3.72498
2.11078
2.81542
1.75185
1.97021
1.98093
2.03028
2.03964
2.27667
2.21644
4.39604
2.59633
3.4118
6.44146
8.80543
4.93066
6.76383
3.31824
3.43877
4.53318
3.4597
6.82655
9.14291
6.22926
1.77957
1.94666
2.00508
1.94099
1.99892
2.2386
2.17882
2.62108
6.02563
4.90192
3.4487
4.57961
6.83753
9.28704
1.93955
2.44932
2.45454
2.16357
2.17109
2.41095
2.69843
1.90718
2.4074
2.13298
2.38774
2.12269
2.36295
2.63426
1.85505
2.01679
2.07282
2.02874
2.08333
2.31401
2.25808
4.2335
2.46535
3.56793
5.94172
8.39209
5.07706
6.30217
4.78905
8.59794
7.23447
6.70144
9.65902
8.7496
20.0669
4.55464
7.36839
10.4494
6.32041
7.4559
9.72555
21.057
6.62767
7.6165
4.24005
11.6727
23.0701
6.32143
8.96034
1.97067
2.44975
2.19046
2.44328
2.19585
2.4309
2.69008
1.77162
1.92966
1.98377
1.92796
1.97996
2.20084
2.15059
8.34241
4.84148
6.76846
12.2235
23.9338
6.5378
9.12892
5.66084
2.72819
3.81259
4.30046
6.44561
3.21756
4.39004
2.20638
2.51808
2.26689
2.52892
2.7415
2.79986
2.46912
2.1876
2.50665
2.24792
2.49424
2.71311
2.77133
2.43537
1.88438
2.32438
2.09427
2.30606
2.08706
2.30908
2.5331
2.66405
2.9104
2.91376
3.60372
3.60572
3.17856
3.91692
5.86237
2.77093
3.88621
4.41304
6.67369
2.96479
4.47537
2.2271
2.5485
2.287
2.53905
2.76305
2.82132
2.47983
3.21606
2.84973
2.81605
3.51362
3.45886
3.08615
3.78066
5.63413
2.66444
3.7165
4.19665
6.40276
2.84171
4.26934
2.17117
2.46768
2.22956
2.48114
2.68085
2.73735
2.42365
2.65405
2.68978
2.40182
2.66613
3.23646
2.93967
2.95696
2.68015
2.70175
2.41755
2.67448
3.25592
2.95957
2.96428
2.24816
2.55637
2.30623
2.56244
2.77732
2.83535
2.50578
2.56873
2.2669
2.31979
2.56648
2.78575
2.84045
2.51154
4.64122
2.78936
2.96887
3.90769
6.27279
4.5009
7.14796
2.5874
2.61015
2.34933
2.60497
3.13437
2.86362
2.87386
2.63895
2.65651
2.37667
2.62227
3.19327
2.90536
2.90052
3.22124
2.87901
2.85616
3.53412
3.49067
3.13238
3.82644
2.69697
2.68414
2.42761
2.68656
3.25598
2.96792
2.95905
2.15751
2.45372
2.21066
2.43906
2.64768
2.69986
2.38796
5.88628
2.61526
3.65413
4.3172
6.72152
2.99975
4.18809
2.14619
2.41724
2.19478
2.4254
2.61832
2.66552
2.37684
6.42185
8.52231
12.1479
8.79775
11.6723
25.1598
9.81245
2.68702
2.68124
2.43305
2.68732
3.24466
2.96881
2.95094
2.5694
2.55828
2.32195
2.55113
3.06963
2.81921
2.78534
2.97878
2.69816
2.66192
3.25943
3.19702
2.90911
3.49442
7.35532
3.72816
5.02153
9.86164
15.0901
7.46095
10.1263
4.15847
5.62321
5.62769
4.53827
4.54039
4.94961
6.23184
7.62744
4.59901
5.12325
10.2041
15.8426
7.55586
10.4394
11.7842
7.47378
8.47063
11.0818
25.7838
7.44141
9.79902
4.02628
5.50282
4.41943
5.4206
4.34334
4.76454
6.02745
3.16913
4.21899
3.90521
3.7533
3.45585
4.24225
4.5853
3.17847
4.24069
3.9133
3.77362
3.46255
4.2491
4.60884
5.25494
4.16096
4.54649
4.80312
5.27953
5.59783
6.18312
4.8136
4.84901
4.79967
5.53342
5.55889
5.59169
6.50637
7.3044
4.28725
4.86938
9.55807
15.1669
7.00341
9.76787
3.04505
3.98623
3.71537
3.60513
3.33352
4.06039
4.36467
7.52119
7.47833
10.1322
8.5872
12.4852
11.9669
27.9407
2.75482
2.98185
3.00208
3.3879
3.03882
3.05968
2.69706
2.81153
3.05403
3.06619
3.47045
3.11232
3.12458
2.75319
2.52355
2.51248
2.29993
2.5344
3.01284
2.77965
2.75793
3.12178
4.17983
3.83576
3.69376
3.376
4.126
4.49972
2.78629
3.02146
3.03903
3.07936
3.09712
3.43364
3.37402
4.01438
5.51825
4.43616
5.44372
4.37177
4.82024
6.09875
3.15399
4.21903
3.86597
3.76061
3.43146
4.18662
4.57828
4.14412
4.79463
5.285
4.79492
5.31419
5.62497
6.25603
2.82943
3.07569
3.13429
3.08322
3.14188
3.49606
3.43524
3.10699
4.10392
3.78053
3.72953
3.40962
4.14646
4.51788
11.1533
4.48908
7.4085
5.15428
8.22317
10.5432
18.2392
11.4197
6.27272
10.0696
15.8555
29.9271
7.76622
11.5039
2.88489
3.53254
3.4624
3.49403
3.17381
3.19788
3.16496
2.9515
3.62211
3.56638
3.5792
3.257
3.26914
3.24918
2.83895
3.09453
3.08936
3.51639
3.14758
3.15164
2.78214
2.92402
3.52304
3.54753
3.22065
3.2407
3.58299
3.90562
2.71909
2.96154
3.01737
2.94124
2.99531
3.34133
3.28402
5.23477
6.21342
7.44018
6.92219
5.82241
4.95199
5.84209
3.90759
2.95415
3.23725
3.50508
3.18751
3.8285
4.20845
5.73959
4.85123
4.14606
4.62027
5.40775
5.4661
6.48489
3.25779
3.58673
3.27771
3.59046
3.28377
3.64726
3.97645
5.28168
6.27723
7.49915
6.94483
5.86648
4.98358
5.85801
4.05207
4.53597
3.67796
4.96924
3.96043
4.35438
5.53635
3.10236
3.42966
3.14929
3.39647
3.12441
3.48155
3.78036
6.66394
7.58103
8.82894
7.53257
6.64255
5.81742
6.42813
5.29104
6.35826
7.64118
5.8487
6.9672
4.93369
5.84592
2.96912
3.5914
3.66729
3.59173
3.28807
3.29106
3.25128
2.68075
2.90402
2.92127
3.29953
2.95427
2.97329
2.63129
5.34591
6.21379
4.93458
5.37701
7.52055
5.82264
6.86362
6.8666
4.94385
5.37268
5.38523
7.56532
5.85333
6.87595
7.50883
6.66533
5.83559
6.65516
7.49071
7.57393
8.76475
9.01761
6.39903
7.60996
5.49083
6.41848
6.34662
7.53607
8.61765
6.04588
7.16097
6.07093
7.26093
6.16364
5.1958
7.41016
7.51395
6.33252
6.37357
5.46224
6.32517
7.50594
7.77687
3.39406
4.76594
10.2485
18.6387
6.57441
9.55966
2.87016
3.69715
3.42949
3.41731
3.14181
3.75565
4.07276
6.36695
5.50963
6.43574
7.50831
6.4281
7.63807
9.05335
16.499
13.3181
8.96692
10.7407
26.651
31.0987
96.7177
21.3703
8.94218
13.5522
11.1449
36.6324
28.4947
106.64
3.9691
4.0141
3.65192
4.43684
5.29829
4.79422
4.86107
5.92118
5.01959
4.67253
5.12502
7.14315
5.51259
6.56855
5.29196
6.11181
4.84071
5.21711
7.37626
5.70405
6.67704
4.11064
4.1253
3.7684
4.60485
5.48733
4.99744
5.01561
6.17866
6.05334
5.20722
7.28914
6.09281
7.1801
8.64243
2.84174
3.09982
3.15552
3.10841
3.16288
3.54101
3.48168
4.54995
4.05416
4.08679
4.91903
4.96505
4.47692
5.41174
6.40871
6.5193
5.75592
6.57873
7.48692
7.42059
8.7306
8.67044
7.22936
6.4352
7.39849
6.33401
5.60907
6.3401
7.35625
7.40231
6.19753
6.27951
5.35817
6.30791
7.4582
7.33147
5.58207
6.5984
7.8989
6.60609
7.34126
8.84165
9.57294
11.8956
14.6556
31.0179
26.2131
83.3854
27.5269
7.34252
6.27294
5.2596
6.20071
7.46369
7.32357
8.84597
10.7945
17.3282
9.15747
11.9933
47.7081
44.2484
127.551
2.79731
3.43637
3.33688
3.36432
3.07881
3.0999
3.03835
6.16206
5.34223
4.87691
5.29651
7.52895
5.80902
6.79006
3.77037
4.13165
4.1318
5.02069
5.01565
4.5619
5.52141
12.5132
4.21705
6.65849
7.5499
14.1996
4.82868
7.54913
3.35196
3.80336
3.41133
3.82868
4.24138
4.30951
3.76568
12.5706
4.32307
6.89388
7.59307
14.2013
4.95666
7.81271
3.42393
3.89592
3.48431
3.91425
4.34935
4.41886
3.84983
12.4348
32.584
11.9523
31.7553
93.2763
13.2634
26.7258
33.8935
7.9442
11.2405
48.4225
127.701
15.0607
33.3718
14.9594
34.0537
7.57125
56.2838
135.817
18.9057
45.3397
5.62849
7.49105
6.23418
8.00354
6.64367
7.39754
8.99478
6.20249
6.6204
5.60316
7.96568
6.66156
7.44258
8.94848
5.6235
7.76254
6.51553
7.92144
6.60576
7.7587
9.39225
5.44287
7.48806
6.37151
7.62321
6.46065
7.63059
9.11237
3.39381
3.87586
3.45357
3.85333
4.29628
4.36481
3.7902
3.23901
3.59149
3.29426
3.59667
3.30138
3.69278
4.02147
6.37415
7.50078
6.59824
5.71726
6.5387
7.51362
8.85399
4.1223
4.12812
3.74642
4.55002
5.53717
5.00401
4.98924
5.66434
4.46015
4.90629
4.79254
6.85981
5.28614
6.16201
5.42057
7.69102
6.35896
7.8904
6.48911
7.71012
9.3905
3.30608
3.77911
3.36443
3.7569
4.19758
4.26541
3.69485
2.66046
2.89528
2.94412
2.90443
2.95198
3.29482
3.24217
3.55565
3.9216
3.87335
4.72216
4.64879
4.3083
5.17006
14.6928
4.44513
7.45655
7.92419
17.0524
5.10159
8.46093
6.87937
8.1813
8.82193
8.78598
8.1557
9.75556
10.6788
11.3462
15.307
12.9603
39.4198
36.5022
29.0523
112.936
6.66615
4.75498
5.1796
5.23979
7.44275
5.7213
6.72921
6.7096
5.64343
6.75934
7.66121
8.12997
7.54218
9.24324
5.70119
6.84118
8.21296
7.61109
6.38718
7.75303
9.33857
3.95937
3.87617
3.55845
3.98669
4.85868
4.48015
4.33253
4.03691
3.93072
3.60451
4.01314
4.92516
4.53877
4.36309
3.44558
3.9517
3.5065
3.93249
4.40846
4.47964
3.86739
4.0576
3.96524
3.63592
4.0763
4.98737
4.59483
4.43332
4.1152
3.98604
3.65741
4.09503
5.05718
4.6581
4.45342
2.77242
3.32088
3.06705
3.32563
3.07364
3.43011
3.71611
8.88673
7.40075
9.8847
10.8814
8.96429
8.25932
6.9156
15.5943
4.17638
6.7213
8.10031
18.3249
4.77835
7.60133
3.26306
3.72089
3.31897
3.73701
4.17571
4.24217
3.67592
13.1945
19.9149
43.5632
55.4803
150.405
16.017
35.2386
5.79156
7.04052
8.50405
8.12781
6.60703
7.92116
9.84056
3.78782
3.82695
3.45694
4.13411
5.06282
4.52141
4.57918
3.93328
3.81201
3.50672
3.90965
4.80431
4.43331
4.2409
7.36278
6.23246
5.4394
6.14973
7.35894
7.00259
8.60503
20.9377
9.55049
13.6455
31.9521
70.3457
14.0315
31.367
14.3589
13.7639
22.1143
14.1992
31.7592
79.0561
34.9473
5.61556
6.70375
7.9196
8.03803
6.06414
6.15926
7.26927
5.84875
6.96578
8.27571
8.31231
6.34872
6.37341
7.55469
3.87188
3.75039
3.45733
3.88872
4.77708
4.40953
4.21598
3.46678
3.97321
3.52683
3.99957
4.4892
4.56118
3.93432
7.55421
10.1861
8.74339
9.60845
8.55763
10.2107
11.8508
7.58452
8.59088
10.3022
9.67939
8.57969
10.2511
11.9649
5.77405
8.13813
8.21802
6.24041
6.30434
6.86163
9.00307
7.48141
10.1726
8.73586
9.47547
8.40236
10.1636
11.793
9.01677
8.26365
6.93071
8.92207
8.22367
9.86183
10.923
3.71437
4.11732
4.11975
4.97679
4.97617
4.60815
5.57143
0.937669
1.52403
1.62288
2.38919
2.90017
5.059
3.61255
1.34181
0.658745
0.9176
1.30198
1.77345
0.950324
1.292
0.690141
0.727735
0.762997
0.739603
0.774588
0.859579
0.821005
2.17346
1.2134
1.63935
2.70051
3.94984
1.95508
2.80904
0.778062
1.04737
0.859062
1.05761
0.870934
0.96398
1.16679
4.40751
2.08355
3.00508
3.36652
5.27488
2.4403
3.439
2.19698
1.04141
1.54204
1.97188
2.6754
1.44216
2.00024
0.813489
0.959273
0.852189
0.962692
1.04099
1.08551
0.920921
0.832211
0.979423
0.870586
0.969505
1.04945
1.09434
0.92776
1.09002
1.17471
0.974658
1.0811
1.43875
1.21167
1.29729
1.07054
1.16079
0.956105
1.07454
1.44007
1.20428
1.29379
1.51491
1.33825
1.3417
1.68363
1.67367
1.47953
1.85827
1.77077
2.20333
1.98731
2.17424
1.96503
2.20675
2.4618
1.08844
1.18369
1.18177
1.39158
1.23121
1.22904
1.04369
1.08564
1.18273
1.1862
1.22948
1.23253
1.39597
1.34724
2.19931
2.34461
2.31271
2.46451
2.43157
2.62446
2.75289
3.14992
1.81734
3.04943
4.45229
6.17387
3.579
4.52468
1.47957
2.07923
1.8711
1.8108
1.63574
2.06429
2.29094
1.47817
2.01569
1.84041
1.78832
1.63004
2.04196
2.23359
1.20685
1.51893
1.59566
1.60068
1.35427
1.35344
1.43886
1.20384
1.60597
1.61094
1.35448
1.35727
1.52571
1.7905
5.66498
2.60643
3.65487
4.74959
8.91435
3.68595
5.34825
2.31156
2.71796
2.58147
2.68901
2.54943
2.87697
3.02676
1.3433
1.57623
1.39262
1.58018
1.72886
1.78423
1.52829
2.39812
2.42196
2.17439
2.44105
3.07212
2.68947
2.75128
2.4964
2.48689
2.2289
2.47492
3.15486
2.77043
2.78778
1.35311
1.59348
1.40145
1.58604
1.74278
1.79851
1.53441
1.97284
1.98971
1.80117
2.26643
2.72457
2.47273
2.50782
2.30581
2.00198
2.01004
2.53174
2.54536
2.20612
2.78127
7.52419
4.11971
5.51304
6.21863
10.6922
4.50007
5.23174
2.64932
3.14849
2.77714
3.4075
2.98694
3.13271
3.58325
1.70604
1.7825
1.52163
1.71184
2.18989
1.91503
1.98351
1.72521
1.79707
1.53089
1.71835
2.21351
1.93182
1.9931
2.58214
3.05052
2.71065
3.33525
2.95225
3.1005
3.52248
0.929188
1.9815
2.73392
0.642443
0.937136
1.3026
0.917741
1.36053
1.29209
1.80179
0.674183
0.724962
0.71885
0.754286
0.760292
0.853434
0.814792
1.19714
1.63969
2.4864
1.64155
2.2177
2.81804
4.03067
0.759209
1.03995
1.03567
0.848074
0.853717
0.95509
1.1589
2.11357
3.12496
3.72516
2.78958
4.75351
3.91184
4.49642
0.822862
0.97856
0.861393
0.969048
1.05834
1.10245
0.927515
0.810453
0.959327
0.849177
0.962629
1.04455
1.08863
0.921094
1.51617
1.33195
1.3308
1.69073
1.68725
1.47892
1.87862
1.16426
1.08707
0.962691
1.07807
1.45171
1.21828
1.29755
1.15642
1.06956
0.951355
1.07209
1.44493
1.20604
1.29397
1.78886
2.2178
2.22477
2.00513
1.99919
2.24153
2.49909
1.09423
1.19926
1.19173
1.4088
1.23791
1.24548
1.05017
2.22981
2.35902
2.36647
2.4857
2.4779
2.65934
2.78531
1.47918
2.06911
1.87128
1.819
1.64192
2.08224
2.30044
1.47871
2.08681
1.88079
1.82102
1.64255
2.08791
2.31223
1.2109
1.61857
1.53711
1.61518
1.36188
1.36825
1.44814
2.46504
2.72596
2.601
2.59295
2.3401
2.90646
3.04965
2.79009
2.23016
2.48119
2.50015
3.16092
2.78096
2.81047
2.50276
2.5064
2.24462
2.50771
3.17812
2.79719
2.81849
2.01327
2.01393
1.82172
2.31084
2.79549
2.54998
2.54522
2.77214
2.64638
2.98354
3.40682
3.0034
3.14435
3.57694
3.15337
3.01165
2.66335
3.42227
3.01111
3.15204
3.59136
2.89618
2.83565
2.87287
3.14982
3.13594
3.2273
3.52308
3.90185
3.41598
3.25647
3.03771
2.89345
3.27482
3.43162
3.73824
3.44055
3.28409
3.05421
2.91098
3.28228
3.43818
2.73648
3.35572
3.48817
3.53587
3.01109
3.0591
3.12174
3.19167
2.99092
2.83659
3.23762
3.88075
3.68556
3.40534
3.2805
3.04636
2.89998
3.2668
3.91417
3.73484
3.42905
1.79066
1.95382
1.96169
2.25754
2.0124
2.02089
1.7352
3.17252
3.10734
2.78986
3.5651
3.09074
3.42964
4.01892
3.58219
3.57454
3.44514
3.11216
3.10486
2.79511
3.17545
2.1925
2.98526
2.75877
2.62331
2.4094
3.01821
3.2601
2.79334
2.21458
2.43141
2.65777
2.4235
3.03939
3.31151
1.9235
2.38988
2.42512
2.43942
2.14374
2.15424
2.20327
3.83559
3.87383
3.38068
3.56191
4.73726
4.08055
4.10779
3.59081
3.90079
3.41945
3.89344
4.11842
4.45332
4.75498
4.11848
4.45836
3.90165
4.11434
3.8959
3.41927
3.58797
3.98226
3.24048
3.52555
4.16786
3.65205
3.99083
4.5648
3.19724
4.13834
3.56388
4.1549
3.5645
4.01738
4.7138
3.19991
3.98986
3.51016
4.16143
3.63851
3.99408
4.60315
4.02942
3.7941
3.4435
3.78248
5.05029
4.15047
4.51485
4.29817
3.91456
3.73925
4.50737
4.30113
4.99094
5.2421
5.23278
4.98488
4.29552
4.29278
4.49602
3.73474
3.90871
3.71834
4.99832
4.50725
4.51215
4.28093
4.29787
3.90433
2.87775
2.8983
2.6441
3.29209
3.87797
3.55713
3.58751
3.71396
3.99389
3.40131
3.75653
4.99008
4.08534
4.49232
4.75366
5.10065
4.45803
5.82767
5.09557
5.51258
6.41535
4.43861
5.5087
4.75235
5.79491
5.08359
5.51416
6.41707
4.83361
4.82034
4.16952
4.58521
6.30423
5.36016
5.31687
4.02755
5.52075
4.6263
4.59583
6.41527
5.35178
5.45134
4.68243
4.00343
4.53991
4.56586
6.2319
5.24259
5.39256
4.12634
4.89808
5.56221
5.60158
4.47777
4.51746
5.02838
6.15504
5.83191
4.98477
5.83489
7.31711
6.87222
6.16061
5.86234
5.25959
4.99856
5.84828
7.38508
6.90751
6.18504
6.61568
6.6392
5.81628
6.41606
8.73579
7.48625
7.48381
5.29243
7.37872
7.52287
7.38713
6.25037
6.16051
6.31238
6.88411
9.74972
8.84252
8.79283
8.1833
8.15664
7.33901
9.12201
8.29745
9.24777
11.2688
9.99025
8.33374
6.95212
16.6605
5.6612
8.93282
18.0792
44.4953
11.4621
18.8508
11.6961
13.1163
21.4047
13.2635
37.6513
87.1678
32.6908
10.1126
8.20295
7.33598
9.26851
8.31359
10.1458
11.7375
4.60512
5.42709
4.26098
4.68835
6.6266
5.09283
6.03615
4.50884
6.05856
5.45521
5.62282
4.98822
6.01434
6.77323
5.8389
8.32979
6.37999
8.33104
6.37197
7.01362
9.22751
10.3521
8.84774
7.55721
9.70179
8.56584
10.3938
12.122
16.7886
5.50497
8.62097
18.3839
46.1465
11.1023
17.9847
4.43856
5.90859
5.35859
5.54173
4.95005
5.96335
6.66761
4.55017
6.09536
5.50849
5.69862
5.07381
6.12693
6.87372
10.3768
7.14616
8.57393
8.586
12.6745
10.4112
10.3927
4.00589
4.13808
3.678
4.16623
5.15505
4.74462
4.53283
3.23504
3.71316
3.2885
3.72189
4.19138
4.25674
3.66324
9.04744
8.29063
6.91933
8.32326
9.14524
10.0358
11.1879
7.43949
8.86957
10.7614
8.80114
10.6076
10.8462
13.1632
8.78904
10.5772
13.1281
8.83526
10.8076
7.42108
8.94641
7.4434
10.7622
8.92659
10.796
13.251
10.7557
8.91904
4.09082
3.50627
3.56515
4.03604
4.61458
4.68728
3.97086
9.78621
4.71178
5.41958
7.70142
23.871
8.77495
28.4387
5.76765
8.30573
7.03475
8.32034
6.35373
6.33135
7.48839
7.25983
10.6821
8.80741
8.66626
12.9533
10.6241
10.496
8.63058
7.22243
8.70192
8.7492
12.8762
10.5662
10.6071
8.99421
9.17318
10.9516
9.19367
13.6286
11.2445
11.0051
10.8467
8.98519
7.52846
9.09754
13.5017
10.9618
11.0146
4.2622
4.04936
3.71805
4.20483
5.3054
4.87729
4.57676
4.35194
5.85326
5.23423
5.47445
4.83198
5.80077
6.57928
5.40035
7.78819
5.9599
7.65251
5.85316
6.52055
8.57449
4.0347
3.76436
3.76692
4.48655
4.48671
4.22107
5.04565
10.9493
7.57308
9.15096
9.10893
10.8729
11.1808
13.5429
4.39198
4.92942
5.00495
4.96544
5.04132
5.82637
5.74345
20.6225
5.83836
9.7627
19.3428
59.6899
12.0129
22.7904
3.86389
3.71047
3.42431
3.87282
4.79682
4.42541
4.19846
4.57087
6.1901
5.5296
5.78354
5.09727
6.15693
6.9873
8.07656
8.62834
7.11206
9.00493
7.94982
10.0343
11.6572
4.28509
4.84057
4.91502
4.82425
4.89852
5.69994
5.61897
13.4697
10.8315
9.07591
11.0017
8.95664
7.51662
8.96611
22.4434
5.44497
8.69671
24.5001
67.6445
11.0455
18.91
4.26737
5.72306
5.11063
5.44129
4.79952
5.75543
6.53651
7.46256
8.50235
10.4918
9.6887
8.53225
10.4333
12.3018
15.4432
52.2733
15.5482
14.3967
26.9643
37.0426
123.56
8.10063
9.78345
9.94248
11.1061
11.3515
12.1655
13.974
9.04131
9.12628
11.1481
8.91792
13.5384
11.0262
10.8418
10.943
8.99839
7.52957
9.23141
13.6852
11.1405
11.2755
4.33688
4.86544
4.8959
5.74287
4.94014
4.97099
4.26858
4.44742
5.00573
5.05303
5.94618
5.0823
5.13044
4.37707
7.91281
8.86421
9.62498
10.8029
10.8802
11.7782
13.4155
7.39302
8.86794
10.8392
8.93898
11.1421
11.2621
13.9397
4.56703
5.63251
5.19749
5.67393
5.23509
6.04202
6.5412
5.1795
6.37014
7.43138
7.52729
5.67234
5.75315
6.72812
7.93151
11.806
9.5842
8.88764
13.4532
10.9231
10.8173
8.04208
12.0768
9.85726
9.07922
13.857
11.0346
11.2484
9.51687
9.33798
7.77872
9.27116
14.3177
11.4617
11.2809
4.50929
5.95529
5.5566
5.59318
5.12952
5.1621
4.89188
4.25097
4.81994
4.81746
5.71438
4.8935
4.89155
4.18362
5.68104
8.30151
6.31404
8.32804
6.31621
7.08825
9.40309
4.59031
6.23098
5.54855
5.9051
5.19412
6.28527
7.15205
9.4182
7.01406
8.39339
9.66917
8.50574
10.197
11.8228
4.45414
5.52633
5.10275
5.50582
5.08504
5.90868
6.39206
9.40522
9.69301
9.65488
11.5776
11.6159
12.0295
14.6657
9.05893
9.26408
9.4388
11.2155
11.4592
11.8149
14.6308
4.51687
5.10937
5.1877
5.17607
5.25491
6.11973
6.03452
27.671
4.44621
7.42763
13.6326
33.3078
5.08768
8.64172
3.27771
3.83217
3.32997
3.75766
4.30758
4.3723
3.69902
10.1324
10.3655
12.7681
9.56445
14.9235
12.0362
11.656
9.83864
9.70609
7.92345
9.5077
14.9781
11.9341
11.6911
4.62432
6.1643
5.7202
5.77495
5.27724
5.32702
5.01981
10.7979
10.8544
9.64977
11.8981
15.9371
13.7483
13.8335
13.0678
10.6517
9.73116
11.6822
16.1345
14.0206
13.063
10.7619
11.8459
13.3067
11.7453
16.3785
14.1953
13.1498
10.4495
10.5598
9.38204
11.7701
15.6784
13.5761
13.6108
10.789
11.7132
13.1636
11.7875
16.3707
14.0974
13.3289
11.8167
10.6529
10.7318
13.6868
11.9764
13.6437
15.7582
28.99
8.8079
13.1809
64.9594
148.899
20.9109
41.4074
6.92139
10.0998
8.62763
8.81273
7.84406
10.0337
11.6947
9.43703
10.0128
10.2014
11.5139
11.8419
12.5936
14.6941
4.41835
5.92147
5.49843
5.49648
5.07957
5.07748
4.78677
3.9841
3.75269
3.46507
3.90911
4.92847
4.54357
4.23763
7.47613
8.91073
6.78805
7.55068
11.1778
8.44286
9.95428
7.68085
9.08068
6.92138
7.61994
11.3597
8.58398
10.0431
9.9253
13.8042
11.973
11.8767
16.9669
14.3211
13.5441
4.69758
5.84102
5.38674
5.91957
5.45717
6.3428
6.86827
4.64218
6.47276
5.61738
6.0949
5.24943
6.36176
7.41794
14.3612
6.24121
13.542
10.2136
35.4478
25.5227
107.362
12.0423
10.9021
10.94
13.9399
12.3132
14.0597
16.2477
7.73286
9.19107
6.9955
7.77844
11.5728
8.72697
10.2786
7.40009
8.69079
6.6127
7.32732
11.0422
8.32702
9.679
13.5148
11.0229
9.95908
12.1007
17.0068
14.5555
13.7677
4.2147
5.7122
5.03723
5.4705
4.78011
5.73371
6.58455
5.04011
7.38468
5.6254
7.40656
5.62712
6.35272
8.40396
4.24206
4.832
4.90484
4.85708
4.92933
5.78035
5.70219
6.82398
6.42834
6.47843
7.7502
7.8165
7.46929
9.02547
9.13888
10.3246
10.1956
13.538
11.5657
13.5044
15.6328
4.61595
5.34911
5.25463
6.35742
5.3339
5.42844
4.54376
7.87065
9.25688
7.02466
7.82223
11.84