/*--------------------------------*- C++ -*----------------------------------*\
  =========                 |
  \\      /  F ield         | OpenFOAM: The Open Source CFD Toolbox
   \\    /   O peration     | Website:  https://openfoam.org
    \\  /    A nd           | Version:  9
     \\/     M anipulation  |
\*---------------------------------------------------------------------------*/
FoamFile
{
    format      ascii;
    class       volScalarField;
    location    "0.00295";
    object      rho.air;
}
// * * * * * * * * * * * * * * * * * * * * * * * * * * * * * * * * * * * * * //

dimensions      [1 -3 0 0 0 0 0];

internalField   nonuniform List<scalar> 
28759
(
0.258196
0.269543
0.535874
0.522628
0.972255
0.820116
1.37377
0.423413
0.161702
0.334106
0.255425
0.395088
0.40486
0.510532
0.396431
0.154674
0.250453
0.426711
0.520548
0.338999
0.408107
0.184126
0.189952
0.21172
0.192609
0.214319
0.244807
0.224254
0.428906
0.688316
0.821966
0.588916
0.600331
0.765527
0.935638
0.616891
0.442589
0.505154
0.866436
0.976748
0.684897
0.791887
0.178443
0.182848
0.206047
0.183331
0.206785
0.238098
0.215767
0.243946
0.357463
0.269403
0.361728
0.272113
0.29909
0.385196
0.242182
0.361392
0.267401
0.365498
0.268941
0.296452
0.388759
0.22115
0.274551
0.241696
0.278001
0.296569
0.31426
0.258878
0.288918
0.228294
0.248919
0.282768
0.308475
0.326352
0.26356
0.214755
0.270792
0.236727
0.27284
0.292121
0.311099
0.252095
0.882116
0.916479
1.19466
0.940824
1.09912
1.13866
1.2242
0.514587
0.45158
0.458999
0.540121
0.550843
0.480646
0.574959
1.14872
0.748377
0.882911
1.28325
1.35823
0.948722
1.19146
0.338885
0.391073
0.30335
0.332566
0.449817
0.371036
0.415539
0.380785
0.324298
0.29595
0.327733
0.435136
0.358808
0.409337
1.02488
0.946168
0.916723
0.755291
0.935407
1.16159
1.01548
1.3735
0.217325
0.279732
0.240021
0.275857
0.300924
0.320718
0.254684
0.323244
0.384151
0.294218
0.326138
0.439553
0.358546
0.413164
0.535149
0.463846
0.47221
0.559021
0.572122
0.493041
0.595115
0.695667
0.761226
0.692965
0.63798
0.698179
0.759929
0.828871
0.334942
0.394042
0.299239
0.33004
0.455118
0.369967
0.419381
0.31943
0.350132
0.342842
0.409986
0.359127
0.366558
0.301682
0.617186
0.586558
0.650575
0.704914
0.631031
0.660925
0.742005
0.564596
0.495413
0.473399
0.525416
0.502153
0.598318
0.622977
0.48978
0.62638
0.58781
0.545709
0.511385
0.61107
0.650218
0.484421
0.604555
0.582111
0.536727
0.514071
0.617616
0.640898
0.36396
0.478343
0.444461
0.469789
0.398386
0.405883
0.441402
0.31519
0.347074
0.340357
0.412498
0.365045
0.357945
0.295825
0.613805
0.720492
0.642622
0.742857
0.660516
0.68896
0.777664
0.502509
0.649135
0.609559
0.560261
0.524349
0.632511
0.673862
0.75488
0.761763
0.707278
0.773987
0.841606
0.82052
0.900132
1.55974
1.41276
1.10069
1.57337
1.44022
1.40716
1.66951
0.36354
0.449872
0.486016
0.476313
0.408076
0.400132
0.446598
0.848788
0.863816
0.775089
1.02932
0.937963
0.841702
0.924206
1.00409
0.83265
0.909539
0.825616
0.757073
0.831998
0.908849
0.839983
0.76963
0.855105
0.93487
1.02465
0.839643
0.917495
0.726505
0.678549
0.647819
0.690452
0.817902
0.720679
0.779515
0.810271
0.793816
0.820418
0.866666
0.898219
0.864116
0.95303
0.571148
0.560033
0.5342
0.634848
0.706192
0.661665
0.676184
0.886993
0.961077
0.81818
0.988364
0.911024
0.982706
1.07331
0.726123
0.761828
0.677436
0.706594
0.858598
0.755034
0.798625
0.699809
0.755969
0.671452
0.717098
0.848801
0.745291
0.813002
0.586932
0.573508
0.547656
0.656244
0.730496
0.700618
0.68237
0.759581
0.802943
0.708882
0.736997
0.901829
0.78844
0.837736
0.874859
1.02646
0.942136
1.07208
0.979909
1.04721
1.15237
0.851541
0.879935
0.802716
0.915614
0.867375
0.958548
1.0178
1.12734
1.01381
0.92025
1.11907
1.241
1.12671
1.01326
1.04431
1.04491
0.937485
1.1432
1.2665
1.13781
1.02344
1.01151
1.0253
0.943862
1.03442
1.11043
1.12462
1.20772
1.12966
1.11651
1.24827
1.02627
1.12866
0.921034
1.00889
0.735681
0.895796
0.818863
0.87411
0.766922
0.785127
0.835653
0.84359
1.01461
0.926521
0.962189
0.88931
0.983387
1.07024
0.838184
0.977645
0.922381
0.9525
0.907782
1.00669
1.06098
0.894676
1.08346
0.989572
1.01522
0.937402
1.04181
1.13452
0.765327
0.851723
0.938264
0.909732
0.818681
0.795183
0.873284
1.03521
0.959884
1.04729
1.05532
1.25094
1.12811
1.16168
1.225
1.225
1.225
1.225
1.225
1.225
1.225
1.23119
1.225
1.225
1.225
1.225
1.225
1.225
1.89445
1.22589
1.22501
1.225
1.225
1.225
1.225
2.6212
2.71866
1.31515
1.22508
1.225
1.225
1.225
1.22595
1.85507
2.72927
2.17694
1.22554
1.225
1.225
0.52956
0.875715
1.48001
2.40769
2.58055
1.22561
1.225
0.449545
0.745654
1.35293
2.38494
2.28948
1.22512
0.430748
0.742985
1.45335
2.69845
1.376
0.510162
1.07703
2.4741
1.50361
1.225
1.225
1.225
1.225
1.225
1.225
1.225
1.225
1.225
1.225
1.225
1.225
1.225
1.225
1.23861
1.22514
1.225
1.225
1.225
1.225
1.225
2.74417
2.43096
1.24074
1.22501
1.225
1.225
1.225
1.45957
2.09112
2.81991
1.53478
1.22508
1.225
1.225
0.756697
1.06515
1.66539
2.66134
1.96297
1.22509
1.225
0.651957
0.908194
1.53183
2.64118
1.62297
1.22502
0.806247
0.90121
1.63343
2.81229
1.2527
0.718302
1.28191
2.7965
1.23189
1.225
1.225
1.225
1.225
1.225
1.225
1.225
1.225
1.225
1.225
1.225
1.225
1.225
1.225
1.22503
1.22501
1.225
1.225
1.225
1.225
1.225
2.41308
1.27467
1.22514
1.225
1.225
1.225
1.225
2.15048
2.75425
2.43432
1.22811
1.225
1.225
1.225
1.36018
1.77638
2.26267
2.83802
1.23531
1.225
1.225
1.20493
1.45172
2.08099
2.84649
1.22936
1.225
1.23242
1.19471
2.20555
2.58974
1.22527
1.30918
1.38453
1.53794
1.22501
1.225
1.225
1.225
1.225
1.225
1.225
1.225
1.225
1.225
1.225
1.225
1.225
1.225
1.225
1.225
1.225
1.225
1.225
1.225
1.225
1.225
1.22537
1.22504
1.225
1.225
1.225
1.225
1.225
2.84041
1.84152
1.22776
1.22501
1.225
1.225
1.225
1.67257
2.01236
2.82169
1.25591
1.22501
1.225
1.225
1.43352
1.59329
1.83952
2.86077
1.26293
1.22501
1.225
1.24149
1.84362
1.90812
2.84385
1.22994
1.225
1.28688
1.53179
2.25091
1.22505
1.225
1.225
1.225
1.225
1.225
1.225
1.225
1.225
1.225
1.225
1.225
1.225
1.225
1.225
1.225
1.225
1.225
1.225
1.225
1.225
1.225
1.225
1.225
1.225
1.225
1.225
1.225
1.225
1.225
1.22545
1.22507
1.225
1.225
1.225
1.225
1.225
2.78504
1.63848
1.22727
1.22501
1.225
1.225
1.225
2.15171
2.01871
2.5539
1.23415
1.22501
1.225
1.225
1.33127
1.71251
1.94536
2.61165
1.22856
1.225
1.225
1.79225
2.16141
1.22506
1.225
1.225
1.225
1.225
1.225
1.225
1.225
1.225
1.225
1.225
1.225
1.225
1.225
1.225
1.225
1.225
1.225
1.225
1.225
1.225
1.225
1.225
1.225
1.225
1.225
1.225
1.225
1.225
1.225
1.225
1.225
1.225
1.225
1.225
1.225
1.225
1.225
1.22581
1.22505
1.225
1.225
1.225
1.225
1.225
2.45286
1.46597
1.2256
1.225
1.225
1.225
1.225
1.5777
1.82866
2.47182
1.2258
1.225
1.225
1.225
2.2039
2.40259
2.45459
1.225
1.225
1.225
1.225
1.225
1.225
1.225
1.225
1.225
1.225
1.225
1.225
1.225
1.225
1.225
1.225
1.225
1.225
1.225
1.225
1.225
1.225
1.225
1.225
1.225
1.225
1.225
1.225
1.225
1.225
1.225
1.225
1.225
1.225
1.225
1.225
1.225
1.225
1.225
1.225
1.225
1.225
1.225
1.225
1.225
1.22548
1.22504
1.225
1.225
1.225
1.225
1.225
2.25112
1.2869
1.22516
1.225
1.225
1.225
1.225
2.3387
2.15588
1.22869
1.225
1.225
1.225
1.225
1.225
1.225
1.225
1.225
1.225
1.225
1.225
1.225
1.225
1.225
1.225
1.225
1.225
1.225
1.225
1.225
1.225
1.225
1.225
1.225
1.225
1.225
1.225
1.225
1.225
1.225
1.225
1.225
1.225
1.225
1.225
1.225
1.225
1.225
1.225
1.225
1.225
1.225
1.225
1.225
1.225
1.225
1.225
1.225
1.225
1.225
1.225
1.225
1.22503
1.22501
1.225
1.225
1.225
1.225
1.225
1.22502
1.22517
1.225
1.225
1.225
1.225
1.225
1.225
1.225
1.225
1.225
1.225
1.225
1.225
1.225
1.225
1.225
1.225
1.225
1.225
1.225
1.225
1.225
1.225
1.225
1.225
1.225
1.225
1.225
1.225
1.225
1.225
1.225
1.225
1.225
1.225
1.225
1.225
1.225
1.225
1.225
1.225
1.225
1.225
1.225
1.225
1.225
1.225
1.225
1.225
1.225
1.225
1.225
1.225
1.225
1.225
1.225
1.225
1.225
1.225
1.225
1.225
1.225
1.225
1.225
1.225
1.225
1.225
1.225
1.225
1.225
1.225
1.225
1.225
1.225
1.225
1.225
1.225
1.225
1.225
1.225
1.225
1.225
1.225
1.225
1.225
1.225
1.225
1.225
1.225
1.225
1.225
1.225
1.225
1.225
1.225
1.225
1.225
1.225
1.225
1.225
1.225
1.225
1.225
1.225
1.225
1.225
1.225
1.225
1.225
1.225
1.225
1.225
1.225
1.225
1.225
1.225
1.225
1.225
1.225
1.225
1.225
1.225
1.225
1.225
1.225
1.225
1.225
1.225
1.225
0.652243
0.289845
0.431161
0.560474
0.738346
0.43416
0.535731
0.640566
0.310734
0.444472
0.534125
0.722791
0.43097
0.548367
0.622601
0.317028
0.460191
0.455091
0.722962
0.56037
0.812602
0.768325
0.307699
0.462232
0.653019
0.870006
0.465296
0.57606
0.292965
0.334106
0.337602
0.350616
0.353892
0.397299
0.382618
0.818839
0.527867
0.621286
1.01954
1.20014
0.828543
0.960278
0.615231
0.618799
0.800127
0.634736
0.954755
1.16994
0.916372
0.308443
0.332817
0.349714
0.335605
0.352854
0.398221
0.382676
0.559569
1.03129
0.885959
0.648448
0.897347
1.00468
1.29895
0.355361
0.460304
0.4638
0.390027
0.393204
0.431964
0.496679
0.355087
0.463325
0.390464
0.468692
0.394251
0.434048
0.501746
0.335087
0.35969
0.376278
0.371631
0.388426
0.43371
0.418543
0.96425
0.574689
0.752251
1.19514
1.39478
0.971491
1.05278
1.01597
1.51787
1.37427
1.28303
1.49579
1.55173
2.18522
1.0513
1.39721
1.69182
1.35512
1.51301
1.52756
2.26768
1.36492
1.41285
0.982886
1.66257
2.04328
1.24214
1.43253
0.380041
0.489495
0.415839
0.503173
0.42834
0.468913
0.537204
0.327922
0.355924
0.374277
0.367804
0.386448
0.437987
0.421551
1.52248
1.12614
1.32124
2.04364
2.45445
1.42517
1.65278
1.16118
0.488889
0.73375
0.828576
1.2493
0.583333
0.813822
0.379748
0.443801
0.394502
0.445659
0.489458
0.500915
0.432652
0.379627
0.444453
0.394835
0.447764
0.491425
0.503393
0.43415
0.378115
0.497918
0.418256
0.512585
0.431398
0.47769
0.551433
0.519671
0.54783
0.552227
0.645766
0.651435
0.583507
0.685033
1.22693
0.510685
0.819755
0.823558
1.31594
0.550348
0.905571
0.387634
0.457629
0.402379
0.450125
0.499921
0.51148
0.437149
0.628219
0.55425
0.562528
0.655643
0.667254
0.592416
0.698193
1.30375
0.522338
0.764834
0.972486
1.39719
0.56562
0.849832
0.388248
0.463676
0.404077
0.454088
0.507846
0.520523
0.44021
0.474682
0.49407
0.429325
0.476436
0.583109
0.528519
0.535588
0.48824
0.50208
0.436845
0.480788
0.594225
0.539089
0.540217
0.405317
0.468448
0.420378
0.482877
0.525837
0.538032
0.469312
0.52423
0.435084
0.45027
0.501251
0.571089
0.583742
0.487422
1.18188
0.603152
0.647499
0.864213
1.51365
0.953528
1.61158
0.496552
0.509725
0.44058
0.486117
0.608082
0.54981
0.548676
0.475481
0.496575
0.43016
0.479168
0.587357
0.53145
0.540496
0.668547
0.585339
0.602295
0.694556
0.716375
0.632009
0.745701
0.522212
0.499294
0.455098
0.514255
0.623423
0.566286
0.576501
0.407374
0.476687
0.423592
0.493517
0.541391
0.554647
0.478714
1.67777
0.641908
0.934307
1.34595
1.79345
0.760659
1.03741
0.440514
0.544743
0.457387
0.515382
0.598238
0.611982
0.50029
1.00316
1.07924
1.32189
1.16016
1.35848
1.86554
1.29715
0.557466
0.555723
0.486226
0.533437
0.674446
0.613955
0.59705
0.510615
0.534289
0.462042
0.528696
0.647989
0.586227
0.595835
0.693748
0.602638
0.62096
0.721612
0.745522
0.654256
0.777648
1.33434
0.665397
0.890787
1.29084
1.71958
1.0172
1.26425
0.710847
0.850201
0.858683
0.74693
0.754038
0.792677
0.904255
1.40189
0.799038
0.98896
1.27787
1.78933
1.0551
1.38805
1.35638
1.11693
1.08579
1.51113
1.91375
1.27473
1.29037
0.728646
0.867288
0.760418
0.885903
0.7756
0.810347
0.926473
0.580584
0.72266
0.681535
0.664701
0.620129
0.723973
0.769638
0.590051
0.741418
0.693229
0.676893
0.625364
0.730158
0.783536
1.11716
0.922229
1.01027
1.02772
1.13061
1.13022
1.24928
1.05729
1.09047
1.05404
1.13476
1.17339
1.16991
1.25795
1.4873
0.829733
0.931593
1.48983
1.88995
1.10183
1.3222
0.603022
0.764936
0.712374
0.694913
0.637745
0.747299
0.806484
1.16209
1.36883
1.46463
1.1372
1.46277
1.43236
2.0568
0.509937
0.574309
0.563342
0.662374
0.585512
0.574201
0.497596
0.504456
0.557935
0.564107
0.650074
0.568196
0.574423
0.493028
0.582389
0.573133
0.498145
0.551883
0.713116
0.646559
0.620816
0.585102
0.726139
0.688206
0.670522
0.627567
0.734344
0.777261
0.5005
0.557349
0.555716
0.567906
0.566057
0.645314
0.635656
0.778058
0.922923
0.808012
0.955025
0.835149
0.867653
0.993486
0.614313
0.757876
0.723747
0.709305
0.666749
0.779588
0.820655
0.957649
1.04772
1.15348
1.07942
1.19102
1.17838
1.30505
0.522563
0.574884
0.585397
0.590957
0.601753
0.677536
0.667695
0.653392
0.839371
0.77178
0.765661
0.689878
0.806628
0.884065
1.71942
0.927456
1.22346
1.04021
1.70367
1.44945
2.13325
1.56742
1.18178
1.34453
1.95345
2.22787
1.48198
1.62135
0.538484
0.686889
0.666216
0.653067
0.612113
0.600177
0.595476
0.532009
0.673502
0.644485
0.651107
0.593327
0.599619
0.58664
0.558216
0.641051
0.612816
0.733337
0.623911
0.652411
0.54574
0.528286
0.645382
0.642621
0.593448
0.59131
0.668953
0.718482
0.535331
0.5906
0.602151
0.612435
0.624302
0.705866
0.695107
1.10855
1.23738
1.31943
1.18745
1.11985
1.01298
1.08371
0.787355
0.633878
0.670354
0.740383
0.693194
0.814628
0.859238
1.2757
1.18168
1.03724
1.14729
1.24818
1.3161
1.42451
0.606337
0.663018
0.610806
0.680847
0.62757
0.701409
0.752204
1.10816
1.23256
1.31163
1.17873
1.07901
1.01064
1.11322
0.845832
0.934789
0.814734
1.00977
0.876743
0.911306
1.04922
0.625455
0.685273
0.629636
0.710639
0.652989
0.732147
0.786954
0.9838
1.05689
1.18547
1.12702
1.00865
0.93591
1.04048
1.20655
1.34392
1.41487
1.20497
1.26524
1.09138
1.15505
0.587286
0.736713
0.758633
0.705187
0.650432
0.679981
0.645924
0.579465
0.676727
0.640529
0.779772
0.689231
0.652695
0.565986
0.835984
0.899351
0.788491
0.837337
1.01508
0.888444
0.95621
0.980941
0.802788
0.858263
0.844668
1.03371
0.904558
0.964798
1.07916
0.965976
0.902364
0.956165
1.06806
1.02029
1.1438
1.4643
1.26485
1.35352
1.14065
1.2243
1.2403
1.32913
1.52492
1.24421
1.39099
1.25804
1.3875
1.24686
1.12473
1.34863
1.31851
1.22962
1.20288
1.11991
1.22894
1.31781
1.90182
0.864499
1.13562
1.93961
2.42714
1.32195
1.57292
0.678999
0.887735
0.807496
0.812819
0.72135
0.847494
0.941131
1.24241
1.14327
1.22702
1.37691
1.2685
1.35714
1.46731
1.8122
1.66075
1.44721
1.65644
2.33769
2.22659
2.53932
1.99504
1.5244
1.70871
1.74252
2.36844
2.42742
2.52149
0.749216
0.734196
0.680265
0.789101
0.926606
0.858814
0.841479
0.948733
0.889287
0.828613
0.867222
1.0692
0.9335
0.992826
0.840487
0.91054
0.797404
0.850883
1.02682
0.898083
0.97296
0.723316
0.730519
0.66846
0.773823
0.904385
0.828037
0.836067
1.24825
1.24482
1.1259
1.38986
1.25992
1.3922
1.5266
0.615942
0.676844
0.68845
0.722306
0.734169
0.824527
0.813568
0.770801
0.72512
0.721559
0.830738
0.826294
0.796021
0.900352
1.03384
0.998466
0.92891
0.97673
1.0921
1.04701
1.17519
1.24227
1.10579
1.02623
1.18739
1.05966
0.981261
1.09448
1.29559
1.30696
1.19372
1.18471
1.0882
1.19519
1.29812
1.38155
1.12354
1.24327
1.36268
1.24319
1.38175
1.52275
1.48413
1.62912
1.71533
2.11012
2.37516
2.87816
2.44735
1.41721
1.30095
1.17505
1.33127
1.46319
1.45539
1.58835
1.55116
1.85213
1.50257
1.72839
2.41745
2.40648
2.22166
0.612549
0.809159
0.784489
0.743156
0.721116
0.682895
0.676603
0.961551
0.878245
0.840636
0.904452
1.08464
0.948093
1.03566
0.690371
0.743591
0.763095
0.850708
0.87244
0.832056
0.939482
2.11617
0.878274
1.3621
1.57574
2.24388
0.962354
1.4551
0.640913
0.755197
0.650783
0.744062
0.858995
0.868391
0.73472
2.06194
0.855609
1.40591
1.44531
2.18055
0.936325
1.49862
0.650939
0.752165
0.660564
0.769127
0.871442
0.880721
0.759802
1.70091
2.17321
1.62286
2.61875
2.88989
1.9156
2.39924
2.624
1.53116
1.75096
2.4837
2.40386
1.84028
2.29353
1.83323
2.29001
1.38116
2.42186
2.08935
2.13659
2.41083
1.14923
1.42903
1.27151
1.38915
1.25675
1.39774
1.55437
1.26953
1.25703
1.14818
1.39167
1.28375
1.4284
1.55585
1.21739
1.46431
1.30914
1.4515
1.30287
1.39711
1.55005
1.13368
1.33299
1.22052
1.37045
1.25684
1.349
1.46436
0.635651
0.742864
0.645167
0.740227
0.848601
0.857789
0.731035
0.710158
0.776565
0.717361
0.82666
0.764555
0.852512
0.91206
1.10664
1.20425
1.03971
0.993874
1.07667
1.12329
1.26006
0.824158
0.789698
0.734217
0.848824
1.01058
0.901875
0.939804
1.01024
0.87934
0.916886
0.950021
1.14221
0.995608
1.09251
1.2896
1.53378
1.39824
1.6145
1.47777
1.59378
1.72826
0.670233
0.774614
0.680667
0.802709
0.908221
0.918016
0.792659
0.655795
0.724437
0.737255
0.788876
0.801797
0.902715
0.89055
0.714823
0.770635
0.799008
0.883153
0.915147
0.872615
0.986481
2.3369
0.982752
1.68454
1.54651
2.48201
1.07009
1.78578
1.1118
1.20211
1.34025
1.32687
1.18999
1.27892
1.43111
1.91341
1.80855
1.85512
2.83011
2.36428
2.52144
2.87303
1.11865
0.899611
0.975294
0.936763
1.16822
1.02079
1.07361
1.32277
1.22016
1.37415
1.53678
1.47255
1.47484
1.6515
1.22173
1.37131
1.46607
1.47517
1.35861
1.5361
1.64682
0.778301
0.725118
0.674782
0.76678
0.94138
0.890927
0.816063
0.765252
0.717769
0.668614
0.762704
0.929192
0.879908
0.811389
0.691526
0.829566
0.701617
0.794748
0.934398
0.944098
0.785201
0.774605
0.733996
0.684134
0.791759
0.952937
0.902949
0.841475
0.853208
0.778157
0.726038
0.817741
1.019
0.966962
0.868556
0.691584
0.837579
0.770769
0.906841
0.836571
0.935648
1.00464
1.365
1.28015
1.32522
1.48263
1.40042
1.25542
1.15359
2.54107
1.0647
1.54866
1.97635
2.65386
1.16395
1.6466
0.72731
0.886413
0.738403
0.839651
1.00055
1.01098
0.829299
1.83308
2.25048
2.60202
2.91442
2.74524
2.29857
2.72815
1.34257
1.50804
1.59118
1.70213
1.50657
1.61186
1.79759
0.881047
0.835254
0.772459
0.895807
1.08761
1.00671
0.955779
0.798261
0.758807
0.70591
0.827157
0.994474
0.941494
0.880415
1.23332
1.099
1.05504
1.14489
1.28737
1.19098
1.34073
1.88117
1.15131
1.42213
2.03309
2.62872
1.45279
1.99222
1.50725
1.437
1.95361
1.55415
2.01132
2.73159
2.17574
0.912533
1.05573
1.12815
1.10462
0.987437
0.967243
1.04417
0.89319
1.02972
1.08492
1.0954
0.950863
0.959998
1.02049
0.913624
0.823526
0.766082
0.865278
1.09416
1.03665
0.920893
0.762997
0.874324
0.773663
0.930556
1.04349
1.0539
0.920123
1.01465
1.21227
1.13731
1.1488
1.08081
1.214
1.29189
1.03448
1.10969
1.24739
1.17012
1.09078
1.22569
1.31613
0.890087
1.08957
1.08305
0.954505
0.949081
1.02562
1.16561
1.02813
1.22015
1.15344
1.16263
1.10089
1.23784
1.30797
1.39092
1.24556
1.14739
1.35846
1.21736
1.31491
1.47255
0.804743
0.867604
0.921933
0.9874
1.04649
1.0048
1.12667
0.130084
0.249838
0.41265
0.498019
0.679298
0.863024
0.914754
0.214418
0.0728818
0.131072
0.313084
0.380461
0.234316
0.305297
0.0927921
0.0893228
0.110989
0.0896284
0.111291
0.131479
0.108557
0.476982
0.32094
0.394828
0.628433
0.737803
0.473649
0.587851
0.149242
0.258211
0.170625
0.260804
0.171449
0.193583
0.284211
0.816749
0.504632
0.633459
0.841884
1.07324
0.612056
0.778757
0.378769
0.156463
0.252985
0.404384
0.494033
0.328716
0.402175
0.108709
0.154411
0.131569
0.153998
0.15557
0.178872
0.130506
0.108598
0.15367
0.131491
0.153749
0.154683
0.178318
0.130186
0.217572
0.287042
0.19417
0.216984
0.335543
0.241315
0.309957
0.216145
0.281847
0.192987
0.2165
0.330118
0.240283
0.307256
0.388933
0.346218
0.351741
0.417203
0.425235
0.375918
0.452115
0.436691
0.510649
0.469533
0.521887
0.479491
0.511491
0.559845
0.178449
0.182732
0.183086
0.236045
0.205674
0.205782
0.154953
0.179539
0.183912
0.185053
0.206309
0.207182
0.236708
0.215754
0.537443
0.54453
0.556584
0.579618
0.592381
0.599678
0.63934
0.581136
0.41894
0.583606
0.774837
0.90145
0.669196
0.757724
0.370636
0.47203
0.444616
0.422563
0.399434
0.478509
0.504857
0.382307
0.498309
0.461646
0.434833
0.405529
0.487384
0.523085
0.240651
0.292704
0.357802
0.354934
0.2662
0.265483
0.332463
0.240188
0.353031
0.352254
0.265244
0.265469
0.291861
0.376423
1.17979
0.660174
0.841601
1.11529
1.59385
0.89794
1.13973
0.572286
0.660824
0.617477
0.67596
0.631177
0.681983
0.731333
0.214785
0.269797
0.236073
0.269797
0.288973
0.307215
0.250174
0.568314
0.573788
0.523557
0.554207
0.665307
0.59777
0.611672
0.534265
0.54876
0.501956
0.542659
0.636072
0.573818
0.59786
0.217132
0.272186
0.237842
0.270629
0.290618
0.308486
0.251267
0.45627
0.449893
0.428091
0.512932
0.57086
0.547488
0.537856
0.499586
0.445138
0.442722
0.530736
0.527091
0.46745
0.556321
1.01726
0.796348
0.931115
1.1597
1.42779
0.932768
1.02541
0.587498
0.678017
0.626297
0.69169
0.644812
0.690428
0.745583
0.321452
0.377853
0.291939
0.320714
0.430628
0.353181
0.402075
0.322082
0.376384
0.292458
0.320921
0.42889
0.353358
0.401276
0.614958
0.72875
0.655954
0.725625
0.66039
0.707559
0.783925
0.228665
0.458458
0.643144
0.0725862
0.13479
0.307381
0.131812
0.218866
0.304291
0.37783
0.0919342
0.0904962
0.0898114
0.111047
0.111504
0.13265
0.110305
0.312072
0.39918
0.548586
0.392339
0.468553
0.582512
0.716272
0.146426
0.254897
0.254267
0.169087
0.16927
0.192558
0.279777
0.48838
0.689251
0.800182
0.614501
0.866918
0.845767
0.932489
0.111191
0.157362
0.133296
0.156389
0.159971
0.182539
0.133605
0.109608
0.15497
0.132162
0.155624
0.157498
0.180373
0.132652
0.377742
0.340992
0.339127
0.408053
0.411048
0.366698
0.439849
0.281085
0.217814
0.193049
0.216851
0.331123
0.242292
0.305349
0.27946
0.216031
0.192389
0.216257
0.328394
0.24047
0.304304
0.423275
0.501784
0.497488
0.458099
0.461989
0.49592
0.541427
0.181341
0.18794
0.186378
0.239451
0.208324
0.209775
0.158632
0.520119
0.534708
0.530245
0.564358
0.568921
0.579132
0.617073
0.369883
0.47914
0.444709
0.423006
0.39464
0.472404
0.505905
0.365706
0.468614
0.438129
0.417743
0.392292
0.468746
0.497901
0.241155
0.354467
0.293786
0.35272
0.266197
0.267474
0.3292
0.591888
0.647954
0.601176
0.605828
0.553678
0.65801
0.704874
0.598386
0.502244
0.543714
0.534876
0.637156
0.575208
0.588133
0.53895
0.529797
0.493637
0.530007
0.625144
0.56477
0.582593
0.446109
0.443044
0.419159
0.500127
0.557625
0.527548
0.532092
0.625006
0.586756
0.644486
0.692141
0.633262
0.677314
0.745221
0.671283
0.627348
0.57659
0.678803
0.627271
0.67104
0.73093
0.712469
0.720607
0.729684
0.777166
0.79751
0.789746
0.863008
0.86216
0.79102
0.736646
0.713664
0.666277
0.723952
0.777225
0.784988
0.770766
0.717765
0.702219
0.655419
0.717394
0.770258
0.584302
0.65657
0.701411
0.685959
0.627214
0.61459
0.648815
0.781083
0.751715
0.700157
0.757255
0.912733
0.844239
0.814588
0.725058
0.715961
0.668028
0.738481
0.863828
0.801223
0.793566
0.307292
0.331838
0.332314
0.393708
0.348421
0.348774
0.289305
0.627937
0.600724
0.567021
0.674918
0.60545
0.63764
0.71494
0.669641
0.676244
0.639055
0.601241
0.606961
0.567691
0.628433
0.471126
0.59388
0.561952
0.521456
0.493078
0.586355
0.618784
0.554778
0.466523
0.491568
0.517129
0.490811
0.582767
0.61197
0.352644
0.428663
0.460163
0.459134
0.388624
0.388518
0.428833
0.771307
0.753127
0.70654
0.762261
0.897347
0.840409
0.819405
0.734773
0.733219
0.682121
0.740038
0.804334
0.790014
0.866115
0.796472
0.791176
0.733542
0.804711
0.741038
0.682331
0.734591
0.919559
0.772344
0.842702
0.937262
0.85838
0.938898
1.02745
0.804232
0.966875
0.866963
0.996445
0.891994
0.964206
1.07467
0.813299
1.00636
0.891232
0.994222
0.882632
0.967588
1.09506
0.71213
0.671852
0.635498
0.670935
0.801482
0.706787
0.756819
0.861199
0.850595
0.789306
0.943021
0.870263
0.944954
1.03106
1.03099
0.945326
0.861109
0.870014
0.942195
0.788779
0.849759
0.81973
0.981232
0.990206
0.962422
0.911415
0.887342
0.884645
0.548953
0.546772
0.517786
0.61322
0.68263
0.648006
0.644664
0.685728
0.723794
0.644972
0.675775
0.813267
0.716141
0.762783
0.862096
0.842865
0.786672
0.897007
0.842057
0.930421
0.997415
0.80033
0.954702
0.87822
0.911067
0.848982
0.938615
1.0135
1.08277
1.05013
0.961262
1.05559
1.30791
1.19567
1.15678
0.999152
1.25782
1.13021
1.08265
1.3574
1.22655
1.20408
1.04673
0.939776
1.02515
1.04789
1.2694
1.14564
1.16494
0.708641
0.790088
0.854703
0.848901
0.750286
0.745714
0.803965
1.12652
1.02436
0.940145
1.02382
1.22553
1.10552
1.1262
1.05225
1.04736
0.95903
1.03348
1.24759
1.12415
1.13761
0.961829
0.954847
0.900162
1.0011
1.14059
1.07505
1.06677
1.17897
1.45915
1.46936
1.42138
1.33606
1.29016
1.30558
1.10991
1.2756
1.33642
1.32563
1.19808
1.18869
1.23082
1.43351
1.28205
1.48643
1.56056
1.39106
1.32695
1.21793
2.28734
1.01509
1.58529
1.91439
2.74833
1.39449
1.97136
1.40711
1.66192
2.06514
1.48561
2.36248
2.82079
2.0804
1.30033
1.15553
1.07308
1.21202
1.12431
1.26474
1.36435
1.03647
1.09441
0.948272
0.989323
1.2503
1.08943
1.13939
0.794825
0.994673
0.898671
1.00765
0.888456
0.992416
1.11281
0.922795
1.11468
0.976736
1.14288
1.00141
1.06877
1.21376
1.27844
1.21891
1.0867
1.22841
1.17272
1.31824
1.38148
2.36017
1.04471
1.54236
2.07207
2.78869
1.43558
1.92765
0.803849
1.01506
0.909545
1.02177
0.894055
0.99906
1.12916
0.812303
1.00596
0.917796
1.03275
0.920489
1.02689
1.13955
1.67612
1.38355
1.53978
1.54023
1.83593
1.69684
1.67694
0.85663
0.898967
0.800174
0.956556
1.13461
1.07861
1.01401
0.821161
0.945423
0.832999
1.02057
1.14403
1.15558
1.00894
1.44619
1.29517
1.22949
1.34358
1.50271
1.40877
1.57806
1.3559
1.4988
1.57413
1.48382
1.63311
1.58808
1.72014
1.483
1.63127
1.71844
1.49625
1.58572
1.35439
1.44575
1.29296
1.5282
1.41231
1.53549
1.6538
1.52781
1.41174
1.0884
0.877708
0.88898
1.00081
1.20931
1.22088
0.989971
2.33487
1.3193
1.42534
1.79651
2.77353
1.90543
2.79352
0.980605
1.2271
1.14647
1.18019
1.03442
1.0765
1.12226
1.41726
1.72894
1.59315
1.55797
1.87153
1.73215
1.69438
1.55662
1.41479
1.54823
1.59095
1.86842
1.73167
1.72451
1.52887
1.57459
1.69561
1.50141
1.7792
1.65864
1.61601
1.54114
1.42506
1.31772
1.45069
1.68127
1.56203
1.56718
1.11756
0.98161
0.918539
1.02838
1.31031
1.24854
1.08923
0.841555
1.04098
0.95202
1.07921
0.964878
1.07745
1.19164
0.961072
1.16035
1.01539
1.20164
1.05167
1.12245
1.27456
0.998228
0.939237
1.01398
1.0707
1.15153
1.11057
1.24587
1.61192
1.40793
1.49678
1.56807
1.68957
1.65271
1.77358
0.864802
0.99326
1.00294
1.0067
1.01641
1.17915
1.16853
2.59585
1.15617
1.87893
2.02549
2.84173
1.5596
2.33959
0.974514
0.929069
0.864231
1.05158
1.24972
1.18487
1.11879
0.860097
1.10061
0.970091
1.10243
0.949434
1.05814
1.21357
1.19426
1.28736
1.14497
1.2963
1.24066
1.39763
1.45969
0.887848
1.01427
1.02415
1.04467
1.05474
1.21485
1.20395
1.67967
1.53995
1.44782
1.56525
1.43083
1.31535
1.42333
2.73022
1.26029
1.73797
2.61701
2.82475
1.68712
2.16314
0.912983
1.18665
1.03115
1.18579
1.00892
1.12552
1.30571
1.16669
1.26742
1.42441
1.32277
1.21603
1.36673
1.48624
1.74147
2.74206
1.89903
1.61791
2.34594
2.27689
2.8681
1.42164
1.52166
1.55997
1.71024
1.75582
1.65539
1.86574
1.64521
1.71123
1.84138
1.64266
1.97165
1.83588
1.77435
1.78069
1.6455
1.51796
1.71446
1.97796
1.83594
1.84958
0.858817
0.996503
0.989942
1.17181
1.00625
0.999623
0.849554
0.906891
1.03176
1.06956
1.23789
1.04161
1.07964
0.897441
1.37033
1.53124
1.49917
1.66539
1.68232
1.60662
1.80722
1.33084
1.43609
1.55732
1.44825
1.61549
1.6297
1.75298
0.886907
1.07657
1.02548
1.09045
1.03903
1.20275
1.25627
1.03786
1.23306
1.31586
1.25299
1.15388
1.0973
1.1912
1.36916
1.60352
1.48303
1.53062
1.80462
1.67967
1.66454
1.42589
1.66494
1.56873
1.59606
1.87405
1.715
1.7631
1.54356
1.50978
1.39387
1.48998
1.76836
1.64358
1.60722
0.881082
1.19551
1.08084
1.07344
1.02905
1.02224
0.930722
0.958963
1.1434
1.08784
1.31542
1.15418
1.09821
0.948878
1.06963
1.28469
1.12878
1.35436
1.19299
1.27098
1.43169
0.944981
1.1555
1.0622
1.22395
1.10478
1.22428
1.34132
1.55016
1.32128
1.38068
1.62547
1.44405
1.50477
1.69424
0.910773
1.09995
1.04724
1.132
1.07819
1.23902
1.29423
1.63604
1.71316
1.61344
1.7169
1.8231
1.79243
1.90624
1.4747
1.5135
1.5569
1.61145
1.65897
1.70369
1.81869
0.992775
1.12034
1.1308
1.1843
1.19521
1.35397
1.34208
2.77165
1.51344
2.00933
2.69243
2.72404
1.63659
2.15381
0.982387
1.2386
0.994769
1.1167
1.36358
1.37652
1.10451
1.61069
1.6742
1.75985
1.71485
1.99195
1.89289
1.81645
1.90076
1.82066
1.6864
1.79964
2.16531
2.00675
1.93647
0.929332
1.26167
1.11641
1.15549
1.06435
1.10262
0.980193
1.22805
1.23992
1.15486
1.29869
1.4851
1.38149
1.39458
1.52395
1.42302
1.27146
1.3604
1.62727
1.44902
1.5259
1.45124
1.39806
1.56773
1.37386
1.65789
1.47657
1.54086
1.27807
1.25111
1.18294
1.33129
1.52327
1.43772
1.40763
1.4446
1.36797
1.53496
1.38818
1.64927
1.46799
1.55796
1.29486
1.2337
1.22605
1.37939
1.31732
1.38807
1.48039
2.63664
1.4989
1.74813
2.84851
2.76983
2.1615
2.5239
1.24474
1.53396
1.40344
1.41924
1.29543
1.46034
1.59695
1.72212
1.62267
1.68997
1.82672
1.90676
1.77703
2.00755
0.983315
1.34042
1.23597
1.17731
1.17911
1.12221
1.03816
1.27227
1.10156
1.02892
1.14936
1.48089
1.4092
1.22038
1.14417
1.17802
1.03631
1.12621
1.40619
1.25845
1.27077
1.12074
1.1629
1.02344
1.11848
1.38562
1.2399
1.26191
1.3485
1.63841
1.45858
1.41847
1.72139
1.53147
1.59242
1.01638
1.20813
1.15423
1.27474
1.21943
1.37842
1.43366
1.07933
1.40977
1.20617
1.40713
1.18464
1.30851
1.53115
2.57951
1.526
1.96845
2.00618
2.8041
2.50854
2.52047
1.34385
1.26178
1.29346
1.4187
1.37053
1.45352
1.53752
1.13309
1.18686
1.04471
1.1559
1.41617
1.2685
1.30284
1.17273
1.23214
1.08422
1.21252
1.47795
1.32582
1.36534
1.60616
1.52483
1.36245
1.47653
1.73886
1.54878
1.65627
1.02897
1.26259
1.15822
1.35107
1.22291
1.35533
1.47994
1.15318
1.39209
1.22384
1.48393
1.31034
1.40116
1.57097
1.07562
1.21171
1.22304
1.29427
1.30628
1.47014
1.45724
1.12064
1.15792
1.17242
1.26568
1.28091
1.34087
1.45107
1.24976
1.3146
1.36109
1.47844
1.4383
1.52997
1.61179
1.12918
1.35531
1.26219
1.52676
1.2737
1.36749
1.11827
1.23523
1.25092
1.10241
1.18969
1.49844
1.34683
1.33939
1.38684
1.33502
1.27101
1.42884
1.6359
1.49907
1.55556
1.15434
1.18408
1.21806
1.29501
1.33113
1.38175
1.49521
1.62492
1.77806
1.86603
1.93829
1.77906
1.86701
2.03691
2.18562
2.56166
2.8212
2.62708
2.4663
1.27364
2.38551
1.87999
1.65259
1.73845
1.96927
1.8224
1.91015
2.07018
1.1553
1.4536
1.55341
1.35619
1.29904
1.3942
1.21409
1.16335
1.15496
1.00975
1.11558
1.44512
1.27248
1.26291
1.19954
1.24005
1.06158
1.1703
1.51348
1.30935
1.35147
1.32987
1.32836
1.17157
1.2645
1.60297
1.4462
1.42093
1.69636
1.50872
1.44295
1.56932
1.84486
1.63868
1.76702
1.10299
1.30861
1.24933
1.3965
1.33428
1.49758
1.55783
2.83818
1.57014
2.35636
2.55389
2.75835
1.6668
2.50304
1.15908
1.3649
1.16967
1.36876
1.56734
1.58081
1.3568
1.75118
1.89567
1.84278
1.9866
2.10034
1.92204
2.19643
1.70548
2.00219
2.01953
1.8543
1.87197
2.01289
2.18436
2.76521
2.78632
2.58592
2.09775
1.25237
2.44698
2.44368
2.39021
2.42299
2.36278
1.71384
1.23374
2.42691
1.85191
1.59546
1.88239
1.89272
1.8429
1.75493
1.7118
1.71646
1.25455
1.51435
1.3937
1.69213
1.52785
1.40643
1.24226
1.32686
1.26552
1.1259
1.24176
1.60372
1.44512
1.38101