/*--------------------------------*- C++ -*----------------------------------*\
  =========                 |
  \\      /  F ield         | OpenFOAM: The Open Source CFD Toolbox
   \\    /   O peration     | Website:  https://openfoam.org
    \\  /    A nd           | Version:  9
     \\/     M anipulation  |
\*---------------------------------------------------------------------------*/
FoamFile
{
    format      ascii;
    class       volScalarField;
    location    "0.00215";
    object      impulse;
}
// * * * * * * * * * * * * * * * * * * * * * * * * * * * * * * * * * * * * * //

dimensions      [1 -1 -1 0 0 0 0];

internalField   nonuniform List<scalar> 
17417
(
14.9872
6.50354e-07
2.35557e-07
7.91297e-09
2.41714e-10
9.98273e-07
6.36418e-08
2.0158e-09
1.8723e-06
72.55
8.50817e-05
0.000421367
0.00136838
1.97213e-06
6.04977e-06
0.0160423
2.03504e-05
9.09861e-06
1.91078e-06
0.00438077
0.000100973
2.35779e-05
48.8508
0.948912
36.5439
13.729
1.67886
89.7357
0.000212474
61.6978
52.9527
46.6523
27.7342
29.4404
21.813
37.7652
0.000715308
1.38275e-05
1.83803e-05
8.88405e-05
4.41312e-05
0.000239216
0.000289358
0.0112562
0.00129143
0.062554
0.0448579
0.00404238
0.00387857
0.16358
34.7612
38.3285
28.4174
17.8401
7.89459
14.3382
9.21462
1.14649e-05
0.000711289
0.000166389
2.92356e-05
0.00896821
0.0178575
0.0308158
0.000173607
0.868256
0.0646068
0.00689647
3.46108
0.00574544
0.0727579
0.0720795
0.863789
2.88795
0.202158
2.26542
0.237347
61.3649
0.462013
32.9919
0.00573123
85.0807
13.8727
17.4637
0.144338
6.04762e-06
3.09685e-06
1.11565e-08
3.45766e-10
6.51118e-07
2.35679e-06
2.05163e-08
5.43562e-07
2.06063e-08
6.88083e-10
9.95436e-10
9.1009e-10
4.18074e-10
8.30975e-08
3.59331e-09
1.33956e-10
1.5005e-11
1.30869e-11
7.28251e-12
5.42915e-09
2.31425e-10
8.69453e-12
3.79805e-13
1.73532e-13
1.06472e-13
2.68828e-10
1.1626e-11
4.19338e-13
6.18456e-15
1.21266e-16
0
1.11808e-11
4.55111e-13
7.88229e-15
0
0
0
3.58826e-13
6.0633e-15
0
0
0
0
0.0261621
1.82381e-07
8.59235e-07
3.01424e-09
4.44445e-11
7.7451e-08
5.43183e-07
4.98935e-09
1.77339e-07
6.62026e-09
2.12599e-10
8.25193e-11
1.11328e-10
8.36841e-11
2.51427e-08
1.10264e-09
4.04994e-11
2.14883e-12
1.61926e-12
1.27026e-12
1.57471e-09
6.79526e-11
2.54513e-12
8.27034e-14
1.96451e-14
1.18841e-14
7.7588e-11
3.35349e-12
1.13384e-13
0
0
0
3.17862e-12
1.21994e-13
0
0
0
0
9.28897e-14
0
0
0
0
0
1.53528e-05
1.0603e-08
4.13505e-10
2.41283e-12
2.96273e-10
1.34699e-08
1.69784e-10
4.89397e-08
1.66708e-09
5.08838e-11
2.0055e-12
2.15744e-12
2.74352e-12
5.93404e-09
2.4215e-10
8.49444e-12
2.54295e-13
3.20142e-14
3.50459e-14
2.93957e-10
1.26286e-11
4.50382e-13
4.72937e-15
0
0
1.2454e-11
5.17684e-13
9.33748e-15
0
0
0
4.45895e-13
9.33748e-15
0
0
0
0
4.72937e-15
0
0
0
0
0
2.74126e-08
1.47283e-10
8.26084e-09
8.99466e-12
8.14907e-14
1.97451e-11
3.13133e-12
6.86817e-08
1.23562e-09
2.3864e-11
4.48563e-13
1.78261e-14
5.3357e-14
2.33262e-09
6.8016e-11
2.08141e-12
4.18368e-14
0
0
7.59441e-11
2.63644e-12
7.13044e-14
0
0
0
2.33085e-12
7.66401e-14
0
0
0
0
5.71163e-14
0
0
0
0
0
0
0
0
0
0
0
0.0762283
6.41668e-06
1.14979e-09
4.78261e-12
4.05307e-12
0.000133184
1.57241e-06
1.19576e-09
1.25074e-12
4.3777e-14
9.26472e-14
2.63122e-07
4.51232e-09
7.71034e-11
1.29585e-12
1.61284e-14
0
6.94319e-09
1.68587e-10
4.47762e-12
9.51938e-14
0
0
1.8032e-10
5.28113e-12
1.33635e-13
0
0
0
4.56967e-12
1.42609e-13
1.21266e-16
0
0
0
1.00287e-13
0
0
0
0
0
0
0
0
0
0
0
0.406875
1.67304e-06
1.11314e-08
3.97018e-10
2.40771e-11
1.20017e-12
7.86112e-07
5.55121e-08
1.1168e-09
2.11844e-11
9.53878e-13
2.91038e-14
5.137e-08
1.91701e-09
5.02058e-11
1.34157e-12
3.22567e-14
0
1.62504e-09
6.24229e-11
1.84167e-12
4.26856e-14
0
0
4.60614e-11
1.83863e-12
4.9719e-14
0
0
0
1.21508e-12
3.88051e-14
0
0
0
0
2.24342e-14
0
0
0
0
0
0
0
0
0
0
0
5.71103e-07
5.11601e-08
1.93117e-09
8.66079e-11
4.44112e-12
1.45762e-13
6.542e-08
2.8493e-09
1.09708e-10
4.39965e-12
1.83839e-13
1.21266e-16
2.57189e-09
1.21316e-10
5.06758e-12
1.91358e-13
9.70128e-16
0
8.99598e-11
4.38243e-12
1.70257e-13
9.70128e-16
0
0
2.84199e-12
1.29755e-13
1.21266e-16
0
0
0
7.10619e-14
0
0
0
0
0
0
0
0
0
0
0
0
0
0
0
0
0
3.37278e-08
1.93497e-09
1.04755e-10
5.42095e-12
2.36469e-13
9.70128e-16
2.15617e-09
1.14132e-10
5.70653e-12
2.59267e-13
1.94026e-15
0
9.71181e-11
5.34043e-12
2.42047e-13
3.51671e-15
0
0
3.76446e-12
1.94753e-13
2.54659e-15
0
0
0
1.23327e-13
9.70128e-16
0
0
0
0
0
0
0
0
0
0
0
0
0
0
0
0
0
0
0
0
0
0
1.00866e-09
6.77416e-11
4.14196e-12
2.10033e-13
1.69772e-15
0
6.74052e-11
4.16549e-12
2.14883e-13
2.54659e-15
0
0
3.32499e-12
1.8396e-13
2.54659e-15
0
0
0
1.20417e-13
9.70128e-16
0
0
0
0
0
0
0
0
0
0
0
0
0
0
0
0
0
0
0
0
0
0
0
0
0
0
0
0
2.85419e-11
2.13513e-12
1.17871e-13
1.21266e-16
0
0
1.95323e-12
1.21266e-13
4.85064e-16
0
0
0
9.04644e-14
1.21266e-16
0
0
0
0
0
0
0
0
0
0
0
0
0
0
0
0
0
0
0
0
0
0
0
0
0
0
0
0
0
0
0
0
0
0
1.36056e-06
2.19368e-08
7.8305e-07
1.90803e-08
3.51902e-09
5.12418e-11
2.81862e-09
6.77127e-11
3.63136e-11
1.1978e-07
2.19588e-11
4.21334e-08
0.46098
1.93848e-06
9.36615e-05
0.346174
7.17915e-07
3.50014e-05
0.00181827
4.51464e-05
6.36088e-06
0.092435
0.000959797
2.20069e-05
4.0826e-06
1.89284e-07
1.89966e-06
1.47343e-07
1.98176e-06
1.22033e-07
1.173e-06
1.05239e-07
6.9383e-10
1.00159e-08
1.99726e-09
7.20358e-09
4.44739e-10
7.57052e-09
1.60814e-09
1.32584e-08
1.84465e-10
5.89548e-10
1.7245e-10
6.48236e-09
1.4556e-10
2.93925e-10
4.65825e-06
1.88155e-08
1.16749e-07
3.31593e-07
2.44757e-06
9.15229e-09
5.87481e-08
4.20963e-07
8.63674e-09
2.43445e-09
1.26286e-09
2.04397e-11
3.57018e-10
8.99478e-12
7.35199e-12
1.84592e-08
1.37989e-12
3.7037e-10
0.15506
3.34725e-07
1.67596e-05
0.038214
8.09465e-09
6.2696e-07
2.5749e-05
1.17292e-05
1.39467e-06
0.000248527
7.67798e-06
3.44036e-06
2.85112e-07
5.3479e-08
4.72218e-07
4.06341e-08
1.6983e-08
1.58735e-07
1.78881e-08
1.91365e-10
2.79164e-09
6.35502e-10
9.54829e-10
6.0329e-11
1.36509e-09
2.53252e-10
1.38817e-09
5.11117e-11
6.70693e-11
7.506e-12
1.27324e-10
2.643e-11
1.29762e-11
6.0603e-07
1.97215e-09
1.34948e-08
7.86036e-09
6.88034e-08
2.13859e-10
1.60911e-09
9.65852e-10
1.53122e-09
1.50977e-10
2.93051e-12
1.79637e-10
2.52852e-12
5.91778e-13
5.4197e-11
2.83035e-13
3.75924e-14
0.00124821
1.29841e-09
1.01132e-07
1.63774e-05
8.27276e-13
1.20237e-09
9.92591e-07
5.30204e-07
4.04736e-08
1.06628e-06
5.19532e-08
2.8155e-08
1.85042e-09
7.47684e-09
5.88345e-08
6.7856e-09
8.3898e-09
4.02706e-08
4.21272e-09
2.82324e-11
5.09877e-10
1.4293e-10
4.1655e-10
2.04491e-11
3.26572e-10
5.97181e-11
4.88168e-12
1.09604e-11
4.06811e-12
1.0732e-12
1.99483e-13
6.15231e-12
1.48248e-12
3.18497e-09
7.94341e-12
7.05759e-11
4.73447e-12
7.812e-11
3.00618e-13
2.05788e-12
1.75819e-08
4.56719e-05
2.0835e-09
8.15671e-12
6.75822e-06
7.38129e-09
9.33869e-13
5.94203e-15
5.8483e-10
8.77966e-13
6.03416e-08
4.60811e-14
6.28772e-11
8.57643e-11
1.20902e-13
2.03193e-12
2.08245e-09
7.89492e-10
7.89358e-11
9.35296e-10
6.19737e-11
4.74516e-11
4.83803e-12
1.96292e-07
3.23531e-07
2.1292e-08
7.24436e-06
4.72713e-06
3.18493e-07
2.88622e-10
1.27145e-09
8.06694e-11
2.68454e-07
7.63317e-09
1.3465e-08
4.98781e-10
2.93342e-13
4.13553e-12
9.00642e-13
1.89021e-10
4.88981e-12
2.04555e-11
1.37079e-12
1.74065e-12
5.12955e-14
5.94203e-14
1.26238e-13
7.17894e-14
5.32358e-14
9.21621e-15
0.000993141
4.25642e-05
4.92187e-08
0.00132716
2.95658e-05
2.49606e-05
1.57119e-06
4.36397e-08
3.96343e-09
9.43728e-12
1.48304e-06
5.61781e-08
7.27025e-08
3.24719e-09
3.21539e-11
1.55087e-12
1.63588e-13
2.41475e-09
1.41982e-10
1.49127e-10
8.57556e-12
0.0440402
3.42853e-06
1.38223e-07
8.15837e-06
4.31676e-09
2.235
6.82023e-05
7.25321e-11
1.24396e-10
56.9839
1.28011e-05
1.061e-07
5.35004e-09
9.9836e-10
3.58289e-11
0.00347339
2.37662e-06
3.57986e-08
1.96231e-09
9.54906e-11
3.21355e-12
2.3532e-07
2.43327e-08
1.53481e-09
8.59155e-11
4.1513e-12
1.42124e-13
8.2337e-09
8.20584e-10
5.68261e-11
3.24423e-12
1.42124e-13
0
2.60835e-10
2.53987e-11
1.82348e-12
8.65839e-14
0
0
4.15684
3.3872
4.79509
20.1183
0.451851
2.85441
3.45434
0.250214
1.90926
0.607389
0.115293
3.15139
0.0507643
0.00163537
0.275182
0.000855194
0.0274589
0.0886048
0.000420394
0.000229465
0.0062349
2.34951e-05
0.0516113
3.75392e-06
0.000500538
1.25012e-06
0.00403764
1.44582e-06
1.22124e-06
1.05563e-09
3.20479e-07
8.95794e-07
3.99453e-08
2.11222e-07
1.07354e-08
1.95466e-08
1.15407e-09
18.3731
32.8255
1.04739
0.0145635
24.4864
0.0442409
2.21384
0.000156821
0.00107452
9.41055e-05
5.4191e-07
0.00337553
1.63302e-05
2.03697e-05
8.96056e-07
1.89149e-07
1.05989e-08
2.68824e-10
3.73615e-07
2.23266e-08
3.37604e-08
1.86562e-09
0.0990944
2.53248
0.00091157
0.000570128
0.00967239
0.154825
0.0241438
0.000651253
0.0110409
0.00156291
0.00530521
5.36407e-07
2.06371e-05
1.46481e-06
8.39066e-08
1.1773e-06
8.57011e-08
5.42022e-07
3.6576e-10
9.5833e-10
1.97361e-10
8.81736e-11
9.17244e-11
2.08557e-11
3.0267e-10
8.08424e-08
3.82826e-07
4.40518e-07
1.3007e-06
3.54134e-07
4.047e-07
8.86411e-08
1.42721e-08
3.71938e-09
7.03076e-08
2.00993e-08
3.42471e-09
6.59623e-08
1.55615e-08
6.13351e-08
9.14667e-07
1.93229e-07
2.27951e-07
2.56893e-07
3.19666e-07
4.28972e-08
1.0565e-08
2.06513e-08
2.66283e-09
3.66104e-08
3.14898e-09
4.74549e-08
7.50774e-09
1.49615e-10
6.67317e-10
1.07897e-09
3.33557e-09
6.22835e-10
9.84058e-10
1.6332e-10
2.81606e-11
1.00972e-11
1.93706e-10
4.7535e-11
9.39629e-12
1.78797e-10
3.10527e-11
1.22886e-10
2.89238e-09
4.7884e-10
6.06678e-10
5.45649e-10
7.96802e-10
9.59627e-11
2.16779e-11
6.93709e-11
8.74691e-12
1.10042e-10
1.02437e-11
1.28941e-10
1.75092e-11
9.38334e-10
4.65511e-11
3.33559e-10
3.42502e-11
4.22258e-11
3.00782e-10
1.03557e-09
2.08171e-08
4.71656e-07
6.39171e-09
1.06853e-07
4.28967e-07
5.74313e-09
2.2931e-08
6.59819e-10
2.56887e-11
1.61717e-11
1.09962e-10
2.97006e-11
2.02441e-10
3.50019e-10
1.48916e-08
7.59331e-08
1.80102e-07
2.16854e-09
3.1238e-07
3.97581e-09
8.21937e-09
0.421899
0.387136
0.348605
0.0332455
0.0269215
0.0240152
0.0367295
0.000135741
9.11732e-06
2.59575e-05
1.72544e-06
8.29274e-06
2.27105e-05
0.000153652
0.273383
0.248252
0.182797
0.0264359
0.0117057
0.0183181
0.0181017
0.000102251
1.2488e-06
3.70384e-06
9.969e-06
6.14283e-06
1.662e-05
6.43248e-05
1.57259e-08
1.06279e-07
1.53992e-07
2.65308e-08
8.94783e-08
2.76543e-09
1.30896e-09
2.18905e-08
3.93397e-09
4.47712e-09
6.34111e-10
1.48957e-08
1.41386e-09
2.79343e-09
3.09339e-10
4.28323e-09
4.01748e-10
7.1591e-09
8.25861e-10
2.95817e-11
2.37042e-10
4.18706e-10
7.17225e-10
5.95361e-11
1.20529e-10
2.03694e-10
5.87279e-12
3.48749e-12
6.41383e-11
1.09577e-11
1.04423e-11
1.60156e-12
4.09183e-11
1.86569e-11
3.72989e-10
5.60115e-11
7.64626e-11
6.83725e-11
1.38944e-10
1.14577e-11
3.25781e-12
9.84098e-12
9.76555e-13
1.40922e-11
1.1952e-12
2.04681e-11
2.14568e-12
4.69588e-11
6.21403e-12
4.22031e-11
4.12814e-12
1.435e-10
2.09087e-12
1.53144e-11
1.23984e-09
8.32816e-08
8.89477e-10
6.51649e-09
3.5743e-09
3.08924e-08
3.0635e-10
1.20217e-11
1.62484e-12
2.59145e-13
1.10012e-12
6.22701e-13
3.59056e-12
2.41259e-12
3.37586e-10
1.77306e-09
2.05697e-09
1.65495e-11
9.06153e-09
7.63677e-11
7.16084e-11
0.10339
0.084003
0.0491277
0.0052098
0.0062264
0.0105737
0.00273819
1.40218e-05
1.81647e-06
4.79838e-06
1.22524e-07
3.30118e-05
7.23189e-07
1.92428e-06
0.019067
0.00569253
0.0138559
0.00211203
0.000264738
0.000969676
0.000671838
4.73542e-06
3.62714e-08
5.62903e-08
1.46563e-07
2.30097e-07
5.91278e-07
1.24712e-06
3.48556e-10
1.44677e-10
2.76918e-09
5.20534e-10
5.26556e-10
8.14455e-11
1.93358e-09
6.05514e-10
4.49299e-10
1.52579e-09
5.30707e-09
1.23545e-10
1.40081e-09
9.08986e-09
3.62925e-12
2.66878e-11
4.33928e-11
9.59672e-11
6.32087e-12
1.55853e-11
2.61409e-11
6.25611e-13
3.86475e-13
7.82553e-12
1.40305e-12
1.17737e-12
1.64922e-13
4.3703e-12
3.2549e-12
7.51993e-11
2.00449e-10
5.31704e-11
1.87209e-11
1.91031e-11
2.49698e-11
5.09317e-13
1.02191e-12
3.82594e-13
5.81628e-12
1.15081e-13
3.4864e-12
2.55083e-12
4.13517e-14
8.33097e-14
2.79639e-13
3.43546e-13
3.41849e-13
3.34694e-14
1.25874e-13
1.10267e-12
3.3097e-10
2.15708e-12
5.74776e-12
1.0572e-11
3.62913e-11
2.99527e-13
3.27418e-15
1.71955e-13
3.44395e-14
6.70601e-14
1.28542e-14
4.25644e-14
2.30405e-15
8.53712e-14
4.63479e-13
1.85416e-13
6.0633e-15
2.95998e-12
2.40107e-14
3.88051e-15
0.000180143
0.00371568
0.000673227
2.4607e-05
5.28939e-05
0.000157765
7.27318e-06
3.09343e-08
9.96173e-09
2.46301e-08
1.43209e-10
2.4e-07
1.1675e-09
2.9741e-09
1.10281e-06
7.01735e-05
4.70616e-06
2.34434e-06
7.27975e-08
6.2971e-07
1.58365e-07
2.7215e-09
1.18822e-11
6.32826e-12
1.79808e-11
9.75565e-11
2.4954e-10
1.94742e-10
3.67308e-06
3.12076e-08
7.40986e-08
1.95527e-07
1.84609e-07
6.47796e-07
1.16463e-06
7.20043e-05
3.19769e-06
0.000257046
0.000251283
1.34375e-05
1.83569e-05
0.0013038
1.09506e-08
4.23307e-09
4.24492e-10
2.7061e-08
5.03043e-10
9.24144e-08
3.48337e-09
1.08302e-09
4.64631e-12
4.08174e-11
4.74812e-11
4.908e-11
9.55236e-11
3.35539e-10
2.47299e-07
4.61764e-07
4.04059e-05
8.25564e-07
2.0145e-06
5.87304e-08
5.19646e-06
2.50132e-08
7.44188e-10
4.94019e-08
8.33105e-08
2.20978e-09
5.76547e-09
5.45483e-07
5.44605e-13
3.64525e-13
2.23251e-13
3.82412e-12
3.03165e-14
7.33453e-12
8.37827e-13
3.89264e-14
9.21621e-15
2.36469e-14
2.13428e-14
1.57646e-15
3.51671e-15
6.4756e-14
1.13393e-11
5.80247e-11
3.87771e-09
4.98096e-11
1.70216e-10
8.60055e-12
2.34295e-10
8.57108e-13
2.91766e-13
2.14168e-12
4.27887e-12
1.17628e-13
6.96673e-13
1.59739e-11
4.47078e-09
1.18804e-08
2.50215e-07
4.43146e-10
3.97238e-09
8.59368e-09
5.92629e-10
4.26371e-13
3.4767e-13
1.04058e-12
6.4271e-15
1.11773e-11
1.3218e-14
6.75451e-14
2.65761e-10
5.02473e-11
5.08281e-10
2.30727e-11
3.99417e-11
5.71637e-11
4.80917e-12
3.10441e-14
2.25555e-14
3.49367e-13
3.52884e-14
1.63709e-14
8.60988e-15
9.59214e-14
8.4999e-05
0.00286052
0.000266623
6.53986e-05
1.54684e-05
0.000172576
6.61046e-06
8.68038e-09
1.00201e-07
8.56239e-09
8.17545e-09
6.50184e-10
6.18262e-09
1.91451e-09
13.8886
53.1242
28.6244
34.7154
38.1326
0.00137672
0.194121
0.154702
0.0831852
0.0117496
0.00665985
0.0185962
2.33062e-07
5.73796e-06
3.72114e-06
5.94477e-06
3.54306e-07
2.39444e-06
8.8612e-07
3.88875
4.81156
4.41074
21.2781
30.4371
29.0092
22.0326
3.62051
2.69313
2.57984
19.8513
21.4299
25.9723
17.6638
1.56313
1.17484
0.801691
11.1024
15.8569
14.6785
10.1918
0.344179
0.114347
0.254516
7.36827
2.13087
5.39475
3.98458
0.00439636
0.0799282
0.0171169
0.403571
0.569532
1.5594
0.100101
1.7583
1.51503
2.43581
0.0137172
21.012
0.233042
0.123253
2.72999e-05
0.00206522
0.000139974
0.059006
0.000643025
0.0100967
0.00410968
8.66785e-08
3.31677e-07
7.26375e-06
8.98232e-06
3.25793e-05
0.000205547
1.49405e-06
4.49051e-09
8.2546e-10
1.27994e-08
3.25122e-07
6.85902e-09
6.55572e-08
1.5032e-08
5.79272
19.0403
7.92213
52.7843
32.2724
48.1839
29.3825
2.49948
1.72919
0.991743
10.0209
8.8543
0.241229
0.139627
2.01106
0.355278
1.92975
15.9025
4.70296
10.6012
0.00125683
0.0472009
0.00472836
0.207185
0.0863792
0.761511
0.0182113
9.99625e-05
0.0152211
6.10771e-05
5.3117e-05
0.000861464
0.000514296
8.95671e-06
7.16978e-06
0.000379718
2.75264e-05
9.82869e-05
0.00731738
0.000550633
0.00137646
8.47297e-08
1.88821e-06
1.43539e-07
6.96609e-06
2.79269e-06
3.9012e-05
6.89376e-07
2.89427e-09
1.24366e-08
2.21232e-09
2.13167e-08
1.89987e-07
2.61752e-08
8.26017e-08
0.000232732
0.106928
0.000659662
0.000167211
0.00559986
0.00409409
2.86979e-05
8.24839e-06
7.12633e-06
6.08112e-06
9.86293e-08
0.000149165
1.17472e-06
3.1525e-07
0.479817
3.32261
0.790287
0.0612731
0.280505
0.0350612
0.191249
1.20141e-07
3.18359e-06
13.2867
1.06611e-07
2.96056e-07
5.45347e-08
1.10389e-07
1.34164e-07
1.50908e-06
0.00479839
0.000240864
54.9672
43.6069
20.7801
0.0193886
0.00164481
3.33014e-07
7.21277e-08
8.46108e-09
1.46777e-07
2.2116e-08
2.63525e-08
3.33228e-08
5.27365e-08
4.70632e-09
1.84405e-09
1.17859e-08
1.93082e-08
3.36569e-08
3.06932e-09
7.4651e-09
1.09849e-08
3.35992e-09
2.60122e-08
2.00723e-07
3.41983e-08
1.41387e-08
7.58068e-09
4.73021e-08
1.70582e-05
3.76201e-06
4.27191e-07
2.43642e-05
8.97193e-07
6.85417e-05
5.78633e-06
0.000319701
0.000361073
0.0204008
0.00124276
0.00123282
8.79413e-05
0.00556791
36.2718
32.152
43.9923
74.9328
68.8943
60.4815
93.0984
3.40976
3.3886
18.1402
9.16376
9.25083
1.08096
0.8767
3.29201e-12
1.30543e-11
2.86655e-11
1.36521e-12
4.57294e-13
1.85149e-12
6.00994e-13
0.00020143
5.72669e-06
1.53585e-05
4.13583e-05
1.65091e-06
1.36257e-05
6.58046e-07
4.41459e-08
7.48819e-08
2.75913e-09
1.13177e-06
7.27031e-08
5.26795e-08
4.78429e-09
3.64176e-11
9.71731e-11
6.32742e-12
3.7835e-09
2.12754e-10
2.71291e-10
4.79819e-11
7.08193e-14
3.00255e-13
5.6995e-14
1.03557e-11
1.25644e-12
2.61716e-12
5.1914e-13
0.000250096
1.29882e-05
0.000153564
1.73094e-05
0.00820227
2.6519e-05
1.47162e-06
5.13986e-05
1.23809e-07
2.22383e-06
2.16976e-06
1.68803e-07
1.28838e-07
1.19511e-08
1.38356e-07
2.44375e-09
9.78408e-09
1.05535e-08
7.20679e-10
1.04293e-09
2.44358e-10
7.55767e-10
1.47281e-10
1.34631e-10
5.44717e-11
9.37349e-12
3.27292e-11
1.07913e-11
0.00217801
0.00167409
0.000147464
8.17696e-05
0.00147884
0.000130472
0.00243111
0.0016796
5.92214e-05
0.000671741
6.10125e-05
0.00109913
9.8037e-05
0.00109472
0.00026969
0.000339724
3.12104e-05
6.77298e-06
0.000595095
0.000138316
1.3218e-05
9.84599e-05
2.06273e-06
1.1624e-05
1.21451e-06
4.65247e-05
4.37151e-06
2.81331e-05
8.2155e-07
2.13306e-06
2.14641e-07
2.59314e-08
5.92362e-06
2.96635e-07
3.14632e-08
7.35151e-08
2.15639e-09
3.82399e-09
2.00707e-10
2.46757e-08
2.46006e-09
5.08237e-09
1.64319e-11
2.10658e-10
1.16374e-11
1.3239e-11
2.81177e-10
5.19166e-11
1.28348e-12
1.1262e-12
2.31254e-12
3.44929e-12
9.26472e-14
4.98051e-12
1.37273e-13
3.83807e-13
4.33302e-05
0.000690101
5.36222e-06
2.23545e-05
9.10303e-05
0.000355084
3.68531e-06
4.30096e-06
8.45153e-07
5.47747e-07
7.41904e-08
9.56145e-06
4.89711e-07
3.83803e-07
8.75201e-09
6.45018e-08
4.22343e-10
8.48894e-09
4.98582e-09
4.22263e-08
2.15921e-09
9.22992e-10
5.60416e-11
4.40446e-11
9.4269e-11
3.98125e-10
3.16708e-10
3.23941e-10
2.10087e-11
6.49623e-11
4.35005e-11
1.85567e-11
4.52213e-12
5.06758e-12
7.39068e-12
1.54552e-11
8.82113e-12
4.09151e-13
1.53941e-11
2.29314e-12
3.97751e-11
4.54905e-12
2.47746e-12
4.77424e-13
9.72553e-14
3.29965e-13
5.48728e-13
1.19423e-12
9.43449e-13
3.95393e-11
1.87774e-10
5.96226e-10
1.00327e-08
9.24881e-10
1.80959e-09
2.82906e-10
4.20746
0.00103792
2.81753e-05
0.817765
9.44445
0.0700017
0.0326261
0.00959542
1.14135e-06
2.39657e-05
0.161366
0.000107684
4.45532e-05
6.03483e-06
1.38508e-06
3.01266e-08
1.0104e-07
8.01945e-06
7.76062e-07
7.46832e-07
3.11772e-07
8.86067e-09
2.35502e-09
2.24547e-09
7.76875e-08
3.71246e-08
6.23169e-08
3.73814e-08
3.5768e-08
4.76066e-07
1.86169e-08
1.47233e-07
4.70233e-08
2.9514e-07
1.35095e-08
2.15612e-10
5.53626e-10
4.48895e-10
3.93373e-09
1.85891e-09
4.52196e-09
1.39002e-09
0.0136794
0.00142078
0.0202452
0.000272598
0.0041864
0.00015716
0.00241215
0.00456954
0.0648715
0.00604899
0.0829599
0.0226695
0.266923
0.289568
2.96768e-07
8.55778e-08
1.29869e-08
1.36066e-06
1.75388e-07
4.63714e-08
7.11525e-09
5.89491e-08
1.49123e-08
2.12282e-09
1.03244e-07
1.24996e-08
3.07142e-09
5.17069e-10
1.39197e-09
3.16196e-10
4.44709e-11
6.62075e-10
7.08006e-11
1.71104e-11
4.28105e-12
2.74219e-12
4.98888e-13
1.82748e-13
1.02482e-12
2.41198e-13
2.23129e-14
2.6921e-14
1.66134e-14
1.69772e-15
1.69772e-15
1.44913e-13
5.94203e-14
4.89914e-14
6.66963e-15
1.2064e-07
5.39921e-09
3.09532e-08
1.52273e-09
5.61015e-09
2.3595e-10
1.78516e-09
5.08337e-11
3.77348e-09
9.48641e-11
2.00753e-06
4.90189e-07
1.19154e-07
5.97784e-08
1.42123e-07
4.73783e-07
1.86146e-08
6.19196e-10
1.81014e-11
2.66859e-08
1.05267e-09
3.66411e-11
1.13214e-12
2.06159e-08
1.03926e-09
4.4424e-11
1.62036e-12
3.90476e-14
6.64534e-10
3.63107e-11
1.59356e-12
4.30494e-14
0
1.96484e-11
1.10097e-12
3.7835e-14
0
0
271.241
346.497
150.258
1.03697
412.238
109.986
0.0561489
524.149
67.8848
72.4339
279.268
0.00756992
0.000398837
351.667
44.5527
3.33265e-06
446.41
24.0045
111.52
56.5598
167.13
0.00393331
2.76581e-06
162.324
0.161172
2.76055e-07
265.777
0.613407
3.18748
1.05967
129.372
12.7784
1.9325e-05
2.22836e-07
165.362
0.5063
1.17933e-05
2.708e-08
259.933
22.6604
0.00059879
4.87955e-05
1.08376e-06
3.65661e-08
101.369
8.00457
0.000196681
3.49999e-07
2.5943e-09
151.158
0.000108637
1.94483e-06
9.34165e-08
3.22235e-09
9.01313
0.000974947
3.621e-07
1.34967e-08
4.73632e-10
1.70522e-06
1.09527e-07
4.53919e-09
1.79549e-10
1.48166e-05
3.66251e-07
1.89041e-08
8.23001e-10
3.08286e-11
1.68077e-07
1.42591e-08
8.00637e-10
3.74119e-11
1.44937e-12
570.089
529.167
197.434
501.948
243.654
398.068
147.993
459.655
203.602
601.427
551.687
210.6
476.085
179.356
22.3462
503.95
390.751
521.67
392.589
158.915
319.962
72.2289
4.49399
239.288
337.662
280.997
207.875
337.537
125.322
3.32348
260.392
52.8085
6.40036
0.00165852
63.3577
1.42659
338.353
344.16
137.573
38.6095
75.5826
231.664
313.496
170.52
137.004
233.739
52.0451
5.84533
246.635
55.9629
23.6042
0.0272674
16.5253
0.0176274
0.000187644
15.7696
0.00235292
0.00193245
3.27302e-05
0.00111315
1.2142e-05
331.361
264.699
68.8849
68.4098
26.6263
0.0342485
0.00209314
199.881
44.3128
15.444
446.602
516.479
438.545
116.107
433.655
177.965
225.304
17.6967
316.384
73.495
369.113
410.303
332.39
190.258
205.337
133.319
190.054
171.147
109.202
2.54234
1.85295
0.0959395
35.503
149.325
10.0059
33.796
12.5791
35.2519
0.0415464
0.00419255
1.13228
0.00830088
0.0135006
9.17168e-05
0.0031995
3.76129e-05
5.29845e-06
3.90999e-05
1.222e-06
9.91285e-06
8.09269e-07
2.18839e-06
1.54682e-07
97.6216
75.0425
552.478
563.431
545.894
548.91
511.714
531.319
408.819
486.79
427.596
494.721
479.529
419.969
416.766
393.958
480.001
445.146
384.601
465.271
405.316
372.615
593.595
575.711
499.561
399.263
422.354
63.9572
195.038
273.854
71.9063
292.439
78.8791
60.5018
487.418
473.014
458.122
435.698
378.378
422.481
485.191
441.899
49.3263
249.576
62.3874
134.318
55.6866
220.499
50.4151
368.153
242.748
290.18
334.568
323.538
409.941
274.343
397.623
255.938
349.372
332.48
416.797
316.045
267.257
400.925
349.512
243.561
256.351
201.295
98.2968
194.599
177.482
276.698
168.344
96.8652
242.462
179.995
196.496
158.167
174.11
121.043
41.4118
128.747
41.0044
17.7987
103.15
62.8982
7.87238
409.722
277.831
349.174
418.939
273.323
350.256
209.386
203.55
280.429
8.34774
106.354
9.21446
12.2742
19.5224
60.5885
2.18752
140.555
25.084
74.9725
255.602
287.597
371.097
217.059
347.019
189.527
280.122
230.477
214.971
169.362
253.067
153.044
165.735
125.443
36.4261
105.79
100.559
188.356
89.3186
65.3393
219.018
177.884
152.681
149.17
123.575
92.9942
23.3725
33.9315
112.695
11.2631
84.3756
3.99335
43.4672
13.5239
70.123
7.92935
2.68053
46.9081
28.5759
0.856751
1.85152
0.541113
0.00575846
0.239726
0.144449
6.26587
0.0750337
0.01417
6.51749
1.41043
0.998994
0.39707
0.270121
0.0517447
0.000542152
0.0334607
0.000408716
6.42531e-05
0.00927102
0.00179687
4.44572e-05
399.49
239.668
309.353
194.688
285.938
147.929
126.647
214.623
126.116
17.1947
56.1476
88.7287
5.41141
41.0351
1.0549
0.489186
10.7982
0.063405
0.000113683
0.00333716
97.9925
239.43
77.4959
119.003
97.4653
158.524
68.5348
49.106
66.4458
311.282
85.8152
205.52
305.096
83.5138
67.9903
41.393
105.139
149.288
21.726
187.281
36.4035
31.3619
198.931
373.005
185.989
305.33
183.884
356.258
141.662
0.34415
76.0872
21.0511
68.1198
0.0671025
63.1185
14.3907
0.0210063
34.3144
0.143703
1.37055
0.000211095
6.66441
0.00143779
207.429
237.143
183.725
160.349
177.151
137.456
7.28429
142.665
5.64792
37.3764
0.0625253
9.72501
0.00409051
3.73204e-05
0.466618
0.000184177
0.000116075
5.55904e-06
0.0339624
3.77451e-06
42.9393
122.667
11.6506
41.7979
1.60859
37.9477
0.0929086
0.00120098
1.27452
0.000500697
0.120592
0.000158256
0.00654896
8.78662e-05
8.41651e-07
9.19469e-06
4.82539e-07
2.07526e-06
2.67382e-07
6.89258e-07
4.18602e-08
419.517
357.806
402.016
344.777
388.28
324.526
310.409
363.498
301.621
235.103
349.814
283.75
216.459
267.767
149.971
264.14
114.138
203.988
61.926
226.27
23.9996
1.00575e-07
6.69796e-08
8.9922e-09
1.31484e-07
3.55827e-08
1.56701e-08
3.0953e-09
0.904801
0.059281
1.14109e-05
1.64347e-07
5.58651e-09
494.945
673.108
558.359
639.412
837.538
433.912
263.548
571.116
452.434
719.906
570.304
739.878
231.628
414.874
291.088
557.383
419.73
551.959
123.761
256.857
315.403
7.48571
17.9184
68.5617
6.84891e-05
0.00809222
7.00278e-07
6.83358e-08
3.86696e-09
1.90523e-10
8.19346e-12
2.29338e-06
2.36871e-08
2.16755e-09
1.36506e-10
7.21981e-12
3.04499e-13
6.15733e-08
6.1644e-09
5.01662e-10
2.94095e-11
1.41141e-12
4.25644e-14
7.45769e-10
6.6205e-11
4.34763e-12
2.19734e-13
9.70128e-16
1.72776e-09
1.91528e-10
1.54533e-11
9.09858e-13
3.16504e-14
0
770.327
823.701
740.628
702.826
779.777
472.545
761.254
595.435
457.875
718.706
921.288
850.18
773.591
614.619
755.26
646.797
511.2
655.885
412.276
695.736
464.277
298.545
594.015
813.917
679.655
608.762
469.482
606.37
405.729
402.225
401.43
544.171
622.156
413.643
756.474
826.298
746.839
966.568
922.573
667.391
701.504
630.723
758.285
690.435
480.853
488.017
418.548
460.586
374.852
63.9653
826.942
780.55
885.005
817.158
776.365
878.181
830.752
861.086
898.344
920.693
842.518
812.257
800.718
745.013
840.133
762.307
860.979
794.728
668.364
727.926
698.103
754.605
723.353
691.625
673.399
609.508
634.803
628.345
615.177
654.543
738.64
692.551
657.43
709.8
676.326
636.369
595.141
595.165
613.723
575.432
1007.02
908.326
992.372
1008.43
1046.51
882.276
928.658
963.677
678.199
669.751
802.804
698.965
725.586
625.483
650.387
796.277
873.718
820.924
844.081
750.729
724.732
815.149
727.223
774.407
699.972
784.978
767.187
764.748
808.125
728.562
721.497
695.183
632.403
713.021
669.499
752.031
684.757
585.871
671.318
635.333
668.766
613.373
644.934
607.053
523.44
571.437
551.714
541.386
552.563
635.081
574.629
528.951
612.708
571.383
513.399
489.449
461.237
504.838
448.407
889.567
772.907
846.636
820.204
874.774
729.121
749.692
801.137
595.147
558.853
658.257
537.158
587.176
464.918
514.967
615.345
711.228
677.899
646.839
577.431
585.826
663.082
546.817
636.659
528.155
602.096
545.46
498.806
575.088
471.507
508.892
478.474
379.729
455.332
459.477
532.47
431.979
406.428
528.447
478.558
485.252
465.859
471.21
419.323
690.901
557.515
625.532
541.43
617.972
487.828
480.703
555.426
312.25
419.542
393.605
337.268
593.784
727.493
695.372
650.937
520.383
696.454
663.811
400.822
612.977
431.825
486.796
355.434
561.59
414.478
487.043
669.36
574.367
493.704
362.75
554.725
463.023
324.644
534.068
322.253
330.203
240.242
332.731
279.428
318.321
471.314
355.594
337.388
207.741
389.286
290.542
280.663
158.496
256.906
167.146
168.776
114.158
168.166
108.012
203.604
5.04429
0.00346691
1.7088e-05
8.38883e-06
7.75547e-07
2.49568e-07
2.32849e-08
8.67431e-09
141.051
102.804
84.7687
136.124
100.127
95.0631
64.8117
62.8967
125.954
79.6515
78.8898
132.291
71.4615
59.1376
53.0068
117.778
74.1566
77.2185
107.102
310.996
286.024
351.604
217.096
112.301
141.909
298.376
123.442
122.551
271.586
112.349
191.033
815.741
1185.54
1045.23
823.951
514.109
1008.8
956.031
1089.62
929.464
813.458
891.07
752.486
535.943
593.229
356.527
494.019
234.319
288.791
460.991
559.734
326.168
1094.92
1166.93
1078.41
999.633
749.879
434.152
164.443
179.036
76.1056
876.945
931.702
946.882
1001.05
927.932
939.51
880.712
980.711
888.756
909.708
1131.3
864.951
899.656
837.924
862.408
761.591
805.016
949.137
704.989
683.494
638.082
610.513
499.455
568.771
672.274
423.73
456.8
521.309
425.499
480.788
393.339
459.434
367.564
358.622
267.856
333.127
330.813
398.915
310.602
428.87
385.839
357.348
598.471
483.243
526.303
407.289
377.239
455.783
830.678
1070.57
805.822
1013.27
1279.23
1173.07
747.925
984.058
666.911
854.736
1126.03
960.181
576.034
786.208
436.175
564.479
884.194
637.584
1032.19
983.541
1132.9
1062.43
979.966
1124.52
1034.96
1007.36
1040.24
933.242
1069.8
958.496
1100.03
976.271
1377.76
1258.26
1353.93
1218.65
1259.18
1309.77
905.746
906.465
1037.92
951.302
945.022
874.511
1000.25
856.397
909.818
783.209
886.198
834.113
950.913
797.054
1209.59
1077.48
1156.96
1023.71
1024.13
1098.07
661.603
719.913
809.297
711.537
728.479
651.56
730.498
598.831
636.933
520.576
586.258
585.152
655.714
539.032
936.047
801.302
844.088
717.378
674.857
756.74
135.37
170.171
132.047
238.19
138.975
255.63
157.441
503.523
354.563
398.703
548.936
469.381
349.548
464.361
292.471
322.873
343.513
392.687
319.927
312.651
215.244
467.098
514.688
476.234
480.883
450.385
489.659
455.189
430.028
400.274
435.531
383.889
416.521
417.401
381.835
681.643
643.405
653.532
662.859
635.414
637.792
661.605
433.915
390.865
349.741
344.823
388.363
540.388
465.81
835.427
898.816
899.224
938.429
853.633
863.687
934.954
511.74
524.073
488.121
530.277
491.968
504.914
468.713
429.213
402.592
446.358
410.93
449.523
427.501
386.928
370.996
369.64
340.316
354.415
350.73
326.455
322.202
624.88
597.222
623.47
628.598
573.843
603.449
600.393
726.619
752.6
756.451
709.263
715.736
692.473
692.001
873.52
777.076
846.178
911.169
802.969
834.26
879.439
356.451
362.025
324.657
376.662
343.326
351.122
319.33
597.459
534.947
562.217
539.045
546.55
572.561
511.848
137.736
205.808
187.334
268.855
182.299
254.355
166.64
521.914
452.894
480.438
499.192
426.827
471.016
456.163
637.52
619.684
612.791
584.713
615.077
604.66
641.718
725.25
684.106
697.892
656.63
670.528
659.574
632.301
317.552
287.85
313.279
273.68
299.244
294.727
269.16
768.349
766.101
811.722
802.241
802.86
856.34
859.02
488.634
505.832
497.274
463.403
455.578
459.347
468.959
457.297
411.109
431.389
435.189
462.455
431.879
408.92
410.612
330.117
336.796
319.054
247.936
326.093
430.647
441.031
377.397
402.989
366.694
383.233
411.58
341.084
817.146
711.192
781.285
730.464
806.119
772.701
848.269
384.838
369.947
402.08
399.892
351.202
381.6
366.734
691.134
656.867
650.498
662.745
633.408
626.057
666.682
603.414
551.296
548.873
544.841
579.359
573.622
574.74
737.071
621.307
689.62
634.892
681.571
704.381
755.987
284.713
258.852
289.535
283.403
311.908
289.916
263.544
791.633
774.77
833.655
748.692
809.928
716.699
770.298
629.623
595.169
635.299
641.246
608.372
570.45
603.396
495.654
427.762
459.819
445.892
476.314
441.542
412.991
497.756
528.568
485.408
522.165
511.579
470.26
481.632
232.558
208.268