/*--------------------------------*- C++ -*----------------------------------*\
  =========                 |
  \\      /  F ield         | OpenFOAM: The Open Source CFD Toolbox
   \\    /   O peration     | Website:  https://openfoam.org
    \\  /    A nd           | Version:  9
     \\/     M anipulation  |
\*---------------------------------------------------------------------------*/
FoamFile
{
    format      ascii;
    class       volScalarField;
    location    "0.00215";
    object      rho;
}
// * * * * * * * * * * * * * * * * * * * * * * * * * * * * * * * * * * * * * //

dimensions      [1 -3 0 0 0 0 0];

internalField   nonuniform List<scalar> 
17417
(
2.1384
1.225
1.225
1.225
1.225
1.225
1.225
1.225
1.225
1.73219
1.22501
1.2251
1.22526
1.225
1.225
1.22715
1.225
1.225
1.225
1.22563
1.22501
1.225
2.0969
1.34764
2.24038
2.1096
1.44246
2.68165
1.22503
1.93092
1.44234
1.64037
2.11102
1.93243
1.94931
2.0791
1.2251
1.225
1.225
1.22501
1.22501
1.22504
1.22504
1.22638
1.22519
1.23257
1.23051
1.22554
1.22552
1.24291
2.19851
1.82698
1.95092
2.0741
1.76218
1.89847
1.90606
1.225
1.22512
1.22503
1.225
1.2265
1.22767
1.22971
1.22502
1.3628
1.23654
1.22632
1.66686
1.22613
1.23562
1.23433
1.32496
1.54382
1.24932
1.45488
1.25691
2.65695
1.29733
2.56741
1.22613
2.68362
2.30209
2.47569
1.24671
1.225
1.225
1.225
1.225
1.225
1.225
1.225
1.225
1.225
1.225
1.225
1.225
1.225
1.225
1.225
1.225
1.225
1.225
1.225
1.225
1.225
1.225
1.225
1.225
1.225
1.225
1.225
1.225
1.225
1.225
1.225
1.225
1.225
1.225
1.225
1.225
1.225
1.225
1.225
1.225
1.225
1.225
1.225
1.22995
1.225
1.225
1.225
1.225
1.225
1.225
1.225
1.225
1.225
1.225
1.225
1.225
1.225
1.225
1.225
1.225
1.225
1.225
1.225
1.225
1.225
1.225
1.225
1.225
1.225
1.225
1.225
1.225
1.225
1.225
1.225
1.225
1.225
1.225
1.225
1.225
1.225
1.225
1.225
1.225
1.225
1.225
1.225
1.225
1.225
1.225
1.225
1.225
1.225
1.225
1.225
1.225
1.225
1.225
1.225
1.225
1.225
1.225
1.225
1.225
1.225
1.225
1.225
1.225
1.225
1.225
1.225
1.225
1.225
1.225
1.225
1.225
1.225
1.225
1.225
1.225
1.225
1.225
1.225
1.225
1.225
1.225
1.225
1.225
1.225
1.225
1.225
1.225
1.225
1.225
1.225
1.225
1.225
1.225
1.225
1.225
1.225
1.225
1.225
1.225
1.225
1.225
1.225
1.225
1.225
1.225
1.225
1.225
1.225
1.225
1.225
1.225
1.225
1.225
1.225
1.225
1.225
1.225
1.225
1.225
1.225
1.225
1.225
1.225
1.225
1.225
1.225
1.225
1.225
1.23805
1.225
1.225
1.225
1.225
1.22502
1.225
1.225
1.225
1.225
1.225
1.225
1.225
1.225
1.225
1.225
1.225
1.225
1.225
1.225
1.225
1.225
1.225
1.225
1.225
1.225
1.225
1.225
1.225
1.225
1.225
1.225
1.225
1.225
1.225
1.225
1.225
1.225
1.225
1.225
1.225
1.225
1.225
1.225
1.225
1.225
1.225
1.295
1.225
1.225
1.225
1.225
1.225
1.225
1.225
1.225
1.225
1.225
1.225
1.225
1.225
1.225
1.225
1.225
1.225
1.225
1.225
1.225
1.225
1.225
1.225
1.225
1.225
1.225
1.225
1.225
1.225
1.225
1.225
1.225
1.225
1.225
1.225
1.225
1.225
1.225
1.225
1.225
1.225
1.225
1.225
1.225
1.225
1.225
1.225
1.225
1.225
1.225
1.225
1.225
1.225
1.225
1.225
1.225
1.225
1.225
1.225
1.225
1.225
1.225
1.225
1.225
1.225
1.225
1.225
1.225
1.225
1.225
1.225
1.225
1.225
1.225
1.225
1.225
1.225
1.225
1.225
1.225
1.225
1.225
1.225
1.225
1.225
1.225
1.225
1.225
1.225
1.225
1.225
1.225
1.225
1.225
1.225
1.225
1.225
1.225
1.225
1.225
1.225
1.225
1.225
1.225
1.225
1.225
1.225
1.225
1.225
1.225
1.225
1.225
1.225
1.225
1.225
1.225
1.225
1.225
1.225
1.225
1.225
1.225
1.225
1.225
1.225
1.225
1.225
1.225
1.225
1.225
1.225
1.225
1.225
1.225
1.225
1.225
1.225
1.225
1.225
1.225
1.225
1.225
1.225
1.225
1.225
1.225
1.225
1.225
1.225
1.225
1.225
1.225
1.225
1.225
1.225
1.225
1.225
1.225
1.225
1.225
1.225
1.225
1.225
1.225
1.225
1.225
1.225
1.225
1.225
1.225
1.225
1.225
1.225
1.225
1.225
1.225
1.225
1.225
1.225
1.225
1.225
1.225
1.225
1.225
1.225
1.225
1.225
1.225
1.225
1.225
1.225
1.225
1.225
1.225
1.225
1.225
1.225
1.225
1.225
1.225
1.225
1.225
1.225
1.225
1.225
1.225
1.225
1.225
1.225
1.225
1.225
1.225
1.225
1.225
1.225
1.225
1.225
1.225
1.225
1.225
1.225
1.225
1.225
1.225
1.225
1.225
1.225
1.225
1.225
1.225
1.225
1.225
1.225
1.225
1.225
1.225
1.225
1.225
1.225
1.225
1.225
1.225
1.225
1.225
1.225
1.225
1.225
1.225
1.225
1.225
1.225
1.26889
1.225
1.22502
1.26038
1.225
1.22501
1.22542
1.22501
1.225
1.23979
1.22523
1.225
1.225
1.225
1.225
1.225
1.225
1.225
1.225
1.225
1.225
1.225
1.225
1.225
1.225
1.225
1.225
1.225
1.225
1.225
1.225
1.225
1.225
1.225
1.225
1.225
1.225
1.225
1.225
1.225
1.225
1.225
1.225
1.225
1.225
1.225
1.225
1.225
1.225
1.225
1.225
1.225
1.24265
1.225
1.225
1.23056
1.225
1.225
1.225
1.225
1.225
1.22506
1.225
1.225
1.225
1.225
1.225
1.225
1.225
1.225
1.225
1.225
1.225
1.225
1.225
1.225
1.225
1.225
1.225
1.225
1.225
1.225
1.225
1.225
1.225
1.225
1.225
1.225
1.225
1.225
1.225
1.225
1.225
1.225
1.225
1.225
1.225
1.225
1.225
1.225
1.225
1.225
1.2253
1.225
1.225
1.22501
1.225
1.225
1.225
1.225
1.225
1.225
1.225
1.225
1.225
1.225
1.225
1.225
1.225
1.225
1.225
1.225
1.225
1.225
1.225
1.225
1.225
1.225
1.225
1.225
1.225
1.225
1.225
1.225
1.225
1.225
1.225
1.225
1.225
1.225
1.225
1.225
1.225
1.22501
1.225
1.225
1.225
1.225
1.225
1.225
1.225
1.225
1.225
1.225
1.225
1.225
1.225
1.225
1.225
1.225
1.225
1.225
1.225
1.225
1.225
1.225
1.225
1.225
1.225
1.225
1.225
1.225
1.225
1.225
1.225
1.225
1.225
1.225
1.225
1.225
1.225
1.225
1.225
1.225
1.225
1.225
1.225
1.225
1.225
1.225
1.225
1.225
1.22522
1.22501
1.225
1.22529
1.225
1.225
1.225
1.225
1.225
1.225
1.225
1.225
1.225
1.225
1.225
1.225
1.225
1.225
1.225
1.225
1.225
1.23424
1.225
1.225
1.225
1.225
1.56342
1.22502
1.225
1.225
3.03325
1.225
1.225
1.225
1.225
1.225
1.22568
1.225
1.225
1.225
1.225
1.225
1.225
1.225
1.225
1.225
1.225
1.225
1.225
1.225
1.225
1.225
1.225
1.225
1.225
1.225
1.225
1.225
1.225
1.225
1.37817
1.36381
1.75125
2.06129
1.30352
1.58744
1.61076
1.27064
1.34012
1.28243
1.24819
1.54967
1.23568
1.22543
1.27692
1.22523
1.23049
1.24609
1.22512
1.22506
1.22659
1.22501
1.23754
1.225
1.22516
1.225
1.22619
1.225
1.225
1.225
1.225
1.225
1.225
1.225
1.225
1.225
1.225
2.22713
2.54256
1.37203
1.22804
2.81273
1.23463
1.54023
1.22503
1.22531
1.22502
1.225
1.22586
1.225
1.225
1.225
1.225
1.225
1.225
1.225
1.225
1.225
1.225
1.24367
1.53876
1.22516
1.22511
1.22692
1.24809
1.22929
1.22514
1.2269
1.22531
1.22601
1.225
1.22501
1.225
1.225
1.225
1.225
1.225
1.225
1.225
1.225
1.225
1.225
1.225
1.225
1.225
1.225
1.225
1.225
1.225
1.225
1.225
1.225
1.225
1.225
1.225
1.225
1.225
1.225
1.225
1.225
1.225
1.225
1.225
1.225
1.225
1.225
1.225
1.225
1.225
1.225
1.225
1.225
1.225
1.225
1.225
1.225
1.225
1.225
1.225
1.225
1.225
1.225
1.225
1.225
1.225
1.225
1.225
1.225
1.225
1.225
1.225
1.225
1.225
1.225
1.225
1.225
1.225
1.225
1.225
1.225
1.225
1.225
1.225
1.225
1.225
1.225
1.225
1.225
1.225
1.225
1.225
1.225
1.225
1.225
1.225
1.225
1.225
1.225
1.225
1.225
1.225
1.225
1.225
1.225
1.225
1.225
1.225
1.225
1.26581
1.26873
1.26483
1.2292
1.22889
1.22851
1.22958
1.22502
1.225
1.225
1.225
1.225
1.225
1.22502
1.2576
1.25196
1.24843
1.22845
1.22687
1.22777
1.22749
1.22502
1.225
1.225
1.225
1.225
1.225
1.22501
1.225
1.225
1.225
1.225
1.225
1.225
1.225
1.225
1.225
1.225
1.225
1.225
1.225
1.225
1.225
1.225
1.225
1.225
1.225
1.225
1.225
1.225
1.225
1.225
1.225
1.225
1.225
1.225
1.225
1.225
1.225
1.225
1.225
1.225
1.225
1.225
1.225
1.225
1.225
1.225
1.225
1.225
1.225
1.225
1.225
1.225
1.225
1.225
1.225
1.225
1.225
1.225
1.225
1.225
1.225
1.225
1.225
1.225
1.225
1.225
1.225
1.225
1.225
1.225
1.225
1.225
1.225
1.225
1.225
1.225
1.225
1.225
1.225
1.225
1.225
1.23952
1.23563
1.23269
1.22585
1.22607
1.22657
1.22551
1.225
1.225
1.225
1.225
1.22501
1.225
1.225
1.22841
1.22618
1.22737
1.22539
1.22506
1.2252
1.22514
1.225
1.225
1.225
1.225
1.225
1.225
1.225
1.225
1.225
1.225
1.225
1.225
1.225
1.225
1.225
1.225
1.225
1.225
1.225
1.225
1.225
1.225
1.225
1.225
1.225
1.225
1.225
1.225
1.225
1.225
1.225
1.225
1.225
1.225
1.225
1.225
1.225
1.225
1.225
1.225
1.225
1.225
1.225
1.225
1.225
1.225
1.225
1.225
1.225
1.225
1.225
1.225
1.225
1.225
1.225
1.225
1.225
1.225
1.225
1.225
1.225
1.225
1.225
1.225
1.225
1.225
1.225
1.225
1.225
1.225
1.225
1.225
1.225
1.225
1.225
1.225
1.225
1.22505
1.22576
1.22517
1.22501
1.22501
1.22504
1.225
1.225
1.225
1.225
1.225
1.225
1.225
1.225
1.225
1.22502
1.225
1.225
1.225
1.225
1.225
1.225
1.225
1.225
1.225
1.225
1.225
1.225
1.225
1.225
1.225
1.225
1.225
1.225
1.225
1.22501
1.225
1.22505
1.22504
1.225
1.225
1.22521
1.225
1.225
1.225
1.225
1.225
1.225
1.225
1.225
1.225
1.225
1.225
1.225
1.225
1.225
1.225
1.225
1.22501
1.225
1.225
1.225
1.225
1.225
1.225
1.225
1.225
1.225
1.225
1.225
1.225
1.225
1.225
1.225
1.225
1.225
1.225
1.225
1.225
1.225
1.225
1.225
1.225
1.225
1.225
1.225
1.225
1.225
1.225
1.225
1.225
1.225
1.225
1.225
1.225
1.225
1.225
1.225
1.225
1.225
1.225
1.225
1.225
1.225
1.225
1.225
1.225
1.225
1.225
1.225
1.225
1.225
1.225
1.225
1.225
1.225
1.225
1.225
1.225
1.225
1.225
1.225
1.225
1.225
1.225
1.225
1.22502
1.2256
1.22506
1.22501
1.225
1.22504
1.225
1.225
1.225
1.225
1.225
1.225
1.225
1.225
2.2324
2.26093
2.2808
3.07802
2.61346
1.22536
1.26512
1.25356
1.24329
1.22773
1.22672
1.22934
1.225
1.225
1.225
1.225
1.225
1.225
1.225
1.37081
1.53167
1.51403
1.27339
1.78983
1.78783
1.26757
1.48451
1.35543
1.43945
1.30404
1.81258
1.79834
1.35585
1.37876
1.31485
1.31429
1.45158
1.79391
1.41162
1.72335
1.27027
1.24373
1.25439
1.4554
1.4389
1.59582
1.41475
1.22608
1.23708
1.22838
1.2738
1.30576
1.34717
1.244
1.40256
1.4625
1.59293
1.22858
2.70568
1.26914
1.24728
1.22501
1.22554
1.22504
1.23606
1.22519
1.22755
1.22608
1.225
1.225
1.225
1.225
1.22501
1.22506
1.225
1.225
1.225
1.225
1.225
1.225
1.225
1.225
1.79291
2.00541
1.81462
2.33036
2.03097
1.78585
2.38866
1.55244
1.44786
1.38829
1.9607
2.14481
1.27015
1.24962
1.45027
1.27614
1.48524
2.00092
1.64861
2.04669
1.2253
1.23372
1.22606
1.26275
1.24143
1.33087
1.22902
1.22503
1.22888
1.22502
1.22501
1.22523
1.22514
1.225
1.225
1.2251
1.22501
1.22503
1.22673
1.22515
1.22535
1.225
1.225
1.225
1.225
1.225
1.22501
1.225
1.225
1.225
1.225
1.225
1.225
1.225
1.225
1.22507
1.25012
1.2252
1.22505
1.22644
1.2262
1.22501
1.225
1.225
1.225
1.225
1.22505
1.225
1.225
1.29507
1.56214
1.32822
1.23428
1.26309
1.23094
1.25397
1.225
1.225
2.15042
1.225
1.225
1.225
1.225
1.225
1.225
1.22572
1.22506
2.16127
2.45542
2.17737
1.22804
1.2253
1.225
1.225
1.225
1.225
1.225
1.225
1.225
1.225
1.225
1.225
1.225
1.225
1.225
1.225
1.225
1.225
1.225
1.225
1.225
1.225
1.225
1.225
1.225
1.225
1.225
1.225
1.225
1.225
1.22501
1.225
1.22505
1.22506
1.22776
1.2252
1.22518
1.22501
1.22583
2.31015
1.94493
1.71745
2.06808
1.19095
1.47287
1.73526
1.60305
1.55008
1.95385
1.94957
1.82217
1.35766
1.34415
1.225
1.225
1.225
1.225
1.225
1.225
1.225
1.22502
1.225
1.225
1.22501
1.225
1.225
1.225
1.225
1.225
1.225
1.225
1.225
1.225
1.225
1.225
1.225
1.225
1.225
1.225
1.225
1.225
1.225
1.225
1.225
1.225
1.225
1.225
1.225
1.22505
1.225
1.22503
1.225
1.22674
1.22501
1.225
1.22502
1.225
1.225
1.225
1.225
1.225
1.225
1.225
1.225
1.225
1.225
1.225
1.225
1.225
1.225
1.225
1.225
1.225
1.225
1.225
1.225
1.22533
1.22528
1.22502
1.22502
1.22525
1.22502
1.22536
1.22526
1.22501
1.22512
1.22501
1.22519
1.22502
1.22518
1.22505
1.22507
1.22501
1.225
1.2251
1.22503
1.225
1.22502
1.225
1.225
1.225
1.22501
1.225
1.22501
1.225
1.225
1.225
1.225
1.225
1.225
1.225
1.225
1.225
1.225
1.225
1.225
1.225
1.225
1.225
1.225
1.225
1.225
1.225
1.225
1.225
1.225
1.225
1.225
1.225
1.225
1.225
1.225
1.22501
1.22513
1.225
1.225
1.22502
1.22507
1.225
1.225
1.225
1.225
1.225
1.225
1.225
1.225
1.225
1.225
1.225
1.225
1.225
1.225
1.225
1.225
1.225
1.225
1.225
1.225
1.225
1.225
1.225
1.225
1.225
1.225
1.225
1.225
1.225
1.225
1.225
1.225
1.225
1.225
1.225
1.225
1.225
1.225
1.225
1.225
1.225
1.225
1.225
1.225
1.225
1.225
1.225
1.225
1.225
1.225
1.74453
1.22521
1.225
1.36007
2.18322
1.23737
1.23122
1.22709
1.225
1.225
1.25477
1.22502
1.22501
1.225
1.225
1.225
1.225
1.225
1.225
1.225
1.225
1.225
1.225
1.225
1.225
1.225
1.225
1.225
1.225
1.225
1.225
1.225
1.225
1.225
1.225
1.225
1.225
1.225
1.225
1.225
1.225
1.225
1.22729
1.22523
1.22809
1.22505
1.2257
1.22503
1.22544
1.22576
1.23495
1.22592
1.23657
1.22819
1.26266
1.26109
1.225
1.225
1.225
1.225
1.225
1.225
1.225
1.225
1.225
1.225
1.225
1.225
1.225
1.225
1.225
1.225
1.225
1.225
1.225
1.225
1.225
1.225
1.225
1.225
1.225
1.225
1.225
1.225
1.225
1.225
1.225
1.225
1.225
1.225
1.225
1.225
1.225
1.225
1.225
1.225
1.225
1.225
1.225
1.225
1.225
1.225
1.225
1.225
1.225
1.225
1.225
1.225
1.225
1.225
1.225
1.225
1.225
1.225
1.225
1.225
1.225
1.225
1.225
1.225
1.225
1.225
1.225
1.225
1.225
1.225
1.225
1.225
1.225
1.10361
1.40015
2.26938
1.38666
1.74333
4.15676
1.23763
2.05087
2.29604
3.07911
1.5673
1.22667
1.22509
2.36486
3.8194
1.225
2.30509
2.25912
2.99137
3.12279
2.79864
1.22585
1.225
4.77351
1.26077
1.225
3.18317
1.33116
1.62604
1.37388
2.18569
2.41734
1.225
1.225
5.2304
1.32072
1.225
1.225
4.03874
2.82654
1.22509
1.22501
1.225
1.225
2.5046
2.0374
1.22505
1.225
1.225
3.48875
1.22501
1.225
1.225
1.225
2.10169
1.22521
1.225
1.225
1.225
1.225
1.225
1.225
1.225
1.225
1.225
1.225
1.225
1.225
1.225
1.225
1.225
1.225
1.225
1.71764
1.87595
3.76019
2.01174
3.31212
1.8312
4.09023
2.18286
3.37197
1.74703
1.90131
2.41767
2.19344
2.5147
2.32485
2.00963
2.73024
2.02382
2.60139
2.61326
2.89323
2.99189
1.68571
4.5394
3.0913
4.96123
5.22282
3.8383
3.90737
1.77331
3.44382
3.36215
2.15952
1.2254
3.58201
1.45967
2.8718
3.47298
3.68886
2.87599
3.54241
4.77774
4.2191
2.71647
4.17737
3.91285
4.11762
2.04137
4.41753
3.56446
2.56453
1.22981
2.83513
1.2296
1.22503
2.54848
1.22571
1.22535
1.225
1.22533
1.225
3.88526
3.9475
4.12773
3.56874
3.17932
1.23345
1.22561
2.90004
3.07069
2.62655
2.39923
2.07813
2.42438
4.24281
2.33216
3.40636
4.28901
3.0408
3.10346
3.41762
2.6894
2.45299
2.84967
3.39147
3.4296
3.52511
3.98644
4.29394
3.99823
1.6056
1.50935
1.24759
2.66895
3.96599
2.42966
2.65044
2.28596
3.2701
1.23391
1.22578
1.4281
1.2272
1.22754
1.22501
1.22574
1.22501
1.225
1.22501
1.225
1.225
1.225
1.225
1.225
3.77372
3.34005
1.6426
1.7451
1.67123
1.7902
1.82794
1.72367
2.45162
1.94522
2.37413
2.04004
1.978
2.40566
2.41479
2.53693
2.08831
2.17363
2.58513
2.04198
2.46657
2.71528
1.77478
1.81791
2.11746
2.55863
2.46943
1.06316
2.45575
2.44233
1.71634
2.37117
1.63708
1.11767
2.0036
2.19873
2.27064
2.44115
3.05267
2.62394
2.18337
2.37742
1.33226
2.53535
1.84215
2.7438
1.2063
2.65455
1.99249
2.64838
3.20749
3.01999
3.76073
3.57839
2.79347
3.53085
3.15045
4.1364
3.22174
4.07054
3.20103
4.41973
4.05359
3.6279
3.47948
4.70774
4.38983
3.81706
4.29588
4.05135
4.41486
3.74662
4.65342
4.04495
4.01524
3.60502
3.6749
4.12586
4.23272
3.67942
3.46793
3.77365
3.49725
2.65313
4.1784
3.52544
2.12155
2.6524
3.24477
2.96752
2.96041
3.7008
3.16659
3.53993
3.72831
3.43211
1.65255
3.17014
1.8514
2.2598
1.72923
3.22364
1.48156
3.57939
2.93025
3.50746
4.58192
4.63568
3.74643
4.67472
3.95999
5.07593
4.39058
4.28579
3.87784
4.44923
4.27552
4.45407
4.88226
4.67561
3.97791
4.5399
4.97015
4.69501
4.62673
4.45216
4.97302
4.34574
4.59617
4.88929
5.0256
4.20899
3.13668
3.3888
4.06098
2.30208
4.40301
1.78439
3.46889
2.74327
4.25187
2.33551
1.63213
4.3218
3.22499
1.38806
1.5397
1.32553
1.22652
1.27475
1.25825
1.96072
1.24243
1.22898
2.01155
1.45541
1.39506
1.30728
1.28349
1.23796
1.22516
1.23352
1.22511
1.22502
1.22759
1.22554
1.22501
3.56739
4.3956
4.23065
4.42965
4.26415
4.50893
4.45213
4.57531
3.82674
2.60224
3.53732
4.17673
1.89287
3.44182
1.39873
1.31519
2.26853
1.24017
1.22504
1.22597
2.27122
2.32175
1.99597
3.1019
1.61793
2.62882
2.56826
3.55842
1.04158
2.29686
1.59178
2.42861
2.3268
1.59986
1.04191
1.48653
2.88759
2.98179
2.07699
2.79681
2.09641
1.63934
1.76127
1.58972
3.09834
1.50363
1.8404
1.6783
3.30508
1.28506
3.43791
2.71708
4.0364
1.23832
3.35413
2.43744
1.22945
3.06202
1.25557
1.47424
1.22504
1.99014
1.22541
2.30616
2.91802
1.86648
2.69719
2.90521
3.21763
2.10273
3.1948
1.96186
3.1303
1.23767
2.31424
1.2259
1.22501
1.31368
1.22505
1.22502
1.225
1.23381
1.225
3.04407
3.15585
2.37708
2.67377
1.45153
2.66449
1.24081
1.22521
1.42997
1.22509
1.24458
1.22501
1.22618
1.22501
1.225
1.225
1.225
1.225
1.225
1.225
1.225
2.39444
2.75919
2.53256
2.99965
2.71593
2.98665
3.36588
2.7894
3.57285
3.45589
3.11335
3.23959
4.02266
3.74367
2.28501
2.473
3.41447
2.21394
3.0705
2.65459
2.93956
1.225
1.225
1.225
1.225
1.225
1.225
1.225
1.35372
1.23441
1.225
1.225
1.225
0.826619
0.773846
1.13761
1.06297
1.13605
0.70221
1.65879
0.979986
1.418
0.922576
1.35586
1.38568
1.27919
1.5593
1.67467
1.58687
3.17365
2.30489
2.09689
1.51975
3.03182
2.01317
2.42954
3.24706
1.22501
1.22647
1.225
1.225
1.225
1.225
1.225
1.225
1.225
1.225
1.225
1.225
1.225
1.225
1.225
1.225
1.225
1.225
1.225
1.225
1.225
1.225
1.225
1.225
1.225
1.225
1.225
1.225
1.225
1.225
0.888682
1.00205
0.85632
0.938068
1.13095
1.49104
1.12978
1.21118
1.55529
1.26649
1.00507
1.13198
1.26902
1.23063
1.24246
1.22477
2.07058
1.8677
1.94753
1.38468
2.55851
3.69017
2.05106
1.24281
1.84169
2.01895
2.8778
2.17086
2.27496
3.51593
3.49773
2.36828
2.11894
3.23414
1.29737
1.15533
1.31852
1.01684
1.15576
1.56008
1.55133
1.73482
1.75727
2.00335
2.48143
2.61258
2.77466
3.14631
3.73709
3.37362
0.91184
0.990871
0.896938
1.02254
1.01092
0.916913
0.892762
0.855595
0.918549
0.85851
0.914408
0.944724
1.05999
1.11921
1.01691
1.04755
0.950948
1.01026
1.27155
1.10687
1.28677
1.15139
1.12859
1.31033
1.24803
1.44802
1.48074
1.50661
1.42246
1.315
1.19142
1.24598
1.43159
1.16879
1.35231
1.39869
1.49505
1.63284
1.5504
1.58597
0.897668
1.0241
0.917824
0.919653
0.859692
1.06198
1.01771
0.952466
1.49725
1.52176
1.1951
1.43726
1.35943
1.64727
1.56435
1.1541
1.01579
1.01137
1.15595
1.27003
1.23421
1.12122
1.39999
1.11579
1.40354
1.26838
1.33718
1.54672
1.33555
1.54836
1.47444
1.60924
1.91914
1.69927
1.63374
1.46149
1.72178
1.74047
1.37131
1.55581
1.55553
1.53442
1.55831
1.73407
1.96597
1.76068
1.73587
1.94278
2.02585
1.77874
2.13829
2.24841
1.81615
1.96734
2.38141
2.28119
2.4655
2.18146
2.67282
1.1216
1.39633
1.26643
1.53496
1.33214
1.59586
1.67924
1.45377
1.77385
1.94507
1.76459
2.20509
1.95423
2.39532
2.15759
2.04793
1.7868
1.7822
2.0526
2.33529
2.25414
1.97489
2.51579
2.00459
2.65404
2.28688
2.3726
2.74264
2.36055
2.78693
2.74613
2.93603
3.86399
3.12644
3.16866
2.65515
3.28635
3.36138
2.52145
2.56901
2.73575
2.8124
2.99457
2.95723
1.93425
2.42525
2.21667
2.66113
2.29255
2.7721
2.9775
2.54805
3.8165
3.21627
3.28731
3.7614
1.04257
0.819721
0.890985
0.80202
1.15408
0.860628
0.938269
1.36203
1.04996
1.40529
1.24869
1.48722
1.20021
1.47218
1.29821
0.929685
1.23305
1.25232
1.82046
1.23667
2.14341
1.61599
1.35419
2.31483
1.77395
1.90466
2.6942
2.62487
1.78635
1.56077
3.13775
1.73509
1.56406
1.92981
3.49668
2.92443
1.72382
2.51036
3.15862
1.47332
2.24884
2.01852
2.33005
1.06452
1.7303
1.22552
1.225
1.225
1.225
1.225
1.225
1.225
2.54374
1.19788
1.62865
1.73834
2.31377
1.39159
0.858057
1.01237
1.03317
0.60054
0.685967
0.90393
1.90201
1.20921
1.44577
1.20681
0.963137
0.799503
1.44111
3.55898
3.52749
3.61291
1.77055
2.89604
1.536
1.57272
1.04971
1.87228
1.89315
1.28779
2.15431
0.808293
0.732328
0.924364
1.59169
2.71185
0.733702
0.832136
0.833461
0.922522
1.40946
1.40359
1.61077
2.37608
2.32598
2.52034
2.36061
3.04735
3.15028
2.74726
2.33383
3.20264
0.808446
0.754954
0.829799
1.05781
1.79293
3.16325
2.29605
3.03905
2.9493
0.826925
0.734795
0.808963
0.753203
0.752495
0.828793
0.808442
0.777806
0.829218
0.776707
0.778824
0.917604
1.05567
1.04969
1.22269
1.39935
1.21619
1.22303
1.59278
1.82687
1.80404
2.07235
2.37606
2.05764
2.02698
2.23082
2.33448
2.04244
2.6674
2.00688
2.6254
2.27545
2.42836
2.93616
3.18363
2.56583
2.90643
2.45364
2.61826
2.75031
3.15173
3.137
2.02475
2.66964
2.27237
2.98027
2.5836
2.46548
0.680567
0.668049
0.713051
0.755499
0.666536
0.757287
0.834924
0.837818
1.10104
1.28489
0.840571
1.28252
1.3984
1.45238
1.92378
2.06035
1.43823
2.0248
0.626051
0.669686
0.610172
0.685989
0.685869
0.625074
0.611889
0.644669
0.706805
0.753056
0.687587
0.706579
0.644457
0.685092
0.608935
0.687289
0.625853
0.708055
0.689776
0.645463
0.864242
0.832219
0.760533
0.962664
0.754652
0.953167
0.875365
1.0043
1.11849
1.26867
1.16898
1.10583
1.0204
1.15051
0.764127
0.967065
0.881293
1.12231
1.17015
1.027
1.4254
1.43107
1.3092
1.62321
1.28872
1.59995
1.4462
1.58088
1.81641
2.04262
1.80019
1.79627
1.60127
1.77697
1.30012
1.5968
1.42769
1.78196
1.77516
1.57698
2.18024
1.0925
0.877024
1.4862
0.744672
1.27144
1.28399
0.811244
0.905592
0.756641
1.01996
1.25963
1.37791
1.29686
0.843741
1.00607
0.818641
1.4866
1.48216
1.29528
1.42317
0.785856
0.992759
1.02882
0.756504
0.711075
0.999663
0.986919
0.757369
1.02057
1.03965
0.744221
0.707229
0.93291
0.883456
0.784131
0.791337
0.797533
0.855379
0.870283
0.875635
0.844827
0.709115
0.769479
0.857699
1.26455
1.25074
1.19331
1.24607
0.698481
0.69087
0.673293
0.63219
0.624278
0.640009
0.616533
1.13288
1.10654
1.24343
1.03783
1.12633
1.10065
1.18469
1.38596
1.46814
1.38196
1.27248
1.21494
1.22359
1.2055
0.784668
0.984878
0.940148
0.805713
0.880587
0.869662
0.905975
0.820669
0.889504
0.865288
0.875008
0.971904
0.898679
0.94466
0.839962
0.752593
0.770498
0.762693
0.777498
0.84643
0.830126
0.708165
0.757325
0.753016
0.645956
0.687758
0.650849
0.684259
1.52639
1.49853
1.46753
1.29353
1.25499
1.15734
1.09011
0.953379
1.10958
1.08915
1.21021
1.07525
1.04674
1.23438
1.88433
1.36201
1.28639
0.869543
1.33177
1.11788
1.62365
1.2392
1.40444
1.39395
1.40408
1.5999
1.41941
1.61448
0.929737
0.95356
0.995427
1.04756
0.958329
1.00839
0.918619
0.787367
0.793766
0.841537
0.851541
0.923297
0.865806
0.931821
0.834351
0.865903
0.893302
0.939214
0.907971
0.928725
0.95185
0.812058
0.833958
0.829297
0.743146
0.762952
0.756304
0.736935
0.782013
1.06287
1.01708
0.769499
0.7387
0.964914
1.01124
0.706256
0.750951
0.697077
0.922065
0.976144
0.91211
0.860139
0.747882
0.997541
1.04765
1.28164
1.80106
1.30741
1.36849
1.55946
1.68365
1.72973
2.03204
1.74051
1.83725
1.80368
0.83109
0.955009
0.950863
0.860601
0.859219
0.754549
0.7522
0.823775
0.803575
0.740304
0.849898
0.933403
0.870216
0.853435
0.914128
0.966499
0.993223
0.918537
0.973595
0.994786
0.900585
0.952046
1.07425
1.06022
1.11896
0.983215
1.03454
1.02815
1.10008
1.25133
1.2572
1.12283
0.991145
1.13397
0.99432
1.33601
1.18703
1.3488
0.992714
1.13627
1.02731
0.998909
0.854227
0.781444
0.777407
0.833798
0.829329
0.916796
0.913342
0.939283
1.07823
1.06782
1.02376
1.18381
1.19575
1.03282
1.20149
1.43702
1.358
1.18611
1.15799
1.20592
1.17223
1.24825
1.17614
1.23047
1.1777
1.14264
1.1531
1.18774
1.98003
1.54542
1.1777
2.19101
1.34639
1.74227
2.52856
1.23252
1.39684
1.4038
1.59833
1.38123
1.39169
1.60353
1.57588
1.41364
1.55004
1.36921
1.24618
1.3985
1.26656
1.46101
1.46448
1.45977
1.16486
1.03545
1.07757
1.08308
0.882371
1.02594
0.90968
1.11875
0.967413
0.987018
1.13679
2.39661
2.55371
1.99491
1.62865
2.52232
1.77096
2.37648
0.734179
0.926903
0.979069
0.736048
0.714676
0.912917
0.864616
1.18524
1.22951
1.07852
1.14026
1.22867
1.09274
1.172
1.09971
1.02083
1.00907
0.941132
1.10254
1.02065
1.01484
1.35283
1.18189
1.26536
1.53713
1.15003
1.38195
1.51911
1.5758
1.73514
1.75784
1.83042
2.0892
2.0925
1.83349
1.88449
1.68928
1.95463
2.12144
1.62204
1.76831
2.07788
1.30336
1.41262
1.3232
1.08125
1.04039
1.05631
1.17989
0.877184
0.908604
0.915653
0.987545
0.997828
1.04534
1.06045
0.887316
0.912021
0.911412
0.96966
0.979602
0.997403
1.00375
1.61
1.74545
1.7596
2.12676
1.60458
1.84294
1.88814
1.1835
1.29714
1.23696
1.15788
1.13867
1.13659
1.12832
0.91779
1.0583
1.05121
1.16059
1.01715
1.01213
1.17183
1.99536
1.76442
1.72229
1.66781
1.73222
1.5079
1.54872
1.00416
1.11115
1.12994
0.925264
0.93365
1.02422
1.08498
1.49353
1.59437
1.51252
0.81581
0.953436
1.20357
1.20642
1.08176
1.20648
1.03012
1.04546
1.30652
1.22862
1.0977
1.22579
1.16711
1.33966
1.21913
1.25436
1.12536
1.3279
1.68212
2.29559
2.24244
1.82249
2.28225
2.12286
1.80016
0.747778
0.766623
0.734538
0.88738
0.853912
0.835126
0.92613
0.94012
1.10314
1.02738
1.00622
1.10963
1.03618
1.00617
1.14707
1.0793
1.17424
1.16624
1.05291
1.07635
1.14435
0.837266
0.870242
0.887404
0.816534
0.872716
0.939174
0.971024
1.21763
1.40369
1.3995
1.35008
1.58785
1.36697
1.56707
1.12418
1.45513
1.31209
1.32823
1.24179
1.13298
1.48064
2.21018
2.1314
1.96289
2.71602
2.39585
2.35049
2.45975
1.35339
1.22024
1.24451
1.08932
1.35084
1.26918
1.13253
1.23422
1.68403
1.90223
1.53619
1.37605
1.8787
1.24171
1.26845
1.27747
1.26012
1.12064
1.07807
1.0445
1.15509
0.93712
1.06915
0.968047
1.22238
1.07496
1.09785
1.24455
1.39014
1.45279
1.40187
1.1651
1.10119
1.0993
1.07431
1.79532
1.58994
1.78213
2.07305
1.82593
1.80478
2.09033
1.11165
1.31527
1.21563
1.2075
1.19968
1.10774
1.31115
1.75942
1.84343
1.55579
1.58051
2.20457
1.8081
1.87557
2.38988
2.14715
2.25394
2.01512
1.8364
1.93417
2.13239
0.788486
0.785193
0.73686
0.84532
0.885725
0.830341
0.845043
1.36284
1.40256
1.38777
1.29025
1.30933
1.30732
1.27797
1.58732
1.9163
2.15285
2.22166
1.48538
1.67358
2.04315
1.25826
1.09485
1.07316
0.96646
0.981814
1.12453
1.14678
1.23106
1.17077
1.08432
1.09165
1.1977
1.10794
1.20737
1.87454
1.52941
1.39284
1.66392
1.53482
1.73304
1.70139
1.28155
1.11897
1.23075
1.43687
1.11534
1.2973
1.4179
2.85371
2.61765
2.17727
2.57096
2.53514
2.59678
2.20929
2.75246
2.85898
2.70842
2.58544
2.90464
2.76457
2.15096
1.24591
1.3068
1.26363
1.08674
0.999021
1.00698
1.05919
1.38065
1.39173
1.33316
1.12238
1.06349
1.15132
1.2884
1.19849
1.32513
1.35268
1.39368
1.42313
1.5914
1.63176
2.38885
2.49731
1.26987
2.2294
1.24098
1.28864
2.48928
2.63399
2.6771
2.2978
2.83914
2.26017
2.03362
3.06333
1.3458
1.17234
1.51055
1.1522
1.25232
1.43064
1.61032
1.14862
1.39261
1.16841
1.45135
1.22185
1.2457
1.48579
2.33636
2.03807
2.00611
2.78586
2.78164
2.39347
2.40161
2.12845
2.4385
2.20399
2.81673
2.70128
2.09615
2.38616
1.39483
1.17613
1.12935
1.04535
1.2324
1.00554
1.18296
1.27495
1.12674
1.33528
1.22706
1.24061
1.14632
1.36438
1.39156
1.45528
1.59072
1.33594
1.42485
1.33143
1.44983
1.51174
1.2584
1.33916
1.44239
1.20097
1.28491
1.54287
1.54711
1.47946
1.77711
1.24277
1.39727
1.46892
1.69163
2.75488
2.16428
1.95134
1.88224
1.29215
1.27183
2.11664
1.50146
1.7179
1.80919
1.99603
1.53086
1.67437
1.76554
1.38162
1.4303
1.40315
1.26095
1.28602
1.27271
1.25204
1.49458
1.61698
1.80792
1.85681
1.36422
1.50617
1.65459
1.68244
2.24836
2.15605
1.8031
2.24912
1.77062
2.03973
3.52415
3.19182
2.65308
2.88651
2.98616
2.71016
2.66452
0.898352
1.01728
0.929176
1.19037
1.05616
1.07833
1.20758
0.821456
0.850491
0.851941
0.912999
0.927505
0.947097
0.933525
2.67519
2.61688
1.81776
2.6761
2.17254
2.54817
2.68432
1.24038
1.13755
1.3491
1.36517
1.43653
1.30412
1.5742
1.44563
1.58627
1.48086
1.90962
1.7648
1.81521
1.96841
1.34053
1.68129
1.40605
1.80924
1.56921
1.74868
1.96397
2.48751
2.59719
2.19193
2.47042
2.62966
1.2375
2.00279
1.60892
1.85752
1.79551
1.5785
1.39107
1.72527
1.41812
2.64223
2.80614
2.60927
2.43128
2.23166
2.58654
2.34464
1.34297
1.3528
1.33187
1.07173
1.04783
1.13159
1.24396
1.22724
1.19379
1.17804
0.992266
0.971713
1.00442
1.00059
1.71859
2.1956
1.67918
1.90992
2.21934
2.19939
2.28998
2.83442
2.57863
2.68016
3.24857
3.65613
3.12741
3.25221
1.46298
1.5783
1.55
1.3818
1.29893
1.32471
1.35698
3.06819
2.51002
2.42954
2.13199
2.38663
2.06976
2.5147
1.49814
1.62377
1.64639
1.45464
1.33835
1.32497
1.44468
1.61902
2.0006
2.19269
1.65162
1.53573
1.89397
2.06264
0.857068
0.970846
0.881481
1.09769
0.979525
0.995169
1.11013
1.75734
1.50149
1.36205
1.594
1.51602
1.77879
1.57316
1.65637
2.06704
1.84138
2.00882
1.60506
1.69356
1.72775
1.82647
1.53368
1.49579
1.59876
1.32693
1.3576
1.64231
1.49489
1.72759
1.3128
1.5924
1.39584
1.84717
2.12429
1.39981
1.52107
1.50426
1.6823
1.4582
1.44829
1.6706
1.40774
1.42451
1.23119
1.25191
1.692
1.43025
1.45187
1.19248
1.23582
1.17922
1.02093
0.965966
1.04063
1.14554
0.477985
0.467538
0.466518
0.443221
0.47106
0.429622
0.479021
0.481951
0.439949
0.433534
0.428251
0.478118
0.438961
0.824483
0.496839
0.52378
0.526056
0.558456
0.567781
0.837088
0.87636
0.571596
0.885824
0.918147
0.973007
0.977152
0.455508
0.496195
0.521349
0.479581
0.495759
0.455526
0.477516
0.497224
0.481605
0.456316
0.570087
0.562621
0.515822
0.644847
0.511405
0.634918
0.578485
0.662976
0.758338
0.85654
0.786784
0.741841
0.677109
0.768936
0.519266
0.651373
0.584318
0.768312
0.796335
0.686046
0.937239
0.955267
0.877126
1.05391
0.860583
1.03927
0.950796
0.883303
1.05279
0.952643
0.713828
0.882617
1.34683
0.498549
0.504038
0.559966
1.10847
1.25156
1.13716
0.843473
0.53872
0.546686
0.519846
0.51028
0.710753
0.798073
0.616175
0.630319
1.17358
1.22133
0.680633
1.51364
1.99576
0.510339
0.540982
0.572836
0.575291
0.626187
0.557822
0.521226
0.570267
0.694456
0.800566
0.572729
0.513095
0.558109
0.522293
0.525049
0.570372
0.55996
0.589718
0.540741
0.570105
0.62718
0.540346
0.589692
0.624413
0.541571
0.62958
0.590259
0.782484
0.620428
0.690348
0.684371
0.793832
1.12655
1.07443
1.42588
1.55157
2.00066
0.927134
0.967395
0.975264
1.07372
1.31248
1.40232
1.39387
1.55763
1.64655
1.81805
1.77471
0.724137
1.18025
1.16263
1.2856
1.76702
1.68821
1.94933
1.97836
2.7176
3.0795
0.717244
0.706281
0.911049
0.842096
0.946948
1.06341
0.928528
1.04357
0.852152
1.06826
0.937316
1.2776
1.05487
1.18391
1.16788
1.16427
1.15089
1.29667
1.40359
1.2704
1.38415
1.58333
1.25496
1.42207
1.56175
1.26161
1.56798
1.40655
1.91708
1.53139
1.77684
1.69584
1.7442
1.66652
1.95438
2.05928
1.77922
1.85693
2.14335
1.76842
2.07477
2.18812
1.7564
2.12244
2.06384
0.706999
0.543592
0.690202
0.55964
0.733686
0.549578
0.719445
0.641606
0.893172
0.619422
0.84191
0.806042
1.11742
1.10582
0.978036
1.05488
1.3679
1.36211
1.12264
1.59305
1.6282
1.39747
1.32422
1.57535
2.22777
1.02255
1.07642
2.13485
1.17841
1.25015
1.24601
1.27578
1.37586
1.37231
1.01595
1.14095
1.2351
1.11942
1.12776
1.02813
1.10686
1.13702
1.11831
1.02765
1.29412
1.35559
1.22227
1.48561
1.20638
1.46325
1.3108
1.22066
1.47727
1.30314
1.35751
1.56062
1.51367
1.3308
1.45566
1.34523
1.87667
2.22357
1.34794
1.54349
1.59515
1.35554
1.53639
1.35024
1.38612
1.51455
1.31364
1.32069
1.1459
0.895554
1.12849
0.884417
1.61891
1.03375
1.4341
1.23993
0.943694
1.00086
0.561255
0.970681
0.641722
1.1042
0.826086
0.5262
0.583106
0.633949
0.736715