/*--------------------------------*- C++ -*----------------------------------*\
  =========                 |
  \\      /  F ield         | OpenFOAM: The Open Source CFD Toolbox
   \\    /   O peration     | Website:  https://openfoam.org
    \\  /    A nd           | Version:  9
     \\/     M anipulation  |
\*---------------------------------------------------------------------------*/
FoamFile
{
    format      ascii;
    class       volScalarField;
    location    "0.00215";
    object      rhoE;
}
// * * * * * * * * * * * * * * * * * * * * * * * * * * * * * * * * * * * * * //

dimensions      [1 -1 -2 0 0 0 0];

internalField   nonuniform List<scalar> 
17417
(
667699
253245
253245
253245
253245
253245
253245
253245
253245
758566
253249
253274
253320
253245
253245
253887
253246
253245
253245
253430
253248
253246
885326
293931
895519
699567
330700
1.53282e+06
253254
837385
566554
639115
754566
655890
630912
779386
253273
253246
253246
253249
253247
253255
253257
253659
253301
255594
254901
253407
253399
258925
884645
693820
706887
684793
477320
570841
554800
253245
253279
253252
253246
253689
254038
254658
253249
302463
256854
253641
434467
253586
256471
256055
285358
366983
260691
331557
263163
1.43813e+06
278324
1.18128e+06
253587
1.481e+06
808401
944624
260799
253245
253245
253245
253245
253245
253245
253245
253245
253245
253245
253245
253245
253245
253245
253245
253245
253245
253245
253245
253245
253245
253245
253245
253245
253245
253245
253245
253245
253245
253245
253245
253245
253245
253245
253245
253245
253245
253245
253245
253245
253245
253245
253245
254849
253245
253245
253245
253245
253245
253245
253245
253245
253245
253245
253245
253245
253245
253245
253245
253245
253245
253245
253245
253245
253245
253245
253245
253245
253245
253245
253245
253245
253245
253245
253245
253245
253245
253245
253245
253245
253245
253245
253245
253245
253245
253245
253245
253246
253245
253245
253245
253245
253245
253245
253245
253245
253245
253245
253245
253245
253245
253245
253245
253245
253245
253245
253245
253245
253245
253245
253245
253245
253245
253245
253245
253245
253245
253245
253245
253245
253245
253245
253245
253245
253245
253245
253245
253245
253245
253245
253245
253245
253245
253245
253245
253245
253245
253245
253245
253245
253245
253245
253245
253245
253245
253245
253245
253245
253245
253245
253245
253245
253245
253245
253245
253245
253245
253245
253245
253245
253245
253245
253245
253245
253245
253245
253245
253245
253245
253245
253245
253245
253245
257440
253245
253245
253245
253245
253251
253245
253245
253245
253245
253245
253245
253245
253245
253245
253245
253245
253245
253245
253245
253245
253245
253245
253245
253245
253245
253245
253245
253245
253245
253245
253245
253245
253245
253245
253245
253245
253245
253245
253245
253245
253245
253245
253245
253245
253245
253245
277532
253245
253245
253245
253245
253245
253245
253245
253245
253245
253245
253245
253245
253245
253245
253245
253245
253245
253245
253245
253245
253245
253245
253245
253245
253245
253245
253245
253245
253245
253245
253245
253245
253245
253245
253245
253245
253245
253245
253245
253245
253245
253245
253245
253245
253245
253245
253245
253245
253245
253245
253245
253245
253245
253245
253245
253245
253245
253245
253245
253245
253245
253245
253245
253245
253245
253245
253245
253245
253245
253245
253245
253245
253245
253245
253245
253245
253245
253245
253245
253245
253245
253245
253245
253245
253245
253245
253245
253245
253245
253245
253245
253245
253245
253245
253245
253245
253245
253245
253245
253245
253245
253245
253245
253245
253245
253245
253245
253245
253245
253245
253245
253245
253245
253245
253245
253245
253245
253245
253245
253245
253245
253245
253245
253245
253245
253245
253245
253245
253245
253245
253245
253245
253245
253245
253245
253245
253245
253245
253245
253245
253245
253245
253245
253245
253245
253245
253245
253245
253245
253245
253245
253245
253245
253245
253245
253245
253245
253245
253245
253245
253245
253245
253245
253245
253245
253245
253245
253245
253245
253245
253245
253245
253245
253245
253245
253245
253245
253245
253245
253245
253245
253245
253245
253245
253245
253245
253245
253245
253245
253245
253245
253245
253245
253245
253245
253245
253245
253245
253245
253245
253245
253245
253245
253245
253245
253245
253245
253245
253245
253245
253245
253245
253245
253245
253245
253245
253245
253245
253245
253245
253245
253245
253245
253245
253245
253245
253245
253245
253245
253245
253245
253245
253245
253245
253245
253245
253245
253245
253245
253245
253245
253245
253245
253245
253245
253245
253245
253245
253245
253245
253245
269555
253245
253250
266192
253245
253247
253372
253247
253245
258284
253316
253246
253245
253245
253245
253245
253245
253245
253245
253245
253245
253245
253245
253245
253245
253245
253245
253245
253245
253245
253245
253245
253245
253245
253245
253245
253245
253245
253245
253245
253245
253245
253245
253245
253245
253245
253245
253245
253245
253245
253245
253245
259648
253245
253246
255168
253245
253245
253246
253245
253245
253263
253245
253245
253245
253245
253245
253245
253245
253245
253245
253245
253245
253245
253245
253245
253245
253245
253245
253245
253245
253245
253245
253245
253245
253245
253245
253245
253245
253245
253245
253245
253245
253245
253245
253245
253245
253245
253245
253245
253245
253245
253339
253245
253245
253247
253245
253245
253245
253245
253245
253245
253245
253245
253245
253245
253245
253245
253245
253245
253245
253245
253245
253245
253245
253245
253245
253245
253245
253245
253245
253245
253245
253245
253245
253245
253245
253245
253245
253245
253245
253245
253245
253248
253245
253245
253245
253245
253245
253245
253245
253245
253245
253245
253245
253245
253245
253245
253245
253245
253245
253245
253245
253245
253245
253245
253245
253245
253245
253245
253245
253245
253245
253245
253245
253245
253245
253245
253245
253245
253245
253245
253245
253245
253245
253245
253245
253245
253245
253245
253245
253245
253311
253247
253245
253332
253246
253246
253245
253245
253245
253245
253245
253245
253245
253245
253245
253245
253245
253245
253245
253245
253245
256466
253245
253245
253246
253245
447848
253251
253245
253245
1.59741e+06
253245
253245
253245
253245
253245
253449
253245
253245
253245
253245
253245
253245
253245
253245
253245
253245
253245
253245
253245
253245
253245
253245
253245
253245
253245
253245
253245
253245
253245
367994
351940
568713
1.02753e+06
284347
450469
470692
270528
318872
280265
262039
444329
256913
253381
273901
253315
255185
261964
253285
253265
253788
253247
258116
253245
253296
253245
253645
253245
253245
253245
253245
253245
253245
253245
253245
253245
253245
863187
1.25233e+06
310407
254206
1.34417e+06
256526
393514
253254
253344
253252
253245
253515
253246
253246
253245
253245
253245
253245
253245
253245
253245
253245
259303
376978
253293
253279
253835
260870
254594
253285
253823
253337
253548
253245
253247
253245
253245
253245
253245
253245
253245
253245
253245
253245
253245
253245
253245
253245
253245
253245
253245
253245
253245
253245
253245
253245
253245
253245
253245
253245
253245
253245
253245
253245
253245
253245
253245
253245
253245
253245
253245
253245
253245
253245
253245
253245
253245
253245
253245
253245
253245
253245
253245
253245
253245
253245
253245
253245
253245
253245
253245
253245
253245
253245
253245
253245
253245
253245
253245
253245
253245
253245
253245
253245
253245
253245
253245
253245
253245
253245
253245
253245
253245
253245
253245
253245
253245
253245
253245
253245
253245
253245
253245
253245
253245
253245
253245
253245
253245
253245
253245
268390
269482
268013
254591
254480
254359
254714
253252
253245
253246
253245
253245
253246
253253
265166
263018
261604
254349
253831
254120
254038
253250
253245
253245
253246
253245
253246
253248
253245
253245
253245
253245
253245
253245
253245
253245
253245
253245
253245
253245
253245
253245
253245
253245
253245
253245
253245
253245
253245
253245
253245
253245
253245
253245
253245
253245
253245
253245
253245
253245
253245
253245
253245
253245
253245
253245
253245
253245
253245
253245
253245
253245
253245
253245
253245
253245
253245
253245
253245
253245
253245
253245
253245
253245
253245
253245
253245
253245
253245
253245
253245
253245
253245
253245
253245
253245
253245
253245
253245
253245
253245
253245
253245
258278
257023
255840
253511
253577
253740
253403
253246
253245
253245
253245
253247
253245
253245
254368
253623
254041
253364
253264
253307
253288
253245
253245
253245
253245
253245
253245
253245
253245
253245
253245
253245
253245
253245
253245
253245
253245
253245
253245
253245
253245
253245
253245
253245
253245
253245
253245
253245
253245
253245
253245
253245
253245
253245
253245
253245
253245
253245
253245
253245
253245
253245
253245
253245
253245
253245
253245
253245
253245
253245
253245
253245
253245
253245
253245
253245
253245
253245
253245
253245
253245
253245
253245
253245
253245
253245
253245
253245
253245
253245
253245
253245
253245
253245
253245
253245
253245
253245
253261
253492
253298
253247
253249
253256
253246
253245
253245
253245
253245
253245
253245
253245
253245
253251
253245
253245
253245
253245
253245
253245
253245
253245
253245
253245
253245
253245
253245
253245
253245
253245
253245
253245
253245
253249
253245
253259
253258
253246
253246
253308
253245
253245
253245
253245
253245
253245
253245
253245
253245
253245
253245
253245
253245
253245
253245
253245
253247
253245
253245
253245
253245
253245
253245
253245
253245
253245
253245
253245
253245
253245
253245
253245
253245
253245
253245
253245
253245
253245
253245
253245
253245
253245
253245
253245
253245
253245
253245
253245
253245
253245
253245
253245
253245
253245
253245
253245
253245
253245
253245
253245
253245
253245
253245
253245
253245
253245
253245
253245
253245
253245
253245
253245
253245
253245
253245
253245
253245
253245
253245
253245
253245
253245
253245
253245
253251
253427
253264
253249
253246
253256
253245
253245
253245
253245
253245
253245
253245
253245
939321
1.37808e+06
1.21875e+06
1.73132e+06
1.45292e+06
253361
270115
266136
260056
254257
253813
254743
253245
253245
253245
253245
253245
253245
253245
362339
429725
418308
654776
996805
986853
656966
395335
337089
361950
650779
908454
959949
644362
324567
299059
292193
588941
812450
626543
674613
271831
260340
266193
523307
380215
519715
431691
253609
258031
254480
279645
292064
338730
261194
399157
400448
500059
254596
1.79998e+06
275039
265508
253248
253429
253259
258224
253308
254178
253641
253245
253245
253246
253246
253248
253265
253245
253245
253245
253245
253245
253245
253245
253245
527436
744612
554674
1.24658e+06
967685
900165
1.13879e+06
418931
379519
330712
776680
833411
271418
261601
347986
271922
370341
799947
486110
743304
253335
256141
253580
266919
259356
298764
254569
253254
254610
253250
253248
253322
253289
253246
253246
253274
253247
253253
253825
253291
253353
253245
253245
253245
253246
253245
253248
253245
253245
253245
253245
253245
253245
253245
253245
253268
263850
253311
253261
253801
253649
253248
253246
253246
253246
253245
253260
253245
253245
277598
386888
289260
256135
265512
255081
262618
253245
253245
747531
253245
253245
253245
253245
253245
253245
253459
253261
1.02567e+06
1.18754e+06
797532
254154
253335
253245
253245
253245
253245
253245
253245
253245
253245
253245
253245
253245
253245
253245
253245
253245
253245
253245
253245
253245
253245
253245
253245
253245
253246
253245
253245
253246
253245
253248
253245
253260
253262
254093
253304
253299
253249
253495
1.03631e+06
797125
736087
1.13327e+06
593754
745919
937189
397949
373013
651094
598728
532550
297560
294068
253245
253245
253245
253245
253245
253245
253245
253251
253245
253245
253247
253245
253246
253245
253245
253245
253245
253245
253245
253245
253245
253245
253245
253245
253245
253245
253245
253245
253245
253245
253245
253245
253245
253245
253245
253259
253245
253253
253246
253775
253247
253245
253250
253245
253245
253245
253245
253245
253245
253245
253245
253245
253245
253245
253245
253245
253245
253245
253245
253245
253245
253245
253245
253343
253329
253252
253249
253320
253251
253354
253323
253248
253282
253248
253302
253250
253298
253260
253265
253247
253245
253276
253254
253246
253251
253245
253246
253245
253248
253245
253247
253245
253245
253245
253245
253245
253245
253245
253245
253245
253245
253245
253245
253245
253245
253245
253245
253245
253245
253245
253245
253245
253245
253245
253245
253245
253245
253245
253245
253248
253283
253245
253246
253251
253266
253245
253245
253245
253245
253245
253246
253245
253245
253245
253245
253245
253245
253245
253245
253245
253245
253245
253245
253245
253245
253245
253245
253245
253245
253245
253245
253245
253245
253245
253245
253245
253245
253245
253245
253245
253245
253245
253245
253245
253245
253245
253245
253245
253245
253245
253245
253245
253245
253245
253245
490532
253306
253245
304985
751523
257197
255193
253889
253245
253246
263377
253250
253247
253245
253245
253245
253245
253245
253245
253245
253245
253245
253245
253245
253245
253245
253245
253245
253245
253245
253245
253245
253245
253245
253245
253245
253245
253245
253245
253245
253245
253245
253937
253314
254175
253259
253454
253254
253376
253470
256311
253517
256782
254194
265234
264566
253245
253245
253245
253245
253245
253245
253245
253245
253245
253245
253245
253245
253245
253245
253245
253245
253245
253245
253245
253245
253245
253245
253245
253245
253245
253245
253245
253245
253245
253245
253245
253245
253245
253245
253245
253245
253245
253245
253245
253245
253245
253245
253245
253245
253245
253245
253245
253245
253245
253245
253245
253245
253245
253245
253245
253245
253245
253245
253245
253245
253245
253245
253245
253245
253245
253245
253245
253245
253245
253245
253245
253245
253245
1.06853e+06
2.00025e+06
1.61782e+06
314740
2.1132e+06
3.22654e+06
257873
2.11585e+06
1.95507e+06
1.89328e+06
1.47301e+06
253755
253271
2.50303e+06
2.26971e+06
253245
2.52409e+06
1.35861e+06
1.61848e+06
1.78337e+06
1.75664e+06
253502
253245
3.88914e+06
266094
253245
3.89857e+06
307804
405707
304461
1.07653e+06
830552
253246
253245
3.96811e+06
288370
253245
253245
4.19158e+06
1.93697e+06
253270
253247
253245
253245
1.22029e+06
604210
253259
253245
253245
2.54853e+06
253248
253245
253245
253245
643645
253307
253245
253245
253245
253245
253245
253245
253245
253245
253245
253245
253245
253245
253245
253245
253245
253245
253245
1.83057e+06
2.0237e+06
3.56152e+06
2.09638e+06
3.57957e+06
2.17462e+06
3.56128e+06
2.33028e+06
3.71783e+06
1.82508e+06
2.04358e+06
2.71675e+06
2.36405e+06
2.85833e+06
1.31913e+06
2.1456e+06
2.89767e+06
2.18795e+06
2.93293e+06
2.94906e+06
3.44158e+06
2.92813e+06
566473
3.81228e+06
3.41108e+06
4.17687e+06
4.53548e+06
3.74219e+06
4.24844e+06
538199
4.05941e+06
3.11239e+06
763813
253366
3.4693e+06
400892
3.34009e+06
3.50133e+06
4.16133e+06
2.31781e+06
3.60686e+06
3.80705e+06
3.85004e+06
1.77956e+06
2.82214e+06
2.88109e+06
2.78387e+06
640596
4.41697e+06
3.24431e+06
953310
254690
1.47116e+06
254885
253255
1.55017e+06
253478
253349
253246
253352
253246
3.63925e+06
2.97607e+06
3.15878e+06
3.43608e+06
1.99418e+06
256416
253444
2.0349e+06
1.60437e+06
1.30513e+06
2.63528e+06
2.18864e+06
2.71514e+06
3.39516e+06
2.48494e+06
3.75008e+06
3.73825e+06
1.46797e+06
3.509e+06
3.36514e+06
3.16445e+06
2.74456e+06
3.42057e+06
4.1289e+06
4.18431e+06
4.10023e+06
4.31292e+06
4.25021e+06
3.91357e+06
510050
437205
262633
1.09879e+06
2.80462e+06
987424
1.08993e+06
754095
1.45888e+06
256107
253474
349006
253981
254005
253247
253471
253247
253245
253248
253245
253245
253245
253245
253245
2.71734e+06
2.15202e+06
1.80813e+06
1.88896e+06
1.85944e+06
1.94175e+06
1.98139e+06
1.90725e+06
2.54222e+06
2.05646e+06
2.47184e+06
2.16372e+06
2.11964e+06
2.55074e+06
2.46664e+06
2.63148e+06
2.22691e+06
2.28341e+06
2.78797e+06
2.18089e+06
2.63939e+06
2.78814e+06
1.88687e+06
1.94433e+06
2.25388e+06
2.95386e+06
2.80413e+06
1.00007e+06
2.80002e+06
2.92346e+06
1.56514e+06
2.80696e+06
1.53001e+06
1.03194e+06
2.10051e+06
2.31886e+06
2.27744e+06
2.55788e+06
2.91299e+06
2.52896e+06
2.38049e+06
2.62487e+06
1.13865e+06
3.05569e+06
1.60655e+06
3.04168e+06
1.078e+06
3.20574e+06
1.61206e+06
3.04629e+06
3.94628e+06
3.68479e+06
3.59388e+06
3.53177e+06
2.85568e+06
4.10264e+06
2.88692e+06
4.32434e+06
3.44158e+06
3.75912e+06
2.95527e+06
3.93099e+06
4.35531e+06
3.0653e+06
3.56749e+06
4.53413e+06
4.44906e+06
4.43173e+06
4.17218e+06
4.51299e+06
4.62791e+06
4.2266e+06
4.6431e+06
4.07921e+06
4.26878e+06
4.23298e+06
4.34106e+06
4.38514e+06
4.5244e+06
4.13221e+06
2.89238e+06
4.23802e+06
2.87266e+06
1.70258e+06
4.21943e+06
3.44776e+06
1.00134e+06
2.88198e+06
3.91511e+06
3.33033e+06
2.8448e+06
4.12511e+06
3.3863e+06
4.24241e+06
4.29523e+06
4.01853e+06
737732
3.51146e+06
814952
1.20304e+06
1.06245e+06
3.09353e+06
424752
4.1635e+06
2.09868e+06
3.59989e+06
3.68474e+06
3.93444e+06
3.06719e+06
4.2497e+06
3.17744e+06
4.15982e+06
3.70371e+06
3.27625e+06
2.7992e+06
3.36746e+06
3.34335e+06
3.12501e+06
3.67659e+06
3.90703e+06
2.11552e+06
3.37298e+06
3.55955e+06
3.86161e+06
2.96275e+06
3.44884e+06
4.44057e+06
4.52077e+06
4.3313e+06
4.48939e+06
4.11433e+06
3.89452e+06
1.9701e+06
2.54178e+06
4.14343e+06
1.21824e+06
3.92913e+06
639934
2.82941e+06
1.31945e+06
3.406e+06
853346
498690
2.76454e+06
2.17632e+06
323351
429415
304950
253737
274982
266791
814815
259507
254652
875370
397848
352845
293407
279741
258341
253295
256460
253279
253251
254130
253421
253247
2.94148e+06
4.16153e+06
3.64925e+06
3.52678e+06
3.39676e+06
4.01315e+06
3.58574e+06
3.94212e+06
4.06966e+06
1.59119e+06
3.1157e+06
3.64222e+06
723170
2.63223e+06
354684
297802
1.14368e+06
259296
253256
253570
1.40889e+06
1.54738e+06
1.24148e+06
2.05799e+06
975239
1.72021e+06
1.57687e+06
2.34464e+06
983870
2.63428e+06
1.49107e+06
2.76094e+06
2.71857e+06
1.50806e+06
975199
1.1953e+06
3.08043e+06
3.50072e+06
1.24147e+06
3.35454e+06
1.51018e+06
1.19184e+06
1.42274e+06
2.21757e+06
2.92934e+06
1.76383e+06
1.43988e+06
2.26477e+06
2.75343e+06
273791
3.04126e+06
1.59164e+06
2.73377e+06
257499
2.88634e+06
1.26701e+06
254623
2.21995e+06
265560
364004
253257
827660
253375
1.3595e+06
1.994e+06
1.01491e+06
1.50342e+06
1.71329e+06
1.87127e+06
703490
2.11708e+06
618265
1.44953e+06
257289
797931
253517
253247
297713
253262
253252
253245
256561
253245
1.36148e+06
1.76627e+06
803572
1.12138e+06
334019
1.10387e+06
258128
253307
329471
253271
259317
253248
253595
253246
253245
253245
253245
253245
253245
253245
253245
2.4496e+06
3.0124e+06
2.70632e+06
3.04283e+06
2.6995e+06
3.34173e+06
3.41992e+06
3.03613e+06
3.62831e+06
4.07318e+06
3.06929e+06
3.73989e+06
4.27999e+06
3.88783e+06
1.60844e+06
2.36144e+06
2.55916e+06
1.37822e+06
1.83569e+06
2.11298e+06
1.37452e+06
253245
253245
253245
253245
253245
253245
253245
296844
256115
253245
253245
253245
1.11109e+06
1.02306e+06
1.69831e+06
1.35126e+06
1.25623e+06
586075
982449
1.07796e+06
1.61088e+06
946607
1.46898e+06
1.43969e+06
817628
1.57561e+06
1.08721e+06
1.22819e+06
2.58101e+06
2.1589e+06
991336
1.39465e+06
2.51414e+06
589993
867368
1.71485e+06
253247
253686
253245
253245
253245
253245
253245
253245
253245
253245
253245
253245
253245
253245
253245
253245
253245
253245
253245
253245
253245
253245
253245
253245
253245
253245
253245
253245
253245
253245
1.07487e+06
1.1494e+06
1.01675e+06
1.13062e+06
1.23676e+06
1.86688e+06
1.28196e+06
1.42101e+06
1.90702e+06
1.39126e+06
1.12661e+06
1.21154e+06
1.36323e+06
1.31407e+06
1.29301e+06
1.03683e+06
1.68695e+06
1.64329e+06
2.11598e+06
1.46195e+06
2.16639e+06
3.20422e+06
1.89418e+06
1.27142e+06
1.63599e+06
1.91036e+06
2.19742e+06
1.84057e+06
1.93694e+06
2.73212e+06
3.04579e+06
2.1295e+06
1.83418e+06
2.88381e+06
1.40771e+06
1.27965e+06
1.44135e+06
1.00544e+06
1.05919e+06
1.64438e+06
1.55332e+06
1.78823e+06
1.32277e+06
1.46359e+06
2.50953e+06
2.45797e+06
2.85349e+06
2.33185e+06
2.86731e+06
1.69529e+06
1.06387e+06
1.16867e+06
1.03252e+06
1.1684e+06
1.18253e+06
1.04775e+06
1.05244e+06
974899
984741
959578
998193
1.08502e+06
1.19725e+06
1.24701e+06
1.1023e+06
1.20958e+06
1.07036e+06
1.11491e+06
1.47466e+06
1.29741e+06
1.43553e+06
1.3083e+06
1.31819e+06
1.47183e+06
1.44449e+06
1.65455e+06
1.61757e+06
1.66521e+06
1.61436e+06
1.51299e+06
1.34316e+06
1.39622e+06
1.57267e+06
1.35132e+06
1.51285e+06
1.56772e+06
1.69807e+06
1.78324e+06
1.71257e+06
1.76078e+06
1.01289e+06
1.14384e+06
1.02855e+06
966989
943186
1.17245e+06
1.08103e+06
1.05021e+06
1.59215e+06
1.63945e+06
1.31432e+06
1.54446e+06
1.48206e+06
1.77024e+06
1.68829e+06
1.08199e+06
1.02212e+06
1.03194e+06
1.07493e+06
1.21928e+06
1.29974e+06
1.14848e+06
1.37575e+06
1.15758e+06
1.37923e+06
1.21245e+06
1.14922e+06
1.23797e+06
1.14528e+06
1.23653e+06
1.30618e+06
1.49233e+06
1.63176e+06
1.42373e+06
1.49052e+06
1.30194e+06
1.41911e+06
1.7662e+06
1.46252e+06
1.66065e+06
1.56726e+06
1.6484e+06
1.56053e+06
1.78549e+06
1.9956e+06
1.88674e+06
1.85609e+06
2.03205e+06
1.92687e+06
1.71114e+06
1.87046e+06
2.17212e+06
1.69709e+06
1.95424e+06
2.13552e+06
2.18726e+06
2.48821e+06
2.2289e+06
2.45781e+06
1.12893e+06
1.35798e+06
1.19524e+06
1.21458e+06
1.12825e+06
1.47674e+06
1.40344e+06
1.28462e+06
1.89513e+06
2.06476e+06
1.7111e+06
2.21904e+06
1.98062e+06
2.55591e+06
2.28407e+06
1.51896e+06
1.36198e+06
1.35381e+06
1.52302e+06
1.78299e+06
1.82025e+06
1.5833e+06
2.10306e+06
1.56897e+06
2.09571e+06
1.79334e+06
1.76181e+06
2.03554e+06
1.73777e+06
2.11085e+06
2.09832e+06
2.477e+06
3.17409e+06
2.48364e+06
2.51933e+06
2.07817e+06
2.56335e+06
2.9478e+06
2.10479e+06
2.45455e+06
2.45725e+06
2.44408e+06
2.46932e+06
2.88059e+06
1.55383e+06
2.08174e+06
1.74392e+06
1.93199e+06
1.65542e+06
2.39947e+06
2.37126e+06
1.99912e+06
2.99466e+06
2.43024e+06
2.55172e+06
2.90129e+06
1.52231e+06
1.03031e+06
1.14014e+06
1.00941e+06
1.46034e+06
1.04507e+06
1.15946e+06
2.04693e+06
1.38793e+06
1.98155e+06
1.60103e+06
1.89805e+06
1.44076e+06
2.00929e+06
1.46344e+06
962655
1.32528e+06
1.21915e+06
1.58787e+06
1.08672e+06
1.78766e+06
1.71587e+06
1.47999e+06
2.36055e+06
1.33295e+06
1.154e+06
2.22776e+06
2.26662e+06
1.4207e+06
1.34783e+06
2.61606e+06
1.88779e+06
918808
1.85201e+06
2.8925e+06
2.15998e+06
856375
2.33245e+06
2.10384e+06
699623
1.06511e+06
1.1385e+06
1.11058e+06
547723
450246
253398
253245
253245
253245
253245
253245
253245
1.38702e+06
561192
784025
956358
1.32205e+06
659915
362800
429912
540013
292093
333798
474793
918079
520183
627890
631148
473013
390093
762828
2.59919e+06
2.66869e+06
2.61558e+06
1.10033e+06
1.72469e+06
898602
991987
596271
1.12637e+06
1.21948e+06
749766
1.36945e+06
967366
822513
898015
1.13658e+06
1.87483e+06
836137
881701
866893
912325
1.08522e+06
1.06101e+06
1.17696e+06
1.68438e+06
1.5851e+06
2.06042e+06
1.64697e+06
2.28419e+06
2.20255e+06
1.97487e+06
1.55343e+06
2.26016e+06
912083
842684
929682
944445
1.23672e+06
2.23101e+06
1.27974e+06
1.98831e+06
1.43032e+06
959083
853015
928503
851969
865586
943417
947275
861799
895065
876753
848656
922295
958091
964821
1.0151e+06
1.08779e+06
1.01974e+06
999052
1.17869e+06
1.29659e+06
1.30607e+06
1.45832e+06
1.76062e+06
1.49402e+06
1.37796e+06
1.65171e+06
1.73775e+06
1.40384e+06
1.87393e+06
1.47063e+06
1.976e+06
1.5737e+06
1.77874e+06
2.05584e+06
2.28395e+06
1.73613e+06
2.16398e+06
1.68451e+06
1.85669e+06
2.08795e+06
2.28633e+06
2.40813e+06
1.32887e+06
1.79764e+06
1.5011e+06
2.03112e+06
1.74463e+06
1.62816e+06
805751
754487
822371
791573
743933
779676
852140
816812
931623
961718
804786
938966
1.08344e+06
1.0298e+06
1.61983e+06
1.41728e+06
991473
1.33107e+06
702585
768216
681382
769295
780407
692870
691711
711733
775694
804259
713569
789153
700036
724949
673976
761875
687205
765554
704098
691709
776554
826722
733817
857616
743347
863836
770599
819344
906722
966842
860525
911095
815620
866785
724031
846527
761583
893321
841549
805190
1.00116e+06
1.03815e+06
912190
1.11814e+06
924010
1.13675e+06
978972
1.11255e+06
1.24115e+06
1.4837e+06
1.21852e+06
1.28006e+06
1.07515e+06
1.27325e+06
879549
1.06235e+06
932386
1.16883e+06
1.14905e+06
1.01618e+06
1.27931e+06
624277
489725
914549
412387
781707
738906
873954
597367
614206
1.16772e+06
1.30065e+06
1.05914e+06
1.47783e+06
643406
665953
654792
1.57047e+06
1.56475e+06
889034
853689
755358
1.16138e+06
1.11566e+06
755325
606499
1.13781e+06
1.00033e+06
654269
971841
1.05379e+06
554313
543575
831622
710168
1.02463e+06
1.09249e+06
1.08274e+06
1.13875e+06
1.22211e+06
1.21076e+06
1.13809e+06
683104
895524
808217
1.48386e+06
1.84257e+06
1.85094e+06
1.60641e+06
822756
799103
783625
719736
726463
741166
705773
1.20566e+06
1.26646e+06
1.32041e+06
1.21761e+06
1.23819e+06
1.28184e+06
1.27843e+06
1.43717e+06
1.47443e+06
1.41493e+06
1.32869e+06
1.29032e+06
1.2352e+06
1.142e+06
626639
884735
798768
602471
675832
658941
688995
1.06775e+06
1.07598e+06
1.01676e+06
1.12106e+06
1.19135e+06
1.19117e+06
1.1238e+06
1.04887e+06
928953
945202
971327
982216
1.08929e+06
1.07773e+06
803670
833934
817515
723244
751199
739752
736474
1.64077e+06
1.48492e+06
1.40875e+06
1.3328e+06
1.25215e+06
1.02552e+06
899886
1.01825e+06
1.12281e+06
1.05741e+06
1.17803e+06
1.18988e+06
1.12382e+06
1.25531e+06
891867
802649
641491
618384
657652
854731
827987
1.1352e+06
1.3752e+06
1.2658e+06
1.29345e+06
1.57112e+06
1.39125e+06
1.48134e+06
1.26127e+06
1.36358e+06
1.39323e+06
1.50958e+06
1.35132e+06
1.39488e+06
1.26094e+06
940418
971372
950421
978669
1.05617e+06
1.07793e+06
1.08442e+06
659803
659486
719495
685034
685265
696783
686314
993571
1.01406e+06
985099
894706
913315
887278
870572
998207
1.61464e+06
1.48949e+06
961477
884530
1.34222e+06
1.46734e+06
637409
546406
537729
896673
1.04807e+06
814313
664844
602880
804951
658123
1.17299e+06
1.07146e+06
846426
1.53804e+06
1.45393e+06
1.78221e+06
1.70245e+06
2.00886e+06
1.73792e+06
1.73691e+06
1.82595e+06
838659
886048
873927
800216
786959
768444
754988
557328
561561
528951
642573
612851
594847
603252
1.16201e+06
1.25775e+06
1.28511e+06
1.20455e+06
1.31302e+06
1.3301e+06
1.19195e+06
1.24322e+06
1.48529e+06
1.31973e+06
1.37838e+06
1.32975e+06
1.37934e+06
1.24257e+06
918918
993644
975817
894573
842118
876944
828346
1.27583e+06
901540
1.19051e+06
798438
1.04622e+06
789128
715679
993842
914292
893558
927401
909587
1.03262e+06
1.01358e+06
985127
1.02225e+06
999152
1.0682e+06
1.11167e+06
1.13589e+06
1.08992e+06
1.3729e+06
1.45738e+06
1.42811e+06
1.31294e+06
1.32886e+06
1.23435e+06
1.08194e+06
1.94721e+06
1.78687e+06
1.87788e+06
1.84742e+06
1.74548e+06
1.74127e+06
1.84624e+06
1.14268e+06
913880
735474
1.27876e+06
819451
977304
1.41271e+06
1.05666e+06
1.19255e+06
1.14607e+06
1.30422e+06
1.1859e+06
1.22416e+06
1.37266e+06
1.1664e+06
1.05457e+06
1.21014e+06
1.06772e+06
967063
1.0297e+06
940691
1.30056e+06
1.34103e+06
1.43046e+06
1.04763e+06
695568
812843
856013
620619
671547
637366
751131
691795
698523
753851
1.11498e+06
1.06345e+06
966065
915593
1.10879e+06
881384
835196
838288
1.03914e+06
1.30775e+06
695736
780170
1.14269e+06
891721
1.70316e+06
1.87054e+06
1.54071e+06
1.67732e+06
1.83721e+06
1.54094e+06
1.70839e+06
1.29973e+06
1.28443e+06
1.17208e+06
1.19361e+06
1.32815e+06
1.3206e+06
1.19995e+06
1.33179e+06
1.31991e+06
1.39635e+06
1.57719e+06
1.24841e+06
1.41592e+06
1.51878e+06
1.2785e+06
1.55855e+06
1.46241e+06
1.48424e+06
1.74423e+06
1.90713e+06
1.59478e+06
1.97729e+06
1.78837e+06
2.09147e+06
2.14663e+06
1.44617e+06
1.75461e+06
2.03238e+06
851203
1.19832e+06
1.02898e+06
704898
759084
750239
769053
617024
577872
576689
669545
669017
632364
636792
1.10197e+06
1.12586e+06
1.09399e+06
1.21995e+06
1.19385e+06
1.24794e+06
1.21368e+06
1.50246e+06
1.65071e+06
1.67252e+06
1.91244e+06
1.57043e+06
1.73303e+06
1.74461e+06
1.69907e+06
1.66982e+06
1.78237e+06
1.45581e+06
1.62626e+06
1.59238e+06
1.35965e+06
933764
984031
973284
1.08891e+06
1.05373e+06
1.04213e+06
1.09741e+06
1.55029e+06
1.32771e+06
1.38498e+06
1.39038e+06
1.33158e+06
1.20629e+06
1.15659e+06
616258
722435
644422
649617
576085
672438
638087
1.24419e+06
1.297e+06
1.26109e+06
919574
889762
1.24324e+06
1.6229e+06
743897
806057
735852
737523
828442
812539
746586
1.70096e+06
1.64551e+06
1.73427e+06
1.53164e+06
1.79146e+06
1.53263e+06
1.69542e+06
1.20037e+06
1.86291e+06
2.08898e+06
1.69305e+06
1.9657e+06
1.97696e+06
1.6059e+06
891511
870278
849068
1.13868e+06
1.05007e+06
990619
1.24251e+06
1.10594e+06
1.27917e+06
1.25588e+06
1.14995e+06
1.26075e+06
1.22941e+06
1.13045e+06
1.53624e+06
1.41818e+06
1.55818e+06
1.61148e+06
1.44725e+06
1.4654e+06
1.60132e+06
588880
758248
634953
652223
716753
650855
676706
1.02549e+06
1.11408e+06
1.09578e+06
1.15358e+06
1.26438e+06
1.16371e+06
1.24282e+06
1.18849e+06
1.40209e+06
1.24465e+06
1.27348e+06
1.34743e+06
1.20937e+06
1.44261e+06
2.06749e+06
2.1813e+06
1.71632e+06
2.55287e+06
2.11884e+06
2.28047e+06
2.42363e+06
855574
799139
884916
758309
838068
820593
753427
830134
1.37052e+06
1.92069e+06
937682
969034
1.57269e+06
700172
1.92091e+06
1.99009e+06
1.91768e+06
1.63358e+06
1.51491e+06
1.40922e+06
1.74237e+06
608699
666079
628334
739840
681548
694291
749364
1.50695e+06
1.37361e+06
1.1931e+06
1.20599e+06
882878
1.03355e+06
782069
1.33855e+06
1.19493e+06
1.39254e+06
1.55613e+06
1.41321e+06
1.36949e+06
1.63291e+06
1.42113e+06
1.59701e+06
1.57136e+06
1.61839e+06
1.47218e+06
1.46119e+06
1.63396e+06
1.54766e+06
1.51448e+06
1.34747e+06
1.40431e+06
1.92828e+06
1.63463e+06
1.62379e+06
2.14348e+06
1.88839e+06
1.81212e+06
1.76796e+06
1.58918e+06
1.53311e+06
1.70919e+06
743740
834575
790555
975940
844374
906119
824331
2.08619e+06
2.06795e+06
2.07187e+06
1.88757e+06
2.01658e+06
1.97708e+06
1.89628e+06
1.01948e+06
1.17331e+06
1.55747e+06
2.00377e+06
1.02191e+06
1.35573e+06
1.63236e+06
629237
569778
559528
547123
553834
608050
617619
1.49098e+06
1.49703e+06
1.32659e+06
1.37907e+06
1.5202e+06
1.34375e+06
1.4701e+06
1.9091e+06
1.7441e+06
1.56296e+06
1.67983e+06
1.74947e+06
1.68247e+06
1.72397e+06
1.22444e+06
1.17561e+06
1.30691e+06
1.38557e+06
1.16614e+06
1.23046e+06
1.38084e+06
2.41991e+06
2.15651e+06
1.77649e+06
2.16565e+06
2.30691e+06
2.24731e+06
1.94348e+06
1.07023e+06
1.58809e+06
1.09771e+06
1.43151e+06
1.666e+06
1.1116e+06
673016
1.70497e+06
1.64277e+06
1.80535e+06
1.45041e+06
1.01474e+06
1.22547e+06
1.18137e+06
831804
1.06423e+06
897072
697851
709003
732813
769298
741261
832139
842534