/*--------------------------------*- C++ -*----------------------------------*\
  =========                 |
  \\      /  F ield         | OpenFOAM: The Open Source CFD Toolbox
   \\    /   O peration     | Website:  https://openfoam.org
    \\  /    A nd           | Version:  9
     \\/     M anipulation  |
\*---------------------------------------------------------------------------*/
FoamFile
{
    format      ascii;
    class       volVectorField;
    location    "0.00225";
    object      rhoU;
}
// * * * * * * * * * * * * * * * * * * * * * * * * * * * * * * * * * * * * * //

dimensions      [1 -2 -1 0 0 0 0];

internalField   nonuniform List<vector> 
16633
(
(198.245 129.979 813.511)
(193.916 129.281 725.338)
(275.18 148.696 801.967)
(298.435 70.0754 802.27)
(42.0775 21.1263 112.475)
(77.1972 17.7953 216.95)
(211.512 60.0662 714.666)
(117.978 32.2808 444.578)
(176.565 56.0317 667.78)
(216.456 83.7437 728.185)
(180.907 78.1212 682.832)
(216.377 67.5296 876.333)
(249.763 69.7441 881.334)
(218.702 93.4445 876.97)
(252.241 96.6864 880.861)
(231.863 138.299 765.539)
(223.177 109.298 745.917)
(186.717 102.038 702.712)
(226.39 149.12 878.525)
(259.549 153.476 877.349)
(222.109 120.351 878.003)
(255.727 124.47 879.997)
(252.136 64.7805 761.167)
(304.188 97.8242 809.87)
(257.7 90.3908 771.94)
(316.4 73.3166 871.565)
(284.322 71.912 881.838)
(286.263 99.666 878.897)
(316.986 101.432 865.302)
(238.7 -258.222 817.658)
(191.089 -118.991 710.082)
(294.327 43.6295 796.751)
(83.79 11.6986 237.966)
(214.519 42.3945 875.575)
(123.009 20.8462 469.283)
(293.849 -34.3394 794.85)
(86.1281 -8.81484 244.597)
(128.897 -16.8287 576.539)
(172.521 -27.6991 651.939)
(106.046 -63.8968 433.603)
(297.315 -60.7678 799.053)
(48.1747 -22.5321 128.441)
(319.577 -149.001 825.104)
(80.9789 -15.6262 227.583)
(126.624 -31.2761 559.028)
(175.059 -48.4969 659.273)
(200.271 -147.614 736.767)
(354.278 -288.456 838.907)
(6.69723 -5.50304 18.6688)
(183.968 -176.581 689.912)
(93.15 -67.1088 367.313)
(34.482 -19.2257 91.1602)
(330.486 -182.762 835.418)
(173.207 35.0939 656.971)
(247.776 43.6137 881.324)
(207.829 37.5958 704.859)
(171.144 14.2149 650.266)
(205.501 15.2446 698.635)
(213.44 17.3808 875.128)
(246.526 17.7246 881.153)
(170.714 -6.77401 648.517)
(207.274 -29.6137 700.63)
(205.156 -7.1685 697.208)
(214.916 -31.5418 874.602)
(213.467 -6.48977 874.724)
(246.67 -6.94477 881.011)
(248.188 -32.8603 881.013)
(178.53 -70.2257 670.421)
(210.177 -52.0182 707.596)
(214.245 -75.3772 717.977)
(216.721 -56.9923 874.623)
(218.966 -83.194 873.888)
(250.134 -59.2986 880.661)
(252.563 -86.5107 879.313)
(183.823 -93.3847 687.572)
(228.924 -127.883 753.504)
(220.343 -100.253 733.676)
(226.799 -138.894 875.548)
(222.307 -110.289 874.294)
(256.181 -114.578 878.325)
(260.498 -143.726 877.015)
(315.569 45.6095 875.175)
(282.646 44.8583 883.127)
(248.105 40.4284 753.382)
(291.58 17.5502 792.958)
(245.548 16.3463 748.314)
(281.407 18.0717 883.371)
(314.741 18.194 876.433)
(291.415 -8.22893 792.318)
(247.542 -31.7621 750.366)
(245.318 -7.63637 747.232)
(281.594 -7.38352 883.535)
(316.44 -35.0985 876.362)
(283.224 -34.2106 883.42)
(315.071 -7.66607 876.941)
(211.606 -180.222 765.051)
(239.745 -158.726 775.924)
(252.373 -193.204 799.016)
(232.113 -169.228 876.127)
(237.157 -200.539 873.527)
(264.752 -173.755 872.735)
(267.809 -203.866 863.308)
(250.805 -56.0712 756.061)
(302.374 -88.2547 805.229)
(255.528 -81.3915 764.551)
(317.574 -63.1748 873.462)
(284.977 -61.6021 882.273)
(287.035 -89.6629 879.29)
(318.442 -91.6821 867.732)
(272.386 -138.222 793.267)
(309.928 -117.464 814.262)
(262.724 -108.47 777.197)
(289.753 -118.143 875.21)
(319.407 -148.167 847.811)
(292.578 -147.174 868.956)
(319.327 -120.062 859.676)
(321.874 159.505 830.085)
(312.156 127.377 819.666)
(265.486 117.974 786.142)
(316.458 156.676 841.832)
(290.775 156.379 866.284)
(288.647 127.795 874.198)
(317.311 129.329 856.045)
(224.7 -217.213 793.131)
(279.506 -271.86 835.469)
(266.067 -231.25 819.709)
(241.464 -260.521 846.277)
(240.749 -231.714 864.348)
(268.309 -232.413 846.298)
(264.548 -256.799 817.581)
(283.93 -170.932 810.384)
(341.252 -218.525 843.456)
(296.594 -206.562 826.277)
(317.243 -175.045 829.289)
(294.408 -176.177 858.488)
(293.968 -204.012 841.323)
(311.224 -199.084 801.032)
(222.511 61.3479 831.624)
(122.946 37.5373 544.867)
(201.11 61.9534 864.347)
(110.316 41.948 407.99)
(117.213 49.5771 509.742)
(200.675 85.1682 853.215)
(221.027 84.21 816.57)
(223.153 38.4259 840.709)
(126.652 24.1475 568.174)
(201.143 38.9316 871.105)
(128.692 10.0401 580.565)
(201.194 16.0757 874.619)
(223.415 15.6334 845.195)
(125.726 8.49074 482.443)
(129.479 -2.63358 583.635)
(202.543 -27.8924 873.295)
(201.623 -5.02546 875.426)
(223.935 -5.28002 846.295)
(125.45 -14.9561 477.743)
(224.661 -28.0793 843.701)
(126.617 -2.47081 485.644)
(122.305 -44.8819 529.56)
(203.168 -51.659 867.976)
(203.337 -75.7346 858.047)
(121.998 -27.3731 458.679)
(224.826 -51.7257 836.723)
(224.078 -75.4744 823.764)
(115.861 -38.5817 427.457)
(319.667 -283.058 844.769)
(349.878 -254.609 846.096)
(309.183 -244.487 838.366)
(289.457 -228.537 813.56)
(277.566 -225.964 687.077)
(299.317 -217.697 756.951)
(278.902 -246.687 769.517)
(202.499 -122.701 824.138)
(115.588 -56.0824 487.73)
(203.242 -99.4218 843.936)
(222.492 -98.3572 804.564)
(94.294 -51.4279 329.358)
(219.281 -120.011 776.858)
(106.67 -46.908 383.994)
(199.901 107.879 836.969)
(98.315 64.4131 403.638)
(109.164 58.8886 462.66)
(99.7342 48.435 359.826)
(86.283 50.8868 301.74)
(213.931 126.153 761.737)
(218.456 106.015 794.181)
(241.819 55.6603 698.84)
(102.237 25.466 330.868)
(238.225 59.6404 780.417)
(67.6306 21.8262 187.284)
(93.0025 32.2839 295.517)
(234.497 81.3687 759.06)
(234.436 74.9653 668.868)
(246.256 35.0252 717.809)
(108.525 16.5615 355.457)
(240.203 37.3449 793.383)
(241.01 14.9408 799.6)
(87.2786 4.5547 249.245)
(111.902 6.60956 368.638)
(248.332 13.7899 727.156)
(241.626 -5.37303 801.118)
(88.1894 -1.51451 251.821)
(248.495 -26.4576 723.563)
(111.07 -12.2067 363.517)
(241.918 -27.7639 797.484)
(112.861 -2.08573 371.731)
(249.129 -5.19786 729.287)
(245.474 -47.9516 708.682)
(106.406 -21.9845 344.069)
(240.98 -50.8196 787.485)
(238.366 -73.5582 769.46)
(72.6715 -20.7924 201.198)
(98.584 -30.1938 313.127)
(239.622 -68.4739 683.138)
(200.182 -144.807 795.434)
(194.726 -163.868 752.961)
(76.9208 -64.5623 291.308)
(78.9462 -51.4227 266.336)
(212.959 -139.005 736.513)
(201.678 -152.986 678.339)
(61.2663 -46.4901 199.382)
(55.6015 22.9671 151.202)
(80.9945 35.9625 251.295)
(66.5274 35.9475 200.886)
(207.31 102.845 567.628)
(218.793 117.605 681.604)
(228.398 101.083 727.054)
(223.336 91.2126 625.995)
(233.732 -94.6391 742.106)
(73.9938 -37.1004 223.387)
(216.484 -100.267 593.739)
(61.4777 -23.2388 167.131)
(225.891 -113.087 702.427)
(87.6698 -35.4347 271.985)
(230.341 -86.3335 645.576)
(58.4301 -55.9991 211.972)
(38.8182 -41.7339 135.657)
(166.232 -179.026 602.071)
(183.806 -158.911 598.919)
(25.2118 -24.4491 78.83)
(42.2757 -36.5904 133.173)
(157.107 -152.318 491.543)
(57.9087 -34.6844 170.016)
(196.266 -108.198 523.299)
(213.488 -127.34 647.623)
(194.805 -134.951 573.888)
(22.1175 -14.3255 58.9637)
(40.7341 -28.3631 116.656)
(168.291 -107.599 433.411)
(111.591 -92.4506 202.94)
(49.4654 -32.1043 110.277)
(54.4301 7.88681 104.425)
(140.609 -139.448 254.108)
(76.5931 9.72495 133.901)
(116.899 19.115 277.376)
(115.615 23.593 373.428)
(75.8139 -9.94492 132.196)
(204.343 -25.9367 507.42)
(45.87 -8.50661 89.9188)
(114.906 -20.1066 370.338)
(126.622 -80.8408 415.588)
(77.0662 -16.7218 134.915)
(208.189 -44.6323 516.752)
(236.567 -111.595 583.727)
(83.5684 -40.2963 150.669)
(46.7859 -13.5385 93.4557)
(116.507 -34.1211 376.232)
(53.8932 -47.5519 126.277)
(57.2438 -56.9848 135.536)
(174.719 -190.144 572.526)
(133.676 -100.394 440.314)
(324.931 -264.713 760.687)
(254.106 -141.744 622.605)
(87.9308 -50.3598 159.076)
(46.4967 7.3233 91.1491)
(45.2043 2.35207 87.7686)
(52.8986 2.68548 101.07)
(62.8955 11.3172 148.552)
(61.6015 4.12914 144.752)
(71.7276 4.56774 160.509)
(73.3363 12.1096 164.356)
(44.8705 -3.55604 87.4306)
(53.7975 -8.77633 102.945)
(52.6172 -3.494 100.633)
(62.2657 -11.4004 147.062)
(61.2644 -4.10143 144.326)
(71.4852 -4.10421 159.983)
(72.7239 -11.816 162.666)
(47.101 -19.394 97.5754)
(54.7693 -14.1913 106.126)
(55.395 -20.4766 109.677)
(63.1211 -18.8479 150.75)
(63.5903 -26.8033 155.158)
(73.7135 -19.7404 166.138)
(74.6027 -28.1836 170.345)
(66.4104 -43.3801 170.141)
(47.9438 -25.4758 103.293)
(58.557 -34.0068 121.661)
(56.6695 -26.9516 114.999)
(64.6586 -34.8502 161.654)
(76.213 -36.7133 176.864)
(78.6032 -45.8247 185.36)
(93.0583 -110.277 201.738)
(197.408 -237.022 638.655)
(349.765 -314.736 795.952)
(371.609 -427.468 791.558)
(269.641 -413.763 805.084)
(186.902 -215.425 335.63)
(122.12 -168.379 263.854)
(102.878 14.6129 202.325)
(64.1969 8.64658 118.385)
(74.6798 3.6147 130.528)
(62.5235 3.08676 115.001)
(84.5983 5.08274 177.93)
(86.43 13.1348 181.896)
(100.71 5.78329 198.265)
(74.4317 -3.60965 129.989)
(63.5239 -9.23205 116.719)
(62.2636 -3.50906 114.497)
(84.38 -4.19929 177.358)
(102.105 -13.4784 200.468)
(85.7995 -12.4976 180.05)
(100.482 -4.38415 197.674)
(64.5994 -15.2458 119.612)
(78.4537 -24.0869 138.374)
(65.6455 -22.0505 122.918)
(103.593 -22.9148 204.016)
(86.9881 -21.0903 183.454)
(88.3648 -30.0873 187.805)
(105.433 -32.6258 208.853)
(51.4104 -39.3556 118.137)
(68.9074 -52.7311 180.153)
(61.074 -41.872 129.141)
(64.3979 -50.9671 137.455)
(72.337 -63.4889 191.385)
(81.9899 -56.1335 195.478)
(86.6462 -68.2095 207.533)
(80.507 -31.6398 143.901)
(69.6456 -36.6225 134.82)
(67.3355 -28.9877 128.189)
(90.4504 -39.1557 194.657)
(112.659 -54.1475 225.776)
(93.6451 -49.2437 203.443)
(108.251 -42.6686 216.228)
(61.9058 -68.2673 147.467)
(74.9128 -74.3465 161.737)
(68.8364 -61.5803 147.936)
(83.2862 -91.6263 222.035)
(76.9937 -76.2016 204.835)
(92.8475 -82.4955 222.884)
(101.174 -99.9827 242.803)
(84.0458 16.4779 231.756)
(113.839 9.41585 367.885)
(82.6445 6.38248 227.412)
(96.8644 6.94942 247.924)
(138.176 25.4324 407.571)
(98.5853 17.5891 252.517)
(135.895 10.2488 401.54)
(113.466 -5.64637 366.855)
(83.4273 -15.1052 229.864)
(82.3202 -4.78706 226.815)
(96.5973 -4.9045 247.25)
(137.35 -21.4193 404.297)
(97.9847 -15.8213 250.419)
(135.584 -5.95437 400.451)
(72.9624 -45.4544 142.419)
(93.7146 -61.9755 170.122)
(77.35 -55.7228 151.777)
(118.78 -67.4897 238.308)
(98.2675 -60.9506 214.294)
(104.431 -74.6063 228.184)
(127.041 -83.1212 254.777)
(84.4773 -25.3365 234.169)
(118.463 -48.6716 384.43)
(85.3928 -35.9674 239.529)
(139.488 -36.5208 410.89)
(99.3228 -26.7087 254.828)
(100.793 -37.9541 260.562)
(142.389 -52.2514 420.378)
(89.6406 -58.1686 259.015)
(121.695 -63.8728 397.297)
(87.0742 -46.7252 247.785)
(103.15 -49.3211 269.476)
(153.969 -87.8981 457.068)
(106.72 -61.7682 281.502)
(147.064 -68.9474 435.377)
(91.1317 -82.3096 180.043)
(101.48 -75.6977 184.575)
(83.2475 -67.7357 164.078)
(112.721 -90.9186 246.186)
(152.205 -125.252 303.916)
(137.967 -101.942 276.25)
(123.658 -110.994 269.526)
(139.996 21.1664 308.256)
(205.539 31.4181 511.327)
(167.277 27.9539 451.736)
(114.821 7.6818 272.491)
(202.001 12.8197 503.593)
(164.465 11.3675 444.897)
(137.498 8.62971 302.989)
(114.569 -5.10297 271.759)
(201.59 -7.01648 502.306)
(139.144 -18.3108 305.904)
(166.327 -23.3372 448.11)
(116.176 -16.8346 275.133)
(164.113 -6.40513 443.733)
(137.225 -5.44114 302.214)
(93.363 -70.9433 273.115)
(143.39 -123.783 473.312)
(98.5088 -85.8785 290.342)
(163.838 -110.22 486.996)
(111.883 -76.0646 296.924)
(118.918 -92.9386 316.548)
(177.34 -137.306 526.257)
(82.9073 -90.2414 179.455)
(68.1021 -82.3026 163.013)
(76.0842 -100.082 182.872)
(91.7041 -110.938 244.349)
(112.165 -121.947 268.529)
(102.742 -135.502 273.26)
(126.381 -149.839 301.792)
(141.359 -31.1771 311.205)
(169.182 -39.9369 455.886)
(117.882 -28.573 279.851)
(119.927 -40.596 286.288)
(214.044 -64.3584 531.162)
(173.299 -57.3062 467.706)
(144.202 -44.3184 318.779)
(123.217 -52.9963 296.195)
(189.659 -97.9128 512.872)
(223.255 -86.145 553.294)
(155.845 -74.3722 346.242)
(128.193 -66.9774 309.667)
(179.871 -76.1085 486.422)
(148.874 -58.2823 330.26)
(115.108 -126.058 340.456)
(156.728 -152.91 517.059)
(105.503 -103.766 312.081)
(128.526 -113.445 342.092)
(217.96 -212.987 635.305)
(195.322 -171.027 575.936)
(141.631 -139.275 375.993)
(114.165 -123.229 225.108)
(124.45 -113.304 225.76)
(101.33 -100.45 200.115)
(170.567 -154.66 339.629)
(137.854 -136.21 299.563)
(156.229 -168.356 338.419)
(194.62 -192.547 386.279)
(105.891 -135.726 229.413)
(86.22 -122.755 207.759)
(99.0902 -151.867 238.656)
(135.909 -208.646 359.955)
(117.071 -167.114 310.743)
(144.88 -185.879 345.027)
(169.491 -233.825 402.469)
(203.256 -123.832 548.119)
(165.722 -93.3357 367.926)
(135.313 -83.3119 327.442)
(144.992 -102.742 350.941)
(275.324 -177.239 667.729)
(221.244 -155.339 592.556)
(179.211 -116.245 396.955)
(158.216 -126.714 382.013)
(221.949 -181.74 488.116)
(268.51 -238.39 701.521)
(299.29 -218.229 715.961)
(243.524 -193.619 645.274)
(197.48 -144.96 435.442)
(176.172 -157.308 423.118)
(128.287 -154.784 378.373)
(243.326 -262.434 698.616)
(159.535 -172.897 421.075)
(222.373 -291.928 707.787)
(146.398 -192.858 429.253)
(183.764 -217.477 483.421)
(269.744 -318.275 756.227)
(160.981 -172.633 289.666)
(150.786 -189.165 295.359)
(130.358 -152.104 256.161)
(180.333 -210.31 389.599)
(269.948 -310.878 535.66)
(212.805 -266.841 458.951)
(226.578 -242.609 448.603)
(254.336 -229.688 556.865)
(295.062 -289.254 754)
(200.342 -197.235 479.422)
(232.593 -250.063 554.378)
(369.358 -363.735 816.266)
(293.506 -289.572 637.13)
(320.405 -343.654 794.313)
(247.719 -352.893 767.002)
(204.093 -313.212 593.033)
(171.143 -244.154 500.436)
(216.276 -277.224 566.341)
(311.204 -428.396 816.937)
(254.867 -351.559 660.109)
(294.169 -376.689 797.912)
(55.8296 13.9952 108.021)
(79.9738 25.0904 140.679)
(82.0414 33.858 144.75)
(59.5249 26.8819 119.684)
(108.796 67.026 285.921)
(158.423 80.7429 352.041)
(119.356 31.0135 283.571)
(118.015 37.798 381.684)
(47.772 13.1243 94.985)
(56.8513 20.8506 111.485)
(48.5245 19.5077 99.0402)
(64.2262 19.1573 153.099)
(65.126 27.776 158.269)
(74.911 20.3351 168.786)
(76.2636 29.3585 173.895)
(51.1537 24.0788 109.921)
(69.1956 22.2592 148.082)
(60.7965 12.1419 144.475)
(70.6698 43.623 181.512)
(66.4187 36.5958 164.728)
(77.8706 38.8612 179.959)
(82.3883 48.2185 192.766)
(78.3908 16.9821 137.142)
(107.431 34.3271 212.877)
(105.098 24.2511 206.853)
(65.7797 15.2885 121.723)
(67.106 22.7853 124.958)
(88.3062 21.9924 186.269)
(90.1509 31.5182 191.632)
(88.9817 41.2046 160.193)
(77.9112 32.4274 152.656)
(69.5614 30.2506 130.606)
(114.433 59.0249 227.171)
(96.474 53.2173 206.995)
(110.137 45.8051 219.514)
(92.1588 41.8799 197.67)
(85.69 26.9446 237.387)
(120.738 52.7123 392.876)
(87.1932 38.0413 244.466)
(141.267 40.7497 416.602)
(100.61 28.6538 258.363)
(102.758 40.2578 265.911)
(145.071 56.8412 429.336)
(91.7835 62.6907 263.915)
(157.436 95.9048 469.39)
(129.474 88.2257 426.082)
(124.527 69.0764 407.903)
(88.9834 49.9369 253.088)
(105.263 52.8356 275.316)
(150.444 74.6279 447.02)
(142.988 34.203 315.069)
(210.573 50.4117 523.45)
(171.187 44.8073 462.199)
(146.768 47.6043 324.648)
(217.728 70.6874 541.335)
(122.174 43.3176 291.897)
(176.445 62.6306 477.533)
(130.278 72.8281 314.228)
(151.897 62.5978 337.37)
(194.146 106.632 527.11)
(242.179 121.111 599.114)
(228.211 93.514 566.816)
(125.712 56.883 302.545)
(184.009 82.4976 499.432)
(18.2062 -16.3349 19.8529)
(82.9051 -69.2556 135.171)
(20.0273 -14.2829 16.4583)
(47.4397 -27.6725 63.3979)
(27.1289 -23.9474 29.2533)
(28.798 -25.5543 45.8609)
(27.1276 -27.5291 33.1216)
(40.2742 -40.3825 63.4045)
(6.54728 -6.10426 -0.916351)
(5.89641 -3.58039 -3.08982)
(17.1862 -12.6285 17.0641)
(9.63299 -5.06652 0.259487)
(10.005 -7.74364 2.76968)
(21.6049 -13.9216 21.1303)
(22.467 -17.9258 23.8634)
(14.2034 -14.8811 11.5037)
(21.9536 -24.8201 27.4476)
(10.1677 -12.3298 6.08689)
(19.5474 -20.3834 22.8319)
(7.7713 -8.99278 1.73475)
(11.4119 -10.9955 6.17433)
(24.1549 -22.4188 27.474)
(18.7668 -10.7075 12.7346)
(13.5847 -7.45995 5.54368)
(14.2622 -10.5751 8.53638)
(32.644 -19.2088 34.0097)
(26.3734 -16.1726 26.7171)
(27.6565 -20.676 29.7653)
(34.5809 -24.2506 37.9196)
(27.3463 -20.5899 41.7699)
(39.9738 -35.3686 79.8967)
(38.0683 -28.9608 74.0087)
(45.3093 -30.9064 81.943)
(32.8881 -22.0835 47.3941)
(34.4223 -27.4472 51.2896)
(47.6344 -37.8669 87.7194)
(22.7423 -18.5449 21.8013)
(42.8739 -36.9727 51.9466)
(33.8368 -31.6476 41.2511)
(19.628 -18.8396 19.2606)
(16.1535 -14.2653 12.8884)
(29.9866 -25.6793 34.4105)
(37.9091 -29.9706 43.7604)
(2.07524 2.48461 -19.8092)
(56.2209 6.17747 84.6516)
(15.0889 -3.99578 2.39335)
(15.9684 -0.549926 1.22213)
(26.9671 2.41801 26.4288)
(13.9621 -1.77178 -2.59205)
(55.4648 -7.31933 83.1687)
(0.286897 2.02183 -25.5525)
(32.5694 -6.24055 48.564)
(4.01556 0.831807 -9.39944)
(15.8142 -1.83726 0.306495)
(18.201 -7.678 9.87185)
(56.6988 -11.8826 85.6593)
(45.2216 -21.708 59.443)
(25.7169 -16.0847 36.9861)
(33.6588 -9.18456 52.2002)
(3.12927 1.78368 -14.2276)
(6.66272 1.09278 -13.8266)
(13.3232 -1.97854 -1.14471)
(7.75527 0.385792 -9.21657)
(13.8848 -3.80207 3.70956)
(17.3921 -2.61964 6.04062)
(18.2232 -4.6366 10.099)
(6.57756 -11.3841 -9.06653)
(11.6247 -1.31702 -6.09067)
(2.29893 -15.2548 -12.9205)
(-0.61421 -2.93228 -24.8799)
(3.46199 -2.11157 -19.9946)
(10.3777 -0.387458 -10.3485)
(14.7051 -0.258478 -1.81089)
(-1.00904 -0.328486 -28.0143)
(4.94909 0.734202 -18.7613)
(3.45667 -0.524399 -21.9529)
(11.8846 -1.6431 -5.79358)
(10.5271 -1.51984 -9.26324)
(14.7897 -1.64936 -0.756463)
(16.1093 -2.2689 2.07301)
(4.993 -1.30351 -5.71662)
(9.36172 -2.86971 -2.3157)
(8.76667 -0.675966 -5.30034)
(15.835 -9.20427 13.5278)
(14.5794 -5.93639 8.9763)
(19.4346 -6.99606 14.4526)
(20.6202 -10.3956 18.0741)
(26.0144 1.49061 18.7512)
(20.3965 0.504185 9.55824)
(10.7 -7.42943 -4.11944)
(12.1741 -0.873495 -4.8499)
(7.45984 -1.42352 -13.4078)
(18.9457 -0.00231219 7.65155)
(24.4452 0.207116 17.5565)
(12.401 -1.35025 -4.65894)
(9.32411 -0.565019 -11.1618)
(7.69551 -0.869389 -13.9907)
(18.9862 -1.85561 8.33775)
(25.8879 -3.69424 19.3595)
(20.3868 -2.96236 10.4431)
(24.4435 -2.11858 17.8495)
(11.1879 -0.341051 -7.41034)
(17.1256 -3.44703 3.47557)
(12.3697 -1.29816 -3.59322)
(27.5305 -4.85907 21.9868)
(21.8827 -3.55668 13.6384)
(22.9975 -5.99901 16.899)
(28.8953 -7.84517 24.5767)
(21.7094 2.08315 16.5691)
(39.4257 4.79268 60.3804)
(33.075 4.36556 48.9904)
(31.7759 1.08575 46.2966)
(20.4902 0.291826 14.976)
(25.5844 0.446297 24.8189)
(37.8501 1.34235 57.6763)
(31.5204 -3.12055 46.1556)
(21.6175 -4.17975 18.0794)
(20.4489 -2.58322 15.3948)
(25.4753 -2.53282 24.9435)
(38.8175 -6.41206 59.5089)
(26.6585 -4.4309 27.1919)
(37.6155 -3.01193 57.375)
(17.901 -5.03136 6.99859)
(13.4114 -4.91906 2.89765)
(13.2362 -2.61356 -0.00539029)
(24.4337 -8.69806 20.6543)
(31.2667 -14.7338 31.0982)
(25.4132 -12.2343 23.9046)
(30.2003 -10.804 28.1039)
(22.8773 -5.51038 22.0351)
(34.065 -13.4162 56.3234)
(23.4027 -8.43452 26.3867)
(39.8472 -9.64986 62.7685)
(27.8249 -5.95815 30.6759)
(28.5301 -9.22972 34.2909)
(40.4423 -14.2909 66.1733)
(36.334 -23.2539 67.7853)
(34.8723 -17.9887 61.7886)
(24.2406 -11.7992 31.752)
(29.8628 -12.8165 38.8487)
(43.3781 -24.782 76.3065)
(31.3813 -17.3062 43.2414)
(41.7141 -19.1781 70.9419)
(39.8288 3.67214 47.5488)
(32.6296 3.00268 36.7352)
(46.7955 5.35739 72.1147)
(31.0913 0.693698 35.019)
(54.3609 2.02255 81.8938)
(45.1176 1.63083 69.348)
(38.1357 0.933105 45.7049)
(30.9122 -2.52413 34.9)
(54.1006 -3.04473 81.3994)
(39.2681 -5.33508 46.9147)
(46.1481 -6.78461 70.8426)
(32.1968 -4.80871 36.7302)
(44.8656 -3.0058 68.9357)
(37.9259 -2.59633 45.3851)
(40.7134 -8.03519 49.4273)
(47.2569 -10.5644 73.6942)
(33.5004 -6.78167 39.6919)
(34.484 -10.5654 42.5756)
(58.0192 -17.4816 88.3206)
(48.1997 -15.6973 76.5521)
(42.025 -12.2685 51.832)
(37.5789 -19.1768 50.621)
(51.6176 -26.9045 86.1285)
(61.9312 -29.8471 97.807)
(36.1123 -14.5483 46.5527)
(59.668 -23.1894 92.7666)
(49.7696 -21.0029 80.9602)
(43.5678 -16.5403 55.6377)
(33.2916 -36.9902 56.1428)
(30.4782 -30.9387 50.1538)
(42.3645 -42.488 86.2663)
(45.9388 -50.7733 94.6829)
(55.4997 -55.3007 104.811)
(36.6743 -33.4609 56.2163)
(50.8542 -45.8556 94.9189)
(39.2031 -24.447 54.4807)
(54.0025 -33.7192 91.5695)
(65.1247 -37.5881 103.589)
(41.3351 -30.4528 58.7004)
(69.2843 -46.4444 111.239)
(57.1284 -41.5716 97.9155)
(50.3442 -34.4027 68.6617)
(60.7827 -51.4215 86.4199)
(49.1464 -45.1697 73.436)
(67.5242 -61.4166 118.205)
(44.441 -37.1686 64.8242)
(75.1088 -56.7302 121.642)
(61.4611 -50.5725 106.58)
(54.6747 -42.0798 76.2168)
(68.7228 -63.3216 99.4395)
(33.1519 -31.2403 38.8591)
(31.4109 -34.1489 41.0784)
(45.1866 -49.1734 73.1992)
(91.3117 -98.1325 135.282)
(61.2986 -70.8503 82.0162)
(48.4615 -67.6131 89.8749)
(29.8291 -43.0573 45.8455)
(18.3582 -20.1395 19.0466)
(25.4592 -30.421 34.2186)
(13.7349 -16.7378 12.6269)
(18.2251 -22.9766 21.4174)
(23.5847 -27.3701 28.9168)
(29.9047 -38.0449 43.3926)
(36.8585 -42.9885 51.5984)
(49.5283 -46.0969 62.5586)
(39.1885 -39.4108 50.4746)
(24.6298 -25.0591 27.7839)
(40.7492 -40.9991 50.7498)
(30.9092 -33.4471 38.6363)
(45.9986 -49.6424 62.322)
(57.9923 -58.0302 75.8242)
(23.5884 -31.5277 32.4727)
(37.5327 -50.2737 55.5577)
(29.9265 -37.1763 41.0756)
(42.0561 -62.0497 69.7769)
(35.3776 -48.3139 55.1895)
(43.6266 -54.764 64.8236)
(51.9811 -70.3911 80.8962)
(37.1581 -44.544 64.5255)
(50.7317 -61.1189 105.969)
(61.6855 -67.153 117.832)
(56.9288 -74.439 120.605)
(42.1496 -54.4979 75.638)
(51.4959 -60.6049 85.9367)
(69.5648 -82.2801 134.392)
(50.0305 -53.8976 65.0801)
(38.5341 -44.6129 51.904)
(47.7732 -59.44 67.589)
(54.408 -63.1148 77.0312)
(81.3316 -93.9497 111.539)
(64.8004 -80.8968 94.7285)
(68.4767 -73.6368 92.0181)
(55.4285 -55.3765 84.7654)
(92.8437 -84.9272 152.056)
(75.4377 -75.0375 133.062)
(63.4553 -68.5507 99.1381)
(105.241 -104.619 172.772)
(78.7781 -78.5529 115.614)
(85.38 -92.253 151.616)
(56.4177 -84.8624 107.552)
(64.7612 -91.6119 139.1)
(74.6572 -113.76 161.867)
(59.4677 -75.5272 101.92)
(91.7842 -126.305 179.983)
(69.4591 -94.983 121.462)
(79.4353 -101.587 154.965)
(106.681 -123.218 159.068)
(139.523 -161.057 228.534)
(120.571 -129.474 197.915)
(113.029 -141.857 201.914)
(97.7174 -114.052 174.385)
(85.9148 -107.636 138.476)
(73.4749 -85.5734 116.947)
(9.93163 -10.5263 16.881)
(-17.2407 16.1665 47.1959)
(-58.349 58.495 37.9454)
(0.382049 -1.79204 0.546848)
(28.5022 -32.8558 71.2308)
(1.17638 -2.2989 98.8839)
(17.8395 -25.4473 35.5006)
(-18.7053 20.12 80.1441)
(-51.343 50.8917 45.5814)
(-36.186 36.6015 14.8305)
(-48.8355 50.3935 48.007)
(-41.7663 42.0513 55.2985)
(-31.5208 31.1318 24.1268)
(-28.8709 30.2892 26.5644)
(-23.9705 24.1405 35.9195)
(-60.9922 59.5451 81.2033)
(-80.1282 80.3295 59.0949)
(-66.7398 67.132 23.9517)
(-16.6966 -188.637 114.806)
(-75.7385 90.2516 92.6651)
(-58.3765 62.1219 82.2536)
(-55.7566 54.1608 72.9523)
(-85.3163 83.1635 52.8898)
(-85.576 80.4267 90.1402)
(-96.0816 107.43 100.285)
(-102.133 106.041 26.9121)
(-66.0638 37.7813 1.48493)
(-62.2332 61.4899 30.4323)
(-10.3249 8.193 -24.896)
(3.91811 1.04897 -3.9285)
(-73.8163 75.2124 -13.6957)
(-23.826 22.8376 -33.8613)
(-24.1768 14.5609 -43.6734)
(-114.412 122.008 80.3545)
(-92.66 99.375 96.3227)
(-88.9877 105.434 96.8982)
(-106.915 111.531 79.8229)
(-104.944 116.085 80.6153)
(-85.3297 95.3517 93.1052)
(-98.176 104.482 81.0113)
(-58.5896 7.21623 -6.83359)
(-38.3031 -53.3792 33.4044)
(-34.8113 1.01918 -30.8823)
(-64.7118 46.9071 -20.7448)
(-40.8735 29.7255 -41.609)
(-35.792 17.3196 -37.5563)
(-39.3112 32.4701 -35.3995)
(-45.4491 43.9609 78.0251)
(-76.2821 74.7423 60.4069)
(-79.4532 72.4703 87.7508)
(-9.69274 8.91442 103.076)
(-34.5554 31.7973 76.6434)
(-39.8048 41.5808 85.1704)
(-44.7488 38.797 79.4586)
(3.81448 -0.440633 0.101809)
(4.81437 -5.114 7.94661)
(-42.6924 40.2152 56.4917)
(-66.2656 64.867 28.6343)
(-74.7183 77.3564 -0.128487)
(-25.3978 25.0636 -24.1437)
(-3.7908 2.18589 -6.89975)
(-90.2054 89.717 92.8274)
(-94.65 90.6384 81.9899)
(-101.315 100.655 80.703)
(-76.3317 74.9591 87.4111)
(-81.4281 84.4338 90.2211)
(-91.792 93.452 82.1507)
(-84.493 83.0423 83.1254)
(-116.482 120.398 54.5755)
(-97.9755 98.8309 37.6636)
(-108.637 110.859 60.7707)
(-95.8432 100.129 37.739)
(-107.439 113.314 61.5739)
(-99.6898 103.095 66.1756)
(-91.0425 91.9143 46.6521)
(-82.5634 99.5445 94.0348)
(-87.4645 95.6225 86.0025)
(-96.5963 106.8 82.7552)
(-70.7317 80.3988 89.4302)
(-78.1709 88.4297 91.2323)
(-89.5506 95.9244 83.5729)
(-79.6803 86.4671 86.405)
(-70.3581 61.8822 -26.2796)
(-71.1911 74.7625 0.120252)
(-70.8288 68.7657 -13.8591)
(-45.084 45.3858 -26.9532)
(-43.2271 39.8299 -35.4941)
(-40.719 39.9834 -27.1933)
(-42.3659 44.1337 -19.284)
(-60.4921 20.5227 -6.27881)
(-64.9592 55.0255 10.0979)
(-67.638 56.961 -10.9806)
(-30.7207 20.7167 -23.9747)
(-34.5287 21.5282 -34.353)
(-35.1763 31.4123 -26.7401)
(-31.1894 27.8097 -14.6815)
(-24.0875 20.0553 -39.6484)
(-11.3292 8.56661 -35.3411)
(-9.80522 9.79144 -28.8177)
(-6.38684 6.27441 -29.9342)
(-21.1148 13.8343 -38.9768)
(-19.5007 17.799 -34.282)
(-5.02327 7.13313 -24.3813)
(-86.6398 81.1693 83.5788)
(-70.0507 66.037 85.0011)
(-72.5841 64.1682 85.5761)
(-78.1392 70.8728 85.0795)
(-76.3369 72.6945 83.8889)
(-63.6462 57.1878 81.5665)
(-67.9168 61.856 83.2255)
(-88.5688 92.2522 75.279)
(-88.8874 91.1027 48.2314)
(-98.3799 103.732 68.3218)
(-90.8781 94.0624 72.0482)
(-73.609 73.4742 66.0201)
(-83.2217 83.3638 55.9097)
(-80.5178 84.2251 78.6938)
(-65.0812 70.9101 86.3257)
(-67.4149 68.4619 85.3088)
(-73.5186 77.9657 88.1121)
(-82.3481 85.1271 84.1595)
(-63.1113 66.3449 84.0964)
(-74.1669 74.6951 84.331)
(-71.8375 76.522 86.1866)
(-94.354 91.255 69.4419)
(-92.4803 90.9572 45.6732)
(-101.846 100.654 65.3415)
(-92.7142 92.7641 69.8389)
(-76.7067 74.9704 59.775)
(-84.5866 82.9309 73.5902)
(-84.716 83.5552 53.4339)
(-46.7018 47.8967 -19.1222)
(-74.3642 74.5578 10.5201)
(-71.1588 73.7443 11.582)
(-70.0802 70.0092 21.071)
(-47.4725 46.811 -12.1242)
(-44.0221 45.1284 -11.5055)
(-44.6185 43.7572 -3.30971)
(-63.0036 60.6261 21.4786)
(-67.7233 69.6245 14.7325)
(-68.074 67.3721 2.70834)
(-37.2523 36.9621 -17.9297)
(-35.3894 34.4776 3.82817)
(-39.4047 40.1751 -9.40897)
(-33.4345 32.0486 -5.03542)
(-24.547 24.2893 -28.7292)
(-8.95393 10.2805 -23.8623)
(-8.6504 9.43719 -20.5231)
(-19.9759 20.4727 -29.0292)
(-4.79748 7.06055 -17.5249)
(-21.4783 21.8179 -23.876)
(-4.54134 7.65229 -20.5381)
(-54.4026 64.8291 88.3151)
(13.3659 -2.15725 26.6404)
(21.0027 6.34013 4.76071)
(17.6818 -10.4968 19.9761)
(42.0681 -125.457 -38.3953)
(-153.352 -418.48 -2.43256)
(-15.5208 48.9982 50.6021)
(-60.4336 -78.5292 146.151)
(24.9039 -32.6839 19.1669)
(20.6417 -53.6731 24.6484)
(29.9372 -140.838 4.40143)
(29.5447 -60.1118 10.9996)
(8.04239 -221.274 -43.7962)
(15.6449 -94.2195 2.11711)
(21.0456 -15.7328 20.0491)
(-210.213 -514.09 -15.2387)
(-30.1226 -213.029 -17.1617)
(-130.658 -330.207 -0.885211)
(-53.1511 -336.151 -39.5825)
(-73.2804 -396.339 -93.0867)
(-19.549 -211.492 -33.0824)
(-54.9173 -191.373 80.827)
(16.6388 -10.0369 21.5213)
(16.5217 -9.13031 20.2562)
(17.1863 -12.2383 31.0075)
(16.2326 -9.28382 23.2842)
(18.6132 -6.82489 21.4188)
(11.4899 7.89736 17.5297)
(19.6107 -9.036 22.2988)
(26.7045 -20.4319 8.61997)
(38.7311 -202.213 -55.6739)
(20.7242 -28.3629 0.14774)
(30.8807 -106.475 -13.756)
(19.0478 -259.657 -84.1163)
(26.8299 -88.2898 -14.3135)
(24.9859 -24.5385 17.4606)
(-10.8389 24.4163 31.6588)
(-5.79849 -30.6985 22.5487)
(-70.2382 -38.7756 73.198)
(-11.0532 -3.85054 26.2814)
(-54.7011 77.2612 93.6572)
(-12.3312 34.6694 41.2277)
(-52.4208 38.8308 98.0552)
(-61.2324 -261.065 107.67)
(23.0494 -145.557 21.104)
(-9.68558 17.0268 46.6515)
(-72.2871 66.9375 107.418)
(-27.7011 -305.479 -56.2103)
(4.20197 -89.4329 17.7762)
(-48.2382 -14.1282 123.631)
(22.6397 2.16703 9.45657)
(10.8866 20.4855 13.173)
(12.3846 23.5769 20.0822)
(14.3693 5.47749 13.1122)
(19.578 -0.0916761 13.5878)
(9.18299 17.868 16.6655)
(21.3935 -5.38338 20.3982)
(-63.2157 86.9463 95.7939)
(-55.4907 83.2864 92.6534)
(-14.675 50.0461 54.8171)
(-10.783 32.6571 42.3983)
(-54.5114 83.7555 93.5681)
(-11.7513 42.8929 49.7912)
(-58.7214 78.6411 98.4975)
(26.8401 -142.055 -7.16449)
(-52.2516 -341.365 113.596)
(15.419 -6.85678 2.18749)
(22.8155 -42.8377 1.04239)
(39.141 -152.021 -25.474)
(71.7484 -222.971 -8.77777)
(86.0223 -239.181 -23.3933)
(20.4086 -5.94521 2.19092)
(46.0955 -111.117 -21.6763)
(39.4134 -96.8495 4.56061)
(-36.2916 -362.476 0.943409)
(48.6146 -170.067 -2.93283)
(65.6815 -275.826 -5.02684)
(-175.724 -433.643 132.57)
(51.0901 -244.274 -91.7945)
(-86.377 -304.393 119.037)
(16.0857 -8.09242 10.5528)
(23.1841 -31.5918 11.0809)
(34.998 -93.282 -6.92657)
(30.3527 -60.0976 -2.79981)
(30.5658 -45.6702 7.89108)
(47.0375 -114.674 -11.3147)
(19.2829 -11.8209 9.8725)
(32.218 -108.52 -17.5783)
(43.7077 -137.361 -17.1764)
(44.7199 -156.711 -13.9486)
(44.0956 -130.649 -20.4791)
(58.4995 -178.728 -13.948)
(58.497 -159.854 -20.0088)
(53.3412 -173.333 -26.2903)
(35.8636 -216.877 31.5873)
(21.6827 -217.018 48.0872)
(39.9488 -177.054 12.489)
(36.6541 -259.982 26.6363)
(49.4592 -202.038 13.1189)
(60.3048 -201.577 -6.90953)
(25.1087 -248.728 49.8941)
(48.7176 -147.023 -6.89175)
(40.7585 -196.319 -5.76018)
(43.3495 -215.944 9.73653)
(28.8563 -289.562 -15.6081)
(47.5125 -137.741 -10.9064)
(58.8791 -184.398 -18.6672)
(11.0545 -283.048 -54.4025)
(31.0101 -144.611 -21.2732)
(19.6211 -54.1648 -0.427893)
(23.6188 -74.0613 -8.67236)
(32.6253 -99.1513 -12.0761)
(39.816 -170.289 -8.42242)
(44.2343 -168.713 -22.6601)
(27.1438 -80.6801 -1.78559)
(4.11805 -290.796 76.2269)
(-69.7771 -385.365 115.972)
(-9.13158 -275.445 85.9368)
(-43.0335 -362.769 68.264)
(-102.368 -403.768 120.608)
(-176.533 -456.425 115.193)
(-26.1015 -324.739 82.4999)
(16.8902 -13.8676 4.5862)
(14.1655 -3.51042 2.07419)
(14.2991 -4.03059 6.33307)
(21.1506 -24.5729 2.58857)
(15.8918 -3.93549 2.11083)
(18.427 -13.2903 2.0086)
(16.2947 -4.90032 6.35163)
(-3.9393 -313.897 54.4951)