/*--------------------------------*- C++ -*----------------------------------*\
  =========                 |
  \\      /  F ield         | OpenFOAM: The Open Source CFD Toolbox
   \\    /   O peration     | Website:  https://openfoam.org
    \\  /    A nd           | Version:  9
     \\/     M anipulation  |
\*---------------------------------------------------------------------------*/
FoamFile
{
    format      ascii;
    class       volScalarField;
    location    "0.00085";
    object      rho.c4;
}
// * * * * * * * * * * * * * * * * * * * * * * * * * * * * * * * * * * * * * //

dimensions      [1 -3 0 0 0 0 0];

internalField   nonuniform List<scalar> 
7747
(
47.7261
46.4309
4.20986
62.2402
0.903919
46.6945
60.6471
62.572
0.930059
161.909
89.7924
0.333927
23.0979
67.5458
43.8104
28.1506
52.3218
2.02207
8.95601
55.6444
47.9394
33.3752
73.2141
56.9813
0.139161
0.496984
84.0112
61.0725
79.818
141.304
25.0619
141.151
194.935
153.272
0.0653654
69.4216
61.4533
2.12223
0.140312
74.5966
63.5617
0.264329
33.6127
23.4849
34.0063
36.2745
36.4801
43.5062
43.3465
76.0892
136.431
106.051
129.194
0.157019
74.2483
0.302897
24.9355
39.4591
35.7035
40.5519
37.6882
44.7367
47.9014
40.6996
45.1292
45.0855
52.1964
51.1208
52.8539
59.3876
29.3619
42.2821
51.2511
43.7941
53.0542
98.0404
81.9495
100.312
96.4356
79.8947
94.267
0.0182401
0.11701
5.5802e-05
60.0113
49.9195
70.1608
60.6977
58.7796
67.2825
75.8569
50.7011
50.8478
43.9867
49.9129
55.165
55.3539
49.7447
45.4251
131.911
80.5459
132.351
82.9102
137.491
156.005
52.3255
53.1603
46.6657
53.47
52.5428
58.0585
57.8132
46.8261
53.4552
53.6323
52.5684
52.6797
58.1913
58.0664
48.7849
52.1667
45.3433
51.2011
60.2242
56.6904
54.5837
48.1395
42.8864
43.0567
48.9669
53.3174
48.7772
53.5467
50.8443
54.423
53.5338
57.5882
56.5861
59.0447
62.238
47.0675
49.3286
44.1859
50.2117
57.9707
53.4199
54.7927
152.103
81.1429
97.2578
151.612
171.883
172.64
140.553
86.4628
147.875
102.348
150.504
167.615
167.978
140.857
77.4982
81.9708
82.2111
80.4742
80.5404
84.4155
85.2905
87.8426
129.023
91.8599
125.719
89.4428
134.099
91.2512
54.1668
68.0519
61.1493
65.6451
59.832
66.6362
72.2792
62.4941
55.9062
62.7359
67.9508
61.5027
67.2514
73.6873
51.6325
62.8249
57.6878
62.7409
58.4097
64.9325
65.5159
157.657
164.461
137.483
164.395
165.051
172.149
162.04
150.854
156.14
138.272
161.573
160.417
167.244
159.091
87.0518
85.8228
84.4416
90.9142
92.1794
89.568
95.5716
31.0395
69.9337
65.0873
72.3477
0.991781
79.8408
12.0057
78.196
75.9224
69.3447
74.3822
21.5309
79.7671
82.4546
171.4
185.993
183.962
189.451
181.047
182.959
170.711
60.3036
61.784
57.0405
60.7844
57.2046
61.9008
5.10202
58.2505
41.1534
62.2915
62.5677
58.5754
62.5361
49.2838
60.8715
57.2415
57.3151
61.9998
4.44381
61.9765
5.188
62.7182
58.5512
58.7324
62.6634
43.3077
50.0506
62.5001
54.5057
58.9374
7.58424
57.8843
59.1921
54.2983
58.2052
55.8112
44.5783
4.69311
63.9342
60.558
59.2174
59.3982
58.1765
30.7421
61.204
2.75765
62.8882
65.7661
1.18825
59.5051
66.9336
62.7554
28.5599
63.4417
66.7375
14.5308
92.4557
135.28
91.9572
116.911
136.96
92.5568
14.5421
129.234
88.5969
88.6397
68.6531
134.726
91.2661
8.23912
94.5042
58.4292
44.1768
97.6292
98.6404
21.1836
0.462802
86.0192
87.699
85.1029
87.4493
3.80882
7.93292
89.4532
170.893
58.9413
20.6614
45.3951
175.02
177.33
164.039
83.5697
84.4918
82.5151
86.5282
1.74492
4.24543
88.0161
14.1821
53.6158
64.3503
70.9068
0.370352
12.3637
3.04559
71.9839
10.2078
65.9791
39.9197
0.241873
9.25037
0.294806
54.5091
72.3025
67.9599
71.8204
2.84588
28.9524
5.17218
3.99252
3.24848
2.0573
3.09976
2.20628
13.3727
9.75643
12.8925
5.10548
3.91966
3.82502
2.70422
8.6643
13.3578
5.83263
10.4022
1.81639
2.25707
1.99461
3.33397
3.54416
3.751
3.14411
2.91675
3.15433
3.32191
4.34359
4.63504
4.53056
4.76847
2.64646
2.85369
2.33476
3.73565
4.9206
4.20275
4.38728
1.88256
2.36335
2.05019
3.3281
3.48211
3.15326
3.64742
4.08742
3.327
3.64836
5.59323
4.94258
5.06204
5.55079
3.82448
3.33208
3.39355
4.54354
4.43566
4.49336
4.55584
3.83452
3.87475
3.54977
4.66801
4.85738
5.01058
4.64603
2.83573
2.66485
2.36319
3.70465
4.63649
4.32226
4.01812
5.38458
5.72317
10.1134
8.82276
9.17193
5.9742
5.14884
6.52377
10.6609
9.53807
6.56275
6.71726
6.67161
9.66252
5.99368
7.79934
11.2164
12.2985
10.2337
6.62929
7.07628
8.6939
9.39588
5.50702
5.32862
9.74866
9.03509
5.7265
8.2968
11.5536
7.27298
7.01549
11.2566
10.1691
7.6913
7.87647
8.39323
6.01958
6.07776
7.91552
8.45637
5.85836
6.29716
6.33742
9.40813
8.13187
8.74858
6.75921
5.99849
5.90368
7.37641
12.0275
10.8044
10.0516
6.93266
6.30567
6.23606
8.81389
9.06061
4.23047
4.65572
17.1764
42.3643
9.63948
16.3778
4.03413
8.26542
3.7218
50.1328
17.0084
44.7931
8.61524
4.6502
5.63648
5.42701
6.5718
6.29115
7.3851
8.04788
3.54438
5.0763
4.4918
5.97434
5.37268
6.91582
7.59737
4.24406
4.6272
4.82295
5.2586
5.55529
6.37059
5.91655
3.47259
4.62075
4.36388
5.60797
5.26869
6.75285
7.13242
6.79425
5.26584
5.64477
7.54278
8.36454
9.15978
6.91713
6.53502
8.14682
5.87524
9.4537
14.8168
13.9066
10.2204
8.03109
7.02906
6.52308
8.95356
13.9735
11.1835
10.3102
6.96519
10.571
7.53957
8.71708
11.2018
12.4019
7.97437
9.9526
13.0945
8.79928
10.4864
21.2274
15.9633
12.5608
7.9027
5.99144
5.70242
9.1721
14.2056
13.478
9.65205
9.66562
15.7017
8.83012
11.7135
23.0176
21.2768
12.6753
15.3112
9.14899
16.4248
11.3935
22.3794
20.7425
12.1114
10.4111
11.6455
19.5363
13.5657
15.1799
12.862
9.47327
13.0059
23.6278
27.7013
29.1718
20.4315
16.8595
16.7283
16.6592
27.1497
33.185
45.6335
30.8141
25.4875
17.8558
16.1868
26.49
43.215
31.9585
29.9052
24.7242
17.2376
0.341489
0.288121
0.301542
1.33675
1.19915
3.4837
2.52666
3.40455
1.42903
0.235281
0.25049
0.223544
1.9331
1.0048
2.04367
1.244
0.298606
0.514779
0.503948
0.351635
0.679471
0.641438
0.375121
0.221912
0.22788
0.225221
0.266374
0.256602
0.268005
0.280273
0.309851
0.616977
0.541576
0.782385
0.595013
1.02711
0.441398
2.65
2.64223
1.1807
1.44242
2.84008
1.40706
2.84406
0.231385
0.228771
0.225077
0.301738
0.266837
0.28049
0.324795
0.231127
0.261305
0.237884
0.300447
0.422796
0.320463
0.383996
0.245942
0.257292
0.235669
0.31811
0.547832
0.41339
0.384682
1.24466
2.70961
2.67298
1.53195
2.88735
1.69586
2.85965
0.430209
0.889192
0.394179
0.440161
1.15129
1.02129
0.483208
0.608637
1.18525
1.60255
1.9462
2.09577
1.07612
0.691393
1.42955
1.37918
2.89675
1.94128
2.42363
1.83759
0.922177
1.88949
3.08439
3.39981
2.4732
2.54328
1.83266
3.08299
0.568251
0.980727
1.43667
1.70101
1.27747
0.63893
0.860873
0.570259
0.969872
0.427514
0.481048
1.37768
1.10331
0.662343
2.03012
3.14215
2.95902
3.42175
2.70756
2.24721
3.09979
0.633481
1.18265
1.7533
1.64275
1.34607
0.932637
0.860808
0.392463
1.04187
0.264353
0.768136
2.53305
1.72355
5.79085
4.52521
0.251626
0.362887
0.399248
0.409826
0.463941
0.777236
0.877428
0.300035
0.748616
0.510444
0.884803
0.60551
1.07964
1.40775
1.47617
0.854852
1.58806
2.25095
1.40353
1.5245
2.35896
0.925295
1.86279
1.03935
2.39102
1.47748
1.60733
2.52363
1.81267
1.35112
2.12928
1.76275
2.94991
2.10275
2.5882
1.62213
2.1385
1.26081
1.85572
3.20932
2.79539
2.22543
3.20518
3.26359
2.23117
2.35098
4.67124
3.38403
3.31694
2.6038
4.04482
4.16111
5.05708
3.67214
2.98528
3.58294
2.42591
2.75392
14.6489
11.8574
49.5148
29.3953
9.35482
7.91776
2.52835
3.76503
3.34845
3.87365
3.45469
5.36968
5.22941
3.11081
4.66848
4.15706
4.17638
3.71674
5.77403
6.56249
18.0932
6.35655
9.34769
12.082
6.50359
9.55274
18.4541
12.9824
4.68239
7.18571
7.40609
4.82141
8.12657
13.33
7.84765
12.8886
6.94983
10.2517
22.8228
11.7492
19.7949
5.9265
8.05257
5.19859
8.77099
17.0687
14.4969
10.1081
14.8967
43.3934
25.6276
15.2389
43.7452
26.273
29.9751
16.4542
36.6263
45.5257
33.3549
28.5043
19.1662
32.0958
2.41906
0.402903
0.468117
3.1269
1.50632
4.89774
6.42883
3.62075
3.26054
1.85261
1.93904
0.310757
5.98133
2.65465
5.35341
2.56006
0.816954
0.834674
1.28312
1.02364
1.49817
2.12967
1.72117
0.337448
0.582032
0.507001
0.718757
0.62598
1.11983
1.28497
0.328677
0.724712
0.548711
0.903188
0.682169
1.16539
1.39353
2.75741
2.828
1.7901
2.94454
1.96104
2.30647
3.04537
1.54753
2.68833
1.95473
2.8175
3.44574
3.52578
2.56629
1.67862
1.1447
0.990031
1.79339
2.95416
2.0523
2.60076
2.01851
3.46019
2.41569
3.06131
4.06895
4.08617
2.83007
1.524
2.31906
1.33612
1.99164
3.51913
3.08334
2.27864
2.60465
2.94209
2.15996
2.72719
3.49042
3.25694
3.21433
3.21851
3.29706
2.55365
2.94722
3.86047
3.7567
3.37017
1.23794
1.67049
1.0298
1.78823
2.68767
2.52562
1.98759
1.64098
2.31635
1.38262
1.98997
3.21763
3.00885
2.21675
3.73557
4.70797
5.98426
5.0751
4.88658
4.55602
3.69341
2.79416
4.24578
4.57683
5.35604
4.04663
3.18033
3.76413
3.44655
4.04253
5.20738
4.26487
4.37197
4.09509
3.62795
2.72191
3.78326
5.15243
4.10556
3.91049
3.62421
2.90034
49.1821
69.216
51.7972
9.62118
25.5041
51.8112
32.4395
7.08479
25.4449
32.5894
52.1315
68.8268
48.2442
14.9795
7.70166
27.7448
37.0177
53.2965
17.5962
7.15204
12.5048
6.91354
9.33238
12.1169
17.0917
6.8983
9.55299
9.32017
12.3686
12.0885
17.0684
17.4623
0.0656098
70.8259
73.1429
88.8358
56.9003
77.205
81.7967
71.5561
89.596
0.0403586
72.5453
75.9754
64.0351
51.3051
8.977
10.4152
12.2937
13.5047
16.0257
19.0968
22.7692
11.1985
21.2326
15.6189
27.9183
20.5112
29.026
38.1543
41.3601
14.7036
27.5702
24.9155
14.3112
26.9582
41.26
24.9213
14.6379
14.3057
26.9605
41.5358
27.4886
41.3809
46.5434
60.8097
95.7305
35.0422
100.853
32.2044
38.7782
34.2632
9.28216
7.98878
19.4495
46.5264
16.0347
42.649
9.78393
4.36914
11.6799
21.3573
20.3794
51.7679
75.9457
48.955
14.8407
10.3951
58.2408
23.1088
65.108
50.6405
8.15865
9.50361
9.6796
15.58
15.875
18.653
18.3708
16.8618
7.64337
12.2961
23.1302
35.394
94.5874
142.665
64.3411
12.9811
12.4051
41.4633
42.3209
120.786
80.8178
8.56452
11.1468
10.1787
17.8786
16.5953
19.4822
21.124
5.41285
5.48178
6.65968
6.87803
8.50485
8.67903
11.3991
12.1129
12.7032
19.7872
15.1373
22.6661
23.7088
27.515
68.1782
56.256
14.8884
49.7392
84.0737
85.3311
0.0521694
11.94
16.306
12.1398
22.9122
28.7334
29.0126
22.6245
7.03708
13.1621
9.1502
17.3753
11.656
16.1086
24.4671
8.36071
9.60685
10.4931
10.4084
11.4034
14.7547
13.346
14.2018
17.2903
12.8059
23.9252
32.9207
30.2183
26.0776
7.47557
15.6598
9.68699
21.4548
12.7807
17.3283
29.6602
10.0913
18.0072
13.1327
20.1913
14.5589
20.1428
30.9549
11.1164
27.7126
14.8769
28.5028
15.335
20.8668
37.4552
19.3655
25.5773
19.0716
33.4107
27.0534
33.0357
40.5083
12.2987
21.0542
20.2228
23.3684
22.2274
37.7163
39.2489
11.9004
20.3734
19.5219
22.7195
21.518
36.5301
38.7377
32.417
25.8349
26.1076
28.7517
34.5184
28.5455
34.6872
16.5352
28.7585
20.2573
37.1297
29.5014
34.3901
42.6568
33.0554
28.1283
26.8296
29.5015
37.0018
35.4014
31.076
19.0115
12.4009
13.6209
20.4191
26.3978
31.0569
17.9854
14.8296
26.9547
16.6038
22.863
33.938
40.4852
19.9042
20.7302
24.7434
27.955
35.1206
39.7548
46.9015
61.3557
88.4915
93.5128
33.3207
6.50441
53.5662
5.90643
7.24087
19.3769
35.6229
6.2617
7.07991
19.18
35.3939
6.18206
32.4019
28.6371
6.17373
5.84504
32.3861
28.4968
53.745
8.53654
13.2723
6.41527
7.66653
20.1198
38.3774
12.976
42.4044
12.1225
6.84472
6.3811
34.8571
29.9658
5.54344
5.90593
5.28528
9.02618
10.4783
10.0497
9.42175
7.13894
6.87186
7.01712
10.3188
11.4243
11.0135
10.6228
6.87206
7.11962
7.00133
10.3061
11.3312
10.4695
11.0274
5.9139
5.49997
5.27789
9.01381
10.4311
10.0645
9.32691
6.68554
6.31182
6.49323
9.10221
8.761
8.53007
9.34447
6.23373
6.52812
6.45716
9.06491
8.53111
9.15818
8.46464
5.66405
5.42545
5.22595
8.88465
9.92612
9.16418
9.67153
110.095
44.6812
100.876
44.6267
91.2306
10.1387
17.7137
70.6794
72.0793
66.9112
71.8473
18.2037
57.2635
17.258
5.47394
5.67954
5.23639
8.90322
10.0517
9.6983
9.26946
7.50618
8.75125
8.25168
12.3098
11.072
12.3071
14.2682
6.09126
8.02767
7.15705
11.5595
10.345
12.3676
13.7608
6.779
6.77723
7.28017
8.79281
9.51524
10.2653
9.39164
5.97241
7.42079
6.97787
10.8817
10.1133
12.0403
12.9124
9.375
7.45332
8.11828
11.5585
12.1711
13.5816
10.4644
11.749
9.91725
8.89085
15.7341
23.4867
21.2665
17.4382
11.2958
10.5028
9.45742
14.363
22.7667
17.5721
17.5187
11.3859
9.1739
8.63538
15.3009
22.3955
20.723
16.4345
13.3202
12.4307
22.0703
18.9214
21.5134
12.136
13.6544
16.2158
19.7782
28.7128
34.5156
27.9161
19.0838
16.679
13.299
18.9431
12.2178
21.8503
13.4524
21.5404
12.0985
16.2274
34.5808
19.613
28.4616
16.4971
27.9591
19.1152
16.4117
19.0413
27.8975
31.6419
18.3157
27.2967
17.0857
16.3815
31.7307
18.9144
27.7564
18.3342
16.8816
27.3037
16.301
18.531
27.1508
28.269
26.6447
17.9344
16.9279
16.2577
28.2677
18.2929
26.9758
16.7005
26.6304
17.8835
12.6787
23.0481
14.0459
15.3543
22.3346
25.7814
13.7257
11.1888
12.4404
13.8364
14.7562
16.6677
21.5638
18.7565
14.064
25.1239
18.3012
31.3769
22.6
30.7613
45.5771
21.3815
30.4026
17.536
19.7748
44.5913
34.6807
25.0969
20.9343
29.6903
18.7112
22.4778
39.6767
25.0763
33.4168
16.6838
27.5902
25.4981
33.6994
30.7692
45.4326
50.5545
16.1646
26.5541
24.7196
32.0528
29.888
43.2887
45.103
17.6876
38.9451
18.7431
26.4315
21.547
30.7377
15.6103
19.9783
28.6485
18.4043
21.9347
33.1025
32.0055
23.5681
3.67531
2.76196
9.3237
7.50863
7.57365
6.63982
25.0747
28.5587
2.90829
3.54824
3.68624
4.18576
4.35746
5.55683
5.35448
3.20837
4.58639
4.0155
5.50045
4.77198
6.08085
7.05477
7.03878
12.1298
4.71873
7.2833
4.88187
7.78697
12.5595
6.12082
7.96443
5.31112
8.55547
16.5994
10.09
13.8601
6.89094
11.5984
12.0297
16.1204
8.84255
9.18006
16.7393
8.88649
15.8989
13.3101
10.133
22.3126
18.5724
12.0398
13.3231
38.5741
22.7925
13.8298
39.219
25.9487
23.6174
35.5953
26.9064
41.6237
38.1613
48.5797
50.4958
58.7013
22.4116
32.6026
22.9841
30.6271
38.5671
30.2114
38.5465
22.7802
32.4904
22.3747
30.2351
38.6959
30.5706
38.6496
16.0035
32.8813
19.0751
43.3491
29.8046
34.6978
47.4625
20.2288
22.5945
13.4492
25.0646
60.7275
38.7881
43.0159
36.0487
29.9728
32.659
39.5558
33.4818
37.0471
43.3417
32.9137
38.2857
50.5939
30.3891
59.0184
48.583
45.191
46.1604
44.1044
38.2623
28.3796
41.8774
36.5632
31.84
42.0778
66.4882
54.1601
23.6402
41.2854
29.8583
31.3426
37.3871
21.3324
24.7129
15.845
17.9002
29.8819
25.414
41.5018
26.1493
45.8556
33.5472
31.3179
18.3946
15.3241
28.4091
33.868
24.5928
40.0015
32.4506
36.5158
43.3057
33.2152
38.6875
21.5177
30.9054
45.9586
49.5019
60.1048
27.7996
28.2877
18.3185
29.9143
83.2942
47.9548
49.8536
40.8206
39.5022
23.8007
32.8043
59.1598
49.7243
50.1825
47.9471
48.8945
35.2043
37.0191
26.1793
40.9563
49.6836
23.0484
39.9914
64.256
33.7563
97.0451
61.2275
55.5833
43.7353
36.5294
36.5258
37.6523
29.1013
27.4783
34.9673
62.8075
72.0579
52.1459
23.8759
27.8697
38.3269
32.4494
32.3712
37.961
42.841
37.1364
37.3146
32.2063
38.1374
62.5271
36.3749
35.3213
63.7239
105.069
67.3765
84.2273
43.7981
61.5586
73.3518
63.9703
93.9711
71.3125
71.3559
67.0747
36.6933
58.9981
37.7104
25.0892
44.2557
68.702
33.8108
41.1409
24.6076
42.0279
60.6709
50.9981
53.319
59.2856
35.901
34.1094
59.7148
73.7197
74.6542
60.7929
0.606098
39.4944
91.4126
0.00125378
1.53374
1.60691
96.6781
33.2379
41.2102
40.8761
43.9073
38.3506
39.0457
35.291
34.5464
47.7561
54.8183
109.037
65.9789
57.7713
29.1305
40.0266
56.6344
56.4926
59.158
66.1728
65.8683
59.5788
70.6784
93.1956
80.0948
56.8477
39.6941
55.5598
78.4636
91.5071
63.6995
71.7027
44.4181
41.4643
61.0321
72.7213
41.6666
41.9075
34.2167
42.2774
55.1077
49.3192
48.4176
42.4856
55.4121
48.9528
42.9704
36.6835
42.1663
48.6853
32.7049
78.3836
55.389
75.2761
59.1539
75.8289
85.1276
97.3033
116.246
120.616
85.4016
73.3461
56.2622
47.2816
57.2271
60.0818
42.5599
66.2664
59.3591
40.0968
56.7421
58.802
62.16
51.1767
55.0928
46.5766
55.726
69.0391
45.917
71.2923
68.0339
67.351
58.7594
60.5843
61.3336
44.6357
44.8379
38.5505
43.0871
56.093
50.1123
49.3268
43.7533
79.1061
59.6778
77.6242
67.0014
76.2436
84.7997
61.1405
68.8088
61.3378
70.5411
64.4313
72.6849
77.7212
58.9917
53.961
49.486
50.9468
45.0798
44.0437
52.8862
12.8478
63.7666
87.4058
14.0849
79.8318
93.173
78.1623
64.68
18.6789
24.1911
22.9923
36.3762
35.1062
44.2218
62.3466
50.8566
29.7687
56.9969
80.076
56.0944
78.8167
88.9347
46.7782
73.5001
63.0234
72.1759
65.3265
75.5372
80.7443
43.3652
75.1136
61.9307
73.0299
65.5723
76.1978
81.3962
47.9443
40.0376
45.3409
40.0645
52.0417
45.4917
48.2071
40.2007
52.2133
48.265
45.5987
40.2301
45.6433
48.3903
49.4462
46.8145
41.6499
45.2045
56.7276
50.21
52.8761
70.7432
67.6706
59.5795
58.1585
47.3851
59.7943
67.8574
62.0761
65.2577
50.3234
78.8541
73.6869
62.3105
69.9658
62.736
47.106
61.8031
68.7796
60.061
69.322
77.2621
52.984
131.894
127.225
137.197
97.8543
88.8608
89.7031
61.7183
51.0521
60.6422
68.2247
59.6741
68.1168
76.5253
58.8627
55.8287
49.8873
62.828
57.5878
66.2769
70.8001
125.833
120.82
106.992
117.108
111.036
80.6237
100.788
49.7061
63.0461
56.0284
63.6556
57.7672
65.5118
70.132
56.6507
62.8324
69.8935
49.1672
62.9249
57.0202
55.5445
78.2739
118.897
109.039
84.2642
101.283
78.6278
84.67
50.7309
65.3478
62.4719
62.2968
57.7698
55.656
58.4171
70.5662
77.7875
74.247
79.5015
73.4429
77.4619
70.2579
96.1218
79.9269
91.8304
93.5892
97.6914
97.8659
101.395
91.3921
96.0202
92.9155
82.9555
88.9262
77.1676
84.8459
88.4558
96.1992
92.0586
89.3386
84.2113
78.476
85.3639
88.7755
89.3058
78.7241
85.4754
98.4996
92.3984
92.6626
80.4959
77.0499
71.955
81.3569
91.0579
85.0934
88.6264
82.3593
73.382
66.4266
72.0227
93.7734
64.2987
81.4915
65.072
74.0828
67.0517
71.1066
62.837
69.5255
61.5626
80.2389
90.2967
85.5504
80.8325
70.8843
77.1137
84.6871
81.6048
86.2359
82.3821
92.4489
73.0877
78.2797
85.2851
81.9872
78.7111
74.3266
81.5402
89.5632
85.1936
88.53
2.43352
0.301908
2.33606
0.27309
2.27503
2.26749
0.591995
0.443016
1.12996
1.01983
2.40871
2.35344
1.02777
1.0797
2.32576
0.55524
0.44636
0.274796
0.271677
0.453771
0.270158
0.462611
1.07357
2.41957
1.07131
2.37762
1.39004
1.23578
2.33732
0.578083
0.277369
0.575887
0.272602
0.629652
0.273055
0.587029
1.20462
2.22629
1.06575
1.07232
2.34642
1.38956
2.2872
0.982325
2.25394
1.0456
1.11541
2.29265
1.01269
2.2691
0.599016
0.271106
0.268493
0.582025
0.271865
0.63535
0.271788
0.462518
0.298481
0.268879
0.557919
0.270152
0.452874
0.268593
0.26652
0.276048
0.265977
0.272038
0.264096
0.274029
0.270487
0.334528
0.595088
0.353165
0.593544
0.346528
0.586619
0.346454
0.355537
0.57597
0.334713
0.569072
0.584851
0.346298
0.344373
0.301733
0.272517
0.273377
0.302385
0.27313
0.296663
0.299729
0.297614
0.270013
0.30029
0.267264
0.272539
0.285354
0.296708
0.284718
0.268095
0.273144
0.267828
0.273087
0.276293
0.273314
1.62239
1.19641
1.04809
1.50967
1.54974
1.15931
1.59399
1.62328
1.50828
1.1953
1.04729
1.59486
1.16113
1.54798
2.12766
2.44971
2.13908
2.44679
2.11309
2.11189
2.53653
1.73965
1.3149
1.31433
1.9025
1.78543
1.26426
1.78451
0.313078
0.583312
0.318008
0.585258
0.327819
0.576663
0.306797
0.270302
0.274051
0.273888
0.286717
0.27836
0.272165
0.27793
0.312895
0.317791
0.581999
0.585006
0.306545
0.576813
0.327753
0.268875
0.275012
0.264271
0.274993
0.26639
0.266407
0.276852
0.303098
0.590853
0.589994
0.303898
0.301794
0.571572
0.301889
0.266521
0.266019
0.276033
0.272031
0.270479
0.264117
0.274028
0.331836
0.585166
0.352854
0.585179
0.344819
0.572765
0.344225
1.58092
1.0397
1.46864
1.19497
1.49863
1.55868
1.15527
1.59748
1.04165
1.19597
1.49913
1.58355
1.52368
1.15491
2.0704
2.38102
2.12276
2.41111
2.0639
2.09357
2.46075
1.70939
1.31134
1.31291
1.88911
1.75522
1.77297
1.26334
0.31408
0.606144
0.319286
0.603627
0.329348
0.307538
0.595845
0.269049
0.284768
0.268403
0.269379
0.277018
0.277435
0.267846
0.263941
0.262992
0.270737
0.268089
0.267534
0.261292
0.269595
0.31351
0.59584
0.58775
0.318164
0.306675
0.588803
0.328593
0.265791
0.272231
0.263709
0.273658
0.263965
0.265335
0.273328
0.302849
0.604043
0.595175
0.30417
0.30176
0.301698
0.5853
0.264837
0.272747
0.265221
0.270627
0.263129
0.268714
0.270854
0.299217
0.29823
0.266459
0.269486
0.295909
0.294674
0.268415
0.35515
0.572025
0.577914
0.335114
0.344998
0.584464
0.346432
0.29537
0.267168
0.299338
0.265499
0.284777
0.29445
0.269581
0.283829
0.26966
0.267454
0.266027
0.272909
0.275604
0.269648
2.00769
1.69385
0.70798
0.470923
5.04012
4.24898
10.1662
6.32785
0.497739
0.696107
0.754714
1.12526
1.19165
1.63213
1.54268
0.566021
1.11425
0.887215
1.5663
1.3261
1.81768
2.10652
0.243199
1.42571
0.212223
0.863705
0.323139
0.266988
0.231299
0.237145
0.239731
0.251756
0.250618
0.247292
0.245086
0.212948
0.218464
0.219376
0.245698
0.248942
0.232845
0.241063
0.205821
0.203285
0.272504
0.214649
0.21479
0.227468
0.322097
0.336743
0.2252
0.20929
0.231844
0.224369
0.208963
0.241604
0.251199
0.206608
0.287394
0.216417
0.223554
0.234313
0.466736
0.37524
0.25477
0.221817
0.2056
0.21234
0.217402
0.348671
0.279373
0.234705
0.269837
0.948245
0.379527
0.474469
0.415286
0.520131
0.260756
0.296036
0.740733
1.12548
0.848545
0.51911
0.628848
0.366217
1.11183
1.79574
1.19178
2.21863
2.82671
2.92634
2.12124
2.28743
4.36553
2.37574
2.94183
5.07795
5.19961
2.84674
1.36825
2.32697
1.66237
2.42503
3.53583
3.1584
2.74552
2.86778
4.62082
2.5634
3.16384
6.05443
5.50575
3.53371
0.488715
0.380161
0.360385
2.74947
0.326437
3.22446
4.34166
3.65644
0.322168
0.313839
0.316192
0.580384
0.592546
0.637205
0.617901
0.340502
0.337232
0.323243
0.69338
0.624646
0.682887
0.771458
0.392913
0.348456
0.341232
0.725833
0.845097
0.891562
0.695824
0.422633
0.399597
0.36527
0.791487
1.1775
0.992083
0.915317
1.27609
2.82192
1.31224
1.4328
2.92144
1.38153
3.01131
1.56491
2.97043
1.40038
1.5434
3.46947
3.18574
1.72899
1.63677
1.86184
3.22097
3.76797
1.94266
1.57031
3.32304
1.76895
2.36438
3.83721
3.99141
2.10507
3.52195
1.98722
0.245106
0.249734
0.242485
0.269804
0.262219
0.258322
0.241199
0.246057
0.26247
0.256779
0.255635
0.253566
0.260823
0.260346
0.255013
0.260662
0.261842
0.249641
0.252673
0.254461
0.252048
0.259801
0.246651
0.254753
0.253484
0.249886
0.258569
0.257712
0.251372
0.240809
0.239842
0.239668
0.230673
0.228407
0.223708
0.226132
0.237349
0.249821
0.252075
0.254462
0.244306
0.247892
0.256601
0.243544
0.242312
0.24036
0.216802
0.220602
0.224784
0.220323
0.251376
0.244802
0.244295
0.215805
0.21701
0.218915
0.220753
0.256248
0.252446
0.246628
0.214376
0.215041
0.214694
0.21621
2.27965
0.441719
2.23791
0.304966
2.21669
2.24006
0.462913
0.440847
0.438725
0.306447
0.439973
0.295245
0.439572
0.438606
0.303996
1.03713
2.16886
1.0949
0.969802
2.16892
0.986083
2.20349
0.567771
0.268251
0.264588
0.441649
0.263823
0.452012
0.29541
0.440483
0.443055
0.309488
0.307722
0.297881
0.439316
0.305934
0.354262
0.579737
0.335479
0.582428
0.34372
0.588178
0.347032
0.296769
0.297572
0.267816
0.264744
0.294244
0.265744
0.293331
0.281734
0.264694
0.266659
0.260839
0.269816
0.265828
0.27405
0.292092
0.259533
0.293513
0.261781
0.28054
0.290183
0.264811
0.440458
0.308416
0.307845
0.441882
0.31119
0.43964
0.308318
0.948126
2.23788
0.954616
2.21784
0.977561
0.950097
2.21622
2.21804
0.954487
0.955725
0.952033
2.18509
0.956891
2.21269
2.25499
0.963459
0.955116
2.2529
0.951054
0.948029
2.22831
2.32123
0.249824
0.448216
2.27639
0.443298
1.1486
0.291599
1.08128
0.299135
0.254133
0.251265
0.246036
0.218108
0.236991
0.222006
0.220325
0.443151
0.30442
0.304371
0.454069
0.306693
0.453879
0.307052
0.255762
0.254021
0.256177
0.251368
0.252908
0.251949
0.252811
0.444778
0.304735
0.304997
0.459781
0.309737
0.45556
0.308631
0.252428
0.248762
0.251579
0.250993
0.248073
0.24979
0.251592
2.26203
0.968696
0.966947
0.993137
2.31456
0.98946
2.32651
0.253399
0.25089
0.249461
0.249178
0.249451
0.250676
0.248365
0.305639
0.467324
0.465221
0.461804
0.315934
0.46261
0.31463
0.24437
0.241432
0.248976
0.250685
0.256511
0.254738
0.253108
2.29386
0.988821
0.974635
2.37674
1.01796
1.00199
2.34596
0.246737
0.249098
0.248195
0.245463
0.243863
0.247575
0.24708
0.291326
0.493667
0.473088
0.462471
0.303788
0.462035
0.311836
2.50518
2.49507
1.07094
1.02403
2.38738
1.01834
2.39893
0.225884
0.223107
0.229227
0.245863
0.241361
0.246934
0.251803
0.22525
0.230044
0.237216
0.247161
0.246445
0.249696
0.244039
1.10384
2.56909
2.52751
2.45944
1.06032
1.03648
2.42097
0.214908
0.218396
0.221742
0.236919
0.225588
0.243602
0.239615
0.25574
0.258532
0.257303
0.250048
0.271842
0.262633
0.269431
0.263784
0.264053
0.257947
0.260985
0.259578
0.259454
0.260444
0.264541
0.269171
0.272896
0.27179
0.268871
0.265226
0.264319
0.267043
0.265179
0.267717
0.265176
0.268851
0.271567
0.267427
0.263585
0.267968
0.264649
0.264436
0.266361
0.262472
0.265719
0.262414
0.27159
0.271773
0.274768
0.264477
0.269036
0.258334
0.277623
0.281228
0.271492
0.271605
0.267003
0.271835
0.273083
0.276368
0.271427
0.271937
0.271339
0.264838
0.270968
0.257134
0.275099
0.27162
0.262818
0.260269
0.260244
0.266735
0.267907
0.254289
0.25714
0.254608
0.25735
0.259778
0.260528
0.262729
0.260355
0.267012
0.269061
0.260653
0.263107
0.264432
0.265818
0.262134
0.258829
0.255774
0.254321
0.262302
0.25975
0.262744
0.259234
0.252057
0.255144
0.25244
0.258946
0.256367
0.261228
0.258309
3.6046
4.67279
8.35836
3.71221
8.52081
4.79411
6.46208
3.97383
5.72402
7.60415
9.05628
5.12028
6.85129
4.42608
3.62522
84.8273
6.88778
43.8672
17.6937
79.9243
33.9853
55.3158
11.6076
4.35017
5.46548
4.88899
5.96658
6.67202
7.86908
9.9523
79.6936
9.62204
60.3155
66.3045
97.6044
88.3416
79.3856
5.3652
11.7572
10.5823
7.65634
8.56251
13.3858
19.4483
9.3517
22.6651
11.7623
28.1432
14.3507
18.6463
36.494
7.14307
15.4027
9.10956
21.712
12.444
16.3504
29.5244
15.0848
17.6302
15.987
26.53
28.8675
30.8071
52.1695
22.518
30.8837
15.7112
25.9031
61.7193
38.6596
48.1279
18.1096
22.0294
12.3464
23.0836
60.9305
42.3897
35.1808
0.644257
5.38294
5.27231
2.75009
5.4921
5.68037
1.4528
6.93077
5.70239
10.619
0.308805
14.0104
39.8078
5.3968
3.40918
0.853381
3.74483
15.9063
1.09403
3.62761
1.55379
0.263692
1.59255
0.407348
0.204438
3.14268
3.25041
1.96887
6.23717
8.38562
4.90959
5.18328
2.35973
0.677613
1.3891
7.77538
7.16596
4.34671
4.09315
0.23959
0.219041
0.211694
0.215361
0.218005
0.220111
0.265006
12.1051
6.24882
6.16153
30.4831
29.8361
29.9371
29.8717
6.33808
30.6413
32.4987
8.08908
6.97853
29.7653
29.9962
1.78128
4.80682
2.23505
18.3172
6.16274
3.05142
7.01331
2.40675
5.45428
14.7021
4.63246
2.16536
0.443126
2.20433
5.05925
2.47132
1.452
5.93756
5.67991
27.8749
12.022
0.22349
0.509953
0.274107
0.548405
0.289135
0.445337
0.953916
0.215882
0.407012
0.259251
0.425064
0.263722
0.407004
0.834361
0.241679
0.628945
0.294204
0.693532
0.312556
0.480502
1.07726
1.55154
1.03238
1.4902
2.08151
2.57761
3.0422
2.67968
1.03846
0.580609
0.880702
1.51632
1.31008
1.73492
2.03212
3.92212
6.20154
11.3448
38.5877
2.59632
5.32433
4.21988
30.3202
25.2816
7.64875
6.70011
30.3566
8.71488
36.1364
1.27535
5.9811
2.11205
30.9456
8.57664
4.87886
14.7179
33.831
43.99
12.2945
8.94864
30.6744
9.67596
36.6529
32.5295
5.71024
8.04599
3.66226
3.81458
7.30469
10.7637
7.73593
3.25464
2.91654
38.9304
6.96205
10.4402
9.67782
0.630073
0.930203
1.17768
1.65868
1.36194
1.76802
2.05966
2.36572
3.25421
2.1613
3.56583
2.86443
3.09114
3.58888
1.12348
1.08314
1.28831
1.61719
1.80634
1.85216
2.36631
1.83855
1.19098
0.563925
0.952002
2.30953
1.57936
1.65915
0.964674
0.909764
0.44564
0.861436
2.05048
1.48789
1.42627
0.892869
1.04732
0.458231
0.890131
2.14706
1.43725
1.58371
2.93946
2.52416
2.14696
3.58096
4.20829
4.21378
3.4064
1.59726
1.35947
2.01878
2.35461
3.61768
3.12074
2.75987
0.861205
0.90842
0.96239
1.42659
1.49267
1.55406
2.05857
0.978197
1.36205
1.92944
1.9101
2.40004
2.50516
3.0206
1.73312
2.11403
2.55106
2.41997
2.85962
3.33483
3.70723
3.02502
3.28473
2.65147
3.41234
3.92441
3.87354
3.69106
3.50956
5.35825
3.83951
4.27765
5.8496
5.87677
4.10051
1.64115
2.2274
2.00425
2.33681
3.24121
3.03374
2.58228
2.76423
3.81124
2.38776
2.90339
5.06981
4.45887
3.37256
1.63223
1.90513
2.17944
2.27107
2.57447
2.876
3.28439
5.80569
5.84889
6.00158
11.7446
11.9898
12.1456
11.8547
5.79459
5.77827
5.80786
11.986
12.2255
12.2305
12.1238
4.03846
4.96896
3.74861
4.02127
5.11417
5.32382
4.1288
12.0536
5.7925
5.7629
5.76488
5.76155
12.1671
12.1016
12.5918
12.153
5.92647
6.12631
5.8461
12.1005
12.42
5.88603
6.10959
5.86459
12.1515
12.4479
12.1401
12.3981
25.1642
6.20539
2.96413
92.1953
21.9142
29.6356
13.4239
49.7235
74.3512
26.8153
6.56757
3.18292
7.72497
41.6125
2.71318
3.7691
2.40261
2.87211
4.69854
4.37921
3.14444
5.98652
6.70027
6.26081
12.7042
12.1997
12.56
13.3029
1.63225
2.78757
2.15785
3.10744
2.39314
2.98513
3.80754
1.53585
2.70067
2.02862
2.9236
2.16789
2.70498
3.58321
1.47678
2.79772
2.03254
2.91436
2.11744
2.7066
3.65422
2.05826
3.30772
2.54753
4.10174
3.1976
3.80916
4.91658
3.38828
47.3483
5.70315
26.8091
85.9846
44.4873
11.7424
1.46922
2.87951
2.6924
2.78584
2.09876
2.02656
2.18485
2.54603
3.09802
2.26111
3.46381
2.53999
3.10066
4.1819
2.095
3.75344
2.65435
3.79836
2.6966
3.30893
4.63318
1.63657
3.01145
2.17552
3.11998
2.24199
2.80202
3.83271
1.87235
3.10457
2.45539
3.71905
2.97949
3.69005
4.59264
2.11656
3.38372
2.83574
3.90052
3.30159
4.26849
5.07733
3.78966
4.80467
4.66196
5.22012
5.05446
6.19591
6.58295
2.82151
4.3097
3.79017
4.66739
4.08249
5.38979
6.06582
4.86088
5.83938
7.82674
6.85291
5.68148
6.66628
4.84571
3.5914
5.1907
6.97391
6.13304
4.53727
5.44026
4.15275
6.27811
7.14989
6.44574
12.8099
13.7208
14.0309
12.4936
6.81539
13.5557
6.66899
7.49471
13.3133
14.7957
15.0546
6.63286
7.52757
7.45435
13.3214
13.238
14.71
14.8002
2.6773
3.35216
2.74133
3.79085
3.08941
3.86905
4.70538
3.52115
4.08701
4.18584
4.34564
4.51582
5.39049
5.01758
2.74056
3.80081
3.64374
4.13222
3.93693
5.18161
5.38582
7.36573
7.79278
8.30189
13.7006
14.4766
15.2484
16.174
2.69803
4.20007
3.0736
5.32509
3.80929
4.29224
6.0687
9.56356
31.3854
54.5042
75.0471
52.2075
46.0939
59.6058
4.43525
4.77646
6.77605
5.53125
5.0478
5.9055
4.35399
3.50715
4.65832
6.78401
5.65587
4.39883
5.31529
3.76164
7.27466
7.50637
6.76378
13.3796
15.7492
14.6791
14.2983
3.30608
6.63314
3.91283
6.90631
4.06288
4.81007
8.18946
0.60559
1.37642
0.639721
0.373887
3.60511
8.40463
4.85544
5.84803
0.441923
0.405112
0.818345
0.505974
0.931267
1.0441
1.21466
0.474457
0.943926
0.651523
1.45967
1.13946
1.48064
1.88471
0.951294
1.16626
0.745333
1.91617
1.39961
1.62904
2.18824
1.81798
3.88178
2.01431
4.12757
2.18936
2.42049
4.44058
1.00598
1.93971
1.49603
1.97148
3.07137
2.42187
2.57158
2.74234
4.28312
2.31851
2.77246
5.60323
3.25529
4.91012
3.33518
4.83674