/*--------------------------------*- C++ -*----------------------------------*\
  =========                 |
  \\      /  F ield         | OpenFOAM: The Open Source CFD Toolbox
   \\    /   O peration     | Website:  https://openfoam.org
    \\  /    A nd           | Version:  9
     \\/     M anipulation  |
\*---------------------------------------------------------------------------*/
FoamFile
{
    format      ascii;
    class       volVectorField;
    location    "0.00195";
    object      rhoU;
}
// * * * * * * * * * * * * * * * * * * * * * * * * * * * * * * * * * * * * * //

dimensions      [1 -2 -1 0 0 0 0];

internalField   nonuniform List<vector> 
13891
(
(11.2929 -36.441 29.541)
(-140.817 101.441 128.122)
(4.70928 -34.1748 27.8578)
(10.2195 -31.9299 11.7374)
(4.31937 -31.8816 11.6549)
(10.881 -43.5694 4.32247)
(0.857589 -62.0168 28.266)
(1.89018 -42.557 4.3013)
(1.26111 -53.6779 32.474)
(-88.5732 182.502 113.214)
(-1.77653 -45.5144 64.5177)
(5.55213 -45.0515 59.6942)
(-23.9635 -60.6322 30.2483)
(-4.05333 -35.6365 7.98936)
(-117.145 77.2924 153.746)
(-41.6525 161.922 149.42)
(1.5473 -33.7949 27.8587)
(4.28739 -32.339 19.5382)
(1.45432 -32.0396 19.6455)
(1.68608 -39.5814 30.4351)
(4.40083 -35.6025 19.9813)
(1.48431 -35.3509 19.9281)
(4.70536 -40.0201 30.6017)
(2.05472 -41.6836 57.7638)
(5.2724 -39.6724 40.5403)
(1.83221 -39.164 40.2763)
(1.81824 -45.7733 44.9491)
(-2.27348 -12.101 43.0117)
(-2.91411 -26.2052 51.5863)
(5.07177 -47.6162 46.6747)
(8.08201 -34.9312 28.3664)
(10.2906 -32.5221 19.2732)
(7.18296 -32.4117 19.2523)
(7.52117 -36.1994 20.3773)
(10.5677 -42.2238 32.9962)
(10.6922 -37.4915 20.9361)
(7.49501 -40.4742 31.0701)
(4.41447 -32.1092 3.88232)
(1.50916 -31.7805 3.90616)
(1.48858 -31.5712 11.7579)
(4.36642 -35.0693 12.2408)
(1.47351 -35.2159 4.05429)
(1.49933 -34.8339 12.2656)
(4.24438 -35.4631 4.02741)
(-53.4567 247.33 99.5367)
(-15.789 23.2191 74.4108)
(-10.3525 55.4672 60.7321)
(-71.3028 285.789 111.883)
(-38.0801 163.626 76.2288)
(-57.5321 107.432 101.623)
(-115.067 220.343 133.973)
(4.7037 -46.8034 62.5462)
(11.1252 -42.6536 45.3184)
(8.27674 -40.4762 41.5754)
(-16.3776 -35.4088 57.5794)
(5.60109 -51.1905 49.7963)
(6.16755 -48.8535 48.9445)
(-31.3628 -35.0268 63.7437)
(-127.212 128.4 124.797)
(-73.8583 19.1673 113.24)
(-45.1489 9.81889 93.9907)
(-90.0252 60.6735 124.466)
(-147.857 102.952 137.141)
(-103.048 37.4912 135.195)
(-144.917 150.904 139.589)
(7.28017 -31.8906 11.5765)
(10.3222 -32.1291 3.88061)
(7.38145 -32.0646 3.8532)
(7.21275 -35.0645 12.2543)
(10.0978 -35.4891 4.05263)
(10.1009 -35.2224 12.13)
(7.1562 -35.4119 4.03072)
(0.174604 -41.8505 40.8405)
(-25.1588 34.8054 35.1287)
(-17.2567 40.9592 13.1919)
(-24.5471 13.8414 33.5139)
(-6.64054 -46.0452 16.384)
(-35.4513 8.07788 56.2844)
(1.37105 -48.2227 43.9958)
(1.74352 -46.6304 33.3617)
(4.62604 -41.3867 21.5101)
(3.23511 -55.8663 32.9724)
(1.93313 -47.6721 23.1666)
(4.79355 -48.5464 23.2076)
(1.75459 -41.0721 21.6021)
(4.67808 -47.7811 34.1603)
(7.38319 -41.9251 21.6048)
(7.91003 -51.6305 35.7626)
(9.44987 -52.2867 23.1133)
(2.50498 -58.6581 32.6241)
(7.46157 -49.9841 23.3718)
(10.3963 -43.3566 22.5241)
(6.9186 -49.1502 35.1989)
(4.4028 -38.6778 12.2767)
(1.73683 -38.7102 4.11967)
(4.72791 -42.8002 4.24638)
(1.92736 -43.6557 13.1403)
(4.75181 -44.0373 12.9118)
(1.62787 -38.4216 12.3268)
(4.63853 -38.8729 4.12059)
(-44.2611 -11.5165 57.1407)
(-8.17869 -58.7556 38.1935)
(-17.0451 -54.8704 24.374)
(-56.6798 -32.3433 88.8544)
(-51.1856 -16.1781 77.1501)
(-2.89766 -54.9806 44.0111)
(-52.4511 -26.9105 75.3011)
(-59.1838 232.031 126.589)
(-40.5342 111.696 134.417)
(-49.2716 158.18 115.052)
(-75.5997 111.579 138.186)
(-78.7391 139.076 159.915)
(-68.783 84.5025 153.132)
(-101.796 189.067 144.986)
(7.44326 -38.9038 12.3264)
(10.4805 -38.9625 4.14324)
(10.3986 -45.4563 12.6074)
(7.78003 -43.0101 4.20913)
(7.54953 -44.5234 12.6357)
(10.5507 -39.3862 12.7562)
(7.5712 -38.8479 4.11212)
(-101.314 68.6334 150.014)
(-138.539 94.433 145.866)
(-99.4641 29.255 153.853)
(-105.587 107.39 160.14)
(-91.6989 54.2274 158.216)
(-108.511 38.0571 149.824)
(-131.122 136.378 149.152)
(24.101 -45.1815 31.8542)
(-136.925 83.5745 130.783)
(14.2501 -37.6908 31.5138)
(22.7928 -33.329 4.29456)
(13.1123 -32.013 12.1039)
(24.8664 -54.7906 5.33241)
(11.7799 -78.2843 8.81969)
(13.9177 -44.9211 4.47051)
(0.486812 -67.3609 19.7831)
(-99.1581 65.7842 132.691)
(10.6741 -43.0028 44.1457)
(-12.709 -38.9596 65.6538)
(-9.60506 -64.3789 43.4799)
(-23.8505 -66.3321 37.9083)
(-73.0553 32.651 132.884)
(-113.701 55.2552 146.066)
(13.5488 -33.2501 20.5255)
(17.8707 -39.6434 34.5812)
(17.0367 -34.964 21.257)
(13.1298 -44.8754 35.3994)
(13.7349 -38.7732 21.7628)
(17.1307 -40.7291 22.8837)
(14.8182 -48.1348 35.8931)
(12.9264 -45.0895 49.541)
(12.4849 -47.4861 48.6308)
(-23.1093 -29.5069 75.1973)
(3.08491 -53.7196 45.1782)
(-39.5115 -31.6555 74.9191)
(-38.6412 -32.1661 87.1661)
(-0.0292267 -53.2481 40.3423)
(-85.3337 22.9959 127.012)
(-124.647 73.162 132.149)
(-85.0131 23.9502 136.572)
(-137.624 77.044 136.629)
(-100.364 24.909 141.348)
(-91.0255 19.373 141.938)
(-123.562 64.8643 136.666)
(13.2671 -32.1855 4.0156)
(16.2566 -32.3026 3.988)
(16.094 -32.2361 11.9325)
(13.137 -35.5569 4.04752)
(13.1842 -35.6462 12.1295)
(16.5141 -36.5622 12.7427)
(16.2872 -35.8123 4.08755)
(20.7494 -42.431 36.1051)
(24.8426 -38.9799 23.1425)
(20.7453 -36.7108 22.5361)
(20.64 -43.7639 22.8569)
(20.019 -54.6105 19.8547)
(23.7661 -46.9773 20.4224)
(17.1084 -51.9186 30.1731)
(-20.1908 -20.3761 93.354)
(11.1208 -46.1246 42.9003)
(-24.9567 -24.7424 87.1541)
(-33.7639 -31.0016 93.8553)
(4.69533 -53.1204 46.3706)
(-1.33452 -51.6005 43.1208)
(-27.7736 -24.8891 93.9329)
(8.05908 -54.3595 34.5819)
(11.0408 -56.2573 21.3331)
(13.5256 -45.6932 23.3919)
(16.0695 -49.4109 22.6001)
(0.692103 -71.6722 13.1063)
(12.2054 -60.2614 16.098)
(9.27175 -59.4187 26.684)
(-13.3806 -59.0344 36.5358)
(-55.4877 -39.5183 93.8376)
(-51.1935 -35.1582 87.2474)
(-46.7755 -38.2085 94.1756)
(-18.9817 -71.4414 43.24)
(-49.9133 -40.9931 95.1309)
(-13.3555 -59.7379 41.7598)
(23.3843 -34.8084 12.8504)
(19.3987 -32.6544 4.06123)
(19.4033 -32.9153 12.5536)
(20.045 -38.4545 12.8112)
(23.6716 -38.5591 4.48878)
(24.2568 -41.0106 12.7262)
(19.6774 -36.5882 4.26687)
(13.5348 -39.3631 4.10939)
(13.5828 -47.6942 12.6653)
(13.5814 -40.8447 12.636)
(16.7775 -42.6902 12.8272)
(17.0827 -47.0583 4.60126)
(16.6172 -50.7556 11.9456)
(16.8468 -40.3149 4.3716)
(-113.631 68.147 133.574)
(-67.5891 28.2707 135.905)
(-77.9452 24.9431 139.174)
(-80.3699 19.2061 138.026)
(-93.336 55.5468 132.28)
(-68.981 22.4709 131.772)
(-109.898 58.4648 134.872)
(-129.626 68.7654 142.034)
(-94.9325 15.4846 146.861)
(-103.007 21.1995 146.799)
(-90.5867 14.548 141.459)
(-101.926 42.2534 140.54)
(-83.7188 9.05991 137.776)
(-115.691 54.9379 138.639)
(18.1344 -53.1539 18.9905)
(14.5446 -64.3654 12.357)
(19.6656 -70.7506 -6.31211)
(4.51726 -73.8257 10.3828)
(15.4125 -65.7352 5.52053)
(22.4659 -57.9229 9.45716)
(10.557 -62.9236 17.3032)
(-40.0324 -34.5704 94.3803)
(-2.48138 -60.2245 46.3497)
(-13.6509 -70.1116 45.0166)
(-37.5177 -27.7235 84.5094)
(-44.5683 -35.8438 89.9982)
(-7.65401 -63.4325 45.4826)
(-34.6841 -26.4266 90.0419)
(20.4388 -45.4625 12.5136)
(24.3917 -45.4065 5.0085)
(23.1314 -61.1696 1.91708)
(20.7774 -50.2257 5.18047)
(19.9477 -55.6675 8.77891)
(24.6098 -49.5432 10.1427)
(20.4044 -42.535 4.55378)
(-78.7955 14.5494 134.012)
(-84.5388 44.7442 132.908)
(-59.8163 9.84328 121.52)
(-88.2231 35.9362 136.461)
(-72.3089 8.4418 128.311)
(-66.3042 16.9223 126.573)
(-100.73 48.6212 135.376)
(-141.28 112.011 83.8271)
(-105.079 87.1251 8.40344)
(-74.2847 61.6272 27.4704)
(-112.746 90.9858 106.66)
(-107.151 116.296 85.6377)
(-68.6044 71.3512 -6.55637)
(-54.2018 58.9633 -41.7045)
(-25.7798 23.1395 15.987)
(-1.62985 -4.77595 37.5715)
(-47.5406 44.3262 55.9847)
(-61.3643 50.9862 57.9527)
(-67.2786 66.4411 23.8096)
(-99.3057 89.3609 73.0988)
(-77.8532 74.5664 21.0296)
(-105.731 99.963 33.5976)
(-115.554 98.2416 73.7322)
(-132.131 100.487 91.9287)
(-126.174 106.513 84.805)
(-132.025 109.065 45.4386)
(-117.626 107.71 30.6115)
(-121.764 105.436 47.7505)
(-126.282 97.6362 59.783)
(-89.5637 91.1886 72.8827)
(-106.448 114.526 49.2037)
(-98.8366 100.7 34.8803)
(-109.75 110.739 91.4623)
(-114.833 108.703 85.3772)
(-112.645 107.694 48.7492)
(-106.866 107.962 61.0245)
(-41.7082 43.8584 -13.7214)
(-64.2699 64.2271 -34.0582)
(-69.4192 69.8419 -11.8515)
(-63.2752 65.8154 -36.9813)
(-74.3667 75.2671 -16.9015)
(-92.4201 87.5208 -1.08463)
(-69.219 65.6969 -21.5143)
(-74.4216 61.17 -12.6136)
(-68.469 64.1577 -25.0987)
(-95.9042 89.0318 -6.65716)
(-101.666 87.737 13.3471)
(-80.5847 61.8917 2.78951)
(-107.217 83.0784 27.4619)
(-75.0038 64.6951 -8.53258)
(-123.664 93.7117 100.459)
(-111.609 101.399 100.375)
(-120.177 103.176 91.3006)
(-115.981 100.917 60.5507)
(-109.456 90.8893 83.1159)
(-119.306 92.7189 71.7141)
(-108.832 100.063 72.1826)
(-90.7005 97.0023 15.9968)
(-67.8234 67.0723 -20.5556)
(-88.1543 89.2372 0.514122)
(-95.9937 91.3181 16.1858)
(-73.1705 72.4168 7.15012)
(-93.193 93.65 31.4571)
(-72.608 68.2438 -6.15527)
(-100.456 87.3399 30.4849)
(-80.3935 62.1988 16.3495)
(-96.1878 80.9414 57.1016)
(-75.5883 68.5887 18.2847)
(-103.434 81.9232 43.4981)
(-95.8262 88.46 45.0117)
(-78.1482 67.2459 6.12599)
(20.1273 3.41788 4.4333)
(41.154 -20.7009 45.1078)
(21.1846 2.70687 23.0594)
(14.9415 3.94961 4.78003)
(15.9439 0.997296 34.6843)
(15.131 -6.61841 4.73297)
(22.9155 -3.22407 4.34227)
(14.2175 -6.11987 23.1152)
(22.8053 -2.81088 21.5166)
(19.3194 -38.2483 42.1023)
(27.2682 -392.466 151.441)
(-3.24859 -328.193 137.257)
(15.2301 -5.65503 38.6515)
(27.8349 -5.66167 39.1085)
(23.3676 -11.0747 57.1084)
(42.727 -23.151 61.6607)
(16.3843 0.615925 22.6091)
(21.3931 -3.83108 33.9212)
(14.0951 4.08538 23.5848)
(14.1248 1.37228 31.6667)
(13.4664 0.790192 23.4604)
(17.7069 0.850716 31.8877)
(17.3464 3.46973 23.1765)
(14.3405 -5.93556 31.1531)
(16.4432 -2.75697 22.5849)
(13.9666 -2.37763 31.3576)
(17.5761 -5.78174 30.3471)
(17.0258 -5.94389 22.2028)
(13.5125 -2.76135 23.4114)
(16.9016 -2.18843 30.5998)
(36.7467 -72.6449 57.6856)
(32.5381 -62.938 37.0907)
(22.058 -145.174 56.1465)
(17.2519 -2.53877 43.9883)
(23.0921 -7.54058 44.3058)
(22.5811 -45.5726 57.9749)
(41.5691 -185.556 59.3626)
(18.5999 -6.13686 47.7753)
(26.9161 -11.561 53.825)
(14.9739 -2.01371 39.2851)
(19.3766 -5.67443 38.3826)
(19.5632 -2.47821 40.2909)
(23.9747 -6.95014 49.468)
(20.0253 -6.5298 52.0682)
(14.3994 3.95486 14.4887)
(17.5277 3.65341 4.56499)
(17.0406 3.60906 13.8016)
(16.8844 0.179836 13.9867)
(14.6621 0.300273 4.83328)
(14.1042 0.350326 14.5845)
(17.4156 0.117151 4.63304)
(14.6319 -6.44955 14.3143)
(16.8679 -3.10032 13.9345)
(14.6398 -3.10512 4.81827)
(17.7102 -6.48128 4.51725)
(17.2947 -6.32332 13.6564)
(14.0801 -3.05397 14.5363)
(17.3656 -3.13688 4.61736)
(12.7912 -359.681 144.834)
(29.0062 -299.511 107.589)
(10.78 -261.629 102.33)
(42.3925 -208.36 91.5697)
(11.0157 -268.139 116.238)
(24.2289 -164.774 86.3507)
(27.6137 -302.676 120.605)
(25.187 -36.1447 64.2361)
(39.0193 -72.3855 73.4594)
(24.1741 -151.451 94.1244)
(33.5112 -56.5212 67.2949)
(29.5455 -14.8077 58.9294)
(26.6069 -45.5779 69.4749)
(37.7871 -190.227 97.3644)
(25.5864 1.76298 22.928)
(22.849 0.414002 21.6028)
(26.9313 -0.609353 32.4175)
(37.8765 -18.3002 31.3565)
(28.8317 -10.3691 32.7465)
(19.427 0.582152 21.9922)
(22.107 0.1944 32.1064)
(23.2383 -5.99678 21.1041)
(24.8237 -5.76122 29.4068)
(24.3574 -2.23734 29.866)
(19.4879 -2.66569 21.9655)
(21.1529 -5.59355 29.7429)
(19.9898 -5.80197 21.5778)
(20.4931 -2.06354 30.0742)
(29.766 -3.7111 41.9812)
(34.7105 -8.26432 53.1224)
(44.0998 -22.9658 57.5891)
(34.9988 -17.498 55.3543)
(23.7554 -5.60038 38.5068)
(24.8516 -3.06543 41.1459)
(29.5899 -7.7844 51.0911)
(75.2507 -121.186 59.835)
(88.3677 -256.522 70.5874)
(63.7405 -222.955 63.8784)
(70.8559 -110.895 30.8913)
(50.1951 -88.2606 32.1499)
(54.7727 -99.3855 57.4763)
(31.6438 -13.9288 44.6808)
(19.7058 3.31348 13.3974)
(23.137 3.18852 4.34131)
(22.8861 3.03791 13.1777)
(23.0533 -0.126633 4.36296)
(22.6379 -0.0410313 13.1731)
(19.6199 0.114825 13.5176)
(20.0861 0.0617335 4.48037)
(22.5897 -3.17507 13.0969)
(23.0692 -6.30443 4.24502)
(22.8153 -6.1767 12.8242)
(19.5893 -3.02354 13.4344)
(20.2299 -6.21035 4.3641)
(19.9036 -6.09295 13.1721)
(20.0017 -3.05308 4.45915)
(38.239 -432.642 156.508)
(81.8693 -274.822 99.6158)
(59.9701 -363.813 129.401)
(66.3826 -371.134 118.279)
(46.7423 -334.782 111.976)
(61.6939 -245.068 95.0993)
(43.5248 -331.878 124.495)
(70.4432 -118.796 78.5681)
(52.4215 -91.7499 69.019)
(65.8668 -244.932 100.005)
(54.252 -98.9872 75.8351)
(42.4547 -76.4601 67.5816)
(36.0869 -19.5926 59.9904)
(50.9424 -219.645 97.3606)
(21.8474 -17.3754 11.982)
(34.0307 -24.2506 56.4336)
(24.5813 -18.8027 28.1921)
(15.8991 -17.4172 3.96106)
(16.3557 -17.6874 19.4602)
(14.3274 -12.955 4.36239)
(22.8128 -9.32185 4.15028)
(13.8805 -12.2962 21.5548)
(24.8687 -12.4976 28.7019)
(20.607 -21.1537 37.504)
(-38.4036 55.5112 101.587)
(19.597 -23.3053 47.1367)
(16.3408 -13.4159 37.8047)
(28.229 -13.6123 39.0508)
(21.7569 -16.602 52.9127)
(35.2697 -16.0275 57.3534)
(14.1359 -9.31462 22.4654)
(14.5655 -12.4641 29.5112)
(14.4774 -9.21547 30.4325)
(16.7279 -12.0623 20.9159)
(17.8573 -9.18599 29.7116)
(16.913 -9.1174 21.5898)
(17.9347 -12.4046 29.0942)
(15.8821 -9.58265 38.2596)
(19.3372 -15.3179 47.0947)
(18.8025 -10.5315 46.7041)
(24.0115 -15.6141 49.1176)
(19.9646 -9.72897 38.2862)
(20.2473 -13.5409 38.41)
(23.5343 -10.8126 48.003)
(13.9473 -12.6269 13.2063)
(14.7395 -10.0132 4.57381)
(14.3519 -9.7349 13.8497)
(16.5288 -12.2522 12.6985)
(17.3265 -9.71609 4.36345)
(16.9545 -9.45231 13.2044)
(16.8989 -12.5661 4.19511)
(21.9942 -11.8515 53.5006)
(20.3955 -15.2779 47.9881)
(21.7132 -13.6993 51.0979)
(26.5822 -16.6997 54.5356)
(25.9903 -15.3391 50.6101)
(27.0513 -12.5214 55.0129)
(24.1459 -15.2028 47.4531)
(13.2703 -17.7101 19.9224)
(17.7943 -18.7972 27.5501)
(14.3515 -18.6815 27.8971)
(13.5384 -15.0519 20.6425)
(14.5188 -15.5836 28.7383)
(16.5328 -14.8684 20.1851)
(17.8698 -15.571 28.2462)
(16.4365 -20.7353 37.4006)
(24.4867 -24.6148 49.0753)
(19.8869 -24.2955 48.5375)
(16.4477 -17.078 37.9573)
(19.6621 -19.8269 48.6634)
(24.4789 -20.274 49.0732)
(20.3939 -17.2627 37.8563)
(24.9598 -9.23034 29.0692)
(19.7853 -11.976 20.3777)
(23.1888 -9.14375 20.6334)
(21.3885 -9.066 29.1614)
(23.0574 -12.1278 20.1396)
(19.923 -8.94631 21.0025)
(21.4262 -12.4383 28.5227)
(28.1774 -9.72858 39.1052)
(33.1187 -15.5797 51.1068)
(32.7584 -10.6907 50.5958)
(28.9929 -15.8389 49.4229)
(24.1816 -9.70193 38.4009)
(24.497 -13.7075 38.265)
(28.5517 -10.9201 49.1493)
(13.2104 -17.7652 4.02849)
(15.7101 -17.2591 11.8664)
(12.9297 -17.4927 12.1436)
(13.7336 -15.5038 4.13031)
(13.4007 -15.1631 12.5192)
(16.0603 -14.7945 12.3116)
(16.339 -15.0591 4.0841)
(19.2329 -11.9353 12.4478)
(22.5236 -12.1831 4.04826)
(19.8911 -9.27654 4.23423)
(22.5667 -9.1532 12.5255)
(22.2937 -11.9936 12.1975)
(19.5798 -9.12312 12.7876)
(19.5142 -12.0562 4.13255)
(21.8036 -21.4384 48.6813)
(26.6745 -26.4405 56.2081)
(21.8202 -26.0951 53.8347)
(22.0198 -21.6981 54.3246)
(20.1451 -19.5647 47.5604)
(26.4756 -21.5929 54.0405)
(23.5515 -18.9499 46.8633)
(28.3693 -11.5679 51.9455)
(33.8418 -18.4352 51.1481)
(36.0871 -12.8362 57.1421)
(30.8752 -16.4903 54.2555)
(29.6173 -17.7373 49.2135)
(31.7635 -13.0377 55.571)
(27.0342 -14.8138 46.5399)
(28.9508 -21.7849 40.0281)
(28.0823 -17.2903 38.5299)
(34.024 -20.4144 53.6605)
(24.2523 -21.0121 37.8608)
(29.6611 -25.174 53.1681)
(28.9951 -20.289 49.8155)
(24.5395 -17.5045 38.0318)
(22.7205 -17.8494 19.832)
(24.7717 -15.7089 28.46)
(19.4892 -17.8257 19.4861)
(21.2673 -18.9235 27.755)
(19.6945 -14.9482 19.6174)
(22.9001 -14.9961 20.0302)
(21.361 -15.7153 27.8837)
(21.9211 -17.515 4.02208)
(18.8046 -17.3001 3.92454)
(18.6773 -17.281 11.7458)
(18.9503 -14.6295 11.9259)
(22.2339 -14.8495 4.03453)
(22.0567 -14.6852 12.0992)
(19.1594 -14.6841 3.96566)
(30.1808 -15.8038 77.6513)
(35.621 -19.9746 62.6597)
(13.7954 5.17229 73.032)
(13.4494 -6.88697 69.2449)
(30.9617 -25.7044 61.2985)
(31.1405 -21.4634 56.5055)
(25.4266 -16.7 48.9769)
(-26.1035 -364.673 174.218)
(-18.1057 -338.315 150.435)
(8.16097 -405.676 155.923)
(-12.0371 -551.816 230.354)
(41.2967 -166.099 75.9524)
(-48.6217 -13.4767 -34.4762)
(17.1543 -100.581 69.3592)
(3.82278 -103.649 63.2543)
(-11.3452 -337.897 149.642)
(-0.503465 -370.159 152.463)
(-0.0688991 -297.35 134.56)
(15.6476 -320.126 137.233)
(-4.32902 -284.121 134.819)
(8.4253 -315.273 142.131)
(-9.125 -375.802 160.187)
(7.23707 -127.797 70.0776)
(9.5241 -221.134 104.315)
(25.5006 -126.275 70.0874)
(23.2107 -244.479 106.866)
(2.44648 -217.216 109.495)
(15.3871 -235.685 113.764)
(16.2012 -143.997 75.2242)
(-20.5545 -347.654 168.064)
(-10.7438 -275.554 145.541)
(-5.9744 -281.235 148.213)
(6.92462 -317.589 158.308)
(-19.4737 -428.238 186.49)
(-11.0872 -390.07 178.153)
(-6.26124 -331.094 156.618)
(15.3978 -455.76 168.462)
(42.3954 -389.078 147.846)
(29.7771 -345.585 138.277)
(22.312 -358.478 158.019)
(9.46184 -474.712 187.369)
(36.5797 -408.031 169.122)
(0.0912271 -422.792 174.875)
(48.6295 -291.781 116.03)
(33.1041 -144.948 70.1503)
(36.0723 -262.984 108.743)
(28.2978 -262.725 121.599)
(23.608 -176.416 78.2337)
(37.0493 -293.031 125.433)
(23.7385 -158.356 77.3901)
(1.66901 -71.495 46.998)
(-3.45214 -170.565 96.4665)
(0.571788 -194.439 108.568)
(10.9741 -218.269 114.094)
(-1.95308 -88.6728 49.0724)
(-3.08146 -211.705 105.886)
(9.80215 -119.103 65.9072)
(17.7493 -365.48 163.563)
(-22.7435 -496.732 204.393)
(1.47463 -522.356 195.942)
(1.5208 -431.023 169.662)
(14.8213 -440.094 170.057)
(-3.94553 -442.14 187.322)
(-17.9143 -398.528 171.733)
(18.5779 -255.446 117.327)
(-21.5643 -211.607 51.1787)
(2.33261 -160.308 62.623)
(-18.6583 -74.3608 17.997)
(8.02928 -321.456 126.185)
(-10.8819 -255.267 110.529)
(11.842 -145.451 70.7367)
(-86.9161 100.753 73.261)
(-65.3286 67.5077 -22.5783)
(-38.7658 41.4308 -35.1261)
(-58.1619 32.7954 -51.9552)
(25.6796 -45.003 43.4715)
(-6.13165 4.93684 -2.82016)
(3.71911 -4.90947 12.181)
(13.9699 -11.167 30.6726)
(16.2414 -20.6052 38.9317)
(6.66824 -6.88619 12.8439)
(8.3856 -34.9587 29.0918)
(19.4076 -28.9955 37.8753)
(15.4162 -10.8247 27.8988)
(11.7275 -46.2494 31.8551)
(7.93824 -7.96263 12.3942)
(11.4668 -13.6356 26.2807)
(4.73293 -4.29351 35.5041)
(12.6707 -12.2013 27.6812)
(5.79058 -5.67012 10.3215)
(13.6976 -10.9255 25.7409)
(5.13422 -3.74956 11.978)
(-19.3031 20.0048 16.615)
(6.64072 -55.314 36.4081)
(-0.60441 10.6157 41.8074)
(22.7092 -38.6637 37.4408)
(16.3877 -10.049 27.1471)
(15.2414 -58.0464 34.6485)
(6.68513 -6.62594 15.6449)
(-32.8818 31.9061 13.6531)
(1.82562 -10.8377 12.4507)
(4.40557 -4.72535 8.43232)
(4.81211 -27.9067 22.5245)
(-10.5559 -4.81114 -1.06096)
(7.15058 -36.1016 25.5534)
(3.08085 -3.71879 7.46846)
(-25.2922 20.1636 -22.7041)
(-47.455 61.7097 56.74)
(-42.602 48.2525 55.6419)
(5.46153 1.73238 36.4015)
(-20.9458 25.1571 15.6783)
(-97.9902 108.003 34.0101)
(-70.7184 78.9977 21.1601)
(-64.2792 68.4263 23.8244)
(-21.1672 21.1644 -19.2883)
(-11.0814 11.2361 -0.892122)
(2.47271 -2.48011 6.40175)
(-10.2387 10.7329 -0.765155)
(-54.5052 54.1052 -39.3137)
(-40.6746 37.8253 -34.997)
(-38.4597 39.2445 -10.2784)
(-27.6589 -3.07655 -7.67675)
(-36.2084 15.2958 -30.8694)
(3.58261 -38.2745 23.0329)
(-16.0743 12.382 -5.57307)
(-62.2581 50.9117 -49.1412)
(-50.914 44.1083 -23.0923)
(-47.3215 37.0737 -41.5779)
(-41.134 41.445 -13.6768)
(-86.3217 93.6984 -1.74602)
(-64.2287 63.0812 -34.6135)
(-64.1985 61.1189 -38.4217)
(-72.3535 75.2274 -17.8131)
(-57.5112 52.5843 -42.2415)
(-68.3252 70.2285 -12.1309)
(26.0495 -37.1891 36.0787)
(-120.643 80.1465 122.617)
(14.7893 -32.4658 28.7596)
(24.8991 -22.4998 28.8235)
(22.5062 -29.6332 4.00889)
(12.7337 -28.8823 11.4159)
(21.8533 -20.2063 11.6188)
(15.5644 -19.9707 3.87483)
(16.2427 -20.5673 19.2285)
(-101.069 76.5364 132.02)
(20.9534 -38.7953 44.4794)
(11.5182 -43.975 64.6707)
(-77.1981 88.5027 118.243)
(33.6754 -27.6591 64.4378)
(20.2671 -24.5738 37.3711)
(17.3104 -25.2324 49.4782)
(13.1631 -20.5287 19.0979)
(17.723 -22.0145 27.3796)
(14.3119 -21.8936 27.1476)
(13.1381 -23.4119 19.3165)
(14.2217 -24.9826 27.453)
(16.1694 -23.5064 19.4215)
(17.5446 -25.0146 27.615)
(16.5716 -24.6123 37.0272)
(24.8465 -29.5672 52.6092)
(19.8571 -28.6578 48.7097)
(16.2857 -27.8839 37.2197)
(19.9059 -33.427 52.1804)
(23.7979 -33.6874 55.5934)
(20.834 -29.1357 39.2471)
(12.6352 -20.0816 3.86848)
(15.516 -19.8913 11.5856)
(12.5567 -19.9101 11.6082)
(12.7359 -22.7818 3.88296)
(12.5924 -22.6699 11.6354)
(15.525 -22.7845 11.7346)
(15.6594 -22.8066 3.93742)
(7.25314 -12.6611 69.5551)
(25.8007 -30.6876 61.05)
(21.7113 -30.7137 55.973)
(20.1449 -35.1562 62.2973)
(-5.34194 -12.2669 74.2273)
(15.6942 -29.3599 77.3668)
(-55.1536 40.6425 101.887)
(22.5374 -20.6483 19.4799)
(19.3879 -20.7099 19.4925)
(21.023 -21.9472 27.7635)
(19.2316 -23.5603 19.2928)
(25.6868 -26.6621 30.4257)
(22.7143 -23.8229 19.6587)
(21.4168 -25.6117 28.5686)
(29.1673 -25.564 42.7541)
(24.859 -25.4806 39.4355)
(29.0491 -29.1699 55.7209)
(27.2085 -33.6136 64.058)
(29.4221 -30.0033 48.4616)
(23.3707 -23.4448 70.3073)
(24.7549 -29.5256 42.3623)
(13.2126 -29.4482 19.0211)
(13.097 -26.3615 19.3154)
(14.2038 -28.0487 27.4226)
(16.1611 -26.4511 19.0816)
(18.3491 -33.7576 30.7304)
(16.5633 -30.0314 19.7024)
(18.1074 -28.8471 28.4342)
(16.1857 -37.7779 43.3341)
(16.9016 -32.9701 39.312)
(18.448 -37.9583 56.2982)
(20.1771 -39.1483 64.1804)
(18.946 -39.6855 48.8689)
(1.61501 -36.2827 67.5864)
(20.3449 -33.6211 42.47)
(21.8769 -20.3023 3.87994)
(18.6141 -20.0903 3.94225)
(18.5867 -20.0856 11.7591)
(18.6384 -23.0365 11.521)
(21.9548 -23.2648 3.96683)
(21.8499 -23.1902 11.9272)
(18.7455 -23.0538 3.84397)
(0.517568 9.76125 102.498)
(-42.415 43.5563 100.611)
(24.159 -23.8989 76.2095)
(-9.52594 0.63116 102.263)
(-93.8271 94.4727 127.523)
(-34.6113 35.3856 122.31)
(-87.3843 78.8149 118.039)
(-46.7294 1.55318 107.406)
(3.28619 -31.483 80.8786)
(-75.9769 48.2287 105.508)
(-25.0987 -2.59643 103.781)
(-121.261 81.112 128.723)
(-65.9954 20.9187 123.682)
(-102.575 75.1276 119.134)
(12.8429 -28.9365 3.79944)
(12.6636 -25.7695 3.90796)
(12.62 -25.6707 11.6659)
(15.6909 -25.8742 11.4251)
(15.9464 -28.9993 3.93134)
(15.8329 -28.943 11.9074)
(15.7031 -25.8794 3.80857)
(19.5673 -26.8357 19.5244)
(22.0358 -35.2518 33.9862)
(26.1609 -31.2211 33.799)
(24.4166 -32.9736 22.4171)
(20.4068 -31.5201 20.9754)
(23.7378 -28.1583 20.9803)
(21.9773 -30.0895 30.3406)
(13.5791 -30.7496 69.3754)
(-10.9204 -14.7773 87.2882)
(20.66 -41.153 50.2938)
(27.7924 -35.0197 51.0157)
(-8.17308 -23.7153 76.2509)
(4.72245 -15.2897 77.3221)
(24.3113 -34.6583 48.3398)
(18.8336 -26.0637 11.8491)
(22.4652 -29.7875 12.3842)
(19.1373 -29.2603 3.9388)
(22.0906 -26.3552 3.96514)
(19.0153 -29.2135 11.8915)
(22.0764 -26.284 11.9291)
(18.8384 -26.113 3.93224)
(-48.5507 25.9279 122.332)
(-111.334 77.281 129.78)
(-63.6425 35.4843 137.516)
(-98.2487 86.4157 129.201)
(-69.4327 30.5487 133.767)
(-54.4427 41.1412 132.645)
(-106.461 85.4733 127.646)
(4.2932 -46.8698 94.5295)
(42.4931 -51.427 129.214)
(24.8815 -49.128 110.934)
(-1.285 -12.2199 -1.6325)
(-0.175903 -8.78929 -17.5736)
(4.45318 -29.7674 26.5097)
(28.8984 -78.8226 154.008)
(0.638621 -25.4683 12.6876)
(4.75775 -73.6943 138.992)
(48.5828 -49.9126 106.576)
(10.4306 -14.934 21.5067)
(1.25042 -13.2015 6.3994)
(39.2417 -51.3298 76.359)
(7.80739 -30.719 31.6192)
(55.0563 -69.8521 124.561)
(38.2122 -80.7674 161.677)
(-0.929887 -9.59425 -15.0826)
(-0.0554096 -13.6102 -6.82916)
(-0.899676 -14.7236 -4.4013)
(1.70181 -23.8509 9.47378)
(4.36685 -24.769 12.0303)
(4.33115 -30.541 23.7972)
(1.76413 -29.0677 21.1039)
(-2.04821 -11.282 -9.31508)
(0.271263 -17.2553 8.19763)
(-1.19488 -16.4951 1.03794)
(8.85441 -26.0835 25.4209)
(5.91132 -25.615 17.8503)
(6.54192 -31.6484 29.3382)
(9.95676 -32.117 36.4269)
(5.30158 -13.6878 14.3244)
(3.18371 -17.902 15.6283)
(13.3022 -26.7318 33.7276)
(7.30323 -18.8838 22.3366)
(18.9139 -27.4046 42.3961)
(14.8528 -32.763 44.1709)
(20.7409 -33.879 51.7822)
(0.261606 -19.2209 3.06509)
(0.86331 -26.6062 15.4171)
(-0.0944627 -20.3101 5.64404)
(4.46646 -36.3342 35.3757)
(2.07482 -40.7393 43.7155)
(4.93094 -42.345 46.8434)
(1.85071 -34.8818 32.3576)
(2.44608 -23.0455 17.6277)
(1.71873 -28.2705 20.7539)
(0.245742 -21.9055 11.0746)
(7.34188 -37.6175 40.7695)
(12.9653 -45.1968 57.6976)
(8.2185 -43.8116 52.0422)
(11.6278 -38.4616 47.2021)
(16.2585 -16.095 27.568)
(18.1047 -21.4733 31.4969)
(12.0549 -19.9335 28.0634)
(32.2269 -29.5709 58.3412)
(25.4742 -28.6407 50.6871)
(26.8877 -34.9415 58.8745)
(33.9448 -36.2246 64.2034)
(10.8193 -47.6285 97.841)
(3.01264 -35.1245 45.826)
(7.5396 -35.8865 48.6952)
(7.84938 -42.8693 61.36)
(4.48673 -54.8907 108.332)
(3.14279 -41.4797 58.2838)
(11.3176 -56.2316 111.804)
(5.35229 -23.8638 24.0533)
(12.319 -31.554 34.9804)
(9.36817 -24.8095 29.1411)
(18.1682 -46.4537 63.6044)
(16.5886 -39.3437 54.1597)
(22.2402 -40.5503 60.4352)
(24.3474 -47.9573 68.2395)
(17.4706 -48.4674 103.752)
(16.7797 -37.11 61.8219)
(11.6856 -36.6293 54.5253)
(12.5191 -44.0066 66.8487)
(26.1462 -58.2934 124.113)
(18.4405 -57.5185 117.244)
(17.9753 -44.5636 73.7287)
(33.4004 -50.0661 119.178)
(23.1973 -37.8364 69.9791)
(30.4809 -38.959 79.1119)
(34.8853 -59.4656 132.28)
(24.7669 -45.5051 81.4678)
(32.2278 -46.99 89.965)
(44.0645 -61.0865 142.189)
(23.789 -33.7342 40.456)
(35.8558 -43.4824 69.2896)
(20.1758 -27.3361 35.0242)
(17.547 -32.4912 37.5834)
(14.3246 -26.0902 32.4759)
(28.6175 -42.0536 65.2859)
(31.3148 -49.5136 72.1121)
(7.94045 -50.1676 74.4602)
(4.58961 -64.0276 122.991)
(12.0458 -75.4771 143.033)
(3.35337 -55.7904 84.409)
(8.30555 -57.5665 87.9548)
(3.19557 -48.7245 70.9849)
(11.5432 -65.4629 126.897)
(13.16 -51.464 79.7169)
(27.3788 -67.9353 138.599)
(20.5162 -60.5503 98.4848)
(20.1695 -77.1587 147.976)
(13.918 -59.0833 92.9078)
(19.1623 -66.8525 132.119)
(19.3274 -52.3751 85.9813)
(46.668 -41.561 98.2728)
(64.8124 -65.2789 164.26)
(62.2688 -54.557 153.022)
(52.1208 -53.0425 140.645)
(38.5066 -40.4481 88.6312)
(39.9337 -48.2975 98.749)
(53.7662 -62.8242 153.192)
(36.2274 -69.3294 146.639)
(27.6437 -62.1321 105.036)
(26.1569 -53.4836 93.2641)
(33.5081 -55.0227 100.868)
(48.5432 -83.5262 170.173)
(35.6948 -64.1635 111.334)
(45.6252 -71.3196 155.952)
(50.9926 -59.2543 114.386)
(68.4252 -77.6342 176.057)
(73.8981 -92.4113 191.106)
(41.6908 -57.0126 107.782)
(60.2967 -87.4196 179.496)
(44.7396 -66.7062 117.436)
(56.2038 -74.0809 165.565)
(12.063 4.23531 4.99463)
(11.9839 3.65657 34.5951)
(0.89729 4.10772 5.5084)
(0.175517 5.42178 36.3863)
(5.24756 -7.24082 5.25846)
(12.2536 -6.82998 4.93447)
(6.00771 -7.78186 22.6523)
(11.1473 -6.48581 23.954)
(7.46163 0.71753 15.81)
(11.4984 4.2799 15.1046)
(8.69083 4.45558 5.16375)
(11.5705 0.46885 5.00485)
(10.9904 0.555581 15.1053)
(8.16223 4.66061 15.5995)
(8.01909 0.650386 5.18401)
(6.99198 0.0987609 23.3312)
(11.0095 4.61752 24.1427)
(7.30742 4.94344 36.7929)
(11.8455 0.391256 33.6031)
(10.4027 0.8627 24.4394)
(7.0171 0.118032 35.949)
(7.59783 4.40432 25.0775)
(4.65867 -0.164184 18.9385)
(4.95358 4.88303 5.33493)
(-0.14142 4.63692 18.9597)
(-0.273282 -0.284469 2.73275)
(-0.328988 -0.344399 19.9384)
(4.33074 4.30335 16.2072)
(4.17062 0.86807 5.49271)
(5.0644 -0.205885 23.8624)
(5.28212 5.48154 35.4425)
(-0.15816 5.08557 23.8699)
(0.1884 0.172872 38.572)
(-0.290068 -0.304409 25.4046)
(5.30304 0.140928 36.5889)
(5.78372 6.14792 22.9495)
(4.60956 -6.55285 15.9605)
(1.29004 -6.39635 5.40635)
(0.166341 -6.75256 18.6574)
(4.8395 -1.97096 18.8364)
(0.000214669 -2.2375 2.74393)
(-0.174783 -1.95734 19.9074)
(4.23628 -3.2478 5.47633)
(11.6757 -6.63045 14.905)
(8.92219 -6.96495 5.09142)
(8.32171 -6.89623 15.4006)
(7.51944 -3.04848 15.741)
(11.5646 -3.14208 4.98174)
(10.9796 -3.04555 15.0355)
(8.03568 -3.18362 5.16102)
(0.0953243 -6.97493 23.5365)
(5.4715 -6.65926 35.099)
(0.371369 -6.62584 35.9748)
(5.24942 -1.88116 23.7644)
(0.253934 -1.57354 38.5074)
(-0.147278 -1.86861 25.3483)
(5.38875 -1.5824 36.5121)
(7.69869 -6.18109 24.9132)
(11.291 -6.18889 31.9222)
(7.14958 -6.54646 34.5996)
(7.14104 -2.19314 23.2848)
(11.8937 -1.46134 33.7187)
(10.4238 -2.8343 24.3839)
(7.10423 -1.55304 35.9251)
(1.70226 3.30145 33.0958)
(1.99236 5.37637 35.9795)
(-0.019845 5.23224 32.7033)
(0.125769 3.64077 37.4873)
(0.0043741 3.52539 33.64)
(1.78058 3.47724 36.8908)
(1.78073 5.14638 32.4218)
(3.46103 -5.17011 28.3976)
(3.77898 -7.3403 23.0927)
(5.30764 -6.92272 27.4659)
(5.54529 -5.60146 23.2222)
(3.6343 -6.57525 27.7517)
(3.88264 -5.71349 23.7304)
(4.94235 -5.27412 27.8951)
(8.17598 1.77302 27.2846)
(8.64485 0.176274 22.5527)
(6.68644 -0.188958 27.9775)
(6.69281 2.07845 23.188)
(8.88364 2.53566 22.457)
(6.53919 1.36472 27.7072)
(8.09937 -0.0302676 27.3379)
(8.99409 4.30669 30.9197)
(9.53026 4.85421 36.5336)
(7.23018 3.86677 34.9976)
(7.37395 5.27228 31.9593)
(8.63005 4.05355 34.8495)
(7.41766 4.24724 31.5534)
(9.09515 5.54071 31.6187)
(10.473 2.5539 30.7299)
(11.9513 2.49744 33.8892)
(12.1743 0.75569 29.4389)
(10.383 0.386386 34.292)
(10.2722 2.24222 34.3354)
(10.5634 0.567521 30.5472)
(12.1431 3.02965 30.0011)
(8.45691 2.23517 30.9917)
(6.91794 0.101181 32.0708)
(6.87643 2.01933 35.293)
(8.72746 0.146502 34.9949)
(8.49263 2.03476 34.6901)
(6.7338 2.17343 31.5649)
(8.65613 0.132432 31.1985)
(3.36446 1.88098 13.7474)
(3.00677 -0.403468 19.1687)
(4.72319 1.47231 18.9255)
(5.35057 0.18396 13.4994)
(5.72427 2.55964 13.4305)
(2.99253 1.11824 19.039)
(3.65395 -0.0778475 13.8763)
(1.88899 3.33535 13.7896)
(0.213451 5.34937 13.5086)
(-0.391977 2.9789 19.1961)
(1.56033 4.69222 18.9406)
(-0.0648889 3.61494 13.9067)
(1.14228 2.96004 19.0576)
(2.62358 5.66112 13.4557)
(1.29901 1.2346 8.57438)
(0.00788313 1.72111 2.69386)
(-0.447952 -0.475732 8.53545)
(1.71886 0.0262318 2.69441)
(-0.40948 1.12764 8.51679)
(1.18328 -0.43274 8.51233)
(2.41251 2.4132 2.75717)
(1.35326 1.31593 14.1356)
(1.30996 -0.427811 19.6075)
(-0.411011 1.28841 19.6082)
(-0.281576 -0.302611 14.362)
(-0.43249 1.62756 14.1415)
(1.22705 1.2075 19.484)