/*--------------------------------*- C++ -*----------------------------------*\
  =========                 |
  \\      /  F ield         | OpenFOAM: The Open Source CFD Toolbox
   \\    /   O peration     | Website:  https://openfoam.org
    \\  /    A nd           | Version:  9
     \\/     M anipulation  |
\*---------------------------------------------------------------------------*/
FoamFile
{
    format      ascii;
    class       surfaceScalarField;
    location    "0.00135";
    object      phi;
}
// * * * * * * * * * * * * * * * * * * * * * * * * * * * * * * * * * * * * * //

dimensions      [0 3 -1 0 0 0 0];

internalField   nonuniform List<scalar> 
32594
(
7.519e-07
7.74089e-07
-1.37468e-05
-6.34671e-06
-7.4618e-06
-3.90014e-06
-2.09789e-06
-8.82849e-12
-1.21766e-10
1.42109e-12
2.8848e-12
9.27258e-13
2.72138e-12
-8.76739e-11
-6.29008e-11
2.25953e-12
3.82272e-12
8.17124e-14
-1.81899e-12
4.9738e-14
9.23706e-14
-3.55271e-14
0
0
1.10237e-10
-4.64356e-09
7.51896e-11
-1.02837e-09
2.50111e-12
1.51346e-12
-1.84031e-11
2.84217e-14
-3.55271e-13
-8.66862e-13
-1.86517e-13
-2.70006e-13
-1.66978e-13
2.30926e-13
7.88702e-13
3.33955e-13
3.17941e-07
3.57765e-07
-1.05362e-06
6.37599e-07
-1.55417e-05
-3.44112e-06
0
1.27898e-13
-2.64677e-13
-1.36779e-13
-5.86198e-13
1.59872e-14
1.47349e-11
3.07763e-11
-1.24576e-11
-8.52562e-12
-4.66418e-11
2.0659e-12
-3.17257e-12
-3.04468e-12
-1.74794e-12
-2.10472e-11
-3.60352e-11
-7.60583e-11
1.01323e-11
1.59446e-11
-5.46924e-10
-3.90617e-09
-4.94662e-11
-3.76156e-10
-7.06155e-11
7.01306e-11
-6.21725e-15
4.88498e-15
-4.17444e-14
5.9952e-15
6.21725e-15
3.06422e-14
8.21565e-15
-1.48326e-13
-6.79456e-14
-1.36335e-13
7.99361e-15
2.66454e-14
1.54543e-13
1.46549e-14
4.88498e-15
8.43769e-15
2.91323e-13
1.26121e-12
3.2685e-13
2.04281e-14
4.79616e-14
3.55271e-15
-6.66134e-15
-1.44773e-13
-1.15463e-14
-1.68754e-13
4.08562e-14
1.49214e-13
-1.68754e-14
8.88178e-15
4.49717e-09
-3.51584e-08
3.69843e-09
-6.53468e-09
5.6945e-09
-1.12773e-07
1.10039e-11
-1.6255e-10
2.70717e-11
5.73763e-12
-3.25273e-11
6.50369e-12
1.24267e-07
-6.95806e-08
-4.01078e-08
-5.13114e-08
8.85504e-08
-9.18445e-07
-1.54241e-06
-8.52046e-07
-1.11959e-06
-2.84027e-07
-3.61117e-07
-3.10604e-07
-3.16356e-07
1.14337e-08
-1.5016e-09
-1.41258e-09
-1.3552e-09
3.53777e-09
7.58947e-09
-3.21285e-07
3.54992e-10
6.46851e-11
-1.4591e-11
-1.13158e-11
-1.36977e-11
1.83816e-10
2.04774e-07
2.24279e-07
2.04498e-07
-6.91804e-07
-6.17253e-07
-1.50458e-06
-7.07227e-07
-8.18359e-07
-8.68983e-07
-6.44036e-07
-8.68065e-07
-8.60329e-07
-8.10355e-07
-8.2434e-07
-8.16812e-07
-1.46987e-08
-3.34156e-09
-1.3396e-07
-1.40103e-08
3.60619e-09
-1.55964e-08
-1.81138e-08
-1.1946e-08
-1.50122e-08
-1.15115e-08
-1.43092e-08
-1.36647e-08
-1.45918e-08
-8.26018e-08
6.65763e-08
-1.35911e-06
1.82527e-06
3.54435e-06
-0.00010806
-1.79362e-05
3.0153e-07
1.63726e-07
-8.53831e-06
8.31577e-11
-1.77828e-08
2.61136e-09
5.70763e-08
2.47038e-08
-5.37608e-07
5.47405e-09
-1.29542e-07
1.11022e-15
1.33227e-15
-5.77316e-15
-2.33147e-14
-1.33227e-15
0
0
9.76996e-15
1.06581e-14
4.44089e-15
-2.84217e-14
1.55431e-15
6.21725e-15
-1.77636e-15
0
-8.88178e-16
1.73195e-14
3.5083e-14
-9.27924e-13
-3.10862e-15
-5.77316e-15
8.88178e-16
5.79536e-14
-7.32303e-13
-5.52447e-13
5.59552e-14
5.66214e-14
-2.43761e-12
-3.63265e-13
1.77636e-15
-2.71139e-12
-2.34255e-10
1.16181e-09
4.6367e-10
-1.33259e-08
1.41244e-08
2.45864e-08
-6.70083e-07
1.97369e-09
1.18463e-09
-5.04407e-08
3.3312e-11
6.47239e-10
3.96243e-10
-5.02482e-10
-7.11498e-11
8.06244e-11
4.69749e-11
8.91716e-10
1.18471e-10
-6.62581e-13
-5.33973e-12
-6.0929e-13
9.23706e-14
1.35003e-13
1.84741e-13
-2.27374e-13
1.95577e-12
-1.43993e-10
-9.86056e-12
1.86517e-13
5.10703e-13
-6.46789e-11
4.93472e-12
-5.32552e-12
-7.88702e-13
-2.02682e-12
-7.04059e-12
3.4639e-13
-3.32403e-10
-1.92751e-10
-9.27347e-11
6.16886e-10
-5.52894e-09
3.30884e-10
-1.31942e-08
4.51118e-10
1.66054e-11
-2.10379e-10
-6.30355e-09
2.1314e-10
-5.25459e-09
-1.59487e-09
-1.90814e-07
9.49162e-09
-4.94483e-08
-6.54504e-10
2.94342e-11
3.04912e-12
-1.04041e-11
3.08864e-12
-3.60867e-12
-8.43325e-13
1.43885e-13
-1.73235e-11
1.85363e-12
9.69003e-12
3.89138e-11
-3.18519e-11
-3.30025e-12
-1.4016e-07
1.01422e-08
1.11309e-08
-1.82749e-07
-1.72945e-07
4.12146e-09
-6.24256e-08
-3.2598e-08
-9.30434e-07
-1.06456e-06
-6.22246e-07
-6.24234e-07
-8.02017e-07
-4.3099e-07
-6.80925e-07
-9.29389e-07
-9.19986e-07
-4.36902e-07
-4.35689e-07
-3.39116e-07
-7.23058e-09
5.56868e-10
1.30585e-06
-1.35571e-06
-1.66359e-06
-2.65211e-06
1.51327e-06
5.88058e-08
-4.87503e-07
-3.97451e-07
-8.43319e-07
-1.30384e-06
-1.29158e-06
8.00309e-09
-6.14251e-08
3.73035e-14
5.32907e-14
6.21725e-15
-2.50999e-12
-1.06581e-14
-1.06581e-14
-6.66134e-15
-5.32907e-15
2.84217e-14
0
-1.06581e-14
-3.55271e-15
-7.10543e-15
-1.77636e-15
-2.27374e-12
1.38689e-12
1.80673e-11
1.54721e-12
2.89901e-12
7.13651e-13
1.33404e-12
6.74572e-13
1.33227e-15
-5.59552e-13
1.77636e-14
-8.88178e-15
2.66454e-15
8.88178e-16
1.33227e-15
4.44089e-16
-4.44089e-16
-1.77636e-15
0
1.77636e-15
0
-4.44089e-16
-4.44089e-16
-4.44089e-16
-4.44089e-16
0
0
1.77636e-15
0
-4.44089e-16
-4.44089e-16
-4.44089e-16
-1.77636e-15
0
0
0
0
0
0
0
0
0
0
3.69909e-11
1.70601e-11
4.46221e-12
-4.98446e-12
-3.06954e-12
-3.49409e-12
-2.21689e-12
5.25802e-13
1.49214e-13
6.03961e-14
-1.06581e-14
-1.24345e-14
-1.06581e-14
-8.88178e-15
7.10543e-15
0
3.55271e-15
0
0
0
0
0
0
0
0
0
0
0
0
0
0
0
0
0
0
0
0
1.47082e-12
1.12266e-12
2.13163e-13
-5.31486e-11
2.84217e-14
1.42109e-14
3.55271e-15
0
0
3.55271e-15
0
0
0
0
0
0
0
0
2.13163e-14
2.13163e-14
3.55271e-15
-8.02913e-13
0
0
0
0
0
0
0
0
0
0
0
0
0
0
0
0
0
-7.10543e-15
0
0
0
0
0
0
0
0
0
0
0
0
0
0
0
0
0
0
0
0
0
0
0
0
0
0
0
0
0
0
0
0
0
0
0
0
0
0
0
0
0
0
0
0
-3.55271e-15
3.55271e-15
3.55271e-15
0
-1.5099e-13
-8.88178e-16
-1.33227e-15
-8.88178e-16
0
7.10543e-15
0
-1.77636e-15
-1.77636e-15
-1.77636e-15
0
-3.33955e-13
-1.66533e-12
1.44329e-13
1.74971e-12
1.20792e-13
6.43929e-14
4.35207e-14
4.36096e-13
1.2923e-13
-8.88178e-16
-4.44089e-16
-5.32907e-14
1.77636e-15
1.77636e-15
0
-4.44089e-16
-4.44089e-16
0
0
-4.44089e-16
0
0
1.77636e-15
0
-4.44089e-16
-4.44089e-16
-4.44089e-16
0
-4.44089e-16
0
0
1.77636e-15
0
-4.44089e-16
-4.44089e-16
-4.44089e-16
0
0
0
0
0
0
0
0
0
0
0
0
3.46745e-12
1.65556e-12
7.88702e-13
-4.61853e-13
-2.94875e-13
-3.2685e-13
-8.52651e-14
4.9738e-14
2.13163e-14
1.06581e-14
-1.77636e-15
-3.55271e-15
-1.77636e-15
-1.77636e-15
0
0
0
0
0
0
0
0
0
0
0
0
0
0
0
0
0
0
0
0
0
0
0
1.49214e-13
1.13687e-13
4.26326e-14
-4.9809e-12
0
0
0
0
0
0
0
0
0
0
0
0
0
0
0
0
0
-8.52651e-14
0
0
0
0
0
0
0
0
0
0
0
0
0
0
0
0
0
0
0
0
0
0
0
0
0
0
0
0
0
0
0
0
0
0
0
0
0
0
0
0
0
0
0
0
0
0
0
0
0
0
0
0
0
0
0
0
0
0
0
0
0
0
0
-4.44089e-16
1.77636e-15
0
0
-1.06581e-14
-4.44089e-16
-4.44089e-16
0
0
0
0
0
0
0
-1.13687e-13
0
-4.44089e-16
-5.32907e-15
0
1.77636e-15
0
-4.44089e-16
-4.44089e-16
-4.44089e-16
0
-4.44089e-16
0
0
1.77636e-15
0
-4.44089e-16
-4.44089e-16
-4.44089e-16
0
-4.44089e-16
0
0
1.77636e-15
0
-4.44089e-16
-4.44089e-16
-4.44089e-16
0
0
0
0
0
0
0
0
0
0
0
0
3.41061e-13
1.7053e-13
5.32907e-14
-5.32907e-14
-3.37508e-14
-3.37508e-14
-8.88178e-15
7.10543e-15
0
0
0
0
0
0
0
0
0
0
0
0
0
0
0
0
0
0
0
0
0
0
0
0
0
0
0
0
0
1.42109e-14
7.10543e-15
3.55271e-15
-4.83169e-13
0
0
0
0
0
0
0
0
0
0
0
0
0
0
0
0
0
-7.10543e-15
0
0
0
0
0
0
0
0
0
0
0
0
0
0
0
0
0
0
0
0
0
0
0
0
0
0
0
0
0
0
0
0
0
0
0
0
0
0
0
0
0
0
0
0
0
0
0
0
0
0
0
0
0
0
0
0
0
0
0
0
0
0
0
-4.44089e-16
1.77636e-15
0
0
-1.77636e-15
-4.44089e-16
-4.44089e-16
-4.44089e-16
0
0
0
0
0
0
-1.42109e-14
0
-4.44089e-16
0
0
1.77636e-15
0
-4.44089e-16
-4.44089e-16
-4.44089e-16
0
-4.44089e-16
0
0
1.77636e-15
0
-4.44089e-16
-4.44089e-16
-4.44089e-16
0
-4.44089e-16
0
0
1.77636e-15
0
-4.44089e-16
-4.44089e-16
-4.44089e-16
0
0
0
0
0
0
0
0
0
0
0
0
1.42109e-14
7.10543e-15
3.55271e-15
-1.77636e-15
-1.77636e-15
-1.77636e-15
0
0
0
0
0
0
0
0
0
0
0
0
0
0
0
0
0
0
0
0
0
0
0
0
0
0
0
0
0
0
0
0
0
0
-1.42109e-14
0
0
0
0
0
0
0
0
0
0
0
0
0
0
0
0
0
0
0
0
0
0
0
0
0
0
0
0
0
0
0
0
0
0
0
0
0
0
0
0
0
0
0
0
0
0
0
0
0
0
0
0
0
0
0
0
0
0
0
0
0
0
0
0
0
0
0
0
0
0
0
0
0
0
0
0
0
0
0
0
1.34781e-13
-7.04548e-12
4.54747e-13
2.70894e-14
5.46674e-13
-1.45572e-12
-1.55431e-15
-3.4639e-14
3.10862e-15
6.66134e-16
4.88498e-15
-7.54952e-15
2.22045e-16
-4.44089e-16
0
0
0
0
0
0
0
0
-1.77636e-15
0
0
0
0
0
0
0
4.17444e-14
-1.67333e-11
3.37508e-14
5.18696e-13
3.0731e-13
0
-4.44089e-16
0
0
0
0
-4.44089e-16
-2.66454e-15
-8.88178e-16
0
-4.44089e-16
0
0
1.77636e-15
0
-4.44089e-16
-4.44089e-16
-4.44089e-16
0
-4.44089e-16
0
0
1.77636e-15
0
-4.44089e-16
-4.44089e-16
-4.44089e-16
0
0
0
0
0
0
0
0
0
0
0
0
0
0
0
-2.4869e-14
-3.55271e-15
-1.77636e-15
-5.32907e-15
0
0
-3.55271e-15
0
0
0
0
0
0
-3.55271e-15
0
0
0
0
0
0
0
0
0
0
0
0
0
0
0
0
0
0
0
0
0
0
0
0
0
0
0
0
0
0
0
0
0
0
0
0
0
0
0
0
0
0
0
0
0
0
0
0
0
0
0
0
0
0
0
0
0
0
0
0
0
0
0
0
0
0
0
0
0
0
0
0
0
0
0
0
0
0
0
0
0
0
0
0
0
0
0
0
0
0
0
0
0
0
0
0
0
0
0
0
0
0
0
0
-2.35331e-10
5.3614e-11
3.06351e-11
4.14619e-11
-1.05635e-09
3.98792e-13
-2.11511e-11
-2.98428e-12
-5.86198e-13
1.02496e-12
9.69891e-13
1.24345e-14
-8.06466e-13
-1.74083e-13
-1.24345e-14
3.90799e-14
3.90799e-14
0
-2.13163e-14
-5.32907e-15
0
0
0
0
0
0
-7.10543e-15
0
0
0
0
0
0
0
0
0
0
0
1.91847e-13
1.98952e-13
1.91847e-13
-2.04281e-14
-3.19744e-14
-2.13163e-14
-3.19567e-12
-1.03206e-12
-7.40741e-13
-6.11067e-13
0
7.10543e-15
3.55271e-15
0
0
0
0
-7.4607e-14
-2.66454e-14
-6.39488e-14
-3.01981e-14
0
0
-3.55271e-15
0
0
0
0
-1.77636e-15
0
-1.77636e-15
0
0
0
0
0
0
0
0
0
0
0
0
0
0
0
0
0
0
0
0
0
7.10543e-15
7.10543e-15
0
-1.77636e-13
0
0
-3.55271e-15
0
0
-3.55271e-15
0
0
0
0
0
0
0
0
0
0
0
0
0
0
0
0
0
0
0
0
0
0
0
0
0
0
0
0
0
0
0
0
0
0
0
0
0
0
0
0
0
0
0
0
0
0
0
0
0
0
0
0
0
0
0
0
0
0
0
0
0
0
0
0
0
0
0
0
0
0
0
0
0
0
0
0
0
0
0
0
0
0
0
0
0
0
0
0
0
0
0
0
4.69669e-12
8.47677e-12
4.53682e-12
-2.60997e-10
-2.10587e-12
-6.28031e-12
-3.9444e-12
-1.94689e-12
3.05533e-13
4.68958e-13
2.13163e-13
-1.55751e-11
-1.93623e-13
-1.12799e-13
-1.0747e-13
1.42109e-14
1.42109e-14
7.10543e-15
-5.7554e-13
-4.44089e-15
-3.55271e-15
-3.55271e-15
0
0
0
-1.42109e-14
0
0
0
0
0
0
0
0
0
0
9.9476e-14
1.98952e-13
1.06581e-13
7.10543e-15
7.10543e-15
3.55271e-15
0
0
-3.55271e-15
0
0
0
0
0
0
0
0
0
7.10543e-15
0
-2.13163e-14
0
0
0
0
0
0
0
0
0
0
0
0
0
0
0
0
0
0
0
0
0
0
0
0
0
0
0
0
0
0
0
0
0
0
0
0
0
0
0
0
0
0
0
0
0
0
0
0
0
0
0
0
0
0
0
0
0
0
0
0
0
0
0
0
0
0
0
0
0
0
0
0
0
0
0
0
0
0
0
0
0
0
0
0
0
0
0
0
0
0
0
0
0
0
0
0
0
0
1.7053e-13
2.98428e-13
2.02505e-13
-6.51568e-12
7.10543e-15
1.42109e-14
1.06581e-14
-3.33955e-13
0
0
0
-1.42109e-14
0
0
0
0
0
0
0
0
0
0
0
7.10543e-15
7.10543e-15
7.10543e-15
-5.68434e-14
0
0
0
0
0
0
0
0
0
0
0
0
0
0
0
0
0
0
0
0
0
0
0
0
0
0
0
0
0
0
0
0
0
0
0
0
0
0
0
0
0
0
0
0
0
0
0
0
0
0
0
0
0
0
0
0
0
0
0
0
0
0
0
0
0
0
0
0
0
0
0
0
0
0
0
0
0
0
0
0
0
0
0
0
0
0
0
0
0
0
0
0
0
0
0
0
0
0
0
0
0
0
0
0
0
0
0
0
0
0
0
0
0
0
0
0
0
7.10543e-15
7.10543e-15
-1.35003e-13
0
0
0
-7.10543e-15
0
0
0
0
0
0
0
0
0
0
0
0
0
0
0
0
0
0
0
0
0
0
0
0
0
0
0
0
0
0
0
0
0
0
0
0
0
0
0
0
0
0
0
0
0
0
0
0
0
0
0
0
0
0
0
0
0
0
0
0
0
0
0
0
0
0
0
0
0
0
0
0
0
0
0
0
0
0
0
0
0
0
0
0
0
0
0
0
0
0
0
0
0
0
0
0
0
0
0
0
0
0
0
0
0
0
0
0
0
0
0
0
0
0
0
0
0
0
0
0
0
0
0
0
0
0
0
0
0
0
0
0
0
0
0
0
0
0
0
0
0
0
0
0
0
0
0
0
0
0
0
0
0
0
0
0
0
0
0
0
0
0
0
0
0
0
0
0
0
0
0
0
0
0
0
0
0
0
0
0
0
0
0
0
0
0
0
0
0
0
0
0
0
0
0
0
0
0
0
0
0
0
0
0
0
0
0
0
0
0
0
0
0
0
0
0
0
0
0
0
0
0
0
0
0
0
0
0
0
0
8.3844e-13
2.76001e-12
1.4122e-13
7.54952e-15
-2.53131e-14
6.21725e-15
-5.10703e-14
6.66134e-16
-5.71099e-13
1.31228e-13
-2.30038e-13
3.2907e-13
6.4615e-13
5.77316e-15
-1.5099e-14
1.33227e-15
-1.9984e-15
4.44089e-15
-2.62013e-14
4.44089e-16
8.88178e-16
0
0
0
0
0
0
-4.44089e-16
0
0
0
4.44089e-16
0
0
0
0
0
0
0
0
0
0
4.44089e-16
0
0
0
4.44089e-16
0
0
0
0
0
4.44089e-16
0
0
0
0
-1.56319e-13
2.22045e-16
4.44089e-16
6.21725e-15
0
0
0
0
4.44089e-16
0
0
0
-6.61693e-14
-8.88178e-16
0
8.88178e-16
2.66454e-15
4.44089e-16
0
0
0
0
4.44089e-16
0
0
0
0
0
5.32907e-15
0
-2.02505e-13
1.77636e-15
0
-4.44089e-16
0
-4.44089e-16
0
0
1.59872e-14
2.30926e-14
-9.91207e-13
-4.44089e-15
-4.44089e-15
-1.33227e-15
-3.10862e-15
3.55271e-15
0
-1.04805e-13
0
0
-4.44089e-16
-4.44089e-16
-4.44089e-16
0
0
0
-6.07514e-13
8.61533e-14
5.24025e-14
2.17604e-14
4.92939e-14
6.15508e-12
6.34159e-13
7.37188e-14
5.02709e-13
7.42162e-12
-1.5099e-13
6.16396e-13
2.20268e-13
3.01537e-13
-2.61124e-13
2.2915e-13
7.10543e-14
1.55431e-14
1.86517e-14
2.39808e-14
3.37153e-12
4.92939e-13
3.58824e-13
5.77316e-14
-3.55271e-15
0
0
0
0
3.73035e-14
2.66454e-15
1.77636e-15
3.55271e-15
5.32907e-15
-7.10543e-15
4.44089e-16
0
0
-3.55271e-15
0
0
0
0
0
2.84217e-14
2.66454e-15
3.55271e-15
0
1.77636e-15
0
-4.44089e-16
-4.44089e-16
-4.44089e-16
0
0
0
0
0
1.77636e-15
-4.44089e-16
-4.44089e-16
-4.44089e-16
1.77636e-15
0
0
-4.44089e-16
-4.44089e-16
-4.44089e-16
0
0
0
0
1.77636e-15
-8.88178e-16
-4.44089e-16
-4.44089e-16
-4.44089e-16
0
0
0
0
0
1.77636e-15
-4.44089e-16
-4.44089e-16
-4.44089e-16
0
-8.88178e-16
0
0
0
0
0
0
0
0
8.17124e-14
2.92211e-13
7.03881e-14
8.88178e-16
-2.66454e-15
8.88178e-16
-7.99361e-15
4.44089e-16
4.44089e-16
-4.44089e-16
0
0
4.44089e-16
-1.77636e-15
0
0
0
0
4.44089e-16
0
0
0
4.44089e-16
0
0
0
0
0
4.44089e-16
0
0
0
0
0
0
0
0
4.44089e-16
0
0
0
4.44089e-16
0
0
0
0
0
4.44089e-16
0
0
0
0
-1.28786e-14
-4.44089e-16
0
0
4.44089e-16
0
0
0
0
4.44089e-16
0
0
0
-1.33227e-15
0
0
0
0
4.44089e-16
0
0
0
0
0
0
0
0
0
0
1.77636e-15
0
-2.84217e-14
0
0
0
0
0
0
0
1.77636e-15
1.77636e-15
-3.37508e-14
-4.44089e-16
-4.44089e-16
0
-4.44089e-16
0
0
-1.42109e-14
0
0
0
0
0
0
0
0
-5.68434e-14
1.24345e-14
4.44089e-15
1.33227e-15
3.10862e-15
5.54223e-13
1.87406e-13
2.39808e-14
4.79616e-14
-1.95399e-14
1.77636e-14
4.44089e-15
4.44089e-16
8.88178e-16
8.88178e-16
-5.73763e-13
2.0961e-13
3.9968e-14
2.30926e-14
1.59872e-14
4.44089e-15
1.77636e-15
0
-4.44089e-16
-4.44089e-16
-4.44089e-16
3.55271e-15
8.88178e-16
0
0
0
1.77636e-15
-4.44089e-16
-4.44089e-16
-4.44089e-16
1.77636e-15
0
0
-4.44089e-16
-4.44089e-16
-4.44089e-16
1.77636e-15
0
0
0
1.77636e-15
0
-4.44089e-16
-4.44089e-16
-4.44089e-16
0
0
0
0
0
1.77636e-15
-4.44089e-16
-4.44089e-16
-4.44089e-16
1.77636e-15
0
0
-4.44089e-16
-4.44089e-16
-4.44089e-16
0
0
0
0
1.77636e-15
0
-4.44089e-16
-4.44089e-16
-4.44089e-16
0
0
0
0
0
1.77636e-15
-4.44089e-16
-4.44089e-16
-4.44089e-16
0
0
0
0
0
0
0
0
0
0
0
0
0
-8.88178e-16
0
0
4.44089e-16
0
0
0
0
0
0
0
0
4.44089e-16
0
0
0
4.44089e-16
0
0
0
0
0
4.44089e-16
0
0
0
0
0
0
0
0
4.44089e-16
0
0
0
4.44089e-16
0
0
0
0
0
4.44089e-16
0
0
0
0
-4.44089e-16
0
0
0
0
0
0
0
0
4.44089e-16
0
0
0
4.44089e-16
0
0
0
0
0
4.44089e-16
0
0
0
0
0
0
0
0
0
0
0
0
-7.10543e-15
0
0
0
0
0
0
0
1.77636e-15
0
-7.10543e-15
-4.44089e-16
-4.44089e-16
-4.44089e-16
0
0
-3.55271e-15
0
0
0
0
0
0
0
0
-3.55271e-15
8.88178e-16
4.44089e-16
0
0
-2.13163e-13
5.86198e-14
1.68754e-14
-1.77636e-14
1.77636e-15
3.55271e-15
0
1.77636e-15
0
-4.44089e-16
-4.44089e-16
-4.44089e-16
-5.15143e-14
1.95399e-14
3.55271e-15
3.55271e-15
1.77636e-15
0
1.77636e-15
0
-4.44089e-16
-4.44089e-16
-4.44089e-16
0
0
0
0
0
1.77636e-15
-4.44089e-16
-4.44089e-16
-4.44089e-16
1.77636e-15
0
0
-4.44089e-16
-4.44089e-16
-4.44089e-16
0
0
0
0
1.77636e-15
0
-4.44089e-16
-4.44089e-16
-4.44089e-16
0
0
0
0
0
1.77636e-15
-4.44089e-16
-4.44089e-16
-4.44089e-16
1.77636e-15
0
0
-4.44089e-16
-4.44089e-16
-4.44089e-16
0
0
0
0
1.77636e-15
0
-4.44089e-16
-4.44089e-16
-4.44089e-16
0
0
0
0
0
1.77636e-15
-4.44089e-16
-4.44089e-16
-4.44089e-16
0
0
0
0
0
0
0
0
0
0
0
4.44089e-16
0
0
0
0
4.44089e-16
0
-4.44089e-16
0
-4.44089e-16
0
0
0
0
4.44089e-16
0
0
0
4.44089e-16
0
0
0
0
0
4.44089e-16
0
0
0
0
0
0
0
0
4.44089e-16
0
0
0
4.44089e-16
0
0
0
0
0
4.44089e-16
0
0
0
0
0
0
0
0
0
0
0
0
0
4.44089e-16
0
0
0
4.44089e-16
0
0
0
0
0
4.44089e-16
0
0
0
0
0
0
0
0
0
0
0
0
-1.77636e-15
0
0
0
0
0
0
0
1.77636e-15
0
0
-4.44089e-16
-4.44089e-16
-4.44089e-16
0
0
0
0
0
0
0
0
0
0
0
1.77636e-15
0
-4.44089e-16
-4.44089e-16
-4.44089e-16
-7.10543e-15
1.77636e-15
0
-1.77636e-15
0
0
1.77636e-15
0
-4.44089e-16
-4.44089e-16
-4.44089e-16
-1.77636e-15
-8.88178e-16
0
0
-8.88178e-16
0
0
1.77636e-15
-8.88178e-16
-4.44089e-16
-4.44089e-16
-4.44089e-16
0
0
0
0
0
1.77636e-15
-4.44089e-16
-4.44089e-16
-4.44089e-16
1.77636e-15
0
-4.44089e-16
-4.44089e-16
-4.44089e-16
-8.88178e-16
0
0
0
0
1.77636e-15
0
-4.44089e-16
-4.44089e-16
-4.44089e-16
0
0
0
0
0
1.77636e-15
-4.44089e-16
-4.44089e-16
-4.44089e-16
1.77636e-15
0
-4.44089e-16
-4.44089e-16
-4.44089e-16
0
0
0
0
0
1.77636e-15
-8.88178e-16
-4.44089e-16
-4.44089e-16
-4.44089e-16
0
0
0
0
0
1.77636e-15
-4.44089e-16
-4.44089e-16
-4.44089e-16
0
-8.88178e-16
0
0
0
0
0
0
0
0
-1.02141e-14
-4.49418e-13
-9.37028e-14
3.10862e-14
6.66134e-15
4.57412e-14
-1.33227e-15
0
-8.88178e-16
-4.44089e-16
0
4.44089e-16
0
0
0
1.47438e-12
2.1263e-12
-5.93783e-11
-2.20375e-11
-1.03251e-13
-9.99201e-15
-7.59393e-14
8.49099e-13
2.38032e-13
1.3145e-13
-5.60263e-12
7.99361e-15
7.32747e-15
4.21885e-15
4.35207e-14
4.26326e-14
-6.85674e-13
7.4607e-14
1.06581e-14
8.88178e-16
1.11022e-15
2.22045e-15
4.44089e-16
5.32907e-15
1.06581e-14
0
4.44089e-16
0
2.22045e-16
2.22045e-16
-2.22045e-16
-5.77316e-15
-8.88178e-16
0
0
4.44089e-16
0
0
0
0
4.44089e-16
0
0
0
1.59872e-14
2.66454e-14
-6.16396e-13
8.88178e-16
4.44089e-16
8.88178e-16
1.77636e-15
5.32907e-15
1.77636e-15
-1.06581e-13
0
0
0
8.88178e-16
0
3.55271e-15
8.88178e-16
-2.22045e-16
-2.22045e-16
-2.22045e-16
0
0
0
8.88178e-16
-2.22045e-16
-2.22045e-16
-2.22045e-16
-2.22045e-16
2.22045e-16
0
4.44089e-16
0
0
0
0
0
0
0
0
0
0
0
0
0
-1.24345e-14
-2.22045e-16
0
-2.22045e-16
8.88178e-16
0
-1.77636e-15
0
8.88178e-16
-2.22045e-16
-2.22045e-16
-2.22045e-16
0
0
8.88178e-16
-2.22045e-16
-2.22045e-16
-2.22045e-16
-2.22045e-16
0
0
8.88178e-16
-2.22045e-16
-2.22045e-16
-2.22045e-16
-2.22045e-16
2.77112e-13
-6.60982e-12
-9.89431e-13
-3.40528e-12
-8.72191e-13
-1.0202e-10
1.06581e-13
-5.50671e-13
-1.15463e-13
-2.43361e-13
-8.88178e-14
-1.40759e-11
1.77636e-14
-1.24345e-13
-3.37508e-14
-7.4607e-14
-2.66454e-14
-4.43379e-12
-5.86198e-14
-8.21565e-14
3.73035e-14
4.61853e-14
1.59872e-14
-1.24345e-14
-7.63833e-14
-1.06581e-14
-8.81073e-13
3.55271e-15
-1.77636e-14
-5.32907e-15
-1.06581e-14
-3.55271e-15
-5.96856e-13
9.51283e-11
4.11338e-11
2.24563e-11
-6.4031e-12
-3.90199e-10
-2.96723e-10
-3.92841e-12
1.68843e-12
9.0683e-13
3.34177e-13
1.70308e-13
-6.79146e-12
0
0
0
0
-1.77636e-15
0
0
-1.77636e-15
0
-5.68434e-14
1.4295e-08
1.72357e-08
1.53791e-08
-1.53791e-07
-2.60971e-07
1.78977e-11
-1.00965e-10
-2.05533e-11
3.00471e-11
-3.58416e-10
5.9508e-13
-6.13554e-12
-5.8531e-13
1.1422e-12
-1.29372e-11
1.42109e-14
-1.72307e-13
-1.15463e-14
3.55271e-14
-3.606e-13
7.10543e-15
3.55271e-15
-8.88178e-16
-8.88178e-16
-3.55271e-15
-8.88178e-16
-1.42109e-14
-1.24345e-14
-1.88294e-13
-1.86517e-13
-1.56319e-13
0
0
2.21142e-10
2.38078e-10
-2.70412e-10
-2.06984e-10
-1.90821e-09
-1.45075e-09
-3.03584e-09
1.56604e-11
1.45093e-11
-1.38138e-11
-2.04161e-10
-1.23213e-10
-1.72129e-10
6.89226e-13
5.08038e-13
-4.34319e-13
-6.02629e-12
-3.33067e-12
-6.38778e-12
2.13163e-14
1.06581e-14
-9.76996e-15
-1.48326e-13
-7.90479e-14
-2.06057e-13
0
0
-7.10543e-15
0
0
5.55644e-12
7.48912e-12
-6.95692e-11
3.62377e-13
3.90799e-13
-3.76588e-12
1.42109e-14
1.42109e-14
-1.49214e-13
0
0
-7.10543e-15
0
0
0
0
0
1.20792e-13
1.81188e-13
-1.42819e-12
7.10543e-15
7.10543e-15
-7.81597e-14
0
0
0
0
0
0
0
0
0
0
0
0
-2.84217e-14
0
0
0
0
0
0
0
0
0
7.77156e-15
2.39808e-14
-3.56382e-12
-2.4647e-14
1.15463e-14
2.08722e-14
-1.43574e-12
5.23137e-12
7.41629e-13
-1.07432e-10
-1.11653e-10
1.5703e-12
3.78364e-13
-7.70495e-13
-7.68718e-13
-2.07745e-12
-2.02105e-12
-8.92975e-11
2.22045e-14
2.6894e-12
5.7554e-13
-4.19789e-11
-6.83507e-11
6.07514e-13
1.92735e-13
-2.98428e-13
-2.94875e-13
-7.2653e-13
-8.16236e-13
-3.49054e-11
1.77636e-14
-1.24345e-14
2.66454e-15
6.43929e-15
-2.58904e-13
-1.77636e-15
-4.44089e-16
8.88178e-16
-3.59712e-14
6.32383e-13
2.01617e-13
-5.68612e-12
-1.49871e-11
8.88178e-14
3.81917e-14
-4.21885e-14
-4.08562e-14
-1.35003e-13
-1.03917e-13
-4.67715e-12
7.10543e-15
2.23821e-13
5.32907e-14
-9.46798e-13
-4.67359e-12
1.77636e-14
7.99361e-15
-5.77316e-15
-3.9968e-15
-1.37668e-14
-1.95399e-14
-9.89431e-13
3.55271e-15
1.77636e-15
-4.44089e-16
0
0
-8.43769e-15
5.09814e-13
1.69642e-13
-2.96652e-13
-1.29408e-12
6.70575e-13
-9.52749e-12
8.88178e-16
0
0
0
-2.66454e-15
1.91847e-13
3.9968e-14
-3.10862e-13
-4.27036e-12
1.06581e-14
3.55271e-15
-8.88178e-16
-3.9968e-15
-3.10862e-15
-3.30402e-13
1.77636e-15
1.47438e-13
2.16716e-13
-4.92495e-13
-5.68434e-14
-5.9508e-14
-1.30562e-13
-4.6505e-12
9.05942e-14
2.30926e-14
-1.7959e-12
3.55271e-15
1.77636e-15
-4.44089e-16
-8.88178e-16
-8.88178e-16
8.88178e-16
-2.21156e-13
1.37224e-13
1.02141e-13
-1.58185e-12
4.44089e-16
0
0
0
-4.44089e-16
2.39808e-14
-1.22125e-14
-2.44249e-15
-5.9508e-14
4.79616e-14
-5.30687e-13
4.44089e-16
0
0
0
0
2.66454e-14
1.06581e-14
-5.9508e-13
3.55271e-15
0
0
0
-4.44089e-16
0
1.59872e-14
2.4869e-14
-1.68754e-14
-4.88498e-15
-3.9968e-15
7.99361e-15
-5.66658e-13
1.06581e-14
2.66454e-15
-2.16716e-13
1.77636e-15
-4.44089e-16
-4.44089e-16
-4.44089e-16
8.88178e-16
1.60004e-10
9.54818e-11
1.15905e-10
-6.55631e-12
-1.18583e-09
-3.21577e-10
7.36579e-10
9.12362e-10
-1.53106e-10
-4.25402e-10
-2.67316e-10
-1.35781e-08
4.56701e-10
-2.14747e-08
9.72133e-12
-2.8221e-11
8.27471e-12
1.31006e-13
-1.00913e-10
2.36255e-13
-1.69997e-12
4.37428e-13
6.32827e-14
-5.33884e-12
1.56676e-09
1.3926e-09
-6.84965e-10
-4.55522e-09
-1.04695e-09
1.35896e-09
-2.32115e-08
-1.4611e-08
-7.39114e-09
1.07043e-10
1.03707e-10
-3.32914e-11
-1.60651e-10
-2.64531e-10
-2.85256e-11
2.1423e-10
-1.16954e-09
4.83507e-11
-9.21019e-12
-1.22535e-11
-3.02574e-11
3.24869e-11
3.7943e-12
-2.42029e-14
-9.81881e-13
-4.32987e-13
4.20908e-12
-8.53273e-12
5.07772e-12
1.22791e-12
5.37348e-13
-6.45604e-11
2.88658e-15
-9.90319e-14
3.4639e-14
8.21565e-15
-3.29514e-13
-2.44249e-15
-1.15463e-14
5.32907e-15
1.33227e-15
-5.37348e-14
1.0461e-11
1.17115e-11
-1.42064e-12
-1.14668e-11
-7.69274e-12
-1.43774e-12
1.1303e-11
-1.69479e-10
2.25597e-12
1.49747e-12
-2.27152e-13
-9.59899e-13
-1.2006e-12
-1.56986e-13
2.64322e-12
-4.27161e-11
4.29878e-13
3.9968e-15
-2.55351e-14
-2.57572e-14
2.35367e-13
5.86198e-14
1.33227e-15
-3.9968e-15
-8.88178e-16
6.03961e-14
6.52811e-14
-2.01617e-13
1.1946e-13
7.77156e-15
-1.48681e-12
2.22045e-16
-1.77636e-15
8.88178e-16
0
-8.88178e-15
0
4.44089e-16
0
0
-4.44089e-16
2.18492e-13
2.57572e-13
-2.42029e-14
-1.69864e-13
-8.92619e-14
-2.53131e-14
2.08722e-13
-4.43023e-12
5.15143e-14
3.19744e-14
5.50671e-14
-4.44089e-15
-1.82077e-14
-2.19824e-14
-2.22045e-15
-9.43245e-13
8.88178e-15
2.22045e-16
-6.66134e-16
-1.11022e-15
5.32907e-15
1.77636e-15
2.66454e-15
-2.22045e-16
0
-2.22045e-16
-2.11897e-12
3.18714e-11
-2.12785e-12
-3.35953e-13
-1.61382e-12
-3.90385e-10
1.39089e-11
6.64047e-12
8.63754e-14
7.8435e-12
-1.95466e-11
5.77316e-15
2.4869e-14
-1.2923e-13
1.24345e-14
3.68594e-14
-8.12683e-14
-1.07043e-11
1.04627e-12
1.91847e-13
1.5099e-14
-9.10383e-15
-3.33067e-15
3.53051e-14
1.91847e-13
-2.67031e-12
2.93987e-13
4.04121e-13
-6.57208e-12
-1.04228e-12
1.0747e-13
5.72875e-14
-1.81721e-12
9.76996e-15
-7.28306e-14
1.82077e-14
2.13163e-14
1.73195e-14
-2.4647e-14
-6.12843e-14
2.39808e-14
3.55271e-15
6.66134e-15
-2.28262e-13
6.17284e-14
6.66134e-16
1.77636e-15
-1.55431e-14
8.88178e-16
1.33227e-15
-3.10862e-15
-2.17604e-14
4.44089e-16
0
-1.06581e-14
0
-8.88178e-16
0
0
0
-2.22045e-16
0
0
0
0
-2.22045e-15
4.44089e-16
-2.22045e-16
0
0
0
0
0
0
-4.44089e-16
0
0
0
0
0
0
0
0
0
0
0
0
0
0
0
-1.14575e-13
-2.63789e-13
-2.22045e-15
1.77636e-14
5.55112e-15
9.32587e-15
1.31006e-13
4.50751e-14
3.10418e-13
3.86358e-13
8.27782e-13
2.30704e-12
2.40918e-13
2.4647e-14
3.32179e-13
8.23785e-14
2.04281e-14
2.22045e-15
-1.90958e-14
0
4.44089e-16
0
-2.22045e-15
4.44089e-16
3.33067e-15
2.08722e-14
4.88498e-15
-4.21885e-14
1.55431e-15
6.21725e-15
0
0
5.77316e-15
-5.9508e-14
-1.50546e-13
4.44089e-15
9.32587e-15
3.42837e-13
1.27365e-12
-2.04281e-14
3.73035e-14
1.22125e-14
-7.83817e-14
7.01661e-14
9.32587e-14
3.13083e-14
1.86517e-13
4.88498e-15
1.9984e-15
1.33227e-15
-9.32587e-15
4.44089e-16
4.44089e-15
-3.55271e-14
5.32907e-15
0
-8.88178e-16
0
0
-5.32907e-15
6.21725e-15
2.44249e-15
0
0
0
0
0
0
0
0
0
0
0
0
4.44089e-16
4.44089e-16
0
0
0
0
0
0
0
0
0
0
0
0
0
0
0
0
0
0
0
0
0
0
0
0
0
0
4.44089e-16
0
0
0
0
0
0
0
0
0
0
0
0
0
0
0
0
0
0
0
0
0
0
0
0
0
0
0
0
0
0
0
0
0
0
0
0
0
0
0
0
0
0
0
0
0
0
0
0
0
0
0
0
0
0
0
0
0
0
0
0
0
0
0
0
0
0
0
0
0
0
0
0
0
0
0
0
0
0
0
0
0
0
0
0
0
0
0
0
0
4.44089e-16
5.77316e-15
-1.44329e-13
4.44089e-16
9.32587e-15
-1.74971e-13
8.43769e-15
8.88178e-16
-1.54543e-13
-4.44089e-16
0
0
0
0
4.44089e-16
8.88178e-16
0
8.88178e-16
0
0
0
0
0
0
0
0
0
0
0
0
0
0
0
0
0
0
8.88178e-16
3.9968e-15
-7.06102e-14
0
1.77636e-15
-4.88498e-14
2.66454e-15
4.44089e-16
-5.77316e-14
0
0
0
0
0
0
0
4.44089e-16
0
0
0
0
0
0
0
0
0
0
0
0
0
0
0
0
0
0
-8.88178e-16
-1.37668e-14
8.88178e-16
-7.99361e-15
4.44089e-16
1.19904e-14
6.21725e-15
3.33067e-14
1.77636e-14
4.08562e-14
1.77636e-15
1.90958e-14
-1.38112e-13
6.43929e-15
0
0
-8.88178e-16
0
0
0
0
2.22045e-15
1.33227e-15
4.44089e-16
-2.66454e-15
0
4.44089e-16
0
0
4.44089e-16
0
-4.44089e-16
0
-4.44089e-16
0
-2.22045e-15
4.44089e-16
0
0
0
0
-4.44089e-16
4.44089e-16
0
-6.66134e-15
0
-1.28786e-14
0
0
0
0
0
0
0
0
0
0
0
0
0
0
0
0
0
0
0
0
0
0
0
0
0
0
0
0
0
0
0
0
0
0
0
0
0
0
0
0
0
0
0
0
0
0
0
0
0
0
0
0
0
0
0
0
0
0
0
0
0
0
0
0
0
0
0
0
0
0
0
0
0
0
0
0
0
0
0
0
0
0
0
0
0
0
0
0
0
0
0
0
0
0
0
0
0
0
0
0
0
0
0
0
0
0
0
0
0
0
0
0
0
0
0
0
0
0
0
0
0
0
0
0
0
0
0
0
0
0
2.22045e-16
4.44089e-16
-1.24345e-14
0
4.44089e-16
-7.10543e-15
4.44089e-16
0
-8.88178e-15
0
0
0
0
0
0
0
0
0
0
0
0
0
0
0
0
0
0
0
0
0
0
0
0
0
0
0
0
0
-1.77636e-15
0
0
-1.33227e-15
0
0
-8.88178e-16
0
0
0
0
0
0
0
0
0
0
0
0
0
0
0
0
0
0
0
0
0
0
0
0
0
0
0
0
0
0
0
0
0
0
0
0
-4.44089e-15
0
0
0
0
0
0
0
0
-2.22045e-15
0
0
0
0
0
0
0
0
0
0
0
0
0
0
-4.44089e-16
0
-8.88178e-16
0
0
0
0
0
0
0
0
0
0
0
0
0
0
0
0
0
0
0
0
0
0
0
0
0
0
0
0
0
0
0
0
0
0
0
0
0
0
0
0
0
0
0
0
0
0
0
0
0
0
0
0
0
0
0
0
0
0
0
0
0
0
0
0
0
0
0
0
0
0
0
0
0
0
0
0
0
0
0
0
0
0
0
0
0
0
0
0
0
0
0
0
0
0
0
0
0
0
0
0
0
0
0
0
0
0
0
0
0
0
0
0
0
0
0
0
0
0
0
0
0
0
0
0
0
0
0
0
0
0
0
0
-4.44089e-16
0
0
-4.44089e-16
0
0
0
0
0
0
0
0
0
0
0
0
0
0
0
0
0
0
0
0
0
0
0
0
0
0
0
0
0
0
0
0
0
0
0
0
0
0
0
0
0
0
0
0
0
0
0
0
0
0
0
0
0
0
0
0
0
0
0
0
0
0
0
0
0
0
0
0
0
0
0
0
0
0
0
0
0
0
0
0
0
0
0
0
0
0
0
-4.44089e-16
0
0
0
0
0
0
0
-1.33227e-15
0
-8.88178e-16
0
-6.66134e-16
0
0
-1.33227e-15
-4.21885e-15
0
0
0
0
0
0
0
0
0
0
0
0
0
0
0
0
0
0
0
0
0
0
0
0
0
0
0
0
0
0
0
0
0
0
0
0
0
0
0
0
0
-2.22045e-16
0
0
0
0
0
0
0
0
0
0
0
0
0
0
0
0
0
0
0
0
0
0
0
0
0
0
0
0
0
0
0
0
0
0
0
0
0
0
0
0
0
0
0
0
0
0
0
0
0
0
0
0
0
0
0
0
0
0
0
0
0
0
0
0
0
0
0
0
0
0
0
0
0
0
0
0
0
0
0
0
0
0
0
0
0
0
0
0
0
0
0
0
0
0
0
0
0
0
0
0
0
0
0
0
0
0
0
0
0
0
0
0
0
0
0
0
0
0
0
0
0
0
0
0
0
0
0
0
0
0
0
0
0
0
0
0
0
0
0
0
0
0
0
0
0
0
0
0
0
0
0
0
0
0
0
0
0
0
4.21885e-15
1.59872e-14
-1.44329e-13
1.5099e-14
2.04281e-14
-3.14859e-13
6.21725e-15
-9.81437e-14
3.55271e-15
6.21725e-15
6.66134e-15
-8.88178e-16
-1.33227e-15
4.44089e-16
8.88178e-16
2.22045e-15
2.22045e-16
0
-2.66454e-15
0
0
-3.9968e-15
0
-1.77636e-15
0
0
0
0
0
0
0
0
-2.0138e-10
-9.74812e-09
-2.25397e-09
4.17455e-10
6.08703e-10
2.0815e-09
8.44383e-10
1.48614e-09
-1.73534e-08
-6.77953e-09
3.53661e-10
5.08237e-10
-7.05427e-09
8.88596e-09
-9.32324e-08
-8.42649e-09
-5.10381e-08
1.54028e-09
-1.89681e-08
-8.56462e-09
-2.00728e-13
-2.4635e-11
-5.23315e-12
1.42242e-12
1.95799e-12
2.44214e-11
1.63187e-11
2.04796e-11
-2.62287e-10
-1.94222e-12
4.94182e-12
8.70859e-13
-1.71263e-11
3.67084e-12
9.50173e-11
3.98424e-11
-3.7249e-10
-2.87115e-10
1.25588e-12
1.8523e-12
2.03144e-11
-2.62088e-10
-1.82414e-11
3.70637e-12
-6.66134e-16
-3.37064e-13
-1.16795e-13
3.37508e-14
2.44249e-14
5.40901e-13
3.4861e-14
4.41869e-13
-6.15907e-12
6.59472e-14
1.1946e-13
5.77316e-15
-2.8777e-13
9.41469e-14
1.45839e-12
9.73444e-13
-4.38316e-12
-6.73461e-12
4.35207e-14
2.88658e-14
2.79776e-13
-3.35287e-12
-3.40172e-13
1.01696e-13
2.26485e-14
-3.32978e-12
1.73195e-14
-3.4186e-12
-3.00471e-12
2.70894e-14
2.29017e-12
-2.08944e-13
5.95524e-13
-7.35478e-11
2.66009e-13
-2.48379e-12
-7.16636e-11
4.51861e-13
-6.3646e-11
-7.80549e-11
2.42029e-14
-1.31539e-12
4.88498e-15
-1.11333e-12
-1.11022e-12
1.59872e-14
9.61453e-13
4.78728e-13
-3.02487e-11
-3.91021e-13
-8.04246e-13
2.23155e-13
-2.41545e-11
-2.74709e-11
2.85105e-13
-2.4778e-11
7.32747e-15
-1.98508e-13
4.44089e-16
-1.63425e-13
-1.59872e-13
2.66454e-15
-1.49658e-13
1.15907e-13
4.55191e-14
-3.39062e-12
-1.69198e-13
1.19904e-13
-3.59668e-12
-4.90807e-12
3.70814e-14
-3.25384e-12
1.11022e-15
-3.15303e-14
0
-2.04281e-14
-2.30926e-14
2.22045e-16
2.13163e-14
1.9762e-14
-6.62581e-13
-1.84297e-14
-1.33227e-14
4.44089e-15
-3.9968e-13
-5.59552e-13
5.9952e-15
-4.69402e-13
0
-5.32907e-15
0
-7.99361e-15
-5.77316e-15
0
-3.10862e-15
2.66454e-15
1.33227e-15
-1.10578e-13
-3.9968e-15
2.88658e-15
-1.33227e-13
-1.39e-13
6.66134e-16
-9.32587e-14
-7.32747e-13
3.5083e-14
1.66533e-14
4.57412e-14
-3.04201e-14
-1.37268e-12
6.83009e-13
-9.54925e-12
-4.68292e-13
-3.3018e-13
6.74127e-13
1.76081e-13
-9.55414e-12
-7.02549e-13
-1.44329e-14
-2.84217e-14
4.21885e-14
1.26565e-14
-9.65317e-12
-5.26024e-13
-1.22125e-12
4.30767e-14
-3.21965e-14
4.08562e-14
1.22125e-14
0
-2.66454e-15
0
-2.22045e-15
-2.22045e-15
0
8.88178e-16
8.88178e-16
-6.66134e-16
-8.88178e-16
4.44089e-16
8.88178e-16
0
-4.44089e-16
0
0
-4.44089e-16
0
-4.44089e-16
-4.44089e-16
0
0
-7.10543e-15
0
4.44089e-16
-1.11022e-14
-1.02141e-14
0
-7.54952e-15
0
0
0
0
0
0
0
0
-1.33227e-15
0
0
-3.9968e-15
0
-2.66454e-15
-3.9968e-15
0
2.12319e-12
-6.06323e-10
4.41878e-11
8.61315e-11
-1.358e-09
9.43863e-11
-3.15527e-10
-6.0754e-10
1.90781e-11
3.63083e-11
-4.77853e-10
1.2676e-09
-3.13634e-09
-1.43591e-08
-1.53203e-09
1.86264e-10
3.54189e-10
-9.41125e-09
-6.15427e-09
-1.87005e-08
3.37804e-10
-9.21426e-09
-1.87208e-11
-8.06097e-10
1.0088e-10
7.07105e-11
-9.34599e-11
8.30447e-12
2.69638e-11
-4.32323e-10
-2.13825e-09
4.34023e-10
-3.53028e-10
-4.77614e-09
6.21703e-11
-7.21587e-10
-5.38023e-09
-5.22013e-10
2.80629e-11
3.13305e-13
-3.69402e-11
5.45386e-12
-1.02807e-10
-3.07354e-11
1.01918e-12
-4.32943e-12
-1.08343e-10
1.96296e-11
1.03688e-10
3.31493e-11