/*--------------------------------*- C++ -*----------------------------------*\
  =========                 |
  \\      /  F ield         | OpenFOAM: The Open Source CFD Toolbox
   \\    /   O peration     | Website:  https://openfoam.org
    \\  /    A nd           | Version:  9
     \\/     M anipulation  |
\*---------------------------------------------------------------------------*/
FoamFile
{
    format      ascii;
    class       surfaceScalarField;
    location    "0.00205";
    object      phi;
}
// * * * * * * * * * * * * * * * * * * * * * * * * * * * * * * * * * * * * * //

dimensions      [0 3 -1 0 0 0 0];

internalField   nonuniform List<scalar> 
48530
(
-2.19307
-0.43519
0.328262
-0.37626
0.359273
0.329134
-2.98693e-07
1.20249e-07
1.85281e-07
1.38667e-07
-1.28605e-07
-2.16865e-06
-1.73633e-07
-4.98431e-07
-2.49441e-07
-1.9794e-06
-1.70262e-07
-4.54747e-07
-1.57786e-07
-1.55272e-07
-2.95346e-07
6.07965e-08
-1.00372e-07
-1.84751e-07
4.63608e-08
5.43244e-08
-9.28211e-08
-1.00051e-06
-9.87248e-08
-2.57371e-07
-1.49478e-07
-9.36171e-08
-9.45179e-08
-9.30872e-08
-8.16188e-08
-7.58651e-08
2.1881e-09
-1.24058e-08
1.28829e-09
1.65311e-09
-6.54983e-09
-3.46915e-10
3.66924e-11
4.66969e-11
-1.86475e-10
1.04088e-07
-9.58867e-08
-1.6043e-07
-4.87645e-07
1.12033e-07
2.13903e-08
1.16708e-08
-6.08971e-08
-5.30453e-08
-1.37987e-07
-1.05497e-07
-1.43847e-07
3.24547e-10
-1.64482e-09
-1.67041e-09
-1.25385e-06
-6.5901e-07
-1.11968e-05
-3.57718e-06
-7.43205e-09
3.69164e-07
6.00676e-07
-1.64957e-07
3.01084e-08
-9.25509e-09
1.0807e-10
1.98584
-0.799223
3.68549
-3.93692
-1.90126
1.09945
1.06595e-06
3.86365e-07
3.96741e-06
-3.6314e-05
-4.01124e-05
-1.55764e-05
-1.739e-05
6.7371e-06
-5.09872e-06
-5.24931e-06
-5.75365e-06
-5.75925e-06
-6.18717e-05
4.89663e-06
4.49158e-06
6.61352e-06
-4.79003e-05
-7.61848e-06
-1.19618e-05
-4.51882e-06
-7.361e-06
-1.59103e-05
-1.1077e-05
-1.39952e-05
-6.66203e-06
-4.95356e-06
-6.50587e-06
9.57126e-06
-0.000240418
-4.7784e-05
-3.73985e-05
1.01211e-05
2.28907e-05
-2.81632e-07
-6.79858e-07
-1.70776e-06
1.21088e-07
7.03281e-07
-1.42662e-07
-3.29679e-07
-1.26599e-06
8.36848e-08
9.61577e-08
0.000189596
-0.00340227
-0.000978614
-0.000472767
0.000266769
0.000341058
1.594e-06
-9.39594e-07
-2.11173e-06
-4.64562e-06
1.05328e-06
-6.05755e-06
1.28556e-06
-8.11074e-06
-3.17802e-06
-3.46115e-06
-4.18949e-06
7.49788e-07
-3.0947e-06
-7.12275e-06
3.10424e-07
-9.24544e-07
1.19703e-07
1.06867e-07
-0.00108306
-0.000219116
-0.000107441
4.63229e-05
9.84673e-05
6.32641e-05
6.68942e-06
-3.49061e-05
-1.25036e-05
-7.94081e-05
-1.95335e-05
-1.53514e-06
-1.50102e-06
-1.824e-06
-1.56095e-06
1.33882e-06
-1.32592e-05
-6.6769e-06
-7.90543e-06
-7.68267e-06
-2.00888
1.89475
-0.716272
2.72801
-3.93398
0.97862
-0.215325
0.0189487
-0.00177469
-0.0541444
0.0155098
0.00933388
-0.687655
-1.49075
-3.90263
0.884671
1.30913
1.93225
0.317833
-0.284594
-0.883302
0.265915
-2.17611
0.352461
-0.0273576
-0.0884832
0.0302958
0.015721
0.024982
2.91708
-3.96036
-3.27817
-2.5091
3.20541
3.40632
-5.49952e-06
-5.88829e-06
4.04039e-06
3.56548e-06
-3.46603e-05
3.73524e-06
-0.760223
3.41164
-4.00948
1.20037
1.73395
3.03138
-3.34005
-1.67168
2.72899
1.72018
-3.42809
-0.236623
-1.25158
1.03455
0.422159
1.25193
0.959838
0.258997
-1.03951
1.64082
0.784697
0.94147
-1.3268
2.21458
1.19454e-05
1.22031e-05
1.54159e-05
-0.000206413
-3.53656e-05
-6.34289e-07
-3.56493e-06
1.79365e-07
1.88156e-07
-5.68868e-07
-4.22228e-06
2.75016e-07
-9.32817e-07
-4.3114e-06
-4.72451e-06
-1.69811e-05
1.19601e-06
6.68021e-07
-1.95755e-06
-6.57344e-05
3.62017e-06
-5.66748e-05
-1.27356e-05
0.000248615
0.000430116
-0.00337687
-0.000673342
-0.000131977
-7.08775e-05
2.04157e-05
2.7776e-05
0.00119121
-0.00494752
-0.00259443
0.00162148
0.000608851
-0.00988512
-0.00154113
-0.00264423
7.73695e-05
-0.000203277
7.82843e-05
-0.00911796
-0.0124519
-0.5927
1.60704
1.49163
-3.62724
0.7099
1.5904
2.18996
-3.42121
1.42444
1.29784
-3.1662
-0.182375
0.628855
0.55293
-0.514848
0.120782
0.212293
0.233044
0.474198
0.225304
0.136766
1.17892e-07
2.65466e-06
6.28887e-07
-1.52059e-05
-1.46213e-05
-1.56891e-05
-1.57076e-05
6.00643e-07
-0.000213415
-1.84279e-05
8.12246e-07
3.58008e-05
1.01587e-05
6.63612e-06
4.51342e-06
-0.000154645
-5.21968e-05
-4.90095e-05
-2.21412e-05
-1.043e-05
-4.87793e-06
-5.52114e-06
-8.86246e-06
1.16626e-05
-9.53851e-07
-1.74361e-06
-1.25058e-06
1.4436e-06
9.74772e-07
-1.59358e-05
-5.46608e-06
-7.6946e-06
-7.69032e-06
3.6585e-06
-0.000120493
-0.000368889
-0.00216445
5.58192e-05
0.000148875
8.53374e-05
-0.00480352
-0.000773325
3.2878e-05
0.000348799
0.000240921
-0.000330903
-0.00770905
0.00024003
-0.00123112
0.000542484
-5.24541e-06
4.07925e-06
5.95255e-06
-1.99172e-05
-1.49824e-05
5.39884e-06
0.0100357
-0.0358923
-0.0444307
0.00562904
-0.113383
0.0071767
-0.00238019
-0.00283796
0.000753738
0.00038101
0.000487013
-0.000209506
5.442e-05
-0.000553778
-0.000773904
5.14776e-05
6.64614e-05
0.043602
-0.180271
-0.154332
0.0247897
-0.402684
-0.000519619
-0.000178389
3.91385e-05
4.34775e-05
-0.00049938
7.71629e-05
-0.00364057
0.000994468
0.000598914
0.00135858
-0.0204031
-0.00368556
0.00118727
0.00157193
-0.0497312
0.0172154
-0.0182299
0.0612218
-0.159177
-0.0552667
0.00104585
-0.00984593
0.00475096
-0.121557
-0.011465
0.00180606
-3.21688
-2.84085
2.57605
2.41568
2.15238
-0.0167971
0.00441321
-0.0233462
-0.0700802
0.00454261
0.00407814
-1.61773
-2.49382
-2.46556
1.0453
1.06358
0.673843
3.6704e-05
4.54785e-05
-0.000225584
-0.00078721
-0.000195211
3.98587e-05
-2.68455
-2.3734
-4.11609
2.67978
2.7123
3.45455
-0.765952
-0.45997
0.276058
-1.82069
0.282638
0.204108
-0.544934
-2.04933
-1.16013
0.245192
0.359282
0.352325
-0.00795579
-0.0313691
0.000124911
0.00128525
0.00190854
-1.15175e-06
5.55324e-07
7.08378e-08
4.30111e-07
-2.25882e-06
-2.17209e-06
-2.32154e-06
-2.25585e-06
-1.10172e-06
-1.04421e-06
-1.03142e-06
4.99506e-08
3.32117e-07
4.68831e-08
5.6431e-08
2.73182e-08
4.83625e-08
2.59749e-08
-5.09117e-06
1.84262e-10
-2.04872e-08
1.19965e-09
-6.40323e-10
1.82597e-10
9.14637e-11
1.80066e-10
8.42326e-11
6.81677e-13
-1.28706e-10
-4.28564e-10
-9.00968e-12
1.66889e-12
-2.4527e-12
5.90639e-13
-2.23865e-12
-4.36231e-08
1.32761e-08
-3.4307e-08
2.73247e-08
4.1316e-09
-4.64866e-07
-4.13452e-08
-3.98524e-07
-1.60329e-06
-1.78576e-07
1.36851e-07
2.3578e-07
2.97349e-08
-2.25231e-06
-1.56582e-06
-2.24245e-06
8.1108e-09
1.00066e-09
-2.07767e-08
-3.22946e-09
-1.0847e-08
-2.82804e-09
-7.08718e-08
-8.61925e-08
-6.23416e-08
-8.50616e-08
2.13927e-07
9.60118e-08
5.50603e-08
-1.03727e-07
-2.13059e-08
-6.83004e-08
-1.95887e-08
-6.08187e-07
-7.31466e-07
-1.09243e-06
-1.48121e-06
8.70036e-09
3.28352e-09
1.79722e-09
-2.25461e-10
-4.75957e-11
-1.45119e-10
1.46851e-11
3.60323e-10
7.08198e-11
5.02602e-11
1.04201e-11
-2.56755e-11
9.30989e-12
-1.16263e-11
4.55458e-11
1.29383e-10
8.15703e-12
-1.10903e-09
-7.26187e-09
-5.24903e-10
-3.37941e-09
1.30434e-10
1.87278e-10
1.49498e-11
-8.38266e-09
-1.29142e-09
-3.84351e-09
-7.42007e-10
1.22661e-10
1.48681e-11
3.18444e-08
1.87355e-08
7.86023e-09
-6.97755e-07
1.45006e-09
7.87317e-10
3.10738e-10
5.22462e-11
2.45635e-11
9.96536e-12
1.84031e-12
2.07478e-12
3.94351e-13
8.10019e-13
2.49401e-12
2.59348e-13
1.71241e-12
1.88294e-13
1.88251e-09
1.5201e-09
4.68521e-10
-3.82714e-08
8.18048e-11
5.93658e-11
1.77884e-11
3.04823e-12
1.97531e-12
5.93303e-13
9.9476e-14
7.10543e-14
1.77636e-14
7.10543e-15
2.84217e-14
0
2.13163e-14
0
8.28209e-11
8.2828e-11
2.08402e-11
-1.56204e-09
3.63798e-12
3.21165e-12
8.02913e-13
1.35003e-13
1.06581e-13
2.4869e-14
7.10543e-15
0
0
0
0
0
0
0
3.0127e-12
3.52429e-12
7.63833e-13
1.27898e-13
1.35003e-13
2.84217e-14
7.10543e-15
7.10543e-15
0
0
0
0
0
0
0
0
0
9.23706e-14
2.4869e-14
0
0
0
0
0
0
0
0
0
-0.00109164
-0.00435814
-0.000206887
0.000143678
8.27259e-05
0.000221939
5.55988e-08
1.59781e-08
-1.92601e-06
-1.20435e-07
-5.83376e-07
-4.26363e-08
-6.929e-08
-7.61663e-07
-3.8644e-08
-2.14928e-07
-1.38304e-08
-5.12103e-08
-1.45405e-08
-1.33074e-08
-7.79611e-08
1.47072e-08
9.4971e-08
1.27964e-08
7.54858e-09
5.71016e-09
3.10831e-08
1.27051e-08
-1.49356e-06
-2.56155e-10
5.525e-11
-5.59599e-09
3.09321e-10
-1.79549e-10
8.39693e-11
3.20219e-11
4.06941e-11
1.69629e-11
-1.25855e-12
2.83773e-13
-3.79945e-11
-3.43015e-11
-3.40528e-12
5.55112e-13
-1.55431e-14
2.24265e-13
1.0969e-13
-2.08628e-09
-4.5524e-09
1.06244e-09
-3.92973e-09
2.16979e-09
3.6491e-10
-6.05461e-08
-2.54265e-09
-2.06421e-08
-8.0217e-07
-8.3626e-09
-2.25852e-08
1.3674e-08
2.52227e-08
6.90286e-09
1.08109e-09
1.96927e-10
-2.79766e-09
-4.26366e-10
-1.00592e-09
-3.3957e-10
7.96815e-08
3.82666e-08
2.0291e-08
-2.78611e-08
-6.23942e-09
-1.2531e-08
-6.21997e-09
-3.29753e-07
-3.17064e-07
-3.28746e-07
-4.75323e-07
2.82475e-09
9.5843e-10
6.85347e-10
-1.07274e-11
-2.63061e-11
-1.06013e-11
1.4742e-11
8.01137e-11
1.89573e-11
2.0183e-11
4.23661e-12
-1.34115e-12
2.30571e-12
1.18483e-12
5.02354e-12
7.65965e-12
1.33227e-12
-7.26672e-11
-5.87791e-10
-1.26832e-11
-5.14024e-11
1.6108e-11
2.06271e-11
2.49045e-12
-1.04495e-09
-1.68036e-10
-2.20695e-10
-5.22729e-11
1.68257e-11
3.03757e-12
1.03438e-08
6.68383e-09
3.29529e-09
-1.79754e-07
4.38511e-10
2.36618e-10
1.28534e-10
1.5298e-11
7.11964e-12
4.15312e-12
4.83169e-13
2.62901e-13
1.3145e-13
1.06581e-13
2.70006e-13
4.61853e-14
2.4869e-13
4.26326e-14
5.397e-10
4.53475e-10
1.76691e-10
-1.04577e-08
2.30784e-11
1.70886e-11
7.01661e-12
8.59757e-13
5.68434e-13
2.45137e-13
2.84217e-14
1.42109e-14
3.55271e-15
0
0
0
0
0
2.29718e-11
2.32561e-11
7.85505e-12
-4.47983e-10
1.00187e-12
9.02389e-13
3.12639e-13
3.55271e-14
2.84217e-14
1.06581e-14
0
0
0
0
0
0
0
0
8.17124e-13
9.66338e-13
2.8777e-13
3.55271e-14
3.55271e-14
1.06581e-14
0
0
0
0
0
0
0
0
0
0
0
2.13163e-14
7.10543e-15
0
0
0
0
0
0
0
0
0
-3.26694e-06
4.55137e-07
7.06579e-07
2.58357e-07
-6.54371e-07
-3.47323e-07
-2.21718e-07
-1.95527e-06
-1.92273e-06
-1.08013e-05
-2.31629e-06
-4.67072e-07
-1.07404e-06
-4.62912e-07
-5.02698e-07
1.68831e-09
8.0971e-10
-4.01963e-08
-3.18005e-09
-4.0527e-09
-1.06676e-09
-3.88959e-09
-1.26764e-08
-3.86607e-09
-3.49225e-09
-2.63123e-11
7.46958e-12
-7.35431e-10
4.05489e-11
-4.79456e-11
-1.74687e-11
3.77831e-12
6.09246e-12
2.29017e-12
-2.22933e-13
7.32747e-14
-3.72324e-12
3.76588e-13
-8.49099e-13
5.06262e-14
2.57572e-14
4.84057e-14
1.86517e-14
-3.14984e-11
-5.22959e-12
1.34825e-12
-1.7863e-11
2.53486e-12
1.19549e-12
-8.95946e-11
-1.86473e-12
-9.37028e-12
-2.08684e-08
-9.33351e-11
-1.13259e-09
1.73376e-10
4.43885e-10
1.19834e-10
3.07381e-11
1.18128e-11
-4.12097e-11
-8.54605e-12
-9.07008e-12
-3.2454e-12
1.93691e-08
1.06933e-08
1.49405e-09
-3.53772e-09
-1.3074e-09
-2.88161e-09
-4.68329e-10
-4.72005e-07
6.66006e-10
2.2083e-10
-1.70672e-11
9.27258e-12
-3.93285e-12
-8.27782e-13
7.46248e-12
1.97744e-11
4.30589e-12
1.7053e-12
1.02673e-12
3.71259e-13
5.71987e-13
3.35731e-13
6.11067e-13
2.06057e-13
9.23706e-14
-1.1724e-13
-1.53655e-12
-1.42109e-14
-8.70415e-14
2.62901e-13
2.41585e-13
1.10134e-13
-1.25659e-11
-2.0357e-12
-5.96856e-13
-3.78364e-13
4.68958e-13
1.7053e-13
2.20706e-09
1.56438e-09
2.65967e-10
-3.99637e-08
9.25269e-11
5.42926e-11
1.3646e-11
3.16192e-12
1.55609e-12
5.00933e-13
9.23706e-14
4.26326e-14
1.77636e-14
7.10543e-15
7.10543e-15
0
7.10543e-15
3.55271e-15
9.004e-11
8.79083e-11
1.92522e-11
-1.62302e-09
4.02167e-12
3.32534e-12
8.31335e-13
1.42109e-13
9.9476e-14
2.84217e-14
7.10543e-15
0
0
0
0
0
0
0
3.21876e-12
3.78009e-12
8.7752e-13
-5.75398e-11
1.49214e-13
1.49214e-13
3.55271e-14
7.10543e-15
7.10543e-15
0
0
0
0
0
0
0
0
0
9.9476e-14
1.35003e-13
3.19744e-14
7.10543e-15
7.10543e-15
0
0
0
0
0
0
0
0
0
0
0
0
0
0
0
0
0
0
0
0
0
0
0
-1.34334e-08
-1.17105e-10
3.80684e-10
4.12701e-10
3.65446e-10
-9.3613e-09
-6.77214e-11
-6.71752e-11
-1.92757e-11
2.4059e-11
1.95541e-11
-5.42482e-11
-1.01643e-11
-9.90141e-12
-4.83347e-12
-4.13962e-10
2.10722e-10
-6.59064e-11
-7.93025e-09
3.46578e-10
3.40513e-10
-3.99303e-09
-2.65166e-11
-2.87851e-10
-7.97535e-11
1.02141e-13
6.66134e-15
-1.18838e-11
3.64153e-13
-2.00728e-13
-1.65645e-12
4.44089e-15
9.76996e-15
4.44089e-15
-2.57572e-14
-4.44089e-16
-2.84217e-14
-1.42109e-14
-1.77636e-15
-1.77636e-15
-3.55271e-15
0
-8.88178e-16
-1.27081e-11
-1.42109e-14
-6.10534e-12
6.92779e-14
3.2685e-13
1.93623e-13
5.7554e-13
3.19744e-13
-1.04805e-13
-7.28306e-14
-7.28306e-14
-1.95399e-14
1.48905e-08
1.59082e-08
-3.57485e-10
-3.28758e-08
-9.92131e-09
-4.05032e-07
-3.53356e-08
3.57012e-10
1.9952e-10
-4.42526e-11
-1.4405e-10
-7.9547e-11
-7.13769e-10
-1.01206e-10
6.87095e-12
3.41061e-12
-7.60281e-13
-4.29878e-13
-3.19744e-13
-1.23634e-12
-5.13367e-13
1.27898e-13
3.55271e-14
0
0
-5.32907e-15
-1.77636e-15
0
7.10543e-15
7.10543e-15
3.55271e-15
-1.42109e-14
-1.42109e-14
-3.55271e-15
-7.10543e-15
1.42109e-14
3.55271e-15
5.67304e-10
5.9503e-10
1.51132e-11
-1.12957e-08
2.05063e-11
1.50351e-11
1.02318e-12
6.18172e-13
3.62377e-13
4.9738e-14
1.42109e-14
7.10543e-15
3.55271e-15
0
0
0
0
0
1.71738e-11
2.03642e-11
2.72848e-12
-3.03139e-10
6.75016e-13
6.25278e-13
1.27898e-13
2.13163e-14
1.42109e-14
3.55271e-15
0
0
0
0
0
0
0
0
4.76064e-13
6.39488e-13
1.45661e-13
-7.94387e-12
1.42109e-14
2.13163e-14
3.55271e-15
0
0
0
0
0
0
0
0
0
0
0
7.10543e-15
1.42109e-14
3.55271e-15
0
0
0
0
0
0
0
0
0
0
0
0
0
0
0
0
0
0
0
0
0
0
0
0
0
-0.012498
0.000670402
-0.00102147
0.000876154
-0.00515127
0.000380904
1.98928e-08
-3.98726e-07
3.76093e-08
-2.54758e-08
3.42369e-08
-4.75968e-07
-3.87024e-12
-1.72793e-10
2.98317e-11
3.68749e-12
2.7331e-11
-1.17567e-10
3.83693e-13
-1.12621e-12
-5.10525e-12
-2.39808e-13
-1.06759e-12
3.97904e-13
1.06581e-12
6.96332e-13
-2.99991e-11
-4.24549e-13
-1.56319e-13
-1.35003e-13
-2.969e-05
-1.30027e-06
8.38489e-06
5.36913e-06
-0.000139848
-1.08927e-05
-2.91587e-05
-8.63275e-06
-5.15049e-06
-7.05208e-06
-1.9532e-05
2.51106e-06
-4.47276e-06
-2.33703e-06
-1.60315e-06
1.20406e-08
-6.15072e-07
-1.57168e-06
6.21607e-08
5.86492e-08
1.84984e-09
-1.2138e-07
-3.32222e-07
-9.54682e-08
1.11458e-11
-5.44857e-11
-1.84644e-09
5.07683e-11
2.33236e-11
-2.57065e-11
-1.42588e-11
-1.17633e-10
-4.12226e-11
2.04281e-14
-4.66294e-14
-1.5401e-12
5.86198e-14
1.95399e-14
-1.4122e-13
-2.22045e-14
-2.32259e-13
-8.4821e-14
-7.10543e-14
-5.32907e-15
-5.32907e-15
0
5.32907e-15
-4.44089e-15
2.84217e-14
1.42109e-14
-1.77636e-15
-1.77636e-15
-5.32907e-15
-3.55271e-15
4.40552e-08
7.6842e-08
1.87271e-08
-5.64921e-07
-2.37282e-06
-1.92756e-07
-1.23259e-07
-2.14913e-07
-2.94093e-07
-2.94954e-07
-2.06955e-07
1.13053e-09
8.22844e-10
1.66875e-10
-4.43008e-09
-5.77218e-10
-4.75818e-09
-1.07703e-09
2.03428e-11
1.4964e-11
9.45022e-13
-7.57439e-12
-3.57048e-12
-1.94547e-11
-6.95444e-12
3.41061e-13
1.63425e-13
7.10543e-14
-2.84217e-14
-2.66454e-14
-1.1724e-13
-4.9738e-14
7.10543e-15
7.10543e-15
0
-1.77636e-15
-3.55271e-15
-7.10543e-15
-3.55271e-15
0
0
1.20314e-09
1.87503e-09
2.75332e-10
-1.66342e-08
4.21352e-11
3.53779e-11
5.01998e-12
1.18661e-12
8.17124e-13
7.4607e-14
2.84217e-14
1.42109e-14
0
0
0
0
0
0
3.31326e-11
5.00435e-11
6.21725e-12
-4.73726e-10
1.21503e-12
1.19371e-12
1.42109e-13
2.84217e-14
2.84217e-14
3.55271e-15
0
0
0
0
0
0
0
0
8.10019e-13
1.27898e-12
1.45661e-13
-1.21076e-11
2.84217e-14
3.55271e-14
3.55271e-15
0
0
0
0
0
0
0
0
0
0
0
1.42109e-14
2.84217e-14
3.55271e-15
0
0
0
0
0
0
0
0
0
0
0
0
0
0
0
0
0
0
0
0
0
0
0
0
0
-0.0387591
-0.0252326
-0.0186396
0.00249848
0.00375268
0.00299682
1.03558e-07
-6.18562e-07
-1.0608e-06
-1.1543e-06
9.25234e-08
7.95194e-08
5.77104e-10
-7.10313e-09
-7.22368e-09
-4.54914e-09
8.1814e-10
7.05462e-10
1.3749e-11
-5.52955e-10
-1.56033e-10
-2.53459e-11
3.39675e-11
3.8721e-11
5.93303e-12
8.76099e-12
2.66454e-12
-2.59128e-10
-2.06057e-13
-2.03393e-13
-2.15827e-13
-2.57572e-14
-1.1676e-11
-1.05675e-11
-3.6362e-12
-4.05187e-12
3.83693e-13
1.10134e-13
-7.90124e-12
1.912e-07
8.66542e-08
-2.08114e-07
-1.62093e-07
-4.3027e-07
2.1713e-07
1.72368e-08
1.42983e-08
6.48387e-09
-2.34742e-08
-4.60748e-09
-3.37651e-09
-2.93225e-09
-1.74731e-07
-2.8674e-08
-2.2896e-08
-8.7851e-09
-1.18928e-07
-1.21718e-07
-1.23127e-07
-1.20426e-07
3.30019e-10
1.61045e-10
1.01561e-10
-1.39737e-11
-2.42721e-11
-2.14655e-11
-2.45244e-11
-7.30729e-10
-1.47908e-10
-1.88669e-10
-1.1028e-10
6.13198e-12
3.86535e-12
1.54188e-12
-7.10543e-15
-8.26006e-14
-3.4639e-14
-6.39488e-14
-5.58842e-12
-2.4567e-12
-4.40536e-12
-2.87237e-12
1.91847e-13
2.41585e-13
5.32907e-14
5.32907e-15
8.88178e-16
8.88178e-16
1.77636e-15
1.42109e-14
0
1.01156e-08
2.14135e-08
6.02965e-09
-8.21626e-08
-1.58118e-07
-1.71181e-07
-1.91925e-07
4.93074e-10
5.17986e-10
1.84574e-10
1.42535e-11
9.74154e-12
4.54747e-12
3.90799e-13
2.06057e-13
8.17124e-14
7.10543e-15
7.10543e-15
0
0
0
2.7201e-10
5.34563e-10
1.34737e-10
-2.58922e-09
1.41256e-11
1.64064e-11
4.27036e-12
4.61853e-13
3.97904e-13
1.06581e-13
1.42109e-14
7.10543e-15
0
0
0
0
0
0
7.51044e-12
1.42819e-11
3.30047e-12
-7.68097e-11
3.83693e-13
4.83169e-13
1.10134e-13
1.42109e-14
1.42109e-14
0
0
0
0
0
0
0
0
0
1.91847e-13
3.69482e-13
7.4607e-14
-2.02505e-12
7.10543e-15
1.42109e-14
0
0
0
0
0
0
0
0
0
0
0
0
0
7.10543e-15
0
0
0
0
0
0
0
0
0
0
0
0
0
0
0
0
0
0
0
0
0
0
0
0
0
0
9.6917e-08
1.0763e-07
-1.20277e-07
-2.38901e-07
-1.75806e-07
1.50084e-07
1.52819e-08
1.26981e-08
9.98215e-09
-1.62833e-08
-1.73157e-08
-5.9721e-09
-8.64006e-08
-8.32226e-08
-7.92155e-08
-8.46917e-08
-5.46092e-08
-4.47626e-08
-5.38776e-08
-5.48096e-08
5.28857e-10
4.8599e-10
3.26931e-10
-8.35918e-09
-1.88954e-10
-1.54803e-10
-1.1703e-10
2.46914e-11
2.40306e-11
1.40332e-11
-4.67928e-10
-6.43485e-12
-4.92584e-12
-4.59188e-12
1.25056e-12
1.25766e-12
5.82645e-13
-2.09184e-11
4.26326e-14
1.77636e-14
-6.25278e-13
1.4166e-08
2.17782e-08
1.62338e-08
-8.10054e-08
-7.42631e-08
-8.35447e-08
-9.11999e-08
-8.16444e-08
-9.4336e-08
7.40066e-10
6.85688e-10
4.34152e-10
2.93809e-11
2.50253e-11
1.25731e-11
1.1724e-12
1.0445e-12
4.26326e-13
4.9738e-14
5.68434e-14
1.77636e-14
0
0
4.79872e-10
8.01762e-10
4.29257e-10
-4.29944e-09
2.98996e-11
3.20384e-11
1.60441e-11
1.33582e-12
1.22213e-12
5.50671e-13
4.9738e-14
4.26326e-14
1.77636e-14
0
0
0
0
0
1.58167e-11
2.74696e-11
1.19016e-11
-1.46031e-10
9.66338e-13
1.20082e-12
4.76064e-13
3.55271e-14
4.26326e-14
1.77636e-14
0
0
0
0
0
0
0
0
4.68958e-13
8.66862e-13
3.16192e-13
-4.53326e-12
2.13163e-14
3.55271e-14
1.06581e-14
0
0
0
0
0
0
0
0
0
0
0
7.10543e-15
2.13163e-14
7.10543e-15
-1.27898e-13
0
0
0
0
0
0
0
0
0
0
0
0
0
0
0
0
0
0
0
0
0
0
0
0
0
0
0
0
0
0
0
0
0
0
0
0
0
0
0
0
0
0
6.67542e-09
7.17547e-09
1.04473e-08
-5.33747e-08
-8.31962e-08
-1.04526e-07
-1.04693e-07
4.76099e-10
4.15255e-10
4.1106e-10
-4.79299e-09
2.79243e-11
2.59561e-11
2.02327e-11
-3.24938e-10
1.50635e-12
1.36424e-12
9.5568e-13
-1.74438e-11
7.10543e-14
5.68434e-14
3.90799e-14
-7.60281e-13
0
0
-2.84217e-14
3.95929e-10
5.2394e-10
4.95728e-10
-3.39216e-09
2.67875e-11
2.66596e-11
2.06697e-11
1.41398e-12
1.40687e-12
8.91731e-13
7.10543e-14
7.10543e-14
3.55271e-14
0
0
0
0
0
1.76499e-11
2.65246e-11
1.8666e-11
-1.55367e-10
1.18661e-12
1.36424e-12
8.59757e-13
6.39488e-14
6.39488e-14
3.55271e-14
0
0
0
0
0
0
0
0
6.46594e-13
1.08002e-12
6.18172e-13
-5.90461e-12
4.26326e-14
5.68434e-14
2.84217e-14
0
0
0
0
0
0
0
0
0
0
0
1.42109e-14
3.55271e-14
1.77636e-14
-1.98952e-13
0
0
0
0
0
0
0
0
0
0
0
0
0
0
0
0
0
-7.10543e-15
0
0
0
0
0
0
0
0
0
0
0
0
0
0
0
0
0
0
0
0
0
0
0
0
0
0
0
0
0
0
0
0
0
0
0
0
0
0
0
0
0
0
1.7608e-10
1.85402e-10
2.60407e-10
-1.52631e-09
1.50777e-11
1.41256e-11
1.52909e-11
-1.47573e-10
1.00187e-12
9.23706e-13
8.81073e-13
-1.06084e-11
5.68434e-14
4.9738e-14
4.26326e-14
-5.7554e-13
0
0
0
-2.84217e-14
0
0
0
1.19442e-11
1.49569e-11
1.55076e-11
-9.82254e-11
9.02389e-13
9.59233e-13
8.3844e-13
5.68434e-14
5.68434e-14
4.26326e-14
0
0
0
0
0
0
0
0
5.7554e-13
8.3844e-13
6.85674e-13
-4.96669e-12
4.26326e-14
4.9738e-14
3.55271e-14
0
0
0
0
0
0
0
0
0
0
0
2.13163e-14
3.55271e-14
2.13163e-14
-2.06057e-13
0
0
0
0
0
0
0
0
0
0
0
0
0
0
0
0
0
-7.10543e-15
0
0
0
0
0
0
0
0
0
0
0
0
0
0
0
0
0
0
0
0
0
0
0
0
0
0
0
0
0
0
0
0
0
0
0
0
0
0
0
0
0
0
0
0
0
0
0
0
0
0
0
0
0
0
0
0
0
0
0
0
5.02354e-12
5.35749e-12
-4.47855e-11
4.54747e-13
4.40536e-13
-4.40536e-12
2.84217e-14
2.13163e-14
-3.12639e-13
0
0
-1.42109e-14
0
0
0
0
0
3.33955e-13
4.26326e-13
-2.75691e-12
2.13163e-14
2.84217e-14
0
0
0
0
0
0
0
1.42109e-14
2.13163e-14
-1.42109e-13
0
0
0
0
0
0
0
0
0
0
0
-7.10543e-15
0
0
0
0
0
0
0
0
0
0
0
0
0
0
0
0
0
0
0
0
0
0
0
0
0
0
0
0
0
0
0
0
0
0
0
0
0
0
0
0
0
0
0
0
0
0
0
0
0
3.32755e-08
8.35127e-08
5.08735e-09
-3.08656e-07
7.09112e-10
-1.63959e-09
5.02746e-10
-3.87535e-09
5.67761e-11
-2.96752e-08
9.28525e-09
-1.08885e-08
1.96688e-08
4.19548e-08
-1.769e-07
6.99674e-10
-1.32057e-09
2.18042e-10
-1.68755e-10
5.06392e-10
-2.79848e-09
7.64562e-11
1.845e-10
8.58913e-12
2.12719e-12
-5.30465e-12
1.10933e-12
-7.83817e-12
9.54792e-14
-1.3443e-10
3.01348e-11
-2.23908e-11
6.24873e-11
1.00898e-10
2.6632e-12
-9.08296e-12
6.05738e-13
-3.49498e-13
1.76437e-12
-7.54863e-12
5.32463e-13
-3.46168e-12
4.13003e-14
-1.99909e-08
1.15124e-09
-5.30645e-09
1.13449e-09
6.8773e-11
-7.22977e-13
1.03917e-13
-7.81597e-14
4.51639e-13
-9.4369e-13
-6.02332e-09
3.79321e-10
9.52223e-11
-1.75052e-10
-1.77632e-09
3.26899e-10
-0.139431
0.000915105
0.0128076
0.0120002
-1.97018e-07
-2.45988e-07
1.40943e-09
1.54026e-06
1.80318e-06
-2.57812e-05
1.59639e-07
8.60263e-08
-0.107658
-0.00262947
0.00889625
0.00319485
0.00861817
1.67192e-08
2.12831e-09
-3.85644e-09
-7.24673e-08
-7.68264e-08
7.5913e-07
6.11564e-07
1.00954e-07
-1.63621e-07
-8.62922e-06
4.39304e-08
-0.000132478
-0.00017971
7.22718e-07
1.23142e-05
1.32691e-05
-8.54601e-06
1.75962e-06
1.20528e-07
8.16907e-08
5.2948e-07
4.95203e-07
-2.28834e-06
-2.40446e-06
-2.34432e-06
-2.37963e-06
-9.74393e-07
-1.11532e-06
-1.11029e-06
-9.96698e-07
-0.00461091
-0.0191962
-0.000385252
0.000719045
0.000375503
0.00110032
-6.38757e-05
-8.42957e-05
-1.47146e-06
7.22748e-06
1.0961e-06
8.01025e-06
2.41016e-07
1.56443e-06
-3.15298e-07
-3.78348e-06
1.31449e-06
6.80633e-08
2.90962e-07
3.30027e-07
-2.01584e-06
-3.04697e-06
-3.06758e-06
-2.38712e-06
-5.69306e-07
-7.63786e-07
-7.71404e-07
-5.67524e-07
-6.82592e-09
3.90121e-09
3.09863e-09
1.54151e-09
2.97259e-09
2.12955e-07
2.88552e-08
-3.02021e-06
2.86682e-09
1.739e-08
2.15041e-07
2.34841e-08
3.27228e-08
1.46462e-08
1.82641e-08
-3.31788e-06
-1.02059e-08
1.30738e-08
4.75686e-09
1.35065e-09
1.74894e-09
2.0572e-09
1.39279e-07
3.81379e-08
-1.87564e-06
1.28256e-08
4.13671e-09
-1.81972e-10
1.37517e-11
1.57154e-11
5.02753e-12
1.50391e-11
1.6497e-09
1.63945e-10
4.08038e-11
2.41767e-10
7.56305e-10
-6.76156e-10
1.35429e-10
4.78351e-11
6.42237e-11
-1.44414e-10
8.52705e-11
1.51701e-11
8.71703e-12
1.00027e-11
1.04792e-11
1.293e-09
2.2275e-10
1.94355e-10
5.36264e-11
3.37986e-10
5.54321e-11
-2.35464e-10
-1.06479e-09
-2.30596e-10
9.7824e-12
2.58371e-12
2.26041e-12
-2.73866e-10
-1.81769e-10
-8.58691e-12
6.03961e-13
-4.49862e-13
-1.21103e-12
1.42615e-10
-5.89749e-09
3.62697e-11
-6.63786e-10
-9.39053e-11
-1.10467e-10
2.23199e-11
3.72502e-12
-1.12685e-10
2.31815e-12
2.1858e-07
2.95911e-08
-3.10597e-06
-1.5997e-06
-2.74048e-06
-9.79831e-10
6.82379e-11
4.38713e-10
5.08518e-11
-1.54629e-08
1.22373e-08
-2.34197e-08
-1.48727e-07
-2.71035e-07
1.02501e-07
1.58272e-08
-1.02874e-06
-1.11444e-06
-1.88729e-06
5.29444e-08
-4.37931e-10
4.76819e-11
3.26778e-10
-1.12408e-11
9.47552e-09
2.75065e-08
7.40795e-09
-9.94197e-08
2.64521e-10
-5.85791e-10
2.00561e-10
-1.39488e-09
1.27238e-10
8.70082e-11
-1.69172e-10
2.52955e-11
-3.22e-11
5.97185e-11
-3.17097e-10
2.56102e-11
6.92757e-11
2.02218e-11
7.74936e-13
-2.16094e-12
4.74287e-13
-3.18945e-12
3.00648e-13
-1.76898e-11
3.62377e-12
-4.13913e-12
7.54552e-12
1.21547e-11
2.91323e-13
-1.24034e-12
8.81517e-14
-1.00586e-13
2.26485e-13
-9.13047e-13
8.08242e-14
-2.69118e-13
6.06182e-14
-2.31906e-09
1.18304e-10
-6.81766e-10
1.17415e-10
5.01041e-11
-1.14575e-13
1.17684e-14
-1.24345e-14
2.66454e-14
5.90639e-14
-2.39364e-11
2.3066e-12
3.01981e-13
-1.91092e-12
-6.65246e-12
1.04894e-12
-0.0500734
-0.00257966
0.00298059
0.00152545
0.0032783
-3.01455e-08
-3.1261e-08
9.9462e-10
2.36401e-07
2.26634e-07
-3.7426e-06
1.83441e-08
6.18159e-08
-0.0112301
-0.000676525
0.000398842
0.000219861
0.000545571
1.26321e-10
8.41172e-12
-5.07718e-11
-3.90551e-10
-4.03997e-10
4.22407e-08
8.35737e-09
1.62364e-09
-8.34123e-09
-7.04324e-08
4.99394e-09
1.49908e-06
7.29514e-07
-1.68554e-05
-6.06407e-06
-1.72085e-06
-2.47995e-06
-2.66767e-06
-2.12048e-06
-2.00598e-05
-6.93961e-06
-5.62209e-07
-7.31134e-07
-5.3337e-07
-5.62377e-07
4.19928e-07
2.50062e-07
-1.98158e-06
-1.78542e-07
-8.38737e-07
-1.55765e-06
-1.46514e-05
-2.2649e-06
-5.32531e-06
-3.05029e-07
-2.29237e-07
-2.13731e-07
1.95874e-08
6.74024e-08
1.72006e-06
-2.01485e-05
-2.10783e-06
1.12652e-06
-1.08033e-05
4.59336e-06
4.20885e-07
1.22066e-07
-1.12048e-06
-1.19127e-06
-1.22584e-06
-2.19224e-06
-2.24626e-06
-2.13337e-06
-1.63493e-06
1.07066e-07
5.90921e-08
-4.70839e-08
-7.94075e-08
-1.88618e-07
2.48992e-07
-1.2525e-06
-1.29921e-06
-1.85035e-06
-1.69715e-06
4.17375e-09
1.44075e-08
-2.60984e-09
1.61883e-09
9.02305e-10
2.97663e-10
6.93223e-10
5.63457e-08
2.0225e-08
-7.77026e-07
2.35471e-09
4.7396e-09
-1.13934e-09
1.69357e-09
6.96291e-10
1.76259e-10
2.12523e-10
2.79275e-10
-3.10981e-08
2.01535e-08
5.30433e-09
-8.743e-10
-2.7714e-07
2.15673e-09
7.05827e-10
-5.5536e-11
6.17195e-12
4.62919e-12
1.29052e-12
3.75966e-12
5.02382e-10
1.418e-10
3.39249e-11
7.31131e-11
9.39622e-11
-9.96661e-11
1.80798e-11
6.1493e-12
1.16049e-11
-2.22897e-11
8.10019e-12
2.75069e-12
1.27054e-12
1.35314e-12
1.51434e-12
1.98753e-10
4.32099e-11
2.9253e-11
1.10871e-11
2.19984e-11
5.73674e-12
-1.76268e-11
-4.64673e-11
-1.40052e-11
1.15996e-11
2.70806e-12
1.12355e-12
-1.54383e-11
-3.47278e-12
-2.26485e-12
1.13687e-13
4.84057e-14
6.66134e-14
1.88827e-12
-7.09228e-11
5.20473e-13
-7.0246e-12
-7.39409e-13
-9.62785e-13
6.63292e-12
8.79297e-13
-7.42517e-13
3.00204e-13
2.0079e-08
3.08115e-09
-4.7022e-07
-1.01857e-07
-1.79584e-07
-9.90497e-11
1.47953e-11
1.0892e-10
-3.49516e-11
-5.72673e-10
1.38487e-10
-3.01915e-10
-8.84978e-10
-4.6863e-09
1.58092e-09
3.17261e-10
-2.03187e-08
-1.01984e-08
-4.17333e-08
1.68312e-09
-1.26228e-11
1.17151e-12
9.68026e-12
-7.06812e-12
2.84892e-11
-7.21174e-11
2.12235e-11
-1.56852e-10
1.23781e-11
2.28986e-11
-6.35936e-12
-1.69717e-10
1.58982e-11
1.10898e-11
-1.18148e-10
2.98517e-12
7.03126e-12
2.01816e-12
8.70415e-14
-3.93463e-13
6.9722e-14
-3.93463e-13
4.06342e-14
-2.67253e-12
-1.32196e-11
1.30762e-12
1.04938e-12
5.29621e-12
4.9738e-14
-2.64233e-13
-3.44169e-14
6.66134e-15
4.52971e-14
-2.31815e-13
1.42109e-14
2.93099e-14
8.65974e-15
-2.52243e-12
2.06946e-13
-6.97664e-13
1.03029e-13
3.55271e-14
-2.75335e-14
-2.44249e-15
-2.22045e-16
4.88498e-15
6.66134e-15
-8.88178e-16
-1.33227e-15
0
-2.22045e-16
0
0
-0.000137234
-1.16266e-05
1.65486e-06
-1.31619e-05
5.21251e-06
-4.26015e-11
-4.35336e-11
1.02363e-12
2.72557e-09
7.17831e-10
-7.56826e-09
4.53078e-10
2.83726e-10
2.37954e-08
-7.73801e-07
-1.67524e-07
1.34269e-08
-7.17135e-08
3.055e-08
1.77636e-14
4.44089e-16
-7.77156e-15
-6.21725e-15
-1.90958e-14
6.42699e-11
9.51683e-12
3.93086e-12
-1.87352e-11
-4.27001e-11
6.16351e-12
2.97912e-08
1.24627e-08
-4.81548e-07
1.46652e-08
7.07406e-09
-5.86722e-09
-8.235e-10
-2.7863e-09
4.70481e-10
1.3048e-09
2.30188e-08
2.2899e-08
-7.322e-07
-6.84488e-09
-5.27416e-09
-6.1632e-09
1.33727e-09
8.58297e-10
-1.79854e-08
2.11141e-10
3.33812e-10
-6.25913e-11
-6.13078e-11
-6.76197e-11
5.96915e-10
3.01492e-11
5.64135e-11
-8.22757e-10
-5.05332e-10
1.24172e-10
4.01492e-11
1.00503e-10
-1.24883e-08
7.50271e-09
-2.0026e-10
-9.18794e-10
-9.38476e-08
2.05557e-10
8.05716e-10
-1.55586e-10
4.91438e-10
-6.52293e-09
1.89702e-11
-5.30687e-13
1.60645e-11
-8.26493e-09
3.96823e-09
-1.24007e-08
-4.04259e-09
-4.9681e-08
3.99002e-10
-4.13591e-10
-1.29052e-11
-1.22569e-13
7.41185e-13
2.02505e-13
3.95239e-13
1.19016e-10
1.82254e-11
6.84697e-12
1.63638e-11
2.53539e-11
-1.36691e-11
2.55618e-12
1.7204e-12
1.09779e-12
-5.2669e-12
1.34648e-12
-5.22515e-12
1.05693e-13
3.09974e-13
2.8999e-13
4.59863e-11
-1.28244e-11
6.92069e-12
2.43805e-12
-3.58824e-13
3.10862e-14
-6.66134e-15
-1.73195e-14
-4.44089e-16
3.01092e-12
4.96492e-13
1.81188e-13
8.13571e-13
9.9476e-14
-4.74287e-13
1.90958e-14
8.88178e-15
7.10543e-15
-1.36779e-13
-1.77636e-14
-1.77636e-15
1.33227e-15
8.88178e-16
8.88178e-16
1.12976e-12
7.19425e-14
1.95399e-13
3.90799e-14
4.89084e-11
1.79599e-11
-9.42068e-10
-1.96353e-10
-1.20004e-10
-4.03233e-13
4.70735e-14
4.27214e-13
-5.34683e-13
-5.61329e-13
3.55271e-14
-4.66294e-14
-6.35048e-14
-5.28466e-13
1.0445e-12
6.1906e-13
-1.37845e-11
-1.37002e-12
-6.05471e-12
1.92912e-12
8.88178e-15
7.10543e-15
1.59872e-14
-2.84217e-14
2.04223e-10
2.72945e-09
2.48512e-11
-1.16904e-09
-1.83766e-09
4.00356e-07
8.83096e-07
2.96992e-07
-7.866e-06
-2.56354e-06
-9.89369e-07
-5.49116e-12
2.55325e-11
-1.83404e-10
9.54792e-14
1.08358e-13
1.31894e-13
-5.67102e-13
-3.05755e-13
8.59175e-08
-1.19413e-07
3.5223e-08
-9.80958e-07
5.16628e-08
4.06728e-11
1.21423e-10
-1.08803e-10
2.43776e-11
-4.9802e-10
-4.94805e-10
7.10543e-15
1.64313e-14
-2.75335e-14
0
-4.44089e-16
0
0
0
4.39071e-12
-9.4611e-12
1.62292e-12
-2.78009e-11
3.17257e-12
9.76996e-15
1.55431e-14
-7.4607e-14
8.43769e-15
-3.59712e-14
-5.10703e-14
-2.07067e-09
-1.03601e-09
7.56539e-11
-1.31091e-10
1.12979e-10
-4.44089e-16
-8.88178e-16
0
5.98632e-13
3.39728e-13
-1.39622e-12
2.40696e-13
3.22631e-13
2.01084e-12
-1.16187e-11
-1.71552e-12
1.32783e-13
2.18803e-12
2.38698e-13
2.22045e-15
-1.46549e-14
1.33227e-15
-8.88178e-15
1.77636e-15
3.77476e-14
1.59872e-14
3.55271e-15
-1.73195e-14
-7.41629e-14
1.15463e-14
3.74811e-11
3.10205e-11
-5.96247e-10
5.66125e-12
9.50795e-12
-4.18332e-13
-1.43441e-13
-7.02105e-13
1.37668e-12
1.76925e-12
5.8975e-12
4.12239e-11
-6.15779e-10
-1.99352e-12
-2.02061e-12
-1.97442e-12
1.01501e-11
2.1263e-12
-2.88445e-11
-8.52651e-14
3.39284e-13
-3.59712e-14
-2.88658e-14
-2.30926e-14
9.02389e-13
1.1191e-13
1.93623e-13
8.41843e-09
-1.37327e-07
-3.2205e-09
-4.6778e-09
-1.34387e-08
-1.22768e-07
1.44844e-08
-1.80249e-07
-1.60795e-07
-5.68089e-09
1.09282e-09
3.28076e-07
2.68165e-07
-2.22047e-07
-4.55492e-06
-5.34607e-07
-4.13277e-06
-2.49531e-07
1.71455e-07
-7.07467e-06
-2.52528e-07
1.2236e-08
-1.60254e-08
-5.15143e-14
-7.9126e-11
-6.85674e-13
-7.37632e-13
-2.02682e-12
7.17204e-11
-3.18892e-10