/*--------------------------------*- C++ -*----------------------------------*\
  =========                 |
  \\      /  F ield         | OpenFOAM: The Open Source CFD Toolbox
   \\    /   O peration     | Website:  https://openfoam.org
    \\  /    A nd           | Version:  9
     \\/     M anipulation  |
\*---------------------------------------------------------------------------*/
FoamFile
{
    format      ascii;
    class       volScalarField;
    location    "0.00335";
    object      alpha.c4;
}
// * * * * * * * * * * * * * * * * * * * * * * * * * * * * * * * * * * * * * //

dimensions      [0 0 0 0 0 0 0];

internalField   nonuniform List<scalar> 
29212
(
0.427917
0.42579
0.38379
0.372491
0.317904
0.318411
0.427128
0.417234
0.397195
0.395787
0.37483
0.355469
0.330439
0.325784
0.322871
0.41233
0.422971
0.410108
0.372513
0.350917
0.355499
0.312975
0.31165
0.298857
0.411312
0.428395
0.412807
0.424318
0.425752
0.410572
0.413485
0.404191
0.414929
0.399533
0.390155
0.416716
0.403362
0.391197
0.413605
0.389873
0.40298
0.35884
0.378771
0.373157
0.3548
0.374981
0.360552
0.3562
0.344122
0.340273
0.336958
0.327305
0.346986
0.341177
0.32991
0.335678
0.326156
0.340192
0.299361
0.328252
0.313483
0.315384
0.315184
0.318073
0.298896
0.370212
0.366611
0.383052
0.388231
0.373596
0.363068
0.377969
0.417194
0.406583
0.396457
0.401664
0.403958
0.404758
0.392763
0.338528
0.346608
0.342067
0.353499
0.360271
0.348585
0.333486
0.425465
0.426362
0.424323
0.414072
0.412216
0.411309
0.413318
0.330472
0.330217
0.298209
0.312604
0.316732
0.294262
0.317029
0.00417032
1.49152e-11
1.46876e-12
2.95334e-15
3.16709e-16
1.97425e-09
4.04238e-14
3.23638e-15
2.79098e-09
0.0017457
1.92954e-06
4.93648e-05
3.57445e-05
1.76089e-07
4.543e-08
1.09144e-05
2.44178e-07
5.38532e-07
1.04939e-08
5.27874e-06
2.63537e-07
3.55638e-07
0.000930072
0.000105202
0.000967752
0.000474214
0.000188538
0.00263376
4.83596e-05
0.00128256
0.00139275
0.00103251
0.000545242
0.000580579
0.000419714
0.000761647
1.11571e-06
7.12176e-08
8.64595e-08
4.26156e-07
1.30581e-07
6.67191e-07
7.31056e-07
6.91372e-06
2.70094e-06
2.07427e-05
1.65124e-05
4.44933e-06
4.25218e-06
3.06888e-05
0.000664972
0.000756764
0.000547798
0.000384667
0.000209595
0.000299055
0.00026679
1.16676e-07
5.0775e-06
6.94047e-06
2.40481e-06
2.51229e-05
2.08246e-05
3.90218e-05
2.41946e-05
0.00040936
0.000166062
0.000139961
0.000615355
0.000117943
3.87554e-05
2.52476e-05
7.06058e-05
0.000156151
3.78959e-05
0.000103317
5.89936e-05
0.00205763
0.000466178
0.00176243
0.000121734
0.00313859
0.00122233
0.00107917
0.000652702
0.000341449
3.21782e-07
2.27311e-12
4.74899e-12
6.66124e-08
5.01936e-06
1.87197e-06
2.67344e-07
1.11201e-12
1.0748e-13
3.09327e-12
1.53566e-10
1.6195e-11
1.31365e-09
6.48467e-14
5.56054e-15
7.73509e-15
8.12699e-15
4.03201e-16
3.80061e-14
2.65414e-15
2.39144e-16
2.25827e-16
1.33315e-16
1.10288e-17
3.82038e-15
2.12242e-16
1.20553e-17
6.64842e-18
2.70956e-18
3.04481e-19
2.26438e-16
1.22329e-17
6.10292e-19
1.89098e-19
6.1784e-20
8.02396e-21
1.03694e-17
5.86996e-19
2.87838e-20
5.28831e-21
1.43018e-21
1.95685e-22
0.0006007
1.81037e-05
1.9486e-08
8.94444e-13
3.21026e-12
4.63153e-08
4.04372e-06
1.19742e-06
4.75677e-08
2.91405e-13
6.28329e-14
1.93715e-12
7.64741e-11
5.6382e-12
1.95906e-10
6.97197e-15
2.7465e-15
3.48266e-15
1.85691e-15
1.39609e-16
1.18019e-14
8.34979e-16
9.73797e-17
1.02987e-16
4.56876e-17
4.3426e-18
1.326e-15
7.11749e-17
4.48631e-18
3.08066e-18
1.1458e-18
1.30325e-19
7.54156e-17
4.24335e-18
2.28137e-19
8.68501e-20
2.75693e-20
3.53518e-21
3.59035e-18
2.14504e-19
1.10291e-20
2.35938e-21
6.39121e-22
8.61451e-23
0.000236279
1.87179e-06
6.8469e-14
7.62509e-13
5.58877e-09
6.70833e-07
6.5802e-08
2.93922e-10
1.20076e-14
1.33428e-14
2.48563e-13
3.88295e-12
7.31579e-14
5.97445e-13
1.00492e-15
4.09169e-16
5.69913e-16
2.59494e-16
2.26597e-17
2.46838e-15
1.43828e-16
1.47528e-17
1.85588e-17
6.95944e-18
8.41207e-19
2.08691e-16
1.20629e-17
7.46006e-19
5.69556e-19
1.90163e-19
2.55198e-20
1.22094e-17
7.20395e-19
3.86993e-20
1.53073e-20
4.55525e-21
6.42186e-22
5.97658e-19
3.60978e-20
1.86305e-21
3.86778e-22
1.00135e-22
1.42571e-23
2.58688e-05
1.19589e-08
1.65131e-10
1.33511e-12
1.09036e-10
1.07181e-08
1.22492e-10
2.59282e-12
6.79507e-14
4.65376e-15
1.90906e-14
1.44195e-14
4.41521e-16
1.56167e-14
7.39348e-16
9.38019e-17
8.4372e-17
2.28135e-17
3.98941e-18
7.56389e-16
5.13104e-17
4.53573e-18
2.78972e-18
7.2976e-19
1.09537e-19
4.54875e-17
2.96379e-18
2.02882e-19
7.23813e-20
1.83896e-20
2.6688e-21
2.28343e-18
1.48672e-19
8.77763e-21
1.7335e-21
4.06443e-22
5.90283e-23
1.0203e-19
6.64767e-21
3.72153e-22
4.24133e-23
8.38945e-24
1.20627e-24
9.64618e-05
1.68765e-05
2.5998e-06
2.55697e-08
3.93275e-13
9.53604e-06
5.98515e-07
1.80579e-08
9.36556e-11
1.00881e-11
3.7358e-15
1.4684e-08
3.87133e-11
1.08703e-13
1.29947e-15
1.05851e-16
9.40093e-18
7.99427e-14
1.93503e-15
7.12266e-17
1.39695e-17
1.92504e-18
2.73029e-19
1.99551e-16
3.6251e-17
3.00895e-18
3.91679e-19
4.79284e-20
6.77044e-21
1.15304e-17
1.36138e-18
1.16077e-19
1.09818e-20
1.20823e-21
1.57587e-22
5.34259e-19
5.18858e-20
4.15952e-21
3.1823e-22
2.93333e-23
3.46868e-24
2.19519e-20
1.91968e-21
1.42514e-22
9.41168e-24
7.15549e-25
7.3851e-26
0.000377612
2.54516e-06
4.16922e-08
3.31126e-11
1.39706e-13
2.39566e-16
1.34289e-09
4.4335e-07
2.52133e-09
1.32125e-12
9.34112e-16
1.24212e-17
7.07289e-11
2.01327e-11
4.35193e-15
3.65039e-17
4.89696e-18
4.52349e-19
2.15581e-14
4.37956e-16
1.55102e-17
1.51261e-18
1.34337e-19
1.28851e-20
5.42323e-17
8.55079e-18
7.63935e-19
5.90583e-20
4.0648e-21
3.48155e-22
2.84053e-18
3.30642e-19
3.0263e-20
2.11321e-21
1.26536e-22
9.26762e-24
1.19107e-19
1.23862e-20
1.065e-21
6.96148e-23
3.8537e-24
2.43268e-25
4.45241e-21
4.42349e-22
3.54701e-23
2.20434e-24
1.15951e-25
6.44122e-27
1.60411e-09
8.72361e-10
2.27332e-13
1.01636e-15
6.44294e-17
5.28032e-18
1.45776e-10
6.06666e-10
1.30008e-13
6.40104e-17
5.54272e-18
3.82029e-19
1.16875e-14
3.41301e-15
4.16051e-17
3.2394e-18
2.29317e-19
1.59518e-20
1.97104e-16
2.37533e-17
2.25499e-18
1.55087e-19
9.06467e-21
5.73557e-22
9.91089e-18
1.14491e-18
9.98125e-20
6.51669e-21
3.49208e-22
1.96402e-23
4.37818e-19
4.68266e-20
3.92123e-21
2.48593e-22
1.27606e-23
6.51365e-25
1.67884e-20
1.73401e-21
1.40502e-22
8.71267e-24
4.36957e-25
2.08384e-26
5.93474e-22
6.01662e-23
4.74375e-24
2.89265e-25
1.43223e-26
6.53494e-28
1.63959e-14
7.35707e-15
2.00992e-16
2.1491e-17
2.12754e-18
1.41432e-19
6.88508e-15
3.01939e-15
3.52871e-17
2.67536e-18
1.79828e-19
1.10538e-20
7.67051e-16
3.24713e-17
2.86071e-18
1.88389e-19
1.06099e-20
5.9626e-22
1.90631e-17
1.91243e-18
1.59577e-19
1.01079e-20
5.31589e-22
2.74183e-23
8.89227e-19
9.19821e-20
7.42382e-21
4.62743e-22
2.36383e-23
1.14501e-24
3.83175e-20
3.87965e-21
3.06561e-22
1.88863e-23
9.50554e-25
4.42111e-26
1.46036e-21
1.46419e-22
1.14038e-23
6.96494e-25
3.48059e-26
1.58153e-27
5.1589e-23
5.14244e-24
3.96218e-25
2.40583e-26
1.1995e-27
5.3832e-29
2.76929e-16
3.0204e-16
1.18019e-17
9.5731e-19
6.95692e-20
4.36489e-21
1.47317e-16
1.71035e-17
1.62145e-18
1.12475e-19
6.70256e-21
3.79224e-22
1.58622e-17
1.58166e-18
1.33015e-19
8.59134e-21
4.68945e-22
2.44288e-23
9.84145e-19
1.00227e-19
8.02742e-21
5.05093e-22
2.65599e-23
1.31002e-24
5.17775e-20
5.15782e-21
4.02918e-22
2.49923e-23
1.2901e-24
6.15232e-26
2.30939e-21
2.27896e-22
1.75743e-23
1.08087e-24
5.5293e-26
2.5867e-27
9.02405e-23
8.88358e-24
6.80327e-25
4.16542e-26
2.1233e-27
9.83574e-29
3.25608e-24
3.20238e-25
2.44219e-26
1.49248e-27
7.60524e-29
3.50678e-30
3.79608e-17
5.61724e-18
5.04425e-19
3.99396e-20
2.70178e-21
1.65311e-22
6.27189e-18
7.101e-19
6.31642e-20
4.42298e-21
2.65369e-22
1.48671e-23
6.29205e-19
6.51886e-20
5.36336e-21
3.53535e-22
1.98594e-23
1.04345e-24
4.4037e-20
4.3963e-21
3.47441e-22
2.22111e-23
1.20476e-24
6.07683e-26
2.435e-21
2.39141e-22
1.85256e-23
1.16437e-24
6.19782e-26
3.05004e-27
1.12878e-22
1.10318e-23
8.46602e-25
5.27505e-26
2.78081e-27
1.34886e-28
4.55668e-24
4.45146e-25
3.40233e-26
2.11177e-27
1.10834e-28
5.33295e-30
1.68913e-25
1.65192e-26
1.26092e-27
7.81876e-29
4.09919e-30
1.96392e-31
2.31893e-07
1.25632e-11
9.00746e-08
5.92501e-12
9.58204e-13
9.02998e-13
6.14949e-13
6.76805e-13
1.40381e-11
4.42488e-08
1.08319e-11
3.75601e-08
0.000405956
4.64099e-07
1.55655e-05
0.000405646
4.11893e-07
1.51679e-05
0.000737337
2.12605e-05
1.73637e-05
0.000651907
0.000739748
2.0666e-05
1.64503e-05
2.69609e-11
4.41515e-07
3.81231e-11
2.1818e-07
1.37446e-11
3.35491e-07
1.75613e-11
4.64001e-13
2.39603e-12
1.91291e-13
1.58654e-12
3.11812e-13
1.63508e-12
1.37447e-13
6.82163e-09
8.71824e-13
6.8468e-12
3.18475e-12
5.58065e-09
6.34198e-13
5.14962e-12
3.43808e-06
3.75106e-11
2.06952e-09
5.63716e-08
3.17124e-06
2.88798e-11
1.5415e-09
4.02774e-08
3.61998e-12
7.76445e-13
3.7407e-13
5.13662e-13
6.66699e-14
9.68678e-14
8.43567e-12
3.09292e-08
1.66083e-12
7.76764e-09
0.000372798
3.51307e-07
1.39426e-05
0.000259606
1.02249e-07
5.89927e-06
0.000513465
1.89099e-05
1.42942e-05
0.000477743
0.000216371
7.89063e-06
4.3867e-06
4.5002e-11
8.38725e-08
5.0229e-11
6.67935e-12
2.63356e-09
6.784e-12
2.69757e-13
6.28394e-13
7.30372e-14
2.60557e-13
8.97856e-14
2.72696e-13
2.6128e-14
4.45529e-09
5.56107e-13
4.36729e-12
8.78422e-13
9.85748e-10
2.20054e-13
1.42936e-12
2.78151e-06
2.22352e-11
1.15289e-09
1.14446e-08
9.07304e-07
4.42421e-12
1.90325e-10
2.12685e-13
1.23614e-10
3.02121e-14
4.16424e-14
4.51578e-11
1.42804e-12
7.26772e-13
3.8419e-09
4.69214e-13
2.5216e-10
0.000167954
5.33096e-08
3.54288e-06
7.0786e-05
4.1027e-09
3.97665e-07
0.000130729
4.68692e-06
2.1685e-06
8.93103e-05
1.74915e-05
4.95159e-07
9.00383e-08
1.08859e-12
7.10404e-10
9.30648e-13
1.37002e-11
2.44793e-11
1.81399e-12
3.25112e-14
4.39493e-14
7.71446e-15
9.96761e-12
2.93403e-13
9.32047e-14
2.26962e-14
4.64878e-10
6.35591e-14
9.85481e-13
1.65898e-13
2.61589e-11
1.80353e-14
2.1287e-13
4.79369e-07
2.16339e-12
7.73665e-11
3.47541e-10
3.102e-08
2.90747e-13
2.67603e-12
2.04696e-09
1.64158e-06
8.01698e-10
3.06449e-11
9.36504e-07
1.11312e-07
8.90662e-12
8.04346e-11
4.61332e-08
1.70851e-09
2.45371e-05
1.38259e-09
1.4489e-07
2.66442e-06
5.18398e-10
2.24475e-09
7.26267e-06
1.73164e-07
1.95135e-08
4.90308e-06
1.72303e-07
1.98968e-09
3.44181e-11
2.42971e-09
1.76617e-10
2.75692e-10
7.15938e-07
1.19608e-08
1.88496e-08
4.65518e-12
3.35198e-13
4.89139e-14
1.89593e-07
1.25167e-08
1.61327e-10
2.88789e-12
7.82672e-12
6.52629e-14
5.90078e-14
4.11757e-09
9.04026e-11
7.47415e-13
5.75374e-14
9.00043e-09
1.98741e-13
6.79132e-13
2.67048e-11
9.47635e-11
9.2845e-14
4.25892e-14
4.01181e-05
2.43366e-06
3.86543e-07
8.60734e-05
2.94188e-05
3.05416e-06
3.13051e-07
7.16684e-06
1.76227e-07
8.03585e-09
9.1131e-06
2.65503e-06
1.12491e-07
1.73737e-09
3.54089e-07
2.24155e-09
4.3803e-10
6.12166e-07
1.53453e-08
3.20908e-10
1.27101e-12
0.00226017
0.000187235
2.5314e-05
0.000226766
1.27565e-06
0.000442387
0.000147475
1.91904e-07
1.11581e-09
0.00163764
6.1486e-06
1.73705e-07
3.77904e-10
5.94464e-10
4.69727e-15
9.69399e-05
8.70218e-06
8.46997e-11
4.32978e-12
1.48346e-15
2.32265e-17
9.34266e-07
7.49346e-09
2.09142e-15
8.99731e-17
9.59552e-18
7.98541e-19
9.40221e-12
5.27084e-15
5.75475e-17
6.17146e-18
4.57458e-19
3.0392e-20
2.37395e-16
2.58305e-17
2.9863e-18
2.84258e-19
2.08406e-20
1.3498e-21
0.00134861
0.00133725
0.00414026
0.00422604
0.00304143
0.0040762
0.00371155
0.00301099
0.00120668
0.000824638
0.00270465
0.00269282
0.00251121
0.000865347
0.00143482
0.00105624
0.000495593
0.000507458
0.000219813
0.000558975
0.000688973
0.000471323
0.000616907
0.000149997
0.000467612
0.00030546
0.000360022
8.27454e-05
0.00010961
1.11028e-05
8.89564e-05
8.17938e-05
2.42835e-05
8.54492e-05
8.84762e-06
1.82865e-05
8.71128e-07
0.000577503
0.00108454
0.000271701
0.000120851
0.000954762
0.000283093
0.00051393
7.43078e-05
0.000188832
5.38209e-05
2.48901e-05
0.000186198
8.39291e-05
2.62231e-05
9.04312e-06
5.99391e-05
1.04716e-05
1.96283e-06
3.9513e-05
2.86676e-06
2.63988e-06
1.36343e-07
0.000223355
0.000220449
9.58412e-06
3.04166e-05
6.23794e-05
8.55549e-05
5.63872e-05
2.06544e-05
2.77737e-05
1.78705e-05
3.27474e-05
1.10385e-05
1.59314e-05
1.05806e-05
3.06073e-06
4.57285e-06
2.84702e-06
5.01825e-06
1.36654e-06
2.53825e-06
1.45953e-06
1.98947e-07
4.26693e-07
2.0768e-07
4.57162e-07
6.45195e-09
2.08307e-07
8.29127e-09
2.09366e-07
1.88015e-07
7.47735e-09
7.16457e-09
2.1533e-10
8.28004e-12
2.92066e-10
1.15412e-11
7.49703e-12
2.63806e-10
2.38976e-10
4.76829e-09
1.55763e-07
8.20514e-08
3.1474e-09
1.403e-07
5.52209e-09
2.74141e-09
1.58599e-10
8.94801e-12
3.2967e-12
1.10766e-10
5.60395e-12
1.94676e-10
9.03477e-11
3.22673e-14
3.48089e-13
2.01886e-13
9.15165e-13
3.21256e-13
1.90542e-13
3.40225e-14
8.56132e-14
1.48096e-12
1.3774e-13
8.78378e-13
1.44665e-12
1.34613e-13
8.78643e-14
2.96746e-14
7.45171e-13
1.7178e-13
1.3958e-13
2.55106e-13
2.05083e-13
2.25117e-14
7.83056e-14
7.95091e-13
1.14464e-12
9.57186e-14
1.34348e-12
1.0911e-13
6.571e-14
4.5657e-10
2.70486e-11
2.19202e-10
1.3714e-11
2.64806e-11
2.14758e-10
4.6542e-10
7.35498e-09
1.07225e-07
3.3068e-09
4.35794e-08
1.05882e-07
3.24676e-09
7.47867e-09
4.30495e-10
1.26103e-11
2.14801e-11
1.75622e-10
2.48265e-11
2.0144e-10
3.78765e-10
6.98819e-09
4.15844e-08
9.3061e-08
2.72188e-09
1.01758e-07
3.06921e-09
6.25794e-09
0.00040732
0.00050117
0.000502712
0.000123642
0.000162782
0.000163756
0.000122964
8.60307e-06
1.20302e-06
2.95443e-06
4.59658e-07
1.19625e-06
2.94819e-06
8.59292e-06
0.000500713
0.000397778
0.000491787
0.000123869
0.000161988
0.000163965
0.000122346
8.55268e-06
4.44914e-07
1.1006e-06
2.77187e-06
1.16944e-06
2.90533e-06
8.29562e-06
4.50036e-10
3.73983e-08
1.38682e-09
1.22724e-09
5.01709e-10
1.47013e-11
1.52431e-12
4.87977e-11
2.19998e-12
4.00429e-11
6.02267e-13
1.84476e-11
4.74747e-12
1.03393e-12
9.69084e-14
2.29542e-12
2.1528e-13
6.15981e-12
1.43535e-12
7.39029e-15
8.62978e-14
1.28799e-13
2.42048e-13
1.50349e-14
3.83791e-14
5.96821e-14
3.05523e-14
8.59325e-13
7.32075e-14
3.44548e-13
4.80419e-14
5.58718e-13
5.60102e-14
3.77219e-15
8.8445e-14
9.8076e-15
1.53069e-14
1.52749e-14
3.50118e-14
2.07828e-15
1.63543e-14
1.88125e-13
1.5471e-13
1.39989e-14
3.12908e-13
2.47797e-14
7.92294e-15
2.05976e-10
1.64721e-11
1.37428e-10
5.7143e-12
2.9903e-10
1.09763e-11
9.33674e-11
3.62338e-09
7.79959e-08
2.18098e-09
2.23937e-08
5.08621e-09
5.7734e-08
1.52632e-09
1.22967e-10
3.19834e-12
3.22334e-12
2.79983e-11
6.35448e-12
5.4716e-11
6.44761e-11
2.23889e-09
1.4071e-08
2.11384e-08
4.91546e-10
3.7217e-08
9.24147e-10
1.21765e-09
0.00046093
0.000324277
0.000401008
0.000100832
0.000152777
0.000115457
0.000133503
6.27505e-06
9.60874e-07
2.46806e-06
2.65835e-07
7.57639e-06
7.49178e-07
1.97408e-06
0.000322035
0.00024003
0.00019312
8.05148e-05
7.85214e-05
0.000106779
5.92466e-05
4.62318e-06
1.75693e-07
3.10376e-07
8.7685e-07
5.12723e-07
1.394e-06
3.05431e-06
1.90254e-12
6.36916e-14
7.59645e-13
4.65043e-13
5.2552e-13
6.37178e-13
1.3948e-12
3.25442e-11
6.83782e-12
2.32091e-10
3.15577e-10
1.24931e-11
1.84249e-11
5.66108e-10
6.6138e-14
1.3864e-14
1.01414e-14
1.42081e-13
3.95755e-15
2.11698e-13
4.4985e-14
2.15683e-14
6.85784e-14
5.85197e-15
2.44437e-14
4.31683e-15
3.41038e-14
1.67163e-14
1.48405e-12
2.38901e-12
8.87763e-11
1.53614e-11
4.47061e-12
7.84821e-13
3.15411e-11
4.51749e-13
9.15824e-14
3.15908e-12
4.87985e-12
1.46059e-13
2.45235e-13
1.0382e-11
1.26942e-11
1.4785e-12
1.36154e-11
3.38808e-13
2.98835e-11
6.06374e-13
5.44778e-12
2.63484e-10
1.07871e-08
2.34358e-10
1.72061e-09
5.94732e-10
5.00268e-09
1.01088e-10
4.86536e-12
1.42808e-13
1.00634e-12
8.52892e-13
2.64812e-13
2.13249e-12
1.97149e-12
1.05521e-10
6.96579e-10
7.9678e-10
1.36296e-11
2.10711e-09
3.93143e-11
3.76562e-11
0.000111501
0.000135384
9.05696e-05
2.66346e-05
5.37908e-05
4.07548e-05
3.47358e-05
1.0089e-06
1.68914e-07
4.9913e-07
2.51673e-08
1.83436e-06
8.36086e-08
2.59015e-07
4.28746e-05
5.80456e-05
3.55607e-05
1.65023e-05
1.21376e-05
2.11976e-05
9.6041e-06
5.10399e-07
1.07444e-08
1.53642e-08
5.09326e-08
3.77189e-08
1.21839e-07
2.35974e-07
1.11445e-07
3.92165e-09
4.87845e-09
2.87793e-08
8.82714e-09
5.53769e-08
6.19546e-08
1.00054e-06
2.8699e-07
3.64646e-06
2.75242e-06
5.65388e-07
5.42224e-07
5.79873e-06
1.10474e-08
1.62594e-09
2.91234e-10
1.24177e-08
6.2548e-10
2.57273e-08
4.92584e-09
4.3678e-09
7.40162e-11
9.80452e-11
6.05087e-10
2.23153e-10
1.59651e-09
1.79585e-09
1.521e-07
1.42312e-07
2.22202e-06
5.01834e-07
3.03173e-07
6.48587e-08
1.29843e-06
7.01643e-08
1.01312e-08
3.69456e-07
2.47633e-07
2.95357e-08
2.68649e-08
7.18587e-07
1.70932e-10
2.2757e-11
2.79175e-12
1.89785e-10
7.41441e-12
5.42229e-10
5.53959e-11
5.62181e-11
2.65254e-10
5.03791e-12
2.76919e-11
1.41822e-11
9.43188e-11
1.72944e-11
4.10762e-09
3.51639e-09
1.75139e-07
1.75145e-08
1.14524e-08
1.12858e-09
7.70083e-08
1.34785e-09
1.04672e-10
1.07641e-08
5.80983e-09
4.45475e-10
3.3505e-10
3.07667e-08
1.30625e-05
1.12752e-05
2.06858e-05
2.48065e-06
6.43134e-06
5.17173e-06
3.05172e-06
3.4007e-08
5.52805e-09
1.83305e-08
4.03645e-10
9.69755e-08
1.7122e-09
5.60842e-09
6.27362e-06
2.41246e-06
5.51294e-06
1.0193e-06
4.33907e-07
1.24151e-06
3.73169e-07
1.00057e-08
1.33713e-10
3.62748e-09
5.17137e-10
5.90525e-10
1.46872e-09
3.8617e-09
2.59321e-05
3.68749e-05
2.41305e-05
1.29508e-05
7.22657e-06
1.13985e-05
8.09198e-06
4.50033e-06
6.96374e-06
4.41833e-06
1.7964e-06
9.09303e-07
1.69291e-06
9.64412e-07
0.000709375
0.00115202
0.000817775
0.000910035
0.00101325
0.000178981
0.000328641
0.00030636
0.000307929
0.000227689
0.000217394
0.000247536
4.89499e-05
0.000115588
9.53132e-05
8.25204e-05
6.93645e-05
6.06762e-05
6.96512e-05
0.00135169
0.00157364
0.0015754
0.00427136
0.00437343
0.00436639
0.00427453
0.00156061
0.00129963
0.0015173
0.00418243
0.00399318
0.00426985
0.00391828
0.00140172
0.00103878
0.0011991
0.00269986
0.00345947
0.00339783
0.00274814
0.000946644
0.000701477
0.000613063
0.00200419
0.00145894
0.00204013
0.00143298
0.000336114
0.000433635
0.000294086
0.000695742
0.00102378
0.00100547
0.000707821
0.000707363
0.000719274
0.000585229
0.000468916
0.00081325
0.00067038
0.000498685
0.000138273
0.000192317
0.000121405
0.000475263
0.000325506
0.00048332
0.000320443
4.63554e-05
4.16807e-05
7.32887e-05
0.000131642
0.000213544
0.000210653
0.000133397
2.37162e-05
1.05063e-05
2.17867e-05
7.46959e-05
3.87815e-05
7.6099e-05
3.85088e-05
0.000399738
0.000536886
0.000375184
0.00125759
0.000914748
0.00128538
0.000889303
0.000495513
0.000419214
0.000440931
0.000582354
0.000634182
0.000348073
0.00018196
0.00025706
0.000173252
0.000427761
0.000641479
0.000445673
0.000619792
8.02792e-05
0.000115787
7.74864e-05
0.000294569
0.000216635
0.00030943
0.000204244
0.000131392
0.000248191
0.000129155
0.000112116
0.000171391
0.000155824
9.62851e-05
3.65414e-05
5.23883e-05
3.59907e-05
0.000102616
0.000153809
0.000110937
0.000143613
1.66271e-05
2.49194e-05
1.68873e-05
7.3868e-05
5.72169e-05
8.02759e-05
5.24803e-05
6.18435e-06
1.05866e-05
6.65598e-06
2.23919e-05
3.80893e-05
2.47654e-05
3.5353e-05
0.000242022
0.000425248
0.000326505
0.000253412
0.000350609
0.000308835
0.000222367
0.000159317
0.00017294
0.000149071
8.48342e-05
0.000220925
0.000143594
9.71722e-05
0.000147125
0.000189304
0.000128301
4.28073e-05
6.51868e-05
5.14066e-05
7.95938e-05
4.99437e-10
6.39825e-09
0.0005438
1.35602e-09
1.79551e-09
3.71695e-10
1.70283e-09
4.83853e-10
2.29198e-08
7.05214e-06
2.06995e-06
0.0011416
0.00119428
0.000468184
2.48786e-05
2.88413e-05
1.46688e-08
1.38996e-08
1.4382e-10
4.65456e-09
1.30125e-09
4.74533e-11
4.46665e-09
1.60031e-10
4.18547e-11
7.9461e-12
3.53707e-10
1.37036e-11
1.07803e-10
1.19508e-11
1.05523e-10
7.01933e-12
8.03047e-11
1.41892e-10
2.80549e-09
7.54688e-10
2.12049e-10
4.78031e-11
1.29582e-09
2.11898e-07
3.74147e-08
1.09078e-08
2.36904e-07
1.86811e-08
3.8396e-07
1.24861e-07
1.69832e-06
1.65635e-06
1.37789e-05
4.4621e-06
2.7887e-06
9.71238e-07
9.01171e-06
0.000818996
0.000752167
0.00103374
0.00174902
0.00241333
0.00177564
0.00239419
0.000181579
0.000144377
0.000390864
0.000324165
0.000274399
9.77972e-05
0.000121264
3.74239e-12
2.87229e-09
4.0065e-07
2.7465e-10
2.60983e-12
2.1729e-13
3.42566e-15
2.45243e-06
1.34685e-07
6.14475e-07
2.91529e-06
7.46874e-08
3.05777e-06
5.19618e-09
5.21107e-08
7.20311e-10
1.12443e-11
8.03817e-07
4.3456e-08
1.23037e-09
7.32625e-12
3.73931e-10
2.5199e-12
4.43151e-14
1.11646e-08
7.12955e-11
1.11472e-12
1.04294e-14
1.66654e-11
2.27485e-14
1.75405e-14
1.20472e-11
5.20942e-14
9.6278e-15
2.1072e-15
3.54933e-05
6.32019e-06
3.80758e-05
5.49823e-06
0.000146801
2.11757e-05
1.53402e-07
4.95749e-05
1.44994e-07
1.42991e-05
1.77757e-06
1.09761e-07
4.9741e-08
3.27698e-10
3.53645e-06
2.40892e-10
7.85466e-07
3.09294e-08
2.20299e-10
3.93954e-11
6.60218e-14
1.27502e-07
1.15041e-09
7.06598e-14
3.38687e-11
1.01231e-13
1.51343e-14
3.51607e-15
3.48396e-05
5.43475e-05
8.98322e-06
1.56436e-05
5.47398e-05
9.01043e-06
3.46535e-05
3.48911e-05
1.5586e-05
5.40235e-05
8.71339e-06
5.48579e-05
8.96795e-06
3.4343e-05
2.76506e-05
5.05761e-05
7.97931e-06
1.1704e-05
3.21371e-05
4.3576e-05
6.63807e-06
2.15707e-05
8.79701e-06
2.41356e-05
3.23219e-06
3.40122e-05
4.91175e-06
1.53428e-05
6.11061e-06
1.57878e-05
1.91961e-06
1.91564e-06
1.00632e-05
9.59887e-06
1.03676e-06
3.42535e-06
9.31509e-07
2.7561e-06
2.20131e-07
5.40218e-06
5.06985e-07
1.76125e-06
3.23406e-07
1.24001e-06
8.25812e-08
4.32994e-08
8.12159e-07
4.79731e-07
2.5863e-08
1.07929e-07
1.05654e-08
4.16608e-08
1.61942e-09
1.54788e-07
6.73563e-09
3.16552e-08
6.67549e-06
8.31629e-06
1.40346e-06
3.38556e-06
5.15682e-06
1.10147e-05
1.92667e-06
3.98333e-06
1.83963e-06
7.67803e-07
5.38983e-07
3.12034e-06
2.31559e-06
1.05513e-06
6.79288e-07
1.03557e-06
7.20247e-08
2.46714e-07
5.43574e-07
1.29774e-06
1.00875e-07
3.21569e-07
1.10855e-07
2.59368e-08
1.06274e-08
2.61054e-07
1.35096e-07
3.54688e-08
1.03169e-06
6.77105e-07
1.20057e-06
8.39377e-08
1.40096e-07
1.61209e-07
3.81819e-08
1.6065e-08
4.09947e-08
7.5283e-10
2.75921e-09
1.61491e-08
4.88961e-08
7.13496e-10
5.21657e-09
1.00365e-08
5.22387e-10
7.76366e-11
1.18622e-08
2.05733e-09
2.01531e-10
5.81303e-11
3.56692e-08
1.96028e-06
1.93917e-05
2.91336e-06
1.95012e-06
1.466e-08
0.000679063
7.29844e-05
1.23267e-05
0.000444076
0.000764386
0.000218184
0.000179715
0.000176656
5.05717e-07
3.46798e-05
0.000315572
4.8345e-05
2.45159e-05
6.42313e-06
1.02218e-05
2.40094e-09
2.81484e-06
1.5118e-05
4.67389e-06
1.41745e-06
2.51256e-07
6.4746e-07
1.58526e-08
8.44221e-13
2.93595e-06
8.72027e-08
2.72659e-08
1.71174e-10
3.12974e-05
8.66761e-05
4.36733e-05
2.69493e-05
5.78203e-05
4.24308e-05
1.8962e-05
4.90679e-06
3.45763e-06
5.74274e-06
1.31345e-05
1.81759e-05
2.17111e-05
7.64945e-06
2.85862e-05
6.60615e-06
2.04337e-05
4.06652e-06
1.31487e-05
5.7615e-06
1.78954e-05
1.56133e-05
4.49296e-05
1.05279e-05
3.13164e-05
1.64669e-05
6.9435e-05
4.73896e-05
3.90989e-06
3.38268e-09
1.70935e-09
4.63318e-06
3.44491e-06
2.43087e-09
1.06439e-09
2.81131e-06
1.77166e-09
6.81134e-10
1.29232e-06
6.08594e-07
2.63698e-10
5.48746e-11
2.51372e-07
1.02285e-10
1.61502e-11
3.95726e-08
4.73786e-09
2.84303e-12
2.38558e-13
8.29895e-10
6.63719e-13
4.44934e-14
7.86776e-11
1.24674e-12
2.61273e-14
9.68643e-15
9.91262e-14
5.66125e-15
1.19752e-15
1.35825e-14
1.91612e-15
6.17905e-16
1.07141e-16
2.32179e-08
3.28562e-13
1.14703e-12
7.12489e-14
7.4656e-14
2.7373e-15
3.03813e-14
6.42003e-16
2.00465e-15
1.07579e-16
2.74342e-08
4.22573e-09
1.58858e-10
3.12951e-13
3.27386e-14
1.82963e-08
3.80853e-15
3.99935e-16
1.94957e-17
1.77935e-14
4.86648e-16
6.68603e-17
3.15255e-18
1.61074e-14
5.45362e-16
1.2191e-16
6.73723e-18
2.90259e-19
4.69813e-16
1.09537e-16
7.77277e-18
4.06482e-19
1.77427e-20
5.03392e-17
5.06053e-18
3.5075e-19
1.90134e-20
8.68684e-22
0.311191
0.111705
0.0866335
0.0291203
0.0355678
0.0197004
0.00263562
0.0203241
0.00667191
0.0116334
0.0452452
0.00244834
0.00131623
0.0163405
0.0114338
0.000207515
0.0103351
0.00372307
0.0241899
0.00856643
0.00918836
0.000635955
3.90311e-05
0.00283844
0.00135653
2.59813e-05
0.0019346
0.000898976
0.00371392
0.0022883
0.0108944
0.00343996
4.46653e-05
4.51999e-07
0.00164603
0.000640414
0.000133291
1.43047e-06
0.00111926
0.00056104
0.000128246
4.77877e-05
1.67419e-05
7.12526e-12
0.00328266
0.00101663
0.000123284
1.18787e-05
2.07907e-09
0.00160422
4.01301e-05
2.21929e-08
6.0045e-12
3.43368e-15
0.000991391
0.000108949
3.06111e-10
1.10918e-09
7.14932e-15
1.41299e-08
1.79037e-14
3.99565e-15
2.04071e-16
1.17682e-05
1.15339e-06
4.72099e-15
2.16427e-16
5.18336e-17
1.51109e-08
2.01751e-14
2.73983e-16
4.83231e-17
3.72912e-18
0.0267108
0.0179345
0.0230817
0.0209817
0.0113954
0.0313752
0.017515
0.0149529
0.00935496
0.0257941
0.0174011
0.0100858
0.0145581
0.00841746
0.00527157
0.012228
0.00317203
0.0118833
0.00307599
0.00667294
0.00284437
0.00222427
0.00183952
0.00323322
0.0021538
0.00195331
0.00163093
0.00141888
0.000849774
0.00172651
0.00197846
0.00114977
0.000903877
0.000340955
0.000737674
0.000554109
0.00209141
0.00135971
0.00083525
0.00150748
0.000740571
0.00207055
0.00146948
0.00428289
0.00207622
0.0021044
0.000847656
0.000918879
0.0011728
0.000654034
0.00132932
0.000344582
0.000634612
0.000280797
0.000204041
0.000550964
0.000279674
0.000204222
4.1475e-05
0.000217714
0.000133898
0.00139903
0.00196363
0.000791798
0.000646042
0.000600098
0.000287924
0.000235071
0.00222132
0.00131537
0.000603555
0.0161048
0.0197905
0.01578
0.0127684
0.010596
0.00730682
0.00430642
0.0029934
0.00291802
0.00230579
0.00900894
0.00674833
0.00608527
0.00180535
0.00136446
0.00126385
0.000912806
0.000921241
0.00073808
0.000494494
0.000427117
0.000368964
0.00167671
0.00182862
0.00068325
0.00169482
0.00116971
0.00139372
0.000330249
0.000217801
0.000491332
0.000258208
0.000232289
2.84901e-05
0.000210461
8.68678e-05
2.18578e-05
0.000141142
8.13927e-05
1.37922e-05
1.3459e-06
3.91677e-05
3.19955e-06
0.00115472
0.00129485
0.0295378
0.0258207
0.0285111
0.0229856
0.0195573
0.0252624
0.018418
0.0234469
0.016687
0.0204164
0.0227733
0.0163388
0.0188463
0.0169294
0.0185335
0.0164332
0.0125789
0.0205585
0.0151049
0.0139581
0.0249512
0.0222481
0.0179973
0.0122063
0.0146153
0.0082876
0.00953756
0.0100114
0.00680919
0.0116125
0.00756315
0.00739162
0.0132396
0.00773869
0.00836347
0.00487571
0.00344434
0.00528093
0.00751787
0.00473055
0.00437888
0.00769475
0.00556218
0.00481153
0.00595777
0.00539295
0.0041435
0.0043322
0.00265144
0.00399457
0.00186499
0.00233554
0.00238165
0.00152624
0.00259772
0.00164435
0.00170745
0.00164003
0.00175086
0.00159437
0.00117501
0.00194927
0.00148145
0.00130784
0.00139664
0.00112269
0.000896227
0.000992282
0.00119716
0.00128008
0.00108081
0.00129868
0.00211649
0.00183232
0.00138636
0.00192466
0.00145988
0.00126851
0.000888855
0.000999912
0.000744971
0.000642031
0.00103163
0.000895102
0.000615393
0.00230649
0.0014867
0.0016542
0.00168335
0.00113096
0.00142843
0.00109842
0.000963588
0.00124173
0.00100974
0.00165783
0.00139113
0.00103229
0.00145077
0.0011492
0.000962921
0.00099337
0.000665294
0.000907257
0.00185495
0.00167504
0.00187023
0.00123871
0.00212292
0.00143644
0.00160349
0.00212993
0.00249218
0.00154775
0.00181559
0.00185519
0.0016125
0.00103508
0.0010122
0.00114188
0.00122168
0.00136411
0.00137438
0.000867504
0.00133243
0.000950497
0.000970089
0.00106451
0.00111656
0.000770008
0.000672478
0.000682303
0.000783871
0.000504554
0.000852469
0.000519227
0.000620567
0.000695186
0.000794708
0.000739766
0.000479695
0.000923912
0.000617386
0.000535691
0.000520191
0.000384629
0.000275728
0.000366494
0.000387218
0.000485835
0.000385116
0.00030123
0.000544934
0.000466825
0.000412371
0.000430108
0.000398244
0.000340687
0.000208123
0.000305774
0.000195355
0.000171862
0.000285099
0.000246798
0.000138771
0.00178157
0.00117111
0.00151523
0.00143821
0.00170754
0.000974434
0.00106088
0.00128097
0.000761772
0.000501788
0.000604294
0.000753962
0.000462363
0.000593754
0.000387634
0.0003629
0.000476997
0.00032373
0.000193378
0.000273656
0.00200771
0.00305535
0.00161624
0.00182039
0.00224693
0.00252448
0.00143514
0.000832161
0.0086464
0.0124931
0.00790396
0.00998807
0.0123173
0.00785176
0.0087167
0.00305494
0.003294
0.00243512
0.00201558
0.00362743
0.00291792
0.00210113
0.0946792
0.0627144
0.0326599
0.0685221
0.0822641
0.0538284
0.0240202
0.00898135
0.00769758
0.00591608
0.015485
0.007214
0.00743569
0.0057742
0.0051461
0.00541228
0.00301163
0.00246232
0.000789019
0.00261085
0.00082967
0.0110602
0.00625041
0.0125516
0.00952061
0.00484789
0.00394134
0.00286004
0.00464863
0.00207427
0.00429753
0.00108788
0.0011764
0.000373977
0.000393892
0.000860346
0.000507734
0.000232971
5.15486e-05
0.000565485
0.000130364
0.00526039
0.00308203
0.00126302
0.00624399
0.00238088
0.00197653
0.000488823
0.000415269
0.000845201
0.00021955
0.00125793
0.000113467
0.000268294
4.09761e-05
2.65967e-05
0.000193242
8.10772e-05
2.35615e-05
3.05284e-06
7.90692e-05
9.66331e-06
0.0115397
0.00925791
0.00691946
0.0101604
0.00750324
0.00624346
0.00679579
0.00444575
0.00314974
0.00270852
0.00481387
0.0040928
0.00289651
0.00442311
0.045021
0.0165775
0.0171119
0.0130519
0.00897087
0.0106008
0.0037183
1.13311e-06
2.03749e-05
3.32585e-06
5.48641e-07
7.72122e-09
2.24094e-06
2.31747e-08
0.000703594
0.000268787
2.58833e-06
8.44096e-14
8.0076e-15
0.347982
0.218118
0.164424
0.0752307
0.0539966
0.149668
0.0549388
0.0801479
0.049951
0.0548895
0.0262544
0.0191115
0.0990242
0.0207088
0.0163578
0.00888754
0.00338768
0.00294542
0.0182723
0.0171608
0.00382062
0.00242596
0.00146955
0.00199521
1.38155e-05
0.000129421
6.66149e-10
2.0283e-14
3.60383e-15
2.04089e-16
1.77359e-17
1.47019e-06
7.67213e-14
1.60085e-15
1.56408e-16
1.31326e-17
9.12742e-19
2.18583e-11
2.46954e-14
3.80442e-16
3.72542e-17
2.85167e-18
1.90316e-19
6.77245e-16
9.01794e-17
8.3843e-18
6.376e-19
4.21417e-20
1.21746e-15
1.58851e-16
1.96249e-17
1.82456e-18
1.36994e-19
8.97498e-21
0.0948701
0.0688094
0.101242
0.0852907
0.038572
0.0420919
0.0552577
0.042658
0.0365101
0.0317907
0.0675288
0.0376209
0.0309841
0.0308474
0.0233419
0.0189035
0.00739677
0.00511735
0.0179646
0.0196327
0.00484683
0.00473961
0.00443247
0.0227005
0.00495053
0.00429424
0.00343439
0.00354528
0.00554517
0.00280068
0.00174333
0.00304765
0.00342192
0.00166806
0.0425102
0.0513772
0.0406169
0.033438
0.0188332
0.0161967
0.0111904
0.00969369
0.0049277
0.00378837
0.00257912
0.00216507