/*--------------------------------*- C++ -*----------------------------------*\
  =========                 |
  \\      /  F ield         | OpenFOAM: The Open Source CFD Toolbox
   \\    /   O peration     | Website:  https://openfoam.org
    \\  /    A nd           | Version:  9
     \\/     M anipulation  |
\*---------------------------------------------------------------------------*/
FoamFile
{
    format      ascii;
    class       volScalarField;
    location    "0.00335";
    object      overpressureMax;
}
// * * * * * * * * * * * * * * * * * * * * * * * * * * * * * * * * * * * * * //

dimensions      [1 -1 -2 0 0 0 0];

internalField   nonuniform List<scalar> 
29212
(
4.50544e+06
8.02734e+06
1.91444e+06
2.98338e+06
2.10908e+06
2.60777e+06
3.66504e+06
1.95603e+06
1.53136e+06
4.04532e+06
1.40709e+06
2.10001e+06
1.4643e+06
2.6189e+06
1.45247e+06
8.96741e+06
6.75522e+06
7.71252e+06
3.40368e+06
2.67239e+06
2.99964e+06
2.84171e+06
2.58084e+06
2.81675e+06
2.63505e+06
4.05173e+06
3.70837e+06
2.5073e+06
2.63042e+06
2.53359e+06
4.01526e+06
1.91574e+06
1.86194e+06
1.61555e+06
1.54298e+06
1.90283e+06
1.86981e+06
1.62411e+06
5.35694e+06
4.70353e+06
6.1408e+06
1.61828e+06
1.59137e+06
1.40048e+06
1.42092e+06
1.58467e+06
1.62721e+06
1.41012e+06
1.6576e+06
1.44333e+06
1.709e+06
1.44559e+06
1.67216e+06
1.42909e+06
1.6896e+06
2.61718e+06
2.85696e+06
2.87991e+06
1.60653e+06
1.69381e+06
1.4329e+06
1.40252e+06
1.67506e+06
1.62366e+06
1.38316e+06
1.98592e+06
1.80646e+06
1.75585e+06
1.92987e+06
2.00213e+06
1.79515e+06
1.74497e+06
2.06583e+06
2.06893e+06
1.87593e+06
1.71946e+06
1.89063e+06
1.97009e+06
1.71353e+06
2.15273e+06
2.17549e+06
1.93571e+06
1.88332e+06
2.12178e+06
1.86697e+06
1.91472e+06
2.68251e+06
4.92956e+06
2.71168e+06
4.94846e+06
2.75229e+06
2.70526e+06
4.48608e+06
2.13126e+06
1.9089e+06
1.79739e+06
2.00853e+06
1.88844e+06
1.98962e+06
1.81589e+06
218902
366.966
44.1013
0.253033
0.0223449
5282.88
1.55353
0.183487
8113.06
216669
76780
203438
145992
127318
9908.76
46226.9
25684.8
19664
13034.4
49953.6
41003.4
51305
207676
132095
204402
195342
160067
375412
210479
212420
152571
151881
169876
136728
136514
172210
19340.5
9673.68
12244.8
23561.6
11436.2
18737.5
24066.4
21089.3
33699.9
27657.4
45902.2
21442.6
33296.3
27280.5
202624
150811
149486
167204
135281
135990
164364
48383.5
76542.8
101655
89672.7
115910
96869.8
116674
182489
232423
197889
224007
238012
226907
111291
83808.9
98367
133827
84002.4
98513
112197
341076
262442
306776
247306
356543
307298
329359
160597
291507
3466.19
1.80282
18.6781
11151.4
86812.9
138220
3836.11
1.25264
0.956746
18.8109
331.39
134.562
484.186
0.300059
0.0811275
0.191926
0.299186
0.0364288
0.33682
0.0241825
0.00590915
0.0105096
0.0100715
0.00184198
0.0392459
0.0030883
0.000413947
0.000578009
0.000391884
9.09394e-05
0.00346615
0.00027129
2.80059e-05
3.07212e-05
1.76605e-05
4.40169e-06
0.00022701
1.87695e-05
1.75771e-06
1.40601e-06
7.44098e-07
1.87501e-07
163773
262118
788.546
1.15201
12.8465
8500.66
87147.1
128093
1814.4
0.640885
0.620386
11.6298
177.881
53.2058
174.672
0.0578372
0.0502412
0.106131
0.0865181
0.0151831
0.1446
0.0118077
0.00318477
0.00584778
0.00399398
0.000822081
0.0194814
0.00140886
0.000205586
0.000323428
0.000190096
4.40606e-05
0.00154748
0.000120367
1.35027e-05
1.69641e-05
9.09758e-06
2.21359e-06
9.98156e-05
8.5096e-06
8.35265e-07
7.59028e-07
3.87678e-07
9.48639e-08
211760
254361
1.8234
6.95666
3449.9
71358.1
56564.8
163.259
0.267448
0.302733
3.82195
30.7639
2.73529
4.78277
0.0286618
0.0175497
0.0344337
0.023585
0.0042117
0.0471002
0.00386378
0.000982133
0.00196746
0.00110121
0.000262827
0.00476901
0.000402023
6.19962e-05
0.00010775
5.48571e-05
1.41158e-05
0.000387089
3.38695e-05
3.88884e-06
5.26266e-06
2.5988e-06
6.56932e-07
2.59434e-05
2.32848e-06
2.29833e-07
2.15776e-07
1.05385e-07
2.58733e-08
199886
49092.3
988.492
44.0523
425.602
12249.5
1102.59
81.3165
6.10918
0.543739
0.875852
0.965784
0.0918948
0.806851
0.106754
0.0182074
0.0116796
0.00438025
0.00140532
0.0401416
0.00700113
0.00122876
0.000681577
0.000248538
6.53796e-05
0.00294066
0.000449983
7.02734e-05
3.14765e-05
1.16276e-05
2.77103e-06
0.000188482
2.75977e-05
3.73722e-06
1.27204e-06
4.67902e-07
1.0943e-07
1.06797e-05
1.49412e-06
1.79061e-07
4.64497e-08
1.6109e-08
3.84171e-09
179360
170020
160766
92082.4
26.0355
128134
73244.2
38183.7
868.91
177.124
0.689916
40763.8
814.948
10.8556
0.304882
0.0310933
0.00366246
8.63439
0.501924
0.0285597
0.00614069
0.00098378
0.000177549
0.0332678
0.0130962
0.00168015
0.000283874
3.93715e-05
7.41921e-06
0.00229724
0.000648274
9.38228e-05
1.25965e-05
1.66002e-06
2.94007e-07
0.000148398
3.31359e-05
4.89071e-06
5.65356e-07
6.84813e-08
1.11904e-08
8.16165e-06
1.6065e-06
2.25467e-07
2.37924e-08
2.51748e-09
3.20142e-10
254836
206630
148063
1004.51
14.9935
0.0749457
14274.1
132431
24308.8
86.041
0.291131
0.00554703
1641.96
681.23
1.38706
0.0190405
0.00313727
0.000317533
3.2829
0.176524
0.00798169
0.00113546
0.000143064
1.53366e-05
0.0131934
0.00400778
0.000566205
6.5121e-05
6.73257e-06
7.00486e-07
0.000953165
0.000219393
3.36904e-05
3.47562e-06
3.21597e-07
3.09956e-08
5.94492e-05
1.21258e-05
1.81698e-06
1.75962e-07
1.49448e-08
1.26602e-09
3.09764e-06
6.10366e-07
8.61473e-08
7.9599e-09
5.09317e-10
0
14837.4
10388.1
28.1174
0.372621
0.0304584
0.00289327
2661.35
11088.3
23.6001
0.0320955
0.00348414
0.000287049
2.10228
1.13944
0.0201922
0.00216638
0.000218553
1.86259e-05
0.0507552
0.00936359
0.00140216
0.000144537
1.29011e-05
1.07037e-06
0.00293296
0.000616381
8.75704e-05
8.71919e-06
7.2924e-07
5.74946e-08
0.000180184
3.57847e-05
4.97348e-06
4.85059e-07
3.90719e-08
2.91038e-09
1.03823e-05
1.97571e-06
2.66096e-07
2.54076e-08
1.84809e-09
4.36557e-11
5.27725e-07
9.79053e-08
1.26311e-08
1.07684e-09
0
0
2.07116
1.31289
0.0771827
0.0106343
0.0014365
0.000121208
1.09934
0.875125
0.0154028
0.00167487
0.000165482
1.31476e-05
0.188556
0.0111271
0.00152908
0.000151884
1.31999e-05
1.01356e-06
0.00500432
0.000847591
0.000114281
1.11706e-05
9.19608e-07
6.75936e-08
0.000299162
5.58484e-05
7.43264e-06
7.21935e-07
5.78439e-08
4.00178e-09
1.85851e-05
3.39348e-06
4.43542e-07
4.26517e-08
3.25963e-09
1.45519e-10
1.08396e-06
1.93861e-07
2.47237e-08
2.25555e-09
1.01863e-10
0
5.58066e-08
9.76434e-09
1.16415e-09
0
0
0
0.0414214
0.0863393
0.0044807
0.00054822
5.9979e-05
4.95136e-06
0.0281876
0.00547377
0.000852295
8.90705e-05
7.95003e-06
6.03992e-07
0.00381594
0.000653886
8.92199e-05
8.80701e-06
7.33577e-07
5.29544e-08
0.000288797
5.37802e-05
7.11856e-06
6.95887e-07
5.63159e-08
3.89991e-09
2.1116e-05
3.82018e-06
4.94823e-07
4.79631e-08
3.72529e-09
1.74623e-10
1.39888e-06
2.46102e-07
3.11411e-08
2.86673e-09
1.16415e-10
0
8.45757e-08
1.44646e-08
1.65892e-09
8.73115e-11
0
0
4.36557e-09
6.69388e-10
0
0
0
0
0.00492792
0.00159864
0.000217737
2.55887e-05
2.53718e-06
2.05167e-07
0.00123014
0.000269085
3.97252e-05
4.13445e-06
3.60946e-07
2.66446e-08
0.00016699
3.2011e-05
4.33206e-06
4.34098e-07
3.61324e-08
2.44472e-09
1.55084e-05
2.83614e-06
3.70856e-07
3.64962e-08
2.91038e-09
1.01863e-10
1.22239e-06
2.15179e-07
2.73722e-08
2.53203e-09
1.01863e-10
0
8.46339e-08
1.44792e-08
1.67347e-09
8.73115e-11
0
0
5.19503e-09
7.567e-10
0
0
0
0
1.74623e-10
0
0
0
0
0
3624.66
5.38905
1903.39
3.55155
1.05506
5.49508
0.814017
4.14211
31.9791
5136.1
24.8585
4343.37
69175.6
19864.2
77737.5
70430.4
17970.5
79446.2
249710
95434
148368
160524
248238
96964.1
148498
7.12172
3885.94
10.9054
2612.47
5.0333
3301.22
7.44499
2.72082
1.63011
0.99653
1.46462
2.00518
1.34809
0.782573
2620.82
5.82711
32.6639
13.7525
2141.97
4.48882
24.544
70969.9
115.736
1761.51
9494.53
71030.9
85.748
1275.85
1219.36
2.79947
1.42087
0.61707
3.44384
0.387866
1.44961
20.9578
3892.3
9.45547
2244.67
76271.2
16753.4
80545
83135.8
11145.4
83768.1
273953
98002.4
148786
213485
269586
100875
148977
14.295
1818.37
18.125
5.25227
369.654
6.15489
1.83727
0.905355
0.596994
0.738683
1.10151
0.67924
0.357466
1868.01
3.84537
20.494
6.5074
933.918
2.32544
10.7122
70681.2
69.4932
1027.34
4721.46
62822.4
27.3004
374.771
2.15089
445.641
0.979131
1.03374
260.408
32.2133
6.25861
1696.38
15.7851
483.215
132914
8902.22
84023
134975
3042.26
67580.4
266557
101340
146631
207324
252669
82817
79351.4
6.05634
175.158
3.25159
215.747
225.315
60.6725
1.17746
0.732113
0.325905
148.312
13.0184
6.07913
1.8255
658.355
1.12508
9.50342
5.03515
142.66
0.860524
3.98824
55597.4
18.1772
233.018
819.49
19613.7
5.67365
35.22
2571.18
47004.8
1625.22
260.309
47187.9
42005.4
115.892
272.294
32867.3
4726.07
134948
1771.27
51576.5
140689
2090.49
5606.89
246439
63308.1
37735.8
189632
184660
5770.69
588.791
6720.26
1242.19
2197.76
50194.4
25538.2
32279.2
111.055
22.4491
4.02532
48908.4
24505.5
2054.39
122.172
72.7144
4.94735
2.43721
13153.7
739.269
42.0432
4.10393
9695.12
4.86419
15.5788
310.705
644.57
4.41564
2.61067
173741
82384.7
82295.4
221241
213780
139032
136357
165258
78588.5
18616.8
211408
208710
123336
12754.8
159841
7352.91
2385.95
200416
73900.1
3585.86
74.3429
461799
326028
314208
470213
290823
606199
530445
215871
10420.6
392546
221033
203234
5578.49
7745.9
0.996169
256115
235764
1792.76
176.682
0.438669
0.0115131
181695
38241.1
0.542272
0.0292923
0.00452844
0.000531476
155.758
0.784561
0.0156264
0.00221063
0.000226056
2.03468e-05
0.0208521
0.00348535
0.000705173
0.00010581
1.06579e-05
9.13657e-07
74751.1
75559.7
478573
324004
406038
476810
378707
404484
81542.5
88344.5
485382
327701
403873
473826
327372
393529
168782
610896
169261
467105
322009
378931
556881
436877
316853
369261
580358
167422
474846
167107
422741
259975
294541
427156
368407
242947
260764
234885
313194
222700
213917
435237
403074
293665
250393
547257
207665
199792
395991
379160
248519
246192
421086
189723
210836
360585
311164
238082
192510
234033
187682
108273
166974
176191
141834
140579
149557
130238
129518
151141
168022
136468
134355
146164
127889
127136
146986
163925
130413
141167
112291
111779
96729
130594
337.203
3928.27
365.292
3286.45
3551.62
332.94
371.836
33.5644
4.30154
38.5424
5.07702
4.00846
35.404
36.7373
271.512
2654.39
2016.09
197.342
2848.91
271.261
193.785
27.3791
4.37745
2.66128
21.6736
3.43246
29.15
19.9842
0.349332
0.646971
0.600814
1.025
0.618557
0.580213
0.364047
1.04364
6.71861
1.11486
5.26673
6.44744
1.08146
1.08707
0.319532
0.909804
0.462949
0.456203
0.555671
0.525387
0.269923
0.937513
4.74828
5.15768
0.826311
5.89734
0.922941
0.818021
242.835
42.8486
187.523
30.7901
41.2475
180.833
251.472
1306.26
6375.82
1038.52
4983.54
6181.24
1004.13
1349.43
227.233
28.1568
33.9078
150.266
38.2408
168.191
204.614
1229.64
4712.71
5374.99
853.746
5836.04
941.11
1124.09
69207.7
116548
116453
84915.7
104466
104595
84664.4
25659
18839.5
38935.4
19506.6
18653.5
38919.9
25534.5
117504
72949.6
119815
85912.3
106984
105409
87656.8
25906.1
18880
17763.4
38850.9
18323.1
38927.6
26145.1
70.2248
1262.35
128.79
123.167
75.9609
7.84862
1.8274
14.4603
2.10356
13.1173
1.1717
9.11557
4.36788
1.53322
0.69659
3.52965
0.792574
5.26007
2.76104
0.144208
0.325737
0.365525
0.489904
0.202437
0.226216
0.277192
0.523139
4.26775
0.683166
2.75668
0.660388
3.39147
0.582303
0.10968
0.347372
0.216462
0.238719
0.172484
0.193697
0.12968
0.375893
2.03026
1.80264
0.345626
2.53216
0.398716
0.293139
146.792
28.5188
128.49
17.091
176.175
23.1149
105.651
852.432
4843.76
747.928
3376.16
995.77
4258.16
630.834
117.023
12.8938
13.0494
61.3214
17.861
82.7316
88.6811
700.986
2817.4
2967.9
390.676
3625.46
509.233
551.262
122885
79833.7
126089
92390.2
109034
89922.5
111260
26743.5
16930.1
38602.1
15194.1
26413.8
15791.5
38012.3
128857
131125
86079.2
94670.9
114858
113255
96587.2
27071
13303.3
12496.6
34752.4
14313.2
36818.4
27229.6
21.5246
1.96109
4.1841
10.2556
4.13892
12.1418
18.5858
141.613
68.1898
533.612
713.007
85.3757
115.986
832.83
3.15667
0.907317
0.558779
5.34356
0.461834
6.36385
2.61204
1.5709
1.29092
0.391836
1.17137
0.351998
1.41318
1.30752
25.2714
37.4109
321.978
141.875
48.0384
19.3134
182.465
12.05
4.7217
45.9211
70.5431
6.06063
9.07253
94.9791
41.32
8.96191
44.4663
4.36443
61.8286
6.08119
28.8103
289.797
2328.53
281.016
1205.38
411.645
1737.21
190.942
26.7405
4.30304
22.6816
15.2995
5.81278
18.2884
23.7016
189.417
796.897
788.358
71.4849
1217.37
119.836
117.733
134201
88742.9
91214.5
99394.6
116047
98141.5
116824
26042.3
10432.3
31534.2
6724.51
27062.2
8367.86
27098.1
135227
93467.1
95500.1
100351
117212
117216
101019
24164.9
4723.49
4704.2
15568.9
6471.45
21630.7
21404.2
14205.3
2902.1
3870.92
12634.3
4241.17
11659
16595
22279.7
32740
28743.7
46833
22404
34247.3
28511
6169.35
1890.2
960.126
8703.79
1159.47
8905.56
5622.38
3894.66
359.35
524.135
1889.38
668.778
2371.82
3399.13
19511.5
29360.6
28974.3
47382.8
21676.1
24020.1
29205.4
15671.1
11564.7
29667.5
46627.5
11503.6
17626.2
29437.2
666.084
175.067
54.4848
936.197
89.2648
1329.55
415.139
345.617
478.033
54.2026
189.369
96.6404
371.606
190.484
4928.07
6661.02
29173.4
21109.3
7982.2
3309.77
26270.9
2599.58
656.436
11245.6
10863
1370.59
1453.11
19564.1
134144
98705
97244
100150
116846
101386
116270
12145.6
3088.15
9916.34
945.664
17425.5
1856.64
5481.05
134207
116592
102217
94678.6
104134
113291
87820.5
7399.62
625.202
5965.32
1893.78
1374.23
2750.28
5675.97
171791
139391
138140
148463
128456
128955
147688
161664
131409
128041
144725
123073
125800
141881
335504
291501
277498
502681
348080
304059
583224
235972
462944
225921
452147
309107
289878
510609
214221
417249
216321
405401
290340
74462.5
155126
154729
109499
229169
228390
110191
155429
78138
157618
109700
229902
228367
111265
160513
85128.2
163433
116787
232571
113653
235715
165860
167627
91126.7
120113
240411
238435
123317
169311
93490.9
95631.3
127986
241480
126019
241189
246590
639354
727182
353813
762959
361803
242440
168631
97618.9
99501.8
129295
236692
239558
130076
165594
102753
101262
130091
232647
130367
227461
163213
115238
104238
129048
217445
221314
131348
228385
165257
162261
286969
199981
206116
277464
325124
248822
476248
263112
489396
316498
217827
159405
156646
262149
193822
187652
269099
210711
153757
150601
256556
173740
180780
251926
299905
565148
216067
428434
220226
440985
295027
204276
147031
142859
243722
166689
159895
247837
193960
137939
132308
238751
147472
153418
232944
193739
131283
140762
230342
144109
151231
227827
229637
690333
343554
548208
236939
650304
331154
220856
514496
555969
302369
607643
317108
210509
183206
144800
143260
131132
132193
153202
155721
107.462
5589.84
230441
173.274
220.047
85.9821
1564.34
1118.05
7643.81
46472.4
50178.6
249061
282402
197585
110286
148378
702.511
704.913
36.3703
363.976
160.234
21.54
351.493
40.9108
18.5901
39.2074
78.733
14.4075
77.2666
13.3417
81.8477
33.2589
223.694
297.761
1753.33
1081.76
343.398
188.722
1234.99
16164.2
7849.08
5576.01
22301
5971.35
17673.9
19951.9
21981.9
33999.4
27984.7
46666.5
21742.5
34276.7
28264.2
241854
168262
171375
297413
219342
212601
308495
161428
134356
148018
192515
146438
133313
158498
173.024
23950.8
176466
1829.53
101.113
20.6113
0.769326
84877.8
84699.8
76507.4
94419.6
56537.4
124736
27596.9
58242.4
5689.48
320.769
122336
91382.2
10644.1
309.763
2366.03
105.538
4.6839
50482.4
1315.19
82.3053
2.3312
245.383
2.50257
1.96642
350.862
7.1844
1.74244
0.557095
195546
189240
225164
210412
239651
179963
158897
227357
190774
220773
150719
137960
136175
7462.63
219453
4656.99
217881
103513
3586.87
1591.22
12.4144
178697
12713.7
9.80737
886.269
12.8342
3.50584
0.997375
62384.1
84891.6
60096.6
77961.9
85020.4
60323.6
62145
63072.3
78530.3
86843.6
61626.4
85654.2
60856.8
64178.5
67223.8
88372.3
62562.5
81740.2
65616.8
90035.3
63596.4
68735.2
82854
92805.5
64849.5
91566.9
64549.8
69993.6
71731.1
93706.2
63883.8
82265.3
70976.3
94311.8
60953.2
72283.8
77390.6
94724.8
45476.4
94645.9
55254.3
72287.3
60414.7
92357.7
32115.5
31525.3
69130.3
83497.4
18597.8
46083.7
14268.1
41242.8
4080.85
65884.2
8822.68
30589
122512
96787.1
82289.5
106718
96586.2
123550
106244
121780
96251.7
82271.4
105763
96429.6
121215
105959
119899
95963.5
64076.4
103647
95440.7
120642
90433.4
115652
72469.1
40050
28944.9
89719.2
97402.2
61383.7
152820
162171
147182
93479.7
94107.3
89882.6
72998.6
35305.3
47991.3
3388.66
10540.7
28028.5
65274.6
4039.51
18075.8
21904.6
2656.4
973.162
22542.9
9914.76
1858.12
1351.02
127278
231861
374150
346197
319017
88583.5
287624
241546
225195
298728
366025
281189
294389
283230
215202
248714
343669
299096
256227
249836
247460
24548.7
245684
294382
291548
248758
237653
238082
85056.7
59.8075
303350
192843
113905
2666.4
310594
460936
317356
372456
277375
389732
316973
189422
202171
164075
248782
242878
197889
261720
126555
82862.1
97377.6
82579.9
97039.2
107396
124914
109254
128356
83202.3
97760.4
83531.6
130231
98099.3
127524
2630.67
2467.33
87344.2
126592
1867.86
1560.78
124867
1481.59
1144.63
79044.5
101750
500.48
264.288
81819.4
301.578
131.305
25632.9
11124.9
39.1673
8.8206
3725.51
16.054
3.15308
605.87
51.9357
1.95544
1.09429
8.95952
0.811775
0.256777
2.36547
0.480665
0.199092
0.0396181
7978.28
2.69463
9.2935
0.954322
1.4213
0.0566369
0.630254
0.018908
0.15715
0.00945863
3868.2
1484.58
523.697
4.33248
2.26943
35366.6
0.545334
0.0552901
0.00315832
2.09333
0.0535124
0.01032
0.000698184
1.54261
0.0551977
0.0163319
0.00123622
7.85798e-05
0.038743
0.0128364
0.00123317
9.2046e-05
5.9888e-06
0.005089
0.000708677
6.77836e-05
5.27105e-06
3.62343e-07
574516
654799
490347
473072
938547
897202
497855
1.3099e+06
450500
473123
633216
492896
504694
955473
905337
345590
1.20187e+06
451013
411241
462265
536105
507447
556767
1.03518e+06
896987
332628
1.03595e+06
575944
437277
307333
494475
497182
584212
472280
1.0792e+06
961621
751304
306957
1.05438e+06
845348
379932
565067
580009
185.573
457298
656407
722367
561730
20509.3
681287
338190
47685
185.154
0.52482
320128
406304
4682.61
14710.5
1.58162
45311
1.89268
0.57399
0.0286584
248423
267403
1.01171
0.0493717
0.014893
57725.8
2.34435
0.0593182
0.0125876
0.00123549
1.44653e+06
1.3822e+06
918468
1.33479e+06
976039
941641
928256
1.27379e+06
937629
1.45351e+06
1.35974e+06
778258
1.23481e+06
750364
478082
1.35484e+06
1.25199e+06
1.3183e+06
1.16294e+06
737633
1.08013e+06
702576
448814
1.0387e+06
1.19324e+06
1.22101e+06
1.18302e+06
1.21792e+06
977791
953378
1.09719e+06
864048
1.00599e+06
856897
913526
781302
1.10531e+06
1.13903e+06
936946
685368
895373
1.0476e+06
1.17851e+06
591651
825398
872246
860124
987933
1.12189e+06
910356
725880
807921
841534
721717
811301
856192
697805
783844
657794
687171
606421
1.14954e+06
949685
839966
880970
797611
702700
680624
703311
412539
627946
1.18408e+06
1.28977e+06
1.16773e+06
934431
1.24935e+06
918577
1.01301e+06
957538
1.15249e+06
828859
1.09681e+06
1.16463e+06
1.06685e+06
977157
990716
941689
975585
974090
907043
812223
794481
764328
511155
725158
737865
351327
448531
512336
512517
740955
727739
661290
457931
528381
504375
458855
607355
591726
530424
520900
441066
423584
340480
662886
517917
1.42378e+06
1.42761e+06
1.41256e+06
1.4069e+06
1.39273e+06
1.40368e+06
1.25261e+06
1.34826e+06
1.2228e+06
1.31694e+06
1.33546e+06
1.20662e+06
1.26662e+06
1.23862e+06
1.29688e+06
1.31015e+06
1.16829e+06
1.32485e+06
1.18844e+06
1.21967e+06
1.42874e+06
1.39731e+06
1.26459e+06
1.12439e+06
1.14748e+06
234712
761785
908486
356234
923474
356651
234477
1.38361e+06
1.32724e+06
1.36825e+06
1.29606e+06
1.29757e+06
1.3411e+06
1.27378e+06
1.21948e+06
234652
891887
356889
728094
234359
872801
360467
1.12339e+06
1.00855e+06
1.0384e+06
1.27957e+06
1.24276e+06
1.29577e+06
1.12358e+06
1.34739e+06
1.18139e+06
1.22018e+06
1.28937e+06
1.32027e+06
1.2683e+06
1.13786e+06
1.37701e+06
1.22938e+06
1.19663e+06
1.19954e+06
1.04929e+06
1.03271e+06
1.05426e+06
1.10852e+06
1.13695e+06
1.11509e+06
1.00454e+06
1.14581e+06
1.00883e+06
1.03666e+06
1.05565e+06
1.08901e+06
959814
948188
974310
958184
857934
1.02472e+06
908133
889263
1.19645e+06
1.04866e+06
1.12251e+06
1.23318e+06
1.04941e+06
1.12987e+06
992605
985412
1.05219e+06
248252
820023
368939
664313
247000
794657
367147
943801
858287
901688
1.08688e+06
1.20715e+06
1.21674e+06
1.07119e+06
1.2119e+06
1.09282e+06
1.09738e+06
934557
789982
872722
995665
833135
975730
967779
881837
868715
987041
985638
868637
1.01703e+06
1.16275e+06
1.0519e+06
1.03001e+06
1.10518e+06
1.06273e+06
972143
955823
959079
977232
847586
1.03293e+06
889976
906228
932799
939435
871234
808599
967629
894415
845412
882974
788030
758513
763948
825177
838465
807305
776467
892079
808876
801554
831288
829596
760270
724886
747845
711654
656023
771466
711418
671196
1.2451e+06
1.05161e+06
1.12295e+06
913787
1.05686e+06
951047
877662
1.00307e+06
921078
824935
859706
892936
757455
838697
768818
726888
798959
742463
656391
715290
379376
733958
306107
536444
322883
559920
362490
646675
235837
948175
361390
770998
937051
358604
238353
238729
716832
840897
367931
857398
364814
243474
509202
669211
758825
641848
502640
667075
767290
770803
729008
627220
900368
759737
713001
615937
754764
685468
528110
912600
712622
647045
510470
562567
615361
497918
473458
664314
657721
450367
625214
837117
478116
489063
869557
846882
687071
686550
503824
796013
596628
662892
473172
500730
772428
846868
463743
493778
628763
737768
542887
865443
821910
510270
568102
761171
692981
563111
544200
457336
609803
468486
490595
397129
1.29142e+06
1.14715e+06
1.22471e+06
1.19406e+06
1.26598e+06
1.12481e+06
1.16554e+06
1.19566e+06
1.19531e+06
1.05608e+06
1.23456e+06
1.0958e+06
1.10055e+06
1.1364e+06
494940
644690
776713
570528
465607
626071
816648
440066
423304
372562
412305
128472
348737
136105
232447
213547
155404
2.09675
0.277453
1.03892e+06
1.38517e+06
982109
993228
2.03557e+06
985362
621158
1.14553e+06
874899
1.06865e+06
981594
1.79395e+06
403520
576846
617575
1.01493e+06
1.28208e+06
1.44741e+06
398156
473210
823025
309973
290209
431783
182202
271442
3384.54
1.78732
0.48788
0.0287184
0.00256906
190180
3.46053
0.150724
0.0172982
0.00199422
0.000172915
262.458
2.31517
0.0593005
0.00720081
0.000727979
6.25104e-05
0.0328465
0.00727074
0.00101072
0.000112956
9.72659e-06
0.0630308
0.0122957
0.00278738
0.000370663
3.77493e-05
3.16754e-06
1.23631e+06
1.90496e+06
1.07166e+06
1.02194e+06
1.84812e+06
948437
1.79978e+06
996085
950164
1.72286e+06
2.28007e+06
2.08572e+06
1.8649e+06
994800
1.82911e+06
1.00117e+06
985493
1.71482e+06
955292
1.69918e+06
1.28038e+06
1.01364e+06
1.58691e+06
2.00912e+06
1.73579e+06
1.55399e+06
1.27788e+06
1.62879e+06
860157
1.22099e+06
1.29013e+06
1.51351e+06
1.61282e+06
1.25083e+06
1.81459e+06
1.98894e+06
1.77595e+06
2.52951e+06
2.45293e+06
1.61004e+06
1.71659e+06
1.54409e+06
2.00071e+06
1.81788e+06
1.3085e+06
1.33723e+06
1.21685e+06
1.33463e+06
1.19047e+06
456909
1.62067e+06
1.59728e+06
1.99381e+06
1.88216e+06
1.60162e+06
1.97182e+06
1.61228e+06
1.65263e+06
2.06723e+06
2.04432e+06
1.67553e+06
1.62964e+06
1.8632e+06
1.62746e+06
1.96371e+06
1.60866e+06
1.95945e+06
1.65263e+06
1.53349e+06
1.57349e+06
1.67924e+06
1.77532e+06
1.5738e+06
1.65478e+06
1.53673e+06
1.48254e+06
1.55795e+06
1.53734e+06
1.49039e+06
1.53616e+06
1.75109e+06
1.59245e+06
1.60427e+06
1.57693e+06
1.62964e+06
1.54333e+06
1.47757e+06
1.49387e+06
1.5171e+06
1.47302e+06
2.5406e+06
2.22434e+06
2.47579e+06
2.59823e+06
2.6645e+06
2.15747e+06
2.33305e+06
2.40276e+06
1.62145e+06
1.59043e+06
1.93057e+06
1.67144e+06
1.72696e+06
1.50401e+06
1.54988e+06
1.83211e+06
2.10347e+06
1.74852e+06
2.11017e+06
1.79e+06
1.67585e+06
1.96884e+06
1.80651e+06
1.71625e+06
1.72829e+06
1.94766e+06
1.87067e+06
1.97169e+06
2.06077e+06
1.84925e+06
1.81936e+06
1.77177e+06
1.72558e+06
1.84556e+06
1.74628e+06
1.90961e+06
1.80164e+06
1.56377e+06
1.62429e+06
1.58161e+06
1.67664e+06
1.55352e+06
1.65295e+06
1.55413e+06
1.46797e+06
1.46637e+06
1.47013e+06
1.43724e+06
1.55639e+06
1.64003e+06
1.62973e+06
1.46838e+06
1.65696e+06
1.51669e+06
1.52202e+06
1.45076e+06
1.35691e+06
1.4029e+06
1.4088e+06
2.25472e+06
1.92408e+06
2.1715e+06
2.17832e+06
2.3336e+06
1.83739e+06
1.94427e+06
2.07127e+06
1.45256e+06
1.3987e+06
1.63986e+06
1.39836e+06
1.47503e+06
1.26828e+06
1.33575e+06
1.64082e+06
1.84984e+06
1.77176e+06
1.69966e+06
1.62836e+06
1.66441e+06
1.7443e+06
1.5227e+06
1.73588e+06
1.56788e+06
1.6174e+06
1.47848e+06
1.39223e+06
1.5438e+06
1.3169e+06
1.49316e+06
1.40629e+06
1.32781e+06
1.34546e+06
1.45062e+06
1.48129e+06
1.34921e+06
1.38003e+06
1.56973e+06
1.403e+06
1.42209e+06
1.46098e+06
1.48176e+06
1.32024e+06
1.79824e+06
1.48408e+06
1.64652e+06
1.48642e+06
1.64655e+06
1.36146e+06
1.37101e+06
1.50315e+06
1.04294e+06
1.25003e+06
1.17087e+06
1.11743e+06
1.08336e+06
1.17759e+06
1.0745e+06
1.29265e+06
987516
1.11358e+06
1.01737e+06
716418
890143
685055
908036
698828
844154
676802
942511
1.09648e+06
886841
842404
717498
884901
766333
688573
821579
647777
698698
606135
661500
624920
613606
686104
801835
499253
499354
672328
806555
623887
485921
628974
751728
408066
437350
529145
574029
383988
227921
227436
115368
104121
26.487
5.07469
0.137807
0.568458
356007
276655
263557
385424
360604
270322
181863
179790
343519
245697
239699
354613
256375
177213
174366
331913
226315
233271
320097
991602
881667
1.10085e+06
614329
446716
419756
820532
363355
398614
773672
342320
586390
1.25379e+06
3.09926e+06
2.83455e+06
2.21202e+06
1.41563e+06
2.14661e+06
2.16258e+06
2.8773e+06
2.2261e+06
2.10985e+06
2.42949e+06
1.95398e+06
1.42244e+06
1.5945e+06
781094
1.22349e+06
628531
870171
1.25933e+06
1.46578e+06
985825
2.81577e+06
3.01502e+06
2.74103e+06
2.75833e+06
1.9922e+06
1.25196e+06
418330
623508
389160
1.64515e+06
1.66475e+06
2.07456e+06
2.12649e+06
1.68149e+06
2.05378e+06
1.63296e+06
2.12178e+06
1.70118e+06
1.68498e+06
2.93781e+06
1.77587e+06
2.25509e+06
1.8632e+06
2.21577e+06
1.85191e+06
1.88825e+06
2.61508e+06
1.74711e+06
1.77838e+06
1.58644e+06
1.5984e+06
1.24768e+06
1.40994e+06
1.78618e+06
851974
1.02838e+06
1.15867e+06
1.07956e+06
957231
914642
1.03384e+06
777116
969284
752127
874227
825648
949972
720751
1.10351e+06
1.11487e+06
982242
1.47609e+06
1.28243e+06
1.30236e+06
1.13211e+06
1.03307e+06
1.16828e+06
1.35178e+06
2.20873e+06
1.27945e+06
2.25343e+06
3.39222e+06
3.17539e+06
1.14294e+06
2.34148e+06
1.01943e+06
2.21479e+06
3.15958e+06
2.67965e+06
1.01593e+06
2.02835e+06
828918
1.40106e+06
2.41538e+06
1.68019e+06
1.76172e+06
1.6991e+06
2.26576e+06
2.19079e+06
1.72266e+06
2.25176e+06
1.72934e+06
1.76014e+06
2.19102e+06
1.73147e+06
2.33957e+06
1.72306e+06
2.25774e+06
1.76277e+06
3.68873e+06
3.29954e+06
3.58969e+06
3.22138e+06
3.49624e+06
3.51619e+06
1.87321e+06
1.8024e+06
2.44783e+06
2.38103e+06
1.82643e+06
1.87534e+06
2.48657e+06
1.84827e+06
2.33773e+06
1.81102e+06
2.26818e+06
1.8781e+06
2.4257e+06
1.75175e+06
3.49968e+06
3.07317e+06
3.39818e+06
2.90899e+06
2.91282e+06
3.19701e+06
1.41546e+06
1.67899e+06
2.03876e+06
1.8148e+06
1.59458e+06
1.50444e+06
1.78809e+06
1.24356e+06
1.60189e+06
1.16622e+06
1.33222e+06
1.32698e+06
1.54724e+06
1.0893e+06
2.59977e+06
2.15597e+06
2.29072e+06
1.90914e+06
1.70982e+06
1.99128e+06
415854
466760
384748
641993
406210
669678
442856
1.16214e+06
702601
659484
1.15265e+06
822714
711884
956609
527508
587951
560814
578008
511249
602597
430081
980524
1.15975e+06
984640
1.11365e+06
983216
1.10855e+06
983640
794946
656359
798527
665942
818137
820095
667228
1.3377e+06
1.42742e+06
1.38103e+06
1.21908e+06
1.30341e+06
1.25638e+06
1.26635e+06
955354
761532
730383
709656
728897
1.00481e+06
924114
1.31219e+06
1.30878e+06
1.29101e+06
1.37168e+06
1.47948e+06
1.44077e+06
1.41099e+06
1.00405e+06
1.09367e+06
986362
1.15698e+06
993340
1.1022e+06
985190
664417
686192
838303
657319
807464
826894
673879
594639
588007
552421
567210
563814
518256
512565
1.32536e+06
1.24028e+06
1.21534e+06
1.18423e+06
1.15232e+06
1.21606e+06
1.12892e+06
1.13695e+06
1.28804e+06
1.24554e+06
1.3385e+06
1.29276e+06
1.17846e+06
1.22284e+06
1.31444e+06
1.21167e+06
1.30634e+06
1.33298e+06
1.30238e+06
1.39087e+06
1.32134e+06
534567
567613
503634
582005
543437
563378
507498
1.13401e+06
1.01458e+06
1.02118e+06
981371
1.08178e+06
1.06675e+06
985192
331988
381608
393916
510226
387674
479326
431459
864243
679473
702248
863583
703727
851460
723794
1.11161e+06
1.19024e+06
1.0526e+06
1.04338e+06
1.14499e+06
1.01372e+06
1.15622e+06
1.2163e+06
1.25567e+06
1.15962e+06
1.1874e+06
1.07742e+06
1.15029e+06
1.10466e+06
543210
518324
534061
473652
491097
484070
466211
1.12792e+06
1.09305e+06
1.2675e+06
1.23567e+06
1.19684e+06
1.29118e+06
1.26692e+06
1.00789e+06
1.03483e+06
1.00116e+06
936565
912618
906815
931957
1.05297e+06
914365
958303
977680
1.04623e+06
953996
908567
914309
718287
701294
698195
610813
699171
887552
581987
526879
581137
578424
577815
593957
502249
1.30137e+06
1.05073e+06
1.30624e+06
1.09852e+06
1.32453e+06
1.21667e+06
1.31897e+06
819125
688720
828283
828549
702673
815779
690196
1.03929e+06
978502
949801
1.07621e+06
1.01619e+06
982780
1.11619e+06
1.08266e+06
1.01268e+06
1.06886e+06
967156
1.11132e+06
986902
1.04794e+06
1.31245e+06
1.02812e+06
1.3031e+06
1.03233e+06
1.03334e+06
1.29986e+06
1.32503e+06
495240
449049
469267
507387
523311
476552
457927
1.27078e+06
1.17209e+06
1.29511e+06
1.12701e+06
1.28824e+06
1.04414e+06
1.26561e+06
1.11795e+06
1.02116e+06
1.01402e+06
1.02468e+06
960242
973369
1.04749e+06
1.02704e+06
895896
945612
968133
1.03762e+06
950439
902606
906948
971373
880835
1.02339e+06
989074
896288
921787
570445
390980
602408
564959
611726
426988
469217
897874
729655
818086
801600
869652
870058
743885
1.17442e+06
1.26019e+06
972224
945007
1.00281e+06
1.13481e+06
1.2328e+06
812620
705904
836354
831959
706131
813998
695885
569346
589297
569603
496019
494935
491903
496151
273014
258875
315213
363816
262194
342103
246394
978824
948022
971331
874528
890118
883295
867750
841928
887465
954458
948813
862515
924050
864123
918832
930575
997559
1.05068e+06
944817
959605
1.02411e+06
931323
1.0134e+06
926361
887395
996524
939638
877011
829090
688079
821443
818220
822474
687792
677731
575953
489083
558188
580584
494592
497295
569046
506179
583433
494131
594111
574024
491149
499379
501426
489046
481027
457579
450265
440527
433692
1.02843e+06
1.02062e+06
1.24257e+06
1.00509e+06
1.21473e+06
1.00942e+06
1.21639e+06
840990
810107
718605
721219
839666
806446
731587
943171
846513
859804
937795
959071
873304
858654
1.28054e+06
995908
1.28885e+06
1.27319e+06
1.00741e+06
1.25923e+06