/*--------------------------------*- C++ -*----------------------------------*\
  =========                 |
  \\      /  F ield         | OpenFOAM: The Open Source CFD Toolbox
   \\    /   O peration     | Website:  https://openfoam.org
    \\  /    A nd           | Version:  9
     \\/     M anipulation  |
\*---------------------------------------------------------------------------*/
FoamFile
{
    format      ascii;
    class       volScalarField;
    location    "0.00075";
    object      impulse;
}
// * * * * * * * * * * * * * * * * * * * * * * * * * * * * * * * * * * * * * //

dimensions      [1 -1 -1 0 0 0 0];

internalField   nonuniform List<scalar> 
7135
(
0
0
0
0
0
0
6.71467e-14
0
0
0
0
0
0
0
0
0
1.03942e-16
0
1.9749e-15
1.14336e-15
0
6.23654e-16
3.11827e-16
5.82077e-15
0
0
0
0
0
0
8.93903e-15
0
0
0
0
0
0
0
0
0
0
0
0
0
0
0
1.03942e-16
0
0
0
0
0
0
1.87096e-15
7.03689e-14
7.89961e-15
7.1585e-13
4.48511e-13
1.4344e-14
4.05375e-15
0
0
0
0
0
0
0
1.9589e-12
3.97257e-12
1.08557e-12
1.41018e-12
2.43422e-12
7.07847e-14
8.69997e-14
4.65661e-14
1.80756e-13
1.13488e-05
3.51666e-08
9.80873e-05
1.30218e-06
5.85481e-08
2.56853e-05
2.04986e-07
6.68757e-07
4.41221e-07
1.02265e-06
4.21436e-08
3.03615e-13
0
1.07061e-14
0
0
0
2.1516e-14
1.76702e-15
1.49677e-14
3.97059e-14
1.35125e-15
3.11827e-16
0
1.03942e-16
4.26163e-15
0
0
0
0
0
1.55913e-15
6.86019e-15
2.13082e-14
6.23654e-16
6.86019e-15
0
0
1.76702e-15
0
3.11827e-16
0
3.11827e-16
0
0
0
0
1.03942e-16
0
0
0
0
0
0
0
0
0
0
0
0
0
0
0
0
0
0
0
0
0
0
0
0
0
0
0
0
0
0
0
0
0
0
0
0
0
0
0
0
0
0
0
0
0
0
0
0
0
0
0
0
0
0
0
0
0
0
0
0
0
2.39067e-15
0
0
0
0
0
0
0
0
0
0
0
0
0
0
0
0
0
0
0
0
0
0
0
0
0
0
0
0
0
0
0
0
0
0
0
0
0
0
0
0
0
0
0
0
0
0
0
0
0
0
0
0
0
0
0
0
0
0
0
0
0
0
0
0
0
0
0
0
0
1.03942e-16
0
0
0
0
0
0
0
0
0
0
0
0
0
0
0
0
0
0
0
0
0
0
0
0
0
0
0
0
0
0
0
0
0
0
0
0
0
0
0
0
0
0
0
16.6297
0.0295933
0.000733587
8.85963
1.07738
1.47494
0.00688695
0.249626
0.342182
22.257
0.034941
0.000173889
0.00806335
268.503
315.413
0.000145605
0.000252972
1.60251e-08
129.055
4.53035e-07
1.26668e-06
4.9982e-09
2.27242e-10
1.49561
0.34921
0.00013008
2.37164e-09
2.72208e-09
1.38648e-09
55.9367
24.1914
9.98897
90.5415
15.6173
0.0310569
0.904555
1.04311
0.000818747
0.0204633
0.00410739
0.12388
0.0125687
3.63395e-07
1.29171e-05
4.35616e-08
4.79603e-08
7.72912e-07
8.09793e-07
2.50981e-08
1.0087e-07
7.67937e-09
1.0261e-07
2.79901e-09
1.20893e-07
4.93267e-09
7.96133e-08
4.56777e-10
1.04994e-10
2.36052e-10
433.576
200.697
72.1432
58.3564
141.177
14.3006
39.4705
2.40613
0.241077
0.00016485
0.00351481
4.81569e-06
595.476
1029.14
282.541
420.973
1931.53
822.564
282.557
357.577
296.56
314.48
641.768
483.611
331.813
290.85
299.182
125.675
411.29
77.0124
166.089
57.2013
2.57889
0.0101722
14.7851
0.00046532
630.786
959.943
1087.88
755.77
622.539
782.154
1009.95
434.332
563.062
345.75
435.351
444.148
577.913
334.992
2042.87
1581.25
1661.88
1160.85
887.097
1231.22
297.83
306.096
371.144
334.947
298.341
301.347
350.346
305.935
325.827
311.567
334.995
305.972
343.837
316.396
705.334
576.085
637.913
531.894
540.513
591.677
300.744
306.753
312.725
251.581
317.042
287.004
274.171
267.452
195.662
198.2
145.774
252.169
217.992
215.558
466.134
309.984
361.11
187.345
105.122
230.211
62.9571
124.417
72.1761
11.2712
142.423
49.3934
18.0293
11.1286
0.425485
0.186735
0.0219041
6.71379
0.921726
0.373415
25.2131
0.693486
1.5994
0.0184921
0.00106423
0.0426177
613.895
776.82
1737.25
713.223
24.9578
296.285
310.646
24.7855
543.671
76.8736
0.00375706
338.162
266.735
0.0562319
335.232
26.1498
0.000385147
144.262
72.0345
6.16463
0.00239397
985.553
941.417
610.824
308.602
454.817
391.54
240.374
378.878
495.467
176.902
350.514
301.35
176.184
14.1471
89.2406
1.03572
971.912
712.75
278.17
111.966
146.73
0.752748
0.0272066
325.842
331.143
188.918
308.441
322.167
283.555
150.88
155.87
128.694
3.03165
277.582
132.712
98.099
1.02986
0.123431
17.8272
0.0400969
174.881
402.02
115.301
0.0979293
45.6876
0.0322965
0.001289
299.448
259.296
128.215
282.788
193.917
99.7217
14.057
68.8734
77.6811
0.337799
143.593
0.268016
2.11805
0.000273378
0.0125539
0.000278299
1.00338e-05
79.3418
46.2929
0.720303
0.0100173
0.0596478
8.10997e-06
3.13273e-07
120.177
38.9451
0.970594
0.308377
0.00941242
0.00345971
1.86069e-05
0.000297757
0.081934
1.12223e-05
7.36138e-05
7.1476e-06
1.70208e-06
2.27729e-08
0.028884
0.000147625
6.87969e-07
3.5291e-07
6.38138e-08
1.15893e-09
1497
1428.49
1234
471.986
571.064
358.972
9.28168
425.277
484.978
377.398
20.2869
65.9598
16.628
0.00280662
0.000102108
247.634
241.598
165.8
3.92669
8.54366
0.718716
1.33333e-05
6.03563e-05
2.05564e-06
1.58645
0.220017
0.0498827
0.000152646
7.80942e-05
5.10145e-06
575.725
891.544
838.077
706.56
604.614
641.451
811.777
536.392
638.293
726.318
485.868
489.73
566.732
726.182
437.328
529.093
349.471
349.386
447.287
480.279
340.073
414.786
354.956
291.32
298.464
383.141
421.302
319.704
378.387
549.93
382.972
399.248
437.708
307.768
461.091
307.512
279.085
275.804
128.997
224.145
215.743
371.556
287.956
281.73
251.346
111.088
342.215
203.554
195.045
217.659
61.1741
61.2548
53.6766
139.051
127.471
126.416
183.288
55.3946
135.635
15.4585
15.8779
65.9095
1236.49
795.667
1018.97
1032.53
576.824
870.85
507.216
427.862
692.266
266.019
61.6309
181.425
329.524
54.6673
176.291
13.5761
10.9962
67.63
0.769674
285.848
309.809
292.567
307.853
301.776
299.17
270.512
263.988
251.275
244.447
174.15
281.902
234.165
225.661
281.727
296.754
298.611
244.644
299.013
258.453
276.822
256.456
163.732
215.243
200.197
224.273
213.767
249.137
133.75
207.099
70.6558
117.238
147.068
191.67
62.3811
71.7737
28.4827
24.5819
2.1542
81.7055
23.2666
20.2145
125.525
109.453
170.708
48.7211
181.432
57.3634
114.565
66.2945
1.72529
15.6797
13.1939
20.526
17.7393
57.3096
0.0869065
3.44166
0.0866472
2.42624
0.00303306
0.0693874
0.0692313
1.17598
0.00139853
1.94446
0.00245699
0.0401606
297.596
152.741
262.204
445.612
306.849
344.9
137.684
207.285
238.141
2.09921
0.0705579
1.52499
58.6261
9.63451
14.1887
0.0563829
0.703455
1.2117
0.00227433
4.64556e-05
8.35606e-05
241.289
288.735
220.642
220.416
264.445
267.016
182.85
209.381
198.69
176.816
93.0774
235.106
168.356
139.92
202.421
165.93
173.959
69.7947
230.716
130.117
142.093
165.649
50.1901
60.8943
39.1765
119.479
90.0982
103.097
61.8464
150.853
33.1993
48.0576
93.9679
116.423
14.2549
19.268
8.00753
6.34301
0.0561116
40.7485
1.8448
1.3436
26.1825
17.6965
24.2462
0.135374
69.1139
2.402
4.16281
3.86349
0.00494974
0.00892892
0.00662588
0.167532
0.122125
0.225493
0.0020153
0.38979
0.000419738
0.00201265
0.0649197
6.57918e-05
0.000177475
0.000176589
0.000312105
4.09013e-07
0.0056853
5.82548e-06
1.07461e-05
158.106
38.0181
93.5467
133.978
20.6734
79.5996
9.3939
5.5963
35.319
0.226626
0.00160751
0.0373317
1.0448
0.00374837
0.0666111
0.000142213
0.000189531
0.003357
5.29395e-06
1.65693e-08
1.85861e-07
17.0052
100.155
20.4239
5.08885
71.0356
33.0691
1.40422
5.42326
15.292
6.63642
0.0285633
40.6093
0.806831
0.240744
0.800122
0.145873
0.0689403
0.0008505
2.90874
0.035445
0.01819
0.152002
0.000752195
0.000459892
0.00015144
0.0195933
0.00621358
0.00349903
0.0048142
2.52074
0.00515486
0.00245672
0.167814
0.0729074
0.000160814
0.000252522
0.000345323
0.000260575
4.73074e-07
0.00830857
1.20038e-05
8.55665e-06
0.000125618
6.63474e-05
4.33004e-05
1.55673e-07
0.00181263
4.52213e-06
3.43946e-06
7.19202e-06
4.03952e-08
3.83578e-07
3.50493e-08
6.82627e-07
2.76436e-07
5.69931e-07
0.256794
0.000926271
0.00811147
0.00587425
3.45774e-05
0.00135543
2.61973e-05
5.81107e-06
0.00022563
7.88038e-06
1.96436e-08
2.79229e-07
2.25086e-06
7.61201e-09
1.54419e-07
2.27629e-09
1.98119e-09
1.07397e-08
356.845
333.787
266.462
310.146
396.101
374.038
291.824
271.201
261.41
272.368
290.658
284.028
281.734
273.4
287.537
314.845
306.217
317.866
302.006
294.842
312.454
1227.49
1267.34
578.6
607.981
1081.62
601.602
1129.58
286.9
307.735
310.971
301.488
300.195
307.066
314.616
389.637
426.655
340.048
334.161
423.189
443.233
352.148
267.991
71.0667
267.016
218.849
18.3673
174.722
26.7045
324.466
341.469
328.36
323.854
330.157
327.362
338.588
325.083
319.519
320.003
309.413
309.424
331.487
312.16
1165.65
1082.91
625.883
611.016
1014.65
603.956
932.791
363.223
366.333
444.768
460.69
335.95
428.37
351.91
318.961
328.204
299.513
298.174
312.49
315.035
279.913
339.464
322.538
310.183
289.77
337.14
306.799
328.246
307.321
296.399
309.444
326.619
266.398
272.433
293.047
300.334
286.723
305.715
276.813
261.1
250.925
234.184
622.897
881.18
582.731
751.782
601.962
548.23
843.634
332.226
299.118
256.471
310.905
310.18
337.668
270.85
204.062
276.999
267.698
291.218
220.805
257.702
249.656
264.371
323.754
254.766
281.139
283.762
308.27
231.72
320.369
281.75
236.113
258.976
260.656
302.167
208.838
359.309
444.414
320.549
309.419
412.2
400.085
267.899
193.085
283.179
238.413
231.134
246.509
239.433
182.675
288.134
264.333
241.734
210.503
180.089
238.874
210.761
453.823
675.365
660.001
565.094
517.451
504.864
568.113
2.32309e-06
0.455337
1.94573e-05
5.64728e-07
0.00265423
3.8862e-06
0.000917621
1.44458e-06
1.40791e-07
5.39263e-08
0.00157525
4.16257e-07
1.58561e-08
0.763773
0.000420663
0.000622679
0.000802606
0.0149157
0.020081
0.026806
1.08948e-05
2.21638e-05
0.000487503
0.00274692
0.000105931
0.000127127
3.23409e-06
0.00368542
8.42756e-05
9.96327e-05
0.00222206
2.62647e-06
3.79864e-05
4.53051e-05
6.84392e-05
8.14503e-05
0.001259
4.2009e-06
1.22379e-07
3.47375e-06
9.83575e-08
1.55136e-06
2.85488e-06
5.92926e-05
1.10102e-05
1.30197e-05
9.11209e-08
0.000376429
1.99103e-06
2.03429e-06
4.29495e-07
4.4742e-09
6.78488e-08
0.622791
1.62221
7.00721e-07
462.881
92.1073
231.402
36.0216
108.206
1.07078
91.0935
0.00151914
15.3239
2.69443
4.27346e-06
0.000239816
7.23902e-06
0.20452
142.737
0.00101512
0.373328
0.0690778
1.39427
0.0522435
244.585
107.212
191.132
123.431
258.334
207.914
181.577
216.454
252.764
198.882
146.684
209.587
191.12
127.496
200.285
144.452
124.536
107.159
185.521
166.099
87.9686
95.0044
174.791
130.137
235.655
210.047
168.727
199.441
129.83
223.967
215.992
244.908
163.597
196.408
187.293
229.699
247.794
232.062
127.955
278.516
190.664
173.053
131.433
63.6115
119.794
147.576
208.07
134.209
192.582
225.003
85.4378
167.635
59.6242
198.426
136.965
116.059
224.136
206.689
131.551
301.227
273.772
365.647
206.577
85.2456
141.308
141.203
225.491
155.746
207.998
74.6088
131.83
231.437
174.322
142.284
203.019
165.257
101.759
353.326
289.631
353.713
461.076
379.038
546.356
435.603
265.263
112.766
175.27
289.11
342.509
195.748
252.512
111.857
100.323
49.367
125.881
182.216
171.325
114.833
474.39
392.129
314.879
391.997
574.965
460.74
474.43
37.5913
105.539
141.695
66.9125
98.0409
139.274
63.6349
121.793
132.632
186.286
60.0552
196.616
69.0425
121.728
394.154
317.923
367.519
278.453
218.016
342.593
272.013
280.672
146.359
196.786
136.047
188.156
64.7545
110.027
159.01
98.5172
146.631
38.4553
78.4201
33.7228
70.898
124.462
79.2755
53.4775
137.231
29.7198
64.4388
22.4145
1.83354e-13
3.40827e-13
9.37559e-14
0
0
3.08501e-13
7.82477e-13
1.84809e-13
4.60152e-13
2.53931e-13
2.60895e-14
5.82077e-15
1.34086e-14
1.4448e-14
4.18238e-08
3.35004e-10
1.52802e-11
5.29273e-12
1.98426e-13
6.24693e-14
1.03942e-16
0
0
1.01389e-09
4.25104e-08
1.88808e-09
2.63789e-10
3.40538e-11
3.37958e-12
5.55467e-13
3.7731e-14
2.18279e-15
0
3.77097e-08
2.45937e-11
7.18971e-12
1.4185e-11
8.83309e-12
1.72712e-11
7.30962e-10
4.80343e-10
5.4866e-10
3.81285e-10
1.06957e-13
6.03281e-13
5.01002e-14
1.52379e-13
4.49031e-14
2.27613e-12
1.40364e-12
4.03379e-12
8.75921e-13
4.71831e-11
2.08601e-10
2.83255e-11
3.78743e-11
6.68773e-11
6.18754e-10
1.98214e-09
9.72834e-10
9.75493e-10
9.42746e-12
5.05969e-11
1.1258e-12
4.13015e-12
5.34814e-12
1.31967e-11
7.75929e-12
2.70136e-10
2.29524e-10
3.57803e-10
1.46289e-10
4.31464e-13
1.59333e-12
8.16155e-13
9.34129e-12
4.16923e-11
2.31827e-11
2.74004e-11
0.00601074
2.13775e-06
3.65795e-06
2.60192e-08
1.51522e-07
1.00851e-08
3.30931e-09
7.81877e-10
2.25779e-10
2.59342e-11
7.37076e-05
3.55509e-05
4.87748e-06
3.48761e-06
2.33525e-06
3.746e-07
9.42788e-08
6.81792e-07
3.26112e-07
2.14076e-08
1.44142e-07
1.34784e-08
6.60611e-09
8.78446e-10
2.45453e-10
1.97276e-08
1.06687e-09
1.87176e-08
6.65373e-10
6.9734e-09
7.49387e-10
5.53112e-11
2.07117e-09
3.61614e-11
4.87453e-10
9.71095e-11
1.41683e-09
2.0823e-11
1.32581e-08
9.95698e-07
6.97161e-08
3.03795e-07
2.59763e-08
2.19538e-07
1.92728e-08
7.67052e-09
2.68134e-07
6.35812e-09
1.30482e-07
9.35688e-09
1.72313e-07
4.67623e-09
0
0
0
0
0
0
0
0
0
0
0
0
0
0
0
0
0
0
0
0
0
0
0
0
0
0
0
0
0
0
0
0
0
0
0
0
0
0
0
0
0
1.76702e-15
0
0
0
0
0
0
0
0
0
0
0
0
0
0
0
0
0
0
0
2.18279e-15
0
0
0
0
0
0
0
0
0
0
0
0
0
0
0
0
0
0
0
0
0
0
0
0
0
0
0
0
0
0
0
0
0
0
0
0
0
0
0
0
0
0
0
0
0
1.9749e-15
1.01863e-14
0
0
0
0
0
0
0
2.13238e-12
1.99569e-14
0
0
0
0
0
0
0
0
0
0
0
0
0
0
0
0
0
0
0
0
0
0
0
0
0
0
0
0
0
0
0
0
0
0
0
0
0
0
0
0
0
0
0
0
0
0
0
0
0
0
0
0
0
0
0
0
0
0
0
0
0
0
0
0
0
0
0
0
0
0
0
0
0
0
0
0
0
0
0
0
0
0
0
0
0
0
0
0
0
0
0
0
0
0
0
0
0
0
0
0
0
0
0
0
0
0
0
0
0
0
0
0
0
0
0
0
0
0
0
8.31538e-16
2.91038e-15
3.11827e-16
0
0
0
0
0
0
0
0
0
0
0
0
0
0
0
0
0
0
0
0
3.19103e-14
1.70465e-14
1.13297e-14
1.82938e-14
0
0
0
0
0
0
1.03942e-16
0
0
0
0
0
0
0
0
0
0
0
0
0
0
0
0
5.0412e-14
8.18026e-14
9.14692e-14
5.0308e-14
2.77775e-12
2.50542e-12
2.16709e-12
0
0
0
0
0
0
0
0
0
0
0
0
0
0
0
0
0
0
0
0
0
0
0
0
0
0
0
0
0
0
0
0
0
0
0
0
0
0
0
0
0
0
0
0
0
0
0
0
0
0
0
0
0
0
0
0
0
0
0
0
0
0
0
0
0
0
0
0
0
0
0
0
0
0
0
0
0
0
0
0
0
0
0
0
0
0
0
0
0
0
0
0
0
0
0
0
0
0
0
0
0
0
0
0
0
0
0
0
0
0
0
0
0
0
0
0
0
0
0
0
0
0
0
0
0
0
0
0
0
0
0
0
0
0
0
0
0
0
0
0
0
0
0
0
0
0
0
0
0
0
0
0
0
0
0
0
0
0
0
0
0
0
0
0
0
0
0
0
0
0
0
0
0
0
0
0
0
0
0
0
0
0
0
0
0
0
0
0
0
0
0
0
0
0
0
0
0
0
0
0
0
0
0
0
0
0
0
0
0
0
0
0
0
0
0
0
0
0
0
0
0
0
0
0
0
0
0
0
0
0
0
0
0
0
0
0
0
0
0
0
0
0
0
0
0
0
0
0
0
0
0
0
0
0
0
0
0
0
0
0
0
0
0
0
0
0
0
0
0
0
0
0
0
0
0
0
0
0
0
0
0
0
0
0
0
0
0
0
0
0
0
0
0
0
0
0
0
0
0
0
0
0
0
0
0
0
0
0
0
0
0
0
0
0
0
0
0
0
0
0
0
0
0
0
0
0
0
0
0
0
0
0
0
0
0
0
0
0
0
0
0
0
0
0
0
0
0
0
0
0
0
0
0
0
0
0
0
0
0
0
0
0
0
0
0
0
0
0
0
0
0
0
0
0
0
0
0
0
0
0
0
0
0
0
0
0
0
0
0
0
0
0
0
0
0
0
0
0
0
0
0
0
0
0
0
0
0
0
0
0
0
0
0
0
0
0
0
0
0
0
0
0
0
0
0
0
0
0
0
0
0
0
0
0
0
0
0
0
0
0
0
0
0
0
0
0
0
0
0
0
0
0
0
0
0
0
0
0
0
0
0
0
0
0
0
0
0
0
0
0
0
0
0
0
0
0
0
0
0
0
0
0
0
0
0
0
0
0
0
0
0
0
0
0
0
0
0
0
0
0
0
0
0
0
0
0
0
0
0
0
0
0
0
0
0
0
0
0
0
0
0
0
0
0
0
0
0
0
0
0
0
0
0
0
0
0
0
0
0
0
0
0
0
0
0
0
0
0
0
0
0
0
0
0
0
0
0
0
0
0
0
0
0
0
0
0
0
0
0
0
0
0
0
0
0
0
0
0
0
0
0
0
0
0
0
0
0
0
0
0
0
0
0
0
0
0
0
0
0
0
0
0
0
0
0
0
0
0
0
0
0
0
0
0
0
0
0
0
0
0
0
0
0
0
0
0
0
0
0
0
0
0
0
0
0
0
0
0
0
0
0
0
0
0
0
0
0
0
0
0
0
0
0
0
0
0
0
0
0
0
0
0
0
0
0
0
0
0
0
0
0
0
0
0
0
0
0
0
0
0
0
0
0
0
0
0
0
0
0
0
0
0
0
0
0
9.39638e-14
0
0
0
0
0
0
0
0
0
0
0
0
0
0
0
0
0
0
0
0
0
0
0
0
0
0
0
0
0
0
0
0
0
0
0
0
0
0
0
0
0
0
0
0
0
0
0
0
0
0
0
0
0
0
0
0
0
0
0
0
0
0
0
0
0
0
0
0
0
0
3.11827e-16
0
0
0
0
0
0
0
0
0
0
0
0
0
0
0
0
0
0
0
0
0
0
0
0
0
0
0
0
0
0
0
0
0
0
0
0
0
0
0
0
0
0
0
0
0
0
0
0
0
0
0
0
0
0
0
0
0
0
0
0
0
0
0
0
0
0
0
0
0
0
0
0
0
0
0
0
0
0
0
0
0
0
0
0
0
0
0
0
0
0
0
0
0
0
0
0
0
0
0
0
0
0
0
0
0
0
0
0
0
0
0
0
0
0
0
0
0
0
0
0
0
0
0
0
0
0
0
0
0
0
0
0
0
0
0
0
0
0
0
0
0
0
0
0
0
0
0
0
0
0
0
0
0
0
0
0
0
0
0
0
0
0
0
0
0
0
0
0
0
0
0
0
0
0
0
0
0
0
0
0
0
0
0
0
0
0
0
0
0
0
0
0
0
0
0
0
0
0
0
0
0
0
0
0
0
0
0
0
0
0
0
0
0
0
0
0
0
0
0
0
0
0
0
0
0
0
0
0
0
0
0
0
0
0
0
0
0
0
0
0
0
0
0
0
0
0
0
0
0
0
0
0
0
0
0
0
0
0
0
0
0
0
0
0
0
0
0
0
0
0
0
0
0
0
0
0
0
0
0
0
0
0
0
0
0
0
0
0
0
0
0
0
0
0
0
0
0
0
0
0
0
0
0
0
0
0
0
0
0
0
0
0
0
0
0
0
0
0
0
0
0
0
0
0
0
0
0
0
0
0
0
0
0
0
0
0
0
0
0
0
0
0
0
0
0
0
0
0
0
0
0
0
0
0
0
0
0
0
0
0
0
0
0
0
0
0
0
0
0
0
0
0
0
0
0
0
0
0
0
0
0
0
0
0
0
0
0
0
0
0
0
0
0
0
0
0
0
0
0
0
0
0
0
0
0
0
0
0
0
0
0
0
0
0
0
0
0
0
0
0
0
0
0
0
0
0
0
0
0
0
0
0
0
0
0
0
0
0
0
0
0
0
0
0
0
0
0
0
0
0
0
0
0
0
0
0
0
0
0
0
0
0
0
0
0
0
0
0
0
0
1.41361e-14
0
0
0
0
0
0
0
0
0
0
0
0
0
0
0
0
0
0
0
0
0
0
0
0
0
0
0
0
0
0
0
0
0
0
0
0
0
0
0
0
0
0
0
0
0
0
0
0
0
0
0
0
0
0
0
0
0
0
0
0
0
0
0
0
0
0
0
0
0
0
0
0
0
0
0
0
0
0
0
0
0
0
0
0
0
0
0
0
0
0
0
0
0
0
0
0
0
0
0
0
0
0
0
0
0
0
0
0
0
0
0
0
0
0
0
0
0
0
0
0
0
0
0
0
0
0
0
0
0
0
0
0
0
0
0
0
0
0
0
0
0
0
0
0
0
0
0
0
0
0
0
0
0
0
0
0
0
0
0
0
0
0
0
0
0
0
1.45519e-15
0
0
0
0
0
0
0
0
0
0
0
0
0
0
0
0
0
0
0
0
0
0
0
0
0
0
0
0
0
0
0
0
0
0
0
0
0
0
0
0
0
0
0
1.03942e-16
1.03942e-15
0
2.18279e-15
0
0
0
0
0
0
0
0
0
0
0
0
0
0
0
0
0
0
0
0
0
0
0
0
0
0
0
0
0
0
0
0
0
0
0
0
0
0
0
0
0
0
0
0
0
0
0
0
0
0
0
0
0
0
0
0
0
0
0
0
0
0
0
0
0
0
0
0
0
0
0
0
0
0
0
0
0
0
0
0
0
0
0
0
0
0
0
0
0
0
0
0
0
0
0
0
0
0
0
0
0
0
0
0
0
0
0
0
0
0
0
0
0
0
0
0
0
0
0
0
0
0
0
0
0
0
0
0
0
0
0
0
0
0
0
0
0
0
0
0
0
0
0
0
0
0
0
0
0
0
0
0
0
0
0
0
0
0
0
0
0
0
0
0
0
0
0
0
0
0
0
0
0
0
0
0
0
0
0
0
0
0
8.31538e-16
6.23654e-16
0
0
5.62328e-14
9.3548e-14
5.68564e-14
0
0
0
1.03942e-16
0
1.03942e-16
0
0
0
0
0
0
0
0
0
0
0
0
0
0
0
0
0
0
0
0
0
0
0
0
0
0
0
0
0
0
0
0
0
0
0
0
0
0
0
0
0
0
0
0
0
0
0
0
0
0
0
0
0
0
0
0
0
0
0
0
0
0
0
0
0
0
0
0
0
0
0
0
0
0
0
0
0
0
0
0
0
0
0
0
0
0
0
0
0
0
0
0
0
0
0
0
0
0
0
0
0
0
0
0
0
0
0
0
0
0
0
0
0
0
0
0
0
0
0
0
0
0
0
0
0
0
0
0
0
0
0
0
0
0
0
0
3.53829e-10
3.73076e-11
2.07365e-13
4.15769e-16
1.86784e-13
5.405e-15
0
0
0
3.00882e-10
3.07412e-11
1.76182e-13
0
7.9204e-14
5.405e-15
0
0
0
3.93292e-09
6.96753e-11
8.48412e-12
3.98099e-14
0
9.66663e-15
0
0
0
0
3.54531e-10
4.69125e-12
3.11451e-11
5.10045e-13
0
0
7.09926e-14
0
0
0
0
0
8.71556e-13
9.04298e-15
0
0
3.93528e-12
8.01395e-14
0
0
0
2.25555e-14
1.11218e-14
0
0
0
2.30752e-14
0
0
0
0
0
0
0
0
0
0
0
0
0
0
0
0
0
0
4.57346e-15
6.23654e-16
1.30967e-14
0
0
6.8394e-14
9.97846e-15
0
0
0
0
0
0
0
0
1.14336e-15
1.03942e-16
0
0
0
0
0
0
3.25651e-13
0
9.86828e-13
8.32577e-14
6.23654e-16
0
3.11827e-16
0
0
1.76702e-15
0
0
0
0
0
0
0
0
2.26313e-12
2.28673e-15
2.69242e-12
4.64518e-13
1.32007e-14
8.31538e-16
9.87451e-15
0
0
2.83762e-14
5.405e-15
0
0
0
0
0
0
0
0
0
0
1.03942e-16
0
0
0
0
0
2.27114e-13
3.02472e-14
0
0
0
0
8.93903e-15
0
0
3.92902e-14
7.06807e-15
0
0
0
0
0
0
0
0
0
0
0
0
0
0
2.37538e-12
1.73064e-13
5.64406e-14
3.41079e-12
9.08559e-13
1.04878e-13
2.12042e-14
3.25339e-14
1.45519e-15
0
4.71898e-14
7.06807e-15
0
0
0
0
0
0
0
0
0
9.3548e-15
2.5258e-14
1.64021e-13
1.14336e-15
9.47953e-14
1.03942e-16
6.49639e-14
5.15554e-14
3.11827e-15
6.23654e-15
0
0
8.41932e-15
0
1.45519e-15
1.87096e-15
0
2.80644e-15
0
4.15769e-15
0
1.03942e-16
0
0
0
0
0
0
0
0
0
0
0
0
9.41717e-14
1.45519e-15
8.14907e-14
0
4.72937e-14
3.66916e-14
0
0
0
0
0
0
0
0
0
0
0
0
2.5258e-14
7.27596e-15
0
0
2.72329e-14
4.78134e-15
0
7.12004e-14
1.87096e-15
6.53797e-14
0
9.56269e-14
6.23654e-16
2.27634e-14
7.27596e-15
0
1.03942e-16
0
2.39067e-15
0
6.44442e-15
0
0
0
0
0
0
0
0
0
0
0
0
0
0
0
0
0
0
0
0
0
0
0
0
0
0
0
0
0
0
0
0
0
1.60071e-13
8.79351e-14
6.34048e-15
4.15769e-16
1.8325e-13
4.19927e-14
2.91038e-15
2.11522e-13
1.87616e-13
1.76702e-15
5.82077e-15
6.18456e-14
6.03904e-14
0
1.68386e-14
1.66308e-15
1.40322e-14
8.31538e-16
5.07238e-14
4.15769e-16
1.76702e-15
0
0
1.03942e-16
2.18279e-15
0
0
0
0
0
0
0
0
8.31538e-16
0
0
0
1.45519e-15
0
0
0
0
0
0
0
0
0
0
0
0
0
0
0
0
0
0
0
0
0
0
0
0
0
0
0
0
0
0
0
0
0
0
0
0
0
0
0
0
0
0
0
9.66663e-15
2.54347e-13
6.34048e-15
2.35325e-13
8.31538e-15
2.57985e-13
8.93903e-15
0
0
0
0
0
0
0
0
0
0
0
0
0
0
0
1.69501e-11
1.68927e-12
5.01106e-13
2.86523e-11
1.6382e-11
1.07986e-12
4.79278e-13
4.78134e-15
0
0
4.78134e-15
4.26163e-15
0
0
5.30105e-15
0
0
5.30105e-15
1.87096e-15
0
0
1.82601e-10
6.35859e-12
2.99831e-10
6.19681e-11
1.40684e-11
2.25783e-12
3.31658e-12
3.54443e-13
1.0758e-13
4.83529e-12
3.02044e-12
1.70361e-13
8.47129e-14
0
0
0
0
0
0
0
1.26742e-11
1.45873e-12
3.64525e-13
2.325e-11
1.05899e-11
9.32674e-13
3.032e-13
2.00609e-13
1.41361e-14
4.05375e-15
4.17432e-13
1.68386e-13
1.13297e-14
1.45519e-15
0
0
0
0
0
0
0
7.27596e-15
0
0
4.26163e-15
6.34048e-15
0
3.11827e-16
0
2.7025e-15
0
2.59856e-15
0
1.14336e-15
0
1.30296e-11
1.19721e-12
4.06726e-13
2.05839e-11
1.26324e-11
8.1075e-13
3.83339e-13
0
0
0
0
0
0
0
1.55976e-12
3.45608e-13
8.90785e-13
6.05775e-13
1.04452e-12
5.71038e-11
4.47013e-11
2.99615e-11
2.39127e-11
2.94599e-11
4.92582e-13
2.59856e-15
0
0
3.14184
2.18859e-07
0.0025619
2.21202e-08
1.93246e-10
6.54836e-15
2.24769e-06
2.10256e-08
1.31024e-05
2.76244e-09
2.36371e-08
2.89631e-11
1.14336e-15
7.53117e-08
6.58926e-07
5.42818e-10
4.3385e-09
4.60246e-12
0
1.82249e-08
3.8787e-09
3.44069e-11
5.50689e-11
8.19377e-13
1.139e-12
8.93903e-15
1.41361e-14
0
0
0
0
0
0
0
0
0
0
0
0
0
0
0
0
0
0
0
0
0
0
0
0
0
0
0
0
1.29245e-08
5.1651e-12
6.06678e-08
2.52007e-09
1.06426e-12
5.31457e-12
2.57881e-13
5.64699e-11
1.31736e-12
8.83509e-14
1.3606e-13
3.61719e-14
2.49461e-15
1.27093e-09
1.12736e-12
1.40325e-08
7.31741e-10
4.98611e-13
1.27205e-12
7.75409e-14
1.75115e-11
6.63256e-13
4.02257e-14
3.90823e-14
1.53835e-14
3.11827e-16
2.20977e-10
2.53203e-13
5.55275e-10
2.74785e-11
1.37204e-14
1.48637e-14
6.86019e-15
0
3.11827e-16
9.25086e-15
1.35125e-15
1.18307e-12
1.70684e-12
0
1.87096e-15
0
1.70569e-13
1.35541e-13
0
0
0
1.03942e-16
0
1.40904e-12
8.21505e-10
1.90215e-10
2.05198e-11
4.4004e-12
1.53119e-10
2.75951e-11
6.89378e-10
3.46753e-09
7.36175e-11
1.09889e-10
2.54264e-09
1.4679e-10
1.16686e-12
3.01693e-11
6.03e-12
3.29951e-11
6.77745e-12
1.18254e-10
3.68621e-12
7.29529e-12
5.31145e-14
3.36357e-13
1.0585e-11
9.78097e-14
2.01076e-12
1.55602e-13
4.88529e-15
3.74192e-15
2.18798e-13
1.71952e-12
1.21716e-13
2.52995e-12
1.86057e-14
3.35089e-12
4.73977e-14
6.93711e-13
6.20535e-14
6.23654e-16
1.14336e-15
5.3946e-14
5.98603e-13
1.21405e-13
8.49416e-13
2.27821e-12
3.47572e-12
3.92902e-14
2.34909e-13
2.75343e-13
0
0
2.28673e-15
0
3.11827e-16
0
0
1.46073e-09
3.54226e-11
1.00019e-09
5.00135e-11
1.03545e-10
3.06346e-11
4.36017e-12
8.76857e-13
1.04081e-10
2.17863e-11
4.60111e-12
1.00527e-09
2.84765e-11
3.68826e-11
8.10517e-10
5.71673e-11
4.95701e-13
1.30331e-11
3.09706e-12
1.21008e-11
2.97753e-12
6.26433e-11
6.45481e-13
1.65351e-12
1.55913e-14
9.21968e-14
4.61504e-13
1.93322e-12
2.78565e-14
5.10356e-14
1.14336e-15
8.49208e-14
8.31538e-16
6.76248e-13
5.67525e-14
9.36935e-13
8.41932e-15
1.37557e-12
2.78565e-14
2.89167e-13
3.21182e-14
1.03942e-16
4.15769e-16
3.61719e-14
1.64125e-13
3.03511e-14
1.83666e-13
9.57204e-13
1.31321e-12
1.86057e-14
1.16e-13
1.24939e-13
0
0
6.23654e-16
0
0
0
0
1.63651e-10
4.67688e-12
1.48755e-10
4.50205e-12
1.55777e-11
7.13886e-12
6.89033e-13
1.26706e-13
1.59948e-11
3.65378e-12
5.78023e-13
3.13719e-11
3.0559e-13
1.09888e-12
8.80639e-12
2.17645e-12
2.77526e-14
4.20342e-13
5.02041e-14
6.48392e-13
1.10179e-13
1.06967e-12
7.50463e-14
2.98626e-13
1.14336e-15
6.44442e-15
6.76664e-14
2.08196e-13
1.45519e-15
2.43225e-14
1.9749e-15
1.72544e-14
7.3799e-15
3.40931e-14
0
3.11827e-16
2.91038e-15
4.55995e-13
2.41146e-14
6.13675e-13
1.22652e-14
1.164e-06
2.52253e-06
1.14991e-07
5.60294e-05
1.51564e-07
9.61667e-07
2.17688e-08
8.06614e-10
1.98909e-09
4.88331e-11
3.64982e-09
4.80092e-10
3.81245e-10
1.987e-11
1.13027e-07
3.80909e-07
8.93066e-09
8.2251e-06
6.95536e-08
2.40252e-07
5.82624e-09
7.85019e-10
2.1172e-10
2.34261e-11
2.08177e-09
3.28227e-10
1.48767e-10
1.21686e-11
1.56393e-08
8.56494e-08
1.60298e-09
8.58894e-08
3.59078e-09
5.90796e-09
2.20783e-10
4.02213e-11
5.99433e-10
3.01494e-10
2.38584e-11
6.55807e-10
4.42666e-10
3.2215e-11
1.37244e-11
1.00107e-09
1.65503e-11
6.5203e-13
2.42185e-13
4.78134e-15
1.03942e-16
0
0
0
3.96984e-11
3.94981e-14
7.17202e-14
8.52326e-15
1.03942e-16
7.45266e-14
3.61719e-14
1.34086e-14
5.84155e-14
2.46343e-14
1.03942e-16
8.31538e-16
0
1.9749e-15
1.14336e-15
5.09317e-15
1.9749e-15
6.57954e-14
2.1173e-13
1.2972e-13
1.89591e-13
0
0
0
1.78781e-14
1.4344e-14
2.40107e-14
1.69426e-14
1.10179e-14
2.65572e-13
0
9.66351e-13
1.55809e-13
6.79782e-14
1.03869e-12
6.60033e-14
3.51325e-14
7.25413e-13
3.32615e-14
7.38925e-13
3.98506e-07
2.3905e-11
3.87528e-12
7.53997e-13
3.74192e-15
6.24231e-10
1.22145e-10
4.4586e-12
7.73892e-11
3.53942e-11
1.6399e-12
1.60037e-11
6.63775e-13
2.30752e-14
1.80743e-09
2.25014e-12
5.68226e-11
1.23587e-13
1.2234e-13
7.2032e-14
8.31538e-15
4.79465e-12
3.35353e-11
1.13496e-11
4.19947e-12
4.74912e-13
6.23654e-16
7.3564e-11
1.96804e-12
6.01331e-11
1.67884e-08
1.39828e-08
1.73984e-10
9.87573e-10
2.66234e-08
4.33318e-10
7.87974e-09
2.98202e-10
3.70327e-09
7.75042e-09
1.03863e-11
1.34282e-09
8.6976e-11
1.62768e-09
6.70851e-11
6.66911e-10
1.45083e-09
2.98574e-12
2.8987e-10
1.10153e-11
2.42402e-10
2.02355e-12
1.49702e-11
4.38071e-11
8.648e-14
1.10586e-10
6.69067e-11
5.16136e-12
9.21552e-13
1.2483e-10
2.81069e-11
3.86135e-12
6.6409e-12
8.52326e-14
9.9639e-13
2.22125e-13
1.67046e-12
4.21694e-13
2.49994e-12
2.46728e-12
5.11396e-14
1.25105e-12
2.07677e-13
2.71289e-14
1.31903e-13
1.9749e-15
1.66308e-14
1.71505e-14
277.668
114.767
0.571312
1.47213e-05
44.8921
0.0173034
7.46069e-05
6.9129e-09
12.8587
3.96169e-05
1.42697e-06
1.69491e-08
1.70318e-09
6.34193e-05
0.000562131
1.07797e-08
0.0082839
2.27654e-06
4.72173e-07
2.19943e-09
3.84868e-10
1.5337e-08
6.57619e-11
9.07743e-07
1.49841e-07
1.22548e-09
5.34404e-07
5.37595e-10
5.15774e-11
2.18111e-11
1.72034e-07
2.71944e-10
2.26358e-08
9.96484e-12
1.05707e-11
3.44049e-13
2.83465e-07
3.55315e-06
7.09675e-08
1.8167e-09
2.31656e-09
8.34164e-05
0.0193756
1.04255e-05
0.000134164
0.0045796
2.54802e-06
0.000345637
1.63934e-06
2.54044e-07
1.95901e-07
9.05275e-09
1.93075e-07
5.66897e-08
6.1763e-06
5.74402e-06
8.54413e-06
1.41324e-05
3.18226e-08
0.000287393
1.9223e-07
6.01524e-07
2.04406e-07
3.83641e-09
7.08797e-08
5.92631e-09
9.97436e-08
9.3971e-09
1.20926e-07
5.71203e-09
3.37445e-10
1.87279e-09
2.32858e-07
1.53793e-09
6.29449e-09
1.26984e-10
2.58286e-10
4.14387e-10
6.83121e-07
3.37699e-06
3.67159e-08
6.07151e-07
4.39883e-08
1.17285e-07
2.81918e-08
5.83984e-09
1.08248e-09
1.10554e-07
2.29217e-08
6.72331e-09
7.28931e-08
7.70265e-10
1.24641e-08
2.80891e-09
2.05907e-08
4.33479e-09
5.59776e-08
2.7119e-10
4.8757e-11
3.34309e-10
3.18149e-11
1.24443e-10
2.18478e-10
2.49e-08
6.54901e-09
9.92535e-10
1.78062e-10
2.15464e-08
4.36936e-09
1.15853e-09
2.80413e-09
2.2406e-11
2.93761e-10
4.20253e-11
4.76446e-10
1.68621e-10
9.48194e-10
4.03448e-11
6.83067e-12
4.46688e-11
9.6843e-13
1.74436e-12
7.71688e-12
2.56078e-06
9.96409e-10
3.70834e-08
1.13312e-11
1.3459e-10
2.79269e-05
6.38909e-08
3.0617e-09
1.96116e-08
7.25603e-07
2.44517e-09
9.94051e-11
2.4046e-10
1.7886e-09
4.10988e-12
1.99777e-13
6.73571e-09
2.90219e-10
6.99088e-10
3.45657e-10
1.62826e-12
4.11819e-12
8.66151e-13
6.87904e-12
8.85606e-11
4.25881e-12
1.39746e-07
2.9586e-06
4.66881e-07
1.06567e-07
1.35147e-06
1.90934e-08
3.00811e-08
3.28759e-07
4.95584e-09
9.02393e-10
1.58311e-09
1.69377e-07
3.99604e-07
7.02422e-09
1.26505e-08
1.41064e-07
2.06684e-07
8.40815e-09
5.00864e-08
3.95336e-09
5.22304e-08
5.47039e-10
7.0957e-08
2.04767e-09
1.50268e-08
2.06004e-10
2.01677e-11
8.15076e-11
6.69038e-10
3.69284e-09
3.72774e-11
8.52705e-11
7.90086e-10
1.71244e-09
2.36476e-11
1.07158e-10
8.61141e-12
1.03605e-10
1.21654e-12
1.61061e-10
4.01331e-12
2.87828e-11
4.42898e-13
6.26772e-14
1.45831e-13
0.151566
21.718
0.0010971
52.3302
0.00304282
3.30946
2.40099e-05
4.40964
0.0006888
0.0279578
5.80179e-06
2.80921
0.000445745
7.63938e-06
0.0415754
0.720047
6.57249e-05
3.05659e-06
0.0697607
2.75461e-06
2.57246e-07
5.83722e-07
7.98804e-06
1.46917e-07
1.26597e-08
1.94335e-07
6.83199e-09
5.39386e-10
7.6196e-06
1.72225e-08
7.72548e-10
1.37871e-06
3.10454e-09
1.34181e-10
5.46169e-06
2.74229e-08
3.07039e-07
3.77413e-08
4.71044e-07
2.01998e-07
6.58417e-07
1.41467e-09
2.04595e-09
7.72182e-09
9.54319e-08
6.64284e-08
7.3175e-09
1.27115e-09
1.25011e-07
3.77707e-08
4.96594e-09
4.02901e-10
5.20585e-11
2.38898e-10
5.16803e-08
3.01679e-11
1.51454e-12
8.44492e-12
1.36518e-12
2.41742e-09
8.38972e-11
7.4747e-10
3.59228e-11
8.035e-09
9.01198e-11
7.30805e-10
2.09201e-10
1.71302e-09
5.67903e-10
3.7625e-09
4.61244e-12
9.55624e-12
2.86903e-11
3.4488e-13
1.14032e-11
4.22006e-13
5.35125e-12
6.37062e-13
4.53769e-12
3.43945e-13
1.00918e-07
4.22634e-08
1.42655e-10
2.92195e-12
1.68936e-09
1.37774e-09
7.31257e-11
1.77554e-12
1.20331e-10
5.7108e-12
1.33248e-10
4.08223e-12
4.82693e-11
5.0412e-12
363.777
136.137
207.722
5.30277
42.2109
0.413961
0.146293
100.206
48.2086
82.5221
0.142595
0.00434413
1.58364
0.00261477
36.8057
2.06567
0.105768
0.000412527
2.6111e-05
1.01303e-05
1.06381
233.305
132.15
156.566
65.6104
129.429
106.807
48.4965
122.8
91.0432
112.254
42.4318
36.7409
24.7284
29.0782
288.658
393.81
314.226
264.08
204.492
179.432
236.385
102.076
69.8093
87.7101
23.865
31.6323
20.8815
15.1094
59.6695
44.1938
10.8299
72.7352
135.328
115.458
56.35
124.631
63.0232
73.5987
58.0054
49.4342
17.9095
11.175
48.5814
79.2792
33.424
116.59
151.212
61.924
94.1204
14.0862
91.9698
50.7564
103.204
165.937
60.9696
119.623
15.7346
77.2384
33.1402
43.3908
21.8518
90.6835
4.53676
101.48
68.8431
167.636
43.3016
101.435
134.209
21.1151
81.3658
205.641
86.2555
77.4571
148.964
139.128
32.0436
33.0204
163.638
59.3083
46.7556
99.6854
82.2816
11.713
215.053
324.674
255.511
157.222
109.535
147.233
200.351
39.3733
73.2615
65.6066
5.76764
4.5901
12.9939
15.8372
68.7711
174.948
101.981
13.6428
50.5593
79.5303
29.9412
3.87057
65.5149
13.1419
24.9674
49.7517
7.40884
1.7294
35.6574
11.7971
3.12004
67.4365
31.7476
101.655
58.7991
26.4741
34.597
58.9339
2.04589
3.56079
10.587
7.02591
213.055
130.88
178.632
279.918
372.791
308.661
224.672
3.72377
1.0507
9.08292
59.6161
21.1187
10.014
39.38
4.42143
11.4458
1.06216
18.2014
58.8954
89.1878
36.8769
136.064
156.212
209.086
321.491
244.395
189.723
258.963
20.4435
100.286
17.031
71.1153
39.1692
33.1004
5.04363
54.4532
62.1624
14.2879
218.302
139.262
126.731
61.3521
3.04805
20.3437
2.16148
81.9416
28.5502
71.9749
23.3215
1.72943
1.03195
13.2391
66.4465
57.4102
15.7022
20.5664
7.23407
4.57581
0.350531
12.8575
45.4898
36.8476
8.9845
82.6229
5.51352
26.8945
109.484
172.635
42.0941
91.3221
10.6415
0.79521
8.74126
18.2038
57.0749
14.9827
50.3181
2.16249e-05
2.31779e-06
0.00967116
0.106363
0.00271914
2.98539e-06
1.05784e-06
163.614
223.524
167.542
33.2088
109.389
69.5435
61.3766
31.4702
4.24586
14.5968
0.650799
0.115537
2.83695
0.518033
21.9836
140.438
96.8906
76.4329
28.1648
13.2152
115.848
0.00379279
1.07723e-06
0.001129
0.000111047
6.7812e-05
3.24591e-07
6.29647e-07
3.5747
19.5204
16.7134
0.101554
1.0944
0.125794
0.856982
4.49965