/*--------------------------------*- C++ -*----------------------------------*\
  =========                 |
  \\      /  F ield         | OpenFOAM: The Open Source CFD Toolbox
   \\    /   O peration     | Website:  https://openfoam.org
    \\  /    A nd           | Version:  9
     \\/     M anipulation  |
\*---------------------------------------------------------------------------*/
FoamFile
{
    format      ascii;
    class       surfaceScalarField;
    location    "0.00075";
    object      phi;
}
// * * * * * * * * * * * * * * * * * * * * * * * * * * * * * * * * * * * * * //

dimensions      [0 3 -1 0 0 0 0];

internalField   nonuniform List<scalar> 
20844
(
0
0
0
0
0
0
-7.10543e-15
-1.24345e-14
-1.77636e-14
-8.88178e-15
3.55271e-15
0
0
0
0
0
0
0
0
0
0
0
0
0
0
0
-8.88178e-16
0
-4.44089e-16
6.21725e-14
-1.9984e-15
-2.22045e-15
-1.55431e-15
-4.44089e-16
1.59872e-14
1.68754e-14
-3.15659e-12
0
0
2.22045e-16
0
0
0
0
0
0
0
0
0
0
0
2.22045e-16
0
0
0
0
0
-8.88178e-16
-8.88178e-16
0
0
-1.06581e-14
0
0
4.44089e-16
-8.88178e-16
1.77636e-15
4.44089e-16
-1.95399e-14
0
-6.66134e-16
-2.04281e-14
-4.44089e-16
-2.22045e-16
0
-4.88498e-15
0
0
-1.15463e-14
-5.01821e-14
0
0
0
0
0
0
0
0
0
0
0
0
0
0
0
0
0
0
0
0
0
0
0
0
0
0
0
0
-2.22045e-16
-2.22045e-16
-2.22045e-16
2.66454e-15
1.77636e-15
-7.30083e-13
0
0
0
-2.22045e-16
0
0
0
0
0
0
0
0
0
0
0
0
0
0
0
0
0
0
0
0
0
0
0
0
0
0
4.44089e-16
0
0
0
0
4.44089e-16
0
8.88178e-16
-8.43769e-15
0
0
0
-1.77636e-15
0
0
-4.44089e-16
0
0
-3.9968e-15
0
-4.44089e-15
5.24025e-14
-7.10543e-15
-8.88178e-16
-1.42109e-13
0
-5.32907e-14
-1.58096e-13
2.06057e-13
9.59233e-14
-9.50351e-14
-1.23848e-11
1.06581e-13
-3.0731e-13
-7.10543e-15
2.83329e-13
4.70735e-13
-1.56142e-12
2.36255e-13
-1.40794e-11
1.75859e-13
-1.00666e-11
7.10543e-15
-2.30926e-13
0
3.55271e-15
0
3.55271e-15
0
-1.49214e-13
0
0
0
0
0
0
0
0
0
0
0
0
0
4.21441e-13
2.34923e-13
-2.62013e-14
5.49782e-13
-1.02598e-11
-3.98126e-13
-8.17124e-14
-2.81553e-13
9.37916e-13
-1.48949e-10
1.53211e-14
2.86882e-13
7.59393e-14
-6.58718e-12
-2.32259e-13
3.03313e-13
1.00808e-13
-7.80132e-12
5.42677e-13
-1.53335e-11
1.37668e-14
-2.57572e-14
7.54952e-15
9.32587e-15
-1.79856e-14
3.55271e-15
-2.48728e-06
2.01936e-06
2.3529e-06
-9.25845e-05
1.1417e-06
-4.22753e-05
-2.203e-07
-2.22327e-08
-1.06454e-07
-2.08917e-07
-1.52824e-08
7.01902e-09
-1.59131e-07
-2.28377e-07
-1.73279e-07
8.20962e-06
-0.000892954
1.46214e-05
-1.85306e-05
2.04446e-05
7.46581e-08
-4.11572e-07
-6.95827e-07
-1.0044e-07
-1.41419e-07
-1.48884e-07
3.24819e-09
4.44416e-06
5.3378e-06
-0.000211589
-8.93415e-05
-4.23779e-08
6.15095e-08
1.95704e-08
-6.14418e-08
8.53049e-08
3.68577e-08
-1.07625e-06
-2.11232e-06
2.611e-09
-8.88178e-15
6.21725e-14
2.66454e-14
-1.37668e-14
-9.32587e-15
-1.37668e-14
3.33955e-13
0
-1.06581e-14
-1.77636e-15
0
0
0
-2.04281e-14
-4.44089e-16
1.77636e-15
1.77636e-15
-8.88178e-16
-4.44089e-16
-8.88178e-16
1.42109e-14
0
0
0
0
0
0
0
0
0
0
0
0
0
0
0
0
0
0
4.88498e-15
2.30926e-14
6.66134e-16
1.77636e-15
0
-4.44089e-16
4.44089e-16
2.66454e-15
1.77636e-15
1.95399e-14
8.88178e-15
-1.77636e-15
-2.66454e-15
-2.22045e-15
5.15143e-14
0
1.77636e-15
0
8.88178e-16
0
4.44089e-16
0
0
0
0
0
0
1.77636e-15
-4.44089e-16
-4.44089e-16
-4.44089e-16
8.88178e-16
5.32907e-15
0
0
0
0
0
0
0
0
0
0
0
-4.44089e-16
-2.66454e-15
0
0
0
2.22045e-16
8.88178e-16
2.22045e-16
2.66454e-15
2.66454e-15
4.44089e-15
2.22045e-14
8.88178e-16
0
2.22045e-16
2.66454e-15
0
0
-4.44089e-16
0
0
4.44089e-16
2.66454e-15
0
0
0
-4.44089e-16
4.44089e-16
0
4.44089e-16
4.44089e-16
0
0
0
0
0
0
0
0
0
0
0
0
0
8.88178e-16
0
0
0
0
0
0
0
0
0
0
0
0
0
0
0
0
0
0
0
0
0
0
0
0
0
0
0
0
0
0
0
0
0
0
0
0
0
0
0
0
0
0
0
0
0
0
0
0
0
0
0
0
0
0
0
0
0
0
0
0
0
0
0
0
0
0
0
0
0
0
0
0
0
0
0
0
0
0
0
0
0
0
0
0
0
0
0
0
0
0
0
0
0
0
0
0
0
0
0
0
0
0
0
0
0
0
0
0
0
0
0
0
0
0
0
0
0
0
0
0
0
0
0
0
0
0
0
0
0
0
0
0
0
0
0
0
0
0
0
0
0
0
0
0
0
0
0
0
0
0
0
0
0
0
0
0
0
0
0
0
0
0
0
0
4.44089e-16
0
0
0
0
0
0
0
0
0
0
0
0
-4.44089e-16
-4.44089e-16
-4.44089e-16
3.55271e-15
0
0
0
0
0
0
0
0
0
0
0
0
0
0
0
0
0
0
0
0
0
0
0
0
0
0
0
0
0
0
0
0
0
0
0
0
0
0
0
0
0
0
0
0
0
0
0
0
0
0
0
0
0
0
0
0
0
0
0
0
0
0
0
0
0
0
0
0
0
0
0
0
0
0
0
0
0
0
0
0
0
0
0
0
0
0
0
0
0
0
0
0
0
0
0
0
0
0
0
0
0
0
0
0
0
0
0
0
0
0
0
0
0
0
0
0
0
0
0
0
0
0
0
0
0
0
0
0
0
0
0
0
0
0
0
0
0
0
0
0
0
0
0
0
0
0
0
0
0
0
0
0
0
0
0
0
0
0
0
0
0
0
0
0
0
0
0
0
0
0
0
0
0
0
0
0
0
0
0
0
0
0
0
0
0
0
0
0
0
0
0
0
0
0
0
0
0
0
0
0
0
0
0
0
0
0
0
0
0
0
0
0
0
1.77636e-15
-2.22045e-16
0
0
0
0
-6.39488e-14
0
-2.22045e-16
-2.22045e-16
-2.22045e-16
-2.22045e-16
-8.88178e-15
0
8.88178e-16
0
0
0
0
0
0
0
0
0
0
0
0
0
0
0
0
0
0
0
0
0
0
0
0
0
0
0
0
-2.22045e-16
0
0
0
0
0
0
0
0
0
0
0
0
0
0
0
0
0
0
0
0
0
0
0
0
0
0
0
0
0
0
0
0
0
0
0
0
0
0
-2.22045e-16
0
0
0
-4.44089e-16
0
0
-4.44089e-16
0
-2.22045e-16
0
0
0
0
0
-8.88178e-16
0
0
0
0
0
0
0
0
0
0
0
0
0
0
0
0
0
1.96456
2.01495
0.681612
-7.32307
-9.46185
0.00719347
-0.192661
-0.277155
0.0018367
0.00867827
-0.00941661
3.81493e-05
0.000219345
1.17796
1.15149
-0.805811
-7.50947
0.6804
-6.53187
0.0720287
-2.62822
0.2225
0.0975795
-2.61189
0.26444
-2.84768
-0.053083
-0.0811633
0.00172836
0.000513146
0.00211912
0.0199535
0.0653735
-0.794924
0.0757882
-1.30524
0.0271065
-9.71396
-8.61019
0.00218945
-0.276117
-0.00226707
1.17507e-05
5.29035e-05
-0.0784337
0.000603995
-11.7663
2.13936
12.0727
-14.2024
14.1112
3.29435
1.39607
10.5455
-3.00762
-11.1035
-0.000678853
-4.9108e-05
1.64607e-05
3.15614e-05
-0.00104466
-0.000837177
-0.00146992
-0.00126427
6.08383e-05
4.88603e-05
4.32535e-05
-1.11392e-07
3.37635e-09
1.98185e-09
-3.29261e-08
-7.2126e-08
-9.24683
-3.43271
3.32194
9.06045
-11.0683
10.4367
-3.07618e-06
1.03452e-07
6.06081e-08
-1.10763e-06
-2.39691e-06
-8.09998e-07
-1.30554e-06
2.13505e-07
-1.34999e-06
6.52317e-07
4.8971e-07
9.67832e-10
-1.40911e-09
-2.06124e-08
1.29354e-09
-2.61974e-09
9.9501e-10
-5.05069e-11
4.66027e-11
-1.13487e-10
4.33333e-11
0.101086
-2.81594
-2.81584
-1.29499
0.0278554
-1.19239
-9.66848e-05
-0.000993833
-0.000834908
7.06975e-06
3.06647e-05
2.65854e-10
-7.25122e-09
-1.33298e-09
2.77517e-10
4.82018e-10
-7.80663e-09
1.9022e-10
-2.97834e-09
-3.24193e-09
7.96667e-11
1.30551e-10
7.37981
-1.87211
2.83498
-11.0766
-10.4631
0.847602
-9.44454
-9.50248
0.758581
-7.34107
-12.2953
-11.6418
2.1291
0.975944
-8.03588
2.13977
-7.53444
-0.08281
-0.199262
0.00778195
0.00383205
-0.197113
0.00779661
0.181732
-2.09058
0.182141
0.0976265
-2.2087
0.207793
-1.99757
-0.00206896
-0.00624546
0.000207391
-0.15387
0.00525548
-0.0277692
-0.0276173
0.00025807
0.000997723
0.00855509
-0.529406
0.0295372
-0.46868
-0.00363844
0.000911244
-0.0804553
0.0028517
0.00310151
-0.0665255
-9.2502e-08
-1.60719e-07
3.50814e-08
3.82445e-08
5.93617e-08
-2.2706e-07
3.10197e-06
1.82821e-06
-3.62447e-05
-7.66131e-05
-7.68199e-05
-1.31887e-07
5.38901e-09
-3.86604e-08
6.49959e-09
-1.35619e-07
9.53057e-09
4.28576e-09
-8.51919e-08
-1.13795e-06
1.592e-07
-2.55088e-06
1.02114e-07
-2.42566e-06
-2.52331e-06
1.66559e-09
2.82769e-09
-4.56907e-08
1.9705e-08
3.1287e-08
2.37297e-08
-2.60324e-07
-2.08329e-08
1.85201e-09
1.31607e-09
-4.81704e-09
-3.65159e-08
4.17618e-08
-5.17303e-08
1.52208e-08
-2.66909e-07
-9.19774e-10
-1.71521e-08
5.92014e-10
4.27733e-10
9.20549e-10
-1.06625e-07
-1.87639e-07
9.06537e-10
6.77726e-10
1.81993e-08
1.56612e-08
-2.65894e-07
8.62674e-11
-2.23293e-10
-2.22504e-11
9.93428e-12
1.84612e-11
2.53064e-11
10.8038
1.41684
-14.9598
15.4475
-9.64418
-3.0077
-8.79677
2.906
-11.4916
11.4888
6.60024
-6.96734
0.586701
-8.76167
-1.347
7.75956
5.99399
-0.568641
-6.65588
1.04178
-8.46582
7.0528
-5.07742
5.71238
-3.43893
-9.3638
4.14191
9.30313
1.3338
-5.16398
-1.99476
-7.01891
1.89435
1.84381
-4.25913
3.8857
-4.34605
-8.20943
3.29997
5.36709
0.212582
-2.51596
-3.70363
0.34477
0.401388
-0.198396
0.0333941
-0.566022
-0.732915
0.0370626
0.0524993
-0.0007682
-0.000371236
-0.00114621
2.71313e-05
2.8067e-05
4.20822e-05
-0.00219752
0.00067142
0.000400916
-0.026941
0.000735315
-0.011551
1.17346e-06
-1.38029e-05
-5.92388e-06
-2.52274e-05
9.20797e-07
4.66631
0.326878
1.40307
-3.73252
14.9508
-14.728
8.45198
-10.3101
-3.60264
1.59239
5.24825
5.4184
0.292442
-4.87432
17.2888
-0.0714036
-17.1253
4.9896
2.16626
-3.32449
-5.71122
-2.66741
3.82833
-3.96419
2.16661
5.99454
2.73382
-3.95919
-3.31761
4.8879
3.18028
5.69735
-1.56737
-5.02162
17.6571
-17.3414
5.06376
-6.11648
-2.38623
1.67223
3.39531
5.36254
-4.91957
4.57899
17.2807
-17.0814
6.28656
3.1171
-2.40518
-6.88016
-2.45692
3.43616
-3.20289
1.71202
4.65368
3.43089
-2.3368
-3.28035
4.61104
2.38432
-5.45722
-2.84384
5.13826
12.2009
6.7375
-7.17747
-2.61505
3.91004
3.50185
2.68284
-4.8284
8.04319
-1.97252
5.92572
8.47949
5.56157
-5.53671
-9.31951
-2.54937
3.32666
-3.30174
4.59863
4.5903
4.88232
-5.70731
-2.64262
3.18554
3.1124
-7.02271
7.87746
-2.31578
7.05523
7.25599
-8.7137
-2.14024
4.70556
2.65994
0.370343
-2.39667
-2.97521
-0.467118
0.36695
0.00192217
-0.0657216
-0.0330854
-0.00258082
0.00127626
0.00202457
-1.59494
1.22284
1.55816
-0.00338345
-0.000113777
5.21387e-05
2.90464
8.284
-1.02944
2.55029
-14.8312
1.1307
-3.26907
4.56007
-15.4821
1.53864
-10.4832
8.59537
-8.26662
-3.41048
3.3782
6.94004
5.02122
2.55539
4.00358
-14.2623
3.41003
6.92474
-15.7679
2.09799
6.33463
2.01789
-15.1376
-6.12928
-2.96259
5.40363
4.33359
-1.8674
-1.59877
1.38802
1.87402
-14.5629
-3.36423
-6.04812
4.87288
2.21002
2.74797
-14.0344
5.30273
1.35411
-15.933
2.14664
-3.73884
3.8955
5.68071
3.89242
-3.43856
5.156
-3.95124
2.76376
-1.47575
1.52061
7.1266
2.40336
-16.6771
-1.49647
1.52328
1.57845
-15.0849
-6.48025
1.7402
4.94715
-6.74828
-2.29988
1.78683
5.47815
3.25877
-16.4046
2.25249
1.61409
-15.4294
1.85191
5.37898
1.29897
7.40786
2.81183
-16.2984
-6.93819
-2.30169
5.91251
3.27578
-2.60208
-1.12729
2.86591
1.82519
-12.4924
-2.48789
-7.10027
6.1229
3.14572
1.5696
-14.7246
5.80791
2.98471
-14.7429
1.78105
-3.17749
1.69322
4.5654
1.76615
-3.21196
4.58027
-2.39745
3.46229
-3.36706
1.9879
7.66555
4.18747
-9.76319
-1.53525
3.43003
2.37725
-10.3618
-6.9479
3.93339
6.5185
-8.13043
-2.59982
4.8001
7.29892
3.45564
-11.7492
4.25076
2.73967
-9.31401
4.82213
7.10378
2.24818
8.92021
5.30743
-9.15705
-9.04793
-2.60899
7.85602
3.50584
-5.38382
-2.44415
6.07396
3.28876
-9.14963
-5.69432
-9.32921
8.38573
5.78922
3.0757
-9.07534
7.5737
6.29263
-9.16582
4.60969
-3.3176
5.6164
4.52396
5.8056
-3.1217
4.04453
-5.9877
5.56412
-6.33514
1.95911
6.9156
4.96189
-8.02318
-2.43579
6.1019
3.2272
-8.74607
-8.96444
5.24213
7.79931
-6.12102
-1.22508
0.962554
1.47333
1.24048
-8.98248
4.19448
2.42969
-7.76526
1.53643
2.34494
0.882487
1.45784
0.950288
-5.31911
-0.890121
-0.121552
0.0802584
0.0637893
-0.604278
-0.047646
0.0271728
0.0334621
-0.129624
-0.0646396
0.00406424
0.00430038
0.835254
-4.4676
0.16404
-0.614946
0.0615466
2.04884
-0.22306
0.0971048
0.106637
0.203526
-0.00534344
0.0024125
-0.00775568
0.858485
0.85519
5.26852
14.1555
-14.1163
-9.31522
10.5352
13.5968
0.718506
-12.3992
-8.51425
7.83884
2.21197
-9.92556
-12.3497
13.0409
2.75218
-9.99127
-10.0554
0.888324
3.02047
-1.54487
5.63028
15.8275
-16.363
-1.45299
-4.40868
5.52152
6.99636
1.4626
-6.18475
-1.28836
3.66306
0.408555
-7.83803
3.65659
-2.62555
-5.47375
5.95901
1.58308
-1.77469
-8.41094
-7.63035
6.5124
0.647278
-0.00333304
-0.0292893
-0.0204378
0.000229799
-4.56095
4.05079
9.8422
2.15402
-12.3351
-2.57296
-5.16086
6.32923
7.69735
3.08386
-6.64221
0.0120255
0.0142258
-0.223047
-0.0289675
-0.317538
0.00470446
-3.33945
-7.04513
5.71527
4.49609
-1.68617
-7.8696
-5.82046
3.37388
1.78711
-9.88914e-05
-0.00308214
-0.00205188
8.48775e-05
2.44187e-05
-6.80923
7.70622
3.87537
6.74502
-7.49263
-5.30906
-5.94923
5.81594
6.61711
4.89908
-7.09942
-3.52519
-5.27407
0.918571
0.536189
-0.00717972
-0.0204017
-0.00411663
0.000360124
0.000341125
-6.96052
0.435068
8.10672
14.5896
-13.4711
-10.3292
6.80713
1.64982
10.4152
9.46303
-11.4851
-9.44888
1.82945
0.170947
-0.0323147
5.12473
14.8658
-16.072
-4.31053
1.18623
10.159
4.63284
-1.87179
-10.4946
5.39973
2.05332
-3.2146
-5.70367
4.86508
7.33346
7.65096
1.41721
-2.70285
-8.55498
-6.46335
13.5429
-12.9175
1.74992
-12.8436
13.4891
-12.3126
11.4067
1.85527
11.684
11.7421
-13.4151
-12.2461
2.41567
-4.61784
-1.52702
5.73788
7.35996
-6.38725
10.3052
2.27146
-9.64263
-2.26128
10.9386
-8.86389
8.46346
1.39588
-2.84982
-9.26197
7.75396
1.96036
1.9497
0.661136
-2.97258
-7.35169
-6.4276
-12.3545
1.83562
0.204902
0.0966965
-0.963996
-2.2061
-11.0524
2.54355
-3.95462
6.28265
8.68414
2.0885
-4.37639
-8.54138
-12.5378
2.14697
-4.56726
8.41603
0.143537
0.0751504
-0.839987
-1.48725
-0.0721758
-3.5182
-1.11442
1.5942
3.44267
8.48615
-9.97031
-6.0013
4.31614
1.57406
6.85639
7.50902
-8.45257
-5.93752
1.01945
4.15838
4.81656
14.7473
-16.0506
-3.2585
-2.34159
8.74914
3.54162
2.69841
-9.67178
6.62754
3.04826
-2.31901
-7.09886
4.2862
6.55214
7.90698
2.45848
-1.62416
-8.80982
-5.99122
-1.50379
8.04322
0.828799
-8.30484
8.4336
-7.84939
-8.9174
6.98216
0.787315
0.465003
0.483686
-4.19413
-3.61259
0.146948
-4.85498
-2.15817
6.05386
7.48213
-6.51351
-0.816559
1.31201
-8.1237
7.77009
8.14358
-7.6907
8.15618
2.17637
-1.34036
-8.98187
6.54408
0.183299
0.196381
0.106697
-0.119215
-2.02537
-1.68126
-0.529767
0.00850654
-0.372851
2.55192
0.60667
-7.2055
2.32638
0.00947166
0.003631
-0.00453828
-0.214847
0.00886447
-7.6818
0.887387
-2.23024
5.81722
6.61319
2.39503
-1.48982
-6.88705
-0.338517
0.0065499
-1.11114
4.97215
0.00655988
0.00287405
-0.00365124
-0.124364
-0.00012156
0.00027956
-2.83177
-3.96113
7.48449
3.25972
-6.61351
-7.75207
4.30965
3.82332
6.24328
8.30561
-8.96206
-6.05602
3.28392
-4.88537
7.96212
3.5039
6.03269
-7.16248
6.4717
5.75384
-5.04032
-5.31882
8.16018
-7.3944
8.284
5.17657
-5.25054
-9.19977
3.90161
1.99659
1.76875
1.13837
-3.47563
-6.86641
-3.86693
-2.98168
-7.84508
6.72882
3.31736
7.05882
-7.35104
-8.90128
6.17145
2.74948
0.0663513
0.0739408
-1.05288
-0.826112
0.0288794
-5.13717
6.73751
7.79056
-7.66785
0.0559033
-0.742146
-0.378094
-0.741296
0.0558716
0.0322761
0.35992
0.206239
-1.61751
-3.37038
0.296831
5.97602e-05
7.34557e-05
3.15094e-05
-0.000463302
-0.00223272
-0.00131983
-0.0805104
0.00284594
0.000909938
6.01763e-05
-0.000464551
-0.00132512
-0.00223401
3.1759e-05
7.44168e-05
2.60513e-06
-1.54324e-05
-7.68417e-05
2.37248e-06
-6.44509
2.87148
-5.15448
3.25123
0.107484
0.0809879
-0.757857
-0.761371
-0.0422258
0.000713721
-0.102092
0.00963189
1.70088e-06
8.8774e-07
-1.22633e-05
-3.59128e-05
-4.41457e-07
7.06817e-08
-5.54229
7.51524
5.70999
-7.41005
-8.2187
2.88797
3.44881
0.142059
0.187839
-1.94633
-0.979048
0.11712
0.0522815
-0.505095
-0.165111
-0.856821
0.0475802
0.0523531
0.00169143
-0.0249803
-0.0085186
-0.0672012
0.00120885
0.00198417
0.000670462
-0.0253553
-0.0125449
0.000427937
0.000702271
2.16218e-06
4.09722e-06
-0.000145701
-9.14357e-05
-1.59795e-05
4.12745e-06
6.4024e-05
-0.00132603
-0.00149102
-0.00132342
6.40238e-05
5.27264e-05
-0.396318
0.0133661
0.0119696
2.9378e-06
-8.55361e-05
-5.05712e-05
1.57566e-06
1.36854e-05
-0.000232286
-0.000130473
-0.000629402
1.11226e-05
1.57796e-05
1.71966e-06
-1.11507e-05
-1.47995e-05
-3.52623e-05
1.11463e-06
3.83238e-07
-1.28074e-05
-8.95087e-06
2.25834e-07
6.48451e-07
3.36445e-09
-7.77423e-09
-4.07593e-08
-5.6736e-09
6.20742e-09
-0.0356591
0.00412683
-0.00109073
1.61941e-05
2.94087e-05
7.83124e-08
-4.8668e-06
-5.88489e-07
1.5533e-07
-1.47225e-06
4.69172e-08
-4.13045e-07
8.27028e-09
1.83449e-08
-2.46952e-10
-2.81682e-10
1.4899e-10
2.25663
-8.70852
9.53552
7.4214
-7.18233
3.8966
-7.51366
9.00547
3.94301
2.88838
-10.8767
13.0626
12.3244
-9.42029
-11.63
4.57117
-10.3633
12.2956
4.4443
-7.25536
-7.31467
0.722237
1.39511
-2.46878
-6.10739
7.11146
5.81554
-5.80397
1.56629
-6.31112
6.8635
1.377
0.389826
-1.28342
-7.84593
2.86011
6.04177
-8.15503
-7.15738
0.609946
-7.36391
2.29264
0.351334
0.000609965
-0.0202383
-0.014511
8.48732e-05
-0.000711488
2.58639e-06
2.3444e-05
4.18681
-3.15485
-7.34413
6.34556
5.34623
-7.45762
5.14223
-7.78288
5.67504
4.55556
0.406511
-0.75665
-4.49306
0.526539
1.0546
-6.44678
-4.1025
0.785279
-1.80659
0.1201
0.0639095
7.92123e-07
-3.26413e-06
-0.000101622
3.14546e-06
1.35687e-05
-0.000513634
-0.000332548
3.9673e-06
-1.63165e-05
1.29295e-07
4.94392e-07
0.179817
-1.68516
-2.57065
0.218155
0.0327006
-0.693997
0.0338197
-0.247532
0.00627268
0.00808113
2.14432e-05
-0.000435479
-0.00136831
2.53932e-05
1.11276e-05
-0.000618535
-0.000119209
1.29579e-05
-4.13322e-05
8.22708e-07
8.32968e-07
-5.15192
8.91215
-1.22684
6.39945
2.44522
-13.2746
1.23687
5.87169
-15.2147
1.69732
-10.4933
8.25859
-8.5485
6.50418
3.31456
2.54846
-13.7147
7.87002
3.18512
7.24105
-14.9112
7.63504
9.23893
-1.09403
2.30409
-12.8223
1.08914
-8.54141
9.75153
-14.1763
1.79217
-10.8602
9.03125
-9.8684
-8.99303
2.90422
9.84437
8.56047
2.12841
8.7355
-12.4838
3.04915
7.94061
-14.5353
-3.64502
6.94765
1.93782
4.76115
-10.7359
-6.28841
5.56236
5.78103
-1.91904
2.61802
1.44846
-11.8842
-3.06702
-6.34505
5.70737
6.03867
1.82012
-12.1661
6.63644
6.34752
3.61541
1.4818
-9.51373
5.88743
7.71303
1.84787
-10.0556
-8.91789
-7.50044
8.31085
7.95365
-1.74212
-4.68166
5.91845
1.34176
-8.56472
-2.85818
-7.37754
6.86634
1.59235
6.97709
-9.84506
7.02052
1.43694
-8.62184
-9.73347
12.35
-1.44639
10.8667
2.4062
-12.5341
1.27604
10.8789
-13.8074
1.98121
-13.2968
12.2081
-11.0625
10.6458
2.96351
2.08385
-12.2664
11.2918
3.26905
11.8727
-13.8247
11.7761
12.7728
-1.81043
3.00266
-12.7387
2.16104
-12.6598
12.843
2.25668
-13.6524
11.6369
-12.4859
-11.276
3.4261
10.4712
11.1099
3.46002
11.8888
-12.5514
3.48567
11.2012
-13.8102
-8.20525
10.9276
2.30643
9.53681
-10.6514
-10.229
9.17023
8.65957
-1.81035
7.46518
1.28197
-8.88388
-3.18203
-9.5623
7.67294
8.89103
1.36091
-10.2818
9.33057
9.84268
8.1764
1.42575
-9.3233
9.93922
11.0688
2.95327
-10.9726
-10.2324
-9.14148
7.50547
7.96803
-3.37706
-8.18808
7.08801
1.37656
-8.69143
-3.36144
-9.05924
7.12594
1.27538
9.70337
-10.5693
9.94259
1.48025
-9.17371
2.33259
-12.8896
-11.1255
2.81361
3.49321
-11.9127
-8.04485
2.08488
-3.07835
0.73316
-7.10575
-9.72159
2.37701
-10.3851
4.36025
4.07515
6.68333
-3.993
7.5472
8.06949
-9.26382
10.0897
-4.11148
2.32455
3.2515
-11.2878
3.0385
4.03047
10.1822
-4.41072
6.17844
9.85795
-7.45356
1.77389
-3.12924
0.527809
-1.45067
-2.22966
6.82931
3.27602
1.74031
-9.78731
2.16342
1.503
-12.2069
-6.47994
1.44002
5.08825
-6.47993
4.14645
1.66161
3.21325
-9.41791
1.98847
-12.5359
4.92587
1.51729
-1.38762
4.37761
7.95945
1.55389
-8.56274
-4.34504
1.25002
5.84962
-8.2118
-7.72227
1.25581
6.92351
-8.44606
-5.81428
1.05964
6.6254
7.51461
-8.35546
1.32234
5.86147
-8.23961
1.31866
6.9465
-2.42518
7.36796
2.28857
3.49525
-9.61409
-6.8526
4.15554
6.24362
-2.39001
2.84956
2.83312
-10.3223
-2.17942
-7.88037
5.07286
7.04954
2.89868
-11.8188
4.95828
6.7294
3.88001
2.77913
-9.11642
4.61465
8.28586
2.11383
-8.69686
-8.63745
-5.89682
6.6063
7.67868
-1.84541
-4.94638
6.27931
2.46331
-8.64371
-1.93201
-8.48209
7.30711
2.69498
6.03232
-8.48861
7.14474
2.63776
-8.60157
-0.804568
-7.08198
8.50394
7.28551
0.802961
-8.51977
7.27405
1.02863
-8.57081
-8.81569
0.591359
6.61394
-8.77508
6.70146
0.798881
7.54289
-8.75478
1.06071
-8.51938
6.23726
0.575265
-0.623106
6.79854
7.41331
0.592315
-8.15581
-7.2222
0.436444
4.18295
-7.6652
-7.84512
0.410618
3.16338
-3.42477
-2.98444
0.0879479
0.348288
0.366112
-8.44265
0.394383
3.40925
-7.2297
0.373212
2.63757
-7.15794
8.50114
1.32522
7.2522
-8.55937
-8.90831
6.64824
8.16137
-1.55624
7.0749
2.36091
-8.77256
-1.04784
-8.44807
5.64458
6.71685
1.65583
-8.66277
6.07237
7.19711
7.2023
2.20999
-8.57375
6.6077
7.21225
1.06223
-8.1507
-2.83876
-2.53931
0.288192
0.303751
-0.640824
-6.3019
2.01229
0.966118
-6.75806
-0.606142
-6.83121
1.70203
0.885852
2.96365
-7.04518
2.297
1.7408
-8.13169
-0.392012
0.0192194
0.0034518
0.0204059
-0.349513
0.160452
-4.19342
-0.392387
0.0191341
0.00343218
0.0971493
-3.41906
9.28604e-05
0.000714852
-0.328325
0.0152238
0.00455793
0.0162002
-0.289127
-0.328588
0.0151711
0.0160703
-0.132511
0.214708
0.122388
-2.01472
-0.000131919
-0.00888706
0.000329651
0.000108013
0.000331482
-2.9687
0.000572046
0.000575131
0.00954062
-0.183888
1.14783
-7.23977
0.854885
1.12058
5.83041
-2.05171
6.7297
6.87114
-7.06689
6.94304
-1.7841
2.82522
0.113662
-0.25644
0.00273194
0.0658953
5.75281
-0.568088
1.21343
1.82654
-0.206482
0.0114693
-0.0877751
0.0728991
0.000490469
-3.99564e-06
1.07523e-05
1.91085e-05
-3.40551
-3.63426
8.84149
4.55201
4.25103
-8.79559
3.28871
3.46314
-9.28739
-8.27988
3.69561
5.16416
-8.53
4.34435
4.74162
4.24115
-8.7348
4.25031
-8.91168
5.23895
4.60007
-3.2892
5.64988
8.98476
4.34601
-8.80183
-5.28549
3.30679
6.58558
-8.74656
-8.72857
3.56842
7.72549
-9.05578
-5.7682
3.63015
5.85307
8.12794
-8.6639
4.2362
6.42689
-8.85677
4.22417
8.3317
-3.94308
9.16735
5.34015
4.92314
-8.93985
-9.12484
4.34717
8.10113
-5.46808
4.15762
5.7874
-9.06648
-4.76474
-8.87498
4.1978
7.68001
4.5798
-9.0021
4.91513
8.42445
4.91289
5.53409
-8.88166
5.76237
9.06894
4.94554
-8.9048
-8.49654
-5.1599
4.78494
6.61461
-4.57878
-5.30494
5.13586
4.23191
-8.14029
-4.30555
-8.22593
5.18767
3.27963
6.10316
-8.62996
8.08711
5.07406
-8.51774
-2.90831
-6.68427
7.00973
6.08371
3.19674
-8.23368
6.91834
3.26701
-8.81066
-8.1098
1.98859
4.38847
-8.4819
5.11438
2.9131
6.91648
-8.48263
3.8434
-8.62938
1.88539
1.32722
-2.15881
2.71354
2.44326
1.7046
-7.06141
-5.24168
0.800657
1.0421
-5.61943
-5.49462
0.644964
0.850236
-0.317348
-0.222546
0.00469256
0.0119955
0.0141268
-7.90466
0.161345
0.305048
-2.91829
0.11768
0.250789
-5.85543
3.69711
2.27313
3.59345
-7.36586
-7.27607
2.50394
2.24222
-3.90145
3.26795
2.16645
-7.20044
-0.211982
-0.585805
0.0244344
0.0336802
0.0165644
-8.26379
0.344032
0.397211
0.547149
0.358731
-4.37398
0.525138
0.554206
0.326854
-4.29756
-0.0387186
-0.0241376
0.00108393
0.00131888
-0.0171361
-0.0439354
0.0020146
0.0010915
-0.0124344
-0.051085
0.00178856
0.000797016
0.0358571
-0.612832
0.0306254
0.0273584
-0.752244
-0.0151853
0.000469686
0.000145407
0.000516666
0.033598
-1.04328
2.67804e-05
0.000102158
-0.0151976
0.000468744
0.000145217
0.00547492
-0.305487
4.34211e-06
1.63982e-05
-0.00139244
4.20613e-05
1.54845e-05
4.64632e-05
-0.00108719
-0.00139362
4.19314e-05
4.61453e-05
-0.000536565
7.68025e-05
-0.00201882
-4.85574e-07
-2.42755e-06
9.12228e-08
9.0307e-08
-0.0359229
1.45683e-06
1.46223e-06
2.68698e-06
3.61716
-5.49864
2.59573
3.81453
4.56219
-4.25144
2.45097
4.60051
-3.64999
1.25392
-2.72792
0.468766
0.0189173
-0.00715311
0.000114236
0.00303471
0.162056
-0.00663151
0.000643693
0.0118396
-0.000641295
2.97937e-05
-0.000306434
2.13136e-05
1.20895e-06
-1.49724e-08
3.02632e-09
4.41916e-08
-4.96575
-2.59462
2.21885
2.12161
1.40935
-6.41446
3.8577
5.65691
-8.57358
-7.31929
1.67433
2.42825
-4.63024
0.766312
0.467109
4.17333
-8.27009
2.98822
-7.29431
0.197912
0.172826
-3.49535
0.811673
0.731177
0.48926
-4.5322
-3.8889
1.25155
2.16718
-6.48697
-5.40544
0.566838
0.877385
-0.151768
-0.0333434
0.00485724
0.00405681
0.0068381
-7.69172
0.109307
0.119051
-1.50296
0.0370421
0.051986
-0.453717
0.142137
0.114236
0.12052
-1.29472
-0.426298
0.0216601
0.0295587
-0.32206
0.00989291
-0.169422
0.0133905
-0.00651797
-0.00335836
9.11114e-05
0.000169888
0.000172836
-3.09181
0.00444585
0.00748329
0.00219025
0.0036464
0.0206397
0.0303875
0.026849
-0.412539
-0.00414081
-0.000743566
9.48686e-05
0.000174637
-0.00379964
-0.000399188
5.51161e-05
9.77768e-05
-0.00119178
-0.000668701
3.18737e-05
3.153e-05
0.00269209
-0.0770537
0.00138692
-0.0115147
0.000732289
-0.0242049
-0.0117236
0.00114269
0.000833993
0.000864564
-0.0266148
0.343445
0.255491
-3.38976
-0.0382429
0.000764868
0.000904542
-0.0164532
0.000369232
0.00042762
0.0300928
-0.58248
0.0125149
-0.293036
2.6787e-05
2.77499e-05
-0.00126176
4.85401e-05
6.05927e-05
4.4689e-05
-0.00146955
-0.00167174
5.11123e-05
-0.00220027
-0.00205973
3.78811e-05
6.97078e-05
-2.70213e-06
-1.59507e-06
6.60751e-08
1.05169e-07
-0.0500636
1.94286e-06
1.42897e-06
2.18357e-06
-0.000263364
2.82682e-05
2.50003e-05
2.02806e-05
-0.000623351
-0.00039746
9.28195e-06
1.59162e-05
-0.000362568
5.78055e-06
1.34168e-05
-0.000175817
-8.51988e-07
-6.85377e-07
2.12443e-08
3.1856e-08
1.762e-07
-0.00838648
7.14527e-07
1.0979e-06
5.00215e-07
1.08519e-06
1.31034e-06
1.59733e-06
1.39465e-06
-3.55604e-05
-1.10116e-07
-4.86144e-08
6.59244e-09
-1.2921e-07
-1.00112e-07
2.80667e-08
-2.36566e-07
-4.90483e-08
-7.80241e-08
5.44886e-09
9.86564e-09
-1.832e-06
6.37075e-08
7.81984e-08
-1.01104e-06
0.0348638
-0.000988535
0.000154678
0.00135331
0.000723606
-0.000250487
3.40132e-06
6.85927e-06
0.000146793
-2.45354e-05
3.14259e-06
-4.21117e-05
1.17482e-06
1.08491e-06
-5.01964e-08
2.23214e-09
4.35637e-08
3.07207e-07
-2.71561e-08
8.7739e-10
4.22135e-09
2.37224e-08
-1.75107e-09
-1.62905e-09
3.80517e-10
-4.48778
16.0836
5.18592
-16.0825
-0.462133
16.8847
0.0487123
-16.6159
17.8191
-0.188909
-17.3018
-0.592192
-3.07421
0.443884
2.94597
-2.83897
-1.97139
2.95491
0.379995
-1.68464
0.32335
-5.00381
17.5471
5.65171
-17.2581
1.61227
17.9934
-17.342
18.0881
3.28971
-17.4303
-1.4886
-3.32654
2.93243
3.29079
-3.28422
3.21511
-1.45744
2.9441
4.91387
17.8978
-17.3231
-4.10133
15.8061
4.30383
-16.416
17.4588
5.93232
-17.2305
-3.78097
-1.88303
3.78125
1.4057
-2.92645
2.60794
4.17
4.59558
-3.67747
15.6395
4.82018
-14.634
-1.75929
15.8837
-14.9313
15.5107
-15.0736
-0.134123
-2.89881
3.71218
-3.18683
4.31044
0.170267
5.54529
15.6627
-16.2609
1.6494
11.0516
-0.506728
-14.6522
11.413
2.84178
3.77838
-14.8166
-1.54352
2.25609
2.6229
2.11052
-0.744538
-1.50892
2.1174
2.61462
-1.26421
2.47591
5.10411
14.2476
-15.3473
0.491172
11.6714
-1.46807
-13.5184
10.9213
3.48368
-14.2221
-0.89851
2.14368
2.97083
-2.10673
1.39418
-2.14148
3.71061
2.70922
-4.11149
5.27914
2.20917
9.86869
-9.04636
-4.83354
-8.85112
-3.96413
7.63287
4.56521
-2.59957
-3.39646
3.53598
9.61014
4.19664
-8.82473
-10.8088
2.48766
11.0838
3.638
-2.77554
2.39699
-3.92004
1.29813
-8.06871
1.55045
-10.4778
-3.41712
4.33191
10.5353
3.59784
-2.69911
-3.40171
3.68353
-2.54846
2.34152
2.50142
-8.70853
15.0392
6.25005
9.63541
-1.57716
1.70718
4.56767
3.59233
-0.872141
1.39598
-1.33718
2.04303
4.03929
-3.94035
-10.7967
4.10652
4.95626
12.2014
3.10737
-15.3226
10.6683
3.52967
-14.0589
-3.12219
1.88141
3.08898
1.96399
2.52277
2.67082
9.49066
3.42413
2.83823
-11.653
2.85612
2.97586
5.88584
15.3433
-14.2623
-0.156791
15.0089
-13.8948
13.5274
5.84892
-13.215
-0.504061
4.54953
5.4787
-0.805888
5.61185
6.70558
3.59155
8.76728
-9.72159
-1.48773
7.62801
1.4275
-7.5506
4.84392
1.57909
-2.05027
9.16498
-1.87932
5.69629
-8.88784
-1.56602
-3.83731
1.41994
5.03382
-1.90579
6.07925
1.41166
8.73973
3.60736
-10.3743
7.33805
1.47669
-7.35854
-1.43543
3.73569
1.77712
-3.6413
1.41799
4.84177
7.5402
1.88184
4.53517
-7.61345
1.61876
4.90124
8.70696
2.32732
4.20596
-9.09485
3.36855
2.31101
2.85629
4.09122
-3.39731
-7.84612
3.89786
4.06001
8.6388
3.55913
2.83924
-9.08874
3.37869
3.26124
4.07635
-7.71886
-2.43065
-3.68113
7.49222
-6.97584
3.87996
2.33871
7.64955
4.6536
-7.58431
8.22684
2.9492
-8.47346
-2.1501
-4.16979
2.59858
5.40601
5.11144
2.78865
1.82989
9.9088
-9.8669
-3.34772
9.71544
4.16581
-9.34827
10.053
2.06333
-2.84389
-10.1834
1.96257
3.43081
-2.76253
3.47193
2.83259
10.7062
-2.78552
2.27555
4.41493
10.6454
3.15879
4.49542
10.5169
12.8816
6.71533
-12.3325
14.1181
0.757866
-12.9588
6.82961
-0.932275
0.83354
-7.98579
9.23898
12.3715
7.90557
-11.3375
8.04058
8.43822
-1.59381
2.13235
4.97531
-1.86026
2.5975
-2.22908
3.01896
6.29811
-9.05929
4.93841
-5.0171
8.12708
5.84522
6.31669
-1.06863
-7.72801
-6.42786
1.08934
7.65201
7.71649
1.30297
-1.36641
7.05043
-6.27267
6.40271
1.29437
-1.35175
5.59152
7.06142
1.65833
-6.36934
-1.34457
7.83907
1.34543
7.06774
-6.32958
1.35531
-3.30164
-7.58315
4.94223
3.99442
7.70589
3.42424
-7.51852
-4.55395
3.15136
5.72548
-4.37366
7.60374
5.48735
3.87127
-6.67695
4.00531
-6.72625
6.18732
4.15889
7.9539
2.86538
-7.63108
5.01269
3.46067
3.86115
6.20711
-7.74588
5.08438
4.34203
-4.82938
8.03808
4.31654
6.09679
-7.01868
3.85755
-6.95967
4.82076
6.01793
-9.0846
-7.34668
1.69991
-1.81003
8.84604
6.90934
8.95974
-1.78101
-7.79851
-1.52404
7.85509
7.11896
-6.5491
-1.55186
6.43299
-1.64104
8.14368
-7.84976
-1.73119
8.10112
-7.93128
-6.6067
1.5435
7.6825
5.80755
7.34
-6.50673
-1.80508
8.13307
2.39837
7.48963
-6.74187
-1.84052
6.86683
2.42643
7.22947
-6.56097
2.33463
7.72291
2.9877
9.65414
-2.79221
-9.39383
3.37059
9.40838
4.10696
-2.78306
-8.68323
9.57612
4.49852
4.233
-8.48381
3.46833
-3.81707
4.86941
10.0757
-2.69966
-4.10943
4.525
9.77335
3.47923
-2.78327
4.54537
10.1666
-11.4922
-9.19337
-0.926998
10.359
0.713469
13.0666
11.6632
-11.9393
0.747145
10.4399
9.12513
11.9319
-10.708
10.237
-10.3525
11.6497
-1.78096e-05
-6.3557e-08
6.24101e-07
4.3608e-07
1.05206e-07
-8.88587e-06
0.0881436
0.110904
-0.470941
-1.061
0.0435993
-1.73697
4.7237e-06
2.061e-06
-3.95782e-05
-0.000139713
-0.000224867
5.77535e-06
5.38703e-08
-9.70523e-07
-6.05254e-06
1.6042e-07
0.000529699
0.000730413
-0.00203853
-0.0111994
0.000155013
-0.0245176
8.60626e-07
-2.24634e-05
-3.24731e-05
1.78641e-07
1.0028e-06
0.000177969
0.000247174
-8.74301e-05
-0.0035672
-0.0079949
6.89114e-05
3.13543e-07
9.31717e-08
-1.19537e-07
-7.8879e-06
-1.1346e-05
3.64946e-07
-1.04038e-06
5.39768e-09
3.38177e-08
3.27353e-09
-4.4284e-09
-3.7844e-07
1.26927e-08
0.00032568
0.000433807
-0.00701392
-0.000700119
0.000111933
8.96865e-08
-2.29138e-06
-3.34205e-06
2.2853e-08
1.0439e-07
-1.06702e-07
8.52089e-10
3.56496e-09
0.165659
0.149802
0.0709646
-1.71542
-0.00342999
-0.00567787
0.000105696
0.000131195
-0.00148953
-0.00732842
7.12973e-05
0.000188531
-0.00356035
-0.00202802
-0.00615215
0.000202652
9.47654e-05
0.00459523
0.00513899
0.00327827
-0.140715
-0.000138535
3.29015e-06
-4.63082e-05
2.39194e-06
-0.000227709
0.000692642
0.000597264
8.36574e-05
-0.0142254
-0.000962676
5.56907e-06
2.85781e-05
-0.000820101
6.97211e-06
2.97938e-05
-1.75304e-05
-2.4614e-05
7.2721e-08
6.99573e-07
8.06214e-07
-0.0201829
2.12304e-06
2.19012e-05
-0.000398861
2.53392e-06
2.27171e-05
0.000557267
0.000479195
0.000119274
-0.011212
-1.41925e-05
-2.00644e-05
5.69891e-07
6.60194e-07
-3.27809e-06
-0.000321161
2.61238e-06
1.00322e-05
-3.90051e-06
-0.000272993
1.04048e-05
3.17985e-06
-0.000318615
1.84857e-05
9.66431e-05
-0.00641018
1.99142e-07
-8.363e-07