/*--------------------------------*- C++ -*----------------------------------*\
  =========                 |
  \\      /  F ield         | OpenFOAM: The Open Source CFD Toolbox
   \\    /   O peration     | Website:  https://openfoam.org
    \\  /    A nd           | Version:  9
     \\/     M anipulation  |
\*---------------------------------------------------------------------------*/
FoamFile
{
    format      ascii;
    class       volScalarField;
    location    "0.0001";
    object      overpressureMax;
}
// * * * * * * * * * * * * * * * * * * * * * * * * * * * * * * * * * * * * * //

dimensions      [1 -1 -2 0 0 0 0];

internalField   nonuniform List<scalar> 
4115
(
0
0
0
0
0
0
0
0
0
0
0
0
0
0
0
0
0
0
0
0
0
0
0
0
0
0
0
0
0
0
0
0
0
0
0
0
0
0
0
0
0
0
0
0
0
0
0
0
0
0
0
0
0
0
0
0
0
0
0
0
0
0
0
0
0
0
0
0
0
0
0
0
0
0
0
0
0
0
0
0
0
0
0
0
3.63798e-10
3.49246e-10
0
0
0
0
0
0
0
0
0
1.45519e-11
0
0
0
0
0
0
0
0
0
0
0
0
0
0
0
0
0
0
0
0
0
0
0
0
0
0
0
0
0
0
0
0
0
0
0
0
0
0
0
0
0
0
0
0
0
0
0
0
0
0
0
0
0
0
0
0
0
0
0
0
0
0
0
0
0
0
0
0
0
0
0
0
0
0
0
0
0
0
0
0
0
0
0
0
0
0
0
0
0
0
0
1.01863e-10
3.0559e-10
0
0
0
0
0
0
0
0
0
0
0
0
0
0
0
0
0
0
0
0
0
0
0
0
0
0
0
0
0
0
0
0
0
0
0
0
0
0
0
0
0
0
0
0
0
0
0
0
0
0
0
0
0
0
0
0
0
0
0
0
0
0
0
0
0
0
0
0
0
0
0
0
0
0
0
0
0
0
0
0
0
0
0
0
0
0
0
0
0
0
0
0
0
0
0
0
0
0
0
0
0
0
0
0
0
0
0
0
0
0
0
0
0
0
0
0
0
0
0
0
0
0
0
0
0
0
0
0
0
0
0
0
0
0
0
0
0
0
0
0
0
0
0
0
0
0
0
0
0
0
0
0
0
0
0
0
0
0
0
0
0
0
0
0
0
0
0
0
0
0
0
0
0
0
0
0
0
0
0
0
0
0
0
0
0
0
0
0
0
0
0
0
0
0
0
0
0
0
0
0
0
0
0
0
0
0
0
0
0
0
0
0
0
0
0
0
0
0
0
0
0
0
0
0
0
0
0
0
0
0
0
0
0
0
0
0
0
0
0
0
0
0
0
0
0
0
0
0
0
0
0
0
0
0
0
0
0
0
0
0
0
0
0
0
0
0
0
0
0
0
0
0
0
0
0
0
0
0
0
0
0
0
0
0
0
0
0
0
0
0
0
0
0
0
0
0
0
0
0
0
0
0
0
0
0
0
0
0
0
0
0
0
0
0
0
0
0
0
0
0
0
0
0
0
0
0
0
0
0
0
0
0
0
0
0
0
0
0
0
0
0
0
0
0
0
0
0
0
0
0
0
0
0
0
0
0
0
0
0
0
0
0
0
0
0
0
0
0
0
0
0
0
0
0
0
0
0
0
0
0
0
0
0
0
0
0
0
0
0
0
0
0
0
0
0
0
0
0
0
0
0
0
0
0
0
0
0
0
0
0
0
0
0
0
0
0
0
0
0
0
0
0
0
0
0
0
0
0
0
0
0
0
0
0
0
0
0
0
0
0
0
0
0
0
0
0
0
0
0
0
0
0
0
0
0
0
0
0
0
0
0
0
0
0
0
0
0
0
0
0
0
0
0
0
0
0
0
0
0
0
0
0
0
0
0
0
0
0
0
0
0
0
0
0
0
0
0
0
0
0
0
0
0
0
0
0
0
0
0
0
0
0
0
0
0
0
0
0
0
0
0
0
0
0
0
0
0
0
0
0
0
0
0
0
0
0
0
0
0
0
0
0
0
0
0
0
0
0
0
0
0
0
0
0
0
0
0
0
0
0
0
0
0
0
0
0
0
0
0
0
0
0
0
0
0
0
0
0
0
0
0
0
0
0
0
0
0
0
0
0
0
0
0
0
0
0
0
0
0
0
0
0
0
0
0
0
0
0
0
0
0
0
0
0
0
0
0
0
0
0
0
0
0
0
0
0
0
0
0
0
0
0
0
0
0
0
0
0
0
0
0
0
0
0
0
0
0
0
0
0
0
0
0
0
0
0
0
0
0
0
0
0
0
0
0
0
0
0
0
0
0
0
0
0
0
0
0
0
0
0
0
0
0
0
0
0
0
0
0
0
0
0
0
0
0
0
0
0
0
0
0
0
0
0
0
0
0
0
0
0
0
0
0
0
0
0
0
0
0
0
0
0
0
0
0
0
0
0
0
0
0
0
0
0
0
0
0
0
0
0
0
0
0
0
0
0
0
0
0
0
0
0
0
0
0
0
0
0
0
0
0
0
0
0
0
0
0
0
0
0
0
0
0
0
0
0
0
0
0
0
0
0
0
0
0
0
0
0
0
0
0
0
0
0
0
0
0
0
0
0
0
0
0
0
0
0
0
0
0
0
0
0
0
0
0
0
0
0
0
0
0
0
0
0
0
0
0
0
0
0
0
0
0
0
0
0
0
0
0
0
0
8.67149e-08
7.80274e-08
4.1764e-09
0.0547884
5.39585e-08
7.97299e-08
2.75031e-09
0.000225783
1.49885e-09
1.55705e-09
4.36557e-11
6.38713e-07
0
0
0
2.18279e-09
0
0
0
0
0
0
0
0
0
0
0
0
0
0
0
0
0
0
0
0
0
0
0
0
0
0
0
0
0
0
0
0
0
0
0
0
0
0
0
0
0
0
0
0
0
0
0
0
0
0
0
0
0
0
0
0
0
0
0
0
0
0
0
0
0.000311623
1.54572e-06
1.06083e-08
1.45519e-11
2.30699e-05
1.20152e-06
8.61473e-09
0
6.36064e-07
1.79571e-08
1.01863e-10
0
1.61526e-09
8.73115e-11
0
0
0
0
0
0
1.38243e-09
8.58563e-10
0
0
0
0
0
0
0
0
0
0
0
0
0
0
0
0
0
0
0
0
0
0
0
0
0
0
0
0
0
0
6.03017e-07
4.45885e-07
0
0
0
0
0
0
0
0
0
0
3.50701e-09
1.03643e-06
2.51748e-09
1.13595e-06
1.16415e-10
5.22996e-08
0
1.45519e-10
0
0
0
0
0
0
4.12692e-08
0
0
0
0
0
0
0
0
0
0
0
0
0
0
0
0
0
0
0
0
0
0
0
0
0
0
0
0
0
0
0
0
0
0
0
0
0
0
0
0
0
0
0
0
0
0
0
0
0
0
0
0
0
0
0
0
0
0
0
0
0
0
0
0
0
0
0
0
0
0
0
0
0
0
0
0
0
0
0
0
0
0
0
0
0
0
0
0
0
0
0
0
0
0
0
0
0
0
0
0
0
0
0
0
0
0
0
0
0
0
0
0
0
0
0
0
0
0
0
0
0
0
0
0
0
0
0
0
0
0
0
0
0
0
0
0
0
0
0
0
0
0
0
0
0
0
0
0
0
0
0
0
0
0
0
0
0
0
0
0
0
0
0
0
0
0
0
0
0
0
0
0
0
0
0
0
0
0
0
0
0
0
0
0
0
0
0
0
0
0
0
0
0
0
0
0
0
0
0
0
0
0
0
0
0
0
0
0
0
0
0
0
0
0
0
0
0
0
0
0
0
0
0
0
0
0
0
0
0
0
0
0
0
0
0
0
0
0
0
0
0
0
0
0
0
0
0
0
0
0
0
0
0
0
0
0
0
0
0
0
0
0
0
0
0
0
0
0
0
0
0
0
0
0
0
0
0
0
0
0
0
0
0
0
0
0
0
0
0
0
0
0
0
0
0
0
0
0
0
0
0
0
0
0
0
0
0
0
0
0
0
0
0
0
0
0
0
0
0
0
0
0
0
0
0
0
0
0
0
0
0
0
0
0
0
0
0
0
0
0
0
0
0
0
0
0
0
0
0
0
0
0
0
0
0
0
0
0
0
0
0
0
0
0
0
0
0
0
0
0
0
0
0
0
0
0
0
0
0
0
0
0
0
0
0
0
0
0
0
0
0
0
0
0
0
0
0
0
0
0
0
0
0
0
0
0
0
0
0
0
0
0
0
0
0
0
0
0
0
0
0
0
0
0
0
0
0
0
0
0
0
0
0
0
0
0
0
0
0
0
0
0
0
0
0
0
0
0
0
0
0
0
0
0
0
0
0
0
0
0
0
0
0
0
0
0
0
0
0
0
0
0
0
0
0
0
0
0
0
0
0
0
0
0
0
0
0
0
0
0
0
0
0
0
0
0
0
0
0
0
0
0
0
0
0
0
0
0
0
0
0
0
0
0
0
0
0
0
0
0
0
0
0
0
0
0
0
0
0
0
0
0
0
0
0
0
0
0
0
0
0
0
0
0
0
0
0
0
0
0
0
0
0
0
0
0
0
0
0
0
0
0
0
0
0
0
0
0
0
0
0
0
0
0
0
0
0
0
0
0
0
0
0
0
0
0
0
0
0
0
0
0
0
0
0
0
0
0
0
0
0
0
0
0
0
0
0
0
0
0
0
0
0
0
0
0
0
0
0
0
0
0
0
0
0
0
0
0
0
0
0
0
0
0
0
0
0
0
0
0
0
0
0
0
0
0
0
0
0
0
0
0
0
0
0
0
0
0
0
0
0
0
0
0
0
0
0
0
0
0
0
0
0
0
0
0
0
0
0
0
0
0
0
0
0
0
0
0
0
0
0
0
0
0
0
0
0
0
0
0
0
0
0
0
0
0
0
0
0
0
0
0
0
0
0
0
0
0
0
0
0
0
0
0
0
0
0
0
0
0
0
0
0
0
0
0
0
0
0
0
0
0
0
0
0
0
0
0
0
0
0
0
0
0
0
0
0
0
0
0
0
0
0
0
0
0
0
0
0
0
0
0
0
0
0
0
0
0
0
0
0
0
0
0
0
0
0
0
0
0
0
0
0
0
0
0
0
0
0
0
0
0
0
0
0
0
0
0
0
0
1.45519e-11
8.81846e-09
0
0
0
0
0
7.36327e-09
0
0
0
0
0
2.61934e-10
0
0
0
0
0
0
0
0
0
0
0
0
0
0
0
0
0
0
0
0
0
0
0
0
0
0
0
0
0
0
0
0
0
0
0
0
0
0
0
0
0
0
0
0
0
0
0
0
0
0
0
0
0
0
0
0
0
0
0
0
0
0
0
0
0
0
0
0
0
0
0
0
0
0
0
0
0
0
0
0
0
0
0
0
0
0
0
0
0
0
0
0
0
0
0
0
0
0
0
0
0
0
0
0
0
0
0
0
0
0
0
0
0
0
0
0
0
0
0
0
0
0
0
0
0
0
0
0
0
0
0
0
0
0
0
0
0
0
0
0
0
0
0
0
0
0
0
0
0
0
0
0
0
0
0
0
0
0
0
0
0
0
0
0
0
0
0
0
0
0
0
0
0
0
0
0
0
0
0
0
0
0
0
0
0
0
0
0
0
0
0
0
0
0
0
0
0
0
0
0
0
0
0
0
0
0
0
0
0
0
0
0
0
0
0
0
0
0
0
0
0
0
0
0
0
0
0
0
0
0
0
0
0
0
0
0
0
0
0
0
0
0
0
0
0
0
0
0
0
0
0
0
0
0
0
0
0
0
0
0
0
0
0
0
0
0
0
0
0
0
0
0
0
0
0
0
0
0
0
0
0
0
1.01863e-10
0
0
0
0
0
0
0
0
0
0
0
0
0
0
0
0
0
0
0
0
0
0
0
0
0
2.91038e-11
0
0
0
0
0
0
0
0
0
0
0
3.49348e-06
2.78861e-06
2.7896e-08
1.88011e-08
1.01863e-10
4.20703e-06
2.12969e-05
7.22794e-08
6.21949e-08
1.60071e-10
1.30967e-10
0
0
0
0
0
0
0
0
5.86763e-05
1.42773e-06
2.01163e-06
1.82627e-08
3.95031e-06
8.79954e-08
9.66247e-09
2.91038e-11
7.21237e-07
4.99989e-07
2.43745e-08
4.51109e-10
0
0
2.00816e-09
1.16415e-09
1.01863e-10
0
0
0
0
0
0
0
0
0
0
0
0
0
0
0
0
0
0
0
0
0
0
0
0
0
34864.7
0.47137
0.363662
10576.2
4.96607e-05
5.80286e-05
1.08449e-05
1.50317e-06
5.55065e-06
0.0121283
12.0279
0.000650165
3202.62
1.27877e+06
0.00163995
11.7125
1829.41
920.627
828054
0.00129995
0.00507107
0.0193302
3.19305
0.00110516
300960
0.020853
2.40317e+06
340809
3.72741
0.00301329
1.58873e+06
73591.9
0.384904
0.00114231
0.590647
0.0010379
0.000795839
1.6405e-05
4.0961e-05
1.68258e-06
4.80644
0.00168268
0.160964
0.00107969
2.44228e+06
3679.66
0.568958
0.0015371
0.00116197
0.00227858
0.00424874
6.81579e-05
4.45263e-05
0.00416139
0.0192184
0.0103157
31.3103
7582.72
0.199394
2.25673e+06
92.2398
196.052
0.000787399
0.554321
3.05145e+06
72.3887
388532
0.207862
0
0
0
0
0
0
0
0
0
0
0
0
0
0
0
0
0
0
0
0
0
0
0
0
0
0
0
0
0
0
0
0
0
0
0
0
0
0
0
0
0
0
0
0
0
0
0
0
0
0
0
0
0
0
0
0
0
0
0
0
0
0
0
0
0
0
0
0
0
0
0
0
0
0
0
0
0
0
0
0
0
0
0
0
0
0
0
0
0
0
0
0
0
0
0
0
0
0
0
0
0
0
0
0
0
0
0
0
0
0
0
0
0
0
0
0
0
0
0
0
0
0
0
0
0
0
0
0
0
0
0
0
0
0
0
0
0
0
0
0
0
0
0
0
0
0
0
0
0
0
0
0
0
0
0
0
0
0
0
0
0
0
0
0
0
0
0
0
0
0
0
0
0
0
0
0
0
0
0
0
0
0
0
0
0
0
0
0
0
0
0
0
0
0
0
0
0
0
0
0
0
0
0
0
0
0
0
0
0
0
0
0
0
0
0
0
0
0
0
0
0
0
0
0
0
0
0
0
0
0
0
0
0
0
0
0
0
0
0
0
0
0
0
0
0
0
0
0
0
0
0
0
0
0
0
0
0
0
0
0
0
0
0
0
0
0
0
0
0
0
0
0
0
0
0
0
0
0
0
0
0
0
0
0
0
0
0
0
0
0
0
0
0
0
0
0
0
0
0
0
0
0
0
0
0
0
0
0
0
0
0
0
0
0
0
0
0
0
0
0
0
0
0
0
0
0
0
0
0
0
0
0
0
0
0
0
0
0
0
0
0
0
0
0
0
0
0
0
0
0
0
0
0
0
0
0
0
0
0
0
0
0
0
0
0
0
0
0
0
0
0
0
0
0
0
0
0
0
0
0
0
0
0
0
0
0
0
0
0
0
0
0
0
0
0
0
0
0
0
0
0
0
0
0
0
0
0
0
0
0
0
0
0
0
0
0
0
0
0
0
0
0
0
0
0
0
0
0
0
0
0
0
0
0
0
0
0
0
0
0
0
0
0
0
0
0
0
0
0
0
0
0
0
0
0
0
0
0
0
0
0
0
0
0
0
0
0
0
0
0
0
0
0
0
0
0
0
1.16415e-10
0
0
0
0
0
0
8.07631e-09
2.49337e-06
1.8772e-09
4.64963e-07
0.00306904
0
7.17409e-09
2.69368e-06
2.21189e-09
6.02726e-07
0.00571946
0
2.32831e-10
6.55855e-08
5.82077e-11
1.74914e-08
1.57302e-06
0
0
2.32831e-10
0
4.36557e-11
1.55851e-08
0
0
0
0
0
4.36557e-11
0
0
0
0
0
0
0
0
0
0
0
0
0
0
0
0
0
0
0
0
0
0
0
0
0
0
0
0
0
0
0
0
0
0
0
0
0
0
0
0
0
0
6.54283e-07
9.92746e-07
5.50062e-09
7.5961e-09
0
0
0
0
0
0
0
0
0
0
0
0
2.4389e-08
0
1.74623e-10
4.30997e+06
3.28918e+06
4.49139e+06
209351
2.84479e+06
1.81058e+06
781627
4.28457e+06
2.07842e+06
4.20383e+06
156311
2.624e+06
654852
1.61897e+06
2.74056e+06
522520
276067
18713
1.72496e+06
1.00034e+06
78897.9
522321
2.13358e+06
1.24298e+06
7579.95
224839
47825.2
49387.3
1.55946e+06
1.61466e+06
2.36415e+06
16467
276560
70430.8
78465.4
1.50753e+06
1.65804e+06
806146
14494.5
289641
75368.5
84960.8
2.42927e+06
834938
1.65237e+06
15922
305685
74790.4
78163.2
137414
1.21841e+06
20.8094
911.484
27251.5
877.508
153090
8.88307e-07
6.34333e-05
6.04436e-05
0.0031592
0.00374432
0.00108422
41.183
4.71776e-05
0.00502106
0.0168572
0.00023684
0.589588
0.000183736
0.964579
7.60525e-05
1.04788
0.00020922
4.2076e-05
3.60682e-05
0.00464818
1.0652
449527
337302
2.49018e+06
6029.88
4198.05
286949
66.5997
2.39445e+06
6107.76
275570
4727.33
3165.26
238081
52.3549
689.721
217555
5900.82
220.31
43.599
1933.78
5.43132
1.16311e-06
9.43881e-05
0.0022305
6.43697e-05
0.00117162
0.00516255
10.5627
1.1245e-05
0.00250015
0.000141357
0.000100285
0.00136968
89.7482
0.0042714
91881.4
13025.7
402519
12.4324
84.8816
562.536
4129.03
7881.11
68508.4
1165.2
464.476
56.573
2907.64
8.45524
0.00213558
0.00399339
1.08834e-06
5.20084e-05
6.03354e-05
0.00117543
0.233545
8.43458e-07
1.24651e-05
0.00162114
4.31494e-05
0.00299868
1.41711
0.00562668
3088.16
239.655
24102.9
261803
911028
3293.02
23190.9
18995.5
21.3562
2223.24
789238
205075
2162.26
19002.8
7.66913e-05
0.00134935
0.0409121
3.40783e-05
0.000278837
7.56583e-07
7.84195e-06
0.00177639
9.23668e-06
0.467152
0.000369923
0.00415804
1.35036e-06
5.38733e-05
362325
1389.3
78456.6
72.6978
9.63962
511.842
3514.16
0.000707183
3.78913e-06
0.000581586
6.29385e-07
5.78762e-05
0.00233438
0.0488293
5.23549e-07
0.000724447
3.15836e-06
4.92977e-05
0.000555417
0.00366984
0.0523912
383.032
192805
28125.7
199.235
19.5779
1554.22
2.563
5336.4
67973.6
288976
465.604
31.3916
2571.72
5.74296
70530
679.185
6366.66
368.282
37.3113
3244.86
6.59548
36.1097
4506.5
876.331
414.801
309076
66104
1890.93
7.99568e-05
9.91032e-06
1.71497e-06
0.605888
0.000337187
0.00660878
7.25208e-05
4567.79
1884.47
658.19
431451
12.7126
95956.9
13901.4
3392.39
9.0682
442.351
1255.29
355614
10044.1
69393.9
0.00152944
0.000124981
3.30448
6.1153e-05
0.000355867
8.97517e-06
1.84253e-06
337830
6537.61
735.999
379.499
38.1504
3179.45
5.86408
2.34998e-05
0.0226772
0.000243746
1.46497e-06
2.1288e-07
4.32496e-05
1.22153e-06
5.66506e-07
0.00102788
2.2195e-05
0.000189925
4.73931e-05
0.0168081
1.84475e-06
0.000140868
0.00102001
4.31893e-05
0.00510375
3.98139e-06
3.93396e-07
1.22664e-06
0.582637
16.5251
3.01859
77.0527
1995.01
510.618
573.838
2.77981
35.8289
12.5395
6718.39
2128.32
105.998
460.665
0.00013748
1.58543e-05
0.000203644
1.05792e-06
2.25184e-06
1.92507e-06
7.29823e-05
0.0227399
2.93728e-05
0.00019484
9.9263e-07
2.47965e-06
2.03786e-06
4.29413e-05
0.000222928
0.000261891
0.00578789
2.27996e-06
4.44157e-05
9.48436e-07
1.93814e-06
1.87411
0.300383
2.02374
49.2142
1427.63
312.005
330.294
15.366
0.62855
2.76095
86.9412
1872.65
468.734
419.591
3.12069
3.38859
14.6464
83.1863
2727.28
398.572
416.703
30.6975
35.6444
1997.94
0.00510606
0.281169
16.3804
0.201637
2082.51
32.1118
24.8724
13.8566
0.00408895
0.167661
0.212497
0.198688
728.857
13.9481
6.52753
0.00291512
0.117658
0.085723
28.7609
1970.45
22.5131
0.223073
0.00392003
12.3586
0.177885
0.696875
0.577238
54.6072
66.6252
7858.96
54.1683
0.699269
34.6136
0.00502788
30.2333
13.9116
0.27516
2128.86
0.469903
0.00773445
0.435761
42.2882
6167.62
53.9835
41.8738
0.547061
0.00374054
0.148504
12.3425
32.3859
22.5277
1836.92
0.364852
1768.39
0.241986
13.0122
22.1673
0.365782
0.134313
0.00359216
0.00770116
0.386549
21.6618
34.8606
0.253488
12.2653
2594.81
0.0241071
0.0262769
0.746271
0.102882
4.57567
142.701
4.16337
0.108672
74.4498
0.954234
0.652267
0.0768407
0.00177941
0.00923199
1.10267
15.9664
0.152681
0.774382
0.110556
0.00197129
0.0101317
19.4188
1.7967
177.658
0.16466
1.26042
0.00263987
0.0160471
120.997
0.163226
14.1837
0.990694
0.118085
0.00196088
0.0122642
0
0
0
0
0
0
0
0
0
0
0
0
0
0
0
0
0
0
0
0
0
0
0
0
0
0
0
0
0
0
0
0
0
0
0
0
0
0
0
0
0
0
0
0
0
0
0
0
0
0
0
0
0
0
0
0
0
0
0
0
0
0
0
0
0
0
7.77072e-09
6.94126e-09
1.16415e-10
0
1.58616e-09
0
0
0
0
0
3.05445e-08
8.73115e-11
0
0
0
0
2.2992e-09
0
0
0
0
0
2.95549e-08
8.73115e-11
0
0
0
0
4.36557e-11
0
0
0
0
0
5.67525e-10
0
0
0
0
0
0
0
0
0
0
0
0
0
0
0
0
0
0
0
0
0
0
0
0
0
0
0
0
0
0
0
0
0
0
0
0
0
0
0
0
0
0
0
0
0
0
0
0
0
0
0
0
0
0
0
0
0
0
0
0
0
0
0
0
0
0
0
0
0
0
0
0
0
0
0
0
0
0
0
0
0
0
0
0
0
0
0
0
0
4.28161e-07
4.50006e-06
5.81858e-07
4.00607e-06
1.92667e-08
1.0978e-07
4.36557e-11
6.69388e-10
0
0
0
0
0
0
0
0
0
0
0
0
4.41636e-06
0.00104212
0.00304639
0.0876327
1.55177
0.307447
11.6328
0.03802
0.0642719
0.000527485
0.00914394
1.23173
0.153389
8.99751
0.0200223
0.163809
0.00145099
0.0258847
0.0831646
0.584003
4.09881
27.854
0.000831882
0.00261532
0.100627
3.11833
0.243526
14.2706
0.0442257
0.00351176
0.0011508
0.120338
3.3543
0.387458
16.5635
0.0583513
0.000848444
0.121632
0.0194598
3.16821
0.287158
17.5103
0.0429087
0.0208529
0.00395453
0.137483
0.472784
0.0616152
2.9625
23.4773
0.00297612
0.0191838
0.120639
3.15222
0.292112
20.3061
0.0443905
0.000563147
0.0134006
0.0731998
0.0325377
0.198673
2.11819
11.6126
0.0146906
0.981924
0.116731
1.4132
0.163285
13.909
146.686
0.00558562
1.2647
0.237609
1.80405
20.422
0.171666
190.963
1.05503e-06
0.000138328
2.25689e-06
0.000139608
2.98722e-07
3.00206e-07
2.18378e-06
0.3201
7.34174
41.1229
0.371666
0.0554014
0.00140547
0.00401816
0.335367
43.1883
7.82269
0.387049
0.0586609
0.00131238
0.0040455
30.6592
3.79031
0.0847116
0.179204
0.0270006
0.00153113
0.00531677
4.35051e-06
0.00013661
2.36763e-06
2.25061e-06
0.000153036
1.38697e-06
1.38697e-06
0.511199
0.732465
0.972871
0.00809321
0.00859532
0.0048761
0.00677526
1.54601
0.302164
13.7806
0.0890635
0.0148076
0.00373441
0.00586172
22.6933
0.0611795
3.06705
0.140498
0.0219579
0.00412032
0.00697922
0.0615093
0.374665
19.7127
0.121132
0.0235784
0.0066079
0.00416022
4.41636e-06
8.39452e-06
9.03392e-06
8.067e-06
0.000636644
8.58861e-06
0.000709806
1.2319
0.894896
1.2222
0.0168937
0.0168748
0.0126273
0.0148062
0.512678
0.728145
1.04336
0.0136212
0.0131461
0.0118173
0.0100306
0.537518
0.834082
1.06272
0.0147759
0.0148826
0.0134104
0.0112841
1.09764e-06
1.09764e-06
1.09764e-06
1.81867e-06
1.09764e-06
1.67814e-06
6.72666e-05
0.0010827
0.00119721
0.00614883
0.464803
0.00115538
0.00473121
0.00727822
0.0128369
0.0608205
0.197875
0.00277416
0.00168691
0.00198934
0.00172144
0.000853428
0.00347736
0.000816764
0.000848441
0.00453182
0.349815
0.00547466
0.00596909
0.00102425
0.452359
0.00436726
0.00579037
0.000989796
0.00096577
0.0169166
0.06911
0.249906
0.00361834
0.00213122
0.00261784
0.00217244
0.00510681
0.0675456
0.23672
0.00340314
0.00202071
0.00206641
0.00246218
0.0133269
0.0637298
0.213278
0.00313998
0.00188498
0.00191152
0.0023184
0.0072654
0.00611451
0.468804
0.00113387
0.00471593
0.00108284
0.00106005
0.000833507
0.00454449
0.360501
0.00355781
0.00080049
0.000790727
0.000771116
0.00502106
0.0687987
0.252312
0.00367851
0.00265357
0.00218825
0.00222775
0.0167096
0.237936
0.0671308
0.00334401
0.00237545
0.00204982
0.00209544
1.75847e-06
1.72542e-06
6.4006e-05
1.40168e-06
1.40168e-06
1.94312e-06
1.40168e-06
4.75119e-06
4.75119e-06
4.75119e-06
6.02759e-06
4.75119e-06
5.61221e-06
0.000141468
0.000888423
0.000647324
0.000647324
0.0401836
0.000667319
0.00145487
0.0012343
0.00183914
0.00129995
0.00130057
0.00131978
0.0031161
0.094258
0.00262953
0.00110516
0.00157286
0.00110516
0.0808927
0.00110516
0.00222142
0.00251104
0.0010379
0.0010379
0.00150642
0.00247735
0.0010379
0.082798
0.00219095
0.00107969
0.00107969
0.00146517
0.00203206
0.00113143
0.00259373
0.074736
6.61296e-05
1.88858e-06
2.64391e-06
1.57302e-06
1.89319e-06
1.57302e-06
1.57302e-06
5.91419e-07
1.87782e-05
1.05791e-06
5.91419e-07
5.91419e-07
8.00603e-07
5.91419e-07
0.00193519
0.00192007
0.161883
0.00497196
0.00307474
0.00192007
0.00192007
0.00267206
0.189845
0.00466308
0.00264163
0.00404587
0.00263302
0.0026339
0.00859029
0.325731
0.00757627
0.00417226
0.006531
0.00417226
0.00417226
0.00361526
0.00546494
0.17758
0.00229246
0.00366658
0.00229246
0.00229246
0.00230175
0.00559647
0.19261
0.00227536
0.00372874
0.00227536
0.00227536
0.00585499
0.0909809
0.0213271
0.00244776
0.00294727
0.0025588
0.0025402
0.085177
0.00598008
0.0195977
0.0028397
0.00235895
0.00248169
0.00244854
0.0219636
0.0213651
0.0943649
0.0029294
0.00253698
0.00244759
0.00252416
4.54771e-05
3.24611e-06
3.92221e-05
3.09211e-06
4.28213e-06
3.09211e-06
3.28683e-06
4.10044e-06
3.91567e-05
2.92974e-06
3.08403e-06
3.82784e-05
3.10605e-06
2.92974e-06
0.0149343
0.00742394
0.01571
0.00629627
0.00616125
0.00616125
0.00616125
1.85681e-06
2.0493e-06
3.03195e-05
1.90758e-06
1.85681e-06
1.85681e-06
1.85681e-06
0.00263341
0.00323102
0.0341787
0.00263364
0.00278079
0.00263341
0.00263341
0.00488869
0.0685555
0.00592705
0.00488869
0.00516522
0.00488869
0.00488869
0.00393584
0.00480888
0.0556902
0.00374432
0.00428776
0.00374432
0.00374432
0.00485964
0.00515205
0.00415804
0.0600035
0.00439606
0.00415804
0.00415804
0.00562445
0.0803625
0.00694802
0.00562445
0.00593202
0.00562445
0.00562445
)
;

boundaryField
{
    ground
    {
        type            calculated;
        value           nonuniform List<scalar> 
385
(
0
0
0
0
0
0
0
0
0
0
0
0
0
0
3.63798e-10
0
0
0
0
0
0
0
3.49246e-10
0
0
0
0
0
0
0
0
0
0
0
0
0
0
0
0
1.45519e-11
0
0
0
0
0
0
0
0
0
0
0
0
0
0
0
0
0
0
0
0
0
0
0
0
0
0
0
0
0
0
0
0
0
0
0
0
0
0
0
0
0
0
0
0
0
0
0
0
0
0
0
0
0
0
0
0
0
0
0
0
0
0
0
8.67149e-08
1.05792e-06
7.80274e-08
4.1764e-09
0
0
0
0
2.03786e-06
1.54572e-06
1.06083e-08
1.45519e-11
0
3.50701e-09
1.03643e-06
0
0
0
0
0
0
0
0
0
0
0
0
0
0
0
0
0
0
0
0
0
0
0
0
0
0
0
0
0
0
0
0
0
0
0
0
0
0
0
0
0
0
0
0
0
0
0
0
0
0
0
0
0
0
0
0
0
0
0
0
0
0
0
0
0
0
0
0
0
0
0
0
0
0
0
0
0
0
0
0
0
0
0
1.45519e-11
0
8.81846e-09
0
0
0
0
0
0
0
0
0
0
0
0
0
0
0
0
0
0
0
0
0
0
0
0
0
0
3.49348e-06
0.000647324
0.00261532
1.16311e-06
0.198688
3202.62
0.00163995
5336.4
0.47137
0.00129995
5.20084e-05
0.696875
7.99568e-05
337302
0.199394
0.0010827
0
0
0
0
0
0
0
0
0
0
0
0
0
0
0
0
0
0
0
0
0
0
0
0
0
0
0
0
0
0
0
0
0
0
0
0
0
0
0
0
0
0
0
0
1.8772e-09
8.07631e-09
4.64963e-07
2.49337e-06
7.56583e-07
4198.05
66.5997
7582.72
9.43881e-05
0.00516255
6.43697e-05
0.0072654
6.03354e-05
1.08834e-06
3.40783e-05
0.00306904
7.66913e-05
19.5779
2.563
383.032
920.627
5.74296
31.3916
0.00660878
7.25208e-05
1.71497e-06
1.58543e-05
0.00013748
1.92507e-06
0.00019484
2.93728e-05
9.9263e-07
12.0279
0.085723
0.00291512
0.00510606
0.201637
30.6975
66.6252
0.699269
0.0103157
0.00502788
0.469903
30.2333
0
0
0
0
0
0
7.77072e-09
1.58616e-09
3.05445e-08
0
8.73115e-11
0
0
0
0
0
0
0
0
4.28161e-07
4.50006e-06
0.243526
0.0442257
0.000831882
0.000527485
0.0200223
0.153389
0.00119721
0.00727822
0.00115538
0.00117543
0.00106005
0.00113387
0.000667319
0.0012343
0.000650165
0.00130057
0.00262953
0.00131978
0.00264163
0.0026339
0.00267206
4.28213e-06
3.09211e-06
3.09211e-06
0.00263341
0.00263341
0.00263364
0.00562445
0.00562445
0.00562445
)
;
    }
    outlet
    {
        type            calculated;
        value           uniform 0;
    }
    wall
    {
        type            calculated;
        value           nonuniform List<scalar> 0();
    }
    wall2
    {
        type            calculated;
        value           nonuniform List<scalar> 0();
    }
    wall3
    {
        type            calculated;
        value           nonuniform List<scalar> 0();
    }
    internalPatch
    {
        type            internal;
    }
    procBoundary0to1
    {
        type            processor;
        value           nonuniform List<scalar> 
320
(
0
0
0
0
0
0
0
0
0
0
0
0
4.36557e-11
8.73115e-11
0
0
0
0
0
0
0
0
0
0
0
0
0
0
0
0
0
0
0
0
0
0
0
0
0
0
0
0
0
0
0
0
0
0
0
0
0
0
0
0
2.91038e-11
0
0
5.02041e-09
6.01343e-07
1.60233e-05
0.013351
0.0732275
0.0708219
0.0126416
0.00133002
0.0245499
0.728004
12.9473
45.433
45.433
6625.18
526326
2.71991e+06
4.56142e+06
4.65208e+06
4.03261e+06
2.18264e+06
2.18264e+06
4.60679e+06
5.73444e+06
5.92858e+06
4.46945e+06
3.09174e+06
669657
669657
2.65998e+06
3.77458e+06
4.15938e+06
4.1221e+06
3.63893e+06
2.44325e+06
529488
13606.4
11284.2
1309.72
21.7184
0.294315
0.0059939
0.00272817
0.00269053
0.00269053
0.00269708
0.00290258
0.0861104
0.0216571
0.00207341
0.000173163
1.94581e-06
9.50924e-07
1.35187e-08
3.01079e-08
2.47383e-10
2.47383e-10
0
4.36557e-11
1.58325e-08
5.43936e-07
7.39121e-07
0.000535227
0.00055034
0.00157389
0.00158334
0.000586345
0.000962465
0.000962465
0.000962465
0.00163854
0.024317
0.515387
2.49167
2.49167
468.433
78631.5
1.66526e+06
4.05342e+06
3.7776e+06
2.25316e+06
366622
366622
2.69321e+06
4.47932e+06
2.12805e+06
168846
168846
1.72078e+06
3.53885e+06
4.08893e+06
4.06957e+06
3.42112e+06
1.56088e+06
135667
2013.58
20.1188
146.624
125.26
13.7846
0.246077
0.00473803
0.00268872
0.00268872
0.00412519
0.118568
5.69838
1.23436
0.0105754
0.295931
0.00241764
0.000493364
1.2037e-05
1.03386e-06
3.1837e-06
3.03306e-06
3.99014e-08
3.99014e-08
9.00473e-07
4.90574e-06
4.62432e-06
0.000542563
4.70781e-05
1.47051e-06
0.000101313
0.00108967
0.00146661
0.0141366
0.0709284
0.0709284
10.9232
2277
284327
2.68732e+06
1.70987e+06
308978
6282.81
6282.81
407922
5047.5
5047.5
274908
1.6725e+06
2.71346e+06
2.68964e+06
1.60897e+06
239443
4367.39
47.0641
0.422853
0.00760391
0.154567
1.09942
0.955245
0.111463
0.0044791
0.0044791
0.0798965
5.34702
230.272
40.9049
243.132
1.92654
0.0138206
0.000606087
0.00250189
3.98662e-05
5.07182e-06
0.000314746
5.02607e-06
9.01025e-07
9.01025e-07
4.62432e-06
4.70781e-05
1.47051e-06
1.47051e-06
0.000101313
0.00108967
0.00108967
0.00109663
0.00240303
0.00338324
0.00338324
0.188934
27.8106
5484.43
478184
113629
3789.38
54.2
54.2
54.2
3789.38
113629
478184
460984
103710
3288.41
50.1803
0.53115
0.0169203
0.00428487
0.0041849
0.0041849
0.00434872
0.0125994
0.0121056
0.0121056
0.647909
42.6719
1919.84
2831.46
506.926
3.00754
0.0212877
0.00587088
0.00245447
0.582723
0.0219647
0.00324425
0.000759308
0.00216179
0.00216179
0.000164711
0.000164711
0.00474763
0.00474763
0.00843348
0.00115562
0.00200845
0.00109663
0.00240303
0.00338324
0.188934
27.8106
5484.43
601.76
23.6308
0.363082
0.00916931
0.00481377
0.148932
5.2289
0.0316449
0.0041849
0.0041849
0.00434872
0.0125994
0.758367
53.8569
8.7995
465.41
96.6745
2.79686
0.0459144
0.171227
0.00357781
0.00216179
0.00409377
0.0041849
0.00656222
0.113078
0.213767
13.946
)
;
    }
    procBoundary0to2
    {
        type            processor;
        value           uniform 0;
    }
    procBoundary0to4
    {
        type            processor;
        value           nonuniform List<scalar> 
101
(
0
0
0
0
0
0
0
0
0
0
0
0
0
0
0
0
0
0
0
0
0
0
0
0
0
2.12458e-09
5.5549e-07
5.5549e-07
5.5549e-07
3.6518e-07
3.6518e-07
1.96305e-08
4.36557e-11
0
2.91038e-11
0
0
1.01863e-10
1.16415e-10
0
0
0
0
0
0
0
0
0
0
0
0
0
0
0
0
0
0
0
0
0
0
0
0
0
0
0
0
1.4843e-09
3.6518e-07
5.5549e-07
3.6518e-07
5.82077e-11
0
0
0
0
0
0
0
0
0
0
0
0
0
0
0
0
0
0
0
0
0
0
0
0
0
0
0
0
0
)
;
    }
    procBoundary0to5
    {
        type            processor;
        value           nonuniform List<scalar> 
249
(
5.10481e-08
6.34464e-09
6.71193e-07
1.79571e-08
1.76295e-06
2.09332e-06
0.000253955
0.000253955
0.00235498
0.00244958
0.00245705
0.00237247
0.000242374
0.000298776
0.000298776
0.00327841
0.0467621
5.74077
911.245
106943
1.8676e+06
2.70787e+06
435359
7674.27
66.8523
66.8523
4304.52
109995
432129
297384
48116.1
1561.78
25.8469
2182.99
85726.7
440931
2.10944e+06
3.33063e+06
3.78469e+06
4.06582e+06
3.78187e+06
2.74765e+06
751380
751380
3.23301e+06
4.61146e+06
6.38912e+06
5.78609e+06
5.33267e+06
5.04764e+06
4.03811e+06
1.52177e+06
52983.4
903523
2.37652e+06
2.97126e+06
2.75627e+06
928743
26044.3
178.103
178.103
210.692
101.713
13.0994
0.52359
2.85339
2.52115
0.567694
0.00102541
0.00102541
4.22826e-06
5.38712e-08
3.68244e-05
3.87888e-05
4.30499e-06
7.36312e-07
1.75669e-05
8.9781e-07
0.000558174
0.000558174
2.10795e-06
7.14575e-05
0.00272899
0.00428612
0.0037231
0.000229695
0.000229695
0.00247352
0.00243092
0.00281501
0.00284175
0.00245131
0.00291432
0.00282875
0.00282875
0.00677159
0.68717
0.0221793
3.21068
479.524
68397.2
1.60508e+06
4.05239e+06
4.53155e+06
2.74112e+06
451051
6211.08
6211.08
287944
1.60601e+06
2.55411e+06
2.15567e+06
1.11349e+06
123650
1.16669e+06
2.88612e+06
3.62711e+06
3.99341e+06
3.45019e+06
1.77103e+06
204053
204053
2.24033e+06
4.52152e+06
5.76293e+06
5.11725e+06
3.50044e+06
3.86902e+06
3.77073e+06
3.38853e+06
1.49382e+06
84248.7
494.898
4.19228
246.459
14647.8
261223
752699
12394.1
88.2391
88.2391
133.779
98.6148
150.97
167.702
45.2173
35.3944
12.6073
0.00102541
0.00102541
0.00212052
0.0028968
0.00306278
0.00225153
0.00108275
0.00108275
0.00108275
0.504651
0.0131155
0.00197748
0.00277202
0.00242638
0.000499847
0.000499847
0.00616462
0.00702601
0.00493469
0.0542331
0.0407109
0.215749
0.200394
0.0348593
0.00231031
0.00231031
0.000229695
0.00240255
0.00240255
0.00248933
0.00288226
0.00337908
0.00292355
0.00292355
0.0261707
4.16961
483.232
94.7753
17971.9
867950
1.70859e+06
1.58452e+06
770298
56097.9
537.359
5.73505
0.0419628
0.000499847
0.0255706
1.62984
69.1161
1597.04
9.97193
9.97193
35.7607
32.0263
180.972
139.996
97.2341
143.603
73.1852
0.0613939
0.201692
0.211484
0.0638184
0.00108275
11.8171
75.647
181.825
164.332
1.90848
0.0554441
0.0526773
0.0115276
0.00168834
0.00168834
0.0115276
0.451702
0.451702
1.91195
0.00417113
0.00417113
0.0465838
0.259885
0.280754
0.0465838
5.04738
0.0348593
2.14815
0.0167324
0.498624
0.00529922
0.022057
0.00248933
3.1943
444.637
82537.4
89191.2
12792.3
289.687
67.8397
)
;
    }
}


// ************************************************************************* //
