/*--------------------------------*- C++ -*----------------------------------*\
  =========                 |
  \\      /  F ield         | OpenFOAM: The Open Source CFD Toolbox
   \\    /   O peration     | Website:  https://openfoam.org
    \\  /    A nd           | Version:  9
     \\/     M anipulation  |
\*---------------------------------------------------------------------------*/
FoamFile
{
    format      ascii;
    class       volVectorField;
    location    "0.0001";
    object      rhoU;
}
// * * * * * * * * * * * * * * * * * * * * * * * * * * * * * * * * * * * * * //

dimensions      [1 -2 -1 0 0 0 0];

internalField   nonuniform List<vector> 
4115
(
(0 0 0)
(-1.18858e-34 0 0)
(1.56079e-34 0 0)
(2.76353e-34 0 0)
(1.21805e-35 0 0)
(1.9141e-38 0 0)
(2.47864e-41 0 0)
(3.35807e-45 0 0)
(-1.14563e-46 0 0)
(7.87609e-48 0 0)
(-1.05488e-47 0 0)
(0 0 0)
(0 0 0)
(-1.30716e-31 0 0)
(1.6631e-31 0 0)
(2.70201e-31 0 0)
(1.23948e-32 0 0)
(2.05997e-35 0 0)
(3.16396e-38 0 0)
(6.28117e-42 0 0)
(-8.81992e-44 0 0)
(5.49851e-45 0 0)
(-8.39345e-45 0 0)
(0 0 0)
(0 0 0)
(-1.27278e-28 0 0)
(1.58325e-28 0 0)
(2.47465e-28 0 0)
(1.17278e-29 0 0)
(2.00513e-32 0 0)
(3.68103e-35 0 0)
(1.03496e-38 0 0)
(-6.10306e-41 0 0)
(3.53764e-42 0 0)
(-6.21558e-42 0 0)
(0 0 0)
(0 0 0)
(-1.08733e-25 0 0)
(1.33396e-25 0 0)
(8.56672e-26 0 4.54747e-15)
(1.03212e-26 0 0)
(1.75509e-29 0 0)
(1.5522e-32 0 4.54747e-15)
(6.01286e-36 0 -4.54747e-15)
(-3.81847e-38 0 0)
(2.08712e-39 0 0)
(-4.25986e-39 0 0)
(0 0 0)
(0 0 0)
(-8.06699e-23 0 0)
(9.82603e-23 0 0)
(2.80729e-23 0 0)
(3.38048e-24 0 -4.54747e-15)
(5.52281e-27 0 -4.54747e-15)
(5.87625e-30 0 0)
(6.75386e-33 0 -4.54747e-15)
(-1.07837e-35 0 -4.54747e-15)
(1.13508e-36 0 0)
(-2.6823e-36 0 0)
(0 0 0)
(0 0 0)
(-5.14194e-20 0 0)
(6.22607e-20 0 0)
(2.15234e-20 0 0)
(1.02537e-21 0 4.54747e-15)
(1.56723e-24 0 4.54747e-15)
(1.98123e-27 0 4.54747e-15)
(2.92648e-30 0 0)
(-2.74773e-33 0 4.51374e-15)
(5.68998e-34 0 0)
(-1.53799e-33 0 0)
(0 0 0)
(0 0 0)
(-3.10091e-17 -4.57096e-15 0)
(3.61759e-17 -4.65449e-15 0)
(1.52027e-17 0 0)
(2.87876e-19 0 -4.54747e-15)
(4.08422e-22 0 -4.54747e-15)
(5.9104e-25 0 0)
(1.09453e-27 0 -4.54747e-15)
(-6.24413e-31 0 -4.54747e-15)
(2.60187e-31 0 0)
(-7.94691e-31 0 0)
(0 0 0)
(-1.58322e-14 -1.21899e-12 4.94772e-15)
(1.75059e-14 -1.15335e-12 -2.84113e-15)
(9.80358e-15 -3.99357e-14 -3.37293e-17)
(7.58159e-17 0 0)
(2.52312e-19 0 -4.54747e-15)
(3.88493e-22 0 0)
(3.45371e-25 0 0)
(-2.50749e-28 0 -4.54747e-15)
(1.04793e-28 0 0)
(-3.65618e-28 0 0)
(0 0 0)
(4.9215e-14 -9.80679e-14 -2.36105e-16)
(1.55379e-16 0 -4.54747e-15)
(2.29267e-19 0 0)
(2.22625e-22 0 0)
(-8.79845e-26 0 -4.54747e-15)
(3.66137e-26 0 0)
(-1.47482e-25 0 0)
(0 0 0)
(0 0 0)
(-5.37556e-35 0 0)
(1.26249e-34 0 0)
(4.84345e-35 0 0)
(2.84203e-37 0 0)
(5.05617e-40 0 0)
(5.08492e-43 0 0)
(4.60855e-47 0 0)
(-5.66452e-48 0 0)
(3.59428e-48 0 0)
(-3.37123e-48 0 0)
(0 0 0)
(0 0 0)
(-6.12748e-32 0 0)
(1.2846e-31 0 0)
(4.87045e-32 0 0)
(2.8723e-34 0 0)
(5.84639e-37 0 0)
(6.41148e-40 0 0)
(7.62423e-44 0 0)
(-4.57557e-45 0 0)
(2.78826e-45 0 0)
(-2.61348e-45 0 0)
(0 0 0)
(0 0 0)
(-6.20064e-29 0 0)
(1.15032e-28 0 0)
(4.57877e-29 0 0)
(2.69614e-31 0 0)
(6.22362e-34 0 0)
(7.3607e-37 0 0)
(1.154e-40 0 0)
(-3.31231e-42 0 0)
(1.98892e-42 0 0)
(-1.87115e-42 0 0)
(0 0 0)
(0 0 0)
(-5.54783e-26 0 0)
(8.91996e-26 0 0)
(4.01868e-26 0 0)
(2.35141e-28 0 0)
(6.05723e-31 0 0)
(7.64215e-34 0 0)
(1.56508e-37 0 0)
(-2.14964e-39 0 0)
(1.29879e-39 0 0)
(-1.23058e-39 0 0)
(0 0 0)
(0 0 0)
(-4.34634e-23 0 0)
(5.86926e-23 0 0)
(3.26452e-23 0 0)
(1.90201e-25 0 0)
(5.35397e-28 0 0)
(7.12546e-31 0 0)
(1.87665e-34 0 0)
(-1.24895e-36 0 0)
(7.72352e-37 0 0)
(-7.3863e-37 0 0)
(0 0 0)
(0 0 0)
(-2.93856e-20 0 0)
(3.20589e-20 0 0)
(2.40353e-20 0 0)
(1.42066e-22 0 0)
(4.28037e-25 0 0)
(5.93077e-28 0 0)
(1.96964e-31 0 0)
(-6.48612e-34 0 0)
(4.15485e-34 0 0)
(-4.01492e-34 0 0)
(0 0 0)
(0 0 3.10497e-19)
(-1.86986e-17 -4.04588e-16 0)
(1.60604e-17 -4.504e-15 0)
(1.5532e-17 0 0)
(9.75786e-20 0 0)
(3.10399e-22 0 0)
(4.3974e-25 0 0)
(1.79536e-28 0 0)
(-2.99693e-31 0 0)
(2.00438e-31 0 0)
(-1.9575e-31 0 0)
(0 0 0)
(-1.1031e-14 -3.77829e-13 9.76624e-15)
(7.52344e-15 -1.0425e-12 1.23737e-14)
(8.69535e-15 -3.11098e-14 2.1055e-16)
(6.19706e-17 0 0)
(2.07754e-19 0 0)
(2.93101e-22 0 0)
(1.41605e-25 0 0)
(-1.21945e-28 0 0)
(8.57395e-29 0 0)
(-8.45854e-29 0 0)
(0 0 0)
(3.79978e-14 -8.12494e-14 8.20388e-16)
(1.3264e-16 0 1.22056e-18)
(1.80442e-19 0 3.16906e-21)
(9.73272e-23 0 0)
(-4.3046e-26 0 0)
(3.205e-26 0 0)
(-3.18998e-26 0 0)
(0 0 0)
(0 0 0)
(0 0 0)
(4.42823e-37 0 0)
(1.34962e-37 0 0)
(7.68177e-40 0 0)
(7.26856e-43 0 0)
(1.27122e-46 0 0)
(1.05851e-48 0 0)
(8.51465e-50 0 0)
(0 0 0)
(-1.07607e-48 0 0)
(0 0 0)
(0 0 0)
(0 0 0)
(4.54489e-34 0 0)
(1.48222e-34 0 0)
(8.60158e-37 0 0)
(9.64612e-40 0 0)
(1.98948e-43 0 0)
(9.02743e-46 0 0)
(6.20542e-47 0 0)
(0 0 0)
(-9.17762e-46 0 0)
(0 0 0)
(0 0 0)
(0 0 0)
(4.28847e-31 0 0)
(1.5491e-31 0 0)
(9.02813e-34 0 0)
(1.16975e-36 0 0)
(2.84333e-40 0 0)
(7.11351e-43 0 0)
(4.18277e-44 0 0)
(0 0 0)
(-7.23161e-43 0 0)
(0 0 0)
(0 0 0)
(0 0 0)
(3.71393e-28 0 0)
(1.53705e-28 0 0)
(8.88049e-31 0 0)
(1.29316e-33 0 0)
(3.70309e-37 0 0)
(5.15031e-40 0 0)
(2.59309e-41 0 0)
(0 0 0)
(-5.23507e-40 0 0)
(0 0 0)
(0 0 0)
(0 0 0)
(2.95996e-25 0 0)
(1.44311e-25 0 0)
(8.21259e-28 0 0)
(1.30317e-30 0 0)
(4.38827e-34 0 0)
(3.40392e-37 0 0)
(1.4687e-38 0 0)
(0 0 0)
(-3.45874e-37 0 0)
(0 0 0)
(0 0 0)
(0 0 0)
(2.19505e-22 0 0)
(1.2788e-22 0 0)
(7.20521e-25 0 0)
(1.20405e-27 0 0)
(4.74183e-31 0 0)
(2.03832e-34 0 0)
(7.53878e-36 0 0)
(0 0 0)
(-2.06907e-34 0 0)
(0 0 0)
(0 0 1.22134e-19)
(0 0 0)
(1.55291e-19 0 0)
(1.06557e-19 0 0)
(6.09194e-22 0 0)
(1.04457e-24 0 0)
(4.75308e-28 0 0)
(1.09787e-31 0 0)
(3.47208e-33 0 0)
(0 0 0)
(-1.10993e-31 0 0)
(0 0 0)
(0 -1.10473e-14 1.51211e-15)
(1.09711e-16 -1.76517e-14 5.53605e-15)
(8.2275e-17 -2.02376e-16 9.25931e-17)
(5.0316e-19 0 0)
(9.214e-22 0 0)
(4.71611e-25 0 0)
(5.31802e-29 0 0)
(1.41679e-30 0 0)
(0 0 0)
(-5.27537e-29 0 0)
(0 0 0)
(4.00484e-16 -9.44421e-16 3.21169e-16)
(9.5278e-19 0 3.59884e-19)
(5.28924e-22 0 7.97715e-22)
(2.41169e-26 0 0)
(5.03987e-28 0 0)
(0 0 0)
(-2.18765e-26 0 0)
(0 0 0)
(0 0 0)
(0 0 0)
(4.34736e-40 0 0)
(9.54089e-41 0 0)
(1.11903e-43 0 0)
(7.70637e-47 0 0)
(0 0 0)
(0 0 0)
(1.04676e-48 0 0)
(0 0 0)
(-1.04402e-48 0 0)
(0 0 0)
(0 0 0)
(0 0 0)
(4.97725e-37 0 0)
(1.05413e-37 0 0)
(1.70892e-40 0 0)
(1.54946e-43 0 0)
(0 0 0)
(0 0 0)
(8.9296e-46 0 0)
(0 0 0)
(-8.90422e-46 0 0)
(0 0 0)
(0 0 0)
(0 0 0)
(5.25068e-34 0 0)
(1.12217e-34 0 0)
(2.39547e-37 0 0)
(2.78098e-40 0 0)
(0 0 0)
(0 0 0)
(7.03818e-43 0 0)
(0 0 0)
(-7.01639e-43 0 0)
(0 0 0)
(0 0 0)
(0 0 0)
(5.08914e-31 0 0)
(1.16712e-31 0 0)
(3.08662e-34 0 0)
(4.44824e-37 0 0)
(0 0 0)
(0 0 0)
(5.09691e-40 0 0)
(0 0 0)
(-5.07962e-40 0 0)
(0 0 0)
(0 0 0)
(0 0 0)
(4.53477e-28 0 0)
(1.19675e-28 0 0)
(3.66542e-31 0 0)
(6.33244e-34 0 0)
(0 0 0)
(0 0 0)
(3.36904e-37 0 0)
(0 0 0)
(-3.35644e-37 0 0)
(0 0 0)
(0 0 0)
(0 0 0)
(3.74396e-25 0 0)
(1.20808e-25 0 0)
(4.03041e-28 0 0)
(8.02349e-31 0 0)
(0 0 0)
(0 0 0)
(2.01662e-34 0 0)
(0 0 0)
(-2.00824e-34 0 0)
(0 0 0)
(0 0 1.79981e-22)
(0 0 0)
(2.91992e-22 0 0)
(1.18513e-22 0 0)
(4.13753e-25 0 0)
(9.07952e-28 0 0)
(0 0 0)
(0 0 0)
(1.08263e-31 0 0)
(0 0 0)
(-1.07758e-31 0 0)
(0 0 0)
(0 0 1.56203e-17)
(2.22236e-19 0 1.69649e-17)
(1.1045e-19 0 3.02654e-19)
(4.18467e-22 0 0)
(9.27045e-25 0 0)
(0 0 0)
(0 0 0)
(5.15084e-29 0 0)
(0 0 0)
(-5.12354e-29 0 0)
(0 0 0)
(5.07521e-19 0 9.80781e-19)
(8.8012e-22 0 4.14656e-22)
(0 0 1.13821e-24)
(0 0 0)
(2.13887e-26 0 0)
(0 0 0)
(-2.1258e-26 0 0)
(0 0 0)
(0 0 0)
(0 0 0)
(2.05019e-43 0 0)
(1.01207e-43 0 0)
(0 0 0)
(3.2365e-50 0 0)
(0 0 0)
(0 0 0)
(0 0 0)
(0 0 0)
(0 0 0)
(0 0 0)
(0 0 0)
(0 0 0)
(2.75253e-40 0 0)
(1.13135e-40 0 0)
(0 0 0)
(7.31222e-47 0 0)
(0 0 0)
(0 0 0)
(0 0 0)
(0 0 0)
(0 0 0)
(0 0 0)
(0 0 0)
(0 0 0)
(3.35706e-37 0 0)
(1.17838e-37 0 0)
(0 0 0)
(1.47789e-43 0 0)
(0 0 0)
(0 0 0)
(0 0 0)
(0 0 0)
(0 0 0)
(0 0 0)
(0 0 0)
(0 0 0)
(3.70083e-34 0 0)
(1.14715e-34 0 0)
(0 0 0)
(2.66904e-40 0 0)
(0 0 0)
(0 0 0)
(0 0 0)
(0 0 0)
(0 0 0)
(0 0 0)
(0 0 0)
(0 0 0)
(3.6734e-31 0 0)
(1.05099e-31 0 0)
(0 0 0)
(4.30171e-37 0 0)
(0 0 0)
(0 0 0)
(0 0 0)
(0 0 0)
(0 0 0)
(0 0 0)
(0 0 0)
(0 0 0)
(3.28013e-28 0 0)
(9.17529e-29 0 0)
(0 0 0)
(6.18258e-34 0 0)
(0 0 0)
(0 0 0)
(0 0 0)
(0 0 0)
(0 0 0)
(0 0 0)
(0 0 5.74809e-25)
(0 0 0)
(2.65065e-25 0 0)
(7.77495e-26 0 0)
(0 0 0)
(7.93069e-31 0 0)
(0 0 0)
(0 0 0)
(0 0 0)
(0 0 0)
(0 0 0)
(0 0 0)
(0 0 2.87534e-24)
(1.9757e-22 0 2.44661e-20)
(6.52539e-23 0 2.92689e-22)
(0 0 0)
(9.12005e-28 0 0)
(0 0 0)
(0 0 0)
(0 0 0)
(0 0 0)
(0 0 0)
(0 0 0)
(8.59442e-24 0 6.01079e-22)
(9.50559e-25 0 1.06267e-26)
(0 0 6.54544e-29)
(0 0 0)
(0 0 0)
(0 0 0)
(0 0 0)
(0 0 0)
(0 0 0)
(0 0 0)
(1.00215e-47 0 0)
(1.60499e-50 0 0)
(0 0 0)
(3.15029e-54 0 0)
(0 0 0)
(0 0 0)
(0 0 0)
(0 0 0)
(0 0 0)
(0 0 0)
(0 0 0)
(0 0 0)
(2.06207e-44 0 0)
(5.69652e-47 0 0)
(0 0 0)
(7.6004e-51 0 0)
(0 0 0)
(0 0 0)
(0 0 0)
(0 0 0)
(0 0 0)
(0 0 0)
(0 0 0)
(0 0 0)
(3.7595e-41 0 0)
(1.78784e-43 0 0)
(0 0 0)
(1.6279e-47 0 0)
(0 0 0)
(0 0 0)
(0 0 0)
(0 0 0)
(0 0 0)
(0 0 0)
(0 0 0)
(0 0 0)
(6.03854e-38 0 0)
(4.87696e-40 0 0)
(0 0 0)
(3.09954e-44 0 0)
(0 0 0)
(0 0 0)
(0 0 0)
(0 0 0)
(0 0 0)
(0 0 0)
(0 0 0)
(0 0 0)
(8.47544e-35 0 0)
(1.14353e-36 0 0)
(0 0 0)
(5.26043e-41 0 0)
(0 0 0)
(0 0 0)
(0 0 0)
(0 0 0)
(0 0 0)
(0 0 0)
(0 0 0)
(0 0 0)
(1.02761e-31 0 0)
(2.28525e-33 0 0)
(0 0 0)
(7.99917e-38 0 0)
(0 0 0)
(0 0 0)
(0 0 0)
(0 0 0)
(0 0 0)
(0 0 0)
(0 0 1.18982e-28)
(0 0 0)
(1.05934e-28 0 0)
(3.86157e-30 0 0)
(0 0 0)
(1.09945e-34 0 0)
(0 0 0)
(0 0 0)
(0 0 0)
(0 0 0)
(0 0 0)
(0 0 0)
(0 0 5.95154e-28)
(9.0906e-26 0 0)
(5.47515e-27 0 5.00052e-26)
(0 0 0)
(1.38355e-31 0 0)
(0 0 0)
(0 0 0)
(0 0 0)
(0 0 0)
(0 0 0)
(0 0 0)
(0 0 1.24563e-25)
(1.61892e-28 0 0)
(0 0 0)
(0 0 0)
(0 0 0)
(0 0 0)
(0 0 0)
(0 0 0)
(0 0 0)
(0 0 0)
(4.98508e-57 0 0)
(-9.40502e-66 0 0)
(0 0 0)
(1.98083e-57 0 0)
(0 0 0)
(0 0 0)
(0 0 0)
(0 0 0)
(0 0 0)
(0 0 0)
(0 0 0)
(0 0 0)
(5.25334e-54 0 0)
(1.76653e-61 0 0)
(0 0 0)
(5.32884e-54 0 0)
(0 0 0)
(0 0 0)
(0 0 0)
(0 0 0)
(0 0 0)
(0 0 0)
(0 0 0)
(0 0 0)
(5.18396e-51 0 0)
(8.12007e-58 0 0)
(0 0 0)
(1.2689e-50 0 0)
(0 0 0)
(0 0 0)
(0 0 0)
(0 0 0)
(0 0 0)
(0 0 0)
(0 0 0)
(0 0 0)
(4.77917e-48 0 0)
(2.66708e-54 0 0)
(0 0 0)
(2.67782e-47 0 0)
(0 0 0)
(0 0 0)
(0 0 0)
(0 0 0)
(0 0 0)
(0 0 0)
(0 0 0)
(0 0 0)
(4.11072e-45 0 0)
(7.62396e-51 0 0)
(0 0 0)
(5.02049e-44 0 0)
(0 0 0)
(0 0 0)
(0 0 0)
(0 0 0)
(0 0 0)
(0 0 0)
(0 0 0)
(0 0 0)
(3.29931e-42 0 0)
(2.02882e-47 0 0)
(0 0 0)
(8.40015e-41 0 0)
(0 0 0)
(0 0 0)
(0 0 0)
(0 0 0)
(0 0 0)
(0 0 0)
(0 0 0)
(0 0 0)
(2.47226e-39 0 0)
(4.98487e-44 0 0)
(0 0 0)
(1.26399e-37 0 0)
(0 0 0)
(0 0 0)
(0 0 0)
(0 0 0)
(0 0 0)
(0 0 0)
(0 0 0)
(1.72183e-36 0 0)
(1.16798e-40 0 0)
(0 0 0)
(1.73027e-34 0 0)
(0 0 0)
(0 0 0)
(0 0 0)
(0 0 0)
(0 0 0)
(0 0 0)
(0 0 0)
(2.18621e-31 0 0)
(0 0 0)
(0 0 0)
(0 0 0)
(0 0 0)
(0 0 0)
(0 0 0)
(0 0 0)
(0 0 0)
(0 0 0)
(1.40837e-67 0 0)
(0 0 0)
(1.6056e-60 0 0)
(0 0 0)
(0 0 0)
(0 0 0)
(0 0 0)
(0 0 0)
(0 0 0)
(0 0 0)
(0 0 0)
(0 0 0)
(7.98796e-64 0 0)
(0 0 0)
(4.92147e-57 0 0)
(0 0 0)
(0 0 0)
(0 0 0)
(0 0 0)
(0 0 0)
(0 0 0)
(0 0 0)
(0 0 0)
(0 0 0)
(3.58685e-60 0 0)
(0 0 0)
(1.33784e-53 0 0)
(0 0 0)
(0 0 0)
(0 0 0)
(0 0 0)
(0 0 0)
(0 0 0)
(0 0 0)
(0 0 0)
(0 0 0)
(1.36731e-56 0 0)
(0 0 0)
(3.22955e-50 0 0)
(0 0 0)
(0 0 0)
(0 0 0)
(0 0 0)
(0 0 0)
(0 0 0)
(0 0 0)
(0 0 0)
(0 0 0)
(4.53146e-53 0 0)
(0 0 0)
(6.93513e-47 0 0)
(0 0 0)
(0 0 0)
(0 0 0)
(0 0 0)
(0 0 0)
(0 0 0)
(0 0 0)
(0 0 0)
(0 0 0)
(1.31727e-49 0 0)
(0 0 0)
(1.3283e-43 0 0)
(0 0 0)
(0 0 0)
(0 0 0)
(0 0 0)
(0 0 0)
(0 0 0)
(0 0 0)
(0 0 0)
(0 0 0)
(3.37005e-46 0 0)
(0 0 0)
(2.27894e-40 0 0)
(0 0 0)
(0 0 0)
(0 0 0)
(0 0 0)
(0 0 0)
(0 0 0)
(0 0 0)
(0 0 0)
(7.59311e-43 0 -2.48439e-33)
(0 0 0)
(3.52573e-37 0 0)
(0 0 0)
(0 0 0)
(0 0 0)
(0 0 0)
(0 0 0)
(0 0 0)
(0 0 3.74456e-24)
(4.96525e-34 0 6.13294e-26)
(0 0 4.51166e-28)
(0 0 0)
(0 0 0)
(0 0 0)
(0 0 0)
(0 0 0)
(0 0 0)
(0 0 0)
(0 0 0)
(-3.35872e-70 0 0)
(0 0 0)
(1.34511e-63 0 0)
(0 0 0)
(0 0 0)
(0 0 0)
(0 0 0)
(0 0 0)
(0 0 0)
(0 0 0)
(0 0 0)
(0 0 0)
(-1.07463e-66 0 0)
(0 0 0)
(4.65234e-60 0 0)
(0 0 0)
(0 0 0)
(0 0 0)
(0 0 0)
(0 0 0)
(0 0 0)
(0 0 0)
(0 0 0)
(0 0 0)
(-3.05984e-63 0 0)
(0 0 0)
(1.42065e-56 0 0)
(0 0 0)
(0 0 0)
(0 0 0)
(0 0 0)
(0 0 0)
(0 0 0)
(0 0 0)
(0 0 0)
(0 0 0)
(-5.22006e-60 0 0)
(0 0 0)
(3.83085e-53 0 0)
(0 0 0)
(0 0 0)
(0 0 0)
(0 0 0)
(0 0 0)
(0 0 0)
(0 0 0)
(0 0 0)
(0 0 0)
(-1.29435e-57 0 0)
(0 0 0)
(9.12933e-50 0 0)
(0 0 0)
(0 0 0)
(0 0 0)
(0 0 0)
(0 0 0)
(0 0 0)
(0 0 0)
(0 0 0)
(0 0 0)
(9.38323e-54 0 0)
(0 0 0)
(1.92723e-46 0 0)
(0 0 0)
(0 0 0)
(0 0 0)
(0 0 0)
(0 0 0)
(0 0 0)
(0 0 0)
(0 0 0)
(0 0 0)
(3.72708e-50 0 0)
(0 0 0)
(3.6215e-43 0 0)
(0 0 0)
(0 0 0)
(0 0 0)
(0 0 0)
(0 0 0)
(0 0 0)
(0 0 0)
(0 0 0)
(1.03595e-46 0 0)
(0 0 0)
(6.10679e-40 0 0)
(0 0 0)
(0 0 0)
(0 0 0)
(0 0 0)
(0 0 0)
(0 0 0)
(0 0 0)
(9.3438e-37 0 0)
(0 0 0)
(0 0 0)
(0 0 0)
(0 0 0)
(0 0 0)
(0 0 0)
(0 0 0)
(0 0 0)
(0 0 0)
(-1.3302e-74 0 0)
(0 0 0)
(3.76685e-67 0 0)
(0 0 0)
(0 0 0)
(0 0 0)
(0 0 0)
(0 0 0)
(0 0 0)
(0 0 0)
(0 0 0)
(0 0 0)
(-6.89292e-71 0 0)
(0 0 0)
(1.47547e-63 0 0)
(0 0 0)
(0 0 0)
(0 0 0)
(0 0 0)
(0 0 0)
(0 0 0)
(0 0 0)
(0 0 0)
(0 0 0)
(-3.12532e-67 0 0)
(0 0 0)
(5.0931e-60 0 0)
(0 0 0)
(0 0 0)
(0 0 0)
(0 0 0)
(0 0 0)
(0 0 0)
(0 0 0)
(0 0 0)
(0 0 0)
(-1.449e-63 0 0)
(0 0 0)
(1.54769e-56 0 0)
(0 0 0)
(0 0 0)
(0 0 0)
(0 0 0)
(0 0 0)
(0 0 0)
(0 0 0)
(0 0 0)
(0 0 0)
(-3.62814e-60 0 0)
(0 0 0)
(4.13464e-53 0 0)
(0 0 0)
(0 0 0)
(0 0 0)
(0 0 0)
(0 0 0)
(0 0 0)
(0 0 0)
(0 0 0)
(0 0 0)
(-9.03383e-58 0 0)
(0 0 0)
(9.70899e-50 0 0)
(0 0 0)
(0 0 0)
(0 0 0)
(0 0 0)
(0 0 0)
(0 0 0)
(0 0 0)
(0 0 0)
(0 0 0)
(8.62705e-54 0 0)
(0 0 0)
(2.00979e-46 0 0)
(0 0 0)
(0 0 0)
(0 0 0)
(0 0 0)
(0 0 0)
(0 0 0)
(0 0 0)
(0 0 0)
(3.5674e-50 0 0)
(0 0 0)
(3.69588e-43 0 0)
(0 0 0)
(0 0 0)
(0 0 0)
(0 0 0)
(0 0 0)
(0 0 0)
(0 0 0)
(6.11825e-40 0 0)
(0 0 0)
(0 0 0)
(0 0 0)
(0 0 0)
(0 0 0)
(0 0 0)
(-3.97173e-12 -2.55237e-10 -6.46825e-13)
(3.9668e-12 -2.29547e-10 -1.68245e-12)
(3.44587e-12 -1.24251e-11 -9.20127e-14)
(-4.2604e-06 -0.000165263 -3.98774e-06)
(-3.70059e-12 -1.588e-10 2.96804e-12)
(3.63667e-12 -2.34358e-10 3.79952e-12)
(2.25224e-12 -8.22762e-12 1.47973e-13)
(-1.4628e-08 -6.67717e-07 1.63371e-07)
(-8.09092e-14 -4.41417e-12 1.04686e-12)
(8.23402e-14 -4.59724e-12 1.37431e-12)
(5.68666e-14 -2.2783e-13 5.97509e-14)
(-5.38712e-11 -1.8176e-09 7.42007e-10)
(0 -2.09562e-14 1.20547e-14)
(1.71415e-16 -1.7067e-14 1.18911e-14)
(9.45617e-17 -5.39669e-16 2.57651e-16)
(-1.28113e-13 -5.82575e-12 4.69601e-12)
(0 0 1.52726e-21)
(1.40953e-19 0 1.88361e-17)
(5.47416e-20 0 3.65577e-19)
(0 -1.47928e-14 1.88135e-14)
(0 0 3.25643e-25)
(6.33318e-23 0 0)
(6.48017e-24 0 5.54458e-23)
(0 0 2.04075e-17)
(0 0 0)
(1.09601e-33 0 0)
(2.54033e-37 0 0)
(0 0 6.20629e-21)
(0 0 0)
(0 0 0)
(1.20786e-39 0 -1.0523e-30)
(0 0 0)
(0 0 0)
(0 0 0)
(2.40435e-43 0 0)
(0 0 0)
(0 0 0)
(0 0 0)
(1.00752e-46 0 0)
(0 0 0)
(1.27409e-16 0 0)
(1.14495e-19 0 0)
(-1.32236e-23 0 0)
(1.08673e-23 0 0)
(1.08489e-16 0 2.21669e-18)
(6.01307e-20 0 0)
(-1.30257e-23 0 0)
(1.02737e-23 0 0)
(7.08032e-19 0 6.99601e-19)
(2.10149e-23 0 0)
(1.53333e-25 0 0)
(0 0 0)
(0 0 1.07325e-21)
(0 0 0)
(7.59722e-24 0 0)
(0 0 0)
(0 0 3.39218e-26)
(0 0 0)
(0 0 0)
(0 0 0)
(0 0 0)
(0 0 0)
(0 0 0)
(0 0 0)
(0 0 0)
(0 0 0)
(0 0 0)
(0 0 0)
(0 0 1.68939e-25)
(0 0 0)
(0 0 0)
(0 0 0)
(0 0 0)
(0 0 0)
(0 0 0)
(0 0 0)
(0 0 0)
(0 0 0)
(0 0 0)
(0 0 0)
(2.13182e-07 -9.09994e-07 -1.64703e-08)
(1.61703e-09 -4.44996e-09 -6.5676e-11)
(1.98938e-11 -2.8679e-11 -2.56089e-13)
(1.00389e-13 -8.76731e-14 -4.06834e-16)
(1.15023e-08 -6.76533e-08 1.06838e-08)
(1.27821e-09 -3.43352e-09 8.37632e-11)
(1.4936e-11 -2.35936e-11 4.35293e-13)
(8.56383e-14 -7.72313e-14 1.07253e-15)
(5.51391e-11 -1.81229e-09 7.44093e-10)
(1.91761e-11 -5.2541e-11 1.93299e-11)
(2.87818e-13 -3.84762e-13 1.59509e-13)
(1.21735e-15 -8.76962e-16 3.66242e-16)
(1.37186e-13 -4.07389e-12 3.83479e-12)
(7.12012e-14 -2.2343e-13 1.92864e-13)
(7.30092e-16 -8.09504e-16 8.18178e-16)
(8.43164e-19 0 5.60424e-19)
(1.01123e-16 -9.23258e-15 1.32704e-14)
(4.52575e-17 -6.74586e-17 4.68309e-16)
(6.80867e-20 0 4.61096e-19)
(9.22662e-22 0 1.27892e-23)
(-6.78895e-14 -1.80275e-12 4.26105e-12)
(7.54898e-14 -1.07356e-12 2.68658e-12)
(3.52417e-20 0 0)
(6.48347e-21 0 8.2268e-20)
(0 0 0)
(1.78646e-25 0 0)
(-1.36259e-17 -2.7658e-15 1.19335e-14)
(1.64328e-17 -1.61901e-15 7.09568e-15)
(6.23995e-31 0 0)
(4.90423e-34 0 0)
(0 0 0)
(2.58939e-28 0 0)
(0 0 3.33219e-18)
(3.25696e-28 0 1.60571e-18)
(0 0 0)
(1.69051e-36 0 -3.91112e-28)
(0 0 1.10519e-21)
(6.4425e-31 0 1.79669e-23)
(0 0 0)
(0 0 -1.73461e-27)
(0 0 0)
(4.82451e-40 0 0)
(0 0 0)
(1.3134e-33 0 0)
(0 0 0)
(0 0 0)
(0 0 0)
(2.35623e-43 0 0)
(0 0 0)
(9.27024e-37 0 0)
(0 0 0)
(0 0 0)
(-5.07552e-11 -1.06523e-09 1.60052e-09)
(4.94509e-11 -6.95982e-10 1.18866e-09)
(-1.07821e-14 -4.04638e-14 0)
(-2.49597e-15 -2.07632e-14 2.13416e-16)
(0 -6.74314e-16 1.11793e-16)
(0 0 3.39952e-19)
(0 0 6.10385e-22)
(0 0 1.3015e-25)
(0 0 0)
(0 0 0)
(0 0 0)
(0 0 0)
(-2.98934e-12 -1.03114e-11 -7.00119e-14)
(-1.11366e-09 -2.96555e-09 -5.76237e-11)
(-1.69784e-12 -7.58441e-12 1.48049e-13)
(-1.19594e-09 -3.24263e-09 8.26101e-11)
(-8.36686e-14 -4.66926e-13 9.60365e-14)
(-4.6651e-11 -1.53262e-10 5.54399e-11)
(0 -1.14576e-15 5.73058e-16)
(-1.37256e-13 -4.72998e-13 4.28463e-13)
(0 0 7.53171e-19)
(0 0 1.64207e-22)
(0 0 0)
(0 0 0)
(0 0 0)
(0 0 0)
(-4.17199e-11 -6.86706e-11 1.18405e-10)
(0 0 0)
(1.07024e-48 0 0)
(0 0 0)
(0 0 0)
(-4.10699e-53 0 0)
(-9.05932e-61 0 0)
(1.35675e-50 0 0)
(0 0 0)
(-1.6482e-47 0 0)
(0 0 0)
(0 0 0)
(9.13183e-46 0 0)
(0 0 0)
(0 0 0)
(-1.11106e-49 0 0)
(-2.73195e-57 0 0)
(2.89802e-47 0 0)
(0 0 0)
(-1.40551e-44 0 0)
(0 0 0)
(0 0 0)
(7.19806e-43 0 0)
(0 0 0)
(0 0 0)
(-2.67339e-46 0 0)
(-7.32334e-54 0 0)
(5.4777e-44 0 0)
(0 0 0)
(-1.10711e-41 0 0)
(0 0 0)
(0 0 0)
(5.21215e-40 0 0)
(0 0 0)
(0 0 0)
(-2.28601e-43 0 4.54747e-15)
(-8.73074e-51 0 -4.54747e-15)
(3.65067e-41 0 4.54747e-15)
(0 0 4.54747e-15)
(-3.21075e-39 0 4.54747e-15)
(0 0 0)
(0 0 0)
(3.44412e-37 0 0)
(0 0 0)
(0 0 -4.54747e-15)
(-1.73006e-40 0 0)
(-1.75722e-47 0 -4.54747e-15)
(2.12866e-38 0 0)
(0 0 0)
(-8.49651e-37 0 0)
(0 0 0)
(0 0 0)
(2.06035e-34 0 0)
(0 0 0)
(0 0 4.54747e-15)
(-1.15319e-37 0 4.54747e-15)
(-1.57459e-44 0 0)
(1.0759e-35 0 4.54747e-15)
(0 0 0)
(-5.07214e-34 0 0)
(0 0 0)
(0 0 0)
(1.10506e-31 0 0)
(0 0 0)
(0 0 -4.54747e-15)
(-6.72336e-35 0 0)
(-1.25645e-41 0 -4.54747e-15)
(4.6538e-33 0 0)
(0 0 0)
(-2.70806e-31 0 0)
(0 0 0)
(0 0 0)
(5.25016e-29 0 0)
(0 0 0)
(0 0 -4.54747e-15)
(-8.47655e-32 0 0)
(-7.17818e-39 0 0)
(4.22137e-30 0 0)
(0 0 0)
(-1.27369e-28 0 0)
(0 0 0)
(0 0 0)
(1.07024e-48 0 0)
(0 0 0)
(0 0 0)
(-1.05712e-54 0 0)
(-7.50717e-59 0 0)
(3.4173e-52 0 0)
(0 0 0)
(0 0 0)
(0 0 0)
(0 0 0)
(9.13187e-46 0 0)
(0 0 0)
(0 0 0)
(-2.8597e-51 0 0)
(-1.89362e-55 0 0)
(7.29934e-49 0 0)
(0 0 0)
(0 0 0)
(0 0 0)
(0 0 0)
(7.1981e-43 0 0)
(0 0 0)
(0 0 0)
(-6.87999e-48 0 0)
(-4.2193e-52 0 0)
(1.37955e-45 0 0)
(0 0 0)
(0 0 0)
(0 0 0)
(0 0 0)
(5.21218e-40 0 0)
(0 0 0)
(0 0 0)
(-1.46931e-44 0 0)
(-8.29626e-49 0 0)
(2.29584e-42 0 0)
(0 0 0)
(0 0 0)
(0 0 0)
(0 0 0)
(3.44415e-37 0 0)
(0 0 0)
(0 0 0)
(-2.7764e-41 0 0)
(-1.43623e-45 0 0)
(3.34153e-39 0 0)
(0 0 0)
(0 0 0)
(0 0 0)
(0 0 0)
(2.06037e-34 0 0)
(0 0 0)
(0 0 0)
(-4.61937e-38 0 0)
(-2.17991e-42 0 0)
(4.21416e-36 0 0)
(0 0 0)
(0 0 0)
(0 0 0)
(0 0 0)
(1.10508e-31 0 0)
(0 0 0)
(0 0 0)
(-6.72146e-35 0 0)
(-2.88192e-39 0 0)
(4.54704e-33 0 0)
(0 0 0)
(0 0 0)
(0 0 0)
(0 0 0)
(5.25025e-29 0 0)
(0 0 0)
(0 0 0)
(-8.47388e-32 0 0)
(-3.28658e-36 0 0)
(4.12452e-30 0 0)
(0 0 0)
(0 0 0)
(0 0 0)
(0 0 0)
(1.07002e-48 0 0)
(0 0 0)
(0 0 0)
(-1.04746e-54 0 0)
(-9.89732e-57 0 0)
(3.38422e-52 0 0)
(0 0 0)
(0 0 0)
(0 0 0)
(0 0 0)
(9.12994e-46 0 0)
(0 0 0)
(0 0 0)
(-2.83243e-51 0 0)
(-2.40462e-53 0 0)
(7.22643e-49 0 0)
(0 0 0)
(0 0 0)
(0 0 0)
(0 0 0)
(7.19659e-43 0 0)
(0 0 0)
(0 0 0)
(-6.81193e-48 0 0)
(-5.20051e-50 0 0)
(1.36542e-45 0 0)
(0 0 0)
(0 0 0)
(0 0 0)
(0 0 0)
(5.2111e-40 0 0)
(0 0 0)
(0 0 0)
(-1.45431e-44 0 0)
(-1.00027e-46 0 0)
(2.27186e-42 0 0)
(0 0 0)
(0 0 0)
(0 0 0)
(0 0 0)
(3.44344e-37 0 0)
(0 0 0)
(0 0 0)
(-2.74729e-41 0 0)
(-1.70794e-43 0 0)
(3.30619e-39 0 0)
(0 0 0)
(0 0 0)
(0 0 0)
(0 0 0)
(2.05995e-34 0 0)
(0 0 0)
(0 0 0)
(-4.5699e-38 0 0)
(-2.58056e-40 0 0)
(4.1694e-36 0 0)
(0 0 0)
(0 0 0)
(0 0 0)
(0 0 0)
(1.10486e-31 0 0)
(0 0 0)
(0 0 0)
(-6.64836e-35 0 0)
(-3.43358e-37 0 0)
(4.49905e-33 0 0)
(0 0 0)
(0 0 0)
(0 0 0)
(0 0 0)
(5.24924e-29 0 0)
(0 0 0)
(0 0 0)
(-8.38082e-32 0 0)
(-3.99609e-34 0 0)
(4.08192e-30 0 0)
(0 0 0)
(0 0 0)
(0 0 0)
(0 0 0)
(1.03907e-48 0 0)
(0 0 0)
(0 0 0)
(-1.76398e-69 0 0)
(-2.20808e-59 0 0)
(2.8093e-55 0 0)
(0 0 0)
(0 0 0)
(0 0 0)
(0 0 0)
(8.86626e-46 0 0)
(0 0 0)
(0 0 0)
(-2.35478e-66 0 0)
(-5.51695e-56 0 0)
(2.21015e-52 0 0)
(0 0 0)
(0 0 0)
(0 0 0)
(0 0 0)
(6.98933e-43 0 0)
(0 0 0)
(0 0 0)
(-7.47581e-63 0 0)
(-1.21538e-52 0 0)
(1.5981e-49 0 0)
(0 0 0)
(0 0 0)
(0 0 0)
(0 0 0)
(5.06169e-40 0 0)
(0 0 0)
(0 0 0)
(-2.20263e-59 0 0)
(-2.35675e-49 0 0)
(1.06176e-46 0 0)
(0 0 0)
(0 0 0)
(0 0 0)
(0 0 0)
(3.34536e-37 0 0)
(0 0 0)
(0 0 0)
(-5.82812e-56 0 0)
(-4.01231e-46 0 0)
(6.56226e-44 0 0)
(0 0 0)
(0 0 0)
(0 0 0)
(0 0 0)
(2.00183e-34 0 0)
(0 0 0)
(0 0 0)
(-1.35451e-52 0 0)
(-5.9723e-43 0 0)
(3.94872e-41 0 0)
(0 0 0)
(0 0 0)
(0 0 0)
(0 0 0)
(1.07408e-31 0 0)
(0 0 0)
(0 0 0)
(-2.87629e-49 0 0)
(-7.73184e-40 0 0)
(2.54576e-38 0 0)
(0 0 0)
(0 0 0)
(0 0 0)
(0 0 0)
(5.10558e-29 0 0)
(0 0 0)
(0 0 0)
(-5.36434e-46 0 0)
(-8.60954e-37 0 0)
(1.90591e-35 0 0)
(0 0 0)
(0 0 0)
(0 0 0)
(0 0 0)
(2.34909e-56 0 0)
(0 0 0)
(0 0 0)
(-5.73467e-68 0 0)
(-3.12674e-57 0 0)
(1.00454e-53 0 0)
(0 0 0)
(0 0 0)
(0 0 0)
(0 0 0)
(6.06058e-53 0 0)
(0 0 0)
(0 0 0)
(-2.44234e-64 0 0)
(-7.56537e-54 0 0)
(7.9902e-51 0 0)
(0 0 0)
(0 0 0)
(0 0 0)
(0 0 0)
(1.43002e-49 0 0)
(0 0 0)
(0 0 0)
(-9.1589e-61 0 0)
(-1.62727e-50 0 0)
(5.89916e-48 0 0)
(0 0 0)
(0 0 0)
(0 0 0)
(0 0 0)
(3.03749e-46 0 0)
(0 0 0)
(0 0 0)
(-3.03376e-57 0 0)
(-3.10828e-47 0 0)
(4.10332e-45 0 0)
(0 0 0)
(0 0 0)
(0 0 0)
(0 0 0)
(5.74639e-43 0 0)
(0 0 0)
(0 0 0)
(-8.89384e-54 0 0)
(-5.27312e-44 0 0)
(2.82445e-42 0 0)
(0 0 0)
(0 0 0)
(0 0 0)
(0 0 0)
(9.60488e-40 0 0)
(0 0 0)
(0 0 0)
(-2.31009e-50 0 0)
(-7.94731e-41 0 0)
(2.12791e-39 0 0)
(0 0 0)
(0 0 0)
(0 0 0)
(0 0 0)
(1.40721e-36 0 0)
(0 0 0)
(0 0 0)
(-5.31757e-47 0 0)
(-1.061e-37 0 0)
(1.91478e-36 0 0)
(0 0 0)
(0 0 0)
(0 0 0)
(0 0 0)
(1.79014e-33 0 0)
(0 0 0)
(0 0 0)
(-1.08426e-43 0 0)
(-1.24425e-34 0 0)
(1.95754e-33 0 0)
(0 0 0)
(0 0 0)
(0 0 0)
(0 0 0)
(-6.66873e-57 0 0)
(0 0 0)
(0 0 0)
(0 0 0)
(0 0 0)
(1.98962e-71 0 0)
(0 0 0)
(0 0 0)
(0 0 0)
(0 0 0)
(-7.99183e-54 0 0)
(0 0 0)
(0 0 0)
(0 0 0)
(0 0 0)
(6.7202e-69 0 0)
(0 0 0)
(0 0 0)
(0 0 0)
(0 0 0)
(-8.48897e-51 0 0)
(0 0 0)
(0 0 0)
(0 0 0)
(0 0 0)
(1.83587e-66 0 0)
(0 0 0)
(0 0 0)
(0 0 0)
(0 0 0)
(-8.02339e-48 0 0)
(0 0 0)
(0 0 0)
(0 0 0)
(0 0 0)
(4.85147e-64 0 0)
(0 0 0)
(0 0 0)
(0 0 0)
(0 0 0)
(-6.78529e-45 0 0)
(0 0 0)
(0 0 0)
(0 0 0)
(0 0 0)
(1.30811e-60 0 0)
(0 0 0)
(0 0 0)
(0 0 0)
(0 0 0)
(-5.15044e-42 0 0)
(0 0 0)
(0 0 0)
(0 0 0)
(0 0 0)
(4.64883e-58 0 0)
(0 0 0)
(0 0 0)
(0 0 0)
(0 0 0)
(-3.5136e-39 0 0)
(0 0 0)
(0 0 0)
(0 0 0)
(0 0 0)
(8.74846e-56 0 0)
(0 0 0)
(0 0 0)
(0 0 0)
(0 0 0)
(-2.15081e-36 0 0)
(0 0 0)
(0 0 0)
(0 0 0)
(0 0 0)
(2.48261e-52 0 0)
(0 0 0)
(0 0 0)
(0 0 0)
(0 0 0)
(-1.40727e-60 0 0)
(0 0 0)
(0 0 0)
(0 0 0)
(0 0 0)
(-3.62885e-69 0 0)
(0 0 0)
(0 0 0)
(0 0 0)
(0 0 0)
(-1.57968e-57 0 0)
(0 0 0)
(0 0 0)
(0 0 0)
(0 0 0)
(-2.87534e-66 0 0)
(0 0 0)
(0 0 0)
(0 0 0)
(0 0 0)
(-1.66418e-54 0 0)
(0 0 0)
(0 0 0)
(0 0 0)
(0 0 0)
(-2.09044e-63 0 0)
(0 0 0)
(0 0 0)
(0 0 0)
(0 0 0)
(-1.64019e-51 0 0)
(0 0 0)
(0 0 0)
(0 0 0)
(0 0 0)
(-1.38476e-60 0 0)
(0 0 0)
(0 0 0)
(0 0 0)
(0 0 0)
(-1.50691e-48 0 0)
(0 0 0)
(0 0 0)
(0 0 0)
(0 0 0)
(-8.28702e-58 0 0)
(0 0 0)
(0 0 0)
(0 0 0)
(0 0 0)
(-1.28523e-45 0 0)
(0 0 0)
(0 0 0)
(0 0 0)
(0 0 0)
(-4.43509e-55 0 0)
(0 0 0)
(0 0 0)
(0 0 0)
(0 0 0)
(-1.01272e-42 0 0)
(0 0 0)
(0 0 0)
(0 0 0)
(0 0 0)
(-2.09533e-52 0 0)
(0 0 0)
(0 0 0)
(0 0 0)
(0 0 0)
(-7.33135e-40 0 0)
(0 0 0)
(0 0 0)
(0 0 0)
(0 0 0)
(-8.5898e-50 0 0)
(0 0 0)
(0 0 0)
(0 0 0)
(0 0 0)
(0 0 0)
(0 0 0)
(0 0 0)
(0 0 0)
(0 0 0)
(-1.19574e-67 0 0)
(0 0 0)
(0 0 0)
(0 0 0)
(0 0 0)
(0 0 0)
(0 0 0)
(0 0 0)
(0 0 0)
(0 0 0)
(-9.48413e-65 0 0)
(0 0 0)
(0 0 0)
(0 0 0)
(0 0 0)
(0 0 0)
(0 0 0)
(0 0 0)
(0 0 0)
(0 0 0)
(-6.91083e-62 0 0)
(0 0 0)
(0 0 0)
(0 0 0)
(0 0 0)
(0 0 0)
(0 0 0)
(0 0 0)
(0 0 0)
(0 0 0)
(-4.59584e-59 0 0)
(0 0 0)
(0 0 0)
(0 0 0)
(0 0 0)
(0 0 0)
(0 0 0)
(0 0 0)
(0 0 0)
(0 0 0)
(-2.76733e-56 0 0)
(0 0 0)
(0 0 0)
(0 0 0)
(0 0 0)
(0 0 0)
(0 0 0)
(0 0 0)
(0 0 0)
(0 0 0)
(-1.49425e-53 0 0)
(0 0 0)
(0 0 0)
(0 0 0)
(0 0 0)
(0 0 0)
(0 0 0)
(0 0 0)
(0 0 0)
(0 0 0)
(-7.14896e-51 0 0)
(0 0 0)
(0 0 0)
(0 0 0)
(0 0 0)
(0 0 0)
(0 0 0)
(0 0 0)
(0 0 0)
(0 0 0)
(-2.98455e-48 0 0)
(0 0 0)
(0 0 0)
(0 0 0)
(0 0 0)
(0 0 0)
(0 0 0)
(0 0 0)
(0 0 0)
(0 0 0)
(0 0 0)
(0 0 0)
(0 0 0)
(0 0 0)
(0 0 0)
(0 0 0)
(0 0 0)
(0 0 0)
(0 0 0)
(0 0 0)
(0 0 0)
(0 0 0)
(0 0 0)
(0 0 0)
(0 0 0)
(0 0 0)
(0 0 0)
(0 0 0)
(0 0 0)
(0 0 0)
(0 0 0)
(0 0 0)
(0 0 0)
(0 0 0)
(0 0 0)
(0 0 0)
(0 0 0)
(0 0 0)
(0 0 0)
(0 0 0)
(0 0 0)
(0 0 0)
(0 0 0)
(0 0 0)
(0 0 0)
(0 0 0)
(0 0 0)
(0 0 0)
(0 0 0)
(0 0 0)
(0 0 0)
(0 0 0)
(0 0 0)
(0 0 0)
(0 0 0)
(0 0 0)
(0 0 0)
(0 0 0)
(0 0 0)
(0 0 0)
(0 0 0)
(0 0 0)
(0 0 0)
(0 0 0)
(0 0 0)
(0 0 0)
(0 0 0)
(0 0 0)
(0 0 0)
(0 0 0)
(0 0 0)
(0 0 0)
(0 0 0)
(0 0 0)
(0 0 0)
(0 0 0)
(0 0 0)
(0 0 0)
(0 0 0)
(0 0 0)
(0 0 0)
(0 0 0)
(0 0 0)
(0 0 0)
(0 0 0)
(0 0 0)
(0 0 0)
(0 0 0)
(0 0 0)
(0 0 0)
(0 0 0)
(0 0 0)
(0 0 0)
(0 0 0)
(0 0 0)
(0 0 0)
(0 0 0)
(0 0 0)
(0 0 0)
(0 0 0)
(0 0 0)
(0 0 0)
(0 0 0)
(0 0 0)
(0 0 0)
(0 0 0)
(0 0 0)
(0 0 0)
(0 0 0)
(0 0 0)
(0 0 0)
(0 0 0)
(0 0 0)
(0 0 0)
(0 0 0)
(0 0 0)
(0 0 0)
(0 0 0)
(0 0 0)
(0 0 0)
(0 0 0)
(0 0 0)
(0 0 0)
(0 0 0)
(0 0 0)
(0 0 0)
(0 0 0)
(0 0 0)
(0 0 0)
(0 0 0)
(0 0 0)
(0 0 0)
(0 0 0)
(0 0 0)
(0 0 0)
(0 0 0)
(0 0 0)
(0 0 0)
(0 0 0)
(0 0 0)
(0 0 0)
(0 0 0)
(0 0 0)
(0 0 0)
(0 0 0)
(0 0 0)
(0 0 0)
(0 0 0)
(0 0 0)
(0 0 0)
(0 0 0)
(0 0 0)
(0 0 0)
(0 0 0)
(0 0 0)
(0 0 0)
(0 0 0)
(0 0 0)
(0 0 0)
(0 0 0)
(0 0 0)
(0 0 0)
(0 0 0)
(0 0 0)
(-8.38124e-17 -4.04752e-16 9.24144e-16)
(-1.40657e-20 0 2.29339e-19)
(-1.79319e-23 0 0)
(-2.12095e-26 0 0)
(-2.37163e-29 0 0)
(-2.45061e-32 0 0)
(0 0 0)
(-1.34115e-16 0 0)
(-4.63594e-14 -8.6907e-14 -3.03564e-16)
(-1.00691e-16 0 0)
(-9.37566e-14 -8.24734e-14 -4.04748e-16)
(-1.63316e-11 -2.40288e-11 -2.61971e-13)
(0 0 0)
(-1.33325e-16 0 0)
(-3.14652e-14 -7.10701e-14 6.40381e-16)
(-1.3301e-16 0 3.74107e-19)
(-8.22586e-14 -7.8112e-14 9.55454e-16)
(-1.31566e-11 -2.01217e-11 4.30288e-13)
(0 0 0)
(-2.20227e-18 0 0)
(-1.05111e-15 -2.02376e-15 3.37072e-16)
(-1.3612e-18 0 2.04093e-19)
(-2.55564e-15 -1.9563e-15 6.2662e-16)
(-6.36296e-13 -8.08827e-13 2.84658e-13)
(0 0 0)
(-9.32704e-22 0 0)
(-1.28712e-18 0 0)
(5.30202e-24 0 0)
(-1.53188e-18 0 1.15704e-18)
(-1.58966e-15 -2.15868e-15 2.09629e-15)
(0 0 0)
(-5.26582e-27 0 0)
(-1.75632e-22 0 0)
(1.38202e-25 0 0)
(-6.05373e-24 0 0)
(-3.01936e-19 0 1.03801e-18)
(0 0 0)
(0 0 0)
(0 0 0)
(1.94045e-29 0 0)
(0 0 0)
(0 0 0)
(0 0 0)
(0 0 0)
(0 0 0)
(0 0 0)
(0 0 0)
(0 0 0)
(0 0 0)
(0 0 0)
(0 0 0)
(0 0 0)
(0 0 0)
(0 0 0)
(0 0 0)
(0 0 0)
(0 0 0)
(0 0 0)
(0 0 0)
(0 0 0)
(0 0 0)
(0 0 0)
(0 0 0)
(0 0 0)
(0 0 0)
(0 0 0)
(0 0 0)
(0 0 0)
(0 0 0)
(0 0 0)
(0 0 0)
(0 0 0)
(0 0 0)
(0 0 0)
(0 0 0)
(0 0 0)
(0 0 0)
(0 0 0)
(0 0 0)
(0 0 0)
(0 0 0)
(0 0 0)
(0 0 0)
(0 0 0)
(0 0 0)
(0 0 0)
(0 0 0)
(0 0 -4.54747e-15)
(0 0 0)
(0 0 0)
(0 0 0)
(0 0 0)
(0 0 0)
(0 0 0)
(0 0 0)
(0 0 0)
(0 0 0)
(0 0 0)
(0 0 0)
(0 0 0)
(0 0 0)
(0 0 0)
(0 0 0)
(0 0 0)
(0 0 0)
(0 0 0)
(0 0 0)
(0 0 0)
(0 0 0)
(0 0 0)
(0 0 0)
(0 0 0)
(0 0 0)
(0 0 0)
(0 0 0)
(0 0 0)
(0 0 0)
(0 0 0)
(0 0 0)
(0 0 0)
(0 0 0)
(0 0 0)
(0 0 0)
(0 0 0)
(0 0 0)
(0 0 0)
(0 0 0)
(0 0 0)
(0 0 0)
(0 0 0)
(0 0 0)
(0 0 0)
(0 0 0)
(0 0 0)
(0 0 0)
(0 0 0)
(0 0 0)
(0 0 0)
(0 0 0)
(0 0 0)
(0 0 0)
(0 0 0)
(0 0 0)
(0 0 0)
(0 0 0)
(0 0 0)
(0 0 0)
(0 0 0)
(0 0 0)
(0 0 0)
(0 0 0)
(0 0 0)
(0 0 0)
(0 0 0)
(0 0 0)
(0 0 0)
(0 0 0)
(0 0 0)
(0 0 0)
(0 0 0)
(0 0 0)
(0 0 0)
(0 0 0)
(0 0 0)
(0 0 0)
(0 0 0)
(0 0 0)
(0 0 0)
(0 0 0)
(0 0 0)
(0 0 0)
(0 0 0)
(0 0 0)
(0 0 0)
(0 0 0)
(0 0 0)
(0 0 0)
(0 0 0)
(0 0 0)
(0 0 0)
(0 0 0)
(0 0 0)
(0 0 0)
(0 0 0)
(0 0 0)
(0 0 0)
(0 0 0)
(0 0 0)
(0 0 0)
(0 0 0)
(0 0 0)
(0 0 0)
(0 0 0)
(0 0 0)
(0 0 0)
(0 0 0)
(0 0 0)
(0 0 0)
(0 0 0)
(0 0 0)
(0 0 0)
(0 0 0)
(0 0 0)
(0 0 0)
(0 0 0)
(0 0 0)
(0 0 0)
(0 0 0)
(0 0 0)
(0 0 0)
(0 0 0)
(0 0 0)
(0 0 0)
(0 0 0)
(0 0 0)
(0 0 0)
(0 0 0)
(0 0 0)
(0 0 0)
(0 0 0)
(0 0 0)
(0 0 0)
(0 0 0)
(0 0 0)
(0 0 0)
(0 0 0)
(0 0 0)
(0 0 0)
(0 0 0)
(0 0 0)
(0 0 0)
(0 0 0)
(0 0 0)
(0 0 0)
(0 0 0)
(0 0 0)
(0 0 0)
(0 0 0)
(0 0 0)
(0 0 0)
(0 0 0)
(0 0 0)
(0 0 0)
(0 0 0)
(0 0 0)
(0 0 0)
(0 0 0)
(0 0 0)
(0 0 0)
(0 0 0)
(0 0 0)
(0 0 0)
(0 0 0)
(0 0 0)
(0 0 0)
(0 0 0)
(0 0 0)
(0 0 0)
(0 0 0)
(0 0 0)
(0 0 0)
(0 0 0)
(0 0 0)
(0 0 0)
(0 0 0)
(0 0 0)
(0 0 0)
(0 0 0)
(0 0 0)
(0 0 0)
(0 0 0)
(0 0 0)
(0 0 0)
(0 0 0)
(0 0 0)
(0 0 0)
(0 0 0)
(0 0 0)
(0 0 0)
(0 0 0)
(0 0 0)
(0 0 0)
(0 0 0)
(0 0 0)
(0 0 0)
(0 0 0)
(0 0 0)
(0 0 0)
(0 0 0)
(0 0 0)
(0 0 0)
(0 0 0)
(0 0 0)
(0 0 0)
(0 0 0)
(0 0 0)
(0 0 0)
(0 0 0)
(0 0 0)
(0 0 0)
(0 0 0)
(0 0 0)
(0 0 0)
(0 0 0)
(0 0 0)
(0 0 0)
(-7.03375e-14 -1.20368e-13 3.25442e-13)
(-9.52944e-18 0 3.6227e-16)
(-1.12927e-20 0 0)
(-1.36019e-23 0 0)
(-1.61865e-26 0 0)
(-1.84003e-29 0 0)
(-5.2392e-23 0 1.67678e-17)
(0 0 0)
(-1.02881e-23 0 0)
(0 0 0)
(-7.75631e-24 0 0)
(0 0 0)
(-7.54258e-24 0 0)
(0 0 0)
(0 0 0)
(0 0 0)
(0 0 0)
(0 0 0)
(0 0 0)
(0 0 0)
(0 0 0)
(0 0 0)
(0 0 0)
(0 0 0)
(0 0 0)
(0 0 0)
(3.57506e-14 -7.60611e-14 1.62227e-13)
(2.02376e-16 -6.74586e-17 6.15005e-16)
(5.87208e-18 0 1.46171e-16)
(0 0 1.70244e-20)
(8.02328e-31 0 0)
(0 0 0)
(2.06773e-33 0 -1.24028e-25)
(0 0 2.57918e-19)
(8.4275e-37 0 0)
(0 0 0)
(4.74596e-40 0 0)
(0 0 0)
(8.95792e-09 -6.7434e-09 -1.29428e-10)
(6.90883e-09 -5.56899e-09 1.71263e-10)
(7.15025e-11 -5.94106e-11 3.76415e-11)