/*--------------------------------*- C++ -*----------------------------------*\
  =========                 |
  \\      /  F ield         | OpenFOAM: The Open Source CFD Toolbox
   \\    /   O peration     | Website:  https://openfoam.org
    \\  /    A nd           | Version:  9
     \\/     M anipulation  |
\*---------------------------------------------------------------------------*/
FoamFile
{
    format      ascii;
    class       volVectorField;
    location    "0.0024";
    object      rhoU;
}
// * * * * * * * * * * * * * * * * * * * * * * * * * * * * * * * * * * * * * //

dimensions      [1 -2 -1 0 0 0 0];

internalField   nonuniform List<vector> 
19847
(
(208.756 190.193 809.899)
(7.98666e-06 2.46104e-05 2.26558e-05)
(4.61917e-06 8.23336e-06 1.4887e-05)
(6.365e-07 7.45749e-07 1.82393e-06)
(2.27931e-08 2.62063e-08 7.32043e-08)
(3.90647e-05 5.22765e-05 0.000145711)
(3.26257e-06 3.47912e-06 9.491e-06)
(1.10924e-07 1.18622e-07 3.38504e-07)
(0.000851496 0.00235737 -0.000776988)
(123.574 198.589 36.2576)
(0.138095 0.396648 0.00215262)
(6.01401 10.5474 8.34865)
(6.54555 15.4902 7.18653)
(0.000673076 0.00116588 0.0016074)
(0.00727172 0.00860099 -0.0178844)
(8.68813 18.3028 -12.7732)
(0.0374029 0.0695876 -0.0819682)
(0.00236761 0.00445243 -0.00316555)
(0.000655129 0.0012238 -0.000940331)
(2.35703 5.90207 -3.55452)
(0.0219119 0.0705755 -0.0424058)
(0.0293369 0.0815859 -0.0369149)
(200.468 314.11 70.6326)
(194.48 438.531 16.5583)
(189.851 454.718 99.5063)
(278.113 573.778 137.379)
(250.053 552.08 116.883)
(338.811 418.209 537.705)
(0.629826 0.441316 1.77891)
(156.73 245.842 51.1041)
(98.1011 110.436 67.5387)
(124.278 146.64 82.2503)
(197.632 435.261 32.4382)
(126.193 295.203 37.2452)
(155.582 347.933 38.9308)
(160.095 370.642 26.752)
(0.309747 0.242189 -0.849967)
(0.0133345 0.00615018 -0.0359435)
(0.0149333 0.0208943 -0.0404949)
(0.0834154 0.128908 -0.192258)
(0.0267871 0.0133528 -0.0776356)
(0.170989 0.120306 -0.433053)
(0.163385 0.275384 -0.415244)
(3.36847 4.31072 -8.21096)
(0.904053 1.64459 -1.8344)
(24.517 44.1528 -41.5704)
(14.6418 32.7302 -24.3187)
(2.10574 2.41138 -4.72916)
(1.6577 3.20128 -3.68193)
(31.8392 64.0038 -60.1936)
(253.587 403.99 88.1175)
(156.357 200.925 98.2565)
(196.72 278.209 109.803)
(234.551 488.57 37.9476)
(211.183 424.839 37.7575)
(187.025 396.203 39.9364)
(264.848 523.712 44.2247)
(0.00345305 0.0121721 -0.00178645)
(0.670673 2.20522 -0.0444369)
(0.357673 1.08942 0.336093)
(0.10952 0.304641 0.0520859)
(17.7684 41.1664 6.70434)
(18.3955 44.9174 -0.157993)
(42.6434 103.541 14.0747)
(0.523725 1.14616 0.93498)
(358.358 658.937 396.062)
(192.53 362.473 207.528)
(52.801 90.6673 90.0046)
(355.423 694.56 421.333)
(63.5519 96.7617 87.2986)
(71.1092 155.271 3.35388)
(38.4365 90.8314 -26.3702)
(121.958 308.934 -68.6925)
(199.573 481.223 7.10372)
(60.5007 158.245 -52.3168)
(128.353 349.139 -84.8078)
(111.259 270.832 -0.277755)
(368.395 478.464 523.675)
(346.686 493.942 667.424)
(365.781 570.107 628.684)
(64.4552 73.6514 95.1216)
(297.839 406.386 585.927)
(492.985 420.917 1014.67)
(599.097 445.439 1013.54)
(115.883 355.961 6.1173)
(0.943687 0.986142 0.011517)
(0.000878685 -7.33023e-05 2.55244e-05)
(4.33893e-06 -5.01518e-07 1.26251e-07)
(-6.23453e-06 2.50733e-06 1.97494e-07)
(-0.00255801 0.00479112 0.000135152)
(0.00598685 0.0237326 0.000209535)
(4.24115e-05 7.26017e-05 2.41178e-06)
(0.000242429 6.20696e-05 1.08415e-05)
(5.28095e-06 6.82565e-07 3.10397e-07)
(-5.65952e-08 2.68788e-07 2.47792e-08)
(-8.88985e-07 1.50211e-05 7.84173e-07)
(1.11768e-06 5.56629e-06 2.85097e-07)
(2.70091e-07 8.50631e-07 4.04702e-08)
(1.45111e-05 7.10706e-06 1.08536e-06)
(8.57873e-07 3.77077e-07 5.05047e-08)
(2.85313e-08 2.18084e-08 2.25391e-09)
(-6.64224e-09 2.79178e-07 1.0544e-08)
(1.58766e-08 9.86782e-08 3.84954e-09)
(3.32518e-09 1.80044e-08 6.46188e-10)
(1.42959e-06 9.57827e-07 1.00301e-07)
(7.50368e-08 4.44796e-08 4.23213e-09)
(3.51473e-09 2.1597e-09 1.92169e-10)
(1.13374e-10 4.65374e-09 1.46301e-10)
(2.2097e-10 1.72234e-09 5.71048e-11)
(4.34125e-11 3.91369e-10 1.20422e-11)
(8.43446e-08 7.83782e-08 5.71151e-09)
(4.55356e-09 3.6433e-09 2.51332e-10)
(2.14424e-10 1.58395e-10 1.04449e-11)
(9.83208e-12 7.60901e-11 2.31637e-12)
(2.96294e-12 2.98762e-11 8.94621e-13)
(5.89277e-13 8.58911e-12 2.33437e-13)
(3.93974e-09 4.54766e-09 2.58875e-10)
(2.24079e-10 2.2065e-10 1.21894e-11)
(1.10995e-11 9.74826e-12 5.24759e-13)
(4.84422e-13 1.37706e-12 4.25378e-14)
(4.09497e-14 5.10451e-13 1.07055e-14)
(5.68434e-15 1.72176e-13 2.46321e-15)
(1.59567e-10 2.04284e-10 1.03651e-11)
(9.55636e-12 1.03256e-11 5.20023e-13)
(4.6724e-13 4.63842e-13 1.89478e-14)
(1.32812e-14 2.63375e-14 0)
(0 4.92643e-15 0)
(0 5.68434e-16 0)
(72.351 186.283 39.9001)
(0.000330476 0.00026175 7.92593e-05)
(0.000271514 -1.79574e-05 5.83771e-05)
(1.46603e-06 -1.53694e-07 3.25806e-07)
(-1.43303e-06 5.68639e-07 3.13901e-07)
(-0.000714398 0.00140186 0.000258324)
(0.000952033 0.00356214 0.000525647)
(4.60307e-06 7.18514e-06 1.39357e-06)
(3.06409e-05 7.60772e-06 6.32633e-06)
(1.23451e-06 1.32827e-07 2.72496e-07)
(1.32565e-08 4.48998e-08 1.56048e-08)
(-1.45627e-07 3.13582e-06 3.83311e-07)
(1.85932e-07 9.7685e-07 1.2588e-07)
(5.82917e-08 1.85557e-07 3.49547e-08)
(6.51186e-06 2.71983e-06 1.49645e-06)
(3.18355e-07 1.29995e-07 7.61352e-08)
(1.19386e-08 6.09543e-09 3.56612e-09)
(-7.29726e-10 5.07713e-08 7.95887e-09)
(2.73956e-09 1.88519e-08 2.97538e-09)
(7.5551e-10 4.47412e-09 8.57244e-10)
(5.17697e-07 3.57254e-07 1.47607e-07)
(2.55472e-08 1.55968e-08 7.04015e-09)
(1.15034e-09 6.77809e-10 3.16146e-10)
(4.89687e-11 8.2911e-10 1.44555e-10)
(3.63075e-11 3.57834e-10 5.86384e-11)
(1.00916e-11 1.07117e-10 1.9835e-11)
(2.77044e-08 2.63498e-08 9.23589e-09)
(1.50151e-09 1.23453e-09 4.57171e-10)
(7.34533e-11 5.45909e-11 2.05955e-11)
(3.31547e-12 1.43612e-11 2.78987e-12)
(5.57154e-13 6.54835e-12 1.06553e-12)
(1.32256e-13 2.41841e-12 4.11167e-13)
(1.27419e-09 1.49214e-09 4.66927e-10)
(7.48421e-11 7.49836e-11 2.4084e-11)
(3.82483e-12 3.39662e-12 1.09528e-12)
(1.61249e-13 2.99526e-13 5.64645e-14)
(5.45546e-15 1.08352e-13 1.04213e-14)
(1.89478e-16 4.68929e-14 3.31587e-15)
(5.27543e-11 6.79748e-11 2.03779e-11)
(3.23638e-12 3.55518e-12 1.06468e-12)
(1.55935e-13 1.60488e-13 3.18323e-14)
(1.51411e-15 3.03165e-15 0)
(0 0 0)
(0 0 0)
(1.32795 2.20775 0.73511)
(2.58617e-05 1.76175e-05 8.11618e-06)
(2.73053e-07 -1.77176e-08 -6.85072e-08)
(-4.22161e-08 1.58372e-08 1.51741e-08)
(-2.77223e-05 5.64196e-05 1.50064e-05)
(3.9964e-05 0.000150484 3.84907e-05)
(4.94412e-07 8.92832e-07 2.61366e-07)
(9.32155e-06 3.20604e-06 -2.73339e-08)
(4.79239e-07 7.64199e-08 2.2874e-09)
(1.76536e-08 2.33325e-09 1.27655e-09)
(-4.58746e-09 8.79366e-08 3.066e-08)
(6.91061e-09 6.47735e-08 1.50737e-08)
(6.68903e-09 2.57777e-08 5.76448e-09)
(1.45912e-06 8.62241e-07 2.25485e-07)
(8.56652e-08 4.44457e-08 1.01632e-08)
(3.84599e-09 1.66682e-09 4.84771e-10)
(9.83922e-11 1.49485e-09 5.90825e-10)
(8.10625e-11 1.13609e-09 2.91001e-10)
(7.56504e-11 5.80853e-10 1.19553e-10)
(9.79567e-08 8.28921e-08 2.21333e-08)
(5.50509e-09 4.03559e-09 1.08404e-09)
(2.63825e-10 1.67711e-10 4.95025e-11)
(1.06326e-11 2.91496e-11 1.13173e-11)
(1.35353e-12 1.96817e-11 5.50832e-12)
(7.72881e-13 1.14664e-11 2.42409e-12)
(5.08314e-09 5.42603e-09 1.40522e-09)
(2.94177e-10 2.6974e-10 7.12385e-11)
(1.47114e-11 1.18132e-11 3.28356e-12)
(6.30934e-13 7.87601e-13 2.67354e-13)
(2.9769e-14 3.34483e-13 9.32232e-14)
(6.44225e-15 2.03619e-13 4.22536e-14)
(2.25581e-10 2.86794e-10 7.20411e-11)
(1.35009e-11 1.46807e-11 3.76417e-12)
(6.6366e-13 6.37072e-13 1.6352e-13)
(2.07441e-14 2.35639e-14 3.8843e-15)
(0 1.89049e-15 2.84217e-16)
(0 9.46102e-16 0)
(8.74631e-12 1.2209e-11 3.15571e-12)
(5.16519e-13 6.3532e-13 1.53761e-13)
(1.90308e-14 2.08426e-14 2.84217e-15)
(0 0 0)
(0 0 0)
(0 0 0)
(0.00119394 0.001638 0.00085491)
(1.32007e-06 1.06251e-06 9.56803e-07)
(5.07166e-05 4.91025e-05 -7.13198e-05)
(2.08087e-07 6.15146e-08 -1.49007e-07)
(-5.5378e-08 1.00521e-07 7.26053e-08)
(3.162e-07 2.1565e-06 7.7897e-07)
(1.57853e-08 3.43475e-08 2.27594e-08)
(2.9417e-05 6.67653e-05 -1.94566e-05)
(1.89769e-06 2.01304e-06 -6.50099e-07)
(5.73897e-08 2.4383e-08 -1.16356e-08)
(1.2639e-09 8.40552e-10 5.04762e-10)
(8.98117e-11 8.11274e-10 5.96204e-10)
(1.78971e-10 8.55281e-10 4.9451e-10)
(1.16123e-06 2.45133e-06 -4.08631e-07)
(8.56479e-08 9.16726e-08 -1.61468e-08)
(3.81095e-09 2.72533e-09 -4.33768e-10)
(1.33487e-10 8.2377e-11 9.33369e-12)
(3.98792e-12 1.98035e-11 1.29872e-11)
(2.00373e-12 1.91923e-11 9.73538e-12)
(4.68898e-08 9.27412e-08 -6.54037e-09)
(3.32117e-09 3.87674e-09 -3.02513e-10)
(1.51399e-10 1.359e-10 -8.21823e-12)
(5.59014e-12 4.29616e-12 1.1435e-13)
(1.67237e-13 4.68376e-13 2.44142e-13)
(2.1411e-14 3.86733e-13 1.70436e-13)
(1.72355e-09 3.33875e-09 -4.0431e-11)
(1.1706e-10 1.50282e-10 -2.54886e-12)
(5.47601e-12 5.63722e-12 -5.11591e-15)
(2.02012e-13 1.73367e-13 5.21065e-15)
(2.31838e-15 6.43353e-15 1.7053e-15)
(0 3.21383e-15 1.04213e-15)
(5.78202e-11 1.13661e-10 3.41572e-12)
(3.84249e-12 5.38968e-12 1.52719e-13)
(1.72041e-13 1.98635e-13 5.87382e-15)
(1.9321e-15 1.75886e-15 0)
(0 0 0)
(0 0 0)
(1.7576e-12 3.50673e-12 2.2987e-13)
(1.0401e-13 1.66741e-13 9.4739e-15)
(9.60131e-16 1.7053e-15 0)
(0 0 0)
(0 0 0)
(0 0 0)
(236.544 331.616 78.6797)
(0.451743 0.766062 0.319677)
(0.000134019 0.000206494 7.76955e-05)
(1.21469e-07 1.3456e-07 1.71712e-07)
(1.11531e-08 1.23658e-08 2.36706e-08)
(0.738692 1.57815 0.608655)
(0.0132377 0.0299884 -0.0022302)
(2.31333e-05 1.93046e-05 -1.15524e-06)
(2.82396e-08 1.04626e-08 -4.96577e-09)
(3.50174e-10 3.83316e-09 3.05238e-09)
(1.77192e-10 5.89963e-10 6.4968e-10)
(0.000106828 0.000336396 6.13279e-05)
(5.80506e-06 8.49443e-06 3.9214e-07)
(1.98809e-07 1.1452e-07 2.4113e-09)
(4.40767e-09 1.19064e-09 -4.13552e-11)
(9.05096e-11 1.84788e-11 7.48048e-12)
(4.23237e-12 1.79278e-11 1.51614e-11)
(1.93131e-06 5.92741e-06 2.39664e-07)
(2.06911e-07 3.00424e-07 6.98853e-09)
(8.71911e-09 6.87629e-09 6.7694e-11)
(3.17649e-10 2.09951e-10 -1.57049e-12)
(9.13184e-12 4.9754e-12 4.05104e-13)
(2.25289e-13 5.00246e-13 3.13207e-13)
(6.25396e-08 2.07457e-07 5.55106e-09)
(6.52953e-09 9.95395e-09 1.3957e-10)
(3.07301e-10 2.97495e-10 1.76148e-12)
(1.11393e-11 9.03027e-12 -2.65269e-14)
(3.34771e-13 2.28544e-13 7.01069e-15)
(3.97904e-15 9.2589e-15 3.03165e-15)
(2.04738e-09 6.30377e-09 1.34177e-10)
(1.96938e-10 3.17827e-10 3.55669e-12)
(9.85963e-12 1.10932e-11 6.54647e-14)
(3.61109e-13 3.38817e-13 2.84217e-16)
(7.11072e-15 3.95018e-15 0)
(0 0 0)
(6.47087e-11 1.86393e-10 3.55033e-12)
(5.718e-12 9.79311e-12 1.18992e-13)
(2.77619e-13 3.58271e-13 1.32635e-15)
(5.98981e-15 7.14035e-15 0)
(0 0 0)
(0 0 0)
(1.86617e-12 5.14802e-12 1.09409e-13)
(1.42102e-13 2.72469e-13 1.98952e-15)
(2.2577e-15 6.0633e-15 0)
(0 0 0)
(0 0 0)
(0 0 0)
(441.414 641.386 466.151)
(0.00205189 0.00196225 0.00286676)
(2.90778e-05 2.18036e-05 2.8055e-05)
(1.88262e-07 1.76427e-07 1.34559e-07)
(8.68012e-09 1.25287e-08 2.79425e-09)
(6.21862e-10 7.6928e-10 4.97556e-10)
(5.06162e-05 0.000104809 6.04771e-05)
(0.000185512 0.000294778 0.000162236)
(1.84972e-06 1.34445e-06 7.03898e-07)
(4.70119e-08 1.66257e-08 8.24567e-09)
(1.11054e-09 5.61181e-10 9.62912e-11)
(3.56979e-11 3.67819e-11 1.65623e-11)
(8.85523e-06 1.92277e-05 7.59609e-06)
(1.11553e-06 2.08601e-06 6.92736e-07)
(7.13465e-08 6.88697e-08 2.21426e-08)
(2.61541e-09 1.69672e-09 4.46e-10)
(7.48338e-11 4.27448e-11 6.99761e-12)
(2.17009e-12 1.79266e-12 5.13296e-13)
(3.72018e-07 9.11001e-07 3.4409e-07)
(4.16783e-08 7.67531e-08 2.2642e-08)
(2.56171e-09 2.76085e-09 7.68279e-10)
(1.04929e-10 8.56928e-11 2.19129e-11)
(3.50789e-12 2.4759e-12 4.85822e-13)
(9.85286e-14 7.41689e-14 1.17476e-14)
(1.45251e-08 3.78282e-08 1.20301e-08)
(1.49319e-09 2.64161e-09 7.19931e-10)
(9.02635e-11 1.06545e-10 2.71726e-11)
(3.86123e-12 3.66958e-12 8.61367e-13)
(1.28965e-13 1.00292e-13 1.3074e-14)
(0 0 0)
(5.12615e-10 1.39231e-09 3.86463e-10)
(5.02661e-11 9.01575e-11 2.26203e-11)
(2.99575e-12 3.8733e-12 9.0021e-13)
(1.23546e-13 1.33368e-13 1.99899e-14)
(1.89478e-16 0 0)
(0 0 0)
(1.66212e-11 4.66512e-11 1.18172e-11)
(1.54489e-12 2.92463e-12 6.61089e-13)
(8.11036e-14 1.23211e-13 1.68635e-14)
(1.89478e-16 0 0)
(0 0 0)
(0 0 0)
(4.77106e-13 1.38401e-12 3.03651e-13)
(3.52028e-14 8.09071e-14 9.00021e-15)
(0 0 0)
(0 0 0)
(0 0 0)
(0 0 0)
(3.63822e-05 4.80416e-05 7.4149e-05)
(1.18906e-05 9.57333e-06 1.76877e-05)
(1.31073e-06 8.3185e-07 9.41415e-07)
(4.82629e-08 3.12581e-08 2.04086e-08)
(2.13127e-09 1.67125e-09 8.91559e-10)
(9.6026e-11 7.66257e-11 4.39679e-11)
(1.28436e-05 2.08795e-05 1.95295e-05)
(1.58935e-06 1.93836e-06 1.92944e-06)
(9.44819e-08 7.04786e-08 6.31471e-08)
(4.12903e-09 2.45104e-09 1.9992e-09)
(1.64418e-10 1.12948e-10 6.92294e-11)
(6.15349e-12 4.88883e-12 2.27667e-12)
(6.07746e-07 1.25184e-06 8.05879e-07)
(6.6661e-08 1.03251e-07 6.91781e-08)
(4.5039e-09 4.32162e-09 2.70519e-09)
(2.30539e-10 1.78315e-10 1.08817e-10)
(9.8485e-12 7.42327e-12 4.07842e-12)
(3.43145e-13 2.64233e-13 9.83391e-14)
(2.612e-08 5.76786e-08 3.22496e-08)
(2.80119e-09 4.49636e-09 2.40234e-09)
(1.88572e-10 2.09506e-10 1.03101e-10)
(9.47685e-12 8.99779e-12 3.98993e-12)
(3.88839e-13 3.48715e-13 1.2515e-13)
(8.90547e-15 5.8541e-15 1.32635e-15)
(1.05655e-09 2.55656e-09 1.22861e-09)
(1.09868e-10 1.84872e-10 8.32318e-11)
(7.272e-12 9.09271e-12 3.74295e-12)
(3.44009e-13 3.76766e-13 1.32066e-13)
(9.01237e-15 7.92765e-15 1.7053e-15)
(0 0 0)
(3.89239e-11 1.01002e-10 4.24547e-11)
(3.91402e-12 7.02526e-12 2.74184e-12)
(2.39213e-13 3.3321e-13 1.14634e-13)
(5.63153e-15 7.92765e-15 1.61056e-15)
(0 0 0)
(0 0 0)
(1.30588e-12 3.57662e-12 1.32901e-12)
(1.12247e-13 2.29268e-13 7.39912e-14)
(2.44302e-15 4.72066e-15 8.52651e-16)
(0 0 0)
(0 0 0)
(0 0 0)
(2.99375e-14 1.07131e-13 2.94352e-14)
(1.89478e-16 1.7053e-15 9.4739e-17)
(0 0 0)
(0 0 0)
(0 0 0)
(0 0 0)
(4.42631e-06 4.48652e-06 8.98665e-06)
(6.13791e-07 4.8932e-07 1.06732e-06)
(4.81445e-08 3.11973e-08 4.89557e-08)
(2.864e-09 1.99488e-09 2.2883e-09)
(1.45943e-10 1.02325e-10 9.85105e-11)
(6.74618e-12 4.70986e-12 4.28558e-12)
(4.48894e-07 6.30958e-07 9.19739e-07)
(5.18241e-08 5.75298e-08 7.84745e-08)
(3.70685e-09 2.93044e-09 3.38184e-09)
(1.99769e-10 1.51912e-10 1.4342e-10)
(9.83085e-12 7.60411e-12 6.13246e-12)
(4.22915e-13 3.19608e-13 2.28511e-13)
(2.62834e-08 4.68739e-08 4.585e-08)
(2.91066e-09 3.89206e-09 3.66154e-09)
(2.08639e-10 2.0434e-10 1.75308e-10)
(1.14866e-11 1.01113e-11 7.86088e-12)
(5.33839e-13 4.49517e-13 3.15291e-13)
(1.62951e-14 1.00014e-14 5.68434e-15)
(1.29288e-09 2.68356e-09 2.1014e-09)
(1.3929e-10 2.07257e-10 1.54899e-10)
(9.84308e-12 1.12578e-11 7.79323e-12)
(5.17781e-13 5.31293e-13 3.31587e-13)
(1.74131e-14 1.56539e-14 7.7686e-15)
(0 0 0)
(5.54405e-11 1.28418e-10 8.47579e-11)
(5.83621e-12 9.54016e-12 5.98988e-12)
(3.84156e-13 5.01536e-13 2.86586e-13)
(1.34929e-14 1.71626e-14 7.57912e-15)
(0 0 0)
(0 0 0)
(2.12215e-12 5.3361e-12 3.04816e-12)
(2.00597e-13 3.71197e-13 1.97247e-13)
(7.50433e-15 1.24541e-14 4.83169e-15)
(0 0 0)
(0 0 0)
(0 0 0)
(5.81698e-14 1.84216e-13 8.93618e-14)
(2.44302e-15 6.04401e-15 2.08426e-15)
(0 0 0)
(0 0 0)
(0 0 0)
(0 0 0)
(0 1.32853e-15 6.49831e-16)
(0 0 0)
(0 0 0)
(0 0 0)
(0 0 0)
(0 0 0)
(1.4013e-07 1.39636e-07 3.30167e-07)
(1.94034e-08 1.56897e-08 3.64897e-08)
(1.69967e-09 1.21449e-09 2.09954e-09)
(1.14908e-10 8.23438e-11 1.18465e-10)
(6.78621e-12 4.61966e-12 6.00241e-12)
(3.25523e-13 2.04447e-13 2.51852e-13)
(1.49777e-08 1.9621e-08 3.34218e-08)
(1.78499e-09 1.84619e-09 2.88607e-09)
(1.401e-10 1.18551e-10 1.56863e-10)
(8.58056e-12 7.03835e-12 7.98735e-12)
(4.44831e-13 3.48889e-13 3.61429e-13)
(1.45898e-14 7.1753e-15 8.90547e-15)
(1.0038e-09 1.70725e-09 2.06726e-09)
(1.13137e-10 1.42686e-10 1.62529e-10)
(8.54936e-12 8.69454e-12 8.99528e-12)
(4.86368e-13 4.5372e-13 4.27368e-13)
(1.7031e-14 1.37691e-14 1.33582e-14)
(0 0 0)
(5.28816e-11 1.05916e-10 1.02344e-10)
(5.7728e-12 8.38209e-12 7.69205e-12)
(4.0482e-13 4.82428e-13 4.12873e-13)
(1.64697e-14 1.58404e-14 1.42109e-14)
(0 0 0)
(0 0 0)
(2.36544e-12 5.32148e-12 4.3405e-12)
(2.30841e-13 3.89703e-13 3.00228e-13)
(1.03087e-14 1.49015e-14 1.02318e-14)
(0 0 0)
(0 0 0)
(0 0 0)
(7.90124e-14 2.14135e-13 1.49636e-13)
(3.18656e-15 8.6862e-15 5.96856e-15)
(0 0 0)
(0 0 0)
(0 0 0)
(0 0 0)
(0 2.51334e-15 1.73854e-15)
(0 0 0)
(0 0 0)
(0 0 0)
(0 0 0)
(0 0 0)
(0 0 1.00091e-19)
(0 0 0)
(0 0 0)
(0 0 0)
(0 0 0)
(0 0 0)
(4.64258e-09 4.74434e-09 1.16444e-08)
(6.33329e-10 5.33699e-10 1.18006e-09)
(5.89179e-11 4.49372e-11 8.00434e-11)
(4.27992e-12 3.10611e-12 4.90492e-12)
(2.46376e-13 1.56319e-13 2.56648e-13)
(4.73695e-15 2.84217e-15 6.25278e-15)
(4.90533e-10 6.40021e-10 1.15892e-09)
(5.96e-11 6.14184e-11 9.92299e-11)
(4.94888e-12 4.42261e-12 6.15159e-12)
(3.0554e-13 2.5788e-13 3.38218e-13)
(1.09194e-14 5.49486e-15 1.14634e-14)
(0 0 0)
(3.45021e-11 5.72922e-11 7.5808e-11)
(3.95936e-12 4.94651e-12 6.06747e-12)
(2.90632e-13 3.07523e-13 3.62945e-13)
(1.11105e-14 9.85286e-15 1.3074e-14)
(0 0 0)
(0 0 0)
(1.89497e-12 3.69634e-12 3.92636e-12)
(1.88733e-13 2.83459e-13 2.99091e-13)
(7.15368e-15 1.02318e-14 1.29792e-14)
(0 0 0)
(0 0 0)
(0 0 0)
(7.27596e-14 1.77456e-13 1.68635e-13)
(3.20186e-15 6.44225e-15 7.57912e-15)
(0 0 0)
(0 0 0)
(0 0 0)
(0 0 0)
(1.89478e-16 2.51312e-15 2.27374e-15)
(0 0 0)
(0 0 0)
(0 0 0)
(0 0 0)
(0 0 0)
(0 6.29826e-21 4.21229e-18)
(0 0 0)
(0 0 0)
(0 0 0)
(0 0 0)
(0 0 0)
(0 0 0)
(0 0 0)
(0 0 0)
(0 0 0)
(0 0 0)
(0 0 0)
(0.000365656 -0.000198045 8.19368e-06)
(7.7006e-06 -5.76128e-06 1.90049e-07)
(0.000218349 -0.000129072 4.65208e-05)
(7.35738e-06 -6.72985e-06 1.26592e-06)
(1.52597e-06 -1.00791e-06 3.17417e-08)
(-5.38465e-08 -5.34772e-08 7.94769e-10)
(1.37457e-06 -9.31571e-07 2.13525e-07)
(-2.34211e-08 -3.66753e-08 8.7453e-09)
(-1.08711e-06 -8.49955e-08 1.88459e-08)
(-0.00120605 0.000732374 1.14408e-05)
(-5.74494e-07 -7.9444e-08 7.87532e-08)
(-0.000647526 0.000389474 0.000107006)
(31.2758 172.543 3.2124)
(-0.0109785 0.0100384 0.000122893)
(0.0336638 0.508566 0.0040705)
(28.1743 159.282 16.0413)
(-0.0062504 0.0056387 0.00104038)
(0.0239319 0.283712 0.034647)
(68.4323 89.1784 1.4373)
(0.0917196 0.358628 0.00285287)
(0.00241401 0.00405171 5.02609e-05)
(103.5 306.007 34.4632)
(44.7607 59.4815 8.28495)
(0.0507824 0.179849 0.0242472)
(0.00108794 0.0017738 0.000189226)
(5.96141e-05 -6.25419e-06 2.22195e-06)
(0.000708988 0.000106766 2.12568e-05)
(5.53504e-05 1.34511e-06 1.85235e-06)
(0.000573798 -4.57691e-05 8.16973e-05)
(4.15051e-05 -3.5075e-06 4.78391e-06)
(0.000496002 7.29086e-05 7.77976e-05)
(3.89064e-05 -1.2594e-06 5.63074e-06)
(6.48755e-08 -5.8369e-08 9.19975e-09)
(3.89452e-06 -7.18854e-08 1.08508e-07)
(6.01856e-07 -3.00671e-07 2.80035e-08)
(3.0595e-06 -3.29167e-07 3.90676e-07)
(6.66558e-08 -4.56735e-08 3.19462e-08)
(2.82876e-06 -2.42354e-07 4.27698e-07)
(4.82211e-07 -2.77043e-07 6.74014e-08)
(-0.000163119 0.000124294 4.16103e-06)
(-4.274e-07 2.95012e-07 9.92791e-09)
(-9.1172e-06 9.68617e-06 2.31219e-07)
(-4.00524e-06 1.60806e-06 3.2058e-07)
(-0.000108714 8.29178e-05 1.38216e-05)
(-2.53335e-07 1.72131e-07 4.45322e-08)
(-5.835e-06 6.21224e-06 1.01785e-06)
(0.00211519 0.0396468 0.000341219)
(-9.88952e-05 0.00022776 4.78124e-06)
(5.25914e-06 0.000736844 1.50717e-05)
(-0.00174818 0.0033135 0.000342806)
(0.0016035 0.0211641 0.00239017)
(-6.53055e-05 0.000153421 1.88067e-05)
(4.91288e-06 0.000556598 6.15178e-05)
(0.000149164 -8.2715e-05 2.80492e-05)
(3.66044e-06 -3.07184e-06 9.53496e-07)
(1.18537e-06 -1.12959e-06 2.98254e-07)
(6.80288e-07 -4.30697e-07 1.83904e-07)
(-9.61323e-09 -1.63888e-08 3.85501e-09)
(2.17832e-07 -1.54851e-07 4.4731e-08)
(7.96443e-10 -5.27063e-09 1.28509e-09)
(-2.65406e-07 -1.24395e-08 4.14169e-08)
(-0.000403597 0.000246073 4.9669e-05)
(-2.93006e-08 -9.11739e-09 7.37732e-09)
(-4.36618e-05 2.53189e-05 1.36056e-05)
(21.104 125.456 22.2843)
(-0.00402626 0.00365279 0.000681654)
(0.0207658 0.184545 0.0230951)
(14.0628 71.2577 18.0055)
(-0.000526075 0.000439685 0.000169337)
(0.0051569 0.0251889 0.00711319)
(1.56676 1.91382 0.432243)
(0.0278972 0.107588 0.0126438)
(0.00107132 0.00155236 0.000140859)
(13.4355 21.3451 6.09494)
(0.0600939 0.0638915 0.0223817)
(0.00280802 0.0100589 0.00297583)
(0.00067199 0.00103037 0.000284034)
(2.11129e-05 -2.04445e-06 5.05211e-06)
(0.000198817 3.97999e-05 3.83881e-05)
(1.67117e-05 9.72968e-07 3.65483e-06)
(7.77429e-06 -6.29995e-07 1.38738e-06)
(8.12554e-05 1.11331e-05 2.11491e-05)
(7.51573e-06 -1.00667e-06 1.81589e-06)
(5.07437e-08 -2.22144e-08 2.35721e-08)
(1.22783e-06 2.98017e-09 2.23474e-07)
(1.97931e-07 -9.51968e-08 4.47213e-08)
(5.22244e-07 -6.20924e-08 9.22941e-08)
(2.62054e-08 -8.13349e-09 6.91217e-09)
(5.42958e-07 -1.16274e-07 1.37193e-07)
(8.0667e-08 -4.62342e-08 2.38761e-08)
(-4.1066e-05 3.13367e-05 8.84375e-06)
(-8.07577e-08 5.87751e-08 1.6915e-08)
(-2.0791e-06 2.21727e-06 3.93542e-07)
(-3.1801e-07 1.22416e-07 5.76802e-08)
(-1.00813e-05 7.59212e-06 2.40678e-06)
(-1.22575e-08 8.01236e-09 7.14097e-09)
(-5.18589e-07 5.36222e-07 1.8675e-07)
(0.000747722 0.0112596 0.0014717)
(-2.56277e-05 6.16479e-05 8.54129e-06)
(4.66868e-06 0.000335193 3.99086e-05)
(-0.000187994 0.000378135 8.37002e-05)
(2.06486e-05 0.0022756 0.000451741)
(-6.3553e-06 1.56313e-05 4.18094e-06)
(7.68241e-07 8.04661e-05 1.91365e-05)
(4.20103e-07 -3.26595e-07 5.40959e-08)
(8.71452e-06 8.12973e-07 -1.56247e-05)
(9.34432e-08 -6.37251e-08 1.18755e-08)
(1.02048e-09 -1.66312e-09 3.41961e-10)
(1.71833e-06 4.92041e-07 -3.0734e-06)
(2.54823e-08 -1.45014e-08 -2.8756e-08)
(-5.63956e-09 -1.05376e-09 1.83092e-09)
(-1.53204e-05 9.22806e-06 3.93306e-06)
(3.10961e-09 -1.37742e-09 -2.84151e-09)
(-1.59021e-07 8.81196e-08 5.89348e-08)
(8.14089 26.5131 8.73904)
(-0.000194582 0.000170911 5.92613e-05)
(0.00213218 0.00964577 0.00179954)
(1.35458 3.52289 1.28152)
(-2.55576e-06 2.16303e-06 1.10301e-06)
(6.2561e-06 0.000191581 7.459e-05)
(0.0148084 0.0152144 0.00502017)
(0.000977928 0.00353238 0.000700292)
(0.000268608 0.000399229 0.000134933)
(0.0669763 0.096528 0.0363842)
(0.00047031 0.000441431 0.000248385)
(0.000307715 0.000803798 0.000267108)
(3.83653e-05 6.43349e-05 2.40365e-05)
(3.63363e-06 -1.72048e-07 -5.30219e-07)
(2.70201e-05 5.21939e-06 3.62437e-06)
(2.9519e-06 -3.05659e-07 1.59608e-07)
(1.47563e-05 9.22262e-06 -2.80344e-05)
(2.30488e-05 2.20031e-05 -2.19674e-05)
(4.09402e-06 2.69056e-06 -4.09814e-06)
(1.90628e-08 -4.10158e-09 -3.70824e-09)
(2.4032e-07 -3.24385e-08 8.16142e-09)
(4.99581e-08 -2.83719e-08 3.40177e-09)
(1.84121e-06 7.84901e-07 -2.77859e-06)
(1.47439e-07 3.01524e-08 -1.57923e-07)
(4.78932e-07 2.6699e-07 -4.56786e-07)
(7.43195e-08 -1.32485e-08 -2.64248e-08)
(-1.32826e-06 9.88214e-07 4.02848e-07)
(2.50772e-09 -1.1332e-09 8.86522e-10)
(-5.74734e-08 5.9554e-08 2.30343e-08)
(7.27764e-09 1.6886e-10 -5.95594e-09)
(-8.52793e-08 6.08556e-08 3.88157e-08)
(5.42328e-09 -1.21373e-09 -1.09792e-09)
(-3.36662e-09 2.47916e-09 2.02039e-09)
(-4.73161e-07 0.000367978 8.11453e-05)
(-7.91796e-07 1.9828e-06 5.43017e-07)
(-2.1584e-07 1.08301e-05 2.37563e-06)
(-1.8959e-06 3.81573e-06 1.48076e-06)
(-5.50625e-07 2.74445e-05 8.72053e-06)
(-5.62772e-08 1.27002e-07 5.75414e-08)
(-3.90889e-08 8.84639e-07 4.2039e-07)
(0.000123549 4.54849e-05 -0.000219946)
(0.211754 0.362672 -0.255682)
(2.5018e-05 1.37089e-05 -4.41377e-05)
(3.57426e-07 -1.41834e-07 -3.74621e-07)
(0.0542265 0.0904904 -0.0626214)
(0.000362034 0.000519723 -0.00034353)
(4.01318e-08 -8.61879e-09 -3.52514e-08)
(-1.88195e-08 1.0336e-08 8.29889e-09)
(5.28863e-05 7.52487e-05 -4.85234e-05)
(9.29876e-08 9.35278e-08 -7.18736e-08)
(0.0645604 0.148032 0.0585642)
(-3.09804e-07 2.69142e-07 1.5793e-07)
(8.3385e-07 2.26131e-05 9.23714e-06)
(1.9408e-05 6.3482e-05 4.92963e-05)
(8.60687e-09 8.87607e-09 -6.8594e-09)
(-1.93713e-07 2.4412e-07 1.52841e-07)
(0.00010425 0.000116873 7.05724e-05)
(2.03485e-05 6.59688e-05 2.7627e-05)
(3.77939e-06 5.77926e-06 2.81247e-06)
(3.53754e-05 6.6225e-05 5.76461e-05)
(3.97316e-06 4.38962e-06 4.34723e-06)
(8.14875e-07 3.31771e-06 2.11607e-06)
(1.39719e-07 2.64577e-07 2.17339e-07)
(0.000352184 0.00044104 -0.000579926)
(0.000162483 0.00030548 -0.000243474)
(3.58092e-05 5.38229e-05 -5.15441e-05)
(0.0661427 0.130483 -0.0753143)
(0.00166733 0.00416739 -0.00158868)
(0.000346521 0.000718895 -0.00027971)
(3.99566e-06 2.18786e-06 -3.86522e-06)
(6.50242e-06 7.64963e-06 -8.19687e-06)
(7.06699e-07 4.41759e-07 -5.01914e-07)
(0.00136842 0.00231102 -0.0011522)
(0.000104671 0.000107686 -5.7494e-05)
(6.25576e-05 0.0001115 -3.45951e-05)
(5.8729e-06 6.13331e-06 -2.16259e-06)
(6.56704e-09 5.55165e-10 -3.50648e-09)
(4.38942e-08 1.96522e-08 -2.52108e-08)
(4.46773e-09 -1.16053e-09 -1.12809e-09)
(5.00062e-06 3.02593e-06 -1.99289e-06)
(1.72525e-07 5.70397e-08 -4.71647e-08)
(3.21522e-07 2.28152e-07 -8.57259e-08)
(1.69467e-08 4.95903e-09 -3.69026e-09)
(-8.46595e-08 8.46702e-07 4.77834e-07)
(-1.61951e-09 3.63841e-09 2.84727e-09)
(-2.54594e-09 2.5939e-08 1.74167e-08)
(4.11275e-09 1.63823e-09 5.29151e-10)
(-6.69524e-09 1.8727e-08 1.61975e-08)
(6.91331e-10 2.12089e-10 -1.33705e-11)
(-1.33604e-10 6.42897e-10 5.87781e-10)
(15.8493 22.8572 7.7901)
(0.197169 0.398699 -0.0282976)
(0.00167639 0.00321922 -0.000245881)
(37.3236 46.0689 31.1303)
(0.676771 0.804578 0.53695)
(0.0191844 0.0328063 0.0157032)
(0.00116192 0.00152481 0.000615723)
(0.0102297 0.0187119 0.00757585)
(0.000260458 0.000501707 -3.34424e-05)
(5.51432e-07 8.20493e-07 -1.20566e-07)
(0.0089865 0.0100535 0.00737693)
(0.000417684 0.000520569 0.000293587)
(0.000334429 0.000361284 0.000119757)
(2.43512e-05 2.73678e-05 6.24268e-06)
(6.49294e-08 4.25568e-07 2.0269e-07)
(5.45922e-08 7.71636e-08 -1.65094e-08)
(-1.03017e-08 1.2061e-08 1.35779e-08)
(3.0168e-05 3.24746e-05 1.38404e-05)
(1.62729e-06 1.43423e-06 3.75531e-07)
(1.47002e-06 1.39339e-06 2.08854e-07)
(7.48882e-08 6.8237e-08 5.54575e-09)
(1294.59 387.91 27.2475)
(0.0991975 0.0218074 0.0160892)
(0.000860343 9.07394e-05 0.000205143)
(19.3802 2.31015 10.8268)
(1.60297e-05 1.5403e-06 7.02165e-06)
(1635.49 286.852 1636.11)
(131.834 2.3774 144.178)
(2.46462e-06 1.59497e-06 3.17114e-06)
(2.17051e-07 6.51768e-08 2.29519e-07)
(565.229 447.42 813.404)
(0.0128659 0.0103072 0.0186827)
(0.000211478 0.000125796 0.000224723)
(1.58265e-06 1.35449e-06 1.29921e-06)
(3.89821e-07 2.64338e-07 1.69939e-07)
(1.75623e-08 1.03574e-08 8.40379e-09)
(37.6691 19.6632 59.7312)
(0.0351663 0.0143395 0.0587982)
(8.74575e-06 5.07137e-06 1.0389e-05)
(6.89979e-07 4.0701e-07 5.05472e-07)
(3.36685e-08 1.93133e-08 1.97672e-08)
(1.51909e-09 8.03515e-10 8.20429e-10)
(0.000185371 0.00012972 0.0003763)
(3.23791e-06 2.47755e-06 5.12688e-06)
(3.81672e-07 2.56293e-07 5.69394e-07)
(2.74788e-08 1.69547e-08 2.79908e-08)
(1.71553e-09 9.28741e-10 1.39828e-09)
(8.51626e-11 4.27476e-11 6.23469e-11)
(6.51772e-07 6.07532e-07 1.51757e-06)
(1.19222e-07 9.17613e-08 2.18742e-07)
(1.33289e-08 9.17324e-09 2.03432e-08)
(1.10901e-09 6.66323e-10 1.32164e-09)
(7.42639e-11 3.87809e-11 7.35525e-11)
(3.85398e-12 1.89099e-12 3.46875e-12)
(2.55102e-08 2.42524e-08 6.82363e-08)
(4.34012e-09 3.29604e-09 8.49304e-09)
(4.85066e-10 3.2779e-10 7.63008e-10)
(4.14491e-11 2.43318e-11 5.26314e-11)
(2.82298e-12 1.43719e-12 3.04359e-12)
(1.42488e-13 5.68434e-14 1.42014e-13)
(170.425 286.429 9.84168)
(168.206 289.617 46.4705)
(1521.6 748.847 43.4901)
(607.475 588.485 27.8964)
(1086.26 912.278 30.8454)
(1546.05 768.719 229.44)
(942.021 816.304 166.166)
(1047.38 896.318 173.391)
(158.909 304.045 83.1715)
(125.92 283.779 97.7416)
(1592.23 472.517 402.037)
(706.812 744.724 310.371)
(866.574 760.281 255.175)
(457.133 151.973 184.654)
(667.708 767.129 378.329)
(172.06 137.017 75.5564)
(105.98 242.777 101.092)
(1798.02 313.011 1172.55)
(24.687 46.9292 23.3061)
(135.145 42.6869 57.1105)
(389 408.449 252.755)
(9.00398 6.53689 3.78394)
(1643.88 384.532 950.538)
(0.438473 0.0486219 0.172335)
(165.638 152.468 107.114)
(1.51726 1.05553 0.648446)
(1319.78 181.921 942.794)
(1.40403 2.56718 1.19571)
(1.29206 0.082652 1.24471)
(0.000552148 0.00109707 0.000948079)
(0.0386123 0.0023832 0.017179)
(0.019849 0.0209518 0.0126603)
(0.000985804 0.000627075 0.000477231)
(0.0762299 0.00439689 0.0530878)
(0.00018186 1.71836e-05 0.000129541)
(0.000325081 0.000306347 0.000274985)
(8.47726e-05 4.981e-05 8.30057e-05)
(425.422 531.013 209.301)
(528.824 565.211 462.156)
(516.318 621.815 249.78)
(186.545 210.26 93.4372)
(954.401 534.288 1040.64)
(832.998 230.822 860.789)
(740.426 710.507 599.608)
(7.65301 7.8383 6.58791)
(659.236 25.6788 685.564)
(6.79868 9.88492 5.23664)
(0.178863 0.308589 0.166716)
(345.77 68.8586 371.661)
(9.75662 1.08001 15.4779)
(0.0970129 0.0995796 0.0925816)
(0.00159194 0.00190019 0.00190526)
(0.0475344 0.00325445 0.0527447)
(0.00258636 0.00379545 0.00197946)
(1.06856e-06 4.21146e-06 3.88361e-06)
(0.123134 0.011195 0.214757)
(0.000176334 3.9014e-05 0.000225873)
(0.000535359 0.000498366 0.000548924)
(2.93105e-05 1.50731e-05 1.5045e-05)
(367.115 503.524 303.645)
(373.786 573.435 122.185)
(3.12483 6.2684 0.417131)
(6.96711 12.1429 5.81449)
(84.5445 110.398 32.9613)
(190.597 287.761 40.9128)
(89.0784 127.363 19.8936)
(6.34998 10.5823 2.48539)
(31.4212 50.4534 4.02319)
(8.03499 13.3316 1.10699)
(31.3115 47.8897 9.23628)
(0.0705728 0.126732 0.0549199)
(0.962051 1.76283 0.256099)
(0.182715 0.374558 0.0516294)
(0.00463448 0.00826547 0.00283186)
(0.0642251 0.127509 0.0112089)
(0.0108375 0.0228619 0.00201608)
(0.0314161 0.05524 0.019822)
(1.40152e-05 1.88247e-05 4.33473e-06)
(0.000496994 0.000912669 0.000115847)
(4.46956e-05 7.56829e-05 9.25467e-06)
(2.0673e-06 2.15324e-06 -1.01622e-06)
(2.2148e-05 3.99997e-05 3.10605e-06)
(1.99389e-06 3.34041e-06 1.65052e-07)
(1.00719e-05 1.29171e-05 1.03458e-06)
(2.7858e-05 -1.29731e-05 2.1235e-06)
(0.000151746 -4.05051e-05 2.30989e-06)
(0.000116035 -8.50537e-05 2.63827e-06)
(0.0003441 -0.000192828 2.67671e-05)
(0.000140181 -3.851e-05 9.88136e-06)
(0.00010829 -7.85902e-05 7.24822e-06)
(3.01054e-05 -1.3922e-05 5.34337e-07)
(5.66697e-06 -2.73969e-06 4.52991e-07)
(1.46166e-06 -8.96967e-07 2.99136e-08)
(2.35615e-05 -1.51317e-05 5.93228e-07)
(7.2696e-06 -5.42622e-06 2.72326e-07)
(1.37512e-06 -8.50386e-07 6.39595e-08)
(2.22616e-05 -1.46574e-05 1.83437e-06)
(6.11721e-06 -2.88614e-06 1.10247e-07)