/*--------------------------------*- C++ -*----------------------------------*\
  =========                 |
  \\      /  F ield         | OpenFOAM: The Open Source CFD Toolbox
   \\    /   O peration     | Website:  https://openfoam.org
    \\  /    A nd           | Version:  9
     \\/     M anipulation  |
\*---------------------------------------------------------------------------*/
FoamFile
{
    format      ascii;
    class       volScalarField;
    location    "0.00285";
    object      impulseMax;
}
// * * * * * * * * * * * * * * * * * * * * * * * * * * * * * * * * * * * * * //

dimensions      [1 -1 -1 0 0 0 0];

internalField   nonuniform List<scalar> 
21088
(
171.115
131.392
68.608
100.58
1.10463
14.6604
189.383
161.031
194.797
208.655
213.54
168.08
184.479
198.155
94.5841
0.0337497
225.118
185.861
164.824
164.676
197.989
216.513
185.785
181.625
192.874
201.923
103.047
126.152
148.417
164.371
224.458
210.824
210.166
216.617
217.284
202.693
202.021
224.381
201.938
210.114
225.096
210.808
217.242
202.66
215.216
223.107
221.501
200.662
208.88
207.262
198.957
211.329
216.805
219.373
202.483
205.107
196.688
193.914
205.545
210.424
213.839
199.396
195.793
190.631
186.766
207.754
182.444
192.801
198.769
208.514
193.548
183.231
204.679
196.627
206.429
179.1
181.037
191.465
189.653
182.592
207.893
192.913
198.847
208.574
193.603
183.303
115.239
155.8
15.5978
15.4897
115.057
156.6
93.4822
176.804
167.248
194.53
177.532
195.211
186.574
168.024
194.487
167.174
176.765
177.516
195.197
186.54
167.987
7.95662
14.2351
112.976
154.28
88.4594
149.283
79.5001
193.245
165.766
175.453
173.601
191.553
182.67
163.753
197.733
201.968
206.493
186.726
191.596
182.236
176.978
199.573
192.371
202.383
173.313
176.52
187.237
184.267
186.518
171.149
189.298
180.267
157.727
177.287
161.084
287.454
260.755
226.912
244.49
285.888
260.173
212.39
238.115
279.344
267.943
287.324
268.544
279.557
260.835
260.151
287.032
278.14
267.513
268.435
279.299
260.725
259.778
242.461
270.419
251.683
261.408
270.874
252.411
243.207
252.252
238.229
230.474
238.896
252.933
245.186
231.15
261.248
269.575
270.662
252.296
242.155
243.082
251.352
238.864
252.075
252.884
245.114
230.323
244.295
231.094
232.027
283.938
265.328
203.982
249.472
209.231
274.923
243.752
235.08
243.064
211.726
229.262
196.624
229.279
251.292
215.816
281.556
276.221
265.844
273.829
263.831
258.13
256.118
278.486
267.225
258.235
270.777
261.257
253.557
250.525
254.919
267.06
259.285
271.094
263.363
247.135
243.439
256.005
267.689
258.344
240.538
249.722
247.711
238.527
248.805
236.751
250.591
228.958
242.822
241.041
227.253
258.744
262.278
252.99
245.122
232.785
235.894
242.064
230.287
232.895
246.491
238.718
222.362
235.962
225.028
247.353
258.26
262.791
254.957
250.351
239.392
234.958
225.35
241.386
245.6
250.738
254.885
238.626
234.837
219.317
223.978
227.333
237.29
240.703
232.841
229.33
212.606
236.081
221.964
236.772
213.292
227.614
222.636
221.775
226.663
235.865
236.68
213.2
227.5
222.562
218.681
211.015
220.412
225.217
234.413
223.385
232.623
236.882
241.625
246.333
216.136
226.035
220.978
230.649
233.489
220.17
215.86
220.95
207.232
211.818
225.387
213.651
206.869
216.405
220.967
218.066
230.255
227.44
206.75
200.589
210.456
214.71
210.861
224.228
220.57
201.44
206.46
197.58
186.776
192.04
202.485
216.429
192.375
196.267
185.814
169.465
180.731
176.526
164.897
94.265
1.10417
5.6641
129.246
59.0745
141.2
66.7611
183.195
159.932
179.276
153.64
173.707
169.452
148.701
182.639
176.749
187.852
171.617
153.287
165.928
159.548
143.322
176.056
156.213
176.793
144.221
165.617
157.039
175.946
143.163
156.101
176.74
144.143
165.543
156.984
163.169
174.548
141.45
138.96
154.564
172.595
152.347
169.301
154.654
174.688
164.418
135.885
158.533
142.834
154.632
158.193
135.63
170
145.649
166.764
149.394
6.73982
12.523
7.7572
85.7387
125.758
16.2501
76.9411
7.7644
40.9076
55.5789
4.99397
34.5869
13.4674
9.45034
117.751
120.442
11.2753
15.7206
131.257
13.9859
132.943
131.151
131.26
14.192
16.5108
133.126
106.649
96.5224
4.24065
119.488
12.0283
8.30291
107.356
7.09085
109.112
119.268
7.21054
109.227
119.486
12.707
112.56
109.211
9.37236
3.03039
90.0912
3.88975
95.115
77.5161
1.04886
3.28307
6.74491
96.5166
2.52776
82.5326
92.6356
82.5437
3.01534
1.31341
75.4762
74.3242
0.709235
209.917
220.211
211.588
201.329
221.033
222.733
207.304
141.613
197.609
164.067
206.277
165.43
161.935
214.425
152.173
157.139
217.783
225.235
167.34
189.311
222.33
163.667
227.237
193.644
226.801
169.195
210.976
182.418
173.838
210.971
146.117
219.914
160.248
204.132
144.539
135.017
218.704
158.585
212.468
149.027
147.522
152.41
214.787
128.923
200.645
133.903
203.811
130.257
189.935
149.749
209.678
144.376
157.146
198.706
116.121
193.43
132.857
207.334
133.919
193.504
117.209
200.466
138.387
121.532
192.376
114.567
186.138
113.343
110.652
185.981
139.14
115.137
170.193
183.035
102.153
220.765
217.304
217.837
205.221
205.907
202.53
201.868
223.305
224.818
225.42
211.278
208.156
208.876
210.534
222.942
219.199
221.035
206.32
206.317
204.148
208.542
140.832
107.822
108.862
95.1468
159.757
187.717
96.2265
224.371
223.127
222.334
207.807
211.152
208.75
210.169
223.125
224.37
225.24
211.149
207.8
208.741
210.165
226.367
227.901
227
213.044
213.291
212.262
214.081
225.946
227.728
226.807
212.901
212.899
211.89
213.946
103.011
186.551
93.4252
156.224
180.057
94.3437
93.7712
216.967
216.039
218.708
203.571
198.526
201.528
200.427
217.142
220.643
219.919
204.958
202.501
201.718
205.821
220.639
217.133
217.775
204.948
205.81
202.485
201.704
216.963
216.031
214.42
203.563
201.524
200.417
198.52
214.255
211.517
214.782
198.919
194.357
198.272
195.011
211.537
214.197
214.776
198.916
194.335
198.195
195.03
214.897
210.095
212.466
196.197
199.089
196.195
193.392
214.208
211.544
210.978
198.932
198.208
194.343
195.041
213.132
208.39
211.584
193.133
196.962
195.145
191.364
213.139
208.391
209.919
195.15
196.97
193.138
191.366
206.484
207.33
209.676
192.891
186.401
190.135
189.137
207.331
206.485
204.132
192.894
190.136
189.138
186.401
207.857
203.191
203.765
190.023
190.684
185.911
185.244
204.758
202.173
200.65
188.861
187.115
182.365
184.102
204.757
202.166
206.275
188.861
182.36
184.097
187.114
207.898
203.244
207.338
190.049
185.959
185.292
190.726
207.894
203.244
203.812
190.045
190.719
185.957
185.292
204.557
198.054
201.329
183.167
186.901
183.167
179.404
74.0295
92.658
163.255
152.222
176.82
81.7703
82.0257
202.847
196.271
200.465
180.131
184.907
182.162
177.348
202.848
196.274
198.711
182.164
184.908
180.135
177.351
194.271
193.356
189.935
178.894
175.067
174.011
170.081
194.271
193.355
197.609
178.893
170.08
174.009
175.067
198.581
194.055
199.177
180.627
174.015
179.938
174.728
194.107
198.655
199.231
180.679
174.087
180.005
174.779
197.56
190.792
196.011
177.034
172.84
178.796
171.027
191.516
188.73
194.022
174.751
165.682
171.889
168.658
187.417
187.415
159.369
164.551
185.072
161.935
189.889
189.066
166.297
164.703
192.642
190.099
163.67
191.61
191.838
163.684
166.317
192.699
164.671
190.157
167.317
192.638
164.7
189.059
166.295
190.091
191.606
167.338
194.749
168.164
169.286
194.537
170.322
195.651
169.189
194.458
168.09
170.33
194.458
193.372
195.576
169.196
184.418
156.11
178.81
154.591
182.208
180.941
158.587
185.908
156.187
183.219
161.253
182.359
186.857
160.252
186.068
156.131
160.244
161.213
186.883
183.201
157.08
161.248
185.9
186.846
183.208
156.184
182.349
157.136
184.413
156.109
182.205
154.589
180.934
178.806
152.173
190.407
181.433
185.981
165.497
170.626
165.498
160.171
178.383
145.994
151.406
179.158
146.937
152.345
174.613
179.177
147.009
173.843
151.497
178.346
152.41
174.646
172.482
149.926
176.963
174.892
142.13
147.523
170.449
152.935
176.134
179.456
176.133
145.122
149.028
172.871
174.895
149.925
176.969
172.486
142.126
144.535
170.45
151.496
179.189
178.355
173.849
147.006
174.654
146.113
188.518
179.393
185.001
162.08
168.442
164.365
157.787
181.165
187.657
167.343
188.309
181.847
168.087
160.541
188.354
181.208
181.881
167.408
168.132
160.576
159.807
184.912
179.992
178.275
166.107
164.214
158.431
156.421
172.271
164.645
138.971
140.459
144.378
169.047
167.857
172.272
140.458
169.048
138.967
167.857
164.644
135.013
167.46
135.953
159.799
131.389
161.834
138.378
165.444
168.814
140.86
133.012
163.981
163.199
169.598
139.971
167.461
135.962
165.446
159.805
131.404
161.841
128.936
182.757
173.16
176.005
158.58
161.722
153.757
150.381
160.816
135.766
165.243
160.815
124.646
130.255
156.313
176.206
175.139
180.922
159.577
146.709
153.97
152.71
78.0069
95.1435
94.0304
1.42762
5.28952
5.38064
1.44641
153.806
121.523
125.645
128.726
132.748
162.843
159.596
133.829
140.785
139.83
163.128
168.766
169.546
163.926
133.028
140.869
139.98
168.812
169.594
163.983
163.203
128.732
125.657
132.756
159.599
162.846
157.153
153.811
172.994
169.739
165.667
154.754
150.16
146.234
141.214
57.6509
71.6874
63.4573
0.696747
2.28934
0.134775
0.516281
166.202
173.839
174.555
151.889
140.826
151.061
141.738
144.895
116.535
110.648
118.128
123.867
155.688
151.044
117.122
124.985
125.97
149.596
156.801
157.62
150.455
126.063
116.287
125.159
157.681
149.695
156.892
150.516
123.492
120.966
111.964
153.396
148.225
155.487
146.027
118.129
116.542
123.871
155.689
151.045
149.753
144.898
151.033
165.438
173.818
166.201
174.535
151.868
141.735
172.56
162.103
170.74
139.197
149.58
147.403
136.792
104.1
117.591
108.481
150.633
139.388
147.134
143.104
165.295
159.504
168.326
144.491
129.42
140.783
133.554
155.218
127.999
138.141
168.506
160.865
144.673
135.188
132.351
95.9966
103.813
103.815
111.459
145.573
139.141
56.7898
9.72563
57.7595
0.084705
0.794651
0.0896199
0.802725
92.6065
108.206
98.8147
134.822
142.858
137.716
129.32
106.186
96.1672
107.203
131.696
141.309
142.212
132.655
107.28
95.256
106.33
141.405
142.269
132.701
131.774
24.2164
30.7566
55.232
0.0750511
0.725442
0.0350594
0.380537
104.553
101.869
90.6626
139.84
137.494
130.089
127.566
161.621
147.394
157.229
124.311
136.2
130.637
118.135
2108.93
10231.2
8055.19
1828.89
823.812
1862.72
1085.85
2077.02
1899.5
819.037
556.186
499.459
803.325
592.314
10661.5
1228.83
1177.55
1151.03
1999.17
3064.06
1989.09
1101.1
2098.74
2161.86
2590.2
1932.2
132594
8384.66
5231.38
1046.49
2029.92
1977.12
2607.57
130775
4342.89
9370.61
980.749
742.614
1828.95
703.008
988.524
1902.81
847.962
1923.27
692.281
822.084
797.656
1367.42
1528.34
3697.06
1121.16
820.237
1801.06
685.923
1800.38
720.481
956.48
1886.2
669.504
794.86
762.544
1405.03
762.646
1321.03
3887.85
1162.94
1960.87
1058.48
1161.06
3055.29
1755.13
2059.2
975.434
8251.69
2468.42
1901.5
128977
5457.32
8251.09
816.439
699.195
844.19
1490.88
1522.63
4360.18
1160.51
602.52
435.618
444.125
856.089
477.046
486.348
711.096
1226.01
1191.77
498.599
382.892
1757.04
505.482
963.081
828.927
1459.82
767.534
672.073
1056.56
1430.28
3621.63
436.323
527.947
419.369
660.658
454.509
829.85
477.682
2197.94
2001.89
944.275
1998.46
128730
10660.1
5413.25
896.012
486.905
503.856
1238.5
384.898
1780.62
502.595
11512.4
7538.48
5538.95
23932
4537.43
17509.3
16849.4
12997.7
6731.35
8141.12
36608.3
14410.2
11519.9
4327.21
4377.98
1712.25
3243.2
2741.26
2782.07
2190.68
5679.04
1049.34
813.071
736.658
1186.03
721.089
1129.2
1191.23
8365.92
5791.9
5986.5
23087.6
5271.37
27734.9
18327.4
795.234
1114.11
744.887
1416.55
678.011
1390.88
829.943
1051.33
1443.75
1179
962.741
1334.23
950.698
1007.5
1044.28
940.801
1407.4
1152.01
944.297
1319.22
985.929
1277.03
3072.36
1145.13
3054.64
1197.6
1192.05
3005.91
1000.52
1628.71
1585.43
1033.31
1655.17
1039.48
1002.93
4659.92
3545.06
2736.48
1847.61
3195.9
2600.88
6625.39
5264.51
3957.74
3934.69
2053.77
3303.15
10912.5
3368.36
4727.17
3598.36
2890.66
1832.25
3017.41
2526.04
5622.01
18709.7
104685
77160.3
80268.7
79113.7
43469.1
29497.2
12486
6638.02
8084.03
34410.1
15668.5
4469.56
13139.3
8644.86
3694.49
3576.59
14689.2
3212.04
12026.5
12634.1
3390.77
1470.02
1516.85
1448.62
2074.85
2079.31
1850.26
4403.56
2661.66
3306.97
1748.83
2560.61
3044.85
6671.37
4351.74
3152.32
2543.55
1707.6
2535.1
6625.49
3024.97
5049.95
3896.55
3916.34
2041.59
11312.7
3351.38
3366.43
16542.6
72350.9
49045.7
93195
81675.4
49349.4
49938.1
9754.03
4289.84
4176.86
24006.4
3070.82
9335.25
8919.37
12618
6203.21
8034.99
27404
15231.6
4329.24
13592
3305.02
1384.72
1368.76
1467.59
1748.12
1982.82
1972.2
1108.21
777.884
779.148
1183.41
724.915
1110.91
1131.74
1229.52
1004.41
2125.67
1324.04
1786.16
917.06
1315.15
1256.64
1063.8
2362
1406.77
1838.36
1342.5
918.332
1521.13
2034.63
2992.36
3071.81
2672.17
1712.94
1847.98
1030.07
750.871
722.585
1176.32
683.527
1113.61
1030.31
1178.65
1350.37
994.556
2170.96
868.115
1704.79
1211.52
1174.4
1265.75
978.642
2036.58
1254.12
879.876
1686.73
1405.18
1844.75
2720.12
2727.89
1734.34
2448.74
1701.36
977.635
933.996
1098.88
1312.03
919.928
1299.35
994.271
975.713
1098.74
1312.37
937.863
992.359
914.013
1298.64
1233.29
3045
1136.16
3030
1189.08
1186.69
2980.4
973.438
1698.97
1696.78
1068.08
975.236
1407.17
967.849
3042.7
1329.33
1441.38
1328.4
1922.62
1922.85
1771.43
10385.3
5844.38
7195.78
30013.1
4021.28
13390.9
15463
4666.22
1906.27
3538.5
3537.88
3070.4
3070.17
10102.8
4377.71
1711.96
2742.52
3243.49
5678.02
2782.83
2190.91
20535.6
100522
97219.3
100521
28568.6
28568.9
68541.8
6957.79
3523.15
3526.27
13142.5
12930.6
3194.81
12932.2
10385.2
7195.22
5844.41
30013.3
13390.6
4020.99
15463.1
1138.87
784.46
791.236
1259.49
738.998
1146.7
1197.54
1286.23
1068.48
2292.74
1404.06
1890.1
959.673
1368.55
1271.02
1051.01
2348.87
1418.25
1871.1
1330.42
920.79
1582.43
2024.47
3025.35
3081.98
2780.51
1886.84
1883.28
828.385
1452.72
753.633
1209.56
1355.76
709.646
812.127
820.634
718.904
1389.63
1171.41
1360.27
811.281
698.487
607.966
399.239
566.112
400.485
575.493
592.189
403.286
894.298
1704.46
1698.39
930.455
1577.45
901.991
893.603
1149.68
947.366
1279.33
1985.38
873.451
1310.63
1895.85
1174.24
1015.33
1268.76
2068.91
1412.9
913.022
1892.79
1603.73
2147.1
3348.39
3384.36
1635.15
1782.2
2368.65
6354.86
4385.58
2028.17
4386.13
2816.53
7215.25
2816.44
5258.27
3782.64
1826.37
3068.04
2713.19
2314.8
5668.97
2865.14
1347.83
1295.32
1295.22
2029.98
2030.52
1838.71
5257.55
1825.75
3781
3061.42
5669.27
2713.39
2312.72
33534.6
103320
103320
96501.4
26291.8
36747.8
26291.4
8365.31
5791.8
5985.29
23087.5
18325.7
27734.8
5270.79
6862.06
3629.22
3629.35
13462
13594.2
3617.85
13593.8
797.177
1109.87
1411.45
734.849
844.816
679.61
1390.6
603.13
404.367
577.745
402.954
604.429
591.118
404.969
925.901
1789.49
1791.32
962.697
912.727
1524.61
913.709
358.022
1724.53
1828.39
725.947
1703.95
388.745
1894.31
1323.54
539.324
903.357
559.058
536.509
435.149
553.734
443.912
477.543
357.18
395.514
544.966
376.633
521.822
480.308
961.729
1867.79
828.383
687.774
1802.26
721.431
1803.58
1088.3
3887.39
1404.46
664.027
764.217
792.606
761.234
1172.07
1265.18
2035.72
979.06
881.044
1254.61
1686.52
1403.64
2727.87
2719.38
1844.2
1735.79
1700.79
2448.42
1174.73
1348.44
2169.59
992.441
863.342
1211
1703.51
1033.71
1177.52
761.184
723.952
679.595
1101.61
1028.75
342.594
331.827
314.151
422.56
357.519
407.117
379.863
707.843
1793.4
630.005
630.588
1774.82
584.263
1794.45
1716.54
544.866
541.006
594.319
1745.61
606.831
1755.83
1722.59
539.976
540.093
573.427
1751.46
554.176
1760.25
323.956
342.778
320.064
1687.94
1538.19
1666.86
334.6
1541.3
266.046
316.914
304.827
285.725
325.649
344.902
282.562
313.436
325.921
313.156
299.055
304.33
281.572
308.624
273.31
312.704
337.641
327.529
299.057
291.515
284.249
304.163
324.47
293.339
291.29
309.487
279.866
274.827
318.919
299.929
321.757
315.542
300.943
287.614
284.575
303.333
1679.53
517.785
518.711
519.846
1631.49
516.118
1643.09
339.384
338.555
341.123
316.045
327.159
319.236
325.616
280.477
271.37
268.303
285.465
276.671
271.77
288.831
308.385
309.007
263.165
300.068
268.976
301.731
263.421
337.665
334.23
341.686
319.188
334.6
330.114
321.77
1688.75
527.717
541.111
533.411
1648.83
553.472
1649.41
338.78
280.063
268.79
308.615
276.262
267.377
323.487
557.848
1544.4
564.509
535.795
1593.56
531.002
1602.36
279.727
292.962
272.501
289.986
281.393
275.029
296.201
312.52
298.065
296.507
302.781
318.251
305.106
317.193
581.804
1518.48
608.188
551.39
1595.81
575.718
1603.66
322.409
301.222
307.436
307.523
327.797
322.027
312.98
352.243
343.851
873.94
396.05
406.213
389.316
3620.18
828.713
550.219
518.947
696.963
520.688
432.039
557.989
428.892
484.904
372.076
405.872
567.405
384.695
495.889
542.809
1459.99
1468.99
1055.57
671.109
806.727
768.262
828.4
660.672
453.768
476.742
527.628
435.288
591.525
418.815
1605.35
3348.49
3388.77
2147.29
1635.46
1786.93
2370.13
1150.11
1986.56
1279.33
949.224
1310.85
875.378
1896.84
1172.09
2067.62
1269.06
1020.8
912.611
1410.34
1890.89
1049.22
1184.42
735.83
780.975
1128.36
722.297
1191.65
322.29
358.018
336.043
420.566
362.605
415.502
370.887
456.808
524.434
423.66
456.604
376.479
395.77
406.503
377.552
357.842
362.53
440.547
394.942
463.232
384.277
364.41
350.649
356.223
402.642
363.249
374.117
373.269
222.285
210.03
256.37
248.236
261.247
231.604
261.35
210.198
253.836
261.653
253.922
222.352
210.279
252.864
221.419
259.823
216.408
209.212
247.521
203.537
213.872
203.38
250.668
234.537
189.299
244.84
200.718
259.925
261.516
260.187
248.611
248.889
246.957
246.604
244.086
185.872
204.997
249.397
205.061
231.563
202.21
261.667
260.119
260.286
248.813
248.984
247.034
246.736
203.956
224.178
242.571
230.309
177.07
198.047
201.013
260.721
259.448
258.559
248.227
247.441
245.969
244.939
258.4
255.504
257.285
244.769
246.326
243.563
241.728
257.391
254.297
257.75
244.047
239.808
243.634
240.285
257.522
254.363
257.828
244.116
239.892
243.739
240.348
253.788
253.167
242.687
250.335
240.081
239.394
236.597
256.635
251.534
255.485
238.849
242.817
241.612
237.517
159.132
223.636
183.226
218.049
239.842
173.635
195.136
249.782
251.863
253.928
240.022
233.597
237.987
235.782
247.049
243.325
247.048
233.35
236.969
233.348
229.637
235.846
222.752
236.218
233.499
218.819
233.072
219.313
222.8
235.97
236.287
233.566
218.897
219.369
233.178
235.197
220.121
234.135
217.92
232.302
231.114
216.58
249.295
241.789
246.311
230.992
235.475
232.556
227.998
249.343
249.891
244.684
235.239
235.761
230.568
229.992
249.946
244.11
244.726
235.301
235.818
230.611
230.029
246.808
242.89
241.403
234.18
232.768
228.87
227.42
218.481
230.946
232.754
229.584
212.692
227.615
214.864
230.057
214.789
225.436
210.749
229.595
215.316
225.949
230.123
210.808
225.522
214.876
215.378
229.694
226.012
244.928
237.026
239.436
228.652
230.937
225.502
223.132
224.479
213.86
228.724
227.44
207.777
223.115
212.468
228.67
210.866
225.93
210.051
225.181
222.297
206.96
239.15
238.362
242.932
229.224
220.76
225.442
224.606
225.782
208.404
205.898
219.12
223.665
221.349
210.671
236.757
234.268
225.977
231.141
222.922
220.398
217.264
238.144
232.262
238.789
224.706
217.491
224.086
218.135
232.26
238.141
238.809
224.73
217.468
224.093
218.139
236.903
228.747
235.374
216.261
222.91
221.413
214.711
207.379
218.95
222.685
218.948
199.278
215.125
203.379
205.673
216.473
221.103
218.121
197.437
213.409
202.492
220.628
205.585
221.182
215.765
199.149
215.183
199.773
205.635
220.69
221.234
215.805
199.194
215.225
199.809
226.675
230.901
233.353
219.421
210.132
216.986
212.646
219.596
202.467
218.177
198.051
214.097
212.624
196.499
229.394
233.276
227.606
215.509
219.457
213.694
209.593
200.501
213.997
216.317
210.677
191.883
208.272
194.439
221.319
228.108
224.921
207.205
214.179
210.932
203.806
214.693
194.615
205.869
193.657
210.778
209.887
198.825
202.878
202.225
185.181
209.702
192.583
209.079
193.242
185.175
185.876
202.882
209.725
192.605
209.093
193.265
211.259
191.737
208.101
188.847
205.443
202.167
185.285
183.936
191.419
207.932
206.404
182.21
199.417
189.79
214.311
217.218
221.317
207.203
195.323
202.906
199.873
204.363
194.658
184.942
179.92
201.859
197.281
187.627
200.312
187.791
204.479
198.384
176.29
194.01
181.124
276.546
309.64
275.37
322.775
273.068
307.926
323.665
274.465
324.334
324.41
325.587
307.937
309.1
309.061
308.136
309.165
325.103
324.88
324.91
325.416
309.36
309.072
323.261
324.397
325.184
308.326
306.625
306.948
307.649
323.811
305.6
321.774
322.863
324.62
308.138
306.375
275.972
290.848
291.767
291.855
275.72
291.14
276.163
292.535
276.297
292.273
276.177
292.068
291.955
276.148
291.403
275.509
274.469
290.029
290.182
290.904
275.761
275.214
291.141
288.925
291.255
273.854
289.635
275.498
345.654
376.832
270.645
319.357
307.757
331.489
381.216
399.685
385.365
376.348
327.643
313.937
267.663
316.91
273.561
309.61
276.505
272.948
307.076
365.583
325.756
311.559
356.854
362.655
300.477
315.583
395.653
421.809
410.716
413.682
404.463
379.781
388.422
370.296
399.203
389.944
388.926
395.668
372.998
368.762
382.524
375.275
383.229
376.902
360.589
364.953
360.328
299.076
330.439
282.261
349.397
357.925
296.047
311.441
308.853
324.489
323.72
323.353
309.184
322.11
307.778
264.22
302.584
312.744
291.799
260.662
300.981
272.013
368.565
363.624
349.965
370.244
355.307
354.765
348.674
319.992
305.615
321.894
307.961
319.967
305.599
302.094
335.883
360.239
365.621
330.707
357.174
353.374
327.542
385.6
386.272
391.459
368.546
359.232
365.106
362.222
374.121
381.761
406.993
391.958
398.729
374.169
367.09
328.743
351.656
348.834
349.312
324.768
347.11
326.063
322.329
303.955
319.784
316.636
320.025
305.083
301.108
381.437
371.273
375.615
355.765
361.613
357.098
351.333
346.036
323.205
342.594
322.584
344.332
340.71
319.642
353.668
357.517
344.989
351.719
340.422
342.788
337.316
275.258
276.717
292.784
276.08
292.175
292.645
291.326
312.728
312.573
316.892
301.896
292.942
297.788
297.323
364.425
361.628
368.851
351.376
339.289
344.971
345.658
319.706
333.531
338.271
335.99
311.464
330.693
315.834
316.928
301.921
312.612
307.779
297.798
297.348
292.955
349.591
331.901
341.516
346.433
336.075
332.142
327.276
270.925
275.527
273.553
289.402
291.625
289.391
286.269
346.809
326.015
354.174
348.269
316.559
322.753
341.463
344.955
315.437
336.592
320.015
342.827
321.456
338.628
269.742
271.75
274.445
290.435
287.502
288.76
285.119
354.597
342.443
347.914
332.988
338.686
332.738
326.98
328.87
307.306
324.397
307.108
325.463
320.489
302.784
333.732
317.654
339.981
336.299
308.594
330.091
314.645
307.847
297.309
302.592
288.288
293.199
288.291
283.448
307.231
296.155
302.168
286.227
292.054
287.651
282.041
267.666
286.011
282.453
267.099
281.94
278.181
263.931
263.929
270.635
267.091
285.994
278.174
282.447
281.925
331.511
304.806
320.151
306.41
326.089
325.437
310.783
315.861
303.195
320.08
315.738
294.14
311.126
298.485
336.327
336.154
341.869
327.177
315.956
321.951
321.329
307.107
309.597
287.464
286.557
297.97
299.046
269.918
269.36
302.504
301.678
298.782
305.872
301.394
298.445
301.46
306.925
304.575
302.025
299.452
304.689
301.833
302.615
299.811
296.851
297.94
296.063
296.089
298.313
294.125
296.076
295.084
298.523
297.674
298.155
295.336
293.7
282.541
270.683
282.553
269.311
284.402
280.9
269.918
272.523
273.472
289.027
285.033
272.017
286.913
271.029
286.579
272.117
272.198
270.967
284.436
284.243
270.802
269.972
282.332
281.21
281.839
269.142
280.385
269.756
291.168
453.449
516.247
317.007
473.088
326.703
513.974
287.667
464.321
1184.25
335.744
356.705
442.867
322.067
510.019
295.903
455.847
480.416
399.178
404.572
354.041
703.588
585.218
442.856
722.597
1022.73
547.003
456.158
292.545
285.78
288.68
321.567
312.491
301.561
307.481
401.607
422.45
440.848
395.968
407.307
364.901
471.048
316.818
303.235
289.781
285.604
288.612
312.02
301.051
302.237
313.718
298.826
321.955
378.879
336.111
364.565
360.075
314.034
299.118
313.373
298.421
322.893
356.894
395.623
398.471
400.334
397.239
364.872
371.866
370.473
329.887
319.076
294.707
309.551
301.652
348.652
373.927
520.822
333.677
390.802
355.838
476.345
431.08
549.56
697.399
710.945
1045.27
1141.54
707.533
712.652
1007.55
365.936
317.575
302.779
321.672
307.79
351.416
373.664
275.234
309.704
276.728
322.165
276.097
309.143
276.215
428.602
513.024
407.105
398.728
481.288
409.187
479.205
479.993
417.175
404.689
511.789
403.843
398.006
479.963
330.916
376.484
338.964
383.884
400.065
428.994
422.43
349.564
413.634
396.615
422.038
408.861
438.575
449.997
336.318
361.501
315.521
384.33
449.564
422.923
404.672
395.996
567.262
521.72
512.539
479.325
580.538
603.704
405.204
471.582
442.81
468.989
418.576
465.773
432.857
460.649
410.061
428.228
406.417
463.089
465.71
426.417
330.291
348.787
317.246
372.695
379.551
383.086
380.766
337.215
376.923
347.775
381.18
397.977
415.742
405.342
473.539
440.812
416.067
426.912
501.433
464.714
462.849
619.658
562.594
490.312
561.477
518.239
600.608
621.513
1085.74
721.676
716.785
711.592
908.673
707.261
960.897
374.727
374.776
343.124
387.854
365.622
363.491
366.204
451.184
413.935
427.353
415.282
435.163
442.306
419.737
919.263
683.08
811.748
699.737
787.814
675.992
889.044
441.201
460.819
446.278
446.618
439.028
447.583
438.571
429.219
443.632
429.613
441.289
435.136
450.501
426.436
405.526
416.517
416.771
431.296
407.556
422.34
416.494
460.906
467.198
453.416
454.357
459.419
460.947
454.521
359.358
370.874
378.218
379.819
390.337
391.002
379.34
319.122
323.129
324.214
308.564
309.476
309.342
309.676
429.987
489.185
469.026
442.032
473.017
426.889
450.748
396.179
386.538
392.317
399.226
412.377
400.162
390.208
324.37
291.033
288.436
319.081
315.993
289.261
309.104
275.432
313.266
304.596
311.963
318.239
304.365
306.492
306.609
313.163
321.496
319.283
307.286
305.49
307.446
308.865
409.511
417.453
416.912
393.875
402.002
427.191
405.976
693.26
757.51
808.754
652.56
683.211
665.771
851.434
553.609
536.917
534.048
611.723
612.942
615.541
618.724
434.302
426.672
420.589
428.43
427.683
413.1
415.362
309.79
323.692
324.58
324.268
309.683
324.619
309.818
322.469
323.848
321.968
307.273
308.025
307.477
307.703
325.628
309.169
324.408
324.502
322.869
308.039
308.228
366.464
367.925
373.778
367.255
373.325
373.351
371.349
433.172
420.986
407.719
406.115
428.718
424.532
413.459
441.399
414.872
429.263
442.401
448.151
436.004
421.579
410.045
390.037
403.445
398.081
391.204
386.908
402.307
377.249
372.754
381.507
387.65
373.994
378.712
381.372
325.505
309.445
325.007
324.967
325.196
309.702
309.218
690.32
428.836
566.354
820.872
1211.04
706.061
570.933
422.951
323.63
314.99
415.583
491.133
376.597
506.843
363.178
499.778
319.917
370.115
314.468
414.531
489.795
362.036
1196.68
1214.81
682.939
706.037
1058.77
709.662
1076.37
688.533
708.443
1070.46
1221.73
683.288
706.427
1081.89
564.891
477.49
621.558
554.744
578.048
613.735
454.287
615.162
556.985
464.302
563.17
551.083
611.861
450.871
706.542
930.392
688.522
832.371
706.867
690.074
945.314
939.742
687.656
828.051
706.763
835.866
689.984
949.638
412.499
399.037
414.491
403.069
388.577
402.922
391.071
307.813
323.389
309.207
323.799
324.558
309.653
308.9
368.286
363.097
366.727
368.163
372.926
368.8
362.742
273.502
274.503
289.785
288.428
273.431
274.439
289.729
273.857
274.77
274.668
275.428
290.563
291.425
290.362
275.758
291.385
291.857
276.286
275.801
292.053
292.395
371.811
369.67
369.138
375.883
374.88
370.38
368.945
382.309
381.844
379.383
381.795
378.737
374.277
374.515
391.902
380.428
383.35
374.631
382.88
392.88
382.65
276.308
292.462
276.845
276.721
292.773
292.922
292.788
275.184
290.589
275.572
275.116
275.531
290.413
290.847
276.01
275.784
276.198
291.895
291.82
290.931
291.217
276.187
292.007
292.126
276.318
276.565
292.57
292.304
364.265
360.073
365.965
365.339
353.17
361.864
357.788
374.317
367.165
375.272
368.822
355.835
366.495
360.257
567.755
513.751
384.638
399.937
294.002
318.616
338.582
299.497
545.484
497.597
486.404
407.163
373.343
406.127
385.678
573.929
498.332
545.538
406.683
381.969
408.638
388.429
1605.72
317.009
358.111
377.902
441.012
395.687
464.908
390.228
363.091
395.543
364.709
450.342
382.841
468.496
389.942
365.123
304.088
288.156
301.008
317.323
330.36
337.434
328.637
328.194
284.997
313.698
291.739
304.495
338.267
325.761
300.8
1347.01
288.878
276.604
543.142
609.073
335.216
285.768
310.796
275.235
278.756
314.957
278.01
313.749
327.135
318.266
328.692
343.2
342.442
344.549
342.003
325.508
316.069
339.558
319.285
327.024
345.28
341.237
272.405
276.907
289.007
282.685
268.834
280.683
271.789
264.104
269.406
302.579
309.092
263.715
309.534
266.713
273.461
309.685
309.809
313.477
270.164
271.464
316.002
288.729
275.454
287.318
282.451
271.587
272.925
282.218
1767.07
1756.45
480.938
546.257
1638.72
286.739
273.841
1646.59
522.094
548.623
481.105
396.721
358.565
378.299
388.175
503.186
518.759
566.578
416.255
384.411
405.47
397.213
626.577
1774.41
609.974
561.553
1726.96
1717.92
556.935
594.959
1747.02
607.347
545.553
1719.11
541.934
1706.97
350.171
317.195
316.842
292.045
326.357
319.919
342.227
335.458
299.694
282.019
305.116
326.982
313.34
309.297
530.517
1681.89
530.125
1633.09
524.963
1673.89
532.147
518.496
1682.95
1635.06
520.605
519.632
516.906
1670.52
1596.86
536.482
531.788
558.564
1547.35
565.075
1544.08
302.714
304.982
317.965
297.879
312.352
296.418
313.123
1592.41
1591.26
536.407
569.51
1530.47
560.571
1535.91
319.562
304.698
298.625
304.441
317.874
297.616
313.046
327.552
271.528
366.221
286.335
330.548
271.95
360.252
370.999
292.703
276.249
329.855
287.669
274.634
361.473
281.649
270.302
283.561
275.339
280.741
271.923
283.273
282.365
273.063
285.437
281.429
275.627
272.522
283.14
1443.94
652.836
1330.35
598.784
1346.24
643.925
1455.28
295.318
310.455
295.357
310.655
294.523
310.83
295.34
313.221
297.046
298.085
295.314
310.932
310.936
295.537
598.365
1461.54
650.751
1354.36
605.828
643.911
1463.73
455.262
1606.69
360.744
322.03
313.837
1576.46
344.815
323.612
1324.01
299.877
1151.46
384.156
300.453
340.672
290.302
314.435
280.328
333.691
333.054
308.98
276.624
267.832
269.118
320.31
338.751
280.341
296.527
281.757
275.566
272.961
285.973
280.17
293.272
339.798
288.266
310.94
344.622
343.981
332.507
338.599
1598.21
575.931
551.83
1540.86
582.109
608.274
1520.66
327.923
307.636
313.196
316.924
301.301
307.645
322.539
547.179
1129.73
842.05
1458.61
405.709
1073.84
448.576
378.866
400.009