/*--------------------------------*- C++ -*----------------------------------*\
  =========                 |
  \\      /  F ield         | OpenFOAM: The Open Source CFD Toolbox
   \\    /   O peration     | Website:  https://openfoam.org
    \\  /    A nd           | Version:  9
     \\/     M anipulation  |
\*---------------------------------------------------------------------------*/
FoamFile
{
    format      ascii;
    class       surfaceScalarField;
    location    "0.00125";
    object      phi;
}
// * * * * * * * * * * * * * * * * * * * * * * * * * * * * * * * * * * * * * //

dimensions      [0 3 -1 0 0 0 0];

internalField   nonuniform List<scalar> 
29925
(
0.302681
-5.59089
1.94505
-1.57948
5.69142
-0.0365398
-1.51418
-5.6994
2.07643
1.8596
-1.71328
5.63231
-0.875542
-5.68148
2.00675
1.18681
-1.64352
5.70928
1.09344
-0.807409
2.06687
3.6668
-2.90954
-1.77781
0.29303
1.97669
3.26446
-2.46349
-1.74722
0.0228268
1.22691
-2.67215
-0.92199
4.21352
-3.47945
1.24678
-2.75272
-5.60787
-0.917114
5.29547
-2.55499
0.32157
3.93307
-3.13604
0.00116407
-2.70066
0.289692
-5.54224
5.4037
-0.00845182
-5.40182
-2.27467
5.54971
-2.35872
2.67047
-1.7691
2.08714
2.12453
4.12376
-1.83346
-3.49218
1.42714
2.0887
3.82487
-3.13338
-1.7785
5.24601
-4.77278
-2.95784
-2.39003
-2.67871
1.52963
4.30667
-3.5558
-3.07724
5.16389
-2.48675
-2.76398
-5.57982
1.5762
5.15121
2.02807
3.34446
0.552748
-2.53594
-1.78111
0.296692
3.52883
2.26161
-2.72213
0.00294372
3.61449
0.569698
2.31811
-2.81885
0.322665
2.04569
4.40343
-1.78215
0.00187552
2.08425
0.617109
4.48539
-1.81134
-0.332275
0.63759
2.3735
4.76367
2.33018
4.68256
-0.00499589
2.0525
3.50567
-2.69838
-1.79195
-0.849386
3.87495
1.15754
2.37658
-3.16296
3.73947
2.35307
-2.97051
-0.913916
2.12791
1.22797
4.74239
-1.83182
2.11154
4.61372
-1.83118
0.941054
2.40895
4.87062
1.2528
2.43015
5.00697
2.11747
3.99676
-3.37228
-1.80231
1.48209
4.01463
2.39593
-3.37162
1.54952
2.14365
4.8966
-1.83692
4.13215
1.79427
2.40604
-3.49574
2.16128
1.8703
5.16239
-1.85383
1.57107
2.44906
5.19331
1.89087
2.47298
5.29263
0.307726
3.73379
-2.93097
-0.00259498
-2.61572
4.02109
0.621209
-3.23445
3.83312
0.600419
-3.05829
2.68636
-0.33565
0.65022
5.12016
0.338791
-2.63875
5.21948
0.00154438
0.659403
5.27979
5.03882
-0.00397979
-0.899779
4.05275
1.20575
-3.36589
-2.65706
4.12391
-3.37041
3.94667
-3.21988
2.72338
0.962004
5.19015
-0.976296
-2.74704
1.2961
5.37354
5.3338
1.27169
5.2562
2.10865
4.21807
-3.53705
-1.83022
-2.09281
4.31592
2.38907
-3.55186
4.21684
2.39833
-3.54454
-2.19243
2.19277
5.36941
-1.87069
2.1761
5.28582
-1.86663
2.22339
2.49946
5.36631
2.54642
-5.62737
1.96263
0.580694
-1.59308
5.71265
0.325362
2.04779
-1.72855
-0.0159653
2.07873
0.628904
-1.7513
-0.332773
5.66997
0.644697
2.43114
-5.63612
0.30222
2.32205
5.66247
-0.0274873
2.39653
-0.0152889
0.591188
2.3422
5.68302
1.50625
4.15581
-3.48817
-2.67871
4.40432
1.83958
-3.59138
4.24149
1.8045
-3.54385
-2.77375
1.63106
5.40598
1.58845
5.3211
2.81224
1.92337
5.37944
1.99336
5.40889
-5.66426
1.98535
-1.61927
5.72409
-0.935714
2.12984
1.25553
-1.79151
2.10782
-1.77742
5.69413
0.955386
2.46371
-0.894772
-5.69878
1.2139
2.38323
5.65942
2.36359
5.68574
1.27843
2.48807
-5.6954
2.03763
-1.6753
5.6824
1.5887
2.15705
-1.81102
2.19038
1.93781
-1.83961
-5.69085
1.5508
2.40827
5.60681
1.62055
2.52323
5.62771
1.9824
2.56146
1.89575
2.43768
5.51332
-2.69463
-2.16451
-3.65377
-4.47425
-2.28653
5.3671
-2.10818
-3.57536
-2.67698
4.53227
-3.61448
4.33339
-3.56026
2.86977
5.40283
5.35949
2.81829
-0.331702
5.66345
0.651414
-5.63283
0.298012
5.57761
-0.0178711
-5.58622
-2.72255
0.59546
5.41197
0.32753
-2.78279
-0.0038865
0.65671
-0.01075
0.596556
5.59392
2.85182
5.67519
0.971246
-0.910866
-5.65672
1.23765
5.5314
-0.990546
-2.87439
1.33751
-5.6115
-2.7402
5.38061
5.58276
1.30328
5.61766
-2.30372
-1.90073
-2.12786
-2.23065
2.4296
5.07418
-2.20653
-1.786
5.3298
-5.63819
2.11153
-1.75482
5.52557
2.2296
-1.86708
5.6215
2.61087
2.45288
5.34646
-5.61851
1.57455
5.44161
-2.90967
1.70374
1.65837
2.95942
5.61002
2.03144
-5.50547
-2.76661
1.88014
4.92529
2.09376
1.9116
5.29013
5.40187
-2.42397
2.64122
-2.21203
4.66635
-2.1215
3.86264
3.0235
5.54167
-5.37132
-2.73402
4.56293
5.0476
1.89292
-2.06364
-0.458075
-4.32052
-0.913603
-0.835818
-0.837904
-0.90026
-0.308895
-0.260549
-0.259202
-0.305108
2.55173
0.441764
0.509452
0.499113
0.514233
0.491577
-0.0700689
-0.104445
-0.0679414
-0.119293
0.159683
0.209848
-1.42209
-0.602056
1.30175
-0.0143493
2.01295
-0.544714
-0.745799
1.24938
1.41839
1.94965
-2.10685
-0.816773
1.57421
-1.0188
0.558868
-0.386476
1.24382
-0.394236
0.559892
-4.18463
-3.33979
4.40028
-1.15191
2.21611
2.18624
0.61018
-2.01122
1.04283
-0.354404
0.112005
1.03605
1.04138
1.03074
-0.350076
-0.323308
-0.337892
-0.670652
-2.42096
4.1261
2.00687
-0.441201
-1.17054
2.02992
-1.88987
0.184611
4.22678
0.123582
4.16268
-1.40968
-0.97667
0.170357
-0.50186
0.00587897
0.644282
1.24207
0.14573
-1.16176
-3.32806
-0.650648
0.72533
-0.489137
-1.16507
0.77478
-0.0123253
0.119209
-1.08489
-0.971013
0.535357
-0.00153011
-0.856272
-0.795957
-0.799723
-0.864958
1.1772
1.13706
1.17952
1.1281
-0.757935
-0.0157318
-1.32745
0.20234
0.867294
1.13513
-0.553036
-0.303077
-0.288855
-0.295592
-0.311381
1.19927
1.20555
1.24533
1.16437
-0.553412
-0.600923
-0.60795
1.06077
0.020669
-0.271043
0.0564783
-0.806908
1.99286
-0.453094
1.06093
-0.807018
-0.273208
0.0550418
0.0220634
0.0404736
0.0417901
0.25358
0.0386662
0.0428014
1.19033
0.0177522
0.086089
0.0877943
-0.932263
0.0185914
1.0111
-0.155428
-0.145245
-0.179139
-0.146708
-0.153199
-0.143344
-0.144469
-0.177187
1.02424
1.02435
1.03955
0.15731
0.509381
0.499075
0.491371
0.5142
-0.0664637
-0.101123
-0.0647139
-0.115477
0.00631136
-0.368345
1.28388
0.0930036
-0.539715
-0.540712
-1.24592
0.955427
1.28432
-0.370091
0.0917379
0.0077391
-0.0127634
0.217215
-1.60794
0.216391
1.56686
-0.0120938
0.00605041
0.127036
0.12845
1.40959
0.00692338
-0.015577
-1.42132
0.211132
-0.59964
1.30172
-0.380699
1.22986
-0.379041
1.46432
1.03421
1.03088
1.04776
-0.168784
-0.158428
-0.19479
-0.159335
-0.211906
-0.187209
-0.235217
-0.18819
1.57785
0.514072
0.505377
0.499278
0.51886
-0.137902
-0.173118
-0.129082
-0.18587
1.18254
0.0658816
1.06821
0.0690546
-0.813156
-0.304774
0.38619
0.00961571
0.358134
1.06128
0.0973323
-0.274466
-0.806388
0.119745
0.252354
0.0536233
0.0323101
1.19137
0.123072
0.0891368
-0.932378
0.0154423
1.0013
0.512871
0.499637
0.515509
0.496304
-0.0789692
-0.113439
-0.0715905
-0.12739
-2.45745
-0.910331
1.77563
2.03908
-0.764096
1.45607
-0.819493
4.23439
1.67609
2.19621
-2.01899
1.04486
-0.355396
-0.330675
-0.34446
1.04864
1.0373
1.03627
2.03479
-1.89615
4.24149
0.0984086
1.28991
-0.380605
0.512555
0.00240747
0.649928
-1.27199
-0.533796
-0.507752
0.627176
1.02532
-1.43359
0.203671
-0.567693
0.725449
1.33156
-0.0117567
0.502011
0.105903
-0.367979
1.2835
0.190678
-1.6104
0.214309
1.56854
-0.0110939
0.139872
0.127893
1.41102
0.00567424
0.752474
0.178122
-1.41901
-0.595532
1.29885
-0.604367
-0.557074
-0.610879
1.21857
1.23319
1.19546
1.26177
-0.29466
-0.296227
-0.305619
-0.304674
2.28345
-0.915235
-0.839938
-0.9046
-0.843449
-0.286816
-0.236347
-0.284545
-0.234418
2.16074
2.79677
-1.20232
0.729513
-0.460767
0.555624
0.866455
0.158429
0.645768
1.24264
0.0938205
-1.09055
-0.968364
0.545611
-0.85637
-0.797078
-0.863286
-0.803303
1.19059
1.14194
1.18346
1.14085
0.168592
-1.32649
0.859755
1.13503
-0.209572
1.44756
0.551995
0.3931
-1.43459
-0.382584
-0.588643
-1.39141
0.403509
1.26723
-0.565714
0.195475
-1.41782
-0.012625
-1.48573
0.223748
-0.41434
1.41011
-0.0149848
-1.46924
-0.387936
-0.0134007
0.417672
-0.408942
1.35945
0.378646
-1.39044
0.468565
-1.2455
0.480657
-0.327709
1.36369
-0.316452
1.24455
-0.411192
-0.217701
0.558578
-0.462925
-0.450268
1.29535
0.594536
-0.404122
1.24283
-0.224986
-0.302111
1.34266
0.6021
-0.256398
-0.263646
1.33532
-0.290938
-1.23488
-0.744612
-0.155353
1.26681
0.15266
1.23514
0.00789499
0.169405
0.760183
1.33731
-0.623156
-0.00792875
0.625404
1.24821
-0.47011
1.32661
-0.601368
1.27288
-0.00774272
1.15671
-0.832221
0.501246
-0.316564
-0.427637
-1.12354
0.677137
0.787027
-1.21611
-0.388027
-0.721586
0.922347
-0.535723
0.795086
-0.637941
-0.323001
0.744904
-0.374396
-0.700766
1.10857
-0.190634
1.01596
-0.900911
-0.94981
-1.07409
0.548521
-1.03525
0.19218
-0.00997996
0.123013
-1.11596
-0.939768
-0.0150775
0.65815
-0.905753
0.651928
-0.933124
-0.0119853
1.22802
-0.818101
-0.158733
0.195167
0.845943
-0.720981
-0.0145024
0.832854
-1.31192
-0.737683
1.10798
0.164058
-1.24037
-0.0180735
0.902899
0.835397
-0.706003
-0.015357
0.218538
0.818416
-0.0730608
-0.0915899
0.0586902
-0.830036
-0.190717
1.08283
0.0206127
-0.797156
-0.254967
1.04443
0.0859445
-0.225882
0.0318808
-0.156409
1.06333
-0.122248
0.0330811
-0.0715013
0.818453
0.221481
-0.0945074
-0.229229
0.0845489
0.0330661
-0.830205
0.0568667
-0.19262
1.08345
0.021758
-0.256801
-0.797345
1.04445
-0.12493
0.0338912
-0.158365
1.06319
-0.000471623
-0.00330991
-0.241981
0.540475
0.247147
0.0478403
0.0403117
-0.00169573
-0.0045005
0.590559
0.0332569
0.0348508
0.247372
0.051097
0.0375006
0.566372
0.0374407
0.566596
0.0356042
-0.0233596
0.854096
-0.0257793
0.0647657
-0.886346
1.14175
0.0190546
-0.886421
0.063088
1.14214
0.0201766
0.0389999
0.0368122
0.027772
0.0287023
0.0328906
1.10775
0.0318745
0.45384
-1.28441
-0.170794
-0.311209
1.43406
0.330952
0.116597
1.30794
-0.251795
0.00483396
0.149676
-0.470355
1.41709
-0.00661084
1.26434
-0.353796
0.211859
1.39013
0.304323
-0.233088
0.251463
-0.321142
1.46765
-0.00722842
0.561207
1.36331
0.562255
-0.394395
-1.35934
-0.590829
-1.31532
1.14184
-1.31499
-0.589767
-0.404647
1.14142
-0.520853
-0.519757
-1.27368
-0.37989
-1.32571
-0.418822
1.24153
-1.32599
-0.169082
-1.28447
0.45487
-0.312511
0.329439
-0.472354
0.14825
-0.00514058
1.30908
0.11477
-0.253428
0.00632471
-0.354759
1.26436
0.210491
-0.322741
-0.00572518
-0.23443
0.249645
0.303007
-0.200141
-0.201378
1.52694
-1.50618
0.381038
-1.56953
0.215388
1.52145
-0.0143922
0.203078
0.202038
-1.58568
-0.0108856
-0.0101582
-1.56886
0.216421
0.412666
-0.0152123
1.52079
-1.54682
-0.0122624
-1.54618
0.386213
-0.0132316
0.407414
1.47214
-0.160688
-1.3325
-0.162147
0.115035
1.36768
0.00479708
1.36822
0.113488
0.00600715
0.168857
0.167609
-0.00356142
-0.00267955
-0.00453211
-0.00569609
0.550546
-0.210921
1.44696
0.196807
-0.563406
-0.0139696
-1.39105
-0.586994
1.26697
-1.4841
0.224828
-0.0161203
1.40859
-0.0147097
1.35882
0.481326
-1.23917
0.4824
1.23801
-0.397733
-0.462584
-0.461556
-0.399477
1.23841
0.266414
-0.0884971
0.823045
-0.148952
-0.803046
-0.289187
1.0512
0.382692
0.104713
-0.274447
0.36347
0.0152336
-0.834879
0.0703434
-0.227084
1.08826
0.0116104
0.378237
-0.178494
0.0160708
-0.192446
1.07019
-0.135991
0.225289
0.821457
-0.100519
-0.799988
-0.260449
1.04817
-0.829797
0.0993488
-0.193912
1.08291
-0.23407
0.1491
-0.128885
-0.162188
1.0689
-0.0145942
-0.0753865
-0.241911
0.542789
0.247468
0.0618668
0.0350339
0.0636587
0.000884937
0.588232
0.0292502
0.247215
0.126524
0.566981
0.0238914
0.566053
-0.0338464
-0.0870501
0.857397
-0.889191
0.069105
1.14586
0.0139068
-0.886334
0.101437
1.14223
0.0952226
0.0414556
0.0238607
0.0217003
1.1118
0.441936
-0.167356
-1.28923
1.43579
-0.300438
1.27147
-0.366047
0.480763
0.148108
-0.458436
1.42693
0.610119
-0.00519422
1.31153
0.120217
-0.264551
0.00308014
1.40121
0.587533
1.46993
-0.312385
-0.00502829
-0.244949
0.528505
0.552701
1.36823
-0.385978
-0.362412
-0.514995
-0.490805
0.63781
0.616234
-1.33517
-0.55216
-0.393362
0.691332
1.18067
-1.32684
-0.579359
-0.366495
0.714112
1.16806
-0.370411
0.672889
-0.346244
0.694641
-0.409432
-0.382211
1.25399
0.51967
-0.204079
1.44878
-0.352553
0.189729
-0.535389
0.691703
-0.0103864
-1.40487
-0.551041
0.702457
1.29371
-1.48683
0.217936
-0.384012
1.41682
-0.0121657
0.673679
-0.362286
-0.0107289
-0.374139
1.36598
-0.156326
-1.28877
0.45315
-0.310559
1.43469
-0.357189
1.26813
0.473013
1.30784
0.127543
-0.252199
-0.468222
0.137365
1.41495
0.620402
-0.320124
1.46646
-0.236008
1.39337
0.601124
-0.196756
-0.173874
1.52632
-1.50577
0.376036
-1.57041
0.211829
1.52442
-0.0115525
0.180772
0.200531
-1.58697
-0.00949045
-1.56758
0.185145
0.410243
1.5192
-1.54789
-0.00998964
-1.54533
0.384057
0.401346
1.47317
-0.160151
-0.150442
-1.33506
1.37119
0.11565
0.00409387
1.36819
0.124894
0.160959
0.167317
-0.00289947
-0.00433274
-0.180942
0.543981
1.44725
-1.39494
-0.578657
0.728563
1.27581
-0.559951
0.167738
0.716233
-1.48268
0.191233
1.40714
0.698572
1.36192
0.479859
-0.831308
1.18412
-0.289964
0.798022
-0.511324
0.617391
-1.15985
-0.404316
0.549968
0.768633
-1.23964
0.785717
-0.355213
0.988166
0.610388
-0.344385
-0.292649
0.812025
-0.141119
-1.24247
-0.74528
1.27742
0.6301
1.25492
1.23706
0.168822
0.757403
0.154879
1.3365
1.27301
1.33381
-0.167193
1.01618
1.12682
-0.901493
-1.0891
-0.949653
0.604353
-1.03757
0.170542
-1.12194
0.0935335
-0.93365
0.671653
-0.928107
-0.902949
0.692543
-0.129525
-0.816448
1.2423
-1.32024
0.826636
1.12929
0.839749
0.164773
-1.24061
0.13163
0.906848
0.877569
-2.21155
0.424382
-1.77734
-0.670859
1.75095
-2.97563
-2.95841
0.00647109
1.68522
0.0243141
-2.36895
4.78042
5.56444
-7.68265
-5.14303
2.55576
0.912647
6.03694
7.54082
-8.00216
-5.72994
0.0266521
-2.26762
-0.57233
1.74124
-1.55765
0.741127
-2.28619
0.257014
1.7721
-1.68703
0.0563274
-2.87386
-2.49743
-0.747514
1.04705
-1.94403
-2.20026
2.28588
0.21613
0.000563302
5.91661
7.34159
1.7716
-7.89212
-5.68411
0.72976
5.30763
-7.58313
5.41701
0.0324603
4.92409
1.24191
-7.52125
5.02045
0.531997
3.40712
3.1648
-4.01125
0.0922973
3.21124
0.907163
3.01161
-3.85683
-0.294507
0.437157
1.71669
2.25407
1.88099
2.22553
0.0815084
5.57312
6.83916
-7.8536
-5.51114
-1.40624
3.08225
-6.75875
2.59904
0.875105
4.01599
-7.31132
4.05608
-1.00347
1.64647
2.48425
-2.90615
0.664488
2.65444
2.70459
-3.51944
0.235977
1.49908
2.31198
1.3376
2.32178
-0.0687975
-3.15542
-9.45651
5.11181
-4.09034
-3.5589
0.0872167
-3.87463
1.8726
-0.941163
-9.1794
5.21649
1.95973
-3.95399
0.32254
-6.03472
-7.28735
0.0840785
-3.05347
-7.42021
6.7267
-6.38288
1.02252
-7.44633
7.37459
-6.22453
-0.00243797
-2.05735
3.0897
-4.97766
6.99154
5.97946
-6.03159
-1.0116
-4.96509
6.98475
5.96976
-6.03601
-4.94615
6.98495
5.95411
-6.03076
0.00528325
0.954173
7.18552
-6.15
-3.95262
0.0138023
7.2148
1.95538
-6.18071
-3.95939
1.11952
5.09715
8.26037
-3.98657
-0.00984594
5.11537
2.25135
8.26471
-4.03295
-1.01465
1.9955
6.10863
7.88532
6.09039
7.88441
0.00710249
-4.99453
6.94008
5.98006
-5.99881
-3.01165
7.29184
-6.21019
-3.94884
7.24386
-6.19289
-3.9655
-3.3777
5.14816
8.20695
-4.12229
5.1369
8.25772
-4.06692
2.94196
6.13938
7.89749
6.37783
8.0064
-7.47956
7.28908
2.04584
-6.2172
-0.974728
6.91324
1.9729
-5.85495
6.89366
-5.83789
0.0138106
7.40112
-1.00537
2.06014
8.36734
0.979743
-7.3985
7.65586
0.00897199
1.93507
7.5655
8.22761
0.00665624
-9.19618
5.15742
-3.94513
0.0256187
1.10505
5.16371
-4.20736
-0.00549365
5.17406
2.12659
-4.18904
9.36478
-0.942707
1.9404
6.41532
1.03482
-9.04248
6.18015
-0.00165365
1.9574
5.85873
6.47923
0.0214016
-7.4868
7.12818
-6.26129
2.97963
6.93464
-5.86258
7.1732
-5.90558
7.33476
3.16738
8.35767
-2.72795
-7.0052
6.5882
7.33738
8.05389
-9.18427
5.32741
-3.95677
-3.06348
5.14468
-4.08674
5.148
-4.16338
9.26614
3.09965
6.34743
-2.80379
-9.1028
5.336
5.65655
6.26461
8.72772
6.75229
-0.980068
1.96659
-5.81443
-6.98365
0.408834
2.67789
0.826144
-8.82586
0.0232528
0.846599
-6.88159
6.4646
0.0162553
1.53898
1.48909
6.07789
0.0079595
8.61049
6.59331
2.79801
-1.83071
-8.04096
-5.14147
-6.06933
-1.74899
-6.25883
3.61561
5.19264
0.273894
2.60864
0.0459947
-2.3972
1.7302
2.38093
0.357396
1.5095
-0.046301
-0.0724653
1.86948
0.0178362
-1.63404
1.70095
0.00584837
-0.0917923
1.79879
1.92305
0.0126908
0.243211
1.62493
-2.21024
0.0736396
-2.21803
1.81588
0.439526
-1.69776
1.60889
0.387969
-2.00065
2.12414
-0.145149
0.232049
1.59604
0.208448
-2.03366
0.0136506
0.383316
2.02068
1.58091
0.0375269
0.0435584
2.19287
-1.46022
1.75758
-0.682913
2.15895
-0.558922
1.40887
-0.133003
1.92874
0.176034
-1.40747
2.26683
-0.122309
2.0283
2.11366
-0.15298
-0.399068
1.37318
-1.42869
0.431807
-2.15885
1.78264
-1.65758
1.56134
-1.70931
2.28722
0.292397
1.62995
-0.567964
-2.48672
2.09199
0.810723
2.06312
1.6251
0.364238
-2.79771
-4.73017
7.56504
-7.97552
3.42101
0.977426
-4.97164
8.29694
-8.27053
0.0155604
-3.00294
-3.02397
8.52917
3.95212
-8.40637
3.95376
-2.85737
0.355584
1.75243
2.12729
-1.37372
0.283582
-1.01442
-3.03583
8.67808
2.03263
4.02092
-8.46198
-2.73937
-1.18883
1.24292
2.28959
1.31673
-1.0117
-2.36795
-1.44154
-0.702117
2.64835
0.83287
-2.42454
-1.68288
0.276048
2.31902
0.0776787
-3.03296
8.67021
4.02426
-8.44547
0.00639719
1.02484
8.7139
-8.46265
-2.02404
0.00347866
8.73352
2.04701
-8.49171
-2.02573
0.894036
2.91716
7.41124
-2.00872
0.0998969
2.8897
1.88092
7.3857
-1.98665
-0.859893
1.80886
3.65308
7.12348
3.73801
7.20235
0.103493
-3.05234
8.62973
-8.44364
4.01145
-2.00922
-3.02681
8.6419
3.99835
-8.44908
8.70308
-8.47704
-2.02017
-2.76489
2.65481
6.77913
3.29497
-1.87765
2.83263
7.23549
-1.9465
2.56659
3.44567
6.86392
3.07357
6.07819
2.94021
-4.9419
8.21106
1.94675
-8.25277
-1.00132
8.56241
2.0103
-8.41103
8.57883
-8.40865
0.00939519
3.9394
-0.799659
1.62949
6.35893
0.67555
-4.04515
4.85691
0.10285
1.3386
4.41524
6.56586
0.101715
-4.88005
8.03985
-8.1902
-2.98126
8.21436
-8.25741
3.81143
8.47865
-8.37363
3.6952
2.15839
5.81093
-1.72753
-3.22167
3.17675
1.75285
3.90273
4.36077
2.45985
0.654311
2.65386
-1.97082
0.26397
-2.84712
1.68197
0.935071
2.15749
-1.3435
2.57945
1.55123
-1.9091
-0.584968
2.73876
1.38967
2.93337
-2.77091
0.320326
1.77556
2.21987
0.206947
3.01985
0.253611
0.746857
1.70744
2.22442
-2.16875
2.12622
2.42963
-1.63713
-2.81132
1.46924
2.24176
-1.25017
2.42098
-1.78655
2.76312
1.84867
2.71643
-1.00113
-2.61931
1.3582
2.3499
1.13996
1.54504
2.28605
2.27053
1.94427
2.86913
-0.521245
2.58283
1.11326
0.404815
-3.0136
0.171441
-2.61044
0.295146
2.20751
0.153007
-2.43016
-1.65523
0.525332
2.37482
0.764082
0.219905
0.611562
2.23766
2.49113
2.56461
1.40018
-0.842796
-1.84862
0.679446
-0.816708
-2.49719
2.4577
0.981132
-2.4417
-1.58327
2.48887
2.34392
1.23338
1.97587
-0.98749
-5.02754
-5.04881
6.05769
1.06966
-5.18544
-6.99209
-0.0215204
2.97075
-5.03007
-5.04853
6.05117
-3.19542
-5.19873
-7.31399
-1.03278
5.05262
3.06324
2.06698
-4.04189
-2.03905
-3.06485
5.03687
-3.09368
4.09898
-4.02359
-1.04241
-3.04551
-7.03036
2.06287
4.07864
-3.05135
-3.09261
-7.04528
4.13646
5.03003
3.04078
-4.01645
-2.02125
0.000145578
1.04289
3.01897
6.05619
-2.00696
-0.0158312
3.03906
2.06631
6.08491
-2.02464
-5.04123
-1.03917
2.06563
4.04866
6.07136
1.02488
5.01647
4.06287
-4.01028
0.00364506
2.05797
4.08684
-4.03306
4.03085
6.04689
-0.0120145
-3.09749
5.04296
-4.03107
-2.03492
5.04949
3.0655
-4.03659
-2.03967
-3.04317
-3.0851
4.05084
6.08406
-3.08197
6.07856
-2.02475
3.04084
6.08155
-2.02495
-5.04688
4.05027
6.08066
4.09133
-4.03339
-5.01753
-5.03497
6.04962
0.000922493
1.02675
-5.09203
-4.01858
0.00225528
-5.11441
2.04125
-4.02858
-5.04078
-1.03197
2.05082
6.07884
1.03685
5.01555
-4.00915
0.00383439
2.08373
-4.03226
6.05275
-0.00779129
-3.03294
-7.00864
4.06364
-0.0224539
1.04654
-7.01666
-2.01341
-0.0275105
-7.04695
2.06743
-2.02493
0.956598
2.91919
-1.95099
0.0188628
2.92785
1.93481
-1.95948
-0.946205
1.9235
3.8842
3.87615
0.0230943
-5.03087
-5.03704
6.01027
-3.03606
-5.15276
-4.03707
-5.12215
-4.02748
5.05346
-3.12734
-4.03777
-3.04967
6.11779
-5.04198
6.09003
-4.02977
-3.09309
-7.03449
-2.02566
-3.04964
-7.03603
4.08784
-7.04003
-2.02827
-2.90829
-2.89294
3.86634
-2.90545
-1.94605
2.92141
-1.955
3.87985
-5.21668
-7.02195
2.1475
-1.03704
-7.03046
2.06601
-7.00984
-0.0180384
-0.931169
-4.84078
1.91171
-4.8295
0.0252834
-0.935372
1.90101
0.0251562
-5.23307
-7.0746
-3.14091
-7.06095
-7.04077
2.92964
-4.85016
-4.87046
-2.86561
-2.53087
1.96814
-4.49635
5.52027
-2.90986
3.96454
-4.83258
-3.95801
5.75413
-0.740631
1.98333
-4.29207
1.56927
5.37208
1.03983
-4.26456
-4.96133
5.82493
2.294
-0.0115999
2.03565
-0.559403
2.25235
1.25988
1.90328
-2.49313
-2.32863
3.47564
-4.2414
3.31921
2.30463
-0.305554
-0.291506
-0.300591
-0.31542
1.2363
1.23709
1.205
1.27124
-3.12312
4.07833
-3.14204
3.95748
-3.99745
4.94576
-1.08242
4.23613
-4.17891
2.09287
-4.11222
-4.13933
-4.99871
2.03764
5.88636
2.16696
1.02104
-4.9295
-4.17891
5.75989
-0.00993646
-4.4133
1.08618
-1.03601
-1.10664
-1.03263
-1.10008
2.64592
-0.0193075
1.99216
-4.07193
5.80145
-4.15239
-4.24941
-0.012871
-4.20101
2.12277
2.39409
-0.689378
2.55552
1.55431
2.03277
2.02967
0.0423937
2.2907
1.05178
1.05128
1.04508
1.04011
0.0271672
-0.772991
-1.9675
4.22311
1.63828
3.52927
2.06833
0.617257
2.99452
0.028624
4.2926
3.30881
0.0176879
1.37176
3.21178
0.151658
1.2522
0.651334
0.000437225
0.57905
-1.21024
-0.487415
0.711649
0.893606
-1.35046
0.195997
0.839634
1.18869
-0.0116127
-1.17285
4.46026
2.23966
-0.96915
-1.14208
0.117403
0.694725
-0.00795475
-0.845449
-0.795518
-0.854933
-0.799669
1.22018
1.18218
1.21992
1.17526
-0.0171583
2.23252
-0.901882
-0.828371
-0.892175
-0.832392
-0.310617
-0.255691
-0.309113
-0.255532
3.03131
-3.28939
4.21839
-4.07663
4.47868
3.27279
-4.22908
-3.13446
-3.18803
4.01701
2.17723
-3.32407
2.42075
3.27473
-0.637099
-0.569249
-0.629151
3.16153
4.25128
4.09466
-4.09901
4.13392
2.50301
-0.157092
-1.25383
-0.731848
1.29653
0.633093
1.2531
0.748588
0.168795
1.35588
-0.00659621
1.25726
0.1604
-5.12847e-06
1.30244
-0.00632702
1.34646
0.500688
1.20686
-0.813849
-0.314768
0.780836
-0.532771
0.767439
-1.25329
-0.382241
1.02643
-1.17478
-0.429523
0.801811
-0.321567
0.86447
-0.367623
-0.155852
1.26744
-0.792497
0.884803
0.819485
0.189355
-0.0108638
0.80412
-1.3367
1.16676
-1.2778
0.160451
0.925859
1.01733
-0.0115659
0.916479
-0.0105028
0.889773
0.963786
-0.190082
1.01156
1.1697
-1.17504
0.122255
0.793249
-0.00987379
-1.03794
0.191176
-0.00734253
-1.13166
-0.943987
0.700386
-0.0090997
0.78517
4.04955
-4.9012
-4.00876
5.78699
-2.97829
-4.91236
5.8434
1.91825
-4.97158
5.87849
2.05508
3.9582
-2.99061
-3.93383
-3.05159
1.96661
4.09668
-4.02102
2.17438
-2.70593
-2.58932
3.63905
1.91477
-2.18785
-2.5347
1.99155
2.33994
2.6413
-1.92997
3.5999
3.33338
2.08562
-4.10016
5.22368
0.00545819
-0.846808
-4.52007
1.71981
5.51323
-4.37445
5.42272
0.00116095
-0.818545
-1.9685
1.68568
2.08359
0.677128
0.0162517
0.00912233
1.47129
1.95919
-4.3904
5.44342
-2.64948
-4.59568
5.57159
-4.56485
5.5401
1.93456
-2.4384
-2.61993
-1.94723
-2.60628
1.95635
6.52122
-2.12721
-2.93217
1.46473
6.99026
-5.98964
-2.87772
4.14878
6.67202
-4.1017
-0.793
1.99088
6.43473
1.64897
-0.994543
4.16421
6.74319
1.95045
-4.10541
4.49511
-2.69189
-2.19223
-8.32244
-2.82027
-4.603
-8.62625
2.60253
4.3592
-2.1153
-0.926507
-8.39552
1.81927
-0.969136
-4.44971
-8.73647
2.46005
1.90247
-2.17045
-1.00274
1.48751
7.0064
1.98152
-5.99802
-1.68734
-1.01251
2.8743
7.08185
2.01816
-6.06246
-2.853
-2.90519
7.11319
-6.10044
-2.94396
-1.62785
-9.02529
1.75514
-0.985892
-1.6066
-9.07038
1.94126
1.75994
-3.02363
-2.86485
-9.11278
-0.999941
-2.89732
-9.14143
1.98565
4.24654
6.70967
-4.17923
-0.00794827
-1.01057
6.85658
1.98449
6.81468
2.24133
-0.00784396
-0.996697
4.21647
1.95212
-4.15971
7.69217
-4.27523
1.02227
2.27854
7.83913
-0.0172904
-4.21113
7.68505
-0.0184206
2.22259
2.00343
7.86022
1.50152
6.95138
-5.92385
-0.00212093
-1.00554
7.08888
1.99594
-6.07398
7.04923
1.69342
-6.03754
0.002779
-1.53219
-0.972424
1.97681
1.72138
8.09985
0.988664
1.53187
7.96784
-0.0071719
1.98637
8.03191
1.70704
8.04708
0.00141454
4.09968
6.71861
-4.0605
-2.91125
6.79099
6.8339
2.08154
4.21823
-2.88468
-4.17586
7.58739
-2.96267
2.19436
7.75131
4.21227
-4.16124
7.653
2.21015
7.82319
1.43421
7.00303
-6.00876
-2.9651
7.05505
1.66292
-6.04878
7.07002
1.6796
-6.05762
1.54382
-3.01031
8.0053
-3.01748
1.7582
8.07356
-1.54036
1.73531
8.09407
8.04158
2.07201
6.33716
-0.00155744
-0.866354
6.49741
1.75505
6.44515
-0.00264291
-0.905733
-2.03156
1.8004
7.46192
2.08545
0.857827
7.39722
-0.0229635
7.43967
-0.0225223
1.73689
7.44927
2.87539
7.05716
-6.04015
0.00462993
0.981414
7.06841
-6.0355
0.0111961
7.09015
1.9531
-6.05884
-0.971383
2.90593
1.96728
8.10334
-2.86844
0.920297
8.10837
0.0251564
8.07243
0.00787179
1.92536
8.14241
-4.44744
-8.73448
2.44639
0.00564084
-0.953607
-8.58258
1.87048
-8.59388
-4.36076
-0.00279777
-0.96509
4.22385
1.91006
-4.18775
-4.2553
1.00688
2.18205
0.00206731
-4.21709
0.00240996
2.15619
1.98337
-1.60034
-9.02159
1.75829
0.00970773
-0.978913
-8.95818
1.93319
-8.90644
0.00650037
-1.50528
-1.09899
2.18996
1.78532
1.08165
1.50815
-0.00230737
2.13807
1.7866
-0.0015509
1.9755
6.47643
-2.68894
6.52019
6.50899
2.06415
-2.68413
7.46705
-2.71825
7.43412
-2.03475
7.4533
7.46009
-3.00105
7.04984
-6.04494
2.88016
7.07068
-6.05741
7.08586
-6.071
2.95299
-2.98552
8.07042
-2.99399
8.18829
2.92466
8.09207
8.1466
-4.50848
-8.68989
2.53241
-2.76173
-8.46051
-8.52899
-4.408
4.31055
-2.82938
-4.25667
-2.91986
2.25133
4.22727
-4.18939
2.15716
-0.908618
-8.39242
1.80393
2.13284
-8.37323
-0.0304725
-8.39771
-0.0251488
-0.890899
-2.11303
1.7879
2.15238
0.861554
-0.00904163
-0.00580866
1.74977
-1.63558
-9.08499
1.77046
-2.93477
-8.92641
-8.95093
1.55976
-3.12934
-3.21865
1.77157
-1.51261
1.76991
-2.90701
-9.10642
0.0144807
-0.992747
-9.07139
1.95229
-9.0398
0.0097321
-1.06303
3.05908
2.14974
-3.06208
1.14161
-0.00902073
0.00627307
2.27064
-2.12955
-8.365
-2.7083
-8.35051
-8.38002
2.10714
-2.69391
-2.71105
-2.09824
-2.87658
-9.14144
-2.94829
-9.02658
-9.09053
3.02167
-3.19826
-3.35049
3.04408
-3.02514
1.34076
-4.99911
1.01328
1.51866
-4.89067
-0.00393378
-1.71483
-1.01023
2.94278
-5.05451
2.03037
-2.95115
-3.08819
-5.03374
0.53882
-0.458268
0.313909
0.67802
-0.577875
-3.02214
1.48305
-3.05127
4.02185
-1.96025
-1.02219
3.0365
3.03289
2.03725
-2.02031
-1.7193
-3.02355
2.9373
-3.0444
4.02845
5.07236
-1.54667
-1.01296
-4.06133
2.02683
1.73957
1.47328
-5.00353
2.02718
1.01694
-5.03687
1.7221
0.00168682
0.993425
1.54965
-1.02171
-1.00398
-0.999961
-0.979153
-0.00899283
2.03448
-3.97292
2.01273
-4.04328
1.73668
-0.000755238
0.175663
0.503614
0.80023
-0.709177
-0.00880522
3.04646
2.02989
-0.252522
-0.254293
-0.259775
-0.26376
-0.266762
-0.266537
-0.278297
-0.252336
-0.537699
-0.522286
-0.524511
-0.511945
0.489711
-0.341651
0.128902
0.636127
-0.487468
0.000548463
-1.61838
-1.00957
2.02108
1.76505
-0.958469
0.115755
0.253361
-0.00505164
1.95515
-0.758819
-0.776656
-0.798084
-0.763786
-0.230069
-0.235682
-0.231585
-0.236011
1.95121
-0.768888
-0.782718
-0.768708
-0.781721
-0.245997
-0.231619
-0.228443
-0.242847
0.000415605
-3.00165
1.5423
-1.933
1.6338
2.9737
-0.506776
-0.518995
-0.50964
-0.523888
-0.509664
-0.500045
-0.502529
-3.02578
-3.04486
4.03528
-3.04484
1.73119
-2.00771
3.02899
1.76451
-2.02232
-1.55939
4.04669
1.7368
4.03594
3.00309
3.00148
-0.492935
-0.507968
-0.511459
-0.501194
-0.504066
-0.516819
-0.520489
-0.00133279
-1.01123
3.02554
2.03192
-2.01679
2.996
-1.9895
0.00271575
-1.01417
2.96713
2.03205
4.0462
-3.00777
1.00628
4.00852
0.00644152
4.0192
0.000628755
2.02262
4.03492
-0.306502
0.367823
-0.639965
-0.24911
0.73082
0.357731
-0.341431
-0.644867
0.623797
-0.379776
-0.493485
-0.404362
0.302261
-0.282554
-0.278632
-0.539226
-0.317714
-0.130431
-0.625536
0.24393
0.721351
0.758651
0.460379
-0.676293
0.661887
0.141484
0.315242
-0.565158
-0.00260085
0.145745
0.341176
0.866873
-0.00696156
0.828994
0.248984
0.766998
-0.00120244
0.299884
-0.526679
-0.126222
0.331611
-0.64339
0.652269
0.12882
-0.522586
-0.000375426
0.629052
-0.340079
-0.469361
-0.332963
0.110415
0.000381985
-8.55941e-05
-0.512838
-0.283382
-0.117292
0.860032
0.116052
0.26668
-0.00554065
-0.918115
0.269179
-0.888407
0.111056
-0.000526355
-0.000425058
1.42006
-5.01891
-3.04047
-5.03255
1.6986
-5.05228
1.7082
1.3743
-3.0324
-3.04305
1.70575
-1.47715
1.71652
-3.05302
2.9479
-2.01446
2.96394
3.0332
-2.01907
-3.01933
-3.03618
4.02688
-3.04864
-2.00761
3.02951
-2.01415
2.94632
4.0421
4.03852
2.93749
-5.03332
0.00629419
1.02839
-5.02149
0.00807099
-5.04344
2.06668
-1.00972
2.95204
2.0207
-2.94847
1.00335
0.00985182
0.00359908
2.02351
-3.04943
-5.02718
2.94006
-5.04834
-5.04599
2.9496
-3.02708
-3.04874
2.94108
1.85032
0.127989
0.0237833
2.40562
0.102576
-0.00136953
0.252085
0.000200926
1.86764
2.31538
0.16673
-2.50901
-2.37233
0.487428
0.185994
0.417071
1.93341
2.51225
0.212137
-0.308986
-2.03234
0.539357
-0.639323
-2.72401
0.929449
-2.69842
-2.45554
0.369723
-1.1504
-0.524644
1.90119
-0.975854
0.292109
1.2589
2.47436
0.134461
-1.24766
-0.737574
1.00094
1.45518
3.09217
-2.36511
-0.53594
0.308962
2.26596
-1.93799
0.14403
-2.03581
-0.348924
3.63616
-2.82106
0.643051
0.357965
-2.40258
-0.356317
3.46145
0.718849
0.0354491
2.82119
-1.12457
-0.413183
1.34376
-2.279
0.760184
0.838976
1.30268
-1.08628
-0.476037
2.75537
-2.20121
0.344887
-5.08937
-0.131843
0.256305
5.39432
-0.069792
0.398791
0.983219
-5.39308
-0.695617
-0.16853
5.60709
-0.23674
-5.2043
-0.236488
0.449907
5.46589
0.449988
-0.698312
-5.4251
-0.25999
0.986986
5.62138
0.493623
-1.01763
1.10601
2.89044
0.299163
-5.52579
-1.22361
5.68935
-0.0449103
1.15452
-0.848128
-5.63677
-1.29479
5.72374
1.0778
-1.52982
-0.813244
3.42696
-1.59874
0.286612
3.07352
0.0429034
-5.20144
0.268673
0.590878
5.48587
-0.0659421
1.03184
-5.45919
-0.738482
0.660514
5.65627
-0.422236
-1.39935
2.1545
-0.318575
0.151669
2.1528
-0.0436532
-2.97425
-0.125414
2.44372
1.19386
-2.52807
-1.0663
-1.17627
3.01375
1.47062
-2.47845
1.02124
1.76003
-1.48041
-3.01176
-2.49714
-1.95833
-2.97378
-2.51913
1.34785
-4.87703
-2.1168
5.64083
-0.338675
0.646018
-4.34918
5.56635
-1.47032
-0.324718
1.7868
0.623125
-1.53015
-0.359082
3.18303
1.75972
-2.40924
0.657525
-0.41641
1.48559
2.97249
-2.26842
0.421479
-5.49927
-0.179554
1.31222
5.66693
-1.71986
2.00549
-0.339378
3.39224
0.632786
-2.55942
0.490656
-0.21145
-2.01322
-5.6475
5.62797
-5.66326
-1.33021
1.47586
5.70611
-2.16398
-5.61135
-1.44069
5.48143
-3.36468
-1.71863
-1.51982
2.06681
3.99304
-2.87327
-1.49381
1.37623
3.62103
-5.54385
0.695423
1.35587
5.69584
-1.6966
-2.91074
-0.915027
2.02054
3.66922
1.20863
-2.04573
-5.66867
0.791315
5.63306
1.83179
3.75312
-4.40856
0.995774
2.63045