/*--------------------------------*- C++ -*----------------------------------*\
  =========                 |
  \\      /  F ield         | OpenFOAM: The Open Source CFD Toolbox
   \\    /   O peration     | Website:  https://openfoam.org
    \\  /    A nd           | Version:  9
     \\/     M anipulation  |
\*---------------------------------------------------------------------------*/
FoamFile
{
    format      ascii;
    class       volScalarField;
    location    "0.00165";
    object      overpressureMax;
}
// * * * * * * * * * * * * * * * * * * * * * * * * * * * * * * * * * * * * * //

dimensions      [1 -1 -2 0 0 0 0];

internalField   nonuniform List<scalar> 
12903
(
50.4677
9.51375e-06
7.55332e-06
1.92667e-07
4.58385e-09
0.000130094
3.57965e-06
8.04284e-08
5.60908e-06
5423.56
4.11156e-05
0.000106394
0.000267805
0.000272467
6.62694e-07
0.000967658
8.97452e-06
2.96786e-05
1.34703e-06
0.000141116
0.000117545
4.80174e-06
252.804
0.073512
52.2677
1.25743
0.0339283
128.973
0.00299952
1317.43
9258.49
2815.99
72.273
601.059
165.389
313.164
8.2812e-05
3.35873e-07
1.86336e-06
2.27892e-06
2.77927e-06
9.21862e-06
1.7577e-05
0.00257213
4.6046e-05
0.00858978
0.00820688
0.000300757
0.000412032
0.0675023
34.041
690.012
122.109
12.7567
5.51321
36.3743
1.60454
1.08316e-05
0.000978674
0.000466623
4.2958e-05
0.00121818
0.00131209
0.018588
0.00101264
0.0439317
0.00225178
0.0190319
0.154089
0.00200775
0.00433789
0.0090711
0.225267
0.610203
0.0734613
1.66916
0.0272308
14.1008
0.150791
2.80324
0.0276561
208.882
1.53273
0.460075
5.46685e-05
1.69326e-07
9.99547e-05
1.8673e-07
6.40284e-10
0
1.14524e-08
2.02272e-09
3.05358e-05
8.4145e-07
2.07219e-08
4.07454e-10
0
0
2.84339e-06
9.23756e-08
2.50293e-09
0
0
0
1.04308e-07
3.40515e-09
4.36557e-11
0
0
0
3.14321e-09
5.82077e-11
0
0
0
0
1.45519e-11
0
0
0
0
0
0
0
0
0
0
0
1.14263e-06
1.25146e-08
1.7781e-05
3.0137e-08
1.01863e-10
0
3.49246e-10
2.18279e-10
9.10339e-06
2.30211e-07
4.9331e-09
2.91038e-11
0
0
6.98012e-07
2.10712e-08
4.80213e-10
0
0
0
2.28756e-08
6.8394e-10
0
0
0
0
5.82077e-10
0
0
0
0
0
0
0
0
0
0
0
0
0
0
0
0
0
8.73115e-09
1.8772e-09
3.50701e-09
0
0
0
0
1.24818e-06
2.53203e-08
4.65661e-10
0
0
0
7.88423e-08
2.08092e-09
0
0
0
0
2.21189e-09
0
0
0
0
0
0
0
0
0
0
0
0
0
0
0
0
0
0
0
0
0
0
0
5.23869e-10
2.47383e-10
2.18279e-10
0
0
0
0
9.98261e-08
1.71713e-09
0
0
0
0
5.3551e-09
1.01863e-10
0
0
0
0
8.73115e-11
0
0
0
0
0
0
0
0
0
0
0
0
0
0
0
0
0
0
0
0
0
0
0
9.11064e-05
2.35857e-07
2.05182e-09
0
0
8.47066e-05
2.21335e-08
0
0
0
0
1.26107e-07
1.5134e-09
0
0
0
0
3.98722e-09
1.45519e-11
0
0
0
0
5.82077e-11
0
0
0
0
0
0
0
0
0
0
0
0
0
0
0
0
0
0
0
0
0
0
0
0.003795
2.67448e-06
1.56768e-07
6.56291e-09
2.61934e-10
0
4.57624e-06
6.31262e-08
1.01863e-09
0
0
0
1.08324e-07
1.9354e-09
0
0
0
0
2.35741e-09
0
0
0
0
0
0
0
0
0
0
0
0
0
0
0
0
0
0
0
0
0
0
0
0
0
0
0
0
0
1.062e-05
5.46483e-07
2.7052e-08
1.06229e-09
0
0
3.44487e-07
1.61817e-08
6.98492e-10
0
0
0
1.04192e-08
4.36557e-10
0
0
0
0
2.32831e-10
0
0
0
0
0
0
0
0
0
0
0
0
0
0
0
0
0
0
0
0
0
0
0
0
0
0
0
0
0
3.97107e-07
2.43017e-08
1.17871e-09
0
0
0
1.41881e-08
8.00355e-10
0
0
0
0
4.36557e-10
0
0
0
0
0
0
0
0
0
0
0
0
0
0
0
0
0
0
0
0
0
0
0
0
0
0
0
0
0
0
0
0
0
0
0
1.22673e-08
6.98492e-10
0
0
0
0
4.65661e-10
0
0
0
0
0
0
0
0
0
0
0
0
0
0
0
0
0
0
0
0
0
0
0
0
0
0
0
0
0
0
0
0
0
0
0
0
0
0
0
0
0
3.0559e-10
0
0
0
0
0
0
0
0
0
0
0
0
0
0
0
0
0
0
0
0
0
0
0
0
0
0
0
0
0
0
0
0
0
0
0
0
0
0
0
0
0
0
0
0
0
0
0
3.41429e-05
3.24231e-07
1.62448e-05
2.53407e-07
3.92174e-08
4.80213e-10
2.7183e-08
5.38421e-10
5.82077e-11
0
0
0
0.000933304
1.45519e-11
2.58879e-08
0.000275598
0
7.63976e-09
3.22325e-06
7.81976e-07
6.45814e-08
1.50484e-05
9.23363e-07
2.1272e-07
1.81026e-08
4.49391e-06
3.74725e-05
3.37134e-06
5.21608e-05
2.28954e-06
2.10287e-05
2.54491e-06
9.00764e-09
2.02606e-07
5.25615e-08
9.51986e-08
5.09317e-09
1.63956e-07
4.15312e-08
0
3.28873e-09
1.03319e-09
2.32831e-10
0
2.80852e-09
8.44011e-10
5.38421e-10
0
0
0
1.60071e-10
0
0
6.01058e-06
9.02801e-08
2.35596e-08
9.37143e-09
7.27596e-11
2.50293e-09
0
0
0
0
0
1.1661e-05
0
1.06229e-09
1.1365e-07
0
4.36557e-11
7.46222e-08
2.02563e-08
2.35741e-09
7.07369e-08
8.52742e-09
1.71713e-09
4.22006e-10
7.67119e-07
6.37256e-06
7.45102e-07
2.19225e-07
2.53446e-06
2.77563e-07
1.55705e-09
4.26371e-08
1.27766e-08
9.05129e-09
4.65661e-10
2.09111e-08
4.42378e-09
0
6.40284e-10
2.18279e-10
0
0
3.0559e-10
2.91038e-11
0
0
0
0
0
0
0
8.94943e-09
2.77942e-09
8.87667e-10
0
2.18279e-10
0
0
0
0
0
6.72298e-09
0
0
1.46974e-09
0
0
1.94996e-09
2.32831e-10
1.16415e-10
2.37196e-09
7.13044e-10
4.36557e-11
0
9.40636e-08
7.76607e-07
8.27131e-08
2.80852e-08
3.17115e-07
2.91475e-08
1.16415e-10
4.32192e-09
1.22236e-09
1.03319e-09
0
2.08092e-09
4.07454e-10
0
0
0
0
0
0
0
0
0
0
0
0
0
0
5.82077e-10
4.03525e-08
1.45519e-11
0
4.32192e-09
0
0
0
0
0
3.34694e-10
0
0
1.45519e-11
0
0
1.45519e-10
0
0
1.45519e-10
4.36557e-11
0
0
9.19681e-09
6.05214e-08
5.63159e-09
5.6767e-08
1.29687e-07
4.52565e-09
0
2.32831e-10
2.91038e-11
1.25146e-09
0
1.30967e-10
0
0
0
0
0
0
0
0
0
0
0
0
0
0
0
4.21944e-06
6.34609e-08
6.8394e-10
0.00014121
7.1601e-06
6.09488e-06
3.11353e-07
1.74041e-08
1.16415e-10
0
3.98315e-07
3.56667e-08
1.80444e-08
1.65892e-09
1.16415e-10
0
0
3.7835e-09
5.96629e-10
1.45519e-10
0
2.32025e-05
8.11546e-07
8.49541e-08
4.35655e-07
1.16997e-08
0.00464188
1.14918e-05
6.69388e-10
1.5134e-09
6.97884
3.79758e-05
3.03035e-06
1.26704e-07
1.70694e-08
4.65661e-10
0.000364162
1.83756e-05
9.55799e-07
3.74566e-08
1.32422e-09
0
1.01223e-05
6.10598e-07
3.05154e-08
1.19326e-09
0
0
2.63506e-07
1.69821e-08
8.14907e-10
0
0
0
6.35919e-09
3.7835e-10
0
0
0
0
0.0383866
0.0117799
0.00359456
0.00378767
0.000124526
0.00140574
0.00111016
4.32057e-05
0.000555715
3.95767e-06
0.000103696
7.28268e-05
2.6239e-06
5.71963e-06
3.10931e-06
1.89379e-07
1.02984e-07
4.93915e-05
2.08966e-08
8.20524e-07
2.8222e-07
3.83734e-08
2.02504e-06
2.50147e-07
6.96018e-08
1.36497e-08
1.17576e-05
5.3551e-09
1.58754e-06
9.02219e-10
8.18254e-08
1.56433e-08
4.39468e-09
1.10609e-07
2.69501e-08
4.51109e-09
1.77533e-09
0.263054
0.0799817
0.00122074
4.86461e-05
0.0463017
0.00276672
0.0029241
0.000148262
0.000104049
2.82883e-06
1.86279e-07
0.000154192
1.12464e-05
8.14963e-06
6.76897e-07
1.30464e-06
1.95432e-08
1.49885e-09
1.11733e-06
1.93701e-07
6.93981e-08
1.17288e-08
0.00318059
0.0138192
1.00661e-05
0.000126445
2.42929e-05
0.00019652
2.139e-05
4.25451e-06
1.10597e-05
1.55228e-06
1.53416e-05
7.96135e-08
1.7928e-07
4.98258e-08
1.42463e-08
1.48721e-08
4.05998e-09
4.63042e-08
8.73115e-10
1.42609e-09
5.38421e-10
1.45519e-10
1.01863e-10
0
4.80213e-10
1.06037e-06
5.08904e-06
1.07629e-05
3.3173e-05
4.70252e-06
9.4936e-06
1.1957e-06
1.45315e-07
3.37313e-08
1.22802e-06
2.83821e-07
2.9715e-08
1.12242e-06
1.6288e-07
6.77159e-07
1.77447e-05
2.04489e-06
3.72046e-06
2.69125e-06
6.44779e-06
4.04034e-07
9.02655e-08
2.73867e-07
2.13768e-08
4.58749e-07
2.51894e-08
6.72488e-07
5.57193e-08
7.71252e-10
4.5402e-09
9.60426e-09
3.6569e-08
4.1764e-09
8.58563e-09
8.87667e-10
5.82077e-11
0
1.35333e-09
2.76486e-10
0
9.31323e-10
1.01863e-10
5.67525e-10
2.72412e-08
2.92493e-09
4.51109e-09
3.23053e-09
6.06815e-09
3.7835e-10
2.91038e-11
2.61934e-10
0
8.14907e-10
0
9.31323e-10
1.45519e-11
0
0
0
1.45519e-11
0
0
0
0
0
0
0
0
0
0
0
0
0
0
0
0
0
0
0
0
0
0
0
0
0.000649197
0.000156055
0.000107904
1.54004e-05
5.38607e-06
4.00828e-06
2.24289e-05
9.24047e-09
3.0559e-10
9.31323e-10
0
2.32831e-10
6.25732e-10
1.36642e-08
4.49004e-05
7.19674e-05
1.31524e-05
6.37269e-06
5.69373e-07
1.52283e-06
1.64211e-06
3.63798e-09
0
0
4.36557e-11
7.27596e-11
2.32831e-10
9.31323e-10
1.10173e-07
8.41785e-07
2.11991e-06
2.0735e-07
1.02614e-06
1.56142e-08
8.48377e-09
2.17158e-07
3.26836e-08
2.7052e-08
3.30328e-09
1.36948e-07
8.17818e-09
2.60625e-08
1.84809e-09
4.02506e-08
2.25555e-09
6.54545e-08
4.87489e-09
8.73115e-11
1.13505e-09
3.07045e-09
4.86034e-09
2.32831e-10
4.65661e-10
1.23691e-09
0
0
2.61934e-10
0
0
0
1.01863e-10
0
2.50293e-09
1.74623e-10
3.7835e-10
2.32831e-10
7.27596e-10
0
0
0
0
1.45519e-11
0
5.82077e-11
0
0
0
0
0
0
0
0
0
0
0
0
0
0
0
0
0
0
0
0
0
0
0
0
0
0
0
0
0
2.08159e-06
1.42863e-06
4.21875e-07
3.42116e-08
9.23028e-08
2.46073e-07
2.75468e-08
0
0
0
0
1.16415e-10
0
0
5.75528e-08
2.52185e-08
2.7052e-08
4.1473e-09
2.43017e-09
6.02449e-09
1.33878e-09
0
0
0
0
0
0
0
1.99361e-09
8.00355e-10
2.61934e-08
3.97267e-09
3.15777e-09
3.20142e-10
1.79425e-08
9.74978e-10
3.08501e-09
1.60071e-10
4.59841e-09
2.32831e-10
8.13452e-09
4.80213e-10
0
4.36557e-11
2.61934e-10
5.52973e-10
0
0
1.01863e-10
0
0
0
0
0
0
0
0
2.61934e-10
0
0
0
4.36557e-11
0
0
0
0
0
0
0
0
0
0
0
0
0
0
0
0
0
0
0
0
0
0
0
0
0
0
0
0
0
0
0
0
0
0
0
0
3.75439e-09
6.38829e-09
3.52156e-09
1.89175e-10
9.02219e-10
3.92902e-10
3.63798e-10
0
0
0
0
0
0
0
1.13505e-09
1.29512e-09
8.58563e-10
5.82077e-11
8.73115e-11
2.32831e-10
0
0
0
0
0
0
0
0
4.65661e-09
1.45519e-11
1.83354e-09
5.52973e-10
3.20142e-10
3.0559e-10
2.43017e-09
1.43773e-07
3.55067e-09
2.36978e-07
4.9638e-07
8.70205e-09
2.63535e-08
4.42652e-06
0
0
0
0
0
0
0
0
0
0
0
0
0
0
1.01863e-10
2.91038e-10
1.84518e-08
8.29459e-10
7.85803e-10
4.36557e-11
3.23053e-09
0
0
1.45519e-10
1.45519e-10
0
0
5.82077e-10
0
0
0
0
0
0
0
0
0
0
0
0
0
0
0
0
0
0
0
0
0
0
0
0
0
0
0
0
1.74623e-10
1.16415e-10
2.76486e-10
0
0
0
0
0
0
0
0
0
0
0
4.36557e-11
0
0
0
0
0
0
0
0
0
0
0
0
0
1.47136e-06
3.46421e-06
9.36532e-07
7.85149e-07
7.17991e-08
2.79004e-07
2.39947e-07
7.82893e-09
1.1627e-08
4.86034e-09
4.32192e-09
4.07454e-10
1.09139e-09
1.52795e-09
0.018147
1.26746
0.0723243
0.123011
0.184162
0.000144835
0.00224426
0.000373868
0.00533472
0.000143235
0.0023009
0.000409352
6.24626e-07
6.27741e-06
1.37051e-06
1.1735e-05
6.24306e-07
6.3987e-06
1.38761e-06
0.027091
0.00530353
0.00367913
1.11285
0.173534
0.122035
1.55563
0.0015754
0.00314443
0.000439751
0.495446
0.0149856
0.0528605
0.135826
7.50701e-05
6.72013e-05
1.22804e-05
0.00316708
0.00268652
0.0254422
0.000398597
1.27254e-06
4.50993e-07
6.03919e-07
0.000152292
8.17642e-06
3.46452e-05
1.58608e-05
5.55447e-08
1.08339e-07
5.85278e-08
9.56134e-07
1.533e-06
1.92715e-06
7.13859e-07
4.14879e-06
5.08145e-05
4.81838e-05
3.20579e-06
5.96465e-05
3.67535e-06
3.16105e-06
1.59926e-08
2.0751e-08
1.40426e-08
2.96102e-07
2.04891e-07
2.58136e-07
2.0978e-07
3.37604e-09
2.76486e-09
4.75848e-09
4.3452e-08
6.57456e-08
6.71134e-08
4.2317e-08
1.01863e-09
8.29459e-10
8.14907e-10
1.15251e-08
8.78936e-09
1.03173e-08
1.00117e-08
0.0167572
1.28426
0.0678111
4.60207
1.37964
28.564
0.244687
0.00496015
0.00298664
0.0445547
0.00705789
0.0527206
0.00288084
0.000271701
0.00374006
0.00031969
0.00193086
0.0701666
0.00472911
0.014449
1.83809e-05
4.50951e-05
1.3363e-05
0.000451079
0.000193264
0.000561945
0.000188884
1.91335e-05
0.000198043
8.04907e-06
0.000106637
1.8824e-05
0.000202848
8.21031e-06
9.34611e-07
2.33494e-06
6.90663e-07
9.7236e-06
2.94823e-05
9.76335e-06
2.92495e-05
6.96746e-08
1.40382e-07
5.5792e-08
1.6237e-06
6.53454e-07
1.63644e-06
6.53716e-07
7.17409e-09
1.50758e-08
5.99539e-09
5.91535e-08
1.47033e-07
6.15255e-08
1.46494e-07
6.54662e-07
1.15763e-05
9.49905e-07
1.0039e-05
9.04751e-07
9.75486e-06
6.62156e-07
1.53334e-07
1.62184e-06
1.60126e-06
1.15047e-07
1.8796e-06
1.43307e-07
1.22032e-07
0.00106786
0.0563936
0.00320112
0.00015434
0.00245383
0.000141732
0.000910067
2.22812e-06
2.68439e-07
0.0714109
1.57219e-06
5.07079e-06
7.35366e-07
1.35362e-07
7.21295e-07
6.6444e-08
8.75059e-05
3.00005e-06
66.6945
4.10502
3.17716
0.000429004
0.00242405
5.29036e-06
6.12839e-07
6.28352e-08
1.80537e-06
1.92056e-07
3.02214e-07
2.53e-07
6.36297e-07
3.48809e-08
1.41881e-08
9.8793e-08
2.64568e-07
4.74232e-07
2.50875e-08
6.29807e-08
1.33528e-07
7.63976e-09
2.22339e-07
1.82481e-08
3.44735e-08
2.95404e-08
8.28441e-08
3.65253e-09
6.42613e-08
3.15777e-08
1.52504e-08
2.01893e-07
3.53612e-09
8.13248e-07
3.0981e-08
2.04549e-06
4.09553e-06
0.000805852
6.87801e-06
2.67959e-05
3.65806e-07
6.31087e-05
4.52659
23.2491
318.685
85.681
7274.27
569.251
1312.86
0.144682
0.5496
13.403
0.222481
0.959747
0.0397138
0.0124669
0
2.91038e-11
1.01863e-10
0
0
0
0
2.84938e-05
2.8895e-06
1.11113e-06
6.91842e-07
3.73693e-08
4.6497e-06
2.39015e-07
9.45874e-10
1.42609e-09
7.27596e-11
2.35406e-07
1.35769e-08
1.18016e-08
2.02272e-09
0
0
0
7.567e-10
5.82077e-11
4.36557e-11
0
0
0
0
0
0
0
0
0.000217262
1.0054e-05
0.000175438
1.53413e-05
0.000283486
1.27928e-05
1.10507e-06
1.78435e-05
1.07424e-06
2.13974e-06
8.88613e-07
1.0946e-07
1.77795e-07
6.42904e-08
2.19283e-07
6.14382e-08
6.31553e-08
1.14669e-08
2.82307e-09
9.02219e-09
3.21597e-09
6.31553e-09
1.74623e-09
1.76078e-09
3.0559e-10
1.45519e-11
3.0559e-10
5.82077e-11
3.53131e-07
1.79731e-07
1.25874e-08
2.08238e-08
1.41226e-07
8.55653e-09
5.19212e-07
1.42434e-07
8.58563e-09
2.38069e-08
1.10595e-09
5.11791e-08
3.40515e-09
3.6991e-08
9.31323e-10
4.22006e-09
1.30967e-10
3.0559e-10
5.44242e-09
1.84809e-09
1.45519e-11
1.30967e-10
7.27596e-11
1.89175e-10
0
3.7835e-10
0
2.91038e-11
0
4.36557e-11
0
0
0
0
0
0
0
0
0
0
0
0
0
0
0
0
0
0
0
0
0
0
0
0
0
0
5.38814e-07
6.19097e-07
1.33587e-08
6.41216e-07
1.11584e-07
1.40107e-06
1.51733e-07
7.72125e-08
5.61704e-09
2.53203e-09
7.93079e-09
2.05764e-08
3.07482e-08
2.58442e-08
1.99361e-09
1.10595e-09
0
1.60071e-09
3.20142e-10
4.78758e-09
5.23869e-10
4.36557e-10
0
0
0
4.36557e-11
1.89175e-10
1.45519e-10
5.82077e-11
2.61934e-10
1.16415e-10
1.45519e-11
0
0
0
0
0
0
0
0
0
0
0
0
0
0
0
0
0
4.36557e-10
2.00816e-09
3.31784e-09
7.57864e-08
1.20344e-08
2.46073e-08
5.02041e-09
0.0618649
0.0025838
0.000197103
0.00389061
0.0410558
0.0237296
0.00198486
0.000263656
1.97091e-05
3.41253e-05
0.00269226
0.000381735
0.000384827
0.000283342
3.60278e-06
1.35253e-06
1.36497e-06
4.77837e-05
2.71051e-05
4.95757e-05
2.76716e-05
1.17623e-07
3.79368e-08
3.90573e-08
1.89988e-06
8.21907e-07
1.90597e-06
8.38874e-07
1.30807e-07
1.61091e-06
1.26907e-07
1.13531e-06
1.75351e-07
9.6242e-07
1.12253e-07
1.17871e-09
2.48838e-09
1.80444e-09
1.47847e-08
1.19762e-08
1.77824e-08
1.14233e-08
5.54423e-05
4.50623e-06
0.000101239
5.71396e-07
7.17615e-06
6.37914e-06
1.2199e-05
8.08733e-05
0.000696699
6.44243e-05
0.00155397
0.000825919
0.00656121
0.0211146
1.35333e-09
2.03727e-10
4.36557e-11
3.47791e-09
4.65661e-10
2.91038e-11
0
2.91038e-11
0
0
0
0
0
0
0
0
0
0
0
0
0
0
0
0
0
0
0
0
0
0
0
0
0
0
0
2.55385e-06
7.66886e-08
1.94996e-09
0
5.52463e-07
1.5847e-08
3.34694e-10
0
6.07397e-08
1.5134e-09
0
0
4.07454e-09
5.82077e-11
0
0
4.59841e-09
2.91038e-11
0
0
7.42871e-05
1.57454e-05
2.18721e-06
1.62385e-07
2.78887e-07
5.15331e-06
9.80799e-08
1.77533e-09
0
0
0
2.48925e-07
5.90808e-09
1.01863e-10
0
0
0
2.74216e-07
8.25094e-09
1.89175e-10
0
0
0
0
7.58155e-09
2.03727e-10
0
0
0
0
0
1.45519e-10
0
0
0
0
0
0
529054
654799
2667.95
0.0107657
501372
28.3248
0.000426301
638422
0.177938
2.99302
579482
0.00685809
0.000432246
137977
0.195514
2.98289e-05
61180.8
0.00615763
2019.88
1.83433
1173.62
0.00310456
9.94213e-05
9.93391
0.00140771
4.21837e-06
2.27713
9.48159e-06
0.507726
0.343889
33394.5
1.12913
0.000285501
9.13526e-06
229.269
0.0289435
6.74764e-05
4.78642e-07
3.4863
7.68285e-05
0.0097436
0.00157672
4.48611e-05
1.32258e-06
1821.2
0.139103
0.000461863
8.81329e-06
6.54691e-08
25.2842
0.00296288
8.56698e-05
2.79587e-06
8.84611e-08
0.135063
0.000292969
9.86547e-06
3.08966e-07
8.67294e-09
7.76243e-05
3.1433e-06
1.21508e-07
4.1473e-09
0.000277286
1.26086e-05
4.56115e-07
1.5134e-08
3.63798e-10
8.61076e-06
3.9945e-07
1.56433e-08
5.23869e-10
0
1.10456e+06
699555
734.537
404332
21.5879
440388
56.4349
91291.3
2.02885
1.25793e+06
932199
48.4822
220803
4.38709
0.0289645
379715
626.897
626832
1924.37
0.838865
47.0412
0.00446133
0.000176744
227.908
30.4238
250.696
13.361
51.1744
0.0126379
0.0302032
0.860085
0.00325111
0.101714
0.00541584
0.00210054
0.000380438
89.8111
101.681
0.00482747
0.000406856
0.000310449
4039.88
107.935
161629
1820.43
1149.87
0.276852
0.383429
6.00298
0.00474937
3.50577
0.0728508
0.0246121
0.000297897
0.00120178
0.000723145
7.56996e-05
0.00421034
0.000183997
5.09712e-05
1.14671e-05
81.0088
397.163
0.0469692
0.000570228
0.00359788
2.87145e-05
5.302e-06
516.254
1.1066
0.0462721
74014
570101
54422
10.2051
20088.9
0.488245
147.218
0.15061
16.9521
0.0758787
1521.89
8335.6
202.572
0.0571767
0.0910677
0.00254291
0.14227
0.227815
0.0118459
1.64123e-05
3.52571e-05
7.64239e-06
7.6862
103.276
0.325089
6.94432
0.190638
2.54711
0.0397039
0.00852397
0.0234533
0.000890898
0.0100812
0.000781411
0.00158334
0.000108678
0.000121446
4.36305e-05
6.57585e-06
0.000142339
4.08553e-05
1.2367e-05
2.71865e-06
1.30872
1.52726
937599
1.04567e+06
876842
921685
501875
737380
12454.2
288502
25366.3
341965
233186
18337
17460
5792.86
219946
45346.6
2733.6
133068
8762.12
1662.97
1.20743e+06
1.10988e+06
421852
7729.17
25387.5
18.3068
15.4555
185.854
0.429098
632.04
1.54841
5.17581
211454
100153
37751.3
9800.27
234.779
3522.68
240098
30583.6
0.129727
35.765
0.0817489
0.137341
0.992909
4.68169
0.0125233
736.567
1.14229
17.7762
20.7959
13.4757
1062.09
1.26568
356.582
0.9777
40.5875
47.7964
1125.53
172.844
2.38925
880.652
43.3503
9.57583
2.47959
0.063781
0.0827641
0.116757
0.179796
1.57458
0.547741
0.0284005
0.535827
0.025667
0.0415133
0.0439026
0.0686178
0.00317077
0.0128819
0.00424173
0.0189258
0.000465503
0.0247241
0.00101037
0.0052337
3523.12
3.38979
124.069
3851.26
3.67332
126.618
0.115566
0.125165
3.8847
1.65317e-05
0.00172379
2.52889e-05
0.000160589
4.04946e-05
0.000344158
1.08294e-05
0.00352475
4.55119e-05
0.000168822
2091.13
665.533
1817.6
17.0368
10830.4
122.086
289.977
4904.63
8554.45
73.4926
659.72
550.322
297.061
2.33866
1.94017
4.42745
17.0876
40.1549
32.8944
0.41264
38.0864
0.328035
0.96046
2.10688
6.82585
0.0612573
0.0686382
0.0522272
0.0220484
0.00252484
0.14386
0.0381092
0.00834282
0.112991
0.137266
0.162045
0.00767414
0.969087
0.0160622
0.0653773
0.0191473
0.000679866
0.00320997
0.00127778
0.00689617
0.00255585
0.0123753
0.00106887
0.00689261
0.000175176
0.000374443
0.00209055
0.00464731
8.3486e-05
0.000373357
0.000102306
0.000573149
1.30259e-05
0.000957328
2.93085e-05
0.000153758
1702.47
4.9309
106.616
18.1959
215.095
0.464485
0.874442
9.77245
0.00623634
0.000210764
0.00107509
0.0236181
0.000746646
0.00208772
6.30131e-05
0.000121737
0.000285382
1.0214e-05
1.51114e-06
2.59523e-06
71.0051
10642
26.6543
27.3692
631.209
494.265
3.4598
0.0960827
40.5841
1971.63
4.95644
34.3993
1398.14
3.50426
57.2189
0.00577055
0.0139272
0.0299875
0.000187821
0.415957
0.00101538
0.000493677
61870.2
625201
2845.65
638972
19794.6
604606
226.317
0.0306565
0.213099
0.0138064
2.11586
0.0160231
0.102305
0.00507338
0.00334635
0.0214553
0.000744768
0.013025
0.00046206
0.00308693
8.49902e-05
23719.3
60277.3
228599
9177.8
18132.2
1023.2
0.137592
143.122
0.0785589
7.06007
0.0527224
0.379261
0.025914
0.000218069
0.000131777
1.38563e-05
0.000372484
0.000134025
2.64482e-05
5.31184e-06
30.5289
4937.91
0.94555
35.5063
0.381936
15.3986
0.245116
0.0209963
0.0950876
0.0047428
0.0585699
0.00352008
0.0189663
0.000914298
2.53421e-05
5.18077e-06
1.38594e-06
2.59498e-05
7.54146e-06
1.6321e-06
4.43295e-07
9271.7
547.969
2876.22
329.425
1258.47
75.2067
43.4932
260.63
8.25883
0.447928
116.744
6.74404
0.318981
4.08619
1112.67
194105
41.7235
14925.4
1.35081
27263.1
0.0889214
3.1252e-06
9.48901e-07
1.94894e-07
4.88474e-06
1.1938e-06
3.49319e-07
7.5408e-08
0.349053
0.0520856
0.000374462
1.19047e-05
3.15544e-07
1.03892e+06
1.38517e+06
982109
958261
2.03557e+06
985362
455825
1.14553e+06
874899
1.06865e+06
793660
1.79395e+06
403520
576846
614456
642766
20357.3
749301
25857.2
466270
328269
0.822734
1.63751
30.5575
0.00145642
0.00646095
3.7859e-05
2.30318e-06
1.08121e-07
4.36557e-09
1.01863e-10
0.000123689
1.07949e-06
6.74918e-08
3.28873e-09
8.73115e-11
0
3.08694e-06
2.20913e-07
1.0943e-08
4.07454e-10
0
0
2.78087e-08
1.67347e-09
0
0
0
6.87141e-08
5.10772e-09
1.89175e-10
0
0
0
1.23631e+06
1.90496e+06
1.07166e+06
1.02194e+06
1.84812e+06
641063
1.79978e+06
809928
628804
1.72286e+06
2.28007e+06
2.08572e+06
1.8649e+06
857984
1.82911e+06
952838
742954
1.63276e+06
484962
1.69918e+06
208849
3427.64
1.1408e+06
2.00912e+06
1.72945e+06
1.35596e+06
248131
1.15222e+06
433424
69449.3
1022.32
441774
1.3921e+06
2525.43
1.81459e+06
1.98894e+06
1.77595e+06
2.52951e+06
2.45293e+06
1.6071e+06
1.71659e+06
1.49004e+06
2.00071e+06
1.78374e+06
117310
123410
4398.76
32210
2326.18
37.0008
1.62067e+06
1.59728e+06
1.99381e+06
1.88216e+06
1.60162e+06
1.97182e+06
1.61228e+06
1.65263e+06
2.06723e+06
2.04432e+06
1.67553e+06
1.62964e+06
1.8632e+06
1.62746e+06
1.96371e+06
1.60866e+06
1.95945e+06
1.65263e+06
1.53349e+06
1.57349e+06
1.67924e+06
1.77532e+06
1.5738e+06
1.65478e+06
1.53673e+06
1.37348e+06
1.5271e+06
1.48973e+06
1.40563e+06
1.53616e+06
1.75109e+06
1.59245e+06
1.60372e+06
1.57693e+06
1.62964e+06
1.5268e+06
1.30325e+06
1.31531e+06
1.42584e+06
1.16407e+06
2.5406e+06
2.22434e+06
2.47579e+06
2.59823e+06
2.6645e+06
2.15747e+06
2.33305e+06
2.40276e+06
1.61301e+06
1.57439e+06
1.93057e+06
1.67144e+06
1.72696e+06
1.42391e+06
1.51533e+06
1.83211e+06
2.10347e+06
1.74852e+06
2.11017e+06
1.79e+06
1.67585e+06
1.96884e+06
1.80651e+06
1.71625e+06
1.72829e+06
1.94766e+06
1.87067e+06
1.97169e+06
2.06077e+06
1.84925e+06
1.81936e+06
1.77177e+06
1.45372e+06
1.84556e+06
1.72651e+06
1.90961e+06
1.76481e+06
1.21734e+06
1.62429e+06
1.54211e+06
1.6757e+06
1.44455e+06
1.62049e+06
1.38437e+06
492371
1.11523e+06
915600
745723
734943
1.54807e+06
848872
389723
1.39237e+06
1.01023e+06
169619
102292
23046.3
251612
6917.96
2.25472e+06
1.92408e+06
2.1715e+06
2.17832e+06
2.3336e+06
1.83739e+06
1.94427e+06
2.07127e+06
1.27273e+06
991186
1.62992e+06
671195
1.22954e+06
74968.4
483872
1.19204e+06
1.84984e+06
1.69442e+06
1.54814e+06
691341
825178
1.63262e+06
392379
1.38656e+06
160501
1.06018e+06
546669
208052
889643
256651
166260
25237.5
2958.69
17724.3
14676.1
286074
45270.4
469.112
189416
35897.9
35982.1
9518.86
10101.8
1265.74
1.78372e+06
712143
1.35178e+06
414001
1.25029e+06
93372.1
51085.1
585653
33305.1
27669.5
122406
4650.39
1.08336e+06
1.17759e+06
1.0745e+06
1.29265e+06
987516
1.11358e+06
1.01737e+06
716418
890143
685055
908036
698828
844154
676802
942511
1.09648e+06
886841
842404
717498
884901
718751
688573
821579
534503
698698
198728
592733
279850
613606
597103
477539
499253
370972
479256
309947
344380
210022
409351
77093.3
315890
10395.7
274538
4689.89
383988
3.03954
0.0433499
0.0017583
0.000747319
0.000106775
2.0498e-05
2.48912e-06
5.1441e-07
47225.1
81322.9
4714.94
17038.6
330.39
23024
98228
41636.8
210701
245697
216927
320990
684.061
11877.2
2508.34
78149.9
46969.8
137398
13171.9
10059.8
68752.8
4946.05
100566
175.842
23653.1
555530
132625
1486.25
160030
15320.7
8358.38
1.25379e+06
3.09926e+06
2.83455e+06
2.21202e+06
352051
2.14661e+06
2.16258e+06
2.8773e+06
2.2261e+06
2.10985e+06
2.42949e+06
1.95398e+06
730002
1.08388e+06
405831
687639
248293
16526.2
250280
994248
8933.03
2.81577e+06
3.01502e+06
2.74103e+06
2.75833e+06
1.9922e+06
50959.8
173082
1466.78
214.312
1.64515e+06
1.66475e+06
2.07456e+06
2.12649e+06
1.68149e+06
2.05378e+06
1.63296e+06
2.12178e+06
1.70118e+06
1.68498e+06
2.93781e+06
1.77587e+06
2.25509e+06
1.8632e+06
2.21577e+06
1.85191e+06
1.88825e+06
2.61508e+06
1.74711e+06
1.77339e+06
1.46271e+06
1.38468e+06
482161
897351
1.71182e+06
485165
470975
989896
354022
598147
382866
731548
418010
118862
100743
163779
271817
454396
304978
334064
64824.9
210925
1.39858e+06
454848
1.02272e+06
105086
162021
593080
1.35178e+06
2.20873e+06
1.27945e+06
2.25343e+06
3.39222e+06
3.17539e+06
1.14294e+06
2.34148e+06
1.01943e+06
2.21479e+06
3.15958e+06
2.67965e+06
729762
2.02835e+06
464038
1.14856e+06
2.41538e+06
1.55905e+06
1.76172e+06
1.6991e+06
2.26576e+06
2.19079e+06
1.72266e+06
2.25176e+06
1.72934e+06
1.76014e+06
2.19102e+06
1.73147e+06
2.33957e+06
1.72306e+06
2.25774e+06
1.76277e+06
3.68873e+06
3.29954e+06
3.58969e+06
3.22138e+06
3.49624e+06
3.51619e+06
1.87321e+06
1.8024e+06
2.44783e+06
2.38103e+06
1.82643e+06
1.87534e+06
2.48657e+06
1.84827e+06
2.33773e+06
1.81102e+06
2.26818e+06
1.8781e+06
2.4257e+06
1.75175e+06
3.49968e+06
3.07317e+06
3.39818e+06
2.90899e+06
2.91282e+06
3.19701e+06
1.41546e+06
1.67899e+06
2.03876e+06
1.8148e+06
1.59458e+06
1.50318e+06
1.78809e+06
1.2273e+06
1.58004e+06
684562
1.307e+06
1.1508e+06
1.54724e+06
888496
2.59977e+06
2.15597e+06
2.29072e+06
1.90914e+06
1.70982e+06
1.99128e+06
3296.89
343292
305199
374956
400289
612752
144422
1.16214e+06
702601
659484
1.15265e+06
822714
711884
956609
527508
587951
560814
578008
511249
602597
389940
980524
1.15975e+06
984640
1.11365e+06
983216
1.10855e+06
983640
794946
656359
798527
665942
818137
820095
667228
1.3377e+06
1.42742e+06
1.38103e+06
1.21908e+06
1.30341e+06
1.25638e+06
1.26635e+06
955354
761532
730383
709656
728897
1.00481e+06
924114
1.31219e+06
1.30878e+06
1.29101e+06
1.37168e+06
1.47948e+06
1.44077e+06
1.41099e+06
1.00405e+06
1.09367e+06
986362
1.15698e+06
993340
1.1022e+06
985190
664417
686192
838303
657319
807464
826894
673879
594639
588007
552421
567210
563814
518256
512565
1.32536e+06
1.24028e+06
1.21534e+06
1.18423e+06
1.15232e+06
1.21606e+06
1.12892e+06
1.13695e+06
1.28804e+06
1.24554e+06
1.3385e+06
1.29276e+06
1.17846e+06
1.22284e+06
1.31444e+06
1.21167e+06
1.30634e+06
1.33298e+06
1.30238e+06
1.39087e+06
1.32134e+06
534567
567613
503634
582005
543437
563378
507498
1.13401e+06
1.01458e+06
1.02118e+06
981371
1.08178e+06
1.06675e+06
985192
84895
381423
391340
510226
377505
479326
266915
864243
679473
702248
863583
703727
851460
723794
1.11161e+06
1.19024e+06
1.0526e+06
1.04338e+06
1.14499e+06
1.01372e+06
1.15622e+06
1.2163e+06
1.25567e+06
1.15962e+06
1.1874e+06
1.07742e+06
1.15029e+06
1.10466e+06
543210
518324
534061
473652
491097
484070
466211
1.12792e+06
1.09305e+06
1.2675e+06
1.23567e+06
1.19684e+06
1.29118e+06
1.26692e+06
1.00789e+06
1.03483e+06
1.00116e+06
936565
912618
906815
931957
1.05297e+06
914365
958303
977680
1.04623e+06
953996
908567
914309
718287
701294
698195
288504
699171
887552
581987
526879
521138
505724
577815
593957
502249
1.30137e+06
1.05073e+06
1.30624e+06
1.09852e+06
1.32453e+06
1.21667e+06
1.31897e+06
819125
688720
828283
828549
702673
815779
690196
1.03929e+06
978502
949801
1.07621e+06
1.01619e+06
982780
1.11619e+06
1.08266e+06
1.01268e+06
1.06886e+06
967156
1.11132e+06
986902
1.04794e+06
1.31245e+06
949190
1.3031e+06
1.03051e+06
1.03334e+06
1.29986e+06
1.32503e+06
495240
449049
469267
507387
523311
476552
457927
1.27078e+06
1.17209e+06
1.29511e+06
1.12701e+06
1.28824e+06
1.04414e+06
1.26561e+06
1.11795e+06
1.02116e+06
1.01402e+06
1.02468e+06
960242
973369
1.04749e+06
1.02704e+06
895896
945612
968133
1.03762e+06
950439
902606
906948
971373
880835
1.02339e+06
989074
896288
921787
185441
360921
602408
53579
611726
284848
22059.8
897874
729655
756057
758937
869652
870058
743885
946133
1.22578e+06
537314
656702
920066
1.08476e+06
1.2328e+06
812620
705904
836354
831959
706131
813998
695885
569346
589297
569603
496019
494935
491903
496151
7395.82
229.179
76223.4
349582
1246.75
208913
11.8069
978824
948022
971331
874528
890118
883295
867750
841928
887465
954458
948813
862515
924050
864123
918832
930575
997559
1.05068e+06
944817
959605
1.02411e+06
931323
1.0134e+06
926361
887395
996524
939638
877011
620191
519440
525003
637830
531402
516077
615979
488034
482074
468712
458525
439858
463019
431074
506179
583433
494131
594111
574024
491149
499379
501426
489046
481027
457579
450265
440527
433692
1.02843e+06
1.02062e+06
1.24257e+06
1.00509e+06
1.21473e+06
1.00942e+06
1.21639e+06
840990
810107
718605
721219
839666
806446
731587
943171
846513
859804
937795
959071
873304
858654
1.28054e+06
995908
1.28885e+06
1.27319e+06
1.00741e+06
1.25923e+06
956318
444462
575262
491243
505466
479918
524749
762546
461128
432666
416999
491095
471761
441962
425898
170570
78298.8
145230
689817
669116
651145
665607
432182
437606
455498
450852
400053
435524
426695
824742
923157
832268
889222
843113
901220
815435
516705
527330
513314
597155
625694
614211
501254
844117
751194
826578
821261
757211
746604
839531
1.24557e+06
968619
1.0092e+06
1.02063e+06
1.21958e+06
1.22039e+06
1.24112e+06
809040
867868
793401
819053
923511
896636
837769
862495
906801
856318
846209
839374
807153
801053
1.30261e+06
783801
1.29479e+06
1.2953e+06
766288
861099
1.24094e+06
954088
845422
903467
920223
908166
976573
863741
444091
455654
473537
419507
460568
457277
423992
437256
414868
444041
446802
397082
435105
420740
449278
436625
452729
397312
422872
412859
407450
739591
817995
800565
812592
749816
739357
830857
789735
699420
785390
681741
751428
746515
678905
822029
841732
785963
898119
849411
831749
793967
790975
1.12839e+06
534102
681988
656349
1.01527e+06
546056
852070
773161
780770
804453
868178
877958
796967
788998
744034
831891
839404
722469
800550
741895
429435
446135
423000
470571
489068
461620
443156
799399
740643
810830
805537
725402
735547
793356
726171
702104
710638
768399
801748
785337
782307
436985
336341
420178
445990
409859
443071
406657
399164
430783
437045
464204
457139
421022
414856
1.14167e+06
783480
1.19504e+06
941006
764895
1.1961e+06
1.15152e+06
764888
810274
859958
832519
796458
776404
820917
1.25858e+06
974976
1.22313e+06
826635
1.2403e+06
881863
1.22769e+06
517339
632314
645499
545637
529685
635821
632173
27.0584
2395.44
113.942
42604.2
1722.23
4.17945
3.36364
718759
774804
785623
796910
718300
728338
785512
673160
777169
736461
699072
781403
741788
676492
603207
510709
511577
597294
588788
459362
438105
7967.87
1233.93
0.393674
32.7205
0.269396
0.682022
1756.06
34.0328
91.043
9572.43
98.1785
28210.8
73113
78.1696
316542
373213
267034
378407
361210
291649
226680
414474
374787
408698
344739
398840
393253
328948
423516
503375
469696
352125
404241
449183
461360
423198
425190
438940
389772
339117
380554
403239
354101
415650
423655
439649
399825
449061
407847
1.10974e+06
894402
741539
1.18608e+06
747867
1.20047e+06
1.05154e+06
706871
693563
686501
756069
762346
771832
747667
340817
395631
377335
362254
402320
386937
304655
548443
501681
357007
606536
510424
573988
405945
25538.2
0.0494967
0.143326
0.0059734
0.00701444
0.000393109
0.00182646
5.63082e-05
0.703135
0.00573971
0.00025958
6.36514e-06
144288
306064
92.9028
20016.4
218.358
1.33044
5129.7
275425
185.18
2527.99
11899.1
89068.2
509297
619140
33848.4
1.26976e+06
792962
754491
950402