/*--------------------------------*- C++ -*----------------------------------*\
  =========                 |
  \\      /  F ield         | OpenFOAM: The Open Source CFD Toolbox
   \\    /   O peration     | Website:  https://openfoam.org
    \\  /    A nd           | Version:  9
     \\/     M anipulation  |
\*---------------------------------------------------------------------------*/
FoamFile
{
    format      ascii;
    class       volScalarField;
    location    "0.00165";
    object      rhoE;
}
// * * * * * * * * * * * * * * * * * * * * * * * * * * * * * * * * * * * * * //

dimensions      [1 -1 -2 0 0 0 0];

internalField   nonuniform List<scalar> 
12903
(
253371
253245
253245
253245
253245
253245
253245
253245
253245
266921
253245
253245
253245
253245
253245
253245
253245
253245
253245
253245
253245
253245
253877
253245
253376
253248
253245
253567
253245
256546
276726
260316
253426
254749
253659
254028
253245
253245
253245
253245
253245
253245
253245
253245
253245
253245
253245
253245
253245
253245
253330
254972
253550
253277
253259
253336
253249
253245
253245
253245
253245
253245
253245
253245
253245
253245
253245
253245
253245
253245
253245
253245
253246
253247
253245
253249
253245
253280
253245
253252
253245
253767
253249
253246
253245
253245
253245
253245
253245
253245
253245
253245
253245
253245
253245
253245
253245
253245
253245
253245
253245
253245
253245
253245
253245
253245
253245
253245
253245
253245
253245
253245
253245
253245
253245
253245
253245
253245
253245
253245
253245
253245
253245
253245
253245
253245
253245
253245
253245
253245
253245
253245
253245
253245
253245
253245
253245
253245
253245
253245
253245
253245
253245
253245
253245
253245
253245
253245
253245
253245
253245
253245
253245
253245
253245
253245
253245
253245
253245
253245
253245
253245
253245
253245
253245
253245
253245
253245
253245
253245
253245
253245
253245
253245
253245
253245
253245
253245
253245
253245
253245
253245
253245
253245
253245
253245
253245
253245
253245
253245
253245
253245
253245
253245
253245
253245
253245
253245
253245
253245
253245
253245
253245
253245
253245
253245
253245
253245
253245
253245
253245
253245
253245
253245
253245
253245
253245
253245
253245
253245
253245
253245
253245
253245
253245
253245
253245
253245
253245
253245
253245
253245
253245
253245
253245
253245
253245
253245
253245
253245
253245
253245
253245
253245
253245
253245
253245
253245
253245
253245
253245
253245
253245
253245
253245
253245
253245
253245
253245
253245
253245
253245
253245
253245
253245
253245
253245
253245
253245
253245
253245
253245
253245
253245
253245
253245
253245
253245
253245
253245
253245
253245
253245
253245
253245
253245
253245
253245
253245
253245
253245
253245
253245
253245
253245
253245
253245
253245
253245
253245
253245
253245
253245
253245
253245
253245
253245
253245
253245
253245
253245
253245
253245
253245
253245
253245
253245
253245
253245
253245
253245
253245
253245
253245
253245
253245
253245
253245
253245
253245
253245
253245
253245
253245
253245
253245
253245
253245
253245
253245
253245
253245
253245
253245
253245
253245
253245
253245
253245
253245
253245
253245
253245
253245
253245
253245
253245
253245
253245
253245
253245
253245
253245
253245
253245
253245
253245
253245
253245
253245
253245
253245
253245
253245
253245
253245
253245
253245
253245
253245
253245
253245
253245
253245
253245
253245
253245
253245
253245
253245
253245
253245
253245
253245
253245
253245
253245
253245
253245
253245
253245
253245
253245
253245
253245
253245
253245
253245
253245
253245
253245
253245
253245
253245
253245
253245
253245
253245
253245
253245
253245
253245
253245
253245
253245
253245
253245
253245
253245
253245
253245
253245
253245
253245
253245
253245
253245
253245
253245
253245
253245
253245
253245
253245
253245
253245
253245
253245
253245
253245
253245
253245
253245
253245
253245
253245
253245
253245
253245
253245
253245
253245
253245
253245
253245
253245
253245
253245
253245
253245
253245
253245
253245
253245
253245
253245
253245
253245
253245
253245
253245
253245
253245
253245
253245
253245
253245
253245
253245
253245
253245
253245
253245
253245
253245
253245
253245
253245
253245
253245
253245
253245
253245
253245
253245
253245
253245
253245
253245
253245
253245
253245
253245
253245
253245
253245
253245
253245
253245
253245
253245
253245
253245
253245
253245
253245
253245
253245
253245
253245
253245
253245
253245
253245
253245
253245
253245
253245
253245
253245
253245
253245
253245
253245
253245
253245
253245
253245
253245
253245
253245
253245
253245
253245
253245
253245
253245
253245
253245
253245
253245
253245
253245
253245
253245
253245
253245
253245
253245
253245
253245
253245
253245
253245
253245
253245
253245
253245
253245
253245
253245
253245
253245
253245
253245
253245
253245
253245
253245
253245
253245
253245
253245
253245
253245
253245
253245
253245
253245
253245
253245
253245
253245
253245
253245
253245
253245
253245
253245
253245
253245
253245
253245
253245
253245
253245
253245
253245
253245
253245
253245
253245
253245
253245
253245
253245
253245
253245
253245
253245
253245
253245
253245
253245
253245
253245
253245
253245
253245
253245
253245
253245
253245
253245
253245
253245
253245
253245
253245
253245
253245
253245
253245
253245
253245
253245
253245
253245
253245
253245
253245
253245
253245
253245
253245
253245
253245
253245
253245
253245
253245
253245
253245
253245
253245
253245
253245
253245
253245
253245
253245
253245
253245
253245
253245
253245
253245
253245
253245
253245
253245
253245
253245
253245
253245
253245
253245
253245
253245
253245
253245
253245
253245
253245
253245
253245
253245
253245
253245
253245
253245
253245
253245
253245
253245
253245
253245
253245
253245
253245
253245
253245
253245
253245
253245
253245
253245
253245
253245
253245
253245
253245
253245
253245
253245
253245
253245
253245
253245
253245
253245
253245
253245
253245
253245
253245
253245
253245
253245
253245
253245
253245
253245
253245
253245
253245
253245
253245
253245
253245
253245
253245
253245
253245
253245
253245
253245
253245
253245
253245
253245
253245
253245
253245
253245
253245
253245
253245
253245
253262
253245
253245
253245
253245
253245
253245
253245
253245
253245
253245
253245
253245
253245
253245
253245
253245
253245
253245
253245
253245
253245
253245
253245
253245
253245
253245
253245
253245
253245
253245
253245
253245
253245
253245
253245
253245
253245
253245
253245
253245
253245
253245
253245
253245
253245
253245
253245
253245
253245
253245
253245
253245
253245
253245
253245
253245
253245
253245
253245
253245
253245
253245
253245
253245
253245
253245
253246
253245
253245
253245
253245
253245
253245
253245
253245
253245
253245
253245
253245
253245
253245
253245
253245
253245
253245
253245
253245
253245
253245
253245
253245
253245
253245
253245
253245
253245
253245
253245
253245
253245
253245
253245
253245
253245
253245
253245
253245
253245
253245
253245
253245
253245
253245
253245
253245
253245
253245
253245
253245
253245
253245
253245
253245
253245
253245
253245
253245
253245
253245
253245
253245
253245
253245
253245
253245
253245
253245
253245
253245
253245
253245
253245
253245
253245
253245
253245
253245
253245
253245
253245
253245
253245
253245
253245
253245
253245
253245
253245
253245
253245
253245
253245
253245
253245
253245
253245
253245
253245
253245
253245
253245
253245
253245
253245
253245
253245
253245
253245
253245
253245
253245
253245
253245
253245
253245
253245
253245
253245
253245
253245
253245
253245
253245
253245
253245
253245
253245
253245
253245
253245
253245
253245
253245
253245
253245
253245
253245
253245
253245
253245
253245
253245
253245
253245
253245
253245
253245
253245
253245
253245
253245
253245
253245
253245
253245
253245
253245
253245
253245
253245
253245
253245
253245
253245
253245
253245
253245
253245
253245
253245
253245
253245
253245
253245
253245
253245
253245
253245
253245
253245
253245
253245
253245
253245
253245
253245
253245
253245
253245
253245
253245
253245
253245
253245
253245
253245
253245
253245
253245
253245
253245
253245
253245
253245
253245
253245
253245
253245
253245
253245
253245
253245
253245
253245
253245
253245
253245
253245
253245
253245
253245
253245
253245
253245
253245
253245
253245
253245
253245
253245
253245
253245
253245
253245
253245
253245
253245
253245
253245
253245
253245
253245
253245
253245
253245
253245
253245
253245
253245
253245
253245
253245
253245
253245
253245
253245
253245
253245
253245
253245
253245
253245
253245
253245
253245
253245
253245
253245
253245
253245
253245
253245
253245
253245
253245
253245
253245
253245
253245
253245
253245
253245
253245
253245
253245
253245
253245
253245
253245
253245
253245
253245
253245
253245
253245
253245
253245
253245
253245
253245
253245
253245
253245
253245
253245
253245
253245
253245
253245
253245
253245
253245
253245
253245
253245
253245
253245
253245
253245
253245
253245
253245
253245
253245
253245
253245
253245
253245
253245
253245
253245
253245
253245
253245
253245
253245
253245
253245
253245
253245
253245
253245
253245
253245
253245
253245
253245
253245
253245
253245
253245
253245
253245
253245
253245
253245
253245
253245
253245
253245
253245
253245
253245
253245
253245
253245
253245
253245
253245
253245
253245
253245
253245
253245
253245
253245
253245
253245
253245
253245
253245
253245
253245
253245
253245
253245
253245
253245
253245
253245
253245
253245
253245
253245
253245
253245
253245
253245
253245
253245
253245
253245
253245
253245
253245
253245
253245
253245
253245
253245
253245
253245
253245
253245
253245
253245
253245
253245
253245
253245
253245
253245
253245
253245
253245
253245
253245
253245
253245
253245
253245
253245
253245
253245
253245
253245
253245
253245
253245
253245
253245
253245
253245
253245
253245
253245
253245
253245
253245
253245
253245
253245
253245
253245
253245
253245
253245
253245
253245
253245
253245
253245
253245
253245
253245
253245
253245
253245
253245
253248
253245
253245
253245
253245
253245
253245
253245
253245
253245
253245
253245
253245
253245
253245
253245
253245
253245
253245
253245
253245
253248
253245
253245
253249
253245
253245
253245
253246
253245
253245
253245
253245
253245
253245
253245
253245
253245
253245
253245
253245
253245
253245
253245
253245
253245
253245
253245
253245
253245
253245
253245
253245
253245
253245
253245
253245
253245
253245
253245
253245
253245
253245
253245
253245
253245
253245
253245
253245
253245
253245
253245
253245
253245
253245
253245
253245
253245
253245
253245
253245
253245
253248
253245
253257
253248
253316
253246
253245
253245
253245
253245
253245
253245
253245
253245
253245
253245
253245
253245
253245
253245
253245
253245
253245
253245
253245
253245
253245
253245
253245
253245
253245
253245
253245
253245
253245
253245
253245
253245
253245
253245
253245
253245
253245
253245
253245
253245
253245
253245
253245
253245
253245
253245
253245
253245
253245
253245
253245
253245
253245
253245
253245
253245
253245
253245
253245
253245
253245
253245
253245
253245
253245
253245
253245
253245
253245
253245
253245
253245
253245
253245
253245
253245
253245
253245
253245
253245
253412
253255
253253
253245
253245
253245
253245
253245
253245
253245
253245
253245
253245
253245
253245
253245
253245
253245
253245
253245
253245
253245
253245
253245
253245
253245
253245
253245
253245
253245
253245
253245
253245
253245
253245
253245
253245
253245
253245
253245
253245
253245
253256
253303
254042
253459
271653
254670
256535
253245
253246
253279
253246
253247
253245
253245
253245
253245
253245
253245
253245
253245
253245
253245
253245
253245
253245
253245
253245
253245
253245
253245
253245
253245
253245
253245
253245
253245
253245
253245
253245
253245
253245
253245
253245
253245
253245
253245
253245
253245
253245
253245
253245
253245
253245
253245
253245
253245
253245
253245
253245
253245
253245
253245
253245
253245
253245
253245
253245
253245
253245
253245
253245
253245
253245
253245
253245
253245
253245
253245
253245
253245
253245
253245
253245
253245
253245
253245
253245
253245
253245
253245
253245
253245
253245
253245
253245
253245
253245
253245
253245
253245
253245
253245
253245
253245
253245
253245
253245
253245
253245
253245
253245
253245
253245
253245
253245
253245
253245
253245
253245
253245
253245
253245
253245
253245
253245
253245
253245
253245
253245
253245
253245
253245
253245
253245
253245
253245
253245
253245
253245
253245
253245
253245
253245
253245
253245
253245
253245
253245
253245
253245
253245
253245
253245
253245
253245
253245
253245
253245
253245
253245
253245
253245
253245
253245
253245
253245
253245
253245
253245
253245
253245
253245
253245
253245
253245
253245
253245
253245
253245
253245
253245
253245
253245
253245
253245
253245
253245
253245
253245
253245
253245
253245
253245
253245
253245
253245
253245
253245
253245
253245
253245
253245
253245
253245
253245
253245
253245
253245
253245
253245
253245
253245
253245
253245
253245
253245
253245
253245
253245
253245
253245
253245
253245
253245
253245
253245
253245
253245
253245
253245
253245
253245
253245
253245
253245
253245
253245
253245
253245
253245
253245
253245
253245
253245
253245
253245
253245
253245
253245
253245
253245
253245
253245
253245
253245
253245
253245
253245
253245
253245
253245
253245
253245
253245
253245
253245
253245
253245
253245
253245
253245
253245
253245
253245
253245
253245
253245
253245
253245
253245
253245
253245
253245
253245
253245
253245
253245
253245
253245
253245
253245
253245
253245
253245
253245
253245
253245
253245
253245
253245
253245
253245
253245
253245
253245
253245
253245
253245
253245
253245
253245
253245
253245
253245
253245
253245
253245
253245
253245
253245
253245
253245
253245
253245
253245
253245
253245
253245
253245
253245
253245
253245
253245
253245
253245
253245
253245
253245
2.21193e+06
2.5887e+06
259941
253245
2.07994e+06
253316
253245
2.53425e+06
253245
253252
2.35735e+06
253245
253245
649047
253245
253245
415918
253245
258310
253250
256184
253245
253245
253270
253245
253245
253251
253245
253246
253246
340515
253248
253245
253245
253818
253245
253245
253245
253254
253245
253245
253245
253245
253245
257810
253245
253245
253245
253245
253308
253245
253245
253245
253245
253245
253245
253245
253245
253245
253245
253245
253245
253245
253245
253245
253245
253245
253245
253245
253245
253245
253245
253245
4.46644e+06
2.7267e+06
255083
1.54623e+06
253299
1.80566e+06
253386
502752
253250
5.32297e+06
3.8689e+06
253366
908452
253256
253245
1.46282e+06
254814
2.46424e+06
258069
253247
253363
253245
253245
253815
253321
253872
253278
253373
253245
253245
253247
253245
253245
253245
253245
253245
253470
253499
253245
253245
253245
263405
253515
730662
257808
256124
253246
253246
253260
253245
253254
253245
253245
253245
253245
253245
253245
253245
253245
253245
253245
253448
254238
253245
253245
253245
253245
253245
254537
253248
253245
452618
2.25232e+06
397405
253271
304744
253246
253613
253245
253287
253245
257058
274319
253752
253245
253245
253245
253245
253246
253245
253245
253245
253245
253264
253503
253246
253262
253245
253251
253245
253245
253245
253245
253245
253245
253245
253245
253245
253245
253245
253245
253245
253245
253245
253248
253249
3.63383e+06
4.24257e+06
3.41004e+06
3.69585e+06
1.90744e+06
2.83667e+06
284914
1.13098e+06
318632
1.32455e+06
947846
300170
297906
267845
903906
372803
260106
628278
275415
257412
5.14867e+06
4.71309e+06
1.64425e+06
272774
318653
253291
253284
253710
253246
254827
253249
253258
876045
528374
351880
278073
253832
262095
967753
332288
253245
253334
253245
253245
253247
253257
253245
255088
253248
253289
253297
253279
255904
253248
254137
253247
253346
253364
256063
253677
253251
255449
253353
253269
253251
253245
253245
253245
253245
253249
253246
253245
253246
253245
253245
253245
253245
253245
253245
253245
253245
253245
253245
253245
253245
262095
253253
253555
262923
253254
253562
253245
253245
253255
253245
253245
253245
253245
253245
253245
253245
253245
253245
253245
258489
254910
257800
253288
280747
253550
253970
265596
274900
253429
254896
254622
253988
253251
253250
253256
253288
253345
253327
253246
253340
253246
253247
253250
253262
253245
253245
253245
253245
253245
253245
253245
253245
253245
253245
253245
253245
253247
253245
253245
253245
253245
253245
253245
253245
253245
253245
253245
253245
253245
253245
253245
253245
253245
253245
253245
253245
253245
253245
253245
253245
257511
253257
253512
253290
253783
253246
253247
253269
253245
253245
253245
253245
253245
253245
253245
253245
253245
253245
253245
253245
253423
280241
253312
253313
254825
254482
253254
253245
253346
258188
253257
253331
256747
253254
253388
253245
253245
253245
253245
253246
253245
253245
419529
2.58552e+06
260389
2.59923e+06
304095
2.49347e+06
253811
253245
253246
253245
253250
253245
253245
253245
253245
253245
253245
253245
253245
253245
253245
314424
414775
973197
276492
299703
255807
253245
253603
253245
253263
253245
253246
253245
253245
253245
253245
253245
253245
253245
253245
253321
265680
253247
253334
253246
253283
253246
253245
253245
253245
253245
253245
253245
253245
253245
253245
253245
253245
253245
253245
253245
276718
254616
260466
254069
256397
253433
253354
253897
253266
253246
253537
253262
253246
253255
256031
832626
253349
291334
253248
323887
253245
253245
253245
253245
253245
253245
253245
253245
253246
253245
253245
253245
253245
1.39012e+06
1.77486e+06
1.47032e+06
3.56421e+06
5.33407e+06
1.16154e+06
1.83558e+06
872861
1.53543e+06
3.35405e+06
2.73513e+06
6.87916e+06
1.60833e+06
1.10872e+06
2.44105e+06
2.09301e+06
305509
2.99195e+06
320179
1.1022e+06
1.35534e+06
253247
253249
253321
253245
253245
253245
253245
253245
253245
253245
253245
253245
253245
253245
253245
253245
253245
253245
253245
253245
253245
253245
253245
253245
253245
253245
253245
253245
253245
253245
253245
253245
253245
3.74259e+06
4.06114e+06
3.46816e+06
3.72123e+06
4.86376e+06
2.63216e+06
5.17993e+06
2.93487e+06
2.57853e+06
6.0838e+06
4.05159e+06
4.89638e+06
6.38926e+06
3.04162e+06
5.55992e+06
3.28736e+06
2.93471e+06
6.82882e+06
1.96317e+06
6.54927e+06
876541
261857
4.7285e+06
5.61512e+06
7.46624e+06
5.84691e+06
1.01581e+06
4.79035e+06
1.62071e+06
441443
255804
1.70808e+06
6.02638e+06
259580
6.78315e+06
5.55999e+06
6.86632e+06
3.6675e+06
4.25558e+06
6.77792e+06
7.12919e+06
6.36737e+06
8.10601e+06
7.6163e+06
576031
594462
264306
336862
259078
253338
3.7119e+06
4.17399e+06
3.45731e+06
4.22102e+06
4.30037e+06
3.5781e+06
3.61368e+06
3.34476e+06
3.43706e+06
3.24741e+06
3.52965e+06
3.84624e+06
4.44713e+06
4.78754e+06
3.98364e+06
4.48798e+06
3.72766e+06
4.06157e+06
5.84549e+06
4.99611e+06
6.2659e+06
5.39068e+06
5.14597e+06
6.34044e+06
5.77187e+06
5.37606e+06
6.12918e+06
6.0602e+06
5.44893e+06
5.89954e+06
5.68453e+06
5.70097e+06
6.4224e+06
5.36812e+06
6.40101e+06
5.87791e+06
5.10984e+06
5.42287e+06
5.84708e+06
4.56473e+06
3.34198e+06
4.22391e+06
3.46867e+06
3.3091e+06
3.11415e+06
4.46227e+06
3.92095e+06
3.63096e+06
6.68184e+06
6.60832e+06
5.89806e+06
6.89724e+06
6.91044e+06
6.06251e+06
6.41376e+06
4.31786e+06
3.77661e+06
3.79654e+06
4.34629e+06
5.30895e+06
5.39577e+06
4.45776e+06
6.56658e+06
4.42233e+06
6.34354e+06
5.32842e+06
5.57447e+06
7.08457e+06
5.45833e+06
6.79524e+06
6.66869e+06
7.19872e+06
5.73503e+06
7.49304e+06
6.66739e+06
6.76223e+06
6.76803e+06
4.79116e+06
6.13855e+06
6.30702e+06
6.80366e+06
5.63521e+06
6.27525e+06
5.74327e+06
1.86878e+06
4.56027e+06
3.5527e+06
2.92162e+06
2.8235e+06
6.4575e+06
3.30671e+06
1.50339e+06
5.50622e+06
4.10179e+06
740564
534848
312469
1.00863e+06
270702
4.4193e+06
6.63006e+06
5.24588e+06
7.02447e+06
5.27761e+06
7.44278e+06
7.84387e+06
6.62686e+06
5.41366e+06
4.09517e+06
6.99335e+06
2.62966e+06
5.20715e+06
453757
1.85834e+06
4.45035e+06
7.43002e+06
6.38742e+06
6.27893e+06
2.59027e+06
3.18389e+06
6.78171e+06
1.52187e+06
5.35762e+06
711003
4.30891e+06
2.06077e+06
858848
3.44455e+06
1.05059e+06
731136
318210
260673
298469
290607
1.12623e+06
372816
254419
804288
346638
346882
277339
278823
256415
7.69461e+06
2.84689e+06
5.85697e+06
1.60869e+06
5.30646e+06
506997
387939
2.32028e+06
340245
324788
603790
264947
1.36486e+06
3.33557e+06
3.31767e+06
1.55101e+06
1.26881e+06
3.1469e+06
3.04668e+06
2.25055e+06
2.41328e+06
2.49637e+06
1.45065e+06
2.49972e+06
1.92443e+06
2.57384e+06
1.30687e+06
2.79007e+06
1.87946e+06
1.05206e+06
2.09091e+06
1.2218e+06
2.75513e+06
2.71288e+06
1.98072e+06
2.15991e+06
2.63597e+06
847681
2.39507e+06
1.13514e+06
2.18922e+06
1.23928e+06
1.91635e+06
1.01437e+06
1.52466e+06
1.18425e+06
1.27085e+06
1.38164e+06
904444
1.64112e+06
464487
1.307e+06
279628
1.14078e+06
265051
1.51066e+06
253253
253245
253245
253245
253245
253245
253245
253245
378706
477972
265124
296838
254071
312773
538138
364321
911844
1.1619e+06
997573
1.35351e+06
254957
283520
259542
468930
379544
671505
286859
278749
439902
265694
533720
253685
314431
2.21937e+06
641885
256970
718264
292515
274389
3.3181e+06
2.60753e+06
3.12476e+06
7.47086e+06
1.37075e+06
2.71797e+06
3.01435e+06
2.88498e+06
3.25562e+06
5.79e+06
5.60321e+06
7.11694e+06
2.73478e+06
4.37371e+06
1.63817e+06
2.5852e+06
1.03988e+06
295498
1.00823e+06
3.91561e+06
275849
2.90685e+06
2.67327e+06
2.99874e+06
3.53928e+06
7.98349e+06
388469
769627
256920
253781
3.23658e+06
2.79709e+06
3.03522e+06
2.78954e+06
2.85042e+06
3.12968e+06
3.16231e+06
2.87975e+06
3.07755e+06
2.93245e+06
2.75854e+06
3.30255e+06
3.66853e+06
3.69054e+06
4.39177e+06
5.83513e+06
4.45799e+06
4.26576e+06
6.39465e+06
6.96065e+06
5.41101e+06
5.37225e+06
1.88211e+06
3.33286e+06
7.07565e+06
1.90517e+06
1.85918e+06
3.69357e+06
1.38042e+06
2.25016e+06
1.54359e+06
2.75074e+06
1.67339e+06
587654
535498
728695
1.12599e+06
1.74632e+06
1.24984e+06
1.35492e+06
427381
902904
5.33847e+06
1.76849e+06
4.00637e+06
545406
722683
2.32418e+06
2.79265e+06
2.46432e+06
2.80592e+06
2.66883e+06
2.37931e+06
2.56142e+06
3.00961e+06
2.82308e+06
3.52411e+06
4.5312e+06
2.70626e+06
4.39106e+06
2.52857e+06
5.95757e+06
1.26631e+06
4.32959e+06
6.01326e+06
6.14626e+06
2.2883e+06
2.50314e+06
2.23836e+06
2.51464e+06
2.5438e+06
2.27616e+06
2.25224e+06
2.33712e+06
2.58163e+06
2.70678e+06
2.38049e+06
2.60538e+06
2.32625e+06
2.40588e+06
2.1901e+06
2.42397e+06
2.2143e+06
2.48536e+06
2.29587e+06
2.25466e+06
2.72895e+06
2.87381e+06
2.46635e+06
3.10969e+06
2.51543e+06
3.1779e+06
2.64444e+06
3.1417e+06
3.60607e+06
4.72382e+06
3.60443e+06
3.7232e+06
2.98686e+06
3.8672e+06
2.36624e+06
2.97468e+06
2.52074e+06
3.47211e+06
3.44788e+06
2.84161e+06
4.97895e+06
5.64963e+06
4.61544e+06
6.66066e+06
4.74599e+06
5.48793e+06
5.50025e+06
4.46371e+06
6.04288e+06
2.57708e+06
4.88554e+06
4.21511e+06
5.66006e+06
3.22659e+06
4.5219e+06
7.38782e+06
5.85481e+06
7.44096e+06
6.38125e+06
6.58704e+06
261529
1.43031e+06
1.31e+06
1.50609e+06
1.77877e+06
2.48463e+06
679037
861580
1.61554e+06
1.04221e+06
849137
1.03636e+06
1.89927e+06
1.25743e+06
871354
1.68209e+06
989893
1.07356e+06
972835
2.00932e+06
1.59184e+06
920746
862462
923442
923832
983196
932684
994908
1.01301e+06
1.05174e+06
1.02e+06
1.15279e+06
1.10081e+06
1.11837e+06
1.17308e+06
1.80529e+06
1.0052e+06
1.08035e+06
1.59185e+06
1.1101e+06
1.16577e+06
1.60948e+06
1.31664e+06
1.88946e+06
2.13031e+06
2.37979e+06
2.13419e+06
1.45967e+06
1.41038e+06
2.83933e+06
2.63528e+06
2.6042e+06
2.35659e+06
2.49084e+06
2.54591e+06
2.3255e+06
919708
948750
1.024e+06
856470
922528
940407
1.00775e+06
1.08082e+06
1.23749e+06
1.16749e+06
1.06293e+06
1.02679e+06
1.13979e+06
1.19948e+06
1.02775e+06
1.03918e+06
1.00257e+06
1.14231e+06
1.16401e+06
1.10539e+06
1.12666e+06
1.00285e+06
907568
1.21213e+06
1.35186e+06
991446
1.0734e+06
1.13216e+06
3.31285e+06
3.20004e+06
3.21063e+06
2.76253e+06
2.78069e+06
2.64107e+06
2.69099e+06
2.67459e+06
2.83825e+06
2.76081e+06
2.38352e+06
2.51661e+06
2.50595e+06
2.44531e+06
1.04033e+06
1.23508e+06
1.19789e+06
1.05263e+06
1.01772e+06
1.19272e+06
1.15514e+06
994423
928803
987104
1.10748e+06
976190
1.05643e+06
1.04956e+06
487289
1.55705e+06
1.59507e+06
905713
1.5463e+06
1.01867e+06
1.12102e+06
1.09006e+06
1.11041e+06
1.15448e+06
1.25693e+06
1.29434e+06
1.20431e+06
1.37303e+06
1.48358e+06
1.24461e+06
1.47923e+06
1.39454e+06
1.28177e+06
1.48971e+06
1.49198e+06
3.05151e+06
2.54621e+06
2.96422e+06
2.20388e+06
2.9528e+06
2.31625e+06
1.84831e+06
915342
890980
929248
1.03121e+06
1.03878e+06
1.06143e+06
1.06412e+06
3.47771e+06
3.49277e+06
3.36786e+06
3.13578e+06
3.16441e+06
2.97402e+06
2.93861e+06
1.42857e+06
1.41675e+06
1.4552e+06
1.5048e+06
1.53416e+06
1.56028e+06
1.53187e+06
1.02078e+06
1.25482e+06
1.08853e+06
1.18597e+06
1.03789e+06
1.10977e+06
1.28635e+06
1.34492e+06
2.46808e+06
2.16846e+06
2.66004e+06
1.16709e+06
2.50664e+06
1.46881e+06
1.16057e+06
1.07723e+06
1.13353e+06
1.37926e+06
1.30125e+06
1.39948e+06
1.26705e+06
2.93169e+06
3.32395e+06
3.28748e+06
2.97792e+06
2.8315e+06
2.64427e+06
2.56615e+06
1.45421e+06
1.32462e+06
1.23547e+06
1.2639e+06
1.67491e+06
1.49944e+06
1.35841e+06
3.25263e+06
3.02348e+06
2.89964e+06
2.29194e+06
1.96277e+06
1.88204e+06
2.3903e+06
1.31948e+06
1.31434e+06
1.11184e+06
1.33763e+06
1.18245e+06
1.39647e+06
1.20399e+06
3.94119e+06
3.28779e+06
4.47549e+06
3.61909e+06
3.4346e+06
4.10039e+06
3.35648e+06
955247
1.19487e+06
1.14762e+06
917370
946859
1.09443e+06
1.11526e+06
3.43394e+06
3.13628e+06
3.02358e+06
3.19044e+06
3.13914e+06
3.5192e+06
3.59915e+06
1.6841e+06
1.28218e+06
2.3445e+06
2.50407e+06
1.9151e+06
1.26499e+06
1.39345e+06
1.08453e+06
1.38626e+06
1.17336e+06
1.21757e+06
1.05874e+06
1.13716e+06
1.32889e+06
1.58099e+06
1.49544e+06
1.61003e+06
1.44334e+06
1.47985e+06
1.58629e+06
1.5584e+06
804661
1.49263e+06
2.22886e+06
395930
2.41299e+06
1.19121e+06
310068
1.83645e+06
1.24453e+06
1.55644e+06
1.73809e+06
1.71365e+06
1.36524e+06
1.49023e+06
3.32257e+06
4.28872e+06
1.66061e+06
2.30338e+06
3.24041e+06
3.85816e+06
4.34742e+06
1.65087e+06
1.47363e+06
1.3507e+06
1.30047e+06
1.76397e+06
1.56197e+06
1.40518e+06
1.32944e+06
1.75395e+06
1.36621e+06
1.6966e+06
1.29925e+06
1.3384e+06
1.75833e+06
271939
253818
462005
1.43522e+06
256368
899627
253275
1.36331e+06
1.34305e+06
1.38983e+06
1.49388e+06
1.50442e+06
1.53159e+06
1.52332e+06
1.66424e+06
1.59666e+06
1.52112e+06
1.50194e+06
1.63065e+06
1.54112e+06
1.62772e+06
2.1858e+06
2.61272e+06
2.66233e+06
1.94582e+06
1.50517e+06
1.673e+06
1.56447e+06
1.29311e+06
1.12182e+06
1.37647e+06
1.462e+06
1.19316e+06
1.22187e+06
1.56078e+06
1.42475e+06
1.21134e+06
1.34511e+06
1.78311e+06
1.79295e+06
1.55404e+06
1.54133e+06
1.0813e+06
1.01325e+06
1.10522e+06
1.37995e+06
1.31341e+06
1.23775e+06
1.46425e+06
1.93689e+06
1.50261e+06
1.49813e+06
1.86128e+06
1.41993e+06
1.40025e+06
1.83949e+06
930681
1.00386e+06
1.0412e+06
1.12148e+06
1.1683e+06
1.32786e+06
1.38434e+06
3.7315e+06
3.73795e+06
3.81698e+06
3.79979e+06
4.17199e+06
3.78541e+06
4.23546e+06
1.5159e+06
1.77636e+06
1.57638e+06
2.32531e+06
1.4204e+06
1.94722e+06
1.72529e+06
1.44191e+06
1.60905e+06
1.5964e+06
1.37444e+06
1.41737e+06
1.56213e+06
1.5608e+06
3.36284e+06
3.43852e+06
3.78613e+06
4.21677e+06
3.53573e+06
3.85952e+06
3.32367e+06
1.62635e+06
2.09742e+06
1.28588e+06
1.06939e+06
1.64971e+06
1.36009e+06
2.69074e+06
1.18525e+06
1.33984e+06
1.53282e+06
965875
1.09841e+06
1.23931e+06
1.45594e+06
757342
467235
674748
2.28119e+06
2.55187e+06
2.63275e+06
2.52197e+06
1.3487e+06
1.65001e+06
1.27439e+06
1.32344e+06
1.61324e+06
1.68334e+06
1.40121e+06
1.68082e+06
1.46256e+06
1.66868e+06
1.50453e+06
1.63393e+06
1.50668e+06
1.74065e+06
2.03364e+06
2.09006e+06
1.83108e+06
1.63384e+06
2.37082e+06
1.83208e+06
1.6442e+06
1.64497e+06
1.93051e+06
1.67239e+06
1.70382e+06
1.9304e+06
1.97583e+06
1.67477e+06
3.924e+06
3.49565e+06
3.72156e+06
3.68501e+06
4.37942e+06
4.32307e+06
4.09972e+06
2.02817e+06
2.3113e+06
2.02905e+06
1.75692e+06
1.70076e+06
1.68955e+06
1.72098e+06
1.50396e+06
1.37538e+06
1.54845e+06
1.58259e+06
1.62123e+06
1.89463e+06
1.96213e+06
4.36045e+06
2.71111e+06
4.52555e+06
4.57151e+06
2.53787e+06
2.9103e+06
4.44497e+06
2.08749e+06
1.98227e+06
1.8028e+06
1.42175e+06
1.50063e+06
1.36938e+06
1.7007e+06
1.44572e+06
1.2491e+06
1.34194e+06
1.67892e+06
1.74607e+06
1.56948e+06
1.60387e+06
1.75512e+06
1.54097e+06
1.50272e+06
1.39794e+06
1.61282e+06
1.72305e+06
1.46739e+06
1.31194e+06
1.46731e+06
1.23067e+06
1.60505e+06
1.45579e+06
1.56131e+06
1.59073e+06
2.07284e+06
1.75823e+06
1.79396e+06
1.74343e+06
1.98827e+06
2.04172e+06
1.71087e+06
1.8422e+06
2.25551e+06
1.91808e+06
2.63846e+06
2.46722e+06
2.54163e+06
2.6609e+06
1.74933e+06
1.69636e+06
2.1968e+06
1.41587e+06
1.61062e+06
1.6752e+06
2.06111e+06
2.86696e+06
3.96981e+06
1.69798e+06
2.59662e+06
2.30294e+06
3.72025e+06
2.08037e+06
2.10714e+06
2.06094e+06
1.99963e+06
1.77169e+06
1.60886e+06
1.6287e+06
1.84535e+06
2.48299e+06
2.25254e+06
1.95051e+06
1.6604e+06
2.56152e+06
2.17278e+06
1.938e+06
1.61846e+06
1.4141e+06
1.61139e+06
1.26454e+06
1.08428e+06
1.41171e+06
1.53087e+06
1.72591e+06
1.98804e+06
1.68229e+06
1.71504e+06
2.18958e+06
2.03873e+06
1.76456e+06
2.18413e+06
2.37967e+06
2.31068e+06
1.93189e+06
1.81567e+06
1.85555e+06
1.88296e+06
1.76071e+06
1.39145e+06
1.70506e+06
1.7365e+06
1.60877e+06
1.62171e+06
1.64135e+06
1.62031e+06
1.60452e+06
1.57189e+06
1.23548e+06
1.29614e+06
1.57556e+06
1.59767e+06
4.29205e+06
2.94728e+06
4.4057e+06
3.48961e+06
2.89877e+06
4.42406e+06
4.30399e+06
2.56212e+06
1.84924e+06
1.6173e+06
1.8121e+06
1.98013e+06
2.36975e+06
1.96296e+06
4.46854e+06
3.44705e+06
4.40676e+06
2.84839e+06
4.2651e+06
3.01147e+06
4.49396e+06
2.06365e+06
2.51462e+06
2.35696e+06
2.14665e+06
2.02063e+06
2.49752e+06
2.0837e+06
253313
259255
253530
365786
257561
253255
253253
2.21451e+06
1.89927e+06
1.81696e+06
1.75823e+06
2.27352e+06
2.11296e+06
1.81955e+06
2.68643e+06
2.17788e+06
2.72354e+06
2.37153e+06
2.02762e+06
2.63104e+06
2.68311e+06
2.28343e+06
2.03483e+06
2.04165e+06
2.39517e+06
2.36851e+06
1.86613e+06
1.78096e+06
273401
256335
253246
253327
253246
253247
257647
253330
253473
277513
253490
326502
452646
253440
1.31838e+06
1.51581e+06
1.12681e+06
1.52616e+06
1.47697e+06
1.22313e+06
969876
1.46734e+06
1.53531e+06
1.50197e+06
1.42533e+06
1.57239e+06
1.57639e+06
1.3654e+06
1.69633e+06
1.95467e+06
1.59022e+06
1.44669e+06
1.63781e+06