/*--------------------------------*- C++ -*----------------------------------*\
  =========                 |
  \\      /  F ield         | OpenFOAM: The Open Source CFD Toolbox
   \\    /   O peration     | Website:  https://openfoam.org
    \\  /    A nd           | Version:  9
     \\/     M anipulation  |
\*---------------------------------------------------------------------------*/
FoamFile
{
    format      ascii;
    class       volVectorField;
    location    "0.00165";
    object      rhoU;
}
// * * * * * * * * * * * * * * * * * * * * * * * * * * * * * * * * * * * * * //

dimensions      [1 -2 -1 0 0 0 0];

internalField   nonuniform List<vector> 
12903
(
(0.0316704 0.0286366 0.143746)
(1.2047e-08 2.22038e-08 1.69657e-08)
(7.79513e-09 1.35908e-08 1.88557e-08)
(1.75241e-10 3.14933e-10 4.94179e-10)
(4.02736e-12 7.01344e-12 1.17807e-11)
(1.15511e-07 1.22394e-07 3.56007e-07)
(2.68895e-09 2.91534e-09 9.9281e-09)
(6.00865e-11 6.60006e-11 2.22192e-10)
(1.47534e-08 7.69507e-09 2.55669e-09)
(6.89907 14.5875 5.8956)
(6.8083e-08 1.04489e-07 -6.69152e-09)
(1.45871e-07 2.43275e-07 1.94453e-07)
(3.46235e-07 6.88029e-07 3.89029e-07)
(3.24545e-07 5.26887e-07 6.06332e-07)
(1.89461e-09 -1.35554e-09 -3.32558e-10)
(1.36839e-06 2.48245e-06 -1.54715e-06)
(2.11994e-08 7.82958e-09 -8.89081e-09)
(7.57296e-08 3.81759e-08 5.35064e-10)
(3.92754e-09 7.45751e-10 3.96438e-10)
(2.50471e-07 3.43239e-07 -1.57165e-07)
(1.50735e-07 3.11213e-07 -9.05321e-08)
(8.97105e-09 1.09636e-08 -3.33044e-09)
(0.307586 0.673337 0.275663)
(9.32494e-05 0.000198944 4.45133e-05)
(0.0523927 0.137525 0.0589679)
(0.00150297 0.00317638 0.00160498)
(5.30985e-05 8.494e-05 3.10926e-05)
(0.161961 0.126539 0.329569)
(2.73374e-06 2.91174e-06 8.06436e-06)
(1.60879 3.53004 1.42812)
(12.6783 25.7608 6.07387)
(3.75551 7.86024 1.54213)
(0.0756874 0.197742 0.0667151)
(0.648317 1.69884 0.201371)
(0.180889 0.462543 0.0490104)
(0.330964 0.861033 0.278853)
(9.52198e-08 7.08454e-08 -2.31544e-07)
(4.57846e-10 -8.69936e-12 -7.3596e-10)
(4.3806e-09 -1.4789e-09 -1.29941e-09)
(4.19412e-09 1.25111e-09 -4.56221e-09)
(3.24348e-09 8.89239e-10 -7.15912e-09)
(1.21236e-08 7.04704e-09 -2.50173e-08)
(2.30904e-08 2.31091e-08 -4.24786e-08)
(3.34619e-06 4.16469e-06 -7.24569e-06)
(7.56529e-08 8.66116e-08 -1.05294e-07)
(1.43522e-05 2.34057e-05 -2.3804e-05)
(9.90849e-06 2.18074e-05 -1.33299e-05)
(4.44916e-07 4.50194e-07 -8.23933e-07)
(5.30841e-07 8.49023e-07 -9.52617e-07)
(9.90318e-05 0.000193458 -0.00019235)
(0.0457204 0.0888693 0.0366577)
(0.875222 1.91636 0.315827)
(0.153202 0.335015 0.0468681)
(0.0142148 0.0345779 0.0120416)
(0.00641084 0.0151706 0.00132492)
(0.038765 0.101566 0.00986089)
(0.00205968 0.00426516 0.00145329)
(1.71909e-08 2.92248e-08 6.38594e-10)
(1.14209e-06 2.69042e-06 -6.39341e-08)
(4.15184e-07 1.33277e-06 1.88382e-07)
(5.44977e-08 1.25612e-07 -1.25254e-09)
(1.56622e-06 3.33601e-06 5.01711e-07)
(2.00611e-06 3.33382e-06 -6.39018e-08)
(1.57019e-05 5.28624e-05 1.13426e-05)
(1.02793e-06 2.22527e-06 2.04661e-06)
(6.29625e-05 9.11627e-05 8.3013e-05)
(3.05731e-06 5.47574e-06 3.54189e-06)
(1.93645e-05 3.61327e-05 4.31588e-05)
(0.000194996 0.000347129 0.000272351)
(2.62362e-06 3.75793e-06 4.39362e-06)
(6.63055e-06 1.26028e-05 -1.83772e-06)
(1.04965e-05 2.47261e-05 -9.68151e-07)
(0.000253131 0.000621099 1.7797e-05)
(0.000656874 0.00167522 0.000450283)
(7.17425e-05 0.000205097 -6.39499e-06)
(0.00163497 0.00467953 0.000148226)
(3.06771e-05 7.67214e-05 1.43837e-05)
(0.0182559 0.0197575 0.0340961)
(0.000145867 0.00020144 0.000365756)
(0.00287425 0.00463369 0.00669494)
(3.81429e-05 4.00204e-05 6.40136e-05)
(0.2142 0.212138 0.553111)
(0.00137084 0.00127257 0.00411213)
(0.000518208 0.000416749 0.00118176)
(7.64736e-08 1.59678e-07 5.06717e-09)
(3.09518e-10 4.86908e-10 2.44581e-11)
(2.9719e-07 -1.12065e-09 1.26154e-08)
(5.41553e-10 -5.25341e-11 2.08617e-11)
(1.80803e-12 -6.15614e-13 1.10845e-13)
(-2.34739e-14 9.10442e-14 0)
(3.23017e-12 3.38981e-11 6.58008e-13)
(1.39475e-12 6.09947e-12 2.02227e-13)
(9.01026e-08 1.55298e-08 4.79079e-09)
(2.48714e-09 1.9115e-10 1.09324e-10)
(6.13421e-11 2.0223e-12 2.35986e-12)
(1.3141e-12 5.22959e-14 4.70718e-14)
(2.16943e-14 3.85114e-14 0)
(7.38964e-15 8.84067e-14 8.52651e-16)
(7.822e-09 5.23596e-09 4.56088e-10)
(2.65104e-10 1.46218e-10 1.293e-11)
(7.35641e-12 3.30757e-12 3.43561e-13)
(1.67571e-13 5.62518e-14 7.86334e-15)
(5.66824e-16 0 0)
(0 0 0)
(2.32939e-10 2.34087e-10 1.45702e-11)
(8.45111e-12 7.07728e-12 4.05116e-13)
(2.39284e-13 1.67463e-13 7.20017e-15)
(1.88354e-15 5.6736e-16 0)
(0 0 0)
(0 0 0)
(6.02332e-12 7.74884e-12 3.84072e-13)
(2.18724e-13 2.30056e-13 7.29491e-15)
(2.82292e-15 1.88728e-15 0)
(0 0 0)
(0 0 0)
(0 0 0)
(1.29224e-13 2.05085e-13 5.11591e-15)
(1.31672e-15 2.45357e-15 0)
(0 0 0)
(0 0 0)
(0 0 0)
(0 0 0)
(0 9.4739e-16 0)
(0 0 0)
(0 0 0)
(0 0 0)
(0 0 0)
(0 0 0)
(1.22242e-09 3.31537e-09 7.00156e-10)
(1.38192e-11 3.67229e-11 8.1152e-12)
(5.19052e-08 -2.92351e-10 9.46535e-09)
(8.75276e-11 -9.75149e-12 1.63888e-11)
(3.56743e-13 -6.90648e-14 6.39507e-14)
(3.69063e-16 6.22435e-14 1.71127e-16)
(7.78963e-14 1.14742e-12 2.26251e-13)
(1.16908e-13 7.80258e-13 1.558e-13)
(2.6655e-08 4.17005e-09 5.17917e-09)
(6.74967e-10 4.77255e-11 1.27551e-10)
(1.44594e-11 4.72321e-13 2.72403e-12)
(2.69161e-13 4.09273e-14 4.4485e-14)
(1.62206e-15 3.75167e-14 2.56144e-17)
(0 1.11283e-14 8.52651e-16)
(1.89178e-09 1.37456e-09 4.82505e-10)
(6.01939e-11 3.4227e-11 1.42465e-11)
(1.51004e-12 6.80786e-13 3.42671e-13)
(2.75551e-14 5.09406e-15 3.22113e-15)
(0 0 0)
(0 0 0)
(4.96203e-11 5.23796e-11 1.5341e-11)
(1.7091e-12 1.44688e-12 4.664e-13)
(4.30711e-14 2.73517e-14 6.44225e-15)
(0 0 0)
(0 0 0)
(0 0 0)
(1.1706e-12 1.55687e-12 4.12115e-13)
(3.82225e-14 4.10994e-14 7.48438e-15)
(0 0 0)
(0 0 0)
(0 0 0)
(0 0 0)
(1.98952e-14 3.5356e-14 5.00397e-15)
(0 0 0)
(0 0 0)
(0 0 0)
(0 0 0)
(0 0 0)
(0 0 1.16327e-17)
(0 0 0)
(0 0 0)
(0 0 0)
(0 0 0)
(0 0 0)
(5.78041e-12 2.52661e-11 5.46963e-12)
(1.31744e-12 5.71542e-12 9.35943e-13)
(1.03326e-11 -8.93389e-13 1.47261e-12)
(2.30464e-14 5.26749e-14 3.33918e-15)
(0 6.05382e-14 1.64163e-16)
(0 1.8627e-14 2.5783e-14)
(2.04636e-14 1.25038e-13 1.22391e-14)
(3.61373e-09 5.9987e-10 7.03272e-10)
(7.331e-11 5.66056e-12 1.41281e-11)
(1.38776e-12 8.39388e-14 2.58339e-13)
(2.06929e-14 3.75167e-14 1.68599e-15)
(0 3.75167e-14 0)
(0 0 0)
(2.09237e-10 1.55722e-10 5.33379e-11)
(5.89324e-12 3.37193e-12 1.38679e-12)
(1.31672e-13 5.4108e-14 2.53901e-14)
(0 0 0)
(0 0 0)
(0 0 0)
(4.80478e-12 5.19618e-12 1.48388e-12)
(1.48134e-13 1.26044e-13 3.61903e-14)
(7.56946e-16 0 0)
(0 0 0)
(0 0 0)
(0 0 0)
(1.00613e-13 1.35388e-13 3.11632e-14)
(5.67468e-16 1.89478e-16 0)
(0 0 0)
(0 0 0)
(0 0 0)
(0 0 0)
(0 7.93583e-16 9.32524e-17)
(0 0 0)
(0 0 0)
(0 0 0)
(0 0 0)
(0 0 0)
(0 0 7.01776e-20)
(0 0 0)
(0 0 0)
(0 0 0)
(0 0 0)
(0 0 0)
(3.06291e-13 1.6248e-12 2.59372e-13)
(1.89478e-13 8.67999e-13 1.4656e-13)
(8.42959e-13 2.50111e-14 5.22027e-14)
(3.53885e-17 6.17698e-14 0)
(0 5.99698e-14 1.63424e-16)
(0 0 2.33197e-14)
(6.0633e-15 1.52329e-14 7.13804e-16)
(2.87178e-10 6.39919e-11 5.75243e-11)
(5.13191e-12 5.22533e-13 1.12826e-12)
(8.17569e-14 4.09273e-14 1.83194e-14)
(0 3.75167e-14 -3.56392e-16)
(0 3.75167e-14 0)
(0 0 0)
(1.41309e-11 1.09965e-11 4.2805e-12)
(3.59618e-13 2.04005e-13 1.07718e-13)
(4.89946e-15 9.46102e-16 4.73695e-16)
(0 0 0)
(0 0 0)
(0 0 0)
(2.94828e-13 3.18462e-13 1.11785e-13)
(4.89561e-15 3.78311e-15 1.04213e-15)
(0 0 0)
(0 0 0)
(0 0 0)
(0 0 0)
(2.46321e-15 4.077e-15 1.07574e-15)
(0 0 0)
(0 0 0)
(0 0 0)
(0 0 0)
(0 0 0)
(0 8.02269e-18 9.51598e-19)
(0 0 0)
(0 0 0)
(0 0 0)
(0 0 0)
(0 0 0)
(0 0 1.23441e-24)
(0 0 0)
(0 0 0)
(0 0 0)
(0 0 0)
(0 0 0)
(1.68736e-07 2.12691e-07 6.04315e-10)
(3.47479e-10 6.08839e-10 -1.02501e-10)
(2.55113e-12 5.55369e-12 -1.1759e-12)
(3.64191e-14 8.71599e-14 2.04024e-14)
(3.58114e-14 1.05063e-13 1.64697e-14)
(1.23732e-07 2.24541e-07 2.08509e-08)
(4.91891e-11 3.93939e-11 -2.12891e-11)
(8.55095e-14 1.60014e-13 -6.72249e-14)
(1.83435e-16 5.93066e-14 1.32114e-15)
(0 0 1.47847e-14)
(5.68434e-16 2.90095e-20 1.27877e-15)
(3.31324e-10 2.33441e-10 2.81837e-12)
(4.35848e-12 1.64481e-12 -3.75577e-14)
(4.94242e-14 4.6659e-14 -3.56455e-15)
(0 3.75167e-14 1.23537e-15)
(0 3.75167e-14 -9.70716e-16)
(0 0 0)
(1.02299e-11 8.23768e-12 2.40195e-13)
(1.46142e-13 8.04294e-14 2.27374e-15)
(1.89478e-16 0 0)
(0 0 0)
(0 0 0)
(0 0 0)
(1.69583e-13 1.80149e-13 4.84445e-15)
(5.68434e-16 5.68005e-16 0)
(0 0 0)
(0 0 0)
(0 0 0)
(0 0 0)
(1.89478e-16 1.66457e-15 1.17885e-17)
(0 0 0)
(0 0 0)
(0 0 0)
(0 0 0)
(0 0 0)
(0 1.78946e-18 -2.09788e-20)
(0 0 0)
(0 0 0)
(0 0 0)
(0 0 0)
(0 0 0)
(0 0 -6.31831e-22)
(0 0 0)
(0 0 0)
(0 0 0)
(0 0 0)
(0 0 0)
(6.40855e-06 7.99488e-06 6.72466e-06)
(2.86141e-09 6.83139e-09 2.43537e-09)
(2.03923e-10 4.29544e-10 7.27419e-11)
(1.01214e-11 1.76442e-11 2.21808e-12)
(4.90796e-13 8.96362e-13 7.37149e-14)
(2.21689e-14 2.86112e-14 2.60359e-15)
(1.04788e-08 9.47389e-09 4.71351e-09)
(1.69389e-10 8.87894e-11 3.49795e-11)
(2.56038e-12 1.28272e-12 1.7997e-13)
(4.1207e-14 7.03776e-15 -1.21605e-14)
(3.66472e-15 -1.11298e-14 0)
(0 0 0)
(2.33743e-10 2.58689e-10 6.07555e-11)
(4.94196e-12 3.71467e-12 5.94325e-13)
(8.65737e-14 5.68641e-14 -3.45527e-14)
(0 4.14729e-14 -1.00153e-14)
(0 3.44086e-14 0)
(0 0 0)
(4.63634e-12 5.85802e-12 8.36146e-13)
(1.09886e-13 1.00873e-13 4.19559e-16)
(0 0 -8.68892e-15)
(0 0 0)
(0 0 0)
(0 0 0)
(8.33703e-14 1.19142e-13 9.05497e-15)
(0 0 0)
(0 0 0)
(0 0 0)
(0 0 0)
(0 0 0)
(0 5.36995e-16 2.18502e-17)
(0 0 0)
(0 0 0)
(0 0 0)
(0 0 0)
(0 0 0)
(0 9.11339e-19 6.68814e-21)
(0 0 0)
(0 0 0)
(0 0 0)
(0 0 0)
(0 0 0)
(0 0 0)
(0 0 0)
(0 0 0)
(0 0 0)
(0 0 0)
(0 0 0)
(1.87757e-08 2.4159e-08 1.65945e-08)
(8.92278e-10 1.33529e-09 6.86462e-10)
(4.97958e-11 6.63932e-11 3.23251e-11)
(2.30821e-12 2.57569e-12 1.14284e-12)
(9.15222e-14 9.39811e-14 5.73891e-14)
(0 0 2.80192e-16)
(5.96016e-10 8.06555e-10 3.97629e-10)
(2.50842e-11 4.00936e-11 1.29805e-11)
(1.26109e-12 1.91959e-12 4.46749e-13)
(5.14327e-14 1.09823e-13 3.72189e-15)
(0 0 0)
(0 0 0)
(1.72327e-11 2.57621e-11 1.0931e-11)
(7.13002e-13 1.15255e-12 2.87195e-13)
(2.68161e-14 4.78705e-14 -3.54595e-15)
(0 0 0)
(0 0 0)
(0 0 0)
(3.87293e-13 6.78354e-13 2.10044e-13)
(1.33293e-14 2.54445e-14 3.03165e-15)
(0 0 0)
(0 0 0)
(0 0 0)
(0 0 0)
(4.54747e-15 1.24674e-14 2.15826e-15)
(0 0 0)
(0 0 0)
(0 0 0)
(0 0 0)
(0 0 0)
(0 1.70542e-17 2.51356e-18)
(0 0 0)
(0 0 0)
(0 0 0)
(0 0 0)
(0 0 0)
(0 3.34058e-21 6.58715e-22)
(0 0 0)
(0 0 0)
(0 0 0)
(0 0 0)
(0 0 0)
(0 0 0)
(0 0 0)
(0 0 0)
(0 0 0)
(0 0 0)
(0 0 0)
(6.29321e-10 8.23953e-10 8.30283e-10)
(3.85718e-11 5.2795e-11 4.64621e-11)
(2.22759e-12 2.5932e-12 2.17436e-12)
(1.02221e-13 1.00423e-13 7.97949e-14)
(8.38082e-16 5.68434e-16 9.17982e-16)
(0 0 9.96312e-19)
(2.12075e-11 3.30839e-11 2.36935e-11)
(1.28162e-12 2.06876e-12 1.28802e-12)
(7.88859e-14 1.15881e-13 6.75083e-14)
(9.44494e-16 2.45421e-15 3.78956e-16)
(0 0 0)
(0 0 0)
(6.14856e-13 1.12095e-12 6.35866e-13)
(3.1774e-14 6.30371e-14 2.69059e-14)
(0 0 9.4739e-17)
(0 0 0)
(0 0 0)
(0 0 0)
(1.13687e-14 2.84264e-14 1.20572e-14)
(0 0 0)
(0 0 0)
(0 0 0)
(0 0 0)
(0 0 0)
(0 4.82045e-17 1.93273e-17)
(0 0 0)
(0 0 0)
(0 0 0)
(0 0 0)
(0 0 0)
(0 5.32775e-21 3.93694e-21)
(0 0 0)
(0 0 0)
(0 0 0)
(0 0 0)
(0 0 0)
(0 0 0)
(0 0 0)
(0 0 0)
(0 0 0)
(0 0 0)
(0 0 0)
(0 0 0)
(0 0 0)
(0 0 0)
(0 0 0)
(0 0 0)
(0 0 0)
(1.69112e-11 2.25564e-11 2.8524e-11)
(1.13992e-12 1.45064e-12 1.69936e-12)
(6.12809e-14 6.40436e-14 7.76728e-14)
(5.1778e-16 1.89478e-16 8.51172e-16)
(1.32628e-18 0 1.49792e-18)
(0 0 0)
(6.26983e-13 1.04142e-12 9.60996e-13)
(3.69963e-14 5.96751e-14 5.22012e-14)
(0 0 2.84217e-16)
(0 0 0)
(0 0 0)
(0 0 0)
(1.49688e-14 3.34339e-14 2.53091e-14)
(0 0 0)
(0 0 0)
(0 0 0)
(0 0 0)
(0 0 0)
(0 6.95547e-17 4.99044e-17)
(0 0 0)
(0 0 0)
(0 0 0)
(0 0 0)
(0 0 0)
(0 6.49845e-21 1.31847e-20)
(0 0 0)
(0 0 0)
(0 0 0)
(0 0 0)
(0 0 0)
(0 0 0)
(0 0 0)
(0 0 0)
(0 0 0)
(0 0 0)
(0 0 0)
(0 0 0)
(0 0 0)
(0 0 0)
(0 0 0)
(0 0 0)
(0 0 0)
(0 0 0)
(0 0 0)
(0 0 0)
(0 0 0)
(0 0 0)
(0 0 0)
(4.00419e-13 5.4456e-13 8.07082e-13)
(2.31318e-14 2.91796e-14 4.52853e-14)
(2.17364e-16 0 0)
(4.25532e-19 0 0)
(0 0 0)
(0 0 0)
(1.06108e-14 2.25157e-14 2.80428e-14)
(0 0 0)
(0 0 0)
(0 0 0)
(0 0 0)
(0 0 0)
(0 5.0984e-17 0)
(0 0 0)
(0 0 0)
(0 0 0)
(0 0 0)
(0 0 0)
(0 3.23606e-21 0)
(0 0 0)
(0 0 0)
(0 0 0)
(0 0 0)
(0 0 0)
(0 0 0)
(0 0 0)
(0 0 0)
(0 0 0)
(0 0 0)
(0 0 0)
(0 0 0)
(0 0 0)
(0 0 0)
(0 0 0)
(0 0 0)
(0 0 0)
(0 0 0)
(0 0 0)
(0 0 0)
(0 0 0)
(0 0 0)
(0 0 0)
(0 0 0)
(0 0 0)
(0 0 0)
(0 0 0)
(0 0 0)
(0 0 0)
(1.00229e-07 -6.34152e-08 2.98974e-09)
(8.42748e-10 -7.30825e-10 2.7652e-11)
(4.69816e-08 -3.06701e-08 7.93357e-09)
(6.81086e-10 -6.23696e-10 1.23221e-10)
(1.08238e-10 -7.68127e-11 2.88537e-12)
(1.14159e-12 -1.17525e-12 5.72224e-14)
(7.58231e-11 -5.40113e-11 1.15818e-11)
(1.15809e-12 -1.59228e-12 1.67271e-13)
(2.3122e-13 -2.17935e-13 1.17476e-14)
(8.23178e-15 2.31236e-15 0)
(1.45519e-13 -1.04845e-13 8.04416e-15)
(2.27374e-15 3.07132e-15 0)
(4.73474e-07 2.76288e-06 2.33089e-08)
(-7.70866e-14 7.54186e-14 3.78956e-16)
(-5.7852e-11 8.80591e-11 1.94345e-12)
(1.36879e-07 8.12324e-07 8.82541e-08)
(-7.57912e-16 8.6095e-15 -1.10186e-15)
(-1.92479e-11 2.59597e-11 4.41379e-12)
(6.56261e-09 8.30013e-09 2.52023e-10)
(5.05864e-10 2.30479e-09 4.7589e-11)
(8.87647e-11 1.88911e-10 4.62535e-12)
(2.02115e-08 4.39664e-08 5.7283e-09)
(1.80873e-09 2.39022e-09 4.14836e-10)
(1.32949e-10 6.23556e-10 8.93084e-11)
(1.37643e-11 5.88265e-11 9.00579e-12)
(1.31392e-08 -8.26904e-10 5.46096e-10)
(1.1163e-07 1.76765e-08 3.14033e-09)
(1.08627e-08 -3.78955e-09 4.31877e-10)
(1.5399e-07 -1.56228e-09 2.23004e-08)
(6.66053e-09 -4.44592e-10 8.55226e-10)
(6.28098e-08 4.76361e-09 1.0864e-08)
(8.16128e-09 -4.09146e-09 1.01133e-09)
(2.3936e-11 -8.00611e-12 1.16905e-12)
(6.1154e-10 -2.11566e-10 1.84935e-11)
(1.58285e-10 -1.25002e-10 6.33037e-12)
(2.76669e-10 -3.59125e-11 3.6046e-11)
(1.3036e-11 -5.67686e-12 1.37222e-12)
(4.8742e-10 -2.17265e-10 5.65001e-11)
(1.23791e-10 -9.93737e-11 1.25915e-11)
(1.32493e-13 -7.12438e-14 5.11591e-15)
(9.75233e-12 -5.81231e-12 2.86897e-13)
(3.18285e-12 -2.7108e-12 1.2197e-13)
(6.70308e-13 -3.21165e-13 7.41969e-14)
(6.73426e-14 -4.01693e-14 4.30603e-15)
(8.22393e-12 -5.21152e-12 8.1822e-13)
(2.46961e-12 -2.09474e-12 2.37443e-13)
(-9.70187e-13 1.94968e-12 5.91172e-14)
(1.7842e-13 -9.17664e-14 4.16852e-15)
(2.76638e-14 -8.63116e-15 1.32635e-15)
(-3.52305e-15 6.21623e-14 -7.63764e-15)
(-3.47882e-13 6.75233e-13 4.33781e-14)
(1.49907e-13 -8.00329e-14 6.44225e-15)
(3.37271e-14 -2.12778e-14 -5.14896e-15)
(1.73147e-08 -1.06102e-08 3.51826e-09)
(2.35176e-10 -2.09303e-10 6.1004e-11)
(6.2117e-11 -5.85197e-11 1.09651e-11)
(2.61066e-11 -1.72704e-11 6.34069e-12)
(2.03858e-13 -2.75704e-13 1.00802e-13)
(6.99553e-12 -4.99004e-12 1.00962e-12)
(1.00044e-13 -1.1669e-13 1.33324e-14)
(3.26541e-14 -1.5236e-14 5.30539e-15)
(0 6.80902e-15 0)
(2.27374e-15 4.53361e-15 0)
(0 4.55861e-15 0)
(5.3377e-09 3.40765e-08 5.44323e-09)
(0 9.15393e-15 0)
(-2.49368e-12 3.34379e-12 9.44172e-13)
(3.06765e-11 3.27094e-10 8.76092e-11)
(0 6.75595e-15 -4.84439e-16)
(-2.26616e-13 2.98204e-13 3.71958e-14)
(1.40468e-10 1.92155e-10 4.91223e-11)
(9.17868e-12 5.91145e-11 1.11994e-11)
(1.66283e-12 7.37221e-12 1.59977e-12)
(5.65032e-11 2.02823e-10 6.14069e-11)
(9.76057e-12 2.35567e-11 6.2817e-12)
(6.742e-13 5.09696e-12 1.19254e-12)
(-2.32501e-13 1.46315e-12 3.07376e-13)
(2.19949e-09 -1.59455e-10 4.57101e-10)
(1.8796e-08 1.76599e-09 3.09293e-09)
(2.37322e-09 -1.17225e-09 5.00207e-10)
(6.27328e-10 -5.30934e-11 8.08968e-11)
(7.5489e-09 -9.88203e-10 1.59035e-09)
(8.67571e-10 -4.70334e-10 2.1237e-10)
(3.97484e-12 -1.6333e-12 9.80805e-13)
(1.26164e-10 -5.23104e-11 2.50789e-11)
(3.8699e-11 -3.16184e-11 8.53613e-12)
(2.58969e-11 -3.37584e-12 3.46715e-12)
(1.28258e-12 -5.50434e-13 2.19609e-13)
(6.20242e-11 -3.69063e-11 1.44409e-11)
(1.29018e-11 -1.06382e-11 3.78122e-12)
(2.00963e-14 3.31587e-14 2.61114e-15)
(2.04135e-12 -1.21135e-12 4.1401e-13)
(7.03343e-13 -5.94223e-13 1.66634e-13)
(5.45678e-14 2.1411e-14 4.93445e-15)
(5.50084e-15 4.96433e-14 5.66422e-16)
(1.04954e-12 -7.51918e-13 2.42532e-13)
(2.30406e-13 -1.81991e-13 5.68434e-14)
(-3.40492e-14 1.11007e-13 3.23108e-14)
(2.91298e-14 -5.31585e-15 3.03165e-15)
(9.85286e-15 9.10691e-16 1.33143e-15)
(2.28623e-16 5.92119e-14 -3.90621e-15)
(0 4.8218e-14 -1.97336e-14)
(1.24224e-14 4.09238e-15 2.08426e-15)
(2.65269e-15 1.17558e-15 0)
(2.3738e-11 -2.06936e-11 4.79607e-12)
(7.44421e-12 -6.97384e-12 1.53214e-12)
(2.66546e-12 -1.69455e-12 5.07043e-13)
(1.13385e-14 -6.37177e-15 1.89478e-15)
(7.70797e-13 -5.02802e-13 1.27449e-13)
(8.33703e-15 3.82487e-15 0)
(0 7.57228e-15 0)
(0 8.3351e-15 0)
(0 8.35727e-15 0)
(0 6.82184e-15 0)
(-2.83497e-13 2.00627e-11 3.84336e-12)
(0 7.57106e-15 0)
(-3.13743e-14 5.55156e-14 3.24037e-14)
(-4.26288e-13 4.57931e-12 5.71843e-13)
(0 7.55655e-15 -4.78786e-16)
(0 1.53485e-14 -1.6248e-14)
(1.44133e-12 5.55284e-12 8.75478e-13)
(9.38728e-14 7.88616e-13 1.30351e-13)
(-1.51973e-13 5.11212e-13 8.01002e-14)
(1.27045e-12 7.05548e-12 1.18387e-12)
(2.0165e-13 2.24342e-12 4.54909e-13)
(5.40907e-14 2.38742e-13 3.00259e-14)
(-6.48435e-14 1.76594e-13 1.63848e-14)
(2.70401e-10 -1.82644e-11 4.62114e-11)
(2.28687e-09 2.86206e-10 3.4258e-10)
(2.63523e-10 -1.21195e-10 5.33113e-11)
(8.06976e-11 -5.53877e-12 1.16624e-11)
(9.43699e-10 -6.84699e-11 2.13393e-10)
(8.99814e-11 -4.46163e-11 2.33448e-11)
(4.19782e-13 -9.33179e-14 9.3896e-14)
(1.27917e-11 -5.04691e-12 2.532e-12)
(3.71566e-12 -3.05756e-12 8.12423e-13)
(3.08115e-12 -2.92933e-13 4.43162e-13)
(1.31846e-13 -6.63173e-15 -2.76495e-15)
(6.08794e-12 -3.50931e-12 1.43226e-12)
(1.22843e-12 -1.02408e-12 3.58682e-13)
(1.53342e-15 6.12014e-14 0)
(1.81819e-13 -9.5094e-14 3.4864e-14)
(5.72224e-14 -3.11271e-14 9.17245e-15)
(1.47443e-15 5.95909e-14 -4.59998e-15)
(7.38951e-20 5.70329e-14 0)
(9.07418e-14 -5.14469e-14 1.45898e-14)
(1.72419e-14 -2.79462e-15 2.65269e-15)
(-1.62566e-16 5.08478e-14 1.55929e-14)
(0 6.22451e-15 0)
(0 1.25106e-15 0)
(0 6.01593e-14 -3.52189e-15)
(0 4.38312e-14 -1.81254e-14)
(0 7.35549e-15 0)
(0 1.25323e-15 0)
(1.58604e-12 -1.27726e-12 4.05483e-13)
(7.21322e-11 6.50577e-11 -7.37748e-11)
(1.80095e-13 -7.33757e-14 3.22113e-14)
(0 6.82246e-15 0)
(6.66432e-12 7.1992e-12 -8.88658e-12)
(3.10744e-14 7.63559e-14 -9.77349e-14)
(0 9.09397e-15 0)
(0 8.34217e-15 0)
(7.57912e-16 1.2889e-14 -1.36602e-14)
(0 7.57881e-15 0)
(-8.74264e-14 1.14293e-12 2.27631e-13)
(0 6.82454e-15 0)
(0 2.23733e-15 1.72455e-14)
(-1.57003e-14 2.0636e-13 1.51582e-15)
(0 3.84652e-15 0)
(0 0 -2.37623e-14)
(9.57978e-14 6.54836e-13 1.00189e-13)
(4.22401e-14 5.50078e-14 1.50765e-15)
(-1.60935e-14 6.0633e-14 1.49232e-14)
(9.46247e-14 5.38455e-13 4.81274e-14)
(1.03245e-14 2.69059e-13 3.3777e-14)
(4.5293e-14 1.44003e-14 -6.19989e-15)
(-7.72358e-15 1.89478e-14 -7.61032e-15)
(2.63481e-11 4.4517e-14 1.19687e-12)
(1.73605e-10 2.93407e-11 2.37387e-11)
(1.83441e-11 -7.88456e-12 4.46728e-12)
(1.52191e-10 5.99297e-11 -4.61726e-11)
(3.18365e-10 2.1945e-10 -7.46727e-11)
(1.25191e-11 1.07845e-12 -1.08609e-12)
(2.4903e-14 5.22959e-14 1.98603e-14)
(8.06653e-13 -2.90512e-13 2.20363e-13)
(2.16763e-13 -1.48346e-13 6.4281e-14)
(3.21804e-12 1.0192e-12 -1.26986e-12)
(7.96072e-14 8.18078e-14 -9.20029e-14)
(5.4879e-13 -4.21131e-14 -2.63375e-14)
(7.15878e-14 -3.65991e-14 -4.81139e-15)
(1.65794e-17 6.08225e-14 0)
(4.53547e-15 4.24542e-15 0)
(1.89478e-15 7.80266e-15 0)
(1.61168e-17 6.17698e-14 -9.82657e-15)
(3.45767e-17 6.04142e-14 0)
(1.91653e-15 7.15942e-15 0)
(0 7.21583e-15 0)
(0 4.70582e-14 1.55627e-14)
(0 6.89938e-15 0)
(0 1.11328e-15 0)
(0 5.64239e-14 -8.60389e-15)
(0 4.21015e-14 -3.32193e-14)
(0 3.73639e-15 0)
(0 3.86999e-16 -6.84156e-15)
(6.00181e-09 1.09129e-08 -1.42747e-09)
(1.00144e-10 1.1675e-10 -9.30156e-11)
(9.24339e-13 1.25292e-12 -1.15961e-12)
(3.10869e-07 2.94552e-07 5.81956e-08)
(1.4481e-08 1.54651e-08 1.9856e-09)
(1.22798e-08 1.38012e-08 1.16586e-09)
(5.85338e-10 7.11356e-10 2.6239e-11)
(2.05224e-11 4.58044e-11 -1.14893e-11)
(1.72489e-13 2.95854e-13 -2.41016e-13)
(9.42314e-16 1.1674e-14 -3.78956e-16)
(7.70838e-10 9.0116e-10 7.06407e-11)
(5.2465e-11 8.96561e-11 -4.2946e-12)
(3.1963e-11 4.27023e-11 -1.80662e-13)
(2.21587e-12 4.37644e-12 -2.87603e-13)
(9.53531e-14 4.57779e-13 -1.26087e-13)
(3.71136e-16 7.32563e-15 0)
(0 0 2.38953e-14)
(5.35952e-12 9.96102e-12 -5.31657e-13)
(6.87047e-13 1.63865e-12 -1.04198e-13)
(2.4855e-13 4.60007e-13 1.80884e-14)
(1.33409e-15 4.1306e-14 3.34632e-14)
(6.40544e-08 1.99341e-08 3.03035e-09)
(1.89833e-09 1.46026e-09 5.81247e-10)
(1.32237e-10 2.38628e-10 4.88394e-11)
(9.43538e-10 9.87424e-10 2.98525e-10)
(1.65017e-11 3.40143e-11 7.42641e-12)
(1.11662e-05 1.08184e-05 2.30819e-06)
(2.47806e-08 2.8538e-08 1.92666e-09)
(6.06663e-13 1.97739e-12 2.8554e-13)
(2.4346e-12 4.50996e-12 1.04625e-12)
(0.0102597 0.00603892 0.0169052)
(4.57985e-08 9.40729e-08 4.41108e-08)
(5.14743e-09 8.03486e-09 2.21511e-09)
(2.47653e-10 3.17285e-10 6.62473e-11)
(4.55516e-11 3.37498e-11 8.9046e-12)
(1.25093e-12 8.04713e-13 2.59459e-13)
(5.7415e-07 5.05845e-07 8.30887e-07)
(3.299e-08 3.30527e-08 3.83084e-08)
(2.01622e-09 1.71965e-09 1.9638e-09)
(8.7119e-11 6.22984e-11 6.69935e-11)
(3.39729e-12 2.0348e-12 2.12461e-12)
(8.77283e-14 3.75167e-14 3.52709e-14)
(1.45497e-08 1.28604e-08 2.56333e-08)
(9.63054e-10 8.77453e-10 1.43293e-09)
(5.69802e-11 4.27108e-11 6.71953e-11)
(2.65964e-12 1.66438e-12 2.53465e-12)
(9.67963e-14 4.83169e-14 7.62128e-14)
(0 0 2.58565e-16)
(3.36241e-10 2.99223e-10 6.86921e-10)
(2.4444e-11 2.10834e-11 4.19046e-11)
(1.49093e-12 1.05274e-12 2.03145e-12)
(6.40372e-14 3.61903e-14 7.57631e-14)
(2.26311e-16 0 3.29496e-16)
(0 0 0)
(7.47165e-12 6.82178e-12 1.66539e-11)
(5.71297e-13 4.71232e-13 1.07008e-12)
(2.96093e-14 1.57267e-14 4.77485e-14)
(8.76891e-17 0 0)
(0 0 0)
(0 0 0)
(3.45877e-05 0.000114108 1.11334e-06)
(1.05034e-05 3.48492e-05 4.18869e-06)
(1.04342e-05 1.52746e-06 3.02804e-07)
(9.79939e-06 9.18725e-06 4.90313e-07)
(3.34268e-07 2.77155e-07 1.17204e-08)
(4.06771e-06 5.07543e-07 5.1795e-07)
(2.88597e-06 2.81697e-06 4.33074e-07)
(1.13003e-07 1.04119e-07 1.93878e-08)
(4.74366e-07 1.62938e-06 2.73079e-07)
(2.36591e-09 1.13523e-08 3.7733e-09)
(2.9091e-07 7.57567e-08 6.22352e-08)
(1.66879e-07 1.92021e-07 5.35654e-08)
(6.11016e-09 6.23945e-09 1.88771e-09)
(1.36926e-08 8.27097e-09 6.85582e-09)
(5.42956e-09 8.46272e-09 3.61836e-09)
(2.94803e-10 5.14976e-10 1.87133e-10)
(1.27792e-11 3.1872e-10 7.74484e-11)
(8.3154e-08 1.37124e-07 2.71531e-08)
(-1.20953e-12 6.58527e-11 1.03452e-11)
(1.25809e-09 1.86468e-09 4.9211e-10)
(4.05611e-10 7.79178e-10 2.362e-10)
(3.58648e-11 1.10392e-10 2.07759e-11)
(4.38225e-09 4.53688e-09 1.20867e-09)
(3.15304e-10 6.32523e-10 1.54601e-10)
(8.62938e-11 1.97478e-10 3.84668e-11)
(5.96977e-12 4.30305e-11 9.49228e-12)
(2.00503e-08 3.22419e-08 9.30724e-09)
(-5.21282e-13 1.67014e-11 3.97102e-12)
(2.47439e-09 4.38884e-09 5.5488e-10)
(-4.31075e-13 2.77705e-12 1.79244e-14)
(8.84067e-11 2.15967e-10 3.7746e-11)
(1.82705e-11 4.46992e-11 9.67023e-12)
(2.54465e-12 1.31081e-11 2.27298e-12)
(1.59034e-10 2.80238e-10 4.66458e-11)
(2.62052e-11 7.43175e-11 1.85371e-11)
(3.18075e-12 1.32236e-11 1.49782e-12)
(2.64132e-13 5.52886e-12 1.17765e-12)
(0.000556082 0.000560332 0.000255674)
(0.000174386 0.000134132 0.000121614)
(2.5532e-06 2.59002e-06 3.20204e-07)
(7.4951e-08 1.24067e-07 -1.14605e-08)
(9.63994e-05 7.62601e-05 7.062e-05)
(5.96607e-06 4.95667e-06 4.21131e-06)
(6.82881e-06 5.06438e-06 2.49683e-06)
(3.18442e-07 2.92975e-07 1.0545e-07)
(1.98447e-07 2.8172e-07 4.07694e-08)
(4.57016e-09 7.16523e-09 -8.57689e-10)
(2.50871e-10 4.8183e-10 -1.09909e-10)
(3.54805e-07 2.67883e-07 2.14705e-07)
(2.30112e-08 2.33045e-08 9.47819e-09)
(1.72841e-08 1.7205e-08 5.09397e-09)
(1.15488e-09 1.62525e-09 1.25912e-10)
(1.56986e-09 3.67679e-09 2.3777e-10)
(2.6873e-11 5.17624e-11 -1.10889e-11)
(7.61816e-13 4.57021e-12 -8.51854e-13)
(2.03351e-09 2.59417e-09 6.4117e-10)
(3.03705e-10 5.02781e-10 5.65582e-11)
(1.10437e-10 1.76266e-10 7.51081e-12)
(1.54069e-11 3.1896e-11 -1.85222e-12)
(6.76783e-06 7.05377e-06 2.43991e-06)
(2.71324e-05 3.12822e-05 1.04616e-05)
(2.01152e-08 2.50044e-08 -1.80595e-08)
(2.4121e-07 3.05609e-07 4.87603e-08)
(4.13417e-08 6.11323e-08 -2.07902e-08)
(3.67027e-07 4.49984e-07 2.72887e-08)
(3.06513e-08 5.33314e-08 -7.15791e-11)
(8.50446e-09 9.72368e-09 -7.08884e-09)
(1.88187e-08 2.58346e-08 -4.97155e-10)
(2.03979e-09 3.83423e-09 -3.96021e-10)
(3.22869e-08 3.44749e-08 -2.06571e-08)
(1.17354e-10 2.04819e-10 -7.42677e-11)
(2.15514e-10 4.80046e-10 -8.99994e-12)
(5.40077e-11 1.33436e-10 -4.43993e-12)
(2.47852e-11 3.32943e-11 -2.48318e-11)
(1.70559e-11 3.78668e-11 -4.80971e-12)
(4.42445e-12 1.0322e-11 -1.54875e-12)
(8.1568e-11 1.0877e-10 -7.34649e-11)
(1.13914e-12 2.25829e-12 -8.98643e-13)
(1.62464e-12 3.98889e-12 -1.26084e-13)
(5.81319e-13 1.49397e-12 4.02358e-15)
(2.33437e-13 4.10788e-13 -2.91658e-13)
(1.19057e-13 3.50913e-13 -5.1538e-14)
(2.52418e-14 1.15961e-13 -3.07184e-16)
(6.72386e-13 1.24904e-12 -8.70842e-13)
(2.1372e-09 -2.0011e-09 2.41361e-10)
(1.15925e-08 -8.18232e-09 2.54067e-10)
(3.04846e-08 -2.35059e-08 1.05645e-09)
(9.71563e-08 -6.25481e-08 9.66412e-09)
(1.06683e-08 -7.76894e-09 1.16747e-09)
(2.6758e-08 -2.06299e-08 2.39203e-09)
(2.42075e-09 -2.26287e-09 6.51316e-11)
(3.2311e-10 -2.47665e-10 3.33083e-11)
(6.50865e-11 -6.37707e-11 1.69052e-12)
(3.47948e-09 -2.26944e-09 9.70393e-11)
(7.35745e-10 -6.36965e-10 4.19662e-11)
(5.76332e-11 -5.63182e-11 4.53362e-12)
(3.16986e-09 -2.12822e-09 2.97138e-10)
(3.64302e-10 -2.73825e-10 7.75003e-12)
(1.35371e-09 -1.30474e-09 2.87581e-10)
(5.17749e-08 -3.21751e-08 6.42102e-09)
(4.47964e-09 -3.5374e-09 9.15985e-10)
(1.00209e-08 -7.83863e-09 2.51505e-09)
(6.09581e-09 -4.25378e-09 1.12885e-09)
(1.81408e-08 -1.44756e-08 2.43725e-09)
(8.05956e-10 -7.41788e-10 2.1617e-10)
(1.97126e-10 -1.52204e-10 3.87665e-11)
(7.47376e-10 -6.44981e-10 7.63227e-11)
(3.77693e-11 -4.62137e-11 7.81445e-12)
(1.25343e-09 -9.16615e-10 2.85294e-10)
(4.8971e-11 -5.17866e-11 5.17155e-12)
(1.9089e-09 -1.25673e-09 2.28911e-10)
(1.1456e-10 -9.78253e-11 3.03248e-11)
(1.53076e-12 -1.60526e-12 1.56509e-13)
(9.87029e-12 -8.09602e-12 1.89857e-13)
(2.44972e-11 -2.19355e-11 7.70418e-13)
(1.00617e-10 -7.31582e-11 6.46385e-12)
(8.91251e-12 -7.48059e-12 6.63173e-13)
(2.19579e-11 -1.95032e-11 1.67537e-12)
(1.72349e-12 -1.78261e-12 4.88853e-14)
(1.80556e-13 -1.61435e-13 1.85689e-14)
(4.39589e-14 -8.41283e-14 0)
(3.1062e-12 -3.12639e-12 1.2695e-13)
(6.51805e-13 -7.39333e-13 7.83877e-14)
(1.97057e-14 -4.92643e-14 3.78956e-16)
(2.19885e-12 -1.91868e-12 2.09563e-13)
(2.38264e-13 -2.41774e-13 7.95808e-15)
(1.13081e-12 -1.15733e-12 1.29947e-13)
(7.61209e-11 -5.20495e-11 6.17072e-12)
(6.25346e-12 -5.51684e-12 9.80359e-13)
(1.1714e-11 -9.62785e-12 1.94291e-12)
(7.22126e-12 -5.79954e-12 6.04056e-13)
(1.53151e-11 -1.36776e-11 1.67027e-12)
(8.97861e-13 -8.76904e-13 1.44382e-13)
(1.44765e-13 -1.66741e-13 6.44225e-15)
(5.92687e-13 -7.02152e-13 -3.43037e-14)
(3.47383e-14 -9.92865e-14 3.41061e-15)
(1.76669e-12 -1.99144e-12 3.36892e-13)
(1.44003e-14 -4.09273e-14 0)
(2.14733e-12 -2.14908e-12 1.41351e-13)
(1.10106e-13 -1.44003e-13 1.36424e-14)
(0 0 0)
(5.30539e-15 -4.54747e-15 0)
(5.53276e-14 -6.72515e-14 1.89478e-15)
(1.39818e-13 -1.36631e-13 9.85286e-15)
(3.88779e-15 -7.57912e-16 0)
(3.57249e-14 -4.46951e-14 0)
(0 0 0)
(2.76353e-18 0 0)
(-1.97057e-14 5.30539e-15 0)
(2.04862e-15 3.03165e-15 0)
(0 3.67769e-15 6.88679e-18)
(-1.51582e-14 4.54747e-15 5.92811e-16)
(2.41552e-46 3.01535e-15 0)
(1.10707e-16 0 0)
(0 0 0)
(7.57912e-14 -5.43069e-14 2.60141e-15)
(7.58158e-16 -2.27374e-15 0)
(1.07168e-14 -5.79942e-15 0)
(1.78671e-15 0 0)
(9.85286e-15 -8.26782e-15 0)
(0 0 0)
(1.81899e-45 0 0)
(0 2.77425e-15 -5.7843e-17)
(0 0 0)
(6.22412e-42 3.4064e-15 0)
(-3.03165e-15 7.57912e-16 3.09408e-16)
(2.9988e-44 2.98156e-15 0)
(2.55484e-43 0 0)
(3.27432e-07 1.92244e-06 1.2646e-07)
(1.84504e-07 4.49268e-07 4.4037e-09)
(1.22962e-07 3.1181e-07 2.61798e-08)
(4.52417e-09 4.54677e-08 2.91575e-09)
(1.07604e-09 1.80155e-08 2.81825e-10)
(-2.48587e-10 1.39873e-08 9.69201e-10)
(6.77224e-09 6.62096e-08 5.28603e-10)
(-2.80602e-11 2.88719e-11 2.65902e-12)
(-1.02697e-12 5.93445e-13 9.09495e-15)
(-1.6909e-12 2.69881e-12 2.53901e-14)
(-5.35266e-14 5.34384e-14 2.65269e-15)
(-7.8739e-13 4.96433e-13 6.36646e-14)
(-1.14975e-12 1.80965e-12 1.59172e-13)
(-4.15298e-11 4.30585e-11 4.84306e-13)
(5.17454e-08 1.28994e-07 1.11394e-08)
(3.44057e-08 2.11174e-07 2.95093e-08)
(1.27245e-08 3.80816e-08 7.59209e-09)
(1.85321e-09 1.87297e-08 1.94187e-09)
(-3.28453e-10 1.97451e-09 3.50906e-10)
(2.56584e-10 5.01291e-09 4.9885e-10)
(4.21025e-10 4.79824e-09 6.45997e-10)
(-1.10519e-11 1.13232e-11 1.66152e-12)
(-1.66741e-14 1.79485e-14 9.99284e-16)
(-6.32728e-14 3.41061e-14 7.20017e-15)
(-1.3794e-13 1.86905e-13 2.69792e-14)
(-3.00923e-13 1.90994e-13 3.78956e-14)
(-4.47168e-13 6.99415e-13 7.09803e-14)
(-2.91872e-12 2.83762e-12 5.35622e-13)
(2.22408e-10 -1.9917e-10 6.04571e-11)
(1.86284e-09 -1.37248e-09 4.907e-10)
(5.99456e-09 -4.74431e-09 1.04626e-09)
(4.06888e-10 -4.00247e-10 1.03919e-10)
(2.70871e-09 -2.06954e-09 8.00553e-10)
(3.27308e-11 -2.69794e-11 8.36015e-12)
(1.53364e-11 -1.7147e-11 6.46083e-12)
(6.03505e-10 -3.95731e-10 1.0842e-10)
(8.31005e-11 -7.22457e-11 2.46883e-11)
(5.76743e-11 -4.61985e-11 1.3768e-11)
(6.08604e-12 -6.29067e-12 1.87507e-12)
(3.70659e-10 -2.65823e-10 9.44476e-11)
(1.75616e-11 -1.39266e-11 3.3846e-12)
(6.95316e-11 -6.0937e-11 7.76263e-12)
(3.31277e-12 -4.21399e-12 6.4271e-13)
(1.08492e-10 -8.18362e-11 2.18067e-11)
(4.35572e-12 -4.77485e-12 5.43305e-13)
(1.8175e-10 -1.18853e-10 2.55635e-11)
(1.00681e-11 -8.59018e-12 2.13098e-12)
(1.75221e-13 -2.30405e-13 6.0633e-14)
(2.46661e-12 -2.01605e-12 9.23137e-13)
(8.14983e-12 -7.23927e-12 1.40711e-12)
(1.27464e-11 -1.0135e-11 3.3837e-12)
(4.70664e-13 -5.63129e-13 1.223e-13)
(9.79769e-13 -9.24653e-13 2.9786e-13)
(3.20279e-12 -2.81074e-12 1.09101e-12)
(1.25429e-14 -8.33703e-15 3.78956e-16)
(5.30539e-15 -9.85286e-15 1.88194e-15)
(7.14874e-13 -5.38285e-13 1.46277e-13)
(7.12438e-14 -1.04768e-13 1.85184e-14)
(4.6272e-14 -4.09273e-14 5.53821e-15)
(0 0 0)