/*--------------------------------*- C++ -*----------------------------------*\
  =========                 |
  \\      /  F ield         | OpenFOAM: The Open Source CFD Toolbox
   \\    /   O peration     | Website:  https://openfoam.org
    \\  /    A nd           | Version:  9
     \\/     M anipulation  |
\*---------------------------------------------------------------------------*/
FoamFile
{
    format      ascii;
    class       volScalarField;
    location    "0.0006";
    object      lambda.c4;
}
// * * * * * * * * * * * * * * * * * * * * * * * * * * * * * * * * * * * * * //

dimensions      [0 0 0 0 0 0 0];

internalField   nonuniform List<scalar> 
6335
(
1
1
1
1
1
1
1
1
1
1
1
1
1
1
1
1
1
1
1
1
1
1
1
1
1
1
1
1
1
1
1
1
1
1
1
1
1
1
1
1
1
1
1
1
1
1
1
1
1
1
1
1
1
1
1
1
1
1
1
1
1
1
1
1
1
1
1
1
1
1
1
1
1
1
1
1
1
1
1
1
1
1
1
1
1
1
1
1
1
1
1
1
1
1
1
1
1
1
1
1
1
1
1
1
1
1
1
1
1
1
1
1
1
1
1
1
1
1
1
1
1
1
1
1
1
1
1
1
1
1
1
1
1
1
1
1
1
1
1
1
1
1
1
1
1
1
1
1
1
1
1
1
1
1
1
1
1
1
1
1
1
1
1
1
1
1
1
1
1
1
1
1
1
1
1
1
1
1
1
1
1
1
1
1
1
1
1
1
1
1
1
1
1
1
1
1
1
1
1
1
1
1
1
1
1
1
5.40859e-40
4.83389e-82
1
1
1
1
1
1
1
1
1
1
1
1
1
1
1
1
1
1
1
1
1
1
1
1
1
1
1
1
1
1
1
1
1
1
1
1
1
1
1
1
1
1
1
1
1
1
1
1
1
1
1
1
1
1
1
1
1
1
1
1
1
1
1
1
1
1
1
1
1
1
1
1
1
1
1
1
1
1
1
1
1.23728e-38
1
1
1.6052e-40
1
1
1
1
1
1
1
1
1
1
1
1
1
1
1
1
1
1
1
1
1
5.35452e-46
2.11149e-94
8.93842e-144
1
1
4.68987e-43
1
3.30118e-42
4.06109e-86
1.9044e-42
4.60934e-86
1.72249e-131
1.20846e-86
1.43532e-131
4.9428e-181
1.81822e-87
1.59677e-134
2.40788e-184
6.42849e-132
1.47725e-181
8.22072e-232
3.20115e-181
2.34749e-231
0
6.28763e-231
0
0
1
1
1
1
8.45777e-37
1
1
1
1
1
1
1
1
1
1
1
1
1
1
1
1
1
1
1
1
1
1
1
1
1
1
1
1
1
1
1
1
1
1
1
1
1
1
1
1
1
1
1
1
1
1
1
1
1
1
1
1
1
1
1
1
1
1
1
1
1
1
1
1
1
1
1
1
1
1
1
1
1
1
1
1
1
1
1
1
1
1
1
1
1
1
1
1
1
1
1
1
1
1.67314e-40
2.79485e-82
0.5
4.50527e-42
8.52298e-125
1
1
1
1
1
1
1
1
1
1
1
1
1
1
1
1
1
1
1
1
1
1
1
1
1
1
1
1
1
1
1
1
1
1
1
1
1
1
1
1
1
1
1
1
1
1
1
1
1
1
1
1
1
1
1
1
1
1
1
1
1
1
1
1
1
1
1
1
1
1
1
1
1
1
1
1
1
1
1
1
1
1
1
1
1
1
1
1
1
1
1
1
1
2.87312e-38
4.44238e-78
1
1
1
1
1
6.07456e-40
1
7.87998e-39
1.7286e-81
1.8291e-40
1
1
1
1
1
1
1
1
1
1
1
1
1
1
5.83178e-79
1.84573e-38
1.20648e-120
1.76571e-119
2.15395e-120
2.06134e-78
1.74794e-77
6.71654e-79
2.91393e-78
1
1
7.14009e-38
1
2.21962e-38
1
1
1
1
1
1
1
1.67201e-204
3.67626e-121
1.09077e-245
4.62096e-201
0
0
0
0
1.27616e-242
3.82238e-219
1.20112e-215
4.06578e-124
4.15454e-248
7.53349e-219
2.57514e-170
9.72386e-121
4.60561e-201
4.60478e-201
4.6202e-201
0
0
0
0
0
0
0
0
0
0
0
0
0
0
3.13506e-201
2.54931e-203
2.6109e-173
1.20648e-120
0
1.84942e-82
1.65589e-119
7.61447e-243
1.28272e-242
7.61337e-243
1.27217e-289
3.62678e-289
6.39579e-290
3.65398e-289
5.88167e-124
4.06514e-124
5.91219e-124
0
0
0
0
0
0
0
0
0
0
0
0
0
0
0
0
0
0
0
0
0
0
0
0
0
0
0
0
0
0
0
0
0
0
0
0
0
0
0
0
0
0
0
0
0
1.02125e-293
1.09082e-245
1.09386e-245
1.09376e-245
3.64948e-293
3.28666e-293
1.76484e-293
3.30608e-293
1
0.5
1
1
1
1
1
1
0.5
1
3.67717e-82
8.63184e-42
1
1.31779e-42
3.67652e-82
1.31181e-42
4.01583e-41
0.5
1.11159e-219
2.73418e-203
2.15471e-204
7.84349e-204
2.73289e-203
6.71768e-246
1.33411e-247
1
1
1
1
1
1
1
1
1
1
1
1
1
1
1
1
1
1
1
1
1
1
1
1
1
1
1
1
1
1
1
1
1
1
1
1
1
1
1
1
1
1
1
1
1
1
1
1
1
1
1
1
1
1
1
1
1
1
1
1
1
1
1
1
1
1
1
1
1
1
1
1
1
1
1
1
1
1
1
1
1
1
1
1
1
1
1
1
1
1
1
1
1
1
1
1
1
1
1
1
1
1
1
1
1
1
1
1
1
1
1
1
1
1
1
1
1
1
1
1
1
1
1
1
1
1
1
1
1
1
1
1
1
1
1
1
1
1
1
1
1
1
1
1
1
1
1
1
1
1
1
1
1
1
1
1
1
1
1
1
1
1
1
1
1
1
1
1
1
1
1
1
1
1
1
1
1
1
1
1
1
1
1
1
1
1
1
1
1
1
1
1
1
1
1
1
1
1
1
1
1
1
1
1
1
1
1
1
1
1
1
1
1
1
1
1
1
1
1
1
1
1
1
1
1
1
1
1
1
1
1
1
1
1
1
1
1
1
1
1
1
1
1
1
1
1
1
1
1
1
1
1
1
1
1
1
1
1
1
1
1
1
1
1
1
1
1
1
1
1
1
1
1
1
1
1
1
1
1
1
1
1
1
1
1
1
1
1
1
1
1
1
1
1
1
1
1
1
1
1
1
1
1
1
1
1
1
1
1
1
1
1
1
1
1
1
1
1
1
1
1
1
1
1
1
1
1
1
1
1
1
1
1
1
1
1
1
1
1
1
1
1
1
1
1
1
1
1
1
1
1
1
1
1
1
1
1
1
1
1
1
1
1
1
1
1
1
1
1
1
1
1
1
1
1
1
1
1
1
1
1
1
1
1
1
1
1
1
1
1
1
1
1
1
1
1
1
1
1
1
1
8.85594e-271
2.96639e-219
2.46888e-171
5.69596e-125
2.38911e-81
5.99298e-40
1
0
2.16456e-270
7.76817e-219
4.31027e-171
5.5991e-125
1.99889e-81
5.21821e-40
0
0
7.08577e-270
6.50694e-219
3.12167e-171
1.66265e-125
9.09038e-82
0
0
0
3.80226e-270
5.46132e-219
2.10617e-171
8.44429e-126
0
0
1.66593e-267
3.77521e-217
3.21144e-131
2.24934e-86
1.04174e-41
0
0
8.52023e-280
2.91467e-227
1.07994e-177
3.80139e-130
7.51306e-85
0
0
0
3.97596e-267
7.1717e-217
1.78712e-131
7.3237e-124
0
0
0
1.76172e-279
3.39992e-227
1.8774e-177
6.60366e-130
0
0
0
0
6.65407e-267
5.34264e-217
1.07175e-169
0
0
0
0
2.09641e-279
5.36902e-227
1.19388e-177
1.55897e-220
2.05395e-172
7.92306e-126
6.55781e-82
1
1
4.05102e-49
6.74438e-100
1.64603e-153
1
1
3.51404e-49
4.44013e-100
4.61949e-154
1
1
1.21212e-50
3.50172e-103
4.76729e-158
1
1
7.9045e-53
1.07854e-107
2.59096e-164
1
4.39219e-49
1.26815e-99
9.27095e-153
3.21899e-208
0.5
1.19902e-47
1.67235e-141
1.16719e-192
1.04215e-246
0.5
1.45431e-44
1.54045e-132
3.49604e-181
1.91516e-232
3.87468e-286
1.49135e-41
2.85776e-44
2.32185e-130
1.58595e-178
9.68497e-229
4.41031e-281
0
3.60611e-85
3.41922e-130
5.95895e-178
8.43465e-228
9.82174e-280
0
0
2.76603e-130
4.38073e-178
1.44095e-227
1.89107e-279
0
0
0
0
0
0
0
5.6497e-272
1.76293e-212
1.33103e-155
3.58573e-52
0.5
1
0
0
0
4.53592e-270
9.34728e-211
2.39926e-154
1.19297e-51
0.5
0
0
0
0
9.72208e-269
1.64206e-209
2.57006e-153
8.34602e-52
0
0
0
0
0
4.81597e-268
2.41125e-209
3.83037e-153
0
0
0
0
0
0
1.11179e-267
2.32478e-209
0
0
0
0
2.45587e-272
1.81589e-212
1.62397e-155
3.073e-52
0.5
1
0
0
0
1.81836e-270
4.32867e-211
1.54963e-154
1.02154e-51
0.5
0
0
0
0
8.15115e-269
4.14431e-210
8.53124e-154
7.14419e-52
0
0
0
0
0
3.22566e-268
1.57933e-209
1.87423e-153
0
0
0
0
0
0
3.89063e-268
9.39274e-210
0
0
0
0
0
0
1.55855e-221
0
0
2.71129e-279
1.31272e-218
3.4081e-160
6.23639e-104
4.83297e-51
1
0
0
0
2.74505e-277
1.59645e-216
1.34735e-158
2.37315e-103
1.16208e-50
0
0
0
0
4.03392e-276
9.96222e-216
4.66592e-158
5.10789e-103
0
0
0
0
0
1.73471e-275
2.94732e-215
1.10882e-157
0
0
0
0
0
0
3.95848e-275
2.85536e-215
0
0
0
0
0
0
1.6244e-286
0
0
1.87294e-225
6.62887e-166
0
0
2.15042e-285
3.03751e-224
9.85681e-165
1.69517e-107
7.70633e-53
1
0
0
0
3.16952e-284
1.84254e-223
1.30944e-163
5.3617e-107
1.36867e-52
0
0
0
0
1.27939e-283
5.07324e-223
2.87062e-163
2.8584e-107
0
0
0
0
0
1.2803e-283
4.44446e-223
1.13007e-163
0
0
0
0
0
0
6.53609e-284
4.71935e-224
1.9886e-297
8.01626e-294
0
0
0
0
0
0
0
2.99284e-298
0
0
9.03203e-265
1.68727e-207
1.48889e-152
1.28134e-99
6.63891e-49
0
0
0
2.38285e-264
3.05582e-207
3.44647e-152
3.75963e-99
6.46255e-49
0
0
0
0
4.3722e-264
9.11194e-207
7.45042e-152
1.8014e-99
0
0
0
0
0
6.16579e-264
5.86041e-207
2.94451e-152
0
0
0
0
0
0
1.70761e-264
2.67861e-207
0
0
0
0
0
0
0
4.63339e-265
9.36812e-308
1.3659e-219
3.7543e-171
6.61042e-125
0
8.97427e-308
1.22817e-306
3.28019e-218
0
0
8.59749e-244
6.60204e-191
5.75596e-140
2.54473e-91
5.80837e-45
0
0
5.18927e-299
1.05303e-243
1.19995e-190
4.5954e-140
2.46542e-47
0
0
0
5.6166e-299
1.08395e-243
8.89308e-191
3.97218e-140
3.66258e-47
0
0
0
0
3.94174e-299
4.82339e-244
4.04678e-191
1.01447e-140
0
0
0
0
0
2.24247e-299
7.28139e-245
9.92883e-192
0
0
0
0
0
0
1.43088e-300
1.00548e-245
0
0
0
0
0
0
0
6.90198e-302
0
4.68027e-268
2.77616e-217
2.62345e-131
2.81301e-86
8.62762e-42
0
5.91328e-282
4.81698e-229
5.3073e-179
7.49334e-131
3.32195e-85
1.06534e-41
0
0
2.38867e-281
1.04375e-228
1.79443e-178
1.59193e-130
3.14037e-85
0
0
0
2.60963e-281
1.09153e-228
2.05243e-178
6.05739e-131
1.43215e-44
0
0
0
0
4.32793e-281
9.34781e-229
1.7293e-178
1.77601e-131
0
0
0
0
0
3.06858e-281
8.29794e-229
1.57084e-179
0
0
0
0
0
0
1.36212e-281
1.81645e-230
0
0
0
0
0
0
0
3.5815e-283
0
0
0
0
0
0
0
0
0
0
0
2.23829e-278
1.25835e-226
8.55073e-177
1.35146e-129
1.781e-84
0
0
0
0
3.52694e-278
2.86148e-226
5.26459e-177
8.87979e-130
0
0
0
0
0
3.23307e-278
9.77858e-227
1.75145e-177
0
0
0
0
0
0
1.57916e-278
1.83355e-227
0
0
0
0
0
0
0
1.90639e-279
0
0
0
0
0
0
0
0
0
0
0
0
0
0
0
0
0
0
0
0
3.11116e-278
3.41807e-226
9.17015e-177
1.46921e-129
0
0
0
0
0
1.39203e-277
3.51861e-226
4.88377e-177
0
0
0
0
0
0
1.01403e-277
1.51482e-226
0
0
0
0
0
0
0
2.22359e-278
0
0
0
0
0
0
0
0
0
0
0
0
0
0
0
0
0
0
0
0
0
0
0
0
0
0
0
0
0
6.11183e-278
2.31836e-226
4.67726e-177
0
0
0
0
0
0
1.62748e-277
1.69677e-226
0
0
0
0
0
0
0
4.5572e-278
0
0
0
0
0
0
0
0
0
0
0
0
0
0
0
0
0
0
0
0
0
0
0
0
0
0
0
0
0
0
0
0
0
0
0
0
0
0
0
0
0
0
0
0
0
0
0
0
0
0
0
0
0
0
0
0
0
3.72762e-225
7.74963e-225
1.7603e-278
4.68915e-221
1.5667e-225
1.85894e-223
0
0
1.80855e-295
3.01257e-275
0
9.33096e-275
0
1.77239e-129
0
4.25166e-136
0
0
0
1.81739e-237
6.38422e-188
0
2.26155e-237
0
0
4.91477e-285
8.14037e-283
0
0
0
0
0
0
0
0
8.15402e-287
1.19465e-285
0
0
5.01056e-286
6.88325e-285
1.19452e-220
2.74678e-243
5.97154e-243
5.47011e-243
0
0
0
0
0
0
0
0
0
0
0
0
0
0
0
0
0
0
0
0
0
0
0
0
0
0
0
0
0
0
0
0
0
0
0
0
0
0
0
0
0
0
0
0
0
0
0
0
0
0
0
0
0
0
0
0
0
0
0
0
0
0
0
0
0
0
0
0
0
0
0
8.7888e-277
0
0
0
1.58555e-277
0
0
0
0
0
0
0
0
5.48418e-274
1.12554e-290
0
1.65116e-275
5.85659e-290
3.50723e-276
1.39452e-274
2.47758e-220
9.19936e-253
3.88759e-276
1.6055e-222
9.03634e-254
6.09749e-219
4.62768e-223
1.65551e-237
0
0
3.31265e-236
0
5.38557e-237
1.67201e-236
7.24595e-175
7.01664e-219
3.36131e-221
6.75467e-174
0
0
0
0
0
0
0
0
0
0
0
0
1.35326e-215
0
0
0
0
0
7.22417e-216
0
0
0
0
0
0
0
0
0
2.26053e-274
0
6.83244e-277
2.08814e-274
0
0
0
0
0
0
0
0
0
1.45134e-274
0
0
1.31928e-276
6.10239e-275
0
0
0
0
5.38203e-283
7.06136e-282
0
0
0
0
0
0
0
0
0
0
0
0
0
0
1.03558e-297
7.91093e-296
0
0
2.36767e-307
7.01695e-307
0
0
0
0
0
0
0
0
0
0
0
0
0
0
0
0
0
1.95135e-298
5.55609e-298
1.70722e-299
1.52138e-298
2.31546e-256
3.28995e-264
1.88035e-262
1.35739e-243
1.48599e-242
4.5741e-244
1.89605e-243
1.22329e-171
6.34485e-172
2.8513e-172
2.54517e-219
1.42593e-217
2.29088e-219
1.69253e-218
5.82701e-125
1.26299e-125
2.43802e-125
6.97661e-171
5.0985e-171
3.52695e-172
2.07227e-171
1.45893e-304
0
0
5.11772e-282
4.75432e-280
9.79839e-282
3.14752e-281
7.43155e-218
0
0
6.66376e-220
5.23431e-218
7.03134e-229
3.93057e-228
0
0
0
0
0
0
0
0
0
0
0
0
0
0
0
0
0
0
0
0
0
0
0
0
0
0
0
0
0
0
0
0
0
0
0
0
0
0
0
0
0
0
0
0
0
0
0
0
0
0
0
0
0
0
0
0
0
0
0
0
0
0
0
0
0
0
0
0
0
0
0
0
0
0
0
0
0
0
0
0
0
0
0
0
0
0
0
0
0
0
0
4.61017e-236
8.31371e-115
1
5.9787e-158
7.89187e-103
2.21387e-50
7.21452e-235
8.29737e-59
1
1.89103e-158
1.17959e-102
1.93187e-50
1.57975e-241
8.28664e-118
1
1.03117e-105
5.48548e-52
0.5
1.91749e-53
1
1
2.7387e-96
1
1
1.31845e-89
1
0
0
1.26257e-296
6.72981e-235
2.98138e-296
1.62624e-233
2.27422e-173
1
2.67281e-173
1
1
1
1
0
0
3.90692e-174
5.28616e-215
6.59636e-215
8.16685e-235
1.34131e-173
5.02205e-215
1.2478e-169
9.41555e-57
0
9.71489e-55
7.34388e-59
0.5
2.52896e-113
9.11948e-55
1
1
1
1
1
1
0
2.92841e-296
7.58085e-234
7.01072e-298
8.46369e-235
3.78535e-173
1
3.86329e-174
1
1
1
0
6.89738e-174
3.48791e-215
3.50485e-215
4.36768e-236
1.93696e-174
2.02736e-215
2.02647e-169
0.5
0
1.01134e-54
2.1715e-115
6.55624e-57
1.27631e-112
5.92584e-55
1
1
1
1
1
3.01102e-303
2.23032e-240
3.37489e-178
1
7.51264e-178
0.5
1
1
2.37828e-178
7.77514e-221
7.99737e-220
4.04298e-58
1.11112e-161
3.36352e-56
2.66497e-118
1.72735e-58
1.11184e-161
1.88081e-112
0.5
1
1
1.98806e-56
1
0.5
3.20552e-108
1
3.06009e-53
1
1
4.10861e-57
3.18562e-165
5.31122e-108
7.46301e-163
0
1
8.03254e-54
1
2.9162e-55
0.5
1
1
0.5
0
1.84978e-44
1
1
1
1
1
1
4.46083e-52
1
2.04542e-44
1
9.65668e-48
1
1
1
1
1
1
1
1
2.07268e-47
1.62504e-154
3.6734e-90
2.04107e-96
1
1
0.5
0.5
1
1
1.3041e-47
1
1
1
1
1
1
1
0
0
0
0
0
0
0
0
0
0
0
0
0
0
0
0
1.5226e-296
9.96259e-297
0
1.52329e-296
0
1.44764e-297
7.03801e-297
2.3234e-235
5.47302e-235
5.55026e-297
2.32332e-235
2.89187e-297
0
2.98643e-296
0
3.13239e-296
0
3.59547e-296
0
1.32453e-296
1.22539e-233
4.18706e-296
3.08947e-234
4.19158e-296
6.58328e-234
2.81488e-297
1.88058e-62
0
2.37685e-60
1.86519e-173
0
2.37855e-60
1.84707e-62
1
1
0.5
1
1
0.5
1
1.9148e-62
2.67293e-173
0
8.6847e-61
0
2.18344e-60
8.08646e-63
1
1
1
0.5
1
0.5
1
1
1
1
1
1
1
1
1
1
1
1
1
1
1
1
1
1
1
1
1
1
0
0
0
0
0
0
0
0
0
3.26606e-296
2.29591e-296
0
0
3.26741e-296
7.07598e-297
2.46715e-296
3.62946e-234
7.85128e-234
3.52803e-297
1.20051e-296
3.62929e-234
0
2.10722e-297
0
2.29062e-297
0
2.59012e-297
0
1.03789e-297
6.45246e-235
3.8704e-297
1.67732e-235
2.9917e-297
3.71447e-235
2.07143e-298
2.56991e-62
0
3.05184e-60
3.03373e-173
2.54942e-62
0
3.05696e-60
1
1
0.5
1
1
1
0.5
1.43388e-62
3.86252e-174
0
6.10545e-61
0
1.6222e-60
5.34032e-63
1
1
1
0.5
1
0.5
1
1
1
1
1
1
1
1
1
1
1
1
1
1
1
0
0
4.27707e-303
3.05356e-303
0
0
3.73036e-303
1.33654e-303
3.07749e-303
1.62831e-240
2.51535e-240
1.38268e-303
2.8673e-303
1.62954e-240
9.73013e-64
0
1.19543e-61
7.25851e-178
1.01598e-63
0
1.01405e-177
0.5
1
0.5
1
0.5
1
0
5.70548e-64
7.61739e-178
2.09218e-297
8.67087e-178
0
7.99092e-178
0
0.5
0.5
1
0
1
5.7335e-62
0
1
1
1
1
1
1
1
1
1
1
1
1
1
1
0
0.5
0
9.83181e-58
0
0.5
0
0
6.17628e-56
1.20607e-53
0
9.20878e-56
1.72812e-162
0
1
1
1
1
1
1
1
1
0.5
0.5
1
1
1
1
1
1
1
1
1
1
1
1
1
1
1
1
1
1
0
1
7.64299e-48
1.40706e-45
2.48635e-44
0.5
7.70634e-90
1
1
1
1
1
1
1
1
1
1
1
1
1
1
1
1
1
1
1
1
1
1.66052e-42
1
0.5
1
6.62619e-98
4.21293e-50
1.24575e-47
1.20699e-146
8.71468e-136
2.75502e-96
9.98825e-137
4.08553e-40
1
2.24268e-162
1.36023e-170
1.40425e-108
1.34394e-236
7.02986e-145
7.08047e-81
1.07219e-134
0
3.79357e-297
5.75367e-283
1.89932e-178
2.51778e-221
4.18434e-220
1.23045e-288
2.37051e-228
0
2.35107e-229
1.86806e-165
1.6196e-163
1.11102e-165
0
3.09897e-85
2.63614e-90
1.0406e-88
3.93498e-124
1.86641e-44
1.95409e-124
1.30609e-237
4.72182e-136
0
0
0
0
0
0
0
0
0
4.47809e-297
0
1.81952e-297
0
7.94435e-298
0
0
0
1.61436e-289
2.86444e-288
0
0
4.70641e-289
0
7.47535e-289
2.3609e-228
2.18294e-228
2.42163e-288
6.35084e-289
2.05592e-228
0
4.15566e-220
0
1.44429e-220
0
1.11692e-219
0
1.21754e-132
0
4.21958e-138
3.4956e-136
1.73176e-92
1.43229e-135
4.4747e-135
4.70568e-147
2.81934e-238
2.55424e-187
4.78766e-237
8.94701e-187
2.6308e-188
1.26885e-187
4.62309e-140
7.94504e-104
1.49246e-51
1
3.08134e-51
1.3399e-47
1.91922e-49
1
1
0.5
1
5.17096e-40
0.5
3.40721e-81
1.02735e-41
1
3.54684e-41
2.19372e-130
6.05321e-94
6.20717e-46
0.5
2.52529e-45
4.93233e-44
4.04145e-89
1
1
5.17129e-44
4.63609e-96
0.5
4.70171e-50
0.5
1
0
1.11217e-49
1
1
1
1
1
1
1
1
1
1
1
1
1
1
2.779e-144
7.50845e-145
6.03398e-157
0
8.26851e-145
7.51617e-104
6.40555e-144
5.48896e-190
2.80008e-156
4.50013e-104
9.30271e-157
5.38357e-207
5.21979e-190
1.50922e-190
1.02875e-41
9.37591e-124
0
6.57629e-82
4.87138e-82
8.3009e-126
1.03827e-125
1.65211e-177
0
9.78412e-134
2.62255e-172
0
3.11195e-172
1.9446e-178
3.71472e-257
4.95759e-293
1.3717e-236
1.75928e-258
0
1.30204e-237
1.97995e-237
0
0
0
0
0
0
0
0
0
0
0
0
0
0
0
0
0
0
0
0
0
0
0
0
0
0
0
0
0
0
0
0
0
0
0
1
1
0.5
0.5
7.23484e-42
1
1
1
1
1
1
1
1
1
1
1
1
1
1
1
1
1
1
1
1
1
1
1
1
1
1
1
1
1
1
1
1
1
1
1
1
1
1
1
1
1
1
1
1
1
1
1
1
1
1
1
1
1
1
1
1
1
1
1
1
1
1
1
1
1
1
1
1
1
1
1
1
1
1
1
1
1
1
1
1
1
1
1
1
1
1
1
1
1
1
1
1
1
1
1
1
1
1
1
1
1
1
1
1
1
1
1
1
1
1
1
1
1
1
1
1
1
1
1
1
1
1
1
1
1
1
1
1
1
1
1
1
1
1
1
1
1
1
1
1
1
1
1
1
1
1
1
1
1
1
1
1
1
1
1
1
1
1
1
1
1
1.78399e-41
7.5754e-85
3.6544e-130
1
1
1
1
1
1
1
1
1
1
1
1
1
1
1
1
1
1
1
1
1
1
1
1
1
1
1
1
1
1
1
1
1
1
1
1
1
1
1
1
1
1
1
1
1
1
4.24422e-42
2.71014e-86
1
1
1
1
1
1
1
1
1
1
1
1
1
1
1
1
1
1
1
1
1
1
1
1
1
1
1
1
1
1
1
1
1
1
1
1
1
1
1
1
1
1
1
1
1
1
1
1
1
1
1
1
1
1
1
1
1
1
1
1
1
1
1
1
1
1
1
1
1
1
1
1
1
1
1
1
1
1
1
1
1
1
1
1
1
1
1
1
1
1
1
1
1
1
1
1
1
1
1
1
1
1
1
1
1
1
1
1
1
1
1
1
1
1
1
1
1
1
1
1
1
1
1
1
1
1
1
1
1
1
1
1
1
1
1
1
1
1
1
1
1
1
1
1
1
1
1
1
1
1
1
1
1
1
1
1
1
1
1
1
1
1
1
1
1
1
1
1
1
1
1
1
1
1
1
1
1
1
1
1
1
1
1
1
1
1
1
1
1
1
1
1
1
1
1
1
1
1
1
1
1
1
1
1
1
1
1
1
1
1
1
1
1
1
1
1
1
1
1
1
1
1
1
1
1
1
1
1
1
1
1
1
1
1
1
1
1
1
1
1
1
1
1.21242e-115
2.60657e-75
1.23048e-36
1
1
2.55904e-191
4.59438e-115
1.14849e-115
2.21345e-75
1.69824e-36
1
1
1.40077e-191
3.61079e-115
1.36762e-152
5.56238e-111
2.07521e-37
0.5
1
3.46421e-195
1.44831e-151
1.10547e-156
5.15661e-114
8.39962e-74
3.39862e-36
1
8.60455e-200
2.87423e-155
3.99374e-218
4.45132e-262
1.84865e-303
4.45179e-289
6.76019e-243
8.68962e-212
1.75988e-110
1.7631e-239
2.90192e-194
2.74353e-169
9.33461e-121
2.13971e-78
6.91668e-245
7.63351e-199
8.35293e-173
7.03994e-84
1.25701e-127
3.44161e-218
8.1537e-218
1.00679e-198
7.49568e-127
1.25859e-231
8.03507e-243
6.96827e-172
3.07701e-84
1.96373e-41
3.70518e-201
3.27651e-124
7.26706e-219
4.56962e-218
6.6069e-219
2.68508e-263
1.05384e-261
7.5754e-263
4.54156e-304
1.94202e-303
2.04703e-303
1.43861e-289
8.4016e-305
5.82219e-306
4.04052e-243
9.68667e-258
1.29645e-257
9.64818e-212
5.76453e-212
3.40752e-213
5.51717e-215
8.27709e-170
1.86722e-125
1.9904e-218
1.09931e-217
4.07557e-218
2.05357e-172
3.43352e-172
2.05169e-172
3.63265e-172
6.12637e-243
6.73215e-257
7.01296e-258
1.31837e-211
4.27072e-211
4.72091e-211
4.37783e-212
1.52248e-172
6.56649e-172
1.49758e-172
1.48788e-126
3.63978e-127
1.29834e-126
3.63734e-127
3.71598e-201
2.24325e-211
1.74776e-211
3.82064e-126
3.24583e-126
3.26898e-126
4.60654e-126
6.33557e-124
5.0878e-126
6.79726e-127
1.55523e-83
3.3014e-83
5.75324e-83
1.54231e-83
5.97291e-257
8.0596e-258
1.50954e-235
3.54278e-74
5.77469e-236
1.06932e-190
3.20388e-211
9.41551e-259
1.7066e-259
1.10478e-255
3.13963e-259
3.02075e-259
3.86128e-261
5.61791e-208
2.55477e-210
1.7884e-126
1.27772e-83
6.00449e-127
8.7813e-84
1.93179e-212
4.43843e-167
4.52647e-168
5.53679e-122
3.34141e-239
2.90023e-194
3.43205e-239
2.90216e-194
2.90177e-194
3.3284e-239
6.70082e-239
1.37601e-168
8.64322e-215
6.52178e-214
3.70941e-214
2.45668e-215
1.15571e-168
1.40213e-169
5.4535e-119
4.59098e-155
2.37025e-113
2.36893e-113
9.97655e-113
1.81375e-112
7.39264e-122
1.66799e-39
3.55906e-73
1.32007e-37
0
0.5
1.95487e-80
3.10388e-39
7.63139e-199
7.6272e-199
7.62575e-199
1.30415e-244
1.28771e-244
2.67629e-244
2.69867e-244
7.99721e-192
3.80501e-237
1.06897e-190
1.0693e-190
4.08266e-235
4.07919e-235
4.14601e-235
2.96158e-212
3.32975e-212
1.87854e-209
6.67985e-126
1.3774e-125
4.1819e-127
1.19775e-126
1.12461e-166
3.46106e-212
3.28367e-211
2.47558e-212
6.15135e-214
2.56484e-167
3.10164e-168
1.31933e-210
1
9.55397e-185
1
1.47972e-137
1
2.27621e-257
1.92197e-257
1.81611e-46
0
1.0938e-46
1
3.58956e-257
8.39708e-47
0
0.5
1
1.79013e-44
1
3.19143e-75
1.55993e-36
1
3.77704e-235
2.00695e-126
2.50378e-41
1
1
1
2.51969e-41
1
1
5.35501e-42
1
6.54626e-84
1.32205e-210
1.05613e-210
6.86442e-127
4.75021e-84
2.56277e-208
2.12157e-209
1
6.00797e-126
3.81154e-45
2.01305e-41
1
5.85376e-126
1.34919e-45
1
1
1
1
1.52919e-126
5.57213e-46
2.03257e-41
1
5.36395e-126
0.5
1
1
1
0.5
3.85927e-132
0.5
1
1
1
0
9.31018e-137
9.43877e-137
1
1
1
5.09553e-135
0
7.04382e-137
1
1
1
4.42752e-212
3.58493e-212
8.98379e-214
1
1
1
4.54862e-257
6.38243e-256
3.11207e-256
1.27497e-255
1.29155e-257
2.0919e-257
1.83828e-46
0.5
0.5
1.53516e-136
4.20217e-211
0
0.5
0
0.5
1
1
1
3.75609e-231
6.74015e-259
1.44421e-255
0.5
1.59821e-46
0.5
1.54679e-211
0
7.01209e-137
0
1.06957e-46
0.5
1
1
1
1.60215e-91
7.79499e-45
0
0.5
1
0.5
1.91848e-208
1.0555e-210
5.01148e-210
4.2652e-210
4.40788e-126
1.01517e-125
7.23848e-126
4.40777e-126
3.29697e-208
2.12222e-209
7.95228e-209
1.00181e-126
3.89072e-126
1.42827e-125
1.00179e-126
2.99837e-126
1.20511e-125
1.20268e-125
7.52737e-83
1.93465e-83
1.93476e-83
7.5306e-83
3.85594e-45
0.5
0.5
5.79818e-41
1
1
5.79763e-41
8.70105e-126
5.16169e-127
4.18162e-126
5.31893e-83
8.01744e-84
4.21509e-83
2.52728e-83
0.5
0
1
4.97873e-41
1
1
4.98551e-41
1
1
1
1
1
1
1
1
1
1
1
1
1
1
1.24779e-90
1.60426e-125
6.06901e-126
3.36186e-83
2.54161e-83
3.36219e-83
5.64772e-83
1
3.16269e-45
0.5
5.86385e-41
1
5.86811e-41
1
1.45409e-126
6.22206e-126
3.64223e-126
2.90244e-83
1.57495e-83
4.50725e-83
3.732e-83
0
1.30248e-45
0.5
5.33231e-41
1
1
5.3425e-41
1
1
1
1
1
1
1
1
1
1
1
1
1
1
7.05917e-167
1.40519e-166
1.17301e-167
6.57535e-122
9.23615e-123
2.26661e-122
6.17447e-122
2.08922e-45
0.5
0
2.21281e-41
0.5
2.21557e-41
0.5
1
1
1
1
1
1
1
1
1
1
1
1
1
1
1.18236e-44
1.96438e-214
1.58213e-45
0
0
1
1
1
4.00206e-82
2.30868e-40
1.25535e-133
1.33317e-43
1.26714e-41
2.28365e-44
0.5
1
0
1
1
0.5
5.03648e-216
4.23049e-214
1.75092e-214
1.51727e-133
1.85516e-45
1.92801e-133
1.93275e-173
1.27372e-46
0
3.28898e-43
0
0.5
3.57592e-169
7.56864e-134
1.16773e-168
1.82039e-124
3.58182e-125
5.5827e-125
1.96871e-124
2.24813e-89
3.89157e-43
5.0898e-89
0
5.1197e-42
0.5
3.12663e-82
2.34383e-127
8.52577e-45
4.97702e-127
2.90513e-83
4.96771e-43
2.89803e-83
8.11809e-43
1
1
0.5
1
1
1
0.5
0.5
0
1
1
8.36777e-41
8.5258e-41
0.5
1.39264e-74
7.4497e-115
2.43006e-80
2.97361e-75
2.12382e-74
6.39845e-115
1.6581e-79
1
9.26713e-40
1
1.47404e-36
1
8.58371e-40
1
1
1
1
1
1
1
1
3.77692e-235
3.80796e-235
3.80709e-235
4.83557e-191
4.83474e-191
4.83557e-191
4.83476e-191
1
9.87782e-40
2.13533e-36
1.9887e-36
1
1.00909e-39
1
1
1
1
1
1
1
1
1
1
1
1
1
1
1
1.03349e-208
1.5771e-209
3.46832e-208
4.14533e-126
8.24302e-126
1.04335e-125
2.23832e-126
1
0.5
1
3.0827e-40
9.41943e-37
2.76757e-37
1.45787e-40
1
1
1
1
1
1
1
9.53703e-81
1.3204e-117
1.04531e-77
1.83118e-110
3.72668e-122
6.40453e-152
1.45801e-110
2.11916e-75
6.37395e-115
3.70658e-74
5.5121e-80
2.16743e-79
1.68484e-75
4.06514e-115
2.05348e-287
1.43585e-286
2.48895e-293
1.92176e-292
4.66116e-292
0
1.40555e-286
1.40957e-286
0
4.67372e-262
3.86477e-292
0
1.62967e-292
1.68847e-292
1.6981e-278
4.67357e-262
4.66859e-262
4.66834e-262
2.3893e-310
4.59086e-310
4.71536e-310
2.3231e-310
4.66145e-292
4.6574e-292
4.6572e-292
0
0
0
0
1.70182e-278
1.71796e-278
1.71822e-278
0
0
0
0
2.99787e-282
1.0798e-281
6.44599e-283
2.19657e-281
1.57051e-256
2.01993e-258
0
0
1.07957e-281
0
0
0
0
2.27228e-281
0
0
2.73612e-284
2.15814e-281
0
0
0
4.94368e-257
0
7.80553e-287
0
0
0
0
0
0
0
0
0
0
0
0
0
0
0
0
0
0
0
0
0
0
0
0
0
0
0
0
0
0
0
0
0
0
0
0
0
1.57028e-256
1.5707e-256
1.57059e-256
5.02303e-304
2.48805e-304
2.52239e-304
4.96338e-304
2.02031e-258
2.0192e-258
2.01891e-258
7.08001e-307
1.42175e-306
1.43494e-306
1.40178e-306
4.94356e-257
4.94158e-257
4.94194e-257
2.63131e-305
5.15618e-305
5.21152e-305
5.22292e-305
2.8476e-256
1.09428e-281
2.18731e-281
2.02505e-256
2.8477e-256
2.84711e-256
2.84721e-256
4.4217e-304
4.36772e-304
4.36418e-304
4.42556e-304
2.02473e-256
2.02517e-256
2.02485e-256
1.24098e-304
2.44602e-304
2.44942e-304
1.23922e-304
0
1
1
1
1
1
1
1
1
1
1
1
1
1
1
1
1
1
1
1
1
1
1
1
1
1
1
1
1
1
1
1
1
1
1
1
1
1
1
1
1
1
1
1
1
1
1
1
1
1
1
1
1
1
1
1
1
1
1
1
1
1
1
1
1
1
1
1
1
1
1
1
1
1
1
1
1
1
1
1
1
1
1
1
1
1
1
1
1
1
1
1
1
1
1
1
1
1
1
1
1
1
1
1
1
1
1
1
1
1
1
1
1
1
1
1
1
1
1
1
1
1
1
1
1
1
1
1
1
1
1
1
1
1
1
1
1
1
1
1
1
1
1
1
1
1
1
1
1
1
1
1
1
1
1
1
1
1
1
1
1
1
1
1
1
1
1
1
1
1
1
1
1
1
1
1
1
1
1
1
1
1
1
1
1
1
1
1
1
1
1
1
1
1
1
1
1
1
1
1
1
1
1
1
1
1
1
1
1
1
1
1
1
1
1
1
1
1
1
1
1
1
1
1
1
1
1
1
1
1
1
1
1
1
1
1
1
1
1
1
1
1
1
1
1
1
1
1
1
1
1
1
1
1
1
1
1
1
1
1
1
1
1
1
1
1
1
1
1
1
1
1
1
1
1
1
1
1
1
1
1
1
1
1
1
1
1
1
1
1
1
1
1
1
1
1
1
1
1
1
1
1
1
1
1
1
1
1
1
1
1
1
1
1
1
1
1
1
1
1
1
1
1
1
1
1
1
1
1
1
1
1
1
1
1
1
1
1
1
1
1
1
1
1
1
1
1
1
1
1
1
1
1
1
1
1
1
1
1
1
1
1
1
1
1
1
1
1
1
1
1
1
1
1
1
1
1
1
1
1
1
1
1
1
1
1
1
1
1
1
1
1
1
1
1
1
1
1
1
1
1
1
1
1
1
1
1
1
1
1
1
1
1
1
1
1
1
1
1
1
1
1
1
1
1
1
1
1
1
1
1
1
1
1
1
1
1
1
1
1
1
1
1
1
1
1
1
1
1
1
1
1
1
1
1
1
1
1
1
1
1
1
1
1
1
1
1
1
1
1
1
1
1
1
1
1
1
1
1
1
1
1
1
1
1
1
1
1
1
1
1
1
1
1
1
1
1
1
1
1
1
1
1
1
1
1
1
1
1
1
1
1
1
1
1
1
1
1
1
1
1
1
1
1
1
1
1
1
1
1
1
1
1
1
1
1
1
1
1
1
1
1
1
1
1
1
1
1
1
1
1
1
1
1
1
1
1
1
1
1
1
1
1
1
1
1
1
1
1
1
1
1
1
1
1
1
1
1
1
1
1
1
1
1
1
1
1
1
1
1
1
1
1
1
1
1
1
1
1
1
1
1
1
1
1
1
1
1
1
1
1
1
1
1
1
1
1
1
1
1
1
1
1
1
1
1
1
1
1
1
1
1
1
1
1
1
1
1
1
1
1
1
1
1
1
1
1
1
1
1
1
1
1
1
1
1
1
1
1
1
1
1
1
1
1
1
1
1
1
1
1
1
1
1
1
1
1
1
1
1
1
1
1
1
1
1
1
1
1
1
1
1
1
1
1
1
1
1
1
1
1
1
1
1
1
1
1
1
1
1
1
1
1
1
1
1
1
1
1
1
1
1
1
1
1
1
1
1
1
1
1
1
1
1
1
1
1
1
1
1
1
1
1
1
1
1
1
1
1
1
1
1
1
1
1
1
1
1
1
1
1
1
1
1
1
1
1
1
1
1
1
1
1
1
1
1
1
1
1
1
1
1
1
1
1
1
1
1
1
1
1
1
1
1
1
1
1
1
1
1
1
1
1
1
1
1
1
1
1
1
1
1
1
1
1
1
1
1
1
1
1
1
1
1
1
1
1
1
1
1
1
1
1
1
1
1
1
1
1
1
1
1
1
1
1
1
1
1
1
1
1
1
1
1
1
1
1
1
1
1
1
1
1
1
1
1
1
1
1
1
1
1
1
1
1
1
1
1
1
1
1
1
1
1
1
1
1
1
1
1
1
1
1
1
1
1
1
1.83836e-49
1.4766e-100
1
1
1
1.59419e-49
1.09077e-100
1
1
1
5.50092e-51
3.35372e-104
1
1
1.94023e-50
6.17222e-103
1.02361e-157
1
1
1.89667e-49
1.44315e-100
5.06113e-154
1
1.5894e-45
6.16953e-93
1.32008e-142
1.01471e-194
1
1.57803e-42
8.55431e-87
2.21981e-133
1.38516e-182
3.96575e-234
1
9.04409e-42
2.69301e-85
1.13926e-130
4.1241e-179
9.97642e-230
3.25542e-283
3.5989e-42
1.50518e-85
1.64563e-130
5.14856e-179
1.24516e-228
1.22987e-281
0
3.95567e-86
1.16744e-130
5.18224e-179
2.35556e-228
8.00991e-281
0
0
1
1
1
1
1
1
1
1
1
1
1
1
1
1
1
1
1
1
1
1
1
1
1
1
1
1
1
1
1
1
1
1
1
1
1
1
1
1
1
1
1
1
1
1
1
1
1
1
1
1
1
1
1
1
1
1
1
1
1
1
1
1
1
1
1
1
1
1
1
1
1
1
1
1
1
1
1
1
1
1
1
1
1
1
1
1
1
1
1
1
1
1
1
1
1
1
1
1
1
1
1
1
1
1
1
1
1
1
1
1
1
1
1
1
1
1
1
1
1
1
1
1
1
1
1
1
1
1
1
1
1
1
1
1
1
1
1
1
1
1
1
1
1
1
1
1
1
1
1
1
1
1
1
1
1
1
1
1
1
1
1
1
1
1
1
1
1
1
1
1
1
1
1
1
1
1
1
1
1
1
1
1
1
1
1
1
1
1
1
1
1
1
1
1
1
1
1
7.71077e-40
1.97267e-81
1
1
1
1
1
1
1
1
1
1
1
1
1
1
1
1
1
1
1
1
1
1
1
1
1
1
1
1
1
1
1
1
1
1
1
1
1
1
1
1
1
1
1
1
1
1
1
1
1
1
1
1
1
1
1
1
1
1
1
1
1
1
1
1
1
1
1
1
1
1
1
1
1
1
1
1
1
1
1
1
1
1
1
1
1
1
1
1
1
1
1
1
1
1
1
1
1
1
1
1
1
1
1
1
1
1
1
1
1
1
1
1
1
1
1
1
1
1
1
1
1
1
1
1
1
1
1
1
1
1
1
1
1
1
1
1
1
1
1
1
1
1
1
1
1
1
1
1
1
1
1
1
1
1
1
1
1
1
1
1
1
1
1
1
1
1
1
1
1
1
1
1
1
1
1
1
1
1
1
1
1
1
1
1
1
1
1
1
1
1
1
1
1
1
1
1
1
1
1
1
1
1
1
1
1
1
1
1
1
1
1
1
1
1
1
1
1
1
1
1
1
1
1
1
1
1
1
1
1
1
1
1
1
1
1
1
1
1
1
1
1
1
1
1
1
1
1
1
1
1
1
1
1
1
1
1
1
1
1
1
1
1
1
1
1
1
1
1
1
1
1
1
1
1
1
1
1
1
1
1
1
1
1
1
1
1
1
1
1
1
1
1
1
1
1
1
1
1
1
1
1
1
1
1
1
1
1
1
1
1
1
1
1
1
1
1
1
1
1
1
1
1
1
1
1
1
1
1
1
1
1
1
1
1
1
1
1
1
1
1
1
1
1
1
1
1
1
1
1
1
1
1
1
1
1
1
1
1
1
1
1
1
1
1
1
1
1
1
1
1
1
1
1
1
1
1
1
1
1
1
1
1
1
1
1
1
1
1
1
1
1
1
1
1
1
1
1
1
1
1
1
1
1
1
1
1
1
1
1
1
1
1
1
1
1
1
1
1
1
1
1
1
1
1
1
1
1
1
1
1
1
1
1
1
1
1
1
1
1
1
1
1
1
1
1
1
1
1
1
1
1
1
1
1
1
1
1
1
1
1
1
1
1
1
1
1
1
1
1
1
1
1
1
1
1
1
1
1
1
1
1
1
1
1
1
1
1
1
1
1
1
1
1
1
1
1
1
1
1
1
1
1
1
1
1
1
1
1
1
1
1
1
1
1
1
1
1
1
1
1
1
1
1
1
1
1
1
1
1
1
1
1
1
1
1
1
1
1
1
1
1
1
1
1
1
1
1
1
1
1
1
1
1
1
1
1
1
1
1
1
1
1
1
1
1
1
1
1
1
1
1
1
1
1
1
1
1
1
1
1
1
1
1
1
1
1
1
1
1
1
1
1
1
1
1
1
1
1
1
1
1
1
1
1
1
1
1
1
1
1
1
1
1
1
1
1
1
1
1
1
1
1
1
1
1
1
1
1
1
1
1
1
1
1
1
1
1
1
1
1
1
1
1
1
1
1
1
1
1
1
1
1
1
1
1
1
1
1
1
1
1
1
1
1
1
1
1
1
1
1
1
1
1
1
1
1
1
1
1
1
1
1
1
1
1
1
1
1
1
1
1
1
1
1
1
1
1
1
1
1
1
1
1
1
1
1
1
1
1
1
1
1
1
1
1
1
1
1
1
1
1
1
1
1
1
1
1
1
1
1
1
1
1
1
1
1
1
1
1
1
1
1
1
1
1
1
1
1
1
1
1
1
1
1
1
1
1
1
1
1
1
1
1
1
1
1
1
1
1
1
1
1
1
1
1
1
1
1
1
1
1
1
1
1
1
1
1
1
1
1
1
1
1
1
1
1
1
1
1
1
1
1
1
1
1
1
1
1
1
1
1
1
1
1
1
1
1
1
1
1
1
1
1
1
1
1
1
1
1
1
1
1
1
1
1
1
1
1
1
1
1
1
1
1
1
1
1
1
1
1
1
1
1
1
1
1
1
1
1
1
1
1
1
1
1
1
1
1
1
1
1
1
1
1
1
1
1
1
1
1
1
1
1
1
1
1
1
1
1
1
1
1
1
1
1
1
1
1
1
1
1
1
1
1
1
1
1
1
1
1
1
1
1
1
1
1
1
1
1
1
1
1
1
1
1
1
1
1
1
1
1
1
1
1
1
1
1
1
1
1
0.5
1
1
1
1
1
1
1
1
1
1
1
1
1
1
1
1
6.36156e-164
3.06538e-119
2.76773e-77
5.98899e-38
1
1
1.44504e-208
3.68136e-162
4.87497e-118
1.71813e-76
1.51465e-37
1
1
2.17493e-212
8.45184e-166
1.78974e-120
1.78517e-78
2.49914e-38
1
1
1.05163e-255
3.06174e-207
2.26007e-161
1.18547e-117
8.15681e-40
0.5
1
4.50026e-261
8.91257e-212
4.22155e-165
3.31749e-120
2.50541e-78
1.51471e-38
1
1.10758e-305
6.22585e-255
8.07942e-207
7.09613e-161
2.63281e-117
6.52222e-40
1.82684e-37
1.78852e-311
1.28321e-260
2.18056e-211
7.62807e-165
9.92992e-121
1.53603e-78
9.85683e-39
0
8.3635e-305
1.99756e-254
1.86075e-206
7.44393e-161
1.89132e-117
2.29038e-76
0
2.23318e-311
2.12929e-260
1.1332e-211
3.91639e-165
2.74238e-121
5.08229e-79
0
0
1.1967e-304
2.22082e-254
1.58855e-206
9.17249e-161
7.49775e-118
0
0
1.88733e-311
7.09888e-261
6.06499e-212
1.29684e-165
1.38861e-121
1
1
1
1
1.32243e-37
7.01194e-39
5.72483e-77
1.0063e-79
1
1
1
1
1
1
1
1
1
1
1
1
1
1
1
1
1
1
1
1
4.69625e-38
6.10733e-36
2.55206e-39
3.40593e-37
1
1
1
1
1
1
1
1
1
1
1
1
1
1
1
1
1
1
1
1
1
1
1
1
1
1
1
1
1
1
1
1
1
1
1
1
1
1
1
1
1
1
1
1
1
1
1
1
1
1
1
1
1
1
1
1
1
1
1
1
1
1
1
1
1
1
1
1
1
1
1
1
1
1
1
1
1
1
)
;

boundaryField
{
    ground
    {
        type            zeroGradient;
    }
    outlet
    {
        type            zeroGradient;
    }
    wall
    {
        type            zeroGradient;
    }
    wall2
    {
        type            zeroGradient;
    }
    wall3
    {
        type            zeroGradient;
    }
    internalPatch
    {
        type            internal;
    }
    procBoundary0to1
    {
        type            processor;
        value           nonuniform List<scalar> 
35
(
9.62864e-37
1
1
1
1
1
1
1
1
1
1
1
1
1
1.99752e-40
2.66892e-82
5.26444e-127
3.23601e-173
1.14753e-222
6.55551e-273
0
4.84583e-272
5.19577e-221
2.08314e-172
1.75332e-126
1.21775e-82
8.94542e-41
8.3218e-39
1
0.5
2.09363e-40
2.52252e-82
2.22581e-126
1.35699e-172
1.87855e-221
)
;
    }
    procBoundary0to2
    {
        type            processor;
        value           nonuniform List<scalar> 
407
(
1
1
1
1
1
1
1
1
1
1
1
1
1
1
1
1
1
1
1
1
1
1
1
1
1
1
1
1
1
1
1
1
1
1
1
1
1
1
1
1
1
1
1
1
1
1
1
1
1
1
1
1
1
1
1
1
1
1
1
1
1
1
1
1
1
1
1
1
1
1
1
1
1
1
1
1
1
1
1
1
1
1
1
1
1
1
1
1
1
1
1
1
1
1
1
1
1
1
1
1
1
1
1
1
1
1.07463e-47
1.99379e-97
3.03411e-97
3.33869e-100
5.52524e-104
1.36821e-148
1.36821e-148
1.14436e-138
7.07651e-177
4.72123e-129
8.13999e-84
3.60629e-41
1
1
1
1
1
1
1
1
1
1
1
1
1
1
1
1
1
1
1
1
1
1
1
1
1
1
1
1
1
1
1
1
1
1
1
1
1
1
1
1
1
1
1
1
1
1
1
1
1
1
1
1
1
1
1
1
1
1
1
1
1
1
1
1
1
1
1
1
1
1
1
1
1
1
1
1
1
1
1
1
1
1
1
1
1
1
1
1
1
1
1
1
1
1
1
1
1
1
1
1
1
1
1
1
1
1
1
9.45719e-48
3.09847e-49
3.43999e-51
1.13069e-96
1.13069e-96
2.97347e-90
3.02574e-44
1
1
1
1
1
1
1
1
1
1
1
1
1
1
1
1
1
1
1
1
1
1
1
1
1
1
1
1
1.89488e-47
1.89488e-47
1
1
1
1
1
1
1
1
1
1
1
1
1
1
1
1
1
1
1
1
1
1
1
1
1
1
1
1
1
1
1
1
1
1
1
1
1
1
1
1
1
1
1
1
1
1
1
1
1
1
1
1
1
1
1
1
1
1
1
1
1
1
1
1
1
1
1
1
1
1
1
1
1
1
1
1
1
1
1
1
1
1
1
1
1
1
1
1
1
1
1
1
1
1
1
1
1
1
1
1
1
1
1
1
1
1
1
1
1
1
1
1
1
1
1
1
1
1
1
1
1
1
1
1
1
1
1
1
1
1
1
1
1
1
1
1
1
1
1
1
1
1
1
1
1
1
)
;
    }
    procBoundary0to3
    {
        type            processor;
        value           nonuniform List<scalar> 
205
(
5.88868e-160
5.11861e-205
1.18063e-159
9.27645e-117
1.56888e-39
5.27658e-117
8.69424e-161