/*--------------------------------*- C++ -*----------------------------------*\
  =========                 |
  \\      /  F ield         | OpenFOAM: The Open Source CFD Toolbox
   \\    /   O peration     | Website:  https://openfoam.org
    \\  /    A nd           | Version:  9
     \\/     M anipulation  |
\*---------------------------------------------------------------------------*/
FoamFile
{
    format      ascii;
    class       volScalarField;
    location    "0.00065";
    object      alpha.c4;
}
// * * * * * * * * * * * * * * * * * * * * * * * * * * * * * * * * * * * * * //

dimensions      [0 0 0 0 0 0 0];

internalField   nonuniform List<scalar> 
6350
(
0.00429063
0.00441897
0.00488803
3.77977e-06
2.99674e-06
0.00569922
0.00497586
6.14247e-08
4.77947e-08
2.97568e-08
0.00114748
7.77898e-09
0.00563807
9.30479e-09
0.00230789
5.7683e-08
0.00492952
0.000202693
0.000244333
0.0048073
0.00530469
0.000275656
0.00023183
0.00502093
0.0056492
0.00564605
0.000301428
0.000234426
0.000298557
0.000246693
0.00583712
0.00547309
0.0057011
0.000309882
0.000309669
0.000318084
0.000295721
0.000250841
0.000249585
0.00494659
0.00510877
0.00525901
0.000276536
0.000267536
0.0056428
0.00500793
0.00487642
0.000300696
0.000298027
0.000233597
0.000245671
0.00524051
0.00327499
0.00428371
0.000188799
0.00026138
0.000188372
0.000123148
0.00216844
0.00375273
0.003581
0.000143069
7.33588e-05
6.61431e-05
0.000155097
0.00213986
0.00173689
0.00299723
0.000107736
2.6082e-05
4.72123e-05
6.44832e-05
5.15636e-06
6.24492e-08
5.15175e-06
5.90103e-08
5.27555e-06
4.91791e-06
6.14828e-08
4.33344e-08
3.99531e-08
3.52218e-06
4.91749e-06
5.61487e-08
4.81286e-06
5.78668e-08
3.52428e-06
4.05157e-08
3.41942e-08
4.47446e-08
3.81948e-06
4.43407e-06
5.2311e-08
4.75324e-08
3.99829e-06
3.99605e-06
4.52069e-06
5.25968e-08
4.3737e-06
5.40973e-08
5.60228e-08
4.90284e-06
4.8026e-06
3.50789e-06
4.30779e-08
3.76149e-06
3.97532e-08
4.21219e-08
6.03846e-09
2.47993e-08
2.28202e-09
0.00379418
0.00469113
0.00100536
0.00175528
0.000225295
0.000230759
0.00475557
0.00410554
0.00399463
0.000172442
0.000180633
0.00444352
0.000158344
0.000204989
0.00290135
0.00360957
0.000146148
0.000103562
0.00297725
0.00167888
0.00287199
0.000102618
4.90534e-05
0.000109013
4.56507e-05
0.00189627
0.00141362
0.00250109
8.25101e-05
2.18232e-05
3.52981e-05
5.42913e-05
0.134501
0.0120321
0.017708
0.0358083
0.39822
0.429156
0.467881
0.480893
0.482109
0.473822
0.472156
0.346033
0.343993
0.332663
0.329864
0.476913
0.456009
0.466949
0.32375
0.337904
0.321221
0.303469
0.432492
0.265396
0.458416
0.456161
0.307016
0.303426
0.260967
0.151253
0.0362292
0.152897
0.0325888
0.141272
0.138991
0.0319265
0.419173
0.435035
0.449338
0.292245
0.219735
0.246996
0.269956
0.030694
0.0343955
0.146374
0.131766
0.0253858
0.0296865
0.117611
0.0904195
0.0258506
0.119655
0.117156
0.0171701
0.0251796
0.088108
0.108963
0.0187361
0.0152453
0.0668198
0.0228243
0.0803793
0.0939892
4.04837e-08
3.46356e-06
3.58155e-06
2.48032e-06
3.01285e-08
2.81784e-08
2.63267e-06
2.6845e-06
1.72188e-08
1.60927e-06
4.6113e-08
4.02861e-06
2.67774e-06
2.96772e-08
2.21823e-06
3.51297e-08
3.05604e-06
1.45036e-08
2.02263e-06
2.25251e-08
1.34279e-06
1.93276e-06
8.12354e-09
8.94015e-07
2.35692e-08
7.89776e-07
2.14161e-06
2.1022e-08
5.80212e-07
5.48855e-09
1.33987e-06
1.58796e-08
1.45964e-08
1.44371e-06
5.32809e-07
7.63424e-07
2.67052e-09
2.77913e-07
1.3785e-06
5.3941e-09
5.37777e-07
1.46346e-08
6.62207e-09
4.03576e-09
1.03656e-06
2.33571e-07
1.10813e-08
3.98329e-07
6.41973e-07
0.000241777
3.14439e-08
1.23999e-06
0.00167295
2.64213e-10
9.33705e-07
3.12016e-09
0.00059274
0.00277615
9.6946e-05
0.00200251
0.0011345
5.89601e-05
4.51206e-05
2.58566e-05
1.07418e-05
3.93446e-06
0.0002726
0.00121925
0.000632566
2.87323e-05
1.17169e-05
0.000770995
0.000135358
0.000483489
3.34316e-06
1.50176e-05
8.09035e-06
1.65045e-06
0.430142
0.00680811
0.0308463
0.355747
0.0147615
0.257611
0.0304199
0.431406
0.0240339
0.00187877
0.326667
0.000628536
0.217724
2.51422e-08
0.0047706
0.00214342
0.0214055
0.399008
0.0174198
0.00136146
0.130174
0.000572894
0.08902
0.112057
0.100533
0.377799
0.0104067
0.188709
0.00168065
0.134491
0.423947
0.441551
0.435615
0.286986
0.303764
0.29666
0.279918
1.06842e-05
1.07829e-05
0.0199476
0.12623
0.0706605
0.2728
0.0065572
0.2874
0.282618
0.426401
0.442344
0.436745
0.30454
0.298078
0.402661
0.371239
0.415813
0.268856
0.19634
0.252307
0.211875
0.202753
0.361634
0.406844
0.37344
0.417421
0.271004
0.214394
4.85902e-06
0.10145
0.0557788
0.00015913
0.0523162
1.79713e-08
0.00131385
0.241852
0.239246
0.394858
0.333848
0.33105
0.169052
0.170025
0.236063
0.393924
0.239179
0.32952
0.32305
0.169858
0.178008
0.347347
0.229063
0.223722
0.29368
0.306669
0.186666
0.189255
0.168037
0.325585
0.374219
0.258959
0.309926
0.153059
0.114379
1.46961e-08
3.08687e-05
1.03753e-09
1.06229e-05
3.61082e-11
3.1357e-06
1.41311e-09
0.119685
0.0343305
0.131564
0.125814
0.0287727
0.114189
0.0321303
0.0289655
0.119218
0.115713
0.0343986
0.131993
0.126848
0.0323886
0.0150119
4.8851e-05
4.33855e-08
0.004602
0.128181
0.000353282
0.0622792
0.00134091
1.94517e-08
4.21939e-09
0.000248419
0.0574934
8.01209e-05
0.0378782
0.279375
0.168908
0.291427
0.178379
0.134526
0.0620049
0.0577494
0.288749
0.1639
0.176041
0.121275
0.132422
0.0609712
0.0555869
0.235246
0.129539
0.233996
0.0941041
0.0423364
0.094457
0.041875
0.235182
0.15444
0.243451
0.045544
0.0973529
0.113087
0.0602534
0.106169
0.0233958
0.0655431
0.0165896
0.0961351
0.0262046
0.0725694
0.0153267
0.0991557
0.0683579
0.10755
0.0168545
0.0265485
0.0737694
0.170289
0.11797
0.215599
0.0847786
0.0268737
0.0375716
0.0615399
0.242392
0.139548
0.179459
0.0946548
0.0656504
0.0450962
0.0278877
0.0206518
0.0892771
0.0876848
0.0529796
0.0114758
0.0535811
0.0110978
0.0294593
0.0231732
0.0912199
0.0128151
0.0556664
0.0666348
0.0181885
0.246541
0.178617
0.248272
0.134244
0.0970913
0.0835821
0.144415
0.000202641
6.29776e-10
3.39822e-13
1.54685e-05
0.0210987
1.13628e-09
0.00027464
0.0111261
0.0763339
0.0530178
0.046789
0.00595562
0.0094527
0.0326537
0.117465
0.038456
0.0436876
0.0828098
0.0316341
0.0264419
0.0915299
0.0362508
0.00757014
0.0391437
0.0151772
0.00188309
0.00215154
0.0138606
0.0216985
0.0686598
0.0744292
0.0204619
0.00424394
0.0186035
0.00475914
0.0203439
0.0219795
0.0755402
0.0207702
0.00430604
0.0191404
0.00481609
0.0347293
0.00744745
0.038468
0.0149304
0.00182931
0.0133755
0.0021196
0.10788
0.0227762
0.0513294
0.0141237
0.0337375
0.0134003
0.00491846
0.082083
0.0241804
0.0373627
0.0181242
0.027563
0.0108623
0.00587546
0.0567513
0.0211905
0.020681
0.0160764
0.015709
0.00462268
0.00481726
0.00300496
0.00174114
0.00115056
0.000108103
6.46187e-05
4.73482e-05
2.61642e-05
0.0257222
0.00462826
0.0101737
0.00128364
0.0260848
0.00990985
0.00443534
0.0156025
0.00928314
0.0350666
0.00299048
0.0144549
0.00831005
0.00146407
0.11181
0.0753723
0.0604898
0.0564766
0.0449873
0.0208545
0.0280401
0.0513935
0.0134334
0.0186258
0.00968885
0.013974
0.00401988
0.00260441
0.000329392
4.80239e-08
1.75619e-06
0.00208136
0.00359069
2.15215e-06
4.91897e-06
2.60241e-09
0.00335354
0.000130493
0.00365607
0.00226702
0.000149495
7.15868e-05
6.2694e-05
0.00376372
0.00217247
0.00231283
0.000143617
0.000155793
7.35881e-05
6.62978e-05
0.0227609
0.00224833
0.00105006
0.00561268
0.00863456
0.0037421
0.0155803
0.0525507
0.0195892
0.0364025
0.00758281
0.0287795
0.0154207
0.0620882
0.00540574
0.0115129
0.0279678
0.037046
0.0035953
0.0176156
0.00910422
0.0278636
0.00236669
0.0165709
0.00122198
0.0101725
0.0054987
0.000516833
1.13161e-05
0.00128704
0.000618933
0.000254375
3.59323e-06
0.000619956
1.13376e-05
0.000996783
0.00036507
0.00109077
2.4475e-05
4.96483e-06
2.14627e-05
5.69832e-06
0.000328277
2.19106e-05
0.00101781
0.000367323
0.00110558
2.48754e-05
5.73573e-06
0.0104631
0.0373204
0.0278159
0.00816028
0.00395508
0.00249019
0.0117105
0.00123844
0.00636628
0.0061025
0.000919094
9.48162e-05
8.21786e-05
0.000991462
0.00832303
0.0069319
0.00458635
0.00226645
0.00130697
0.00104669
0.00021573
0.00450106
0.00778294
0.0143745
0.00345499
0.00018028
0.00077369
0.00137973
0.00385836
0.000259173
1.4234e-05
0.000423322
0.00031745
0.00342643
0.000509553
0.00380363
1.41023e-05
0.000421815
0.000255599
0.00334309
0.000313377
0.000504299
0.000782726
0.00232533
0.00730979
0.00209186
1.72384e-05
0.000550906
0.000129465
0.00414593
0.00701103
0.0175191
0.00348767
9.07398e-05
0.00103831
0.000473431
0.000230791
1.48656e-05
0.000771009
0.000120302
0.000461856
7.56675e-06
1.42401e-06
0.0184511
0.00299908
0.0136762
0.0054795
0.00155698
0.000867174
0.0079948
0.00363731
0.00105986
0.00704611
0.0021775
3.60415e-05
0.000212204
0.000818362
0.00296935
0.000229634
0.00285279
0.000547161
1.97149e-05
0.000588836
1.75283e-05
0.00104465
0.00368505
0.00540013
0.000763034
2.74171e-05
6.19907e-05
0.000433357
0.000176591
0.00146475
0.0024231
0.000440897
4.78831e-06
1.25112e-05
0.000228284
0.370275
0.408263
0.0339394
0.053363
0.345528
0.131996
0.126863
0.407691
0.428165
0.439667
0.418789
0.288502
0.286975
0.276474
0.302699
0.273179
0.427517
0.284232
0.439644
0.418908
0.28797
0.302224
0.345862
0.352408
0.378376
0.264869
0.2458
0.257145
0.251773
0.370189
0.254891
0.244125
0.352589
0.378702
0.264679
0.251667
0.139176
0.12432
0.0409339
0.0373302
0.130856
0.0438988
0.135371
0.0389921
0.0325823
0.12115
0.138384
0.0370591
0.0434749
0.13474
0.140335
0.135905
0.0492735
0.0555226
0.134955
0.0516567
0.140299
0.133866
0.0475047
0.0520366
0.139879
0.0553417
0.051336
0.140045
8.33244e-05
1.39392e-07
1.47839e-05
5.53128e-05
0.000238573
3.30435e-06
5.84545e-07
0.000140204
0.000240729
0.00232865
0.00108806
1.22167e-06
4.3071e-05
8.08463e-05
9.86939e-08
6.82455e-05
7.46496e-07
4.43983e-05
0.00021333
2.86854e-06
4.53418e-07
0.00211473
2.57998e-05
0.00042165
8.24722e-06
0.000194358
1.55175e-05
3.91708e-07
1.92457e-08
7.75177e-09
7.50326e-07
2.05944e-06
2.27344e-08
9.08389e-09
8.72356e-07
2.36907e-08
9.31867e-09
2.11033e-08
8.12468e-09
1.94079e-06
7.91634e-07
8.96833e-07
1.32968e-08
5.23137e-09
5.17747e-07
7.23574e-09
2.70592e-09
7.02035e-07
2.79167e-07
5.41236e-09
1.38352e-06
5.39363e-07
2.67977e-09
7.79711e-09
7.65123e-07
2.78825e-07
0.00165366
0.000677716
1.35342e-05
0.00037377
0.000333251
0.000165844
0.00275912
0.0016281
2.5622e-05
0.000390463
5.0307e-06
0.000124711
1.35283e-05
3.66979e-07
0.000511679
1.21002e-06
8.06696e-05
7.54225e-07
5.50054e-05
4.94617e-06
5.25497e-08
0.000321354
1.87562e-07
7.40179e-07
1.61154e-06
5.38274e-05
7.43374e-06
1.51628e-05
0.000470234
4.13165e-06
7.15076e-07
1.58233e-06
5.13747e-05
1.97439e-05
9.74811e-05
4.52851e-05
1.70306e-06
1.69822e-08
7.36599e-07
1.44816e-06
5.16961e-05
6.4287e-07
1.01244e-09
1.09955e-09
3.30607e-10
1.06957e-07
3.59618e-08
3.15048e-07
1.1714e-07
3.26733e-09
3.34954e-07
2.98809e-10
1.03564e-09
1.11127e-07
3.23223e-08
1.11349e-07
3.3242e-05
3.80141e-07
1.17921e-08
1.62221e-07
1.01713e-06
4.47625e-07
1.36289e-05
2.19525e-09
2.27636e-07
4.71793e-10
2.56573e-09
5.53375e-10
2.6328e-07
5.57715e-08
2.22234e-09
5.56555e-10
4.64758e-10
4.73874e-08
2.31404e-07
2.67335e-07
5.61051e-08
1.44963e-09
1.53618e-07
3.02985e-10
7.1455e-10
1.40432e-10
7.82703e-08
1.49376e-08
2.80852e-10
2.92365e-08
1.50757e-07
1.19588e-10
6.54792e-10
7.2302e-08
1.27459e-08
1.11059e-06
9.99342e-07
3.63779e-05
5.54287e-07
3.29184e-10
1.36403e-08
1.28021e-08
4.62247e-08
1.03682e-07
4.30031e-06
1.92977e-07
5.08486e-11
2.00552e-09
4.59036e-09
0.644228
0.696892
0.697215
0.633702
0.676105
0.598424
0.64448
0.618186
0.665269
0.680543
0.668489
0.667904
0.645251
0.621796
0.664929
0.635024
0.664959
0.675234
0.644079
0.639939
0.672477
0.667771
0.638497
0.682324
0.69433
0.691475
0.68839
0.68921
0.686248
0.684754
0.681966
0.693181
0.694467
0.688618
0.68906
0.685256
0.686467
0.680671
0.67611
0.688643
0.671913
0.683886
0.680659
0.66742
0.660688
0.67146
0.679539
0.661704
0.674784
0.657161
0.67596
0.676892
0.677086
0.688445
0.67208
0.684483
0.680664
0.668774
0.673504
0.682605
0.666063
0.660734
0.680415
0.675517
0.658988
0.66091
0.672129
0.679112
0.661806
0.675898
0.674692
0.658223
0.693231
0.696383
0.695904
0.694738
0.695499
0.694149
0.693728
0.694015
0.696873
0.696638
0.695055
0.694378
0.696328
0.694693
0.692263
0.695573
0.693333
0.691512
0.694836
0.69336
0.689961
0.691679
0.694206
0.690962
0.688678
0.693987
0.687809
0.692207
0.690257
0.691922
0.68736
0.686832
0.691347
0.685744
0.690942
0.692875
0.695856
0.692149
0.689598
0.688021
0.695394
0.693763
0.692897
0.695771
0.693879
0.691592
0.693502
0.695509
0.690416
0.690963
0.692225
0.687815
0.687474
0.691524
0.686377
0.691877
0.659164
0.65939
0.640886
0.626003
0.667169
0.634187
0.650714
0.654367
0.668707
0.661667
0.647097
0.675871
0.654583
0.660828
0.665022
0.659912
0.639898
0.654773
0.650244
0.669466
0.655507
0.666402
0.660389
0.642471
0.655254
0.669708
0.652122
0.657394
0.64362
0.654327
0.631245
0.614806
0.65745
0.640044
0.628667
0.636849
0.651794
0.663363
0.650508
0.665407
0.649617
0.648782
0.648193
0.61415
0.622814
0.608392
0.633229
0.623237
0.638699
0.630243
0.658292
0.636409
0.635174
0.644213
0.64427
0.649868
0.616236
0.604081
0.574218
0.569642
0.519134
0.584803
0.630734
0.669704
0.622661
0.558928
0.615662
0.575066
0.631709
0.609314
0.629672
0.669568
0.655459
0.640596
0.660076
0.665253
0.644984
0.65101
0.655722
0.655238
0.666076
0.651782
0.64229
0.660324
0.645227
0.657251
0.623313
0.60819
0.613994
0.64806
0.598578
0.633569
0.638759
0.657867
0.643668
0.643844
0.634847
0.636189
0.621409
0.649662
0.637575
0.611832
0.621748
0.604745
0.600619
0.626246
0.633016
0.626308
0.613251
0.625875
0.647216
0.631016
0.608414
0.642792
0.612111
0.637216
0.633711
0.623527
0.604695
0.601822
0.626439
0.629133
0.614341
0.629186
0.647834
0.631709
0.612006
0.64509
0.591236
0.611643
0.625556
0.616063
0.583362
0.594683
0.602981
0.593991
0.604231
0.557936
0.590525
0.582269
0.579992
0.615421
0.609041
0.56765
0.608631
0.601336
0.59104
0.585084
0.62572
0.622114
0.593606
0.622237
0.624788
0.609141
0.605311
0.637959
0.569029
0.606745
0.590452
0.593851
0.58629
0.611255
0.589565
0.573032
0.60946
0.590791
0.594721
0.58846
0.611926
0.592581
0.679458
0.675686
0.647995
0.649955
0.626195
0.612768
0.616882
0.620872
0.67468
0.67738
0.672825
0.661237
0.663967
0.665836
0.659355
0.678842
0.671667
0.674237
0.660605
0.661831
0.665016
0.657801
0.556624
0.575824
0.634338
0.649751
0.663276
0.649808
0.665005
0.651562
0.636212
0.648244
0.634385
0.662806
0.648975
0.664838
0.651248
0.636255
0.62188
0.622778
0.618689
0.644173
0.640115
0.643138
0.647473
0.642024
0.625568
0.646692
0.627326
0.622834
0.643948
0.648471
0.599494
0.424781
0.508826
0.603932
0.577849
0.511297
0.541624
0.597487
0.469126
0.509667
0.602353
0.552985
0.507734
0.466068
0.598322
0.609998
0.596149
0.616719
0.631303
0.633864
0.618823
0.596503
0.611308
0.632369
0.613355
0.598482
0.634324
0.618886
0.601969
0.603532
0.599259
0.575128
0.577679
0.573482
0.57911
0.60348
0.604901
0.600946
0.576438
0.579203
0.57485
0.58053
0.600507
0.596361
0.599919
0.575471
0.57648
0.579644
0.571907
0.598231
0.59913
0.595204
0.574105
0.575001
0.577981
0.571247
0.62978
0.629965
0.673553
0.674602
0.577257
0.623856
0.62686
0.580819
0.675251
0.680159
0.678152
0.661957
0.664894
0.660348
0.666671
0.671539
0.676146
0.679508
0.661143
0.662449
0.665862
0.657833
0.656554
0.627595
0.65384
0.643294
0.614196
0.61722
0.640088
0.656032
0.630528
0.657262
0.644168
0.617094
0.64283
0.618111
0.643933
0.645003
0.619262
0.627516
0.648547
0.622982
0.640342
0.64488
0.647799
0.628501
0.622409
0.643263
0.649472
0.624007
0.626345
0.59738
0.601698
0.581228
0.605699
0.600957
0.622662
0.627351
0.60069
0.582285
0.605163
0.625852
0.606781
0.601956
0.558483
0.581347
0.583141
0.555232
0.525696
0.552897
0.528345
0.588614
0.590477
0.577576
0.56712
0.553806
0.565316
0.555706
0.553054
0.557436
0.582056
0.549597
0.522422
0.554209
0.52739
0.575275
0.587171
0.563786
0.589808
0.577322
0.566402
0.555323
0.54563
0.589163
0.54159
0.546409
0.566499
0.570568
0.565491
0.567617
0.602627
0.57272
0.57725
0.582326
0.590973
0.586646
0.546776
0.551239
0.494965
0.513959
0.544162
0.553303
0.50077
0.493358
0.507547
0.548968
0.545935
0.51352
0.552571
0.500163
0.548255
0.550231
0.505181
0.514229
0.546072
0.552234
0.509774
0.54392
0.547838
0.503054
0.54727
0.513351
0.551215
0.508813
0.480933
0.454344
0.423496
0.516946
0.429931
0.461473
0.486694
0.540038
0.523906
0.49338
0.475981
0.537568
0.527068
0.498541
0.522502
0.53586
0.490975
0.539259
0.474816
0.526465
0.497548
0.517855
0.483481
0.45612
0.430438
0.514127
0.46218
0.487467
0.188641
0.551464
0.13311
0.571611
0.026095
0.525398
0.575351
0.58728
0.409921
0.493573
0.287141
0.279828
0.561064
0.529911
0.592697
0.447319
0.49558
0.278721
0.20804
0.595186
0.591217
0.599094
0.574977
0.570154
0.560697
0.566425
0.584533
0.589306
0.597362
0.573372
0.56893
0.564956
0.560329
0.0308154
0.453703
0.408041
0.201591
0.00621374
0.304036
0.00455265
0.541642
0.56729
0.576425
0.518545
0.546547
0.534132
0.504897
0.564336
0.583902
0.575956
0.548917
0.560639
0.551716
0.538496
0.00903332
0.251704
0.0440385
0.462084
0.521308
0.220625
0.162086
0.00443275
0.182165
0.00737437
0.529074
0.480633
0.15639
0.110143
0.556037
0.572971
0.577834
0.517932
0.549693
0.54486
0.512814
0.556483
0.562314
0.579713
0.543024
0.516981
0.508241
0.550354
0.544151
0.491063
0.539768
0.461705
0.529813
0.525236
0.457351
0.544816
0.478624
0.536489
0.519333
0.457974
0.443994
0.529449
0.552524
0.500189
0.529081
0.512408
0.447154
0.476121
0.482171
0.546411
0.552493
0.564484
0.534671
0.46637
0.498251
0.516021
0.514383
0.477445
0.530495
0.513897
0.399068
0.439711
0.49135
0.472948
0.439955
0.504082
0.484448
0.383139
0.409539
0.453284
0.437688
0.425901
0.304242
0.401419
0.277788
0.260839
0.227396
0.484188
0.423811
0.387847
0.289256
0.418807
0.381566
0.495315
0.426462
0.391434
0.497418
0.492545
0.276438
0.421911
0.38767
0.528681
0.456301
0.445641
0.452053
0.441225
0.335554
0.326067
0.523812
0.458357
0.447767
0.453192
0.44272
0.321154
0.3244
0.476663
0.351158
0.315764
0.256169
0.400272
0.36601
0.441061
0.510006
0.384518
0.431871
0.373486
0.42124
0.298994
0.249108
0.450282
0.375454
0.342353
0.29186
0.396283
0.360748
0.42163
0.356749
0.288146
0.356919
0.177751
0.235558
0.17794
0.120368
0.490756
0.407275
0.396692
0.429247
0.418391
0.336986
0.330273
0.378348
0.256092
0.341229
0.129738
0.199985
0.162649
0.0974968
0.11973
0.0204829
0.100294
0.0176639
0.0895872
0.0714065
0.0131903
0.213673
0.331138
0.340803
0.213872
0.0860748
0.112741
0.188755
0.309112
0.184854
0.318854
0.204327
0.0752355
0.0988888
0.180079
0.181234
0.329783
0.326509
0.181148
0.0791038
0.0782779
0.182133
0.307452
0.155132
0.304365
0.172361
0.0691976
0.173774
0.0682808
0.0156296
0.280418
0.122432
0.000572704
0.0100905
4.58683e-08
0.0217608
3.38304e-05
0.179782
0.125306
0.325807
0.249222
0.364207
0.329994
0.508984
0.562726
0.482029
0.542914
0.578946
0.617859
0.324479
0.566355
0.536379
0.516132
0.5497
0.619928
0.578279
0.603035
0.621742
0.60637
0.601401
0.597931
0.583339
0.587052
0.604262
0.614937
0.599229
0.599351
0.594422
0.580018
0.584998
0.27007
0.0395491
0.203907
0.503865
0.272138
0.476637
0.563552
0.563134
0.601791
0.586177
0.556022
0.579985
0.562654
0.537103
0.59152
0.605471
0.590288
0.573794
0.585652
0.571544
0.560017
0.150969
0.421338
0.483894
0.144023
0.0599824
0.0107969
0.0207444
0.173834
0.441231
0.497437
0.042262
0.0375722
0.0134368
0.0206792
0.567849
0.585958
0.589451
0.562699
0.532498
0.567822
0.525488
0.550254
0.579662
0.575322
0.556409
0.516806
0.507997
0.562239
0.561225
0.587321
0.582266
0.56125
0.53279
0.566359
0.527482
0.544935
0.577839
0.573019
0.5561
0.517962
0.512938
0.561072
0.555723
0.575919
0.558805
0.538735
0.54131
0.532467
0.49954
0.536997
0.540979
0.565957
0.536967
0.467014
0.49552
0.508952
0.512275
0.525357
0.552494
0.528994
0.446915
0.475863
0.500096
0.551829
0.562371
0.573768
0.551864
0.485369
0.536414
0.513858
0.534779
0.552563
0.564551
0.546498
0.46652
0.498419
0.529997
0.636267
0.593978
0.530723
0.596816
0.627147
0.660164
0.60943
0.576631
0.55602
0.597933
0.63881
0.654424
0.643534
0.611848
0.61557
0.584993
0.559971
0.673587
0.669193
0.648005
0.666034
0.661837
0.655861
0.652133
0.668134
0.65905
0.672655
0.64605
0.664906
0.660282
0.650784
0.508045
0.263891
0.598946
0.592624
0.44815
0.541281
0.578175
0.652294
0.631433
0.620863
0.613786
0.645308
0.638844
0.607183
0.62961
0.64496
0.658735
0.636644
0.635841
0.650969
0.621316
0.620653
0.640406
0.624606
0.636264
0.655147
0.651084
0.640412
0.617731
0.613243
0.621925
0.642914
0.630128
0.63856
0.634289
0.622765
0.633918
0.61773
0.633909
0.653785
0.649034
0.638806
0.606514
0.636833
0.611439
0.620417
0.641608
0.627843
0.632732
0.582387
0.620149
0.60493
0.620147
0.610729
0.634705
0.596817
0.568703
0.592363
0.600627
0.613616
0.59698
0.621541
0.589944
0.591729
0.584059
0.606048
0.597257
0.627223
0.61828
0.603226
0.6227
0.609037
0.615195
0.592159
0.601212
0.586592
0.5798
0.609111
0.624407
0.608176
0.624396
0.624439
0.639698
0.609101
0.583354
0.587082
0.601429
0.603035
0.60638
0.617854
0.621757
0.579987
0.594389
0.599344
0.604259
0.599215
0.614915
0.619922
0.522359
0.571308
0.564826
0.515698
0.559511
0.552586
0.504319
0.57998
0.537121
0.562668
0.563132
0.586175
0.601783
0.57894
0.571499
0.573748
0.585606
0.57826
0.590269
0.605442
0.591494
0.575547
0.568925
0.585433
0.555889
0.57223
0.565675
0.547961
0.570466
0.590489
0.604141
0.582399
0.590482
0.570465
0.558181
0.482003
0.541388
0.555229
0.541405
0.438623
0.521463
0.482074
0.491792
0.522155
0.544531
0.5355
0.412945
0.506131
0.47219
0.558774
0.563539
0.575901
0.555723
0.49957
0.53874
0.53248
0.521169
0.335162
0.456203
0.445381
0.440836
0.52858
0.451904
0.523897
0.321365
0.458395
0.447841
0.442921
0.529101
0.453278
0.492664
0.426526
0.42213
0.391448
0.387823
0.276685
0.278768
0.495112
0.423476
0.418301
0.387537
0.381081
0.288596
0.279403
0.510115
0.299193
0.384584
0.373652
0.421472
0.480731
0.431966
0.481966
0.517835
0.432525
0.350621
0.47201
0.407228
0.263611
0.432092
0.544234
0.504166
0.425825
0.504185
0.432063
0.325073
0.531878
0.403227
0.495381
0.396383
0.485738
0.420299
0.300931
0.490609
0.336648
0.407163
0.396386
0.418027
0.429111
0.46195
0.44997
0.375033
0.395797
0.341918
0.360259
0.29123
0.28659
0.476843
0.351351
0.400539
0.315963
0.36624
0.256423
0.208187
0.364356
0.482023
0.407393
0.517895
0.350987
0.472162
0.432738
0.203813
0.308696
0.318223
0.184222
0.0750408
0.16172
0.0984996
0.172552
0.307547
0.304662
0.155312
0.0691863
0.15642
0.068336
0.169366
0.0910732
0.200487
0.310386
0.169254
0.413401
0.310293
0.25408
0.167237
0.304386
0.167158
0.0555669
0.0720157
0.133073
0.117978
0.280778
0.188616
0.0340017
0.069321
0.114857
0.0622795
0.241662
0.335551
0.342361
0.241845
0.17066
0.150594
0.251856
0.314247
0.21083
0.320478
0.231588
0.151381
0.133101
0.241426
0.23354
0.141974
0.282714
0.158473
0.0472257
0.0624007
0.125223
0.201407
0.11775
0.188201
0.0692261
0.114592
0.0620888
0.033923
0.103129
0.177949
0.305429
0.193469
0.294253
0.420259
0.319021
0.179065
0.0762483
0.137427
0.159013
0.24397
0.38843
0.297744
0.112745
0.0453882
0.0971159
0.234858
0.242945
0.153899
0.134174
0.0418462
0.094315
0.0940401
0.235172
0.234061
0.129614
0.130125
0.00454621
0.0503564
0.00851736
0.0755357
0.0142098
0.050426
0.00852996
0.0472508
0.0624605
0.158649
0.2337
0.110219
0.283003
0.142145
0.132654
0.241017
0.231104
0.313767
0.31991
0.210204
0.220078
0.0268844
0.0890744
0.084798
0.0616026
0.170439
0.215752
0.118065
0.0101252
0.0324871
0.0585907
0.0444225
0.0028964
0.0229112
0.00710154
0.0967336
0.0832326
0.133845
0.246054
0.247737
0.178037
0.188176
0.109314
0.0313146
0.0168485
0.0288364
0.0488613
0.0448993
0.0833342
0.0756776
0.00706292
0.0270752
0.0250122
0.0263437
0.0765319
0.0243649
0.062643
0.0280606
0.0625811
0.00571781
0.0157459
0.035959
0.0157282
0.00185717
0.0287639
0.00409167
0.00142558
0.0132463
0.0061974
0.00051408
0.0449433
0.0566667
0.103421
0.00968817
0.0280152
0.0135993
0.00394907
0.106652
0.0132708
0.0444408
0.0986378
0.0352611
0.0873233
0.195134
0.0371733
0.00584478
0.0240928
0.0274089
0.0180469
0.0817001
0.0620798
0.00461434
0.0048015
0.0211651
0.0160411
0.0156941
0.0567692
0.0574489
0.0156533
0.000515614
0.00186026
0.0288396
0.00143064
0.0132903
0.00410297
0.146234
0.0327916
0.0977666
0.0898859
0.0787153
0.0723604
0.165821
0.0695069
0.0177974
0.00630234
0.0162542
0.0239421
0.0220818
0.0533996
0.0279105
0.0750894
0.0602216
0.0562294
0.0447613
0.111346
0.127733
0.0186333
0.00260358
0.00401675
0.0139708
0.00968913
0.037893
0.0514253
0.00265533
0.00867926
0.0264033
0.000241255
0.00149516
0.0052257
0.00121577
0.00223612
0.00681484
1.53252e-05
0.000121779
0.000598972
0.0022332
0.000121561
0.000313401
0.00108118
0.00455441
0.00178002
6.11778e-06
0.000321206
8.1376e-05
0.144849
0.0368504
0.475784
0.476555
0.0410992
0.486455
0.0372537
0.485151
0.486668
0.485831
0.486674
0.357412
0.357405
0.358193
0.354511
0.484479
0.485261
0.485574
0.352742
0.350664
0.351279
0.349877
0.477542
0.483575
0.48451
0.354841
0.341736
0.354243
0.344118
0.473919
0.48156
0.483411
0.350662
0.334893
0.340766
0.346219
0.166119
0.0418668
0.166109
0.0397082
0.167848
0.0411054
0.162291
0.159741
0.0373628
0.0378042
0.156516
0.0386926
0.157501
0.156333
0.0341479
0.0369899
0.154168
0.159257
0.0362581
0.0388833
0.150969
0.164492
0.0375064
0.152731
0.0408521
0.164503
0.0407717
0.154696
0.634313
0.646987
0.582295
0.55181
0.505251
0.58259
0.592483
0.520207
0.613903
0.645438
0.62124
0.639982
0.62002
0.638489
0.615092
0.610409
0.610604
0.641339
0.627505
0.616587
0.634516
0.60443
0.615003
0.593753
0.61656
0.604759
0.629941
0.628452
0.605967
0.585297
0.591601
0.550965
0.546158
0.590675
0.586271
0.545113
0.541984
0.582431
0.548118
0.535093
0.587848
0.541862
0.576674
0.58902
0.603279
0.610844
0.601425
0.617205
0.624463
0.595023
0.614632
0.651133
0.546438
0.554083
0.612057
0.544536
0.648653
0.552712
0.62436
0.649478
0.624628
0.652798
0.650871
0.625595
0.623367
0.622119
0.650477
0.623704
0.623705
0.652493
0.650477
0.625107
0.639568
0.613538
0.638141
0.620836
0.645237
0.646622
0.619794
0.637154
0.613904
0.63908
0.644285
0.618363
0.620103
0.64615
0.593896
0.594156
0.55346
0.554201
0.594613
0.553921
0.593292
0.553483
0.59189
0.593119
0.593119
0.553749
0.594011
0.553485
0.585886
0.545308
0.585008
0.591213
0.550954
0.551748
0.590465
0.583462
0.546106
0.58514
0.550131
0.588906
0.590405
0.551349
0.521907
0.564851
0.566043
0.576693
0.536415
0.577753
0.535135
0.515335
0.555127
0.561525
0.573645
0.523616
0.531342
0.567571
0.493439
0.531895
0.573866
0.601072
0.282716
0.543458
0.48567
0.592399
0.61029
0.624075
0.61699
0.602857
0.59483
0.588534
0.582238
0.535204
0.602887
0.597102
0.464512
0.53584
0.605475
0.501211
0.57723
0.627057
0.613625
0.604807
0.629014
0.615634
0.592661
0.590707
0.629459
0.60431
0.627979
0.614421
0.616003
0.593226
0.591961
0.575031
0.537073
0.576846
0.565508
0.521509
0.563584
0.523824
0.579479
0.581219
0.599085
0.578054
0.560092
0.576182
0.561957
0.52203
0.564813
0.576458
0.537299
0.577486
0.566018
0.523936
0.579899
0.560883
0.597735
0.581408
0.59937
0.578502
0.562275
0.579597
0.573278
0.606202
0.59219
0.585307
0.573135
0.561039
0.516964
0.561501
0.573482
0.52402
0.567511
0.555195
0.50671
0.57615
0.557165
0.593624
0.569614
0.586624
0.56775
0.549859
0.551242
0.500723
0.529457
0.469992
0.549182
0.503953
0.532247
0.550237
0.464771
0.530252
0.55164
0.46975
0.50398
0.532473
0.507161
0.559661
0.564747
0.577047
0.558275
0.535892
0.542678
0.544638
0.510369
0.558181
0.544787
0.447358
0.486771
0.526436
0.546353
0.450386
0.523923
0.538322
0.419484
0.509856
0.476318
0.422808
0.522699
0.36393
0.379384
0.480295
0.441579
0.491184
0.25774
0.199365
0.000655499
0.00466282
0.00831152
0.0170954
0.215991
0.359683
0.0199333
0.0295821
0.461478
0.337822
0.463182
0.00573737
0.00576132
0.218716
0.464073
0.437698
0.441606
0.317628
0.321612
0.284024
0.278526
0.459815
0.436338
0.440783
0.312347
0.319073
0.282123
0.274831
0.298438
0.452062
0.425245
0.436781
0.403011
0.273416
0.22707
0.329588
0.396756
0.402753
0.227647
0.149698
0.221067
0.155943
0.328698
0.148466
0.39573
0.336776
0.401901
0.226159
0.154842
0.408684
0.298144
0.362565
0.177791
0.233371
0.181244
0.125893
0.0280458
0.0979002
0.125672
0.0298658
0.131575
0.102722
0.0212049
0.0305677
0.13079
0.133949
0.104117
0.0206357
0.100711
0.021551
0.306006
0.130667
0.379129
0.263241
0.346136
0.165632
0.101419
0.0245256
0.0872116
0.114306
0.0194471
0.0964675
0.0707001
0.0130262
0.291264
0.131112
0.200663
0.0387152
0.121036
0.0676891
0.0759001
0.0119689
0.0665185
0.0385094
0.0698422
0.00612474
0.0127133
0.0405105
0.0705743
0.0121987
0.038845
0.00616714
0.0677206
0.0128576
0.0408368
0.0136927
0.0497821
0.0736061
0.051236
0.00480492
0.00866511
0.0323102
0.0100687
0.058157
0.0328595
0.0453095
0.00312409
0.00730309
0.0241183
0.00737368
0.0306493
0.00166039
0.00214372
0.0044389
0.0147949
0.0174454
0.0447395
0.0534216
0.00072976
0.0874343
0.159285
0.0264454
0.00186874
0.556801
0.405383
0.495338
0.154157
0.385185
0.140369
0.00754252
0.548543
0.533165
0.530505
0.518369
0.513893
0.491327
0.459183
0.014184
1.735e-06
0.106956
0.00207902
0.203938
0.0686904
0.00243389
0.531833
0.420382
0.48579
0.403181
0.476579
0.396476
0.301051
0.159496
0.0568053
0.00178568
0.00142735
2.21951e-05
0.0011811
7.53679e-09
0.262685
0.371595
0.481664
0.320473
0.449608
0.353017
0.206535
0.281378
0.481005
0.409629
0.324477
0.443749
0.354463
0.21787
0.00217202
0.0896582
0.0169264
0.0034338
0.00811987
0.000136455
1.43774e-07
0.000745106
0.0243712
0.00154458
0.0036851
0.00609885
5.32598e-08
1.17654e-08
0.00340551
0.0398467
0.150987
0.269472
0.000474355
0.0141294
1.54849e-05
0.00693008
0.297986
0.244363
0.388687
0.272396
0.0763984
0.179276
0.137673
0.271322
0.235459
0.373433
0.26955
0.0740847
0.172638
0.140378
0.319092
0.305413
0.420224
0.294222
0.193554
0.177934
0.103165
0.17254
0.271355
0.373506
0.140387
0.23555
0.140377
0.0740469
0.055096
0.287841
0.143494
0.22693
0.0352218
0.107759
0.101118
0.207197
0.110862
0.0683782
0.0777098
0.0479647
0.0287808
0.0187733
0.109066
0.0287664
0.0832139
0.0312884
0.0487986
0.0168055
0.00901677
0.0136261
0.00162738
5.53032e-07
3.51354e-08
0.00225056
1.81887e-09
3.22733e-12
0.0395728
0.106694
0.195273
0.0353158
0.0987418
0.0444729