/*--------------------------------*- C++ -*----------------------------------*\
  =========                 |
  \\      /  F ield         | OpenFOAM: The Open Source CFD Toolbox
   \\    /   O peration     | Website:  https://openfoam.org
    \\  /    A nd           | Version:  9
     \\/     M anipulation  |
\*---------------------------------------------------------------------------*/
FoamFile
{
    format      ascii;
    class       volScalarField;
    location    "0.00065";
    object      impulseMax;
}
// * * * * * * * * * * * * * * * * * * * * * * * * * * * * * * * * * * * * * //

dimensions      [1 -1 -1 0 0 0 0];

internalField   nonuniform List<scalar> 
6350
(
25.5449
26.6013
28.5751
0.0558149
0.0463004
33.3872
29.9904
0.00230349
0.00189367
0.00117392
9.4406
0.000410627
32.7872
0.000484991
16.2951
0.00213538
29.4972
1.52909
1.85336
28.4078
31.2732
2.08153
1.72886
29.4827
32.413
32.8412
2.26713
1.72634
2.20237
1.83883
33.6862
32.7522
33.4072
2.36371
2.3612
2.39343
2.28745
1.92707
1.91811
29.857
31.0057
31.4463
2.12552
2.07572
32.3787
29.4153
28.5244
2.26061
2.19829
1.72106
1.83136
30.0486
20.7298
25.5183
1.40083
1.89698
1.39841
0.971703
15.2762
23.5402
22.4543
1.11627
0.657344
0.592313
1.21688
15.0747
12.7614
19.4056
0.870771
0.29185
0.450343
0.580362
0.0747527
0.00228992
0.0746727
0.00225846
0.074949
0.0727985
0.00230652
0.00165637
0.00151573
0.0517465
0.0704894
0.00203948
0.0677716
0.00214418
0.0526974
0.00156901
0.00136609
0.00174368
0.0575313
0.0649671
0.00198311
0.00187696
0.0608547
0.0610008
0.0675158
0.00206687
0.0663473
0.00209326
0.00203392
0.0702955
0.067651
0.0515948
0.00164493
0.0556023
0.00150731
0.00167012
0.00034945
0.00104648
0.000160546
23.4679
28.1888
8.30739
12.9298
1.709
1.75457
28.5256
24.9844
24.3803
1.31562
1.38005
26.8308
1.22107
1.55234
18.9036
22.4272
1.13247
0.847382
19.4211
12.3567
18.7629
0.843081
0.473424
0.896054
0.441121
13.5739
10.7112
16.7401
0.699668
0.251916
0.358252
0.504973
203.631
63.291
78.2511
112.74
304.784
295.024
272.639
251.112
247.046
260.051
264.121
248.994
251.551
255.354
257.731
259.866
283.744
272.243
262.053
256.534
261.282
264.385
292.096
261.549
276.355
280.062
261.079
262.619
261.685
207.114
113.257
206.729
106.497
203.811
203.741
105.376
299.807
296.02
286.877
263.824
254.313
259.798
263.091
103.738
110.33
206.963
201.797
93.7267
101.512
196.249
182.108
94.7937
196.464
195.521
76.5478
93.2393
180.275
191.556
79.9491
71.4472
164.153
88.3809
174.451
183.437
0.00160213
0.053034
0.0548626
0.0398247
0.00124861
0.00116814
0.0421507
0.0411124
0.000760295
0.0276188
0.00168915
0.0572928
0.0410443
0.00117142
0.0362684
0.00140452
0.0473421
0.000679451
0.0336194
0.000965327
0.0244167
0.0321945
0.000424749
0.0181664
0.00100726
0.0161343
0.0355852
0.000898831
0.0130842
0.000317348
0.0244972
0.000744371
0.000684545
0.0263102
0.0120488
0.0157431
0.000180596
0.00737675
0.0245072
0.000304585
0.0119186
0.000665464
0.000366007
0.000245973
0.0199002
0.00645272
0.000543222
0.00954794
0.0138852
2.52256
0.00131547
0.0229772
12.4198
3.21442e-05
0.0265723
0.000207173
5.69219
18.361
0.805776
14.2534
9.27755
0.541826
0.438238
0.289921
0.153174
0.0755547
3.22037
9.81709
6.05423
0.315649
0.164706
6.73526
1.60617
4.7468
0.0578413
0.188195
0.120713
0.035178
287.074
52.8363
117.985
297.73
79.4725
258.315
115.16
283.753
97.5436
44.8817
842.852
15.761
246.184
0.00226759
42.1717
15.0867
96.8253
285.682
82.3363
21.0517
244.104
10.5413
213.923
371.814
279.584
390.629
211.562
645.667
28.3923
269.257
288.596
283.706
286.582
273.209
274.386
267.929
265.253
0.210786
0.219255
122.547
221.137
198.202
285.43
52.9296
269.909
262.888
286.161
283.539
286.569
274.134
267.755
294.819
299.331
294.178
263.981
247.691
259.848
253.333
246.84
295.984
292.413
299.228
293.926
263.883
253.464
0.109961
206.313
182.805
3.67427
189.55
0.00145368
29.1754
260.763
252.234
285.743
282.511
278.592
232.282
242.197
358.898
314.47
287.19
312.034
387.056
266.704
337.572
540.494
471.955
676.953
788.845
522.314
443.87
628.238
232.965
288.825
289.172
273.07
278.413
224.899
210.446
0.000667852
0.33638
9.03456e-05
0.237451
8.14649e-06
0.0539641
0.000105704
213.193
124.984
219.262
207.67
109.518
201.171
116.349
108.058
209.915
199.172
124.658
218.905
207.552
116.392
279.331
5.39373
0.00339731
149.569
563.425
8.36145
228.131
28.5752
0.00151727
0.0004559
5.18305
203.25
1.85766
170.346
284.179
252.681
289.539
259.339
228.37
185.411
178.025
289.459
253.958
259.297
221.814
228.16
185.203
178.738
270.221
233.143
261.813
203.023
172.248
212.905
163.58
297.659
344.601
372.421
194.257
235.755
306.38
265.733
196.167
98.0781
169.487
85.137
189.299
104.486
176.513
79.3713
188.32
169.159
196.261
85.4483
104.738
176.81
247.853
226.282
257.505
194.731
139.514
155.281
179.37
273.149
239.281
253.927
217.662
183.036
162.299
138.007
91.29
191.988
182.267
155.965
72.1643
164.191
68.1668
172.586
113.509
213.537
86.7079
184.538
250.092
142.785
721.587
455.291
493.76
406.703
498.387
361.574
567.809
6.33459
0.000100362
9.26677e-07
0.437406
142.751
0.000155757
8.62205
66.1213
171.719
152.962
146.375
47.6728
61.1556
128.601
513.112
255.601
355.079
340.509
316.487
224.142
469.899
137.209
57.763
144.35
97.52
23.2398
26.46
91.1446
128.305
199.589
205.687
122.048
48.3426
116.085
52.5585
121.126
128.292
205.709
122.196
47.5659
115.243
52.5658
137.435
57.542
144.02
97.2588
23.3962
91.4291
26.3727
225.947
146.837
187.096
110.176
150.874
105.412
67.1475
305.365
171.709
251.102
141.831
213.994
152.2
84.0174
192.853
145.962
138.406
120.586
114.514
61.7114
65.3235
19.435
12.7752
9.45045
0.872733
0.581045
0.450986
0.292268
121.525
45.4523
85.7239
19.4721
127.78
81.5293
42.6398
106.149
83.9852
158.879
37.2504
100.041
77.6626
23.6237
408.19
475.852
350.954
422.228
307.967
244.539
339.01
184.683
115.491
130.639
91.822
107.211
56.2433
43.9982
3.28023
0.00182288
0.0302243
14.833
22.4967
0.0357133
0.0765183
0.000176811
21.3886
1.03803
22.9705
16.0149
1.17255
0.64248
0.571161
23.5968
15.2943
16.324
1.11956
1.22162
0.658969
0.593207
113.263
27.522
16.5589
60.8269
74.9502
37.6527
96.9857
300.526
268.116
352.712
139.07
252.383
184.718
415.753
56.8718
102.291
146.706
211.723
68.8305
165.2
107.052
121.722
27.753
98.4497
16.5358
77.176
56.9072
8.68599
0.162447
10.4327
6.09631
3.15727
0.0720155
6.09967
0.162576
8.32261
3.63236
9.04783
0.277988
0.0783937
0.248328
0.0884414
3.22536
0.249824
8.40917
3.63923
9.15218
0.281439
0.088451
198.552
381.204
280.865
172.109
157.331
97.1344
249.255
26.0406
81.5778
76.8198
19.727
2.48913
2.1244
21.5213
97.8192
87.3082
64.5607
48.1208
30.4941
24.6156
6.91093
107.719
105.233
181.933
88.2125
6.02371
34.3726
33.8205
44.4005
4.12994
0.277212
6.86032
5.16133
39.8661
8.3909
44.3028
0.277893
7.07397
4.22072
40.2633
5.15273
8.40062
13.35
37.6375
69.0439
33.6803
0.47669
13.2631
2.82477
56.8489
86.5489
126.341
50.5882
2.59894
24.017
10.6307
2.3849
0.184667
6.70113
1.44161
4.59592
0.114133
0.0310165
281.792
90.1221
196.481
134.613
86.6556
44.0911
205.046
56.866
33.5517
113.022
61.7711
1.01043
9.56178
20.2904
43.947
4.75261
41.4874
11.8479
0.490931
12.8808
0.439037
22.7706
57.9836
70.7847
16.957
0.794649
1.63578
10.9672
3.73701
26.7712
36.9348
9.83363
0.152886
0.330587
5.69771
554.658
394.037
138.575
388.265
879.804
393.315
299.159
388.663
314.471
309.325
388.482
377.427
301.695
376.582
302.854
370.513
310.757
297.71
308.76
387.496
376.291
302.243
877.663
895.439
555.219
500.328
711.446
495.248
727.494
550.038
489.851
710.698
897.987
554.525
499.24
728.464
311.383
237.798
201.422
145.168
306.231
207.499
243.619
193.898
133.363
232.535
309.712
144.053
205.645
242.521
406.749
547.046
284.95
398.957
399.761
291.997
560.431
543.311
277.759
382.517
405.198
397.888
290.168
560.031
1.25822
0.00629899
0.30995
0.823704
2.82537
0.0647297
0.017349
2.32569
4.10074
30.3277
18.1182
0.0378703
0.840826
1.59739
0.00474516
1.08273
0.0223825
0.685181
2.62025
0.0582303
0.0142475
45.233
0.934756
13.603
0.296056
6.11652
0.561185
0.0223308
0.000853528
0.000415979
0.0156801
0.0344191
0.000981047
0.000477099
0.0178089
0.0010145
0.000486366
0.000903181
0.00042505
0.0322845
0.0161571
0.0182062
0.000632744
0.000303545
0.0117449
0.000395017
0.000185149
0.014926
0.00745619
0.000305435
0.0245616
0.0119365
0.00018093
0.000411217
0.0157626
0.00738871
72.7059
55.0529
1.08895
33.3128
23.8117
12.107
126.326
36.0249
0.935096
12.6033
0.189765
3.82756
0.492098
0.0216853
12.4494
0.0527512
2.43628
0.0346761
1.60211
0.189601
0.00405362
7.30666
0.00901586
0.0326444
0.0639028
1.51133
0.202931
0.389383
21.5424
0.165432
0.053832
0.0670816
2.95206
1.03318
3.02247
1.1323
0.0639486
0.00135517
0.0304335
0.0552841
1.30508
0.0270749
8.90578e-05
9.53808e-05
3.98788e-05
0.00370092
0.00170085
0.00823823
0.00398414
0.000213169
0.00862907
3.62942e-05
9.02532e-05
0.00384415
0.00158196
0.00384788
0.857814
0.0192219
0.00102018
0.00925862
0.0417042
0.0203928
0.401977
0.000153555
0.00626979
4.58632e-05
0.000175649
5.24075e-05
0.00710226
0.00207535
0.000152365
5.22712e-05
4.44984e-05
0.00177115
0.00626529
0.00717417
0.00207242
0.000110296
0.00461889
3.24122e-05
6.60791e-05
1.92584e-05
0.00283591
0.000775394
2.99752e-05
0.00121748
0.00447468
1.68995e-05
6.05218e-05
0.00263236
0.000675805
0.0581159
0.052165
1.36005
0.0310701
6.03194e-05
0.0013711
0.00126335
0.00351932
0.00685665
0.163498
0.012242
1.24484e-05
0.000267093
0.000519908
1763.19
3687.94
4145.12
1642.25
554.093
1524.58
338.282
1521.92
404.056
585.778
492.041
469.311
338.012
366.871
404.072
359.396
672.58
939.232
1737.12
1656.75
816.102
702.843
1653.11
692.876
1517.95
1395.57
797.423
1144.2
800.066
810.167
679.644
1336.53
1520.76
784.317
1110.67
796.396
813.607
600.893
548.578
944.858
464.903
739.435
590.764
459.436
403.739
492.118
561.15
380.816
528.66
389.014
511.668
558.546
558.085
945.01
460.437
758.943
590.704
458.972
545.419
823.659
469.845
428.79
704.009
580.393
426.406
400.444
490.782
566.763
377.837
509.115
528.874
384.882
1535.94
3075.51
3125.33
2114.91
2576.4
1761.52
1656.04
1514.29
2805.53
3038.06
1919.63
1868.8
2732.16
1803.73
1231.94
2286.45
1409.33
1042.67
1845.99
1322.26
915.957
1219.87
2034.08
1344.8
984.048
1843.8
928.099
1311.81
1057.58
1155.43
756.751
756.544
1154.23
723.166
1147.96
1215.63
2045.95
1286.46
950.637
896.056
1757.73
1254.83
1262.23
2352.69
1408.34
1048.09
1321.42
1846.01
914.925
1120.15
1245.87
766.383
778.248
1112.54
715.588
1072.25
623.57
617.998
1691.82
1607.25
697.706
1638.14
576.195
420.083
489.456
449.616
399.099
575.87
416.611
437.62
438.376
385.763
360.222
357.248
374.046
438.28
396.748
439.031
382.838
352.66
355.869
436.822
369.285
393.121
526.676
580.273
1582.15
1530.35
588.715
528.088
1587.76
358.021
382.855
443.932
388.146
457.192
378.667
387.704
563.477
1568.78
535.494
1536.38
532.287
1588.04
548.464
365.999
422.454
381.702
367.328
375.959
388.482
396.401
291.617
325.245
315.818
1440.8
1333.64
1501.63
326.823
446.559
1596.35
356.219
292.57
315.228
327.683
365.485
369.243
437.469
361.436
362.336
387.973
444.209
340.559
378.887
398.443
356.55
439.46
370.071
352.602
382.243
337.788
393.19
539.249
1548.77
1573.11
571.05
1533.52
539.848
551.204
425.185
377.667
392.446
367.96
383.148
368.142
397.263
315.612
324.816
343.08
297.808
335.871
313.384
342.145
354.65
318.837
354.021
350.547
327.559
353.787
370.12
306.869
314.291
329.798
328.046
299.211
313.186
313.045
341.797
321.299
341.784
348.949
327.564
334.636
362.041
336.977
350.884
345.929
346.852
344.191
331.749
354.867
526.174
539.394
1426.13
1497.95
547.36
1486.12
525.477
547.403
1465.77
546.058
1542.05
560.994
1506.34
543.429
360.397
363.068
360.149
373.87
365.8
353.236
376.508
372.178
348.786
305.263
314.705
350.943
312.942
359.51
326.405
328.493
307.049
317.142
319.724
314.647
329.748
567.755
513.751
384.638
399.937
294.002
318.616
338.582
299.497
545.484
497.597
486.404
407.163
373.343
406.127
385.678
573.929
498.332
545.538
406.683
381.969
408.638
388.429
1390.61
317.009
358.111
377.902
441.012
395.687
464.908
390.228
363.091
395.543
364.709
450.342
382.841
468.496
389.942
365.123
304.088
288.156
301.008
317.323
330.36
337.434
328.637
328.194
284.997
313.698
291.739
304.495
338.267
325.761
300.8
1042.89
288.878
276.604
518.134
559.948
335.216
285.768
310.441
275.235
278.756
314.957
278.01
313.261
327.135
318.266
328.692
343.2
342.442
344.549
342.003
325.508
316.069
339.558
319.285
327.024
345.28
341.237
272.405
276.907
289.007
282.685
268.834
280.683
271.789
264.104
269.406
302.579
309.092
263.715
309.534
266.713
273.461
309.685
309.809
313.477
270.164
271.464
316.002
288.729
275.454
287.318
282.451
271.587
272.925
282.218
1598.27
1582.39
480.938
546.257
1442.26
286.739
273.841
1447.95
522.094
548.623
481.105
396.721
358.565
378.299
388.175
503.186
518.759
566.578
416.255
384.411
405.47
397.213
610.722
1600.5
594.278
545.258
1546.63
1541.21
540.542
579.187
1578.07
591.443
529.2
1537.98
525.469
1529.86
350.171
317.195
316.842
292.045
326.357
319.919
342.227
335.458
299.694
282.019
305.116
326.982
313.34
309.297
512.764
1494.71
509.449
1439.15
504.806
1489.39
514.145
500.668
1494.37
1440.32
499.802
501.537
496.657
1485.43
1387.02
511.187
507.526
526.856
1307.69
531.41
1311.48
302.714
304.982
317.965
297.879
312.352
296.418
313.123
1380.99
1382.67
512.288
536.463
1296.82
529.112
1305.28
319.562
304.698
298.625
304.441
317.874
297.616
313.046
600.977
557.997
1392.66
1412.52
572.916
579.954
1459.22
343.028
347.536
350.878
359.776
337.843
357.858
347.9
327.552
271.528
363.897
286.335
330.548
271.95
359.143
368.65
292.703
276.249
329.855
287.669
274.634
360.375
281.649
270.302
283.561
275.339
280.741
271.923
283.273
282.365
273.063
285.437
281.429
275.627
272.522
283.14
1181.42
572.135
1037.46
552.541
1054.75
568.349
1195.52
295.318
310.455
295.357
310.611
294.523
310.83
295.34
313.221
297.046
298.085
295.314
310.875
310.936
295.537
551.638
1190.12
567.993
1058.93
555.456
567.543
1200.97
321.176
1382.59
264.06
322.03
94.9466
1317.14
344.815
323.612
1007.27
299.724
794.44
317.932
300.453
340.672
290.302
312.022
280.328
288.594
272.285
308.98
276.624
267.832
269.118
320.31
338.751
280.341
296.527
281.757
275.566
272.961
285.973
280.17
293.272
128.175
287.945
304.919
276.533
64.7689
297.646
35.4576
1359.79
544.435
524.349
1289.21
544.435
563.24
1250.83
327.923
307.636
313.196
316.924
301.301
307.645
322.539
118.524
764.298
406.924
1144.41
404.407
704.578
293.088
66.6409
291.575
91.5995
312.174
345.681
266.06
238.325
312.068
303.804
290.475
303.364
290.162
301.81
311.387
372.309
307.437
289.406
365.348
323.626
397.377
298.468
274.505
288.191
285.653
287.942
281.566
292.323
293.263
279.177
376.075
343.665
365.205
313.825
390.239
293.547
569.426
1245.76
593.582
583.658
1103.97
596.834
1189.8
325.932
334.395
319.42
314.724
335.031
322.27
329.386
314.265
299.067
298.655
304.11
308.999
301.061
319.155
1161.03
568.898
564.796
575.561
951.363
565.637
1109.78
297.062
301.301
267.301
305.847
265.755
264.289
257.236
391.315
334.935
323.794
395.904
411.87
400.456
316.12
305.376
293.804
293.516
301.244
281.266
306.558
293.386
331.462
353.796
346.215
429.832
423.061
427.564
347.044
320.457
324.474
317.026
325.838
318.5
309.181
316.432
310.952
314.17
296.5
278.73
310.925
296.323
322.106
331.918
337.464
331.733
329.066
324.12
307.742
304.258
582.126
948.624
878.453
528.708
576.901
553.67
1037.86
305.81
296.475
305.81
243.915
258.742
243.934
223.828
608.048
1022.3
998.086
603.935
594.506
570.954
881.992
306.909
287.395
304.241
224.017
250.469
238.384
208.393
197.748
84.1616
187.699
77.7919
181.389
168.611
67.2225
404.283
352.105
431.998
404.291
273.396
358.3
321.213
334.401
372.487
414.262
393.066
252.311
333.945
310.611
278.801
320.891
313.258
278.88
242.97
229.972
291.663
304.209
254.358
297.231
270.103
224.755
282.278
213.219
99.2283
294.74
250.056
14.3393
112.888
0.00340899
145.665
0.681053
310.507
255.328
346.982
304.177
330.783
881.703
1272.37
378.009
1188.62
365.577
1471.31
329.968
316.212
307.1
347.631
329.214
289.651
299.146
346.613
340.615
292.576
295.692
287.496
333.115
353.179
298.505
300.399
313.408
314.027
292.636
306.959
312.401
299.358
314.887
200.325
309.077
360.791
311.933
340.123
353.887
1434.1
537.76
558.758
1408.55
552.253
577.611
1356.72
344.618
332.494
332.524
339.471
325.053
329.184
344.159
610.259
1036.84
391.469
567.153
265.32
151.828
244.175
282.015
321.941
293.056
171.765
155.063
115.376
138.13
314.026
356.763
302.486
378.111
334.415
313.937
407.241
298.258
289.14
344.958
372.584
323.499
397.648
307.228
318.506
303.163
316.114
318.357
315.397
306.885
323.677
301.435
290.027
303.435
311.688
302.821
310.995
299.942
349.871
349.678
347.544
356.148
353.109
350.823
357.688
600.167
1369.44
580.418
600.28
1157.15
612.127
1272.14
583.801
1315.93
569.532
593.828
1103.12
597.012
1244.99
332.765
347.77
333.017
332.666
349.055
347.572
335.244
314.454
334.234
319.164
325.673
334.86
321.984
340.524
335.448
348.422
292.633
1514.83
1581.84
333.456
319.238
1447.54
1409.6
333.184
310.356
357.794
374.433
341.817
301.291
299.701
344.269
410.598
425.257
343.752
359.079
381.076
359.778
315.41
419.436
343.111
412.294
335.689
360.909
370.237
321.244
317.765
311.551
322.446
339.062
330.362
353.154
352.919
558.105
522.727
1567.64
1540.87
538.195
523.848
1532.95
356.463
364.53
402.765
350.709
363.368
373.267
352.404
334.918
304.125
297.964
335.855
324.781
351.642
304.528
310.079
280.393
275.423
294.235
325.221
325.102
292.134
303.747
323.784
317.17
323.711
329.315
341.525
309.986
303.608
321.993
287.748
285.022
304.938
315.573
299.615
1484.4
528.434
541.572
528.63
1546.03
528.136
1515.27
1436.39
529.376
511.891
521.252
1497.43
509.604
1490.84
330.167
334.73
319.336
321.977
337.819
334.401
342.93
346.614
343.356
348.058
331.433
346.901
329.657
338.079
349.809
341.946
336.25
342.001
356.012
355.003
349.89
353.07
298.722
287.824
340.659
295.838
330.209
292.829
312.664
307.24
292.849
300.45
314.116
313.491
298.853
304.732
304.066
316.376
308.937
317.83
328.179
318.926
552.235
1357.29
577.472
1434.45
558.776
537.919
1472.15
329.358
339.607
325.26
346.679
332.596
332.617
344.739
335.102
341.378
344.696
336.052
333.904
341.915
343.314
346.284
350.404
349.575
339.691
350.46
346.326
352.523
329.788
338.583
328.62
338.587
335.572
347.096
329.763
322.373
334.734
327.895
336.53
331.601
341.901
330.121
347.611
353.908
349.745
349.898
357.677
356.153
350.827
404.634
427.609
353.781
346.146
423.217
331.393
429.914
320.178
308.98
324.317
316.614
318.172
311.797
325.702
300.914
304.92
306.203
293.426
293.114
280.972
288.213
315.976
334.79
412.01
323.608
400.447
395.817
317.701
331.723
307.595
337.422
328.935
323.89
345.581
331.646
353.396
345.813
334.863
326.465
349.189
349.158
311.557
358.096
356.101
357.705
354.799
357.682
358.103
342
344.243
339.058
351.219
338.213
349.838
350.851
324.953
608.23
570.975
1022.12
997.543
594.622
604.006
1143.98
582.203
947.861
576.96
877.571
553.584
528.597
793.799
310.691
314.002
310.649
296.37
296.11
278.502
272.138
330.774
353.39
349.142
345.803
326.44
349.157
334.835
393.008
334.259
414.265
372.336
252.098
292.882
333.766
269.883
303.847
296.922
254.083
224.435
265.699
212.978
286.749
251.405
308.031
335.93
286.751
352.488
335.938
308.645
272.772
312.054
272.83
208.662
221.068
264.094
246.177
294.748
270.401
157.977
195.741
220.376
186.752
527.849
892.622
576.37
527.866
647.914
469.073
764.421
848.867
490.851
554.562
515.416
610.612
441.729
744.634
291.423
248.347
295.756
264.282
192.099
205.069
255.437
276.524
246.161
270.394
195.719
220.342
186.71
157.928
262.241
291.008
331.853
299.615
322.748
350.625
337.755
288.73
229.702
260.299
278.035
301.186
340.136
327.176
306.018
193.85
235.372
297.388
372.226
344.352
268.948
163.262
212.466
202.755
269.847
261.569
232.872
243.712
39.8801
150.805
54.4844
172.003
70.4254
150.833
54.4996
191.978
204.88
264.11
291.279
238.176
295.522
248.125
441.595
744.297
515.362
848.348
554.555
490.732
704.126
139.407
213.796
194.567
179.317
247.766
257.333
226.073
57.4349
123.912
156.855
142.462
27.6154
108.872
47.9579
497.825
361.197
406.323
720.866
493.498
455.051
645.108
352.073
202.239
200.187
191.855
289.332
276.423
267.818
225.804
85.9109
171.112
162.685
161.454
238.245
153.884
213.732
169.384
213.718
77.1511
120.845
163.14
120.816
23.6807
123.467
36.6081
18.4566
89.1202
64.7246
9.32836
181.254
203.41
233.258
87.596
141.597
109.787
58.0874
266.806
133.906
209.945
256.283
188.217
245.8
303.001
250.773
83.6769
171.37
213.565
141.408
305.074
227.803
61.4629
64.999
145.578
120.126
114.187
192.557
202.826
99.2548
9.34281
23.6932
123.507
18.4746
89.1672
36.6278
462.309
303.501
530.933
512.648
395.296
380.402
638.919
217.223
138.447
79.5056
131.092
152.77
145.607
204.638
338.564
475.465
350.708
421.732
307.599
407.955
562.987
130.448
43.9182
56.0865
106.995
91.7072
170.205
184.458
55.288
101.948
163.403
7.79049
34.9795
72.235
28.5642
37.679
69.5352
0.436808
2.84038
11.0464
37.6565
2.83638
5.40174
18.5685
50.9859
30.5235
0.176036
7.64483
1.78475
207.169
113.576
264.92
261.101
121.456
242.885
115.722
239.024
240.352
237.917
240.416
245.788
245.721
247.312
244.608
242.829
236.358
239.317
244.659
244.183
243.438
246.502
261.824
251.451
248.756
251.252
260.295
253.105
258.294
265.023
251.77
247.891
250.172
259.187
257.187
252.327
210.592
121.816
210.547
120.545
210.956
121.492
210.088
208.406
115.929
117.671
206.969
118.169
208.403
207.609
109.862
115.145
208.884
209.785
113.048
117.958
208.576
211.922
115.179
210.001
120.143
212.064
120.79
210.404
360.137
333.957
288.446
242.236
319.211
343.735
322.486
301.254
300.395
343.829
271.876
343.36
281.426
348.733
293.909
316.03
313.953
354.993
361.244
297.635
357.238
328.236
339.495
319.138
336.516
314.535
342.316
345.65
310.071
274.42
247.353
247.613
259.357
254.921
268.679
264.21
275.33
287.019
258.945
289.281
268.974
274.469
303.748
332.518
356.746
349.062
325.845
360.011
354.468
337.724
299.736
320.075
261.406
231.664
300.12
265.086
328.468
237.459
257.25
332.255
255.42
298.314
323.93
238.354
266.001
265.613
325.759
258.919
258.916
300.531
325.844
239.813
353.451
304.501
354.933
275.449
346.714
340.319
283.386
345.705
298.556
349.961
339.569
280.465
275.841
338.047
235.052
233.952
237.168
226.311
223.672
232.395
241.752
233.635
242.134
236.354
236.477
227.849
224.916
233.743
272.256
265.879
277.083
249.852
248.648
243.717
256.365
275.071
261.958
272.269
248.003
255.007
250.838
244.714
297.792
309.947
306.351
294.141
279.265
289.584
283.36
308.68
330.589
318.683
304.78
304.825
292.203
318.699
324.327
293.743
339.645
329.361
318.704
362.794
331.036
361.848
353.282
358.715
361.703
358.746
339.224
336.392
345.917
284.375
314.99
333.453
327.28
285.392
316.825
318.101
331.146
344.781
339.198
314.926
348.738
341.422
322.947
322.783
352.345
319.809
352.533
345.319
343.712
324.545
327.471
294.998
281.775
293.067
309.284
302.041
310.507
299.986
329.302
329.687
334.493
327.059
330.352
327.38
330.01
303.285
313.179
297.418
281.631
293.663
309.954
300.044
332.802
333.602
338.042
330.153
335.719
328.006
330.525
364.065
353.344
362.655
362.555
347.382
354.239
360.183
310.489
321.695
307.278
305.565
319.843
332.377
320.539
341.256
341.226
347.021
349.574
354.707
349.054
349.713
320.469
316.538
329.38
326.265
321.563
314.819
328.545
324.248
329.075
332.165
321.02
326.355
314.921
328.92
364.876
357.099
364.019
360.349
357.505
357.835
363.677
342.227
318.723
332.106
342.957
338.493
331.614
351.616
331.682
332.807
338.553
340.812
335.028
346.376
332.478
356.103
350.286
331.551
335.827
354.381
338.082
358.514
263.95
251.253
11.2218
36.379
52.7673
76.7894
281.554
306.219
83.7017
101.795
281.161
304.096
277.798
41.3704
41.0717
257.249
278.255
296.528
294.347
266.361
265.263
267.521
266.973
281.275
296.803
293.997
265.387
264.368
266.87
266.485
266.01
287.83
301.556
296.616
306.41
264.453
257.423
302.267
306.177
305.525
259.612
233.754
257.034
238.082
303.444
234.583
306.784
304.019
305.29
259.222
237.95
304.68
299.177
307.285
243.311
257.754
244.989
225.8
99.4019
187.994
201.04
102.774
203.338
191.147
86.8803
104.185
203.1
204.694
192.055
84.9545
189.133
87.7301
299.622
225.979
307.906
290.857
306.158
240.204
211.882
92.4781
180.584
195.531
81.9089
185.566
168.378
66.6724
298.156
253.361
275.596
165.619
223.494
192.084
200.459
63.8008
166.038
134.639
169.699
43.4295
66.4606
138.262
170.222
64.1299
133.995
43.5199
166.25
66.8697
138.437
68.4251
149.17
170.168
151.252
40.2375
54.2885
129.483
57.6109
157.436
125.71
144.025
29.1379
48.6718
112.032
70.574
126.251
20.4583
25.5071
37.9535
93.7586
103.302
276.234
204.575
22.9811
245.81
278.029
163.444
25.1185
331.382
333.054
351.269
253.485
314.619
255.107
90.7583
337.544
337.031
328.614
342.926
334.113
337.558
340.525
139.465
0.0868202
266.93
43.6896
309.077
217.593
49.7694
344.308
350.847
349.839
339.136
340.21
338.235
324.972
255.44
203.436
30.5637
15.4806
0.365489
26.5693
0.000653421
297.14
324.011
339.373
316.311
342.351
326.636
282.433
296.374
327.512
328.972
304.275
328.857
321.923
279.895
50.9927
512.369
293.88
87.9425
171.792
15.5296
0.00992874
18.4812
153.709
32.4463
57.9155
76.6294
0.00359547
0.00108353
65.8519
198.812
266.445
305.808
10.6648
110.157
0.559962
87.2435
327.167
301.173
340.131
311.926
229.707
288.728
260.278
305.903
283.997
323.208
305.826
222.156
280.914
255.032
337.753
331.868
350.66
322.805
299.632
291.043
262.256
280.895
305.822
323.125
255.042
283.953
255.054
222.142
184.125
304.461
250.362
289.47
160.846
233.021
230.548
270.782
227.387
184.399
208.077
166.316
132.022
112.76
351.996
191.639
267.718
202.169
289.271
200.03
118.377
134.973
35.9898
0.0310005
0.00303722
46.2156
0.000240046
5.19695e-06
200.344
266.806
302.998
188.254
256.29
209.967
133.948
9.08117
0.000271139
0.0462926
0.00238451
2.50506e-06
7.90031
9.2843e-05
208.756
245.631
295.671
183.773
245.65
208.768
139.385
277.09
178.028
247.104
166.017
236.438
198.85
121.103
225.672
162.44
238.071
171.027
161.396
85.8156
91.4581
236.38
165.946
247.075
277.021
217.516
121.052
177.985
235.395
164.515
202.301
129.43
204.095
165.25
90.7502
131.016
145.482
217.12
138.423
152.73
79.4446
66.6069
266.416
164.536
129.368
165.251
235.393
204.034
202.263
233.26
109.849
145.714
181.255
141.639
87.6215
58.1379
380.256
638.725
462.256
530.845
395.254
303.363
406.728
189.505
150.92
225.95
105.517
187.166
146.841
67.1686
307.355
201.048
320.199
327.218
326.35
309.525
266.14
317.932
329.212
335.156
326.725
332.303
324.859
333.555
336.246
326.583
332.236
332.07
324.25
324.746
333.408
333.44
0.0485474
328.251
309.7
327.676
337.697
334.652
335.575
336.601
326.837
320.042
324.172
332.149
306.952
333.019
309.635
327.56
334.247
305.371
326.349
335.146
334.418
335.453
305.063
323.877
330.453
319.94
323.99
332.045
309.583
19.8919
112.608
281.551
110.798
284.235
19.3655
0.594304
284.344
241.524
197.772
245.821
201.844
151.151
146.738
279.934
245.575
239.567
196.248
201.735
150.885
144.799
264.654
206.797
269.093
316.858
267.905
314.612
272.572
199.173
206.656
268.89
312.548
262.682
316.74
272.486
183.536
117.621
188.675
91.0813
33.7538
87.095
36.5654
117.416
188.388
181.437
90.8031
32.6453
85.2767
36.3665
73.5421
96.8739
167.113
76.5018
145.313
56.7588
15.5412
94.9656
21.253
98.3065
54.94
5.46316
52.203
6.08532
5.1704
50.9277
93.7502
21.1682
98.2004
54.7182
6.01195
3.57152
42.7107
83.8479
10.463
69.3762
31.3079
1.86118
112.915
34.9993
72.2848
102.007
55.327
28.6034
7.80346
215.003
74.5078
147.191
147.207
25.3667
79.6439
74.5274
110.668
103.046
179.529
135.003
17.1598
68.4897
61.6318
117.386
116.475
193.143
137.096
16.6114
63.7424
65.8947
137.053
193.116
117.334
63.7001
16.5889
116.433
49.7348
24.5825
64.5149
142.679
6.89978
48.0816
97.7811
30.4779
179.493
103.001
61.5981
110.653
68.4782
43.6709
17.1492
123.05
117.827
206.303
117.756
9.79096
46.8986
50.94
212.011
415.077
311.193
211.933
182.145
118.133
293.785
181.653
33.6271
104.964
107.531
5.97508
34.2319
44.7388
248.86
380.853
280.604
198.342
157.05
96.9114
279.068
29.4324
94.9511
88.9198
29.4056
3.97064
32.4045
3.33751
19.6155
21.3653
81.3143
25.9609
2.46469
28.4571
2.10882
56.9207
50.6814
126.435
86.5623
2.6012
24.0337
29.1817
1.79004
5.41002
51.0209
18.5807
0.176567
7.66085
0.682072
80.7699
51.7763
116.185
36.9588
1.6914
17.655
6.8281
69.4017
25.8596
82.322
25.8438
1.34676
2.61446
18.4741
70.6622
10.9397
16.8921
22.7239
0.792594
1.62817
15.7398
0.0580075
2.7701
2.36253
19.3191
0.640384
17.6782
0.746674
0.044912
0.0569987
2.72737
2.19668
16.9231
19.1454
0.733383
75.6974
20.9577
1.96667
2.78835
25.2672
2.25392
0.0866988
0.0259176
1.29865
12.4581
7.17184
0.0108149
0.546833
0.168378
7.94558
1.28352
18.8427
0.329799
7.94285
1.28288
0.0380555
0.763359
59.4909
17.8812
1.94337
17.892
0.764219
0.0405188
43.5109
0.890064
13.9911
0.221531
4.68896
0.5067
0.0191362
75.7248
2.79024
2.25642
1.97041
25.2751
20.9777
22.9988
0.0222791
13.5846
0.932469
45.2092
0.295615
6.1113
8.61214
3.81962
0.491079
12.5879
0.189442
6.32703
0.93375
0.02165
0.0462278
2.50812
0.18433
12.3837
0.0299394
1.64128
0.347016
112.715
81.1867
72.1634
4.20079
34.558
40.8187
176.12
2.51133
0.347934
12.4044
0.0300362
1.64627
0.184748
0.0034166
2.83737
0.0123621
0.00319474
0.0331727
0.660491
0.164264
0.0551525
43.5262
0.412473
0.301847
0.207058
5.47064
7.25478
8.69205
2.99104
0.131605
0.103182
0.00311138
3.53402
0.0874917
0.110059
2.32974
0.0395535
0.0310947
0.00235225
0.0662872
0.0834343
1.18311
0.00126001
1.35729
0.0520473
0.0580225
5.96295e-05
0.00136784
0.00226267
0.102723
0.0795037
2.64805
0.0794555
9.94969e-05
0.00234481
0.00303453
0.00914362
0.0071521
0.287093
0.0330192
2.79061e-05
0.000808401
0.00102842
0.0756584
0.0528154
1.60983
0.0336212
6.14202e-05
0.0016677
0.00119648
1.2687e-05
8.9697e-06
3.78512e-06
0.000560043
0.000126127
0.0014406
0.000365657
0.0043796
0.00206852
0.094437
0.0107939
1.28855e-05
0.000496418
0.000239386
0.00415549
0.226253
0.0141707
0.0141854
1.93438e-05
0.000801837
0.000271333
3.76912e-06
2.85952e-05
1.1242e-05
9.43601e-05
0.000463303
0.00126787
0.000296698
0.00186285
0.00441989
0.0991693
0.00966181
1.4011e-05
0.000400236
0.000190668
0.000693819
2.31424e-06
1.63952e-06
1.57713e-06
3.21416e-05
1.59746e-05
3.02801e-05
0.00202587
7.23586e-06
7.78318e-06
6.81187e-06
5.42793e-05