/*--------------------------------*- C++ -*----------------------------------*\
  =========                 |
  \\      /  F ield         | OpenFOAM: The Open Source CFD Toolbox
   \\    /   O peration     | Website:  https://openfoam.org
    \\  /    A nd           | Version:  9
     \\/     M anipulation  |
\*---------------------------------------------------------------------------*/
FoamFile
{
    format      ascii;
    class       volScalarField;
    location    "0.00115";
    object      overpressure;
}
// * * * * * * * * * * * * * * * * * * * * * * * * * * * * * * * * * * * * * //

dimensions      [1 -1 -2 0 0 0 0];

internalField   nonuniform List<scalar> 
9457
(
349262
476027
524147
564019
673161
734105
403645
581011
648346
1.52622
0.0414949
70943.2
58.4513
344407
517861
325618
507791
616213
659905
899432
936719
544559
453257
418720
1.07985e+06
1.09008e+06
583240
519723
561391
370312
531813
692845
856917
973793
1.10444e+06
587219
657184
526273
1.10039e+06
1.02712e+06
461530
112923
478979
419960
500011
479749
406432
121104
53341.4
379623
328327
382874
479219
409984
476057
412893
405707
335649
391489
487882
437106
501422
421365
500530
616766
529058
343675
48595.8
25040
727.536
507573
449526
450451
532914
598039
531885
598458
545416
510586
512233
675635
677916
680974
670191
466002
422592
468390
639632
580633
633750
585629
550591
535832
519249
692335
713762
691806
724661
510159
461522
453983
538128
615761
548401
603802
426782
398444
455697
460436
521328
548756
490652
604203
937622
1.03008e+06
723226
1.1058e+06
594643
968250
494507
432549
476275
656240
620505
687444
598475
421945
408262
427802
554599
558256
555744
558138
475243
496621
553042
634726
564533
587369
662530
434092
531293
490793
583466
575538
624942
528849
573584
502396
621370
675697
680278
569784
505947
564988
622796
612457
748841
775446
847856
801551
487015
578838
537797
649505
733206
788049
681311
441710
465789
441925
583392
567645
565168
576721
919245
917868
163864
1.16134e+06
29574.4
105.299
436077
583234
536416
636047
710973
691949
598124
517141
623867
720041
732877
900824
735273
622316
721023
525473
582900
622773
617486
756959
656154
702164
563944
738682
619873
649206
735115
775706
599414
577266
581019
628199
629348
672384
727129
693320
684743
789361
743611
934671
965082
874383
1.01867e+06
409439
10458.9
34.083
258308
153.235
0.420397
6815.73
647836
2402.22
5403.3
623837
4.37889
1.63556
27831.7
630529
746788
762296
912305
744733
642981
729165
919383
884260
1.07741e+06
1.01713e+06
887818
1.01107e+06
916197
476473
525142
542053
603391
620660
588521
591041
932824
930296
1.08072e+06
991667
902034
1.0035e+06
958978
816139
680726
786058
574534
778325
815226
679099
686830
694176
789273
887365
824673
733786
642472
606610
679554
759975
846361
691223
883124
703387
568806
485320
572732
604015
588447
588347
598652
631704
613161
584165
580240
620516
566470
501101
822035
676251
733113
555134
762310
833051
678205
775195
789742
662216
689541
1.02024e+06
829868
817478
583471
600391
523409
590545
569365
592248
588714
1265.03
364398
599768
0.798927
0.0604881
13351.2
414.973
675362
743837
654623
832422
704672
765792
935225
971902
966914
992842
1.02402e+06
1.10163e+06
1.02386e+06
917436
666407
682802
842224
837789
372302
600871
635674
609675
469797
606672
392767
570095
564876
380467
592394
446867
602093
554756
305502
352669
535589
646443
748179
683913
796349
870532
895656
771664
726728
957277
954775
1.06811e+06
885411
776317
877879
553463
621849
586568
532760
586111
558688
470608
759894
959926
791631
869512
1.01669e+06
1.02992e+06
842896
838606
957061
1.04395e+06
1.06e+06
1.06852e+06
1.13031e+06
1.05057e+06
865806
727500
930718
625035
862951
767939
492481
1.03436e+06
1.11658e+06
1.08285e+06
698227
1.07675e+06
832723
1.0036e+06
569741
251183
525414
233475
500333
440593
143036
836794
791151
714549
851840
1.13665e+06
972053
1.05402e+06
595040
599292
490815
511884
385699
339162
211292
799644
467628
296234
246553
472420
714996
572669
598031
596976
610305
500174
232836
400674
373865
1.04466e+06
1.02701e+06
845643
939694
1.03854e+06
1.07572e+06
1.11221e+06
642952
556253
458373
546543
447606
220326
234196
635909
381733
487943
525219
423160
190195
144460
427713
277402
525937
517393
108953
261549
414024
498775
334278
174257
84889.9
227218
465158
384085
9411.76
11.8902
189.986
0.0452538
21.7528
0.625126
634.801
965944
1.06999e+06
1.04153e+06
983369
1.06149e+06
1.05312e+06
942532
554939
318209
429353
342193
229220
90866
42590.7
43.6337
2.75817
202915
0.0502113
86.5195
0.274019
0.0234444
333059
138540
450212
346792
16066.6
62247.1
213117
1.08024e+06
1.06695e+06
1.10616e+06
1.07866e+06
1.14537e+06
952743
751898
257965
110792
410570
328329
9354.73
51765.5
159832
1.12156e+06
495678
921078
735096
1.07313e+06
768489
250137
1.03796e+06
877139
876808
1.03506e+06
1.04135e+06
1.08977e+06
1.12407e+06
635581
758182
900469
576635
69151
284704
271942
531608
224874
403556
89377.3
248489
88069.7
16748.8
302481
122337
567896
339844
5478.32
27678.9
117499
480072
48453.6
100273
222386
129063
14561.6
4156.63
476759
133739
353798
21801.7
135926
56143.9
6872.23
331875
62600.3
316434
36062.5
3084.05
2683.2
41107.1
211601
18468.3
4125.81
2963.59
15794
92464.9
70688.2
173002
3548.44
81266.2
1931.61
47274
15333.1
613.831
3736.39
63603.7
90935.3
11142.6
258.561
7050.83
414.384
119959
4838.49
110584
14758.5
620.077
16696.1
549.781
46506.2
226607
281895
26704.3
1146.56
1944.06
16232.5
102438
37635.1
130175
15190.5
5516.65
4047.71
540.951
460782
716250
946795
517533
10027.7
67993.2
215225
58502.1
40918.4
202937
13662.1
272.342
1642.37
2386.27
35123.1
555.124
15410.4
131.599
3697.69
1546.91
54.5364
154610
5285.05
80285.9
549.631
8137.26
3343.01
212.519
63173
11584.4
25237.6
4632.52
2323.03
935.134
172.323
115423
640.504
831.617
2811.11
4698.18
18084.3
21404
3934.67
859.069
21787.3
3865.04
25.5621
149.569
664.214
282.682
877.308
7041.71
2291.62
10.4276
88.2706
273.844
559005
551377
22955.8
414094
3330.99
550591
109422
526907
397.541
350240
598145
525068
382811
340044
17356.5
37727
635053
387035
408701
404927
301064
541.29
9560.64
560756
642030
637828
94555.8
23555.6
1265.83
542981
505265
306.341
426348
354727
431035
515777
517716
576568
576406
365329
462582
442593
536322
524197
580390
588504
443934
491956
553942
529077
575320
597966
602082
543174
489683
617771
572393
594497
591344
553809
622284
622757
528813
611000
582800
576220
613966
607389
634316
547706
635281
611737
564766
556553
547499
635197
635631
609395
612612
566253
559995
557296
627093
539102
607755
540287
563100
602994
380486
563160
560367
532517
286459
537691
277698
574541
637006
604609
641308
597403
546259
522909
549442
365449
556039
522344
222453
505100
257088
583397
639935
613634
502859
591862
565858
444640
622327
597207
643904
555223
583424
485092
426928
537254
243883
513510
173943
476541
431588
116408
91827.1
169016
471594
364235
22985.1
265743
62259.3
639998
617385
638034
516621
233129
357509
437396
105784
263517
422391
114322
431941
277032
25970.1
636761
181656
521748
534055
643388
427425
196824
115881
426669
433632
279354
24151.4
269115
26517.4
536130
639623
644596
429624
187521
199354
419633
452514
315586
33861
145827
304204
460385
136934
434855
90263.3
26363.9
234270
277879
404376
117884
409437
72596.4
379918
19219
244870
204844
12998.2
630939
467655
616033
161124
395687
355090
121462
58401.6
174391
357783
288871
4528.76
107294
29051.5
266922
46473
334422
150946
3701.9
92040.1
7493.65
322175
408982
589357
292434
35064.5
207743
75796.5
548255
1593.56
622362
349527
619508
533301
572924
314639
516169
481148
503871
225767
203065
323852
416458
295465
449476
550250
284819
241070
585087
345502
489869
388411
206431
228679
232262
329565
333395
365988
362117
213897
250764
239751
355584
341869
374467
388708
260257
266550
374701
287480
400516
409259
436972
257791
299532
261566
408005
457047
460049
404144
281621
309007
269603
416558
481694
467983
431229
318133
354422
316075
473420
433875
470871
507738
513898
492237
493488
512442
505684
512043
502633
299484
375332
324428
501309
452608
479861
526436
509926
503544
496981
514995
489028
497127
520890
405786
362656
515402
422848
472576
560800
586735
495034
513185
525130
476474
529397
539477
456482
467427
546441
403276
415389
358250
511176
555913
533723
485707
444799
554385
553096
534109
481838
534965
462498
553408
434227
552491
474317
539077
548269
373606
421044
458406
538104
548030
424250
443845
553918
545088
550542
346744
548617
414479
594881
598378
529430
581947
461970
531621
597967
581739
499655
549538
586298
596201
596334
547161
549292
299190
362086
274475
524552
485155
193632
534945
303003
201034
550681
285951
529885
369165
643263
355029
495958
641127
603138
566641
474303
277490
238860
454745
479115
553679
453148
243815
269940
467161
306728
463636
542271
225399
415524
550726
460702
289163
320932
432132
335251
444594
483704
494911
313868
427667
271766
267119
308854
423627
475929
266410
311949
308118
425054
422557
475194
477453
330510
384422
355943
487099
463055
512031
534318
587583
534289
373842
449572
368507
532606
588144
448971
371885
367781
532405
588124
533672
588390
381856
481867
398432
590097
538570
548609
595080
539767
420539
463813
467823
540558
555712
425887
469104
539773
540441
556090
424395
554768
427364
508508
456433
422883
563494
600476
581336
600512
540182
450058
542844
414983
553481
553167
398352
404791
432537
547016
551655
332668
544305
371889
513091
551712
349409
555427
248997
356841
519276
556294
250954
516214
353861
553900
358519
520543
505901
340250
548891
541096
194335
316365
488308
503276
224874
101270
527701
151344
279210
459725
421334
493572
209167
107600
37493.1
418511
105067
461573
155623
54124
396453
20397.4
85286.9
253172
46127.6
165443
8335.76
298131
6223.18
31756.2
136941
195802
4010.29
1745.71
15433.8
49144.2
99460.4
11649.6
4356.35
9258.71
531972
498025
168091
192.636
15507
31843.6
458134
75.5118
29133.9
506592
638228
9850.52
51.1096
351228
640893
569659
600177
643192
621114
480319
359788
553156
611469
640750
505299
426377
340105
218941
180950
372337
625305
364486
533362
182908
44585.2
602767
292627
510644
103267
314555
154220
24775.5
285672
598779
450306
148799
304732
96291.5
23188.1
304597
33818.6
8547.74
6713.84
144089
48247.8
1672.7
91821.3
467404
206357
12453.4
115434
42893
3684.32
178890
3551.39
90485.5
1468.35
41731.5
13524.2
475.155
83237.6
10177.7
376.873
92321.7
432.854
11701
3789.57
93888.2
442.076
3506.7
10743.2
11963.7
86787.8
3867.9
2751.42
8323.52
71405.7
49392.5
196.573
5439.69
1807.3
131261
347749
105354
38864.2
552.968
4209.9
5587.71
12554.4
44.4647
451.802
27546.1
103.329
2931.04
988.278
23100.8
193265
59682.5
10531.7
160.941
849.241
2168.61
54391.9
323.652
1898.83
9444.16
51.5396
1524.88
330.641
4075.75
1094.92
139.338
7129.83
29.3991
857.077
249.08
6725.42
999.033
233.812
3711.37
27.3547
125.973
800.275
0.573048
0.00422204
0.113567
0.0770136
0.00778658
0.00321382
0.000457595
1705.22
201.462
5713.58
529.523
5.07657
146.956
18.4913
7386.88
1640.45
27927.4
1076.28
16.6864
65.771
284.356
4.4335
170.032
15.6363
129.161
450.962
4865.58
1495
1376.63
118.302
57.2322
3.82527
103.249
1568.47
50.3129
57.6689
1604.42
18001.8
131.472
1590.89
57.128
4.89266
1016.94
22.351
2.78781
44.194
74.9725
618.288
37.1133
342.361
23.7227
631.922
73.1814
1162.26
42.4221
2.81645
6.33636
1287.43
43.5459
139.179
4.6646
18.6684
0.631748
357.882
1191.97
9799.76
75.3221
659.347
24.879
2.91516
19.1162
0.648502
6.43084
4.87806
45.0871
145.196
1331.75
543.948
2.4001
3.57921
10.4599
20.7039
63.7647
92.2446
81.1644
14.0922
410.397
1.17353
33.4956
6.18185
0.228655
1590.51
14.447
274.952
3.57243
61.6803
10.77
0.634772
2.55926
12.6687
0.211446
5.74232
1.05242
30.1863
371.295
10.9871
20.9911
306.333
122.289
0.332338
8.0543
4.3816
837055
697594
2116.54
533740
664365
430566
690343
1.06543e+06
895521
1.08317e+06
594896
1.10164e+06
606296
1.14201e+06
788063
567964
1966.97
483847
498275
551959
504803
558244
623778
579220
685767
601230
585949
540659
508.474
1230.09
102.787
501766
609817
566905
621329
574954
644421
711196
696161
576792
621563
694580
759583
782718
662410
591094
718622
634256
701515
782024
803527
670431
629757
780376
834876
789545
857692
1.02731e+06
841475
643841
720745
810620
742091
836698
897000
1.05037e+06
705866
726871
641447
724991
1.02386e+06
832255
833579
732229
754435
657077
733644
1.06606e+06
860538
851538
609566
721486
719198
674937
684988
685190
585944
786437
895081
911513
1.07562e+06
938899
922599
764062
1.17073e+06
885913
1.04044e+06
1.20517e+06
1.09844e+06
1.17119e+06
1.08408e+06
937899
1.13105e+06
1.07809e+06
1.18769e+06
1.11526e+06
1.16128e+06
1.01561e+06
658827
572895
540551
635875
655229
470664
276476
851467
989606
1.02867e+06
992870
352077
734990
699970
837428
1.16936e+06
1.1147e+06
1.16869e+06
1.02154e+06
1.00599e+06
1.03281e+06
804350
882044
1.01613e+06
958097
251619
621692
656216
135785
196906
67392.1
131794
43834.7
455381
447975
342582
279344
200135
126745
81581.4
274581
436859
194691
433503
35811.5
100191
67324.6
221108
237416
257219
201344
110060
80613.8
95187.4
238225
188202
260681
203025
148712
164171
115400
238555
287273
273905
255157
25992.6
66297.4
54969.6
191698
161040
174990
171848
161041
152216
124073
292894
280080
224994
247858
127327
95992.4
101819
152311
153025
160182
153754
136144
130420
115388
173128
167591
190478
159299
142075
100131
97683.5
208264
200377
225247
186738
326147
357080
448208
411995
412644
363079
318790
355946
433522
376409
294352
362140
302322
379083
327972
366852
448473
421423
413443
363694
334258
368601
324496
245628
285842
326739
370155
250251
365075
433486
363900
311620
388421
382809
321494
252949
294852
221000
226646
255892
298658
197072
236368
214145
319436
263184
306734
249828
203955
290114
266035
383416
331321
373186
299021
256259
202044
311321
309949
145887
233068
389603
524345
291711
447430
222064
235259
152376
588819
471841
508983
313788
196991
252025
225976
303234
267128
286578
318677
194327
242409
215776
298177
269383
290074
318205
157879
159241
179857
180243
208064
228157
197374
169651
172632
191468
212891
238806
260584
233905
230276
176941
202623
253757
251557
287533
220600
272460
285331
246773
321679
389782
362733
349415
281587
276702
251884
310568
376308
340155
343764
228999
337671
266227
288507
316377
364107
250244
372516
398765
333132
349445
466333
416424
389662
259486
199380
220931
293258
304714
335325
265032
378084
439490
347887
372006
499741
470873
401778
402828
280982
361895
339980
392509
434902
306024
319089
313345
442258
349293
399308
358625
278215
372423
446718
475747
492293
442156
402675
415344
407809
478859
538634
582376
517081
455475
436419
376588
384483
548134
438287
480872
424305
340420
-85692.5
-98557
-87759.2
25091
19020.1
116528
78860.8
110649
-35270.9
-99016.1
-98558.8
-98878.1
64658.3
-56694.3
34560.9
-56012.6
-87966.4
-49318.9
-50071.9
-85335.4
-40986.7
-42706.3
-84584.7
-98846.6
-97689.2
-97680.1
-97120.8
-98516.8
-98447.9
-96903
-87192.2
-43892
-47638.5
-36920.8
-76055
-28383.2
-82456.7
78354.1
77310.5
17914.8
28175.3
87940.4
27175.1
88724.2
-99004.1
-99019.6
-98986.2
-98479.2
-98695.2
-98626.7
-98267.8
-98873.9
-97141.7
-97599
-97890.5
-91248
-95761.7
-94849.7
-98947.2
-98746
-99006.1
-98082.9
-93397.2
-95350.4
-97353.8
21363.2
84485.4
80508.4
31026.1
94616.5
36508.9
91161.7
-92221.9
-69134
-95486.2
-93718.8
-37576.5
-53608.7
-89794.2
-76118.2
-23295.2
-18653.7
8282.33
17105.7
-26963.1
-72792.5
-13836.4
-29135.8
72851.3
21648.2
37965.2
6345.34
-62058.4
40797
99054.3
110826
60400.7
63420.5
39138.3
99373.5
-86569.4
-46368.5
6271.17
36204.2
-16794.7
-80133.8
-60551.9
-93627.6
-70046.9
-95727.4
-94031.8
-39466
-55903.2
-90866.8
45619.2
103764
87672.2
112452
71872.4
55436.9
101059
-87336.3
-53827.2
24457
-8483.19
-23574.2
-63962.6
-80906.5
-97367.5
-73177.3
-98664.7
-88277.6
60765.1
-15712.5
157436
137283
-98775.2
-97500.5
-96908.4
-97039.1
-96081.1
-87957.9
-83068.9
-98410.5
-88895.5
-95167
-81987.4
-93058.5
-69778.9
-42491.8
-38888
-84464.7
-30104
30886
-43739.9
-33237
40869
-81252.3
-427.202
-73851.4
45803.2
-38204.5
-25409.5
58350.2
-11427.4
-48294.7
19226.1
-13621.1
72438.7
18339.2
56785.9
-21519.7
26036.5
-54270.5
-3750.2
91758.7
74282.4
29927.8
88290.1
95980
31927.6
43727.7
140574
102969
94366.4
59079.2
113510
121072
147364
111699
75705.6
103205
40632.3
62553.8
265163
240440
497387
354134
206357
189276
48708.9
105201
91583.9
109987
96341.7
148743
145443
77836.4
128569
117999
115861
105600
155991
166951
288200
166671
207717
243953
170095
211372
292393
240605
135478
182496
185955
138598
192674
244980
188209
252177
177013
219402
316652
232010
301818
157231
194081
146492
200794
268271
254337
213186
257012
453137
318709
261392
458833
323817
359257
270638
389396
472787
350770
334437
284597
370704
71571.2
-96814.5
-81209.9
110885
30699.8
165831
248655
123641
141338
21287.5
61945.7
-97145.5
241443
133847
174132
83068.5
-35954.1
-64245.8
-19457.6
-53291
-10406
25129.3
8909.55
-94709.8
-79698.2
-86412.7
-69967.7
-78910.3
-26736.6
-6092.29
-97541.5
-85581.3
-88569.9
-76391.4
-81439.6
-35476.9
-29668.4
90505.6
95768.1
40768.7
98416.1
46074.1
62938.8
103964
-6123.83
68344.9
14956.1
76457.1
144038
128001
83443.3
34025
-20388
-38983.8
46269.4
126519
73349.6
99472.8
35715.7
118056
43412.9
92061.6
187824
162273
105215
20214.7
104208
-3923.26
67941
174713
147256
95448.7
83807.3
102211
57789.3
88234.2
124188
116485
112239
108265
110871
72022.1
96425.1
133815
137270
116343
-43000.8
19357.9
-47197
30833.7
74247.6
80996.4
31934.5
-6192.47
86729.1
-13495.8
51297.9
116729
126222
51363.6
140327
195234
228476
217055
197403
179480
159740
117141
179923
204422
216384
179596
144349
155508
124009
142077
186138
147671
161314
149769
127134
97298.3
121727
192369
141880
156664
134260
90264.5
342436
410188
476235
617132
296062
246209
333661
579395
594440
659590
665943
17080.8
541979
378381
580748
495710
256558
253030
265264
318915
331182
328499
343662
272362
308231
283491
380146
350530
366649
401747
473705
468036
648711
311230
701340
228022
147012
226580
327164
348566
505653
641150
369542
234325
348168
435905
481719
613048
771284
522336
356219
279013
518543
444508
1.00461e+06
737990
167282
156797
203815
177166
226063
213382
236711
450767
354658
268361
431197
622634
576460
133745
194059
237602
204225
292545
255878
266298
302311
266558
272751
312631
288553
330693
380765
331557
184033
249265
205665
289770
243423
267281
314874
317429
388828
356896
413004
375238
415274
450835
270028
379498
294652
364498
281007
306239
400943
330167
404878
383299
435950
413164
476036
487602
305498
329221
358397
351441
385457
447292
409706
422154
317240
365413
435287
440481
494469
382021
355562
489831
405591
457602
486841
540627
404709
276810
314961
336731
322987
346838
393006
407356
653014
1.13576e+06
521559
826033
610871
268689
399406
219263
366027
448667
631463
409873
777422
307599
368866
261822
709817
594655
727024
556110
635993
558770
678990
298910
427208
814735
734761
710253
993259
445031
859822
340942
315355
369701
327145
442111
392997
400704
448186
336374
373265
342601
456458
421290
428953
464386
248060
228827
261786
281509
323331
337334
294789
298834
270701
307390
334906
379983
389389
345476
304882
244752
280018
357991
342191
386688
315104
378917
385004
355582
446172
510084
476253
481365
361083
379758
341756
413178
482089
432720
461154
345143
284079
320980
407442
392748
437665
363577
359620
511815
414651
430111
466410
526374
375595
337737
334840
377694
375278
422690
463546
413746
385799
459700
416441
509325
459457
492784
542315
527501
560325
470500
479679
644763
571285
537014
562310
700782
525319
541453
733013
576513
732914
413438
487720
459679
549481
521152
585737
600467
380198
383802
426454
437039
482128
548383
506486
452414
574742
427401
490891
480698
547542
398672
434320
655966
480091
497526
614919
684710
453919
130310
81373.2
209318
204133
242507
234205
346253
362691
96102.6
119850
126780
163809
170688
182346
179910
112645
142385
133660
189179
178417
187189
196867
186875
243920
150547
189916
153599
206877
247898
168753
197417
159558
213709
270559
225536
256726
236853
306976
309040
313444
241558
243719
316714
253283
328196
315455
250219
340753
325376
262423
266768
417355
313750
270575
424106
351243
318684
282133
350348
296497
445634
366479
386166
471868
266651
277209
233680
297086
392631
333938
347431
369502
427700
498813
339299
526361
454268
385244
770179
854654
783546
570027
636768
617059
600205
588077
695926
665630
495063
575827
517330
552752
504172
421512
472368
375616
423129
508263
456317
439544
329005
466308
382650
345509
293375
279246
442259
564508
421427
565111
442817
465938
576730
369404
426533
327874
340700
385692
453628
524671
446764
428849
399555
460967
550449
513943
493796
412848
369401
313370
340406
555947
457299
405452
439713
516833
565582
483782
618601
564525
523967
671546
534859
726641
641912
486104
528440
579438
601617
647194
608028
461541
514363
553098
500705
530165
457610
447296
558573
632265
550829
672233
529897
674654
653976
603881
742512
593333
806298
577998
495429
536583
495189
452858
532265
583307
343291
374297
316528
415719
561219
459461
510951
503595
388422
420850
530747
623900
660041
491712
39962.3
499514
517072
12.7634
74262.5
63083.5
620300
513307
520238
545301
653812
595543
572671
459373
486533
608408
652373
576180
717295
794313
536933
640774
797149
738334
606499
545904
580364
647430
758612
607029
602838
538667
521605
679668
667293
521487
599118
474982
499405
593271
540605
589353
305286
416199
353415
463370
383174
459484
567872
693167
716045
746506
644162
600007
596383
546250
604285
535031
442811
791273
575488
487297
651563
1.01517e+06
902056
937717
689186
691389
797655
762879
378332
537834
583507
608957
518323
436206
459947
371653
470214
381449
612033
478127
502789
627029
589899
598000
454988
663311
526388
553261
636502
678761
671488
830297
691927
601133
655430
754800
220110
525661
586927
392107
419529
692543
682917
442671
250278
283774
275680
317056
308678
348889
391159
328907
285524
359455
408870
350623
454540
553600
369559
590987
417496
641285
471104
543492
672231
343344
516254
385208
605125
445326
517175
667520
589668
594829
502778
525697
575423
596978
605940
585640
523514
429855
636968
551457
454206
596663
464398
380637
437710
614252
519968
585477
646441
534768
645956
685189
679920
618343
592202
578388
627001
618920
576296
570660
583258
613698
506602
791334
979974
877281
772498
670952
621590
701354
723086
786923
858249
1.10465e+06
676572
969628
892274
555665
628126
565257
538900
589435
591845
622511
715786
796231
780832
978638
932543
897789
670636
671876
388154
503209
481806
654797
642800
709749
678665
604760
693896
653969
667015
487269
631025
548084
654096
686664
693858
613343
448014
613421
535452
516683
421740
573016
664752
661752
665419
622168
628306
520286
611919
534868
612681
661845
1.08055e+06
1.02263e+06
1.05394e+06
1.0456e+06
983500
927415
862877
833321
482499
612844
714373
722873
912365
854721
626243
617106
613300
539658
521243
631428
627910
704619
668382
644502
641729
464351
597170
648747
45774.2
-89463.1
24327.1
-88415.4
24309.6
38425.2
-24825.4
-52521.8
-3494.35
98.1166
35690.9
38148.1
-929.52
-643.056
28050.9
-25875.5
-54038.7
-94343.5
-95396.7
-49067.8
-92669.8
-43505.1
-12754.9
29661.7
-12585.1
25956.4
-11508.9
-2318.81
24266.6
-23557.5
-94170.1
-23430.5
-78864
-21385.9
-88395.8
-24946.4
-4003.82
20604.5
-13789.6
-12911.9
25078.2
-11668
22469
-1729.74
29099.6
-2409.81
-4181.27
35627.8
-1634.43
25854.2
-23623.4
-93193.7
-87185.9
-23546.3
-78680.3
-21479.4
-88266.5
-42351.7
-88529.2
-93526.4
-25807.8
-95292.5
-48538
-92549.2
-61163.9
-89867.5
-64137.6
-84406.1
-59775.2
-86125.6
-66051.4
-39853.5
-23444.6
-49187.1
-23414.4
-43757.3
-22868.9
-44022.5
-53478.2
-27824.7
-45222
-24925.4
-27563.3
-46632.7
-51467.3
-78517.4
-94597.7
-93944.1
-77768.9
-94566.5
-75540.8
-79522.6
-81053.8
-95242.6
-82170
-95382.7
-95174.8
-80535.5
-82416
-77741.6
-70402.3
-93302.2
-94924.6
-94994.7
-72232.6
-76390.2
3682.21
-12386
-11989.8
2133.56
3210.22
-11717.2
2212.89
3749.98
2259.38
-12276.8
-11860.4
2312.2
-11645.1
3329.73
20164.7
25482
21225.6
25483.4
19829.7
19810.3
27039.1
3810.67
-12062.8
-12014.3
5261.95
3491.78
-12040.7
3444.75
-38012.9
-22836.6
-40001.2
-23328.3
-40962.6
-22793.6
-37390.3
-65170.9
-92540.4
-92536
-75192.9
-70459.2
-89621.1
-70469.1
-37989
-39930
-22755.4
-23235.6
-37337.6
-22752
-40919.1
-57097
-80415.4
-54783.9
-80421
-55794.2
-55799.1
-82151.9
-35348.5
-21734.1
-21696.2
-33789.7
-34472.3
-22084.3
-34498
-61163.6
-64140.2
-89852.2
-84421
-66038
-59787.2
-86130
-40501.4
-23391
-50629.4
-23357.6
-44863.7
-22902.9
-44853.8
2153.94
-12971.3
255.4
-13052.7
1264.83
905.675
-12393.8
2632.37
-12430
-12608.8
1588.06
1669.85
2290.19
-12239.2
18598.4
23987.4
20619.4
24778.6
18450.2
19151.5
25420.5
3018.72
-12420.2
-12268.3
4988.95
2813.74
3052.62
-12446.4
-37611.2
-23435.9
-39377.7
-22977.8
-40204.4
-37124.4
-22849.3
-63912.2
-73087.1
-91335.9
-91644.5
-68559.8
-69005.8
-88682.9
-60175.7
-62821.6
-88587.5
-83591.1
-64456.4
-58964.9
-85226.2
-37742.6
-23307.4
-22861.6
-39883.1
-37302.6
-22807.8
-40577.5
-56622.5
-79929.5
-54660
-80263.4
-55422.9
-55632.8
-81653.3
-35283.4
-21942.2
-21812.1
-33822.3
-34524.6
-34486.5
-22220.7
-60500.9
-89298.4
-63897.2
-84265.2
-59535.4
-65260.4
-85594
-76908.1
-75880.3
-93914.2
-93140.7
-77674.6
-73946.2
-93948.4
-52738.7
-24912.4
-27715.1
-44990.9
-51168.9
-27331.9
-46156.7
-80237.2
-94986.5
-81773.2
-95261.6
-80095.8
-81661.4
-94888.8
-76787.2
-92806.3
-70089.6
-94803.5
-76017.9
-71359.9
-94616.9
2123.9
-24223.5
-91462.2
-96061.1
138113
108788
225180
170622
-95668
-90869.1
-89418.9
-73047.4
-69862.9
-36294.5
-41868.8
-94537
-74361.5
-85265.2
-43747.1
-61488.2
-23301.4
-1270.19
-98929.4
-44395.3
-98978.2
-83485.3
-98419.5
-98799.2
-98774.7
-98748.8
-98729.5
-98680.8
-98707.1
-98810.5
-98818.7
-98820.9
-98805.2
-98805.6
-98807.1
-98751.4
-98822.6
-98827.7
-98848.2
-98947.5
-98772.6
-99024.6
-99004.6
-99110.9
-98331.6
-98227.3
-99091.7
-98952.3
-98813.8
-98815.6
-99016.8
-98895.7
-98748.5
-98981.8
-98675.2
-99066.4
-99117
-99090.2
-96707.1
-97899.4
-98912.2
-99028.9
-98910.2
-98829
-99043.9
-97854.3
-98537.8
-99017.4
-98706.7
-79589.5
-97392.3
-96169.8
-96831.5
-95451.5
-98781.1
-98494.3
-89684.7
-67937.3
-86075.3
-95189.1
-93250.5
-97766.5
-71150.3
-16437.8
-65549.5
13292.7
61008.2
67415.1
4278.39
4940.28
113950
11764.6
58655.2
139623
144537
51722.5
-52749
30338.7
-29566.3
29832.6
94004.1
79130.4
52696.9
49947.9
123834
26727.3
72887.4
165734
153855
91455.8
-95968.6
-97599.5
-97919.1
20033.9
-98247.9
49757.1
111236
78166.4
-98284
-98322.5
-98304.1
-93970.6
-93756
-93042.5
-93409.4
-98120.8
-98161.4
-98261.5
-91749.9
-93253.7
-92078.5
-89565.4
-97437.3
-98034.5
-98109.6
-90775.6
-85993.8
-84404.2
-91545.8
-97011.1
-97380.3
-97847
-88837.7
-71972
-80617.5
-84035.8
-62927.9
24130.9
-61331.8
-56447.6
31417.6
-58838.1
36577.4
-49640.8
33612.9
-57650.2
-51027.6
64326.7
47595.4
-40262.1
-45382.9
-28083.1
51591
83578.8
-22939.8
-48923.3
57000.5
-37422.1
8548.43
85556.4
94918.9
-11662.6
68065.6
-21755.2
-98658
-98991
-98685.3
-98806.3
-98489.2
-98563.1
-99010
-99032
-98487.3
-98553.7
-98563.3
-98586.9
-98515.1
-98516.9
-98576
-98528.7
-98501.4
-98623.4
-98600.9
-98577.9
-98602.5
-98531.5
-98644
-98599.9
-98609.2
-98614
-98555
-98560.3
-98604.7
-99001.6
-98975.2
-98985
-98669.8
-98688
-98714
-98694.7
-98727.3
-98672.2
-98631.9
-98609.2
-98655.5
-98630.6
-98577.6
-99020.7
-99023.4
-99003.9
-98778.1
-98742.9
-98710.6
-98739.7
-98983.9
-99026
-99022.5
-98859.4
-98828.9
-98761.4
-98741.3
-98940.1
-98976.8
-99026.1
-98919.6
-99020.7
-98855.6
-98792.1
53720.9
-60213.6
46584.3
-89648
27166.6
45585.9
-41878.7
-59469.6
-57079.2
-90003
-58026.9
-88903.2
-58920.3
-55112.8
-89515.1
-3216.27
21031.9
-5668.94
-3122.68
28191.4
-3933.01
34338.8
-25734.4
-93314
-91309.5
-51497.6
-94582.8
-47100.6
-87820.3
-56605.8
-50206.8
-90347.5
-89508.6
-87371.8
-56133.7
-89243
-51545.4
-24854.5
-44007.4
-27457.8
-49759.1
-27132.9
-45286.8
-75900.4
-75341.2
-92691.1
-93644.3
-76958.6
-93505.7
-73092.5
-75073
-68346.2
-91985.1
-93794.3
-73806.1
-93894.9
-70010.3
-78392.2
-94472.9
-79694.5
-94378.7
-77891.1
-79847.8
-94245.4
-59864.3
-90543
-90372.7
-60411.6
-90686.5
-59147
-90204.1
-4143.72
41388.3
-2776.02
33133.8
-2452.95
-3378.83
39179.8
43008.9
-3354.8
-3447.11
-3672.1
35528.7
-3683.5
40567.7
49769.8
-2318.31
-3266.22
49725.3
-4010.71
-4197.86
44586.1
57849.6
-97669.1
-59183.1
52300.1
-58975.5
16611
-88179.4
11642.7
-88644.2
-97607.7
-98580.4
-98722.4
-98917.3
-98696.7
-99057.4
-98861.8
-58455.6
-90024.2
-89772.8
-58015
-89815.5
-57824.4
-89978.1
-97575.8
-98512.6
-98491.8
-98606.1
-97630.1
-97676.9
-98570.7
-59377.5
-90253.5
-90266.9
-57080
-89840.8
-57894.9
-90025.1
-97648.2
-98586.2
-98546.7
-97742.7
-98715.5
-98658.8
-97720.5
49663.4
-1374.84
-1551.18
1730.31
55630.8
1294.12
57652.5
-98560.1
-98599.2
-98620.5
-98685.5
-98718.4
-98654.4
-98754.1
-88701.2
-53062.8
-53470.5
-55934.4
-89530.3
-56074.7
-89561.7
-98681.3
-97595.3
-97585.2
-98723.8
-97708
-97721.3
-98708
54729.1
233.624
-1019.07
62425.8
4563.95
2601.59
59676.2
-98661.6
-98611.8
-98659.3
-98798.1
-98844.2
-98735.8
-98803
-88472
-50565.7
-52108.3
-53980.2
-88932.9
-55329.8
-89402.4
70186
68941
10751.9
6204.34
61780.9
5559.74
63346.8
-98741.3
-97785.2
-97636.8
-97668.6
-98731.8
-98734.5
-97715.7
-98838.6
-98816.1
-98798
-98801
-98836
-98780.6
-98839.1
13547.5
75206.6
72225.7
68213
9990.44
7524.72
65334.8
-98940.8
-99039.8
-98867
-98832
-98853.1
-98820
-98839.6
-97668.4
-97620.3
-98515.2
-98610.5
-97927.1
-97630.4
-98312
-98445.4
-98413.3
-97624.5
-98452.5
-97758.9
-98470.2
-97637.7
-98402.6
-97935.6
-98306.4
-98296
-98350.6
-98013.3
-97668.3
-98366
-97605.6
-97623.1
-98412.2
-98369.5
-98324.6
-98372.8
-97586.9
-98324.6
-98380.9
-98386.3
-98371
-98417
-98357.7
-98421.3
-98365.9
-97939.2
-98355.4
-97899.1
-97936.1
-98430.7
-98304.5
-98257.5
-97938.5
-98361.9
-98119.9
-98048.8
-98360.6
-98287.2
-98334.7
-98318
-98298.2
-98360.2
-98333
-98455
-98276.7
-98356.2
-98135.3
-97989
-98480.5
-98027.7
-98424
-98492.5
-97646.3
-98527.3
-98493.8
-97679.6
-98474.1
-98435.2
-97630
-98397.4
-98346.8
-98485.9
-98441.2
-98402.8
-98403.7
-98446.8
-98495.7