/*--------------------------------*- C++ -*----------------------------------*\
  =========                 |
  \\      /  F ield         | OpenFOAM: The Open Source CFD Toolbox
   \\    /   O peration     | Website:  https://openfoam.org
    \\  /    A nd           | Version:  9
     \\/     M anipulation  |
\*---------------------------------------------------------------------------*/
FoamFile
{
    format      ascii;
    class       volScalarField;
    location    "0.00115";
    object      p;
}
// * * * * * * * * * * * * * * * * * * * * * * * * * * * * * * * * * * * * * //

dimensions      [1 -1 -2 0 0 0 0];

internalField   nonuniform List<scalar> 
9457
(
450560
577325
625445
665317
774459
835403
504943
682309
749644
101300
101298
172241
101356
445705
619159
426916
609089
717511
761203
1.00073e+06
1.03802e+06
645857
554555
520018
1.18115e+06
1.19137e+06
684538
621021
662689
471610
633111
794143
958215
1.07509e+06
1.20574e+06
688517
758482
627571
1.20168e+06
1.12842e+06
562828
214221
580277
521258
601309
581047
507730
222402
154639
480921
429625
484172
580517
511282
577355
514191
507005
436947
492787
589180
538404
602720
522663
601828
718064
630356
444973
149894
126338
102026
608871
550824
551749
634212
699337
633183
699756
646714
611884
613531
776933
779214
782272
771489
567300
523890
569688
740930
681931
735048
686927
651889
637130
620547
793633
815060
793104
825959
611457
562820
555281
639426
717059
649699
705100
528080
499742
556995
561734
622626
650054
591950
705501
1.03892e+06
1.13138e+06
824524
1.2071e+06
695941
1.06955e+06
595805
533847
577573
757538
721803
788742
699773
523243
509560
529100
655897
659554
657042
659436
576541
597919
654340
736024
665831
688667
763828
535390
632591
592091
684764
676836
726240
630147
674882
603694
722668
776995
781576
671082
607245
666286
724094
713755
850139
876744
949154
902849
588313
680136
639095
750803
834504
889347
782609
543008
567087
543223
684690
668943
666466
678019
1.02054e+06
1.01917e+06
265162
1.26264e+06
130872
101403
537375
684532
637714
737345
812271
793247
699422
618439
725165
821339
834175
1.00212e+06
836571
723614
822321
626771
684198
724071
718784
858257
757452
803462
665242
839980
721171
750504
836413
877004
700712
678564
682317
729497
730646
773682
828427
794618
786041
890659
844909
1.03597e+06
1.06638e+06
975681
1.11997e+06
510737
111757
101332
359606
101451
101298
108114
749134
103700
106701
725135
101302
101300
129130
731827
848086
863594
1.0136e+06
846031
744279
830463
1.02068e+06
985558
1.17871e+06
1.11843e+06
989116
1.11237e+06
1.0175e+06
577771
626440
643351
704689
721958
689819
692339
1.03412e+06
1.03159e+06
1.18201e+06
1.09296e+06
1.00333e+06
1.1048e+06
1.06028e+06
917437
782024
887356
675832
879623
916524
780397
788128
795474
890571
988663
925971
835084
743770
707908
780852
861273
947659
792521
984422
804685
670104
586618
674030
705313
689745
689645
699950
733002
714459
685463
681538
721814
667768
602399
923333
777549
834411
656432
863608
934349
779503
876493
891040
763514
790839
1.12154e+06
931166
918776
684769
701689
624707
691843
670663
693546
690012
102563
465696
701066
101299
101298
114649
101713
776660
845135
755921
933720
805970
867090
1.03652e+06
1.0732e+06
1.06821e+06
1.09414e+06
1.12532e+06
1.20293e+06
1.12516e+06
1.01873e+06
767705
784100
943522
939087
473600
702169
736972
710973
571095
707970
494065
671393
666174
481765
693692
548165
703391
656054
406800
453967
636887
747741
849477
785211
897647
971830
996954
872962
828026
1.05858e+06
1.05607e+06
1.16941e+06
986709
877615
979177
654761
723147
687866
634058
687409
659986
571906
861192
1.06122e+06
892929
970810
1.11798e+06
1.13122e+06
944194
939904
1.05836e+06
1.14525e+06
1.1613e+06
1.16982e+06
1.23161e+06
1.15187e+06
967104
828798
1.03202e+06
726333
964249
869237
593779
1.13566e+06
1.21788e+06
1.18414e+06
799525
1.17804e+06
934021
1.1049e+06
671039
352481
626712
334773
601631
541891
244334
938092
892449
815847
953138
1.23795e+06
1.07335e+06
1.15531e+06
696338
700590
592113
613182
486997
440460
312590
900942
568926
397532
347851
573718
816294
673967
699329
698274
711603
601472
334134
501972
475163
1.14596e+06
1.1283e+06
946941
1.04099e+06
1.13984e+06
1.17702e+06
1.21351e+06
744250
657551
559671
647841
548904
321624
335494
737207
483031
589241
626517
524458
291493
245758
529011
378700
627235
618691
210251
362847
515322
600073
435576
275555
186188
328516
566456
485383
110710
101310
101488
101298
101320
101299
101933
1.06724e+06
1.17129e+06
1.14283e+06
1.08467e+06
1.16279e+06
1.15441e+06
1.04383e+06
656237
419507
530651
443491
330518
192164
143889
101342
101301
304213
101298
101385
101298
101298
434357
239838
551510
448090
117365
163545
314415
1.18154e+06
1.16825e+06
1.20746e+06
1.17996e+06
1.24666e+06
1.05404e+06
853196
359263
212090
511868
429627
110653
153064
261130
1.22286e+06
596976
1.02238e+06
836394
1.17443e+06
869787
351435
1.13926e+06
978437
978106
1.13636e+06
1.14265e+06
1.19107e+06
1.22537e+06
736879
859480
1.00177e+06
677933
170449
386002
373240
632906
326172
504854
190675
349787
189368
118047
403779
223635
669194
441142
106776
128977
218797
581370
149752
201571
323684
230361
115860
105455
578057
235037
455096
123100
237224
157442
108170
433173
163898
417732
137361
104382
103981
142405
312899
119766
105424
104262
117092
193763
171986
274300
104846
182564
103230
148572
116631
101912
105034
164902
192233
112441
101557
108349
101712
221257
106136
211882
116056
101918
117994
101848
147804
327905
383193
128002
102445
103242
117531
203736
138933
231473
116488
106815
105346
101839
562080
817548
1.04809e+06
618831
111326
169291
316523
159800
142216
304235
114960
101570
102940
103684
136421
101853
116708
101430
104996
102845
101353
255908
106583
181584
101848
109435
104641
101511
164471
112882
126536
105931
103621
102233
101470
216721
101939
102130
104109
105996
119382
122702
105233
102157
123085
105163
101324
101448
101962
101581
102175
108340
103590
101308
101386
101572
660303
652675
124254
515392
104629
651889
210720
628205
101696
451538
699443
626366
484109
441342
118655
139025
736351
488333
509999
506225
402362
101839
110859
662054
743328
739126
195854
124854
102564
644279
606563
101604
527646
456025
532333
617075
619014
677866
677704
466627
563880
543891
637620
625495
681688
689802
545232
593254
655240
630375
676618
699264
703380
644472
590981
719069
673691
695795
692642
655107
723582
724055
630111
712298
684098
677518
715264
708687
735614
649004
736579
713035
666064
657851
648797
736495
736929
710693
713910
667551
661293
658594
728391
640400
709053
641585
664398
704292
481784
664458
661665
633815
387757
638989
378996
675839
738304
705907
742606
698701
647557
624207
650740
466747
657337
623642
323751
606398
358386
684695
741233
714932
604157
693160
667156
545938
723625
698505
745202
656521
684722
586390
528226
638552
345181
614808
275241
577839
532886
217706
193125
270314
572892
465533
124283
367041
163557
741296
718683
739332
617919
334427
458807
538694
207082
364815
523689
215620
533239
378330
127268
738059
282954
623046
635353
744686
528723
298122
217179
527967
534930
380652
125449
370413
127815
637428
740921
745894
530922
288819
300652
520931
553812
416884
135159
247125
405502
561683
238232
536153
191561
127662
335568
379177
505674
219182
510735
173894
481216
120517
346168
306142
114296
732237
568953
717331
262422
496985
456388
222760
159700
275689
459081
390169
105827
208592
130349
368220
147771
435720
252244
105000
193338
108792
423473
510280
690655
393732
136363
309041
177095
649553
102892
723660
450825
720806
634599
674222
415937
617467
582446
605169
327065
304363
425150
517756
396763
550774
651548
386117
342368
686385
446800
591167
489709
307729
329977
333560
430863
434693
467286
463415
315195
352062
341049
456882
443167
475765
490006
361555
367848
475999
388778
501814
510557
538270
359089
400830
362864
509303
558345
561347
505442
382919
410305
370901
517856
582992
569281
532527
419431
455720
417373
574718
535173
572169
609036
615196
593535
594786
613740
606982
613341
603931
400782
476630
425726
602607
553906
581159
627734
611224
604842
598279
616293
590326
598425
622188
507084
463954
616700
524146
573874
662098
688033
596332
614483
626428
577772
630695
640775
557780
568725
647739
504574
516687
459548
612474
657211
635021
587005
546097
655683
654394
635407
583136
636263
563796
654706
535525
653789
575615
640375
649567
474904
522342
559704
639402
649328
525548
545143
655216
646386
651840
448042
649915
515777
696179
699676
630728
683245
563268
632919
699265
683037
600953
650836
687596
697499
697632
648459
650590
400488
463384
375773
625850
586453
294930
636243
404301
302332
651979
387249
631183
470463
744561
456327
597256
742425
704436
667939
575601
378788
340158
556043
580413
654977
554446
345113
371238
568459
408026
564934
643569
326697
516822
652024
562000
390461
422230
533430
436549
545892
585002
596209
415166
528965
373064
368417
410152
524925
577227
367708
413247
409416
526352
523855
576492
578751
431808
485720
457241
588397
564353
613329
635616
688881
635587
475140
550870
469805
633904
689442
550269
473183
469079
633703
689422
634970
689688
483154
583165
499730
691395
639868
649907
696378
641065
521837
565111
569121
641856
657010
527185
570402
641071
641739
657388
525693
656066
528662
609806
557731
524181
664792
701774
682634
701810
641480
551356
644142
516281
654779
654465
499650
506089
533835
648314
652953
433966
645603
473187
614389
653010
450707
656725
350295
458139
620574
657592
352252
617512
455159
655198
459817
621841
607199
441548
650189
642394
295633
417663
589606
604574
326172
202568
628999
252642
380508
561023
522632
594870
310465
208898
138791
519809
206365
562871
256921
155422
497751
121695
186585
354470
147426
266741
109634
399429
107521
133054
238239
297100
105308
103044
116732
150442
200758
112948
105654
110557
633270
599323
269389
101491
116805
133142
559432
101374
130432
607890
739526
111149
101349
452526
742191
670957
701475
744490
722412
581617
461086
654454
712767
742048
606597
527675
441403
320239
282248
473635
726603
465784
634660
284206
145883
704065
393925
611942
204565
415853
255518
126074
386970
700077
551604
250097
406030
197589
124486
405895
135117
109846
108012
245387
149546
102971
193119
568702
307655
113751
216732
144191
104982
280188
104849
191784
102766
143029
114822
101773
184536
111476
101675
193620
101731
112999
105088
195186
101740
104805
112041
113262
188086
105166
104049
109622
172704
150691
101495
106738
103105
232559
449047
206652
140162
101851
105508
106886
113852
101342
101750
128844
101401
104229
102286
124399
294563
160981
111830
101459
102147
103467
155690
101622
103197
110742
101350
102823
101629
105374
102393
101437
108428
101327
102155
101547
108023
102297
101532
105009
101325
101424
102098
101299
101298
101298
101298
101298
101298
101298
103003
101499
107012
101828
101303
101445
101316
108685
102938
129225
102374
101315
101364
101582
101302
101468
101314
101427
101749
106164
102793
102675
101416
101355
101302
101401
102866
101348
101356
102902
119300
101429
102889
101355
101303
102315
101320
101301
101342
101373
101916
101335
101640
101322
101930
101371
102460
101340
101301
101304
102585
101342
101437
101303
101317
101299
101656
102490
111098
101373
101957
101323
101301
101317
101299
101304
101303
101343
101443
102630
101842
101300
101302
101308
101319
101362
101390
101379
101312
101708
101299
101331
101304
101298
102889
101312
101573
101302
101360
101309
101299
101301
101311
101298
101304
101299
101328
101669
101309
101319
101604
101420
101298
101306
101302
938353
798892
103415
635038
765663
531864
791641
1.16673e+06
996819
1.18447e+06
696194
1.20293e+06
707594
1.24331e+06
889361
669262
103265
585145
599573
653257
606101
659542
725076
680518
787065
702528
687247
641957
101806
102528
101401
603064
711115
668203
722627
676252
745719
812494
797459
678090
722861
795878
860881
884016
763708
692392
819920
735554
802813
883322
904825
771729
731055
881674
936174
890843
958990
1.12861e+06
942773
745139
822043
911918
843389
937996
998298
1.15167e+06
807164
828169
742745
826289
1.12516e+06
933553
934877
833527
855733
758375
834942
1.16736e+06
961836
952836
710864
822784
820496
776235
786286
786488
687242
887735
996379
1.01281e+06
1.17692e+06
1.0402e+06
1.0239e+06
865360
1.27203e+06
987211
1.14173e+06
1.30646e+06
1.19974e+06
1.27249e+06
1.18538e+06
1.0392e+06
1.23235e+06
1.17939e+06
1.28899e+06
1.21656e+06
1.26258e+06
1.11691e+06
760125
674193
641849
737173
756527
571962
377774
952765
1.0909e+06
1.12997e+06
1.09417e+06
453375
836288
801268
938726
1.27066e+06
1.216e+06
1.26999e+06
1.12284e+06
1.10729e+06
1.13411e+06
905648
983342
1.11743e+06
1.0594e+06
352917
722990
757514
237083
298204
168690
233092
145133
556679
549273
443880
380642
301433
228043
182879
375879
538157
295989
534801
137110
201489
168623
322406
338714
358517
302642
211358
181912
196485
339523
289500
361979
304323
250010
265469
216698
339853
388571
375203
356455
127291
167595
156268
292996
262338
276288
273146
262339
253514
225371
394192
381378
326292
349156
228625
197290
203117
253609
254323
261480
255052
237442
231718
216686
274426
268889
291776
260597
243373
201429
198981
309562
301675
326545
288036
427445
458378
549506
513293
513942
464377
420088
457244
534820
477707
395650
463438
403620
480381
429270
468150
549771
522721
514741
464992
435556
469899
425794
346926
387140
428037
471453
351549
466373
534784
465198
412918
489719
484107
422792
354247
396150
322298
327944
357190
399956
298370
337666
315443
420734
364482
408032
351126
305253
391412
367333
484714
432619
474484
400319
357557
303342
412619
411247
247185
334366
490901
625643
393009
548728
323362
336557
253674
690117
573139
610281
415086
298289
353323
327274
404532
368426
387876
419975
295625
343707
317074
399475
370681
391372
419503
259177
260539
281155
281541
309362
329455
298672
270949
273930
292766
314189
340104
361882
335203
331574
278239
303921
355055
352855
388831
321898
373758
386629
348071
422977
491080
464031
450713
382885
378000
353182
411866
477606
441453
445062
330297
438969
367525
389805
417675
465405
351542
473814
500063
434430
450743
567631
517722
490960
360784
300678
322229
394556
406012
436623
366330
479382
540788
449185
473304
601039
572171
503076
504126
382280
463193
441278
493807
536200
407322
420387
414643
543556
450591
500606
459923
379513
473721
548016
577045
593591
543454
503973
516642
509107
580157
639932
683674
618379
556773
537717
477886
485781
649432
539585
582170
525603
441718
15605.5
2740.97
13538.8
126389
120318
217826
180159
211947
66027.1
2281.85
2739.15
2419.94
165956
44603.7
135859
45285.4
13331.6
51979.1
51226.1
15962.6
60311.3
58591.7
16713.3
2451.42
3608.83
3617.87
4177.21
2781.22
2850.1
4395.01
14105.8
57406
53659.5
64377.2
25243
72914.8
18841.3
179652
178609
119213
129473
189238
128473
190022
2293.87
2278.39
2311.79
2818.77
2602.78
2671.26
3030.16
2424.12
4156.28
3699
3407.53
10050
5536.34
6448.32
2350.8
2552
2291.95
3215.09
7900.83
5947.57
3944.22
122661
185783
181806
132324
195914
137807
192460
9076.09
32164
5811.83
7579.22
63721.5
47689.3
11503.8
25179.8
78002.8
82644.3
109580
118404
74334.9
28505.5
87461.6
72162.2
174149
122946
139263
107643
39239.6
142095
200352
212124
161699
164719
140436
200671
14728.6
54929.5
107569
137502
84503.3
21164.2
40746.1
7670.41
31251.1
5570.63
7266.15
61832
45394.8
10431.2
146917
205062
188970
213750
173170
156735
202357
13961.7
47470.8
125755
92814.8
77723.8
37335.4
20391.5
3930.53
28120.7
2633.32
13020.4
162063
85585.5
258734
238581
2522.75
3797.53
4389.57
4258.88
5216.9
13340.1
18229.1
2887.46
12402.5
6131.01
19310.6
8239.53
31519.1
58806.2
62410
16833.3
71194
132184
57558.1
68061
142167
20045.7
100871
27446.6
147101
63093.5
75888.5
159648
89870.6
53003.3
120524
87676.9
173737
119637
158084
79778.3
127334
47027.5
97547.8
193057
175580
131226
189588
197278
133226
145026
241872
204267
195664
160377
214808
222370
248662
212997
177004
204503
141930
163852
366461
341738
598685
455432
307655
290574
150007
206499
192882
211285
197640
250041
246741
179134
229867
219297
217159
206898
257289
268249
389498
267969
309015
345251
271393
312670
393691
341903
236776
283794
287253
239896
293972
346278
289507
353475
278311
320700
417950
333308
403116
258529
295379
247790
302092
369569
355635
314484
358310
554435
420007
362690
560131
425115
460555
371936
490694
574085
452068
435735
385895
472002
172869
4483.55
20088.1
212183
131998
267129
349953
224939
242636
122586
163244
4152.48
342741
235145
275430
184366
65343.9
37052.2
81840.4
48007
90892
126427
110208
6588.18
21599.8
14885.3
31330.3
22387.7
74561.4
95205.7
3756.48
15716.7
12728.1
24906.6
19858.4
65821.1
71629.6
191804
197066
142067
199714
147372
164237
205262
95174.2
169643
116254
177755
245336
229299
184741
135323
80910
62314.2
147567
227817
174648
200771
137014
219354
144711
193360
289122
263571
206513
121513
205506
97374.7
169239
276011
248554
196747
185105
203509
159087
189532
225486
217783
213537
209563
212169
173320
197723
235113
238568
217641
58297.2
120656
54101
132132
175546
182294
133233
95105.5
188027
87802.2
152596
218027
227520
152662
241625
296532
329774
318353
298701
280778
261038
218439
281221
305720
317682
280894
245647
256806
225307
243375
287436
248969
262612
251067
228432
198596
223025
293667
243178
257962
235558
191562
443734
511486
577533
718430
397360
347507
434959
680693
695738
760888
767241
118379
643277
479679
682046
597008
357856
354328
366562
420213
432480
429797
444960
373660
409529
384789
481444
451828
467947
503045
575003
569334
750009
412528
802638
329320
248310
327878
428462
449864
606951
742448
470840
335623
449466
537203
583017
714346
872582
623634
457517
380311
619841
545806
1.10591e+06
839288
268580
258095
305113
278464
327361
314680
338009
552065
455956
369659
532495
723932
677758
235043
295357
338900
305523
393843
357176
367596
403609
367856
374049
413929
389851
431991
482063
432855
285331
350563
306963
391068
344721
368579
416172
418727
490126
458194
514302
476536
516572
552133
371326
480796
395950
465796
382305
407537
502241
431465
506176
484597
537248
514462
577334
588900
406796
430519
459695
452739
486755
548590
511004
523452
418538
466711
536585
541779
595767
483319
456860
591129
506889
558900
588139
641925
506007
378108
416259
438029
424285
448136
494304
508654
754312
1.23705e+06
622857
927331
712169
369987
500704
320561
467325
549965
732761
511171
878720
408897
470164
363120
811115
695953
828322
657408
737291
660068
780288
400208
528506
916033
836059
811551
1.09456e+06
546329
961120
442240
416653
470999
428443
543409
494295
502002
549484
437672
474563
443899
557756
522588
530251
565684
349358
330125
363084
382807
424629
438632
396087
400132
371999
408688
436204
481281
490687
446774
406180
346050
381316
459289
443489
487986
416402
480215
486302
456880
547470
611382
577551
582663
462381
481056
443054
514476
583387
534018
562452
446441
385377
422278
508740
494046
538963
464875
460918
613113
515949
531409
567708
627672
476893
439035
436138
478992
476576
523988
564844
515044
487097
560998
517739
610623
560755
594082
643613
628799
661623
571798
580977
746061
672583
638312
663608
802080
626617
642751
834311
677811
834212
514736
589018
560977
650779
622450
687035
701765
481496
485100
527752
538337
583426
649681
607784
553712
676040
528699
592189
581996
648840
499970
535618
757264
581389
598824
716217
786008
555217
231608
182671
310616
305431
343805
335503
447551
463989
197401
221148
228078
265107
271986
283644
281208
213943
243683
234958
290477
279715
288487
298165
288173
345218
251845
291214
254897
308175
349196
270051
298715
260856
315007
371857
326834
358024
338151
408274
410338
414742
342856
345017
418012
354581
429494
416753
351517
442051
426674
363721
368066
518653
415048
371873
525404
452541
419982
383431
451646
397795
546932
467777
487464
573166
367949
378507
334978
398384
493929
435236
448729
470800
528998
600111
440597
627659
555566
486542
871477
955952
884844
671325
738066
718357
701503
689375
797224
766928
596361
677125
618628
654050
605470
522810
573666
476914
524427
609561
557615
540842
430303
567606
483948
446807
394673
380544
543557
665806
522725
666409
544115
567236
678028
470702
527831
429172
441998
486990
554926
625969
548062
530147
500853
562265
651747
615241
595094
514146
470699
414668
441704
657245
558597
506750
541011
618131
666880
585080
719899
665823
625265
772844
636157
827939
743210
587402
629738
680736
702915
748492
709326
562839
615661
654396
602003
631463
558908
548594
659871
733563
652127
773531
631195
775952
755274
705179
843810
694631
907596
679296
596727
637881
596487
554156
633563
684605
444589
475595
417826
517017
662517
560759
612249
604893
489720
522148
632045
725198
761339
593010
141260
600812
618370
101311
175560
164381
721598
614605
621536
646599
755110
696841
673969
560671
587831
709706
753671
677478
818593
895611
638231
742072
898447
839632
707797
647202
681662
748728
859910
708327
704136
639965
622903
780966
768591
622785
700416
576280
600703
694569
641903
690651
406584
517497
454713
564668
484472
560782
669170
794465
817343
847804
745460
701305
697681
647548
705583
636329
544109
892571
676786
588595
752861
1.11647e+06
1.00335e+06
1.03901e+06
790484
792687
898953
864177
479630
639132
684805
710255
619621
537504
561245
472951
571512
482747
713331
579425
604087
728327
691197
699298
556286
764609
627686
654559
737800
780059
772786
931595
793225
702431
756728
856098
321408
626959
688225
493405
520827
793841
784215
543969
351576
385072
376978
418354
409976
450187
492457
430205
386822
460753
510168
451921
555838
654898
470857
692285
518794
742583
572402
644790
773529
444642
617552
486506
706423
546624
618473
768818
690966
696127
604076
626995
676721
698276
707238
686938
624812
531153
738266
652755
555504
697961
565696
481935
539008
715550
621266
686775
747739
636066
747254
786487
781218
719641
693500
679686
728299
720218
677594
671958
684556
714996
607900
892632
1.08127e+06
978579
873796
772250
722888
802652
824384
888221
959547
1.20594e+06
777870
1.07093e+06
993572
656963
729424
666555
640198
690733
693143
723809
817084
897529
882130
1.07994e+06
1.03384e+06
999087
771934
773174
489452
604507
583104
756095
744098
811047
779963
706058
795194
755267
768313
588567
732323
649382
755394
787962
795156
714641
549312
714719
636750
617981
523038
674314
766050
763050
766717
723466
729604
621584
713217
636166
713979
763143
1.18185e+06
1.12393e+06
1.15524e+06
1.1469e+06
1.0848e+06
1.02871e+06
964175
934619
583797
714142
815671
824171
1.01366e+06
956019
727541
718404
714598
640956
622541
732726
729208
805917
769680
745800
743027
565649
698468
750045
147072
11834.9
125625
12882.6
125608
139723
76472.6
48776.2
97803.6
101396
136989
139446
100368
100655
129349
75422.5
47259.3
6954.51
5901.31
52230.2
8628.22
57792.9
88543.1
130960
88712.9
127254
89789.1
98979.2
125565
77740.5
7127.93
77867.5
22434
79912.1
12902.2
76351.6
97294.2
121903
87508.4
88386.1
126376
89630
123767
99568.3
130398
98888.2
97116.7
136926
99663.6
127152
77674.6
8104.35
14112.1
77751.7
22617.7
79818.6
13031.5
58946.3
12768.8
7771.61
75490.2
6005.49
52760
8748.78
40134.1
11430.5
37160.4
16891.9
41522.8
15172.4
35246.6
61444.5
77853.4
52110.9
77883.6
57540.7
78429.1
57275.5
47819.8
73473.3
56076
76372.6
73734.7
54665.3
49830.7
22780.6
6700.31
7353.86
23529.1
6731.52
25757.2
21775.4
20244.2
6055.36
19128
5915.31
6123.18
20762.5
18882
23556.4
30895.7
7995.83
6373.41
6303.35
29065.4
24907.8
104980
88912
89308.2
103432
104508
89580.8
103511
105048
103557
89021.2
89437.6
103610
89652.9
104628
121463
126780
122524
126781
121128
121108
128337
105109
89235.2
89283.7
106560
104790
89257.3
104743
63285.1
78461.4
61296.8
77969.7
60335.4
78504.4
63907.7
36127.1
8757.64
8762.04
26105.1
30838.8
11676.9
30828.9
63309
61368
78542.6
78062.4
63960.4
78546
60378.9
44201
20882.6
46514.1
20877
45503.8
45498.9
19146.1
65949.5
79563.9
79601.8
67508.3
66825.7
79213.7
66800
40134.4
37157.8
11445.8
16877
35260
41510.8
15168
60796.6
77907
50668.6
77940.4
56434.3
78395.1
56444.2
103452
88326.7
101553
88245.3
102563
102204
88904.2
103930
88868
88689.2
102886
102968
103588
89058.8
119896
125285
121917
126077
119748
120450
126719
104317
88877.8
89029.7
106287
104112
104351
88851.6
63686.8
77862.1
61920.3
78320.2
61093.6
64173.6
78448.7
37385.8
28210.9
9962.11
9653.5
32738.2
32292.2
12615.1
41122.3
38476.4
12710.5
17706.9
36841.6
42333.1
16071.8
63555.4
77990.6
78436.4
61414.9
63995.4
78490.2
60720.5
44675.5
21368.5
46638
21034.6
45875.1
45665.2
19644.7
66014.6
79355.8
79485.9
67475.7
66773.4
66811.5
79077.3
40797.1
11999.6
37400.8
17032.8
41762.6
36037.6
15704
24389.9
25417.7
7383.85
8157.25
23623.4
27351.8
7349.6
48559.3
76385.6
73582.9
56307.1
50129.1
73966.1
55141.3
21060.8
6311.47
19524.8
6036.37
21202.2
19636.6
6409.2
24510.8
8491.69
31208.4
6494.54
25280.1
29938.1
6681.08
103422
77074.5
9835.75
5236.88
239411
210086
326478
271920
5630.02
10428.9
11879.1
28250.6
31435.1
65003.5
59429.2
6761.03
26936.5
16032.8
57550.9
39809.8
77996.6
100028
2368.62
56902.7
2319.8
17812.7
2878.48
2498.78
2523.26
2549.16
2568.5
2617.24
2590.87
2487.51
2479.27
2477.08
2492.78
2492.37
2490.9
2546.62
2475.44
2470.28
2449.85
2350.48
2525.41
2273.44
2293.37
2187.06
2966.36
3070.66
2206.25
2345.7
2484.18
2482.42
2281.25
2402.26
2549.52
2316.19
2622.83
2231.56
2180.97
2207.83
4590.92
3398.63
2385.82
2269.13
2387.76
2469.04
2254.07
3443.67
2760.22
2280.58
2591.26
21708.5
3905.72
5128.16
4466.5
5846.54
2516.87
2803.7
11613.3
33360.7
15222.7
6108.95
8047.48
3531.52
30147.7
84860.2
35748.5
114591
162306
168713
105576
106238
215248
113063
159953
240921
245835
153020
48549
131637
71731.7
131131
195302
180428
153995
151246
225132
128025
174185
267032
255153
192754
5329.43
3698.55
3378.88
121332
3050.13
151055
212534
179464
3014.05
2975.46
2993.93
7327.37
7542.02
8255.55
7888.62
3177.19
3136.55
3036.53
9548.06
8044.35
9219.47
11732.6
3860.7
3263.54
3188.44
10522.4
15304.2
16893.8
9752.17
4286.91
3917.74
3451.04
12460.3
29326
20680.5
17262.2
38370.1
125429
39966.2
44850.4
132716
42459.9
137875
51657.2
134911
43647.8
50270.4
165625
148893
61035.9
55915.1
73214.9
152889
184877
78358.2
52374.7
158298
63875.9
109846
186854
196217
89635.4
169364
79542.8
2640.01
2306.99
2612.67
2491.7
2808.75
2734.93
2288
2265.98
2810.73
2744.31
2734.68
2711.05
2782.88
2781.13
2721.96
2769.33
2796.55
2674.64
2697.12
2720.06
2695.49
2766.47
2654.01
2698.11
2688.79
2684.04
2743.03
2737.73
2693.34
2296.42
2322.84
2313.03
2628.18
2609.96
2583.97
2603.27
2570.73
2625.82
2666.09
2688.84
2642.53
2667.38
2720.41
2277.29
2274.64
2294.07
2519.94
2555.07
2587.38
2558.27
2314.13
2271.96
2275.48
2438.62
2469.1
2536.6
2556.67
2357.89
2321.18
2271.87
2378.36
2277.34
2442.37
2505.86
155019
41084.4
147882
11650
128465
146884
59419.3
41828.4
44218.8
11295
43271.1
12394.8
42377.7
46185.2
11782.9
98081.7
122330
95629.1
98175.3
129489
97365
135637
75563.6
7984
9988.55
49800.4
6715.2
54197.4
13477.7
44692.2
51091.2
10950.5
11789.4
13926.2
45164.3
12055
49752.6
76443.5
57290.6
73840.2
51538.9
74165.1
56011.2
25397.6
25956.8
8606.86
7653.67
24339.4
7792.27
28205.5
26225
32951.8
9312.92
7503.7
27491.9
7403.1
31287.7
22905.8
6825.09
21603.5
6919.33
23406.9
21450.2
7052.6
41433.7
10755
10925.3
40886.4
10611.5
42151
11093.9
97154.3
142686
98522
134432
98845.1
97919.2
140478
144307
97943.2
97850.9
97625.9
136827
97614.5
141866
151068
98979.7
98031.8
151023
97287.3
97100.1
145884
159148
3628.89
42114.9
153598
42322.5
117909
13118.6
112941
12653.8
3690.28
2717.55
2575.62
2380.73
2601.33
2240.55
2436.18
42842.4
11273.8
11525.2
43283
11482.5
43473.6
11319.9
3722.19
2785.41
2806.17
2691.91
3667.89
3621.15
2727.26
41920.5
11044.5
11031.1
44218
11457.2
43403.1
11272.9
3649.75
2711.82
2751.33
3555.28
2582.47
2639.21
3577.53
150961
99923.2
99746.8
103028
156929
102592
158951
2737.93
2698.8
2677.5
2612.52
2579.62
2643.6
2543.86
12596.8
48235.2
47827.5
45363.6
11767.7
45223.3
11736.3
2616.68
3702.67
3712.82
2574.24
3590.02
3576.71
2589.98
156027
101532
100279
163724
105862
103900
160974
2636.42
2686.16
2638.69
2499.91
2453.78
2562.16
2494.96
12826
50732.3
49189.7
47317.8
12365.1
45968.2
11895.6
171484
170239
112050
107502
163079
106858
164645
2556.7
3512.84
3661.2
3629.39
2566.23
2563.5
3582.26
2459.39
2481.9
2500.03
2497
2462.03
2517.4
2458.89
114846
176505
173524
169511
111288
108823
166633
2357.21
2258.25
2430.96
2466.04
2444.92
2477.97
2458.38
3629.61
3677.65
2782.78
2687.45
3370.88
3667.62
2986.04
2852.64
2884.74
3673.49
2845.5
3539.11
2827.77
3660.29
2895.42
3362.39
2991.61
3001.97
2947.39
3284.66
3629.65
2932.04
3692.4
3674.92
2885.78
2928.48
2973.37
2925.24
3711.06
2973.39
2917.07
2911.67
2926.97
2880.95
2940.33
2876.68
2932.1
3358.79
2942.59
3398.88
3361.92
2867.32
2993.48
3040.52
3359.48
2936.13
3178.11
3249.25
2937.35
3010.76
2963.32
2980.04
2999.82
2937.82
2964.97
2843.01
3021.32
2941.77
3162.71
3309.03
2817.52
3270.32
2874
2805.46
3651.73
2770.7
2804.19
3618.36
2823.91
2862.78
3668.03
2900.59
2951.15
2812.08
2856.79
2895.23
2894.3
2851.2
2802.29
2762.61
2748.93
2856.03
2828.13
2875.44
2815.98
2720.42
2757.71
2726.19
2789.2
2752.61
2827.81
2790.9
196000
232233
304154
201060
307450
236093
275594
211327
254163
294651
314950
243342
283658
224632
194358
723721
257879
483298
384787
770412
407218
635655
324897
210080
243209
230535
248479
261252
283611
303951
504994
289606
543356
675316
742437
768711
507678
231059
314545
300762
271888
285118
329838
360583
305321
408593
326412
439509
351101
373784
469300
273764
346960
293820
388737
331813
354046
413304
326117
348659
333969
372302
388207
396700
441549
384819
440064
353106
401904
567429
436921
510405
349857
374157
319535
381389
487156
444860
414926
9302.79
245805
226078
157047
232313
238861
51715
277662
233167
341858
2945.25
447854
595448
230706
225717
17142.8
204891
360163
30641.9
179948
73107.6
2681.24
66189.8
3626.75
2416.62
199298
217883
113718
311460
426059
275612
382250
202326
22361.2
85908.1
425859
337774
380292
293363
2439.76
2431
2439.34
2219.62
2305.66
2211.87
2591.34
373573
258406
254936
631428
624930
629330
623547
260872
622682
613792
305483
281256
628593
623718
86156
212808
134797
351502
272469
192231
273668
142269