/*--------------------------------*- C++ -*----------------------------------*\
  =========                 |
  \\      /  F ield         | OpenFOAM: The Open Source CFD Toolbox
   \\    /   O peration     | Website:  https://openfoam.org
    \\  /    A nd           | Version:  9
     \\/     M anipulation  |
\*---------------------------------------------------------------------------*/
FoamFile
{
    format      ascii;
    class       surfaceScalarField;
    location    "0.00115";
    object      phi;
}
// * * * * * * * * * * * * * * * * * * * * * * * * * * * * * * * * * * * * * //

dimensions      [0 3 -1 0 0 0 0];

internalField   nonuniform List<scalar> 
27242
(
2.86335
0.894127
-2.24296
13.8724
-13.7858
5.16962
-4.63396
0.728008
12.254
-12.3025
0.709907
5.65311
11.6402
-11.7264
-2.24776
1.66721
-1.24482
2.48252
7.53842
-6.70647
-2.56467
-2.15495
2.40722
3.06835
7.80305
-6.70498
1.76995
-3.84081
-2.05683
4.19968
7.39657
-7.38546
-2.00211
2.03165
0.436768
7.77702
-6.50143
-2.8044
-1.89804
3.36588
1.93389
7.56184
-7.27609
-3.79744
1.80438
4.0184
7.01927
-7.1788
5.37942e-06
-0.000178805
-6.80191e-05
6.93077e-06
-3.62395e-05
6.24275e-06
6.83874e-07
7.54127e-07
-2.37768e-05
-2.50735e-06
-2.11237e-06
-8.37814e-07
-8.61303e-06
-9.76473e-07
-5.10452e-07
-1.80414e-06
-7.44589e-07
-4.36399e-07
-1.13352e-06
-2.42626
0.0397206
0.220312
-1.92005
-0.00202544
-0.00756313
-0.000686132
0.000215854
0.000192671
2.27003
1.34427
2.14037
-3.82105
-3.13596
-4.02833
1.85146
-1.37497
-1.55483
8.83341
-8.10354
1.01718
0.929036
14.1334
-14.0828
2.37242
0.434487
-1.76474
8.7588
-7.93408
-13.9566
0.8346
0.744592
2.76722
-13.6397
-2.1656
0.756709
3.20255
-10.2769
-2.13436
0.537191
3.32792
2.28722
-10.4063
-2.3353
-1.71493
0.376483
2.5571
7.37586
-6.50132
-2.12801
-1.25232
7.86594
1.68323
2.01511
-6.48718
-2.11813
0.401726
7.51374
-6.26323
-9.66924
0.445096
3.27399
2.11687
-9.69994
-1.56005
3.36427
1.49012
-8.3528
-1.71115
0.372371
1.60244
1.35452
-8.10427
-1.64458
-1.24567
4.45422
-0.817625
-3.88349
1.35244
9.96469
-9.61412
0.838668
3.46335
13.6244
-13.5798
2.20691
-1.47156
2.34392
8.74172
-8.02701
-13.2784
0.83367
3.34529
4.99591
-11.7442
-4.44794
1.07662
3.40809
-10.3907
-2.51791
2.86961
3.6758
4.40681
-10.0673
-3.31105
-3.97251
2.43965
2.1044
7.54915
-6.66409
-2.54756
-2.39062
2.06557
3.11953
7.99329
-6.67424
-1.62457
-2.42322
2.1217
2.06539
7.7624
-6.34032
-9.59217
3.41104
2.6566
3.72677
-9.06202
-3.51544
3.48583
1.20721
-7.74579
-1.55021
1.82505
0.308678
0.554365
-4.28627
-0.725014
-1.34563
-2.23313
2.75545
0.459571
7.77475
-6.95005
-2.03141
-0.876351
2.06796
1.30743
7.91188
-6.65061
-2.2762
-0.922055
2.80332
1.39039
7.76392
-7.21893
-7.98942
0.346745
1.53899
1.40776
-7.59767
-1.11889
1.33649
-4.47407
-1.2374
0.0855986
0.36955
0.200814
-2.62326
-0.693987
-0.265368
0.139
0.828577
13.1403
1.25729
-12.7725
0.983127
14.0906
1.59946
-14.0165
13.1452
1.41963
1.18969
-12.7613
-0.78287
-0.837596
1.44749
0.887541
13.216
0.861976
0.880163
14.1237
0.9228
13.2052
1.58071
14.0855
-1.99805
12.9608
0.994558
2.58294
-12.6229
0.9479
14.0126
-13.919
13.0991
1.09072
-12.7243
2.0822
-0.811869
0.850154
13.1609
0.77127
-2.24136
2.87791
13.8553
0.83877
2.69497
13.0061
14.0083
-1.82616
-2.0431
2.34147
7.7427
2.28449
-7.1556
-1.91123
-2.79676
2.38054
7.28837
-7.33181
3.20525
3.00404
-2.46469
-2.99621
5.62451
-6.80779
2.47928
-7.20627
1.52012
1.13176
0.215009
-2.43295
-0.742962
0.134441
-1.59312
-0.375615
0.0998932
0.063756
0.00227611
-0.102477
-0.00901611
-0.0109482
0.00146935
-1.71279
8.86253
2.34072
0.907784
-8.05413
0.580618
11.0095
-10.3784
11.0739
1.08068
-10.4351
-0.635
1.44495
1.24076
11.4879
-1.47267
0.5229
2.28839
9.46903
11.4229
2.28484
1.07461
9.56619
2.55153
7.48834
0.82094
-6.64498
0.36609
7.0357
2.52136
-6.02967
7.14194
2.52374
0.791116
-6.17039
-2.49117
-0.431216
2.45855
0.904476
8.64764
0.45071
2.48011
8.47738
0.94845
8.59066
2.44544
8.56139
0.371221
7.18095
-6.03203
-2.13977
7.66979
0.831022
2.02825
-6.3763
7.30823
0.793899
-6.1697
-0.432867
2.11511
0.910345
8.63022
-2.10117
0.450197
1.95499
8.38973
8.56247
0.93695
1.97256
8.43555
2.52039
7.5361
-2.2902
-6.70988
-1.19979
7.26087
2.4641
1.61083
-6.29643
7.21022
2.49894
-6.25635
-2.49284
1.35717
2.45847
8.69804
-1.41258
2.50726
-2.29794
1.88082
8.72596
-2.28416
8.66888
2.46774
1.82466
8.72172
-1.63328
8.88794
-8.12204
-1.59201
10.9755
2.13688
-10.395
11.0774
-10.4555
1.81448
1.42085
11.462
-1.42172
-1.57911
2.08065
9.53719
2.38273
11.3056
9.58771
3.1767
12.7231
0.916949
-12.4716
0.798951
13.2602
4.05667
-13.249
12.393
0.851869
3.77461
-12.2412
0.744195
3.49207
13.5793
3.28351
0.849026
12.7448
-0.738525
0.871355
3.85055
12.3854
4.07783
13.1676
-0.86449
1.46817
4.98329
9.69341
-9.36129
-11.3791
1.14647
5.5213
-6.18162
-10.2804
1.0571
-6.46207
0.956511
9.99364
-9.98566
3.67114
-9.77509
-3.3777
4.67582
1.861
-2.53599
-4.35441
-8.09057
3.46754
-5.61164
-2.50328
9.12548
-8.44947
-1.20542
7.52553
-6.30776
-2.13581
7.82836
-6.44003
7.4129
-6.2526
1.38045
2.10101
8.63899
-2.07081
-1.4257
1.93401
1.9399
8.2824
1.87587
8.57806
1.96708
8.40357
0.452826
7.84539
-6.68975
2.05822
7.86416
-6.59109
7.91269
0.901649
2.26176
-6.78665
0.462103
1.99576
8.16466
2.01282
0.950979
8.20147
0.462905
2.34012
8.02838
0.949484
2.36199
8.06105
2.71105
10.7908
-10.2682
1.38755
10.5553
3.29764
-10.0982
8.63583
2.17486
2.85251
-7.92178
-1.43856
2.59494
2.32774
9.46776
2.94842
11.0817
1.48514
3.50263
10.8237
2.39747
3.11575
9.40711
0.758469
12.806
-12.8266
-4.35662
11.4995
4.90574
-11.475
11.9667
0.815847
-11.9039
4.39224
-0.730463
0.911912
11.9289
0.719056
-4.62942
5.131
11.9842
0.986155
4.90202
11.3997
12.6448
13.1705
-0.753789
-0.780177
1.43652
0.901044
0.789812
0.847505
0.743786
-13.9336
1.53208
0.724368
-13.1551
1.12524
1.40191
1.1171
0.921248
1.55462
2.03682
7.36015
-6.30266
2.40577
7.62052
-6.64888
7.57314
2.38933
2.48802
-6.3404
2.53774
2.3724
8.81817
2.33267
2.49089
8.73639
-2.60532
2.54711
2.88912
8.71265
2.89498
8.94991
2.15054
7.90271
1.9899
-6.54541
2.10331
7.9224
-6.43445
7.90614
1.95719
2.68763
-6.71172
-2.03993
2.46429
1.90692
8.16424
2.41372
8.46841
2.02428
2.97023
8.30233
1.84815
2.97797
8.00781
1.35095
7.92343
-6.86486
-2.0596
7.87043
2.28053
-6.95781
7.92346
1.75473
-6.70423
-1.44343
1.98552
1.95178
8.11962
2.00877
8.19481
1.44236
2.36216
8.0141
1.94482
2.34116
7.8798
-3.60159
-2.63103
4.2989
8.22749
2.5916
-7.21901
-8.73145
3.26431
3.7505
-2.2
-4.71682
0.309915
-5.5179
3.59847
8.39608
-8.34238
0.0758326
-1.77314
-0.278688
0.11094
0.000217781
-0.00145949
-0.00268751
-0.0163248
1.02728
-4.08283
-1.77619
2.91285
-6.43692
13.1071
2.08074
-0.762678
0.894985
0.736447
-2.21563
2.85163
0.73151
-13.8435
-2.02822
-12.9161
2.62703
1.26686
1.16286
2.69246
0.922561
11.6936
-0.644082
1.61101
1.29049
-1.61954
0.54554
2.60536
0.62642
-11.6208
-2.14222
-10.3753
1.14252
3.21882
1.2737
1.13274
2.62025
1.33683
10.257
-9.86361
3.38451
8.56379
-7.84151
8.54955
2.19211
3.92786
-7.79833
4.03981
1.58358
10.5306
-1.75591
-3.64279
2.74049
4.17695
9.51435
4.5513
10.2478
2.52547
9.41445
0.723303
3.46358
-12.5916
3.20861
1.40463
3.27247
0.978377
12.193
-0.719831
3.82322
1.06641
0.913268
-12.742
3.89969
3.78177
1.57179
4.04373
5.42081
10.977
-10.973
0.689958
10.971
6.08132
-11.1263
10.4413
0.982885
5.88683
-10.4661
0.729753
5.56691
11.3696
5.37728
1.17839
10.8869
-0.878293
1.48656
5.83136
10.5359
5.97318
10.8943
2.99489
7.99818
-6.46656
-2.46695
8.17628
2.44289
-6.73933
8.08755
3.62425
-6.86772
-2.73089
3.47807
2.64832
8.596
-3.46072
2.93094
4.05656
9.03705
9.05112
2.75763
4.00478
8.40022
-2.15772
2.54803
3.44878
-6.31356
1.84105
-0.873403
0.0276683
0.0390323
-0.000898582
-0.00529956
6.42636e-05
-3.38832
0.734458
1.35065
-5.60455
-0.0240153
-0.00172487
0.000429424
0.000286844
-3.98371e-06
-1.04166e-05
-6.29079e-05
8.44601e-07
-0.210561
-0.0920418
0.0381351
-0.549033
0.0149878
0.360379
5.66848
4.90653
-5.59733
-5.00469
0.00775711
-0.010059
-0.227485
0.010083
-0.0789153
-0.405788
0.002563
0.0238515
-0.171626
1.6349
-1.22182
4.67436
5.49306
-5.56432
-4.92808
-0.000512391
-0.000237355
1.57688e-06
3.9488e-06
-9.22281e-05
-5.98356e-06
-0.000188902
0.0966935
-0.132284
-1.16882
0.0943869
-0.958825
11.6755
1.88192
1.63407
-1.69911
-1.67009
2.73048
2.20257
-1.86726
-11.5197
2.44529
-2.20785
-10.4192
3.26261
2.45241
2.65853
-2.78517
9.17103
-0.441286
0.962215
2.63686
0.468485
2.7613
-9.74306
3.2908
1.00204
0.410584
-9.13651
2.62593
1.0087
0.939067
2.63696
2.61793
2.24817
7.88926
-6.8058
2.00269
7.76153
-7.03993
7.5559
2.87942
2.27932
-7.28101
2.46245
1.96087
7.96276
1.92003
2.92377
7.69692
2.42359
2.29723
7.65487
2.81722
2.20682
7.29597
-2.82427
9.13647
1.47955
2.65478
-1.52596
2.89049
2.05545
-9.75604
3.32287
-1.47497
-9.02311
2.61567
1.99301
2.63261
2.67876
2.01449
8.779
-0.440331
1.98804
0.955553
-1.97454
0.444681
1.82424
0.394872
-8.74013
-1.7177
-8.37269
0.817777
1.48495
0.886872
0.947913
1.83351
11.746
4.35273
-0.744246
1.23034
0.865966
-4.55816
5.02771
0.994502
-12.191
-4.34492
-11.368
2.03509
4.89656
1.792
1.45047
4.86721
3.29361
7.79411
-7.07824
-2.02231
7.60082
1.85331
-7.34048
7.9298
3.77292
-7.09121
3.4818
1.98552
8.15367
-1.93046
-3.39948
1.64784
3.63655
7.24283
3.86994
7.88252
1.77146
7.71897
0.455547
7.56479
-7.32188
3.41206
2.78629
7.80656
-7.05962
7.60266
0.932759
-7.3871
3.42989
-2.81839
0.41995
7.18863
3.06173
0.452402
7.746
2.82384
0.935889
7.75293
0.884151
7.16284
3.04886
1.88578
7.4037
-7.33136
-3.35747
7.12371
3.68511
2.19751
-7.21637
7.43753
2.26608
-7.33117
-3.24864
1.67334
3.38211
6.65378
1.83695
7.28065
3.0472
2.04422
6.76334
3.04024
1.79246
5.76667
8.73635
1.47736
1.97908
-1.94926
-1.45802
1.95863
1.7698
-1.37584
-8.60091
1.8091
-1.69673
-8.29526
1.4434
2.00281
1.81544
-1.79788
2.74649
2.84269
-11.2989
3.01797
3.01053
11.0595
1.94805
3.55568
-2.75695
-10.3728
3.50079
3.44146
3.58732
3.00714
3.29743
1.41479
7.57379
-7.41574
3.43003
-2.81194
7.47344
-7.40564
3.29842
7.64881
1.88162
-7.2885
1.42337
2.77938
7.66277
-2.70814
-1.3375
1.73783
6.67969
2.85386
1.89775
7.46742
6.98025
2.98281
-0.132941
0.00438363
0.00516865
-0.04227
1.9456
-2.27506
1.52766
2.63251
-4.58307
-4.13983
1.98283
4.39573
5.25698
-5.48774
-4.84673
-4.54258e-05
-8.9263e-05
2.31681e-06
3.53557e-07
-2.17442e-06
-6.03275e-07
-3.28638e-06
-0.695865
0.050676
0.0475753
-0.579548
0.00125173
-0.0352871
-0.00589891
0.00151586
-0.0304127
4.47114
8.62063
2.3389
-7.82885
-1.71268
8.8359
2.62473
5.01873
-7.92844
9.46868
5.45684
-9.13925
-2.02269
4.73632
3.05868
9.64582
5.03275
10.0386
2.39063
5.49789
10.0097
3.38598
5.35864
9.58521
2.99262
2.60984
-8.94115
2.44629
2.5975
2.56695
2.6903
-3.14315
8.77606
2.75696
3.08305
-9.42394
3.44914
3.14501
3.16876
2.54972
2.77949
-1.9038
2.40175
1.69504
-8.38653
2.13591
2.51254
8.0613
1.83094
2.94291
-1.39282
-7.21458
0.98771
1.79344
2.28785
1.57712
2.72066
0.440546
1.92452
-7.97581
1.52327
0.746353
1.93185
0.927364
-7.496
0.294828
1.57422
0.420997
2.19347
7.46779
0.887031
2.18918
0.632236
1.53505
-1.41638
1.85334
1.87918
-7.83125
1.46098
1.90985
7.30825
1.3469
2.1467
-0.937687
-6.97245
1.12256
1.22178
1.42435
1.75674
2.05655
0.784012
10.4299
-10.5241
-6.30637
9.82068
1.66015
-9.54682
10.0123
1.27942
-9.97064
6.27631
-1.00794
1.79719
10.4128
1.0929
-6.40257
10.2668
2.06309
10.1875
10.5367
10.8542
4.08512
2.15651
-2.46347
-3.86228
3.39677
4.44143
-4.15635
-10.7285
4.71548
-3.11725
-10.2822
3.59147
4.59515
3.21069
2.39396
7.55851
-7.32813
-2.76576
6.98243
2.76622
-7.16486
3.05689
7.41052
2.88569
-7.33459
-2.59258
2.0379
6.1684
2.64415
2.30992
7.10932
2.41571
2.59317
6.6527
2.17932
5.01969
2.31065
0.966802
5.49627
-11.1257
5.42136
2.23299
5.36202
1.71499
10.8438
-1.06715
1.99683
5.87282
1.17442
-11.0155
5.95682
2.30985
5.82537
5.96002
4.24328
8.43958
-7.14685
2.91875
8.63793
4.92689
-7.58626
8.09959
2.82604
4.85656
-7.78177
3.22386
4.61555
8.87551
4.39748
2.8856
8.25609
3.50064
5.03497
8.72579
2.93542
4.57031
7.89375
4.32169
7.7532
-7.48866
-2.01333
6.94328
1.64235
4.3265
-7.23225
7.56985
4.62882
-7.57439
-1.84941
3.6324
1.46461
6.37572
4.04537
7.42914
1.72408
3.94384
6.40086
1.17421
3.09915
4.16422
-3.31839
8.50264
3.5137
2.74073
-3.70016
3.46101
4.14341
-9.21205
3.48874
-2.95104
-8.10464
2.0689
2.84601
2.41054
2.72852
3.77283
2.25892
1.76014
-6.5048
0.825841
1.31509
1.61447
2.50101
-6.3564
1.07943
0.916683
2.06292
1.90897
5.02832
2.19603
1.68144
0.744025
0.519011
-2.06503
9.13762
3.06884
-8.11512
-5.9019
9.46842
-8.83195
9.35237
-8.95988
6.03485
2.86252
9.97342
-3.21982
-5.86676
3.66227
9.09171
9.67459
3.54077
9.31478
3.79673
6.58247
2.02476
-7.06797
1.63116
6.34123
3.99533
-7.03455
1.42123
3.18662
5.24226
5.46441
1.73514
3.55183
-6.77621
2.54762
1.38347
3.4532
0.994328
2.22445
2.25542
0.727495
1.22099
1.11407
7.50827
3.21022
1.74052
-1.61146
-2.85907
1.16539
2.65939
-2.12317
-6.4454
1.47324
-1.13595
-6.30681
0.670803
3.26239
1.41196
-3.26529
6.64295
3.45667
-7.06957
-2.65645
6.50156
-7.06597
2.83498
7.12475
-7.21883
2.69168
2.14123
5.74215
-1.69706
-2.00494
1.29636
1.25929
0.887881
2.42946
3.71048
3.17173
1.73391
-2.85576
4.96091
3.53902
-10.5677
5.18248
5.12024
10.2377
3.23551
5.68905
-3.23608
-9.55596
3.51295
4.72852
5.46398
3.65346
5.32484
5.67328
4.90141
0.787176
-5.59119
-5.00714
0.306486
3.97953
5.07614
-4.77591
0.249401
3.97765
3.15137
-4.84753
3.88688
0.682281
5.00978
-4.78157
3.885
0.562779
3.00983
-4.83619
-0.124407
0.319488
1.26972
0.787882
1.44977
0.857731
5.61987
4.82711
-5.58778
-4.97423
-0.864713
3.13632
1.09652
2.11784
-4.56981
-1.0431
3.14865
1.34419
4.36811
-4.61556
3.6249
4.79658
-4.7316
3.62603
2.67437
-4.75258
0.466228
0.644017
0.974316
0.495189
0.459937
0.676581
-2.36968
0.298114
2.17443
-6.70374
0.200398
0.380777
6.61278
2.34631
0.807735
-1.15923
-4.23487
0.216132
0.317131
0.455932
0.643203
2.10279
6.27739
1.20935
2.26626
-2.11197
-0.949595
1.14079
1.59285
-0.644356
-5.57275
0.678754
-0.978159
-3.68576
0.233436
1.53439
1.92123
-0.395655
-0.213694
0.0345555
0.0409947
0.0341346
-0.472621
-0.000217509
-0.00143387
-0.000509477
5.15105e-05
4.52053e-05
3.4122e-05
0.000621437
-0.0228156
-0.00550341
0.000851175
-0.00440784
0.000662657
7.21073e-07
-8.60851e-06
-4.32261e-07
-1.26103e-06
-9.88352e-07
-2.36472e-05
-1.13506e-06
-2.81905e-06
-2.4584e-06
-5.15488e-06
-4.27542e-07
-1.04819e-06
-7.02303e-07
-0.00268151
-0.000635059
7.20964e-05
9.52277e-05
7.25622e-05
-4.25297e-05
-2.46761e-05
-3.83839e-05
3.30787e-06
3.36935e-06
-0.0207509
-0.0211369
0.00232166
-0.0623104
0.00233387
10.5119
6.35508
-1.13611
2.21078
1.15641
-10.6432
1.15512
-6.4634
-5.99661
-10.0884
2.03193
2.26759
2.26947
4.8326
3.9166
2.22323
-5.33805
-4.71219
1.18197
2.3813
1.38642
-4.24773
1.5241
2.45562
3.61787
-4.43296
1.41875
1.48101
2.47064
-4.12426
1.41616
1.03664
0.81609
-3.68587
0.369047
0.287371
0.39253
0.175685
0.146506
0.187094
-0.00214323
-0.00115292
-0.00457765
0.00017534
0.000141516
-0.000102428
-0.000357358
-3.88784e-05
1.02719e-05
7.47939e-06
1.05732
0.612658
0.929731
-3.57403
-3.34139
-1.38794e-06
-1.70833e-06
3.47495e-07
-0.00765485
0.000242229
0.000314581
-0.00647552
1.48089e-06
-1.54639e-05
-2.08044e-05
-6.25927e-06
1.84949e-06
3.67254e-07
-4.77949e-06
-4.45481e-07
-9.64558e-07
-8.0598e-07
-8.21625e-06
-6.59075e-07
-1.07046e-06
-1.48345e-06
-1.15749e-06
-3.62051e-07
-4.84957e-07
-4.17469e-07
-2.5074
1.02851
2.03802
-4.889
0.446895
1.38558
3.07851
1.98787
1.31238
-0.284166
-1.20095
0.0445398
0.0681528
0.185884
0.77545
1.25237
3.27509
8.54629
-8.18478
-5.18563
7.55298
3.11225
-7.80878
7.96689
2.98535
-7.93719
-5.23701
3.58901
7.82464
3.61294
8.43313
4.52013
2.86022
7.09969
2.33405
5.10838
-1.85216
1.11076
1.11131
-4.30935
0.50968
1.72348
2.58117
1.42863
1.65197
-0.132951
-0.797094
0.0380728
0.0227637
0.22328
0.785831
0.541588
3.53433
4.44911
-7.31449
2.26774
1.37163
3.84319
2.67309
-8.18504
2.55495
3.39528
3.55553
4.57398
5.70587
2.34172
3.56293
0.49991
1.09605
9.99167
6.06423
3.33747
-5.46327
-9.43818
-3.00481
-9.03173
3.02276
-3.15631
-5.48756
3.44232
3.66179
-1.96114
5.85469
1.43513
-7.03754
-4.70262
5.72746
-7.22162
7.10516
-7.44852
3.17585
1.37262
3.93816
-0.639316
-1.52864
0.165995
0.314916
1.18238
0.678991
1.37572
3.38808
5.79
-6.84025
-1.62432
1.12656
1.23021
-5.27631
0.79245
3.44402
2.73225
-6.3234
-0.958753
0.363453
0.405545
0.219638
1.48357
1.41545
0.235646
0.336491
0.402563
0.0614667
0.0911776
0.0392635
-1.33458
1.78657
0.778786
-4.28439
0.522906
2.88364
1.63956
0.810065
1.75157
-0.0650478
-0.531078
0.013579
0.0191964
0.093368
0.307634
0.508149
4.03724
2.94991
-5.07358
-4.49005
-0.623293
0.201434
0.208951
-1.4372
0.161938
-1.09443
0.285392
0.44418
0.406049
-2.33237
0.714808
1.09183
-3.49795
0.569737
-2.7335
0.396453
0.0611439
0.0556127
0.0660063
0.0152031
0.016945
0.0185008
1.31621
4.40878
-6.61485
-2.41293
0.583783
0.400639
-4.15391
2.50663
1.20575
-6.13959
-0.56997
0.0561266
0.115675
0.392761
0.617999
0.211375
0.152158
0.271873
0.0164231
0.0398573
0.179896
1.38966
-4.14359
-2.25122
0.198336
0.113209
-1.74241
1.28671
0.433835
-4.09354
0.168261
-0.0222799
0.0656992
0.129593
0.00148115
-0.189822
0.0125898
0.00470479
0.0109905
0.145202
1.18626
1.16937
0.834899
-0.269995
-0.312185
0.0736922
0.0443955
-0.0680246
-0.439791
0.0140844
-0.0387105
-0.345692
0.00652275
0.429249
0.177054
0.532881
0.959715
-0.392732
0.0120894
0.0084416
0.342836
0.240883
-0.243407
0.00440646
0.00649916
0.126508
0.181242
0.0874769
0.0411455
0.0581544
0.0013128
0.00193757
-0.311367
0.0161381
-0.00830157
-0.120561
-0.246711
0.281603
0.225794
-1.66743
0.414738
-0.179666
-2.1165
0.0315246
0.0474273
-0.0264862
0.0519298
-0.0307788
-0.00100777
0.000750569
0.00104199
0.0244936
0.0323103
-0.000852365
0.00170386
0.0640151
0.574121
-2.50283
-0.374442
0.0212832
-0.15467
0.521302
-2.39037
-0.00856822
0.0615055
0.0691096
-0.0686228
0.000248878
0.00258129
0.0779318
0.00228664
-1.75823
0.151823
-1.3222
-0.646326
0.763258
0.734114
-3.57636
1.06474
-3.92608
0.125711
0.0758953
0.0984046
-0.00514712
-0.0772272
0.00355463
0.00467534
0.00795419
0.056849
0.0621705
0.385341
0.287021
-1.64572
-2.36816
0.142001
0.149811
-0.98876
-0.767453
0.129391
0.512668
0.359396
-2.3906
0.510207
-2.68156
0.0535361
0.0575624
0.062567
-0.673077
0.0217601
-0.170706
0.0143923
-0.0865966
0.016495
0.0168699
0.00185501
0.00210308
0.00228265
-7.23301
1.20223
-4.45117
2.39871
3.33337
2.6501
2.55923
1.44067
-0.209021
-0.774797
0.0247457
0.1454
0.413782
-0.697891
0.267947
-2.44149
0.133421
-1.07569
0.196479
-1.88401
0.983058
-5.10124
0.0516316
0.0309741
0.0757264
-0.0032355
-0.00823649
0.00161216
0.000511923
0.00971286
0.0141418
0.00501454
0.139048
0.156969
-1.08062
-0.0630961
0.00218983
-0.0189604
0.00194081
0.0689754
-0.490739
0.0649563
-0.0163432
0.000405284
0.000521173
0.0134365
0.0163992
0.0068483
0.00559232
0.00667591
0.000169982
0.000213794
0.625241
0.463003
-2.95286
-0.339024
0.0194162
0.0195639
-0.284453
0.238899
0.336111
-2.06336
-0.0388073
0.00177458
0.00222796
0.0307516
0.0325502
0.0156248
0.0122648
0.0136076
0.000679254
0.00085103
0.249747
0.189028
-1.80613
0.227017
-1.71989
0.0432267
0.0502473
-0.426092
0.044942
0.0900151
0.0838731
0.110466
-0.924952
0.0173796
0.0158032
0.0211933
-0.269423
0.00979476
-0.102878
0.0078119
0.00968505
0.0029651
0.00387122
0.00410828
0.000514942
0.000709698
0.000743843
0.460963
0.397525
0.238124
-0.0145802
-0.087911
-0.0107666
-0.114569
0.00186605
-0.0412048
-0.0808647
0.00655003
0.0543581
-0.0518459
0.0131677
0.00870085
-0.119535
0.0026586
0.0803971
0.0235912
0.0082729
0.0133049
-0.000268648
-0.00407316
7.16679e-05
4.51421e-05
0.000436305
0.00207872
0.00132595
-0.0421496
0.000578077
-0.026512
0.00190348
0.017632
0.013958
0.00800422
0.00509551
-0.000268912
-0.00165852
1.74813e-05
0.000164417
0.000526479
-0.75358
1.16444
5.32719
5.41522
-4.66163
-5.13863
5.41196
5.28762
-0.426178
-4.605
-5.11501
0.105365
-0.636662
-1.16845
-0.0184879
-4.65658
-4.83133
3.50532
-0.265076
2.57148
-0.290438
0.0142521
-0.00251805
-0.352928
5.2823
5.41402
-4.58436
-5.10038
0.155993
-0.051642
-3.27746
0.664784
-1.86258
0.615703
-0.266908
-5.56757
3.65354
-4.78119
0.000555922
-0.000148417
-0.0150506
-0.0462596
3.7876
0.383722
5.46659
-3.34757
-4.18996
5.06522
-5.25675
-2.84983
4.13315
-3.91002
3.15807
-4.42432
5.21972
0.385969
5.4315
-4.96984
1.50572
-1.1283
3.96427
5.59134
-3.48453
-4.45968
0.975501
-5.32072
-0.741917
2.50766
-2.72596
0.0611472
-0.485258
-0.0734572
-0.958987
-1.55951
0.0199659
-0.964259
1.70323
-5.36052
-1.253
5.18065
-5.15708
0.218513
-5.50756
2.78522
-2.82527
1.90292
4.03458
5.58799
-3.51418
-4.54456
2.88211
-2.2799
2.92535
-3.19525
2.27426
-5.10446
1.12904
2.2228
-2.5957
-0.015975
-0.00674276
-0.0627446
0.00201524
-0.266638
-0.627277
0.0382617
-4.95627
-2.80564
3.90965
2.90499
-4.65909
-5.37661
2.1454
5.03477
-5.07904
5.2955
-5.24519
-2.05769
4.8013
2.44018
-4.94714
-2.97847
0.235032
0.543405
-1.7055
-1.18292
-0.186037
0.104533
-0.595758
0.101337
-0.124567
-0.0560989
0.00564135
-0.0103247
0.0045027
4.70964
-1.8819
3.79099
2.12
-4.73342
-5.5185
0.958722
3.38955
-4.73441
-0.0116313
-0.036404
0.000698515
0.387861
5.5491
-4.49151
3.85493
5.52731
0.757974
-3.40906
-4.27856
5.58805
0.77936
4.50122
-4.57288
0.36975
4.14502
5.75231
-3.60435
4.1899
0.758455
5.79307
-3.65411
-0.363958
0.76347
4.69133
5.66111
4.64342
5.6416
3.91596
5.57235
-3.45766
-4.37806
-1.16922
5.56424
1.57553
4.66415
-4.75129
5.59838
4.57735
-4.66091
-1.15285
4.24939
1.56097
5.7766
-3.72365
4.22258
5.80556
-3.69257
1.17464
4.72193
5.6392
1.60204
4.68201
5.56027
4.14586
5.5429
2.33347
-3.56531
-4.64633
2.01135
5.4867
4.75333
-4.8889
1.99545
4.28325
5.70295
-3.77509
5.36424
2.47436
4.85567
-5.00593
4.30736
2.44147
5.57263
-3.83448
2.03155
4.63633
5.42231
2.43073
4.54603
5.21423
-2.80105
4.45083
-3.81568
3.31163
-4.96981
4.30515
5.4314
-3.66089
-4.81644
-2.95992
5.12139
4.84798
3.40345
-5.04023
5.2638
4.92342
-5.04381
4.26329
5.36794
-3.89851
2.73631
4.9083
4.38556
4.45002
4.10004
2.90527
0.382182
5.26769
-5.13463
-5.27444
5.2867
0.812268
-5.17342
5.44785
0.798613
-5.02581
4.91953
-0.349441
0.75306
5.32612
0.313667
-4.90233
4.74351
0.697791
4.71009
5.32782
-0.379341
4.8235
5.24225
-4.64728
-0.423385
5.27688
5.54502
-5.22165
5.22939
5.38971
-0.0354937
-4.5066
-5.05618
5.26183
-0.0366435
5.51389
-5.18584
4.80864
-0.0355326
5.25033
-4.6361
0.341211
-0.0332666
4.60198
4.68263
4.54319
5.22663
5.39046
-4.49999
-5.05042
-0.346755
5.28028
0.759399
5.5451
-5.21775
5.26239
5.51244
-5.18383
-0.305668
4.83289
0.686431
5.25354
-4.65957
4.81127
5.25347
-4.63655
0.272566
4.61184
4.68919
0.628844
4.57402
4.67864
-1.21742
5.36837
1.65419
-5.09976
-5.31946
5.26305
-5.18607
5.41252
-5.06863
4.89726
1.16721
5.26903
-1.08335
-4.82723
1.43281
4.3154
4.58534
1.58034
5.13681
-5.5094
2.76326
0.475371
-2.82691
0.321624
3.87228
-3.54462
3.89028
0.682661
-3.57334
-0.294985
4.97053
0.645939
4.00558
-4.99627
0.161465
2.21442
4.00321
0.369703
2.14737
5.36535
5.39246
1.59148
-4.7265
-5.16231
1.18802
5.25211
5.55174
-5.22062
1.08414
4.81404
5.19662
-4.66299
5.16499
1.62483
5.51654
-5.1797
4.75175
1.47972
5.06704
-4.64833
0.992903
4.43444
4.59452
1.32677
4.14165
4.4136
-1.06036
3.8426
1.43807
-3.58817
-5.45322
2.67962
-2.79795
3.88155
-3.58802
1.00835
4.86168
3.96199
-4.62794
-0.571495
0.704497
1.66726
1.34926
3.85716
1.97185
2.11904
5.32013
-5.12065
-5.25807
4.81783
2.53673
-4.92616
5.21302
2.58629
-5.11151
-4.70524
1.71026
3.81309
1.95814
4.92669
4.49324
2.25415
4.59641
1.85829
2.95792
-2.04735
5.21851
-4.89792
2.50142
-5.15136
5.33688
5.33276
-4.81251
-5.17337
5.01746
5.44173
-5.09642
-1.84399
4.42404
4.52295
-4.52561
2.13727
4.63767
4.86148
-4.60989
1.59482
3.60189
4.08693
2.69917
3.51211
1.73813
1.79447
3.76747
-3.572
-4.7539
1.77368
1.13339
-2.36137
3.62799
2.08988
-3.52173
-4.16363
0.713309
1.23052
1.63895
3.66793
3.36471
1.8297
3.34785
0.569294
0.708903
-0.915634
0.520602
-1.35842
0.499554
-4.09175
1.16086
-1.96446
3.37344
-3.41121
1.83518
2.26501
2.78363
-1.15933
-0.304417
0.0986485
0.108374
1.88259
1.51596
0.294378
-2.99831
4.73352
3.28975
-4.85851
-5.14129
4.50064
-4.82005
5.02388
-5.03672
4.11012
2.42876
3.99163
-1.75884
-3.41979
0.824096
1.26507
1.67167
2.81798
2.37312
-3.20672
-0.0780234
-1.82014
-3.45648
-0.176306
1.98004
-0.26745
-3.86796
-3.36942
0.703125
-0.00427732
-1.90122
3.51407
-0.0284939
-3.87103
1.26471
-0.0178575
2.11234
0.00255343
0.118937
5.55558
-0.398214
-5.0182
-3.59733
-0.129868
0.611953
-0.334685
-4.7702
-5.55636
3.7267
-0.0327886
-4.7687
4.84618
-0.0366257
-4.98934
3.63525
-0.0270658
2.72122
-0.00989267
0.677958
-3.39298
0.714439
-1.91633
-0.209267
3.49077
0.490466
-3.88695
3.52532
-3.87763
0.13292
1.27965
2.1328
-1.20742
-0.0112375
0.0382168
0.110847
0.337009
2.03631
0.121183
-5.55901
3.74628
-4.77195
-0.321724
4.84741
0.72829
-5.01946
4.85108
-4.98931
3.65433
0.208867
2.74423
-0.0918845
-3.56342
0.26001
0.637215
0.688024
0.492286
2.63296
3.70659
-0.25355
3.70349
0.56613
0.171653
-3.74213
-1.4683
-0.886836
0.058801
-3.82033
0.0798337
0.405294
0.20956
3.57927
0.874995
3.40256
-2.8753
-0.30528
0.323499
-1.26149
-0.722996
-0.619672
-3.31651
0.742108
1.14204
0.778137
3.35948
-3.84821
-2.56083
0.353565
0.248832
-1.42998
3.09661
1.02709
-3.74675
-1.03973
0.0503316
0.088125
0.526693
1.7927
0.794132
0.632843
1.38205
0.0441008
0.0586961
1.14557
4.77839
-5.01313
-5.38793
2.91416
1.2457
-4.61826
4.60276
1.5436
-4.96264
-3.30073
0.386507
0.527089
0.773798
2.3494
2.82532
0.987579
1.6968
0.408824
0.38393
-2.1392
0.243958
-2.86617
0.709354
1.31009
2.16535
1.33948
1.30081
-0.357071
-0.128501
0.018326
0.49788
0.12743
-1.18426
1.96642
-3.24086
1.17474
-1.76132
0.209597
-1.03134
2.64774
-3.56537
0.601704
0.527037
0.846645
-0.312026
-0.0291649
0.0145462
0.0152992
0.415146
0.412399
0.0327305
-1.4165
1.28356
1.37138
-4.09392
-5.14715
2.24084
-4.42524
4.32913
-4.87708
1.06418
2.10719
1.21245
-1.16004
-0.299408
0.143705
0.924396
0.713791
0.247145
5.66016
-3.08991
-5.53788
-2.63356
3.56666
3.09697
-0.166038
-0.0338633
-0.0280355
0.00567945
0.00580682
-2.8861
-4.50893
5.12823
3.32379
4.86827
-5.06752
-4.875
-1.70164
-3.34646
2.00014
1.71544
2.67416
-3.63648
4.43407
-4.42016
3.7638
4.43839
-4.77148
-2.9394
-2.47451
5.07553
3.17352
2.76034
4.66338
-5.16409
-3.5337
-3.45443
3.65441
3.59628
-2.61131
1.54843
-2.5394
2.10244
2.07705
0.299475
-5.9932
2.00059
-1.63024
5.63918
-1.51562
-6.02742
2.02753
1.82275
-1.7078
5.2251
-0.883986
-6.06114
2.0256
1.19934
-1.67291
5.54012
1.34971
-1.00132
2.41682
4.68709
-3.80167
-2.08646
0.356548
2.32663
4.27314
-3.39435
-2.04961
1.46253
-3.11278
-1.1017
5.49217
-4.30108
1.11653
-2.60824
-5.71095
-0.834617
3.9443
-2.98731
0.377806
5.28566
-3.97378
-2.63636
0.25172
-5.79737
4.56769
-5.78173
-2.4836
5.48763
-2.59005
2.84847
-2.11038
2.46845
2.46979
5.28234
-2.13154
-4.29498
1.73069
2.43769
4.86274
-3.99117
-2.08359
5.43758
-5.45617
-3.48849
-2.82004
3.23699
-3.1287
1.82848
5.53645
-4.37645
-3.10915
4.41256
-2.49661
2.66395
-2.55614
-5.57089
1.35856
3.32237
2.37588
4.36674
0.680414
-3.45583
-2.08597
0.362559
4.57523
2.64514
-3.61266
4.67182
0.701329
2.7011
-3.70913
0.366152
2.33549
5.72673
-1.99795
2.37745
0.712459
5.78749
-2.02992
-0.376546
0.733372
2.75717
5.90279
2.71042
5.84906
2.40116
4.52942
-3.61654
-2.09636
-1.03971
4.95623
1.3994
2.76496
-4.00199
4.80102
2.73946
-3.84741
-1.0623
2.4362
1.42836
5.90309
-2.06833
2.41122
5.85509
-2.05532
1.08962
2.79731
5.95023
1.45893
2.82674
5.98308
2.46305
5.08268
-4.19646
-2.10839
1.77316
5.1256
2.78577
-4.18966
1.80819
2.46658
5.95873
-2.08883
5.29935
2.13125
2.80066
-4.29654
2.5027
2.19865
6.00148
-2.11919
1.8446
2.86201
5.9975
2.24339
2.90539
5.97353
0.370753
4.88375
-3.7836
-3.04799
5.36939
0.740873
-4.07669
4.98987
0.725843
-3.91567
3.18139
-0.377885
0.745031
5.95483
0.374677
-3.1321
5.86645
0.751288
5.90172
5.90936
-1.08064
5.22936
1.43707
-4.18554
-3.09065
5.44049
-4.20639
5.10656
-4.05994
3.22171
1.11093
5.97915
-1.12881
-3.25224
1.51912
5.85819
5.9042
1.48579
5.97135
2.46621
5.4737
2.82261
-4.3325
-2.12854
-2.48398
5.5189
2.85904
2.82551
-4.3575
5.47036
2.8049
-4.33512
-2.60172
2.5779
3.02077
5.87702
-2.1731
2.53895
5.97942
-2.14794
2.6565
2.94968
5.88738
3.00621
-6.03039
2.01022
0.578224
-1.63773
5.6412
0.346149
2.25454
-1.84527
2.28025
0.672454
-1.86559
-0.347863
6.03874
0.686398
2.70688
-6.00414
0.28898
2.34624
5.47539
2.67743
0.575885
2.35666
5.47323
1.79218
5.42844
-4.29289
-3.14491
5.5614
2.21498
-4.43008
5.49113
2.15178
-4.34288
-3.29157
1.93309
5.81183
1.88139
5.93671
3.33915
2.29583
5.84847
2.36224
5.76359
-6.05969
2.02086
-1.65544
5.61464
-1.01585
2.33475
1.37912
-1.92414
2.30845
-1.89629
6.05471
1.03937
2.73377
-0.886633
-6.04217
1.20185
2.35033
5.32572
2.35994
5.43096
1.40874
2.75555
-2.49612
3.31445
2.91129
-4.46489
5.53959
3.21731
-2.13036
-4.38251
3.47849
5.77459
-2.2123
2.59374
5.55216
3.72495
-2.17891
-4.55046
5.45762
3.06411
3.88765
-4.71101
2.72124
3.9559
5.62968
-2.27093
3.14087
3.96986
5.42836
-6.05691
2.0296
-1.69316
5.42231
1.7589
2.36983
-1.96268
2.41091
2.15049
-2.00555
-6.00425
1.51156
2.33313
5.14408
1.79614
2.78804
5.92101
2.19721
2.82984
1.79626
2.29874
4.80756
-3.26098
-2.64082
3.12623
-4.6763
-5.53351
-2.72348
3.18842
5.66357
-2.5298
2.96099
-4.45159
-3.17705
5.5433
-4.5121
5.52902
-4.37301
3.40372
5.77746
5.64126
3.14601
-0.343775
5.97932
0.691874
-5.95061
0.273082
5.17882
-5.81628
-2.6452
0.53507
4.49957
0.335472
-3.11729
0.691962
0.562202
5.16302
3.17142
5.97855
1.05519
-0.872951
-5.93549
1.18076
4.90416
-1.06716
-3.18986
1.45285
-5.7917
-2.63771
4.31297
5.08467
1.43333
5.73983
-2.55412
2.9411
-2.08534
-1.91791
-2.02105
2.10934
2.03928
3.08851
-2.0927
2.27966
-1.67612
4.09462
-5.9332
1.99839
-1.70839
4.85457
2.45714
-2.04652
5.75558
2.8578
2.21659
4.15389
-5.85037
1.47021
4.54691
-3.21087
1.8431
1.82932
3.22712
5.70302
2.22497
-5.34509
-2.45833
1.51424
2.61521
2.20883
1.7104
3.92339
-3.67126
-3.59943
4.15252
4.08864
-5.00964
-5.28614
-3.52755
5.12919
3.81371
-3.41185
3.99927
-4.93116
-5.46126
3.60662
5.45377
3.47671
-4.64821
5.28652
4.06823
-4.94278
3.86825
5.12378
-4.37771
5.28102
-2.40718
4.96185
-5.08742
2.73818
5.43194
-2.28394
-4.93266
5.27494
3.23622
-5.00192
-4.28211
2.626
-2.31941
4.37271
2.74452
-2.33797
5.34731
4.15743
3.0608
5.04739
2.80686
4.40718
4.08763
5.43059
3.25981
-2.10607
-1.73891
1.92529
1.69802
2.27852