/*--------------------------------*- C++ -*----------------------------------*\
  =========                 |
  \\      /  F ield         | OpenFOAM: The Open Source CFD Toolbox
   \\    /   O peration     | Website:  https://openfoam.org
    \\  /    A nd           | Version:  9
     \\/     M anipulation  |
\*---------------------------------------------------------------------------*/
FoamFile
{
    format      ascii;
    class       volScalarField;
    location    "0.00115";
    object      rho.air;
}
// * * * * * * * * * * * * * * * * * * * * * * * * * * * * * * * * * * * * * //

dimensions      [1 -3 0 0 0 0 0];

internalField   nonuniform List<scalar> 
9457
(
0.235276
0.541349
0.715726
1.40938
1.90145
2.88687
1.38882
2.1944
2.79801
1.22501
1.225
1.60868
1.22547
2.59408
1.00052
0.203575
0.925966
0.986963
1.09765
2.21951
2.32131
1.31135
1.50655
1.36883
3.06051
3.13651
2.86162
2.84879
1.03281
0.270345
1.09168
1.20657
1.82522
2.44384
3.0142
1.52716
2.20693
1.68377
3.23364
3.47591
2.81528
1.80511
1.78544
1.44627
1.86278
2.71657
2.64269
1.83185
1.52369
0.276391
0.206396
0.280243
0.475422
0.350911
0.470466
0.355227
0.320581
0.215632
0.293285
0.49312
0.400391
0.53076
0.36952
1.84352
2.52602
2.85845
2.54982
1.50506
1.37715
1.23051
0.927704
0.509503
0.513051
0.784759
1.28738
0.781773
1.28837
1.31441
1.42361
1.42938
2.01485
1.79859
1.80421
2.00169
1.41898
1.38136
1.42706
2.04623
1.98343
2.0297
2.00014
1.34067
1.54043
1.46129
2.06693
1.91717
1.8377
2.18101
0.947955
0.569168
0.529907
0.803479
1.3614
0.848251
1.30871
0.368122
0.327027
0.442969
0.455438
0.596371
0.697427
0.543126
1.20886
2.14
3.18111
1.46648
3.18964
2.91336
2.54912
1.54221
1.42011
1.46088
2.10324
2.15852
2.22453
2.05211
1.51475
1.4035
1.53269
2.00497
2.02024
2.12363
2.13755
0.638139
0.740502
1.21851
1.45223
0.925523
1.03689
1.57974
0.414073
0.699068
0.551781
0.838481
0.851306
1.01806
0.673196
0.767384
0.598801
0.997416
1.16008
1.16891
0.76069
0.60565
1.67678
1.69262
1.87764
2.05158
2.37012
2.63935
2.24401
1.65295
1.90104
1.87122
2.32421
2.41969
2.67824
2.5444
1.58258
1.68242
1.53671
2.16428
2.06742
2.18439
2.28113
2.96377
3.43005
1.86351
3.4044
1.40133
1.22584
2.93652
0.790763
0.67669
1.03083
1.2615
1.19887
0.84041
0.628534
1.11928
1.70128
1.5188
2.22136
1.52338
1.11626
1.70208
0.874312
1.37212
1.54387
1.17892
1.93047
1.34667
1.73961
0.76009
1.36594
0.925664
1.05198
1.36274
1.51638
0.886699
0.88351
0.935049
1.09582
1.06985
1.22681
1.459
1.31981
2.1538
2.52157
2.15425
2.96884
2.78242
2.49148
3.31751
2.74308
1.29363
1.22528
2.38711
1.22622
1.225
1.27072
2.7246
1.24198
1.26122
2.77412
1.22504
1.22501
1.39116
1.13932
1.78125
1.60746
2.24977
1.54862
1.18762
1.72407
2.81728
2.42404
3.05609
3.41712
2.43019
3.4093
2.80764
1.68891
1.91153
2.06275
2.31753
2.51579
2.42811
2.60292
2.86756
2.56005
3.07654
3.4693
2.46924
3.42291
2.98127
2.78355
2.58089
3.21415
2.85253
3.20669
2.7744
2.58668
1.21891
1.2686
1.56812
1.96366
1.71446
1.42118
1.05803
2.16909
2.52321
2.60713
2.99207
3.00475
3.30266
2.79321
2.19966
1.80598
2.21687
2.68383
2.38785
2.39857
2.68366
2.5132
2.61166
2.32763
2.85859
2.72037
2.7485
2.81001
2.82873
2.70162
3.23973
2.84974
3.21375
2.93139
2.62175
1.88192
1.71001
1.2715
1.39305
2.61241
1.86166
2.02979
2.27169
2.37773
1.97087
2.44219
2.7432
2.52712
2.70367
1.23427
2.64118
2.82318
1.22501
1.225
1.30988
1.22817
1.73211
1.94398
1.40002
2.16096
1.53864
1.76372
2.44903
2.70819
3.53279
3.15572
3.36274
3.34341
2.90336
3.5749
2.81723
3.25953
3.08518
3.2586
2.67341
3.21502
2.9292
2.53364
2.70244
2.53799
2.6099
2.59889
2.59947
2.58366
2.63294
2.68146
2.56845
2.61997
2.43985
2.5334
2.66304
1.18469
1.58518
1.32648
1.73265
1.97099
2.09121
1.61074
1.55113
2.47112
2.32605
2.8093
2.06683
1.74703
2.22646
2.13482
2.69032
2.35039
2.77904
2.63982
2.7395
2.77078
1.5211
2.26651
1.66013
1.95689
2.50344
2.61567
1.82735
2.4524
2.79164
3.40301
3.08258
3.60229
3.33517
3.7447
3.06037
3.15049
3.45822
3.11382
3.51324
3.55854
3.02352
3.55252
3.31641
3.43614
3.39104
3.11732
3.55064
3.66707
2.71495
2.31931
2.78158
2.24855
2.70709
2.70672
1.93014
2.20346
1.87575
1.61418
2.05253
3.10099
2.4403
2.78828
2.81773
2.95546
2.87847
2.87723
2.69585
2.62728
2.21014
3.38925
2.92056
2.4895
2.3222
2.99489
3.42183
2.989
2.77652
2.8158
2.58933
2.78534
2.26942
2.70187
2.64769
2.74804
2.62877
1.99395
2.31227
3.28248
2.94087
3.01703
2.72076
2.85298
2.73206
2.83868
2.71134
2.19653
2.24721
2.73529
2.61309
2.79646
2.82227
2.67513
2.09067
1.91923
2.6919
2.37499
2.70511
2.69802
1.77792
2.32405
2.66416
2.69719
2.52343
2.03881
1.67189
2.2176
2.69425
2.61468
1.28612
1.2251
1.22648
1.225
1.22518
1.22501
1.22976
2.3295
2.89404
2.65265
3.16348
2.96257
2.7532
2.20609
2.85343
2.48663
2.73365
2.57568
2.23343
1.69615
1.46794
1.22535
1.22502
2.16122
1.225
1.22569
1.225
1.225
2.58382
1.91861
2.77426
2.57996
1.32796
1.57414
2.20664
3.13768
3.79015
3.70029
3.52785
3.49025
3.72644
3.46811
2.32916
1.79069
2.65609
2.52198
1.28654
1.51883
1.99234
3.45669
2.96551
3.67581
3.23228
3.51566
3.51068
2.22458
2.68531
3.17432
3.24107
3.31715
3.15505
3.03966
3.22842
3.23441
3.60089
3.66016
3.28298
1.59869
2.43216
2.4382
2.8524
2.24852
2.73636
1.69974
2.32819
1.69646
1.33049
2.52887
1.82071
3.24515
2.63533
1.26217
1.3814
1.82588
2.82039
1.49808
1.74533
2.22716
1.86289
1.31679
1.25355
2.92449
1.90493
2.65217
1.36003
1.91293
1.54394
1.27153
2.547
1.5671
2.5001
1.43296
1.24661
1.24392
1.45964
2.19027
1.34063
1.25365
1.24605
1.32563
1.71618
1.61092
2.06527
1.24998
1.66759
1.23914
1.49794
1.32341
1.22972
1.25062
1.56825
1.69107
1.29599
1.22701
1.27146
1.22817
1.81669
1.2576
1.77554
1.31709
1.22968
1.32846
1.22916
1.48758
2.23011
2.40103
1.38377
1.23345
1.23896
1.32603
1.75109
1.44128
1.87068
1.3202
1.26194
1.25265
1.22908
2.71079
3.19912
3.45904
2.99845
1.28237
1.54009
2.08628
1.55126
1.46293
2.17383
1.31261
1.22713
1.23698
1.2421
1.42834
1.22921
1.32145
1.22604
1.25049
1.23622
1.22544
1.96989
1.26091
1.65297
1.22917
1.27838
1.24829
1.22666
1.57143
1.299
1.37709
1.25663
1.24143
1.23189
1.22635
1.78344
1.22968
1.23125
1.24483
1.25578
1.32967
1.35534
1.25228
1.23145
1.35977
1.25194
1.22521
1.22619
1.23005
1.22722
1.23164
1.27259
1.24161
1.22509
1.22571
1.22715
2.10779
2.08584
1.36232
2.65857
1.24796
2.0819
1.7661
2.82577
1.22804
1.30988
2.61962
1.97266
1.39499
2.43676
1.33209
1.44162
2.50084
2.50927
1.48818
2.6219
2.37173
1.22911
1.28677
2.87629
2.60233
2.74008
1.70332
1.36703
1.23425
2.84323
2.80278
1.22736
1.59485
1.31721
1.60391
1.95455
1.95876
2.25224
2.24962
1.34126
1.70293
1.63486
2.03565
1.98091
2.27583
2.33565
1.62841
1.81742
2.1316
1.98067
2.27145
2.43355
2.55595
2.06605
1.82176
2.44594
2.19189
2.44543
2.67762
2.76235
2.40108
2.40556
1.98181
2.54594
2.73988
2.73251
2.54757
2.59433
2.48291
2.07849
2.48186
2.59785
2.74733
2.73816
2.07784
2.48136
2.48201
2.59483
2.59902
2.7499
2.74104
2.09148
2.43442
2.01614
2.5619
2.74345
2.73313
2.60556
2.49525
2.46565
2.46373
2.60436
2.35049
2.60993
2.32423
2.17265
2.50033
2.6037
2.55316
2.636
2.73551
2.7375
2.50455
2.47193
2.47329
2.60621
2.16971
2.62041
2.26783
2.21663
2.72092
2.3877
2.74928
2.67186
2.73687
2.71864
2.43641
2.2844
2.63813
2.73896
2.68815
2.73263
2.68968
2.5568
2.24007
2.61388
2.01491
2.63658
2.6311
1.80178
1.70284
2.00563
2.64927
2.56007
1.36496
2.34047
1.5656
2.75572
2.82577
2.58109
2.7686
2.25352
2.58979
2.72701
1.75043
2.30735
2.61145
1.78744
2.62906
2.35074
1.37897
2.75404
2.05444
2.81897
2.83728
2.75919
2.68605
2.11249
1.79474
2.61911
2.63306
2.35902
1.36889
2.32487
1.38212
2.84143
2.75494
2.76076
2.69147
2.07635
2.12282
2.66939
2.64272
2.45625
1.42099
1.91373
2.4229
2.65614
1.87712
2.62384
1.68752
1.38133
2.22664
2.35185
2.59436
1.80168
2.59452
1.60752
2.55715
1.34185
2.25161
2.12546
1.30674
2.76241
2.76728
2.78923
1.97747
2.62683
2.55483
1.82174
1.54471
2.02705
2.53381
2.39368
1.25579
1.76623
1.3973
2.32839
1.48613
2.48453
1.93531
1.25045
1.698
1.27407
2.5175
2.69182
2.82511
2.41155
1.42786
2.15433
1.62535
2.12606
1.23648
2.47134
2.52985
2.84846
2.56421
2.73646
2.47314
2.3609
2.44416
2.37936
0.821792
0.779715
1.16816
2.49918
1.10266
2.51903
2.43285
1.00585
0.859374
2.37267
1.24237
2.645
2.48817
0.785955
0.854039
0.859183
1.27183
1.27989
1.37743
1.37074
0.798323
0.894921
0.870788
1.33053
1.29725
1.39454
1.43223
0.917517
0.940228
1.38472
1.01358
1.46764
1.49733
1.59643
0.957114
1.10851
0.96212
1.52066
1.70993
1.71502
1.5144
1.00591
1.12684
0.975584
1.53947
1.78399
1.73559
1.58302
1.13601
1.27907
1.12456
1.74744
1.5873
1.73327
1.9064
2.36055
1.91636
1.91989
2.00473
2.41306
2.00375
2.41033
1.06381
1.357
1.15706
1.86795
1.6589
1.7711
1.99293
2.36419
1.95778
1.93079
2.0149
2.42647
2.41192
2.04549
1.486
1.31433
1.94588
1.55348
1.75832
2.19523
2.38955
2.40783
2.00585
2.07731
2.45239
2.10098
2.18377
2.48196
1.73596
2.11444
1.4744
1.51911
1.29154
1.92053
2.16246
2.12674
2.47215
2.5123
2.28534
2.28478
2.12696
2.46755
2.13706
2.47508
2.33402
2.50415
2.29644
2.46603
2.17089
2.30534
2.48446
2.50153
2.48036
2.17642
2.29491
2.50172
2.49087
2.40153
2.23386
2.32659
2.45243
2.48981
2.5006
2.33146
2.58683
2.00949
2.35344
1.71611
2.01921
2.59126
2.23568
1.86538
2.09449
2.68841
2.4736
2.63038
2.7608
2.45852
2.37947
2.47232
2.32239
2.58889
2.64491
2.09286
2.56049
2.38747
2.11831
2.4442
2.35034
2.58037
2.48047
2.69694
2.59385
2.7755
2.65239
2.37122
2.74514
2.76136
1.03212
2.21476
1.70818
1.81528
2.3498
1.70323
2.23119
1.02353
2.48577
1.1074
1.72809
2.0405
2.1746
2.61268
2.35501
2.48053
1.05673
1.19511
1.61929
1.23058
1.65207
1.82017
1.8578
1.18689
1.61902
1.02955
1.02451
1.18076
1.61357
1.81122
1.02237
1.18136
1.1789
1.60882
1.60976
1.80865
1.80811
1.19075
1.40218
1.29707
1.81169
1.71474
1.92977
2.04075
2.3372
2.05469
1.40832
1.69938
1.40073
2.05182
2.33626
1.69806
1.40305
1.39913
2.05071
2.33528
2.05045
2.33621
1.42212
1.78815
1.46948
2.3512
2.06537
2.11077
2.39877
2.20147
2.50608
2.48424
2.48902
2.2025
2.35153
2.51496
2.49051
2.19515
2.20021
2.35108
2.51144
2.34719
2.51792
1.89148
1.68469
1.55462
2.19452
2.58392
2.31864
2.48015
2.19877
2.48538
2.22344
2.50026
2.3534
2.38287
2.49029
2.49705
2.49458
2.27505
2.43785
2.43023
2.51142
2.4726
2.61738
2.5066
2.45201
2.51057
2.24869
2.46987
2.62489
2.51174
2.25599
2.62074
2.46249
2.50752
2.47457
2.62729
2.61755
2.43582
2.51135
2.53422
2.07815
2.39473
2.62365
2.62008
2.1826
1.73773
2.57533
1.93167
2.32256
2.62917
2.63928
2.64155
2.14548
1.77172
1.4447
2.63576
1.76083
2.64396
1.95538
1.52603
2.60938
1.35024
1.67306
2.30019
1.48607
2.00429
1.27944
2.4304
1.26647
1.4133
1.89189
2.11091
1.25252
1.23759
1.32186
1.50119
1.7354
1.29958
1.25478
1.28475
2.87594
2.77783
2.01471
1.2265
1.32214
1.41256
2.80939
1.2256
1.39774
2.85769
2.76434
1.28867
1.22541
2.60288
2.64899
2.74435
2.35666
2.68867
2.84824
2.76853
2.60618
2.86822
2.82879
2.6076
2.7596
2.70741
2.54467
2.20038
2.06581
2.63102
2.83874
2.64309
2.87836
2.07398
1.47689
2.86805
2.45645
2.86443
1.75396
2.49873
1.96457
1.3736
2.43144
2.86628
2.79272
1.94129
2.46839
1.72131
1.36458
2.44836
1.42461
1.28076
1.26954
1.92159
1.49689
1.237
1.70477
2.7985
2.16475
1.30411
1.80251
1.46896
1.25045
2.04691
1.24953
1.69452
1.23567
1.46272
1.31045
1.22862
1.65502
1.29001
1.22789
1.69618
1.2283
1.29913
1.25093
1.70378
1.22837
1.24909
1.29337
1.30076
1.67081
1.25145
1.24421
1.27893
1.60143
1.4986
1.22654
1.26135
1.23795
1.87589
2.60498
1.76553
1.448
1.22917
1.25373
1.26241
1.30448
1.22536
1.22845
1.38767
1.22582
1.24545
1.23231
1.36481
2.12097
1.55309
1.29261
1.22626
1.23127
1.24036
1.52713
1.22749
1.23847
1.28595
1.22541
1.23601
1.22754
1.25285
1.23308
1.2261
1.27175
1.22524
1.23134
1.22692
1.26925
1.2324
1.22681
1.2505
1.22522
1.22599
1.23093
1.225
1.225
1.225
1.225
1.225
1.225
1.225
1.23731
1.22658
1.26331
1.22902
1.22504
1.22616
1.22515
1.27404
1.23694
1.39234
1.23295
1.22514
1.22553
1.2272
1.22504
1.22634
1.22513
1.22602
1.22843
1.25788
1.23585
1.23503
1.22594
1.22546
1.22503
1.22582
1.23637
1.22541
1.22546
1.23659
1.3363
1.22603
1.23649
1.22546
1.22504
1.23251
1.22518
1.22502
1.22536
1.2256
1.22966
1.2253
1.22762
1.22519
1.22975
1.22558
1.23352
1.22534
1.22502
1.22505
1.23437
1.22535
1.22609
1.22504
1.22515
1.22501
1.22774
1.23374
1.28859
1.2256
1.22995
1.2252
1.22502
1.22516
1.22501
1.22505
1.22504
1.22536
1.22614
1.23468
1.22916
1.22502
1.22503
1.22509
1.22517
1.22551
1.22574
1.22565
1.22511
1.22812
1.22501
1.22527
1.22505
1.225
1.2365
1.22512
1.22713
1.22503
1.22549
1.22509
1.22501
1.22502
1.2251
1.225
1.22505
1.22501
1.22524
1.22783
1.22509
1.22517
1.22737
1.22597
1.225
1.22507
1.22504
2.21473
3.40835
1.24025
1.38918
1.30949
0.533085
1.37276
2.75472
2.36227
3.36112
2.18073
3.13023
1.82225
3.28492
3.2793
3.22489
1.23901
0.69354
0.749457
0.914504
0.758366
0.923419
1.16014
1.01264
2.92485
3.02219
2.21849
2.97263
1.2289
1.23409
1.22582
0.991004
1.60424
1.19244
1.632
1.20635
1.42255
1.8761
1.43228
1.011
1.1583
1.42367
1.64533
1.75215
1.30017
1.03872
1.49338
1.18528
1.44221
1.70524
1.81228
1.31938
2.19658
2.85119
2.86419
2.91616
2.95278
3.57413
3.35024
2.11285
2.14632
2.62174
2.20588
2.70633
2.61079
3.31824
1.86385
1.6897
1.41809
1.68088
2.6912
2.0297
2.20278
1.93207
1.76591
1.45361
1.70452
2.8075
2.10877
2.24933
2.36967
2.80534
2.84657
2.86939
2.84276
3.10765
3.01316
1.76103
2.1136
2.15944
2.83799
2.27412
2.22685
1.65457
3.74177
2.58088
3.28154
3.47173
3.11767
3.7372
3.78959
2.7244
3.78585
3.43033
3.50139
3.17695
3.75851
3.75673
2.64371
3.00404
2.96924
2.95788
2.95238
2.886
2.43282
3.34254
3.7938
3.55178
3.7977
2.70111
3.5552
3.41556
2.04271
3.16575
3.09427
3.19478
2.61132
2.56093
2.71397
3.34793
3.73384
3.62624
3.7844
2.35984
3.36069
3.36299
0.0395821
0.242943
0.138628
0.26099
0.159339
0.994896
0.912806
1.04957
0.655215
0.154264
0.0355034
0.0885718
0.140191
0.687215
0.0729911
0.618506
0.148102
0.158671
0.171973
0.388106
0.329831
0.345022
0.368963
0.100234
0.0459311
0.0499555
0.206768
0.0960449
0.218741
0.101477
0.19315
0.268843
0.211677
0.416717
0.416472
0.370705
0.468241
0.145197
0.178396
0.169624
0.386591
0.357942
0.366771
0.373457
0.073399
0.12149
0.0589647
0.270893
0.238725
0.112825
0.13137
0.0358569
0.0344089
0.0356701
0.0480878
0.0551446
0.0571666
0.048843
0.0444739
0.0371083
0.038826
0.0618172
0.0559145
0.0700992
0.0512834
0.267477
0.212731
0.209617
0.417248
0.451719
0.46982
0.403187
0.667612
0.586588
0.914821
1.00328
1.00595
0.594156
0.657375
0.380059
0.621418
0.313006
0.180857
0.386724
0.186026
0.317294
0.685535
0.661808
0.934923
1.08748
1.02591
0.61264
0.737751
0.999681
0.953011
0.623039
0.665684
0.961756
1.0048
0.6337
0.440616
0.639644
0.403363
0.198444
0.36267
0.331663
0.222018
0.119598
0.160108
0.0930994
0.0956546
0.121614
0.163124
0.0743094
0.102081
0.0861299
0.190466
0.127814
0.172165
0.114269
0.0783499
0.686154
0.71122
1.08919
0.987661
1.02739
0.739116
0.657959
0.0850422
0.679608
0.466558
0.0442342
0.196753
0.338107
1.22731
0.161898
0.773561
0.302406
0.711333
0.323264
1.67161
1.1033
1.81953
0.834355
0.0944393
0.253483
0.124373
0.321296
0.159212
0.20229
0.401925
0.337999
0.385717
0.431292
0.488432
0.549328
0.670715
0.602406
0.0528956
0.0519411
0.0656661
0.0639805
0.0829163
0.103099
0.0771568
0.336626
0.413918
0.430409
0.526758
0.548747
0.668859
0.642715
0.116952
0.06442
0.0853978
0.135235
0.132667
0.186043
0.0984297
0.510512
0.744593
0.568562
0.835443
0.957184
1.03189
0.762366
0.237029
0.339362
0.168729
0.268892
0.684474
0.366734
0.523232
0.0995544
0.22191
0.13438
0.166814
0.197521
0.272592
0.121621
0.509943
0.417185
0.261561
0.324395
0.899393
0.501555
0.620129
0.740448
0.543637
0.565693
0.832069
0.98845
1.02765
0.799892
0.754589
1.1997
0.835284
0.978401
1.25788
1.36279
0.895903
1.19911
0.802972
1.15596
0.976274
1.31185
1.36
0.939058
0.217928
0.210886
0.460849
0.253428
0.349715
0.295381
0.156578
0.417401
0.943173
0.765126
1.05506
0.618586
0.542818
0.768981
1.16186
1.28393
1.44947
1.8433
1.57451
1.38227
1.07662
1.1578
1.32602
1.85396
1.52446
1.57228
1.37739
1.1138
0.00249125
0.000569787
0.00185482
0.0164734
0.0157243
0.0310951
0.0718216
0.0290617
0.0278615
0.000218282
0.000424663
0.000180132
0.110323
0.0378415
0.120719
0.0463499
0.00180108
0.00746933
0.00736052
0.00294163
0.00921676
0.00894219
0.00328747
0.00017204
0.000336574
0.000320629
0.00097763
0.000624551
0.000756327
0.00116942
0.00201532
0.00835354
0.00773907
0.00990802
0.0070914
0.0113922
0.00449769
0.0213996
0.0212919
0.0156021
0.0173866
0.0231731
0.0172613
0.0232805
0.000202492
0.000178521
0.000170114
0.000908808
0.000626683
0.000760835
0.00115971
0.000216959
0.000701724
0.000402916
0.00135911
0.0050387
0.00192955
0.00411371
0.000280522
0.000407376
0.00021608
0.00134935
0.00570651
0.00388221
0.00206185
0.016002
0.0221112
0.0216414
0.0177535
0.0241154
0.0184855
0.0235999
0.00641704
0.038183
0.00511636
0.00733038
0.0473636
0.0480888
0.00873453
0.00847598
0.0131406
0.0332471
0.0220328
0.0240945
0.0125198
0.00997765
0.0148732
0.0238884
0.0377959
0.0482408
0.0288302
0.0191247
0.014281
0.0198721
0.0256453
0.0291618
0.0243046
0.0248373
0.0196614
0.0257319
0.0158123
0.0325697
0.0725023
0.116881
0.074589
0.016529
0.0324677
0.00808456
0.037618
0.0051695
0.00737908
0.0586002
0.0472221
0.0114519
0.0205155
0.0266499
0.0296955
0.0297761
0.0264618
0.0220989
0.0260574
0.0154248
0.0372265
0.113558
0.0818941
0.0716689
0.0310119
0.0197467
0.0018843
0.0225778
0.000564592
0.0134984
0.148822
0.0795037
0.444664
0.389993
0.000476443
0.00212746
0.00266488
0.00289835
0.00375486
0.0133592
0.0162703
0.000849174
0.00992938
0.00452951
0.0149507
0.00659505
0.0245282
0.0428157
0.0606535
0.0160752
0.0668364
0.140399
0.0523536
0.0598157
0.148914
0.0200945
0.0916763
0.0247318
0.148232
0.0556014
0.0640834
0.159746
0.081145
0.0400769
0.107854
0.0736125
0.187837
0.10085
0.164438
0.0606255
0.113567
0.0373712
0.0811149
0.207274
0.177922
0.110524
0.247702
0.249045
0.133756
0.143951
0.39608
0.257917
0.254922
0.15971
0.293354
0.300506
0.410855
0.272651
0.185457
0.26777
0.167877
0.18891
0.920909
0.863994
1.85022
1.33367
0.652901
0.628713
0.175065
0.32617
0.271836
0.330953
0.276979
0.461707
0.457736
0.210572
0.362206
0.340579
0.311998
0.288775
0.473068
0.502184
1.06529
0.551922
0.71624
0.868522
0.555532
0.721434
1.07196
0.846608
0.406399
0.585308
0.592082
0.410873
0.634171
0.855006
0.593648
0.883676
0.56557
0.736913
1.14079
0.774044
1.09333
0.456228
0.611141
0.424651
0.651031
0.926698
0.878342
0.689864
0.925362
1.71096
1.19049
0.932904
1.72356
1.20066
1.34343
0.954519
1.43634
1.76418
1.28796
1.22939
1.00074
1.37332
0.0651491
0.00223427
0.00441114
0.0270493
0.0172209
0.057171
0.305962
0.033547
0.107809
0.100866
0.103046
0.00173416
0.458479
0.169311
0.482616
0.177827
0.00967324
0.010324
0.0124977
0.0144498
0.0145944
0.0223052
0.0344484
0.00242605
0.0117896
0.0107337
0.0179593
0.0175172
0.0524966
0.0511853
0.00158916
0.0113981
0.00934559
0.0188411
0.0162775
0.0485829
0.0512716
0.0228729
0.0237426
0.0185463
0.024835
0.019787
0.0225075
0.0259352
0.0286358
0.0332757
0.0195497
0.036074
0.123281
0.0580425
0.0710691
0.106497
0.0421857
0.041954
0.118644
0.187405
0.112351
0.201296
0.0471582
0.0526164
0.0275288
0.0417463
0.155543
0.0743589
0.0834436
0.0707499
0.18387
0.0732237
0.141324
0.238891
0.26255
0.131323
0.025876
0.0249333
0.0211232
0.0273711
0.0321164
0.0350766
0.0280865
0.0278111
0.0351278
0.0250311
0.0301491
0.0378892
0.0434921
0.030113
0.0403164
0.100636
0.0376477
0.113095
0.188191
0.196035
0.112472
0.0742226
0.180771
0.0694514
0.136317
0.251164
0.259761
0.134739
0.0635594
0.198118
0.150522
0.21685
0.105119
0.0949399
0.133863
0.222583
0.298263
0.328933
0.50772
0.365522
0.204983
0.328145
0.0380879
0.0413288
0.0752176
0.0451889
0.0558414
0.0501997
0.0341859
0.217817
0.30977
0.50329
0.34745
0.362156
0.323787
0.209913
2.62938
1.5456
2.77365
2.48531
0.935953
0.659418
1.20528
2.1367
2.71351
2.6406
2.7971
1.33207
2.10562
2.65144
2.83989
1.8374
0.709161
0.756404
0.807628
0.990636
1.0499
1.09939
1.16296
0.800666
1.03581
0.900813
1.31375
1.15611
1.27519
1.44578
1.1954
1.707
2.57177
1.15623
2.94133
0.718137
0.337269
0.731636
1.11995
1.17085
1.91485
2.69301
0.368093
0.11851
0.633303
0.461347
1.12638
1.09421
2.03616
1.55729
0.879501
0.905257
1.64677
1.5944
2.91189
3.32099
0.427788
0.404143
0.540652
0.50004
0.65612
0.622816
0.740321
1.70626
1.36564
0.903636
1.60697
2.87179
3.04302
1.89657
0.556392
0.78983
0.631305
0.989774
0.808612
0.890406
1.06862
0.16758
0.171137
0.245794
0.185815
0.263768
0.374787
0.265798
0.536534
0.844374
0.642461
1.00918
0.782877
0.903645
1.13636
0.337954
0.820976
0.471831
0.86881
0.497464
0.65409
1.05641
0.817464
1.32756
0.95009
1.28338
0.911511
1.04387
1.45458
0.945734
1.09395
1.17014
1.17135
1.25626
1.51568
1.39784
0.941176
1.12301
1.1644
1.20387
1.25043
1.51264
1.46232
0.50662
0.250954
0.35778
0.522418
0.545971
0.707389
0.382581
0.292832
0.610329
0.406334
0.554835
0.630491
0.795664
0.412155
0.971691
1.11465
1.20021
1.18419
1.28204
1.45823
1.5564
1.17848
3.41922
0.644281
2.33464
1.14421
0.13655
0.650474
0.0864574
0.414355
0.433429
1.4054
0.911154
2.65012
0.925305
0.616252
0.645138
1.90146
2.03172
1.64364
0.867801
1.66084
0.78711
1.45334
0.177392
0.806851
2.65491
3.49783
2.66551
2.89917
1.09634
3.25434
1.10261
0.210419
0.456166
0.237031
0.671925
0.361146
0.398371
0.72649
0.683793
0.668649
0.737041
0.951344
1.02923
1.09096
1.01476
0.111629
0.0953187
0.125493
0.143624
0.192461
0.214802
0.159244
0.680725
0.695743
0.733301
0.974385
1.02341
1.08371
1.03353
0.185948
0.110712
0.148551
0.252374
0.228696
0.311945
0.185818
0.982267
0.764993
0.836464
1.20445
1.2861
1.36885
1.12682
0.352632
0.532086
0.281945
0.460757
0.953215
0.554275
0.82025
0.972933
0.787478
0.829612
1.19407
1.29709
1.35548
1.14007
0.248434
0.569852
0.336038
0.370629
0.474518
0.617115
0.274421
0.244558
0.239736
0.331495
0.294549
0.400681
0.523749
0.391473
0.454534
0.986594
0.58791
1.11443
0.679876
0.832007
1.29078
1.01052
0.894539
0.588023
0.635386
1.46461
0.946553
1.07004
1.37582
2.09206
1.47052
1.54907
1.98624
1.44791
2.20613
1.16757
1.30801
1.3891
1.48252
1.58221
1.85379
1.71125
1.15618
1.31591
1.37641
1.51014
1.56816
1.85012
1.80496
0.427792
0.804726
0.386537
0.54198
0.514228
0.693508
0.318059
1.40942
2.098
1.45915
1.53774
2.12945
2.2114
1.4909
0.278682
0.20314
0.653172
0.61743
0.672612
0.639366
1.24991
1.30503
0.218248
0.285449
0.295693
0.387129
0.399577
0.481724
0.473958
0.240972
0.343427
0.311599
0.465348
0.421447
0.500463
0.543629
0.57989
0.825907
0.40612
0.587628
0.413073
0.625937
0.836631
0.466682
0.608443
0.429644
0.648814
0.918923
0.697999
0.864158
0.648486
0.962962
0.972256
1.05651
0.728117
0.736959
1.06791
0.725995
1.06407
1.00091
0.762729
1.16927
1.10098
0.818114
0.893745
1.57109
1.13752
0.905245
1.59067
1.26475
1.1512
0.940456
1.26957
0.996513
1.6676
1.31538
1.39118
1.76552
0.939264
0.986105
0.779256
1.05568
1.5166
1.23996
1.30123
1.33003
1.54879
1.85442
1.21457
2.01764
1.69486
1.43559
2.12933
2.67037
2.39799
1.68649
1.74161
1.89003
1.56985
1.02959
1.69676
1.56205
0.712613
1.29946
0.82218
1.16739
0.701763
0.459262
0.607734
0.331127
0.45225
0.681736
0.526359
1.6435
1.18606
1.7474
1.38601
1.25384
0.995221
0.935332
1.52141
2.04773
1.43741
2.17423
1.57972
1.6722
2.26451
1.32109
1.53446
1.10929
1.20918
1.43048
1.6847
2.005
0.80498
1.0097
0.6307
0.826971
1.42786
1.01076
1.24005
1.51964
1.36505
1.09283
1.23142
2.14694
1.71857
1.53212
0.695867
0.933225
1.40778
0.867693
1.59399
1.1145
1.30982
2.50302
1.85004
2.39788
2.28833
1.63436
1.67832
1.89406
0.967507
1.12995
0.95206
0.487913
0.635093
0.790952
0.62859
1.73187
1.31801
1.42627
1.82487
1.89578
1.63684
2.20719
1.51193
2.1851
1.92017
1.9694
2.20052
1.75534
2.62216
1.17878
0.917959
1.35705
1.17316
0.745688
1.00105
1.47347
1.23328
1.37905
1.09344
1.52163
2.15948
1.71923
1.92926
1.74645
1.37876
1.42281
1.84294
2.29005
2.30261
1.80034
1.45712
2.90673
2.03237
1.2251
1.63084
1.57505
3.05353
0.739771
0.788604
0.845191
1.23864
1.0083
0.953085
0.576911
1.64631
2.21819
2.24643
1.99857
2.6891
2.76174
1.96367
1.28705
2.06627
1.86476
1.4572
0.960588
1.11954
1.6339
2.26218
1.98154
1.79015
1.54018
1.65495
2.20384
1.96949
1.88713
2.28616
1.66867
1.82764
2.58597
2.04559
2.40941
1.12516
1.64211
1.35197
1.81767
1.4734
1.79874
2.23511
1.33089
1.42167
1.55627
1.17967
1.02343
0.975765
0.809532
2.20108
1.95432
1.58428
2.75587
1.99565
1.64507
2.24257
3.34695
2.59725
3.00085
1.95981
2.17484
2.55303
2.22611
1.41805
2.09586
2.31997
2.42569
1.9928
1.67633
1.76981
1.36873
1.82074
1.44908
2.32861
1.81316
1.9483
2.46698
2.25227
2.3879
1.73922
2.65978
1.99506
2.15248
2.72849
2.9567
2.49274
2.95549
2.74756
2.14381
2.19755
2.59343
0.740388
1.97951
2.27245
2.72573
1.64446
2.74476
2.81324
1.69866
0.886476
1.01362
0.980207
1.17495
1.14365
1.30072
1.49829
1.26436
1.05718
1.37644
1.6086
1.34497
1.76914
2.15569
1.38262
2.25802
1.59161
2.47621
1.78767
2.07591
2.70276
1.27975
1.99635
1.47996
2.3109
1.70154
1.98817
2.61071
2.29209
2.44541
1.87061
1.97165
2.74836
2.52466
2.39019
2.23247
1.98206
1.59706
2.71789
2.1417
1.73192
2.37465
1.78219
1.42055
1.67747
2.43599
1.99199
2.31806
2.69985
1.05068
1.69472
1.79582
1.51532
1.30575
1.24313
1.49539
2.48695
2.69497
2.16824
2.73702
2.31116
2.59727
2.80519
1.87186
2.59847
2.30819
2.04459
1.47937
1.29253
1.82709
2.37075
2.33183
2.52718
3.57478
2.02021
3.13298
2.88345
2.13162
2.6975
2.73712
2.78221
2.34678
2.63615
2.53446
2.49119
3.01608
3.10628
3.66689
3.30726
3.11701
2.47082
2.63257
1.53266
1.98858
1.91614
2.56179
2.52182
2.95149
2.82369
2.96372
2.77449
2.56933
2.87945
1.87838
2.43803
2.14419
3.00029
2.7569
2.86099
2.38653
1.75269
2.36835
2.10464
2.04384
1.65403
2.25648
2.94345
2.7129
2.68327
2.47946
2.64369
2.0314
2.4525
2.90788
2.85734
2.79414
3.19255
3.74545
3.62075
3.43962
2.89245
3.00397
2.54227
3.45688
2.98599
3.06765
3.10696
2.84841
3.42603
3.03777
2.4858
2.85675
2.44954
2.91033
2.02991
2.64169
2.87565
2.90204
2.94898
2.4897
2.5986
2.8742
2.91781
2.90306
0.0165998
0.0010535
0.0157293
0.000489256
0.0156692
0.0161029
0.00923976
0.00610043
0.012347
0.0123263
0.0160649
0.0160799
0.0123462
0.0124128
0.0156199
0.00894074
0.00591179
0.000351993
0.000316523
0.00642382
0.000316141
0.00680356
0.0113754
0.0159211
0.0114183
0.0162589
0.0119932
0.0125157
0.015697
0.00917831
0.0002855
0.0092153
0.00101636
0.00987366
0.000488884
0.00906622
0.0125211
0.0155662
0.0115209
0.0113962
0.0162134
0.0120074
0.0156475
0.0122322
0.0156616
0.0123717
0.0123446
0.0159287
0.0123163
0.0155081
0.00939409
0.000341056
0.000555979
0.00920722
0.00102726
0.00988895
0.000492808
0.00700468
0.00115892
0.000417965
0.0089852
0.000323019
0.00649202
0.000320873
0.0026258
0.000435639
0.00236727
0.00068565
0.00280507
0.000596648
0.00225816
0.00608242
0.00934953
0.00557147
0.00930031
0.00589591
0.00933744
0.00581794
0.00510591
0.00890686
0.00549642
0.00901843
0.00889834
0.00550648
0.00517382
0.00184887
0.000422293
0.000306027
0.00186855
0.000349936
0.00193206
0.00183564
0.00167532
0.000384334
0.0016549
0.000242743
0.000311011
0.00167382
0.00165346
0.00170484
0.00194902
0.00030599
0.000241575
0.000252468
0.00193652
0.00170719
0.013653
0.0115671
0.0113613
0.0134704
0.013508
0.0115447
0.0135908
0.0136763
0.0135105
0.0116024
0.011396
0.0136237
0.011567
0.0135433
0.0155279
0.0160994
0.0157914
0.0160885
0.0155716
0.0155563
0.0160829
0.0138917
0.0118199
0.01184
0.0141594
0.0139431
0.0117326
0.0139233
0.00623647
0.00940385
0.00598063
0.00914085
0.00587507
0.0093117
0.00640138
0.00228391
0.000336654
0.000336291
0.0018575
0.00203468
0.000438104
0.00203783
0.0062478
0.00600308
0.0094349
0.00916885
0.00642329
0.00932896
0.00589154
0.00306951
0.000908263
0.00351977
0.000906586
0.00329565
0.00328992
0.000801243
0.00669555
0.00971188
0.00972903
0.00712932
0.00691875
0.00957403
0.0069068
0.00262126
0.00236059
0.000435127
0.00068306
0.00225339
0.00279541
0.000595461
0.00589339
0.00915581
0.00530438
0.00917167
0.00562568
0.00917196
0.00563536
0.0137048
0.0114912
0.0134939
0.0117141
0.0135279
0.0136672
0.0116686
0.0136705
0.0114041
0.011585
0.0134715
0.0135991
0.0135202
0.0115926
0.0155166
0.0160889
0.0157715
0.0160881
0.0155752
0.0155551
0.0161102
0.0139372
0.0119059
0.01183
0.0141699
0.013999
0.0139288
0.0117951
0.006408
0.00934257
0.00625444
0.00956871
0.00613831
0.00657605
0.00947191
0.00241664
0.00206686
0.000394768
0.000378805
0.00223998
0.00218316
0.00047999
0.00274381
0.00256184
0.000498067
0.000732207
0.00244988
0.00292637
0.000639766
0.00632657
0.00921793
0.0094261
0.00600782
0.0064253
0.0093957
0.00597232
0.00312726
0.000936462
0.003544
0.000912552
0.00336216
0.00330787
0.000823533
0.00676667
0.00979137
0.00972731
0.00715103
0.00698919
0.00692684
0.00964244
0.00268437
0.000458673
0.00237791
0.000687286
0.00281188
0.00232885
0.000616945
0.00201559
0.00207869
0.00048717
0.00035185
0.00204453
0.00210142
0.000392972
0.00521971
0.00908569
0.00894665
0.00554347
0.0052182
0.00897367
0.00560992
0.00175525
0.000405098
0.00169397
0.000249082
0.00171216
0.00172803
0.000329548
0.00178976
0.000328177
0.00197453
0.000246381
0.00173489
0.00202052
0.000270838
0.10796
0.0849391
0.0147012
0.00700132
0.478032
0.433149
0.752553
0.593157
0.00772771
0.0160838
0.0182613
0.0485282
0.052013
0.089108
0.0835943
0.00970268
0.0324453
0.023091
0.0786556
0.0606564
0.101791
0.1239
0.000288831
0.0481221
0.00017375
0.01955
0.00140146
0.000873208
0.000117474
0.000115504
0.000114778
8.36011e-05
8.37155e-05
8.67117e-05
8.71658e-05
0.000127622
0.000125743
0.000121774
8.5339e-05
8.42075e-05
9.18329e-05
8.84593e-05
0.000132491
0.000140852
0.000924841
0.00023096
0.000227554
0.000281029
0.00154993
0.00170584
0.000272815
0.000165545
0.000101675
0.000104124
0.000183039
0.000429031
0.000496104
0.000171483
0.00106276
0.000239012
0.000256954
0.000310394
0.00362627
0.00214745
0.00044653
0.000197745
0.000125411
0.000110429
0.000208001
0.00134847
0.000695918
0.00028109
0.000716994
0.022414
0.00256702
0.0047283
0.00310212
0.00551399
0.000632832
0.00095981
0.00988258
0.0305991
0.0151864
0.00488155
0.00789349
0.00171914
0.0378493
0.0917377
0.0427791
0.149708
0.224507
0.230365
0.1411
0.182151
0.441652
0.19122
0.255618
0.503712
0.510087
0.248077
0.0532379
0.132816
0.0702813
0.164422
0.262196
0.241969
0.186759
0.234074
0.455982
0.2088
0.270662
0.541276
0.52176
0.293474
0.00716714
0.00424655
0.00375096
0.305164
0.00295285
0.348283
0.430192
0.375596
0.00281732
0.00267932
0.00277388