/*--------------------------------*- C++ -*----------------------------------*\
  =========                 |
  \\      /  F ield         | OpenFOAM: The Open Source CFD Toolbox
   \\    /   O peration     | Website:  https://openfoam.org
    \\  /    A nd           | Version:  9
     \\/     M anipulation  |
\*---------------------------------------------------------------------------*/
FoamFile
{
    format      ascii;
    class       volScalarField;
    location    "0.00115";
    object      rhoE;
}
// * * * * * * * * * * * * * * * * * * * * * * * * * * * * * * * * * * * * * //

dimensions      [1 -1 -2 0 0 0 0];

internalField   nonuniform List<scalar> 
9457
(
2.03848e+06
2.28409e+06
2.35928e+06
2.11724e+06
2.42913e+06
2.82047e+06
1.59203e+06
2.24105e+06
2.52985e+06
253249
253245
445070
253391
1.38049e+06
2.08999e+06
1.97186e+06
2.08989e+06
2.79178e+06
2.91522e+06
3.51139e+06
3.69055e+06
2.07835e+06
1.75005e+06
1.64063e+06
4.14871e+06
4.22525e+06
2.31789e+06
2.08627e+06
2.27488e+06
2.09172e+06
2.09801e+06
2.98416e+06
3.43859e+06
3.84157e+06
4.3973e+06
2.16568e+06
2.42532e+06
1.96721e+06
4.27843e+06
4.07321e+06
1.8542e+06
570816
1.85749e+06
1.65267e+06
1.94652e+06
1.94039e+06
1.65473e+06
596528
395458
2.08142e+06
1.97868e+06
2.09194e+06
2.41456e+06
2.25541e+06
2.40253e+06
2.26235e+06
2.15095e+06
2.00002e+06
2.11674e+06
2.43863e+06
2.32552e+06
2.46351e+06
2.28608e+06
1.94286e+06
2.41067e+06
2.12213e+06
1.39966e+06
382324
317947
255066
2.09355e+06
2.11903e+06
2.12464e+06
2.37437e+06
2.35682e+06
2.36443e+06
2.36818e+06
2.08689e+06
1.93883e+06
1.94937e+06
2.50074e+06
2.50973e+06
2.53136e+06
2.47184e+06
1.79034e+06
1.65889e+06
1.80406e+06
2.40738e+06
2.22242e+06
2.37523e+06
2.25111e+06
2.09564e+06
2.00373e+06
1.96627e+06
2.56099e+06
2.63792e+06
2.57008e+06
2.67193e+06
2.09198e+06
2.12645e+06
2.12762e+06
2.38744e+06
2.40973e+06
2.39786e+06
2.38475e+06
2.19575e+06
2.15101e+06
2.25256e+06
2.37365e+06
2.49044e+06
2.52372e+06
2.42272e+06
2.38521e+06
3.75597e+06
4.21309e+06
2.84613e+06
4.42234e+06
2.32506e+06
3.74265e+06
1.87477e+06
1.6898e+06
1.82644e+06
2.47149e+06
2.38383e+06
2.58447e+06
2.30249e+06
1.6512e+06
1.61296e+06
1.67824e+06
2.15224e+06
2.17506e+06
2.17092e+06
2.18792e+06
2.13154e+06
2.15538e+06
2.12999e+06
2.45253e+06
2.41258e+06
2.44357e+06
2.52863e+06
2.21711e+06
2.37523e+06
2.31256e+06
2.56637e+06
2.54738e+06
2.62788e+06
2.47809e+06
2.66438e+06
2.51095e+06
2.81109e+06
2.90693e+06
2.9285e+06
2.64895e+06
2.5209e+06
2.07978e+06
2.26386e+06
2.22591e+06
2.7536e+06
2.85656e+06
3.13933e+06
2.94578e+06
1.85646e+06
2.1402e+06
2.03515e+06
2.49353e+06
2.7577e+06
2.97901e+06
2.61962e+06
1.72937e+06
1.81479e+06
1.72398e+06
2.27216e+06
2.21358e+06
2.21688e+06
2.26046e+06
3.40787e+06
3.65863e+06
724201
4.53219e+06
330038
253508
1.72613e+06
2.6911e+06
2.59896e+06
2.85501e+06
3.00673e+06
2.96448e+06
2.71695e+06
2.5526e+06
2.64039e+06
2.7881e+06
2.96981e+06
3.53565e+06
2.99127e+06
2.62549e+06
2.80569e+06
2.20011e+06
2.20415e+06
2.32978e+06
2.49844e+06
2.86157e+06
2.59298e+06
2.6586e+06
2.65041e+06
3.06608e+06
2.74517e+06
2.78239e+06
3.0714e+06
3.15898e+06
2.70574e+06
2.45171e+06
2.46557e+06
2.55391e+06
2.64552e+06
2.71836e+06
2.86434e+06
2.79582e+06
2.4766e+06
2.87164e+06
2.68788e+06
3.50079e+06
3.62209e+06
3.23634e+06
3.87198e+06
1.65145e+06
279783
253330
1.06223e+06
253628
253246
270456
2.52131e+06
259272
266862
2.45864e+06
253256
253249
325391
2.66148e+06
2.89674e+06
3.07895e+06
3.59222e+06
3.02849e+06
2.68181e+06
2.83962e+06
3.46686e+06
3.30121e+06
4.15862e+06
3.91271e+06
3.33271e+06
3.9057e+06
3.43796e+06
1.84227e+06
2.02134e+06
2.10555e+06
2.34784e+06
2.41878e+06
2.30866e+06
2.32911e+06
3.52831e+06
3.5104e+06
4.183e+06
3.86076e+06
3.39759e+06
3.89037e+06
3.63555e+06
3.11654e+06
2.62571e+06
3.06798e+06
2.29204e+06
3.05058e+06
3.10012e+06
2.63073e+06
2.84122e+06
2.87243e+06
3.21176e+06
3.5446e+06
3.30968e+06
2.94734e+06
2.77433e+06
2.29697e+06
2.59043e+06
2.82867e+06
3.2196e+06
2.70233e+06
3.39049e+06
2.718e+06
2.21089e+06
1.88852e+06
2.23456e+06
2.37306e+06
2.29832e+06
2.30625e+06
2.3618e+06
2.44568e+06
2.39974e+06
2.27661e+06
2.31014e+06
2.43621e+06
2.25542e+06
2.02343e+06
3.1449e+06
2.63245e+06
2.89404e+06
2.22178e+06
2.99845e+06
3.18979e+06
2.63364e+06
2.99212e+06
3.16228e+06
2.71363e+06
2.77196e+06
4.0365e+06
3.3003e+06
3.14691e+06
2.27894e+06
2.3446e+06
2.0369e+06
2.31834e+06
2.26397e+06
2.32854e+06
2.33021e+06
256414
1.46209e+06
2.38028e+06
253247
253245
287253
254283
2.51892e+06
2.78571e+06
2.53727e+06
3.16521e+06
2.73977e+06
2.95929e+06
3.60703e+06
3.68149e+06
3.79415e+06
3.77888e+06
3.92515e+06
4.30511e+06
3.90596e+06
3.63388e+06
2.60919e+06
2.70594e+06
3.23715e+06
3.24767e+06
1.49407e+06
2.37816e+06
2.51241e+06
2.38502e+06
1.90626e+06
2.38374e+06
1.60109e+06
2.25495e+06
2.24372e+06
1.5541e+06
2.34276e+06
1.8174e+06
2.37261e+06
2.21174e+06
1.25357e+06
1.44226e+06
2.14672e+06
2.62056e+06
2.90905e+06
2.69472e+06
3.10877e+06
3.40659e+06
3.522e+06
3.03748e+06
2.87285e+06
3.7256e+06
3.8089e+06
4.2378e+06
3.51688e+06
3.0386e+06
3.3887e+06
2.15566e+06
2.43905e+06
2.28837e+06
2.1343e+06
2.31407e+06
2.22518e+06
1.89935e+06
3.04995e+06
3.85092e+06
3.12694e+06
3.43035e+06
4.09886e+06
4.16316e+06
3.33172e+06
3.06603e+06
3.5754e+06
3.96687e+06
4.04886e+06
4.12244e+06
4.38416e+06
4.12578e+06
3.27154e+06
2.83762e+06
3.57049e+06
2.48264e+06
3.3667e+06
3.0406e+06
1.96413e+06
4.00591e+06
4.33529e+06
4.26104e+06
2.76312e+06
4.14348e+06
3.31615e+06
3.94355e+06
2.26975e+06
1.04342e+06
2.11374e+06
980943
2.02171e+06
1.79286e+06
668312
3.17115e+06
3.04265e+06
2.74348e+06
3.30957e+06
4.51049e+06
3.83998e+06
4.13753e+06
2.35734e+06
2.38135e+06
1.98004e+06
2.06288e+06
1.56608e+06
1.37087e+06
898553
3.13979e+06
1.87259e+06
1.18063e+06
1.01866e+06
1.854e+06
2.83361e+06
2.28634e+06
2.36275e+06
2.36308e+06
2.38877e+06
2.01659e+06
973435
1.62517e+06
1.51208e+06
4.10957e+06
4.126e+06
3.30815e+06
3.71299e+06
4.18364e+06
4.34399e+06
4.41057e+06
2.51353e+06
2.21906e+06
1.83245e+06
2.18728e+06
1.7932e+06
923861
971962
2.49525e+06
1.53203e+06
1.96097e+06
2.10735e+06
1.69759e+06
820405
669772
1.72673e+06
1.14021e+06
2.10407e+06
2.07848e+06
559057
1.08198e+06
1.67456e+06
2.01174e+06
1.3561e+06
771462
486390
956493
1.88416e+06
1.55524e+06
277096
253275
253720
253245
253299
253247
254834
3.85285e+06
4.34151e+06
4.18584e+06
4.03773e+06
4.32227e+06
4.25396e+06
3.73603e+06
2.22037e+06
1.28439e+06
1.72479e+06
1.37649e+06
956557
503774
365447
253354
253252
863768
253245
253461
253246
253245
1.35155e+06
652961
1.82501e+06
1.41376e+06
294319
420834
906180
4.13829e+06
4.22477e+06
4.29078e+06
4.28215e+06
4.49617e+06
3.80165e+06
2.98548e+06
1.06539e+06
565482
1.66823e+06
1.33797e+06
276952
391138
721967
4.39405e+06
1.9257e+06
3.66603e+06
2.91463e+06
4.24602e+06
3.05523e+06
1.01068e+06
4.15541e+06
3.55972e+06
3.53196e+06
4.17399e+06
4.22823e+06
4.39832e+06
4.48783e+06
2.52713e+06
3.01098e+06
3.52861e+06
2.26536e+06
439985
1.13525e+06
1.10365e+06
2.13385e+06
943855
1.63196e+06
499759
1.03172e+06
495989
296094
1.22043e+06
597091
2.23648e+06
1.33724e+06
267050
324837
584440
1.92878e+06
381705
532098
931683
621134
290396
263701
1.91808e+06
636509
1.43117e+06
309376
643664
403382
270600
1.33354e+06
421361
1.27569e+06
347595
260990
259980
361333
900356
300594
263623
260687
293607
509413
444940
766020
262163
475956
258088
378569
292406
254781
262639
424352
504006
281548
253892
271056
254282
592316
265429
563455
290906
254797
295948
254621
376272
946217
1.14604e+06
322384
256116
258119
294744
538412
351845
624019
292031
267150
263426
254598
1.78652e+06
2.83391e+06
3.77733e+06
2.01155e+06
278661
435899
891863
409926
360901
867614
288064
253926
257361
259232
345029
254634
292604
253574
262541
257121
253381
702456
266561
472476
254620
273830
261644
253776
423039
282685
318460
264906
259073
255586
253676
575556
254848
255327
260301
265067
299525
308281
263140
255395
309323
262964
253309
253619
254907
253952
255441
271032
258994
253271
253466
253930
2.16722e+06
2.1359e+06
312395
1.65617e+06
261614
2.12998e+06
560616
2.10665e+06
254239
1.39588e+06
2.33804e+06
2.02233e+06
1.51606e+06
1.38302e+06
297678
352106
2.46804e+06
1.56389e+06
1.6014e+06
1.63622e+06
1.23137e+06
254599
277481
2.23891e+06
2.49981e+06
2.49672e+06
515321
313994
256416
2.17231e+06
2.02467e+06
254011
1.65498e+06
1.41736e+06
1.67902e+06
2.00439e+06
2.01989e+06
2.24038e+06
2.23141e+06
1.4573e+06
1.79742e+06
1.72488e+06
2.09373e+06
2.04852e+06
2.25906e+06
2.29043e+06
1.72147e+06
1.90413e+06
2.15835e+06
2.04449e+06
2.23842e+06
2.32757e+06
2.3491e+06
2.09352e+06
1.88683e+06
2.39458e+06
2.2144e+06
2.31372e+06
2.32184e+06
2.19788e+06
2.40237e+06
2.41353e+06
2.04551e+06
2.37623e+06
2.2908e+06
2.27389e+06
2.3786e+06
2.36423e+06
2.45839e+06
2.11167e+06
2.4511e+06
2.37053e+06
2.22418e+06
2.20079e+06
2.10984e+06
2.45933e+06
2.45153e+06
2.36997e+06
2.37309e+06
2.22926e+06
2.21276e+06
2.1614e+06
2.43527e+06
2.08994e+06
2.37019e+06
2.1503e+06
2.23096e+06
2.35752e+06
1.54099e+06
2.19359e+06
2.19113e+06
2.10644e+06
1.17141e+06
2.11901e+06
1.13962e+06
2.22875e+06
2.47184e+06
2.35872e+06
2.49135e+06
2.33767e+06
2.16682e+06
2.08245e+06
2.16147e+06
1.48324e+06
2.18109e+06
2.0741e+06
938418
2.01421e+06
1.06377e+06
2.26297e+06
2.50297e+06
2.38148e+06
2.01149e+06
2.32484e+06
2.24055e+06
1.78528e+06
2.41522e+06
2.31659e+06
2.50758e+06
2.20147e+06
2.29514e+06
1.94044e+06
1.71295e+06
2.12359e+06
1.01694e+06
2.04461e+06
770121
1.91074e+06
1.74007e+06
582833
507544
754073
1.89405e+06
1.47228e+06
312492
1.09329e+06
420793
2.50082e+06
2.43683e+06
2.47956e+06
2.06437e+06
970853
1.43731e+06
1.75668e+06
549390
1.08105e+06
1.69621e+06
575645
1.73033e+06
1.12974e+06
320396
2.49243e+06
791009
2.08689e+06
2.1295e+06
2.50555e+06
1.70652e+06
841685
580411
1.71287e+06
1.73675e+06
1.13814e+06
315565
1.10156e+06
321846
2.13718e+06
2.501e+06
2.50914e+06
1.71504e+06
810716
850100
1.67816e+06
1.81568e+06
1.2752e+06
341611
675873
1.23326e+06
1.8421e+06
647399
1.74938e+06
502515
321455
976817
1.13536e+06
1.62993e+06
587073
1.64737e+06
450400
1.53059e+06
302551
1.01401e+06
873004
286342
2.47744e+06
1.87585e+06
2.4305e+06
723335
1.58446e+06
1.42461e+06
596844
409747
769584
1.44435e+06
1.17845e+06
264644
553770
328666
1.09626e+06
376258
1.35165e+06
691814
262552
507463
272188
1.29762e+06
1.63962e+06
2.34104e+06
1.18601e+06
344887
880836
459308
2.13126e+06
257239
2.4129e+06
1.41331e+06
2.43643e+06
2.10932e+06
2.26126e+06
1.27805e+06
2.00267e+06
1.912e+06
1.97522e+06
1.04776e+06
968420
1.32953e+06
1.6834e+06
1.22743e+06
1.79836e+06
2.15851e+06
1.21774e+06
1.09413e+06
2.27437e+06
1.39445e+06
1.96138e+06
1.57608e+06
981739
1.03986e+06
1.0556e+06
1.34972e+06
1.36793e+06
1.47807e+06
1.45832e+06
1.00911e+06
1.11965e+06
1.08351e+06
1.45118e+06
1.40232e+06
1.51299e+06
1.56558e+06
1.15071e+06
1.1673e+06
1.51779e+06
1.22541e+06
1.60832e+06
1.6381e+06
1.73425e+06
1.11978e+06
1.2468e+06
1.13794e+06
1.62362e+06
1.78864e+06
1.80788e+06
1.60243e+06
1.20719e+06
1.2821e+06
1.16844e+06
1.65941e+06
1.89271e+06
1.84187e+06
1.71333e+06
1.30804e+06
1.41206e+06
1.30216e+06
1.86068e+06
1.72344e+06
1.85169e+06
1.98259e+06
1.99978e+06
1.91965e+06
1.93004e+06
2.00057e+06
1.978e+06
1.99229e+06
1.97282e+06
1.25919e+06
1.48451e+06
1.32815e+06
1.9635e+06
1.78873e+06
1.88445e+06
2.0543e+06
1.99135e+06
1.97257e+06
1.94751e+06
2.0148e+06
1.93511e+06
1.95891e+06
2.03835e+06
1.57853e+06
1.44045e+06
2.01144e+06
1.6423e+06
1.81915e+06
2.18051e+06
2.28079e+06
1.9519e+06
2.00978e+06
2.05627e+06
1.89689e+06
2.07133e+06
2.11034e+06
1.83152e+06
1.79887e+06
2.12445e+06
1.56925e+06
1.61439e+06
1.42561e+06
1.99578e+06
2.16209e+06
2.07984e+06
1.91987e+06
1.78548e+06
2.15131e+06
2.15458e+06
2.07377e+06
1.9115e+06
2.08949e+06
1.85029e+06
2.16381e+06
1.74925e+06
2.15771e+06
1.88937e+06
2.10644e+06
2.14482e+06
1.52008e+06
1.70286e+06
1.8382e+06
2.10532e+06
2.14436e+06
1.71542e+06
1.78558e+06
2.16983e+06
2.13061e+06
2.15432e+06
1.4114e+06
2.15775e+06
1.67779e+06
2.29912e+06
2.33472e+06
2.03696e+06
2.26101e+06
1.7774e+06
2.04595e+06
2.33356e+06
2.25197e+06
1.92649e+06
2.11961e+06
2.30491e+06
2.32067e+06
2.33252e+06
2.17378e+06
2.15633e+06
1.22607e+06
1.47327e+06
1.13102e+06
2.08046e+06
1.94359e+06
838356
2.11515e+06
1.24092e+06
864217
2.16121e+06
1.17485e+06
2.09963e+06
1.50198e+06
2.50275e+06
1.42665e+06
1.98433e+06
2.48965e+06
2.33346e+06
2.24044e+06
1.90127e+06
1.18705e+06
995796
1.76876e+06
1.87841e+06
2.1553e+06
1.75974e+06
1.01374e+06
1.15767e+06
1.8579e+06
1.27823e+06
1.80229e+06
2.09749e+06
948109
1.67571e+06
2.15429e+06
1.8388e+06
1.22559e+06
1.31568e+06
1.71204e+06
1.36279e+06
1.75846e+06
1.89743e+06
1.93958e+06
1.2904e+06
1.69284e+06
1.16528e+06
1.14183e+06
1.265e+06
1.66924e+06
1.85714e+06
1.13919e+06
1.28158e+06
1.2619e+06
1.68188e+06
1.6651e+06
1.85387e+06
1.8701e+06
1.34609e+06
1.51589e+06
1.42727e+06
1.9103e+06
1.82479e+06
2.00222e+06
2.08323e+06
2.28102e+06
2.08178e+06
1.48333e+06
1.7402e+06
1.45575e+06
2.06597e+06
2.27363e+06
1.73699e+06
1.47355e+06
1.45235e+06
2.06453e+06
2.28128e+06
2.07742e+06
2.2739e+06
1.51201e+06
1.86992e+06
1.56959e+06
2.29338e+06
2.09999e+06
2.13769e+06
2.31356e+06
2.09885e+06
1.69205e+06
1.8457e+06
1.85498e+06
2.09329e+06
2.15385e+06
1.7083e+06
1.85975e+06
2.09835e+06
2.09295e+06
2.15507e+06
1.70662e+06
2.15818e+06
1.71392e+06
1.96873e+06
1.76904e+06
1.65271e+06
2.19315e+06
2.34436e+06
2.26095e+06
2.33703e+06
2.10482e+06
1.80293e+06
2.11698e+06
1.67399e+06
2.15905e+06
2.16125e+06
1.61156e+06
1.63958e+06
1.74176e+06
2.13569e+06
2.16105e+06
1.3548e+06
2.14242e+06
1.50958e+06
2.03546e+06
2.16034e+06
1.41583e+06
2.16591e+06
1.03187e+06
1.44324e+06
2.05196e+06
2.16872e+06
1.03888e+06
2.0464e+06
1.43334e+06
2.16735e+06
1.44984e+06
2.05632e+06
2.01305e+06
1.38153e+06
2.155e+06
2.13144e+06
839328
1.28881e+06
1.95061e+06
2.00698e+06
947743
535945
2.08907e+06
694654
1.14731e+06
1.84548e+06
1.70151e+06
1.97422e+06
892932
555679
351601
1.69025e+06
547848
1.85547e+06
709264
397705
1.60192e+06
305653
487951
1.047e+06
375317
740730
274339
1.21487e+06
268948
335984
647426
843192
263332
257621
292668
383650
530122
282858
264206
276704
2.12203e+06
1.99213e+06
749552
253727
292855
336180
1.83645e+06
253434
328883
2.02569e+06
2.49583e+06
278226
253373
1.40971e+06
2.48852e+06
2.25083e+06
2.32137e+06
2.50169e+06
2.44176e+06
1.9248e+06
1.44531e+06
2.20904e+06
2.41618e+06
2.49066e+06
2.02028e+06
1.71217e+06
1.3688e+06
920617
790716
1.49492e+06
2.4536e+06
1.45805e+06
2.12747e+06
797318
370924
2.38428e+06
1.18534e+06
2.04225e+06
541292
1.27081e+06
701877
317230
1.15906e+06
2.36994e+06
1.80374e+06
684204
1.23337e+06
520139
313017
1.23957e+06
341572
274882
270198
670579
381215
257437
506618
1.87561e+06
875503
284931
578405
366281
262507
785446
262171
503027
256924
363097
287706
254434
481119
279064
254188
507942
254328
282985
262773
512553
254351
262058
280519
283662
491594
262971
260152
274308
446664
384268
253737
266955
257776
627449
1.3936e+06
547296
355199
254629
263836
267331
285193
253356
254375
324625
253503
260605
255719
312788
830631
413118
279973
253647
255371
258684
398405
254055
258006
277180
253374
257066
254072
263497
255987
253593
271258
253319
255390
253868
270226
255746
253830
262575
253313
253560
255248
253246
253245
253245
253245
253245
253245
253245
257519
253749
267651
254570
253258
253612
253291
271912
257356
325657
255940
253287
253409
253956
253256
253670
253284
253568
254373
265498
256991
256694
253541
253388
253255
253503
257175
253371
253389
257266
299371
253574
257232
253388
253257
255791
253301
253252
253355
253432
254792
253338
254101
253304
254826
253428
256156
253351
253252
253261
256470
253354
253593
253257
253292
253247
254140
256230
278092
253433
254895
253307
253252
253293
253247
253261
253257
253358
253608
256581
254606
253251
253254
253271
253297
253404
253476
253448
253280
254272
253248
253329
253260
253246
257231
253281
253933
253254
253399
253272
253247
253251
253277
253246
253259
253248
253320
254174
253272
253297
254011
253551
253246
253265
253256
3.16129e+06
2.77864e+06
258553
1.94818e+06
2.60539e+06
1.96818e+06
2.71807e+06
4.26298e+06
3.41806e+06
4.36629e+06
2.19343e+06
4.23168e+06
2.14506e+06
4.43071e+06
3.13318e+06
2.25644e+06
258176
2.05635e+06
2.13631e+06
2.24596e+06
2.1689e+06
2.27773e+06
2.45966e+06
2.36344e+06
2.68546e+06
2.41729e+06
2.21116e+06
2.1776e+06
254517
256326
253502
1.95904e+06
2.23313e+06
2.17826e+06
2.28012e+06
2.21393e+06
2.45447e+06
2.63466e+06
2.68815e+06
2.34822e+06
2.44617e+06
2.68424e+06
2.93535e+06
3.01996e+06
2.60221e+06
2.4126e+06
2.7875e+06
2.50404e+06
2.71598e+06
3.03387e+06
3.11478e+06
2.63838e+06
2.26744e+06
2.95365e+06
3.07867e+06
2.99754e+06
3.17911e+06
3.93361e+06
3.2631e+06
2.27813e+06
2.59053e+06
2.93871e+06
2.67349e+06
3.04543e+06
3.32256e+06
3.98076e+06
2.61159e+06
2.75929e+06
2.43951e+06
2.7523e+06
3.97526e+06
3.19574e+06
3.14643e+06
2.72418e+06
2.88358e+06
2.50861e+06
2.79227e+06
4.17281e+06
3.32616e+06
3.22584e+06
2.33982e+06
2.77547e+06
2.77104e+06
2.64122e+06
2.67483e+06
2.70783e+06
2.35646e+06
3.03851e+06
3.48531e+06
3.5593e+06
4.3311e+06
3.69361e+06
3.61543e+06
2.95638e+06
4.56661e+06
3.27555e+06
3.93543e+06
4.72763e+06
4.2168e+06
4.56749e+06
4.32594e+06
3.49696e+06
4.44054e+06
4.11081e+06
4.6742e+06
4.29767e+06
4.53804e+06
4.0662e+06
2.55626e+06
2.30129e+06
2.17156e+06
2.52406e+06
2.59312e+06
1.89738e+06
1.12456e+06
3.29713e+06
3.90213e+06
3.93333e+06
3.91507e+06
1.39093e+06
2.92712e+06
2.78829e+06
3.22032e+06
4.63275e+06
4.4928e+06
4.64022e+06
4.04122e+06
3.96433e+06
4.01735e+06
3.13537e+06
3.50344e+06
3.90637e+06
3.78921e+06
1.02591e+06
2.44924e+06
2.61244e+06
1.17123e+06
1.08939e+06
655956
807691
517178
1.80076e+06
1.83077e+06
1.39297e+06
1.27035e+06
1.16274e+06
1.14967e+06
811734
1.76326e+06
1.86432e+06
1.46489e+06
1.9017e+06
506805
769405
618748
1.13e+06
1.22441e+06
1.29286e+06
1.06396e+06
897000
914063
955294
1.3058e+06
1.27023e+06
1.381e+06
1.31219e+06
932274
945015
785667
1.1793e+06
1.36333e+06
1.33812e+06
1.21633e+06
465445
594377
565962
1.01291e+06
898492
957403
932526
1.1457e+06
1.01624e+06
1.03931e+06
1.45735e+06
1.43555e+06
1.37419e+06
1.43719e+06
1.14995e+06
1.01694e+06
1.03398e+06
1.27756e+06
1.24523e+06
1.26482e+06
1.27823e+06
1.14274e+06
1.15949e+06
1.07836e+06
1.30344e+06
1.31581e+06
1.35335e+06
1.29452e+06
855926
708759
710378
1.05981e+06
1.00751e+06
1.10024e+06
976368
1.44609e+06
1.59524e+06
1.83154e+06
1.66928e+06
1.67218e+06
1.61551e+06
1.42213e+06
1.6823e+06
1.90176e+06
1.89725e+06
1.62512e+06
1.70109e+06
1.64793e+06
1.90576e+06
1.43792e+06
1.58126e+06
1.81451e+06
1.65856e+06
1.66121e+06
1.60355e+06
1.42883e+06
1.5108e+06
1.36106e+06
1.14857e+06
1.29082e+06
1.36897e+06
1.51716e+06
1.16139e+06
1.66933e+06
1.88687e+06
1.69419e+06
1.67308e+06
1.90192e+06
1.9086e+06
1.69037e+06
1.70097e+06
1.77586e+06
1.50499e+06
1.51868e+06
1.70791e+06
1.7864e+06
1.469e+06
1.54542e+06
1.52066e+06
1.83935e+06
1.73e+06
1.8089e+06
1.57957e+06
1.49091e+06
1.29159e+06
1.18084e+06
1.52556e+06
1.37488e+06
1.51565e+06
1.29523e+06
1.1699e+06
1.40355e+06
1.27858e+06
1.35726e+06
1.20314e+06
1.24897e+06
2.03516e+06
1.96847e+06
1.81046e+06
1.85026e+06
1.14582e+06
1.00092e+06
856920
2.10288e+06
1.80676e+06
1.89651e+06
1.3034e+06
1.24635e+06
1.27566e+06
1.32231e+06
1.46098e+06
1.48624e+06
1.52384e+06
1.46336e+06
1.02102e+06
1.17342e+06
1.05203e+06
1.36213e+06
1.22704e+06
1.24316e+06
1.37207e+06
1.20844e+06
1.24757e+06
1.27394e+06
1.3584e+06
1.40355e+06
1.45986e+06
1.41809e+06
925304
891333
960071
1.0183e+06
1.11087e+06
1.13463e+06
1.0454e+06
1.41919e+06
1.31298e+06
1.34183e+06
1.52902e+06
1.58047e+06
1.61624e+06
1.49529e+06
1.21682e+06
1.16859e+06
1.10006e+06
1.28951e+06
1.47533e+06
1.37452e+06
1.40768e+06
1.43782e+06
1.31051e+06
1.38106e+06
1.56134e+06
1.52365e+06
1.60303e+06
1.4827e+06
1.56625e+06
1.88219e+06
1.62221e+06
1.68059e+06
1.87233e+06
1.94369e+06
1.62896e+06
1.64893e+06
1.8971e+06
1.70295e+06
1.71458e+06
1.85584e+06
1.9065e+06
1.64644e+06
1.07743e+06
932235
1.00504e+06
1.18969e+06
1.19369e+06
1.28519e+06
1.10103e+06
1.56511e+06
1.67914e+06
1.42745e+06
1.45511e+06
1.85235e+06
1.74559e+06
1.57823e+06
1.55731e+06
1.1957e+06
1.4309e+06
1.34566e+06
1.5098e+06
1.63442e+06
1.24005e+06
1.75355e+06
1.79091e+06
2.11103e+06
1.95073e+06
2.02109e+06
1.84417e+06
1.70674e+06
1.73312e+06
1.71847e+06
1.99502e+06
1.8931e+06
1.93562e+06
1.7726e+06
1.66928e+06
1.52755e+06
1.73174e+06
1.94764e+06
2.08187e+06
1.87293e+06
1.65262e+06
1.63242e+06
1.42775e+06
1.44751e+06
1.99788e+06
1.65128e+06
1.77075e+06
1.5609e+06
1.32038e+06
136519
47594.5
116688
640457
607768
1.07324e+06
774621
1.05599e+06
408609
39183.9
43776.7
36562.1
649739
248713
494988
214592
114039
321877
316687
146312
387960
377921
151975
36272
47830.2
46930.7
60975.8
47071.5
47982.3
63233.7
122574
358630
333332
410042
200721
449117
165932
832604
826819
602268
671319
903156
666716
907160
38739.5
36530.7
36343.9
51267.2
46485
47318.7
53258.3
37629.8
57357.9
50454.3
52821.7
98091.6
72393.6
69385.1
41923.9
43242.3
37619.9
52228
81219.4
67647.2
59531.5
619911
867233
844595
684380
935598
708665
919133
98577.6
177090
71188.1
79828.5
317318
230244
111002
208561
486600
472761
633321
664544
471137
226209
526364
411343
850640
607830
738905
601524
279234
748819
979146
1.05534e+06
856504
866225
742201
980030
111464
272951
457854
522548
346247
153671
199805
82617.7
172265
70380
78395.1
265521
219350
95502.6
768649
998455
952889
1.05991e+06
897447
809348
987152
107740
216808
472059
357903
317523
186984
130717
56948
145936
47043.7
97713.2
570535
325630
824731
775270
45290.3
57192.4
60487.5
62183
67594.3
101336
117578
49899.7
95180.1
71361.8
122302
83309
159874
237486
242400
109269
268409
458342
231700
261439
491876
127922
373554
153127
515094
252448
290907
557620
325070
217985
423523
321682
589172
423345
543966
308782
457558
211068
356034
658124
609040
464836
635971
666901
465686
505380
785572
689286
655579
555319
707261
734950
804279
714557
603123
682086
487731
560256
1.13426e+06
1.05095e+06
1.91535e+06
1.39297e+06
948767
899302
514995
680574
640816
697420
656767
800190
787814
605056
751961
722927
712521
686667
823328
850746
1.18535e+06
848567
951790
1.06682e+06
862407
966765
1.20385e+06
1.03433e+06
762285
884470
897051
773417
912585
1.05153e+06
916517
1.09627e+06
886003
993751
1.28325e+06
1.02802e+06
1.23737e+06
821870
920813
797618
938218
1.11879e+06
1.08139e+06
969022
1.08402e+06
1.74022e+06
1.26999e+06
1.10192e+06
1.76829e+06
1.29177e+06
1.41562e+06
1.13308e+06
1.52006e+06
1.82344e+06
1.38136e+06
1.3291e+06
1.17335e+06
1.45722e+06
665498
58993.5
164369
989600
668669
1.25112e+06
1.19924e+06
1.09767e+06
955794
431228
592304
52915.4
1.10516e+06
874986
847209
652594
402417
241963
470530
298841
519314
642121
504203
72433.3
132943
97017.9
177242
128584
294676
381970
51744.9
103666
91347.6
140213
120471
264147
281817
899126
923649
711810
952327
748906
819194
976404
437150
757201
590417
799576
898656
949662
723080
485387
321642
246431
536585
796280
644873
688004
616020
982849
728112
873711
1.08282e+06
1.10736e+06
816952
489404
748538
383405
619820
981619
863218
734756
878055
953369
784297
906129
1.05456e+06
998967
1.00709e+06
1.0143e+06
1.02732e+06
872616
953162
1.12931e+06
1.1086e+06
1.04298e+06
232597
430238
220530
477348
589836
619218
474123
364673
675375
346607
554133
740691
782136
545495
1.01093e+06
1.0477e+06
1.27585e+06
1.13949e+06
1.20169e+06
1.11831e+06
969813
755872
942371
1.03579e+06
995222
926192
868661
838645
1.04064e+06
1.14189e+06
1.25856e+06
1.1807e+06
1.18278e+06
1.12189e+06
1.0811e+06
680566
715755
908379
787450
841470
761109
648978
1.38404e+06
1.58312e+06
1.91891e+06
2.41086e+06
1.22305e+06
1.14534e+06
1.33933e+06
2.26719e+06
2.35383e+06
2.54913e+06
2.59735e+06
296960
2.08053e+06
1.52759e+06
2.31299e+06
1.88955e+06
1.16127e+06
1.13684e+06
1.16217e+06
1.34838e+06
1.37385e+06
1.35613e+06
1.39673e+06
1.18181e+06
1.24952e+06
1.1961e+06
1.49236e+06
1.41451e+06
1.4585e+06
1.56501e+06
1.73828e+06
1.71533e+06
2.50549e+06
1.21283e+06
2.73556e+06
975366
823093
993846
1.28603e+06
1.39155e+06
1.95056e+06
2.50225e+06
1.82206e+06
1.49695e+06
1.41637e+06
2.12072e+06
1.80107e+06
2.49673e+06
2.89089e+06
1.84234e+06
1.36228e+06
1.10568e+06
1.84555e+06
1.64765e+06
3.79077e+06
2.90434e+06
858739
830629
976048
863747
1.01188e+06
981016
1.02444e+06
1.69029e+06
1.35849e+06
1.07721e+06
1.62896e+06
2.45492e+06
2.30541e+06
635673
904960
993450
915391
1.161e+06
1.07036e+06
1.09154e+06
1.19116e+06
1.51761e+06
1.59479e+06
1.63151e+06
1.6734e+06
1.71728e+06
1.83242e+06
1.77191e+06
887593
1.04166e+06
925997
1.1764e+06
1.0488e+06
1.10083e+06
1.2438e+06
1.50479e+06
1.49947e+06
1.57527e+06
1.59058e+06
1.65593e+06
1.73498e+06
1.68278e+06
1.15519e+06
1.47898e+06
1.20445e+06
1.43892e+06
1.17178e+06
1.23157e+06
1.55409e+06
1.26576e+06
1.47557e+06
1.40539e+06
1.5815e+06
1.50578e+06
1.69431e+06
1.73167e+06
1.18501e+06
1.24788e+06
1.3311e+06
1.32581e+06
1.42294e+06
1.61799e+06
1.51495e+06
1.89558e+06
1.69995e+06
1.75718e+06
1.96141e+06
2.01828e+06
2.1095e+06
1.88557e+06
1.88439e+06
2.20475e+06
1.94818e+06
2.06352e+06
2.2119e+06
2.30692e+06
1.98771e+06
1.10203e+06
1.21478e+06
1.29246e+06
1.2479e+06
1.33427e+06
1.48355e+06
1.5493e+06
2.66725e+06
4.41244e+06
2.44989e+06
3.03822e+06
2.46581e+06
1.68444e+06
1.65744e+06
1.56973e+06
1.69029e+06
2.3437e+06
2.44666e+06
1.60544e+06
2.94992e+06
1.25846e+06
1.62488e+06
1.20978e+06
2.6293e+06
2.30257e+06
2.80505e+06
2.31192e+06
2.33996e+06
2.49529e+06
2.64102e+06
1.75454e+06
1.68749e+06
2.95884e+06
2.91097e+06
2.70156e+06
3.74136e+06
1.66002e+06
3.30582e+06
1.33121e+06
1.67024e+06
1.66992e+06
1.68704e+06
1.88932e+06
1.91346e+06
1.90686e+06
1.87211e+06
1.48109e+06
1.60529e+06
1.47025e+06
1.8403e+06
1.69908e+06
1.69384e+06
1.82799e+06
1.59226e+06
1.58901e+06
1.61905e+06
1.80395e+06
1.85773e+06
1.88356e+06
1.83169e+06
1.33979e+06
1.21727e+06
1.34078e+06
1.40864e+06
1.55638e+06
1.56205e+06
1.4233e+06
1.71393e+06
1.62752e+06
1.65703e+06
1.92346e+06
1.93282e+06
1.98104e+06
1.87761e+06
1.48632e+06
1.58919e+06
1.46412e+06
1.71014e+06
1.88306e+06
1.77131e+06
1.83461e+06
1.72088e+06
1.65397e+06
1.70303e+06
1.9036e+06
1.88191e+06
1.91558e+06
1.86597e+06
1.37398e+06
1.22355e+06
1.34245e+06
1.58641e+06
1.52271e+06
1.65449e+06
1.4531e+06
2.07334e+06
2.46271e+06
2.16886e+06
2.19506e+06
2.37512e+06
2.47915e+06
2.10632e+06
1.78599e+06
1.83103e+06
1.87068e+06
1.99814e+06
2.05234e+06
2.12903e+06
2.066e+06
1.74304e+06
1.74413e+06
1.78321e+06
1.92727e+06
1.94879e+06
2.01092e+06
2.01156e+06
2.11667e+06
2.40106e+06
2.13566e+06
2.13339e+06
2.47578e+06
2.40961e+06
2.11857e+06
2.12956e+06
2.60492e+06
1.9978e+06
2.033e+06
2.70208e+06
2.15306e+06
2.71537e+06
1.55243e+06
1.75935e+06
1.67164e+06
1.98133e+06
1.89369e+06
2.10037e+06
2.14068e+06
1.44774e+06
1.4517e+06
1.57397e+06
1.65571e+06
1.7835e+06
2.00612e+06
1.89449e+06
2.23222e+06
2.52931e+06
2.19789e+06
2.41258e+06
2.27555e+06
2.50135e+06
2.15183e+06
1.71447e+06
2.48869e+06
1.85606e+06
1.90076e+06
2.37567e+06
2.59225e+06
1.77013e+06
785275
636425
960346
967268
1.11185e+06
1.09472e+06
1.3799e+06
1.43833e+06
686274
749067
771046
893614
914712
929997
923571
735848
806011
788490
954575
934146
938282
953829
905657
1.05634e+06
825081
915467
833998
975424
1.07049e+06
863504
935387
848367
991264
1.12981e+06
1.01416e+06
1.09571e+06
1.10147e+06
1.29295e+06
1.30087e+06
1.29163e+06
1.08887e+06
1.09545e+06
1.30485e+06
1.12853e+06
1.34332e+06
1.31592e+06
1.10987e+06
1.37146e+06
1.33013e+06
1.13399e+06
1.1355e+06
1.61796e+06
1.26298e+06
1.14905e+06
1.64765e+06
1.40063e+06
1.28249e+06
1.19456e+06
1.39079e+06
1.23092e+06
1.7341e+06
1.46164e+06
1.52301e+06
1.82935e+06
1.07301e+06
1.11175e+06
987001
1.17907e+06
1.50155e+06
1.29335e+06
1.3448e+06
1.41574e+06
1.63591e+06
1.89592e+06
1.32639e+06
2.02271e+06
1.74357e+06
1.47888e+06
2.82824e+06
3.17847e+06
2.89984e+06
2.10662e+06
2.30822e+06
2.25136e+06
2.20445e+06
2.42872e+06
2.62433e+06
2.53018e+06
2.14169e+06
2.17957e+06
2.16856e+06
2.135e+06
2.21774e+06
2.00225e+06
2.07248e+06
1.91298e+06
1.96561e+06
2.213e+06
2.13464e+06
1.70478e+06
1.31592e+06
1.80185e+06
1.5006e+06
1.36588e+06
1.20742e+06
1.17286e+06
1.7404e+06
2.21284e+06
1.67396e+06
2.22419e+06
1.7445e+06
1.82555e+06
2.2666e+06
1.42103e+06
1.63907e+06
1.29734e+06
1.33823e+06
1.48489e+06
1.74607e+06
2.01941e+06
1.78868e+06
1.60015e+06
1.6644e+06
1.85173e+06
2.01331e+06
2.01197e+06
1.81476e+06
1.59991e+06
1.44056e+06
1.25794e+06
1.33521e+06
2.15112e+06
1.7596e+06
1.56096e+06
1.84164e+06
2.08964e+06
2.09755e+06
1.94957e+06
2.28594e+06
2.22242e+06
1.93191e+06
2.58794e+06
2.03524e+06
2.74871e+06
2.47389e+06
1.8675e+06
1.98792e+06
2.15433e+06
2.55911e+06
2.63825e+06
2.57147e+06
2.24623e+06
2.32324e+06
2.38014e+06
2.29749e+06
1.86669e+06
1.62772e+06
1.5952e+06
1.96906e+06
2.24087e+06
1.94345e+06
2.38618e+06
1.88355e+06
2.4116e+06
2.3319e+06
2.13788e+06
2.66995e+06
2.09974e+06
2.92248e+06
2.24443e+06
1.96382e+06
1.9658e+06
1.83331e+06
1.85386e+06
2.10839e+06
2.14626e+06
1.35275e+06
1.46477e+06
1.27957e+06
1.61807e+06
2.17491e+06
1.77268e+06
1.97592e+06
1.80697e+06
1.43679e+06
1.52533e+06
1.90712e+06
2.31174e+06
2.38485e+06
1.80706e+06
358200
1.99966e+06
1.96233e+06
253277
454569
422635
2.47738e+06
2.19325e+06
2.23367e+06
2.33036e+06
2.58006e+06
2.42979e+06
2.3395e+06
2.10051e+06
1.76212e+06
2.27744e+06
2.37751e+06
2.07969e+06
2.72474e+06
2.94131e+06
1.98328e+06
2.53216e+06
3.00488e+06
2.77484e+06
2.2634e+06
2.21842e+06
2.2979e+06
2.40142e+06
2.73088e+06
2.15252e+06
2.13205e+06
1.91117e+06
1.86064e+06
2.43498e+06
2.37858e+06
2.01585e+06
2.33934e+06
1.84838e+06
1.94623e+06
2.339e+06
2.10478e+06
2.31542e+06
1.19011e+06
1.58209e+06
1.35346e+06
1.76186e+06
1.46438e+06
1.74692e+06
2.17491e+06
2.74527e+06
2.84244e+06
2.91336e+06
2.56603e+06
2.478e+06
2.45747e+06
2.36747e+06
2.26814e+06
1.9807e+06
1.64697e+06
2.93817e+06
2.08289e+06
1.76982e+06
2.38295e+06
3.86508e+06
3.34774e+06
3.52545e+06
2.48447e+06
2.50794e+06
2.91133e+06
2.75948e+06
1.45896e+06
2.06204e+06
2.26301e+06
2.3669e+06
1.99582e+06
1.66493e+06
1.75842e+06
1.4032e+06
1.78189e+06
1.45188e+06
2.32115e+06
1.79479e+06
1.91021e+06
2.41672e+06
2.25608e+06
2.31879e+06
1.73156e+06
2.56043e+06
1.98775e+06
2.11913e+06