/*--------------------------------*- C++ -*----------------------------------*\
  =========                 |
  \\      /  F ield         | OpenFOAM: The Open Source CFD Toolbox
   \\    /   O peration     | Website:  https://openfoam.org
    \\  /    A nd           | Version:  9
     \\/     M anipulation  |
\*---------------------------------------------------------------------------*/
FoamFile
{
    format      ascii;
    class       volVectorField;
    location    "0.00115";
    object      U;
}
// * * * * * * * * * * * * * * * * * * * * * * * * * * * * * * * * * * * * * //

dimensions      [0 1 -1 0 0 0 0];

internalField   nonuniform List<vector> 
9457
(
(204.815 -1107.77 89.5464)
(393.416 -983.671 73.2448)
(433.859 -935.42 70.6983)
(116.41 -567.942 239.783)
(225.927 -578.689 234.04)
(324.421 -599.298 181.638)
(16.7259 -557.223 198.794)
(246.357 -606.525 188.993)
(317.221 -575.536 173.551)
(0.00133417 -0.00186936 0.00298294)
(4.40413e-05 -5.2524e-05 7.76378e-05)
(1.89914 -98.6303 90.7578)
(0.0358407 -0.0649577 0.122923)
(258.033 -221.875 298.445)
(129.121 -673.244 187.348)
(47.0538 -1128.69 97.5612)
(16.0772 -665.183 207.61)
(35.7979 -1096.53 70.9532)
(198.395 -1072.16 65.0552)
(18.1014 -858.611 268.158)
(160.313 -864.834 290.071)
(12.2559 -553.903 249.251)
(117.593 -560.047 202.313)
(14.6067 -541.375 201.963)
(13.8835 -790.416 337.687)
(147.148 -784.844 350.92)
(13.3919 -627.228 148.936)
(117.801 -580.677 137.404)
(333.958 -786.318 100.064)
(254.087 -1090.23 84.4081)
(167.984 -667.41 179.237)
(245.736 -1043.47 63.0746)
(377.495 -937.974 61.1059)
(206.574 -859.048 307.538)
(336.691 -807.7 362.137)
(151.019 -567.175 236.424)
(226.641 -582.324 225.678)
(148.117 -550.04 228.177)
(191.342 -772.554 358.176)
(293.758 -697.58 374.576)
(142.443 -528.241 124.942)
(82.7388 -173.605 45.2057)
(18.0551 -591.851 246.143)
(87.4965 -570.574 202.216)
(92.3895 -603.717 251.279)
(12.9006 -576.167 149.147)
(105.577 -510.229 133.183)
(4.01557 -188.716 92.4266)
(21.1676 -95.8685 44.4814)
(41.979 -1032.54 118.065)
(101.361 -1124.86 95.3243)
(90.3091 -1032.03 110.108)
(89.4874 -1056.98 78.7257)
(41.3801 -1132.85 87.1063)
(35.1141 -1056.46 82.6497)
(98.7724 -1129.29 85.0378)
(183.509 -1020.43 88.7898)
(153.967 -1118.21 93.7306)
(136.764 -1028.86 98.9446)
(141.366 -1053.05 74.4988)
(205.413 -1111.04 78.1757)
(191.823 -1041.14 72.9796)
(153.204 -1123.04 82.8764)
(166.524 -600.415 213.947)
(172.571 -592.918 306.925)
(245.452 -503.25 258.154)
(122.636 -442.088 116.457)
(40.8637 -88.7628 23.0187)
(13.1149 -49.3396 21.0605)
(0.513962 -1.63467 0.490577)
(53.7842 -673.431 202.482)
(26.4904 -850.099 137.062)
(66.6316 -854.979 132.235)
(75.2574 -902.221 105.996)
(18.5699 -729.646 180.088)
(25.8691 -896.697 108.414)
(64.2051 -737.841 177.704)
(47.8891 -563.566 247.13)
(11.9905 -521.891 257.298)
(46.3314 -531.015 257.136)
(53.6611 -618.443 249.847)
(15.0655 -632.022 246.046)
(56.1762 -640.692 246.697)
(14.6747 -610.262 248.609)
(12.6611 -524.878 233.301)
(49.2707 -550.116 204.359)
(46.5757 -534.399 234.695)
(53.9191 -633.195 231.233)
(16.6671 -641.886 198.48)
(15.2481 -624.321 229.462)
(55.5382 -649.831 200.167)
(82.7656 -567.793 243.198)
(112.423 -538.968 250.395)
(79.7309 -536.289 254.246)
(90.586 -624.368 249.969)
(131.73 -647.128 248.252)
(94.5222 -645.289 247.126)
(127.446 -630.043 251.544)
(91.416 -676.246 194.58)
(149.347 -849.061 115.943)
(106.991 -855.591 124.563)
(122.404 -902.261 103.712)
(146.364 -737.011 175.753)
(168.242 -893.193 103.246)
(106.247 -740.323 175.476)
(230.866 -1005.85 81.5784)
(301.765 -1062.62 81.05)
(278.749 -985.151 75.2852)
(255.953 -1089.95 74.649)
(239.994 -1020.93 73.5959)
(286.412 -993.034 74.4973)
(304.155 -1058.8 73.6794)
(378.586 -766.503 110.861)
(421.235 -916.185 60.6997)
(497.214 -783.389 51.946)
(530.635 -798.054 58.3829)
(367.011 -773.881 367.53)
(306.299 -491.403 256.21)
(473.606 -708.261 294.643)
(113.205 -544.626 231)
(83.4797 -555.618 204.208)
(80.1247 -540.241 233.415)
(91.6594 -640.29 231.128)
(134.293 -656.451 195.948)
(130.135 -646.476 230.493)
(94.4311 -654.777 199.176)
(17.8182 -572.938 211.277)
(52.576 -564.885 201.536)
(54.227 -580.901 213.941)
(17.5404 -649.745 194.863)
(56.5467 -655.632 196.559)
(17.8352 -646.487 218.738)
(56.5507 -649.932 220.346)
(194.023 -837.406 107.42)
(240.664 -823.628 101.281)
(207.685 -660.858 168.988)
(187.17 -731.607 177.244)
(213.624 -878.027 104.56)
(258.671 -859.357 109.297)
(228.769 -725.605 181.026)
(348.901 -1027.03 76.8105)
(371.419 -920.779 71.086)
(326.36 -956.642 72.0119)
(330.741 -957.75 76.2557)
(391.557 -971.245 69.9194)
(372.753 -916.808 79.8211)
(349.662 -1019.11 72.2204)
(87.8439 -1057.49 75.9174)
(37.6117 -1124.48 79.2093)
(95.2014 -1095.62 70.9503)
(29.1004 -1037.51 88.3201)
(85.3252 -1039.65 87.8917)
(31.6877 -1056.53 77.8602)
(96.5487 -1121.74 78.5038)
(146.211 -541.828 245.924)
(187.065 -569.817 235.063)
(181.557 -549.558 242.085)
(170.544 -650.848 250.795)
(166.689 -639.898 254.796)
(208.936 -654.952 261.532)
(211.45 -659.435 257.731)
(153.787 -567.692 199.719)
(185.112 -561.392 226.399)
(193.453 -582.462 197.278)
(175.921 -654.526 191.147)
(171.352 -653.999 230.056)
(214.957 -660.081 230.669)
(218.384 -646.168 185.522)
(90.1458 -587.141 214.889)
(127.011 -593.322 214.456)
(122.632 -576.684 200.782)
(135.908 -653.228 193.456)
(95.8548 -657.051 195.955)
(95.8344 -647.507 220.091)
(135.747 -638.796 218.022)
(315.046 -623.454 265.69)
(303.553 -646.767 365.021)
(119.99 -194.145 116.871)
(455.174 -675.735 364.969)
(26.5713 -56.2742 14.2328)
(0.0946099 -0.22961 0.0469655)
(286.261 -403.731 122.773)
(141.074 -1052.62 74.8167)
(203.655 -1101.14 73.0091)
(148.244 -1088.41 68.2498)
(187.202 -1017.2 96.5729)
(137.874 -1034.21 89.936)
(191.873 -1038.23 76.0648)
(151.086 -1115.08 76.564)
(77.65 -932.203 116.929)
(18.8581 -792.961 199.598)
(22.8498 -936.698 154.781)
(67.4875 -865.732 269.966)
(76.3714 -942.629 155.658)
(24.4434 -926.517 117.693)
(67.5092 -800.652 199.593)
(287.399 -805.578 97.5079)
(249.414 -657.308 162.801)
(293.142 -657.004 163.342)
(302.278 -836.102 117.345)
(314.354 -721.789 210.977)
(344.567 -811.596 132.048)
(271.172 -721.579 191.241)
(253.939 -1075.83 70.5693)
(233.987 -992.269 107.345)
(239.704 -1014.49 79.2432)
(285.096 -981.986 84.3094)
(290.146 -1005.01 62.2762)
(279.79 -964.256 120.677)
(301.605 -1039.66 68.867)
(413.787 -880.312 72.0153)
(469.855 -885.224 66.7612)
(453.188 -837.289 77.9471)
(428.768 -921.933 66.299)
(411.481 -871.779 90.9335)
(447.42 -832.418 114.299)
(460.556 -873.078 61.2565)
(220.299 -565.386 242.697)
(264.154 -591.294 249.282)
(268.956 -595.657 238.346)
(254.177 -669.565 273.572)
(300.975 -692.027 294.246)
(255.006 -674.634 271.456)
(299.952 -674.622 291.234)
(229.3 -417.213 213.928)
(9.31364 -22.1969 4.90214)
(0.0312938 -0.0754892 0.0122723)
(210.619 -291.306 85.5826)
(0.104363 -0.346319 0.0954549)
(0.000376658 -0.000919264 0.00025577)
(7.73205 -13.527 5.21416)
(12.8551 -458.638 505.507)
(0.803967 -2.89799 5.1048)
(0.11817 -6.71468 11.2777)
(115.171 -451.433 491.007)
(5.99738e-05 -0.00610301 0.00881719)
(0.000515254 -0.00231095 0.003252)
(10.3926 -43.8845 40.6586)
(127.39 -930.57 118.479)
(155.099 -799.21 210.009)
(173.087 -929.595 172.216)
(114.653 -868.151 277.241)
(126.24 -941.318 161.3)
(173.968 -917.626 123.204)
(112.358 -802.736 202.649)
(56.2061 -720.897 276.214)
(15.3406 -727.453 278.406)
(57.9297 -794.81 340.08)
(12.8046 -734.851 302.336)
(59.3348 -735.78 280.797)
(53.9703 -736.776 304.095)
(14.4721 -714.578 273.812)
(160.178 -585.877 198.308)
(201.572 -597.986 194.772)
(208.451 -605.667 213.01)
(177.041 -643.51 189.501)
(216.64 -626.376 183.886)
(175.632 -623.931 214.489)
(211.801 -601.924 208.285)
(97.6763 -723.41 279.588)
(143.282 -743.612 292.386)
(102.751 -793.073 344.722)
(139.028 -721.215 307.769)
(101.51 -741.026 285.12)
(96.8509 -732.488 305.916)
(139.653 -722.09 284.736)
(55.821 -706.181 231.753)
(16.2631 -678.238 181.701)
(13.2318 -685.831 212.017)
(48.2665 -624.655 148.742)
(51.3958 -685.941 212.591)
(15.1427 -702.265 230.078)
(55.7648 -680.825 182.7)
(327.472 -942.052 94.4978)
(382.906 -947.478 63.3021)
(332.815 -966.969 61.4934)
(369.629 -916.898 153.275)
(324.746 -937.208 136.593)
(368.396 -902.395 111.115)
(345.731 -996.141 65.9744)
(238.2 -600.401 193.902)
(285.363 -609.412 187.755)
(274.049 -606.95 227.455)
(258.612 -655.727 232.621)
(286.139 -602.498 168.539)
(295.658 -640.837 234.002)
(256.861 -628.963 178.375)
(17.5125 -607.41 307.783)
(55.2986 -598.847 249.328)
(55.5616 -611.25 310.72)
(15.8567 -595.607 301.902)
(17.4388 -629.296 259.931)
(55.6309 -630.672 261.241)
(52.4837 -595.174 301.783)
(288.76 -598.428 183.179)
(285.138 -581.305 205.979)
(250.708 -600.725 211.425)
(270.914 -566.204 161.057)
(250.31 -602.127 175.61)
(239.475 -570.611 196.144)
(249.208 -522.239 176.322)
(97.4763 -704.247 231.883)
(137.191 -664.617 177.117)
(129.633 -656.76 205.118)
(84.5998 -610.512 145.077)
(91.5756 -677.149 210.327)
(139.318 -695.84 230.839)
(96.585 -676.457 181.1)
(198.471 -794.555 221.383)
(219.049 -913.837 187.708)
(219.129 -898.641 131.107)
(263.356 -876.572 144.168)
(252.667 -849.487 328.639)
(264.724 -897.85 208.132)
(242.63 -790.962 238.761)
(93.9435 -610.578 311.656)
(133.2 -604.78 310.627)
(130.764 -607.305 252.393)
(94.7211 -625.214 260.155)
(124.965 -569.157 288.343)
(133.502 -612.79 256.372)
(89.732 -586.506 297.588)
(0.530607 -1.49781 2.69397)
(175.528 -305.59 317.44)
(147.096 -438.99 474.25)
(0.000217195 -0.0011438 0.00158057)
(3.63517e-05 -9.12652e-05 0.000115255)
(6.47175 -22.1258 20.7137)
(0.284038 -0.717527 0.675289)
(337.615 -661.198 175.289)
(381.803 -669.981 202.04)
(419.17 -747.036 132.649)
(357.915 -728.318 242.684)
(384.219 -788.556 156.874)
(421.26 -772.088 190.587)
(402.875 -742.553 285.164)
(186.839 -746.365 303.141)
(178.957 -704.474 309.811)
(183.277 -717.297 291.092)
(226.523 -707.845 299.619)
(232.75 -755.001 365.665)
(231.375 -747.939 318.75)
(212.516 -677.412 310.66)
(176.131 -646.198 170.355)
(162.133 -622.191 196.508)
(181.009 -682.894 228.718)
(219.875 -664.748 225.447)
(151.077 -443.374 106.828)
(182.757 -563.601 183.002)
(208.897 -617.386 159.434)
(16.547 -654.359 183.11)
(45.015 -570.701 148.253)
(54.8561 -655.638 183.966)
(11.3876 -502.273 160.71)
(16.0133 -624.374 207.805)
(52.6266 -623.682 207.958)
(39.4589 -492.087 158.073)
(132.971 -633.735 176.803)
(77.6809 -550.59 143.358)
(94.3057 -648.968 182.018)
(90.2794 -614.362 205.061)
(87.1188 -409.206 133.988)
(66.6912 -462.836 149.738)
(126.211 -595.448 198.272)
(501.676 -838.858 61.0385)
(519.029 -768.45 129.782)
(487.693 -795.95 99.0287)
(482.721 -807.405 139.608)
(529.052 -806.937 58.2415)
(521.619 -800.395 157.267)
(493.151 -833.456 58.7717)
(306.193 -853.118 163.724)
(332.179 -794.02 296.916)
(354.45 -872.125 261.125)
(296.919 -832.251 348.396)
(309.955 -884.817 234.264)
(347.659 -832.9 189.914)
(287.272 -791.56 263.739)
(171.061 -607.389 253.976)
(207.892 -573.767 298.951)
(212.148 -599.554 254.382)
(154.769 -541.57 272.686)
(170.108 -593.315 249.508)
(200.054 -564.687 237.232)
(174.055 -495.263 247.923)
(419.854 -904.786 60.9371)
(413.302 -898.643 167.989)
(408.221 -870.719 131.406)
(448.458 -854.027 151.695)
(462.091 -890.484 59.7046)
(453.477 -870.826 175.615)
(457.18 -871.718 59.5861)
(316.065 -621.003 254.352)
(366.671 -652.588 286.024)
(366.865 -644.44 293.238)
(346.667 -704.395 325.142)
(337.144 -666.88 310.574)
(386.135 -701.797 356.312)
(362.577 -648.311 327.938)
(323.53 -620.398 234.196)
(346.781 -575.506 171.792)
(360.318 -613.424 242.786)
(296.868 -560.063 152.557)
(321.693 -617.438 232.433)
(325.493 -573.383 223.935)
(276.927 -471.969 129.221)
(264.708 -692.015 309.47)
(314.467 -731.169 357.431)
(268.674 -731.243 371.755)
(237.484 -556.96 286.666)
(274.974 -743.447 338.245)
(234.401 -632.354 305.83)
(295 -669.945 317.862)
(168.372 -609.676 168.446)
(120.131 -341.585 91.3031)
(195.272 -571.377 155.852)
(93.6259 -327.186 109.017)
(156.835 -564.464 186.954)
(176.172 -511.797 169.058)
(78.5262 -218.789 73.6618)
(425.997 -685.785 243.557)
(489.999 -723.307 204.812)
(454.872 -730.734 166.223)
(459.659 -768.318 225.228)
(481.946 -735.262 356.773)
(503.218 -774.49 258.074)
(447.914 -750.925 330.699)
(305.273 -550.234 193.471)
(326.757 -539.787 157.614)
(268.954 -503.465 140.072)
(299.834 -497.426 170.937)
(230.815 -428.543 144.507)
(226.819 -377.067 105.894)
(162.146 -266.505 92.1527)
(250.745 -637.643 218.498)
(227.805 -489.321 124.738)
(152.402 -333.344 124.216)
(133.2 -322.252 80.3081)
(183.164 -468.636 161.203)
(264.889 -589.114 207.285)
(228.889 -570.422 144.839)
(273.992 -553.208 238.549)
(235.187 -546.115 284.17)
(248.452 -581.579 250.057)
(216.879 -521.479 216.561)
(140.671 -283.778 145.633)
(211.536 -441.275 183.494)
(173.833 -412.999 208.165)
(375.588 -790.903 332.581)
(397.576 -852.829 280.544)
(388.254 -821.215 221.222)
(430.708 -818.701 253.843)
(381.637 -728.149 361.204)
(430.952 -818.526 286.071)
(413.194 -772.96 356.716)
(46.0133 -460.031 506.382)
(10.7082 -439.813 453.627)
(8.76699 -362.656 428.096)
(40.4083 -437.658 450.61)
(34.0224 -358.855 422.355)
(20.5893 -224.731 240.56)
(5.06191 -234.596 251.367)
(80.7277 -457.874 501.738)
(82.1928 -320.966 370.493)
(99.1011 -406.559 413.955)
(71.2415 -427.568 438.484)
(60.0314 -346.108 404.57)
(34.5966 -200.839 214.395)
(41.8157 -161.83 172.251)
(11.4212 -490.674 239.832)
(8.38812 -373.146 151.585)
(14.3968 -579.408 234.917)
(48.2942 -576.446 233.767)
(14.8133 -173.653 84.6974)
(29.6255 -357.461 145.87)
(40.0423 -480.86 235.346)
(82.8021 -562.387 228.026)
(88.2741 -403.853 200.008)
(57.0763 -257.227 106.754)
(22.0069 -141.027 67.9803)
(48.0799 -319.338 131.423)
(113.516 -533.567 216.381)
(67.5328 -453.72 222.8)
(13.2455 -9.39185 15.3592)
(0.0143958 -0.00918397 0.0236599)
(0.193622 -0.172966 0.391117)
(5.50003e-05 -4.56395e-05 8.72885e-05)
(0.021699 -0.0214759 0.0439651)
(0.00094866 -0.000745542 0.000996259)
(0.704216 -0.698269 1.22708)
(489.839 -844.191 166.804)
(491.513 -846.54 57.3705)
(534.963 -831.509 57.7568)
(478.488 -759.064 165.686)
(479.305 -825.875 175.762)
(525.61 -818.38 173.117)
(496.427 -852.703 58.9653)
(172.522 -416.281 447.272)
(95.4575 -280.507 317.843)
(119.246 -369.703 372.74)
(125.489 -310.994 307.903)
(93.667 -219.386 243.901)
(38.0274 -110.062 118.15)
(23.8752 -56.7806 63.2556)
(0.0414397 -0.0569417 0.0821365)
(0.00182372 -0.00312652 0.00569468)
(129.469 -196.332 200.287)
(2.6278e-05 -7.58968e-05 9.47504e-05)
(0.058649 -0.15131 0.140286)
(0.000256867 -0.000483545 0.00041155)
(2.1204e-05 -3.35232e-05 4.33283e-05)
(189.592 -396.639 108.348)
(88.8397 -210.711 57.0528)
(206.618 -508.108 137.288)
(174.025 -420.518 140.05)
(13.6488 -33.0387 9.37017)
(44.8445 -109.18 35.5882)
(138.152 -283.413 96.4472)
(417.029 -675.555 328.482)
(422.286 -623.167 341.499)
(403.074 -643.027 321.615)
(424.907 -652.301 379.85)
(413.864 -685.287 375.234)
(368.66 -612.518 334.02)
(341.641 -526.608 310.099)
(95.5327 -327.305 164.228)
(51.8953 -176.772 73.3621)
(135.414 -483.503 196.855)
(141.134 -401.465 165.762)
(5.79383 -20.1518 7.58893)
(32.3423 -93.4817 37.0414)
(81.424 -223.735 112.352)
(345.828 -710.906 371.229)
(211.034 -434.669 240.934)
(309.592 -632.99 321.436)
(291.365 -560.746 329.556)
(365.601 -680.272 377.373)
(301.288 -561.216 306.758)
(145.329 -269.322 158.061)
(472.764 -807.185 276.78)
(420.456 -677.227 251.079)
(368.849 -649.991 330.373)
(439.936 -692.871 354.016)
(444.074 -766.046 278.646)
(497.679 -772.905 280.358)
(437.253 -741.078 363.935)
(343.28 -528.713 154.537)
(365.706 -536.22 236.186)
(379.036 -592.5 246.316)
(291.744 -470.626 200.072)
(70.383 -106.426 32.4604)
(194.429 -287.95 138.272)
(198.45 -304.004 88.7806)
(279.45 -509.716 216.109)
(162.995 -262.098 137.255)
(252.746 -417.522 177.191)
(72.1547 -132.589 65.9133)
(166.302 -301.18 128.508)
(78.2322 -131.89 55.4797)
(16.1814 -32.0451 13.3799)
(187.888 -350.064 93.0005)
(86.7261 -171.424 69.3027)
(252.489 -497.394 186.796)
(195.789 -344.436 143.588)
(4.99517 -11.8734 2.64532)
(23.6964 -49.3897 21.5541)
(99.4457 -169.725 47.8542)
(185.4 -376.083 399.554)
(35.8062 -59.9297 70.0112)
(67.8811 -118.777 116.367)
(109.475 -223.793 218.488)
(71.9737 -139.349 154.625)
(9.8083 -20.835 24.5806)
(3.10547 -5.95771 7.6084)
(302.892 -461.569 132.156)
(126.667 -177.014 62.7883)
(249.903 -375.892 130.569)
(25.1101 -40.6364 10.4477)
(122.396 -187.102 53.6008)
(56.975 -92.0859 30.5517)
(7.81098 -14.121 3.77689)
(6.94324 -319.909 306.059)
(8.00609 -89.3452 82.2401)
(27.5264 -310.006 295.913)
(4.6911 -52.0182 55.8582)
(0.0683646 -4.98638 5.60695)
(0.341572 -4.35852 4.89851)
(1.08462 -58.2961 62.3245)
(119.969 -281.461 118.539)
(15.2757 -36.0472 14.9557)
(3.23471 -9.16325 2.71604)
(2 -6.64115 2.2053)
(11.6518 -32.5262 11.369)
(69.8542 -143.73 59.8516)
(48.1012 -114.913 55.3244)
(129.674 -237.615 65.9873)
(2.96286 -7.93365 1.91028)
(69.0721 -129.489 43.4413)
(1.70104 -4.33143 0.833004)
(46.1193 -83.1473 22.0691)
(15.1103 -30.7567 8.79521)
(0.505442 -1.38419 0.297098)
(0.858446 -4.5868 7.89777)
(21.1019 -76.5531 95.4187)
(19.1957 -104.805 127.709)
(2.70992 -15.6065 20.9177)
(0.0796318 -0.314944 0.547585)
(2.51527 -9.81774 13.6546)
(0.0877739 -0.51118 0.880733)
(2.84946 -132.133 159.956)
(0.577381 -6.00706 10.1668)
(11.8802 -123.82 149.939)
(1.87551 -20.6232 27.0485)
(0.0107871 -0.769951 1.31676)
(0.411343 -23.193 30.1515)
(0.0598506 -0.683208 1.17033)
(11.5483 -69.5526 64.1242)
(59.2548 -240.783 227.269)
(46.8682 -284.56 270.177)
(6.66794 -39.4538 42.8229)
(0.394671 -1.86035 2.08953)
(0.469512 -3.15823 3.55028)
(5.98629 -24.5812 27.2649)
(107.888 -88.3817 117.2)
(42.0111 -36.1898 56.4309)
(123.602 -115.322 140.934)
(19.612 -16.6475 23.7592)
(6.41504 -5.82956 10.2561)
(5.05664 -3.84327 7.61106)
(0.657225 -0.533625 1.04374)
(235.496 -406.162 245.905)
(332.469 -528.248 321.082)
(364.777 -630.014 368.421)
(252.859 -426.535 251.697)
(8.95113 -18.4767 10.9076)
(54.2333 -99.3826 60.256)
(148.33 -231.48 144.023)
(57.299 -90.5142 44.2803)
(44.9032 -67.5552 27.3023)
(164.663 -244.572 106.941)
(14.4915 -26.716 9.31717)
(0.272742 -0.584551 0.175155)
(1.75601 -3.49937 0.986679)
(2.34683 -5.09094 1.73116)
(16.0543 -44.4402 57.7046)
(0.271508 -0.64166 1.18046)
(8.7187 -20.1885 27.8685)
(0.0507143 -0.158825 0.277188)
(1.67255 -5.0507 7.32706)
(0.813549 -2.08241 3.0992)
(0.0247721 -0.0657642 0.114001)
(58.8421 -178.682 167.808)
(3.01815 -9.00387 8.54527)
(42.4876 -104.21 98.5947)
(0.234634 -0.890714 0.998094)
(3.84946 -12.5157 14.3892)
(1.85229 -5.11679 6.09949)
(0.105039 -0.343955 0.383485)
(54.616 -75.6983 79.8546)
(9.80566 -15.5425 19.9667)
(21.3277 -35.7249 36.7125)
(4.13513 -7.03402 7.75256)
(1.98608 -3.10355 4.39128)
(0.703628 -1.33486 1.75382)
(0.132311 -0.245125 0.323735)
(92.9988 -155.154 71.4644)
(0.537547 -1.30878 0.587867)
(0.744401 -1.82941 0.383946)
(2.90906 -5.93245 1.43807)
(4.04093 -9.41562 4.14008)
(17.6889 -32.2204 16.035)
(22.1397 -40.5335 10.8476)
(3.25031 -8.56238 2.95119)
(0.644726 -1.94539 0.511242)
(19.4463 -41.8788 15.3197)
(3.51964 -8.42078 2.51004)
(0.0184781 -0.0573419 0.0149746)
(0.113876 -0.337422 0.0795734)
(0.5501 -1.47001 0.448595)
(0.248024 -0.632647 0.109361)
(0.906241 -1.90922 0.366215)
(7.366 -14.9117 3.27244)
(2.24966 -5.01759 1.19421)
(0.00934762 -0.0230406 0.00436373)
(0.0744047 -0.197775 0.0392327)
(0.269303 -0.59986 0.126563)
(396.694 -76.7618 541.714)
(392.76 50.2238 540.444)
(27.1935 2.99391 42.8157)
(337.527 34.4941 399.686)
(4.02918 0.425125 7.10823)
(391.67 -44.1593 539.429)
(108.718 -9.97595 162.157)
(423.761 -36.143 441.933)
(0.483035 -0.0381311 0.850905)
(15.5602 -285.003 468.902)
(242.687 -326.282 525.682)
(14.723 -381.579 527.897)
(105.486 -297.619 492.828)
(71.1865 -216.219 419.202)
(6.0187 -20.7973 33.0604)
(0.963906 -44.3635 65.7783)
(118.431 -441.081 525.884)
(8.3137 -230.686 465.857)
(136.434 -301.484 500.839)
(187.23 -251.597 427.505)
(87.3164 -200.246 375.742)
(0.351455 -0.577475 1.15506)
(4.31309 -11.3934 19.2513)
(233.568 -390.43 443.08)
(154.457 -438.402 514.276)
(429.297 -181.298 498.297)
(96.2046 -17.4186 143.333)
(26.2836 -12.3751 43.2951)
(1.6881 -0.636587 2.55582)
(409.63 -164.311 443.987)
(413.565 -65.3387 429.503)
(0.370167 -0.0593803 0.654645)
(15.2743 -326.669 498.74)
(45.7678 -290.159 477.086)
(46.7923 -332.334 505.819)
(14.4894 -308.552 575.993)
(45.0786 -312.625 580.809)
(45.0636 -357.052 573.319)
(13.7876 -353.574 570.738)
(75.4002 -294.606 485.548)
(109.792 -342.092 518.715)
(77.9216 -337.535 512.708)
(108.624 -319.026 581.8)
(76.4832 -316.059 583.188)
(77.6678 -359.531 572.037)
(111.166 -361.12 565.679)
(169.581 -307.517 509.603)
(143.471 -348.349 524.845)
(142.416 -323.325 576.436)
(179.485 -357.168 529.654)
(177.797 -328.139 565.877)
(145.802 -361.365 554.432)
(179.329 -359.176 537.925)
(243.791 -328.392 525.279)
(205.376 -316.598 518.628)
(255.856 -375.461 518.39)
(217.188 -368.147 528.865)
(212.724 -329.889 549.058)
(209.269 -352.267 515.562)
(229.969 -336.115 485.534)
(14.024 -437.255 531.298)
(47.7534 -440.727 533.62)
(47.4474 -387.368 533.019)
(44.0992 -389.734 547.58)
(11.0789 -398.012 508.36)
(40.6868 -398.273 507.611)
(12.7524 -387.408 546.781)
(384.777 45.8251 542.278)
(438.458 50.618 534.313)
(386.389 18.6461 535.727)
(435.209 18.1492 532.024)
(382.481 16.2207 541.771)
(387.267 14.4123 500.881)
(386.804 42.0872 499.062)
(385.966 -12.8438 535.29)
(438.382 -44.1695 534.374)
(435.058 -12.1742 531.987)
(385.244 -39.6657 542.898)
(382.587 -10.4548 541.928)
(387.615 -9.01001 501.345)
(388.01 -36.2488 500.589)
(114.809 -398.019 537.269)
(82.6967 -441.974 532.272)
(80.6645 -392.805 536.353)
(77.0454 -389.702 543.602)
(102.658 -384.056 485.202)
(72.1975 -394.039 500.584)
(110.356 -386.936 533.835)
(28.5252 -229.97 461.561)
(12.3588 -299.666 571.415)
(40.092 -301.822 572.672)
(37.7121 -322.301 536.127)
(6.15302 -208.738 356.777)
(10.8769 -321.392 536.666)
(22.888 -205.419 348.83)
(401.64 -110.22 541.249)
(439.557 -78.0508 532.712)
(385.31 -71.122 539.283)
(438.842 -112.7 525.848)
(382.755 -102.99 530.049)
(384.007 -65.9434 493.412)
(374.396 -94.7766 477.322)
(100.394 -301.689 559.844)
(50.6806 -225.572 447.088)
(70.0502 -302.519 569.243)
(66.9285 -320.372 529.796)
(53.9621 -176.983 290.207)
(95.7544 -314.697 515.711)
(40.2516 -195.587 327.665)
(150.904 -403.906 535.053)
(188.58 -431.429 497.631)
(188.603 -408.571 526.98)
(129.077 -366.365 458.665)
(142.768 -380.968 518.828)
(171.382 -369.192 497.364)
(147.266 -336.362 415.531)
(410.149 -182.413 528.362)
(406.745 -145.534 537.406)
(436.275 -147.739 514.291)
(365.175 -162.124 494.229)
(377.112 -134.219 515.699)
(356.943 -120.203 449.933)
(327.12 -137.742 405.153)
(130.457 -299.011 544.536)
(94.3555 -173.863 312.705)
(157.936 -291.935 521.509)
(59.9183 -147.629 236.195)
(122.22 -304.271 491.711)
(142.698 -286.159 453.055)
(54.5016 -107.203 168.135)
(60.859 -81.0508 136.891)
(86.2453 -133.072 229.648)
(178.847 -277.428 485.976)
(151.385 -254.541 390.009)
(16.9975 -23.864 41.8842)
(139.974 -203.15 298.131)
(38.0537 -62.1901 99.3521)
(254.347 -398.945 489.638)
(217.328 -417.103 476.287)
(224.637 -407.286 511.662)
(191.737 -347.321 463.617)
(127.756 -208.945 243.798)
(150.099 -286.526 344.673)
(197.582 -309.431 405.624)
(105.563 11.7273 157.633)
(230.871 24.3831 303.357)
(300.738 33.8137 449.58)
(112.34 3.92104 168.007)
(302.974 11.5139 455.501)
(238.223 8.14535 314.687)
(30.6691 0.989056 47.7705)
(453.063 48.5115 503.502)
(192.898 19.3844 208.897)
(421.48 42.0344 439.16)
(425.097 14.1298 444.037)
(451.843 16.8288 503.239)
(343.257 11.5325 408.216)
(204.611 6.35253 221.647)
(113.501 -2.11707 169.628)
(302.713 -28.806 452.652)
(303.62 -6.81289 456.479)
(239.445 -4.69657 316.435)
(28.6174 -2.60004 44.8002)
(234.386 -20.8346 308.278)
(31.2487 -0.510596 48.5701)
(425.739 -8.74018 444.894)
(453.541 -42.0118 504.52)
(451.891 -10.8794 503.511)
(344.191 -6.92734 409.564)
(197.723 -16.6757 214.105)
(206.344 -3.63433 223.526)
(340.523 -29.5981 403.691)
(33.5696 -316.062 471.095)
(6.3834 -262.18 346.478)
(4.07857 -40.0529 59.9951)
(3.42821 -137.529 203.954)
(25.2513 -256.517 337.549)
(9.0211 -317.226 474.896)
(13.6037 -131.221 194.095)
(59.7346 -309.436 457.731)
(27.2794 -92.5602 136.467)
(6.11619 -31.3341 48.0349)
(57.9358 -213.182 273.234)
(44.0649 -241.151 314.07)
(83.7672 -295.306 430.748)
(22.7154 -116.236 171.178)
(296.255 -52.9166 438.938)
(76.4316 -21.1868 114.748)
(282.291 -75.026 411.17)
(22.8811 -4.12071 36.5165)
(219.652 -37.4046 286.118)
(192.768 -49.5091 247.767)
(15.5415 -4.21554 25.6985)
(451.674 -75.4024 500.262)
(392.23 -91.7147 404.084)
(445.154 -108.547 489.801)
(175.909 -28.706 190.105)
(327.743 -53.4938 385.474)
(303.121 -73.9381 351.602)
(140.275 -34.7564 151.321)
(24.8995 -62.9114 94.8542)
(61.7585 -170.102 215.324)
(101.789 -270.852 386.15)
(108.819 -232.251 321.323)
(2.435 -5.22055 9.49377)
(52.1379 -113.854 144.345)
(15.9578 -32.3458 51.8902)
(220.342 -98.5415 303.579)
(51.0798 -19.1405 78.775)
(258.371 -91.9357 367.256)
(151.63 -52.6787 193.274)
(4.22014 -1.89254 7.83996)
(99.8849 -44.1082 128.258)
(8.82942 -3.1878 15.4474)
(296.783 -116.642 295.919)
(355.311 -110.849 361.297)
(432.55 -139.482 472.531)
(263.53 -86.2069 299.673)
(47.6315 -19.2958 54.134)
(203.393 -84.1345 227.649)
(93.825 -31.2947 102.898)
(266.573 -229.453 571.896)
(1.4994 -1.31162 3.40472)
(378.901 -249.602 519.554)
(248.978 -141.287 378.552)
(361.052 -301.65 469.283)
(248.343 -212.248 541.329)
(292.836 -287.335 497.795)
(195.462 -191.703 342.192)
(13.5977 -145.419 587.972)
(134.496 -150.655 565.825)
(83.5032 -148.316 584.065)
(93.8378 -180.089 422.095)
(14.4964 -175.447 385.396)
(102.655 -264.017 474.236)
(79.7523 -218.707 502.207)
(15.7561 -253.738 446.522)
(9.97751 -222.875 527.442)
(222.646 -214.6 570.745)
(183.13 -183.968 467.41)
(123.216 -180.663 438.05)
(243.532 -298.059 554.117)
(131.695 -265.82 481.729)
(210.584 -257.389 500.851)
(101.692 -211.731 473.443)
(42.144 -179.166 392.603)
(15.3214 -198.634 406.63)
(42.9028 -202.583 415.837)
(15.4244 -173.703 489.785)
(43.5281 -176.541 498.229)
(44.5945 -205.083 523.743)
(15.9746 -201.539 515.303)
(67.365 -180.064 406.816)
(97.3676 -207.005 442.146)
(69.7376 -205.254 428.367)
(99.7718 -180.341 522.705)
(70.9591 -178.617 510.524)
(73.039 -208.098 534.121)
(101.882 -210.001 546.009)
(153.36 -182.515 455.883)
(126.739 -208.73 456.858)
(129.68 -182.214 537.504)
(156.118 -210.572 467.918)
(160.012 -184.425 555.007)
(132.107 -212.53 558.545)
(163.27 -215.885 570.41)
(15.7866 -225.425 426.608)
(44.8451 -258.542 455.867)
(44.0198 -230.001 437.245)
(44.948 -236.699 549.456)
(15.2387 -268.414 562.782)
(45.0132 -272.408 569.917)
(15.8429 -232.998 541.057)
(100.653 -235.188 459.839)
(73.563 -262.076 466.145)
(72.1718 -233.258 449.044)
(74.2847 -239.937 557.947)
(105.856 -278.338 579.85)
(75.1843 -275.634 575.943)
(103.767 -242.436 566.097)
(211.967 -183.937 473.98)
(214.162 -212.069 480.214)
(184.808 -211.263 473.824)
(224.727 -189.971 578.82)
(191.653 -187.134 569.538)
(195.892 -219.387 578.515)
(230.144 -223.697 579.897)
(34.909 -146.119 589.253)
(15.1644 -163.919 601.827)
(40.7205 -165.728 606.142)
(41.2816 -199.469 609.689)
(12.5805 -174.769 578.366)
(14.8754 -197.26 605.665)
(34.4007 -175.656 579.523)
(129.097 -236.786 469.62)
(161.997 -268.439 488.796)
(157.913 -238.192 475.961)
(138.088 -282.042 581.948)
(134.549 -245.468 574.027)
(167.039 -249.488 579.733)
(172.193 -286.881 579.995)
(58.5631 -147.312 588.471)
(95.8091 -170.254 611.347)
(67.4427 -168.055 609.986)
(69.0127 -201.789 612.132)
(83.8536 -176.503 571.501)
(58.7157 -176.391 577.711)
(97.9311 -203.87 612.116)
(247.138 -216.554 494.179)
(242.007 -185.365 483.869)
(260.044 -194.243 580.017)
(277.426 -191.101 502.012)
(287.044 -226.229 513.404)
(298.553 -199.936 570.112)
(303.559 -235.568 553.583)
(108.884 -149.586 577.203)
(125.509 -173.273 612.526)
(156.549 -176.867 611.685)
(109.275 -176.583 560.949)
(128.314 -206.642 609.99)
(160.021 -210.276 603.95)
(134.177 -176.023 543.185)
(230.597 -282.207 510.696)
(236.739 -259.969 572.046)
(219.969 -243.658 492.758)
(194.496 -273.37 498.138)
(187.596 -239.646 482.137)
(201.176 -254.245 579.864)
(207.561 -292.927 570.753)
(41.3162 -234.378 606.928)
(11.3681 -201.667 560.296)
(31.5315 -223.512 526.418)
(13.4267 -267.514 592.433)
(40.9928 -270.031 595.038)
(14.2653 -231.951 603.483)
(33.2755 -202.591 560.796)
(69.9701 -236.513 607.712)
(82.9226 -201.685 547.373)
(100.977 -272.738 587.824)
(55.8143 -222.379 518.927)
(70.5178 -271.792 593.829)
(57.8577 -202.745 557.098)
(99.6055 -238.452 604.713)
(220.796 -183.437 589.878)
(169.631 -162.664 458.308)
(178.874 -146.972 508.774)
(159.025 -150.472 545.538)
(188.711 -180.512 604.882)
(192.291 -213.527 591.159)
(156.085 -172.511 511.639)
(107.651 -199.645 530.121)
(132.248 -273.462 577.442)
(130.693 -240.983 598.377)
(162.791 -243.525 587.104)
(118.332 -198.664 426.723)
(163.237 -273.28 560.933)
(130.125 -195.039 501.028)
(313.935 -308.477 520.745)
(273.463 -296.963 529.984)
(270.816 -294.824 522.417)
(273.379 -266.362 555.268)
(257.233 -252.665 508.81)
(300.101 -265.531 523.447)
(302.464 -266.275 529.764)
(372.737 -211.576 531.432)
(321.733 -200.881 523.392)
(333.796 -238.42 527.843)
(352.601 -200.331 514.289)
(333.081 -204.256 547.916)
(329.639 -234.502 524.987)
(336.277 -221.544 484.097)
(250.249 -184.364 566.776)
(166.885 -142.25 373.999)
(187.261 -136.68 445.607)
(174.157 -115.366 347.206)
(272.53 -180.918 533.187)
(260.931 -201.712 498.271)
(136.63 -105.66 257.8)
(220.988 -241.881 542.422)
(149.533 -163.362 377.76)
(112.879 -137.637 265.269)
(193.785 -244.324 568.999)
(124.838 -175.799 358.512)
(190.874 -269.396 536.439)
(146.183 -184.272 452.624)
(375.476 -281.151 498.247)
(248.796 -207.909 338.687)
(290.507 -261.157 446.476)
(347.534 -312.833 501.291)
(345.756 -278.71 521.122)
(317.688 -256.274 494.644)
(305.541 -228.61 432.955)
(234.088 -72.254 448.607)
(184.217 21.551 310.288)
(338.053 49.3778 517.506)
(275.088 46.1676 575.83)
(269.056 41.5386 587.257)
(336.603 -43.9235 515.315)
(187.142 -18.0921 315.157)
(230.909 -43.4559 438.392)
(201.12 -25.9184 548.613)
(237.423 -128.495 468.862)