/*--------------------------------*- C++ -*----------------------------------*\
  =========                 |
  \\      /  F ield         | OpenFOAM: The Open Source CFD Toolbox
   \\    /   O peration     | Website:  https://openfoam.org
    \\  /    A nd           | Version:  9
     \\/     M anipulation  |
\*---------------------------------------------------------------------------*/
FoamFile
{
    format      ascii;
    class       volScalarField;
    location    "0.0034";
    object      rho.c4;
}
// * * * * * * * * * * * * * * * * * * * * * * * * * * * * * * * * * * * * * //

dimensions      [1 -3 0 0 0 0 0];

internalField   nonuniform List<scalar> 
29186
(
1.97161
2.38994
1.62961
1.51379
1.21811
1.5794
1.36544
1.18235
1.83566
2.57001
4.36246
8.03125
0.666109
0.811092
0.732639
0.825549
0.853542
1.04447
0.914894
1.05391
1.14008
1.46032
1.34959
1.7077
1.63588
2.13186
0.676337
0.658213
0.631386
0.718812
0.621394
0.710811
0.687182
0.726305
0.767259
0.803504
0.78238
0.759341
0.738309
0.77051
0.859835
0.846949
0.823502
0.902377
0.812717
0.897274
0.868421
0.919685
0.964476
1.04455
0.996057
0.962276
0.924371
0.995535
1.17916
1.13849
1.08158
1.24176
1.0834
1.23254
1.17832
1.26657
1.33425
1.45704
1.38821
1.31157
1.2738
1.39176
2.22323
2.86443
3.88397
1.62344
1.51743
1.5281
1.9476
1.38599
1.82316
1.77169
0.622486
0.54707
0.787882
0.594873
1.00125
0.708649
1.09299
0.630965
1.86875
4.70706
0.542301
0.643358
0.665322
0.56184
0.665633
0.637058
0.568943
0.654401
0.586127
0.735256
0.933257
0.687981
0.932035
0.728433
0.711064
0.894789
0.679792
1.0376
1.05317
0.574398
1.21418
1.13497
0.633036
1.24708
1.17454
1.40031
0.555814
1.43899
1.29097
0.788774
1.93531
1.47231
0.972582
2.08022
0.549743
0.593322
0.537403
0.549761
0.596641
0.539216
0.546159
0.702138
0.662647
0.605494
0.636606
0.629537
0.72504
0.664297
0.900972
0.892035
0.768737
0.68617
0.888481
0.892324
0.763268
1.08842
0.886605
0.796872
0.662428
0.979835
0.945382
0.876754
1.43838
0.879212
2.54446
2.66657
2.73427
2.10027
3.32997
3.27967
2.86456
0.654505
0.656806
0.63
0.543479
0.656771
0.632374
0.652296
0.664264
0.548734
0.684475
0.661772
0.66413
0.641006
0.687983
0.559466
0.555432
0.624924
0.566585
0.605153
0.54653
0.583489
0.788938
0.721485
0.697939
0.622388
0.729105
0.777243
0.753944
0.858355
0.664044
0.891597
0.874745
0.841407
0.821764
0.914667
0.785767
0.683243
0.864651
0.761104
0.802635
0.72379
0.85351
0.964117
0.915819
0.896054
0.648378
0.947305
0.921338
0.891351
0.977683
0.608338
0.910148
0.857087
0.917599
0.87293
0.997165
0.909446
0.654856
0.872634
0.763385
0.880404
0.757481
0.928979
0.958018
1.16557
1.06095
1.2345
0.969793
1.18977
1.07498
0.79577
0.870135
0.803733
0.862799
0.967708
1.30264
1.31237
1.19185
1.22691
1.10594
1.03477
0.801607
0.955434
0.876957
0.865092
1.07941
0.908021
0.857568
0.567018
1.02733
0.921263
0.892225
1.16965
0.626828
1.0846
1.21128
0.965822
0.997054
1.33114
1.29832
0.759636
1.35382
1.36479
1.08467
1.04828
1.66717
1.07764
0.71178
1.42154
0.922732
1.17726
1.24477
1.45808
5.48682
10.0019
6.72787
3.78589
6.90337
6.37523
13.3149
1.62547
1.21433
1.32288
1.6398
1.83905
1.76279
2.27734
70.7692
3.49818
8.88336
0.498852
0.555949
0.611076
0.795294
0.838878
0.991377
1.14048
1.37244
1.06136
1.31682
1.42053
1.95704
1.75804
1.47672
2.5073
2.46157
0.488824
0.455836
0.503162
0.505521
0.46363
0.51056
0.480213
0.50395
0.520883
0.513287
0.559956
0.479111
0.525958
0.536324
0.648002
0.56695
0.612677
0.678881
0.5881
0.629847
0.674636
0.701449
0.742894
0.728779
0.777841
0.684706
0.731136
0.745701
0.827919
0.767778
0.818181
0.881764
0.785304
0.809414
0.860073
0.88168
0.931335
0.926201
0.978139
0.860859
0.911732
0.951154
1.12207
1.00223
1.05702
1.1401
1.0326
1.0858
1.14367
1.212
1.22237
1.27271
1.33476
1.17282
1.23185
1.32035
1.22798
1.06556
1.22097
1.21281
1.16038
1.13493
1.28279
1.29026
1.28368
1.28156
1.43519
1.20107
1.34909
1.36569
1.51713
1.27581
1.45055
1.64004
1.29972
1.47824
1.67731
1.35568
1.53411
1.65837
1.46107
1.53496
1.62874
1.69739
3.51315
5.2766
5.66947
3.25682
3.40795
3.28057
3.33567
0.752816
2.9044
0.911594
4.06706
1.57288
11.7341
2.13198
13.2752
1.44882
7.49559
0.160616
59.3391
0.664942
0.692232
0.719739
0.7115
0.781153
1.47661
0.853853
1.53684
0.792106
0.837747
1.12358
1.36154
0.954995
2.00319
1.20086
1.35979
1.35504
1.48111
1.47939
1.78612
3.08882
2.82304
1.12895
4.43794
3.33505
5.41187
0.781968
1.32369
1.05694
0.820213
0.807632
1.37609
1.09515
0.981965
1.76173
1.32645
1.4301
1.63576
2.07797
2.05076
1.99538
3.04755
4.68035
1.88615
2.31783
3.98011
6.92262
3.11119
5.54309
10.2753
5.03463
5.85752
9.25544
19.6974
3.9627
4.53382
6.70143
6.09204
11.8406
0.571104
0.574864
0.633128
0.668019
0.577548
0.637516
0.567292
0.582533
0.681924
0.618565
0.689948
0.588783
0.652838
0.611921
1.00494
0.869118
0.890624
0.788256
0.876651
0.900628
0.995793
1.03808
0.806576
0.974897
0.991669
0.9026
0.925619
1.12752
0.753756
0.676221
0.761343
0.89599
0.668161
0.755906
0.875631
0.85368
1.01477
0.894371
1.13431
0.835794
1.01235
0.937844
1.63106
1.12703
1.13144
1.1236
1.31445
1.38045
1.36876
1.02635
0.925643
1.22372
1.25005
0.991818
0.941832
1.28717
1.05774
1.29227
0.986769
1.41552
0.957424
1.34306
1.10375
1.35257
1.05224
1.54266
1.72469
1.19017
1.18432
1.79096
1.65362
2.20302
1.95429
3.18084
1.44752
2.27433
2.1973
1.94831
0.904195
1.65728
1.69453
1.36814
1.41827
2.27962
2.82227
2.58373
3.96088
5.17207
2.22977
3.27799
4.49476
0.724649
0.875503
0.758996
0.730932
0.885507
0.857003
0.848024
0.892202
1.09391
1.05801
1.04469
1.30854
1.25801
1.05608
1.57037
2.16067
1.67164
1.67592
2.36908
2.28037
2.07577
2.12299
3.3776
2.61292
2.59436
4.23606
4.11589
3.25969
1.83522
1.95639
2.15255
2.26962
2.78093
3.35786
2.64893
15.4545
18.7508
27.0723
18.1167
43.3668
36.1397
48.425
8.27998
14.3026
18.7654
60.9102
0.77521
0.796869
0.966571
0.748583
0.907256
0.877472
0.935429
1.24512
1.42207
1.90046
1.23457
1.59625
1.53095
1.82311
1.75888
1.88991
2.8655
1.76681
2.57383
2.48029
2.76275
3.47873
4.99179
8.38754
3.46712
5.70517
5.55768
8.0836
2.8337
4.68624
6.07512
3.1007
3.92767
4.65119
7.01057
1.69658
6.79679
6.56572
3.03651
1.77574
7.01444
6.78446
2.34547
8.9979
8.8111
7.24417
6.63299
14.656
15.0693
11.8616
18.9479
22.0116
14.9671
17.2314
18.291
22.937
20.3235
17.9703
12.1454
16.1829
20.7504
0.0401062
4.41378
11.3756
3.38263
0.00192258
2.3122e-07
24.9416
5.91476
8.11608
5.45891
15.5723
5.74188
5.74971
8.90422
10.5601
5.33818
9.9999
4.78256
2.95245
2.95761
3.70815
0.901178
1.38559
2.74492
3.70771
4.09787
23.7042
10.5015
20.7651
1.11987
1.13205
1.95035
0.934839
1.1751
1.17293
2.25495
1.46671
1.41935
2.77072
1.72089
2.21817
2.22796
5.56952
3.47
5.36681
12.157
2.71325
6.50736
8.29889
26.2398
11.8993
12.643
28.6662
7.41773
23.502
21.7014
26.4152
67.8222
11.1376
16.4916
30.6989
38.716
25.9656
46.8314
8.97429
14.9172
28.2317
0.00999298
4.2391e-09
0.000160984
1.96543e-08
4.06666e-06
1.9616e-10
6.75288e-08
5.97417e-13
6.44735e-11
2.22045e-16
1.58664e-14
2.22045e-16
0.00214997
1.1905e-13
2.22045e-16
2.22045e-16
4.12007
6.06182
18.1348
30.4623
36.5733
28.2066
1.15309e-11
2.22045e-16
2.22045e-16
2.22045e-16
1.20619
1.08187
1.06919
1.01507
1.00787
1.13996
1.08074
1.0763
1.14843
4.63019e-07
0.00350842
3.90805e-10
2.6615e-07
4.21175e-12
4.43059e-09
1.22291e-14
4.07797e-13
2.22045e-16
2.22045e-16
2.22045e-16
14.3413
0.00799376
0.000220998
1.88872e-08
1.5537e-09
1.99711
16.8604
19.3292
10.0137
6.55438
14.5671
9.51707
12.4542
31.2901
46.9279
138.251
0.811526
0.831918
1.09953
1.42608
1.99266
2.4821
3.70587
4.92713
7.33689
18.6757
3.77267
5.89453
2.84622
3.58533
4.61739
2.64866
3.54975
4.35638
3.26426
0.771372
0.992787
0.667789
0.914743
1.14562
0.984272
0.685581
0.640697
0.638708
0.737913
0.625207
0.71489
0.689616
0.6569
0.597094
0.605197
0.641105
0.775553
0.824706
0.919275
0.851575
0.812362
0.765418
0.881824
0.744043
0.803761
0.717562
0.846841
1.01652
1.00979
0.91674
1.02251
0.968946
1.06531
0.948869
0.967461
0.867793
0.92707
0.899673
0.589804
0.70106
1.01221
1.02217
1.4777
0.572242
0.643647
0.630304
0.692955
0.950604
0.952749
1.01093
1.03633
1.12673
1.09216
0.638979
0.597571
0.606145
0.594926
0.602657
0.608754
0.636189
0.773557
0.720376
0.6719
0.777421
0.714477
0.806996
0.719939
0.959713
1.05619
0.906912
1.04209
0.949714
1.08854
0.9254
0.893423
1.09082
0.891974
1.01718
0.904508
1.08793
0.884315
1.07912
2.4732
0.651395
0.589006
0.642989
0.577018
0.594045
0.645546
0.648369
0.662853
0.61175
0.61063
0.664196
0.707741
0.719379
0.720386
0.707682
0.648862
0.609543
0.657013
0.63707
0.619405
0.616628
0.672945
0.66268
0.593023
0.64925
0.686939
0.610881
0.657522
0.689835
0.661817
0.611121
0.609227
0.66609
0.710835
0.744684
0.726684
0.721868
0.801672
0.713828
0.737303
0.778982
0.735345
0.802881
0.807721
0.701843
0.619226
0.674805
0.653241
0.783077
0.778028
0.744741
0.828597
0.844619
0.865635
0.994174
0.859376
0.905311
0.787992
0.910109
0.884658
0.872608
0.991692
0.964259
0.902873
0.890791
0.959042
0.753255
0.781074
0.715076
0.803648
0.832491
0.9427
0.893056
0.867601
1.01925
1.05668
1.01219
1.05265
1.00443
1.09709
1.03664
0.836535
0.827457
0.830842
0.848974
0.871518
0.960265
0.878068
0.953862
0.949884
1.04695
1.09775
0.910214
1.09933
0.924084
0.928093
1.01334
1.08865
1.145
1.05618
1.1243
1.05016
0.994605
0.828938
0.845843
0.853962
0.813506
0.852561
0.897126
0.930556
0.825652
0.787399
0.83074
0.797016
0.818992
0.901418
1.02892
1.17514
0.932801
1.10241
0.892952
0.955942
0.79132
0.87393
0.818146
0.854992
0.988143
0.838178
0.610915
0.637572
0.856937
1.0455
1.12536
0.509249
0.551848
0.663267
0.852489
1.01658
0.574682
0.584431
0.78466
1.00404
1.1455
1.20704
1.23804
1.45818
0.53678
0.746141
0.521932
0.598542
0.583339
0.645116
0.871275
0.92388
1.07487
0.528312
0.521888
0.529785
0.520438
0.546324
0.585027
0.547018
0.584228
0.713293
0.645472
0.642345
0.718296
0.778729
0.781681
0.960643
0.532851
0.498037
0.548514
0.528292
0.505398
0.554115
0.526289
0.55124
0.544854
0.560416
0.611293
0.522544
0.571442
0.590977
0.732849
0.618832
0.677834
0.725069
0.652746
0.689792
0.769471
0.814825
0.804951
0.807145
0.958587
0.754993
0.869955
0.884124
0.987921
0.849635
1.02644
0.970257
0.939073
0.891761
1.07781
1.03884
1.01894
0.99963
1.16906
0.940534
1.12277
1.09654
15.5383
105.044
71.513
0.0206609
3.40122
2.80972
7.33643
3.32005
9.02898
12.8077
25.0122
80.2028
0.0862972
104.479
5.01492e-05
148.219
6.05752e-05
156.683
0.534724
0.521483
0.646733
1.23909
1.65744
7.85005
7.39639
22.1112
0.0030399
0.666442
0.636617
0.730507
1.42811
1.93889
9.62926
12.5228
23.3347
4.50186e-05
1.34233
1.14187
1.3229
2.73289
4.43209
26.1802
0.00285381
1.95857e-05
3.99892e-08
1.80379
1.33828
1.46765
4.34951
10.6304
49.7456
29.9591
8.09623e-10
1.32233e-09
5.51931
1.57557
3.51884
0.821799
33.9304
7.33322
38.2893
43.0528
16.6354
4.79377
57.1473
7.07057
99.8181
67.3271
0.509999
0.56441
0.537712
0.577622
0.514961
0.560153
0.562845
0.578746
0.5784
0.567768
0.579284
0.617138
0.822825
0.660322
0.84863
1.31484
1.79226
2.38509
1.27252
1.39454
1.81738
2.55363
3.10289
3.25617
4.03054
1.76316
3.50036
3.52587
5.67092
0.635836
0.829212
0.64175
0.640538
0.892282
1.03103
0.800303
1.00315
0.96899
0.93972
1.28401
1.5091
2.05482
2.82662
1.87461
2.4355
3.46062
5.31702
4.13988
3.94308
7.20809
3.46124
8.28564
7.79488
13.5529
1.05313
1.2176
1.24144
1.18324
1.18156
1.58826
1.45363
1.40984
1.3425
1.0281
1.83064
1.62145
2.43291
2.98616
5.64042
7.08398
3.95435
5.18742
9.45081
17.155
9.65057
10.5386
16.2634
8.78808
12.3137
24.6286
17.3888
1.36265
1.27663
1.47213
1.43037
1.48023
1.49312
2.07197
1.54731
1.54638
1.01691
1.35543
1.07901
2.44228
1.86095
4.58432
6.07668
16.3194
22.1641
10.8141
12.5307
31.3298
42.8643
14.1577
30.403
23.6249
10.8193
7.47601
36.8774
25.2652
0.994544
6.03833
4.65268
7.53342
3.9699
19.7206
9.08349
0.691694
3.75777
2.96189
3.39231
2.82692
7.73283
4.43715
0.968735
1.78335
1.12456
2.0516
2.14037
5.73703
3.68999
32.5472
9.42175
44.0693
0.711968
0.733923
0.800372
1.04554
0.842741
0.997499
0.819451
1.06806
0.868968
0.854587
1.29707
0.906687
1.34299
0.997
1.4741
1.16385
1.6568
1.34998
1.68672
2.03248
1.86215
2.88474
1.97427
2.94252
2.16514
3.64258
2.65317
2.38766
3.05308
2.44651
5.44573
2.76335
4.5127
3.185
8.99841
5.0868
0.554157
0.529201
0.549206
0.529984
0.535879
0.555377
0.549597
0.651625
0.628431
0.634309
0.577782
0.515616
0.52105
0.572166
2.80082
2.55348
1.83826
1.66189
2.5566
1.84585
2.79464
0.700631
0.63043
0.646806
0.727301
0.629198
0.711929
0.73097
0.700239
0.811993
0.766239
0.722758
0.57364
0.653293
0.625397
3.95885
3.03498
2.18352
2.25599
3.34187
3.59595
2.55518
1.10522
1.07241
1.13034
1.24839
1.0411
1.15533
1.21806
1.50209
1.19787
1.33408
1.26148
0.941535
1.13383
1.02597
10.6874
7.41935
5.15118
5.68134
8.24197
9.5836
6.659
1.06896
1.18663
1.21192
1.32203
1.09098
1.16841
1.17802
1.86325
1.43604
1.75496
1.45043
1.0329
1.38452
1.04006
23.8806
17.8781
12.9946
13.5828
20.396
20.9189
16.5759
6.42169
2.57749
3.00273
1.94463
0.816392
3.4323
3.50636
1.45303
0.710354
1.07523
3.08055
2.56337
3.03446
2.45132
1.6591
0.736123
1.19501
1.35105
1.05008
1.21037
1.878
85.2652
61.9026
14.7153
9.39046
44.1414
14.6112
66.4657
5.98353
34.9802
18.0127
12.3352
10.0035
50.7517
38.7998
0.551686
0.515802
0.542941
0.524903
0.525757
0.550178
0.543325
0.567512
0.553869
0.562809
0.536963
0.427214
0.433305
0.529081
0.584417
0.568651
0.575003
0.577379
0.569437
0.542583
0.583967
0.598941
0.544708
0.566343
0.605308
0.580357
0.601246
0.614538
0.552587
0.457517
0.44137
0.583474
0.600929
0.61964
0.589799
0.633836
0.559913
0.544371
0.576441
0.573302
0.550308
0.579273
0.556891
0.566531
0.567712
0.571887
0.564027
0.564451
0.577096
0.577122
0.563444
0.564895
0.546461
0.578772
0.596259
0.549895
0.568931
0.587313
0.568497
0.58687
0.591337
0.605788
0.563253
0.587
0.588259
0.574491
0.60819
0.583305
0.593498
0.569307
0.582571
0.578233
0.581386
0.830516
0.695275
0.700865
0.685409
0.842035
0.850168
0.679025
0.642174
0.683566
0.662221
0.587361
0.543171
0.527286
0.610828
0.713382
0.890849
0.745054
0.699277
0.909783
0.868358
0.731514
1.32972
1.15187
1.44772
1.32226
1.16224
1.45853
1.31667
1.35311
1.34103
1.22939
1.55267
1.18193
1.48327
1.41157
4.12807
3.82364
3.33592
3.11985
3.83397
3.35421
4.11445
2.8497
1.68504
2.72931
1.97499
2.59614
1.87751
3.00245
4.2134
3.21518
4.14034
3.76235
3.90925
3.45732
4.46572
0.763889
0.650787
0.656859
0.740098
0.667326
0.751718
0.749341
0.671089
0.703192
0.756995
0.71739
0.485759
0.636311
0.530764
0.780983
0.671592
0.691361
0.754644
0.898904
0.874335
1.04452
1.03642
0.886979
0.879893
1.06153
0.877615
1.02704
0.931941
0.831834
0.690409
0.598957
0.974159
0.90914
1.02639
0.876151
1.06898
0.687443
0.651127
0.627747
0.722397
0.807186
0.854999
0.954403
0.998116
0.824735
0.852833
0.933067
0.782319
0.963462
0.830354
0.898147
0.806305
1.0971
0.910108
0.888485
0.986492
0.791203
1.10879
0.873975
1.11818
1.02719
0.829443
0.821299
0.707765
0.974981
1.53257
1.06738
1.28088
1.03397
1.51856
1.28455
1.22866
1.73352
1.3254
1.69475
1.70882
1.52961
1.4863
1.94221
2.04135
2.01224
2.04533
2.85976
1.72433
2.32199
2.46846
5.99547
4.65381
4.44001
5.23882
5.01517
5.57875
5.60575
4.93344
2.7503
5.72941
3.98647
4.47597
3.1388
6.33724
7.50553
6.71504
8.93673
8.85896
6.99945
7.17897
9.58632
1.3573
1.20091
1.18738
1.30908
1.22385
1.33739
1.3008
1.3135
1.07193
1.1799
1.23203
0.785644
1.11849
0.854164
1.34581
1.16838
1.22857
1.25746
1.44644
1.39986
1.53128
1.36996
1.44822
1.36065
1.48499
1.46624
1.23275
1.23837
1.30253
0.853992
0.872286
1.32589
1.39734
1.25711
1.2825
1.38952
1.0419
1.07989
0.993039
1.14382
1.1265
1.31522
1.20372
1.24436
1.19749
1.25277
1.11679
1.03093
1.03381
1.08433
0.946192
1.08692
0.956122
1.02173
1.05291
1.13562
1.15697
1.03887
0.978122
0.901074
0.909189
0.967355
2.14435
1.53031
1.77098
1.6538
1.80357
1.45016
2.10378
1.40674
1.43005
1.69238
1.33175
1.04691
1.05471
1.35944
2.68412
1.96534
2.1133
1.79992
2.58094
2.36886
1.89232
3.66664
2.44222
3.57462
3.65182
3.01772
2.88613
4.46662
4.36669
4.3973
3.75838
6.69314
3.33083
5.50999
5.09128
15.2974
11.3748
10.3287
10.7078
12.227
14.1785
11.4614
13.6107
7.15995
14.8542
10.5495
12.1233
8.48017
16.8331
18.5379
11.5246
20.0997
13.1006
17.1205
12.3113
21.7613
1.47715
1.59434
1.34504
1.49215
1.48706
1.65358
1.3102
1.51184
1.23251
1.22627
1.29571
0.82302
1.31414
0.808686
1.30404
1.20407
1.34721
1.15808
1.46844
1.49912
1.79489
1.31189
1.70619
1.28884
1.50934
1.72596
1.56189
1.31207
1.3031
0.994675
0.846116
1.39732
1.2826
1.18399
1.13642
1.32929
0.985698
1.071
0.928826
1.01319
1.00048
1.06285
0.920856
0.984742
1.096
1.01012
1.06066
0.9218
0.882082
0.943658
0.864714
1.06413
1.31322
1.21249
1.18434
1.16606
1.16221
1.0866
0.98772
1.02276
1.11999
0.958005
1.06866
0.927384
1.01281
0.971367
1.08674
1.04084
1.01843
0.910711
0.91001
0.85927
0.959209
3.23528
2.92847
2.25184
2.10217
2.7779
1.97288
3.03152
1.58625
2.49833
2.08823
1.6295
1.31621
1.11372
1.98905
3.3655
2.76971
3.71221
2.36187
4.28763
3.46017
2.8855
7.14835
4.24275
8.1212
7.52217
5.92481
4.93207
10.2003
9.37675
10.6912
8.9158
18.758
6.27386
14.3045
13.8665
22.4566
23.0549
14.8699
16.5978
24.8334
19.8338
18.189
18.6152
16.6572
8.58634
16.665
14.7186
20.8973
13.1278
15.6908
11.8346
7.69222
11.2768
12.4644
14.7485
11.6961
2.82546
1.30659
1.48207
1.61436
1.95498
2.03464
2.26295
4.18015
2.56083
5.50182
5.42217
3.18522
3.40299
6.64138
1.57158
0.697928
0.997912
1.13409
0.997603
1.14682
1.55897
2.49198
2.08126
3.22091
4.4719
1.81346
2.84357
3.87284
2.32711
1.68527
2.97766
3.55536
1.69273
2.29718
3.59006
1.84917
3.82991
5.30516
2.54258
10.7692
0.730158
6.08706
0.290296
4.82021e-05
8.968
28.5896
3.01116e-07
0.711968
6.16957
39.1514
7.17176
63.2686
2.4781
2.11106
2.60129
3.47259
5.25819
1.56571
3.9536
2.83157
1.75104
12.2397
3.4054
7.98783
2.22031
12.6347
4.50429
2.57036
15.6059
6.11335
7.67503
6.59151
24.4224
9.85393
3.08799
2.86998
4.82499
1.33411
1.16813
2.02805
1.85892
1.17481
2.04057
1.32448
2.30523
1.59655
2.78102
3.27959
1.80781
2.03076
3.58032
4.97606
3.7592
6.7047
6.75455
4.38613
4.24538
7.45809
8.81365
6.16196
9.62343
11.628
7.1418
7.77525
12.5676
1.71947
0.772449
1.04148
1.16096
1.15569
1.24505
1.6005
7.66966
18.2443
19.4353
11.1498
12.4201
36.3774
31.9911
1.38181
1.92121
1.3372
2.31784
1.21614
2.11065
1.51673
2.98511
4.25529
3.22863
5.76994
2.61185
4.65481
3.72305
2.0632
1.34358
2.07192
2.02758
1.71792
1.6878
2.53618
3.35997
2.36721
2.32694
1.89177
2.97018
2.6353
2.5767
5.57176
7.35083
5.34275
8.7366
4.74745
8.10473
6.25211
3.76497
2.02618
3.31958
3.16893
2.92818
2.8276
4.27784
6.14859
3.91572
3.72525
3.18873
4.99999
4.87253
4.62615
12.5944
11.6804
8.2417
11.446
10.8129
14.3801
11.9303
8.77644
4.37149
8.76503
9.51722
7.07185
6.28419
12.05
2.50573
1.74976
3.41903
3.66249
1.92543
2.3454
3.96895
1.13541
1.01568
1.32644
1.34994
1.65579
1.72235
1.44147
1.01954
0.655408
1.14336
0.9455
1.04465
1.17352
1.27662
0.973335
0.853327
0.606181
0.62099
0.890424
0.991151
1.10692
1.25121
1.01806
1.02765
1.29426
1.04454
1.05447
1.28171
8.012
3.06219
3.11765
3.47472
14.0286
3.78446
15.0207
10.5883
11.2121
7.58797
5.06373
17.1545
5.55181
17.8988
1.60668
1.18823
1.34015
1.67407
1.21334
1.4828
1.36359
4.38311
14.7222
4.70013
4.26533
16.6683
8.7003
29.7571
9.39477
3.16081
16.354
6.27486
19.4077
12.854
31.0138
3.31719
2.2331
2.65445
3.46931
2.25777
2.86538
2.67592
13.5496
54.9123
15.4472
11.8553
36.3832
28.7566
54.7638
19.3941
0.346167
18.6703
17.3591
36.7146
37.3725
13.8173
6.20359
5.2974
3.86907
6.34204
3.77325
5.42104
4.21184
7.26561
61.0569
28.1719
36.0699
28.5052
49.7981
0.0606459
0.00113371
0.000524705
8.99907
42.9814
1.11959
42.7328
0.000950051
2.48626
4.45795
3.21112
3.65734
1.86072
2.65723
2.75059
6.11391
14.017
7.73961
11.5639
6.59856
11.6477
13.7534
30.4474
10.8566
13.787
6.6978
5.58424
10.0998
21.5783
5.49882
10.3288
6.96671
5.95392
4.81411
8.89459
18.2584
120.081
19.1433
57.2962
6.32079
14.1566
48.0292
79.7494
17.7266
6.90751
52.8622
5.41909
12.0771
29.0527
69.1977
1.04807
1.32323
1.09632
1.31644
1.12193
1.07452
1.37056
2.24725
1.56272
1.86129
1.96064
1.88348
1.58424
2.35586
4.60455
3.07917
3.47701
4.11246
3.43622
3.08063
4.75031
6.68713
5.13394
7.76317
8.0662
6.69317
5.02775
11.4523
8.83111
6.15624
4.36663
5.16355
5.8577
3.87166
7.89609
1.81134
1.22841
1.26898
1.2808
2.10554
1.317
2.16796
3.42958
1.45289
1.93104
1.5538
2.4627
2.17104
3.33465
9.84287
2.81214
4.09034
3.25657
5.27713
4.77338
9.37061
11.2734
18.1175
4.77588
6.75595
18.527
12.9592
62.1278
25.9518
5.41052
6.91814
6.27447
13.1807
21.8653
62.1319
89.9889
71.6252
15.7069
19.5874
83.7497
86.2036
95.9755
2.13445
2.12907
1.48199
1.63957
2.26905
2.18247
2.84285
16.3649
9.72194
9.94515
17.5416
13.8233
24.6274
25.3686
10.5604
18.0482
9.62959
19.6369
12.0011
21.8412
17.3325
10.4582
10.1329
5.47154
5.56888
10.41
6.06651
10.6493
9.01332
9.53792
4.01108
3.45585
7.47329
3.61631
7.68329
5.3293
17.7624
9.11022
4.84026
9.70148
8.49763
15.1338
14.3138
10.0978
14.6902
13.089
18.5965
15.4751
17.7961
0.00114614
0.146339
16.7828
13.6157
13.3857
15.8785
0.00971795
10.7438
10.378
5.66567
6.16143
11.0145
6.636
11.3702
17.6052
12.8391
22.1518
7.04485
12.8645
8.49055
12.1658
7.40303
12.4469
14.0754
75.0857
0.494455
0.64037
1.1267
1.4273
1.8163
3.63497
0.489369
0.526077
0.494433
0.553044
0.554362
0.562933
0.531166
0.722623
0.660794
0.628088
0.974724
0.884496
0.990707
0.949361
1.19347
1.15518
1.12965
1.4029
1.40939
1.44628
1.28167
1.20547
1.60486
1.73245
1.52312
2.12053
1.74459
1.26983
1.49765
8.49
0.580067
0.606024
0.648716
0.679072
0.720666
0.952617
0.902122
1.19616
1.24966
1.54791
1.54187
1.93646
1.92993
2.39855
2.45519
3.14156
0.479833
0.48528
0.495442
0.505193
0.491316
0.502141
0.494647
0.535492
0.519657
0.527538
0.486086
0.501966
0.51276
0.47516
0.508853
0.515451
0.559745
0.525348
0.564725
0.521425
0.570556
0.548478
0.591649
0.595396
0.509692
0.573519
0.531809
0.556709
0.623241
0.725662
0.629049
0.745046
0.63332
0.642798
0.729826
0.761208
0.662034
0.759882
0.722886
0.639986
0.626007
0.736336
0.843726
0.967754
0.842863
0.870027
0.97435
0.847668
1.00585
1.02078
0.885107
1.02683
0.841994
0.999763
0.860085
0.972987
1.21308
1.09917
1.08616
1.25284
1.09456
1.13596
1.20195
1.28142
1.16853
1.30179
1.21762
1.13813
1.10047
1.26523
1.29759
1.44381
1.32535
1.36368
1.40053
1.30207
1.47675
1.55822
1.43367
1.57969
1.33194
1.50925
1.3854
1.45734
1.50468
1.69417
1.56865
1.71136
1.49593
1.59284
1.59137
1.9229
1.74532
1.92945
1.75113
1.6401
1.59784
1.78396
2.37898
2.11686
2.33998
1.91375
2.10777
1.93225
2.11237
0.588211
0.584634
0.590799
0.61052
0.65201
0.645368
0.822351
0.712169
0.812004
1.09992
0.940787
1.08869
1.39593
1.2409
1.39052
1.72394
1.54521
1.72122
2.1607
1.92506
2.15358
2.73764
2.38846
2.68087
2.64597
1.77787
2.65931
0.487905
0.485186
0.494327
0.505744
0.495991
0.505544
0.47755
0.508546
0.523366
0.558007
0.566975
0.515295
0.524647
0.552734
0.723416
0.624594
0.636151
0.724114
0.622638
0.718752
0.736541
0.845346
0.84871
0.96454
1.0051
0.83533
0.863104
0.978693
1.22456
1.09018
1.14461
1.2522
1.10791
1.20263
1.27065
1.33312
1.35723
1.39843
1.49016
1.3041
1.38436
1.44127
1.66096
1.48686
1.59248
1.59204
1.54923
1.58004
1.69782
1.78647
1.65225
1.80319
1.9386
1.6751
1.8029
6.34061
3.71623
67.7171
0.0771305
2.0185e-06
49.6765
0.00147097
8.01094
4.5515e-05
0.00112875
32.5604
0.00570107
41.0797
0.00268854
49.2525
0.000538116
4.66608e-06
120.87
88.3144
96.3949
22.9125
78.4162
0.0210657
87.7979
15.8425
56.0791
7.10706
19.4766
63.1755
2.83551
0.00159956
31.388
0.00375444
30.8504
0.541287
38.637
0.000944755
65.1278
29.6197
50.2653
5.06463
36.7865
50.1199
24.6048
4.9151e-12
1.34049e-10
1.38946e-07
2.56132e-05
0.000249162
6.49272e-12
1.80789e-05
9.38563e-11
0.00445773
1.50541e-12
4.35431e-14
3.61996e-06
8.48774e-07
2.99183e-11
1.47266e-12
1.182e-08
6.77273e-09
2.56079e-13
3.85557e-14
3.28891e-11
5.09175e-12
2.22045e-16
2.22045e-16
4.08176e-13
6.7609e-15
2.22045e-16
2.22045e-16
2.22045e-16
2.22045e-16
2.22045e-16
2.22045e-16
5.44589e-05
6.29203e-09
2.57401e-06
9.84889e-11
2.15602e-08
9.00172e-14
1.08129e-11
2.22045e-16
1.65711e-15
2.22045e-16
7.2527e-11
2.22045e-16
2.22045e-16
8.44438e-12
2.22045e-16
2.22045e-16
2.22045e-16
1.671e-13
2.59276e-11
2.22045e-16
2.22045e-16
2.22045e-16
2.22045e-16
2.69487e-14
8.15776e-12
2.22045e-16
2.22045e-16
2.22045e-16
2.22045e-16
2.22045e-16
2.22045e-16
2.22045e-16
9.38478
3.0966
7.23973
1.83316
1.61116
2.26825
2.43848
1.8811
4.82284
3.46738
5.243
3.50999
2.22264
2.14078
2.94111
1.89796
2.62012
2.53609
1.87985
1.69742
2.00675
1.82519
1.83334
1.80874
1.68239
1.99416
2.38651
1.99666
1.86247
2.95401
5.13736
12.7525
9.47194
4.44528
5.29166
5.6777
8.00524
1.95569
1.98314
2.07131
2.41819
2.38064
1.95396
2.05617
2.22236
2.93456
2.54941
2.98404
2.59018
2.26978
2.19522
2.61858
2.40153
1.95245
2.091
2.13722
2.10061
2.20863
2.37836
2.8779
8.10042
3.66073
3.46986
2.98459
3.54967
4.22086
9.11538
2.81254
2.35865
0.893592
0.506412
0.530686
0.61988
0.91376
0.774274
0.849115
1.14333
0.953497
0.513902
0.505592
0.51262
0.528027
0.566019
0.561798
0.615828
0.679395
0.682889
0.779087
0.733016
0.737069
0.830603
0.831252
0.851574
0.809897
0.814217
0.914624
0.870778
0.873603
0.9119
0.950394
0.897217
0.89702
0.961444
1.01817
1.0164
0.527557
0.521842
0.530188
0.544468
0.55387
0.546733
0.53828
0.663112
0.767339
0.720981
0.748192
0.648763
0.679275
0.667787
0.556147
0.549268
0.589215
0.57296
0.614639
0.606146
0.565689
0.520506
0.53237
0.522181
0.537623
0.547878
0.520194
0.531222
0.834762
0.962478
0.868645
0.790863
0.832864
0.905741
0.848249
5.43229
14.6201
7.26303
5.40557
5.3827
4.29845
7.39374
4.19294
7.48724
5.41103
23.2794
24.446
2.63326e-05
5.94134e-11
0.670967
0.659592
0.667567
0.664522
0.690376
0.727606
0.685726
0.733342
0.915432
0.800079
0.806584
0.907794
1.05415
1.20535
1.04565
1.21426
1.55881
1.37631
1.38447
1.55279
1.74122
1.94815
1.73797
1.95053
2.47822
2.19433
2.19958
2.46952
2.75348
3.12228
2.75136
3.18359
1.00176e-12
3.49852e-05
3.39936e-10
2.43172e-08
1.19207e-12
6.18142e-11
2.22045e-16
2.11878e-13
2.22045e-16
2.22045e-16
2.22045e-16
2.22045e-16
2.22045e-16
2.22045e-16
2.22045e-16
2.22045e-16
2.22045e-16
3.56013
3.44444
4.30089
13.6343
30.6505
27.3524
32.3264
53.7641
40.6983
97.2628
9.24316e-13
5.67745e-05
2.08376e-13
8.45461e-06
2.93606e-15
7.96956e-13
2.22045e-16
1.10623e-15
2.22045e-16
0.595198
0.540403
0.584131
0.566693
0.549865
0.608219
0.590952
0.754118
0.653417
0.766536
0.747523
0.674747
0.657792
0.749904
0.975462
1.02878
1.09583
1.03631
0.963166
1.01347
0.93675
0.943309
0.97268
0.872219
0.949915
0.851316
0.855677
0.959607
0.557956
0.566049
0.581738
0.568844
0.57515
0.556755
0.549571
0.499279
0.510599
0.505667
0.506299
0.517861
0.499328
0.510621
0.526491
0.571184
0.575207
0.536861
0.578087
0.529835
0.571908
1.07948
1.12012
1.05415
1.10419
1.03263
1.04804
1.12099
0.599423
0.623721
0.637382
0.593
0.632734
0.614618
0.574812
0.551186
0.559985
0.571514
0.530396
0.540138
0.541298
0.548812
0.643911
0.737955
0.734561
0.643851
0.734248
0.638084
0.729663
0.771363
0.689054
0.703662
0.800433
0.701231
0.799938
0.679859
0.844766
0.957529
0.84501
0.840039
0.94812
0.84002
0.955327
0.899015
0.874187
0.966618
0.910837
1.01066
0.913801
1.01484
0.587649
0.557125
0.615143
0.622164
0.593286
0.595431
0.563633
0.520797
0.50344
0.497912
0.50937
0.513445
0.518746
0.526828
1.04193
1.12157
1.20456
1.08324
1.14982
1.0649
0.985553
0.678193
0.682514
0.654299
0.742684
0.73557
0.651334
0.771117
0.884826
0.851022
0.962851
0.958893
0.843696
0.876889
0.980295
1.04348
1.15867
1.06326
1.0442
1.12726
1.06245
1.15846
1.08472
1.03888
1.09641
1.13394
1.08498
1.08852
1.13849
0.575054
0.574425
0.527138
0.529969
0.566452
0.566159
0.541753
1.23563
1.14109
1.17874
1.24249
1.17322
1.1869
1.2495
0.756471
1.0311
1.79699
3.42486
0.85682
0.945564
0.787781
1.03218
1.55509
1.34668
1.78939
2.59705
2.31394
2.95831
0.767797
0.851845
0.759727
0.869325
0.863281
0.768881
0.760278
0.789447
0.894462
0.941599
0.834552
0.889702
0.788951
0.835898
1.03832
1.02931
0.914395
1.16654
0.916424
1.16481
1.03513
1.1951
1.34331
1.55578
1.37421
1.34273
1.19099
1.37903
1.78927
1.79023
1.57496
2.0344
1.57962
2.03419
1.78627
2.00668
2.29745
2.58885
2.24533
2.29152
2.00463
2.24653
2.87343
2.95074
2.53331
3.36729
2.53448
3.36306
2.87137
4.43145
4.77235
3.18889
3.79347
4.57885
3.67437
3.78965
3.20241
3.75547
1.1474
2.19968
4.59481
33.9866
1.20123e-10
2.67023e-14
2.22045e-16
0.671103
0.776683
1.42533
2.04965
13.0217
0.781078
0.69158
0.804424
0.930316
0.967246
1.4495
1.69323
1.66579
2.28672
2.5372
2.95014
3.91263
22.5854
10.2879
7.30211
0.805314
0.858977
0.830837
0.897628
1.16882
1.234
1.44094
1.92699
2.26326
2.85842
1.77449
4.17669
2.11896
7.16874
3.39791
16.6749
36.5891
29.9706
8.86885
27.5758
24.9625
0.000216107
6.87409e-12
2.22045e-16
2.22045e-16
2.22045e-16
39.6352
0.2488
1.64579e-09
106.76
6.74594e-10
2.22045e-16
8.74248
1.51032e-13
2.22045e-16
72.7255
3.6532e-05
2.28362e-13
14.1152
0.0199086
8.07589e-07
72.391
1.07634e-08
2.22045e-16
2.22045e-16
2.22045e-16
2.22045e-16
4.56862e-11
2.22045e-16
2.22045e-16
2.22045e-16
2.22045e-16
2.22045e-16
2.22045e-16
2.22045e-16
2.22045e-16
2.22045e-16
2.22045e-16
2.22045e-16
9.98659e-07
0.0011923
5.81029e-14
4.07435e-08
2.22045e-16
2.22045e-16
2.22045e-16
2.22045e-16
2.22045e-16
2.22045e-16
2.22045e-16
2.22045e-16
8.74725e-14
1.19688e-11
2.22045e-16
2.22045e-16
2.22045e-16
2.22045e-16
2.22045e-16
2.22045e-16
2.22045e-16
2.22045e-16
2.22045e-16
2.22045e-16
2.22045e-16
2.22045e-16
2.22045e-16
2.22045e-16
2.22045e-16
2.22045e-16
2.22045e-16
2.22045e-16
2.22045e-16
2.22045e-16
2.22045e-16
2.22045e-16
3.6794e-11
2.22045e-16
2.22045e-16
2.22045e-16
2.22045e-16
2.22045e-16
2.22045e-16
2.22045e-16
2.22045e-16
24.8185
103.991
73.972
0.000138733
2.43044e-07
0.0264678
6.66052e-09
2.22045e-16
1.09392e-14
50.3328
6.76172
3.9762e-12
8.43964
14.2091
1.88059e-07
7.63776
44.8502
9.9163e-07
2.22045e-16
2.22045e-16
2.22045e-16
2.22045e-16
2.22045e-16
2.22045e-16
2.22045e-16
2.22045e-16
2.22045e-16
53.4512
2.17075e-07
3.15675e-13
12.6972
0.0253177
7.55062e-09
60.2139
1.77238e-09
2.22045e-16
2.22045e-16
2.22045e-16
2.22045e-16
6.54168e-10
2.22045e-16
2.22045e-16
2.22045e-16
2.22045e-16
2.22045e-16
2.22045e-16
2.22045e-16
2.22045e-16
2.22045e-16
2.22045e-16
2.22045e-16
0.000503347
5.11412e-11
2.09086e-14
2.22045e-16
2.22045e-16
2.22045e-16
9.33239e-10