/*--------------------------------*- C++ -*----------------------------------*\
  =========                 |
  \\      /  F ield         | OpenFOAM: The Open Source CFD Toolbox
   \\    /   O peration     | Website:  https://openfoam.org
    \\  /    A nd           | Version:  9
     \\/     M anipulation  |
\*---------------------------------------------------------------------------*/
FoamFile
{
    format      ascii;
    class       volScalarField;
    location    "0.00045";
    object      rhoE;
}
// * * * * * * * * * * * * * * * * * * * * * * * * * * * * * * * * * * * * * //

dimensions      [1 -1 -2 0 0 0 0];

internalField   nonuniform List<scalar> 
5544
(
684027
254397
253257
2.26178e+06
316621
837301
893659
253733
328219
261937
253245
253245
1.44996e+07
1.13365e+07
2.15462e+06
6.96779e+06
1.89899e+06
6.99996e+06
1.33506e+06
6.24569e+06
393834
1.13292e+06
253333
253968
261952
731524
269339
810628
264085
665284
266198
268376
1.96082e+06
296182
1.27268e+06
1.08266e+06
273454
286512
263074
900063
687458
267349
739296
267502
262756
257298
562292
305286
254615
469910
259226
254200
253251
259220
253400
253732
253351
253584
253254
253245
253262
253245
253245
253257
253245
253245
8.25288e+06
8.26097e+06
6.93169e+06
4.1305e+06
4.74051e+06
3.78297e+06
4.37353e+06
6.78788e+06
7.01051e+06
6.74717e+06
4.20867e+06
3.85003e+06
4.09791e+06
3.73603e+06
1.67182e+07
1.70412e+07
1.14069e+07
1.03798e+07
9.88013e+06
6.73729e+06
6.35259e+06
6.99218e+06
1.82894e+06
5.89628e+06
6.70716e+06
7.91121e+06
3.00156e+06
3.47895e+06
1.79789e+06
5.81352e+06
5.82055e+06
6.6701e+06
6.56273e+06
3.06761e+06
2.9475e+06
6.99972e+06
6.53307e+06
7.13151e+06
2.19115e+06
3.50187e+06
1.87442e+06
3.13948e+06
6.40647e+06
3.62378e+06
9.92121e+06
1.0883e+07
1.58425e+07
8.54695e+06
5.29885e+06
654327
5.42484e+06
4.19547e+06
5.49271e+06
6.45929e+06
1.26573e+06
2.35662e+06
8.93057e+06
8.32372e+06
436854
284270
1.22579e+07
7.23882e+06
1.17848e+07
7.2845e+06
6.20641e+06
6.34234e+06
7.63659e+06
6.41139e+06
7.90443e+06
7.56092e+06
5.17049e+06
5.84837e+06
3.74332e+06
4.02122e+06
5.51183e+06
5.84835e+06
6.00383e+06
5.51494e+06
3.55774e+06
3.86492e+06
3.78924e+06
4.14124e+06
6.76419e+06
6.89925e+06
6.31883e+06
5.0627e+06
5.52535e+06
4.25964e+06
4.6764e+06
1.99056e+07
2.00851e+07
1.15495e+07
2.07478e+07
9.39705e+06
2.05953e+07
9.72293e+06
6.6905e+06
8.80481e+06
8.31621e+06
7.14175e+06
5.48487e+06
4.56805e+06
6.16633e+06
8.15882e+06
7.13635e+06
6.03633e+06
8.00263e+06
6.84499e+06
4.58153e+06
4.92319e+06
1.20164e+07
1.87156e+07
1.93961e+07
1.97744e+07
1.10633e+07
2.02311e+07
1.03002e+07
6.97741e+06
8.00133e+06
8.21957e+06
7.72627e+06
7.46834e+06
6.37101e+06
5.55026e+06
8.12946e+06
8.05516e+06
8.25553e+06
8.78522e+06
5.73691e+06
5.36323e+06
8.74453e+06
8.61789e+06
6.59438e+06
7.62164e+06
7.64813e+06
3.04071e+06
4.47661e+06
8.39821e+06
1.38647e+06
295925
1.63838e+06
1.35611e+06
5.83223e+06
1.15503e+06
5.50044e+06
1.35984e+06
4.02012e+06
4.41008e+06
731470
603471
280252
272370
312336
254218
304226
257639
256838
478755
442015
254361
254274
306053
257387
257118
451890
483035
257419
3.32702e+06
475189
268140
922142
789697
4.68824e+06
400732
258487
255233
270094
260300
1.32825e+06
715466
279910
253357
259895
254980
253668
276768
348065
734221
1.84656e+06
3.12899e+06
295597
255431
413320
261725
257168
253571
268021
253316
253247
253252
253517
285426
254260
298381
253268
254129
253261
253866
253245
253245
253245
253245
253245
253245
253245
253245
253245
253245
253245
253245
253245
253245
253245
2.93006e+06
253245
253245
253245
253245
253245
253245
253245
253245
253245
253245
253245
253245
253245
253245
253245
253245
253245
253245
253245
253245
253245
253245
253245
253245
253245
253245
253245
253245
253245
253245
253245
253245
253245
253245
253245
253245
253245
253245
253245
253245
253245
253245
253245
253245
253253
253245
253245
253245
253246
253245
253245
253245
253245
253245
253245
253245
2.04987e+07
2.28132e+06
3.93487e+06
903414
8.37249e+06
261848
1.21756e+07
1.02684e+07
4.67234e+06
7.6996e+06
5.79488e+06
4.12233e+06
1.42566e+06
432185
851047
286158
5.76936e+06
4.17117e+06
1.51503e+06
5.0159e+06
6.52984e+06
2.16265e+06
554491
291131
327235
258182
8.90103e+06
721231
285056
1.35496e+06
397768
253267
253246
253779
253245
253245
253281
253245
253245
253245
253245
253245
1.72449e+06
1.28033e+06
955811
690583
812761
628540
258786
253731
253563
1.12696e+07
1.71906e+07
9.34462e+06
6.67325e+06
1.14764e+07
5.97129e+06
1.67431e+07
1.05669e+07
1.37708e+07
7.47733e+06
2.49367e+06
9.00869e+06
4.51274e+06
1.56979e+07
8.24426e+06
4.73256e+06
6.99026e+06
3.64917e+06
8.349e+06
4.17596e+06
6.94755e+06
7.68065e+06
1.5711e+06
5.41243e+06
2.69939e+06
6.2922e+06
3.03566e+06
6.53528e+06
945705
314974
539650
914348
649031
685653
287496
402641
412517
6.96957e+06
6.77948e+06
3.70162e+06
4.05991e+06
6.78799e+06
7.02399e+06
3.60096e+06
6.53248e+06
5.40255e+06
2.77772e+06
1.48513e+06
6.43929e+06
5.45779e+06
2.69424e+06
6.92206e+06
3.46887e+06
6.50745e+06
1.78181e+06
7.12485e+06
3.01315e+06
6.12871e+06
6.27424e+06
1.11243e+06
3.81765e+06
1.14003e+06
5.05187e+06
2.14254e+06
5.26095e+06
422078
288663
401292
555962
301056
448222
272934
273091
329565
1.0852e+06
4.38236e+06
575455
279776
3.90472e+06
1.34836e+06
270953
671892
1.59149e+06
386329
254918
2.91932e+06
359266
260379
283393
254117
254251
253260
297892
253825
253926
265910
253300
253314
253251
256262
253477
253526
255415
253274
253369
253262
253245
253256
253246
253245
253249
253245
253246
253245
253245
253251
253245
253245
253245
253245
253245
253245
253245
253245
253245
253245
253245
253245
253245
253245
253245
1.34032e+07
2.70753e+06
276715
253245
253245
6.86823e+06
506290
253245
258746
253245
253245
8.39541e+06
258970
253245
253322
253245
253245
253251
253245
253245
253245
1.76294e+07
1.75473e+06
253525
7.08264e+06
7.33558e+06
505334
253297
253245
253252
253245
450250
253248
253247
253245
253245
253245
253248
257788
253246
253245
253245
253245
253245
6.10817e+06
552857
253311
7.44458e+06
6.26543e+06
297193
253255
253250
253248
253245
307991
253248
253245
253245
253245
253245
253245
253246
253979
253245
253245
253245
253245
253245
466783
257978
253246
276881
253250
253245
253245
253245
253245
253245
253245
253245
253245
253245
253245
253245
253245
253245
253245
253245
253245
253245
253245
253245
253245
253245
253245
253245
253245
253245
253245
253245
253245
253245
253245
253245
253245
253245
253245
253245
253245
253245
253245
253245
254999
261127
253831
253245
253245
253245
253245
253729
258696
253741
253245
253245
253245
253245
253245
253252
253249
253245
253245
253245
253245
253245
253245
253245
253245
253245
253245
253245
253245
253245
2.26416e+06
1.02618e+07
423894
813753
6.07492e+06
298062
4.88488e+06
432071
279249
261569
253325
259242
255425
967401
1.24769e+06
517067
3.44101e+06
273854
3.88692e+06
273756
1.15984e+06
316338
253289
255778
254403
255609
254308
314949
253249
253869
253245
253247
253405
253245
253258
253245
253245
253245
253245
253245
253245
253245
253247
253246
253335
253245
253322
253245
253248
253245
253245
253245
253245
253245
253245
253245
253245
253245
253245
253245
253245
253245
253335
253246
253275
257611
253636
253597
253246
253268
253264
253245
253245
253245
253245
253245
253245
253245
253245
253245
253245
1.35086e+06
3.56249e+06
278514
558176
1.28319e+06
3.64005e+06
280031
341210
256505
254706
253317
331624
256904
254818
1.05124e+06
430735
1.86584e+06
257197
3.13537e+06
269262
515075
306596
253286
253808
253474
255440
254167
267412
253249
253363
253245
253248
253249
253376
253245
253245
253245
253245
253245
253245
253245
253245
253247
253246
253264
253245
253321
253245
253246
253245
253245
253245
253245
253245
253245
253245
253245
253245
253245
253245
253245
253245
253245
253245
253245
253245
253245
253245
253274
253246
253275
256219
253311
253523
253246
253249
253262
253245
253245
253245
253245
253245
253245
253245
253245
253245
253245
253245
253245
254498
570300
253651
253490
279319
268549
253266
253315
253302
253268
253245
254645
253248
253246
253283
253253
253255
253245
253690
253246
253246
253247
253245
253245
253245
253245
253245
253245
253245
253247
253245
253245
253245
253245
253245
253245
253245
253245
253245
253245
253245
253245
253245
253245
253245
253245
253245
253245
253245
253245
253245
253245
253245
253245
253245
253245
253245
253245
253245
253245
253245
253245
253245
253245
253245
253245
253245
253245
253245
253245
253245
253245
253245
253245
253245
253245
253245
253245
253245
253245
253245
253245
253245
253245
253245
253245
253245
253245
253245
253245
253245
253245
253245
253245
253245
253245
253245
253245
253245
253245
253245
253245
253245
253245
253245
253245
253245
253245
253245
253245
253245
253245
253245
253245
253245
253245
253245
253245
253245
253245
253245
253245
253245
253245
253245
253245
253245
253245
253245
253245
253245
253245
253245
253245
253245
253245
253245
253245
253245
253245
253245
253245
253245
253245
253245
253245
253245
253245
253245
253245
253245
253245
253245
253245
253245
253245
253245
253245
253245
253245
253245
253245
253245
253245
4.25985e+06
6.04542e+06
5.56642e+06
3.60676e+06
3.9016e+06
6.44705e+06
5.97975e+06
5.29534e+06
5.77217e+06
4.17786e+06
5.93057e+06
3.81737e+06
8.13975e+06
6.3285e+06
7.73707e+06
6.58559e+06
4.80044e+06
7.41176e+06
9.07196e+06
8.66319e+06
6.87253e+06
5.39258e+06
4.49474e+06
4.8675e+06
7.34144e+06
7.08283e+06
6.91907e+06
6.52886e+06
6.48348e+06
6.06845e+06
8.02433e+06
6.87924e+06
4.61245e+06
7.20215e+06
8.17686e+06
1.1734e+07
2.13966e+07
9.60651e+06
2.20857e+07
1.02012e+07
1.21367e+07
2.07226e+07
5.69013e+06
7.74063e+06
7.07418e+06
7.80457e+06
7.70352e+06
7.54874e+06
8.20233e+06
2.24448e+07
2.23731e+07
1.10757e+07
1.2773e+07
1.98079e+07
1.2535e+07
2.05048e+07
8.08396e+06
8.25481e+06
5.27352e+06
8.79706e+06
8.07311e+06
8.72668e+06
5.72448e+06
6.58506e+06
7.35904e+06
7.56826e+06
7.10117e+06
6.93368e+06
5.41156e+06
5.22201e+06
9.06745e+06
9.54853e+06
7.80102e+06
7.14575e+06
8.53338e+06
6.0309e+06
5.15818e+06
266024
253245
268812
255405
253245
253322
253245
8.67586e+06
7.39224e+06
6.25988e+06
2.72452e+06
4.27463e+06
7.46909e+06
8.31529e+06
8.42952e+06
7.88202e+06
6.46216e+06
7.09454e+06
5.10423e+06
7.97666e+06
3.82888e+06
2.24304e+07
2.12348e+07
1.36913e+07
1.20388e+07
1.81829e+07
9.20387e+06
1.47075e+07
6.16216e+06
2.64373e+06
2.21879e+06
2.99874e+06
383665
389934
1.99829e+06
6.34692e+06
2.84059e+06
2.33861e+06
420791
3.06186e+06
2.18237e+06
448358
1.3425e+06
5.83152e+06
1.12651e+06
295704
5.43603e+06
1.63273e+06
282690
5.50528e+06
4.14295e+06
1.07253e+06
335212
6.3198e+06
1.49057e+06
2.53319e+06
1.55703e+06
1.94926e+06
2.69649e+06
5.27787e+06
286303
377315
1.01538e+06
675274
360800
1.60259e+06
387765
285508
260456
254942
1.11545e+07
1.08688e+07
4.16615e+06
1.86955e+06
5.66557e+06
700377
8.34491e+06
3.0231e+06
424532
256501
849803
735237
4.523e+06
266198
253431
260315
258722
553285
253410
261539
259575
257495
2.68319e+06
256615
262856
346224
529158
253407
1.29705e+06
278572
253751
255380
255405
377646
253290
253353
463745
258628
257439
258393
257220
253371
253356
453799
254592
254253
258419
257132
253272
576032
279849
254521
253660
253266
258071
253494
253489
333278
308171
969615
269405
264920
254250
253245
253245
253245
253245
253245
253245
253245
253245
253245
253245
253245
253245
253245
253245
253245
253245
253245
253245
253245
253245
253245
253245
253245
253245
253245
253245
253245
253245
253245
253245
253245
253245
253245
253245
253245
253245
253245
253245
253245
253245
253245
253245
253245
253245
253245
253245
253245
253245
253245
253245
253245
253245
253245
253245
253245
253245
253337
253245
253246
253245
253246
253245
253246
253245
253245
253245
253245
253245
253245
253245
253251
253245
253245
253245
253245
253245
255445
253246
253304
253249
261305
253473
253373
253528
256303
253315
253251
253480
253301
253246
253779
253283
253254
253247
253369
253274
253246
253935
253246
253282
253290
253248
255809
253390
253245
253245
253245
253245
253245
253245
253245
253245
253268
253246
254672
253316
253248
253303
253245
253382
253347
253512
253248
253252
253250
253364
253496
253372
253245
259918
253250
253248
253248
253245
253248
253249
253366
253249
253378
253622
253245
253254
253245
253281
253246
253246
253245
253249
253245
253248
253386
253366
253249
253245
253250
253250
253430
253250
253455
253245
253246
253698
253255
253246
253284
253253
253245
253245
253245
253247
253258
253249
253880
253409
253247
253245
253247
253247
253324
253248
253338
253247
253245
253245
253247
253323
253264
253246
253262
253250
253245
253250
254427
253526
253262
253245
253245
253252
253245
253246
253249
253245
253246
253248
253276
253245
253370
253245
253246
253248
253246
253276
253245
253245
253246
253245
253265
253246
253268
253245
253245
253245
253245
253274
253246
253276
253245
253246
253245
253246
253249
253245
253245
253262
253245
253245
253245
253245
253245
253245
253245
253245
253245
253245
253245
253245
253245
253245
253245
253245
253245
253245
253245
253245
253245
253245
253245
253245
253245
253245
253245
253245
253245
253245
253245
253245
253245
253245
253245
253245
253245
253245
253245
253245
253245
253245
253245
253245
253245
253245
253245
253245
253245
253245
253245
253245
253245
253245
253245
253245
253245
253245
253245
253245
253245
253245
253245
253245
253245
253245
253245
253245
253245
253245
253245
253245
253245
253245
253245
253245
253245
253245
253245
253245
253245
253245
253245
253245
253245
253245
253245
253245
253245
253245
253245
253245
253245
253245
253245
253245
253245
253245
253245
253245
253245
253245
253245
253245
253245
253245
253245
253245
253245
253245
253245
253245
253245
253245
253245
253245
253245
253245
253245
253245
253245
253245
253245
253245
253245
253245
253245
253245
253245
253245
253245
253245
253245
253245
253245
253245
253245
253245
253245
253245
253245
253245
253245
253245
253245
253245
253245
253245
253245
253245
253245
253245
253245
253245
253245
253245
253245
253245
253245
253245
253245
253245
253245
253245
253245
253245
253245
253245
253245
253245
253245
253245
253245
253245
253245
253245
253245
253245
253245
253245
253245
253245
253245
253245
253245
253245
253245
253245
253245
253245
253245
253245
253245
253245
253245
253245
253245
253245
253245
253245
253245
253245
253245
253245
253245
253245
253245
253245
253245
253245
253245
253245
253245
253245
253245
253245
253245
253245
253245
253245
253245
253245
253245
253245
253245
253245
253245
253245
253245
253245
253245
253245
253245
253245
253245
253245
253245
253245
253245
253245
253245
253245
253245
253245
253245
253245
253245
253245
253245
253245
253245
253245
253245
253245
253245
253245
253245
253245
253245
253245
253245
253245
253245
253245
253245
253245
253245
253245
253245
253245
253245
253245
253245
253245
253245
253245
253245
253245
253245
253245
253245
253245
253245
253245
253245
253245
253245
253245
253245
253245
253245
253245
253245
253245
253245
253245
253245
253245
253245
253245
253245
253245
253245
253245
253245
253245
253245
253245
253245
253245
253245
253245
253245
253245
253245
253245
253245
253245
253245
253245
253245
253245
253245
253245
253245
253245
253245
253245
253245
253245
253245
253245
253245
253245
253245
253245
253245
253245
253245
253245
253245
253245
253245
253245
253245
253245
253245
253245
253245
253245
253245
253245
253245
253245
253245
253245
253245
253245
253245
253245
253245
253245
253245
253245
253245
253245
253245
253245
253245
253245
253245
253245
253245
253245
253245
253245
253245
253245
253245
253245
253245
253245
253245
253245
253245
253245
253245
253245
253245
253245
253245
253245
253245
253245
253245
253245
253245
253245
253245
253245
253245
253245
253245
253245
253245
253245
253245
253245
253245
253245
253245
253245
253245
253245
253245
253245
253245
253245
253245
253245
253245
253245
253245
253245
253245
253245
253245
253245
253245
253245
253245
253245
253245
253245
253245
253245
253245
253245
253245
253245
253245
253245
253245
253245
253245
253245
253245
253245
253245
253245
253245
253245
253245
253245
253245
253245
253245
253245
253245
253245
253245
253245
253245
253245
253245
253245
253245
253245
253245
253245
253245
253245
253245
253245
253245
253245
253245
253245
253245
253245
253245
253245
253245
253245
253245
253245
253245
253245
253245
253245
253245
253245
253245
253245
253245
253245
253245
253245
253245
253245
253245
253245
253245
253245
253245
253245
253245
253245
253245
253245
253245
253245
253245
253245
253245
253245
253245
253245
253245
253245
253245
253245
253245
253245
253245
253245
253245
253245
253245
253245
253245
253245
253245
253245
253245
253245
253245
253245
253245
253245
253245
253245
253245
253245
253245
253245
253245
253245
253245
253245
253245
253245
253245
253245
253245
253245
253245
253245
253245
253245
253245
253245
253245
253245
253245
253245
253245
253245
253245
253245
253245
253245
253245
253245
253245
253245
253245
253245
253245
253245
253245
253245
253245
253245
253245
253245
253245
253245
253245
253245
253245
253245
253245
253245
253245
253245
253245
253245
253245
253245
253245
253245
253245
253245
253245
253245
253245
253245
253245
253245
253245
253245
253245
253245
253245
253245
253245
253245
253245
253245
253245
253245
253245
253245
253245
253245
253245
253245
253245
253245
253245
253245
253245
253245
253245
253245
253245
253245
253245
253245
253245
253245
253245
253245
253245
253245
253245
253245
253245
253245
253245
253245
253245
253245
253245
253245
253245
253245
253245
253245
253245
253245
253245
253245
253245
253245
253245
253245
253245
253245
253245
253245
253245
253245
253245
253245
253245
253245
253245
253245
253245
253245
253245
253245
253245
253245
253245
253245
253245
253245
253245
253245
253245
253245
253245
253245
253245
253245
253245
253245
253245
253245
253245
253245
253245
253245
253245
253245
253245
253245
253245
253245
253245
253245
253245
253245
253245
253245
253245
253245
253245
253245
253245
253245
253245
253245
253245
253245
253245
253245
253245
253245
253245
253245
253245
253245
253245
253245
253245
253245
253245
253245
253245
253245
253245
253245
253245
253245
253245
253245
253245
253245
253245
253245
253245
253245
253245
253245
253245
253245
253245
253245
253245
253245
253245
253245
253245
253245
253245
253245
253245
253245
253245
253245
253245
253245
253245
253245
253245
253245
253245
253245
253245
253245
253245
253245
253245
253245
253245
253245
253245
253245
253245
253245
253245
253245
253245
253245
253245
253245
253245
253245
253245
253245
253245
253245
253245
253245
253245
253245
253245
253245
253245
253245
253245
253245
253245
253245
253245
253245
253245
253245
253245
253245
253245
253245
253245
253245
253245
253245
253245
253245
253245
253245
253245
253245
253245
253245
253245
253245
253245
253245
253245
253245
253245
253245
253245
253245
253245
253245
253245
253245
253245
253245
253245
253245
253245
253245
253245
253245
253245
253245
253245
253245
253245
253245
253245
253245
253245
253245
253245
253245
253245
253245
253245
253245
253245
253245
253245
253245
253245
253245
253245
253245
253245
253245
253245
253245
253245
253245
253245
253245
253245
253245
253245
253245
253245
253245
253245
253245
253245
253245
253245
253245
253245
253245
253245
253245
253245
253245
253245
253245
253245
253245
253245
253245
253245
253245
253245
253245
253245
253245
253245
253245
253245
253245
253245
253245
253245
253245
253245
253245
253245
253245
253245
253245
253245
253245
253245
253245
253245
253245
253245
253245
253245
253245
253245
253245
253245
253245
253245
253245
253245
253245
253245
253245
253245
253245
253245
253245
253245
253245
253245
253245
253245
253245
253245
253245
253245
253245
253245
253245
253245
253245
253245
253245
253245
253245
253245
253245
253245
253245
253245
253245
253245
253245
253245
253245
253245
253245
253245
253245
253245
253245
253245
253245
253245
253245
253245
253245
253245
253245
253245
253245
253245
253245
253245
253245
253245
253245
253245
253245
253245
253245
253245
253245
253245
253245
253245
253245
253245
253245
253245
253245
253245
253245
253245
253245
253245
253245
253245
253245
253245
253245
253245
253245
253245
253245
253245
253245
253245
253245
253245
253245
253245
253245
253245
253245
253245
253245
253245
253245
253245
253245
253245
253245
253245
253245
253245
253245
253245
253245
253245
253245
253245
253245
253245
253245
253245
253245
253245
253245
253245
253245
253245
253245
253245
253245
253245
253245
253245
253245
253245
253245
253245
253245
253245
253245
253245
253245
253245
253245
253245
253245
253245
253245
253245
253245
253245
253245
253245
253245
253245
253245
253245
253245
253245
253245
253245
253245
253245
253245
253245
253245
253245
253245
253245
253245
253245
253245
253245
253245
253245
253245
253245
253245
253245
253245
253245
253245
253245
253245
253245
253245
253245
253245
253245
253245
253245
253245
253245
253245
253245
253245
253245
253245
253245
253245
253245
253245
253245
253245
253245
253245
253245
253245
253245
253245
253245
253245
253245
253245
253245
253245
253245
253245
253245
253245
253245
253245
253245
253245
253245
253245
253245
253245
253245
253245
253245
253245
253245
253245
253245
253245
253245
253245
253245
253245
253245
253245
253245
253245
253245
253245
253245
253245
253245
253245
253245
253245
253245
253245
253245
253245
253245
253245
253245
253245
253245
253245
253245
253245
253245
253245
253245
253245
253245
253245
253245
253245
253245
253245
253245
253245
253245
253245
253245
253245
253245
253245
253245
253245
253245
253245
253245
253245
253245
253245
253245
253245
253245
253245
253245
253245
253245
253245
253245
253245
253245
253245
253245
253245
253245
253245
253245
253245
253245
253245
253245
253245
253245
253245
253245
253245
253245
253245
253245
253245
253245
253245
253245
253245
253245
253245
253245
253245
253245
253245
253245
253245
253245
253245
253245
253245
253245
253245
253245
253245
253245
253245
253245
253245
253245
253245
253245
253245
253245
253245
253245
253245
253245
253245
253245
253245
253245
253245
253245
253245
253245
253245
253245
253245
253245
253245
253245
253245
253245
253245
253245
253245
253245
253245
253245
253245
253245
253245
253245
253245
253245
253245
253245
253245
253245
253245
253245
253245
253245
253245
253245
253245
253245
253245
253245
253245
253245
253245
253245
253245
253245
253245
253245
253245
253245
253245
253245
253245
253245
253245
253245
253245
253245
253245
253245
253245
253245
253245
253245
253245
253245
253245
253245
253245
253245
253245
253245
253245
253245
253245
253245
253245
253245
253245
253245
253245
253245
253245
253245
253245
253245
253245
253245
253245
253245
253245
253245
253245
253245
253245
253245
253245
253245
253245
253245
253245
253245
253245
253245
253245
253245
253245
253245
253245
253245
253245
253245
253245
253245
253245
253245
253245
253245
253245
253245
253245
253245
253245
253245
253245
253245
253245
253245
253245
253245
253245
253245
253245
253245
253245
253245
253245
253245
253245
253245
253245
253245
253245
253245
253245
253245
253245
253245
253245
253245
253245
253245
253245
253245
253245
253245
253245
253245
253245
253245
253245
253245
253245
253245
253245
253245
253245
253245
253245
253245
253245
253245
253245
253245
253245
253245
253245
253245
253245
253245
253245
253245
253245
253245
253245
253245
253245
253245
253245
253245
253245
253245
253245
253245
253245
253245
253245
253245
253245
253245
253245
253245
253245
253245
253245
253245
253245
253245
253245
253245
253245
253245
253245
253245
253245
253245
253245
253245
253245
253245
253245
253245
253245
253245
253245
253245
253245
253245
253245
253245
253245
253245
253245
253245
253245
253245
253245
253245
253245
253245
253245
253245
253245
253245
253245
253245
253245
253245
253245
253245
253245
253245
253245
253245
253245
253245
253245
253245
253245
253245
253245
253245
253245
253245
253245
253245
253245
253245
253245
253245
253245
253245
253245
253245
253245
253245
253245
253245
253245
253245
253245
253245
253245
253245
253245
253245
253245
253245
253245
253245
253245
253245
253245
253245
253245
253245
253245
253245
253245
253245
253245
253245
253245
253245
253245
253245
253245
253245
253245
253245
253245
253245
253245
253245
253245
253245
253245
253245
253245
253245
253245
253245
253245
253245
253245
253245
253245
253245
253245
253245
253245
253245
253245
253245
253245
253245
253245
253245
253245
253245
253245
253245
253245
253245
253245
253245
253245
253245
253245
253245
253245
253245
253245
253245
253245
253245
253245
253245
253245
253245
253245
253245
253245
253245
253245
253245
253245
253245
253245
253245
253245
253245
253245
253245
253245
253245
253245
253245
253245
253245
253245
253245
253245
253245
253245
253245
253245
253245
253245
253245
253245
253245
253245
253245
253245
253245
253245
253245
253245
253245
253245
253245
253245
253245
253245
253245
253245
253245
253245
253245
253245
253245
253245
253245
253245
253245
253245
253245
253245
253245
253245
253245
253245
253245
253245
253245
253245
253245
253245
253245
253245
253245
253245
253245
253245
253245
253245
253245
253245
253245
253245
253245
253245
253245
253245
253245
253245
253245
253245
253245
253245
253245
253245
253245
253245
253245
253245
253245
253245
253245
253245
253245
253245
253245
253245
253245
253245
253245
253245
253245
253245
253245
253245
253245
253245
253245
253245
253245
253245
253245
253245
253245
253245
253245
253245
253245
253245
253245
253245
253245
253245
253245
253245
253245
253245
253245
253245
253245
253245
253245
253245
253245
253245
253245
253245
253245
253245
253245
253245
253245
253245
253245
253245
253245
253245
253245
253245
253245
253245
253245
253245
253245
253245
253245
253245
253245
253245
253245
253245
253245
253245
253245
253245
253245
253245
253245
253245
253245
253245
253245
253245
253245
253245
253245
253245
253245
253245
253245
253245
253245
253245
253245
253245
253245
253245
253245
253245
253245
253245
253245
253245
253245
253245
253245
253245
253245
253245
253245
253245
253245
253245
253245
253245
253245
253245
253245
253245
253245
253245
253245
253245
253245
253245
253245
253245
253245
253245
253245
253245
253245
253245
253245
253245
253245
253245
253245
253245
253245
253245
253245
253245
253245
253245
253245
253245
253245
253245
253245
253245
253245
253245
253245
253245
253245
253245
253245
253245
253245
253245
253245
253245
253245
253245
253245
253245
253245
253245
253245
253245
253245
253245
253245
253245
253245
253245
253245
253245
253245
253245
253245
253245
253245
253245
253245
253245
253245
253245
253245
253245
253245
253245
253245
253245
253245
253245
253245
253245
253245
253245
253245
253245
253245
253245
253245
253245
253245
253245
253245
253245
253245
253245
253245
253245
253245
253245
253245
253245
253245
253245
253245
253245
253245
253245
253245
253245
253245
253245
253245
253245
253245
253245
253245
253245
253245
253245
253245
253245
253245
253245
253245
253245
253245
253245
253245
253245
253245
253245
253245
253245
253245
253245
253245
253245
253245
253245
253245
253245
253245
253245
253245
253245
253245
253245
253245
253245
253245
253245
253245
253245
253245
253245
253245
253245
253245
253245
253245
253245
253245
253245
253245
253245
253245
253245
253245
253245
253245
253245
253245
253245
253245
253245
253245
253245
253245
253245
253245
253245
253245
253245
253245
253245
253245
253245
253245
253245
253245
253245
253245
253245
253245
253245
253245
253245
253245
253245
253245
253245
253245
253245
253245
253245
253245
253245
253245
253245
253245
253245
253245
253245
253245
253245
253245
253245
253245
253245
253245
253245
253245
253245
253245
253245
253245
253245
253245
253245
253245
253245
253245
253245
253245
253245
253245
253245
253245
253245
253245
253245
253245
253245
253245
253245
253245
253245
253245
253245
253245
253245
253245
253245
253245
253245
253245
253245
253245
253245
253245
253245
253245
253245
253245
253245
253245
253245
253245
253245
253245
253245
253245
253245
253245
253245
253245
253245
253245
253245
253245
253245
253245
253245
253245
253245
253245
253245
253245
253245
253245
253245
253245
253245
253245
253245
253245
253245
253245
253245
253245
253245
253245
253245
253245
253245
253245
253245
253245
253245
253245
253245
253245
253245
253245
253245
253245
253245
253245
253245
253245
253245
253245
253245
253245
253245
253245
253245
253245
253245
253245
253245
253245
253245
253245
253245
253245
253245
253245
253245
253245
253245
253245
253245
253245
253245
253245
253245
253245
253245
253245
253245
253245
253245
253245
253245
253245
253245
253245
253245
253245
253245
253245
253245
253245
253245
253245
253245
253245
253245
253245
253245
253245
253245
253245
253245
253245
253245
253245
253245
253245
253245
253245
253245
253245
253245
253245
253245
253245
253245
253245
253245
253245
253245
253245
253245
253245
253245
253245
253245
253245
253245
253245
253245
253245
253245
253245
253245
253245
253245
253245
253245
253245
253245
253245
253245
253245
253245
253245
253245
253245
253245
253245
253245
253245
253245
253245
253245
253245
253245
253245
253245
253245
253245
253245
253245
253245
253245
253245
253245
253245
253245
253245
253245
253245
253245
253245
253245
253245
253245
253245
253245
253245
253245
253245
253245
253245
253245
253245
253245
253245
253245
253245
253245
253245
253245
253245
253245
253245
253245
253245
253245
253245
253245
253245
253245
253245
253245
253245
253245
253245
253245
253245
253245
253245
253245
253245
253245
253245
253245
253245
253245
253245
253245
253245
253245
253245
253245
253245
253245
253245
253245
253245
253245
253245
253245
253245
253245
253245
253245
253245
253245
253245
253245
253245
253245
253245
253245
253245
253245
253245
253245
253245
253245
253245
253245
253245
253245
253245
253245
253245
253245
253245
253245
253245
253245
253245
253245
253245
253245
253245
253245
253245
253245
253245
253245
253245
253245
253245
253245
253245
253245
253245
253245
253245
253245
253245
253245
253245
253245
253245
253245
253245
253245
253245
253245
253245
253245
253245
253245
253245
253245
253245
253245
253245
253245