/*--------------------------------*- C++ -*----------------------------------*\
  =========                 |
  \\      /  F ield         | OpenFOAM: The Open Source CFD Toolbox
   \\    /   O peration     | Website:  https://openfoam.org
    \\  /    A nd           | Version:  9
     \\/     M anipulation  |
\*---------------------------------------------------------------------------*/
FoamFile
{
    format      ascii;
    class       volVectorField;
    location    "0.00045";
    object      U;
}
// * * * * * * * * * * * * * * * * * * * * * * * * * * * * * * * * * * * * * //

dimensions      [0 1 -1 0 0 0 0];

internalField   nonuniform List<vector> 
5544
(
(-61.3566 186.334 -3.05249)
(-0.212628 1.08695 0.00221336)
(-0.00163717 0.0110486 0.00206018)
(-13.0912 544.425 -23.1879)
(-12.995 44.2665 -0.19234)
(-8.21276 241.397 -8.18218)
(-8.85961 257.876 3.29182)
(-0.0803045 0.462093 0.0540904)
(-1.15412 49.7991 14.3274)
(-0.122041 7.54273 2.1387)
(-1.13816e-05 8.70284e-05 3.85559e-05)
(-2.96727e-06 0.000421422 0.000256499)
(-534.044 1519.39 -105.462)
(-205.998 1507.68 -9.66171)
(-204.93 513.783 -9.23453)
(-193.265 1263.33 -60.2982)
(-188.583 468.689 6.6434)
(-199.812 1285.51 188.692)
(-140.097 352.223 90.2192)
(-167.816 1038.84 420.415)
(-25.0358 72.6615 40.4358)
(-46.6696 280.101 176.118)
(-0.0134169 0.0691219 0.0516446)
(-0.0529018 0.549198 0.442308)
(-0.863312 7.86468 0.537016)
(-36.2478 209.845 2.51194)
(-0.281159 14.0254 0.0825115)
(-7.84217 233.371 27.1876)
(-1.12301 9.68579 0.0496382)
(-31.4493 187.823 20.8979)
(-0.219497 11.4287 0.840088)
(-1.11386 12.8478 0.379298)
(-64.1086 494.524 -18.7857)
(-0.41949 31.4079 -0.493176)
(-9.22161 357.714 9.76068)
(-43.1941 312.295 13.0563)
(-0.239006 16.7557 0.334606)
(-2.05665 25.2452 -0.320672)
(-0.911408 8.78761 -0.168565)
(-8.15691 260.139 -11.1133)
(-33.2467 195.814 -5.80799)
(-0.242612 12.4103 -0.279805)
(-34.0589 214.015 -7.1048)
(-0.218527 12.4403 -0.317867)
(-0.971557 8.56864 -0.161319)
(-0.362955 3.76582 0.537186)
(-4.51451 149.309 36.2339)
(-4.49236 37.2688 10.1059)
(-0.0170471 1.29469 0.224691)
(-17.4055 114.616 26.4396)
(-0.0897002 5.46746 0.821897)
(-0.0747374 0.906336 0.152367)
(-0.00038159 0.00571513 0.00173004)
(-0.49724 5.30615 1.45309)
(-0.00157806 0.146506 0.031468)
(-0.00533437 0.447773 0.155633)
(-0.00742726 0.10058 0.021218)
(-0.0244062 0.312489 0.106173)
(-7.85361e-05 0.00834992 0.00255856)
(-9.58072e-06 0.00020893 8.95155e-05)
(-0.000157971 0.0155704 0.00740062)
(-1.87691e-05 0.000296517 0.000177093)
(1.07704e-07 1.02531e-05 5.17642e-06)
(-0.000806996 0.0107455 0.00503851)
(-3.20852e-06 0.000302499 0.000130628)
(3.83337e-06 1.18332e-05 5.88367e-06)
(-195.097 1335.46 -90.2542)
(-53.2239 1375.74 -102.711)
(-56.3887 1317.07 -68.1658)
(-33.426 848.437 -34.1382)
(-32.7428 915.479 -51.6105)
(-130.21 792.031 -28.478)
(-133.857 863.406 -40.8591)
(-199.635 1289.08 45.4762)
(-61.7228 1335.72 196.702)
(-60.8443 1345.06 48.2984)
(-35.6319 870.353 19.1641)
(-135.508 811.486 17.0961)
(-34.9049 853.359 109.394)
(-130.763 795.616 99.4022)
(-224.239 1683.3 -162.511)
(-53.0334 1696.19 -175.672)
(-51.5362 1527.89 -21.4266)
(-35.9229 1330.93 -92.0167)
(-170.335 1299.56 -82.4195)
(-32.9777 1106.09 5.21943)
(-147.607 1067.31 17.7248)
(-412.329 1082.97 -45.0243)
(-183.318 454.965 -11.9327)
(-385.282 985.347 -34.9153)
(-300.882 1143.44 -48.5941)
(-315.086 1231.54 -71.0874)
(-185.432 657.844 -20.5432)
(-199.015 728.41 -24.8846)
(-179.841 452.083 49.0336)
(-391.605 996.396 26.3301)
(-389.811 1002.86 131.781)
(-307.246 1165.95 166.252)
(-307.585 1163.1 37.3325)
(-191.049 673.875 12.1498)
(-183.736 658.335 77.6924)
(-191.911 1203.91 325.155)
(-48.0284 1075.45 435.745)
(-57.9227 1246.43 336.653)
(-18.9605 516.955 205.508)
(-29.251 745.229 192.533)
(-75.0962 461.997 183.594)
(-112.163 689.883 177.21)
(-360.907 994.378 -38.7805)
(-275.114 729.315 49.1244)
(-472.868 1309.71 37.0633)
(-349.715 1432.45 8.95472)
(-387.769 1621.99 -137.166)
(-289.716 1189.33 -62.6435)
(-239.22 942.486 34.5887)
(-63.7942 170.403 62.4114)
(-366.246 940.474 247.875)
(-303.194 761.88 308.683)
(-256.994 936.956 377.161)
(-295.822 1095.43 294.814)
(-94.8054 332.951 131.187)
(-155.179 554.887 142.066)
(-471.615 1189.75 697.247)
(-210.196 1358.56 758.668)
(-30.5784 75.7558 70.3655)
(-2.41492 18.2822 16.7391)
(-522.107 1529.49 12.971)
(-464.44 1326.77 203.902)
(-213.293 1682.6 -6.58989)
(-450.156 1295.4 -58.4605)
(-189.39 1577.37 -85.8568)
(-202.704 1598.01 247.465)
(-467.724 1332.6 555.742)
(-205.074 1540.06 597.346)
(-196.234 1594.47 -107.617)
(-59.9739 1632.39 -118.278)
(-67.1211 1799.95 -173.844)
(-64.0875 1630.79 -94.9)
(-72.1795 1870.35 -120.641)
(-201.473 1808.69 -111.016)
(-193.891 1745.05 -149.003)
(-197.653 1604.51 74.2443)
(-72.8994 1643.09 251.914)
(-71.1206 1656.92 75.7825)
(-80.0366 1899.14 97.9913)
(-79.7467 1868.18 307.7)
(-214.458 1841.8 98.6779)
(-211.26 1815.03 304.983)
(-323.715 1484.84 230.733)
(-456.558 1317.44 53.4546)
(-315.564 1482.96 66.2277)
(-417.154 1502.43 82.2175)
(-424.106 1500.92 260.502)
(-314.477 1703.04 94.9564)
(-310.496 1681.99 290.776)
(-241.695 1814.86 -231.588)
(-64.1018 1829.26 -249.513)
(-58.9207 1700.69 -13.7436)
(-70.4578 1867.9 -374.116)
(-63.8592 1749.75 -15.0313)
(-239.48 1855.13 -343.411)
(-208.208 1719.51 2.98357)
(-307.813 1456.95 -73.275)
(-473.528 1367.62 -83.8737)
(-329.23 1501.23 -98.9505)
(-437.882 1487.72 -90.3475)
(-405.412 1471.43 -81.5338)
(-297.571 1664.6 -99.6233)
(-307.117 1629.24 -115.527)
(-210.104 1369.07 558.726)
(-209.211 1517.78 399.698)
(-76.9516 1581.48 605.304)
(-68.5658 1405.01 564.816)
(-72.3983 1557.67 403.455)
(-78.3333 1765.17 478.076)
(-201.837 1711.21 467.685)
(-366.158 1622.66 0.628153)
(-585.263 1683.48 -170.669)
(-416.877 1763.61 -203.982)
(-579.89 1737.1 -237.803)
(-503.704 1577.29 22.3643)
(-410.293 1812.54 -294.198)
(-354.301 1658.15 15.6459)
(-326.616 1447.45 578.517)
(-453.03 1158.19 492.049)
(-337.295 1278.46 534.168)
(-469.608 1270.19 355.763)
(-335.863 1414.31 383.399)
(-441.484 1437.79 405.458)
(-308.374 1590.54 442.441)
(-190.723 1154.45 644.063)
(-71.5992 1384.2 762.988)
(-57.989 1182.06 657.675)
(-59.3649 1142.45 812.215)
(-37.3621 856.011 579.556)
(-135.491 821.295 554.807)
(-191.096 1121.83 798.283)
(-338.457 1286.36 736.248)
(-384.088 948.438 528.878)
(-302.281 1073.86 600.926)
(-402.988 960.4 679.456)
(-232.594 552.02 366.288)
(-208.407 722.173 485.715)
(-307.25 1057.12 752.291)
(-53.0273 310.84 239.074)
(-0.630908 24.1631 22.1335)
(-13.7277 354.13 273.831)
(-11.3083 283.158 260.954)
(-36.2116 801.478 657.127)
(-43.2651 247.244 227.663)
(-130.422 774.444 632.243)
(-11.9516 326.546 207.621)
(-119.345 734.005 393.707)
(-31.8087 779.961 418.838)
(-6.21846 193.66 92.668)
(-24.0426 154.769 71.6644)
(-0.400384 20.0724 9.28298)
(-1.59393 14.8049 6.56699)
(-12.5218 41.9478 0.250572)
(-0.173618 0.920834 0.0430992)
(-10.6329 37.0619 2.6756)
(-0.688955 4.07126 0.0142955)
(-0.538823 3.35003 0.193491)
(-31.7324 119.08 1.12016)
(-26.4855 103.895 9.95354)
(-0.197224 1.05394 -0.00333763)
(-0.188304 0.972269 -0.0109555)
(-11.2625 38.4217 -0.645533)
(-0.61173 3.8372 -0.0384255)
(-0.602361 3.60459 -0.0522906)
(-28.471 108.896 -2.58665)
(-31.2853 122.46 -2.20081)
(-0.750859 2.84157 2.51251)
(-237.4 548.192 439.706)
(-36.9908 96.1794 71.1247)
(-2.03001 9.35416 8.49953)
(-64.5685 215.653 163.943)
(-52.687 170.724 157.743)
(-204.682 693.222 562.182)
(-25.8336 84.0081 6.85012)
(-0.815908 4.64952 -0.00524417)
(-0.323842 1.85542 0.0929905)
(-1.9997 13.743 -0.0965208)
(-0.920115 6.28178 0.255731)
(-88.5951 361.719 -10.2699)
(-50.5523 203.963 12.7074)
(-5.42695 21.2378 3.55811)
(-0.01661 0.10585 0.0146667)
(-1.24743 5.85417 1.16572)
(-0.240054 1.63723 0.212976)
(-0.0520695 0.400955 0.0621546)
(-3.48338 18.9476 4.49553)
(-13.7259 60.3769 12.2832)
(-51.9226 183.229 110.695)
(-172.129 417.472 221.339)
(-175.359 614.105 328.633)
(-8.2213 29.9002 10.4965)
(-0.383964 1.92403 0.727074)
(-20.8901 85.2791 36.2712)
(-1.18707 7.00489 2.87229)
(-0.709305 3.09002 1.82658)
(-0.0395696 0.251991 0.196779)
(-2.06219 10.6369 6.74707)
(-0.0106988 0.062225 0.0309422)
(-0.000246467 0.0014754 0.000961544)
(-0.000738458 0.00565097 0.00379496)
(-0.0326147 0.236844 0.122532)
(-2.59544 21.3523 14.2161)
(-0.011971 0.762654 0.622545)
(-0.671602 28.4766 19.3388)
(-0.000197818 0.018627 0.0130076)
(-0.0102494 0.754564 0.413373)
(-0.00106198 0.0130626 0.00900231)
(-0.0459646 0.534797 0.287729)
(8.36797e-07 4.54862e-07 -9.4915e-09)
(2.84202e-10 7.37081e-10 -8.31421e-12)
(4.61197e-12 1.69779e-11 -1.16277e-13)
(5.2904e-08 5.56153e-08 -1.72145e-09)
(1.69368e-08 2.51994e-08 -4.60713e-10)
(9.28254e-10 1.46907e-09 -2.56987e-11)
(2.95382e-10 7.56674e-10 -2.31046e-11)
(2.09052e-08 3.13327e-08 -7.06065e-10)
(1.07172e-09 1.65404e-09 -1.17303e-10)
(4.59342e-08 4.91528e-08 -1.09859e-09)
(1.94135e-11 4.04038e-11 -5.10433e-13)
(4.87508e-12 1.75844e-11 -5.77176e-13)
(2.30428e-11 4.57548e-11 -4.27829e-12)
(7.53565e-06 3.00093e-06 1.70403e-05)
(2.44053e-05 1.91397e-05 1.93281e-08)
(586.778 178.995 312.041)
(8.88116e-08 2.44664e-08 7.73832e-08)
(3.44792e-09 2.09879e-09 2.49436e-09)
(1.22967e-13 3.14147e-13 1.34907e-13)
(2.61721e-05 2.28395e-05 -6.634e-07)
(5.16788e-12 1.05522e-11 5.40311e-12)
(1.68464e-10 8.53755e-11 1.43089e-10)
(2.24259e-13 4.60373e-13 4.10527e-14)
(3.38566e-15 8.91284e-15 -5.93803e-15)
(1.10219e-10 5.03459e-10 -8.0487e-12)
(1.66954e-10 6.68673e-10 -5.92128e-11)
(4.58647e-10 1.79867e-09 -1.09426e-11)
(3.66582e-14 1.89783e-13 8.09819e-14)
(4.31546e-14 1.19719e-13 1.2126e-14)
(1.16007e-14 7.79567e-14 2.23404e-15)
(7.16491e-07 1.36214e-06 -2.35845e-08)
(7.43188e-09 2.48723e-08 -3.90488e-10)
(9.40387e-09 2.93164e-08 -1.6759e-09)
(6.79921e-07 1.30722e-06 -1.45695e-08)
(8.88523e-07 1.75028e-06 -6.43552e-08)
(1.69179e-08 5.36828e-08 -7.56317e-10)
(1.66245e-08 5.32477e-08 -1.94292e-09)
(8.88971e-07 1.74773e-06 -3.06599e-08)
(3.77318e-10 1.54356e-09 -2.2206e-11)
(3.61531e-10 1.50228e-09 -5.59479e-11)
(2.12134e-08 6.27765e-08 -3.06805e-10)
(1.18972e-06 2.17685e-06 -7.38062e-09)
(4.17401e-08 6.49848e-08 1.97629e-08)
(9.38909e-11 1.67711e-10 7.05462e-11)
(2.17687e-10 2.92139e-10 1.98871e-10)
(2.35819e-12 7.26483e-12 4.025e-12)
(2.23058e-12 5.06577e-12 1.3216e-12)
(1.34108e-10 2.30582e-10 1.48954e-10)
(1.2901e-10 1.95638e-10 8.52895e-11)
(1.11738e-12 3.64073e-12 9.28426e-13)
(5.69733e-12 1.07804e-11 5.6389e-12)
(2.17165e-13 4.74486e-13 1.62218e-13)
(7.83453e-12 1.17696e-11 5.40173e-12)
(1.00562e-13 3.0538e-13 2.13362e-14)
(9.35109e-12 1.35675e-11 7.64115e-12)
(8.58452e-14 3.21584e-13 8.51969e-14)
(4.85597e-12 9.38738e-12 3.9905e-12)
(2.78417e-15 7.42445e-15 9.93718e-15)
(5.89109e-16 4.26012e-15 -4.92937e-15)
(0 5.10431e-15 2.30819e-14)
(0.00668692 0.00340016 6.08671e-05)
(9.12716e-05 6.62239e-05 -7.33772e-06)
(9.94479e-05 6.93792e-05 1.68825e-06)
(5.98593e-05 4.10488e-05 5.04497e-06)
(0.00108751 0.000386165 0.000354396)
(1.51853e-05 9.47724e-06 4.51797e-06)
(1.82639e-05 7.49972e-06 9.45413e-06)
(3.48743e-06 1.96204e-06 1.56749e-06)
(1.77855e-06 9.11499e-07 1.38798e-06)
(8.39531e-08 4.99691e-08 6.25614e-08)
(3.65827e-08 2.2851e-08 3.89718e-08)
(1.4766e-09 1.30521e-09 1.46446e-09)
(114.097 1837.85 -262.424)
(30.1371 490.835 -23.3538)
(220.777 1832.99 101.194)
(13.2069 236.191 3.61863)
(221.796 1357.53 758.716)
(0.161897 7.15663 2.10024)
(558.309 1572.69 -37.6871)
(85.7109 1331.36 -97.099)
(347.65 800.359 -35.9636)
(98.1422 1643.61 -128.225)
(442.141 1463.61 -101.622)
(52.0243 849.256 -34.363)
(164.814 370.382 -15.9461)
(30.3429 87.4052 -1.58921)
(12.1013 223.29 -8.11245)
(7.28676 24.2417 -0.722951)
(438.949 1484.09 257.379)
(53.9078 867.632 20.242)
(170.871 391.275 2.27288)
(207.091 1704.14 470.901)
(457.578 1426.1 404.219)
(25.4989 512.54 203.179)
(52.3544 137.632 48.5207)
(8.29244 27.2971 0.0345784)
(1.56004 46.7074 13.8375)
(0.917147 4.21011 0.831738)
(485.217 1173.07 685.409)
(8.18366 190.903 90.8955)
(6.44463 23.5708 7.82776)
(13.0158 283.071 260.519)
(25.8272 62.6221 58.1438)
(0.000286549 0.0183921 0.0127972)
(0.000186628 0.0011573 0.000742961)
(0.086407 0.478251 0.109212)
(8.38702e-06 0.000391272 0.000252711)
(3.36678e-06 2.22623e-05 1.33474e-05)
(0.0053985 0.0193243 0.029227)
(4.0136e-06 2.41697e-05 1.85876e-05)
(4.47805e-06 1.97574e-05 3.04679e-05)
(1.08343e-08 1.45742e-07 4.65532e-08)
(9.01305e-08 5.40752e-07 3.70292e-07)
(2.69101e-10 4.27499e-09 8.82294e-10)
(84.886 402.629 -17.2197)
(19.4591 328.254 7.97949)
(54.3044 255.42 8.25026)
(40.4451 179.663 2.21908)
(11.2071 214.562 27.0853)
(33.9878 161.762 18.4484)
(0.517267 4.72167 1.32604)
(0.00688919 0.427869 0.154106)
(0.0256996 0.281144 0.0984723)
(263.224 1485.93 -30.706)
(111.759 1702.24 -185.081)
(230.019 1249.59 -85.484)
(70.3878 1102.71 -1.77857)
(102.158 1532.49 -32.557)
(193.23 1019.5 4.91228)
(292.25 1665.68 -173.301)
(402.247 1375.93 -18.6554)
(585.198 1423.61 -113.769)
(329.533 1072.93 -63.1205)
(245.735 555.733 25.2508)
(503.091 1200.33 7.12551)
(264.102 838.079 16.6211)
(454.064 1574.65 -149.615)
(238.157 1322.27 -105.121)
(56.8286 915.628 -54.8879)
(87.6292 1323.46 -69.9551)
(152.829 770.171 -31.158)
(92.2782 1382.74 -109.785)
(164.517 833.1 -48.1165)
(225.82 1253.79 -67.6299)
(353.855 1188.49 -90.3361)
(178.512 397.259 -18.2571)
(398.94 923.258 -48.2651)
(195.617 606.303 -24.7659)
(428.868 996.549 -66.6498)
(212.528 656.719 -34.598)
(331.346 1112.47 -60.3086)
(78.1073 244.757 -7.9934)
(12.2228 39.5083 2.09454)
(40.7457 132.182 6.0489)
(13.4549 241.594 -11.8551)
(37.8666 167.975 -6.0066)
(40.202 180.477 -8.15976)
(7.41909 24.946 -0.646333)
(24.9335 81.4737 -2.68415)
(26.2132 85.9842 -3.11821)
(217.613 1269.76 183.544)
(85.9668 1344.54 50.1008)
(153.987 787.122 15.6247)
(49.3105 848.65 108.379)
(223.752 1274.23 42.9294)
(81.1859 1333.36 196.776)
(144.622 772.137 93.272)
(322.625 1136.47 153.825)
(400.767 938.781 14.6185)
(197.721 623.702 8.49649)
(163.914 386.502 35.2586)
(329.755 1131.21 30.1439)
(393.996 952.743 111.297)
(187.37 613.808 66.4514)
(208.141 1190.52 319.957)
(40.1666 740.109 190.815)
(61.3124 1073.69 433.986)
(81.0232 444.084 175.349)
(74.7261 1244.61 335.956)
(122.863 668.879 170.588)
(181.653 1026.23 412.849)
(308.573 1070.01 283.44)
(125.294 299.707 74.3422)
(300.138 714.068 286.194)
(92.3859 303.046 117.789)
(368.601 894.866 228.494)
(156.321 516.202 129.975)
(266.172 910.031 363.224)
(27.4892 89.2826 0.614651)
(7.54783 25.8091 1.46915)
(23.2513 80.719 7.08597)
(6.28232 137.823 35.8009)
(4.69787 32.9318 9.05951)
(18.2441 98.9872 23.9217)
(4.05417 15.422 2.54263)
(3.14209 15.5171 3.68684)
(12.139 48.1487 9.86225)
(49.9152 269.659 168.437)
(40.0992 777.611 416.208)
(25.0427 145.223 66.3759)
(0.517986 19.7866 9.09398)
(129.127 720.446 384.48)
(14.8695 324.568 205.739)
(1.65363 13.8208 6.04272)
(49.4909 165.498 98.7822)
(160.953 372.326 195.5)
(18.8806 73.979 30.5914)
(0.296042 1.48339 0.548245)
(178.967 585.282 311.174)
(20.0943 58.3683 31.5072)
(1.06087 5.96848 2.39603)
(2.72214 20.2058 13.3202)
(0.0132015 0.745851 0.406432)
(0.0147591 0.757691 0.615975)
(0.00109224 0.0122366 0.00837052)
(0.826056 28.2583 19.1059)
(0.0479081 0.500861 0.266636)
(0.0557169 0.520008 0.415133)
(1.88401 9.25196 5.7752)
(0.0082407 0.0484464 0.023807)
(0.0106606 0.0544562 0.0402069)
(0.000678546 0.00485431 0.00322602)
(0.55471 2.4075 1.40061)
(0.0298015 0.202398 0.103344)
(0.0363901 0.218267 0.168514)
(0.308474 1.91154 0.494611)
(0.00409389 0.0259273 0.00837717)
(0.0153367 0.110032 0.0370286)
(0.000198128 0.0149021 0.00737442)
(2.18201e-05 0.000253299 0.000161539)
(0.000835432 0.00974162 0.00474008)
(0.000129888 0.000870259 0.000399894)
(1.28708e-05 9.68052e-05 6.00647e-05)
(0.000498971 0.00375901 0.00177891)
(1.13813e-05 7.95083e-05 8.21444e-05)
(0.00019222 0.00102973 0.000925721)
(1.38377e-05 0.000100305 8.08331e-05)
(1.94115e-07 1.18009e-06 6.39081e-07)
(0.000652702 0.00413093 0.00387713)
(4.77797e-06 2.44993e-05 2.18903e-05)
(2.85315e-07 2.67404e-06 2.02205e-06)
(2.95555e-07 4.11297e-06 3.2969e-06)
(2.24796e-08 2.03543e-07 9.23165e-08)
(4.35282e-07 3.91645e-06 2.30927e-06)
(4.25469e-09 1.40024e-07 4.54673e-08)
(4.86238e-07 3.52995e-06 2.34293e-06)
(1.13232e-08 2.21182e-07 1.21641e-07)
(1.73642e-07 3.7144e-06 2.19934e-06)
(2.829e-07 2.17924e-06 1.62077e-06)
(8.70522e-09 5.73385e-08 2.0952e-08)
(8.86669e-09 9.73002e-08 5.20892e-08)
(1.00655e-09 8.7958e-09 3.56693e-09)
(9.27821e-11 3.97406e-09 8.67836e-10)
(6.04479e-10 9.88504e-09 4.81694e-09)
(738.4 1464.18 -27.6124)
(424.051 469.354 -1.952)
(5.28509 17.1022 -0.0808259)
(3.72123e-05 7.75883e-05 8.65771e-07)
(4.19599e-10 9.25306e-10 -2.48405e-11)
(604.035 1298.8 205.911)
(94.7093 105.669 -3.4388)
(3.88791e-05 3.15016e-05 9.95121e-08)
(1.43148 4.6985 -0.0131916)
(2.4923e-05 4.24035e-05 -2.311e-07)
(1.4504e-09 3.60524e-09 -6.89434e-11)
(574.041 1031.41 602.868)
(3.09975 3.9993 1.2828)
(1.98164e-06 1.45669e-06 5.12739e-07)
(0.0143767 0.0693039 0.0145139)
(2.46565e-07 4.82443e-07 8.72528e-08)
(1.03187e-10 2.26667e-10 5.07947e-11)
(0.00101575 0.00339045 0.00483921)
(2.04824e-06 2.86161e-06 2.89529e-06)
(2.03952e-08 8.62691e-08 5.22708e-08)
(1.65428e-10 3.77096e-10 1.95985e-10)
(1016.02 1342.88 -94.0605)
(216.368 409.709 -11.045)
(0.107124 0.249922 0.00202133)
(608.164 1266.67 -87.1947)
(699.029 888.889 -52.593)
(59.5264 123.255 -5.36156)
(0.0235328 0.0447249 -0.00145326)
(0.000210642 0.000212628 1.27876e-06)
(0.00330424 0.00655058 6.95142e-05)
(1.19017e-07 3.04441e-07 -5.25839e-09)
(78.194 87.2788 -4.81909)
(0.00200586 0.00184026 -3.93569e-05)
(0.000977592 0.00160908 -5.59724e-05)
(2.07168e-07 4.84632e-07 -1.18074e-08)
(1.70447e-08 3.42752e-08 -8.53082e-10)
(3.59526e-08 8.15957e-08 -1.42547e-09)
(0.00111979 0.00289066 2.86262e-05)
(1.19644 3.90825 -0.11454)
(0.000445304 0.000882267 -2.98557e-05)
(2.95604e-09 1.05014e-08 -1.94452e-10)
(1.93294e-05 3.25942e-05 -1.17585e-06)
(7.78628e-09 2.203e-08 -3.34126e-10)
(1.18225e-09 2.93433e-09 -4.32251e-11)
(653.59 830.93 -4.85213)
(68.2336 140.369 -0.49668)
(0.030078 0.0576606 -0.00057102)
(617.372 1259.68 355.116)
(659.096 849.629 219.191)
(11.0027 31.0093 8.18941)
(0.00398822 0.00862688 0.00116318)
(0.00336511 0.00309135 -5.91742e-05)
(0.00126631 0.00210182 -1.86011e-05)
(2.45872e-07 6.29035e-07 -1.40943e-08)
(25.7148 30.4918 9.50986)
(0.00214386 0.0019455 0.000185285)
(0.000159289 0.000286996 3.61227e-05)
(2.14588e-07 7.78007e-07 7.8126e-08)
(4.73385e-08 1.00849e-07 -1.84001e-09)
(1.93923e-05 1.38231e-05 1.91415e-06)
(5.2926e-08 8.43667e-08 9.20867e-09)
(0.00056746 0.00113845 -7.14599e-06)
(0.153398 0.656895 0.108815)
(6.44361e-05 0.00014434 1.74974e-05)
(8.56897e-09 2.73298e-08 -5.55195e-10)
(2.67775e-06 4.95933e-06 5.93024e-07)
(4.69256e-09 2.29564e-08 2.32638e-09)
(1.01006e-09 2.23561e-09 2.37432e-10)
(71.2294 89.8335 43.3539)
(1.1038 4.13916 1.09775)
(0.000378537 0.000842071 0.000160268)
(5.51885 13.5586 12.9044)
(0.00226996 0.00376054 0.00314685)
(3.29152e-05 0.000163826 0.000101259)
(1.48028e-07 6.20855e-07 1.61496e-07)
(2.44236e-05 2.19282e-05 9.5891e-06)
(1.49227e-05 2.75814e-05 5.17814e-06)
(3.98953e-08 1.27376e-07 3.29332e-08)
(0.000111175 0.000150241 0.000115728)
(4.50181e-06 4.28572e-06 2.69885e-06)
(6.58901e-08 1.90789e-07 4.39266e-08)
(8.94588e-10 2.61082e-09 6.40182e-10)
(5.26912e-09 8.73237e-09 2.49971e-09)
(1.38911e-07 9.5013e-08 7.55406e-08)
(9.85595e-11 2.2617e-10 5.34214e-11)
(5.96385e-06 1.36343e-05 2.53991e-06)
(6.1146e-07 3.0387e-06 1.75232e-06)
(5.63772e-09 2.84992e-08 5.72023e-09)
(8.39255e-10 3.25449e-09 6.79741e-10)
(2.09848e-09 6.0745e-09 1.21322e-09)
(1.59101e-11 5.97705e-11 1.22673e-11)
(1.92061e-12 5.52332e-12 1.07873e-12)
(4.41856e-05 7.50644e-05 7.74717e-05)
(7.6196e-07 3.60132e-06 2.57579e-06)
(2.25202e-08 9.69176e-08 4.50998e-08)
(3.30008e-06 7.45439e-06 1.1557e-05)
(5.16604e-07 9.97462e-07 1.40485e-06)
(8.78756e-09 2.93088e-08 1.02075e-08)
(3.92699e-10 2.54834e-09 8.37216e-10)
(1.68068e-07 1.34874e-07 1.53466e-07)
(5.88143e-09 1.16815e-08 7.41221e-09)
(4.87151e-11 1.36951e-10 6.11257e-11)
(7.55206e-08 7.84136e-08 1.34302e-07)
(3.42397e-09 2.50894e-09 4.99164e-09)
(1.29457e-10 2.62219e-10 7.98856e-11)
(1.64128e-12 5.98345e-12 7.13112e-13)
(7.18571e-10 3.46696e-09 1.48752e-09)
(2.71424e-10 9.22536e-10 2.20041e-10)
(8.45985e-12 6.243e-11 1.05766e-11)
(9.89119e-13 3.52847e-12 1.38123e-12)
(2.8958e-12 7.14431e-12 1.09766e-12)
(3.15281e-14 1.66244e-13 -2.81073e-14)
(0.454658 1.54394 0.00464446)
(1.90286 6.5165 0.364119)
(0.159903 0.524509 0.0285547)
(1.00518e-06 1.75793e-06 1.67486e-08)
(1.51107e-05 2.84498e-05 1.06061e-06)
(4.59079e-07 7.74601e-07 3.32535e-09)
(6.78534e-10 1.4521e-09 -1.59282e-10)
(0.144643 0.427288 -0.00222669)
(1.36259 4.66895 0.167749)
(0.142793 0.440317 0.0105268)
(9.59431e-07 1.50696e-06 -1.39948e-10)
(2.51399e-05 4.39255e-05 6.62063e-07)
(9.51322e-07 1.51199e-06 3.16221e-08)
(1.63597e-09 3.89282e-09 5.1918e-11)
(4.68868e-10 1.77189e-09 5.50061e-11)
(0.00155784 0.00592307 0.00114199)
(0.00069869 0.00362523 0.00111723)
(7.7339e-05 0.000300027 9.00115e-05)
(1.53369e-08 4.75933e-08 4.27484e-09)
(1.86345e-08 6.22399e-08 1.2183e-08)
(7.21399e-09 3.65791e-08 3.78815e-09)
(2.4793e-11 9.79983e-11 2.72903e-11)
(6.32146e-11 1.477e-10 1.50466e-11)
(1.71922e-11 7.48458e-11 6.7455e-12)
(4.66781e-09 2.01289e-08 6.98611e-09)
(4.79708e-09 2.01348e-08 5.75936e-09)
(2.15937e-09 1.36512e-08 2.57685e-09)
(2.82867e-11 1.2053e-10 5.30963e-11)
(4.03119e-11 1.45876e-10 3.07187e-11)
(1.44966e-11 9.11239e-11 1.33228e-11)
(310.685 477.628 43.6844)
(627.817 1169.18 -66.4615)
(42.1615 83.3871 -0.658572)
(109.218 216.176 17.1449)
(498.854 908.639 37.6243)
(13.6572 30.2589 2.57674)
(489.126 752.591 -23.2619)
(55.2886 85.8771 10.8663)
(10.0635 17.2196 0.0889012)
(2.75026 6.60428 0.0220859)
(0.0327475 0.0706229 0.00492107)
(2.62519 4.65003 0.488164)
(0.79603 1.8937 0.1465)
(157.444 232.445 -1.88925)
(199.381 306.178 -12.2225)
(61.92 127.038 -4.39894)
(365.023 654.018 -34.0561)
(7.09481 16.2145 -0.562464)
(393.223 700.533 -38.2056)
(6.96353 16.0001 -0.305432)
(187.553 289.316 -15.2671)
(24.4866 39.2392 -0.737644)
(0.0196716 0.0378303 -0.000375484)
(1.25315 2.05789 -0.0728671)
(0.469637 1.01907 -0.0322478)
(1.1571 1.91949 -0.0163031)
(0.425437 0.935262 -0.0105358)
(24.3954 38.9412 -1.66547)
(0.00211345 0.00302412 0.000217338)
(0.300784 0.516375 0.00487532)
(8.37367e-05 0.000138766 1.61927e-06)
(0.00109111 0.00199021 0.000118657)
(0.0809361 0.133498 0.0117588)
(3.07089e-05 4.81616e-05 1.94421e-06)
(0.00707789 0.0106231 0.000125121)
(5.05575e-05 6.49126e-05 2.81255e-06)
(4.69031e-06 7.10575e-06 -8.68792e-08)
(1.89987e-06 2.85638e-06 2.08494e-08)
(1.21817e-07 3.38868e-07 -2.31677e-08)
(3.41407e-06 5.83977e-06 -2.53321e-07)
(8.7323e-07 1.39169e-06 -2.00947e-08)
(0.000144548 0.000187538 2.30218e-06)
(0.00131994 0.00178362 -2.47557e-05)
(0.000754121 0.00125258 -1.68426e-05)
(0.049133 0.0735903 -0.00260006)
(3.57683e-05 5.32878e-05 -1.72077e-06)
(0.0416145 0.0629063 -0.000492249)
(2.57095e-05 3.89577e-05 -1.06384e-06)
(0.00169371 0.00227314 -8.3237e-05)
(4.13856e-05 5.18702e-05 -1.56727e-06)
(1.94127e-07 4.69948e-07 -1.55213e-08)
(4.72317e-06 7.35027e-06 -2.9335e-07)
(1.46204e-06 2.21259e-06 -5.19574e-08)
(4.22304e-06 6.81173e-06 -2.75347e-07)
(1.08322e-06 1.72381e-06 -9.50206e-08)
(5.60713e-05 6.93185e-05 -2.59179e-06)
(7.77647e-07 1.25442e-06 -2.25576e-08)
(2.34368e-08 4.38162e-08 -3.68453e-09)
(8.04777e-07 1.22718e-06 -3.77445e-08)
(3.59867e-08 8.1107e-08 -3.06403e-09)
(1.15837e-06 2.01857e-06 -4.14535e-08)
(1.16968e-06 2.01882e-06 -9.08972e-08)
(0.0260723 0.0813902 0.000602705)
(0.000427849 0.000977702 4.59671e-05)
(0.00954777 0.0266305 0.00140141)
(1.13962 3.75978 -0.067956)
(0.117577 0.345314 -0.0101801)
(0.104071 0.311513 -0.00421994)
(0.000339647 0.00068269 -1.08103e-05)
(0.00829464 0.0199447 -0.000622643)
(0.00681791 0.0166974 -0.000213714)
(2.73463e-08 4.98608e-08 -1.77189e-10)
(3.76844e-09 1.35602e-08 -1.1839e-09)
(1.83925e-08 3.74508e-08 -3.62122e-09)
(1.36693e-05 2.33497e-05 -5.46596e-07)
(7.62602e-07 1.25033e-06 -2.92032e-08)
(5.15246e-07 8.9318e-07 -4.54667e-08)
(7.40235e-09 2.14991e-08 -7.1633e-10)
(4.42883e-08 8.10889e-08 -7.13688e-10)
(3.53914e-08 6.90567e-08 -4.66771e-09)
(1.15369e-09 2.86888e-09 -1.03217e-10)
(211.032 330.795 25.0303)
(373.911 677.928 1.18306)
(8.64189 19.4581 -0.170008)
(67.4301 141.89 9.81519)
(205.263 317.216 -3.54798)
(374.211 693.071 66.4011)
(8.8677 20.4584 0.813491)
(32.3485 51.6052 2.46588)
(1.60109 2.6351 -0.0413393)
(0.590315 1.28369 -0.0128535)
(0.0316948 0.0625508 0.00110322)
(29.9629 47.2659 -0.815645)
(1.75675 2.95608 0.0789876)
(0.618863 1.38592 0.0340076)
(166.187 266.873 64.158)
(41.2186 93.5726 19.8313)
(228.675 424.143 171.092)
(1.18906 3.46275 0.66699)
(336.842 625.262 155.476)
(5.11064 12.9095 1.90966)
(66.6493 118.314 41.9906)
(20.2582 34.3957 6.00655)
(0.0175798 0.036034 0.00366831)
(0.253081 0.480032 0.0830814)
(0.0792525 0.206888 0.0317937)
(1.03514 1.81482 0.226363)
(0.347316 0.822692 0.0945489)
(5.39814 10.858 2.50209)
(0.00238143 0.00325343 5.1503e-05)
(0.0637433 0.0960733 -0.00132767)
(4.61342e-05 6.81961e-05 -3.62743e-07)
(0.00132914 0.0022588 3.35313e-05)
(0.00221193 0.00297887 -3.27904e-05)
(0.0696034 0.107163 0.00198208)
(4.77068e-05 7.15185e-05 1.13152e-06)
(7.54247e-05 9.56137e-05 1.42541e-06)
(5.9962e-06 9.90059e-06 -2.4803e-07)
(1.72333e-06 2.68217e-06 -4.21173e-09)
(2.59056e-07 6.88202e-07 -7.67762e-09)
(7.18457e-05 9.01933e-05 -7.04517e-07)
(6.44274e-06 1.08827e-05 -3.0296e-07)
(1.71978e-06 2.72134e-06 5.77576e-08)
(0.00132465 0.00184239 0.000192912)
(0.000720524 0.00125814 0.000124009)
(0.00947271 0.0156022 0.00231718)
(5.36948e-06 8.68145e-06 1.07297e-06)
(0.0400196 0.0633575 0.00684227)
(2.50283e-05 3.82068e-05 3.87851e-06)
(0.000300953 0.000430413 5.90998e-05)
(4.27613e-05 5.93959e-05 5.06386e-06)
(2.76509e-07 9.53025e-07 2.37603e-08)
(7.50803e-06 1.59317e-05 1.86477e-06)
(3.31956e-07 1.00253e-06 1.03187e-07)
(8.72927e-06 1.71587e-05 4.57208e-07)
(9.23595e-07 1.79709e-06 1.33558e-07)
(1.30989e-05 2.37215e-05 3.23032e-06)
(1.1936e-06 2.17066e-06 4.62788e-08)
(1.59489e-06 2.559e-06 -2.96264e-08)
(5.29481e-08 1.07137e-07 1.11738e-09)
(1.67492e-06 2.61102e-06 2.32891e-08)
(2.15445e-08 6.22539e-08 1.66261e-09)
(7.95249e-07 1.25522e-06 7.61053e-08)
(7.03563e-08 1.06899e-07 4.57053e-09)
(1.70854e-06 1.82252e-06 2.47753e-07)
(1.2664e-08 3.47782e-08 2.41147e-09)
(1.83609e-06 2.07396e-06 1.109e-07)
(1.50142e-08 3.78978e-08 2.15e-09)
(7.65592e-07 1.23071e-06 1.15629e-07)
(0.0104059 0.0252918 -0.000158529)
(0.000574822 0.00119222 1.83911e-05)
(0.0104772 0.0264594 0.000476299)
(0.702942 2.60776 0.346959)
(0.0166049 0.0585476 0.00831904)
(0.0754081 0.248765 0.0278362)
(0.000300876 0.000648011 6.39496e-05)
(0.00120942 0.00339661 0.000434585)
(0.00554293 0.0147352 0.00149897)
(4.6273e-08 8.86001e-08 2.88586e-10)
(8.86512e-09 2.96971e-08 8.96928e-11)
(4.39348e-08 8.64777e-08 3.03416e-09)
(1.28714e-05 2.31175e-05 2.32204e-06)
(9.87931e-08 1.84214e-07 2.24189e-08)
(4.72454e-07 7.64755e-07 8.48291e-08)
(6.89336e-09 3.31346e-08 1.19424e-09)
(8.79513e-09 3.49478e-08 3.26508e-09)
(2.13931e-08 5.44234e-08 4.94273e-09)
(1.86305e-09 3.56026e-09 2.02407e-10)
(2.01547e-10 8.28015e-10 5.15159e-11)
(2.8603e-10 9.75055e-10 6.76567e-11)
(0.361849 1.08744 0.409761)
(64.8855 135.494 63.1104)
(0.109743 0.372602 0.0821642)
(0.0486616 0.222914 0.0745856)
(8.03909 18.9851 6.26299)
(3.68397 11.657 5.11489)
(0.00511164 0.0187861 0.00594761)
(0.0238824 0.061108 0.0209012)
(0.0243423 0.0490911 0.0106278)
(0.00752146 0.0208027 0.00413871)
(1.87805e-05 4.23623e-05 1.27739e-05)
(0.521314 1.21283 0.303775)
(0.00116464 0.00240923 0.000795066)
(0.000363532 0.00103352 0.000316736)
(0.00977664 0.0326395 0.0166832)
(0.00140379 0.00695961 0.00327258)
(0.00185035 0.00822141 0.00578239)
(3.82894e-06 1.42899e-05 8.40993e-06)
(0.0924339 0.376924 0.204049)
(0.000155874 0.000584226 0.000266247)
(0.000210804 0.000720762 0.000484576)
(0.000696652 0.00182356 0.000897487)
(7.61534e-07 2.00231e-06 7.1226e-07)
(3.17348e-06 8.9937e-06 3.81424e-06)
(3.63528e-07 1.44193e-06 6.2439e-07)
(3.78519e-05 8.02285e-05 3.72695e-05)
(1.15334e-05 3.29036e-05 1.45699e-05)
(1.7033e-05 4.81284e-05 2.94192e-05)
(4.731e-06 1.02409e-05 2.35685e-06)
(0.000909916 0.00153527 0.000315012)
(6.55931e-07 1.39914e-06 1.81888e-07)
(8.60778e-07 2.0379e-06 5.24935e-07)
(3.12288e-05 4.764e-05 8.99149e-06)
(4.62273e-05 8.20565e-05 2.62483e-05)
(2.03024e-07 7.47867e-07 1.07078e-07)
(2.03665e-06 3.52859e-06 7.25892e-07)
(1.65182e-06 3.40083e-06 1.09435e-06)
(9.30018e-08 2.25631e-07 4.25674e-08)
(2.9706e-08 9.19901e-08 1.12131e-08)
(2.46869e-06 4.23815e-06 1.02515e-06)
(1.46462e-06 3.01801e-06 5.73133e-07)
(9.49721e-08 2.01509e-07 2.58703e-08)
(2.11612e-06 5.55352e-06 1.96267e-06)
(9.71335e-08 3.03554e-07 8.68447e-08)
(1.85119e-06 4.62073e-06 1.57892e-06)
(3.14922e-08 1.36126e-07 2.93086e-08)
(3.03113e-06 6.77149e-06 2.60557e-06)
(6.06363e-08 2.57392e-07 8.08687e-08)
(1.82397e-06 5.01173e-06 1.62363e-06)
(5.55484e-07 7.30527e-07 3.41435e-07)
(3.35825e-09 9.19876e-09 3.47972e-09)
(5.22195e-08 9.81464e-08 3.43022e-08)
(5.91056e-09 1.25261e-08 3.00313e-09)
(1.4701e-07 2.71085e-07 1.37546e-07)
(2.01679e-08 3.38646e-08 1.47365e-08)
(3.1893e-07 4.27913e-07 1.46971e-07)
(7.89237e-08 1.3737e-07 2.24963e-08)
(2.30316e-07 2.41357e-07 7.4456e-08)
(1.16032e-09 3.1113e-09 1.03442e-09)
(3.17263e-09 6.00932e-09 7.32266e-10)
(1.74753e-07 2.0806e-07 3.9687e-08)
(1.11225e-09 3.39086e-09 3.56325e-10)
(5.20577e-09 8.85683e-09 3.72293e-09)
(3.0312e-10 5.01283e-10 2.05845e-10)
(5.68581e-09 8.65871e-09 3.03996e-09)
(5.14556e-11 1.63136e-10 3.34286e-11)
(1.08898e-08 1.28104e-08 6.14427e-09)
(9.34056e-11 2.65803e-10 1.1378e-10)
(4.26057e-09 7.49118e-09 2.4791e-09)
(0.000113621 0.000330211 6.15658e-05)
(3.14567e-07 7.48284e-07 2.13044e-07)
(5.69324e-06 1.65743e-05 4.92961e-06)
(2.26781e-05 0.000118686 5.28794e-05)
(7.50286e-08 2.86211e-07 1.49941e-07)
(2.56138e-06 9.78319e-06 4.26197e-06)
(1.83128e-08 6.13359e-08 1.65525e-08)
(9.64688e-09 5.03342e-08 1.52798e-08)
(1.95567e-07 5.79774e-07 2.41192e-07)
(3.23155e-09 8.91301e-09 1.35395e-09)