/*--------------------------------*- C++ -*----------------------------------*\
  =========                 |
  \\      /  F ield         | OpenFOAM: The Open Source CFD Toolbox
   \\    /   O peration     | Website:  https://openfoam.org
    \\  /    A nd           | Version:  9
     \\/     M anipulation  |
\*---------------------------------------------------------------------------*/
FoamFile
{
    format      ascii;
    class       surfaceScalarField;
    location    "0.00225";
    object      phi;
}
// * * * * * * * * * * * * * * * * * * * * * * * * * * * * * * * * * * * * * //

dimensions      [0 3 -1 0 0 0 0];

internalField   nonuniform List<scalar> 
56415
(
0.456796
-1.45521
-0.341783
1.63562
1.80686
-0.144669
-2.04967
3.42031
-3.03691
2.47388
0.251032
0.749672
-0.0466184
2.13204
-0.457232
-2.09404
-0.951143
-0.655121
1.14421
1.51473
-1.17152
0.945052
-0.424772
-0.847228
0.507084
0.909503
1.23664
-0.486633
-0.584476
-2.04437
0.672022
1.17384
-0.723585
2.03186
-1.06231
-0.550379
2.26903
-2.10818
0.451336
0.351402
-2.57056
0.0341028
0.442391
2.74426
-0.322431
-1.26673
-1.90305
1.75016
0.706076
-0.614229
2.22891
-1.24504
1.57975
-0.768521
1.58452
0.894316
-3.10537
-0.333265
-0.226219
3.61269
0.234145
0.536305
-3.01592
0.0908827
3.16342
-0.0073214
0.462764
1.09764
2.72647
-0.573321
-0.458475
-2.64718
0.134945
0.0507455
-0.217229
-3.54981
3.98974
-0.288834
0.535017
-0.364614
0.408521
-2.58856
2.85704
-0.26771
0.384736
0.700416
2.90803
-0.891586
-2.736
0.389925
0.867934
2.34086
-0.487352
-2.32852
0.0910637
-0.077121
1.52288
0.668516
0.00695272
-1.31827
-0.825873
-1.96099
0.735326
2.2786
-0.633805
-1.16101
-0.30074
1.05611
1.63729
0.341491
-0.642632
0.797217
-0.676797
-2.10897
0.0129271
2.41236
0.268213
-0.130131
-0.0466777
1.17048
0.513875
-0.900332
-0.380146
-0.940569
0.856706
1.35816
-0.419015
1.05035
0.959199
-0.881656
-0.677213
-1.72927
2.14899
2.28787
-2.07295
-0.306049
0.890909
0.325224
-0.415631
-2.38112
-1.97706
0.693965
2.38883
-0.575269
2.37001
2.32171
-0.344446
0.949749
0.375737
-0.486743
0.394255
-1.77901
-0.350117
0.770461
2.04229
-0.283291
-2.12618
-0.516126
1.07569
-0.606729
2.09242
0.922517
-0.841155
-1.69414
1.47286
2.1236
1.00256
-0.898272
-1.98581
-2.13497
2.16469
2.41615
-0.444472
2.72677
-1.27231
-2.5819
0.384485
-0.936629
2.4351
-0.576332
-2.23897
2.81614
-1.16077
-0.443968
-2.67583
-0.78468
-0.454719
2.63349
0.375425
-0.395868
-0.99546
2.96786
0.351875
0.690066
-0.898391
-0.387356
3.04419
-0.469086
2.79581
0.568555
-0.0918049
2.93309
-0.712101
-2.72308
-0.19994
-3.68004
0.383274
4.09145
-0.272348
0.378301
-2.49428
0.724635
2.80387
0.831425
-0.465212
-0.284052
3.21287
-2.8221
-0.397316
0.740783
-0.459542
0.525603
1.90994
-1.65838
1.37227
-1.00815
-3.94951
-0.110479
4.30586
-0.155935
1.3714
-1.14621
-2.54694
0.243134
2.90426
1.18202
2.85044
-0.640293
-2.73433
0.423406
0.414551
2.97815
-0.407693
-2.817
2.97629
-2.7836
0.370959
0.954113
-0.364349
-0.533156
2.93188
0.363605
-0.385278
3.14087
0.371067
-0.871538
-0.349629
3.1191
-0.485948
-0.309889
2.78581
0.821618
2.87637
-1.03193
-2.73201
0.523704
2.72749
-0.385582
-2.44171
2.58775
-2.34885
-0.321715
0.591513
-0.783664
3.11211
-0.485977
0.401693
-0.253062
3.11693
-0.620471
-0.19873
3.16134
2.96163
-0.062537
1.77493
0.713815
-1.5619
0.150196
0.412959
2.08938
-0.343241
-1.9757
2.29566
-2.1502
0.418774
0.0686882
-0.129096
2.43139
0.191811
0.255983
0.627694
1.9877
-0.161463
-0.0636157
0.562655
0.358585
1.76955
-0.0181691
2.22424
-0.199736
1.20082
0.266078
-0.87386
1.25799
1.45323
-1.1295
-0.138829
1.28536
1.76662
-0.882163
-0.26347
-1.12391
0.550798
1.60679
1.63786
-0.481746
0.488968
1.74278
-0.406818
1.02905
0.542872
1.53415
1.49244
0.589384
1.44459
-0.0341704
0.413498
1.14002
0.450356
-0.834544
-2.04936
0.0216818
0.931062
2.38547
1.00007
-0.653882
-1.77366
1.05933
2.19229
0.98388
-0.774126
-0.676067
1.33762
-0.975744
0.827425
-0.609947
-0.0132828
1.56076
-1.30832
1.40868
-1.23867
-2.20213
0.117825
2.56089
0.961675
1.50585
-1.33357
-2.08017
-0.683316
2.45089
-0.522279
-0.347355
0.304732
-3.27698
-0.199742
-0.476516
3.64299
0.217969
-0.319746
-0.727999
0.30446
3.34619
0.458685
-0.64789
-0.288162
-0.293733
-3.24876
-0.170945
3.73523
-0.382939
-0.129747
3.71205
-0.333033
-0.312638
0.952317
0.333926
-0.485879
-2.19462
1.084
2.39037
-0.626098
-0.277339
1.16475
-0.711865
-0.282215
2.0757
0.542138
1.55819
-0.485026
0.527518
2.37816
1.49813
-0.473508
1.95784
0.571215
1.37912
0.553916
2.27806
1.34297
0.55699
-2.06423
-1.78628
-0.421305
2.30704
2.10963
0.30381
-0.22062
0.794381
1.01512
-0.564504
0.424404
-1.46516
-0.314321
1.27097
-1.17895
1.73042
0.103665
-1.39186
1.22012
-1.13523
1.65538
0.000962859
-0.0727445
0.744544
0.986494
0.142959
-0.500737
0.117683
-1.39621
1.57321
1.74814
-0.00405595
0.151924
-1.73127
-1.99649
2.23555
2.04778
-0.00918614
0.988524
2.55743
-0.527305
-2.52674
0.347626
2.84295
-0.231193
-2.7544
2.93766
-2.82194
-0.260675
-0.772527
3.06313
0.670337
0.197082
-0.425757
-0.0278186
2.41605
-0.124434
2.97709
-0.45137
2.60918
-1.6415
0.472069
0.851303
1.93236
-0.382868
-1.74385
1.39639
1.03123
2.17768
-2.05989
-2.05913
1.12193
2.09913
2.48188
-0.922836
-1.88148
1.6198
-1.2433
1.93324
1.08585
-0.748711
1.32057
1.30755
-0.936509
0.929077
-1.32569
-2.09181
1.27742
1.51055
2.48309
-1.42083
-2.3897
-1.93173
1.97169
1.60058
2.77047
-0.0633838
1.30586
0.59395
-1.07592
0.201355
1.66392
-0.0143898
-1.53384
1.86633
-1.76252
0.466739
-0.045537
0.492319
1.59533
0.0294604
-0.132726
0.300937
1.85924
0.427293
0.575098
1.49748
2.02241
-0.164082
2.87026
-2.52647
-0.433548
3.00963
0.128225
-2.63084
2.946
-0.55922
0.146334
-2.70581
-0.380754
-0.0300377
3.27003
-0.000106332
-0.494519
3.19894
0.311686
-0.420467
0.280457
3.24444
0.252649
3.40216
-3.31248
-0.114869
3.53899
0.16261
0.723914
-0.170957
-0.429042
0.215416
-0.286171
0.301286
3.28487
-0.657515
-0.21656
0.491344
-2.87806
-0.330297
0.214007
3.05184
-0.0169855
3.52181
-0.403435
-0.070431
-0.197209
3.41321
0.386206
-0.509131
-0.253192
-3.40029
3.85879
-3.47371
-0.00402981
-0.280563
0.191259
3.84858
-0.323342
0.238966
-0.0783162
-0.416336
-0.0360963
-0.326072
3.77959
-1.05782
0.897464
1.50225
-0.470799
-0.326007
0.938782
0.389322
-0.56029
1.01511
-0.665048
0.591758
0.92738
1.39355
-0.829676
-0.617454
1.24114
0.661195
1.29633
0.645868
1.34661
1.36608
1.3237
-1.47301
0.583006
1.65217
1.8246
-2.21073
-1.00398
-1.89893
1.17038
2.47503
2.25895
-2.08671
-1.80307
0.700577
2.3325
2.1307
0.396193
0.813084
1.01746
-0.586371
-1.48155
0.545554
1.28336
-1.18301
1.75098
-0.57461
0.946317
1.13309
-0.740495
0.670277
-0.794173
-1.63892
1.38716
-1.26661
1.91466
0.928509
-0.151646
0.254767
-1.58417
2.31549
-2.01115
1.8575
-0.224838
1.22008
3.28141
-2.90382
-0.37176
0.48167
1.02646
1.97917
-1.68737
-4.07779
-2.51112
0.112809
2.83562
4.35869
-4.00022
-0.07046
1.75794
4.33014
0.381315
-2.96512
-0.264268
-2.10012
2.36221
3.28607
-0.0658612
-2.63498
0.15654
1.60201
2.98587
-0.0602288
2.73257
-2.63236
0.63621
1.96676
-0.434623
0.193327
-1.87564
2.62967
0.15841
-2.49767
0.583251
0.189124
-0.396821
2.25672
0.0668235
2.8942
-0.529675
0.31749
2.82124
-0.379633
0.430706
2.17286
0.0624389
0.179047
-0.0764785
-2.21795
0.693998
0.41769
2.45866
-0.57628
0.531388
0.517859
-0.419085
2.04345
-0.0473212
0.461544
0.630645
0.0217104
-2.3903
0.561159
2.60573
0.381237
0.787386
2.33453
0.304531
-0.362881
0.7947
0.406906
-0.322517
-1.92922
0.77637
2.16545
-0.286545
0.816143
-0.339784
-0.594015
1.68201
0.635698
1.25256
1.82207
1.27054
0.577601
2.15931
1.25195
2.03451
0.620451
1.24931
-0.100241
3.23946
-0.583048
0.44888
-2.72813
-0.310987
2.9446
-3.181
-0.125708
0.30625
3.45117
0.520044
-0.0777255
-0.355026
0.255805
0.0626637
3.49309
-0.37863
-2.03101
0.745696
2.32907
-0.636247
-0.969641
0.68251
1.43643
-0.601665
0.659566
-0.568793
1.87945
0.888454
0.722867
-0.772182
-1.82137
1.19422
0.813386
2.1875
0.827763
2.22872
1.33698
0.730728
-0.403453
1.06108
0.461105
-0.589943
2.26689
-2.41194
1.14771
-0.692457
2.36617
-0.337453
1.10227
-0.655254
-0.304026
-2.4474
0.55959
1.57282
2.4292
-0.477056
0.538716
1.50966
-0.476057
2.35619
0.579751
1.38932
0.629966
1.51099
2.33652
-0.343354
3.1275
-2.72744
-0.452622
3.00145
-0.410954
0.81118
-2.67426
2.96487
-0.46418
-2.68397
0.612192
0.251024
-0.368691
3.29413
-0.211877
-0.586364
3.58228
0.959986
-0.314697
3.35323
0.970062
3.50859
-3.53207
0.427079
-0.240806
3.91367
-0.263832
0.147707
0.196407
-0.36139
3.59566
0.22259
-0.306022
0.481056
-0.171602
-3.78934
0.675638
4.18594
-0.207161
0.708343
3.96597
0.442842
0.19308
1.53394
-1.3555
0.0180659
1.48297
0.402258
-1.27579
1.19094
0.400513
0.567556
-0.875642
0.0127019
0.47326
1.76406
0.685776
0.378875
1.48587
0.00012875
0.647874
1.73944
0.351354
0.802882
1.53323
0.484537
0.969916
-0.584973
-0.770561
1.02377
1.13126
0.621924
-0.622709
1.07174
0.609374
-0.693211
-0.75318
0.736321
1.13441
1.34225
0.732009
1.38215
0.699985
0.846006
1.46849
1.04933
0.849057
1.43783
1.91949
0.662943
-0.588668
-1.87321
0.685023
2.18848
-0.590901
2.21824
0.640878
2.31856
-0.565868
-1.77093
1.66342
0.775805
2.14396
1.81435
0.706643
1.75865
0.689009
2.22321
0.756414
2.10075
2.14545
0.71914
1.91517
-0.0272853
0.408041
0.0124819
-2.22857
2.48642
0.00980734
-0.4404
0.577759
-1.85059
-0.867565
0.328588
0.943697
2.2088
0.361855
0.798894
0.349104
2.24863
0.569734
1.90046
-0.414405
-1.71568
-0.431392
2.51174
0.742542
-2.2716
2.54714
-2.36888
0.608279
-0.489696
2.78552
0.450456
-0.691165
2.21017
-0.33392
0.957876
2.80027
0.926306
2.16251
-0.360421
0.939392
0.716138
-0.473835
-0.000778324
0.0806023
0.887541
1.15183
-0.712689
0.00164218
0.0873045
1.19098
1.04458
-0.000374043
1.23501
0.173062
1.07275
0.915937
0.161807
1.19715
-0.737939
-0.0960932
0.191312
1.44175
1.20995
1.3993
1.18137
0.000389265
0.780907
1.78381
0.808437
-0.720458
-1.73896
1.11867
2.14221
-1.76204
-0.896935
0.971648
2.16739
-0.737576
-0.774231
1.13143
0.832643
0.841256
2.17167
1.23119
-0.409929
0.877524
0.463424
-0.405629
2.22212
0.867172
-0.391056
1.03124
-0.554414
2.17161
0.617794
2.25978
1.32739
-2.16442
-0.693825
0.764924
1.53813
2.15931
0.667533
1.3421
1.49524
2.24196
-3.12057
0.525027
3.42126
0.476947
0.461913
-0.338913
0.278044
3.08463
-0.440369
0.534721
0.34643
-2.45843
0.928992
-0.249271
2.79566
0.775625
3.40858
0.687557
-0.321116
0.766572
1.00845
-0.530875
-0.266461
1.25993
0.363037
1.10929
-0.251252
0.954845
0.343614
1.22584
-0.782868
1.25004
1.08717
0.933444
1.2147
-0.760576
0.293676
1.2221
1.45421
0.397181
1.24084
1.4675
3.65321
0.80722
0.194156
-0.265339
-0.143106
-3.87882
4.25588
-0.164448
-0.778715
1.14808
-1.02006
-3.7041
-0.121679
1.34967
4.0432
-0.168814
4.00997
-0.221555
1.15445
0.485622
0.860049
-0.412014
1.5158
0.981023
0.599632
-0.564986
1.5538
0.708144
1.30433
0.985534
1.83459
0.589253
-0.549782
0.694937
1.91969
1.31408
1.43886
0.818687
1.40484
1.81165
0.807732
1.42121
1.19231
3.04565
-0.360169
-2.69087
-0.194364
3.31815
1.62886
-2.94627
3.10473
-0.299485
1.58158
-2.73795
-0.183554
1.35638
3.6429
1.34352
-0.267884
3.40397
0.161316
-0.210961
1.7196
3.44912
1.77077
3.68843
-1.57683
-0.721192
2.07188
-1.76719
0.972917
1.82347
-1.51542
0.152401
2.0965
-1.80814
1.75026
-0.0160003
1.0554
1.66725
-1.3927
-2.71949
-2.00482
0.618488
2.25086
3.05691
-2.31821
0.20331
1.58812
2.66612
-2.73729
-1.05134
-2.1529
1.27083
2.38779
3.09215
-2.21718
-0.728994
1.70541
0.992052
2.58506
-1.69669
1.56556
2.10756
-0.743823
1.57144
0.797879
1.69375
0.727811
1.69764
2.10187
-1.70509
-0.822082
1.89723
0.903526
2.14087
1.97937
0.781714
1.99979
2.11882
1.03299
0.84075
0.485824
-0.618553
0.470832
1.26853
1.12666
0.445705
0.97286
1.23574
-0.79793
1.00214
0.546713
1.26076
-0.826245
1.28741
0.577383
1.15275
0.511311
1.25886
1.48209
0.625771
1.28695
1.50815
-1.89046
0.680784
-0.577341
2.25336
-2.4345
0.64551
2.42987
-0.543753
0.63699
-0.553419
1.8048
2.35222
0.699048
-2.30557
-1.93962
0.799236
2.31737
2.35389
0.764424
2.20285
0.732879
2.35045
3.08853
0.824593
-0.406153
0.304449
-2.48009
-0.213041
2.83546
0.35933
-0.925964
1.17135
-0.261358
-1.0502
-3.12647
1.33993
3.47317
3.43088
1.13211
-0.299099
0.00152324
1.49587
-1.26796
-0.7273
1.39695
0.344866
0.899068
-1.09695
1.28261
0.36721
-0.973857
-0.837954
-0.00189197
1.04068
1.86106
-0.00635125
1.77709
0.937686
0.337183
1.6136
0.331767
1.10078
1.71853
1.07619
2.53198
-2.2428
0.43079
2.0807
1.30853
-0.326839
-1.77399
2.59333
1.42024
-2.27585
0.402173
1.22469
2.29767
-0.296911
1.2563
2.84896
-0.329386
1.58604
2.91583
1.48853
2.4006
-0.229774
0.540618
0.962238
-0.507904
-1.97788
1.30719
0.784637
-0.882699
1.98736
1.09305
0.650319
-0.666877
-2.08048
0.853654
1.62235
2.09241
0.742308
1.41421
2.00673
0.849448
1.52218
0.965056
1.73388
2.03773
0.00156522
0.720713
-1.84833
1.03618
0.32879
2.2134
0.886758
0.336886
-2.05338
0.0363374
1.07903
2.40683
0.00190648
0.879365
1.88978
0.328665
0.991241
0.337497
1.15279
2.25106
-0.713305
1.16965
1.04555
-0.79056
-0.766558
1.35802
0.93751
-1.01793
1.20728
-0.845395
0.981879
0.664699
1.57977
-0.646066
-0.993799
0.944398
1.15903
1.7097
1.13615
1.70517
0.985488
1.56396
-1.96708
3.1921
-0.172459
-2.84517
2.33996
-0.176104
3.36863
-2.98785
3.14919
-0.244073
-2.79198
2.09031
0.127735
-0.145316
3.48484
-0.0728625
-2.19301
3.76953
2.60454
-0.0632641
3.51975
2.45404
3.73269
-1.79779
1.06436
2.19715
-0.688409
0.919352
1.05234
0.925405
1.86543
0.656303
1.03032
-0.646958
-1.85493
0.96606
1.18483
2.25991
1.17729
2.24724
0.991397
1.03501
1.07235
0.8855
-0.670378
-0.68318
1.38084
0.794744
-0.647878
1.10239
1.37724
-0.932402
0.756571
1.04503
1.30984
-0.870678
1.32602
1.19258
0.741355
1.32614
1.55356
1.37572
1.61359
0.864357
0.751038
1.76907
2.25933
-2.22003
-1.94124
2.23932
2.36978
-2.16653
-0.812218
0.8963
2.18246
-1.79166
-0.839521
0.925192
2.2257
0.812539
2.19296
2.26321
-1.43593
1.24809
0.205718
-1.16074
1.69912
0.0904112
1.05761
-0.934897
0.0022592
1.08638
0.182035
-0.960668
1.66947
-0.106397
0.210506
1.34443
0.119069
-1.62863
1.44585
1.8763
-0.00238669
0.231957
1.47483
1.91631
1.31521
-0.000408558
1.40675
1.13291
-0.743691
-0.743207
1.32343
1.66641
-0.947409
0.925055
1.14731
1.74572
-0.74438
-0.968301
1.27899
1.6964
1.14705
1.34591
1.53744
0.957542
1.71625
1.55616
1.63753
1.71311
1.13797
-0.136951
1.54261
-3.74409
1.69262
-0.0616903
4.06495
1.51138
-0.169127
3.77485
0.102512
-0.106588
1.87148
-0.0172009
-4.03477
2.14642
4.34107
0.0071753
2.04595
4.07903
1.95201
-0.304987
1.46232
0.411164
-1.43589
1.62068
-0.227249
1.78888
1.44911
-0.200315
1.55022
0.331
-0.218288
1.65438
-0.36673
-1.5673
0.488536
1.84071
1.90261
-0.244926
1.82306
1.88584
0.444101
1.67034
-0.281301
1.11633
0.38256
-0.99064
-1.45141
1.25777
-1.17113
1.71407
1.09955
-0.976615
1.68161
0.320909
1.35498
-0.349874
-1.69789
0.468533
1.5004
1.94851
1.48499
1.92901
0.431717
1.37219
-1.42481
1.61041
1.77779
0.10227
1.39721
-0.00230998
1.43794
-0.111536
1.54004
1.6436
-1.51155
0.127459
1.77575
1.84586
-0.00522383
1.6047
-0.00252095
1.81152
1.87458
1.46343
0.884295
-1.76135
1.01351
1.80451
2.19737
0.868091
1.86783
-1.83319
1.33621
1.16585
2.25839
1.37309
1.00689
1.85299
1.76627
0.99065
1.72779
1.15316
2.28416
-1.75914
2.73756
-2.41579
2.08666
0.356824
2.19462
-0.25241
-1.8869
2.66138
-2.3399
1.91004
-0.233313
2.98589
0.113957
-1.75019
-0.0084206
2.63485
2.01836
3.0666
2.22888
-0.13379
2.51242
0.29119
1.41794
-0.198373
-3.18213
1.63802
3.52566
1.44492
3.24691
-0.199662
1.75847
0.0467151
-2.73392
1.84351
0.0536813
3.08088
1.94078
3.58422
1.66501
-0.10481
1.09028
1.53024
0.333413
-1.23555
0.00841842
1.80149
1.28544
-1.51423
0.0230013
1.24935
1.98011
1.68016
0.339462
1.29601
-1.38787
1.28527
0.340801
1.84718
0.074443
1.4611
2.1149
0.371727
1.47877
1.99159
-2.10719
0.0672386
2.4695
-1.05263
0.0389902
1.23606
0.0129519
1.95964
1.12654
0.331637
-1.29537
-2.05867
0.394214
1.45219
2.41245
0.357523
2.31704
0.34403
1.28806
0.529449
1.47548
-1.49882
1.67674
0.711445
1.84872
1.49789
0.648608
-1.58544
0.619949
1.86034
1.92048
0.567744
1.68772
1.61156
0.693
1.71579
0.753756
1.88888
1.94484
0.494646
1.1312
-0.999368
-1.51368
1.30752
0.668317
-1.19904
1.78737
1.15803
0.606698
-1.0212
-1.71769
0.597924
1.51668
1.97128
0.553141
1.38928
1.74962
0.676239
1.41658
0.730344
1.5425
2.00672
-1.92404
1.45909
-1.06017
1.95534
-0.792053
1.41755
-1.04071
0.964364
1.24859
-0.849333
0.991269
1.94458
1.65476
-1.89453
-1.10267
2.00376
1.95964
1.26787
1.80547
1.16722
1.86319
1.99372
1.121
1.51425
-1.19528
-0.654202
1.69373
1.35143
-1.37105
0.930657
-0.646748
1.34273
1.86328
0.92766
1.67897
1.32402
-1.37228
1.31614
1.8455
0.667892
1.51952
2.00188
1.5479
2.02626
0.934892
3.80033
2.23361
0.0485145
-0.0322617
0.0225345
-2.35692
2.73314
0.0475614
-4.05909
4.34912
-2.40044
-3.82308
0.20003
2.72833
4.0736
0.0878517
4.08745
0.0554923
2.59131
1.95087
1.15901
0.642243
-0.656667
-1.95992
0.95232
2.34451
-0.646038
-1.17694
0.934429
1.34003
-1.31817
-2.05879
1.4877
2.42188
2.31983
1.31697
0.95087
-2.08259
0.996744
2.11289
-1.85532
1.03598
2.28721
0.90012
1.94888
2.00794
1.0194
-1.99562
-2.15487
1.2607
2.04313
2.56328
1.17618
2.37535
1.11895
2.05318
-0.842147
1.7559
0.979247
1.91889
1.53503
1.53563
1.71219
1.88077
1.64661
0.820693
1.7576
-0.891091
-1.6879
1.97399
1.03631
2.01706
1.92731
1.97799
1.80957
0.955768
-1.56816
1.34373
-1.22863
1.84446
-0.720771
1.24981
-1.1089
0.84318
1.19932
-1.05935
0.802543
1.79885
1.45542
-1.86103
-0.867107
1.61784
2.11837
1.01249
1.50055
0.937319
1.57756
2.05754
0.0654708
1.94768
-1.65632
-1.50854
2.00912
0.437644
-1.72287
1.73201
1.84105
0.372734
-1.55108
-1.67817
0.276258
2.39792
1.90912
0.160184
2.25516
1.68174
0.436915
2.14818
0.536053
2.3113
1.90286
1.86797
-0.122921
1.65084
0.238404
-1.75937
-2.03097
0.285635
2.26896
2.07571
0.135411
-1.83036
2.07068
-0.00615644
-1.62218
0.138999
1.94242
-0.00700185
0.259266
2.10739
-0.00394476
0.264605
1.97091
-1.95192
1.29464
2.36176
-1.1606
1.26206
1.33805
1.30484
1.97286
1.14792
1.68199
-1.31912
-2.11843
1.64113
1.50915
2.52659
1.67232
2.39505
1.62354
1.33258
3.31879
2.07199
-0.0862687
-0.053614
-1.92052
0.164181
2.19102
-2.24315
-3.3933
2.53434
3.68253
-0.0896937
-2.84533
0.198687
3.18541
3.64172
2.38357
0.0166765
0.0898408
1.42679
-2.18166
1.61991
0.460252
2.52954
1.46224
0.376758
-2.44276
0.320249
1.78382
2.78432
0.176603
1.62529
2.31967
1.64659
0.443546
1.80471
0.560829
2.66509
1.87958
1.66106
0.358644
-0.393497
-1.67779
0.522197
2.00151
-0.386772
-1.89822
0.514193
2.1415
-1.77049
-2.04434
2.28481
2.09019
2.12058
1.98341
0.478686
2.06694
1.17298
1.94687
-1.94817
-2.2658
1.99928
2.65974
-1.9053
-1.26666
1.96778
1.44071
-1.34431
-2.20721
1.53353
2.61579
2.48613
1.35819
2.00473
-1.69501
0.659019
2.02027
-1.91904
0.650524
2.16411
0.608044
1.72015
1.95106
0.739893
-2.11855
-1.82742
0.848551
2.36838
2.16103
0.798734
2.04648
0.790334
2.19771
-0.675025
1.87841
-1.56892
0.938447
-1.5454
2.03429
-1.74068
1.77953
1.85409
-1.5536
1.73544
0.714398
2.17003
-0.791998
-1.77694
2.39645
1.02951
2.02425
2.34439
1.96367
2.20578
0.968134
-1.83863
0.431616
2.07616
-2.57625
0.458907
2.91721
0.292884
2.47234
1.84802
0.543383
-2.01519
-2.63517
0.833938
2.25277
2.98391
0.688316
2.81903
0.669852
2.07573
-0.668878
1.52674
0.941479
-2.19089
1.67504
2.54895
1.50326
2.33997
0.71562
1.70406
-0.805719
-2.37563
1.92503
1.04932
2.74398
1.87169
2.69334
1.74039
0.973122
-0.315517
-0.186772
2.0595
0.239639
0.786914
-2.31724
-0.158215
-0.477794
0.717184
0.219374
-1.23277
-1.18331
-0.277627
0.379114
1.47245
-0.317882
-0.0970821
2.15737
0.141815
0.799283
-2.38886
0.0883479
-1.20972
-1.09522
1.38494
0.00271582
-0.0567335
-0.407676
0.683648
0.106122
-1.20592
-0.00790177
-0.329226
0.534928
-0.0498691
0.344451
1.06172
-0.581927
-0.484183
-1.58498
-0.674711
-0.068782
-1.81765
-0.0795716
0.00489859
1.6389
-0.198465
-2.04614
-0.0696217
-0.614976
1.15556
-0.215634
-1.76502
1.58985
-0.0631292
-0.153764
-1.9973
-0.261735
-0.072052
0.541807
-0.0448545
0.028573
0.0382565
0.941133
-0.0210599
0.946209
-0.0466071
-0.56645
1.10853
-1.69126
0.129731
-0.183016
0.592742
-0.172694
0.117389
1.47273
-0.145352
-0.184172
-1.87038
1.53539
-0.122192
-1.948
-0.200175
0.565603
0.0171971
0.091736
0.945072
0.111362
0.949021
0.015321
-0.0613131
1.92523
0.0578701
-2.20373
-0.280229
2.17255
0.761464
-2.40391
-0.0439741
1.95665
-2.23783
-0.0506024
0.410124
-0.0762938
0.102833
1.32322
0.0954618
-0.36007
1.63337
0.799818
-0.0311249
0.157183
1.62912
0.845553
1.33233
-0.0401221
-0.384663
0.633643
-0.00460855
0.0337075
0.203203
-0.0119374
0.261106
0.0438517
-0.0543133
0.705509
0.0913245
0.474616
-0.686557
0.0660482
0.844733
-0.000973114
0.416867
-0.0131152
0.129959
0.894751
-0.0578136
1.81067
0.0569154
-2.11478
-0.339364
2.1253
0.81318
-2.36471
1.87755
-2.17128
0.452056
0.132085
1.31234
-0.2259
-0.470439
1.57639
0.300723
0.887498
1.61622
0.874275
1.28999
0.169772
-0.441459
0.715315
-0.052789
0.315192
0.0720167
0.30834
0.72863
0.12531
0.520979
-0.199785
-0.750392
0.93249
0.275777
0.92274
0.538545
0.169236
0.75501
-0.0696539
0.98496
0.127666
-1.22823
-1.14406
0.178928
1.43313
0.0825113
-0.701755
1.05351
-0.00740312
-0.966911
0.0761667
0.00183614
0.160562
1.1034
-0.0117748
0.153661
0.793871
0.998799
0.187259
-0.244933
-0.816742
0.335316
1.15562
-0.238233
-1.00722
0.32719
-1.23538
-1.16819
1.45404
1.13304
0.254633
-0.133882
0.233237
-2.19407
1.75042
0.968312
-0.714146
-1.87832
1.77766
-1.85612
-2.14119
1.92333
1.91739
-0.12755
-3.37096
2.19221
-2.98149
0.0860751
-3.52342
3.3145
0.33014
-2.30206
-0.212432
-2.58671
2.59073
-0.153481
-2.69888
2.78118
-2.36507
3.09991
0.265965
-1.84762
1.9876
-1.70429
-0.16141
2.14085
-0.234148
2.60302
1.89233
-2.20854
-0.41694
0.504903
1.58675
1.25791
-1.29591
1.76215
2.41769
-0.395351
-2.04328
-0.198307
1.94858
2.99009
-0.202558
2.64643
2.29435
-2.24958
2.47541
-0.34295
2.15811
-2.08799
1.85618
-0.325442
2.79424
0.182495
-0.265327
2.84693
2.24378
3.03912
2.36359
-1.94648
0.159682
1.67855
-2.16418
-2.39538
0.577016
2.4416
1.24715
-2.28379
-1.03065
-2.46277
2.55347
-1.62078
-1.68365
-0.726487
1.88611
0.97781
1.96733
-1.37872
-1.37837
1.62977
-0.0584537
1.62911
0.376182
-0.0411876
1.38608
1.17544
-1.13022
0.962782
-0.677126
1.27094
1.16362
-0.980504
1.50047
2.01785
-1.69984
0.44654
1.41974
-0.351401
1.88691
0.453648
1.7131
-0.363676
1.55627
-1.41411
2.09037
1.84534
-1.75627
1.61828
2.34116
-0.373765
2.41645
1.95851
-0.266827
2.01073
1.70447
-1.89863
1.24182
1.80191
-2.17592
1.98869
-1.93095
2.45262
-2.51154
-2.33391
-2.51793
1.48484
2.61907
-1.60756
-1.60727
1.89778
-1.82108
1.89771
1.88681
-1.65885
-1.724
-1.23753
1.94581
1.53804
2.03112
1.25631
1.25573
1.15526
-0.954734
-1.40211
-1.33889
-1.81689
1.69449
1.87925
-3.15105
2.08971
-0.144874
-0.176016
2.04865
1.96626
-0.243623
3.19343
0.144558
-0.172235
2.33933
-0.0727757
-3.42227
2.60405
-0.063026
2.45383
2.47289
-2.54084
2.61307
-0.186888
-2.24494
2.8993
-0.184152
2.70075
-2.29603
2.54232
-0.272858
-2.15957
2.61216
0.15342
-0.186793
2.90043
-0.0940614
-2.77986
3.17386
3.17303
-0.0893824
2.96447
2.96411
3.10162
1.13887
1.27966
0.333774
-1.02298
-0.00552006
1.34594
1.65551
-0.0132867
1.5337
-1.2732
1.42992
1.4527
0.338711
-1.19871
1.32636
0.338539
1.55037
0.0599971
1.80718
1.59204
0.375043
1.72207
1.55857
-2.66196
1.9099
0.356748
1.58418
-0.252411
1.75862
-0.254775
2.73759
2.08663
-2.31455
0.113991
2.01905
-0.00858889
1.85801
-0.151713
2.22927
-2.17986
2.28514
-1.95908
2.50303
0.37896
1.8473
-1.55649
-0.271191
2.18049
-1.84646
-0.265957
2.28514
2.50304
-1.98828
0.135778
2.28049
-0.0282194
2.28166
2.14
-0.161417
2.60815
2.60875
1.14879
1.26946
-0.996936
-0.664079
1.37554
0.939243
1.56875
-0.671595
1.48023
0.946896
-1.20461
1.41816
1.46074
-1.19701
1.39414
1.34866
1.55323
0.684051
1.74018
1.58981
0.946399
1.76681
1.62156
2.70019
3.2398
0.0885289
-0.0825936
0.00373342
-3.4732
-3.29665
-2.80845
0.157033
3.12678
-0.00684159
-2.88038
3.24793
0.0204338
3.0457
0.0329281
1.15894
1.26327
-0.961297
1.56974
1.22698
1.38471
1.57123
1.22966
1.4845
-1.19287
1.42562
1.49394
-1.19849
1.54335
1.43307
1.38904
1.54752
1.58309
1.21904
1.78724
1.64492
1.53229
1.80794
1.65949
-0.470072
1.81557
0.696938
0.840569
-1.78909
-0.518715
1.85693
0.271858
-0.0643382
-1.76838
-0.144613
-0.354521
0.5697
1.79407
0.742011
-0.395247
0.167431
1.89069
0.0633165
-0.0335231
-0.713907
-1.85344
-0.878171
1.88524
0.885331
-0.244709
-1.1278
-0.226612
0.584033
1.44412
0.433066
0.411498
1.57715
-0.086319
-1.33697
-0.141429
0.0829175
-1.70444
0.194415
1.64692
0.142777
1.37129
1.93956
-0.998724
-1.19626
-1.91954
1.30253
2.12727
-1.01773
-1.38539
-2.12189
1.95198
0.616546
-0.184303
-1.89625
0.367036
-0.510795
-1.9118
1.84705
0.930954
0.719354
1.95692
-0.0634531
0.271397
-1.8445
-0.9341
-0.893201
1.51163
0.788905
0.365343
0.193742
2.23348
-0.40865
-2.01743
0.338877
-2.2375
2.24883
-0.0379883
0.0026952
0.067629
2.16159
-0.93276
-2.14106
1.08415
-1.30625
-1.0063
2.09092
1.10376
2.18749
-0.835124
-2.10066
0.699311
-1.07574
-1.37109
2.0286
-0.834958
2.1794
-0.425612
0.707348
2.12107
-0.89913
-0.517824
-2.05019
-0.880124
2.11159
-0.559178
2.05052
-1.04469
-2.04359
1.34189
-1.02085
-1.15129
1.87433
-1.08772
1.9596
0.871344
1.90449
-0.738595
-0.594882
-1.78445
2.02095
-0.609735
-1.93334
-0.837526
2.01714
-0.641875
-1.21762
-1.00676
1.03978
-1.79507
-0.904248
-0.94161
1.47253
-1.04532
-1.24155
-2.0559
-0.527128
-0.347702
1.79675
0.441512
-0.762675
-0.410192
0.653178
1.9905
-0.779333
-0.513653
-0.52518
-0.404339
1.74042
2.25799
-0.0139291
-1.90599
0.00693079
-0.121326
-0.0168481
2.34122
-0.00100791
-0.402007
2.25716
0.329596
0.00875449
2.14293
-0.0118712
-1.79206
2.14552
-0.43498
-1.93187
-0.0660906
-0.417582
2.17015
-0.00622969
-1.80554
-0.916245
1.79432
0.824632
-0.543879
-0.445683
-1.61484
-0.958904
-1.76178
1.7219
-0.596427
-0.686869
-1.61355
-0.617302
1.73183
-0.662522
1.6948
-0.229111
-0.31625
-1.46189
1.74936
-0.260678
-0.311216
0.723299
0.4507
-0.320848
-0.300303
1.67455
1.71651
1.18175
-0.990404
0.860693
-0.705096
1.47228
0.862102
-1.91796
-0.401974
1.69829
-1.75518
1.4588
-1.03436
-0.568198
-1.85367
-0.0337111
0.0947691
2.00455
0.147606
-0.0290587
0.101063
-1.48333
0.392787
-0.291021
-1.62862
-2.00674
0.188974
2.123
0.144337
-1.64133
2.03638
-1.79959
2.06874
-0.0996265
-0.160266
0.211311
2.14412
0.157693
-2.1361
-0.128603
1.96819
-2.3422
-0.194259
2.23579
-0.129963
-0.15301
-0.046714
-2.21951
2.04127
0.125901
-0.343525
0.279906
-0.334727
0.526552
-0.159305
-0.131208
1.66798
1.6976
-0.774048
-0.508313
1.50375
-1.68706
-0.292395
-0.299619
1.54619
-0.512129
-0.537015
1.76707
-0.142489
-0.193615
0.0791814
0.0178209
1.68255
-1.71538
0.190588
1.90419
0.0292358
0.200962
-1.34373
-0.144423
-1.46827
-0.159941
1.58857
-1.2264
0.337432
1.65189
-1.33352
0.0310676
0.128573
1.78649
0.0215923
1.822
0.325603
1.65021
-0.342692
-1.46511
0.41186
-0.117171
1.65986
-0.15795
-0.371982
1.68591
0.0803075
1.51234
-1.22319
0.155882
1.6055
-1.33373
0.00869337
-0.091875
1.70632
-0.0234957
1.68098
0.223679
0.14278
0.14453
0.0604799
0.0360993
1.84625
-2.05389
-0.266612
0.343156
1.98666
-0.117124
0.18473
2.14837
0.093172
-0.0732791
2.05714
-2.04737
1.90028
0.28479
0.162309
1.81434
-1.97794
0.44188
1.93651
0.282891
1.84838
0.252267
0.127932
-0.470512
-1.92253
0.565789
1.90651
0.309277
1.80263
0.410643
-1.6905
-0.0497273
1.5961
0.29679
-0.0120275
-0.051666
-0.265172
0.0175344
1.75752
0.089506
-1.76004
-0.208305
0.528184
1.73737
0.411903
0.325312
0.236175
0.302112
1.7061
-1.34678
1.16711
0.273205
2.52474
-0.0724121
-1.45101
-0.9056
-0.606831
1.16894
-1.18224
0.151046
2.38904
0.109509
-2.55773
0.221136
2.60338
0.973359
-0.0184468
-1.18194
-2.10106
0.417082
2.10183
1.11397
-0.242257
-0.535457
-0.387283
-0.361135
-2.41858
0.759021
-0.442071
-0.275272
0.596919
-1.47666
0.544047
-0.481535
-0.914505
1.76292
0.719606
-0.50091
-0.272771
1.0401
1.33894
0.446169
-0.243843
-0.793298
0.335979
0.925834
1.05225
-0.440298
0.475694
0.599758
-0.109026
-0.250117
0.65488
-0.116309
-0.0854646
-0.95627
0.217199
-0.523743
-0.729594
-0.631636
1.04587
0.713037
-0.392411
0.00203084
-1.09506
0.621102
0.092986
0.112972
0.715741
0.157621
0.355023
-1.02601
-0.00180933
-0.0966579
0.111956
2.25757
-0.0492098
-1.13339
2.06224
0.275743
2.35945
-1.28461
0.500908
-1.12594
-0.119665
0.301758
2.24163
0.0973344
-1.27359
0.123875
1.03335
-1.21829
0.319676
2.422
0.0980897
2.11721
-0.139389
2.08818
-0.504236
0.322256
1.20159
1.84454
-0.522019
0.0726901
2.24693
0.396319
1.20832
-0.23567
-0.541541
0.417351
0.0260828
0.194118
2.48441
-1.14283
2.34686
0.259918
-0.527037
1.85278
-0.0258759
-0.573022
1.20081
0.77243
0.203941
0.955205
-0.334698
0.246369
0.827505
-0.530248
0.170694
-0.507565
0.724571
1.20916
-0.560923
0.780964
0.81244
-0.13964
0.695978
0.398609
-0.299015
1.01178
-0.253363
-0.869313
-0.265299
1.11794
-1.28771
-0.424386
-0.622935
-0.181226
-0.582948
-1.24609
-0.503065
0.716298
-0.277847
-0.525956
0.729076
-0.0314668
1.11446
0.0637174
-0.279734
-0.104117
-0.280034
-1.05232
1.89494
-0.71051
1.99336
-1.07529
0.915178
2.17827
-1.18689
0.544951
0.88915
-1.06414
2.28478
-0.729194
-0.367215
2.05436
0.685806
-0.85296
2.15867
0.786902
2.06555
-1.33487
1.07087
0.0509695
2.66926
-1.01758
1.63714
1.31767
-0.251542
-1.14474
0.332095
2.44889
0.952443
0.00291653
4.81083
-1.05042
0.434588
-1.14629
2.40919
1.21058
-0.445364
-2.31059
-0.90301
0.602539
-0.45562
-0.540224
-2.33558
1.06762
0.493151
-0.37237
-2.17363
-1.33151
-0.631952
0.517472
1.49682
-2.55979
-1.35828
-0.411491
0.330862
-0.267642
1.19264
0.514311
0.259515
0.783503
1.68383
0.504423
-0.871205
-1.03131
1.80769
1.31923
-0.0998774
-1.34877
-1.48153
0.079985
0.508455
-0.320051
-0.00498168
-1.06722
-0.0386606
0.656578
-1.98823
0.0623579
-0.624245
0.564127
-0.778164
-0.759688
1.37963
-0.166595
0.173153
1.19812
0.770127
-1.21978
0.15479
1.63922
0.63773
0.542073
0.760424
0.961467
0.991544
0.119141
-0.780498
0.663042
1.82195
0.599925
-1.00393
0.881083
1.02194
0.858126
-0.164271
0.92371
-1.01914
0.941365
0.589497
-0.870698
1.79426
-1.08599
2.2955
1.06183
0.211575
0.516144
2.24701
-0.490768
2.02833
0.346719
1.40546
-0.478211
2.34157
0.321546
-0.476937
1.52468
2.33662
0.30128
-1.28781
1.45495
-0.469274
2.47506
-0.532549
2.40357
-0.347378
3.76251
0.532077
-0.0884841
2.88918
-0.0783223
3.0821
-0.434273
-0.931696
-0.122557
2.85212
-0.24138
-0.369058
2.6447
0.146037
1.16484
-0.389352
2.68063