/*--------------------------------*- C++ -*----------------------------------*\
  =========                 |
  \\      /  F ield         | OpenFOAM: The Open Source CFD Toolbox
   \\    /   O peration     | Website:  https://openfoam.org
    \\  /    A nd           | Version:  9
     \\/     M anipulation  |
\*---------------------------------------------------------------------------*/
FoamFile
{
    format      ascii;
    class       volScalarField;
    location    "0.0027";
    object      p;
}
// * * * * * * * * * * * * * * * * * * * * * * * * * * * * * * * * * * * * * //

dimensions      [1 -1 -2 0 0 0 0];

internalField   nonuniform List<scalar> 
20619
(
208947
296933
301993
317349
102912
137847
181535
227404
174555
158102
152567
217164
188572
170446
304190
101350
140584
186490
219972
220403
170693
149599
186772
192454
178942
166676
322943
305497
262929
224879
141111
155528
156146
149460
148857
164699
165411
141221
165644
156330
140632
155607
148921
164798
150712
142198
143848
167006
157501
159436
169201
154987
148802
146008
165151
161937
172029
175663
161977
156551
152300
169149
174005
180201
185756
159349
190165
176685
169767
158564
175685
188975
162723
172183
160632
195052
192078
178287
180812
189810
159165
176392
169657
158478
175562
188829
311870
247031
140210
139788
312108
245597
303784
201351
218266
174978
200280
174172
185544
216988
175203
218573
201596
200375
174266
185659
217104
115747
135310
313298
250513
302298
262507
298129
176707
221193
203664
206909
179088
191382
225337
172283
167630
161628
186852
179847
192515
200788
168914
177613
165438
204070
198973
184090
188309
186176
211307
182176
195056
239028
199825
231223
132772
157402
150150
131352
131471
157544
157602
130018
140957
122715
131991
122535
140448
130944
131094
131766
140163
122542
122445
140344
130869
131004
149403
149022
139948
157469
148856
139758
149085
123408
130018
137981
129541
123025
130914
137438
157541
148769
148861
139685
149296
149008
139878
129538
123335
122974
130864
137986
131275
137442
171665
131318
148775
166606
159228
160754
131678
128912
132250
139454
164464
143857
175763
157059
131468
152653
131139
140094
122959
139976
123688
131429
132196
131176
140569
126414
140056
124800
133320
134960
128615
134753
143651
132836
141716
137218
140189
157833
148771
157654
149845
140340
141205
150865
125217
130847
124034
138905
132025
133315
140457
149677
149005
158278
142434
154312
152286
144209
136521
134102
126810
135030
145163
137291
142499
135058
141177
137508
146489
150322
143977
148662
160649
163389
160868
153131
150990
146645
149860
148526
143339
139579
134924
131595
140180
143775
157523
140233
147105
139716
156831
149538
146491
147136
150077
140149
139671
156875
149508
146512
149908
158792
148173
151018
140977
152640
142410
166945
160413
156237
170859
159066
165210
153965
138987
147881
153285
153458
163550
157632
148175
155136
163308
152182
154752
157517
144295
146774
163399
170727
158853
161025
165370
149936
153869
177050
170671
175399
189113
181839
168876
158678
178449
173220
186434
210565
193612
200209
218777
317359
102803
110484
300606
278372
280566
288014
191234
234991
197547
249019
205881
213447
261240
192368
199869
184760
208349
242216
218472
229106
271673
201015
241823
199915
270132
218666
240267
201365
272142
242221
200054
270299
218828
240411
223134
203523
275840
281458
245633
206871
250959
214756
247632
205273
223009
290551
235172
275111
241381
233322
288693
211352
267334
217246
258236
115101
131718
117711
292901
315913
144021
287255
115956
232619
263440
111016
213257
134778
122398
311171
313520
127843
142282
319459
136401
321764
319813
319439
137120
145037
320551
304673
298959
109404
312124
130221
119176
304753
115944
306827
313238
116272
306663
312484
132341
307963
306727
122129
106948
295635
108655
299005
287454
103194
107448
115126
298963
105982
290931
297181
290940
106921
103699
286045
284984
102553
159569
149954
157686
169006
148408
147677
162627
280535
173449
228011
163487
225256
285333
154728
289702
288142
151733
144631
284582
218946
147301
285063
143248
216258
143103
284208
158813
224785
235382
158574
292598
149586
286148
165806
292816
295634
150604
286587
156707
290906
291525
290622
154710
297681
169822
297336
166281
296989
183353
271687
159670
292548
260185
172174
300839
178779
297616
162435
297246
178702
300895
170065
294988
299114
180051
300676
188683
300562
300746
188947
285234
303523
215988
193278
300733
149194
152591
151882
177560
176749
179163
179955
146862
145714
144811
172884
175531
174679
173817
146618
150090
148408
175806
175798
177238
174343
281358
304577
304647
299383
243674
186530
299952
145403
146675
147299
174902
172670
174449
173285
146695
145408
144658
172670
174892
174439
173282
144175
142228
143209
171451
171754
172447
170665
144045
142159
143124
171302
171298
172076
170496
304901
188048
298906
246366
197894
304348
299088
152183
153218
150605
177773
181765
179213
180282
152253
149030
149587
176883
178953
179373
176501
149040
152248
151733
176866
176478
178924
179352
152182
153217
154726
177763
179208
180268
181756
155517
158119
154838
182113
186624
182900
185804
158015
155217
154704
181914
186218
182405
185637
154203
159183
156705
183923
181226
183918
186806
155225
158024
158584
181945
182429
186247
185671
156183
161106
157683
187345
183409
185042
189140
156186
161110
159574
185054
183425
187365
189156
163173
162193
159669
187386
194987
190446
191674
162194
163176
165807
187394
190450
191685
194994
161905
167098
166334
191303
190408
196166
197141
165115
168060
169809
192181
194172
200512
198223
165123
168074
163496
192208
200541
198258
194194
161833
166962
162451
190969
196077
196849
190297
161819
166938
166261
190931
190253
196023
196800
165294
172888
169006
199263
194327
199266
204774
295006
304960
231100
256286
203317
299965
294429
167306
175137
170067
203789
197024
200740
208090
167300
175134
172167
200730
197008
203769
208079
177610
178813
183354
205588
211888
213781
221341
177609
178813
173449
205593
221343
213787
211890
172383
177900
171564
203550
214438
204616
213210
177862
172265
171508
203420
214172
204317
213094
173486
182197
175410
208656
216221
205983
219514
181252
185063
178001
212512
230327
217778
224185
218732
218717
286113
284700
220566
285352
217076
217734
284427
285271
215854
217457
285096
216182
217362
286554
286048
216255
285767
217853
285165
215833
285223
217708
284411
217419
216172
284549
215905
285779
286078
215106
285063
214648
284828
214723
284070
284371
214732
215192
214240
284192
221382
287717
227286
288696
223365
225060
286621
220262
288115
223363
286357
223808
219871
286200
221327
289078
287432
286735
220203
223652
288427
286289
220222
219817
223294
288052
223755
288061
221353
287702
223351
288652
225023
227262
289671
182706
195897
188949
230885
220276
230885
242724
229409
293542
291449
228265
293142
290884
234209
227926
292797
234512
290467
228472
290533
233893
236099
290821
229927
232383
293413
291484
238731
289331
230657
226458
230644
292233
290891
235058
232419
290880
229974
236157
293457
292879
238777
290541
228006
228536
234588
292897
233986
292680
185314
199099
190367
238208
224613
233281
247965
196161
186553
227446
185614
195136
226108
242267
185597
196196
195142
227246
226015
242209
243565
190466
197962
200789
229630
233472
246272
250595
235969
247557
294412
293831
292522
240634
242558
235993
293842
240645
294442
242591
247577
295650
243722
295583
255892
297248
252871
295046
246553
242032
295088
297116
250345
251060
241376
294870
243655
295542
246501
255839
297202
252801
297651
193705
209715
204642
245895
238878
256540
263954
253846
295362
246566
253855
298340
296995
261387
204672
206504
196684
244031
272077
256833
259535
288220
298968
298340
103914
111651
111869
103950
265564
299123
298354
297483
296458
250650
255941
297476
295283
295568
251712
242771
241573
250512
297049
294988
294791
241943
241268
250227
250964
297467
298335
296431
255917
250612
260148
265541
210292
216361
225179
254624
264823
272397
281429
266776
282750
274411
102528
105532
101517
102195
223764
208582
207356
261311
281480
262681
280357
278276
300027
300745
299678
298546
262437
269786
300982
299391
299404
272991
262118
260971
272068
299252
300664
299037
260725
272587
261500
271899
299117
299435
300810
266455
274260
263384
276982
299677
300023
298539
262424
269783
271676
278273
262672
225098
208488
223712
207328
261324
280326
210730
232381
214167
283788
265447
269690
287300
300870
299980
300946
270549
284924
275350
280629
225551
238451
218994
275239
296682
281675
291683
250170
299211
286625
219288
236381
275709
290549
292184
299812
300847
300849
300666
277389
285235
265234
122522
266873
101434
102714
101442
102728
298846
300901
300284
289731
280876
286782
294738
301184
299915
301492
292775
283368
282672
292322
301475
299482
301175
283158
282569
292279
292716
175157
200039
262795
101417
102584
101351
101950
300977
300679
297997
284613
286960
293898
295785
234027
267885
244669
301830
288720
295880
306694
26484.6
19609.7
20140.3
7468.67
12136.2
2670.35
2728.08
3287.26
3572.95
18379.7
34890.6
26017
14239
31395.3
17498.2
19039.5
16082.8
24728.5
24331.4
22618.1
22860.6
23458.5
18099
18361.9
18366.2
19853
18924
18002.3
19344.1
19706
17790.9
23183
18836.7
19391.5
22290
18417.2
21985.5
9155.82
16238.7
17148.9
14146
20774.7
20781.2
12585.1
17532.1
17561
14396
15078.3
18432.9
17977.8
19866
2685.44
2517.61
2545.62
3029.38
3482.91
5347.04
4605.78
2625.56
5000.23
11675.6
4500.76
3255.24
9632.88
17157.5
2863.7
2933.82
2743.03
10058.1
17284.3
19752.8
7654.59
2552.6
15367.2
6949.18
12770.4
19255.9
20145.5
17962.1
15970.5
22154.9
20162.8
18218.6
18120.4
17649.3
19627
28131.4
52652.3
45945.8
21793.9
38621.4
29642.8
25088.5
19388.1
21085.4
28907.3
24525.1
20002.9
25053.8
22048.1
19372.4
9244.74
8273.62
18322.3
16573.7
17753.6
17637.2
56062.2
45457.7
88741.5
21202.6
35906.4
20701.5
27608.4
12350.5
18614.9
17761.3
18101.4
18776.5
18001.1
19171.3
19074.9
24234.8
23333.7
18858.7
23581
19772.1
22846.9
18766.6
19181.9
19353.3
19419.4
18962.6
18987
19175.7
20310.6
20936.6
19721.3
19933.9
19498.1
20754.4
20488.7
9681.19
2825.53
6421.57
9045.84
4044.47
5648.77
12997.7
15623.8
16023.6
10617.7
15699.7
14323.7
13217.2
16560.7
18380.6
16371.2
18422.8
18517.6
17835.6
17931.2
18628.2
19414.1
18563.2
20065.2
19116.4
19630.4
18536
19844.9
22172.3
18929
20739.4
15062.6
22064.7
20618
18015.4
24884.1
25767.2
24691
24238.7
25385.3
24030.6
25648.2
24491.3
25689.5
22681.6
19978.7
20116.2
25579.9
24607.4
23929.5
21370.1
24332.3
22958.7
23439.6
20964.8
24978.7
18407.5
17817.6
18620.6
18641
18089.2
18867
18219.5
18385.4
18777.9
18136.9
18303.9
18581.9
18567.9
18091.3
18887.6
19398.5
19699.2
19592.5
19065.4
19391.8
19256.3
18582.2
19173.7
18581.3
18795.2
18765.5
18402.4
18989.4
18214.2
17737.8
17993.1
18257.6
18364.2
17889
18049.9
18718.4
18966.6
19535
18962.3
19187
18561.6
19109.4
18651.4
19070.8
18890.3
19557
18985.4
18470.7
19166.1
20783.4
19734
18662.8
20417.3
21640.6
20110.6
19791.5
21506.1
22091.7
23220.6
22895.7
22804.5
21956
21643.6
19822.4
19282.1
18614.2
19530
19037.6
19376.4
19996.1
20111.3
19642.5
20260.1
19068.6
19242.8
19868.2
20502.7
21272.6
21156
23105.5
21357.5
22491.1
20645.5
21754.5
19674
18788.4
18479.3
18740.1
18834.2
19268.9
19421.7
21107.1
21476.6
22475.2
20844.5
22339.5
20536.5
21314.7
16522.5
12178.1
16354.6
16080.5
15413.4
14503.4
16959.8
17691.8
12472.4
16713.1
18597.6
18890.7
17134.1
14489.4
18249.2
18047
18193.3
18965.4
18897.1
17780.6
18588.3
17833.8
17377
17865.3
18090.7
18664.6
16555.9
17703.5
5538.98
8108.42
6801.01
13972
4158.55
10790.8
9812.86
3538.75
2827.5
3227.93
9832.78
2643.91
5118.1
6938.64
4569.33
4256.47
7293.07
12661
9954.01
3599.57
6642.43
8028.7
15993.1
14728.1
15630.1
13502.9
10941.7
12544.3
3158.64
2772
2608.02
5842.07
2631.31
3701.39
4492.24
5178.53
4227.56
13386.6
8766.48
11709.3
4051.88
6114.47
6619.84
9842.39
17594.4
13759.4
14137
10293.4
6351.12
7573.07
13591.7
17115.8
18666
15349
9688.39
11465.3
6369.27
2615.25
2653.35
2917.62
3002.61
4126.57
3647.98
13938.8
11291.7
12994.7
17838.8
8009.21
16221.5
16687.4
11083.3
3426.48
10065.8
12685.5
5103.6
7893.85
15008.3
12896.3
5993.6
15785.5
15500.1
17525.6
9762
9114.71
17520.2
18936.1
19854.5
18927.1
19179.1
18659.6
18327.2
15611.2
15945.5
18304.9
20131.4
18958.4
12711.1
17742
15961.1
16364.7
17225.1
18514.2
18357.3
13747.4
17501
17318.2
17043.2
17162.2
16539.8
17894.7
16957
16951.4
18062.9
18564.3
17516.6
18744.2
18008
19131.3
17571.4
17613.4
17878.7
17722.1
18182.1
17798.7
17458.1
18242
17170.1
17212.5
17366.1
17563
17464.8
17213.9
17026.8
21101
19471.5
20599.5
19996.4
19974.1
21392.3
20477.9
21610.7
22339.9
20621.3
20965.6
20333.9
21777
22362.3
23374.3
25276.7
22626.8
24471.9
22364.9
23416.7
25492.7
21034.1
19656.5
20260.6
20929.8
19950.9
20623.3
21276.6
15125.4
6221.74
13842.3
14280.8
11596.6
11806.3
16340.2
17295.8
18183.6
17802.3
17262.7
17455.2
18211.7
17412.5
16820.5
16999.6
16773.7
17476.8
15521
17107.5
17418.3
18014.1
14685.9
15850.5
16006.9
16992.6
17132
17398.9
18423.2
18632.8
18303.2
18769.8
18268.1
18372.2
18648
17991.6
16592.1
18151.6
17875.3
17675.1
17615.5
17923.2
18070.5
17926.5
17699.9
18407.6
18089.5
17692.6
18181.2
18296.5
18758.9
18523.4
18599.5
18255.1
18466.1
18520.2
18100.3
17574.8
17773.2
18267.2
17990.6
18101.9
17838.4
18353.2
18992.1
18783.4
18806
18426.1
18605.1
18660.2
19528
18198.3
19031.3
19943.1
19939.9
19572.2
18430.7
20513.5
22929
21840.7
23371.6
21420.3
21135.1
22636.3
19854.4
19550.9
19388.7
20563.5
20224.5
19089.1
20279.8
2397.43
2451.6
2488.69
2445.43
2467.46
2714.65
2581.77
2607.07
2427.86
2625.7
2509.74
2450.53
2379.52
2408.78
2434.86
2444.35
2647.1
2404.11
2447.79
2397.93
2453.72
2410.81
2533.22
2536.09
2498.6
2486.95
2504.48
2502.75
2488.9
2507.1
10372.2
3255.33
2467.72
2439.14
2499.1
2461.68
2486.88
2530.73
3006.56
2508.4
2512.52
2531.97
2679.08
2565.79
5193.86
7118.58
4696.43
2800.92
3255.66
3464
2472.12
2584.01
4559.92
2566.34
2446.26
2751.38
2809.91
2436.77
2747.84
2411.87
2392
2423.75
2468.44
2544.99
2407.14
2527.06
2404.29
2442.18
2369.41
2378.06
2437.3
2482.02
2466.09
2454.73
2468.84
2467.79
2457.42
2476.88
2461.94
2450.7
2446.45
2474.81
2489.52
2482.88
2481.74
2443.81
2443.14
2440.67
2463.56
2457.21
2452.52
2469.25
2406.18
59107.2
8007.9
2438.33
2354.02
2444.5
2502.85
2375.66
20248.3
60802.1
11290.7
36160.3
15526
43732.8
35960.4
64893.1
2470.2
4055.4
3716.7
2844.59
9107.63
2943.94
8166.07
14239.3
29153.8
28525.2
32731.7
21937.9
21361.5
32741.4
2370.8
3149.03
2740.82
2675.12
4371.44
6297.85
2530.57
7297.7
27466.6
24050.3
33196.2
16536.8
19970.2
32831.4
2442.21
2402
2402.71
2387.48
2413.29
2396.54
2415.37
42576.5
61701.9
66073.5
42101.9
59106
42713
56640.5
35717.2
28939.2
29150.3
34759.1
26109
26097.8
34718.9
10060.8
9417.71
20162.9
4579.78
15669.7
5011.26
15019.9
42391.4
42250.9
59353.5
42125.7
54532.1
54283.4
43515.2
2437.82
2410.82
2419.72
2378.21
2427.36
2381.72
2419.81
6211.53
18386.7
19905.8
3798.03
10336.3
13350.4
3150.12
3238.62
2368.08
3110.13
2549.89
2362.01
2581.96
2367.4
30857.2
37633.4
30104.2
35447.7
25056.6
26211.5
36957.4
62864.7
47470
46483.1
43209.5
60909.5
43971.3
59351.2
2887.88
2351.12
2717.06
2481.86
2397.92
2410.48
2377.95
60348.9
45391.1
46020.8
42760.8
56774
57069.8
43897.2
85398.4
4538.05
5163.67
129039
7384.32
50473.2
15116.8
22423.5
3747.4
13690
12224.9
7387.11
2691.38
2878.29
8299.81
15773.1
6295.94
25220.5
3585.44
22448.8
3187.46
21016.2
6665.19
18349.1
14940.1
10495.9
2894.27
3444.98
14276.6
21218.7
49768.5
44331.8
42622.5
116911
44952
125999
12454.9
12699.3
17354.1
10120
6872.17
14848.2
16232.2
9797.58
9684.35
12156.9
3485.32
4539.14
7477.78
14350.6
15098.8
17912.8
18335.8
17984.2
17411.2
16514.1
17379.1
6874.98
4600.14
2705.64
5402.25
3294.44
4183.13
9695.08
3254.48
18582.9
12990.8
9981.36
2562.05
2792.08
6884.1
57000.7
24370.6
80869.8
42015.7
182609
163437
61624.7
44492.9
81156.3
94245.9
58391.5
136282
69980.1
122358
40924.1
38537.9
78269.5
49331.1
167769
134731
54577.9
142680
157902
109623
118588
103518
133940
103019
156313
113738
102700
113728
142512
156288
114373
143441
105775
149140
157329
118463
164011
151986
164158
115106
130641
183107
120689
167444
106442
102761
106137
113812
113364
116912
117338
122489
187500
162344
117924
162362
134042
165702
102866
106231
106060
113521
113263
116838
117126
163506
140825
122981
134910
201326
170851
166980
104463
106883
107809
114297
115421
117881
118983
107512
110785
109083
118856
116923
120477
122409
109955
113457
109657
120764
125419
121163
125031
109830
113440
109608
120718
125387
121056
125009
112153
112908
121194
115466
123968
124777
127610
110481
115322
111408
126122
121806
122910
127261
237772
142264
192344
147822
125349
207353
174673
116682
114432
112706
124430
130902
126409
128851
118484
121976
118485
130958
127212
130958
134860
126817
142078
126291
130041
146639
130544
146032
142005
126601
126207
129980
146535
145984
130401
127457
144873
128741
147487
131249
132533
148961
116575
123430
119195
133437
128827
131764
136534
117860
117565
122155
130122
129713
134939
135378
117580
122582
122183
130152
129720
134965
135450
119634
123291
124461
130895
132131
136256
137621
146764
132568
130425
134257
153373
136443
150915
134225
151141
139423
155635
134725
150504
138907
134188
155623
139394
151078
150474
134650
138894
121092
128097
126045
135999
133827
139450
141804
140247
152063
135499
136803
159009
141631
153615
135162
155364
138220
156328
139092
142251
159885
125994
126733
122326
135268
144647
139387
140250
138580
158263
161233
145882
140846
143505
155678
128274
130674
138707
133849
142023
144749
148353
127785
133484
127397
140858
148199
141340
147656
133522
127887
127429
140901
148344
141451
147716
128668
136381
129979
149365
142351
143875
151081
159378
145988
141807
145989
169307
150369
164159
161412
148792
143596
146910
171659
152310
165243
144720
161620
144175
150138
169474
150718
168695
161627
144737
144182
150167
169548
150787
168724
138315
133984
131722
145886
156195
148477
153316
145634
165362
147137
170840
151774
153423
172919
136022
131812
137692
150749
146015
152686
157815
167793
151667
149137
155579
179071
158320
175628
143974
136825
140312
159781
151719
155669
164136
150850
175534
161492
176813
155491
156510
169888
164823
165527
188445
156943
178026
157574
177175
188633
187574
164897
156994
178156
157697
177227
154789
179407
158573
183417
161719
165866
188824
190363
179642
158809
160640
193080
169048
182009
152441
149509
144517
160400
175514
165988
169340
163010
175152
189054
196656
166035
171718
185094
168557
185227
163118
170890
203711
176956
195479
89749.9
76148.4
87631.8
69853.8
98511.9
81339.9
79000
97030.7
69244.3
71683.5
72012.8
73864.1
74446
77769.9
77374.4
78719.3
70312.9
73371.6
69503.2
72584.8
75216.1
78189.8
78903
75196
75443.9
80601.7
83213.9
83412.2
80380.6
76550
84324.9
80144
79376.9
75854.1
80843.8
83716
88102
80405.3
81009.1
84021.4
90802.3
83677.1
91080.6
82474.1
92474.6
85000.6
88745.6
81613.5
84365
91596.1
86766.4
93882.2
97207.6
89402.8
89593.2
86543.4
94074.8
95377.1
87681.2
90636
87063.9
97741.2
89982.8
94578.5
117676
139152
99990.8
146073
88946.9
131425
141378
202181
180821
148613
108220
136894
102347
81364.1
97291.4
77228.6
92877.2
98056.8
82229.6
136823
107351
136093
134493
126178
133380
106348
222546
242966
210102
215854
185739
167630
203672
139268
165110
142355
139983
151902
145481
141722
136664
134455
137223
135274
134089
139835
137449
117229
132289
138852
132481
121146
133355
108043
79578.3
71621.1
74505.6
73432.7
78692.7
76183.9
80936.4
105110
92570.3
84890.1
102301
111398
95631.4
102270
131339
128835
125774
132744
130398
134638
131041
78445.7
82785.6
75674.1
80518.1
78433.8
82779.9
85228
121620
173129
177320
110243
141784
144778
121923
147027
140511
148118
146371
145181
143549
147556
194602
196688
204589
171211
176042
163315
160894
108899
130926
128363
137487
119345
135419
120427
77695.3
85339.7
81428.7
83342.6
79432.6
83634.5
86901.4
137933
137556
135963
143828
141860
140031
142518
126566
106390
124051
118191
133658
131359
116925
118111
124893
122361
122334
121121
128007
126584
95311.3
91123
83608.6
93697.5
85990.4
85172.7
87446.1
84892.4
85851.8
81836.6
85633.1
91619.2
88197.7
89002.4
136337
131414
134142
138111
139603
135485
141302
105894
118345
121085
128794
115575
126229
115878
81843.4
85632.9
85846
88940.8
88195.5
88995.6
91614.1
117163
122723
121952
121483
121380
126585
127695
99620
94911
97289.6
89288.8
87045.3
89287.2
91551.5
172901
139977
173081
148036
139018
131491
150283
142192
137755
144537
128930
140455
130034
145832
101123
99602.6
96514.4
88657.8
91626.5
90064.9
93076.9
128535
131398
126693
138111
133128
132005
137620
117370
110516
118076
116412
124911
125099
118152
143625
127823
139046
137335
135119
142516
126576
88475.6
96667.1
92568.7
94728.4
91237.5
94726.9
98270.8
90393.7
98733.7
93531.8
97074.2
92780.2
95469.8
99817.9
102348
91924.9
94262.9
103067
94984.4
97364.3
105446
105445
99989.2
103064
91925.3
97365.6
94263.2
94986.4
135438
134111
139959
124736
133414
141300
125411
122590
113557
119877
126390
123889
128689
120637
126833
131445
126214
132141
139507
133268
138164
148193
103405
72098.7
78584.3
139110
163202
72720.1
79858.1
155589
105869
120006
135243
144243
96988.1
87035.8
120662
117945
132133
82756.6
72147.3
74604.5
77616.7
129726
151511
142183
89627.2
84153.7
78959.7
98633
132407
143335
167969
163832
154197
108954
121483
71569.7
74025.5
70220.5
71828.8
69984.7
72339.9
72903.9
76868.6
78112.3
71574.4
71518
75749.3
70404.7
74532.8
73860.5
76543.7
77896.8
77265.6
82993.5
74195.6
74610.4
77877.6
91258
102596
76084.8
73469
79959.5
73582.6
111853
94011.3
106954
148841
133769
63074.1
51906
36873.3
69550.9
17511.3
57827.2
110253
87847.9
69198.4
45753
34591.2
63759.8
48977.1
35899.1
75608.1
66665.9
47326.8
33790.5
24992.7
56057.5
12184.3
44093.3
29007.7
120639
88679.7
99424.9
102714
86483.7
96076.7
110435
133928
198266
246933
95197.3
136248
172236
147665
40424.7
50496.9
46756.9
54746.6
67403.4
59114
70420.5
133461
133734
115201
108146
135820
121799
123973
77979
77643.7
60621.6
106738
85418.5
84606
101600
130967
86197.8
122504
87908.9
82585.4
127358
121201
37686.2
47108.8
43511.3
35607.4
44364.4
47867.8
38665.8
28969.8
29555.5
31284.5
30122.9
24612.3
31958.2
28540.9
20123.8
31997.7
43962.7
8180.34
15885.9
23537
24414.9
70334
68423.7
55032.9
67849
55259.2
57873.3
69520.7
82663.8
72457
88813.2
76187.6
93723.6
77345
88749.3
102038
99401.3
90978.9
98611.1
113175
108945
105003
59837.4
45437.1
55016.5
77771.4
67410
76599.3
83735
98299.2
120188
132361
161221
121125
142018
113328
159401
203568
193281
155043
143841
168765
179980
36580.2
44684.4
45248.5
48874.5
40021.6
39855.8
48668.7
30426
23242
24456.1
32774.6
32920.9
28919.7
28359.1
108663
122272
131272
124123
118606
113270
121966
80755.6
66224
79299.2
87713.1
101780
91824.8
100940
68046.3
54655.6
55737.1
58644.1
69690.3
58360.3
70084.4
85726.7
105802
84537.6
103975
84799.2
104597
102998
54096.2
41393.8
50561
50999.1
46063.2
42102
54095.8
41231.6
39670.2
34510.4
39890.9
35011.5
32654.5
38839.7
8374.58
16669.5
15621.6
23576.1
26584
24990.5
23205.8
76429.3
90286.3
123785
87950.9
79287.7
125271
115719
74716.3
60580.2
72380.4
60451.1
73954.1
63402.5
71487.4
75304
62822.6
97858.2
34130.6
65036.9
46447.5
46840.1
94407.5
114587
116788
133747
108850
128856
110812
223275
233969
220141
189265
215893
204265
193521
142050
177526
179544
155693
136118
127948
157177
147172
137498
138014
157750
165800
167900
154082
84402.4
100335
103147
84228.2
84987.4
102608
101073
75222.8
71144.9
68846.4
70460.8
70749.4
71806.2
72883.4
52134.9
47755.8
44340.7
56151.2
43582.7
52328.3
55410.6
131615
128847
119577
130953
120858
118877
128764
105722
82146.8
77596.9
131361
88547.1
73571.5
76437.9
86925.3
141908
92378.3
123999
108102
80566.8
77338
83794.8
105524
77633.6
90582
71665
74799.6
74216.6
72172.1
61524
74865
65272.1
72542.3
61789.3
64568.3
72263.1
33823.8
57281.1
41636
47102.8
35368.7
45709.7
41108.7
42117
37813.2
36676.9
33651.2
41995.2
34389.4
40254.9
86847.4
86745.8
85433.3
103325
103737
102239
102098
74902.4
67800.4
68981.8
70914.4
76714
68935.9
74732.4
117603
85901.8
94472
76828.3
80488.8
80718.8
77666.3
73442.3
73749.8
73802.8
77434.7
80926.8
74768.7
76393.9
95794.3
76832.5
82194.3
91959.6
97944.2
80690.5
95188.5
145625
123131
145132
134824
139738
125198
149460
174911
174617
201624
185239
189089
168888
180509
87360.4
85807.9
85787.8
102108
102154
101418
102297
126014
112962
117093
117266
122895
114500
126487
72143
74265
70852.8
72765.3
70036.3
75600.8
78488.6
81225.7
95816.2
102944
106909
39952.9
76968.2
49836.4
32923.3
104159
84854.9
85247.8
85738.5
95919.7
90727
82659.5
40226.3
32436
35397.7
52322
60495.2
67040.5
56587.4
68843.3
66227.7
77776
85684.6
76845.8
83851
81833.6
41510.5
59367.2
68152.6
57181.5
65280.5
79468
80591.4
92233.9
96021.2
103293
98044.4
93753.9
104465
87675.9
63410.4
49394.5
40837.4
77551.8
78373.3
92577.5
65548.1
96640.2
91015.4
104686
118263
92376
110637
100537
99103.3
94621.8
123442
93600.2
125187
109607
103992
119090
130777
119769
118205
129606
117911
128781
80962
73371.3
78700.3
74317.6
71306.9
77119
79593.5
107445
111844
103243
118685
110519
107299
115640
79922.5
82935.4
78150
74668
79352.7
82792.3
76311.1
79803.5
83290.4
81018.3
84406.8
73757.8
76701.1
76028.7
85720.6
75020
77962.2
87201.3
84609.4
77027.7
79677.4
75820.7
89557.6
89829.5
80826.2
80136.1
93400.8
93128.1
84951.9
101308
99535.3
88068
84296.1
97765.5
100430
117402
128852
116763
124850
115774
117653
127275
86598
79229.6
90705.8
88789.1
81430.4
83182.6
81401.5
86363.1
79715.5
89942.9
86443.2
90119
78829.7
81973.3
87837.4
90482.5
91072.6
83337.7
79977.4
79128.3
82485.5
91687.2
84194.9
81085.6
92534.6
89808.2
82362.6
85036.3
101220
110129
101191
105497
114398
105295
114251
115100
121809
113092
110744
123748
113561
119584
13884.6
21184
137355
80312.2
82250.4
132118
168716
86805
35993.1
9235.47
42744.7
72564
23378.1
29884.3
67847
17600.4
31340.9
28951.9
60865.9
31776.2
29430.9
51208.5
2971.32
154885
161380
116177
91339.3
110230
73177.3
111850
142756
66343.1
87502
50086.7
71065
54015.7
93017
116588
110671
78016.1
97058.6
55518.7
76865.7
93310.5
58489.2
83603.4
49781.7
38410.6
71173
107737
94593
52392.5
7939.02
18349
31118.5
73110.2
56202.4
78049.8
96213
78902.9
82052.9
35654.5
98946.4
165054
124424
166919
159816
114541
137277
115321
93377.5
116836
144563
163115
120911
127028
136176
173495
129382
164232
51269.5
80812.3
107224
100965
45645.5
63138.2
80778.3
26619.7
50878
24772.6
39962.2
30229.5
15287.9
60474.3
78754.1
63605.9
48003.6
67442.9
97334.4
89455.3
79955.6
119610
97139.8
113474
122982
112433
107427
125566
4016.48
2451.55
2487.99
7880.66
43938.1
59879.9
18623.1
2533.83
3362.51
5954.63
3041.14
2810.02
3991.12
2455.62
5892.88
14551
17138.2
12158.9
4942.77
20074.9
10883.6
14103.7
5051.19
11501.5
12747.4
3712.85
14619.7
3615.75
13580.4
2444.41
2590.24
2700.65
2480.89
2432.3
2398.13
2488.9
8935.6
37058.8
47234.6
50324.1
24732.6
26632.6
27385
3557.05
9755.63
33179.3
3846.16
2704.4
16069.5
10074.4
8317.75
30613.1
43855.9
20920.2
20832.3
9213.45
28755.8
2762.15
2432.92
5606.53
2569.02
2391.2
5508.45
2817.01
11349
3359.26
12981.8
22572
4134.61
5976.81
17044.9
109685
134096
173490
129691
130385
90128.7
168282
54085.5
31028.1
33866.4
67143.5
62204.9
46953.4
39513.5
150440
128332
140802
139958
169791
145102
176628
52605
30793.7
27251
54473.3
22239.7
61079.2
57263.6
103054
116323
112198
84259.3
95358.3
98903.2
89657.4
86747.7
38687.4
44970.3
58669.8
49086.7
71171.4
71973.8
134638
123863
133051
122859
100471
109861
111519
67931.3
83038.7
68657
61956.2
57129.1
72770.1
48827.4
114144
98762.9
60768.3
122289
69181.1
148557
94747.2
174270
151287
148513
144908
153619
172165
131341
36108.5
7333.71
24942.1
39188.7
12445.8
51983.7
25280.2
19203.7
2384.68
49154.5
108969
128319
2400.39
2954.08
3131.29
5202.04
28061.6
4442.7
25782.1
19136.9
47259.9
49938.2
67169.7
32638
32261.9
63184.1
3951.13
10280.2
15296.1
21119.1
8308.38
6111.96
18152.3
39635.6
25698.8
32240.8
32511.2
41226.8
30817.1
38154.8
72104.9
289687
365267
133690
77918.7
365849
74908
2382.16
2394.27
2501.49
2417.75
2975.82
2697.44
2333.4
68967
71581.4
50201.9
79320.4
54961.2
47133.9
62572.6
28494.4
5901.91
31142.1
2413.03
4651.2
7911.82
23089.3
59356.7
23938.5
34126.6
18676.2
43339.7
29554.8
59159.9
29312.9
35690.1
21998.4
25137.7
29330.8
37059.3
32798
3227.46
8213.26
7687.7
5172.01
15097.4
5847.39
16007.8
32448.4
40286.5
38813.2
33464
32659.7
38487
40932.3
25227.6
20274.9
14866.8
12693.2
28439.3
19233.5
24408.3
2395.02
2401.91
2496.9
2687.07
2406.08
2872.02
2349.69
36547.8
54758.2
43149.1
45131.2
53277.1
41078.6
58179.9
68158.1
52496.3
51048.4
48960.1
66051.4
52223.4
63882.2
2779.88
11087.2
5122.23
4033.1
3363.51
8761.88
2490.88
325440
317941
246494
359145
265855
273120
269364
11349.8
21106.8
28354.2
17841.5
11749.5
18573.5
23425.8
29180.5
34033
32491.1
38727.9
40408.6
36312.9
41585.1
11416.1
14617.4
15800.6
8118.35
8800.7
12308.5
17601.1
25250
20095.2
22259.8
25349.1
28674.4
28664
22238.9
48377.7
58812.7
65623
50538.8
45861.6
52225.7
62337.5
32609.3
43350.6
32802.3
48564.4
37066.3
36822.4
47575.5
3824.49
2757.35
3431.72
9594.87
4499.29
8248.6
2534.93
302017
210642
346988
167376
249517
209826
112863
2746.53
2603.77
2626.16
3539.22
3706.26
6294.27
3302.72
355078
300447
365679
262586
284178
242887
178962
199994
92278.9
181783
99584.8
192867
149683
75657.4
15302.3
17170
12045.8
15298
21237.7
18250.4
19203.9
19653.4
17953.3
13572.7
15925
23307.3
19642.7
20161.6
30659.9
21383.8
27451.1
30671.3
26581.2
33501.1
23945
25497.3
37779.9
33004.6
32787
29428.8
25485.9
37205.5
72989
154874
100600
86984.2
102788
91029.4
112557
81794.5
17595.4
47547.8
133401
3309.86
2415.16
3018.26
2358.21
5184.41
2438.87
2359.14
22223
14710.4
39026
58435.7
29672
5104.92
40753.3
2369.91
2623.27
2796.86
3592.5
2475.2
2599.78
4028.44
5919.45
19290.3
17354.6
12601.2
29774.5
24237
12052.4
106327
98830.2
75220.5
76756.2
117402
79280.6
60907.4
2443.34
2422.98
2413.38
2434.65
2386.99
2383.67
2431.13
51741.3
37750.5
30047
50684.8
41376.4
33805.8
42875.8
6499.78
2564.74
3667.79
3019.43
10877.3
6498.6
4492.94
16204.8
7840.95
2961.29
3228.75
15088.3
5835.6
8210.84
22380
9918.52
19242.3
22404.8
17532.5
14707.1
23268
37310.9
22362.2
35818.9