/*--------------------------------*- C++ -*----------------------------------*\
  =========                 |
  \\      /  F ield         | OpenFOAM: The Open Source CFD Toolbox
   \\    /   O peration     | Website:  https://openfoam.org
    \\  /    A nd           | Version:  9
     \\/     M anipulation  |
\*---------------------------------------------------------------------------*/
FoamFile
{
    format      ascii;
    class       volScalarField;
    location    "0.0027";
    object      rhoE;
}
// * * * * * * * * * * * * * * * * * * * * * * * * * * * * * * * * * * * * * //

dimensions      [1 -1 -2 0 0 0 0];

internalField   nonuniform List<scalar> 
20619
(
570657
866407
875629
934175
257290
349092
484820
631300
463788
413504
397715
597722
507225
451671
890134
253375
363368
500896
607511
608952
452479
389414
501826
518728
476191
438866
953117
896141
747873
622546
365051
406637
408684
388937
386987
433908
436284
365446
437041
409287
363534
406891
387198
434225
392504
368110
372653
440952
412580
418093
447342
404542
386351
378577
434653
425260
455650
466547
424867
408568
396273
446546
461200
480377
497494
418142
512684
470711
449370
415540
467349
508619
427789
456808
421780
527537
518473
475429
482948
511527
417528
469766
449024
415267
466956
508150
918511
696428
355590
354425
919391
691058
889647
547828
602040
465421
544034
462682
497661
597462
466168
603096
548670
544373
462994
498041
597879
290116
342163
923042
708096
883952
748253
868169
470571
611424
555087
565208
477623
515724
624596
455816
441498
423528
500696
479050
518524
544491
445958
472885
435656
555570
539593
492792
505733
499039
579036
486852
526954
668477
541811
643288
346828
411367
390191
337551
343687
411965
412656
334152
367337
316052
344848
315469
366035
336907
337475
344380
365509
315745
315304
365861
336769
337352
387488
388455
361143
411405
387975
360410
386340
316584
334050
355882
332588
315434
336201
354183
411681
388021
388080
360264
387297
386176
361053
332620
316510
315351
336109
355990
337445
354231
449028
343166
387435
438680
414516
421592
340783
330521
340124
357319
431008
370458
466436
408379
336244
396823
342214
365207
316869
364410
318654
338492
340412
341186
363616
324533
363635
321098
343038
346868
329409
345468
369356
341933
365246
352363
360028
412168
387902
412146
388780
362297
364511
391469
321425
336376
318366
358479
339443
342839
362710
387959
387215
412685
367567
400688
395204
372066
351348
344981
325374
347259
375564
353123
368242
345473
361283
351857
376458
386788
370292
383418
418721
425140
418415
395684
390505
378482
387300
384997
369908
359550
345869
337217
360790
370634
412343
361951
381798
360325
410075
388221
379835
381972
390074
361813
360238
410227
388169
379924
389660
415998
384828
392641
364039
397097
367885
435223
415764
404001
449018
413732
432144
398936
356864
382756
398381
398281
428966
411375
383037
404445
428944
396013
402942
410802
372923
379673
428751
451078
415275
421017
433917
388504
399757
469329
449890
465097
507730
485154
445228
413808
474948
458962
499957
576196
522239
542953
602496
933072
257017
276518
880321
795473
810312
830615
514677
655109
534386
701368
560958
585159
742379
518117
541979
494434
568730
678646
601081
635871
779504
546520
678519
542675
773419
602822
672827
547675
781179
679895
543139
774040
603377
673347
617662
554355
793805
812909
691052
564779
708550
589179
696546
558809
615984
843115
655500
789902
676341
650305
837699
578848
763545
597685
732731
288436
332388
295237
852795
925299
366034
832158
290660
637253
745477
277883
573265
340667
307555
911772
918138
321985
361218
935198
345095
942398
936203
935127
347055
368853
938721
891944
873273
273750
914537
328358
299075
891840
290628
897839
917386
291483
897411
915383
334067
902158
897613
306837
267489
862326
271835
872680
833271
257999
268759
288500
873276
265036
845809
867514
845845
267419
259268
828138
824310
256387
419309
389448
413530
447910
385276
382395
428209
810061
461332
633791
431176
625024
820711
404491
839940
832223
395038
373340
815027
598082
381761
818575
368726
588160
368632
813209
416566
618290
654404
416185
851656
388783
824309
438209
853160
864415
391988
826926
410512
844933
847744
842363
404089
872051
450362
869478
439217
869598
491452
782215
419577
851935
741522
457447
882100
477490
870832
427899
869179
477442
881810
451080
861948
877016
481593
882040
507947
881513
882017
508725
830699
890988
594478
522263
881065
387207
397464
395332
470225
467710
475580
478098
380033
376247
373645
454760
463417
460832
457576
379699
390413
385270
465140
465125
469890
460109
815840
894322
893617
875561
685904
501695
876926
375808
379675
381747
461953
454351
460312
456429
379736
375826
373418
454349
461930
460282
456423
371510
365801
368753
450091
450811
453070
447568
371507
365754
368693
449855
449845
452321
447274
894780
506390
874085
693514
536858
891510
874572
396753
399910
391982
471653
484609
476308
479826
396851
386886
388775
468587
475060
476680
467107
386922
396846
395049
468548
467047
474985
476628
396756
399913
404492
471633
476298
479794
484589
406422
414367
404321
485168
499901
487756
497127
414197
405929
404083
484696
498974
486601
496752
402877
418083
410513
491543
482821
491535
500850
405941
414215
416208
484780
486664
499056
496851
408988
423964
413530
502777
490025
495243
508524
408989
423968
419317
495272
490067
502834
508568
430237
427265
419581
502772
527430
512679
516687
427262
430235
438204
502789
512686
516713
527444
425861
441795
439260
515102
512027
530662
534070
436109
445018
450325
518453
524846
545350
538018
436128
445062
431200
518539
545441
538132
524914
425764
441618
427945
514376
530540
533449
511829
425726
441542
439156
514257
511696
530369
533289
436675
459652
447906
541317
525313
541322
559130
856105
892819
642994
726803
553997
874627
856994
442729
466403
451077
555828
534001
546009
569674
442724
466404
457435
545988
533960
555774
569648
473946
477578
491459
561706
582030
588005
612187
473942
477571
461326
561716
612189
588017
582033
457888
474487
455128
554499
589995
558283
585649
474477
457738
455072
554246
589398
557601
585436
461502
488119
467338
571642
596012
563076
606465
485015
496811
475142
583931
641207
600691
621337
598539
598502
824864
816858
604841
820761
592449
594756
814871
818650
587564
593509
818677
588885
592129
823063
819900
588591
820168
594591
816779
587493
818484
594685
814819
593390
588854
814910
586816
818361
819096
584507
815711
582894
815106
583513
812891
813625
583545
585130
581854
813150
607621
831736
627418
835770
614235
619986
827022
603598
832884
613678
824190
615494
602001
824464
606591
835763
828085
825370
602952
614524
833131
823968
603487
601841
613471
832693
615340
831963
607545
831693
614200
835633
619878
627352
839849
489477
530462
508730
643075
608804
643077
682259
633881
854361
845562
629908
852453
843151
650165
628950
851453
651981
842655
631264
842071
649295
657749
844712
636493
644821
855681
847615
666785
838253
638744
624544
638709
850590
844891
653866
644927
844901
636637
657937
855824
853369
666928
842892
629194
631455
652220
851783
649588
851921
497479
540578
513141
667210
622660
650915
699849
531860
501608
631992
498334
528224
627124
680554
498379
532104
528329
631561
626973
680496
685726
513812
537620
546399
639377
651865
694837
709250
657076
697416
859602
857236
851860
673250
679983
657144
857266
673282
859689
680081
697473
864457
684210
864272
726600
870483
716117
862150
693996
678051
860783
869599
706349
709526
675154
860928
683985
864136
693822
726417
870316
715872
871944
523780
574490
558421
692970
669597
729222
754480
719475
863387
693978
719499
874507
869611
745953
558251
564090
532942
686632
782276
729833
739072
835103
872557
870849
259811
279517
280078
259900
760404
877034
874360
871300
867506
708185
726706
869720
861246
862810
711317
680085
675620
706704
869370
860450
860665
677759
674803
705956
709202
871262
874304
867425
726635
708067
741403
760339
576225
595772
623966
722436
757287
783651
815382
757523
816150
785560
256325
263897
253793
255490
619682
571563
567153
745297
816392
750784
811580
805984
879976
882002
878965
875165
749554
775517
881874
877305
876674
786508
747835
743248
782482
876404
881870
876520
742632
785414
746098
782110
877078
878115
882296
763634
791632
752926
801335
878965
879980
875154
749520
775508
782189
805980
750595
624410
571149
619442
566984
745221
811369
578349
647729
589182
824500
760280
774752
836673
881756
879787
882420
778040
829528
795323
814302
625260
667362
604420
793844
868757
816467
851749
706007
876990
833526
605083
660228
795043
847417
854525
877123
881640
881652
881825
802855
830703
751990
307881
757443
253584
256792
253604
256828
873477
882253
879161
846214
815199
836066
863101
882667
876635
882975
856680
823945
820671
854318
883125
876121
882919
823480
820511
854355
856731
455417
531273
743249
253543
256466
253378
254875
882264
880998
870684
828766
836899
860778
866938
652620
766342
687708
885920
841219
865885
901574
117693
79335.3
81804.7
30469.8
53322.8
9553.19
10203.5
11733.7
13214.2
78550.3
148889
120380
63663.5
128368
78832.6
86354.8
73163.2
105820
109940
105663
104243
104590
82591.4
78743.7
75892.1
83470.2
79634.7
77372.6
81692.2
82368.9
80475.4
97654.7
78360
82512.5
100023
80167.6
95315.4
38711.1
74120.3
77957.2
63029
94790.3
93709.8
55397.9
78458.8
76942.1
64487.8
67764
77526.8
78851.3
87647.4
9765.73
9092.26
9340.66
10995.5
12920.6
20624.8
17274.3
9931.18
19488.1
51476.4
17639.2
12735.4
40677.5
76040.1
10361.8
10478
9881.39
43016.1
80168.2
90722.6
31008.8
9414.6
68614.8
28144.3
56011.7
83656.7
91471.5
79409.7
71286.5
93308.7
87327.1
78765.2
75406.2
76475.1
82329.3
119580
238225
200696
95100.5
172602
134848
107253
84577.5
91680.1
130796
118363
86596.5
115602
94934.4
84530.4
38729.8
34536.2
77701
75336.8
77909.5
77633.9
222884
178208
344719
94439.6
148192
91750.6
123063
54192.4
84063.5
81948.3
78541.4
80600.9
78850.7
81775.4
86941.2
109980
107809
83022.9
114571
85942.6
106113
76996.9
78031.3
78679.1
79321.1
77352.3
78007.1
78372.3
85282.5
85828.8
80655.9
81973.8
80776.3
86370
84774
40563.6
10394.5
25221.4
37494.9
15231.9
21763.2
56954.1
70726.6
72509.7
45136.5
70318.9
64313.1
58617
74563.1
82162.4
73677.4
83244.4
82648.4
80894.3
80346.2
82688.1
87806.2
84559.6
91758.2
85185.7
89971.5
82802.4
89989.5
101097
86540.6
94760
68365.8
100305
94319.5
82828.2
111395
111204
107989
104933
110741
106462
113377
112753
117746
105737
93237.4
93657.9
117067
113540
109287
97741.6
108886
106049
105893
96941.6
113246
76843.2
75941.3
79033.9
79281.2
76293.5
79592.7
76822
75809.6
76730.4
75683.1
75687.1
76182.5
76633.3
75331.2
78143.1
80010.3
82712
82415.2
78757.4
81496.4
79482.6
77014.9
79359.4
78769.8
78603.9
78165.6
77374.7
78353.4
75833.5
75584.8
76041.4
77866.3
76862.9
75188.2
76260
77849.9
80206.7
82071.2
79399.1
80685.7
77943.4
79271
77396.3
80422
78514.8
81718.8
78521.8
77302.6
80432.8
91224.3
89302.6
83535.1
92123.3
96918.5
89252.3
88195.3
91830.4
91781.1
99863.4
97658.1
99350.8
92836.2
90737.5
83892.3
79379.9
78452.6
82468.2
79371.3
83122.8
83345.7
85955.5
82035.6
87629.4
81808.3
80989.9
86604.2
86872.5
92659.9
95371.2
101586
94110.2
99897.5
91582.3
93883.3
84707.6
82944.3
79088.1
80930.4
79783.1
83929.3
85165.3
90987.2
95409.7
96539.4
89248.1
98009
89639.6
90288.1
73425.6
54207.1
72914.8
71520.7
69035.4
64779.6
74965.1
79581.6
55445.3
74870.6
83558.2
84337.4
77263
64866.2
80168
76811.5
77494.3
80596
81671
76861.1
80012.8
79335
76885.7
79328.5
78173.9
82105
73865.5
77622.3
21867.1
33959.1
27732
61680.3
16204.5
46465.8
41418.1
13628.9
10920
12661.8
41638.6
10258.6
19950
28128.6
17540.6
16038.5
29636.1
55193.8
42514.6
13473.6
26335.9
32933.5
70903.9
65205.7
69380.5
59340.9
46839
54701.8
11338.8
9897.35
9425.52
22526.1
9389.51
13574.9
16664
19678.9
15756.1
59183.2
36578.9
51036
14996.6
23772.2
26106
41684
81509.1
62380
64088
43825.5
24866.8
30481.4
60357.6
77667.5
86359
69595.1
40570.5
49805.4
25049.9
9629.17
9990.95
10749.7
11256.3
15597.6
13529.2
61477.6
48520.7
57111.7
79835
32667.4
72479.5
74653.6
47522.1
13153.1
42767.8
55590.7
19798
32234.4
66777.2
56364.9
23341.7
70746.2
68892.9
78546.8
40919.5
37765.5
78275.1
83833.4
87569.2
82854.7
85011.5
83328.2
81508.5
69689.6
71774
82897
90132.6
85061.1
55651.9
79865.6
71032.2
72859.4
76571.2
81517.1
81567.9
60422.9
77991.2
75455.4
75325.2
76537.9
73428.7
78566.3
74185.9
75159.1
77599.9
80898.1
75415.6
80047.6
76582.7
81940.4
76513.1
74852.5
75220.6
74655.6
75515.7
74837.9
74585.3
76221.3
74095.2
75551.3
74836.1
74948.8
74308.5
74629.8
74463.4
93072.4
84322.8
91441.6
86738.1
86390.8
93870.8
90693.9
95917.3
99208.5
89545.9
90769.9
87916.1
97237.5
98641.1
108312
120599
105940
117241
103827
109568
120717
93736.3
84964.3
87734.3
93497.5
86145.3
91812
95202.8
68419.1
24886.1
62563.5
63521.7
51357.3
51367.6
74048.7
77759.1
80532.1
79458.8
75538.2
77235.7
81997.3
77875.8
75450.4
75352.8
74712.9
76545.3
69028.7
75914.9
77701.2
80969.7
65662.9
71825.7
71637.6
77214.8
76872.6
78451.7
81909.3
84113.8
83162.7
82725.2
83080.4
81518.5
82276.3
80711.8
76078.3
83214.4
80500.8
81172.6
79814.3
80235.3
79027.1
78904.4
76584.7
78997.2
77440.9
78152
79398.6
80104.1
82249.6
80162.4
79115.6
78187.4
81545.8
80420.3
79799.4
78225.2
77192
79600.1
77539.9
80370.3
79103
79713.8
82160.9
80262
79808.9
78486.4
80788.7
80569.2
87481.8
81119.8
83034.6
89007.1
88650.5
88342
81517.6
95326.3
111980
102418
113095
99787
98888.9
109877
88816.3
85768.5
84227
91791.2
90093.4
83860.7
90882.1
9367.76
9192.53
8943.03
9216.98
9133.1
10683
9150.43
9603.86
9242.12
10342.7
9992.33
9328.33
9553.39
9602.28
9344.1
9352.01
10540.4
9278.65
9731.02
9316.12
9322.63
9647.46
9122.19
9043.22
9052.38
9117.7
8977.32
9111.23
8982.28
9364.9
44194.3
12783.7
9317.89
9779.49
9371.71
9744.64
9396.18
9322.06
11279.8
9255.98
9281.92
9548.61
10076.5
9950.26
20149.4
28811.5
18419.9
10808.9
12794.5
13256.6
9595.51
10017.7
17868.8
10223.7
9521.21
10913.1
10838.8
9488.04
10930
9413.42
9603.72
9476.22
9605.61
10168.7
9470.61
10222.4
9857.57
9404.05
9619.82
9579.8
9464.33
9075.55
8967.76
9071.23
9126.56
9078.7
9172.43
9010.21
9172.94
9206.11
9246.2
9206.67
9062.71
9173.85
9097.21
9252.13
9288.23
9354.99
9229.5
9163.9
9273.45
9114.01
9546.67
228409
28725.6
9302.4
9542.48
9215.15
9777.89
9540.02
79224.5
228552
41141.9
140352
57618.2
194383
146005
254629
9727.43
14823.7
13871.3
11042.3
31938.6
11275.1
28761.9
52581.5
123734
120398
139036
87218.1
84573
140321
9480.65
12247.2
11093.8
10595.7
16357.6
22597.5
10209.7
26555.7
112735
93318.3
137044
61632.7
77617
128911
9263.41
9194.14
9249.34
9363.55
9282.74
9349.25
9340.9
187885
268313
288831
181032
253848
186512
239097
143116
117698
117716
144583
106261
105701
146130
35971
33699.1
78678.5
16602.3
58630.8
17888.7
56010
180424
168218
246636
173315
206694
217617
168346
9383.29
9326.29
9430.08
9367.49
9503.09
9442.36
9403.18
22482.2
68896.2
76729.4
14259.7
37264.7
49137.5
12310.9
12372.9
9556.48
12039.8
10110.1
9289.3
10157.5
9359.98
117739
140265
118948
142762
96283
104499
141933
242837
190015
183489
177655
250854
183570
240001
11409.6
9588.89
10934.7
9930.33
9588.28
9734.44
9445.65
221105
172590
168054
168424
211541
221350
164213
320537
16985.5
21012.1
518072
26053.5
212364
67804.5
99852.5
15198.4
54934.1
54903.1
30068.7
11259.4
11976.2
31214.6
56314.8
22535.3
99735.8
13937.1
89485.6
12680.4
73957.1
26960.7
85058
69013.1
43892.4
11760.2
14039
61066.9
94147.1
187379
169912
157837
426625
166375
463751
55517.6
56020.6
79078.2
43302.1
28050.3
67426.1
73933.7
42436.5
41197.6
54083.5
13884.1
17947.2
31352.9
65130.5
69514.7
82649.4
85175
84700.7
81842.5
77175.9
80489.8
28738.1
18416.8
11059.7
22111
13279.2
17031.6
42254.8
13035.8
72054.8
47852
36124.9
10815.3
11511.8
25216.8
228064
102151
296021
153350
721667
602374
237739
189745
341303
394999
227407
539439
266260
490567
170741
149474
318369
188213
630368
523635
196781
371047
412290
286767
306225
272746
345188
270700
410152
294753
269950
294835
370832
410226
296628
373588
278712
389946
413269
306164
432548
397950
432760
297369
334789
489795
310807
442560
278870
269948
277940
295488
294182
303136
304436
315272
503891
427836
304400
428020
345562
437425
270759
278506
277818
295070
294050
303012
304036
431359
363749
316791
347906
546987
452795
441100
275356
280374
282852
297332
300452
306167
309182
282623
289499
285931
309205
304438
313035
317652
286561
293857
285620
312488
324160
313746
322916
286321
293862
285536
312412
324180
313557
322905
291516
293512
314584
298398
320846
323036
329539
288144
299113
290588
326221
315648
318651
329312
664028
366850
518479
383097
322160
566115
464184
302333
297229
293646
322529
338406
327261
333380
304691
312727
304705
337612
328410
337620
347584
328203
369164
326624
336682
382384
338256
380423
369069
327909
326514
336587
382261
380371
338025
330385
377759
334014
385062
340437
344047
389356
301392
316856
306723
344571
332886
339909
352365
304106
303172
314217
336064
334748
348489
349912
303265
315639
314343
336257
334817
348605
350213
308966
317562
320643
338309
341662
352425
356147
383209
344348
338662
348740
401915
354473
394959
347730
395231
361914
407907
349332
393139
360240
347683
407945
361954
395204
393129
349245
360256
312489
329560
324590
351581
346060
360995
367223
364360
398089
351646
355312
418162
368246
402610
351020
407470
358852
410261
361288
369500
420395
322668
324776
313733
348753
374282
359697
362182
360128
415873
424539
379720
366103
373338
408513
329138
335858
358513
343948
367287
375130
385083
328771
343745
327544
364647
385595
366221
383814
343887
329149
327676
364805
386088
366621
384016
331252
351878
334742
388915
369086
373284
393708
418901
379498
368226
379502
447953
391633
432764
424880
387577
373311
382163
455043
397301
435988
376456
425410
374669
391459
449102
393384
446459
425498
376619
374743
391588
449433
393681
446605
357030
345019
339235
378756
408120
385871
399952
379143
436778
383364
453221
396460
401122
459339
349389
338140
354205
391684
378263
397396
412310
443822
395832
388863
407161
477628
414930
467315
372339
352403
361760
418493
394936
406232
431312
393033
466661
423804
470555
406249
409257
449700
434457
436833
507183
411132
475038
413249
472117
507842
504162
434705
411319
475526
413691
472323
404551
478498
415367
490855
424736
436931
507531
513076
479933
416840
422078
521352
447105
486991
396327
387638
373425
420053
465630
436674
446885
428863
465158
508375
532355
437675
454921
496254
444889
496345
428668
451968
554386
470364
528338
243438
223086
235988
212184
263230
234163
231982
258921
211329
216828
218429
214540
217040
225781
223908
229216
215395
222552
212859
220429
220060
227596
231544
224842
225863
232020
235745
236538
230927
228648
238796
234597
232993
227069
232941
237437
237906
223914
226355
234308
244421
232636
245781
231691
250362
237932
240325
228854
235932
247741
240673
252113
259653
245051
245836
239566
253071
256948
243503
248636
241822
261230
247028
254740
317407
427546
265742
396837
240690
366439
437041
639074
570433
464353
306294
371382
269030
231185
261186
226104
251905
262715
235735
423135
303511
368712
383341
372325
353334
290233
714808
812261
695432
707770
602654
518401
639675
433594
538450
462051
446873
487119
446681
433681
439764
423628
434386
419943
408452
425307
412462
301424
347078
356064
366334
347183
348821
288586
231212
218809
224886
222601
229557
227055
233436
273406
245429
235027
264560
283637
255282
266357
400741
374884
361644
399546
386915
394372
372420
228872
235270
225810
232630
228789
235205
237225
344947
512290
535628
311851
421934
423466
339056
455828
441239
466800
441477
429783
431881
437575
587598
605404
658510
534697
560144
495454
479225
308180
388710
380444
401346
332022
394709
335076
230339
240288
236171
237201
231566
237127
241502
429993
416290
416510
424154
424682
414358
416199
373789
299518
363069
328375
388248
378485
323544
330320
352712
341866
337313
330792
353717
342253
257400
247298
234929
253622
240491
238927
243545
234988
238199
232706
238336
244596
240141
242569
401678
378058
399157
399921
389648
381313
404856
294681
331093
347807
364943
311331
349190
317412
232817
238426
238302
240745
240180
242662
244653
321113
325320
325214
328709
325862
336878
336001
264819
256601
261147
246297
242807
246249
248791
493646
384814
502747
425704
376970
360653
425272
408319
373783
408288
353761
402826
356878
412279
268169
265598
259704
245646
250467
247791
252223
358730
354928
345332
375737
364672
354162
367096
319947
290043
315417
307882
337311
331577
307893
404745
350210
397600
389974
364842
399271
345483
239127
252380
245452
248525
243388
248547
254479
245595
258791
248604
255787
248282
250935
259232
269064
249762
251968
270962
253979
256365
274399
274348
265673
270882
249683
256306
251928
253889
379095
359433
380272
332764
365545
391059
339320
319433
294359
315581
330665
317627
333746
311221
335100
349109
337964
349355
363710
348718
363556
459053
309284
199240
215835
413644
509290
193354
211184
482570
302233
342680
410535
437230
272481
246941
362149
350929
395230
232953
207974
212322
221395
385033
455776
425188
249836
234652
221865
274176
380672
417174
531351
503525
469063
305382
342633
195095
197326
191637
190576
191885
196505
193767
205958
210002
199052
196147
202753
194386
198794
203359
204727
208065
205337
226129
202673
198615
206235
247683
279342
206543
194594
216306
195211
426611
307271
396302
533536
454246
219105
182738
136859
233653
66156.6
199617
301504
284425
212705
160508
126400
212988
165925
126299
225158
216552
173442
124797
95989.4
197603
42826.5
153842
103965
453511
340690
375610
387112
326929
356970
410449
426041
644432
842951
320177
460841
601065
492848
147059
179697
170231
205629
249705
218398
255435
492577
480927
426456
391664
477432
442172
436078
265560
269767
215661
375335
308945
298118
349709
413322
287992
410812
257195
259848
367655
364782
135376
165648
155655
127854
156372
166746
137258
109429
111276
115420
111189
92957.6
116273
106440
76120.5
120240
171009
29664.1
59187.1
87733.7
87302.2
238268
236801
193830
231628
192259
197529
231767
223658
213310
241190
227147
253746
225296
240379
380789
367716
339942
360892
409486
400140
378355
205494
162456
191953
279877
245631
272185
292718
336291
408382
457174
552934
410966
478939
379036
560947
702815
673778
532546
496624
578131
612628
129594
154484
157744
168321
139710
140095
165318
110190
84494.4
90198.8
116843
118231
105946
102688
385443
427495
452988
422044
422456
395285
420832
266854
225733
265642
302995
339701
312542
341542
227356
184081
191129
196536
218799
190803
227515
292286
357547
283121
343922
277494
346856
333710
185110
146799
175317
175333
160556
148145
183246
148780
141843
125221
141876
125960
119659
139596
29932.6
60299
57084.9
86294.2
94598.7
90164.5
82153.1
213858
238286
326189
248248
241642
350034
338243
244887
205489
240867
202372
237279
208419
233439
286509
224293
358932
124214
230542
164866
167906
312716
377559
390138
443894
353503
421357
364960
761615
805828
763475
644680
725337
693125
647637
473981
595672
612366
522278
446894
425933
518975
498068
460005
468402
531276
548886
563530
511007
274619
310206
330086
257098
269093
320842
304656
229124
217667
211675
206414
208220
210608
214318
176639
164523
152946
181544
151919
173683
184107
434912
415444
391356
425522
398180
382128
408553
318902
228167
214656
403840
266620
204504
222087
234155
439092
264900
376304
326397
231044
223249
241477
317063
235296
272614
208258
215622
215062
210454
201277
232075
201244
221181
195968
206385
228729
121742
202338
148128
165592
126164
161515
146366
148547
133690
130664
121710
148154
123029
143361
285268
274276
274330
332363
338476
325687
320645
220078
208880
212136
217138
224968
211984
219626
358239
257703
284338
222128
232132
233044
224242
222306
214999
224164
233148
244045
216840
221091
287373
227317
242622
268530
285997
231389
270571
480167
397326
463531
435550
453405
410104
485256
585107
563403
666281
609748
631864
555399
592890
266183
255703
265791
313502
297041
299586
309602
392404
344858
370037
363609
363380
342351
387548
219075
217445
216580
220848
214534
221602
228638
351731
385173
388626
427992
173709
297786
184112
125828
404776
331115
341447
336272
367830
356661
317945
151210
123275
131429
199914
236762
258297
213335
312239
306870
337945
358813
336230
350422
366169
165202
235393
294145
263251
277889
329881
359339
356684
364875
395046
371050
363185
399489
334283
230814
177221
148772
295490
290377
349616
244703
392448
381324
410070
478686
373038
436350
428292
408386
355722
480804
376931
504153
428057
441572
380868
418571
388510
374375
401019
368636
403165
233583
222460
229612
224424
217939
225839
231331
318471
318764
298244
340418
320355
303145
323535
214411
223010
217068
206932
213044
222696
212230
214558
224302
218467
227920
206092
214643
211933
232161
210622
218949
236628
229464
216801
224198
217898
248707
255547
220812
223940
259278
253171
244493
284522
284368
241646
235801
271912
274573
358611
385983
338871
364214
340509
355005
385128
235113
223127
246328
241112
229204
233984
229142
232347
221631
241890
232589
242369
219343
227756
237245
243612
245808
232494
223625
220533
229460
248037
235523
227464
250575
243630
231426
238095
279431
306920
285390
291544
308242
285485
313096
322931
344250
321976
307239
337142
310341
329644
57336.2
91037.5
566996
333759
356343
528589
717415
390714
140464
34810.6
169160
296480
92155.8
114984
300475
76425.8
131753
119108
238364
133410
117144
210896
11534.3
605871
687684
513766
380019
426931
281138
457072
569745
300027
379895
214064
297061
216288
362108
462855
460082
333953
394387
230788
311807
380160
240452
384031
221975
168942
320735
473883
412260
226948
28893
74912
120860
329495
288136
373801
431580
335272
291771
135668
430684
616135
482449
608604
621356
449660
531131
472712
376511
462950
565367
670206
524133
566226
573524
700424
544281
667203
219740
357182
460353
412259
185188
251104
339965
107462
222109
102262
169999
120964
57305
256632
356277
305481
221853
311513
430953
393907
377395
495091
416853
458269
497055
468714
454639
495669
15134.6
8979.76
9526.59
32988.5
224305
266059
73385.1
9762.76
12859.8
23891.8
11956.1
10775.8
14799.4
9512.36
21722.1
64583.4
75383.6
53176.4
19094.4
85782.5
43750.5
58945.5
19690.7
49365.6
55800.7
13886.2
59068.6
13286.3
55106.1
9091.08
9449.46
10016.1
9324.9
9057.98
9064.28
9210.17
33739.9
155730
219756
219962
97001.9
114152
116545
13232.9
35633.6
141090
14307.1
10455
60763.7
37320
31683.2
141020
218332
95581.2
93047.6
35442.9
128433
10451.8
9222.15
20969.6
10012.8
9197.49
20628
10503.9
46634.2
12980
53285.3
99342.2
16081.7
22651.4
75212
448739
550956
682038
511711
488053
348859
641909
283148
154488
165957
337844
320039
231842
199150
566113
495674
536396
555615
653470
563915
668073
218158
121250
105049
212445
85359.4
247181
228995
432991
464509
472254
372058
381195
413974
372330
338176
151564
167469
225918
187892
283222
273011
518459
495496
505285
481302
393552
444647
428226
333792
375492
322287
294829
270397
328838
239147
436405
358509
222188
441197
259451
550329
352778
644649
568703
554357
553609
564206
643146
495276
160274
28419.2
96855.5
180603
47036
225082
115060
68422.7
9464.81
164292
410910
410457
9688.28
11779.6
12242.8
19758.7
107956
16845
92676.4
68016.3
173054
201933
238198
122208
114272
212761
14798.5
37065.9
57305.3
81850.7
29883.4
22115.5
68012.8
152432
99052.8
130867
128655
159551
117805
142358
234983
1.12294e+06
1.34781e+06
432857
243104
1.31509e+06
235271
9523.25
9664.91
9994.4
9782.48
11734.1
10846
9512.19
253293
279626
187282
291975
206989
171746
228179
99847.4
21319.1
110728
9933.85
17112.6
28094.4
82603.6
175186
84351.3
116497
66506.5
157647
104162
194043
104937
130704
80353.4
89904.2
107521
133690
116588
12673.3
28874.6
27364.5
18968.4
53405.6
21056.8
57677.6
125025
146967
145155
122245
122002
139770
146111
98378.8
77937.4
55669.1
46376.7
106716
72484.9
92654.8
9757.53
9796.6
10224.4
10913.6
9949.73
11547
9654.94
131333
200010
155931
161263
190944
146296
209905
247564
188843
187621
175882
231350
184867
229300
11270.8
40794.9
18965.8
15305.7
13356.4
31827.6
10276.4
1.23983e+06
1.22126e+06
913643
1.34805e+06
977764
1.00831e+06
973868
40548
75751.5
103549
64484.9
41595.9
68137.9
85929.4
104014
121820
117715
137673
141317
128065
146328
40010.3
51836.4
56181.2
28519.1
30949.3
43735.6
62811.4
90073.8
71505.7
79279.6
89929
101589
101043
78798.5
171219
204864
225828
174634
161445
182460
220325
117164
154996
117222
171931
131777
129498
164446
14703.2
11308
13587.5
34244.3
16839.8
29701.7
10512.6
1.04203e+06
688942
1.23681e+06
555717
893312
715176
365692
11096.7
10693.6
10804.7
13633.3
14202.1
22566.5
13077.1
1.33344e+06
1.01859e+06
1.32024e+06
917288
1.032e+06
844797
584728
697951
292270
622961
314908
664016
497060
240552
54888.1
61189.2
42723.7
54875.2
75353.5
65531.6
68426.5
70314.9
64844.3
48458.1
57286.5
82941
70823.6
71979.8
107267
75730
96893.2
107307
93086.7
115411
84376.5
90392.5
131357
116042
114458
103158
89850.9
127714
233895
507348
330641
255216
313153
249600
352648
243383
62786.6
164357
451395
13101.6
9791.05
11979.8
9691.66
19019
9486.14
9529.34
78738.5
51967.3
144248
210633
108780
19079.8
151134
9674.99
10829
11434.6
13955.6
10103.4
10612.6
15325.3
21592.3
70105.8
61549.2
44885.5
110235
86891
42176.1
363013
313372
254276
285311
402642
284493
229145
9622.94
9535.77
9609.56
9620.28
9540.89
9632.05
9720.19
191515
140567
109305
186817
152103
122474
158548
23081
10484.9
14151.7
11984.9
38067
23078
16590.7
58438.7
27906.7
11807.9
12681.9
53356.7
21022.4
28869.2
80220.6
34745
68899.6
80301.6
62387.8
51952.5
83092.5
134522
81872.7
131213
106216
90037.6
116746
68435.8
444569
285789
268102
334721
230531
378603
312376
10077.3
9728.88
9689.7
10083.1
9848.17
10992.9
9796.48
10946.9
9711.14
9777.58
10237.9
9974.89
11564.5
9808.96
105814
138118
101300
106107
146255
144633
107973
161604
197341
154806
132934
191926
146553
175229
9551.77
198304
1.3595e+06
9349.92
9071.24
11443.9
10203.2
9336.18
9610.06
10089.8
12257.2
230457
674378
661747
260190
42003.1
156263
10119
9229.18
9412.5
9679.29
9395.25
9331
10170.2
137180
53437.6
19689.4
128082
12851.4
73942.2
21366.8
1.63017e+06
399513
1.12808e+06
888194
1.40759e+06
229844
337661
9151.01
9345.56
9163.11
9172.85
9262.6
9227.09