/*--------------------------------*- C++ -*----------------------------------*\
  =========                 |
  \\      /  F ield         | OpenFOAM: The Open Source CFD Toolbox
   \\    /   O peration     | Website:  https://openfoam.org
    \\  /    A nd           | Version:  9
     \\/     M anipulation  |
\*---------------------------------------------------------------------------*/
FoamFile
{
    format      ascii;
    class       volScalarField;
    location    "0.0033";
    object      impulseMax;
}
// * * * * * * * * * * * * * * * * * * * * * * * * * * * * * * * * * * * * * //

dimensions      [1 -1 -1 0 0 0 0];

internalField   nonuniform List<scalar> 
26548
(
144.437
130.896
19.7456
100.356
0.00498385
0.0999336
5.11489e-05
7.95191e-05
169.745
203.148
148.727
135.002
0.0329877
0.0117361
0.00275519
0.000996974
210.686
151.943
199.142
155.37
201.57
172.282
212.896
158.677
165.248
209.295
139.337
191.009
149.723
197.629
194.396
148.073
196.892
118.793
114.166
185.794
183.1
185.976
142.071
190.906
111.092
179.299
96.7397
176.78
211.772
207.236
208.346
199.211
200.385
196.488
195.293
212.509
209.531
209.121
201.603
201.179
197.304
197.742
207.571
205.81
204.03
197.692
195.789
193.743
191.805
205.516
199.522
201.931
190.908
193.526
189.5
186.826
201.122
205.763
205.334
193.034
188.79
188.313
193.488
203.4
200.299
204.532
192.192
186.195
187.446
190.973
201.933
195.756
200.107
184.556
189.382
187.397
182.511
206.145
198.359
238.42
208.562
240.404
192.45
189.825
227.191
224.715
204.67
230.991
235.204
188.192
190.135
223.176
221.999
240.879
236.648
236.202
229.722
229.277
224.941
225.395
239.553
234.224
235.359
227.322
228.443
224.109
222.99
236.983
232.757
225.908
230.958
224.168
221.557
219.804
233.195
226.698
228.937
220.01
222.198
217.812
215.577
232.123
226.745
231.68
220.206
215.471
215.012
220.661
208.099
219.234
218.781
214.273
203.772
214.739
203.294
229.682
225.879
230.826
219.372
213.03
214.169
218.249
216.839
207.272
217.954
213.442
201.305
212.33
202.457
228.18
221.311
226.357
211.521
216.79
215.004
209.687
215.412
202.866
213.669
199.793
210.873
209.103
197.937
216.789
224.3
219.182
212.963
205.129
207.56
210.642
200.767
209.424
211.668
207.063
193.25
204.737
195.765
209.292
198.433
191.941
204.243
203.754
209.769
197.942
208.457
195.897
191.062
201.734
202.904
207.32
197.087
194.334
200.187
205.83
204.01
186.165
198.293
192.408
193.556
195.501
197.964
185.036
177.232
180.077
182.294
187.477
199.454
193.493
196.075
180.908
183.749
201.892
185.911
171.267
187.232
182.76
164.449
181.424
166.004
151.793
48.8594
27.0924
126.622
53.1794
30.8009
130.935
188.119
172.852
188.606
183.664
167.626
184.167
167.043
196.425
191.663
191.175
183.577
183.076
177.196
177.723
189.075
195.582
190.307
180.886
182.178
176.261
174.912
143.212
34.3743
42.7274
110.644
15.3842
24.7467
123.791
167.748
182.056
184.196
162.405
179.681
177.499
159.839
185.453
192.839
187.461
179.184
177.061
173.127
170.883
178.77
154.736
173.874
161.841
173.333
179.287
161.233
162.234
176.533
179.506
174.895
153.047
171.836
156.731
177.842
158.561
170.961
153.614
172.372
176.476
160.159
188.627
183.074
180.276
171.499
174.51
168.175
164.964
296.83
243.41
312.712
251.396
253.883
308.507
240.971
238.261
292.476
249.845
295.16
305.756
236.548
229.661
289.799
279.506
312.103
308.292
290.815
307.609
290.333
286.603
287.146
310.672
287.393
303.949
306.126
289.166
285.345
283.485
302.386
285.153
301.22
297.907
282.388
281.134
278.28
298.812
276.187
290.594
294.327
279.364
275.183
271.938
302.974
296.059
302.261
281.897
277.055
276.417
282.485
252.605
267.853
269.316
265.636
247.453
264.11
248.71
270.686
253.462
270.28
266.683
250.028
267.13
249.604
294.564
298.609
300.757
280.595
273.31
275.125
278.729
266.008
247.908
263.706
245.832
262.159
259.778
243.844
295.899
286.63
292.615
270.971
276.37
273.527
268.193
258.507
245.747
261.195
257.185
239.254
254.415
241.646
285.315
283.161
289.053
270.447
261.875
265.143
267.164
262.387
257.923
245.775
240.512
257.411
262.877
245.335
261.293
243.123
239.562
254.747
256.307
259.736
244.404
241.444
252.74
257.73
255.323
234.494
250.335
239.414
417.762
439.901
394.579
421.531
434.714
451.622
403.448
396.341
437.086
437.72
433.627
454.905
448.69
434.534
439.85
429.116
412.124
424.282
423.516
437.131
425.13
414.137
408.321
403.459
424.754
405.665
420.884
417.713
401.126
404.227
400.804
413.4
411.26
391.18
403.414
396.892
445.341
439.317
434.269
421.577
433.376
428.585
417.74
423.011
417.339
426.458
420.775
404.27
411.835
411.641
414.177
385.908
395.95
410.957
383.831
400.771
393.745
380.22
389.857
375.093
390.134
384.384
398.636
405.597
368.966
313.677
316.208
334.82
374.483
329.831
382.232
311.068
364.247
358.238
326.466
371.31
307.95
296.236
354.501
336.895
391.445
386.157
389.86
384.55
373.285
367.065
368.399
386.721
367.378
376.997
381.532
370.959
364.579
360.875
376.805
370.758
362.694
364.771
357.051
356.084
350.469
378.549
367.301
376.831
359.362
352.041
350.672
360.767
355.785
334.104
354.837
348.618
329.493
328.641
349.706
364.499
345.338
351.677
358.121
351.191
344.715
339.064
332.444
349.828
352.886
346.488
324.247
343.385
326.844
373.73
359.91
369.181
356.817
344.66
348.192
353.123
345.795
322.357
340.825
320.959
339.373
334.6
316.996
363.461
348.531
357.008
340.195
348.436
343.073
335.197
330.526
318.026
335.669
329.647
308.533
324.705
312.8
344.363
342.582
350.516
337.593
325.022
330.08
332.217
341.389
334.608
323.204
315.265
333.467
322.281
342.503
339.239
313.515
317.977
328.464
331.388
336.184
320.49
314.765
324.769
332.298
327.767
304.289
320.528
310.961
323.06
302.695
300.337
311.465
316.038
318.326
306.901
252.687
234.701
232.199
244.82
247.688
249.857
237.164
865.522
480.001
406.668
418.654
424.967
515.704
540.976
432.585
481.324
537.625
945.019
454.17
630.144
565.841
738.723
592.741
398.458
428.21
409.074
478.888
512.813
516.227
479.173
477.288
564.925
578.102
554.524
613.84
566.142
621.653
456.764
437.165
424.072
474.11
506.747
513.884
466.238
405.34
425.148
409.578
460.553
461.121
464.1
455.419
613.579
509.28
597.001
569.975
572.84
627.919
628.492
930.321
706.462
706.92
832.271
690.078
688.618
820.922
700.957
902.569
704.883
683.679
769.764
675.518
798.766
419.61
424.112
415.646
452.849
431.962
442.435
445.268
500.405
542.903
535.685
503.263
497.286
538.342
505.758
597.906
587.941
627.577
632.643
595.842
634.434
625.277
488.619
513.832
525.485
475.777
486.596
526.808
475.588
477.489
457.561
466.691
475.365
452.003
471.899
460.014
573.18
577.232
586.152
630.646
606.4
617.152
622.826
663.995
633.785
663.565
661.04
657.862
630.916
730.286
654.556
691.071
615.59
645.535
624.347
644.984
712.984
463.832
435.364
451.277
442.804
461.866
451.145
448.385
690.099
486.554
551.923
823.205
548.134
572.418
535.297
613.24
556.282
483.797
400.05
409.689
498.992
508.643
401.829
440.239
621.589
547.035
621.709
560.439
623.14
615.522
553.413
440.29
480.627
439.438
495.998
457.28
451.871
490.135
692.283
778.099
679.469
736.518
663.279
648.88
701.468
416.922
402.796
413.696
419.442
431.829
425.845
411.062
647.708
732.665
664.109
633.706
637.455
619.774
667.304
481.014
445.512
441.388
450.262
494.956
450.809
490.624
614.984
547.324
618.741
608.037
552.571
600.134
551.629
666.361
605.622
632.692
619.671
596.714
596.314
641.268
561.249
594.727
612.257
601.878
549.193
583.992
554.34
417.014
399.646
413.533
423.197
403.453
422.867
406.071
503.463
467.403
464.922
458.385
504.497
462.008
499.23
441.786
423.814
422.765
432.944
414.145
434.089
415.097
607.863
598.053
583.231
582.305
588.587
598.536
617.752
592.084
546.962
564.839
542.388
574.074
582.649
550.589
455.205
499.753
501.376
457.692
458.758
454.823
498.747
428.046
403.776
424.238
407.216
428.14
424.816
408.472
369.346
391.025
405.634
388.04
394.858
407.868
368.711
348.399
397.236
401.247
411.356
393.505
402.474
404.247
395.816
392.656
384.921
388.381
391.263
395.861
388.492
382.532
395.931
381.757
389.141
384.531
395.488
387.774
377.356
412.133
398.858
402.752
395.644
402.268
393.179
386.815
378.114
375.468
383.267
380.259
363.156
373.466
370.065
388.714
391.153
384.889
384.786
371.465
378.617
377.666
382.664
377.674
390.785
382.483
361.729
374.659
370.258
374.317
355.897
359.948
354.833
366.923
367.017
362.81
156.445
169.101
174.685
172.439
146.905
166.761
153.776
185.284
178.625
179.163
170.525
163.529
162.935
171.084
176.335
184.385
177.688
169.543
160.359
161.891
168.112
169.741
146.649
160.57
143.461
163.932
166.551
150.527
172.309
181.41
174.551
158.337
166.216
163.827
155.781
117.138
23.0742
121.694
86.4523
4.77787
3.56167
81.433
147.399
167.808
167.245
160.36
139.752
160.96
139.033
164.763
146.209
166.241
159.301
135.84
157.741
137.752
173.801
166.443
169.621
160.934
148.915
152.669
157.502
24.7466
17.6712
114.143
2.89696
78.1275
32.0807
1.07676
162.811
139.062
160.343
133.273
155.668
153.043
129.995
152.494
146.169
145.445
124.418
123.566
115.766
116.628
153.789
135.358
157.354
149.852
121.071
146.03
125.95
150.565
142.267
144.172
119.76
122.04
114.214
111.897
152.541
130.086
117.961
144.239
143.546
153.182
129.312
151.409
125.828
116.446
140.503
142.324
149.736
127.919
146.289
139.729
136.517
116.736
112.956
108.823
104.984
139.465
127.907
132.595
103.123
108.42
100.384
95.0202
123.015
138.061
147.51
144.683
107.181
134.947
119.421
134.953
128.738
136.953
105.562
93.6854
96.0676
103.209
130.148
139.036
138.285
107.138
98.5388
97.6636
108.009
141.212
109.686
102.405
126.4
131.09
137.01
114.997
132.282
120.209
128.896
90.5251
100.088
96.1951
86.5932
119.818
115.838
124.755
91.5416
76.4499
81.8974
86.1291
120.866
111.2
110.339
88.2119
87.3393
76.1797
77.0431
119.373
106.421
108.771
83.3291
85.7317
74.5722
72.1704
110.364
103.282
99.3367
80.1427
76.1861
68.9893
65.0527
105.773
88.9868
94.5716
66.0477
71.4806
60.3882
55.0332
3.36656
0.0417417
0.0092266
0.00689712
6.394
4.17935
8.12383
89.1431
52.4051
88.2691
80.261
46.0377
81.1194
45.2966
84.3207
50.9721
86.681
78.6893
41.8704
76.3526
43.9118
99.4174
85.5668
98.5364
64.2898
52.6604
51.8525
65.1336
219.714
103.652
70.3505
0.00141801
1.69566e-05
200.473
129.75
0.00534888
0.000127681
225.919
184.726
195.604
184.389
214.113
203.901
164.179
190.257
137.835
154.542
114.075
134.439
181.715
188.096
228.58
224.24
217.597
221.498
214.88
213.072
210.241
222.98
215.027
218.442
208.373
211.826
207.041
203.411
219.442
211.093
216.586
202.355
208.016
205.036
199.185
125.578
170.632
179.38
90.1812
170.317
146.989
65.3101
206.888
192.464
204.014
190.351
202.078
199.054
187.013
197.461
196.794
193.707
187.911
184.524
183.765
180.283
209.786
207.7
213.386
201.652
191.512
195.589
197.798
188.864
197.017
200.741
195.594
178.763
191.631
183.167
194.072
186.258
190.217
176.348
180.695
176.311
171.76
196.65
190.504
177.607
193.436
173.81
187.064
180.809
192.692
184.757
189.5
173.913
179.134
175.505
170.075
246.21
262.455
238.147
291.428
226.898
275.736
263.895
216.819
287.595
272.932
286.734
282.795
269.557
268.576
265.128
266.083
279.651
283.662
274.741
278.794
261.552
257.811
252.701
240.878
255.674
236.666
251.49
248.429
233.868
281.473
271.885
277.55
258.452
263.765
260.256
254.899
548.621
401.116
347.138
587.455
654.365
557.201
568.06
541.844
557.813
509.068
510.263
495.387
401.254
456.35
400.405
486.171
395.862
382.782
363.484
389.928
383.84
342.556
371.541
328.614
631.963
625.141
618.651
612.752
608.7
600.719
593.905
609.292
559.374
600.979
552.566
591.638
582.2
549.053
450.138
504.055
454.994
500.456
453.396
457.283
504.339
420.926
401.972
423.898
401.782
423.056
423.259
400.515
599.626
602.485
608.486
593.943
575.928
586.863
582.117
583.246
578.76
591.878
586.609
565.057
573.71
575.104
381.692
388.152
387.461
378.032
377.18
384.125
372.185
578.389
556.025
590.224
572.192
534.749
562.179
542.586
573.412
556.3
528.093
564.501
521.148
548.414
535.393
464.798
508.975
460.024
461.644
504.309
505.791
464.757
500.79
457.948
496.727
459.105
494.056
500.966
458.583
426.375
401.883
425.23
424.125
398.077
426.347
399.338
580.795
566.761
561.993
559.204
567.243
573.486
570.657
422.755
397.756
422.595
422.649
395.262
423.192
398.016
373.157
358.028
368.306
356.831
367.282
361.652
351.051
385.539
369.161
373.736
378.592
381.136
367.492
363.43
379.926
365.498
371.413
376.061
380.048
366.155
360.786
555.762
521.285
514.738
533.302
540.801
547.219
528.308
461.374
495.803
490.49
457.4
499.33
458.333
462.009
424.265
396.126
394.806
426.131
424.799
426.72
396.268
357.945
352.574
363.19
356.345
340.454
351.463
345.594
349.647
353.859
360.557
354.89
337.264
348.545
343.976
374.765
373.167
377.009
361.875
354.557
357.211
358.624
349.888
334.23
332.672
340.752
344.15
345.598
338.844
296.313
336.166
309.336
352.313
292.066
331.52
323.546
279.495
346.767
339.751
345.68
334.484
340.123
333.609
328.388
341.438
324.553
329.468
329.803
334.878
323.452
318.624
325.507
305.025
320.661
304.194
319.792
315.012
299.794
338.63
326.488
333.249
320.052
326.969
321.921
315.161
311.372
315.984
300.698
310.337
290.989
305.657
295.365
317.437
328.247
321.792
317.099
306.035
310.485
312.362
298.372
306.856
313.584
308.858
287.88
302.281
294.014
304.205
285.364
283.698
293.458
297.817
299.631
289.678
231.983
235.205
249.566
245.192
227.484
241.724
230.818
269.488
273.562
267.94
256.609
247.291
251.21
252.777
232.034
241.748
246.864
243.709
223.861
238.492
229.127
240.352
222.452
220.507
231.252
235.007
236.741
225.948
189.74
172.015
169.377
178.633
183.153
185.543
176.72
176.539
185.868
180.932
171.328
160.557
165.645
166.521
29.5423
14.0691
108.618
81.2446
3.47132
104.596
11.9385
173.098
149.746
169.15
148.722
168.277
164.163
143.692
182.914
177.025
167.977
173.252
163.887
161.203
156.829
159.454
144.22
164.623
159.436
131.057
154.024
137.851
142.083
156.639
162.822
158.503
128.672
152.073
136.731
175.308
163.904
168.911
153.712
159.175
151.724
145.744
162.704
158.284
166.293
144.426
153.448
148.662
139.104
153.53
123.182
121.919
140.597
146.777
147.801
130.477
156.09
153.079
161.593
143.03
125.534
132.85
136.422
7.11328
49.0395
20.1686
21.2619
0.410885
10.5696
0.119112
149.603
119.317
144.699
115.281
141.482
136.106
108.514
123.647
122.399
116.012
97.0566
90.2284
88.8994
82.0198
112.026
132.197
138.942
129.772
91.9464
122.34
100.735
103.448
120.789
131.983
126.017
82.7338
114.168
96.2635
116.623
100.425
108.694
74.284
82.6315
74.3944
66.0661
114.033
97.6801
107.362
70.2742
79.9614
73.0581
63.4012
119.005
79.0922
74.4246
97.5864
106.451
110.826
88.1371
91.2917
89.8915
99.7817
65.4532
47.7934
55.8812
57.2016
0.240277
0.00604924
0.137897
0.00459603
0.115201
0.00171561
0.287349
0.0261428
0.176604
48.2892
40.7094
44.8263
0.231709
0.37757
52.7219
0.147632
0.0668074
45.5342
38.1279
27.4414
0.0969341
34.061
37.0854
41.0662
0.180951
0.0506678
4.96169
0.0638983
6.06316
0.0383194
0.0181325
34.5863
24.3122
13.513
0.0332831
19.2954
0.0215665
9.96349
14.9738
2.36772
0.00266196
0.00569129
5.40598
46.0969
81.2093
77.3704
39.2064
73.2726
69.4727
35.9679
94.4812
83.9145
96.9136
62.7029
48.0109
50.3115
60.3303
38.7982
59.8338
28.0216
67.6124
72.8309
64.9822
32.2126
82.5815
59.9219
94.0985
86.9989
75.3739
53.1513
42.4815
91.2355
74.0063
87.1724
44.9821
57.1953
53.3314
41.2729
71.6312
30.1471
38.5336
63.2307
62.4124
72.4727
37.8297
7.48937
1.58905
0.00189427
0.00159995
0.341483
0.0310264
0.000848758
54.0646
23.5032
61.7478
24.4204
55.2787
47.7307
18.8047
70.0784
34.559
58.6155
28.9081
60.8856
67.7691
36.5055
43.5998
63.4237
76.6106
69.0952
82.2917
48.7814
36.9438
32.0266
55.6307
64.7269
60.9804
21.9418
51.9623
28.9661
79.0679
58.7389
67.4081
38.0218
45.8125
35.4727
28.1844
42.7579
51.514
21.5897
56.5623
18.7749
47.6547
25.4543
26.7996
37.8636
49.9674
57.0262
70.1521
62.9578
31.6872
46.3628
50.4261
48.4572
18.1312
17.9957
16.7318
19.458
50.7012
51.9037
49.9034
21.0394
19.1137
19.642
20.4853
0.00382268
3.6134
4.75732
0.487209
0.351301
0.000912358
0.0011175
22.4906
53.4577
52.6699
42.544
15.754
43.2899
15.2673
43.8211
42.7057
45.8709
16.4247
13.1967
15.1054
14.4191
48.0552
44.0782
47.2822
17.3515
15.7399
15.2788
17.8498
48.9758
21.3735
51.184
41.1223
12.9874
39.0133
14.3331
43.6559
42.2038
40.3822
16.1683
14.984
12.9717
14.062
0.000579539
0.570122
0.00159196
0.00315202
2.9857
0.280371
0.000781939
46.079
15.2451
42.5335
11.3089
36.2562
32.9068
9.40518
19.1752
40.794
48.2629
40.9108
9.82787
33.7225
14.1531
41.1714
35.0087
37.9666
11.6794
13.4604
11.5751
9.95639
39.0182
33.0213
34.8788
11.1042
12.2095
9.91474
8.94913
36.8431
40.346
36.1545
13.409
12.9903
10.9701
10.6017
37.3435
45.886
17.5127
39.7536
8.64662
31.5097
13.422
38.354
32.3813
36.5979
10.7982
9.4329
11.775
8.59103
31.4183
30.1557
34.2677
9.55645
6.33038
8.1338
7.52987
6.31387
26.7276
27.3386
32.2356
31.5829
8.559
8.24657
31.5747
30.6237
27.7443
9.74455
8.21822
7.77437
6.47394
5.48668
9.85164
33.7343
12.588
38.3956
29.0371
7.41346
15.7239
34.2818
42.3367
46.5993
55.0758
25.2353
18.75
5.5997
23.9318
25.5866
28.6024
30.368
7.66693
6.85947
28.1194
20.8597
24.4572
5.08397
6.62795
5.14427
3.8853
3.40804
4.20895
21.8103
26.3294
23.6108
5.88906
4.83587
32.2909
9.4503
22.9243
4.55806
22.325
32.9775
9.09019
30.9684
7.41796
4.13807
19.4456
21.1579
29.013
8.3972
4.36624
21.7076
22.2666
17.1948
16.7013
2.81295
2.68432
33.2194
6.19893
19.2409
5.75224
25.4021
26.4439
9.55556
3.83527
19.1421
20.6576
14.4439
15.7732
2.44738
2.12751
16.488
2.62326
1.91437
17.2073
20.5311
3.78449
2.81022
6.24005
17.2646
26.4766
23.436
2.21846
14.7216
4.97044
0.0369838
0.000434517
0.000269979
0.372029
0.00109003
0.00656707
0.000484163
3.78019
7.21921
28.6475
4.89313
23.273
15.5084
2.40527
2.24928
2.8201
17.2199
12.7781
10.8657
1.76193
1.39062
203.787
213.722
174.621
208.379
159.925
204.333
166.154
180.826
217.575
211.729
193.8
143.674
181.186
171.626
156.785
202.205
216.612
214.855
213.891
207.612
206.415
204.349
203.182
215.356
210.96
212.624
202.89
204.842
201.638
199.688
209.401
208.916
206.538
200.592
197.959
197.373
194.714
211.801
207.39
210.825
196.819
200.766
199.614
195.676
207.836
206.082
209.536
198.076
192.14
196.113
194.126
206.754
200.83
203.845
191.639
194.983
191.699
188.315
205.745
199.739
203.325
189.769
193.774
191.081
187.03
179.208
195.695
194.252
176.413
191.891
190.491
174.833
197.515
196.944
200.585
188.022
180.37
183.91
184.574
190.185
177.15
192.421
188.698
170.272
186.48
172.797
183.174
171.544
187.733
186.361
164.582
169.976
181.812
187.566
184.573
168.155
167.257
183.867
180.859
163.74
184.58
165.39
177.781
162.518
182.362
167.938
180.025
164.179
159.658
177.378
177.433
155.047
159.683
173.548
162.329
175.109
179.732
176.685
153.068
158.737
171.989
236.788
257.04
230.999
223.275
271.341
218.82
214.95
248.037
271.298
226.504
253.028
250.179
214.518
221.618
205.423
213.055
244.788
263.898
272.672
264.604
249.661
246.32
249.501
244.595
244.208
258.139
254.291
257.822
245.45
243.103
241.65
236.852
211.492
202.227
189.977
200.267
223.902
229.919
272.671
262.319
264.053
246.347
248.391
243.074
240.794
255.34
242.533
252.264
249.736
240.394
239.777
237.509
254.319
250.899
256.561
240.194
235.166
238.592
237.277
246.91
243.579
246.802
234.981
237.854
234.932
232.121
248.696
242.255
246.085
233.188
236.616
234.327
230.973
236.027
225.607
235.259
224.354
234.475
233.026
223.351
232.98
224.573
234.276
231.946
220.881
230.554
222.268
240.152
239.553
243.211
231.823
226.093
228.62
229.153
231.349
219.594
229.36
219.125
228.828
226.8
217.008
240.196
243.343
239.684
231.871
229.163
228.663
226.08
229.894
221.8
232.471
230.572
217.715
220.737
227.897
229.247
218.102
216.497
224.76
227.778
219.579
226.359
224.53
217.223
227.074
224.523
211.805
214.561
221.946
234.039
234.033
237.057
223.271
226.335
223.246
220.139
233.566
236.163
232.545
221.647
225.319
222.718
219.006
216.267
222.968
226.008
223.999
210.823
214.082
220.931
221.694
215.922
208.787
208.28
211.589
218.577
219.079
221.673
208.737
219.057
208.14
218.504
215.862
205.332
227.642
227.061
230.733
219.859
212.767
216.073
216.668
212.965
205.669
216.162
212.933
198.633
209.662
202.188
204.414
211.169
215.01
212.326
197.277
208.412
201.537
313.174
248.725
331.428
285.95
302.252
283.724
287.57
270.355
346.339
359.922
326.01
358.28
342.5
324.373
310.099
311.733
290.836
316.668
300.585
330.879
325.897
296.875
349.322
354.766
337.518
316.724
321.278
306.136
301.333
293.783
267.103
269.628
266.21
292.355
281.296
263.382
314.774
280.969
284.303
306.956
320.555
292.887
288.586
388.795
378.844
398.938
365.501
301.515
299.119
303.823
298.308
384.797
394.682
358.96
388.995
353.88
363.685
357.163
370.6
371.146
381.209
337.434
346.81
348.504
337.464
398.341
389.819
390.814
366.28
366.25
358.236
356.923
378.91
369.532
381.337
348.114
332.075
335.72
345.618
328.278
290.272
321.229
301.128
332.171
324.03
292.198
274.714
282.406
313.044
314.474
274.324
303.77
283.224
333.692
302.165
333.977
324.748
291.163
292.453
323.526
302.227
272.757
269.921
314.083
280.559
282.6
311.883
274.646
278.787
263.923
260.244
256.409
274.402
260.064
289.761
263.829
260.591
278.144
254.832
259.235
274.323
263.159
266.047
252.495
270.005
251.772
255.955
266.788
260.327
295.731
283.059
266.107
253.948
284.214
262.861
295.423
302.8
285.787
306.714
301.94
298.674
282.891
280.098
277.159
280.205
299.223
292.039
295.414
277.137
273.93
298.81
291.821
295.4
276.762
280.033
277.045
273.545
270.129
256.203
252.573
251.997
265.888
263.231
248.894
288.33
291.98
288.107
273.849
266.672
270.183
270.487
263.313
246.051
249.062
260.387
243.064
257.307
246.099
259.46
248.299
244.753
260.088
242.074
256.579
245.66
250.268
236.06
239.731
239.194
242.817
253.528
257.128
319.909
350.319
385.03
330.596
316.631
342.397
313.874
352.856
377.896
372.569
371.336
364.783
364.826
358.856
352.275
391.639
434.884
437.391
433.851
391.207
391.236
385.925
404.488
382.812
366.868
441.251
504.942
450.81
459.561
395.916
454.406
432.169
442.142
373.519
372.974
366.202
381.294
383.869
374.058
399.848
445.166
476.485
453.683
478.138
456.609
474.995
469.398
371.452
389.788
385.322
353.861
390.594
368.916
390.817
379.341
331.856
378.564
400.563
444.369
412.142
344.562
377.5
387.318
392.297
386.997
382.969
396.065
385.05
405.55
433.742
418.597
442.72
427.137
421.37
428.59
367.414
413.768
408.355
387.647
382.412
404.17
402.287
454.099
457.375
471.163
444.082
453.558
458.351
444.357
500.541
488.277
489.414
485.195
483.761
472.98
472.086
439.118
416.885
412.886
424.209
452.186
445.323
418.117
383.468
389.042
386.739
383.99
386.106
390.705
386.297
428.381
438.957
430.989
418
418.945
423.558
414.063
387.561
389.321
385.975
393.683
386.863
386.391
391.432
399.64
420.114
412.877
408.837
398.382
394.962
413.777
431.08
430.135
440.803
425.516
417.596
429.443
414.572
469.485
454.715
473.057
458.879
440.01
443.38
456.735
422.74
406.539
398.525
435.663
400.424
424.559
410.069
351.679
324.137
352.6
292.037
286.332
321.408
319.559
318.558
281.745
304.461
293.894
279.024
289.089
299.976
289.731
326.61
321.671
335.582
312.001
305.543
314.956
329.578
314.653
303.324
314.614
311.138
317.245
322.635
302.322
298.6
291.625
300.674
280.575
288.872
298.354
290.799
338.544
330.806
344.296
324.736
346.67
333.856
338.372
318.595
303.419
310.602
324.713
303.022
311.222
325.9
318.76
312.819
330.362
309.972
326.445
323.041
305.583
332.276
342.061
331.975
320.506
342.573
330.208
334.016
323.175
669.25
543.799
1076.55
289.47
430.701
1578.4
1219.49
278.371
318.754
337.029
276.896
328.243
351.709
291.546
1558.91
561.06
591.145
1502.49
590.923
623.085
1468.33
392.556
303.891
361.226
383.618
339.347
425.559
312.04
395.087
306.399
329.275
285.701
352.269
381.234
303.805
1469.86
1524.74
627.737
661.754
1348.97
701.614
1418.35
695.67
1274.98
671.462
1400.72
631.006
661.046
1352.98
418.275
483.171
363.328
421.893
365.928
477.536
330.308
733.055
1151.84
718.099
694.55
1212.13
726.529
1290.05
511.225
402.011
362.4
332.499
452.483
365.748
360.153
434.402
335.293
357.486
343.956
347.888
340.192
372.699
356.46
352.44
365.026
356.256
357.423
348.608
356.118
365.694
382.051
410.062
378.564
444.551
406.08
402.982
450.952
336.231
355.315
338.197
426.833
390.844
380.471
422.764
382.564
355.129
346.173
384.528
423.102
398.49
423.921
387.24
422.223
377.695
407.533
454.295
419.042
455.257
487.861
483.013
442.313
441.338
493.673
484.222
474.957
442.127
472.659
444.93
456.282
441.089
473.064
462.049
729.381
497.668
789.752
487.811
559.424
1001.29
592.616
493.116
348.846
1064.94
709.877
424.872
366.111
397.802
375.777
432.57
357.593
333.141
432.47
381.492
484.594
374.607
481.106
549.284
423.605
327.233
343.466
341.511
336.843
334.525
349.091
367.018
1390.21
1288.49
743.756
1260.22
737.057
757.985
1160.94
344.647
361.626
349.275
354.487
342.117
351.631
361.873
568.969
532.331
961.834
561.32
607.839
709.375
556.598
402.03
386.824
466.657
404.484
512.949
488.18
398.683
486.448
418.062
544.484
599.262
526.911
489.445
622.247
426.446
604.082
550.268
604.467
535.786
632.875
494.053
380.829
358.527
339.959
384.118
462.353
428.361
414.575
388.999
370.457
352.396
389.108
470.053
422.089
433.105
737.007
1125.62
746.572
751.803
927.782
732.572
1038.87
761.593
1175.89
762.27
760.94
966.051
750.314
1061.09
364.75
352.512
342.394
368.846
383.838
371.101
390.924
373.212
365.312
355.136
373.222
388.735
396.747
375.862
419.528
477.315
444.483
481.836
436.134
467.316
432.036
629.842
642.465
545.87
551.496
642.817
532.863
636.426
629.921
551.398
642.92
545.786
636.981
642.988
559.533
419.299
481.506
436.005
476.33
431.637
444.168
487.307
745.367
703.683
856.89
873.829
731.081
721.642
954.88
747.002
876.729
731.964
866.065
724.411
705.713
794.908
394.972
412.605
391.994
393.836
405.811
387.314
403.349
394.679
393.611
405.684
391.346
402.918
412.364
397.387
679.861
797.39
709.003
680.745
678.641
654.096
731.199
453.012
490.322
446.683
452.804
506.029
497.536
457.511
639.647
562.73
646.189
639.955
572.514
629.151
569.06
780.818
661.905
694.664
674.249
667.961
643.391
724.501
552.428
624.407
634.436
633.995
563.948
618.968
563.795
481.653
445.825
439.473
449.491
499.462
452.728
493.136
420.638
398.454
413.897
420.514
404.147
425.806
401.85
394.99
415.902
409.171
418.247
401.945
422.363
400.335
430.366
457.684
428.914
448.756
420.982
421.174
448.856
386.621
384.02
377.683
380.816
382.969
381.325
373.074
415.905
393.824
388.417
410.163
403.811
398.468
381.304
392.971
392.729
392.734
386.545
387.048
386.27
384.37
433.062
415.492
421.253
422.458
427.156
410.402
403.869
404.382
402.335
386.613
392.416
390.998
408.186
400.193
391.486
388.422
390.023
383.959
384.413
385.172
382.563
388.999
376.836
400.237
388.408
411.91
397.175
373.118
651.545
638.278
613.729
634.236
626.967
631.4
676.874
437.533
421.179
409.695
399.779
424.564
411.513
436.104
626.396
570.019
596.057
565.931
609.097
613.795
570.032
403.406
403.366
403.412
424.796
427.313
426.099
427.79
456.054
511.811
462.969
508.618
458.164
504.024
460.649
379.752
377.874
381.963
379.478
365.632
375.861
369.98
386.951
389.621
392.139
383.793
375.199
379.513
380.53
372.602
377.437
380.04
378.476
364.346
374.066
369.423
404.161
385.223
409.529
392.236
360.505
367.577
385.156
396.666
386.586
404.056
392.045
365.503
373.615
384.086
369.504
361.168
385.766
380.021
338.114
362.298
355.228
357.353
370.436
363.056
358.71
353.552
346.513
341.165
324.983
346.679
353.821
322.299
341.995
336.253
317.996
357.892
357.886
362.515
345.317
350.7
345.413
340.062
359.267
365.151
360.103
375.275
364.64
369.723
370.747
325.617
347.524
355.02
373.236
341.67
348.749
365.508
348.253
347.691
353.315
340.465
330.133
335.062
335.513
315.18
333.833
340.034
331.196
309.927
326.486
313.936
317.935
330.691
335.561
330.681
309.644
325.827
313.822
301.261
305.709
321.541
326.079
305.456
321.209
309.76
209.328
194.578
193.867
201.75
205.29
205.944
198.279
173.184
164.215
149.748
148.715
154.564
168.372
169.186
304.769
325.781
275.936
660.536
608.561
979.323
456.6
1075.76
362.985
313.012
298.524
282.226
397.333
312.318
379.655
355.624
274.111
334.833
329.374
287.218
370.69
361.073
292.458
281.296
272.907
272.294
275.387
283.036
285.315
277.895
286.912
380.52
352.53
393.136
328.908
427.703
306.964
1442.36
1453.08
598.221
652.457
1344.65
643.454
1329.31
310.809
296.865
295.21
310.835
295.469
297.922
313.569
289.171
290.535
280.05
292.038
298.432
286.116
301.043
318.656
310.983
303.001
303.603
324.862
310.712
318.877
630.314
1375.51
1417.09
670.335
1244.87
694.488
1295.88
285.545
301.411
288.576
292.406
321.403
307.291
291.028
314.663
428.581
376.436
491.019
506.772
415.266
323.441
456.133
370.781
568.926
406.86
534.783
498.129
341.765
690.097
1213.77
1058.51
705.815
709.603
682.585
1196.09
299.827
320.603
347.04
367.464
332.409
302.695
310.009
313.6
322.008
298.743
302.065
359.745
328.005
316.824
702.29
1108.17
716.223
1024.92
713.778
715.492
1159.76
307.712
327.646
363.151
367.667
341.457
314.749
321.765
486.985
333.823
330.795
1050.35
694.367
759.281
547.174
926.173
505.645
370.894
426.779
310.146
478.446
446.037
394.317
389.131
420.052
365.042
474.209
361.057
478.352
539.817
412.907
305.464
326.236
323.377
318.537
313.38
330.99
351.261
320.247
342.412
330.13
332.397
319.712
332.196
342.218
1314.26
1233.7
726.854
1177.13
718.477
735.109
1099.35
414.834
598.425
541.539
591.543
525.999
622.74
482.772
383.753
357.972
340.396
380.329
460.931
422.686
414.097
425.105
598.978
548.348
590.778
531.028
616.255
487.38
363.626
402.864
335.454
384.567
467.077
421.147
427.183
753.794
1142.59
747.717
740.419
941.485
735.999
1019.54
1044.69
713.857
724.603
726.519
869.947
706.876
977.357
352.449
368.692
342.414
364.712
383.011
390.369
365.793
344.14
387.138
330.803
368.668
391.28
398.117
370.143
616.606
540.136
625.174
539.74
622.978
628.806
524.059
412.808
471.622
472.273
437.326
429.176
459.399
427.648
721.454
843.691
679.628
814.078
695.061
710.675
909.69
389.383
388.7
408.103
391.228
402.122
399.877
382.204
348.757
365.57
411.293
374.093
366.665
421.547
385.41
357.463
360.261
363.955
356.86
363.666
362.606
357.682
364.762
352.728
357.559
360.158
356.283
356.595
365.108
365.93
365.47
370.77
367.942
370.344
366.596
370.865
376.052
366.1
384.999
359.59
393.399
358.507
363.854
402.076
417.934
406.934
358.272
370.819
424.184
387.957
420.261
366.305
373.001