/*--------------------------------*- C++ -*----------------------------------*\
  =========                 |
  \\      /  F ield         | OpenFOAM: The Open Source CFD Toolbox
   \\    /   O peration     | Website:  https://openfoam.org
    \\  /    A nd           | Version:  9
     \\/     M anipulation  |
\*---------------------------------------------------------------------------*/
FoamFile
{
    format      ascii;
    class       volScalarField;
    location    "0.0033";
    object      p;
}
// * * * * * * * * * * * * * * * * * * * * * * * * * * * * * * * * * * * * * //

dimensions      [1 -1 -2 0 0 0 0];

internalField   nonuniform List<scalar> 
26548
(
196058
217010
218840
254727
101350
102544
101298
101299
166744
124146
198765
218311
101670
101428
101331
101309
117574
186182
128216
181912
126327
164012
115823
179055
171664
118723
204288
135997
189131
129532
132763
191177
130724
233638
239639
141548
143996
141149
199548
136048
243548
147881
257273
150650
116713
120741
119876
130394
129368
132931
133980
116136
119010
119316
128300
128692
132262
131870
120199
121915
123430
131752
133470
135377
137152
121991
127556
125293
138059
135558
139329
141936
126650
122468
122780
136217
140224
140647
135815
124252
127246
123346
136910
142552
141381
138010
125487
131245
127078
144091
139466
141323
146059
120198
127740
102501
118365
100968
134360
136733
117732
119336
121488
108399
104898
138377
136333
120232
118901
100540
106016
106429
102464
102830
107528
107140
101631
107842
107034
104398
103475
108179
109135
103589
108834
105613
110056
107099
110368
111887
106491
113429
111572
111008
108886
113723
115923
111766
118116
112162
112767
118140
118563
112359
118669
108643
108965
113468
122933
113113
123272
113458
118618
112707
113421
120235
119223
114405
110477
119254
109562
114098
124939
115080
123907
114382
121408
115555
121527
115660
117223
123165
111710
123160
113266
126334
116383
118033
128143
124872
117041
122930
119132
127672
125191
121445
125229
117466
115172
120058
133107
122505
130384
118640
128228
134767
124125
124534
118258
128600
119303
130410
135517
126329
125229
120345
129290
131922
127786
121718
123470
140527
129667
133886
133386
131481
129059
143605
151475
148497
146350
139315
128274
134883
132013
146474
143213
125637
145807
165105
144561
148605
172070
149915
170323
194723
257061
233887
228208
259793
239546
222327
143734
163365
143235
147751
168490
147239
169166
131069
135760
136142
145231
145683
151560
151069
137994
131711
136847
147738
146476
152438
153842
206512
244512
252616
246851
205908
229836
232020
168923
149468
147437
174394
151647
153849
177320
141543
134189
139538
149396
151534
155722
158185
152475
182675
157442
174507
158012
151941
175216
175008
155075
151989
156580
185588
159899
180981
153382
178345
160514
184050
158990
154787
176453
138357
144038
147079
157717
154284
161314
165172
130214
111792
125038
108760
107641
124151
125673
126026
130218
109178
123320
123843
126183
128231
130496
132129
124741
126684
126517
126346
126114
129124
129415
124442
125138
125963
126069
125594
128763
128476
123577
124723
125944
126017
124391
128251
128095
123398
124143
126275
126123
124161
128018
128122
128399
130079
128178
131806
134668
134522
132010
108378
120056
120387
125074
114783
124742
114559
120730
108005
120642
125345
114050
125454
114316
130069
128064
128037
131594
134501
134449
131480
119677
109738
119403
115019
124410
124180
115410
128196
130900
128409
134707
131452
131506
135041
119623
110590
119358
124151
117101
124407
116079
129077
131435
128702
131672
136125
135487
132007
129593
133885
120009
125843
133787
129699
120211
129349
120482
125943
133412
133605
129071
120356
120639
133321
128829
128724
126544
133393
120971
58970.5
55816.6
85730.2
71745
61273
59410
75485.9
76954.3
56481.7
63223.6
64306.2
57236.9
57777
64562.1
64142.2
57650.1
66942.3
65682.7
59833.8
58671.1
65319.2
66306.5
82360.5
80493.7
72063.8
83589.8
73402.6
72140.1
80871.3
75955.3
84822
74813.6
72903.6
82414.9
73874.6
81575.5
60180.3
62331.9
63255.9
68210.9
65935
66470.7
68971.7
62556.9
65899.8
64519.5
67329.9
71240.7
70014.9
68409.6
73476.7
83790.1
81948.5
73831
84259.6
76106.6
82182.7
84942.6
82734.5
85847.3
78033
83565.8
75522.6
74540.3
92874.8
116841
122078
119591
103253
119179
95709.9
121796
93671.6
94611.2
118523
92170
121963
123197
95286.9
98861.3
93169.4
90267.6
94227.9
90527.9
103995
100334
100243
95170.8
104789
91611.4
91048
104595
100636
100946
95875.4
95750.6
104670
92735.6
104222
101264
101611
91254.7
93140.4
91307
100955
102508
102569
101078
111967
119625
112311
109725
119352
118871
109935
95361.4
102502
94341.3
93497.9
103490
102133
102772
119550
112227
112459
109711
118455
109751
118574
91693.5
94376.2
92305.5
101156
103427
102914
101571
111756
117787
111001
118420
109809
109952
118478
93113
96365.3
94087.1
104102
102156
102920
104942
109222
117174
110018
110266
118772
110624
118626
96494.8
97639.9
95304.4
103836
106865
105909
104727
110799
112436
120667
121853
112306
120301
111094
110751
121742
120034
112663
112384
110926
120067
120108
113057
111232
111662
122256
113600
120277
112186
120891
122658
114895
114243
112703
120559
128824
122552
127196
134221
133666
129198
121581
66490.6
46713.9
40655.1
52534.2
49146.6
64849.8
64800
62367.3
51646.4
51926
70328.1
47380.3
74252.5
67870.3
76414.4
70915.4
40375.7
42532.6
41723.2
47453.7
48507.8
50247.9
45817.3
49200.2
59895.9
60028.2
56854.9
66499.7
57564.2
65541.2
44588
45883.1
43615.7
49227.6
52984.9
51727.8
51043.4
43774.4
49809.1
44716.3
48522
51307.4
47247.2
52129.7
59058.3
50700.5
59690.7
58099.8
57855
64396.2
63336.8
69192.8
62502
62173.8
73411.5
67654.7
66746
72043.2
61133.8
67780.3
61705.6
65706
68929.4
64787.2
70418
48280.1
50996.3
46300.1
50101.5
54731
51879.5
53302
53732.9
56932.3
64976.9
59120.8
60281.4
57973
52141.8
64800.7
69993.5
74870.4
71121.1
64459.9
69794.4
73615
55314.8
59212.9
64879.5
62252.5
61317.9
58664.5
56798.3
56866.5
58339.4
54406.5
53072.8
59461.6
58209
55473.8
63269.8
68853.7
63770.7
68351.9
70751.2
72147.8
67048.1
79150.1
75703.4
72034.6
70798
77691
74414.1
74915.5
69424.6
71479
71637.2
75975
72995.8
68122.8
73158.4
54717.4
58343.7
61121.9
60890.1
59681.2
56426.3
56846.6
57846
53778.4
54249.1
65006.3
53111.4
69011.4
67281.9
72687.8
67338.5
49000
58381.6
54097.3
66946.5
65115.5
69223.1
58042.8
58496.4
54101.1
57803.1
58393.8
62423.5
61523.5
58583.3
48339.9
51173.8
50767.9
54393.6
52979
54848.4
55851.3
60398
62907.5
59258.9
67432.8
63778.7
62714.9
65754.2
50363.4
55617.7
52340.6
56292
53704.4
55526.1
57942
56188.5
60297.2
57796.1
61458.6
61689.4
60162.9
63684.1
52854.2
54112.8
52776.9
56494
57817.7
57878.9
57022.7
55775.9
54413.5
56854.4
60657.3
58433.3
59720.3
58542.8
69933.2
70515.5
67040.9
66103.9
71271.5
69612.9
68446
63055.8
69698.3
66031
65256.4
67190
68963.1
62957.3
55359.7
57109
54072.9
57312.2
61507.5
58913
59736.1
59975.5
63140.1
58194.5
59581
65655.9
64216.4
60901.9
62492.5
59901.2
63908
59677.8
65540.4
63978.2
61568.4
65127
65453.9
68208
69986.9
68835.4
64247.4
66820.4
64535.7
62954.3
67962
67171.4
68334
63893.9
62929.4
61002.3
62436.7
66263
66770.5
65483.1
62351.3
61728.3
61435.2
65331.8
67288.5
67356.4
65629.8
63098.9
63438
86017
63235.3
60176.5
86231
67350.9
67407.8
86969.4
91254.3
61263.6
67915.8
61098.6
68690.2
62478.2
67402.4
68616.8
62315.9
69920.8
69391.7
65768.7
64112.6
70123.1
71622.8
76741.4
86450.8
77275.4
83240.6
74890.5
75962.7
84077.1
63966.8
69028.1
65522.7
72641.9
69673.3
71111.8
74194.4
77697.5
86412.1
77611.7
77281.5
86160.2
78559.6
85124.5
69188.9
70873.5
72723.8
72882.3
77832.6
76034
74625.4
79305
84580.2
76665.5
77988.5
88265.4
80753.4
85748.5
79650.4
88588.9
84136.3
89817.9
82497.4
81220
87211.4
180912
162532
156647
159025
192998
165120
184235
141969
148753
148289
158694
166600
167212
158153
151002
142744
149614
159678
170127
168338
161248
161985
193819
172381
197957
168371
165585
188484
155386
145681
152883
172561
163367
166159
175746
239549
226583
234219
261407
150096
139722
263274
192020
163895
164508
172297
202901
171633
203879
167252
193598
165577
173479
208696
175333
205770
154068
162430
158560
169712
184760
179785
174060
232753
213092
242892
133667
264356
246954
114298
169490
204190
172385
212726
177855
181193
217906
193879
201707
202648
240448
241191
247161
246575
180581
210004
176022
185497
231367
190862
224191
196316
207106
204426
244563
242600
248325
249978
181793
217372
234620
192805
193660
181046
218427
183171
223733
236631
197854
195293
185337
220521
202151
210786
215488
247043
249872
252027
254331
211888
227763
221190
255756
252809
256742
259064
228019
201430
188331
192290
247991
206247
233217
217013
225297
214129
253438
258766
257730
254767
223339
211226
212219
252521
256724
257029
252080
197351
245658
252694
219562
212292
203631
239210
220931
236560
225811
260080
256423
258229
261495
237540
241640
231429
260103
263672
262764
261904
235116
245517
246221
260548
260743
263113
263098
236901
249735
247654
262018
261267
263310
263577
246712
252298
255132
262846
263520
263793
263744
250775
260873
258036
263953
263919
263274
262168
135647
101768
101397
101371
160207
142521
171124
264281
259259
264329
264295
254845
264360
254241
264690
258405
264506
264300
251638
264260
253239
254729
261641
255185
263318
261035
260628
263494
120034
251909
266051
101310
101298
126696
225699
101355
101299
113317
143124
130734
142869
127314
138248
166169
137233
207552
184056
240955
211880
146247
139098
110659
115683
113506
118395
116423
118538
121629
116425
125404
121619
123764
119821
125256
129468
121212
130327
124038
130671
124229
127541
134232
225127
158526
148407
261502
158218
186224
269042
120189
134264
123387
136365
125427
128877
140204
129693
130261
133458
140989
144376
144996
148588
131453
133963
127437
131427
143189
138392
135926
138380
131449
127120
132914
149751
137580
144648
133194
141426
137175
152983
148305
152886
158095
131440
138327
150339
135183
154842
142373
147027
134383
142718
137790
155192
149624
153608
159680
125645
128438
115440
123460
129756
133038
138228
138163
123899
124467
126571
127117
125208
128507
129293
126512
126134
124748
129618
128087
130633
132617
121484
113392
120306
118550
125040
126175
120505
129609
134273
130450
137044
132600
133609
138365
58085.2
65516.4
88336.2
58406.9
56498.9
54303.1
68505.2
63285
71149.6
71586.4
59283.2
54396.5
59789.4
63731.4
67223
72453.1
76956.9
69611.7
85924.4
64415.6
71040.7
92765.9
80219.5
96995.5
55230.1
56271.8
55236
60464.5
59410.1
59480.6
60097.5
55141.3
54879.9
55208.6
58658.3
59317.4
59549.2
59374.7
55165.2
55385.8
56448.4
58641.8
59273.6
60823.4
59925.1
56589.7
61431.3
58178
63342
60539.7
62308.5
65188
57957.7
56938.4
56196.7
60321.5
61885
61905.1
60575
64569.4
68122.1
63842.3
64143.7
68792.3
68660.6
64477.6
70716.8
65940.2
67529.3
71933.3
73327.9
69274.5
74884.7
57825.8
56131.3
56102.8
60460.5
62572.6
62139
60665.2
63750.5
68059
67761.6
64155.8
68548.5
68569.2
64035.9
60499.6
57025.8
58239.9
62624.2
63753.7
61646.5
64762.8
63321.4
68121.5
67854.7
65212.7
69059.1
64562.7
69559.6
62501.6
63370
60197.3
64338.9
69298.8
66557.9
67204
65090.4
66531.4
69655.4
71320.7
69698.5
66689.2
65166.1
64754.5
71082.1
68943.7
66479.3
72907
70648.6
69043.9
78064.8
86273.2
78850.4
87515
80127.2
81444.5
88613.6
67705.7
75065.1
73457.9
73093.2
71167.3
76581.8
78285.3
74568.5
79687.3
76468.6
76344.2
72794.1
78110.3
81365.3
65107.8
67098.9
69811.1
71227.3
69585.6
66732.4
65289.5
66929.3
68104
70571.1
73251.6
66161.5
71235.6
68970.7
68428.4
73047.4
74860.1
74704.7
72568.5
70568.5
70994.8
81415.5
87229.1
80089.5
82896.4
91101.3
84367.6
89814.1
90075.5
85855.7
82932.5
84383.3
94066.3
87352.9
91301.3
76563.8
78215.5
74639.6
79790.4
84947.5
83090.2
81524
85853.5
93947
95441.3
90550.9
88880.2
87365.3
92587.5
118349
95617
116720
94068.2
123912
100109
100995
128214
94088.4
101848
95361.9
101829
96204.6
103373
103927
94736
103034
102297
98240.6
97133.8
104638
105620
108892
116880
109035
118972
110943
111384
119385
97661.2
101226
98641.3
107805
105512
106239
108736
110355
109536
117402
112059
121228
113078
120083
104018
99730.4
102497
107152
111468
109928
108367
121309
115602
113216
113814
124901
116455
121951
114701
124431
126303
119320
117668
115981
122953
121082
117991
123250
127913
126166
130322
123028
133583
131727
135962
135152
142707
140218
137340
123980
135159
129938
131176
131875
136596
125956
133020
131837
134664
141402
138648
135553
128560
139540
157349
160103
152355
147039
144538
151824
151867
141719
146936
158437
171179
164976
164120
238183
201369
249379
263989
139117
251938
192728
158760
190269
163120
191326
163870
168602
198418
144474
150739
161890
155133
166842
169821
175316
174417
197947
168272
174256
217620
181064
207252
200486
177228
169941
175169
220718
183183
208669
153043
166286
160306
179497
172676
181816
189577
167021
172424
163099
190781
179261
185503
198018
181501
229081
230645
199138
190439
189234
218238
175370
178737
168770
192962
217356
206685
201907
169811
260087
223197
229395
106383
192674
102853
186238
234028
193106
239148
197399
205325
247079
233651
234834
242145
258525
261057
261272
263096
243278
211391
201320
214892
260534
226136
254380
251952
228129
211342
220423
265198
237611
257710
241783
255205
249084
264325
263156
264144
264265
243884
256569
249989
264086
263322
264082
263848
230941
266552
267806
256856
247606
242212
262664
260086
260620
255439
264102
259680
262554
262944
103993
101368
102838
101351
102586
101316
104511
101604
103273
262784
254592
258833
103884
105487
266548
102949
102048
260275
251671
235731
102386
246974
250121
254723
103318
101868
148856
102014
157113
101732
101504
246906
229455
197244
101675
216638
101541
181280
202617
127439
101322
101358
153182
255172
264801
264724
249317
264138
263787
246091
257649
262301
256185
263205
259153
260074
262966
249174
261843
235715
263792
264449
263066
241695
263444
263322
258441
261827
265299
261716
256555
259465
265294
261488
257702
262451
261483
255475
263596
238560
248480
262219
261948
263741
247730
167375
119390
101314
101310
105193
101679
101302
259881
227735
262567
229623
260534
256819
216620
263474
244317
261012
236751
261606
263214
246417
257163
266253
264987
265966
263426
259819
252038
241265
260069
262737
261912
224235
258631
237016
264535
266019
266237
253223
258618
250783
241970
253463
258618
223565
260615
216376
256513
231275
239716
252970
263890
265721
265975
266299
246567
260762
264611
262623
215500
215239
210757
219873
264621
265806
263857
224554
218643
220323
222930
101336
138730
148229
106989
105464
101303
101304
225287
259169
258733
252999
207027
253639
205301
258083
256665
260013
209510
196846
204650
201838
262069
258018
261285
212757
206925
205163
214482
257029
222809
258084
251960
196843
250304
201960
258190
256940
254736
208911
204335
196151
200838
101300
107932
101311
101329
133212
104666
101302
255450
205334
253185
189755
247863
244406
180440
217718
252335
257255
252308
182873
245674
201626
255366
247732
251716
190062
198108
189688
181389
252392
244417
246967
187140
192356
180892
175576
249534
253861
248603
197632
195814
186358
184476
249142
255607
212820
251291
176438
242966
198816
252583
244348
250213
185966
178804
190850
173902
242521
240649
246919
179320
159297
171012
167348
158888
233461
234628
242977
241940
173223
171358
242550
240781
235881
180128
171424
168611
160144
155714
182863
245466
195378
249983
239548
168958
213860
253627
260224
262554
265383
237237
223233
153736
228002
231323
237111
240053
167829
162659
236783
221240
229578
149984
161280
150393
140181
136035
142787
223239
233018
227572
155933
147911
243447
180646
228987
148262
227667
244341
178648
241843
168871
144727
220978
225120
239269
174748
144068
222762
224134
210061
208425
130718
129518
245034
161027
220976
157791
234059
235862
181427
139648
216017
220139
200553
205299
127289
124177
208006
128979
122044
210495
220214
139290
130736
161096
214878
235476
230143
127023
206508
151652
101773
101300
101300
105715
101307
101377
101300
141776
167800
239114
151158
230098
209525
129011
125396
130775
210237
194081
185645
120432
116483
123629
114398
163358
118242
178736
123374
172517
158400
109150
116536
133598
199010
150740
166109
182229
125640
110119
111938
112812
122159
124033
125123
127018
112154
117055
114818
127721
125913
128892
130702
118667
119208
121382
129641
131846
132652
134904
114965
119113
115810
132088
128418
130318
134014
120019
121090
117777
132209
137846
134060
135937
120988
126474
123741
137480
134440
137585
140735
122230
127930
124446
139908
136058
138387
142337
159597
138320
139754
162349
141601
143067
163640
129774
130517
126893
141173
148761
145261
144459
143015
161219
141263
144614
167705
146405
165402
149626
167028
145318
146827
174010
168421
151196
145130
147677
169489
170635
148578
151275
174194
148431
172775
154890
176052
150306
170319
152892
173507
178247
154420
154569
183734
178473
158490
175887
157396
152637
155538
186659
179762
160521
100192
122353
107310
102315
214460
110936
110525
138061
192162
101685
89842.4
88750.5
111978
104699
120930
112972
106869
180409
200599
189423
151005
121696
159735
129646
92338.8
154755
129483
164218
100474
105668
95457.5
100844
114717
124152
137331
125859
115277
108749
208032
202761
196799
173243
167256
136462
141697
98360.1
89968.6
101970
92346.5
90156.8
92502.8
92560.5
177037
134962
171611
110413
101635
98635.3
114321
90753.9
93521.6
91280.5
95162.5
92154.5
94666
97742.4
104900
97836.7
95012.2
98137.4
95240.9
95295.9
98387.6
107359
100003
97563.2
104687
112225
100925
102717
93686.8
100590
94201.1
96987.3
104743
96189.2
103104
96665.9
97516.2
94201.4
97564.9
103990
100851
100675
94867.3
107136
97049.9
107103
97194.5
99391.4
109579
97106.8
94303.4
98122.8
98356.7
100937
101595
104199
120425
107769
116661
104310
108787
105645
107666
99980.2
107455
108931
101889
98930.1
105883
103071
102442
109517
99709.3
102138
114536
112015
104895
103896
103732
100245
107196
103869
107181
110582
104636
101974
106102
109044
105098
107778
111831
109832
102850
99836.4
102104
115576
112383
105205
104908
110927
117504
118150
114872
108066
107706
105179
117404
107690
117906
108174
110814
120768
111073
111791
107656
110862
118760
115050
114392
113956
120540
110601
113882
127923
117423
124094
121611
115616
111627
114432
129125
118605
124660
233970
101425
248950
226473
172151
190428
151453
107584
249747
235308
241742
239873
252084
246726
236283
197914
161007
209065
209512
241736
237744
205739
247147
244034
251543
251523
250001
236354
234045
215337
118837
158966
164845
221009
192680
121063
224469
135061
142676
185859
232147
199436
190263
181158
203008
190398
228213
227762
240412
225873
208733
191078
184316
190978
193959
207285
194807
210495
217410
220466
205249
236682
224474
227261
240927
187391
199514
196783
203241
198916
213842
217466
211249
224034
207954
230343
248893
244857
234350
204608
211635
221038
215650
209116
225269
218646
190236
206493
227732
232767
197543
231553
213333
219066
221823
213773
229302
229861
224485
233950
236356
203265
207059
237309
223985
218945
241896
107685
145790
95030.5
91480.8
94335.2
143206
96938.9
225035
168080
167949
192187
120591
121624
188335
111242
108961
97673.8
139056
101852
99192.3
134009
110833
125734
117007
104360
117513
122860
110426
120233
141062
119352
154367
120857
118419
113395
114043
117631
116706
131319
118653
117977
115622
117891
118242
120564
117925
120178
115877
116932
121080
101722
94306.7
97377.4
98854.9
105424
107780
101760
119865
118465
121427
118665
124618
122557
120965
107418
104659
100865
110572
108495
113747
104971
115496
103670
108459
112329
110711
116940
106219
121443
116524
112395
113389
109120
118916
114694
154805
160571
195175
189429
107958
93529.6
115281
94608.9
184976
205021
162536
142379
192684
163524
142341
114188
151574
164127
131748
114272
130691
172887
190678
145358
100572
143694
140177
157076
165835
205424
151050
173799
158655
113798
113290
102866
127798
115736
116552
130323
137248
134461
145155
140963
151828
147572
154967
144932
180458
134514
86110.7
64894.3
88204.8
63881.5
223620
210838
187538
205980
159729
189625
231904
132651
160788
148510
140113
136157
151235
155047
128055
157498
141772
144430
129224
144270
159696
107572
125244
119680
131229
122952
136243
143067
143849
152174
146506
167149
159286
161844
168198
137593
145789
143738
153099
150388
157570
159716
166478
170974
179096
173465
160915
168873
181605
149780
124931
104363
120203
140369
89828.9
104063
137293
147683
132771
149753
170086
164882
155521
139725
135085
138661
152573
144227
149395
152324
175365
179342
163602
165669
185324
169960
181051
175261
173652
160808
176439
189404
177054
193693
150073
153913
148513
163754
173258
169990
165290
181320
186984
195663
176141
198073
182664
189354
81888.7
62703.2
73247.9
51620.4
62025.7
75738.3
81067.9
83828.1
49804.1
58892.7
56152
53372.7
60041
63142.8
55694.2
71662.8
66676.5
75097
63469.5
67393.6
70588.7
79361.9
55322.5
53370.3
60998.3
64821.7
59524.2
66107.4
57698.7
65466.6
68454.1
71461.7
57413.5
64165.1
67254.6
60318.2
71338.8
68908.3
78210.9
72408.5
84978.4
74419.1
82070
79821.6
75348.2
78530.2
87329.7
71248.8
74369.9
83396.4
68146.2
73729.6
76914
68881.7
65082.1
70768.7
62405.4
89951.2
93482.1
84139.1
76536
88614.9
78776.6
85926.3
49581.3
54461.9
92466.2
133492
45981.6
60457.7
24882.3
88577.3
44639.4
39384.6
41616.9
47757.5
43208
45167.7
49260.7
33088.2
32259
37053.4
35167.3
38868.6
44550.1
47884.2
48269.8
47136.8
43597.8
48866.1
54222.4
55940.5
51265.7
53618
56388.5
60372.8
51443.8
47331.3
50804.4
53872
73132.5
47467.3
43168
54068.4
97123
70904.9
68540.9
71588.4
68087.6
58714.1
49990.4
47047.1
55866.2
67589.8
74866.5
72289
65030.1
57638.4
61692.3
70303
57048.3
112116
112356
90237
70218.2
119104
91742.6
91521.7
127277
118666
92983.4
85791.1
141286
99328.9
93824.5
135016
81698.5
93031.5
85305.3
96830.2
89651.6
96664.1
100901
89274.3
106377
101317
95949
92670.8
104001
107711
105493
123257
109554
121486
108664
113318
126926
89518.3
96634.2
93359.1
103399
100335
104040
107022
103892
98922.1
95913.3
106512
114964
110395
109494
119903
128855
114483
116986
136072
121105
131317
124668
114890
112095
116242
131844
129729
118763
118893
134962
127185
137945
123307
133166
121242
164248
87644.5
171743
111095
129572
148113
116211
98698.1
53650.9
185042
75237.2
81804.2
102736
119391
129140
91043.2
87638.4
65784.8
56344.3
62789.5
74379.4
60481.7
70537.1
95090.7
73087.8
58442.9
64719.8
71385.9
63143.6
68924.4
74473.3
69952.4
107921
144328
104858
129895
96192.3
122676
153322
75569.5
96760
81975.5
89879.8
77963.3
85534.8
101123
107246
108779
175709
54820.2
58201.5
54930.3
51529.8
92384
121248
101307
59882.7
55481.7
51465.6
57999.7
91070.5
72482
92636.2
117770
108616
89138.2
134179
78480.1
125665
102272
121542
108653
137861
91553.7
83057.2
70473.7
74505.8
82049.2
93925.4
79422.3
94809
97283.2
74398.1
80916.7
86749.4
97408.2
100744
82125.8
129921
142181
116218
135196
158327
141389
157433
154119
170662
133548
143630
180943
157162
172042
91250.3
95126.7
83135.1
93614.8
118786
108666
105300
112033
114565
95550.3
101191
125684
112417
119460
96446.2
108370
105359
104932
104225
93960.7
107779
137251
153315
124712
120248
147915
108109
147932
128891
107855
130844
83083.4
92506.9
91996.7
77064.4
103232
97889.5
96367.1
79164.1
78294.5
68629
70735.2
149406
159278
168258
176278
158755
153047
170779
152126
171460
150964
133339
110185
113307
137015
108980
110181
127812
122427
111738
124292
116833
110771
111958
101311
91217.5
81540.6
71074.9
79015.7
150251
167564
150502
115797
137531
117274
138147
80797.5
92561.4
88266
61463.9
59368.9
63922.8
57426.8
136370
107287
134117
92205.7
68951.5
92669.8
72348.7
68089.3
53277.9
60717
62811
55177.3
53343.5
73814.1
55793.3
52715.9
57540.2
56700.6
51853.2
52613.2
53583.6
55247.6
52266.1
55132.3
52937.4
52046.2
53273.4
52616.9
83981.9
102236
92072.1
63640.7
64063.5
59550.7
69675.2
62445.5
54147.6
57136
54973.5
58804.7
55254.6
59487.7
178514
163382
176000
171162
186070
183991
173221
165105
171041
151190
136460
156093
119504
132878
195598
200594
219347
197380
211473
213053
213270
102959
70718.5
78147.6
116740
129088
89819.8
80017.4
168013
186954
181862
185355
180913
199564
204263
166500
180622
158446
179212
164164
181680
165788
65948.4
70686.2
63576.2
70973.5
81662.1
74708.1
70694.3
208326
230708
206524
212765
192910
212361
235611
65530.2
80737.5
56376.2
56407.1
54439.2
67993.7
78281.8
177944
188919
194090
201512
185237
191460
179774
57161.4
53845.1
55256.3
52961.1
53476.7
58504.7
53011.8
61959.9
60094.4
59046.8
55022.7
58682.2
56684.3
56332
52787.5
53077.5
56650.5
53452.9
54751.6
52061.3
54186.2
131485
159051
144672
102918
100591
90704.1
114497
66417.6
64874.6
64606.3
71897.1
72231.9
71150.1
71454.4
105035
79420.3
93897.1
84726.2
86569.8
78481.2
94215.8
203034
218223
197685
217881
238625
238251
221002
196424
194272
197856
212722
199012
206425
210529
230435
245522
229134
228852
221915
222713
242474
177437
171893
156366
122974
108430
124507
111976
171646
189641
205948
135073
152440
133558
123869
102016
96720.1
113082
103786
115518
106813
101770
85868.5
88518.1
86608.6
80185.8
78949
78332
78919.8
197944
204422
214254
226561
232500
238007
223203
94217.2
93539.2
96339.4
102762
100886
100778
101125
140663
154133
172302
120022
115674
112833
118065
117252
109287
115222
110153
114636
107730
114769
115695
113861
107160
107899
114902
107389
113797
117690
132291
132927
126097
122078
121448
128200
159063
168917
190554
192173
184580
164330
163272
77682.4
136605
42917.5
91151.7
35963.4
63869
45931.1
67527.5
37348.1
133862
100852
85845.9
42212.1
34163.1
54149.9
48326.4
25298.6
32065.1
21674.2
23937.1
31921.6
27556.9
28585.1
61253.2
63251.4
38962.9
28341.7
36916.7
50445.7
36408.9
64028.3
81389.9
56791.6
42635
61501.5
61118.7
42540
54007.7
50243.1
28975.3
41804.5
59687.3
38662.7
60666.9
123279
109542
90753.1
73077.3
51481.8
70063.2
94427.2
95991.5
86397.8
78831.1
68454.8
70045.9
53446.1
81287.8
136030
118687
115690
86826
115036
96791.1
108412
57092.7
96771.5
64922.9
47431.5
65888.8
59006.2
61848.1
29562.7
36050.8
33877.9
36895.8
35792.3
37434.3
31811.9
28798.2
41028.1
39755
49997.4
51905.8
37992.8
31376.8
45233
44373.6
54266.7
42660.7
53219.8
50862
36583.8
50472.8
64579.4
66666.4
56482.9
56960.2
48674.1
64273.7
42587.6
45125.5
38599.3
43388.2
40082.7
37009.3
50411.4
51333.1
41496.1
41843.8
45696.1
49977.2
42754.2
57306.6
52124
61742
57047.8
65329.7
57051.8
54539.8
62885.7
51950
72412
47470.6
52158
45008.3
59121.1
65260
108070
137801
89330
182392
123976
56057.6
51946.4
62432.7
49129.8
129927
102397
105382
51475.3
46090.5
57864.6
55861.1
100760
98993.8
113858
77430.6
79134.5
91041.4
88070.9
93102.4
98801.9
108149
82012.7
89678.7
94136.9
89673
121998
137683
122936
117471
102375
103625
116297
144685
183444
145683
74854.3
74885.2
89175.7
90822.1
105293
126381
121951
95537.3
89460.8
94521.7
91939.6
107412
102111
109090
93882.9
87085.3
91767.2
87761.7
53076.5
55466.8
56731.3
60822.1
51520.3
55805.4
59339.7
54152.8
46608.8
57989.6
62067.6
49168.9
49412.4
60274.1
154798
189752
154815
99071.6
125017
105859
110436
62417.7
57330.2
57681.5
59731.2
60613.4
57122.5
62932.7
135325
118260
121846
100457
103136
92777.7
111663
76318.7
49961.3
64777
66801.4
57013.9
51939.3
76197
61280.6
59118.2
53752.6
52406.3
55104.7
59528.4
61388.3
62149.2
59200.8
51037.5
51869.7
51204.3
61800.6
59027.7
60038.3
63706
54287.9
58322.2
55932.9
59961.9
62370.1
65293.2
67794.4
53692.2
57663.6
53152.4
61265.7
73016.7
152194
182985
192723
148647
102802
144154
175446
150230
137118
123053
140096
135288
129078
155163
143000
143848
149578
137530
167753
159422
152354
163954
111084
115587
123401
113147
119360
132717
127533
164058
160007
147207
185167
171111
157062
171237
198657
189389
174579
166855
193619
178377
180838
149251
130482
132239
146667
163436
163749
145486
128947
149350
135577
146047
156533
141079
160480
160669
193083
177634
175581
177979
159969
175426
43789.1
60240.4
46698.3
24146.2
42497
13089.1
18686
22268.7
43279.9
57033
80979.9
107801
47847
48056.4
65588
62692
15955.2
35112.3
23491.5
28146.1
30678.7
21023.7
37263.5
35316.8
57309.7
45759.3
50050.2
39444.7
43977.2
46168.8
14958
12626.7
13306.2
18736.5
13613.5
15241.6
14676.4
54718.4
75115.6
64314.3
58356.7
62016.4
53374
68504.4
48889.1
49424.9
60490.8
34728.5
49005.4
35742.2
43248.6
70865
66066.3
80031.2
60511.6
68397
56348.3
49326
41543.7
34012.4
34508.7
37220.1
38362.5
28092
40478.1
46693.6
54682
52454
51539.9
43492.1
45138.3
49032.7
18966
33393.3
32052.5
14606.2
20298.7
25285
17406.7
24818.7
23448.7
15395.9
25431.7
31051.2
19190.7
17719.7
92549.6
78088
93008.2
78113.1
89710.8
66029.1
78089.3
71562.3
67842.2
59362.7
59171.9
63715.4
55331.2
68098.6
52616.7
49876.3
57305.4
51808.3
60973.8
55402.8
47615.8
43501.3
44456.4
41459.1
45970
38048.5
40511.6
42771.9
50535.1
34270.6
37058.3
30933.9
32515.2
36285.9
23087
69811.3
65737.3
75343.5
84429.7
72583.7
64378.9
74405.6
93063.6
133729
156709
116229
77890.8
124921
133791
86169.5
75920.4
98254.5
88676.4
72792.6
79827.5
85072.1
91831
121893
106672
102295
114049
90782.3
102943
118422
89512.4
81814.6
73752.9
78521
86057.7
90621.1
93505.5
118078
111074
102946
113689
98999.5
104635
118112
86301.1
96671.9
85613.6
97799.3
105802
98666.3
109001
138153
145728
125915
115466
143139
128575
130189
102580
113707
99719.8
103845
120548
106635
117831
110714
119020
135288
126258
112013
124713
121407
91889.2
135969
84184.5
50778.8
191775
133900
58321
42760.6
51081.8
131404
88888.7
102755
89962.8
65780.9
68380.3
122645
61283
58371.1
70754.3
71619.2
76786.3
63288.1
68722.8
80998
79661
92301
85156.3
97503.7
89995.3
78736.6
34324.4
45165.4
48398.2
82077.7
69149.2
66575.8
89993.4
109055
93707.9
107578
111677
125574
102178
115251
49638.6
47608.9
51263.7
58959.6
58799.3
62337.6
60761.5
57216.2
59186.3
70077.1
80070.4
64703.7
73573.8
69403.6
91795.3
80270
79362.7
78251.2
87050
98471.1
75853.2
90192.3
86381.9
98170.4
93704.1
90650.9
101682
83066.4
84268.4
60682.7
48323.1
71479.5
127340
85895.8
107058
77108.4
97661.4
83755.9
92477.7
98048.1
84615
105748
119000
112227
127723
106851
133949
117110
122150
222655
167645
101406
104666
222839
145265
164189
78245.9
88873.2
71747.2
113603
104473
85694.7
72477.9
87283.6
97271
89785.1
73547.5
99580.3
82087.4
77595.1
110782
151708
205287
166856