/*--------------------------------*- C++ -*----------------------------------*\
  =========                 |
  \\      /  F ield         | OpenFOAM: The Open Source CFD Toolbox
   \\    /   O peration     | Website:  https://openfoam.org
    \\  /    A nd           | Version:  9
     \\/     M anipulation  |
\*---------------------------------------------------------------------------*/
FoamFile
{
    format      ascii;
    class       volScalarField;
    location    "0.0033";
    object      rho.c4;
}
// * * * * * * * * * * * * * * * * * * * * * * * * * * * * * * * * * * * * * //

dimensions      [1 -3 0 0 0 0 0];

internalField   nonuniform List<scalar> 
26548
(
6.02026
7.78496
34.517
12.2244
5.91498
53.3163
2.07709e-07
1.3082e-07
3.93962
2.29332
5.47471
6.62197
33.4241
32.7627
6.53792
0.419273
2.00307
5.23047
2.5079
5.14026
2.47113
3.88478
1.97803
4.57599
4.11484
2.03377
6.54178
3.01466
5.33655
2.55161
2.78062
5.88109
2.73313
10.4396
10.8877
3.49318
3.56925
3.39634
6.17285
2.93941
11.3473
3.81009
15.238
4.07714
1.98746
2.12729
2.11089
2.43996
2.42079
2.57877
2.59805
1.98093
2.10241
2.10477
2.40741
2.41177
2.57115
2.568
2.08632
2.161
2.22227
2.47575
2.53858
2.63735
2.71117
2.16979
2.47634
2.32371
2.793
2.64073
2.83547
3.02356
2.47692
2.26476
2.26844
2.78644
3.05224
3.06021
2.78148
2.29371
2.48684
2.27584
2.79455
3.0938
3.07104
2.8141
2.33096
2.63757
2.40266
3.14382
2.85677
2.94265
3.24682
2.29346
2.80892
1.53444
2.24887
1.49726
3.25241
3.33257
2.06434
2.12443
2.34221
1.90725
1.64817
3.41624
3.31729
2.18044
2.35792
1.49168
1.64818
1.65535
1.64779
1.65343
1.83223
1.8249
1.5096
1.69777
1.67001
1.69319
1.66682
1.84783
1.87737
1.57763
1.74498
1.73887
1.82288
1.8144
1.92835
2.01379
1.75606
2.11369
1.94321
2.09886
1.93169
2.14762
2.33962
1.83849
2.07468
1.84722
2.05133
2.30704
2.31826
2.04214
2.25538
1.89754
1.90342
2.11568
2.50863
2.10791
2.5172
1.89326
2.09245
1.86345
2.06902
2.37436
2.3383
2.1016
1.94221
2.26817
1.9165
2.13126
2.56348
2.16081
2.53308
1.94442
2.2764
2.03027
2.43788
2.15825
2.25468
2.54783
1.98868
2.43246
2.06964
2.62199
2.21441
2.30859
2.73004
2.65098
2.16477
2.42898
2.40745
2.98269
2.72421
2.62889
2.58321
2.39054
2.2
2.46082
3.17885
2.68392
2.90996
2.37981
2.83716
3.26575
2.69607
2.70805
2.37005
2.84792
2.39803
2.9036
3.28907
2.76801
2.72929
2.43176
2.86723
2.97355
2.83931
2.49338
2.60272
3.57084
2.96711
3.10263
2.78655
2.71264
2.52542
3.09279
3.71413
3.42974
3.32397
3.63806
3.04251
3.48654
3.17636
4.21195
3.82786
2.78051
3.04569
3.90477
3.02128
3.22834
4.23382
3.25245
4.19854
5.3636
21.3214
30.0115
7.78504
20.8087
29.4989
7.57529
3.00824
3.87292
3.00118
3.21798
4.17368
3.21302
4.18241
2.74119
3.06696
3.07735
3.39605
3.40705
3.85265
3.83872
3.12757
2.75443
3.09453
3.45169
3.42222
3.87326
3.91267
5.80538
25.7012
22.6279
10.115
36.9177
30.649
8.00523
4.00237
3.16934
3.08993
4.30591
3.30172
3.39584
4.44237
3.3232
2.8344
3.19446
3.51474
3.64264
3.9947
4.15683
3.5074
5.15932
3.86884
4.58948
3.8804
3.50007
4.60163
4.29936
3.49488
3.29986
3.5555
5.0269
3.79856
4.67316
3.51741
4.65434
3.92195
5.18279
3.89389
3.54103
4.61779
3.12034
3.54288
3.87623
4.21961
3.86866
4.43867
4.87236
1.46585
1.83242
1.28655
1.49195
1.45794
1.32915
1.9567
2.00548
1.52963
1.52962
1.69366
1.37764
2.05519
2.47528
1.59238
1.98212
1.29084
1.3422
1.40784
1.34641
1.40974
1.49208
1.48861
1.30311
1.43602
1.39016
1.36016
1.41672
1.50185
1.52523
1.45585
1.47686
1.4437
1.52781
1.54686
1.57118
1.64736
1.56391
1.77949
1.7834
1.64327
1.64873
1.75811
1.90222
1.40129
1.47283
1.40684
1.579
1.67013
1.67676
1.57398
1.4719
1.49578
1.47916
1.59421
1.64016
1.61387
1.61764
1.47075
1.46269
1.47324
1.58638
1.60065
1.5828
1.60648
1.492
1.45705
1.42328
1.59203
1.72675
1.69329
1.62028
1.53147
1.59408
1.59487
1.68136
1.65419
1.7241
1.75177
1.51494
1.68712
1.60373
1.78564
1.67214
1.75591
1.87873
1.82312
1.6938
1.69193
1.83096
2.01566
1.97729
1.86134
1.87718
1.81773
1.72601
1.87748
2.19043
2.0129
2.03702
1.7119
1.84969
1.76633
1.9648
1.85596
1.70698
1.77329
1.72213
1.81031
1.97878
1.89652
1.86897
1.74548
1.78583
1.8553
1.94854
1.79109
1.86894
2.14154
2.03607
1.93267
0.569727
0.468181
0.799229
0.596557
0.548639
0.506216
0.647551
0.690254
0.481945
0.522834
0.540168
0.483523
0.49558
0.547475
0.535181
0.515272
0.639475
0.578233
0.577366
0.525374
0.579435
0.636377
0.676022
0.674791
0.590696
0.695528
0.610474
0.609414
0.687908
0.715429
0.735139
0.650803
0.643092
0.781216
0.703153
0.721533
0.519172
0.536337
0.549892
0.585152
0.556692
0.5689
0.598268
0.600139
0.629813
0.579156
0.599295
0.681222
0.628049
0.654268
0.618743
0.728005
0.697318
0.630186
0.740171
0.660304
0.708366
0.769585
0.738684
0.823621
0.744998
0.795185
0.718234
0.661074
0.828538
1.56861
1.26888
1.14806
0.891816
1.2079
0.892689
1.33576
0.867987
1.25119
1.26232
0.954494
1.40076
1.76473
0.999836
1.3548
0.778056
0.773432
0.796291
0.785774
0.907192
0.90056
0.889823
0.832882
0.991467
0.873576
0.817347
0.938751
0.92861
0.979459
0.97443
1.06914
1.06735
1.05298
1.16044
1.05533
1.15243
0.79596
0.839556
0.805964
0.923734
0.950301
0.95983
0.915276
1.01375
1.15658
1.02548
1.03079
1.17714
1.18172
1.02295
1.16479
1.35195
1.26733
1.16013
1.25901
1.26264
1.37643
1.17506
1.09215
1.04998
1.05333
1.23418
1.09628
1.19862
0.834745
0.920234
0.888611
0.949878
1.03594
0.986355
0.999909
1.15776
1.34369
1.24529
1.29432
1.16418
1.25751
1.38336
0.96936
1.104
1.07189
1.11222
1.07658
1.17746
1.21419
1.44994
1.44906
1.34577
1.37048
1.62942
1.49205
1.49873
1.30899
1.22565
1.1882
1.29545
1.46835
1.33587
1.4205
1.06378
1.09664
1.22144
1.27556
1.10451
1.22676
1.05717
1.08582
1.29568
1.28283
1.17286
1.12777
1.12991
1.24494
1.34545
1.2435
1.1998
1.29624
1.49472
1.34112
1.43671
1.41419
1.69376
1.61769
1.59914
1.46224
1.54368
1.55557
1.98787
2.22731
2.27828
2.35484
2.16941
2.15209
2.05415
0.419894
0.400644
0.342766
0.50814
0.419955
0.544664
0.506052
0.592959
0.438442
0.410483
0.428867
0.373677
0.47082
0.520908
0.471972
0.521001
0.349003
0.357821
0.361942
0.403276
0.396845
0.410998
0.387899
0.38627
0.423829
0.425297
0.43376
0.463555
0.439472
0.458932
0.377299
0.418183
0.384852
0.427958
0.450315
0.428526
0.4633
0.379167
0.432361
0.391252
0.419458
0.439258
0.405195
0.451885
0.423849
0.39847
0.424887
0.452715
0.444907
0.454018
0.450647
0.424872
0.407114
0.406547
0.451043
0.438937
0.435419
0.445859
0.407137
0.421302
0.406509
0.432281
0.437722
0.430222
0.441046
0.458133
0.461288
0.417446
0.446821
0.526703
0.490082
0.479797
0.448877
0.453062
0.511293
0.485018
0.498562
0.4631
0.433389
0.483024
0.517179
0.513149
0.491007
0.482439
0.484053
0.506237
0.47448
0.499328
0.522996
0.559823
0.522254
0.477751
0.512077
0.480731
0.49993
0.465427
0.454186
0.514443
0.49644
0.479484
0.488532
0.516343
0.483041
0.477677
0.495315
0.499755
0.47333
0.490399
0.488082
0.46591
0.460424
0.484225
0.481693
0.466022
0.454942
0.454309
0.469767
0.477519
0.475286
0.450021
0.459963
0.483323
0.557103
0.571781
0.543917
0.525345
0.529399
0.508557
0.388357
0.540391
0.468204
0.41776
0.423738
0.455622
0.589755
0.46504
0.532442
0.430043
0.779489
0.567199
0.707173
0.577333
0.956737
0.591147
0.423833
0.439444
0.423614
0.463592
0.448836
0.447684
0.477502
0.461286
0.465685
0.512003
0.480065
0.510027
0.56471
0.516573
0.407039
0.410969
0.403814
0.433691
0.427457
0.423626
0.427525
0.510371
0.633254
0.569755
0.590252
0.547283
0.61407
0.665125
0.390431
0.399676
0.397667
0.41835
0.41011
0.413229
0.418665
0.503736
0.623649
0.56715
0.624544
0.595259
0.686997
0.55588
0.420323
0.4547
0.422332
0.447193
0.507779
0.446682
0.492563
0.448785
0.465669
0.446124
0.442746
0.46015
0.463029
0.443226
0.499257
0.493843
0.471363
0.471349
0.54928
0.495135
0.514041
0.701681
0.704759
0.634443
0.687653
0.836113
0.765185
0.748003
0.53032
0.611509
0.561765
0.620618
0.617962
0.674406
0.568546
0.63579
0.625157
0.663151
0.664432
0.750246
0.713798
0.707221
0.439549
0.432524
0.463873
0.456466
0.462138
0.437896
0.436959
0.472622
0.548952
0.506264
0.568456
0.498882
0.475715
0.530957
0.685351
0.652014
0.661857
0.817142
0.743976
0.75303
0.609907
0.745577
0.896908
0.89572
0.849583
0.801701
0.831282
0.798988
1.15173
0.866762
0.637921
0.883544
0.86176
0.704095
0.905197
1.25743
0.711732
0.716891
0.647737
0.79998
0.729393
0.714387
0.804167
0.788544
0.964066
0.883235
0.913297
0.818886
0.900505
0.998819
0.798555
0.977286
0.888896
0.864816
0.786155
0.882162
0.96319
0.673298
0.797668
0.762153
0.759887
0.733208
0.829036
0.859331
1.05891
1.06921
0.977102
0.983587
1.17017
1.08403
1.06756
0.967003
0.905048
1.02013
0.935801
1.09424
0.973475
1.04643
0.826659
0.878205
0.800991
0.901912
1.01019
0.930411
0.980962
1.01384
1.21218
1.17311
1.13115
1.04918
1.12773
1.0954
4.73691
3.98605
3.59464
3.70502
5.5524
4.12111
4.90367
3.50612
4.05416
4.03806
4.43156
5.16589
5.18751
4.41431
4.13311
3.52783
4.08132
4.45884
5.29392
5.22354
4.51146
3.90033
5.65574
4.74656
5.93523
4.36431
4.20416
5.1967
4.43027
3.65224
4.23608
5.43462
4.61874
4.82528
5.69939
9.2076
34.0115
8.9176
16.6728
49.2229
48.4268
17.3829
5.90873
4.34486
4.36084
4.99193
6.9104
4.9715
6.94859
4.41992
5.94726
4.38097
5.02128
7.12764
5.07751
7.01116
4.48072
5.24828
4.75647
5.178
6.82441
6.1454
5.71629
36.7574
35.1855
9.49959
48.4975
18.1263
37.8956
54.1837
4.50455
6.47026
4.67802
7.35242
5.19419
5.42407
7.76538
5.34053
5.85534
5.87634
8.27423
8.31746
9.21503
9.17906
5.47113
6.98413
4.98685
5.82455
9.52093
6.44798
8.45795
5.40462
5.99279
5.91589
8.52748
8.39655
9.28488
9.41998
5.83572
8.36908
10.5029
6.95702
6.99127
5.80983
8.41874
5.87799
8.68682
10.6352
7.17704
7.05378
5.96037
8.51174
5.59708
6.13898
6.39727
8.74966
9.11318
9.67287
10.1086
6.13527
7.43771
6.81435
10.4704
9.66824
10.796
11.8073
9.0124
7.41642
6.12554
6.43803
12.1307
7.8554
9.58617
6.74321
7.67407
6.65635
10.5312
12.3907
12.2112
10.6769
7.61478
6.58471
6.61238
10.4594
12.0618
12.1192
10.4171
6.96978
11.9303
13.3789
9.6975
8.58455
7.79214
10.5207
6.91756
8.41147
7.23748
12.7495
10.9692
11.4961
13.4041
8.56663
9.08778
7.76615
12.3519
16.1184
14.4829
13.6341
8.97005
10.7441
10.8085
14.25
14.3247
17.2746
17.1835
9.05417
11.1365
10.9238
14.6936
14.452
17.4499
17.7859
10.0269
11.5325
12.232
15.16
15.9993
18.4165
19.5215
10.8991
15.1041
13.3752
19.492
17.3847
21.314
24.0108
34.9124
34.1228
19.4077
12.6266
37.8198
35.618
38.5102
13.2362
20.8835
13.2962
14.7151
22.9332
14.6671
22.9862
13.6118
21.04
13.4111
14.8152
23.3883
15.0214
23.114
13.237
16.7633
13.3133
21.2645
26.5123
26.6344
21.1575
2.92855
15.4102
24.5291
0.00232524
8.87056e-10
2.46392
7.30871
7.07729
8.14061e-07
2.33719
4.55859
3.116
4.07579
2.94807
4.31373
7.29399
3.33142
7.26457
4.96814
12.4095
7.42062
4.24087
3.33012
2.10195
2.33582
2.31766
2.60724
2.58602
2.59282
2.90647
2.61141
3.30181
2.92734
3.27778
2.90401
3.28206
3.72751
2.61313
3.32121
2.92939
3.33121
2.92427
3.29458
3.77281
8.94111
5.62197
4.26849
17.8692
5.03785
9.38293
32.4457
2.64502
3.50627
2.96303
3.54509
2.98317
3.3595
4.01179
2.6881
2.68755
2.96324
3.00395
3.28275
3.28517
3.63001
3.75535
3.77315
3.3076
3.74288
4.96419
4.31272
4.27938
3.98354
3.80336
3.34638
3.81633
5.27617
4.36415
4.58417
2.97394
3.73948
3.31052
4.09941
3.64201
4.07173
4.62985
3.39636
3.9083
4.73761
3.845
5.41437
4.44705
4.63588
2.97206
3.73694
3.30823
4.11394
3.64759
4.07382
4.63976
2.62012
2.48548
2.2177
1.83461
2.7354
2.17333
2.87192
3.89569
1.98006
1.9323
1.93839
2.10149
2.10078
2.07302
2.26389
2.28409
2.29064
2.13039
2.45797
2.27302
2.47337
2.70552
2.17204
2.00835
1.98478
2.2143
2.15988
2.37337
2.4533
2.04855
2.38511
2.23383
2.40736
2.22886
2.44687
2.65793
0.554556
1.13004
1.49025
0.402907
0.382703
0.482916
0.459408
0.569768
0.520349
0.727379
0.706434
0.57655
0.85958
0.822884
1.00015
0.928661
1.45659
1.2264
1.23113
0.949788
1.07714
1.38777
1.5468
1.80137
0.38662
0.382549
0.388101
0.405664
0.411537
0.415784
0.406657
0.420481
0.501091
0.42573
0.525246
0.450046
0.459305
0.546603
0.681088
0.614981
0.740588
0.6351
0.751513
0.817978
0.677721
0.772864
0.944845
0.849119
0.929421
0.846866
0.932389
1.02596
0.413861
0.388794
0.396966
0.427683
0.432861
0.448084
0.415294
0.431528
0.471311
0.440343
0.449471
0.470998
0.485841
0.43724
1.04676
1.03825
1.0125
1.13366
1.10196
1.1138
1.20456
0.458632
0.524469
0.438111
0.475453
0.607235
0.500055
0.573362
0.483574
0.518858
0.61507
0.497402
0.644922
0.537619
0.594849
0.875213
0.657705
0.804658
0.888054
0.7769
0.724471
0.964603
0.695182
0.893299
0.754525
0.895191
0.806051
0.741489
0.973033
1.01922
1.0347
0.931053
1.02329
1.23386
1.1205
1.12731
0.466225
0.473959
0.490836
0.540194
0.508242
0.491846
0.451188
0.921219
1.07032
0.994846
1.01553
1.19003
1.09959
1.10736
1.13958
1.31145
1.22258
1.27493
1.18815
1.29002
1.37705
1.13037
1.31919
1.22512
1.32784
1.21885
1.30985
1.41811
1.14153
1.22095
1.16137
1.26834
1.1903
1.27714
1.35109
0.518117
0.664792
0.681568
0.600491
0.564172
0.547919
0.625811
0.97233
0.850695
0.863359
1.15407
0.79272
1.05904
1.05718
1.11638
1.34143
1.31824
1.33574
1.21265
1.22512
1.2208
1.40366
1.39884
1.31166
1.39387
1.58686
1.50069
1.48022
1.33057
1.30187
1.24462
1.36045
1.51909
1.43251
1.44672
1.43323
1.40282
1.30863
1.39653
1.63268
1.48746
1.52125
1.47899
1.68921
1.65566
1.71338
1.56853
1.60258
1.56532
2.05363
1.59282
1.69071
1.33201
1.92814
1.48772
1.7947
2.49185
1.41326
1.43997
1.37444
1.52789
1.47846
1.48829
1.59612
1.50084
1.71444
1.61939
1.69036
1.58242
1.70347
1.81546
1.55244
1.81012
1.65375
1.76431
1.61242
1.72945
1.89949
1.42989
1.62173
1.54812
1.60558
1.54529
1.66799
1.74516
1.85933
1.75474
1.92931
1.84648
2.18151
1.96915
2.03655
1.91032
1.66841
1.76118
1.79283
2.04759
1.89101
1.9248
1.84176
1.74489
1.67622
1.80891
2.10278
1.89617
1.99487
1.94508
2.32525
2.28914
2.22752
2.05553
2.0899
2.15433
2.73254
2.45821
2.38292
2.61561
3.05109
2.8907
2.73075
2.6489
2.43228
2.61641
2.6892
3.26022
2.94062
2.9604
2.45319
2.59178
2.35934
2.60468
3.05721
2.87615
2.72871
2.88646
3.43264
3.44147
3.59084
3.20717
3.20978
3.05321
4.39375
6.16766
6.25679
5.91763
5.1109
5.0559
5.32666
4.85797
3.72735
4.24155
4.61671
6.13542
5.30549
5.29678
28.2171
40.717
11.2635
19.7104
55.7468
11.5787
40.9519
3.76702
5.50995
4.13253
5.53539
4.14091
4.6011
6.24015
3.77741
4.33611
4.71257
4.93018
5.35929
5.47945
6.27811
5.24269
6.25075
4.61421
5.20412
8.50338
5.9857
7.20442
6.32272
5.29184
4.63609
5.21626
8.63219
6.02504
7.24916
4.87756
6.57728
5.66939
7.2013
6.17745
7.29577
8.5853
5.92921
6.82033
5.76076
7.78405
6.47056
7.47199
9.07898
5.97317
10.1703
10.258
8.23279
6.98413
6.9539
8.49933
7.79294
7.95278
6.66721
8.7687
13.0687
10.7911
10.447
63.9556
27.8064
41.9915
51.9665
63.646
72.4312
75.6888
6.16402
10.5282
7.10116
11.0433
7.3424
8.56401
13.118
8.2547
8.32145
9.53432
11.5879
13.1137
13.2278
15.1672
12.6423
9.9646
8.33551
10.1942
19.4402
12.3487
15.8593
13.9257
11.2932
8.97894
10.6056
21.4494
13.4854
16.6315
9.5401
13.3299
11.1636
17.9305
15.1739
17.7694
21.2275
9.70462
13.5742
11.2587
18.4503
15.4495
17.9267
21.6224
12.7826
24.9246
26.2029
20.3119
16.4249
15.6698
20.2184
16.073
16.2286
13.3316
21.2322
31.1637
25.7912
25.5501
40.9803
22.956
36.4047
14.1611
35.5646
1.93212
42.7218
40.917
37.9128
28.6578
27.9205
27.4606
39.0151
45.3168
28.9203
36.9255
34.2372
28.4878
28.053
29.3107
35.8249
29.0775
27.9591
27.4346
37.3822
33.4569
34.9755
34.1892
35.5504
33.4313
33.9318
28.1421
29.7254
32.8977
33.0963
30.5551
33.3561
34.641
32.0098
41.041
1.01975
8.89262
37.7686
21.8148
13.9591
14.5284
23.9295
15.4177
16.1024
24.8838
13.7661
16.9725
13.4688
21.501
27.5406
26.9377
21.9608
23.8772
18.7519
28.6407
16.6641
15.4019
17.1778
26.4077
17.5594
22.4787
14.1164
16.6929
20.884
26.502
32.8902
14.3123
19.3825
15.2536
28.6347
22.801
24.241
30.4945
16.686
29.5694
25.7985
19.2214
19.2985
16.6288
25.8571
36.6285
43.7797
0.124691
0.0313138
41.4691
46.8351
0.00152036
20.949
31.6875
18.4126
31.5232
20.78
23.9241
35.6116
16.7924
26.272
19.7012
29.71
19.4328
17.0167
25.985
29.9829
24.3356
19.0194
21.3732
16.7629
26.5432
33.4645
26.8686
20.2377
17.4681
18.2794
31.8501
21.2184
27.9557
20.0984
30.9435
25.2635
38.4492
31.7361
39.5057
47.9188
25.3248
21.5621
32.3861
19.595
33.8768
22.8455
29.7351
44.0339
34.8204
34.0847
28.4955
22.2068
26.5206
41.2981
28.1989
28.8776
28.2035
39.8117
40.4223
39.445
41.1028
27.9994
28.9655
28.1424
41.472
39.928
39.8666
41.4325
3.63009
40.0927
41.0169
48.8935
47.879
0.00319458
0.00680461
34.0713
22.5992
22.6972
27.1276
39.2309
27.0127
39.2417
27.9834
27.8097
27.9018
38.8747
37.8538
38.6222
38.1133
27.594
27.668
27.7812
38.9134
38.0329
38.1502
38.8076
23.2239
34.2073
22.8764
27.3671
39.5799
27.8368
39.3218
28.1994
28.4758
28.2878
39.6533
38.8953
38.267
38.9372
0.000704327
46.6853
0.0490805
2.35445
39.9605
47.8573
0.00196063
23.9008
36.4705
25.1326
40.1711
28.7282
30.3133
41.3352
35.6972
28.1247
23.9418
27.8773
45.7617
33.0577
40.3946
28.0746
28.273
28.2351
37.3853
38.1645
37.5689
36.7991
27.819
28.1624
27.9791
37.0034
37.3032
36.434
36.1187
27.5663
27.6564
27.7899
37.2677
37.3679
36.4803
36.5354
28.8501
24.3379
35.9816
28.0981
45.6565
33.5868
40.4768
28.6352
29.0541
28.5414
37.6112
37.6278
38.2401
37.0382
28.6632
29.1151
28.5495
36.9341
35.7785
36.2223
36.3996
35.6486
29.1282
29.0174
28.0306
28.2185
35.8718
35.8556
28.442
28.4113
28.8155
36.5254
36.0008
35.6879
35.2897
46.4928
41.8723
30.3382
38.6683
27.1901
32.9034
43.4042
61.5863
50.8457
41.3908
39.4596
32.1727
49.5629
59.5806
35.3126
29.5273
29.294
28.6362
28.4169
35.7012
35.3841
28.9386
30.4344
29.4686
35.2711
35.5508
35.0249
34.9422
34.5524
34.6879
29.916
28.9629
29.4992
35.0318
34.7875
32.9535
44.6275
40.2058
48.9857
40.2971
32.8296
44.5189
33.2579
44.4379
48.6436
41.2294
40.5936
33.8635
44.4076
35.7871
30.6894
30.6637
32.9424
32.9009
36.3492
36.1282
33.05
50.8892
46.9164
50.6952
39.6171
39.3324
45.5815
35.2899
30.9495
30.7698
32.9532
32.8692
35.7177
35.2905
31.5159
34.6168
34.9865
31.4727
30.3211
34.7089
34.8208
44.756
42.4168
34.9724
36.8755
49.1852
44.4696
45.6389
49.7513
0.00015005
1.48826e-05
50.2016
0.00812759
2.36083
0.000144152
50.4107
45.9411
34.7495
50.5444
40.4776
48.5486
54.8782
34.5961
34.6596
31.3278
33.2653
33.8866
35.0469
35.0863
2.29014
1.94454
3.84415
2.22534
4.70966
2.32488
4.58532
3.82187
1.88975
1.991
3.00193
6.34604
3.27316
3.91201
4.89311
2.41241
1.89431
1.96268
1.97085
2.34034
2.34968
2.42373
2.43941
1.9133
2.03505
1.99502
2.38454
2.36318
2.46
2.49228
2.05981
2.09422
2.18119
2.42673
2.50348
2.55172
2.65324
2.0753
2.23672
2.08416
2.75768
2.56248
2.58114
2.77781
2.1603
2.26957
2.11262
2.60622
2.85528
2.64739
2.80561
2.15758
2.47161
2.30481
2.78687
2.62225
2.80509
3.01228
2.23249
2.54769
2.3411
2.95121
2.72391
2.85324
3.11408
3.81715
2.95529
2.95631
3.964
3.05832
3.06732
3.96843
2.70555
2.74232
2.49665
3.04498
3.68021
3.35497
3.30495
2.97907
3.82078
2.96174
3.08118
4.03117
3.11337
3.98435
3.49895
4.21609
3.23903
3.25014
4.59127
4.22263
3.50936
3.0267
3.1221
4.04565
4.13532
3.18557
3.31444
4.31705
3.26859
4.31402
3.58639
4.62169
3.31314
4.24685
3.53017
4.25652
4.55612
3.48456
3.50876
4.97791
4.59143
3.77653
4.45395
3.70864
3.40885
3.5747
5.20572
4.6917
3.92019
1.74392
1.44235
2.12335
1.6052
2.23699
1.89426
1.92251
1.80671
1.86308
1.5945
1.20278
1.24364
1.92796
1.65754
2.51149
2.00858
1.54476
1.8304
1.97506
1.95292
1.77753
1.52501
1.91068
1.65335
1.24761
1.67935
1.56498
1.81489
1.3189
1.4198
1.32738
1.73396
2.07142
2.77741
3.97482
2.76715
2.61668
2.10691
2.10096
2.22322
2.08525
2.20098
2.05423
1.78871
1.9235
1.2496
1.24607
1.34242
1.29007
1.28626
1.3249
1.37258
2.09036
1.68923
1.95287
1.53106
1.52987
1.42167
1.64829
1.32932
1.44571
1.34199
1.46312
1.36233
1.46348
1.58374
1.44218
1.50974
1.39249
1.53411
1.42055
1.47907
1.60808
1.5091
1.56944
1.39834
1.67114
1.60807
1.47753
1.64255
1.36422
1.5752
1.36199
1.43595
1.68353
1.43854
1.64854
1.58401
1.59737
1.4598
1.5889
1.90956
1.74091
1.73201
1.40189
1.72802
1.47054
1.7458
1.48137
1.56189
1.83056
1.57962
1.44358
1.57782
1.58168
1.72558
1.72195
1.89209
1.84507
1.77085
1.72217
1.57406
1.86398
1.74028
1.68723
1.52823
1.78795
1.87386
1.64787
1.53218
1.74689
1.64007
1.66121
1.81617
1.55765
1.6661
2.0788
1.93916
1.79236
1.9153
1.92167
1.7387
2.10553
1.89984
2.09499
2.33181
1.90799
1.72959
1.90207
2.08552
1.88851
2.08756
2.31669
1.86101
1.70926
1.58252
1.67768
2.13244
1.9632
1.82268
1.80332
2.15889
2.27124
2.29815
2.09767
1.97382
1.95701
1.78677
2.25687
1.94601
2.25411
1.94194
2.13382
2.48031
2.35199
2.34431
2.11504
2.32244
2.90642
2.5889
2.59552
2.38127
2.49022
2.14312
2.36777
3.10237
2.64709
2.76095
2.48336
2.36514
2.13294
2.36152
3.09396
2.63505
2.7563
1.89549
1.67513
2.23089
2.2429
2.2104
1.83299
1.86568
1.4845
1.81705
1.55199
1.73516
1.68318
1.9714
1.87406
2.04863
2.17934
1.8258
2.11391
2.00106
2.04725
2.18499
2.1222
1.94714
1.81529
2.10791
2.16055
2.01666
2.1962
2.33258
1.81596
1.40894
1.66174
1.78803
1.95179
1.96466
1.50832
2.38643
1.92176
1.89483
2.21222
2.29901
2.21872
2.28033
1.14482
1.24328
1.32845
1.66767
2.01835
2.12513
1.74532
1.709
1.17516
1.20243
1.26076
1.24262
1.34364
1.32966
1.41852
1.36047
1.45674
1.32048
1.58774
1.45948
1.54481
1.69676
1.26317
1.38677
1.31302
1.48838
1.40588
1.5011
1.59155
1.48771
1.55823
1.40116
1.63898
1.94415
1.81466
1.74574
1.46457
1.7811
1.58465
1.79782
1.53875
1.66466
1.87665
1.78757
1.80936
1.6728
1.76776
1.90957
1.85929
1.91488
1.72737
1.90138
1.62731
1.75883
2.10707
1.98604
1.86643
1.98597
2.04093
2.17753
1.87561
2.16477
2.03385
1.99681
1.39328
1.64458
1.24571
1.27684
1.39308
1.73176
1.34156
2.09708
1.91157
2.02307
2.09019
1.68935
1.60387
2.19601
1.72059
1.59517
1.52634
1.80422
1.57371
1.4513
1.86033
1.83147
1.86669
1.62621
1.54028
2.18146
2.13895
1.67958
1.73293
1.83058
1.54453
1.84181
1.60352
1.68215
1.56937
1.68483
1.84061
1.72709
1.83536
1.88219
1.77744
1.81368
1.95527
1.64407
1.86314
1.75445
1.8001
1.67397
1.80899
1.95048
1.41242
1.38649
1.51978
1.52054
1.5384
1.67723
1.66854
1.99805
1.87138
1.9971
1.95557
2.29138
2.11337
2.11544
1.6804
1.8367
1.66973
1.8283
2.02279
1.99608
1.8348
1.82685
1.66867
1.82845
1.82899
2.01276
1.99262
1.83186
2.38704
2.46243
2.22911
2.22363
2.01819
2.17881
1.99542
2.00826
1.99853
1.91385
2.07584
1.75868
1.505
1.62569
1.37907
1.96135
2.03327
1.81558
1.73899
2.06674
1.85944
1.77219
1.33059
1.15664
1.17614
0.854182
0.886251
1.4028
1.85799
1.63468
1.18739
0.660785
0.910881
0.935085
1.0856
1.10422
1.44667
0.898201
1.01791
0.993191
0.751963
0.777115
0.727813
0.895912
0.828827
0.871001
1.00173
0.83613
0.874124
0.923869
0.874364
0.911317
0.947032
0.951725
1.7967
1.77089
1.28559
1.40299
1.05701
1.22608
0.975845
1.68955
2.29531
1.99908
1.77181
0.993018
1.18484
2.15905
0.973802
1.36376
1.12771
1.26853
1.09418
1.26078
1.45064
0.833118
1.07978
0.989745
0.998198
0.915323
1.10743
1.20556
0.804356
0.9823
0.906704
1.09877
0.981367
1.11569
1.22345
0.84984
0.962982
0.902618
0.986081
0.931438
0.986876
1.05232
0.90279
0.952597
0.91485
1.01513
0.978881
0.995003
1.03768
0.992346
1.06523
1.07379
1.10992
1.02578
1.03731
1.12924
1.46973
1.32151
1.18904
1.38031
1.51167
1.13739
1.31875
1.068
1.08349
0.996087
1.22417
1.4291
1.32592
1.32704
1.30235
1.33947
1.20671
1.37033
1.57481
1.5181
1.45432
1.50324
1.35926
1.24817
1.39056
1.73647
1.59996
1.50832
1.08419
1.17526
1.08518
1.30877
1.28179
1.18073
1.42447
0.993874
1.02529
0.952047
1.03963
1.18598
1.11832
1.08749
1.07677
1.11077
1.18434
1.0784
1.26806
1.14843
1.1796
0.528419
0.403613
0.478588
0.347556
0.445469
0.546662
0.568512
0.608209
0.340944
0.406158
0.40404
0.374472
0.436344
0.438228
0.380768
0.519828
0.461789
0.514428
0.464615
0.492753
0.491877
0.547768
0.352355
0.350306
0.405246
0.436788
0.384572
0.43543
0.383051
0.452965
0.499615
0.502729
0.409713
0.46761
0.469743
0.415502
0.460666
0.459023
0.515793
0.491691
0.573741
0.496639
0.555155
0.576292
0.552067
0.55718
0.617403
0.52089
0.523387
0.582221
0.459375
0.508166
0.521892
0.470265
0.424587
0.474124
0.418102
0.636322
0.673788
0.589625
0.528759
0.62163
0.540323
0.596308
0.310733
0.315866
0.522741
0.626011
0.298604
0.382055
0.173968
0.468991
0.29216
0.254235
0.265422
0.318568
0.278798
0.288406
0.325517
0.21524
0.213048
0.237266
0.22726
0.248739
0.275929
0.286749
0.294734
0.30247
0.273976
0.305927
0.34275
0.338101
0.332901
0.347683
0.388282
0.405268
0.35012
0.306663
0.324297
0.360276
0.389465
0.282955
0.266343
0.319161
0.482903
0.388536
0.374899
0.410381
0.38528
0.353147
0.300254
0.29223
0.333157
0.376118
0.466956
0.437745
0.42411
0.357072
0.390193
0.413239
0.372301
0.568489
0.558513
0.487641
0.394937
0.567981
0.479247
0.471106
0.859964
0.781419
0.663828
0.603382
0.995694
0.701865
0.604428
0.820259
0.577124
0.638127
0.570297
0.630136
0.606156
0.662919
0.667126
0.578138
0.67911
0.642792
0.654264
0.621787
0.688256
0.732011
0.706697
0.765021
0.695216
0.801013
0.729083
0.73224
0.801759
0.632756
0.6763
0.642184
0.724043
0.693042
0.703569
0.737563
0.759748
0.704709
0.663994
0.729244
0.838702
0.784874
0.76589
0.749026
0.776798
0.708375
0.756468
0.882252
0.807178
0.82691
0.829116
0.789365
0.758614
0.769458
0.874737
0.840119
0.803186
0.797636
0.909268
0.91487
0.940609
0.861912
0.871813
0.83358
0.745632
0.755532
0.748409
0.788872
0.777128
0.661442
0.611523
0.557419
0.324303
0.775266
0.396612
0.517477
0.769472
1.22289
0.980501
0.549029
0.564103
0.410148
0.329137
0.36243
0.401392
0.367177
0.398693
0.493684
0.422148
0.359082
0.384477
0.43663
0.394845
0.443806
0.473803
0.425049
0.511592
0.625034
0.501086
0.589565
0.481535
0.570923
0.659389
0.477287
0.63751
0.518548
0.616084
0.516315
0.571699
0.715588
0.740728
0.647326
0.765091
0.514138
0.394183
0.37277
0.451339
1.14176
1.09022
0.661989
0.951415
0.643717
0.527616
0.807138
0.536588
0.435804
0.501692
0.596755
0.616836
0.510094
0.677006
0.440226
0.636848
0.517133
0.606419
0.623191
0.697053
0.514965
0.556983
0.44484
0.490838
0.539076
0.58634
0.489947
0.641147
0.623595
0.439479
0.498846
0.558253
0.611176
0.691134
0.496683
0.621402
0.635921
0.563404
0.623187
0.686949
0.653872
0.678155
0.700339
0.713645
0.607067
0.650669
0.766485
0.716145
0.723473
0.648404
0.685751
0.57235
0.657474
0.94398
0.819189
0.774841
0.777453
0.790389
0.619103
0.69978
1.0619
0.858043
0.895204
0.6518
0.695195
0.873658
0.695144
0.780876
0.583863
0.771154
0.684171
0.783737
0.710067
0.702297
0.749444
0.610603
0.739742
0.685744
0.671418
0.706133
0.581399
0.575283
0.584117
0.576643
0.749753
0.69473
0.785819
0.628981
0.716088
0.710126
0.623754
0.678834
0.736024
0.723957
0.756206
0.727219
0.699228
0.724973
0.719537
0.754997
0.719577
0.656585
0.600875
0.61626
0.673935
0.809516
1.03769
1.12579
1.14508
0.948726
1.01212
0.935714
0.903911
1.12658
0.937507
1.00342
0.839818
0.825104
0.971295
0.730063
0.748052
0.723255
0.630638
0.690195
0.643034
0.684482
0.835533
0.724637
0.813522
0.705831
0.617705
0.619216
0.710843
0.758776
0.703961
0.73457
0.595174
0.575855
0.606575
0.575329
0.42476
0.37472
0.406883
0.417304
0.37426
0.375628
0.449611
0.462989
0.402612
0.423511
0.423659
0.466704
0.405457
0.463885
0.528484
0.619932
0.607924
0.630108
0.560683
0.672059
0.537557
0.977024
1.14423
0.961238
0.815499
0.939875
0.823135
0.94461
0.81083
0.712263
0.699687
0.728941
0.874342
0.776237
0.836636
1.2072
1.06364
1.1571
1.08523
1.2474
1.18749
1.1346
1.62617
1.82071
1.69879
1.5503
1.67482
1.48686
1.62907
1.47855
1.87654
1.91187
1.63269
1.61055
1.76601
2.0146
1.31284
1.06629
1.08834
1.49306
1.51881
1.24777
1.20396
1.25571
1.54339
1.43536
1.36812
1.27796
1.55865
1.67263
1.5016
1.70446
1.72261
1.80608
1.66893
1.62207
1.58326
0.954807
0.944459
0.910477
1.02114
1.0923
1.08338
1.08215
1.32855
1.60811
1.41352
1.44737
1.29128
1.56751
1.76615
0.43182
0.486934
0.397455
0.381368
0.382976
0.447418
0.47106
1.1361
1.30135
1.31733
1.35579
1.22317
1.24689
1.19289
0.431136
0.493404
0.432981
0.487387
0.415339
0.444705
0.473915
1.03095
0.947914
0.887296
0.780211
0.922883
0.844943
0.844628
0.670494
0.596307
0.792056
0.599517
0.729035
0.560849
0.724802
1.65488
1.82911
1.68379
1.39813
1.44835
1.33384
1.52711
1.13012
1.04874
0.997389
1.11069
1.22672
1.15006
1.16292
1.35274
1.12575
1.23165
1.20511
1.27637
1.18099
1.31365
1.50346
1.56847
1.39825
1.70745
2.0228
1.90368
1.8244
1.83309
1.94702
1.74875
1.88119
2.13238
2.08428
1.9668
2.05405
1.94922
1.77178
1.92084
2.24534
2.15158
2.08912
2.05115
1.96336
1.92287
1.63426
1.55297
1.68248
1.62
2.05643
2.11963
2.11437
1.70968
1.82156
1.74305
1.69605
1.41213
1.32923
1.4513
1.42716
1.50346
1.49131
1.48466
1.33382
1.31469
1.35238
1.21568
1.31481
1.24287
1.25935
2.31076
2.24835
2.21453
2.03253
2.29112
2.2002
2.12013
1.45459
1.43583
1.4168
1.5164
1.62249
1.5475
1.5637
1.95808
2.00479
2.08111
1.68521
1.77419
1.677
1.72026
1.59294
1.51884
1.53558
1.56731
1.72512
1.59121
1.66561
1.9366
1.83272
1.68155
1.61813
1.82877
1.67023
1.74547
2.63718
3.49642
3.49352
3.3442
2.95932
2.96427
3.09152
3.8223
4.67044
5.55538
5.67815
5.04951
4.23623
4.16287
0.46434
0.901545
0.308641
0.47736
0.242765
0.39988
0.366785
0.407758
0.307397
0.870956
0.626288
0.575848
0.361475
0.296195
0.516238
0.410382
0.212246
0.235568
0.179361
0.209338
0.247595
0.222421
0.237635
0.450334
0.43584
0.307966
0.249552
0.315554
0.399563
0.299254
0.407119
0.461087
0.353712
0.305472
0.41559
0.398517
0.316756
0.315941
0.299425
0.208069
0.281491
0.352525
0.265429
0.35772
0.810444
0.72333
0.625964
0.546739
0.41399
0.531049
0.685175
0.613554
0.52745
0.501768
0.506377
0.483271
0.395758
0.579337
0.889155
0.757153
0.747603
0.64211
0.8708
0.714001
0.795691
0.337786
0.484194
0.362042
0.310282
0.389547
0.368347
0.365501
0.261437
0.317567
0.300155
0.323126
0.308741
0.330159
0.277
0.246447
0.307705
0.323669
0.36378
0.375099
0.290278
0.263217
0.331592
0.345561
0.391892
0.343671
0.383963
0.364392
0.296814
0.334049
0.384982
0.405049
0.370525
0.373726
0.324403
0.384868
0.365985
0.366641
0.331143
0.391667
0.355945
0.312263
0.425039
0.425583
0.360943
0.359987
0.391417
0.430002
0.375576
0.472285
0.343822
0.381375
0.379937
0.401922
0.376376
0.359432
0.381493
0.445243
0.633424
0.446293
0.466734
0.405556
0.514267
0.546735
0.624295
0.923813
0.516334
0.784724
0.606223
0.3773
0.440379
0.399268
0.390626
1.04257
0.63197
0.644758
0.498816
0.397093
0.747321
0.573066
0.545312
0.56402
0.605083
0.496308
0.484184
0.542535
0.554235
0.555169
0.584659
0.662782
0.547673
0.630718
0.671492
0.596667
0.776281
0.951366
0.794385
0.925214
0.764913
0.800144
0.962627
0.657684
0.787573