/*--------------------------------*- C++ -*----------------------------------*\
  =========                 |
  \\      /  F ield         | OpenFOAM: The Open Source CFD Toolbox
   \\    /   O peration     | Website:  https://openfoam.org
    \\  /    A nd           | Version:  9
     \\/     M anipulation  |
\*---------------------------------------------------------------------------*/
FoamFile
{
    format      ascii;
    class       volScalarField;
    location    "0.0012";
    object      overpressureMax;
}
// * * * * * * * * * * * * * * * * * * * * * * * * * * * * * * * * * * * * * //

dimensions      [1 -1 -2 0 0 0 0];

internalField   nonuniform List<scalar> 
10228
(
0
0
0
0
0
0
0
0
0
0
0
0
0
0
0
0
0
0
0
0
0
0
0
0
0
0
0
0
0
0
0
0
0
0
0
2.08402e-06
0
4.42989e-07
1.13768e-06
4.02477e-07
1.65368e-07
1.312e-07
7.48891e-06
2.68621e-06
7.41045e-06
2.68412e-06
0.00108291
0.0336792
0.00181536
0.00108972
0.00212196
0.0110249
0.013771
0.0119788
3.72242e-05
0.000639912
0.00014206
5.50833e-05
0.000127758
5.52634e-05
0.00085483
0.0017363
0.000836127
0.00129213
7.93079e-08
4.83473e-07
8.86066e-08
8.08213e-08
7.21921e-08
4.74363e-07
2.80153e-07
1.28229e-05
1.02593e-05
0.000366731
2.7924e-06
4.53918e-07
2.36132e-05
2.24057e-06
1.04018e-05
1.91696e-05
2.19066e-05
0.000100613
4.25876e-06
2.87411e-06
4.06618e-06
1.70839e-07
0
6.51635e-08
3.4197e-09
0
0
0
0
1.16415e-10
0
0
4.51109e-10
6.40284e-10
5.82077e-10
2.61934e-10
1.15376e-06
2.75177e-08
6.61632e-07
7.14965e-07
2.88419e-08
1.01252e-07
1.24855e-08
9.28412e-09
0
1.45519e-10
0
1.16415e-10
9.60426e-10
4.07454e-10
0
0
0
0
0
0
0
0
0
0
0
2.22353e-08
7.49715e-08
5.21919e-07
7.66886e-09
5.64614e-09
7.13044e-09
6.57747e-09
2.50584e-08
4.38304e-08
1.7506e-08
4.93892e-08
1.32422e-09
7.78527e-09
9.1095e-09
5.34346e-08
1.70257e-09
1.30967e-09
1.35333e-09
1.33441e-08
4.75848e-09
1.16415e-08
4.83124e-09
3.74421e-08
1.1496e-09
2.48692e-08
0
1.05833e-06
2.11912e-05
1.05123e-07
1.39658e-06
4.36557e-11
2.18279e-10
7.71252e-10
3.0268e-09
5.82077e-11
0
0
5.52973e-10
2.76486e-10
4.80213e-10
4.07454e-10
4.51109e-10
2.32831e-10
8.73115e-11
1.74623e-09
3.46336e-09
1.35333e-09
3.91447e-09
9.01928e-08
6.68806e-08
6.77828e-08
4.33647e-09
4.65661e-09
2.2701e-09
2.2701e-09
6.50442e-07
9.51695e-08
1.04003e-07
3.4328e-08
5.06552e-08
2.39954e-06
1.85246e-06
1.29512e-09
0
1.89175e-10
1.74623e-09
5.82077e-11
0
2.91038e-11
0
0
0
0
4.36557e-11
1.01863e-10
5.82077e-11
8.73115e-11
4.36557e-11
5.52973e-10
1.09139e-09
4.07454e-10
1.25146e-09
2.34286e-08
3.17232e-09
3.18687e-09
4.07454e-10
0
1.16415e-10
0
1.30967e-10
5.52973e-10
2.12021e-08
4.07454e-10
0
0
5.32673e-07
1.10158e-08
0
5.09317e-10
1.30967e-10
0
0
0
0
0
4.88653e-07
1.39164e-06
8.23074e-06
3.27593e-07
2.03319e-07
3.29223e-07
2.20243e-07
3.56745e-06
1.78479e-07
6.76315e-07
9.11386e-08
6.29152e-07
1.38825e-08
1.55414e-08
0
0
0
0
0
0
0
0
0
1.45519e-11
3.62343e-09
0
0
0
0
1.16415e-10
0
3.7835e-10
3.63798e-10
6.72298e-09
6.57747e-09
0
0
0
0
0
0
0
0
0
0
0
0
0
0
0
0
0
0
0
0
0
0
0
0
0
0
0
0
0
0
0
0
0
0
0
0
0
0
0
0
0
0
0
0
0
0
0
0
0
0
0
0
0
0
0
0
0
0
0
0
0
0
0
0
0
0
0
0
0
0
0
0
0
0
0
0
0
0
0
0
0
0
0
0
0
0
0
0
0
0
0
0
0
0
0
0
0
0
0
0
0
0
0
0
0
0
0
0
0
0
0
0
0
0
0
0
0
0
0
0
0
0
0
0
0
0
0
0
0
0
0
0
0
0
2.61934e-10
0
0
0
1.89175e-10
0
0
0
0
0
0
0
0
0
0
0
0
0
0
0
0
0
0
0
0
0
0
0
0
0
0
0
0
0
0
0
0
0
0
0
0
0
0
0
0
0
0
0
0
0
0
0
0
0
0
0
0
0
0
0
0
0
0
0
0
0
0
0
0
0
0
0
0
0
0
0
0
0
0
0
0
0
0
0
0
0
0
0
0
0
0
0
0
0
0
0
0
0
0
0
0
0
0
0
0
0
0
0
0
0
0
0
0
0
0
0
0
0
0
0
0
0
0
0
0
0
0
0
0
0
0
0
0
0
0
0
0
0
0
0
0
0
0
0
0
0
0
0
0
0
0
0
0
0
0
0
0
0
0
0
0
0
0
0
0
0
0
0
0
0
0
0
0
0
0
0
0
0
0
0
0
0
0
0
0
0
0
0
0
0
0
0
0
0
0
0
0
0
0
0
0
0
0
0
0
0
0
0
0
0
0
0
0
0
0
0
0
0
0
0
0
0
0
0
0
0
0
0
0
0
0
0
0
0
0
0
0
0
0
0
0
0
0
0
0
0
0
0
0
0
0
0
0
0
0
0
0
0
0
0
0
0
0
0
0
0
0
0
0
0
0
0
0
0
0
0
0
0
0
0
0
0
0
0
0
0
0
0
0
0
0
0
0
0
0
0
0
0
0
0
0
0
0
0
0
0
0
0
0
0
0
0
0
0
0
0
0
0
0
0
0
0
0
0
0
0
0
0
0
0
0
0
0
0
0
0
0
0
0
0
0
0
0
0
0
0
0
0
0
0
0
0
0
0
0
0
0
0
0
0
0
0
0
0
0
0
0
0
0
0
0
0
0
0
0
0
0
0
0
0
0
0
0
0
0
0
0
0
0
0
0
0
0
0
0
0
0
0
0
0
0
0
0
0
0
0
0
0
0
0
0
0
0
0
0
0
0
0
0
0
0
0
0
0
0
0
0
0
0
0
0
0
0
0
0
0
0
0
0
0
0
0
0
0
0
0
0
0
0
0
0
0
0
0
0
0
0
0
0
0
0
0
0
0
0
0
0
0
0
7.27596e-11
0
0
0
0
0
0
0
0
0
0
0
0
0
0
0
0
0
0
0
0
0
0
0
0
0
0
0
0
0
0
0
0
0
0
0
0
0
0
0
0
0
0
0
0
0
0
0
0
0
0
0
0
0
0
0
0
0
0
0
0
0
0
0
0
0
0
0
0
0
0
0
0
0
0
0
0
0
0
0
0
0
0
0
0
0
0
0
0
0
0
0
0
0
0
0
0
0
0
0
0
0
0
0
0
0
0
0
0
0
0
0
0
0
0
0
0
0
0
0
0
0
0
0
0
0
0
0
0
0
0
0
0
0
0
0
0
0
0
0
0
0
0
0
0
0
0
0
0
0
0
0
0
0
0
0
0
0
0
0
0
0
0
0
0
0
0
0
0
0
0
0
0
0
0
0
0
0
0
0
0
0
0
0
0
0
0
0
0
0
0
0
0
0
0
0
0
0
0
0
0
0
0
0
0
0
0
0
0
0
0
0
0
0
0
0
0
0
0
0
0
0
0
0
0
0
0
0
0
0
0
0
0
0
0
0
0
0
0
0
0
0
0
0
0
0
0
0
0
0
0
0
0
0
0
0
0
0
0
0
0
0
0
0
0
0
0
0
0
0
0
0
0
0
0
0
0
0
0
0
0
0
0
0
0
0
0
0
0
0
0
0
0
0
0
0
0
0
0
0
0
0
0
0
0
0
0
0
0
0
0
0
0
0
0
0
0
0
0
0
0
0
0
0
0
0
0
0
0
0
0
0
0
0
0
0
0
0
0
0
0
0
0
0
0
0
0
0
0
0
0
0
0
0
0
0
0
0
0
0
0
0
0
0
0
0
0
0
0
0
0
0
0
0
0
0
0
0
0
0
0
0
0
0
0
0
0
0
0
0
0
0
0
0
0
0
0
0
0
0
0
0
0
0
0
0
0
0
0
0
0
0
0
0
0
0
0
0
0
0
0
0
0
0
0
0
0
0
0
0
0
0
0
0
0
0
0
0
0
0
0
0
0
0
0
0
0
0
0
0
0
0
0
0
0
0
0
0
0
0
0
0
0
0
0
0
0
0
0
0
0
0
0
0
0
0
0
0
0
0
0
0
0
0
0
0
0
0
0
0
0
0
0
0
0
0
0
0
0
0
0
0
0
0
0
0
0
0
0
0
0
0
0
0
0
0
0
0
0
0
0
0
0
0
0
0
0
0
0
0
0
0
0
0
0
0
0
0
0
0
0
0
0
0
0
0
0
0
0
0
0
0
0
0
0
0
0
0
0
0
0
0
0
0
0
0
0
0
0
0
0
0
0
0
0
0
0
0
0
0
0
0
0
0
0
0
0
0
0
0
0
0
0
0
0
0
0
0
0
0
0
0
0
0
0
0
0
0
0
0
0
0
0
0
0
0
0
0
0
0
0
0
0
0
0
0
0
0
0
0
0
0
0
0
0
0
0
0
0
0
0
0
0
0
0
0
0
0
0
0
0
0
0
0
0
0
0
0
0
0
0
0
0
0
0
0
0
0
0
0
0
0
0
0
0
0
0
0
0
0
0
0
0
0
0
0
0
0
0
0
0
0
0
0
0
0
0
0
0
0
0
0
0
0
0
0
0
0
0
0
0
0
0
0
0
0
0
0
0
0
0
0
0
0
0
0
0
0
0
0
0
0
0
0
0
0
0
0
0
0
0
0
0
0
0
0
0
0
0
0
0
0
0
0
0
0
0
0
0
0
0
0
0
0
0
0
0
0
0
0
0
0
0
0
0
0
0
0
0
0
0
0
0
0
0
0
0
0
0
0
0
0
0
0
0
0
0
0
0
0
0
0
0
0
0
0
0
0
0
0
0
0
0
0
0
0
0
0
0
0
0
0
0
0
0
0
0
0
0
0
0
0
0
0
0
0
0
0
0
0
0
0
0
0
0
0
0
0
0
0
0
0
0
0
0
0
0
0
0
0
0
0
0
0
0
0
0
0
0
0
0
0
0
0
0
0
0
0
0
0
0
0
0
0
0
0
0
0
0
0
0
0
0
0
0
0
0
0
0
0
0
0
0
0
0
0
0
0
0
0
0
0
0
0
0
0
0
0
0
0
0
0
0
0
0
0
0
0
0
0
0
0
0
0
0
0
0
0
0
0
0
0
0
0
0
0
0
0
0
0
0
0
0
0
0
0
0
0
0
0
0
0
0
0
0
0
0
0
0
0
0
0
0
0
0
0
0
0
0
0
0
0
0
0
0
0
0
0
0
0
0
0
0
0
0
0
0
0
0
0
0
0
0
0
0
0
0
0
0
0
0
0
0
0
0
0
0
0
0
0
0
0
0
0
0
0
0
0
0
0
0
0
0
0
0
0
0
0
0
0
0
0
0
0
0
0
0
0
0
0
0
0
0
0
0
0
0
0
0
0
0
0
0
0
0
0
0
0
0
0
0
0
0
0
0
0
0
0
0
0
0
0
0
0
0
0
0
0
0
0
0
0
0
0
0
0
0
0
0
0
0
0
0
0
0
0
0
0
0
0
0
0
0
0
0
0
0
0
0
0
0
0
0
0
0
0
0
0
0
0
0
0
0
0
0
0
0
0
0
0
0
0
0
0
0
0
0
0
0
0
0
0
0
0
0
0
0
0
0
0
0
0
0
0
0
0
0
0
0
0
0
0
0
0
0
0
0
0
0
0
0
0
0
0
0
0
0
0
0
0
0
0
0
0
0
0
0
0
0
0
0
0
0
0
0
0
0
0
0
0
0
0
0
0
0
0
0
0
0
0
0
0
0
0
0
0
0
0
0
0
0
0
0
0
0
0
0
0
0
0
0
0
0
0
0
0
0
0
0
0
0
0
0
0
0
0
0
0
0
0
0
0
0
0
0
0
0
0
0
0
0
0
0
0
0
0
0
0
0
0
0
0
0
0
0
0
0
0
0
0
0
0
0
0
0
0
0
0
0
0
0
0
0
0
0
0
0
0
0
0
0
0
0
0
0
0
0
0
0
0
0
0
0
0
0
0
0
0
0
0
0
0
0
0
0
0
0
0
0
0
0
0
0
0
0
0
0
0
0
0
0
0
0
0
0
0
0
0
0
0
0
0
0
0
0
0
0
0
0
0
0
0
0
0
0
0
0
0
0
0
0
0
0
0
0
0
0
0
0
0
0
0
0
0
0
0
0
0
0
0
0
0
0
0
0
0
0
0
0
0
0
0
0
0
0
0
0
0
0
0
0
0
0
0
0
0
0
0
0
0
0
0
0
0
0
0
0
0
0
0
0
0
0
0
0
0
0
0
0
0
0
0
0
0
0
0
0
0
0
0
0
0
0
0
0
0
0
0
0
0
0
0
0
0
0
0
0
0
0
0
0
0
0
0
0
0
0
0
0
0
0
0
0
0
0
0
0
0
0
0
0
0
0
0
0
0
0
0
0
0
0
0
0
0
0
0
0
0
0
0
0
0
0
0
0
0
0
0
0
0
0
0
0
0
0
0
0
0
0
0
0
0
0
0
0
0
0
0
0
0
0
0
0
0
0
0
0
0
0
0
0
0
0
0
0
0
0
0
0
0
0
0
0
0
0
0
0
0
0
0
0
0
0
0
0
0
0
0
0
0
0
0
0
0
0
0
0
0
0
0
0
0
0
0
0
0
0
0
0
0
0
0
0
0
0
0
0
0
0
0
0
0
0
0
0
0
0
0
0
0
0
0
0
0
0
0
0
0
0
0
0
0
0
0
0
0
0
0
0
0
0
0
0
0
0
0
0
0
0
0
0
0
0
0
0
0
0
0
0
0
0
0
0
0
0
0
0
0
0
0
0
0
0
0
0
0
0
0
0
0
0
0
0
0
4.36557e-10
0
0
0
0
0
0
0
0
0
0
0
0
0
0
0
0
0
2.61934e-10
0
0
0
0
0
4.36557e-11
0
0
0
0
0
0
0
0
0
0
0
0
0
0
0
0
0
0
0
0
0
0
0
0
0
0
0
0
0
0
0
0
0
0
0
0
0
0
0
0
0
0
0
0
0
0
0
0
0
0
0
0
0
0
0
0
0
0
0
0
0
0
0
0
0
0
0
0
0
0
0
0
0
0
0
0
0
0
0
0
0
0
0
0
0
0
0
0
0
0
0
0
0
0
0
0
0
0
0
0
0
0
0
0
0
0
0
0
0
0
0
0
0
0
0
0
0
0
0
0
0
1.45519e-10
0
0
8.73115e-11
0
0
0
0
0
0
0
0
0
0
0
0
0
0
1.45519e-10
4.36557e-11
1.45519e-11
0
0
0
0
0
0
0
0
0
0
0
0
0
0
0
0
0
0
0
0
0
0
0
0
0
3.7994e-05
4.899e-06
2.75398e-06
0
0
0
0
0
0
0
0
0
0
0
2.0244e-06
3.49246e-09
3.98853e-07
9.45874e-10
5.10772e-09
2.32831e-10
3.01079e-08
0
0
2.53203e-09
1.19617e-08
0
1.45519e-11
3.4488e-09
0
0
7.27596e-10
1.80444e-09
0
0
8.00355e-10
0
0
1.45519e-10
0
0
0
0
0
0
0
0
0
0
0
0
0
0
0
0
0
0
0
0
0
0
0
0
0
0
0
0
4.51109e-10
2.76486e-10
1.89175e-10
4.22006e-10
2.91038e-11
1.20781e-09
6.98492e-10
0
0
0
3.34694e-10
1.01863e-10
1.30967e-10
3.49246e-10
0
1.07684e-09
5.23869e-10
0
0
0
1.16415e-10
0
1.45519e-10
0
0
4.07454e-10
3.49246e-10
0
0
0
1.01863e-10
0
0
8.73115e-11
0
2.18279e-10
2.18279e-10
0
0
0
0
0
0
0
0
1.01863e-10
7.27596e-11
0
0
0
0
0
0
0
0
0
3.87218e-06
7.10133e-08
2.57336e-07
1.96758e-06
2.76942e-06
6.61385e-08
1.34591e-07
8.47052e-07
2.05328e-08
5.59376e-08
3.63536e-07
5.49233e-07
1.73168e-08
3.41388e-08
1.43642e-07
1.55007e-07
3.32468e-07
6.33008e-09
1.8641e-08
2.21858e-07
9.99717e-09
0
0
0
0
5.09317e-10
0
4.36557e-11
0
2.91038e-11
0
1.01863e-09
0
0
0
0
0
0
0
0
0
0
0
0
0
0
0
0
0
0
0
0
0
0
0
7.27596e-11
5.82077e-11
1.67347e-09
2.03727e-09
5.82077e-11
0
5.67525e-10
0
0
2.61934e-10
3.34694e-10
0
0
1.16415e-10
0
0
4.36557e-11
8.73115e-11
0
0
0
4.36557e-11
2.91038e-11
4.36557e-11
0
0
0
0
0
0
0
0
0
0
0
0
0
0
0
0
0
0
1.45519e-10
5.82077e-11
0
1.45519e-10
0
0
1.44064e-09
0
0
0
0
0
0
0
5.96629e-10
4.94765e-10
0
0
0
1.89175e-10
8.73115e-11
1.89175e-10
1.45519e-11
0
0
1.45519e-10
1.18307e-08
7.21702e-07
0
0
0
0
0
3.20142e-09
1.38316e-07
0
0
0
0
0
9.45874e-10
5.33473e-08
0
0
0
0
0
5.82077e-11
5.41331e-09
0
0
0
0
0
0
0
0
0
0
0
0
0
0
0
0
0
0
0
0
0
0
0
0
0
0
0
0
0
0
0
0
0
0
0
0
0
0
0
0
0
0
0
0
0
0
0
0
0
0
0
0
0
0
0
0
0
0
0
0
0
0
0
0
0
0
0
0
0
0
0
0
0
0
0
0
0
0
0
0
0
0
0
0
0
0
0
0
0
0
0
0
0
0
0
0
0
0
0
0
0
0
0
0
0
0
0
0
0
0
0
0
0
0
0
0
0
0
0
0
0
0
0
0
0
0
0
0
0
0
0
0
0
0
0
0
0
0
0
0
0
0
0
0
0
0
0
0
0
0
0
0
0
0
0
0
0
0
0
0
0
0
0
0
0
0
0
0
0
0
0
0
0
0
0
0
0
0
0
0
0
0
0
0
0
1.30967e-10
1.49157e-08
0
0
0
0
2.61934e-10
3.63798e-09
0
0
2.54659e-09
0
0
0
0
0
0
0
0
0
0
0
0
0
0
0
0
0
0
0
0
0
0
0
0
0
0
0
0
0
0
0
0
0
0
0
0
0
0
0
0
0
0
0
0
0
0
0
0
0
0
0
0
0
0
0
0
0
0
0
0
0
0
0
0
0
0
0
0
0
0
0
0
0
0
0
0
0
0
0
0
0
0
0
0
0
0
0
0
0
0
0
0
0
0
0
0
0
0
0
0
0
0
0
0
0
0
0
0
0
0
0
0
0
0
0
0
0
0
0
0
0
0
0
0
0
0
0
0
0
0
0
0
0
0
0
0
0
0
0
0
0
0
0
0
0
0
0
0
0
0
0
0
0
0
0
0
0
0
0
0
0
0
0
0
0
0
0
0
0
0
0
0
0
0
0
0
0
0
0
0
0
0
0
0
0
0
0
0
0
0
0
0
0
0
0
0
0
0
0
0
0
0
0
0
0
0
0
0
0
0
0
0
0
0
0
0
0
0
0
0
0
0
0
0
1.01863e-10
0
0
0
0
0
0
0
0
0
0
0
0
0
0
0
0
0
0
0
0
0
0
0
0
0
0
0
0
0
0
0
0
0
0
0
0
0
0
0
0
0
0
0
0
0
0
0
0
0
0
0
0
0
0
0
0
0
0
0
0
0
0
0
0
0
0
0
0
9.31323e-10
0
0
1.30967e-10
8.58563e-10
0
0
9.51259e-08
5.38421e-10
4.49654e-09
1.2762e-08
9.82691e-08
4.51109e-10
4.72937e-09
0
0
0
0
0
0
0
0
0
0
8.73115e-11
4.07454e-10
0
0
1.45519e-10
8.52742e-09
2.663e-08
2.61934e-10
1.64437e-09
2.65427e-08
1.4843e-09
9.74978e-10
0
5.82077e-11
3.34694e-10
7.50879e-09
7.91624e-09
4.07454e-10
0
0
0
0
0
0
0
1.45519e-11
0
0
0
0
0
0
6.40284e-10
2.61934e-10
0
0
8.73115e-10
0
2.32831e-10
0
0
0
0
0
0
0
0
0
0
0
0
0
0
0
0
0
0
0
0
0
0
0
0
0
0
0
0
0
0
0
0
0
0
0
0
0
0
0
0
0
0
0
0
0
0
0
0
0
0
0
0
0
0
0
0
0
0
0
0
0
0
0
0
0
0
0
0
0
0
0
0
0
0
0
0
0
0
0
0
0
0
0
0
0
0
0
0
0
0
0
0
0
0
0
0
0
0
0
0
0
0
0
0
0
0
0
0
0
0
0
0
0
0
0
0
0
0
0
0
0
0
0
0
0
0
0
0
0
0
0
0
0
0
0
0
0
0
0
0
0
0
0
0
0
0
0
0
0
0
0
2.858e-07
0
0
0
0
0
0
0
0
0
0
1.97906e-09
0
1.30967e-10
0
1.45519e-10
0
1.45519e-11
0
0
0
0
0
0
0
0
0
0
0
0
0
0
0
0
0
0
0
0
0
0
0
0
0
0
0
0
0
0
0
0
0
0
0
0
0
0
0
0
0
0
0
0
0
0
0
0
0
0
0
0
0
0
0
0
0
0
0
0
0
0
0
0
0
0
0
0
0
0
0
0
0
0
0
0
0
0
0
0
0
0
0
0
0
0
0
0
0
0
0
0
0
0
0
0
0
0
0
0
0
0
0
0
0
0
0
0
0
0
0
3.50847e-08
6.25732e-10
1.42754e-08
7.567e-10
1.67347e-08
3.95521e-08
2.11003e-09
0.000737596
127.468
0.000161416
0.00871669
0.000116284
0.00183771
0.000235451
0.00354079
8.94623e-07
0.00010476
0.0536084
2.91329e-08
1.63918e-05
0.00851975
4.77717e-05
2.98598e-06
1.59862e-05
0.000497259
0.0124358
2.32617e-06
0.000133478
1.14117
29.1705
0.000934506
0.799935
1.25394e-07
7.9405e-06
5.43994e-05
0.0639637
0.00192263
5.08167e-07
3.12758e-05
7.55292e-06
0.00020933
7.05331e-08
1.28025e-06
8.58222
0.00026515
0.0941878
0.00528935
0.117719
6.602e-06
0.000621183
2.25384e-06
8.26549e-09
1.0556e-07
0.00740255
5.27885e-07
4.6912e-05
8.15025e-05
1.65796e-06
7.5328e-07
1.34225e-06
6.47415e-08
1.83209e-08
3.36731e-08
5.38607e-05
7.98964e-06
3.81227e-05
0.00680033
0.000445081
0.000301998
3.4749e-05
0.00168859
0.000693619
6.37577e-05
0.000798893
0.000129364
0.0011235
1.88079e-06
4.05156e-06
8.98054e-06
0.000340735
0.000300426
2.40941e-05
1.42829e-05
0.000363607
0.000288892
2.0923e-05
9.87089e-05
3.45838e-06
4.41483e-05
4.06321e-06
5.24253e-05
7.86614e-06
6.12388e-05
0.00117707
0.000188002
0.00215199
2.89562e-05
0.002306
6.62131e-05
0.000476789
0.0903152
0.00145308
0.0130807
0.00253495
0.0162413
0.00880679
0.0251739
2.09189
4.71558
9.23758
0.0342515
52.5677
0.18886
0.377137
2.16969e-07
2.64365e-07
5.7109e-07
1.37489e-05
1.74138e-06
3.96991e-06
0.000107258
0.000220577
0.000783815
0.392767
0.00289089
0.0158604
9.69825e-06
9.0003e-06
9.23916e-07
3.67043e-07
1.27185e-05
7.92377e-06
5.61049e-07
5.10105e-05
0.000347036
6.44397e-06
1.43233e-05
8.18774e-05
0.000170349
3.25697e-06
1.48064e-06
6.26169e-08
6.91231e-07
8.84611e-08
8.84844e-07
1.18176e-07
8.71194e-07
1.52349e-05
2.3765e-06
1.98973e-05
3.42668e-07
2.96273e-05
8.65475e-07
5.43245e-06
0.00748262
0.00396857
0.000688115
0.000128182
0.00808371
0.00190083
0.000571293
0.0224732
1.10855
0.00561488
0.0100778
0.0593075
0.111774
0.00238663
0.00132278
1.80754e-05
0.000104301
2.48514e-05
0.000238844
0.000121708
0.000368489
0.0111071
0.00131622
0.00942937
0.00020517
0.0156284
0.000695759
0.00484609
4.44823e-07
1.00213e-06
2.01238e-07
4.19095e-09
1.13796e-08
8.58563e-09
1.75394e-07
2.99187e-08
5.13974e-08
0.000461977
0.000823468
0.000181621
1.27719e-06
1.89291e-06
8.35818e-06
0.000108323
1.28162e-05
4.42736e-05
4.09149e-05
8.0859e-05
3.74569e-05
1.06855e-07
8.54197e-09
2.76486e-10
0
5.45697e-09
1.84809e-09
3.71365e-08
3.20142e-10
1.01863e-10
1.16415e-09
7.39528e-08
0
0
1.40572e-08
2.91038e-11
2.57569e-09
0
3.0559e-10
8.73115e-11
3.34694e-10
6.3814e-05
0.0300052
0.00291138
1.1344e-05
0.00113224
6.834e-05
4.922e-06
0.000192774
3.2152e-06
2.6795e-06
1.33281e-07
5.70863e-05
1.2909e-07
1.44582e-05
3.98286e-08
2.37486e-06
0.000454499
7.63554e-07
1.75525e-06
7.68341e-09
3.5252e-07
2.08092e-09
1.6905e-07
8.45962e-06
0.000274716
1.77679e-08
1.17063e-06
1.14596e-07
6.8394e-10
3.8257e-08
2.18279e-10
0.000100591
5.52973e-09
2.06011e-07
6.5146e-07
1.77453e-05
1.06229e-09
3.91447e-08
6.89761e-09
0
2.95429e-06
3.0559e-10
5.04951e-09
4.01487e-08
3.36062e-07
5.52973e-10
1.99361e-09
8.53615e-08
4.92437e-07
4.61019e-07
3.71947e-08
4.08909e-09
2.28611e-08
1.84809e-09
4.80213e-10
2.21189e-09
2.91038e-11
0
7.27596e-11
5.04951e-09
1.25146e-08
1.04774e-08
4.1473e-09
1.42609e-09
2.64845e-09
2.28247e-07
1.98052e-08
1.15018e-07
9.60426e-10
2.47383e-10
5.52973e-10
1.89175e-10
7.27596e-11
1.16415e-10
7.75617e-09
7.13044e-10
3.91447e-09
3.70346e-08
3.88129e-07
2.69254e-07
4.36557e-11
0
4.36557e-11
0
0
0
1.70257e-08
1.40397e-07
1.15484e-07
2.91038e-10
8.73115e-11
6.54836e-10
1.77533e-08
5.80621e-09
3.01952e-08
0
0
0
2.56114e-09
5.52973e-10
4.1473e-09
8.73115e-11
0
0
1.55705e-09
1.60071e-10
6.54836e-10
1.22949e-07
2.4341e-07
2.09955e-07
3.21756e-06
4.92098e-06
4.43365e-06
3.27179e-06
7.68632e-08
3.33966e-08
5.31873e-08
8.73493e-07
1.08205e-06
1.37014e-06
8.2179e-07
1.86649e-06
9.31366e-06
8.68316e-06
0.000186268
5.68801e-05
4.46703e-05
0.00019635
3.97011e-06
4.21875e-07
2.13711e-06
6.27644e-05
8.86472e-06
1.3856e-05
3.60639e-05
1.68657e-08
5.74801e-09
9.79344e-09
1.2292e-07
2.63011e-07
1.40673e-07
1.69865e-07
3.14321e-09
1.84809e-09
2.50293e-09
3.54776e-08
3.93338e-08
4.48781e-08
3.33966e-08
5.8522e-07
7.65722e-08
3.78714e-07
6.38858e-06
3.50089e-06
8.5732e-06
1.50361e-06
1.07277e-07
1.1365e-08
5.14847e-08
1.40558e-06
1.86774e-07
2.80852e-07
6.66769e-07
5.53642e-07
5.07916e-06
4.00688e-06
1.92551e-05
5.20958e-05
5.94018e-05
8.32787e-06
1.03319e-09
8.14907e-10
1.29512e-09
1.16415e-08
1.76224e-08
1.25292e-08
1.4712e-08
2.76486e-10
2.61934e-10
3.63798e-10
4.51109e-09
4.81668e-09
5.38421e-09
4.19095e-09
2.58733e-08
8.22183e-09
3.04863e-08
3.57861e-07
1.39538e-07
4.10437e-07
8.71951e-08
2.38681e-07
2.02954e-06
1.75629e-06
2.8801e-06
2.35107e-05
3.16919e-06
2.15668e-05
4.19095e-09
1.74623e-09
9.05129e-09
9.76579e-08
1.64873e-08
2.17551e-08
4.98694e-08
2.73532e-07
8.81264e-08
3.98155e-07
1.36842e-06
3.63917e-06
4.35419e-06
5.85947e-07
0
0
2.91038e-11
2.76486e-10
7.567e-10
3.63798e-10
5.38421e-10
1.1205e-09
5.52973e-10
1.46974e-09
1.70839e-08
8.83301e-09
1.9616e-08
4.71482e-09
4.06872e-08
8.28004e-09
5.94737e-08
7.66886e-08
7.08606e-07
1.26456e-07
5.3749e-07
6.40284e-10
1.45519e-10
5.82077e-10
7.88714e-09
2.6339e-09
2.13913e-09
6.60657e-09
1.0099e-08
2.54659e-09
8.62929e-09
3.7413e-08
6.66187e-08
8.83156e-08
1.429e-08
0.000701644
7.14028e-06
0.000246641
3.88156e-05
0.000220561
2.39749e-06
7.15964e-05
12.5697
0.00899676
0.109615
0.00635538
3.52427
0.00348119
0.067459
4.37171e-05
7.45014e-07
9.08916e-06
4.70235e-06
2.19998e-05
3.15194e-07
2.43838e-06
0.0528738
0.000307253
0.00993278
0.000287748
0.00821905
4.83525e-05
0.001283
1.50878e-05
2.33238e-07
1.09021e-06
2.55475e-06
1.06489e-05
1.07655e-07
5.05257e-07
0.00169039
2.08077e-05
0.000491935
0.000117206
0.000575401
6.17722e-06
9.72656e-05
1.48328e-06
9.47475e-08
7.68603e-07
1.42381e-05
2.48494e-05
1.82724e-05
8.07228e-05
1.20015e-06
1.4813e-05
2.06813e-06
2.6598e-05
1.98091e-06
5.40608e-06
2.1178e-06
5.51183e-06
1.25146e-09
2.61934e-10
4.36557e-11
0
0
0
0
1.20219e-06
6.96018e-08
1.18598e-08
1.58616e-09
3.29994e-07
4.80213e-10
1.74623e-10
2.21917e-08
4.36557e-11
0
4.58385e-09
2.91038e-11
5.96629e-10
5.23869e-10
2.91038e-11
0
1.45519e-11
0
0
0
1.89175e-10
0
1.89175e-10
0
0
0
0
0
1.25146e-09
1.16706e-08
1.08994e-08
1.71407e-07
3.13303e-08
2.3836e-08
1.94414e-07
3.7835e-09
4.22006e-10
3.37604e-09
4.80504e-08
7.34872e-09
7.61065e-09
4.65661e-08
9.8953e-10
1.16415e-10
8.29459e-10
1.27038e-08
3.84171e-09
1.34023e-08
2.50293e-09
5.82077e-11
3.49246e-10
3.34694e-10
4.78758e-09
9.74978e-10
1.03319e-09
4.43833e-09
1.30967e-10
0
1.89175e-10
2.35741e-09
5.82077e-10
2.45927e-09
5.09317e-10
0
1.45519e-11
5.67525e-10
5.96629e-10
1.97906e-09
3.34694e-10
1.6109e-08
5.31145e-09
2.91038e-11
4.36557e-10
0
5.82077e-11
6.54836e-10
1.71713e-09
4.36557e-11
4.94765e-10
0
0
6.40284e-10
0
4.36557e-11
1.45519e-11
2.03727e-10
0
0
0
0
2.91038e-11
0
0
0
2.03727e-10
1.5134e-09
8.14907e-10
2.85218e-09
8.73115e-11
1.01863e-10
1.45519e-11
4.36557e-11
0
0
1.45519e-11
1.03319e-09
5.09317e-10
2.76486e-10
1.89175e-10
2.91038e-11
0
2.91038e-10
2.92493e-09
2.33704e-08
2.13622e-08
7.86094e-08
1.55705e-09
1.44064e-09
9.02219e-10
2.35304e-08
2.30211e-08
1.88738e-08
7.47968e-09
5.99539e-09
1.08499e-07
3.22747e-07
1.11177e-07
3.1988e-07
0
0
0
0
0
0
0
0
0
0
0
4.01633e-09
0
1.01863e-10
0
0
0
0
0
7.27596e-11
2.24099e-09
2.91038e-11
7.27596e-10
0
0
0
0
1.45519e-11
0
0
0
0
0
0
0
0
0
0
0
0
0
0
0
0
0
0
0
0
0
0
0
0
0
0
0
0
0
0
4.36557e-11
0
0
0
0
0
0
0
0
0
0
0
0
0
0
0
0
0
0
0
0
0
0
0
0
0
0
0
0
0
0
0
0
0
0
0
0
0
0
0
0
0
0
0
0
0
0
0
0
0
0
0
0
0
0
0
0
0
0
0
0
0
0
0
0
0
0
0
0
0
0
0
0
0
0
0
0
0
0
0
0
0
0
0
0
0
0
0
0
0
0
0
0
0
0
0
0
0
0
0
0
0
0
0
0
4.80213e-10
3.73984e-09
4.05998e-09
1.44064e-09
1.70257e-09
0
8.73115e-11
0
8.73115e-11
0
0
0
0.100937
19.3747
0.00245614
0.000233535
1.76558
0.0107907
0.0738713
0.00608831
0.0524304
3.87093
0.0153599
0.0191107
0.0197375
0.175996
0.317427
0.225317
0.00124761
0.00164674
0.0241187
0.000489394
0.0105929
1.10889e+06
1.72273e+06
203576
174.967
210.003
0.178358
1.50014e+06
1.88535e+06
1.50343e+06
2.00735e+06
3.61073e+06
3.57669e+06
1.15187e+06
1.22665e+06
2.05247e+06
536702
781797
7576.67
1.01988e+06
3.52947e+06
1530.49
1.6678e+06
622998
1666.93
653149
17480.7
621842
19.807
164461
744181
1.57738
19841.8
415562
2.30648
27379.3
7799.15
7.45499
2167.07
0.561657
2.81323e+06
586032
1.84132e+06
4550.49
43.3161
1062.47
4.23917
0.0155336
0.354574
1.36554e+06
1.53166e+06
1.87466e+06
1.88142e+06
1.50169e+06
1.86626e+06
1.39569e+06
1.34811e+06
1.9123e+06
1.39458e+06
1.97682e+06
1.4729e+06
1.88835e+06
1.2973e+06
3.40301e+06
3.53277e+06
3.3257e+06
3.51109e+06
3.33768e+06
3.29324e+06
1.09453e+06
1.09397e+06
1.80976e+06
556695
1.22776e+06
816971
1.28806e+06
1.19526e+06
1.32011e+06
2.04463e+06
1.9789e+06
1.26668e+06
1.2025e+06
1.80431e+06
801901
85451
74295.5
145804
363178
585337
451826
1.01486e+06
1.61116e+06
828464
602579
1.02632e+06
1.21155e+06
749579
3.32753e+06
3.36289e+06
2.8897e+06
42733.4
47078.6
608394
2.73437e+06
591340
1.82168e+06
106060
17371.8
38057.6
487.391
228467
5284.28
11164.3
423008
690387
319933
496273
551710
615368
170701
30507.3
115.789
228.659
471.217
1286.16
2757.89
5447.3
279323
353270
423925
10624.9
544592
59966.4
107929
106492
342919
25045.7
9.76867
38.0024
237.032
117267
886.941
5638.91
57.2146
27.4702
55.0071
0.201427
657.384
2.42313
4.69211
1298.44
202693
1258.29
2268.17
15034.6
28032.7
105.515
85.0033
141.948
91.1847
0.378936
1769.33
6.89488
4.61629
97.4222
169.537
7.92569
10.5693
0.0291812
0.515965
1.23305e+06
591082
155783
1.55629e+06
903897
765012
655.719
12003.3
3.19024e+06
3.11393e+06
1.24418e+06
1.85846e+06
1.84701e+06
1.27051e+06
1.23193e+06
1.92984e+06
1.86241e+06
1.21254e+06
3.0858e+06
3.07479e+06
2.00152e+06
1.66516e+06
1.56021e+06
860270
1.26968e+06
1.25934e+06
1.11043e+06
1.13316e+06
670601
761491
490379
820760
622780
385090
640368
100154
597756
462896
657827
116408
136.512
1443.37
562553
184113
998998
969238
702276
1.22487e+06
1.25051e+06
923751
822486
756720
803908
622861
586196
794555
856482
634631
1.08095e+06
1.22663e+06
1.0612e+06
1.21898e+06
1.00319e+06
996951
1.22299e+06
1.00485e+06
943125
982101
849221
900587
887922
832163
0.000128459
1.53919e+06
1.32168e+06
678844
485418
0.564277
4447.46
17.5043
0.148036
0.029938
0.00961956
797005
1.24751e+06
3.84801
727964
1.36649e+06
0.00156513
6185.29
2.96878e+06
35.5443
875702
0.0820544
19373.9
1.81804e-05
7.82784
0.301789
217323
24.9818
0.000625782
0.00658617
1.33093
201678
0.0117578
477.029
1.06031
6765.74
0.0024643
11.2001
1.19722e+06
15514.6
1.52114e+06
182543
1.12298e+06
388.985
1.01046e+06
1.82105e+06
1.37939e+06
1.63072e+06
132.992
0.00026662
2.37175
2.3819e+06
112.916
1.34405e+06
2.49646e+06
0.198194
0.000317103
0.963862
0.0888732
0.00165782
856432
33.2373
462167
10.2942
140505
0.0182378
299.418
0.173036
0.000142918
448570
0.00188323
46.9307
0.0520206
0.000636658
626.162
0.00683977
68.7032
5.86002e-05
6.68743
0.000923332
0.0642237
0.0363987
222998
3614.02
147759
2.87714e+06
1.01156e-05
0.000119797
2.892e-05
363.154
0.392761
16.9153
0.00982038
0.000318069
0.00297886
0.00723678
2.30607
0.117746
0.38993
0.0721775
0.225976
3.96283
82.5967
4907.34
13.9089
281.81
2896.84
8.10218
141.554
0.00102723
0.622162
0.0121173
0.00933597
0.0258054
0.060387
0.0960137
22.569
77.8346
116.084
0.314189
795.11
2.18261
3.25703
569855
140848
297236
9307.45
92382.9
216262
647463
941252
1.06349e+06
970482
1.4475e+06
1.04671e+06
869393
976723
382086
2712.17
4049.69
12996.6
27562.3
85153.3
123019
861829
1.31642e+06
1.02533e+06
277701
1.05169e+06
642145
645504
1.15747e+06
1.78798e+06
1.13957e+06
1.74488e+06
1.14733e+06
1.12759e+06
2.87973
75.8324
1.63242
7.49686e-05
0.00123334
0.00918578
19.2148
0.0518168
0.412763
1.31225e+06
2.22795e+06
1.12603e+06
919.241
5502.8
44780.4
1.94117e+06
217398
722551
2.75263e+06
0.000159801
0.00483255
0.00608404
0.00112549
0.0129093
0.00327292
0.000367255
0.0297056
9.96348
0.028417
0.0632163
0.29147
0.638407
0.00315924
0.0145019
0.00521756
0.0171933
0.000523567
0.0508394
0.00107211
0.0102056
661.686
341.296
1110.5
2.06494
11304.6
20.8419
66.8237
20109.5
776221
35978.1
61827.7
243430
310157
2109.55
38.7918
0.129484
0.177023
0.416784
1.29698
3.88021
4.327
1133.68
3365.8
3077.56
11.3076
31565.1
115.919
116.678
0.00405846
0.00952243
0.000342264
0.00060346
2.86064e-05
7.2409e-05
17290
33627.3
746.176
0.0186582
0.0467527
0.699753
1100.07
1.45749
27.5127
0.00151935
0.0055081
0.00012946
0.000443922
0.00174948
0.00415727
0.000105984
0.35366
0.0640701
0.108212
0.00362397
1.14724
0.0327527
0.0336584
8.73779
728.035
2.73621
20.0413
29.2587
219.035
0.797027
9.59214e-06
3.76733e-05
7.29965e-06
0.253548
1.72663
0.0680716
953778
444.818
22.7995
468289
129.021
6.36238
39402.3
1.42133e+06
1.10815e+06
1.17948e+06
905562
1.25457e+06
445517
1.16014e+06
1.52612e+06
1.65215e+06
1.51245e+06
1.43472e+06
6732.79
5.91026
0.137946
6.3764
0.138027
0.0386151
0.158807
1.15564e+06
26800
993181
102742
976137
63.8734
351822
2.79892
0.0519017
0.0145593
0.349605
0.0134967
0.00301968
0.108774
548060
154.468
1781.39
164.552
4045.49
7.75391
196.634
0.000979321
0.0617502
0.000251041
4.42142e-05
0.00204532
0.000477345
0.0142835
6088.18
0.313145
0.178583
0.0254561
3.99528
0.193503
60.3427
3.91339e-06
1.35628e-05
2.23667e-06
6.01505e-05
0.000173342
3.42936e-05
4.95336e-05
3.50359e-05
4.16258e-06
2.40961e-06
7.61884e-06
1.18879e-06
3.45928e-07
1.38483e-06
1.9453e-07
0.000463405
0.000364133
7.53338e-05
0.00158901
0.00453404
0.00381929
0.0011267
4.91529e-05
0.000129189
2.49055e-05
0.00110596
0.00200649
0.00217876
0.000606747
5.55989e-06
1.90082e-05
3.0739e-06
5.0409e-05
0.000473698
0.000100796
0.000254848
0.0699945
0.015196
0.00274447
2.45925e+06
1.40483e+06
1.71185e+06
2.04837e+06
1.78205e+06
1.53868e+06
1.6005e+06
1.88096e+06
1.53833e+06
1.866e+06
1.51639e+06
1.7844e+06
1.76751e+06
1.51106e+06
2.13374e+06
2.39492e+06
2.11e+06
2.16722e+06
1.98871e+06
1.96428e+06
2.115e+06
1.23983e+06
1.25142e+06
1.2327e+06
1.02161e+06
1.0029e+06
1.03797e+06
994182
2.21941e+06
2.08366e+06
2.31224e+06
1.98071e+06
1.88381e+06
1.93105e+06
2.052e+06
1.54564e+06
1.82973e+06
1.84876e+06
1.71918e+06
1.50388e+06
1.5068e+06
1.74573e+06
858310
878149
789308
911760
952119
872969
810999
821290
925516
945925
920799
904296
804220
787530
2.11831e+06
1.82329e+06
1.76763e+06
1.9018e+06
1.82998e+06
2.02226e+06
1.93953e+06
1.16416e+06
1.05627e+06
1.54339e+06
1.29282e+06
1.4656e+06
1.2151e+06
1.139e+06
1.66124e+06
1.91549e+06
1.82364e+06
1.79833e+06
1.68697e+06
1.63738e+06
1.88051e+06
1.80618e+06
1.6492e+06
1.68688e+06
1.50019e+06
1.48967e+06
1.56494e+06
1.776e+06
1.27596e+06
1.29997e+06
1.02304e+06
1.02597e+06
1.05999e+06
1.31094e+06
1.04923e+06
983339
1.21943e+06
1.22508e+06
1.23099e+06
1.22082e+06
1.00697e+06
989654
1.01405e+06
955336
102383
1.17583e+06
844782
1.03138e+06
73196.6
1.47093e+06
1.55525e+06
1.67338e+06
1.46263e+06
1.39323e+06
1.65377e+06
1.5355e+06
851579
845744
770906
859485
819733
892053
759852
757601
741126
843341
890518
876218
782159
766194
1.72132e+06
1.61307e+06
1.56551e+06
1.76441e+06
1.65523e+06
1.6068e+06
1.83514e+06
444870
563038
717924
5456.14
502466
538860
633449
758126
807094
831288
812377
698866
826195
748358
1.62961e+06
1.83478e+06
1.79535e+06
1.74385e+06
1.70251e+06
1.92755e+06
1.87168e+06
733118
714483
808275
687428
788413
711287
773410
1.2401e+06
1.22196e+06
1.01924e+06
1.2206e+06
1.03506e+06
1.01906e+06
1.00095e+06
858155
784526
898464
842185
879809
769454
743156
1.44197e+06
1.4539e+06
1.37997e+06
1.36141e+06
1.48162e+06
1.6304e+06
1.51206e+06
1.68803e+06
1.44171e+06
1.54094e+06
1.60699e+06
1.4705e+06
1.56048e+06
1.73621e+06
1.60835e+06
1.72039e+06
1.6676e+06
1.5613e+06
1.51497e+06
1.50289e+06
1.45883e+06
1.13862e+06
1.31346e+06
1.37248e+06
1.31459e+06
1.09864e+06
1.35034e+06
1.09184e+06
695678
838514
696004
826519
729367
822929
738014
703516
650215
722573
642963
613913
710683
690975
704048
725972
824595
820791
854821
749750
725527
563644
44727.4
911.86
497050
597135
5419.69
486.345
794555
922762
917689
885314
802579
895221
755343
1.50883e+06
1.52469e+06
1.48851e+06
1.40198e+06
1.369e+06
1.35034e+06
1.38646e+06
1.58441e+06
1.55177e+06
1.46739e+06
1.74147e+06
1.71007e+06
1.64554e+06
1.61629e+06
1.26364e+06
1.21569e+06
1.20635e+06
1.05177e+06
1.0654e+06
1.04346e+06
1.07098e+06
1.56481e+06
1.42569e+06
1.40391e+06
1.33919e+06
1.31227e+06
1.44696e+06
1.40652e+06
679859
699777
791006
672331
734407
757591
654053
703936
885276
720622
840606
723846
866524
723461
681731
705672
734514
661867
759501
693091
738561
603030
627398
591456
681769
657073
696509
675234
1.47696e+06
1.58224e+06
1.54477e+06
1.37576e+06
1.34018e+06
1.43998e+06
1.40012e+06
1.42081e+06
1.33426e+06
1.28956e+06
1.49929e+06
1.45964e+06
1.32455e+06
1.36518e+06
1.43607e+06
1.63158e+06
1.40328e+06
1.35418e+06
1.5068e+06
1.45905e+06
1.56346e+06
668278
607743
688294
597918
581406
676120
656716
1.43542e+06
1.30897e+06
1.41681e+06
1.23248e+06
1.31745e+06
1.30009e+06
1.21859e+06
804669
744144
791513
732894
706272
671697
661588
580917
562714
620667
667408
638163
620025
655724
1.37386e+06
1.29506e+06
1.24888e+06
1.20427e+06
1.36891e+06
1.32433e+06
1.2475e+06
1.34298e+06
1.24815e+06
1.48379e+06
1.37687e+06
1.28189e+06
1.31434e+06
1.36331e+06
1.18572e+06
1.18145e+06
1.01916e+06
1.1328e+06
1.12463e+06
1.00796e+06
1.00953e+06
1.1771e+06
1.29838e+06
1.26774e+06
1.3716e+06
1.14625e+06
1.34721e+06
1.1929e+06
827657
834041
681191
840524
653102
635156
844547
1.27215e+06
1.36458e+06
1.24898e+06
1.18173e+06
1.39449e+06
1.278e+06
1.20209e+06
701160
751872
672623
773982
718723
691317
648809
794537
959491
954912
982588
807474
989921
807276
569797
544175
572534
624268
642084
660607
642215
1.44126e+06
1.4076e+06
1.33411e+06
1.31286e+06
1.24588e+06
1.28011e+06
1.21528e+06
1.06863e+06
1.24498e+06
1.17253e+06
1.25873e+06
1.19261e+06
1.07194e+06
1.09615e+06
759920
931777
912152
910049
726465
899751
735744
669390
618107
688943
644988
702483
723403
627424
1281.31
9751.8
51283.1
1.05461e+06
910784
999241
895753
1.1294e+06
1.27853e+06
1.24373e+06
1.22606e+06
1.15029e+06
1.11415e+06
1.26364e+06
1.02678e+06
1.16732e+06
1.03325e+06
1.10306e+06
1.00289e+06
1.11539e+06
1.00636e+06
676866
676440
715713
573053
704669
662797
651367
1.22017e+06
1.32888e+06
1.21523e+06
1.15864e+06
1.1781e+06
1.28952e+06
1.13324e+06
1.14355e+06
1.21988e+06
1.11262e+06
1.15905e+06
1.31224e+06
1.2724e+06
1.19661e+06
1.17238e+06
1.10336e+06
1.06613e+06
1.20305e+06
1.13002e+06
1.0929e+06