/*--------------------------------*- C++ -*----------------------------------*\
  =========                 |
  \\      /  F ield         | OpenFOAM: The Open Source CFD Toolbox
   \\    /   O peration     | Website:  https://openfoam.org
    \\  /    A nd           | Version:  9
     \\/     M anipulation  |
\*---------------------------------------------------------------------------*/
FoamFile
{
    format      ascii;
    class       volScalarField;
    location    "0.0012";
    object      overpressure;
}
// * * * * * * * * * * * * * * * * * * * * * * * * * * * * * * * * * * * * * //

dimensions      [1 -1 -2 0 0 0 0];

internalField   nonuniform List<scalar> 
10228
(
0
0
0
0
0
0
0
0
0
0
0
0
0
0
0
0
0
0
0
0
0
0
0
0
0
0
0
0
0
0
0
0
0
0
0
2.08402e-06
0
4.42989e-07
1.13768e-06
4.02477e-07
1.65368e-07
1.312e-07
7.48891e-06
2.68621e-06
7.41045e-06
2.68412e-06
0.00108291
0.0336792
0.00181536
0.00108972
0.00212196
0.0110249
0.013771
0.0119788
3.72242e-05
0.000639912
0.00014206
5.50833e-05
0.000127758
5.52634e-05
0.00085483
0.0017363
0.000836127
0.00129213
7.93079e-08
4.83473e-07
8.86066e-08
8.08213e-08
7.21921e-08
4.74363e-07
2.80153e-07
1.28229e-05
1.02593e-05
0.000366731
2.7924e-06
4.53918e-07
2.36132e-05
2.24057e-06
1.04018e-05
1.91696e-05
2.19066e-05
0.000100613
4.25876e-06
2.87411e-06
4.06618e-06
1.70839e-07
0
6.51635e-08
3.4197e-09
0
0
0
0
1.16415e-10
0
0
4.51109e-10
6.40284e-10
5.82077e-10
2.61934e-10
1.15376e-06
2.75177e-08
6.61632e-07
7.14965e-07
2.88419e-08
1.01252e-07
1.24855e-08
9.28412e-09
0
1.45519e-10
0
1.16415e-10
9.60426e-10
4.07454e-10
0
0
0
0
0
0
0
0
0
0
0
2.22353e-08
7.49715e-08
5.21919e-07
7.66886e-09
5.64614e-09
7.13044e-09
6.57747e-09
2.50584e-08
4.38304e-08
1.7506e-08
4.93892e-08
1.32422e-09
7.78527e-09
9.1095e-09
5.34346e-08
1.70257e-09
1.30967e-09
1.35333e-09
1.33441e-08
4.75848e-09
1.16415e-08
4.83124e-09
3.74421e-08
1.1496e-09
2.48692e-08
0
1.05833e-06
2.11912e-05
1.05123e-07
1.39658e-06
4.36557e-11
2.18279e-10
7.71252e-10
3.0268e-09
5.82077e-11
0
0
5.52973e-10
2.76486e-10
4.80213e-10
4.07454e-10
4.51109e-10
2.32831e-10
8.73115e-11
1.74623e-09
3.46336e-09
1.35333e-09
3.91447e-09
9.01928e-08
6.68806e-08
6.77828e-08
4.33647e-09
4.65661e-09
2.2701e-09
2.2701e-09
6.50442e-07
9.51695e-08
1.04003e-07
3.4328e-08
5.06552e-08
2.39954e-06
1.85246e-06
1.29512e-09
0
1.89175e-10
1.74623e-09
5.82077e-11
0
2.91038e-11
0
0
0
0
4.36557e-11
1.01863e-10
5.82077e-11
8.73115e-11
4.36557e-11
5.52973e-10
1.09139e-09
4.07454e-10
1.25146e-09
2.34286e-08
3.17232e-09
3.18687e-09
4.07454e-10
0
1.16415e-10
0
1.30967e-10
5.52973e-10
2.12021e-08
4.07454e-10
0
0
5.32673e-07
1.10158e-08
0
5.09317e-10
1.30967e-10
0
0
0
0
0
4.88653e-07
1.39164e-06
8.23074e-06
3.27593e-07
2.03319e-07
3.29223e-07
2.20243e-07
3.56745e-06
1.78479e-07
6.76315e-07
9.11386e-08
6.29152e-07
1.38825e-08
1.55414e-08
0
0
0
0
0
0
0
0
0
1.45519e-11
3.62343e-09
0
0
0
0
1.16415e-10
0
3.7835e-10
3.63798e-10
6.72298e-09
6.57747e-09
0
0
0
0
0
0
0
0
0
0
0
0
0
0
0
0
0
0
0
0
0
0
0
0
0
0
0
0
0
0
0
0
0
0
0
0
0
0
0
0
0
0
0
0
0
0
0
0
0
0
0
0
0
0
0
0
0
0
0
0
0
0
0
0
0
0
0
0
0
0
0
0
0
0
0
0
0
0
0
0
0
0
0
0
0
0
0
0
0
0
0
0
0
0
0
0
0
0
0
0
0
0
0
0
0
0
0
0
0
0
0
0
0
0
0
0
0
0
0
0
0
0
0
0
0
0
0
0
0
0
0
0
0
0
2.61934e-10
0
0
0
1.89175e-10
0
0
0
0
0
0
0
0
0
0
0
0
0
0
0
0
0
0
0
0
0
0
0
0
0
0
0
0
0
0
0
0
0
0
0
0
0
0
0
0
0
0
0
0
0
0
0
0
0
0
0
0
0
0
0
0
0
0
0
0
0
0
0
0
0
0
0
0
0
0
0
0
0
0
0
0
0
0
0
0
0
0
0
0
0
0
0
0
0
0
0
0
0
0
0
0
0
0
0
0
0
0
0
0
0
0
0
0
0
0
0
0
0
0
0
0
0
0
0
0
0
0
0
0
0
0
0
0
0
0
0
0
0
0
0
0
0
0
0
0
0
0
0
0
0
0
0
0
0
0
0
0
0
0
0
0
0
0
0
0
0
0
0
0
0
0
0
0
0
0
0
0
0
0
0
0
0
0
0
0
0
0
0
0
0
0
0
0
0
0
0
0
0
0
0
0
0
0
0
0
0
0
0
0
0
0
0
0
0
0
0
0
0
0
0
0
0
0
0
0
0
0
0
0
0
0
0
0
0
0
0
0
0
0
0
0
0
0
0
0
0
0
0
0
0
0
0
0
0
0
0
0
0
0
0
0
0
0
0
0
0
0
0
0
0
0
0
0
0
0
0
0
0
0
0
0
0
0
0
0
0
0
0
0
0
0
0
0
0
0
0
0
0
0
0
0
0
0
0
0
0
0
0
0
0
0
0
0
0
0
0
0
0
0
0
0
0
0
0
0
0
0
0
0
0
0
0
0
0
0
0
0
0
0
0
0
0
0
0
0
0
0
0
0
0
0
0
0
0
0
0
0
0
0
0
0
0
0
0
0
0
0
0
0
0
0
0
0
0
0
0
0
0
0
0
0
0
0
0
0
0
0
0
0
0
0
0
0
0
0
0
0
0
0
0
0
0
0
0
0
0
0
0
0
0
0
0
0
0
0
0
0
0
0
0
0
0
0
0
0
0
0
0
0
0
0
0
0
0
0
0
0
0
0
0
0
0
0
0
0
0
0
0
0
0
0
0
0
0
0
0
0
0
0
0
0
0
0
0
0
0
0
0
0
7.27596e-11
0
0
0
0
0
0
0
0
0
0
0
0
0
0
0
0
0
0
0
0
0
0
0
0
0
0
0
0
0
0
0
0
0
0
0
0
0
0
0
0
0
0
0
0
0
0
0
0
0
0
0
0
0
0
0
0
0
0
0
0
0
0
0
0
0
0
0
0
0
0
0
0
0
0
0
0
0
0
0
0
0
0
0
0
0
0
0
0
0
0
0
0
0
0
0
0
0
0
0
0
0
0
0
0
0
0
0
0
0
0
0
0
0
0
0
0
0
0
0
0
0
0
0
0
0
0
0
0
0
0
0
0
0
0
0
0
0
0
0
0
0
0
0
0
0
0
0
0
0
0
0
0
0
0
0
0
0
0
0
0
0
0
0
0
0
0
0
0
0
0
0
0
0
0
0
0
0
0
0
0
0
0
0
0
0
0
0
0
0
0
0
0
0
0
0
0
0
0
0
0
0
0
0
0
0
0
0
0
0
0
0
0
0
0
0
0
0
0
0
0
0
0
0
0
0
0
0
0
0
0
0
0
0
0
0
0
0
0
0
0
0
0
0
0
0
0
0
0
0
0
0
0
0
0
0
0
0
0
0
0
0
0
0
0
0
0
0
0
0
0
0
0
0
0
0
0
0
0
0
0
0
0
0
0
0
0
0
0
0
0
0
0
0
0
0
0
0
0
0
0
0
0
0
0
0
0
0
0
0
0
0
0
0
0
0
0
0
0
0
0
0
0
0
0
0
0
0
0
0
0
0
0
0
0
0
0
0
0
0
0
0
0
0
0
0
0
0
0
0
0
0
0
0
0
0
0
0
0
0
0
0
0
0
0
0
0
0
0
0
0
0
0
0
0
0
0
0
0
0
0
0
0
0
0
0
0
0
0
0
0
0
0
0
0
0
0
0
0
0
0
0
0
0
0
0
0
0
0
0
0
0
0
0
0
0
0
0
0
0
0
0
0
0
0
0
0
0
0
0
0
0
0
0
0
0
0
0
0
0
0
0
0
0
0
0
0
0
0
0
0
0
0
0
0
0
0
0
0
0
0
0
0
0
0
0
0
0
0
0
0
0
0
0
0
0
0
0
0
0
0
0
0
0
0
0
0
0
0
0
0
0
0
0
0
0
0
0
0
0
0
0
0
0
0
0
0
0
0
0
0
0
0
0
0
0
0
0
0
0
0
0
0
0
0
0
0
0
0
0
0
0
0
0
0
0
0
0
0
0
0
0
0
0
0
0
0
0
0
0
0
0
0
0
0
0
0
0
0
0
0
0
0
0
0
0
0
0
0
0
0
0
0
0
0
0
0
0
0
0
0
0
0
0
0
0
0
0
0
0
0
0
0
0
0
0
0
0
0
0
0
0
0
0
0
0
0
0
0
0
0
0
0
0
0
0
0
0
0
0
0
0
0
0
0
0
0
0
0
0
0
0
0
0
0
0
0
0
0
0
0
0
0
0
0
0
0
0
0
0
0
0
0
0
0
0
0
0
0
0
0
0
0
0
0
0
0
0
0
0
0
0
0
0
0
0
0
0
0
0
0
0
0
0
0
0
0
0
0
0
0
0
0
0
0
0
0
0
0
0
0
0
0
0
0
0
0
0
0
0
0
0
0
0
0
0
0
0
0
0
0
0
0
0
0
0
0
0
0
0
0
0
0
0
0
0
0
0
0
0
0
0
0
0
0
0
0
0
0
0
0
0
0
0
0
0
0
0
0
0
0
0
0
0
0
0
0
0
0
0
0
0
0
0
0
0
0
0
0
0
0
0
0
0
0
0
0
0
0
0
0
0
0
0
0
0
0
0
0
0
0
0
0
0
0
0
0
0
0
0
0
0
0
0
0
0
0
0
0
0
0
0
0
0
0
0
0
0
0
0
0
0
0
0
0
0
0
0
0
0
0
0
0
0
0
0
0
0
0
0
0
0
0
0
0
0
0
0
0
0
0
0
0
0
0
0
0
0
0
0
0
0
0
0
0
0
0
0
0
0
0
0
0
0
0
0
0
0
0
0
0
0
0
0
0
0
0
0
0
0
0
0
0
0
0
0
0
0
0
0
0
0
0
0
0
0
0
0
0
0
0
0
0
0
0
0
0
0
0
0
0
0
0
0
0
0
0
0
0
0
0
0
0
0
0
0
0
0
0
0
0
0
0
0
0
0
0
0
0
0
0
0
0
0
0
0
0
0
0
0
0
0
0
0
0
0
0
0
0
0
0
0
0
0
0
0
0
0
0
0
0
0
0
0
0
0
0
0
0
0
0
0
0
0
0
0
0
0
0
0
0
0
0
0
0
0
0
0
0
0
0
0
0
0
0
0
0
0
0
0
0
0
0
0
0
0
0
0
0
0
0
0
0
0
0
0
0
0
0
0
0
0
0
0
0
0
0
0
0
0
0
0
0
0
0
0
0
0
0
0
0
0
0
0
0
0
0
0
0
0
0
0
0
0
0
0
0
0
0
0
0
0
0
0
0
0
0
0
0
0
0
0
0
0
0
0
0
0
0
0
0
0
0
0
0
0
0
0
0
0
0
0
0
0
0
0
0
0
0
0
0
0
0
0
0
0
0
0
0
0
0
0
0
0
0
0
0
0
0
0
0
0
0
0
0
0
0
0
0
0
0
0
0
0
0
0
0
0
0
0
0
0
0
0
0
0
0
0
0
0
0
0
0
0
0
0
0
0
0
0
0
0
0
0
0
0
0
0
0
0
0
0
0
0
0
0
0
0
0
0
0
0
0
0
0
0
0
0
0
0
0
0
0
0
0
0
0
0
0
0
0
0
0
0
0
0
0
0
0
0
0
0
0
0
0
0
0
0
0
0
0
0
0
0
0
0
0
0
0
0
0
0
0
0
0
0
0
0
0
0
0
0
0
0
0
0
0
0
0
0
0
0
0
0
0
0
0
0
0
0
0
0
0
0
0
0
0
0
0
0
0
0
0
0
0
0
0
0
0
0
0
0
0
0
0
0
0
0
0
0
0
0
0
0
0
0
0
0
0
0
0
0
0
0
0
0
0
0
0
0
0
0
0
0
0
0
0
0
0
0
0
0
0
0
0
0
0
0
0
0
0
0
0
0
0
0
0
0
0
0
0
0
0
0
0
0
0
0
0
0
0
0
0
0
0
0
0
0
0
0
0
0
0
0
0
0
0
0
0
0
0
0
0
0
0
0
0
0
0
0
0
0
0
0
0
0
0
0
0
0
0
0
0
0
0
0
0
0
0
0
0
0
0
0
0
0
0
0
0
0
0
0
0
0
0
0
0
0
0
0
0
0
0
0
0
0
0
0
0
0
0
0
0
0
0
0
0
0
0
0
0
0
0
0
0
0
0
0
0
0
0
0
0
0
0
0
0
0
0
0
0
0
0
0
0
0
0
0
0
0
0
0
0
0
0
0
0
0
0
0
0
0
0
0
0
0
0
0
0
0
0
0
0
0
0
0
0
0
0
0
0
0
0
0
0
0
0
0
0
0
0
0
0
0
0
0
0
0
0
0
0
0
0
0
0
0
0
0
0
0
0
0
0
0
0
0
0
0
0
0
0
0
0
0
0
0
0
0
0
0
0
0
0
0
0
0
0
0
0
0
0
0
0
0
0
0
0
0
0
0
0
0
0
0
0
0
0
0
0
0
0
0
0
0
0
0
0
0
0
0
0
0
0
0
0
0
0
0
0
0
0
0
0
0
0
0
0
0
0
0
0
0
0
0
0
0
0
0
0
0
0
0
0
0
0
0
0
0
0
0
0
0
0
0
0
0
0
0
0
0
0
0
0
0
0
0
0
0
0
0
0
0
0
0
0
0
0
0
0
0
0
0
0
0
4.36557e-10
0
0
0
0
0
0
0
0
0
0
0
0
0
0
0
0
0
2.61934e-10
0
0
0
0
0
4.36557e-11
0
0
0
0
0
0
0
0
0
0
0
0
0
0
0
0
0
0
0
0
0
0
0
0
0
0
0
0
0
0
0
0
0
0
0
0
0
0
0
0
0
0
0
0
0
0
0
0
0
0
0
0
0
0
0
0
0
0
0
0
0
0
0
0
0
0
0
0
0
0
0
0
0
0
0
0
0
0
0
0
0
0
0
0
0
0
0
0
0
0
0
0
0
0
0
0
0
0
0
0
0
0
0
0
0
0
0
0
0
0
0
0
0
0
0
0
0
0
0
0
0
1.45519e-10
0
0
8.73115e-11
0
0
0
0
0
0
0
0
0
0
0
0
0
0
1.45519e-10
4.36557e-11
1.45519e-11
0
0
0
0
0
0
0
0
0
0
0
0
0
0
0
0
0
0
0
0
0
0
0
0
0
3.7994e-05
4.899e-06
2.75398e-06
0
0
0
0
0
0
0
0
0
0
0
2.0244e-06
3.49246e-09
3.98853e-07
9.45874e-10
5.10772e-09
2.32831e-10
3.01079e-08
0
0
2.53203e-09
1.19617e-08
0
1.45519e-11
3.4488e-09
0
0
7.27596e-10
1.80444e-09
0
0
8.00355e-10
0
0
1.45519e-10
0
0
0
0
0
0
0
0
0
0
0
0
0
0
0
0
0
0
0
0
0
0
0
0
0
0
0
0
4.51109e-10
2.76486e-10
1.89175e-10
4.22006e-10
2.91038e-11
1.20781e-09
6.98492e-10
0
0
0
3.34694e-10
1.01863e-10
1.30967e-10
3.49246e-10
0
1.07684e-09
5.23869e-10
0
0
0
1.16415e-10
0
1.45519e-10
0
0
4.07454e-10
3.49246e-10
0
0
0
1.01863e-10
0
0
8.73115e-11
0
2.18279e-10
2.18279e-10
0
0
0
0
0
0
0
0
1.01863e-10
7.27596e-11
0
0
0
0
0
0
0
0
0
3.87218e-06
7.10133e-08
2.57336e-07
1.96758e-06
2.76942e-06
6.61385e-08
1.34591e-07
8.47052e-07
2.05328e-08
5.59376e-08
3.63536e-07
5.49233e-07
1.73168e-08
3.41388e-08
1.43642e-07
1.55007e-07
3.32468e-07
6.33008e-09
1.8641e-08
2.21858e-07
9.99717e-09
0
0
0
0
5.09317e-10
0
4.36557e-11
0
2.91038e-11
0
1.01863e-09
0
0
0
0
0
0
0
0
0
0
0
0
0
0
0
0
0
0
0
0
0
0
0
7.27596e-11
5.82077e-11
1.67347e-09
2.03727e-09
5.82077e-11
0
5.67525e-10
0
0
2.61934e-10
3.34694e-10
0
0
1.16415e-10
0
0
4.36557e-11
8.73115e-11
0
0
0
4.36557e-11
2.91038e-11
4.36557e-11
0
0
0
0
0
0
0
0
0
0
0
0
0
0
0
0
0
0
1.45519e-10
5.82077e-11
0
1.45519e-10
0
0
1.44064e-09
0
0
0
0
0
0
0
5.96629e-10
4.94765e-10
0
0
0
1.89175e-10
8.73115e-11
1.89175e-10
1.45519e-11
0
0
1.45519e-10
1.18307e-08
7.21702e-07
0
0
0
0
0
3.20142e-09
1.38316e-07
0
0
0
0
0
9.45874e-10
5.33473e-08
0
0
0
0
0
5.82077e-11
5.41331e-09
0
0
0
0
0
0
0
0
0
0
0
0
0
0
0
0
0
0
0
0
0
0
0
0
0
0
0
0
0
0
0
0
0
0
0
0
0
0
0
0
0
0
0
0
0
0
0
0
0
0
0
0
0
0
0
0
0
0
0
0
0
0
0
0
0
0
0
0
0
0
0
0
0
0
0
0
0
0
0
0
0
0
0
0
0
0
0
0
0
0
0
0
0
0
0
0
0
0
0
0
0
0
0
0
0
0
0
0
0
0
0
0
0
0
0
0
0
0
0
0
0
0
0
0
0
0
0
0
0
0
0
0
0
0
0
0
0
0
0
0
0
0
0
0
0
0
0
0
0
0
0
0
0
0
0
0
0
0
0
0
0
0
0
0
0
0
0
0
0
0
0
0
0
0
0
0
0
0
0
0
0
0
0
0
0
1.30967e-10
1.49157e-08
0
0
0
0
2.61934e-10
3.63798e-09
0
0
2.54659e-09
0
0
0
0
0
0
0
0
0
0
0
0
0
0
0
0
0
0
0
0
0
0
0
0
0
0
0
0
0
0
0
0
0
0
0
0
0
0
0
0
0
0
0
0
0
0
0
0
0
0
0
0
0
0
0
0
0
0
0
0
0
0
0
0
0
0
0
0
0
0
0
0
0
0
0
0
0
0
0
0
0
0
0
0
0
0
0
0
0
0
0
0
0
0
0
0
0
0
0
0
0
0
0
0
0
0
0
0
0
0
0
0
0
0
0
0
0
0
0
0
0
0
0
0
0
0
0
0
0
0
0
0
0
0
0
0
0
0
0
0
0
0
0
0
0
0
0
0
0
0
0
0
0
0
0
0
0
0
0
0
0
0
0
0
0
0
0
0
0
0
0
0
0
0
0
0
0
0
0
0
0
0
0
0
0
0
0
0
0
0
0
0
0
0
0
0
0
0
0
0
0
0
0
0
0
0
0
0
0
0
0
0
0
0
0
0
0
0
0
0
0
0
0
0
1.01863e-10
0
0
0
0
0
0
0
0
0
0
0
0
0
0
0
0
0
0
0
0
0
0
0
0
0
0
0
0
0
0
0
0
0
0
0
0
0
0
0
0
0
0
0
0
0
0
0
0
0
0
0
0
0
0
0
0
0
0
0
0
0
0
0
0
0
0
0
0
9.31323e-10
0
0
1.30967e-10
8.58563e-10
0
0
9.51259e-08
5.38421e-10
4.49654e-09
1.2762e-08
9.82691e-08
4.51109e-10
4.72937e-09
0
0
0
0
0
0
0
0
0
0
8.73115e-11
4.07454e-10
0
0
1.45519e-10
8.52742e-09
2.663e-08
2.61934e-10
1.64437e-09
2.65427e-08
1.4843e-09
9.74978e-10
0
5.82077e-11
3.34694e-10
7.50879e-09
7.91624e-09
4.07454e-10
0
0
0
0
0
0
0
1.45519e-11
0
0
0
0
0
0
6.40284e-10
2.61934e-10
0
0
8.73115e-10
0
2.32831e-10
0
0
0
0
0
0
0
0
0
0
0
0
0
0
0
0
0
0
0
0
0
0
0
0
0
0
0
0
0
0
0
0
0
0
0
0
0
0
0
0
0
0
0
0
0
0
0
0
0
0
0
0
0
0
0
0
0
0
0
0
0
0
0
0
0
0
0
0
0
0
0
0
0
0
0
0
0
0
0
0
0
0
0
0
0
0
0
0
0
0
0
0
0
0
0
0
0
0
0
0
0
0
0
0
0
0
0
0
0
0
0
0
0
0
0
0
0
0
0
0
0
0
0
0
0
0
0
0
0
0
0
0
0
0
0
0
0
0
0
0
0
0
0
0
0
0
0
0
0
0
0
2.858e-07
0
0
0
0
0
0
0
0
0
0
1.97906e-09
0
1.30967e-10
0
1.45519e-10
0
1.45519e-11
0
0
0
0
0
0
0
0
0
0
0
0
0
0
0
0
0
0
0
0
0
0
0
0
0
0
0
0
0
0
0
0
0
0
0
0
0
0
0
0
0
0
0
0
0
0
0
0
0
0
0
0
0
0
0
0
0
0
0
0
0
0
0
0
0
0
0
0
0
0
0
0
0
0
0
0
0
0
0
0
0
0
0
0
0
0
0
0
0
0
0
0
0
0
0
0
0
0
0
0
0
0
0
0
0
0
0
0
0
0
0
3.50847e-08
6.25732e-10
1.42754e-08
7.567e-10
1.67347e-08
3.95521e-08
2.11003e-09
0.000737596
127.468
0.000161416
0.00871669
0.000116284
0.00183771
0.000235451
0.00354079
8.94623e-07
0.00010476
0.0536084
2.91329e-08
1.63918e-05
0.00851975
4.77717e-05
2.98598e-06
1.59862e-05
0.000497259
0.0124358
2.32617e-06
0.000133478
1.14117
29.1705
0.000934506
0.799935
1.25394e-07
7.9405e-06
5.43994e-05
0.0639637
0.00192263
5.08167e-07
3.12758e-05
7.55292e-06
0.00020933
7.05331e-08
1.28025e-06
8.58222
0.00026515
0.0941878
0.00528935
0.117719
6.602e-06
0.000621183
2.25384e-06
8.26549e-09
1.0556e-07
0.00740255
5.27885e-07
4.6912e-05
8.15025e-05
1.65796e-06
7.5328e-07
1.34225e-06
6.47415e-08
1.83209e-08
3.36731e-08
5.38607e-05
7.98964e-06
3.81227e-05
0.00680033
0.000445081
0.000301998
3.4749e-05
0.00168859
0.000693619
6.37577e-05
0.000798893
0.000129364
0.0011235
1.88079e-06
4.05156e-06
8.98054e-06
0.000340735
0.000300426
2.40941e-05
1.42829e-05
0.000363607
0.000288892
2.0923e-05
9.87089e-05
3.45838e-06
4.41483e-05
4.06321e-06
5.24253e-05
7.86614e-06
6.12388e-05
0.00117707
0.000188002
0.00215199
2.89562e-05
0.002306
6.62131e-05
0.000476789
0.0903152
0.00145308
0.0130807
0.00253495
0.0162413
0.00880679
0.0251739
2.09189
4.71558
9.23758
0.0342515
52.5677
0.18886
0.377137
2.16969e-07
2.64365e-07
5.7109e-07
1.37489e-05
1.74138e-06
3.96991e-06
0.000107258
0.000220577
0.000783815
0.392767
0.00289089
0.0158604
9.69825e-06
9.0003e-06
9.23916e-07
3.67043e-07
1.27185e-05
7.92377e-06
5.61049e-07
5.10105e-05
0.000347036
6.44397e-06
1.43233e-05
8.18774e-05
0.000170349
3.25697e-06
1.48064e-06
6.26169e-08
6.91231e-07
8.84611e-08
8.84844e-07
1.18176e-07
8.71194e-07
1.52349e-05
2.3765e-06
1.98973e-05
3.42668e-07
2.96273e-05
8.65475e-07
5.43245e-06
0.00748262
0.00396857
0.000688115
0.000128182
0.00808371
0.00190083
0.000571293
0.0224732
1.10855
0.00561488
0.0100778
0.0593075
0.111774
0.00238663
0.00132278
1.80754e-05
0.000104301
2.48514e-05
0.000238844
0.000121708
0.000368489
0.0111071
0.00131622
0.00942937
0.00020517
0.0156284
0.000695759
0.00484609
4.44823e-07
1.00213e-06
2.01238e-07
4.19095e-09
1.13796e-08
8.58563e-09
1.75394e-07
2.99187e-08
5.13974e-08
0.000461977
0.000823468
0.000181621
1.27719e-06
1.89291e-06
8.35818e-06
0.000108323
1.28162e-05
4.42736e-05
4.09149e-05
8.0859e-05
3.74569e-05
1.06855e-07
8.54197e-09
2.76486e-10
0
5.45697e-09
1.84809e-09
3.71365e-08
3.20142e-10
1.01863e-10
1.16415e-09
7.39528e-08
0
0
1.40572e-08
2.91038e-11
2.57569e-09
0
3.0559e-10
8.73115e-11
3.34694e-10
6.3814e-05
0.0300052
0.00291138
1.1344e-05
0.00113224
6.834e-05
4.922e-06
0.000192774
3.2152e-06
2.6795e-06
1.33281e-07
5.70863e-05
1.2909e-07
1.44582e-05
3.98286e-08
2.37486e-06
0.000454499
7.63554e-07
1.75525e-06
7.68341e-09
3.5252e-07
2.08092e-09
1.6905e-07
8.45962e-06
0.000274716
1.77679e-08
1.17063e-06
1.14596e-07
6.8394e-10
3.8257e-08
2.18279e-10
0.000100591
5.52973e-09
2.06011e-07
6.5146e-07
1.77453e-05
1.06229e-09
3.91447e-08
6.89761e-09
0
2.95429e-06
3.0559e-10
5.04951e-09
4.01487e-08
3.36062e-07
5.52973e-10
1.99361e-09
8.53615e-08
4.92437e-07
4.61019e-07
3.71947e-08
4.08909e-09
2.28611e-08
1.84809e-09
4.80213e-10
2.21189e-09
2.91038e-11
0
7.27596e-11
5.04951e-09
1.25146e-08
1.04774e-08
4.1473e-09
1.42609e-09
2.64845e-09
2.28247e-07
1.98052e-08
1.15018e-07
9.60426e-10
2.47383e-10
5.52973e-10
1.89175e-10
7.27596e-11
1.16415e-10
7.75617e-09
7.13044e-10
3.91447e-09
3.70346e-08
3.88129e-07
2.69254e-07
4.36557e-11
0
4.36557e-11
0
0
0
1.70257e-08
1.40397e-07
1.15484e-07
2.91038e-10
8.73115e-11
6.54836e-10
1.77533e-08
5.80621e-09
3.01952e-08
0
0
0
2.56114e-09
5.52973e-10
4.1473e-09
8.73115e-11
0
0
1.55705e-09
1.60071e-10
6.54836e-10
1.22949e-07
2.4341e-07
2.09955e-07
3.21756e-06
4.92098e-06
4.43365e-06
3.27179e-06
7.68632e-08
3.33966e-08
5.31873e-08
8.73493e-07
1.08205e-06
1.37014e-06
8.2179e-07
1.86649e-06
9.31366e-06
8.68316e-06
0.000186268
5.68801e-05
4.46703e-05
0.00019635
3.97011e-06
4.21875e-07
2.13711e-06
6.27644e-05
8.86472e-06
1.3856e-05
3.60639e-05
1.68657e-08
5.74801e-09
9.79344e-09
1.2292e-07
2.63011e-07
1.40673e-07
1.69865e-07
3.14321e-09
1.84809e-09
2.50293e-09
3.54776e-08
3.93338e-08
4.48781e-08
3.33966e-08
5.8522e-07
7.65722e-08
3.78714e-07
6.38858e-06
3.50089e-06
8.5732e-06
1.50361e-06
1.07277e-07
1.1365e-08
5.14847e-08
1.40558e-06
1.86774e-07
2.80852e-07
6.66769e-07
5.53642e-07
5.07916e-06
4.00688e-06
1.92551e-05
5.20958e-05
5.94018e-05
8.32787e-06
1.03319e-09
8.14907e-10
1.29512e-09
1.16415e-08
1.76224e-08
1.25292e-08
1.4712e-08
2.76486e-10
2.61934e-10
3.63798e-10
4.51109e-09
4.81668e-09
5.38421e-09
4.19095e-09
2.58733e-08
8.22183e-09
3.04863e-08
3.57861e-07
1.39538e-07
4.10437e-07
8.71951e-08
2.38681e-07
2.02954e-06
1.75629e-06
2.8801e-06
2.35107e-05
3.16919e-06
2.15668e-05
4.19095e-09
1.74623e-09
9.05129e-09
9.76579e-08
1.64873e-08
2.17551e-08
4.98694e-08
2.73532e-07
8.81264e-08
3.98155e-07
1.36842e-06
3.63917e-06
4.35419e-06
5.85947e-07
0
0
2.91038e-11
2.76486e-10
7.567e-10
3.63798e-10
5.38421e-10
1.1205e-09
5.52973e-10
1.46974e-09
1.70839e-08
8.83301e-09
1.9616e-08
4.71482e-09
4.06872e-08
8.28004e-09
5.94737e-08
7.66886e-08
7.08606e-07
1.26456e-07
5.3749e-07
6.40284e-10
1.45519e-10
5.82077e-10
7.88714e-09
2.6339e-09
2.13913e-09
6.60657e-09
1.0099e-08
2.54659e-09
8.62929e-09
3.7413e-08
6.66187e-08
8.83156e-08
1.429e-08
0.000701644
7.14028e-06
0.000246641
3.88156e-05
0.000220561
2.39749e-06
7.15964e-05
12.5697
0.00899676
0.109615
0.00635538
3.52427
0.00348119
0.067459
4.37171e-05
7.45014e-07
9.08916e-06
4.70235e-06
2.19998e-05
3.15194e-07
2.43838e-06
0.0528738
0.000307253
0.00993278
0.000287748
0.00821905
4.83525e-05
0.001283
1.50878e-05
2.33238e-07
1.09021e-06
2.55475e-06
1.06489e-05
1.07655e-07
5.05257e-07
0.00169039
2.08077e-05
0.000491935
0.000117206
0.000575401
6.17722e-06
9.72656e-05
1.48328e-06
9.47475e-08
7.68603e-07
1.42381e-05
2.48494e-05
1.82724e-05
8.07228e-05
1.20015e-06
1.4813e-05
2.06813e-06
2.6598e-05
1.98091e-06
5.40608e-06
2.1178e-06
5.51183e-06
1.25146e-09
2.61934e-10
4.36557e-11
0
0
0
0
1.20219e-06
6.96018e-08
1.18598e-08
1.58616e-09
3.29994e-07
4.80213e-10
1.74623e-10
2.21917e-08
4.36557e-11
0
4.58385e-09
2.91038e-11
5.96629e-10
5.23869e-10
2.91038e-11
0
1.45519e-11
0
0
0
1.89175e-10
0
1.89175e-10
0
0
0
0
0
1.25146e-09
1.16706e-08
1.08994e-08
1.71407e-07
3.13303e-08
2.3836e-08
1.94414e-07
3.7835e-09
4.22006e-10
3.37604e-09
4.80504e-08
7.34872e-09
7.61065e-09
4.65661e-08
9.8953e-10
1.16415e-10
8.29459e-10
1.27038e-08
3.84171e-09
1.34023e-08
2.50293e-09
5.82077e-11
3.49246e-10
3.34694e-10
4.78758e-09
9.74978e-10
1.03319e-09
4.43833e-09
1.30967e-10
0
1.89175e-10
2.35741e-09
5.82077e-10
2.45927e-09
5.09317e-10
0
1.45519e-11
5.67525e-10
5.96629e-10
1.97906e-09
3.34694e-10
1.6109e-08
5.31145e-09
2.91038e-11
4.36557e-10
0
5.82077e-11
6.54836e-10
1.71713e-09
4.36557e-11
4.94765e-10
0
0
6.40284e-10
0
4.36557e-11
1.45519e-11
2.03727e-10
0
0
0
0
2.91038e-11
0
0
0
2.03727e-10
1.5134e-09
8.14907e-10
2.85218e-09
8.73115e-11
1.01863e-10
1.45519e-11
4.36557e-11
0
0
1.45519e-11
1.03319e-09
5.09317e-10
2.76486e-10
1.89175e-10
2.91038e-11
0
2.91038e-10
2.92493e-09
2.33704e-08
2.13622e-08
7.86094e-08
1.55705e-09
1.44064e-09
9.02219e-10
2.35304e-08
2.30211e-08
1.88738e-08
7.47968e-09
5.99539e-09
1.08499e-07
3.22747e-07
1.11177e-07
3.1988e-07
0
0
0
0
0
0
0
0
0
0
0
4.01633e-09
0
1.01863e-10
0
0
0
0
0
7.27596e-11
2.24099e-09
2.91038e-11
7.27596e-10
0
0
0
0
1.45519e-11
0
0
0
0
0
0
0
0
0
0
0
0
0
0
0
0
0
0
0
0
0
0
0
0
0
0
0
0
0
0
4.36557e-11
0
0
0
0
0
0
0
0
0
0
0
0
0
0
0
0
0
0
0
0
0
0
0
0
0
0
0
0
0
0
0
0
0
0
0
0
0
0
0
0
0
0
0
0
0
0
0
0
0
0
0
0
0
0
0
0
0
0
0
0
0
0
0
0
0
0
0
0
0
0
0
0
0
0
0
0
0
0
0
0
0
0
0
0
0
0
0
0
0
0
0
0
0
0
0
0
0
0
0
0
0
0
0
0
4.80213e-10
3.73984e-09
4.05998e-09
1.44064e-09
1.70257e-09
0
8.73115e-11
0
8.73115e-11
0
0
0
0.100937
19.3747
0.00245614
0.000233535
1.76558
0.0107907
0.0738713
0.00608831
0.0520441
3.87093
0.0153599
0.0191107
0.0197375
0.175996
0.317427
0.225317
0.00124761
0.00164674
0.0241187
0.000489394
0.0105929
992932
1.72273e+06
203576
174.967
210.003
0.178358
746611
1.46661e+06
554262
1.72615e+06
2.01705e+06
2.55743e+06
760952
1.22665e+06
1.9737e+06
536702
734368
7576.67
1.01988e+06
3.14048e+06
1530.49
1.6678e+06
622374
1666.93
653149
17480.7
621141
19.807
164461
744181
1.57738
19841.8
415562
2.30648
27379.3
7799.15
7.45499
2167.07
0.561657
2.81323e+06
586032
1.84132e+06
4550.49
43.3161
1062.47
4.23917
0.0155336
0.354574
1.28246e+06
1.19487e+06
1.64816e+06
1.51094e+06
1.233e+06
1.68614e+06
1.25943e+06
1.26916e+06
1.57359e+06
1.24137e+06
1.90918e+06
1.24836e+06
1.74905e+06
1.24495e+06
2.41782e+06
2.09143e+06
2.48882e+06
2.23341e+06
2.97311e+06
2.63853e+06
1.09453e+06
1.09397e+06
1.80976e+06
556695
1.22776e+06
816971
1.28806e+06
1.19526e+06
1.23883e+06
2.04463e+06
1.9789e+06
1.26668e+06
1.15625e+06
1.80431e+06
801901
85451
74295.5
145804
363178
585337
451826
1.01486e+06
1.61116e+06
828464
602579
1.01327e+06
1.21155e+06
749579
3.32402e+06
3.36289e+06
2.8897e+06
42733.4
47078.6
608394
2.73437e+06
591340
1.82168e+06
106060
17371.8
38057.6
487.391
228467
5284.28
11164.3
423008
690387
319933
496273
551710
615368
170701
30507.3
115.789
228.659
471.217
1286.16
2757.89
5447.3
279323
353270
423925
10624.9
544592
59966.4
107929
106492
342919
25045.7
9.76867
38.0024
237.032
117267
886.941
5638.91
57.2146
27.4702
55.0071
0.201427
657.384
2.42313
4.69211
1298.44
202693
1258.29
2268.17
15034.6
28032.7
105.515
85.0033
141.948
91.1847
0.378936
1769.33
6.89488
4.61629
97.4222
169.537
7.92569
10.5693
0.0291812
0.515965
319735
574133
155783
348698
335738
364531
655.719
12003.3
2.88485e+06
2.90182e+06
1.24418e+06
1.80923e+06
1.82091e+06
1.24429e+06
1.20554e+06
1.92984e+06
1.85701e+06
1.20393e+06
3.0858e+06
2.98724e+06
257116
411369
474302
753335
374882
554700
864389
645610
670601
610595
490379
287704
608932
385090
585794
100154
597756
462896
641514
116408
136.512
1443.37
562553
184113
576707
234741
508162
328711
520439
306059
612852
350960
278588
495073
559331
329823
260131
541435
293730
320615
297131
389677
367749
373360
393799
267421
242448
273247
300270
338286
345598
309219
0.000128459
309881
589772
659385
485418
0.564277
4447.46
17.5043
0.148036
0.029938
0.00961956
797005
688309
3.84801
727964
751064
0.00156513
6185.29
2.96878e+06
35.5443
875702
0.0820544
19373.9
1.81804e-05
7.82784
0.301789
217323
24.9818
0.000625782
0.00658617
1.33093
201678
0.0117578
477.029
1.06031
6765.74
0.0024643
11.2001
759415
15514.6
1.52114e+06
182543
1.01138e+06
388.985
1.01046e+06
1.82105e+06
615794
1.63072e+06
132.992
0.00026662
2.37175
2.3819e+06
112.916
1.34405e+06
2.49646e+06
0.198194
0.000317103
0.963862
0.0827096
0.00165782
856432
33.2373
462167
10.2942
140505
0.0182378
299.418
0.173036
0.000142918
448570
0.00188323
46.9307
0.0520206
0.000636658
626.162
0.00683977
68.7032
5.86002e-05
6.68743
0.000923332
0.0642237
0.0363987
222998
3614.02
147759
2.87714e+06
1.01156e-05
0.000119797
2.892e-05
363.154
0.392761
16.9153
0.00982038
0.000318069
0.00297886
0.00723678
2.30607
0.117746
0.38993
0.0721775
0.225976
3.96283
82.5967
4907.34
13.9089
281.81
2896.84
8.10218
141.554
0.00102723
0.622162
0.0121173
0.00933597
0.0258054
0.060387
0.0960137
22.569
77.8346
116.084
0.314189
795.11
2.18261
3.25703
569855
140848
297236
9307.45
92382.9
216262
647463
941252
1.05904e+06
970482
1.4475e+06
1.04669e+06
869393
976723
382086
2712.17
4049.69
12996.6
27562.3
85153.3
123019
861829
1.31642e+06
1.02533e+06
277701
1.05169e+06
642145
645504
1.15747e+06
1.78798e+06
1.13957e+06
1.74488e+06
1.14733e+06
1.11117e+06
2.87973
75.8324
1.63242
7.49686e-05
0.00123334
0.00918578
19.2148
0.0518168
0.412763
1.31225e+06
2.22795e+06
1.12603e+06
919.241
5502.8
44780.4
1.94117e+06
217398
722551
2.75263e+06
0.000159801
0.00483255
0.00608404
0.00112549
0.0129093
0.00327292
0.000367255
0.0297056
9.96348
0.028417
0.0632163
0.29147
0.638407
0.00315924
0.0145019
0.00521756
0.0171933
0.000523567
0.0508394
0.00107211
0.0102056
661.686
341.296
1110.5
2.06494
11304.6
20.8419
66.8237
20109.5
776221
35978.1
61827.7
243430
310157
2109.55
38.7918
0.129484
0.177023
0.416784
1.29698
3.88021
4.327
1133.68
3365.8
3077.56
11.3076
31565.1
115.919
116.678
0.00405846
0.00952243
0.000342264
0.00060346
2.86064e-05
7.2409e-05
17290
33627.3
746.176
0.0186582
0.0467527
0.699753
1100.07
1.45749
27.5127
0.00151935
0.0055081
0.00012946
0.000443922
0.00174948
0.00415727
0.000105984
0.35366
0.0640701
0.108212
0.00362397
1.14724
0.0327527
0.0336584
8.73779
728.035
2.73621
20.0413
29.2587
219.035
0.797027
9.59214e-06
3.76733e-05
7.29965e-06
0.253548
1.72663
0.0680716
953778
444.818
22.7995
468289
129.021
6.36238
39402.3
540645
889376
809421
905562
689172
445517
918719
472608
394795
484760
550075
6732.79
5.91026
0.137946
6.3764
0.137557
0.0386151
0.158807
894509
26800
993181
102742
976137
63.8734
351822
2.79892
0.0519017
0.0145593
0.349605
0.0134967
0.00301968
0.108774
548060
154.468
1781.39
164.552
4045.49
7.75391
196.634
0.000979321
0.0617502
0.000251041
4.42142e-05
0.00204532
0.000477345
0.0142835
6088.18
0.313145
0.178583
0.0254561
3.99528
0.193503
60.3427
3.91339e-06
1.35628e-05
2.23667e-06
6.01505e-05
0.000173342
3.42936e-05
4.95336e-05
3.50359e-05
4.16258e-06
2.40961e-06
7.61884e-06
1.18879e-06
3.45928e-07
1.38483e-06
1.9453e-07
0.000463405
0.000364133
7.53338e-05
0.00158901
0.00453404
0.00381929
0.0011267
4.91529e-05
0.000129189
2.49055e-05
0.00110596
0.00200649
0.00217876
0.000606747
5.55989e-06
1.90082e-05
3.0739e-06
5.0409e-05
0.000473698
0.000100796
0.000254848
0.0699945
0.015196
0.00274447
147054
498896
341828
229354
322454
314190
414978
252824
308810
261841
367259
316072
321175
368617
180004
157093
193082
200231
242796
254946
211489
347308
426886
405889
328477
412319
308052
387567
191644
208641
171624
250035
296646
272097
227439
328167
287649
272416
346871
391461
376553
330837
385403
276639
349544
254886
284696
360380
324810
277988
214892
214882
224388
225332
288753
290895
217022
314846
365886
279782
328519
247448
291072
833192
1.02881e+06
428881
621457
501637
756741
837070
406595
264289
317397
330623
356613
420246
277037
308516
397277
369465
411692
436093
372898
333171
455932
492835
358787
448061
496557
407804
397681
453209
571842
468983
478202
586280
597955
465401
781346
955336
102383
777939
811928
1.03138e+06
73196.6
427977
449653
378186
432997
507878
384298
458934
420552
306166
383770
468588
343120
373828
431572
328974
333618
262465
238868
241114
305225
308676
377995
406912
465921
350325
378413
439803
296238
444870
563038
446269
5456.14
502466
538860
627881
378001
546339
420543
571953
532411
433422
391624
460514
341340
391932
353701
405395
282851
330053
361951
370453
289832
426798
322109
411821
324602
494774
609029
631924
643799
685350
520296
486688
273975
302886
236210
287280
248206
316806
369668
459144
443363
521944
542269
495122
396136
473869
410483
507643
432888
428602
466197
397322
361511
449734
356090
411920
442034
497990
482519
535205
505831
592789
487191
536747
560564
444498
446250
569462
673344
618813
489414
450716
455052
414185
362132
488398
354920
510764
513361
370290
380898
440212
367575
286868
305415
264923
337073
397998
559368
44727.4
911.86
497050
597135
5419.69
486.345
452186
644398
484374
538843
389674
421669
503966
495624
445989
509344
531032
589241
604913
551736
500465
546612
776460
440585
488672
722616
762820
601031
693445
761246
763576
863356
568897
638292
440811
482207
513087
571221
610148
522625
556155
499406
413575
315018
479169
418423
353258
564583
673152
839563
719244
543090
507800
626462
587921
587141
444951
431203
505630
366365
487636
371898
536146
575830
561460
434879
451999
395669
409797
532915
434906
488001
575037
614377
526540
574495
556002
613411
655554
470249
529181
626669
579566
754396
496885
577775
738915
510322
707174
745592
483247
529774
403190
543358
575681
425506
506725
531579
602266
542514
714125
622470
636154
732533
332855
435629
348612
461416
472986
584819
601550
577645
562714
620667
491723
506323
560678
562478
588562
654081
691308
736432
584217
626050
705590
600258
723948
508230
552337
660338
638801
595042
720832
743227
813577
926149
948842
988326
976391
585487
672030
831637
556995
939088
720354
743417
752719
777646
672182
840524
653102
635156
844547
649133
581746
685249
806739
559022
656897
762499
552372
409100
559286
372244
500196
511865
619393
544557
788119
573667
938438
685550
730645
807276
569797
544175
568223
570352
501331
458615
536929
564453
604107
768974
642469
769855
669260
785601
1.04316e+06
743722
954859
663472
849851
968774
736422
757470
869019
912152
907286
726465
741262
681828
588676
603245
498550
553708
497813
411491
609048
1281.31
9751.8
51283.1
986585
910784
999241
895753
862002
659189
704650
723958
859463
883371
683388
860866
828077
919108
1.01622e+06
1.00289e+06
980544
1.0005e+06
665800
549077
531193
573053
649662
662797
632183
743210
611604
723852
867923
777670
649899
941023
848083
716215
871509
796303
632776
668602
770334
788943
933912
944437
751401
895004
911967
715498
686925
850136
695505
791483
545964
826886
602473
591920
596088
557475
532199
507937
455180
423252
554145
400314
502883
592624
546799
582415
582596
606261
541904
464795
613722
603743
561129
623814
760145
666876
806889
811277
954464
695231
814745
971419
979060
1.02293e+06
1.04907e+06
980582
924337
1.06469e+06
581954
498199
647560
500593
586697
598150
625186
1.97169
258.336
14281.3
351071
343.939
228019
13.2187
836590
974513
976641
893443
1.0047e+06
992064
872896
899355
911314
744335
764192
1.03051e+06
921791
930071
607479
484657
619205
591541
608016
621658
611368
582604
540864
594441
436219
604851
591433
390540
547660
586388
518743
403241
296541
467523
372349
820239
757960
1.05475e+06
933641
850678
697015
1.01122e+06
1.05462e+06
982922
846460
1.00232e+06
1.04508e+06
1.09633e+06
1.07648e+06
682090
864540
628950
722408
455596
608250
318231
983418
991098
1.00635e+06
794803
1.02759e+06
953788
955960
224103
440021
511912
600976
604401
563446
321576
637649
291009
382368
583717
544817
626703
589187
762502
298183
952908
835542
660196
932995
668831
581183
630168
592565
512303
586147
483599
340028
632100
639818
615461
289565
507523
457960
596459
540620
525603
454019
225593
365218
323244
174846
991901
928737
875487
780870
945352
893772
993218
254713
408049
516655
259415
408168
579340
523395
140.87
0.252414
1.22944
604883
215.204
19082.4
105.645
998572
1.02574e+06
952421
946257
851940
975342
1.04217e+06
463448
371981
476325
305539
190164
84314
174204
1.04822e+06
922781
1.04853e+06
922075
654470
595790