/*--------------------------------*- C++ -*----------------------------------*\
  =========                 |
  \\      /  F ield         | OpenFOAM: The Open Source CFD Toolbox
   \\    /   O peration     | Website:  https://openfoam.org
    \\  /    A nd           | Version:  9
     \\/     M anipulation  |
\*---------------------------------------------------------------------------*/
FoamFile
{
    format      ascii;
    class       volScalarField;
    location    "0.0022";
    object      alpha.c4;
}
// * * * * * * * * * * * * * * * * * * * * * * * * * * * * * * * * * * * * * //

dimensions      [0 0 0 0 0 0 0];

internalField   nonuniform List<scalar> 
18309
(
1.48279e-25
7.35557e-24
3.47682e-22
1.55517e-20
6.61549e-19
2.56906e-17
7.82044e-16
7.41872e-27
3.64948e-25
1.70185e-23
7.41016e-22
3.02337e-20
1.14143e-18
3.69543e-17
2.92737e-28
1.42607e-26
6.55837e-25
2.78618e-23
1.09106e-21
3.91806e-20
1.24929e-18
9.51396e-30
4.58173e-28
2.07771e-26
8.64731e-25
3.27711e-23
1.12058e-21
3.39212e-20
2.69915e-31
1.28298e-29
5.73212e-28
2.34206e-26
8.65383e-25
2.85272e-23
8.23108e-22
8.92774e-16
3.2375e-17
8.65808e-19
2.00968e-20
1.50377e-14
4.56094e-07
9.97204e-15
5.9288e-16
1.70085e-17
3.90894e-19
7.85207e-05
5.24848e-12
3.28458e-14
2.32374e-16
5.6579e-18
1.15181e-15
3.34699e-11
3.63782e-05
0.000813491
1.66559e-16
3.51201e-13
2.86756e-11
0.000158927
0.00414323
2.53123e-17
1.15031e-15
2.03449e-10
6.27341e-08
0.000165101
8.09558e-35
4.67491e-33
2.54123e-31
1.27009e-29
5.78435e-28
2.3755e-26
8.65681e-25
2.71788e-23
7.01552e-22
1.42128e-20
3.53452e-33
2.08921e-31
1.16481e-29
5.99603e-28
2.83293e-26
1.21848e-24
4.67731e-23
1.53414e-21
4.02424e-20
8.06968e-19
1.40862e-31
8.52664e-30
4.88552e-28
2.60412e-26
1.28907e-24
5.869e-23
2.37519e-21
7.99189e-20
2.04257e-18
3.84857e-17
4.93896e-30
3.06462e-28
1.81118e-26
1.0074e-24
5.26892e-23
2.53285e-21
1.05335e-19
3.48261e-18
8.10527e-17
6.52622e-16
1.49617e-28
9.52386e-27
5.82345e-25
3.39098e-23
1.86128e-21
9.161e-20
3.72935e-18
1.27921e-16
5.97472e-16
2.15017e-13
3.84945e-27
2.51081e-25
1.58424e-23
9.55909e-22
5.34907e-20
2.54847e-18
1.00787e-16
6.00829e-16
1.07745e-13
4.3015e-07
8.3144e-26
5.52957e-24
3.55955e-22
2.17838e-20
1.19129e-18
5.02832e-17
4.23542e-16
1.1696e-13
0.000247532
0.000276047
1.49491e-24
1.00655e-22
6.5089e-21
3.94349e-19
1.99965e-17
6.97144e-15
1.73606e-08
0.000134654
0.00548774
2.62114e-35
1.46686e-33
7.7393e-32
3.75215e-30
1.65171e-28
6.50518e-27
2.24914e-25
6.649e-24
1.61362e-22
3.09512e-21
1.11235e-33
6.37713e-32
3.45055e-30
1.71834e-28
7.78639e-27
3.16783e-25
1.13655e-23
3.47799e-22
8.56525e-21
1.65758e-19
4.31898e-32
2.53602e-30
1.40695e-28
7.20078e-27
3.37012e-25
1.42996e-23
5.40089e-22
1.72594e-20
4.30412e-19
8.80693e-18
1.47627e-30
8.87089e-29
5.04376e-27
2.6575e-25
1.29449e-23
5.81726e-22
2.34479e-20
7.74846e-19
1.81779e-17
2.37673e-16
4.35132e-29
2.66947e-27
1.55286e-25
8.43771e-24
4.31661e-22
2.07392e-20
8.83333e-19
2.71373e-17
1.97632e-16
5.98674e-14
1.08252e-27
6.75106e-26
4.00022e-24
2.23558e-22
1.19495e-20
6.05803e-19
2.5114e-17
2.62782e-16
1.23609e-14
8.95263e-08
2.23655e-26
1.41031e-24
8.43295e-23
4.74538e-21
2.57038e-19
1.30574e-17
2.08967e-16
8.75918e-15
5.33896e-05
0.000131063
3.81974e-25
2.43223e-23
1.45023e-21
7.9531e-20
4.44784e-18
5.76942e-16
2.96552e-10
2.41801e-05
0.000574869
0.00978018
3.74324e-36
1.96058e-34
9.71438e-33
4.43284e-31
1.84036e-29
6.84393e-28
2.23327e-26
6.21946e-25
1.42466e-23
2.57822e-22
1.50218e-34
8.04846e-33
4.08504e-31
1.9135e-29
8.1721e-28
3.13227e-26
1.05488e-24
3.02626e-23
7.05744e-22
1.2788e-20
5.55164e-33
3.04314e-31
1.58328e-29
7.62256e-28
3.35694e-26
1.33277e-24
4.67319e-23
1.39436e-21
3.30487e-20
5.98777e-19
1.8185e-31
1.01986e-29
5.44192e-28
2.69694e-26
1.22967e-24
5.10241e-23
1.88774e-21
5.8724e-20
1.37018e-18
2.33232e-17
5.17797e-30
2.96696e-28
1.62206e-26
8.27864e-25
3.92446e-23
1.71788e-21
6.71764e-20
2.10941e-18
4.47043e-17
1.46344e-15
1.25318e-28
7.30917e-27
4.07825e-25
2.13666e-23
1.05205e-21
4.82541e-20
1.92771e-18
6.06571e-17
2.72039e-16
8.97157e-12
2.51792e-27
1.48502e-25
8.3855e-24
4.45952e-22
2.23718e-20
1.02861e-18
3.76387e-17
2.56295e-16
3.86409e-14
6.35083e-07
4.11204e-26
2.43566e-24
1.37865e-22
7.31206e-21
3.61312e-19
1.56252e-17
1.77205e-16
1.52429e-14
3.73946e-07
2.16849e-05
4.9421e-37
2.48349e-35
1.17847e-33
5.14422e-32
2.0418e-30
7.26054e-29
2.26902e-27
6.0802e-26
1.35521e-24
2.43399e-23
1.92337e-35
9.83537e-34
4.75729e-32
2.12006e-30
8.60434e-29
3.13272e-27
1.00313e-25
2.75124e-24
6.24191e-23
1.12815e-21
6.90542e-34
3.59506e-32
1.77267e-30
8.06907e-29
3.35239e-27
1.25249e-25
4.12536e-24
1.16426e-22
2.69676e-21
4.90335e-20
2.20398e-32
1.16768e-30
5.86929e-29
2.73044e-27
1.16305e-25
4.47482e-24
1.52561e-22
4.45437e-21
1.04765e-19
1.88567e-18
6.14104e-31
3.30603e-29
1.69191e-27
8.03891e-26
3.51364e-24
1.39681e-22
4.94682e-21
1.48071e-19
3.4054e-18
5.56397e-17
1.46286e-29
7.9775e-28
4.14357e-26
2.00487e-24
8.97265e-23
3.67594e-21
1.33379e-19
3.92421e-18
8.80548e-17
2.14471e-15
2.91345e-28
1.60171e-26
8.39714e-25
4.10961e-23
1.86534e-21
7.73036e-20
2.7485e-18
7.42048e-17
4.13429e-16
3.80084e-12
4.75092e-27
2.6202e-25
1.37843e-23
6.76505e-22
3.06894e-20
1.25982e-18
4.24248e-17
3.27985e-16
1.76109e-12
2.71219e-07
4.90732e-38
2.42471e-36
1.13017e-34
4.84295e-33
1.88759e-31
6.60272e-30
2.03773e-28
5.42986e-27
1.21589e-25
2.21746e-24
1.89185e-36
9.49128e-35
4.49851e-33
1.96268e-31
7.79941e-30
2.78525e-28
8.7848e-27
2.39221e-25
5.46032e-24
1.0074e-22
6.74189e-35
3.43607e-33
1.65584e-31
7.35607e-30
2.98152e-28
1.08799e-26
3.51277e-25
9.80317e-24
2.29014e-22
4.29482e-21
2.14192e-33
1.10849e-31
5.42976e-30
2.45612e-28
1.0157e-26
3.79103e-25
1.25584e-23
3.60857e-22
8.697e-21
1.67774e-19
5.96426e-32
3.12997e-30
1.55631e-28
7.15907e-27
3.01751e-25
1.15169e-23
3.92242e-22
1.16717e-20
2.92557e-19
5.83737e-18
1.42681e-30
7.57324e-29
3.81151e-27
1.77713e-25
7.60772e-24
2.9608e-22
1.03568e-20
3.18482e-19
8.17087e-18
1.58487e-16
2.86865e-29
1.5343e-27
7.78137e-26
3.65679e-24
1.57858e-22
6.20853e-21
2.20076e-19
6.75282e-18
1.59832e-16
5.16432e-15
4.7413e-28
2.54644e-26
1.29613e-24
6.10435e-23
2.63273e-21
1.03107e-19
3.62605e-18
1.03397e-16
5.57158e-14
2.63459e-08
3.5206e-39
1.72144e-37
7.93305e-36
3.35839e-34
1.29292e-32
4.47029e-31
1.36656e-29
3.62185e-28
8.11919e-27
1.49372e-25
1.34924e-37
6.6887e-36
3.12901e-34
1.34619e-32
5.2734e-31
1.85763e-29
5.79277e-28
1.56679e-26
3.57849e-25
6.66862e-24
4.78544e-36
2.40658e-34
1.14279e-32
4.99667e-31
1.99203e-29
7.15346e-28
2.27783e-26
6.2981e-25
1.46928e-23
2.78133e-22
1.5158e-34
7.73114e-33
3.72597e-31
1.65565e-29
6.71896e-28
2.46091e-26
8.00992e-25
2.26914e-23
5.43377e-22
1.05317e-20
4.21907e-33
2.18027e-31
1.06534e-29
4.80603e-28
1.98337e-26
7.40227e-25
2.46285e-23
7.17217e-22
1.77991e-20
3.58331e-19
1.01222e-31
5.28934e-30
2.61453e-28
1.1943e-26
4.99636e-25
1.89405e-23
6.43255e-22
1.93376e-20
5.0184e-19
1.04378e-17
2.04774e-30
1.07879e-28
5.37581e-27
2.47547e-25
1.04378e-23
3.99196e-22
1.37604e-20
4.24752e-19
1.12002e-17
2.17868e-16
3.41011e-29
1.80604e-27
9.04238e-26
4.17804e-24
1.76306e-22
6.72901e-21
2.31655e-19
7.0914e-18
1.67537e-16
8.52782e-14
1.9089e-40
9.24503e-39
4.21607e-37
1.76448e-35
6.71041e-34
2.29122e-32
6.9198e-31
1.81492e-29
4.03917e-28
7.41589e-27
7.26645e-39
3.56287e-37
1.64656e-35
6.98989e-34
2.6991e-32
9.36706e-31
2.87825e-29
7.6828e-28
1.73804e-26
3.22874e-25
2.56106e-37
1.27201e-35
5.95728e-34
2.56514e-32
1.00576e-30
3.5487e-29
1.11012e-27
3.01928e-26
6.95276e-25
1.30821e-23
8.06738e-36
4.05836e-34
1.92598e-32
8.41184e-31
3.34936e-29
1.2019e-27
3.82978e-26
1.06227e-24
2.49415e-23
4.76419e-22
2.23617e-34
1.1385e-32
5.47051e-31
2.42149e-29
9.78341e-28
3.56717e-26
1.15685e-24
3.27256e-23
7.85605e-22
1.53253e-20
5.35323e-33
2.75373e-31
1.33733e-29
5.98693e-28
2.44821e-26
9.04283e-25
2.97565e-23
8.57878e-22
2.11526e-20
4.24435e-19
1.08246e-31
5.6129e-30
2.7474e-28
1.23952e-26
5.106e-25
1.89891e-23
6.29878e-22
1.84254e-20
4.65237e-19
9.42448e-18
1.80297e-30
9.39981e-29
4.62348e-27
2.09368e-25
8.63654e-24
3.2048e-22
1.05771e-20
3.08316e-19
7.69155e-18
1.45254e-16
8.22562e-42
3.94583e-40
1.78088e-38
7.36899e-37
2.76826e-35
9.32993e-34
2.78052e-32
7.19734e-31
1.58331e-29
2.88317e-28
3.10702e-40
1.50683e-38
6.88043e-37
2.88237e-35
1.09705e-33
3.74865e-32
1.13328e-30
2.9762e-29
6.63462e-28
1.2197e-26
1.08673e-38
5.33065e-37
2.46254e-35
1.04434e-33
4.0267e-32
1.39506e-30
4.27987e-29
1.14111e-27
2.57968e-26
4.78857e-25
3.39792e-37
1.68565e-35
7.87756e-34
3.3819e-32
1.32098e-30
4.64056e-29
1.44498e-27
3.91227e-26
8.97055e-25
1.68073e-23
9.35521e-36
4.69031e-34
2.21588e-32
9.62267e-31
3.80469e-29
1.35402e-27
4.27454e-26
1.17369e-24
2.72678e-23
5.15333e-22
2.2265e-34
1.12664e-32
5.3726e-31
2.35575e-29
9.40791e-28
3.38268e-26
1.079e-24
2.99373e-23
7.03087e-22
1.33957e-20
4.48133e-33
2.28382e-31
1.09667e-29
4.84071e-28
1.9449e-26
7.02773e-25
2.24954e-23
6.25984e-22
1.47703e-20
2.81962e-19
7.43213e-32
3.80598e-30
1.83533e-28
8.12609e-27
3.26807e-25
1.17779e-23
3.74099e-22
1.02822e-20
2.39049e-19
4.44909e-18
2.93226e-43
1.39324e-41
6.22459e-40
2.54739e-38
9.45682e-37
3.14736e-35
9.25536e-34
2.36352e-32
5.13213e-31
9.24394e-30
1.09847e-41
5.26987e-40
2.3783e-38
9.83658e-37
3.69218e-35
1.24284e-33
3.6976e-32
9.55039e-31
2.09497e-29
3.80019e-28
3.81035e-40
1.84618e-38
8.41588e-37
3.51732e-35
1.33464e-33
4.54371e-32
1.36774e-30
3.57408e-29
7.92193e-28
1.44664e-26
1.18145e-38
5.78051e-37
2.66143e-35
1.12389e-33
4.31054e-32
1.48393e-30
4.51832e-29
1.19417e-27
2.67288e-26
4.90677e-25
3.22629e-37
1.59306e-35
7.40316e-34
3.15634e-32
1.22255e-30
4.25126e-29
1.30758e-27
3.4892e-26
7.8687e-25
1.44772e-23
7.62061e-36
3.79275e-34
1.77651e-32
7.63409e-31
2.98003e-29
1.04406e-27
3.23324e-26
8.67425e-25
1.96125e-23
3.59695e-22
1.52325e-34
7.62732e-33
3.59311e-31
1.55207e-29
6.08483e-28
2.13794e-26
6.62457e-25
1.77252e-23
3.98092e-22
7.20688e-21
2.50971e-33
1.26164e-31
5.96236e-30
2.58051e-28
1.01157e-26
3.54186e-25
1.08793e-23
2.86517e-22
6.285e-21
1.10251e-19
9.14957e-45
4.30582e-43
1.90438e-41
7.70958e-40
2.82905e-38
9.29954e-37
2.69947e-35
6.80174e-34
1.45756e-32
2.59443e-31
3.398e-43
1.61274e-41
7.19491e-40
2.93897e-38
1.08844e-36
3.61142e-35
1.05807e-33
2.68945e-32
5.80662e-31
1.03851e-29
1.16832e-41
5.59303e-40
2.51663e-38
1.037e-36
3.87468e-35
1.29718e-33
3.83467e-32
9.83064e-31
2.13764e-29
3.83819e-28
3.58983e-40
1.73315e-38
7.8643e-37
3.26843e-35
1.23176e-33
4.15928e-32
1.23991e-30
3.20341e-29
7.00784e-28
1.26092e-26
9.71518e-39
4.72746e-37
2.16184e-35
9.05488e-34
3.43875e-32
1.16971e-30
3.51088e-29
9.12249e-28
2.00218e-26
3.59688e-25
2.27492e-37
1.11448e-35
5.12944e-34
2.16177e-32
8.25654e-31
2.82232e-29
8.50158e-28
2.21244e-26
4.84584e-25
8.63521e-24
4.51045e-36
2.22088e-34
1.02672e-32
4.343e-31
1.66292e-29
5.68876e-28
1.71042e-26
4.42527e-25
9.58347e-24
1.6761e-22
7.37451e-35
3.64212e-33
1.68722e-31
7.14183e-30
2.73073e-28
9.29852e-27
2.7693e-25
7.0476e-24
1.48794e-22
2.51534e-21
1.87163e-17
4.15558e-18
5.58978e-19
7.16709e-20
3.29114e-18
1.72122e-16
6.60876e-15
1.86066e-11
2.03472e-08
2.12236e-23
1.43315e-21
9.08925e-20
5.31263e-18
2.96584e-16
1.25994e-13
1.88027e-07
0.000326949
0.0104732
2.09999e-22
1.56115e-20
1.14521e-18
7.01997e-17
1.44081e-15
1.85089e-13
1.59293e-08
0.0252521
1.4579e-21
9.92356e-20
5.64655e-18
2.53222e-16
4.93737e-15
2.88175e-12
6.66739e-06
0.0387362
4.48083e-21
2.89168e-19
1.69612e-17
1.00087e-15
3.07979e-12
8.00062e-06
0.00542802
5.5725e-21
3.28614e-19
5.21027e-24
3.34545e-22
1.9761e-20
1.00025e-18
4.04906e-17
7.57597e-15
3.6389e-09
6.56205e-05
0.00225818
4.74319e-23
3.01991e-21
1.85382e-19
1.17017e-17
5.96831e-16
1.30098e-14
2.46261e-10
0.00454218
3.16668e-22
2.23048e-20
1.45891e-18
7.48119e-17
1.49946e-15
1.79553e-13
1.93607e-07
0.00664051
1.08589e-21
7.21234e-20
4.24102e-18
1.91349e-16
2.26053e-14
2.46992e-09
9.55404e-05
0.00327953
1.44431e-21
8.2952e-20
5.30588e-25
3.13896e-23
1.765e-21
9.0993e-20
4.26171e-18
1.83605e-16
4.01558e-16
1.10051e-08
5.92957e-10
4.93672e-24
2.85067e-22
1.58115e-20
8.08054e-19
3.46349e-17
4.28442e-16
5.36233e-14
9.85209e-07
3.1828e-23
1.84589e-21
1.02352e-19
4.97649e-18
1.99145e-16
4.05227e-15
9.49982e-12
0.000271669
1.22478e-22
7.09443e-21
3.84814e-19
1.85986e-17
8.48877e-16
1.83535e-13
4.91725e-08
0.000717891
2.02164e-22
1.10589e-20
6.19822e-26
3.42066e-24
1.80231e-22
8.83575e-21
3.99927e-19
1.7739e-17
3.77488e-16
3.8215e-10
2.3625e-11
6.11627e-25
3.3553e-23
1.77114e-21
8.78129e-20
3.90595e-18
1.37143e-16
1.48038e-15
7.93844e-08
3.40468e-06
4.15079e-24
2.25594e-22
1.16683e-20
5.44112e-19
2.24577e-17
8.77273e-16
1.71995e-14
1.22049e-06
1.63218e-23
8.65835e-22
4.32533e-20
2.06449e-18
1.07591e-16
1.23334e-14
2.65469e-09
0.00010859
2.85233e-23
1.47918e-21
6.2889e-27
3.39007e-25
1.73313e-23
8.18891e-22
3.53104e-20
1.4006e-18
5.37836e-17
7.76412e-16
1.48625e-12
6.37206e-26
3.44785e-24
1.77522e-22
8.46536e-21
3.652e-19
1.36567e-17
4.24586e-16
3.8421e-14
3.89307e-12
4.37611e-25
2.35967e-23
1.21127e-21
5.76952e-20
2.62849e-18
1.24377e-16
2.57593e-15
2.05665e-13
1.70926e-24
9.07916e-23
4.6217e-21
2.25749e-19
1.06717e-17
4.39097e-16
8.97863e-15
3.0602e-11
2.86368e-24
1.48892e-22
7.43963e-21
3.58018e-19
1.6622e-17
6.67323e-16
1.47861e-13
4.00988e-11
4.54767e-28
2.4199e-26
1.21737e-24
5.64441e-23
2.38007e-21
9.02511e-20
3.10415e-18
9.42292e-17
2.02431e-15
2.4814e-12
4.6283e-27
2.47673e-25
1.25608e-23
5.87945e-22
2.49966e-20
9.42573e-19
3.08425e-17
8.79301e-16
2.13692e-13
4.09279e-12
3.19017e-26
1.7097e-24
8.70635e-23
4.11993e-21
1.82794e-19
7.71753e-18
2.81989e-16
3.28518e-15
1.24294e-25
6.58448e-24
3.33702e-22
1.60606e-20
7.37659e-19
3.08064e-17
1.00008e-15
3.09264e-14
2.04802e-25
1.06189e-23
5.27259e-22
2.48793e-20
1.11393e-18
4.4536e-17
1.36987e-15
1.77616e-12
2.40011e-29
1.25668e-27
6.20608e-26
2.81762e-24
1.16091e-22
4.27062e-21
1.38441e-19
3.94207e-18
9.20051e-17
8.66126e-15
2.43114e-28
1.27915e-26
6.35651e-25
2.90459e-23
1.20301e-21
4.424e-20
1.40444e-18
3.71348e-17
8.22316e-16
8.03227e-14
1.67089e-27
8.8142e-26
4.39685e-24
2.02087e-22
8.53789e-21
3.34163e-19
1.18393e-17
3.23728e-16
6.52299e-27
3.40719e-25
1.68946e-23
7.82615e-22
3.39753e-20
1.3605e-18
4.64413e-17
1.15035e-15
1.07723e-26
5.53009e-25
2.69773e-23
1.23158e-21
5.26235e-20
2.0502e-18
6.66793e-17
1.59372e-15
9.83722e-31
5.05487e-29
2.44454e-27
1.08379e-25
4.35034e-24
1.55487e-22
4.84566e-21
1.28996e-19
2.86611e-18
4.81948e-17
9.88316e-30
5.09647e-28
2.47482e-26
1.1011e-24
4.42609e-23
1.57687e-21
4.84457e-20
1.23453e-18
2.4662e-17
3.49258e-16
6.74468e-29
3.48688e-27
1.69854e-25
7.57321e-24
3.0553e-22
1.10799e-20
3.58598e-19
9.81537e-18
2.64064e-28
1.3539e-26
6.5489e-25
2.91967e-23
1.19466e-21
4.45224e-20
1.45781e-18
3.79474e-17
4.38853e-28
2.22061e-26
1.06102e-24
4.68274e-23
1.9012e-21
7.01391e-20
2.24752e-18
5.6546e-17
3.29737e-32
1.66152e-30
7.8645e-29
3.40368e-27
1.33031e-25
4.61949e-24
1.39483e-22
3.56472e-21
7.48453e-20
1.23951e-18
3.28205e-31
1.6573e-29
7.86204e-28
3.40706e-26
1.33015e-24
4.59215e-23
1.3675e-21
3.39571e-20
6.72778e-19
1.01904e-17
2.21943e-30
1.12282e-28
5.33998e-27
2.31693e-25
9.03236e-24
3.1111e-22
9.31157e-21
2.35323e-19
8.70359e-30
4.37414e-28
2.06661e-26
8.93e-25
3.49102e-23
1.21966e-21
3.72636e-20
9.42913e-19
1.454e-29
7.2349e-28
3.38645e-26
1.45206e-24
5.64873e-23
1.96791e-21
5.97867e-20
1.49068e-18
9.61147e-34
4.75317e-32
2.2026e-30
9.31075e-29
3.54537e-27
1.19684e-25
3.50847e-24
8.69765e-23
1.76761e-21
2.85852e-20
9.48239e-33
4.69002e-31
2.17451e-29
9.18739e-28
3.48863e-26
1.16947e-24
3.38152e-23
8.18976e-22
1.6061e-20
2.48608e-19
6.39472e-32
3.14293e-30
1.45943e-28
6.17131e-27
2.33926e-25
7.79363e-24
2.23007e-22
5.32964e-21
2.48597e-31
1.22575e-29
5.66113e-28
2.38232e-26
9.0061e-25
3.00725e-23
8.67564e-22
2.08513e-20
4.17221e-31
2.03832e-29
9.34692e-28
3.90902e-26
1.47139e-24
4.90358e-23
1.41297e-21
3.37805e-20
2.34921e-05
0.000397769
7.61838e-09
8.39095e-10
2.64443e-05
3.37549e-10
7.12243e-06
7.08514e-08
3.44679e-05
5.58923e-07
8.42024e-05
2.45492e-15
4.22011e-11
2.44469e-14
6.25718e-09
9.13662e-13
4.66255e-08
2.00815e-16
3.12112e-15
6.52562e-16
3.2522e-14
9.58322e-16
6.38187e-14
4.68568e-18
7.48927e-17
1.775e-17
2.239e-16
2.74935e-17
3.36594e-16
1.01865e-19
1.48146e-18
3.91382e-19
5.35182e-18
6.25131e-19
8.35636e-18
0.000628967
0.0145892
0.100309
0.036023
0.00292538
0.00968677
0.00129888
0.0044397
0.00296708
6.25721e-05
0.000398564
0.000413165
0.00638681
1.25473e-05
0.000647157
0.00632324
2.9951e-06
0.000184462
1.12391e-05
0.000629168
0.00380024
0.000322703
0.000796206
0.0120523
0.00352929
0.00354927
0.000331319
0.00422901
0.0120955
0.00461695
0.000891829
0.000437238
0.0066144
0.0560906
0.00292967
0.0186176
0.000318758
0.00417603
0.011514
0.0088765
0.00424377
0.00282349
0.000172281
0.00984981
0.000246345
0.00524105
0.00175311
9.80103e-05
0.00232521
0.000762778
0.000417456
2.22989e-08
9.52295e-06
1.22411e-06
5.19329e-05
0.00245915
0.000104569
0.00708371
0.000525135
0.00326861
0.000582024
0.00210367
2.15147e-05
0.000114425
0.00134971
0.00088594
0.00449944
0.00246309
0.00020795
0.000354428
2.0366e-05
0.0903565
0.0775287
0.0698711
0.050756
0.0464897
0.0346277
0.0377267
0.00219036
0.000710525
1.55223e-05
0.00220583
0.000732034
1.52971e-06
0.00012616
0.000207175
0.000186465
8.48975e-06
0.00141326
0.00828602
0.000224035
0.000713781
0.00216306
0.000708543
1.27736e-06
0.00011958
0.000139993
5.69647e-05
2.30992e-07
0.0496792
0.0337358
0.0303764
0.0296367
0.0267825
0.0155553
0.0169433
0.000375492
0.00733202
0.00564848
0.00583985
8.23671e-05
0.000231472
0.00761782
0.065524
0.0279493
0.0507537
0.0202
0.0350019
0.0261583
0.0151358
0.00601299
0.00277907
0.0061524
0.00302398
0.00283987
0.00132437
0.00129801
0.00629031
0.00311443
0.00307729
0.00292723
0.0028921
0.00134269
0.00135285
0.0261125
0.0120508
0.026093
0.0157145
0.015733
0.00717575
0.00717269
0.0262112
0.012071
0.0261604
0.0158919
0.0158089
0.00720183
0.00723243
0.0351531
0.0563744
0.0509361
0.0243928
0.017684
0.016351
0.0264925
7.69383e-05
0.000222074
0.00752177
0.000109121
0.00501106
3.15962e-05
0.00381937
0.00596305
0.00307198
0.00287289
0.00288619
0.00269224
0.00132465
0.00121767
0.0349095
0.0124314
0.0221762
0.0111185
0.019685
0.0118054
0.00693852
0.0251235
0.0119849
0.0260069
0.015783
0.0152247
0.00717034
0.00688059
0.000533626
0.00282135
0.00229384
2.54578e-05
0.00142249
9.71204e-06
0.00112778
0.00692575
0.00303422
0.00423799
0.00681351
0.00298314
0.0044527
0.00197836
0.000211909
3.83338e-05
0.000472848
0.000332837
4.26068e-07
6.63969e-05
1.04948e-05
0.0259381
0.0206593
0.0372208
0.0185171
0.0073126
0.0124913
0.010767
0.00509841
0.00178966
0.00242803
0.00164458
0.00226038
0.00100172
0.000712201
0.0104598
0.0231013
0.0199584
0.0118295
0.0139015
0.00621945
0.00522028
0.00214891
0.000410318
0.000196251
1.95115e-05
0.000599617
6.83e-06
0.000477857
0.00975779
0.0192165
0.0176049
0.00866023
0.00489824
0.0046357
0.00928515
0.000149889
3.27361e-06
6.52184e-07
0.000108444
0.00283424
4.01725e-05
0.0021401
0.0230571
0.0156655
0.0144173
0.0112461
0.010454
0.00637435
0.00681187
0.00100116
6.69275e-05
0.00371764
1.04824e-06
0.000418929
1.75384e-05
0.00281816
0.0230521
0.00915243
0.0214775
0.0156203
0.00688265
0.00651038
0.0167307
0.0144671
0.0061923
0.0133203
0.0074544
0.003538
0.00335315
0.00798027
0.0162304
0.0125543
0.00540213
0.0093864
0.00702092
0.00408591
0.0030253
1.09975e-05
4.80448e-10
4.40726e-06
2.15696e-06
5.12529e-05
2.09882e-07
1.19765e-09
2.81755e-08
0.000258773
3.75844e-06
1.0889e-09
2.43398e-06
9.37336e-05
5.70121e-06
8.06666e-05
1.96606e-07
9.02523e-06
1.08295e-06
4.45293e-06
6.51224e-11
4.73077e-10
1.2226e-05
6.08073e-10
5.05172e-06
8.64056e-05
1.23363e-05
5.29248e-06
6.02561e-10
0.00356153
0.00573529
0.00514804
0.00250329
0.00224375
0.00331033
0.00146276
0.00579792
0.0034933
0.00609825
0.00180729
0.0034577
0.00328166
0.00168802
7.52694e-06
8.43285e-05
3.9109e-05
4.86432e-06
3.51266e-05
1.66373e-09
8.38067e-08
3.90695e-05
4.1674e-09
7.48486e-06
8.04526e-07
5.968e-06
1.21548e-11
2.09783e-07
1.01539e-10
3.81853e-07
2.06488e-06
8.73334e-05
3.65194e-05
1.16004e-06
4.80096e-06
0.00139673
0.000640132
0.0014208
0.000572651
0.000221987
0.000560942
0.000227181
0.0100267
0.00727092
0.016711
0.0121696
0.0031273
0.00516095
0.00728968
0.000645749
0.00144964
0.00143886
0.000578112
0.000227547
0.000579021
0.000228739
0.00614628
0.00351009
0.00613463
0.00347965
0.00182258
0.00347316
0.00183233
0.00617288
0.00354198
0.00616049
0.00349087
0.00184087
0.00183838
0.00350105
0.00760746
0.00780209
0.0133162
0.00676164
0.00230614
0.00370519
0.00410571
0.00484307
0.0059758
0.0101446
0.00582549
0.00165103
0.00267536
0.00353312
0.0172259
0.00636177
0.0109287
0.00475052
0.00804906
0.00495435
0.00295006
0.00143431
0.00114756
0.00103332
0.000661964
0.000580721
0.000436157
0.000237226
0.00173265
1.40732e-05
7.77476e-05
0.000100754
0.00176257
1.23486e-07
2.79903e-05
0.00855938
0.00416066
0.00857756
0.00389137
0.00184477
0.00388453
0.00185367
0.00931364
0.0028367
0.00398007
0.00341006
0.00500206
0.00214231
0.0014545
0.00161656
1.0013e-07
2.55823e-05
8.99126e-06
0.00108265
1.78357e-08
4.62642e-05
0.0107535
0.00749952
0.00461146
0.00277397
0.00704564
0.00436755
0.0114857
0.00142172
0.000570774
0.00131287
0.000217343
0.000561092
0.000505237
0.00019105
0.00870513
0.00419727
0.0086409
0.00391271
0.00187392
0.00186568
0.00393388
0.00863019
0.00395382
0.00826458
0.00184276
0.00389087
0.00370421
0.00172899
0.000134779
2.80774e-05
0.00017662
7.29043e-06
2.97496e-05
5.7682e-06
7.90345e-09
5.50993e-07
0.000111645
2.4324e-06
0.000116132
1.10597e-07
1.27866e-06
5.75634e-11
0.00114884
0.00040935
0.0011753
0.000494609
0.000144692
0.000482973
0.000148915
0.000413452
0.0011999
0.00119168
0.000499672
0.000149196
0.000150151
0.000500125
0.00224648
0.0028434
0.00515803
0.00290904
0.00114066
0.00237787
0.00145434
0.00927019
0.00492183
0.00861352
0.00370319
0.00215251
0.00204395
0.0039274
0.00190389
0.000619738
0.000905653
0.000605825
0.00132426
0.000875822
0.000390351
5.05946e-06
0.000118871
0.000757449
3.45467e-06
0.000152594
1.29507e-08
6.4284e-06
8.88616e-05
9.99486e-05
2.72514e-06
2.24185e-06
0.000145503
5.88087e-09
5.95296e-06
8.79173e-08
1.69059e-07
4.25357e-05
1.05784e-06
4.45977e-11
1.24702e-08
5.6142e-12
0.001173
0.000353428
0.00107301
0.000141636
0.000483084
0.000431952
0.000122753
0.00839392
0.00329469
0.00218652
0.00207493
0.00551246
0.00345429
0.00502216
0.0034873
0.00618678
0.00743592
0.00329939
0.00119589
0.0027091
0.00150406
0.00199957
0.00120139
0.00267361
0.00148174
0.00267524
0.00120205
0.000667635
0.00430513
0.00110499
0.00191212
0.00139264
0.0026048
0.00116983
0.000625942
0.00295095
0.00588389
0.00623244
0.00305464
0.00291843
0.00134674
0.00139666
0.00518961
0.00276094
0.00264207
0.00248659
0.00238145
0.00116615
0.00120795
0.00372045
0.00101063
0.00164872
0.00114206
0.00200435
0.000892756
0.000507963
1.46823e-06
2.46531e-05
1.98579e-06
2.84642e-05
9.3635e-05
1.68329e-06
1.11272e-05
0.000461796
0.000786676
0.00108969
0.000403804
9.80833e-05
0.000277432
0.000147936
0.00401104
0.00216406
0.000859242
0.00181798
0.00207295
0.0017407
0.00423574
0.000788978
0.000181807
0.000356662
0.000150631
0.000303987
0.000118839
5.56546e-05
0.00164328
0.00114891
0.00241326
0.000824564
0.00180817
0.001304
0.000563813
0.00697943
0.00741015
0.00705402
0.00262263
0.00270944
0.0027452
0.00258729
0.00724012
0.00752906
0.00716246
0.00266266
0.00281758
0.0026861
0.00278933
6.10151e-05
2.12276e-06
0.000565679
1.46247e-09
1.91392e-05
2.6471e-07
0.000228349
1.37596e-07
1.62437e-06
1.23949e-10
1.42762e-05
0.000260855
8.39603e-08
3.23858e-05
0.00194703
0.00297425
0.0022246
0.00127956
0.00138474
0.000943506
0.000581117
0.000174601
4.59619e-06
0.000769595
1.61694e-10
3.63516e-06
6.86097e-09
2.8843e-05
9.21115e-06
1.44303e-09
7.42744e-08
5.85594e-13
1.32566e-07
1.563e-06
2.20067e-11
0.000276571
0.000611421
0.000874247
0.000341307
5.85056e-05
9.25516e-05
0.000230561
0.00465883
0.00166289
0.00439329
0.00259659
0.000984208
0.000932442
0.00274336
0.00393297
0.00385574
0.00663511
0.00290784
0.000977437
0.00161966
0.00174534
0.00476724
0.00145951
0.00344368
0.000871737
0.00205771
0.00146513
0.000589346
0.00216792
0.00131994
0.00134131
0.00099575
0.00100683
0.000524665
0.00051509
0.00220149
0.00135161
0.00135001
0.00100971
0.00101079
0.000527222
0.000524901
0.00284762
0.000616154
0.00125201
0.00080275
0.00171714
0.000758627
0.000345737
0.00156277
0.000487133
0.00109571
0.000427186
0.000975679
0.000635531
0.000271498
0.00714643
0.00709504
0.00674372
0.0027674
0.00263642
0.00245414
0.00257762
0.00469239
0.0029246
0.00145657
0.00150679
0.00237162
0.00110776
0.000709603
2.52166e-11
1.61406e-11
6.81965e-10
4.49733e-13
1.21058e-11
6.91016e-09
3.08343e-10
1.42434e-11
9.5204e-10
1.93182e-07
4.46382e-07
1.06804e-08
3.1231e-12
1.99017e-09
1.497e-08
3.40415e-18
3.753e-14
1.18054e-14
5.68799e-17
2.72946e-17
2.42983e-17
1.05898e-15
1.03509e-16
6.92418e-17
7.51522e-16
1.31867e-15
1.66081e-15
2.37182e-15
1.22054e-15
2.19565e-13
1.59758e-15
7.2013e-15
6.01939e-14
1.24803e-14
3.01558e-15
1.00254e-15
2.98592e-16
1.65626e-17
2.04346e-17
1.66443e-17
2.08281e-17
1.69275e-16
2.73916e-17
1.83114e-18
8.26811e-19
1.15658e-18
7.18694e-19
1.32414e-18
1.20953e-18
3.26474e-20
8.15996e-22
1.06766e-19
3.10956e-21
8.0675e-23
1.77641e-14
7.2828e-13
6.05951e-14
2.10605e-12
1.29161e-12
3.5349e-11
7.62272e-14
5.37145e-11
1.58276e-08
8.49251e-10
1.2152e-09
8.0234e-17
4.49293e-15
2.4436e-15
3.74336e-14
3.43023e-16
1.19505e-16
1.01089e-15
1.99815e-14
2.8651e-14
8.34188e-13
3.51294e-16
6.69171e-15
5.44552e-17
2.7571e-18
8.77867e-11
3.08175e-14
2.08984e-16
1.89674e-15
2.68953e-15
1.73168e-14
6.20359e-16
7.94884e-14
2.78756e-14
7.7421e-13
2.97494e-15
1.41166e-15
1.38945e-15
2.4839e-16
1.45394e-16
2.97955e-15
2.50519e-17
1.19626e-16
5.87409e-17
2.14379e-17
2.843e-17
7.08523e-16
4.59688e-17
1.83356e-17
9.2943e-16
1.23324e-18
1.05985e-17
3.61165e-17
3.42571e-18
1.29607e-16
3.0534e-17
5.12512e-18
4.67392e-17
6.56708e-18
3.48588e-16
4.29822e-14
1.26603e-15
3.06339e-15
8.72655e-16
1.18059e-16
8.97362e-17
4.95302e-17
2.29202e-18
7.45884e-18
2.19585e-18
5.17861e-18
4.55378e-17
8.13286e-16
2.42366e-17
6.84982e-19
1.71759e-20
4.5379e-13
3.79508e-16
2.20564e-18
1.15128e-17
6.64772e-20
2.94327e-19
1.72096e-21
2.48488e-10
1.44515e-12
2.1625e-14
1.50502e-11
1.95261e-15
4.41323e-14
1.34415e-21
6.29243e-20
1.07509e-22
2.09604e-22
1.58199e-22
2.91727e-21
1.0156e-20
1.51091e-21
6.61245e-21
2.91576e-18
1.33081e-16
1.42293e-19
4.54056e-19
7.10572e-20
3.13631e-19
5.63216e-18
3.46366e-18
2.01906e-17
2.03264e-17
2.49216e-16
2.27243e-16
6.13536e-25
2.90952e-23
5.85761e-25
1.82795e-23
1.39431e-27
1.7051e-28
3.19851e-28
5.18591e-29
3.10614e-24
1.51384e-25
4.93633e-25
1.04939e-22
2.57935e-26
3.40981e-25
8.90735e-24
8.58508e-23
2.48651e-23
2.14663e-23
1.25659e-23
4.99528e-28
1.82751e-28
6.54235e-28
2.55892e-29
7.78152e-28
3.39253e-29
3.69065e-28
1.66668e-28
2.39857e-28
1.2226e-29
4.38427e-29
1.88566e-28
2.03488e-28
1.03531e-29
1.37167e-23
3.61806e-24
4.45792e-24
1.07216e-22
3.78566e-22
7.92921e-22
1.36563e-22
1.81191e-24
2.66777e-24
8.05034e-25
1.40518e-25
2.27948e-25
6.62063e-26
2.77393e-25
1.65278e-22
4.58762e-23
1.41662e-22
1.18936e-28
4.71499e-29
1.44744e-29
6.02597e-28
3.53826e-28
6.92236e-29
2.08822e-28
1.24885e-28
2.44129e-29
5.80438e-29
3.58274e-30
2.5661e-29
6.26444e-29
1.14631e-28
2.24622e-29
6.19348e-29
3.78733e-30
1.28141e-30
1.19348e-29
2.26786e-29
4.12538e-29
1.56775e-30
7.31242e-30
2.20148e-29
4.11999e-31
3.63549e-30
6.65513e-30
1.24358e-29
4.92299e-31
2.94232e-30
6.26714e-30
2.55103e-30
7.49009e-29
1.7185e-29
3.66391e-29
1.96074e-29
3.77647e-29
2.30797e-30
8.51206e-31
2.71928e-29
4.74641e-30
1.33311e-29
4.58664e-30
1.37893e-29
7.98447e-31
1.87472e-26
5.1668e-25
4.66793e-25
4.58374e-25
5.06168e-26
2.62589e-26
3.20938e-26
3.88263e-26
4.46878e-20
5.59515e-21
5.94136e-20
4.25647e-20
3.21805e-20
4.07496e-20
3.1017e-19
9.36977e-21
2.64465e-21
9.86358e-21
8.40786e-22
4.08541e-21
1.80463e-19
1.20533e-21
8.25388e-22
1.02717e-21
6.09716e-21
1.80134e-20
5.09159e-26
5.40214e-24
7.33344e-25
1.30959e-24
5.7001e-24
2.92322e-25
6.11148e-26
1.55047e-18
1.98052e-19
2.33621e-18
1.52063e-18
2.22992e-18
1.4888e-18
1.21995e-17
2.4516e-19
7.79903e-20
2.03761e-19
8.58521e-18
8.91371e-19
6.94288e-21
9.26578e-17
4.45646e-17
2.98153e-16
1.60759e-16
1.5463e-16
8.71437e-17
2.02215e-17
7.52323e-17
3.38673e-17
1.86208e-18
8.05499e-18
3.60161e-17
8.9617e-17
7.4648e-18
3.53158e-17
1.97247e-18
1.0947e-18
5.0146e-17
3.30591e-18
1.77279e-17
4.61752e-18
1.89032e-17
8.68289e-19
2.60345e-19
1.45985e-18
7.31267e-18
1.69405e-17
3.5259e-19
1.0049e-18
6.66752e-18
8.1936e-18
7.47087e-17
1.60167e-18
3.20685e-17
3.83106e-20
1.55669e-18
9.57047e-22
1.3196e-19
4.94063e-23
5.60644e-20
2.73611e-20
9.0542e-19
4.50094e-19
2.06748e-19
4.19811e-19
1.10355e-19
3.68364e-19
1.10935e-17
4.28309e-18
9.17648e-18
9.37177e-21
1.46491e-21
1.56113e-19
2.27007e-20
2.29812e-18
3.4242e-20
8.02719e-20
6.61177e-21
5.59168e-20
2.60277e-18
2.5615e-19
1.05221e-17
1.80278e-18
7.84424e-18
2.77114e-22
5.80507e-23
3.91817e-21
4.11391e-19
5.82616e-22
1.06972e-21
6.39601e-21
2.86602e-22
4.43597e-21
1.41262e-18
1.48658e-19
8.10454e-19
6.36979e-21
1.04778e-19
2.79003e-19
9.81869e-24
3.49105e-24
9.64951e-23
2.72872e-23
4.3363e-23
5.01422e-22
2.21358e-23
3.54488e-22
1.12193e-20
3.82968e-20
2.81505e-22
8.9058e-21
2.15007e-20
4.72343e-21
9.45249e-20
3.53547e-22
1.55476e-24
4.32446e-21
1.86509e-22
8.02716e-24
2.66746e-21
9.71992e-22
4.26461e-21
2.11796e-20
5.43826e-20
4.02278e-21
2.08852e-20
1.01829e-21
5.69496e-22
3.00806e-20
1.92879e-21
1.08553e-20
2.38241e-21
1.1376e-20
4.83402e-22
1.81502e-19
4.63874e-20
2.38783e-18
8.91575e-19
4.41246e-20
2.31433e-18
1.93162e-19
1.07355e-19
4.74426e-19
2.11343e-20
1.1427e-18
2.54383e-20
1.26782e-18
8.46771e-20
1.26583e-22
7.34511e-22
3.38933e-21
7.73586e-21
1.74001e-22
5.04078e-22
3.05102e-21
3.51357e-23
1.7767e-21
8.94491e-23
6.02588e-22
1.37469e-22
6.88946e-22
2.50182e-23
2.28914e-20
7.936e-21
4.31887e-19
1.41188e-19
3.33177e-20
5.80858e-21
3.59745e-19
5.77082e-21
2.69004e-20
8.66668e-22
3.55618e-20
1.41023e-21
7.35707e-20
2.03457e-21