/*--------------------------------*- C++ -*----------------------------------*\
  =========                 |
  \\      /  F ield         | OpenFOAM: The Open Source CFD Toolbox
   \\    /   O peration     | Website:  https://openfoam.org
    \\  /    A nd           | Version:  9
     \\/     M anipulation  |
\*---------------------------------------------------------------------------*/
FoamFile
{
    format      ascii;
    class       volScalarField;
    location    "0.0022";
    object      overpressure;
}
// * * * * * * * * * * * * * * * * * * * * * * * * * * * * * * * * * * * * * //

dimensions      [1 -1 -2 0 0 0 0];

internalField   nonuniform List<scalar> 
18309
(
0
2.47383e-10
9.74978e-09
2.69923e-07
7.09348e-06
0.000168793
0.0033109
0
0
5.67525e-10
1.71713e-08
4.33036e-07
1.02017e-05
0.00020847
0
0
0
8.14907e-10
2.13913e-08
4.8356e-07
9.84402e-06
0
0
0
0
8.44011e-10
1.9907e-08
3.91403e-07
0
0
0
0
0
6.40284e-10
1.35624e-08
0.00338836
0.000165495
6.59889e-06
2.21669e-07
0.0547574
43033.2
0.0303463
0.00200435
8.53521e-05
2.88796e-06
282287
5.59523
0.080177
0.000733237
2.64912e-05
0.00284278
9.7023
254605
409796
0.000635654
0.329869
11.1009
402947
291435
0.00015601
0.00451054
98.7757
6853.19
469287
0
0
0
0
0
0
5.82077e-11
2.96859e-09
4.88799e-08
5.97051e-07
0
0
0
0
0
1.45519e-10
4.80213e-09
1.00554e-07
1.66277e-06
1.98845e-05
0
0
0
0
1.16415e-10
5.76256e-09
1.4386e-07
3.00881e-06
4.83846e-05
0.000537556
0
0
0
1.16415e-10
5.326e-09
1.52068e-07
3.80004e-06
7.83463e-05
0.00119767
0.00661939
0
0
4.36557e-11
3.8126e-09
1.195e-07
3.41843e-06
8.41745e-05
0.00185179
0.00647118
1.02038
0
0
1.9354e-09
6.88597e-08
2.17756e-06
6.04536e-05
0.0015067
0.00677683
0.551033
90033.6
0
7.71252e-10
2.84053e-08
9.72344e-07
2.98819e-05
0.000758588
0.00464973
0.572002
413743
406402
1.60071e-10
8.3819e-09
2.97907e-07
1.00295e-05
0.000283438
0.0471642
5018.49
454339
249434
0
0
0
0
0
0
0
8.29459e-10
1.37079e-08
1.64931e-07
0
0
0
0
0
0
1.32422e-09
2.79688e-08
4.54645e-07
5.59895e-06
0
0
0
0
0
1.62981e-09
3.98286e-08
8.35294e-07
1.38386e-05
0.000185123
0
0
0
0
1.49885e-09
4.23315e-08
1.07034e-06
2.319e-05
0.000361526
0.00315766
0
0
0
1.03319e-09
3.36004e-08
9.73378e-07
2.57606e-05
0.000517254
0.00260288
0.395636
0
0
5.67525e-10
1.96014e-08
6.21745e-07
1.90139e-05
0.000487642
0.00333374
0.122201
32323.1
0
1.89175e-10
8.10542e-09
2.69734e-07
8.84043e-06
0.000271449
0.00272094
0.0906169
478420
446578
0
2.50293e-09
8.3528e-08
2.66041e-06
9.44894e-05
0.00722531
290.088
447144
311172
176100
0
0
0
0
0
0
0
4.36557e-11
1.74623e-09
2.17988e-08
0
0
0
0
0
0
1.16415e-10
3.56522e-09
5.86879e-08
7.15634e-07
0
0
0
0
0
1.60071e-10
5.09317e-09
1.05167e-07
1.7432e-06
2.11501e-05
0
0
0
0
1.45519e-10
5.57338e-09
1.34634e-07
2.84844e-06
4.66564e-05
0.000538392
0
0
0
1.01863e-10
4.48199e-09
1.2535e-07
3.17548e-06
6.77976e-05
0.00108596
0.035145
0
0
0
2.67755e-09
8.44448e-08
2.44091e-06
6.28531e-05
0.00141414
0.00568693
59.1976
0
0
1.1205e-09
3.99305e-08
1.25688e-06
3.6386e-05
0.000893023
0.00523023
0.492715
307853
0
3.34694e-10
1.30676e-08
4.27142e-07
1.34525e-05
0.000372238
0.00305627
0.236486
231020
472885
0
0
0
0
0
0
0
0
1.45519e-10
2.56114e-09
0
0
0
0
0
0
0
3.34694e-10
6.37374e-09
8.18545e-08
0
0
0
0
0
0
4.94765e-10
1.0783e-08
1.79381e-07
2.31019e-06
0
0
0
0
0
5.23869e-10
1.34896e-08
2.73911e-07
4.61681e-06
5.91328e-05
0
0
0
0
4.36557e-10
1.25729e-08
2.98038e-07
6.20837e-06
0.000104108
0.00126881
0
0
0
2.61934e-10
8.7166e-09
2.33384e-07
5.67675e-06
0.000118412
0.00212921
0.0496398
0
0
8.73115e-11
4.38013e-09
1.29134e-07
3.50164e-06
8.4476e-05
0.00176386
0.0087868
25.5286
0
0
1.57161e-09
4.94765e-08
1.43862e-06
3.89529e-05
0.000900389
0.00516228
13.1377
120902
0
0
0
0
0
0
0
0
0
2.03727e-10
0
0
0
0
0
0
0
0
5.82077e-10
8.64384e-09
0
0
0
0
0
0
0
1.00408e-09
1.76515e-08
2.41052e-07
0
0
0
0
0
0
1.23691e-09
2.57569e-08
4.46991e-07
6.33139e-06
0
0
0
0
0
1.13505e-09
2.75031e-08
5.73171e-07
1.03706e-05
0.000151636
0
0
0
0
8.14907e-10
2.17697e-08
5.19081e-07
1.12453e-05
0.000207239
0.00294746
0
0
0
3.7835e-10
1.25729e-08
3.30663e-07
8.11313e-06
0.000177331
0.0030753
0.0889674
0
0
1.01863e-10
5.20959e-09
1.45097e-07
3.83302e-06
9.43914e-05
0.00193518
0.718118
22925.8
0
0
0
0
0
0
0
0
0
0
0
0
0
0
0
0
0
0
0
6.40284e-10
0
0
0
0
0
0
0
0
1.25146e-09
1.77824e-08
0
0
0
0
0
0
0
1.83354e-09
3.17814e-08
4.4849e-07
0
0
0
0
0
0
1.92085e-09
3.99596e-08
7.09668e-07
1.04881e-05
0
0
0
0
0
1.49885e-09
3.64525e-08
7.64761e-07
1.41935e-05
0.000215379
0
0
0
0
9.16771e-10
2.39961e-08
5.67801e-07
1.23858e-05
0.000232431
0.00337337
0
0
0
3.34694e-10
1.11759e-08
2.85465e-07
6.87836e-06
0.000150673
0.00261542
0.976034
0
0
0
0
0
0
0
0
0
0
0
0
0
0
0
0
0
0
0
0
0
0
0
0
0
0
0
0
0
9.8953e-10
0
0
0
0
0
0
0
1.45519e-11
1.73168e-09
2.43163e-08
0
0
0
0
0
0
4.36557e-11
2.13913e-09
3.76895e-08
5.36966e-07
0
0
0
0
0
0
1.9354e-09
4.06872e-08
7.17686e-07
1.06122e-05
0
0
0
0
0
1.29512e-09
3.07482e-08
6.34187e-07
1.1603e-05
0.000174409
0
0
0
0
6.1118e-10
1.61963e-08
3.68571e-07
7.72184e-06
0.000141836
0.00200296
0
0
0
0
0
0
0
0
0
0
0
0
0
0
0
0
0
0
0
0
0
0
0
0
0
0
0
0
0
0
0
0
0
0
0
0
0
0
0
1.09139e-09
0
0
0
0
0
0
0
1.45519e-11
1.62981e-09
2.34577e-08
0
0
0
0
0
0
0
1.74623e-09
3.11411e-08
4.3615e-07
0
0
0
0
0
0
1.36788e-09
2.78524e-08
4.78307e-07
6.86226e-06
0
0
0
0
0
7.13044e-10
1.67347e-08
3.28902e-07
5.70451e-06
8.07183e-05
0
0
0
0
0
0
0
0
0
0
0
0
0
0
0
0
0
0
0
0
0
0
0
0
0
0
0
0
0
0
0
0
0
0
0
0
0
0
0
0
0
0
0
0
0
0
0
0
0
8.87667e-10
0
0
0
0
0
0
0
0
1.13505e-09
1.61672e-08
0
0
0
0
0
0
0
1.00408e-09
1.77388e-08
2.42057e-07
0
0
0
0
0
0
6.1118e-10
1.26165e-08
2.05793e-07
2.75468e-06
0
0
0
0
0
0
0
0
0
0
0
0
0
0
0
0
0
0
0
0
0
0
0
0
0
0
0
0
0
0
0
0
0
0
0
0
0
0
0
0
0
0
0
0
0
0
0
0
0
0
0
0
0
0
0
0
0
0
0
4.80213e-10
0
0
0
0
0
0
0
0
5.23869e-10
7.63976e-09
0
0
0
0
0
0
0
3.63798e-10
6.63567e-09
8.48086e-08
9.10054e-05
2.86652e-05
5.8201e-06
9.56716e-07
2.58245e-05
0.000817045
0.0180882
12.64
2363.55
1.73168e-09
6.6022e-08
2.16778e-06
6.7357e-05
0.00209207
0.433436
30566.1
420621
227863
9.1386e-09
3.60335e-07
1.34296e-05
0.000425155
0.0050864
0.334369
2529.23
228333
3.63216e-08
1.29016e-06
3.76239e-05
0.000915334
0.0121695
2.31945
151220
217088
8.10833e-08
2.70241e-06
7.88924e-05
0.00234255
1.58616
125037
323049
1.01165e-07
3.16101e-06
4.94765e-10
2.01981e-08
6.50412e-07
1.83533e-05
0.000446898
0.0542351
1876.9
468781
261970
2.61934e-09
9.35834e-08
3.12224e-06
0.000111306
0.00306787
0.0561939
143.833
258818
1.0521e-08
3.98752e-07
1.35796e-05
0.000375246
0.00465597
0.323729
15768
244589
2.58442e-08
9.15898e-07
2.75184e-05
0.000660701
0.0531524
590.652
453639
249725
3.40515e-08
1.08185e-06
0
2.91038e-09
9.75706e-08
2.98637e-06
8.83892e-05
0.00272987
0.0058608
10559.2
1412.12
3.34694e-10
1.44355e-08
4.70129e-07
1.41952e-05
0.000358935
0.00389342
0.360834
205328
1.58616e-09
5.57629e-08
1.67907e-06
4.56888e-05
0.00115871
0.0250582
16.7736
466515
4.19095e-09
1.42463e-07
4.2251e-06
0.00011749
0.0033662
0.339428
5343.02
426152
6.24277e-09
2.04978e-07
0
3.34694e-10
1.33441e-08
3.97529e-07
1.14291e-05
0.000345217
0.00506533
691.277
93.5891
0
2.25555e-09
7.21775e-08
2.15654e-06
5.80901e-05
0.00128725
0.0127917
28922.4
232933
1.89175e-10
9.12405e-09
2.68221e-07
7.15515e-06
0.000176368
0.00446044
0.085392
140165
6.40284e-10
2.27883e-08
6.38451e-07
1.77201e-05
0.000549774
0.0329755
486.1
362291
1.04774e-09
3.491e-08
0
0
1.5134e-09
4.47471e-08
1.22817e-06
3.34765e-05
0.000928645
0.00956284
11.1453
0
2.03727e-10
9.32778e-09
2.67391e-07
7.03453e-06
0.00016806
0.00369021
0.255873
18.765
0
1.25146e-09
3.82424e-08
1.0715e-06
2.99892e-05
0.000897347
0.0116113
0.798862
0
3.30328e-09
1.00481e-07
2.90772e-06
8.13306e-05
0.00193701
0.0269324
26.0627
5.82077e-11
4.9622e-09
1.47906e-07
4.29737e-06
0.000119542
0.00280537
0.35066
34.179
0
0
4.36557e-11
3.60887e-09
9.7978e-08
2.48615e-06
6.14038e-05
0.00137152
0.0317899
16.882
0
0
7.567e-10
2.30066e-08
5.99786e-07
1.44157e-05
0.000321836
0.0073199
1.68394
19.0486
0
4.36557e-11
3.50701e-09
9.84874e-08
2.65146e-06
6.96888e-05
0.00161411
0.0143324
0
2.47383e-10
9.51695e-09
2.72106e-07
7.43558e-06
0.000184014
0.00369643
0.0842343
0
3.7835e-10
1.39844e-08
3.96292e-07
1.06334e-05
0.000254136
0.00501562
2.83107
0
0
0
1.74623e-10
5.95173e-09
1.41954e-07
3.19742e-06
6.76387e-05
0.00118878
0.0950539
0
0
0
1.33878e-09
3.686e-08
8.58796e-07
1.81473e-05
0.000348246
0.00620804
0.526916
0
0
1.45519e-10
6.15546e-09
1.60013e-07
3.91559e-06
8.99493e-05
0.00167131
0
0
5.38421e-10
1.73022e-08
4.51924e-07
1.10154e-05
0.000232682
0.00382604
0
0
8.58563e-10
2.56987e-08
6.62185e-07
1.57383e-05
0.000319069
0.0051933
0
0
0
0
2.32831e-10
6.69388e-09
1.44035e-07
2.77266e-06
4.68981e-05
0.000581164
0
0
0
0
1.81899e-09
4.1473e-08
8.42992e-07
1.50161e-05
0.000222706
0.00229557
0
0
0
2.47383e-10
7.88714e-09
1.79469e-07
3.80355e-06
7.17067e-05
0
0
0
8.44011e-10
2.20025e-08
5.07993e-07
1.05789e-05
0.000180565
0
0
0
1.26602e-09
3.27127e-08
7.50093e-07
1.52033e-05
0.000249005
0
0
0
0
0
1.89175e-10
5.70435e-09
1.05239e-07
1.65304e-06
2.03884e-05
0
0
0
0
0
1.65892e-09
3.41824e-08
5.88378e-07
8.35749e-06
8.82828e-05
0
0
0
0
2.47383e-10
7.29051e-09
1.45475e-07
2.54549e-06
0
0
0
0
8.58563e-10
2.03872e-08
4.06173e-07
6.89401e-06
0
0
0
0
1.35333e-09
3.06754e-08
6.03584e-07
9.98464e-06
0
0
0
0
0
0
1.16415e-10
3.52156e-09
5.32309e-08
6.32834e-07
0
0
0
0
0
0
1.1496e-09
2.0169e-08
2.8091e-07
3.02219e-06
0
0
0
0
0
2.03727e-10
4.99131e-09
8.27567e-08
0
0
0
0
0
6.69388e-10
1.37079e-08
2.24187e-07
0
0
0
0
0
1.03319e-09
2.07074e-08
3.34025e-07
286664
371183
3819.36
323.837
259780
341.225
247632
10713.6
268807
50985.1
283437
0.00981613
56.2743
0.0664266
1257.14
1.45663
5165.79
0.00102277
0.0131501
0.00208921
0.0753392
0.00286318
0.121787
3.59724e-05
0.000401986
8.69554e-05
0.000694771
0.000122838
0.000954849
1.11388e-06
1.0838e-05
2.8653e-06
2.50195e-05
4.19054e-06
3.5661e-05
225091
231931
192989
202328
335920
286522
381412
312881
192746
274975
370325
369163
200443
203854
225250
203741
115340
380368
192727
231238
225717
265734
383643
193861
235700
238636
455586
291908
195599
246936
340911
387865
258212
177782
280225
189156
458913
295827
203196
216768
236366
324351
472046
244907
436624
273584
363691
435481
297883
408098
314145
6446.84
323444
76179.4
371557
238651
286443
225725
346471
247071
414818
341371
432494
472449
230663
259429
221425
255080
341499
356674
508206
192880
199457
199969
218994
220410
228627
226981
283155
428077
288095
287105
426717
81522.5
469376
428167
356957
469873
298468
199432
367283
261002
293272
433777
69094.1
468097
420478
451950
21415.1
178750
192209
193914
201248
203073
219849
217379
415137
296674
311251
311707
334761
385391
297416
195833
210733
203484
232928
224739
233266
241986
200076
239349
198174
190594
236936
240181
242953
198290
192796
190580
239601
236965
240072
242804
183772
195369
184851
216068
214752
227563
229244
185229
193908
183801
216437
214817
227686
229606
218644
207445
208522
238332
247101
249632
236297
325837
380849
301178
342551
328022
256998
346767
209078
196374
202083
244369
252192
248503
257923
182075
206231
198103
216169
207541
225071
234799
191773
198619
187798
219241
223539
232895
237792
363087
274569
281425
448219
299227
403176
313044
197526
211974
188827
199518
214174
222479
239191
417618
418481
357964
437158
118055
488989
393452
223198
220586
212570
243329
265239
255084
252658
216164
221333
210024
279366
263337
271026
287406
209261
197023
203624
236176
229162
244278
252336
286011
395000
443461
428162
346551
364015
366785
230894
208894
211200
238969
256576
260706
235728
455679
225326
94662.6
434218
295063
405077
308346
230419
241252
243919
259739
262788
278324
274771
404087
315591
343658
48740
432194
213150
363637
250004
289724
252234
261537
298290
302322
259004
228045
261919
230744
249274
278702
283174
245809
211643
221116
236314
244688
254810
262197
274117
199387
199.603
165228
122811
276941
19860.5
449.107
4971.02
264559
147602
410.601
106924
280727
187003
281826
17993.8
183769
83964.3
161991
48.4494
189.22
207159
243.632
176344
284302
206115
180847
236.113
214256
218156
228868
234639
246257
248950
268027
220465
243118
215124
297694
255573
261606
305932
348028
489835
403136
329788
438129
1067.47
11631.6
360966
2119.45
355371
206310
335428
38.3628
70320.3
75.3154
32146.3
93807.6
278892
268585
88797.5
168148
197990
222414
195614
259900
277266
262286
276587
266946
297241
257337
267050
330607
311823
277490
222447
198103
195619
259750
276562
261922
276309
209328
237745
211108
249009
291162
250951
288856
211551
236057
209502
249241
292283
289275
251561
236559
225392
216128
244895
279029
267236
255605
268408
246411
236278
255448
304625
290660
266535
235478
259740
249499
280159
268851
285205
298506
256380
237568
301169
260150
328124
305243
323095
363043
289054
422703
456354
360845
12828.3
276784
249779
289480
248200
266014
324118
267868
321695
232072
262717
248591
281097
266817
288522
306380
377476
10480
263979
172020
402452
3071.91
427629
272598
282580
314310
342277
285965
319522
269677
202821
240626
210682
278132
266754
273920
280555
250262
289636
248341
266202
324585
321837
268399
253384
302339
258215
329898
272125
277800
338728
354649
489256
332504
465113
500669
488756
14619.4
29022
368275
93949.4
369065
8366.54
61514.3
33.2465
307547
369423
304673
307902
330509
309632
330979
368907
307398
304537
307495
328729
330259
308634
269853
258583
227531
269698
332277
279923
317261
256102
277549
259397
297382
317663
323355
293177
205161
254218
225887
257477
233233
260757
289055
460540
382397
309932
345117
428438
15201.3
481000
468904
412126
392826
289119
434827
7398.22
474922
6776.27
14389.5
330947
51572.2
26.4019
1852.25
6.44664
313852
374751
324137
326968
312052
317650
324080
278712
307824
356318
353699
293184
331241
290610
311620
272429
264484
285455
367895
295500
351209
238022
267029
248228
276822
248208
267009
297995
225726
274497
242761
281565
250490
269485
303592
269944
245140
241473
267864
272422
305967
300518
253351
274144
278929
280934
285906
317502
311849
238927
282121
257190
296783
271171
292600
322729
366688
507225
379411
505001
433994
334265
463810
252560
237023
221812
282484
283386
291382
282943
270474
290793
347638
304489
295971
309849
266140
280817
318068
288522
384947
357165
338979
348165
283785
300700
259839
351905
292616
308354
376473
301150
295003
299315
366972
363217
361814
368283
301776
295219
299513
366852
363198
368325
361671
399911
80913.2
421442
476.116
341655
18275
435195
35182.6
326310
261.22
367822
404830
36187.9
497354
279098
275264
298558
298636
321467
329983
362202
441353
126004
417010
133.227
266134
1634.55
407817
236683
862.152
9848.02
1.95347
35898.8
131545
24.5622
378503
353282
337509
324377
308396
318541
330904
298808
370554
303006
326903
393901
399170
321130
277012
284609
265606
305890
358594
335265
323324
282416
363329
295079
388548
308772
326785
411020
285555
364150
360999
369966
366972
451699
452770
283736
366288
361760
371940
367682
452146
454006
261165
326793
281579
327508
283010
306842
366331
233989
287390
256595
305994
269963
294910
338279
305624
307541
312227
366888
371890
378609
373817
251211
262157
293825
291357
279176
314440
330338
153.932
89.6673
1999.03
5.6482
73.593
9842.41
890.302
10.2837
848.963
169896
96399.9
12370.5
10.7888
1585.22
22817.8
0.000225659
0.19368
0.0880141
0.00117161
0.00260239
0.00258523
0.0563869
0.00334215
0.00284804
0.03607
0.0142734
0.0171483
0.0334165
0.0118995
0.581653
0.0132501
0.0338388
0.201722
0.0764364
0.015965
0.0111859
0.0024773
0.000321966
0.000442812
0.000323944
0.000565685
0.00229582
0.00048224
5.91184e-05
3.2475e-05
5.93134e-05
3.15166e-05
5.62955e-05
1.57773e-05
5.8407e-07
2.00962e-08
2.07612e-06
8.30187e-08
2.85218e-09
0.322306
7.24034
0.586235
15.9657
9.63912
129.361
1.19871
205.048
18103
1625.46
2467.73
0.00265555
0.0830731
0.0411582
0.578463
0.011195
0.00584421
0.0445811
0.436127
0.68829
10.5007
0.00584191
0.0837297
0.000759423
4.1757e-05
139.785
0.458353
0.00841775
0.0504378
0.0832842
0.337069
0.0243447
1.18348
0.471663
6.4554
0.0885434
0.0248211
0.0279111
0.00272466
0.00413969
0.0697358
0.000449592
0.0040733
0.000786465
0.00169492
0.000915782
0.0177171
0.00210632
0.00117177
0.0319485
0.000169892
0.000786315
0.00252791
0.000211403
0.0072767
0.00152767
0.000375502
0.00278927
0.000300603
0.012016
0.661001
0.0476655
0.0921088
0.00826679
0.00200932
0.000930946
0.000750208
5.28914e-05
0.000251036
4.60828e-05
9.05867e-05
0.000446415
0.00667561
0.000231644
8.54846e-06
2.90325e-07
1.77341
0.00244867
3.40961e-05
9.25949e-05
1.3197e-06
3.20889e-06
4.47908e-08
478.175
3.5541
0.169523
32.5576
0.0217164
0.308863
3.39642e-08
1.09484e-06
2.98314e-09
4.71482e-09
4.19095e-09
3.95376e-08
1.56593e-07
3.22616e-08
1.41823e-07
3.5877e-05
0.00107897
1.26865e-06
5.20023e-06
1.0384e-06
4.72041e-06
4.43736e-05
3.66265e-05
0.000202529
0.000202172
0.00192867
0.00148714
0
1.06229e-09
0
5.67525e-10
0
0
0
0
5.82077e-11
0
0
2.76486e-09
0
0
3.0559e-10
2.91038e-09
8.58563e-10
6.25732e-10
2.03727e-10
0
0
0
0
0
0
0
0
0
0
0
0
0
0
2.91038e-10
1.01863e-10
1.45519e-10
2.98314e-09
1.24855e-08
1.88884e-08
3.21597e-09
0
0
0
0
0
0
0
6.18456e-09
1.39698e-09
3.18687e-09
0
0
0
0
0
0
0
0
0
0
0
0
0
0
0
0
0
0
0
0
0
0
0
0
0
0
0
0
0
0
0
0
0
0
0
0
0
0
0
0
0
0
0
0
0
0
0
0
0
0
0
0
0
6.30884e-07
1.03901e-07
8.83418e-07
3.18367e-07
4.6831e-07
7.61487e-07
4.47205e-06
2.07903e-07
6.13509e-08
1.6058e-07
2.17842e-08
9.51113e-08
2.90536e-06
2.47819e-08
1.0783e-08
1.26456e-08
1.04774e-07
4.03452e-07
0
1.89175e-10
0
0
1.89175e-10
0
0
3.7349e-05
2.6647e-06
6.42168e-05
2.53565e-05
6.1981e-05
2.00151e-05
0.000202101
5.56521e-06
1.58296e-06
3.1574e-06
0.000114546
1.49029e-05
4.27972e-07
0.000916575
0.0005408
0.00214668
0.0013903
0.00139746
0.000907271
0.000296859
0.000748558
0.000439118
5.4909e-05
0.000190386
0.000381525
0.000882522
0.00017661
0.000371701
5.80372e-05
3.87137e-05
0.000615678
9.74954e-05
0.000228871
0.000129668
0.000251165
3.13481e-05
1.24495e-05
5.57141e-05
0.000119217
0.000238208
1.66891e-05
3.84979e-05
0.000104084
0.000133209
0.000682695
3.8824e-05
0.000349148
2.9605e-06
3.82187e-05
1.49623e-07
5.41784e-06
1.09139e-08
2.817e-06
1.65668e-06
2.22739e-05
1.34459e-05
7.40839e-06
9.6572e-06
4.71099e-06
8.19184e-06
0.000135767
8.52885e-05
0.000108593
7.85789e-07
2.11119e-07
6.29891e-06
1.53211e-06
7.15613e-05
1.98749e-06
2.74453e-06
5.95785e-07
1.80503e-06
4.25501e-05
1.14721e-05
0.000212901
2.62976e-05
0.000143326
6.26169e-08
1.29075e-08
4.61354e-07
2.22925e-05
8.95088e-08
1.54963e-07
3.56784e-07
3.79368e-08
2.47805e-07
5.59795e-05
4.59894e-06
3.20958e-05
6.51737e-07
3.08678e-06
1.02206e-05
3.52156e-09
8.58563e-10
2.45345e-08
5.44242e-09
8.46921e-09
3.93338e-08
2.99769e-09
2.83326e-08
5.0696e-07
2.00514e-06
3.84898e-08
3.78102e-07
9.55188e-07
8.5085e-07
5.35595e-06
1.04701e-07
4.94765e-10
4.16941e-07
3.09519e-08
2.76486e-09
4.66098e-07
1.4402e-07
4.96555e-07
1.16897e-06
2.73697e-06
4.71497e-07
1.14777e-06
1.50059e-07
1.00554e-07
1.85159e-06
2.73401e-07
7.11807e-07
3.31973e-07
7.64863e-07
8.57544e-08
9.42382e-06
3.08981e-06
5.34463e-05
2.1821e-05
2.95225e-06
5.17419e-05
9.98189e-06
6.64216e-06
1.45444e-05
1.72934e-06
3.12309e-05
2.05231e-06
3.50549e-05
5.37184e-06
3.17523e-08
1.382e-07
3.18876e-07
6.51271e-07
4.1633e-08
1.00801e-07
2.81027e-07
1.29658e-08
2.47484e-07
2.90893e-08
8.69913e-08
4.12838e-08
1.03406e-07
9.56061e-09
2.0477e-06
8.62972e-07
1.56257e-05
5.54192e-06
2.81128e-06
6.57121e-07
1.30204e-05
8.07471e-07
2.0006e-06
1.60784e-07
2.42358e-06
2.5898e-07
4.89794e-06
3.49217e-07
4.85037e-06
9.13944e-05
9.5063e-06
1.46668e-05
1.64148e-05
3.7237e-05
1.95598e-06
2.02272e-09
9.44419e-09
2.5917e-08
4.51982e-08
3.11411e-09
5.23869e-09
2.08383e-08
6.69388e-10
1.34314e-08
1.5425e-09
5.89353e-09
1.68802e-09
6.75209e-09
5.67525e-10
7.16391e-08
5.25615e-08
9.65651e-07
3.62503e-07
1.37763e-07
3.23635e-08
5.64643e-07
4.06159e-07
3.29524e-06
7.9977e-06
1.75094e-05
8.80726e-07
2.01962e-06
3.52852e-06
2.97587e-08
1.0831e-07
8.36735e-09
1.29527e-07
1.09139e-08
2.19428e-07
1.55997e-08
5.82077e-11
4.80213e-10
1.49885e-09
1.61526e-09
1.45519e-10
1.16415e-10
1.10595e-09
0
6.8394e-10
1.45519e-10
4.94765e-10
1.45519e-11
4.80213e-10
4.36557e-11
3.27418e-09
2.6339e-09
4.49218e-08
8.87667e-09
5.84987e-09
8.29459e-10
2.87691e-08
1.36788e-09
3.12866e-09
8.14907e-10
7.66886e-09
3.34694e-10
1.06083e-08
2.16824e-09
3.30844e-06
6.93821e-06
3.46263e-07
1.34224e-06
3.10689e-06
7.04995e-06
7.32325e-07
4.39322e-08
3.97122e-08
1.57888e-08
1.95665e-07
6.95582e-09
9.61736e-08
6.3781e-08
6.40284e-10
2.6339e-09
3.60014e-08
1.12152e-07
6.87724e-08
6.03322e-08
6.00994e-09
2.06637e-09
2.47383e-10
3.92902e-09
8.87667e-10
9.92441e-09
2.89583e-09
1.39902e-07
8.3237e-09
7.87259e-09
1.72586e-08
2.92639e-08
5.56465e-08
5.6767e-08
4.9136e-07
2.86827e-05
1.30545e-07
9.2437e-06
1.39407e-08
1.26867e-06
1.03319e-09
1.64873e-07
8.25094e-09
8.27422e-08
5.71017e-08
2.44036e-08
2.62044e-06
3.52709e-07
2.51693e-06
3.63798e-09
1.65892e-09
2.46364e-08
9.21136e-09
8.44011e-09
5.6898e-09
7.25689e-07
5.51518e-08
6.27711e-07
4.07454e-10
1.45519e-10
2.31375e-09
1.00408e-09
1.23691e-09
7.42148e-10
1.14611e-07
5.79166e-09
9.52714e-08
0
1.74623e-10
1.01863e-10
1.35915e-08
4.51109e-10
6.91216e-09
1.16415e-09
4.49654e-09
1.04774e-09
4.42378e-09
4.80213e-10
2.47092e-08
9.8953e-09
1.65383e-07
8.04139e-08
9.25502e-09
1.62123e-07
2.57714e-08
1.81899e-08
3.48518e-08
6.27188e-09
1.08048e-07
5.00586e-09
1.18933e-07
1.54541e-08
1.01863e-10
5.38421e-10
1.74623e-09
1.99361e-09
1.89175e-10
2.32831e-10
1.38243e-09
1.45519e-11
1.41154e-09
1.74623e-10
1.03319e-09
1.45519e-10
6.98492e-10
5.82077e-11
5.47152e-09
2.93949e-09
4.69736e-08
1.00263e-08
7.47968e-09
1.28057e-09
4.02069e-08
2.28465e-09
5.12227e-09
8.87667e-10
1.50903e-08
6.69388e-10
1.62254e-08
1.84809e-09
0
0
2.32831e-10
2.32831e-10
0
0
1.45519e-10
0
1.74623e-10
0
5.82077e-11
0
0
0
3.0559e-10
2.18279e-10
4.67116e-09
8.44011e-10
6.25732e-10
5.82077e-11
3.14321e-09
8.73115e-11
8.29459e-10
1.45519e-11
1.28057e-09
0
9.60426e-10
8.73115e-11
0
0
0
0
0
0
0
0
0
2.76486e-10
1.01863e-10
0
0
1.45519e-10
0
0
0
1.41154e-09
3.96394e-08
1.01664e-06
2.17738e-05
0
0
0
0
1.8772e-09
4.3714e-08
8.66668e-07
0
0
0
0
0
1.67347e-09
3.37022e-08
0
0
0
0
0
0
1.1205e-09
0
0
0
0
1.16415e-10
4.64206e-09
1.03435e-07
0
0
0
0
0
3.20142e-10
8.03266e-09
0
0
0
0
0
1.45519e-10
4.42378e-09
0
0
0
0
0
0
2.76486e-10
0
0
0
0
0
0
1.01863e-10
0
0
0
0
0
0
0
0
0
8.58563e-10
1.7506e-08
0.00289976
0.0002002
9.91889e-06
4.28248e-07
1.55997e-08
0.00085052
6.2951e-05
3.21135e-06
1.34925e-07
4.78758e-09
0.000148801
8.3187e-06
3.93877e-07
1.58034e-08
4.94765e-10
1.53091e-05
8.16697e-07
3.52447e-08
1.28057e-09
0
1.03431e-06
4.97093e-08
2.00816e-09
0
0
1.17114e-07
4.5402e-09
8.73115e-11
0
0
1.85581e-07
7.87259e-09
2.61934e-10
0
0
0
1.81913e-07
9.41509e-09
3.63798e-10
0
0
0
0
7.567e-09
3.34694e-10
0
0
0
0
0
2.03727e-10
0
0
0
0
0
0
0
0
0
0
0
8.73115e-11
4.75848e-09
1.47542e-07
3.97522e-06
0.000107964
0
0
0
0
2.76486e-10
1.07684e-08
3.06187e-07
8.11834e-06
0
0
0
0
0
5.67525e-10
1.72149e-08
4.40443e-07
0
0
0
0
0
0
7.27596e-10
1.97324e-08
0
0
0
0
0
0
0
6.54836e-10
0
0
0
0
0
0
1.39698e-09
4.49945e-08
1.26523e-06
3.58777e-05
0
0
0
0
4.36557e-11
3.27418e-09
9.59553e-08
2.62588e-06
0
0
0
0
0
1.16415e-10
5.2969e-09
1.38694e-07
0
0
0
0
0
0
1.89175e-10
6.0536e-09
0
0
0
0
0
0
0
1.60071e-10
0
0
0
0
0
0
0
0
0
0
0
1.16415e-10
6.31553e-09
1.78537e-07
5.1442e-06
0
0
0
0
0
3.34694e-10
1.22382e-08
3.39875e-07
0
0
0
0
0
0
5.82077e-10
1.68948e-08
0
0
0
0
0
0
0
6.69388e-10
0
0
0
0
0
0
0
0
0
0
0
0
0
0
0
0
0
0
0
0
0
0
0
0
5.23869e-10
1.8772e-08
5.66433e-07
0
0
0
0
0
0
1.1205e-09
3.30474e-08
0
0
0
0
0
0
0
1.49885e-09
0
0
0
0
0
0
0
0
0
0
0
0
0
0
0
0
0
0
0
0
0
0
0
0
0
0
0
0
0
0
0
2.32831e-10
1.10449e-08
0
0
0
0
0
0
1.22236e-09
3.5463e-08
0
0
0
0
0
0
0
1.80444e-09
0
0
0
0
0
0
0
0
0
0
0
0
0
0
0
0
0
0
0
0
0
0
0
0
0
0
4.36557e-11
2.95404e-09
0
0
0
0
0
0
0
0
0
3.34694e-10
1.89757e-08
0
0
0
0
0
0
1.8772e-09
0
0
0
0
0
0
5.82077e-11
3.55067e-09
0
0
0
0
0
0
0
8.73115e-11
0
0
0
0
0
0
0
0
0
0
0
0
0
0
0
0
0
0
0
0
0
0
0
0
0
0
0
1.45519e-11
3.15777e-09
7.87695e-08
0
0
0
0
1.01863e-10
3.95812e-09
9.75415e-08
0
0
0
0
0
1.45519e-10
5.50062e-09
0
0
0
0
0
0
1.89175e-10
6.98492e-09
0
0
0
0
0
0
0
2.32831e-10
0
0
0
0
0
0
0
0
0
0
0
0
0
0
0
0
0
0
0
0
0
0
0
0
0
0
0
0
0
0
0
0
0
0
0
0
0
0
3.63798e-10
8.7166e-09
0
0
0
0
0
0
0
3.7835e-10
0
0
0
0
0
0
0
0
0
0
0
0
0
0
0
0
0
0
0
0
0
0
0
0
0
0
0
0
0
0
0
0
0
0
0
0
0
0
0
0
0
0
0
0
0
0
0
3.34694e-10
0
0
0
0
0
0
0
0
0
0
0
0
0
0
0
0
0
0
0
0
0
0
0
0
0
0
0
0
0
0
0
0
0
0
0
0
0
0
0
0
0
0
0
0
0
0
0
0
0
0
0
0
0
0
0
0
0
0
0
0
0
0
0
0
0
0
0
0
0
0
0
0
0
0
0
0
0
0
0
0
0
0
0
0
0
0
0
0
0
0
0
0
0
0
0
0
0
0
0
0
0
0
0
0
0
0
0
0
0
0
0
0
0
0
0
0
0
0
0
0
0
0
0
0
0
0
0
0
0
0
0
0
0
0
0
0
0
0
0
0
0
1.60071e-10
1.03319e-09
0
0
0
0
0
0
0
0
0
0
0
0
0
0
0
0
0
0
0
0
0
0
0
0
0
0
0
5.82077e-11
0
0
0
0
0
0
0
0
0
0
0
0
0
0
0
0
0
0
0
0
0
0
0
0
0
0
0
0
0
0
0
0
0
0
0
0
0
0
0
0
0
0
0
0
0
0
0
0
0
0
0
0
0
0
0
0
0
0
0
0
0
0
0
0
0
0
0
0
0
0
0
0
0
0
0
0
0
0
0
0
0
0
0
0
0
0
0
0
0
0
0
0
0
0
0
0
0
0
0
1.45519e-11
0
0
0
0
0
0
0
0
2.61934e-10
4.80213e-10
1.16415e-10
8.29459e-10
0
0
0
0
0
0
0
0
0
0
0
0
0
0
0
0
0
0
0
0
0
0
0
0
0
0
0
0
0
0
0
0
0
0
0
0
0
0
0
0
0
0
0
0
0
0
0
0
0
0
0
0
0
0
0
0
0
0
0
0
0
0
0
0
0
0
0
0
0
0
0
0
0
0
0
0
0
0
0
0
0
0
0
0
0
0
0
0
0
0
0
0
0
0
0
0
0
0
0
0
0
0
0
0
0
0
0
1.4843e-09
4.80213e-10
1.39698e-09
0
1.45519e-10
0
4.36557e-11
0
0
0
0
0
0
0
0
0
0
0
0
0
0
0
0
0
0
0
0
0
0
0
0
0
0
0
0
0
0
0
0
0
0
0
0
0
0
0
0
0
0
0
0
0
0
0
0
0
0
0
0
0
0
0
0
0
0
0
0
0
0
0
0
0
0
0
0
0
0
0
0
0
0
0
0
0
0
0
0
0
0
0
0
0
0
0
0
0
0
0
0
0
0
0
0
0
0
0
0
0
0
0
0
0
0
1.45519e-11
4.43833e-09
5.67525e-10
2.50875e-08
9.02262e-07
0
0
1.36788e-09
1.16415e-10
7.01402e-09
2.49973e-07
0
0
1.45519e-10
1.00408e-09
3.78786e-08
0
4.43833e-09
8.73115e-11
6.67933e-09
0
5.82077e-11
8.74468e-07
1.39698e-09
7.07369e-08
0
0
0
0
0
0
0
8.73115e-11
0
5.82077e-11
3.49246e-10
1.14669e-08
6.40284e-10
0
0
0
0
4.36557e-11
0
0
0
0
5.67525e-10
1.52795e-09
4.78758e-09
0
4.51109e-10
1.28057e-09
4.16185e-09
3.13739e-08
6.35046e-08
2.02941e-07
3.36149e-09
5.22123e-08
1.94297e-07
0
0
0
0
0
0
0
0
0
1.16415e-10
4.36557e-11
0
0
0
0
0
0
0
0
1.45519e-10
4.94765e-10
1.45519e-09
0
0
1.45519e-10
8.44011e-10
1.96887e-08
5.65342e-08
6.1118e-10
8.14907e-09
4.80359e-08
0
0
0
0
0
0
0
0
0
0
0
0
0
1.45519e-10
0
0
0
5.82077e-11
2.89583e-09
9.24047e-09
0
1.1205e-09
7.17409e-09
0
0
0
0
0
2.91038e-11
0
0
0
0
2.61934e-10
1.00408e-09
0
0
2.32831e-10
6.54836e-10
5.38421e-10
1.09576e-08
3.49246e-10
3.48955e-08
2.53203e-09
1.03319e-09
1.92085e-08
2.27228e-07
1.64582e-08
9.19827e-08
2.77942e-09
0
0
1.09139e-09
6.46105e-09
0
3.7835e-10
0
4.86471e-08
3.23053e-09
1.48124e-07
5.39003e-08
9.64064e-08
8.62492e-08
0
0
1.01863e-10
0
1.16415e-10
2.61934e-10
0
2.47383e-10
0
5.82077e-10
0
1.04628e-08
1.3315e-08
1.00408e-09
1.39116e-08
2.22644e-09
2.77214e-08
3.53612e-09
0
0
0
0
0
0
0
0
0
0
0
0
0
0
0
0
0
0
0
0
0
0
0
0
0
0
0
0
0
0
0
0
0
0
0
0
0
0
0
0
0
0
0
0
0
0
0
0
0
0
0
0
4.36557e-11
0
0
0
0
0
0
0
0
0
0
0
1.45519e-11
0
0
0
0
0
0
0
5.67525e-10
2.18279e-10
0
4.07454e-10
0
2.91038e-10
1.70257e-09
3.3906e-09
9.61882e-09
1.49885e-09
2.41562e-09
4.07454e-10
1.45519e-11
2.76486e-10
0
9.31323e-10
0
5.96629e-10
4.36557e-11
0
0
0
0
0
0
0
0
0
0
0
0
0
0
0
0
0
0
0
0
0
0
0
0
0
0
0
0
0
0
0
0
0
0
0
0
0
0
0
0
0
0
0
0
0
0
0
0
0
0
0
0
0
0
0
0
0
0
0
0
0
0
0
0
0
2.61934e-10
2.91038e-11
0
0
1.74623e-10
0
0
0
1.16415e-10
0
1.01863e-10
0
0
0
0
0
0
0
0
0
0
0
0
0
0
0
0
0
0
0
0
0
0
0
0
0
0
0
0
0
0
0
0
0
0
0
0
0
0
0
0
0
0
0
0
0
0
0
0
0
0
0
0
0
0
0
0
0
0
0
0
0
0
0
0
0
0
0
0
0
0
0
0
0
0
0
0
0
0
0
0
0
0
0
0
0
0
0
0
0
0
0
0
0
1.45519e-11
0
8.73115e-11
0
1.45519e-11
0
1.92085e-09
3.40515e-09
1.01863e-10
7.42148e-10
1.30967e-09
4.46744e-09
3.0559e-10
2.32249e-08
7.81438e-09
2.43017e-09
2.06637e-09
1.58616e-08
1.20344e-08
4.68572e-09
6.55127e-08
1.16997e-07
7.31961e-09
3.14758e-08
4.72792e-08
1.65877e-07
1.19908e-08
3.92902e-10
1.00408e-09
3.49246e-10
4.51109e-09
1.01863e-10
1.94996e-09
1.17871e-09
1.46247e-08
2.48401e-08
9.76434e-09
3.11411e-08
0
0
4.36557e-11
0
0
0
0
5.27158e-07
1.04178e-05
0
0
4.36557e-11
0
0
5.99975e-08
1.89175e-10
0
0
0
0
0
0
0
0
0
0
0
0
0
0
7.45058e-09
4.94765e-10
4.2055e-09
1.5425e-09
2.41562e-09
2.6339e-09
0
0
0
0
0
0
0
0
0
0
0
0
0
0
0
0
0
0
0
0
0
0
0
0
0
0
0
0
0
0
0
0
0
0
0
0
0
0
5.09317e-10
1.16415e-10
0
0
2.91038e-10
2.32831e-10
4.36557e-11
0
0
0
0
0
0
0
0
0
0
0
0
0
0
9.02219e-10
8.14907e-10
5.82077e-10
1.08546e-06
2.75191e-07
3.02622e-07
2.07074e-08
2.12458e-08
1.01238e-07
8.44157e-08
1.01863e-10
4.36557e-11
1.38243e-09
7.94535e-09
5.67525e-10
6.89761e-09
8.14907e-10
5.38421e-09
6.26023e-08
8.67294e-09
0
0
0
0
0
0
0
0
0
0
0
0
1.01863e-10
0
1.45519e-09
8.73115e-11
1.45519e-11
1.16415e-10
2.18279e-10
5.96629e-10
5.38421e-10
0
0
0
0
0
0
0
0
0
0
0
0
0
0
6.0696e-08
4.05998e-09
4.00178e-09
3.38914e-08
1.61526e-08
1.84809e-09
1.04774e-09
0
0
1.89175e-10
1.45519e-11
0
0
0
0
0
0
0
0
0
0
0
0
0
0
0
0
0
0
0
0
0
0
0
0
0
0
0
0
0
0
0
0
0
0
0
0
0
0
0
0
0
0
0
0
0
2.74031e-06
3.62626e-06
7.13044e-08
1.97648e-06
1.37195e-07
6.21084e-05
1.22536e-06
4.904e-08
9.29726e-06
6.83533e-07
8.55049e-06
2.93949e-06
7.76559e-06
4.35582e-06
1.00545e-06
3.59578e-07
1.06578e-07
8.72242e-08
8.67381e-07
5.21395e-07
2.04833e-07
4.34869e-07
6.77159e-07
2.9341e-07
1.02991e-06
0.000270477
4.07454e-09
3.56522e-09
6.62197e-05
1.00738e-05
1.24277e-05
9.67295e-07
5.54281e-06
8.34712e-07
5.69029e-06
4.37518e-07
3.33239e-08
4.0968e-07
3.64962e-08
4.68019e-05
9.71253e-07
2.18606e-06
4.34855e-07
3.77402e-06
3.45464e-06
1.10087e-05
9.61212e-07
1.75234e-07
2.52557e-06
5.13217e-07
1.79469e-07
7.02498e-06
9.36129e-06
9.77394e-07
2.06954e-06
5.99393e-08
1.03874e-06
2.50337e-07
3.39694e-06
2.85028e-07
1.79265e-07
4.55511e-06
4.01749e-07
6.99234e-07
6.59915e-07
1.65656e-06
8.00792e-08
1.82772e-08
1.33674e-07
3.51603e-07
8.16013e-07
3.6016e-08
9.80217e-08
1.59896e-07
8.19273e-09
2.10726e-07
5.13392e-08
3.33384e-08
3.29892e-08
7.37055e-08
1.01281e-08
1.83907e-07
6.90678e-07
1.77926e-07
2.5178e-05
2.87648e-07
2.07759e-06
3.05101e-06
8.56124e-06
2.9178e-07
8.95132e-07
1.01494e-06
7.41493e-07
4.26226e-08
1.55502e-06
1.53494e-07
3.15525e-06