/*--------------------------------*- C++ -*----------------------------------*\
  =========                 |
  \\      /  F ield         | OpenFOAM: The Open Source CFD Toolbox
   \\    /   O peration     | Website:  https://openfoam.org
    \\  /    A nd           | Version:  9
     \\/     M anipulation  |
\*---------------------------------------------------------------------------*/
FoamFile
{
    format      ascii;
    class       volScalarField;
    location    "0.0021";
    object      impulse;
}
// * * * * * * * * * * * * * * * * * * * * * * * * * * * * * * * * * * * * * //

dimensions      [1 -1 -1 0 0 0 0];

internalField   nonuniform List<scalar> 
17317
(
164.123
1.70672
1.76772
0.0929747
0.00144109
2.22576e-06
1.47834e-05
4.88724e-07
2.38882
0.000160406
1.48527e-06
7.5382e-08
139.915
160.516
40.6773
110.419
52.524
5.48345
92.2425
156.46
187.301
164.767
183.377
166.053
161.894
141.284
136.564
256.932
191.974
156.534
205.872
187.059
122.224
228.808
172.305
238.642
253.759
241.973
237.609
234.379
222.575
219.192
234.281
209.354
224.898
249.559
244.235
230.181
214.807
216.169
175.63
200.782
188.443
212.821
197.254
171.816
225.52
187.189
207.37
203.677
222.005
202.281
183.367
160.735
178.283
203.18
183.902
208.517
192.682
166.872
193.036
198.907
211.834
217.46
191.94
197.651
178.414
149.708
178.295
172.045
148.047
154.959
122.317
130.303
183.396
163.492
133.483
128.651
159.369
152.328
179.639
153.974
146.812
114.065
139.852
147.226
168.663
174.721
17.5
5.32298
148.236
151.438
8.06679
1.73303
135.416
0.001477
39.0527
8.51351
0.000430931
0.184473
0.551073
16.909
104.867
72.3813
110.418
99.3988
135.204
104.915
66.9827
74.11
105.595
138.436
99.9068
133.584
104.85
68.482
83.1428
92.4101
118.91
127.126
88.3291
97.4893
61.2282
128.935
83.3987
120.959
88.6287
51.6961
97.6494
60.0345
159.217
158.854
153.905
99.8823
110.182
105.283
104.765
110.192
0.0122916
55.4402
0.00319239
13.8628
0.51371
87.3038
146.471
141.833
136.831
92.4297
87.7641
83.0505
97.253
131.76
142.878
126.272
89.0198
77.9105
72.7019
94.3624
15.0168
75.8157
41.8539
70.244
12.0573
36.0321
37.0597
125.795
109.046
118.709
81.72
57.1145
72.6321
65.6929
67.9619
32.9804
28.5098
62.3939
34.3134
9.61593
12.305
23.0041
21.7216
46.7089
55.2387
28.4081
6.67962
4.00084
24.1905
54.4247
23.5628
63.0612
8.71387
30.2159
31.0573
84.2562
104.566
78.6992
57.7298
52.8677
36.3118
32.1447
0.312556
0.000267194
8.70153e-05
0.526287
0.0907276
0.000122884
5.5001e-05
48.858
57.5203
15.2122
14.8254
12.7502
53.4282
52.8463
62.2528
96.9014
71.2852
38.7929
46.4482
26.8304
20.782
302.767
227.085
229.107
273.244
275.721
263.021
206.812
215.741
282.986
300.469
280.561
293.418
290.683
273.615
270.914
295.652
297.485
277.232
287.129
283.523
267.296
262.753
282.553
251.076
270.396
279.608
267.338
260.111
247.987
237.106
229.947
239.757
252.645
262.106
259.609
249.913
271.166
263.293
258.26
256.287
238.818
251.383
243.956
218.612
223.364
233.633
251.857
256.252
246.313
241.593
218.797
241.886
229.8
206.214
202.94
238.949
226.649
193.459
230.187
217.478
211.777
198.706
235.107
222.593
5.89937e-05
7.45944
0.00791298
0.00186221
3.06796e-05
0.000392778
0.221105
40.1863
10.6197
31.5911
4.13843
8.67049
27.8532
44.459
42.7594
11.5218
39.0117
6.69493
35.4758
9.76206
46.5692
34.5615
2.85279
4.16641
17.6446
27.9427
6.39065
23.0614
27.4149
23.5899
50.4191
4.14576
16.6698
13.8214
3.09541
14.7583
1.66827
11.7778
1.46272
0.212193
0.144984
2.11343
0.0613287
6.72594e-05
1.30954e-05
5.80393e-05
9.24478e-06
9.29345e-05
0.0131004
0.821839
0.565428
6.42573
1.01257
0.114208
0.0777512
1.47419
36.2349
18.9156
43.9147
10.4579
1.19222
7.07629
2.0468
17.8664
1.31249
15.0356
0.432463
7.01491
5.48873
0.31848
4.3367e-05
9.7752e-06
0.000637447
0.000187607
6.4241e-06
0.0259723
3.08729e-05
0.343937
2.42026
4.25654
0.61372
0.0245683
0.330041
0.0465504
5.23664
1.01906
8.43046
0.887602
0.0464088
0.477501
0.0872231
0.867629
8.07387
11.6172
3.81754
0.121697
2.32558
0.208771
0.853307
5.74664
0.606139
0.505453
0.362055
0.0490571
0.0346183
1.35557
1.29228
1.02243
0.0936736
0.0737827
0.0551055
0.0701163
0.871166
0.414793
0.687687
0.0365371
0.0276581
0.0216347
0.0465921
2.39362
3.95208
0.386136
0.132484
0.231829
0.0217764
0.0122538
4.61444e-06
0.000997748
3.86202e-05
2.34844e-05
3.66228e-06
0.000111518
9.5402e-06
0.083764
0.236574
1.58795
1.15851
0.00879063
0.0606104
0.170487
0.777581
0.232882
0.583841
0.0161454
0.0414432
0.0308225
0.0119097
0.154123
0.234543
0.391326
0.0203293
0.00453905
0.0119513
0.00777695
0.117723
0.0172744
0.013291
0.00103708
0.0117303
0.0090019
0.172983
0.751533
0.00559784
0.0622695
0.0224498
0.437589
0.0390069
0.109096
0.0417871
0.00839778
0.0056828
0.00439912
0.00298247
0.000665191
0.000469956
0.068272
0.0223059
0.0162862
0.00467453
0.00342456
0.00088013
0.00118946
0.0703342
0.000675849
0.00286021
0.00373431
0.0371746
0.00700297
0.00534339
0.0771516
0.0054865
0.0539765
0.000586623
0.00455652
0.00320428
0.000438197
0.000977659
0.0248882
0.00179427
0.00338171
0.00177667
0.000322049
0.000215712
0.0445661
0.00607766
0.0105374
0.00129177
0.00221096
0.000581483
0.00035246
0.0271965
0.00103034
0.0193134
0.000199123
0.00269768
0.00190555
0.000154307
2.33359e-05
1.24083e-06
4.63026e-06
2.95647e-06
1.12889e-06
1.80398e-05
1.67368e-06
0.00482073
0.000218914
0.00378087
0.00281002
0.000205022
0.00358865
0.000170001
0.0187708
0.0033547
0.0335954
0.00199238
0.000199589
0.00113901
0.000291868
0.000656124
0.0068432
0.0121404
0.00119612
8.99594e-05
0.000687837
0.00011559
0.0041791
0.000464035
0.0030127
0.000187261
7.79989e-05
6.73764e-05
0.000242949
0.000801694
0.000139969
0.00204287
0.00151511
7.68669e-05
0.000598361
0.000115139
0.00181094
0.000163916
0.00137058
0.00011012
0.00107752
0.00230821
0.000141972
0.000299601
0.00108153
0.00188378
0.000130371
5.15142e-05
9.3852e-05
5.75353e-05
0.00088746
0.000134694
0.000613206
8.81676e-05
0.00013375
0.000117365
8.69486e-05
0.000948946
6.14812e-05
0.000235652
6.90148e-05
0.00056451
0.000381235
8.47563e-05
0.000709217
0.000275414
0.000224778
0.000168935
0.000153744
0.00012979
0.000125688
1.39261e-06
3.76202e-06
1.62479e-06
2.59881e-06
1.51253e-06
1.42333e-06
1.37201e-06
0.000254766
6.38673e-05
0.000187465
5.65182e-05
8.0184e-05
7.18742e-05
5.56954e-05
0.000192758
4.20048e-05
0.000148497
6.43798e-05
3.91106e-05
3.88258e-05
7.43666e-05
0.000233057
0.000368967
0.000134978
9.51258e-05
0.00010207
9.0153e-05
8.7473e-05
538.236
273.29
445.499
258.024
328.338
279.918
146.413
352.725
301.38
350.798
200.796
194.193
327.567
346.844
286.147
308.65
192.074
244.844
50.1299
502.627
258.578
436.742
243.598
323.421
248.838
132.435
523.96
498.249
507.889
398.119
436.413
476.133
427.847
362.816
274.43
304.857
210.132
316.558
288.748
224.276
392.392
461.061
401.86
380.546
312.412
406.916
360.239
338.53
281.26
176.462
243.8
267.734
316.503
203.255
531.749
534.148
543.304
521.997
522.135
511.541
513.549
318.823
457.824
438.943
479.65
376.531
426.971
338.059
476.967
385.771
420.294
366.436
340.553
455.721
420.846
523.417
514.29
511.271
499.522
491.672
486.276
503.482
516.933
482.989
490.882
471.294
495.542
486.423
463.692
367.117
339.848
335.952
350.213
346.47
322.065
318.538
357.15
324.566
330.698
336.328
341.63
313.737
308.06
251.126
183.889
115.163
265.088
198.652
207.572
133.613
299.936
370.399
404.757
341.355
309.493
446.863
421.214
470.156
501.407
497.752
486.104
464.425
457.796
490.997
432.911
468.18
438.585
449.647
423.697
442.305
417.664
386.707
369.241
304.101
326.232
403.549
333.884
266.393
488.087
466.644
475.037
476.482
446.174
455.402
465.634
368.863
406.145
373.502
362.25
394.43
389.293
357.73
395.903
234.576
321.852
382.917
319.181
329.673
251.25
497.818
488.675
483.162
477.852
471.929
456.579
462.334
313.907
285.211
310.211
268.883
294.632
291.171
265.441
473.209
465.491
430.025
451.161
444.465
459.18
479.079
448.511
450.648
473.015
463.468
419.098
438.296
442.614
344.399
318.056
311.454
331.016
301.893
325.877
295.694
299.067
280.351
305.167
286.424
254.867
280.687
260.699
474.378
474.403
468.5
435.653
449.056
441.765
443.187
453.622
421.19
427.305
425.936
434.438
411.261
404.096
219.505
160.047
64.7301
187.518
244.419
176.543
105.37
290.306
184.558
72.0526
297.684
218.346
199.382
93.4592
322.491
436.83
405.119
371.02
280.955
346.576
258.54
273.201
164.81
234.546
268.431
200.755
237.187
113.992
333.72
313.415
330.418
284.276
303.407
300.092
281.142
457.324
446.694
464.739
435.83
453.677
440.561
424.15
265.519
423.042
361.558
301.044
241.896
388.953
335.982
452.912
423.435
414.534
409.226
427.007
433.577
441.228
397.402
360.62
364.851
383.801
347.759
352.946
377.841
450.863
467.091
460.589
427.675
425.549
417.946
435.329
353.839
289.432
191.321
292.651
382.619
226.387
338.605
321.44
309.447
326.221
295.666
272.054
290.537
276.989
429.093
385.176
405.902
399.202
421.651
399.348
378.126
450.239
422.85
445.472
416.376
400.319
421.583
395.876
473.011
450.33
467.32
440.159
427.472
422.562
445.52
486.312
413.742
435.433
546.595
525.433
548.036
505.209
544.33
450.765
475.108
336.712
410.734
487.931
428.742
420.755
348.834
548.067
562.816
560.462
538.708
546.616
543.47
537.573
543.348
550.82
556.571
538.376
529.043
531.206
534.396
539.374
513.057
518.564
495.18
521.655
517.232
490.542
455.408
492.749
459.553
473.289
444.903
468.742
440.658
533.042
498.712
506.278
511.268
478.33
503.898
484.844
390.028
424.84
394.433
379.912
412.384
408.769
376.269
525.135
502.964
526.916
522.776
501.025
497.789
522.366
481.872
444.425
450.215
456.608
463.063
435.416
429.608
516.451
481.18
510.219
494.708
507.986
490.49
517.374
378.81
415.8
384.518
404.332
366.887
399.465
371.728
475.445
472.912
498.74
494.552
446.919
471.104
468.936
488.79
457.535
457.732
441.825
481.507
465.115
463.882
451.63
405.867
426.514
424.717
447.379
422.477
401.917
379.397
365.238
397.502
393.902
345.492
375.634
361.894
435.953
419.711
442.108
417.553
391.498
411.943
397.106
389.453
365.884
353.239
341.401
384.391
371.078
357.81
333.303
298.164
304.728
315.746
320.911
289.596
283.311
284.07
357.288
388.305
229.517
205.437
334.302
309.958
292.387
260.398
285.353
248.145
274.273
267.373
240.678
450.271
414.572
444.223
428.296
403.152
398.112
433.786
261.671
243.963
240.622
244.61
241.197
223.185
219.799
378.902
348.398
331.482
373.139
325.71
354.079
343.369
430.815
417.4
410.5
409.48
382.668
401.026
390
439.607
434.263
427.08
414.073
406.702
394.16
400.96
414.176
427.174
416.656
405.679
395.721
406.108
385.887
252.98
247.48
274.343
271.028
220.788
249.699
244.032
434.662
436.077
451.143
426.101
396.017
410.065
410.894
258.444
145.776
152.61
26.9734
191.869
177.11
61.8157
299.788
266.567
285.016
294.284
311.502
279.199
260.615
400.417
370.516
414.275
369.418
363.567
406.457
408.252
411.989
400.88
428.409
414.341
372.111
386.049
399.188
256.953
230.444
236.093
230.675
236.496
215.173
209.41
266.49
233.413
239.868
216.031
260.978
245.247
239.271
404.48
390.499
413.548
392.136
361.018
370.131
383.925
398.749
420.151
413.452
380.511
371.163
365.863
386.591
402.323
392.866
410.416
373.989
391.17
380.061
364.007
431.84
416.235
411.741
408.032
403.555
383.264
387.267
392.588
346.646
390.209
362.541
383.061
355.97
400.151
388.936
308.919
249.267
316.58
244.898
272.891
182.426
270.211
252.395
277.982
260.053
223.737
232.572
252.337
411.268
385.204
362.464
397.569
393.123
380.769
416.188
355.715
349.872
380.025
341.722
371.058
362.902
334.626
404.791
400.867
379.003
379.071
374.989
357.751
353.735
227.499
372.465
321.776
224.359
160.13
308.531
262.036
367.037
331.711
339.269
319.433
347.238
337.861
360.261
417.416
403.599
398.619
392.478
387.408
368.315
372.746
291.67
317.64
309.895
284.921
276.784
303.1
269.372
384.281
333.15
355.277
370.658
349.894
389.661
365.927
385.451
382.246
398.509
367.765
340.316
352.757
354.348
416.218
383.737
395.524
380.081
393.962
374.582
361.748
389.802
374.204
368.43
363.222
369.764
348.783
342.745
358.2
326.192
354.482
307.068
334.523
330.657
303.375
236.919
223.83
223.899
216.307
216.222
202.632
194.85
419.189
387.426
400.533
379.393
392.449
373.288
361.034
341.631
279.259
175.305
190.156
296.002
159.91
236.07
226.655
233.636
254.709
247.916
195.457
226.707
219.085
377.31
334.355
352.074
326.716
368.78
342.894
359.731
398.982
357.079
352.768
369.247
382.231
370.069
385.008
225.49
204.239
222.193
186.099
204.533
201.087
182.538
394.254
350.724
374.448
356.471
382.531
363.645
338.942
403.915
372.982
386.787
361.674
375.629
357.862
344.867
209.425
133.342
66.2607
146.34
95.1511
80.6219
52.3304
300.215
288.223
306.121
273.12
246.73
254.076
266.622
222.607
195.038
219.138
176.265
200.741
197.249
172.548
335.824
378.559
372.005
359.64
328.65
323.648
365.499
294.437
263.77
260.576
275.79
272.253
240.765
237.254
361.738
374.239
354.129
355.436
346.416
335.69
327.559
383.073
371.053
366.518
354.874
350.215
333.642
337.76
349.945
344.648
316.752
325.935
293.46
320.26
298.845
394.263
367.383
390.222
361.686
342.266
338.894
365.33
262.024
224.432
253.432
214.109
244.145
235.197
203.521
212.202
199.79
217.749
196.458
171.856
190.667
177.813
343.161
377.974
373.955
353.597
326.17
322.719
357.261
208.427
190.088
214.368
192.504
161.076
186.566
167.479
324.339
343.006
358.843
347.555
298.772
312.924
332.604
383.154
357.63
378.718
348.3
330.805
327.154
352.298
186.679
219.705
106.414
209.87
144.958
125.803
98.137
342.703
361.289
371.708
352.795
315.297
340.593
326.053
228.64
198.365
207.851
198.075
207.619
186.011
175.982
285.433
251.305
256.375
262.315
267.736
232.636
227.009
371.257
342.918
355.951
326.624
339.794
324.078
311.594
370.204
372.238
364.345
354.573
347.006
346.662
330.123
121.042
278.679
233.349
76.5355
55.0196
168.367
108.574
240.661
210.598
201.622
186.585
219.076
210.758
232.773
346.069
295.736
336.178
314.798
310.237
331.51
351.279
324.638
329.684
352.184
342.33
293.813
318.347
316.224
342.133
354.261
369.241
351.339
310.067
337.283
325.443
334.154
351.862
364.089
344.482
302.854
314.155
332.841
367.914
358.248
380.218
352.561
319.066
330.288
340.922
364.681
335.614
345.483
324.533
336.127
318.136
307.29
137.826
155.679
167.674
198.174
154.094
104.776
145.365
55.8661
245.463
273.655
238.895
256.052
220.373
248.855
212.597
333.669
308.701
340.623
320.844
282.849
314.432
289.811
360.57
323.393
356.005
336.83
307.863
304.045
340.867
314.622
350.555
346.235
299.762
330.15
326.037
295.414
205.643
179.679
198.042
164.669
183.769
175.724
156.136
230.244
195.741
226.865
171.272
204.756
201.041
167.152
302.409
310.826
277.335
284.801
294.892
260.701
250.368
348.107
355.327
368.197
338.733
306.496
318.218
326.472
311.049
304.777
331.818
287.303
313.656
306.014
280.227
353.072
330.629
349.049
316.085
300.971
297.447
319.84
354.011
357.408
345.974
339.981
328.774
329.949
313.39
213.609
195.922
220.311
234.607
218.052
203.329
179.879
131.119
115.276
33.692
75.5923
165.188
73.29
35.873
201.426
167.987
193.401
153.237
179.498
171.227
143.848
293.357
238.221
259.274
263.579
285.262
250.761
228.063
334.968
286.205
307.953
286.682
300.173
320.891
321.254
313.759
332.365
345.552
327.293
282.889
295.04
314.844
198.334
187.741
187.5
175.794
164.493
175.606
151.214
216.621
190.77
222.271
196.026
154.219
189.738
161.467
331.966
304.229
312.296
277.683
309.034
300.924
335.381
327.152
321.706
339.457
307.144
277.397
288.962
295.206
324.346
327.94
311.52
311.387
294.864
297.037
280.694
155.545
161.97
181.48
177.839
129.148
151.546
158.109
277.626
281.237
307.789
303.731
246.932
273.337
277.314
325.426
282.544
315.865
274.523
306.81
297.891
264.796
280.144
320.168
315.97
299.34
267.086
263.343
303.187
333.638
348.586
322.759
301.961
326.36
309.981
286.012
336.734
332.71
353.469
305.565
327.1
311.066
289.772
337.569
292.723
321.225
289.261
319.029
303.074
273.406
330.56
281.243
290.296
292.823
316.921
305.257
305.73
233.538
213.288
243.993
225.174
177.903
213.554
191.548
314.64
297.751
323.966
297.047
261.837
271.888
286.602
340.533
305.609
323.891
292.529
312.15
295.969
276.491
198.199
246.718
93.4173
180.691
195.741
117.381
257.945
214.283
208.653
134.936
214.794
183.286
107.61
147.296
166.868
181.625
96.8317
255.111
238.641
243.102
240.159
235.746
223.696
220.689
251.448
231.384
236.315
227.21
231.993
216.753
211.743
221.485
234.482
241.049
225.52
218.674
205.752
198.704
179.781
136.223
72.8329
80.0531
150.936
98.7209
33.9845
226.713
205.432
223.65
188.437
207.036
203.89
185.067
190.013
217.247
193.123
176.856
201.951
198.804
173.49
218.36
207.06
226.953
201.788
210.797
190.5
181.064
205.464
210.394
185.899
194.687
163.352
189.472
169.02
214.458
201.146
219.595
199.715
174.954
194.438
180.601
256.903
264.541
298.723
214.308
270
330.582
275.712
283.995
227.018
270.223
270.524
182.365
253.578
252.383
286.075
207.97
263.349
327.773
310.523
317.068
307.766
313.78
296.18
293.164
317.937
323.527
303.876
303.276
309.134
289.044
283.729
304.519
292.751
311.533
296.72
289.588
277.633
270.821
292.85
272.951
290.077
260.94
278.087
275.2
258.054
301.39
280.539
297.938
263.064
280.412
277.249
259.788
281.441
269.305
286.339
271.317
249.308
266.332
254.233
287.311
275.833
293.184
272.951
249.787
267.515
255.345
233.985
247.488
179.982
172.133
227.553
191.414
126.006
288.781
278.688
296.952
273.473
281.843
263.212
254.724
258.883
269.178
275.681
243.437
260.432
253.708
236.684
280.728
255.965
273.493
243.315
261.24
254.171
236.025
244.744
244.656
262.162
259.112
223.845
241.476
241.709
251.446
261.517
279.929
264.337
254.323
245.327
234.917
236.531
261.855
244.953
246.092
220.233
228.987
237.501
265.56
238.975
247.862
246.272
218.754
227.875
237.494
255.066
232.578
231.854
219.634
249.873
237.219
237.689
226.5
225.536
243.732
236.739
200.576
218.272
219.466
210.3
247.543
231.318
259.391
240.14
243.349
223.277
244.33
227.036
216.388
210.361
227.893
217.125
199.174
229.307
218.701
237.245
208.609
227.744
216.915
197.312
228.856
200.655
202.274
192.086
210.024
211.437
219.922
174.39
192.622
199.57
156.406
183.192
175.736
147.993
201.139
189.263
208.329
168.111
188.082
180.578
159.944
186.519
190.803
204.404
209.304
191.324
222.381
205.013
197.532
191.508
208.595
188.053
176.411
170.175
157.558
158.406
191.853
171.218
190.045
209.87
198.557
178.053
213.577
170.434
194.024
206.992
225.999
204.862
184.716
157.861
164.787
184.633
181.275
130.689
161.145
154.154
162.422
172.734
192.824
171.796
138.739
150.248
161.564
175.125
157.932
184.519
166.973
125.543
137.825
156.673
174.234
158.056
184.375
161.588
119.093
132.588
150.366
271.041
293.734
306.411
290.33
242.473
254.606
278.145
172.922
146.309
139.183
123.045
166.769
146.127
152.906
179.419
189.346
170.58
166.385
134.062
146.035
155.58
323.396
281.565
269.578
289.748
300.777
292.665
312.16
200.815
191.385
224.182
214.405
150.892
189.263
179.746
316.664
287.272
298.889
261.947
283.62
295.341
320.424
333.081
295.441
319.429
284.452
308.335
293.38
269.508
150.065
142.77
124.885
156.278
149.179
176.859
171.251
298.653
261.074
266.429
241.393
292.459
267.827
272.403
210.073
168.329
202.581
145.31
182.168
173.136
134.5
292.609
270.998
304.921
287.539
240.744
253.579
275.653
234.613
208.083
240.748
203.847
158.189
197.125
166.646
317.229
269.493
300.616
268.355
300.291
283.958
251.706
279.206
257.762
291.964
272.471
237.848
257.286
222.499
5.1281
15.6027
107.1
8.87007
27.6444
16.5024
1.05551
249.728
213.874
245.786
178.337
213.297
209.219
173.325
307.713
253.525
263.214
275.211
275.007
286.776
295.825
266.597
222.656
231.413
230.795
240.592
203.381
192.356
312.777
279.99
296.607
263.427
281.03
264.783
247.09
175.9
175.426
194.596
136.608
157.97
178.14
158.49
140.576
186.777
161.722
181.046
204.528
186.718
161.717
176.34
199.794
179.205
162.205
134.845
184.166
159.197
125.354
147.6
170.776
166.382
185.016
163.061
142.839
150.921
148.748
171.338
143.533
164.411
166.455
185.793
138.202
130.557
159.338
150.482
93.6055
119.982
128.303
251.746
263.424
275.452
240.602
200.594
228.292
215.736
281.587
248.947
225.821
266.175
262.649
245.291
285.211
303.742
267.028
291.218
249.858
274.58
260.799
235.891
253.032
259.372
285.133
276.608
216.601
243.548
251.061
292.251
296.723
316.36
291.368
246.465
270.397
267.541
162.15
171.857
185.977
145.819
161.944
135.652
116.823
243.985
266.434
255.434
231.501
219.754
240.655
204.531
110.786
119.278
134.579
164.22
151.457
144.533
130.042
108.163
124.921
150.396
159.668
172.319
149.595
135.453
278.843
226.257
262.127
227.632
263.631
246.956
210.011
272.993
224.824
217.42
242.69
254.305
236.788
261.166
268.037
276.319
298.636
282.843
228.52
260.436
252.043
155.065
147.787
168.085
119.686
142.961
127.973
102.347
207.452
170.342
221.564
161.802
199.805
183.022
142.12
132.971
125.011
108.06
142.372
134.801
164.449
156.266
486.4
254.111
370.121
95.4908
208.917
370.905
225.107
289.477
318.184
318.836
291.067
226.568
430.387
384.392
343.326
482.897
380.488
429.617
341.408
371.286
342.471
343.408
352.821
353.878
325.275
324.424
369.193
341.077
342.858
352.035
353.529
324.741
323.113
135.54
199.648
265.814
267.33
201.009
209.816
136.52
386.026
323.356
332.142
387.49
322.3
333.661
254.229
314.768
291.308
316.615
297.11
269.589
271.359
295.386
291.955
316.35
317.246
297.733
271.134
296.912
271.995
481.86
486.421
481.908
450.187
456.991
457.139
450.096
220.871
200.32
299.454
301.221
221.387
201.757
96.8932
335.334
319.651
336.758
305.995
285.254
286.804
304.416
319.949
336.049
337.09
306.5
286.404
305.645
287.29
484.996
478.082
480.35
448.421
452.812
445.801
455.415
455.277
431.61
455.874
428.234
404.634
405.645
427.7
431.227
453.207
454.947
427.035
403.271
424.965
405.007
546.953
431.866
509.697
453.501
549.355
547.072
507.478
550.188
453.232
497.521
351.107
428.062
498.945
431.573
428.134
351.273
547.031
564.252
564.667
548.461
536.954
547.788
537.476
547.562
564.328
563.7
548.296
538.431
547.839
537.827
550.653
524.122
525.712
526.315
499.073
524.971
500.658
547.692
525.426
522.601
526.016
498.301
524.234
500.486
499.078
463.423
464.978
450.251
477.399
448.716
479.03
496.522
463.002
464.998
450.124
476.649
478.89
448.149
429.623
398.894
397.292
416.637
382.28
415.184
383.712
397.714
429.772
399.121
416.715
382.635
415.168
383.92
530.289
526.112
508.437
509.732
529.731
508.734
526.324
529.836
508.773
526.015
505.911
528.902
507.634
526.125
502.93
479.284
475.76
454.863
501.902
480.054
477.278
502.563
454.725
477.992
475.509
501.143
479.458
477.21
431.643
455.249
409.186
433.52
430.064
456.882
410.757
431.483
433.429
454.723
408.752
456.759
429.533
410.637
401.838
382.392
367.533
352.531
400.391
383.858
368.93
401.834
352.639
382.138
367.747
400.208
383.815
369.079
267.589
244.877
246.558
245.37
247.123
225.872
224.158
268.201
246.168
247.084
246.837
247.73
226.397
225.415
276.8
248.219
253.752
226.947
255.467
249.987
275.065
277.405
227.543
255.164
249.735
276.569
256.047
250.604
414.881
422.416
376.947
384.864
377.464
422.65
414.566
413.149
383.155
418.22
373.332
410.489
375.868
420.866
407.751
387.58
409.322
382.32
383.74
362.342
360.822
409.211
385.679
407.499
381.822
383.514
362.242
360.503
396.739
375.622
361.703
344.191
362.328
376.508
396.145
395.455
343.348
358.89
373.833
393.208
361.085
375.706
361.134
333.58
362.617
338.956
309.62
311.156
337.425
362.582
332.178
360.88
338.917
309.659
337.209
311.232
187.536
226.665
210.572
228.307
207.47
189.248
205.783
223.43
201.506
225.178
203.551
177.496
179.355
201.805
202.067
224.842
225.771
204.072
178.69
203.023
179.854
210.969
227.701
228.748
207.916
188.456
206.819
189.653
300.959
264.928
266.561
277.819
279.409
243.948
242.214
299.997
265.978
267.014
278.26
279.65
244.369
243.171
354.346
324.582
355.619
334.809
303.211
304.681
333.352
324.133
353.507
355.256
334.681
302.754
332.969
304.509
231.135
202.193
232.9
207.857
172.528
174.588
205.944
202.782
232.492
233.459
208.399
173.943
207.238
175.164
163.58
184.605
157.103
137.588
159.02
165.427
182.83
185.052
138.011
158.156
164.525
183.886
159.471
165.838
312.283
255.98
280.57
283.987
310.573
282.309
285.62
312.328
280.735
283.929
255.914
282.351
285.556
310.771
223.083
252.433
253.96
217.483
181.615
216.046
183.324
239.999
219.968
136.802
208.471
259.883
219.25
210.857
137.705
259.311
244.464
260.576
245.868
241.304
226.491
225.066
260.848
240.611
245.132
246.18
241.593
226.809
225.744
195.961
194.494
218.599
178.341
203.344
204.823
179.926
228.104
189.934
210.064
211.668
229.592
209.994
191.569
195.21
220.274
196.287
205.15
179.103
204.062
180.271
212.027
228.824
229.935
210.338
190.709
209.181
191.924
277.039
228.311
284.671
311.251
332.269
277.616
286.247
229.182
330.68
317.465
332.129
319.205
312.516
298.427
296.956
332.704
312.264
319.116
319.827
312.916
298.892
298.138
262.247
294.008
278.273
295.212
280.622
279.216
263.623
301.971
286.473
303.792
282.827
263.941
281.231
265.576
278.547
294.701
295.514
280.98
262.946
280.062
263.948
287.095
303.607
304.426
283.328
265.223
282.496
266.096
246.034
264.76
245.786
229.886
263.26
247.353
247.522
265.164
230.269
246.835
246.8
264.222
247.777
247.881
159.482
186.101
166.402
187.698
138.757
168.146
161.24
188.048
139.15
160.317
167.217
186.878
168.517
161.606
180.608
215.125
251.99
222.856
253.738
217.072
182.907
136.568
138.023
175.807
177.978
97.9019
139.038
140.364
178.523
98.4622
137.911
139.474
177.101
139.58
140.951
162.626
103.058
115.697
137.177
149.055
121.401
84.5755
134.446
174.172
136.276
169.693
88.092
129.07
131.281
202.974
134.053
149.921
157.874
189.264
175.207
166.198
183.807
158.046
193.924
162.251
106.737
121.65
149.127
227.372
147.96
188.917
181.056
218.897
179.018
135.976
273.261
277.44
301.294
283.543
229.748
254.028
259.691
285.894
279.934
303.762
276.312
232.669
256.994
252.3
212.242
237.036
199.575
218.76
178.969
204.161
162.809
248.844
261.171
281.619
265.345
210.268
232.028
244.761
163.594
112.8
115.679
80.8927
155.81
121.841
124.417
266.654
219.558
229.39
204.985
232.473
241.144
255.112
249.536
256.432
280.58
264.239
205.885
231.645
239.816
252.652
260.501
276.855
245.032
201.197
227.112
219.743
206.029
152.189
192.288
136.888
179.018
161.655
116.825
139.947
92.0883
101.766
79.967
107.158
116.257
127.336
244.489
229.039
263.514
217.399
238.991
203.865
181.103
113.799
138.415
159.645
114.378
86.0763
113.841
138.443
132.741
130.4
154.889
108.181
79.5961
110.922
135.837
69.0918
98.9612
83.7566
121.505
113.115
146.493
134.777
129.324
135.358
154.412
132.838
104.101
111.035
78.9951
209.906
228.362
246.831
230.003
170.921
211.182
191.743
117.831
114.755
83.3142
142.221
111.387
166.28
139.165
118.238
136.376
100.999
91.7014
53.4125
73.9474
112.564
127.587
97.8751
66.268
119.252
88.2872
144.949
118.446
263.503
207.596
208.416
216.592
241.032
232.471
239.465
248.609
182.123
213.163
199.165
230.797
194.776
159.545
251.375
197.617
216.231
202.359
223.022
185.907
163.177
171.675
113.86
156.819
89.9959
133.527
115.686
71.9983
196.179
168.021
208.644
167.109
106.623
122.173
153.026
102.079
105.111
146.222
134.718
50.5319
89.9138
92.8145
204.691
215.67
241.811
226.564
156.624
187.66
199.765
121.89
116.024
139.913
109.884
60.2587
88.4636
82.1246
226.841
149.477
189.035
171.605
209.444
170.04
127.119
245.682
188.817
184.674
199.207
211.482
224.797
220.841
169.15
190.363
150.492
162.205
90.3153
136.623
118.004
260.794
167.413
1.85859
166.43
2.0136
4.53903e-05
38.6365
0.00183799
3.55177e-06
100.598
0.507084
1.71236e-05
6.68544e-07
143.178
3.16977
1.68993e-05
1.88365e-06
1.05462e-07
167.134
0.461009
0.000211009
3.72757e-06
2.42813e-07
8.80456e-09
0.0039229
6.6619e-05
3.14405e-06
2.71036e-07
1.20484e-08
4.68958e-10
7.66293e-06
1.62746e-06
1.61165e-07
9.73275e-09
4.80239e-10
2.05124e-11
3.23103e-07
5.11821e-08
4.98894e-09
3.25541e-10
1.74477e-11
7.7016e-13
1.08885e-08
1.49191e-09
1.45409e-10
1.00049e-11
5.43757e-13
1.01863e-14
201.105
344.447
308.125
340.989
214.028
306.274
199.36
27.4171
36.3767
115.445
174.7
37.2864
101.64
28.1053
168.997
43.9343
114.236
190.96
78.9523
109.593
44.7457
167.967
43.1216
9.98385
124.898
42.3905
55.3293
10.3319
110.709
208.65
252.328
288.241
165.284
208.458
74.2875
338.142
345.026
338.814
298.777
303.351
304.096
297.971
343.493
335.005
337.382
297.513
300.315
295.231
302.751
325.036
309.067
325.755
287.081
270.369
271.414
286.224
308.245
322.467
324.602
286.039
268.682
283.948
270.662
190.123
167.79
191.832
169.6
170.762
146.511
144.557
192.204
168.65
169.811
169.991
171.138
146.9
145.452
0.158975
93.1178
133.919
134.505
38.9556
53.3193
0.169219
168.314
148.585
149.895
131.122
132.46
109.592
108.165
166.357
130.232
147.74
149.522
132.083
109.201
107.234
149.719
142.767
173.346
175.313
151.759
144.938
117.694
175.865
150.925
152.251
144.158
145.493
118.2
116.697
232.504
289.345
269.685
290.612
271.224
253.644
234.15
290.121
269.141
271.009
251.248
253.155
233.902
231.935
216.183
211.555
255.984
256.952
217.279
212.729
261.666
19.224
6.16387
151.606
165.439
58.785
95.9529
45.8726
255.873
216.321
258.212
209.58
253.631
211.82
260.516
0.00013545
8.12169e-06
1.7679e-07
0.0934348
1.74912e-06
7.84256e-08
0.000197694
3.32196e-06
1.72909e-07
0.00014703
9.85498e-06
2.11127e-07
0.00214875
1.78899e-06
1.08572e-07
3.51247e-09
1.40554
1.07064e-05
4.81087e-07
1.49445e-08
98.7501
0.0561235
0.00275207
78.6974
0.000158551
2.60457e-05
0.00151882
1.02714e-05
1.00028e-06
111.257
0.612142
2.07865e-06
2.12895e-07
110.488
0.00652148
2.81724e-06
6.88215e-07
2.56873e-08
84.9213
11.7751
0.00161075
1.3243e-06
5.88781e-08
2.09973e-09
1.68349e-05
1.2997e-06
6.70527e-08
2.86667e-09
1.13736e-10
4.45198e-07
4.19994e-08
2.41301e-09
1.18958e-10
4.95541e-12
1.50408e-08
1.34157e-09
8.41731e-11
4.32822e-12
1.65164e-13
4.60055e-10
4.0178e-11
2.57945e-12
1.18719e-13
0
187.181
1.44459
1.50393
137.465
1.62807
4.01782e-05
0.0375945
0.00149205
2.63899e-06
156.185
0.412634
1.40912e-05
4.76585e-07
152.575
2.61579
0.000173433
1.42726e-06
7.35529e-08
130.058
0.385993
0.000147351
2.95087e-06
1.72234e-07
6.10591e-09
0.00334999
5.43446e-05
2.17851e-06
1.88474e-07
8.30934e-09
3.20122e-10
0.000126034
1.40129e-06
1.10226e-07
6.7108e-09
3.28475e-10
1.38271e-11
2.02007e-07
3.55552e-08
3.44344e-09
2.23746e-10
1.1822e-11
5.00101e-13
7.09944e-09
1.03603e-09
1.00542e-10
6.81454e-12
3.49367e-13
4.72937e-15
64.1851
3.50676
0.000750742
1.35203e-06
3.78418e-08
0.000874277