/*--------------------------------*- C++ -*----------------------------------*\
  =========                 |
  \\      /  F ield         | OpenFOAM: The Open Source CFD Toolbox
   \\    /   O peration     | Website:  https://openfoam.org
    \\  /    A nd           | Version:  9
     \\/     M anipulation  |
\*---------------------------------------------------------------------------*/
FoamFile
{
    format      ascii;
    class       volScalarField;
    location    "0.0021";
    object      overpressure;
}
// * * * * * * * * * * * * * * * * * * * * * * * * * * * * * * * * * * * * * //

dimensions      [1 -1 -2 0 0 0 0];

internalField   nonuniform List<scalar> 
17317
(
397491
38426.7
42393.8
2316.09
39.0432
0.0256275
0.163759
0.00425721
46770.9
2.42422
0.00955354
0.000716984
213098
167026
273184
273845
289875
95438.9
299837
173952
130835
161099
135337
159535
165585
204997
214769
59341.2
126827
182618
108715
131535
256902
83354
149487
76184.1
61848.7
73154.5
76191.5
79302.4
91049.1
94608.7
79645
103816
86405.1
64532.8
69275.4
82934.2
99116.5
98109.2
149803
115261
131293
101749
119419
155236
89331.3
130315
108237
112109
92789.4
112732
135008
172865
144686
111495
137210
106407
124868
162713
123090
117166
101622
97133.7
124201
117978
141285
185593
141362
149282
186874
175291
247159
228668
136879
166417
233348
243478
172884
190259
141847
181957
201090
272892
215866
194719
157223
148481
240051
109121
416184
412352
146418
41479.5
429738
29.5745
267020
124259
6.5153
3781.03
11485.1
191409
289139
303462
278691
294341
223104
286319
301495
300109
277484
208992
284277
218710
281974
298850
297218
291558
251043
232626
298925
291049
296023
237172
304088
255240
301673
290945
294441
297822
403210
404301
409838
441673
440328
440788
441830
460986
329.585
435523
86.4753
238742
12644.3
463715
417465
420412
424922
441599
439848
437120
442607
437504
422261
442944
442073
440542
435933
442898
181839
303607
274785
302467
160732
263838
265748
436420
454222
449479
438691
413497
430384
427588
294410
250302
238212
292268
257160
137746
160059
219585
217941
279343
287833
241589
107784
73059.3
229684
293931
227562
299655
131866
249425
251539
468022
463430
464086
419138
409593
366045
349055
7443.35
5.68686
1.1337
12208.1
2256.69
1.79642
0.478842
382465
399997
221033
217757
198180
392233
391217
443600
465250
456695
371207
394341
323369
286845
20824.2
85783.1
81423.7
55980.4
43225.1
52902.4
106928
98115.9
35240.2
23549.9
36603.8
28524.1
30266.8
43549
45062.3
96172.7
36997.2
40252.1
37927.5
71074.6
47508.8
56330.6
37364.9
63640.2
47531.7
38936.1
49460.5
54914
66222.1
75212.1
82718.4
72469.1
61407
52262
54261.1
63771.8
59690.6
52158.8
60889.4
57040.7
72260.6
62083.4
68918.5
92909.8
89435.3
78295.4
61664.9
56431.5
66182
69670.6
94686.5
71850.3
83915.4
109049
112921
74636.4
87121.1
123817
80691.4
94745.9
102438
117965
77724.3
91027.9
0.497523
156725
196.999
46.8189
0.2286
9.89992
6037.34
359500
176757
330927
89642.1
154187
313632
372084
366590
185916
355134
128257
342788
166585
376992
340121
65525.6
89739.5
251029
311737
124281
287756
341595
318831
424283
97166.9
256993
230096
75813.4
179415
34019.7
157955
29775.1
4441.67
3069.18
41650.1
1246.56
0.678649
0.131649
0.790579
0.109903
0.712724
278.101
16160.2
11162
102351
20413.2
2350.3
1609.6
29347.2
381188
284964
407106
192659
31688.3
146625
52673.7
254606
31861.9
230407
10635.6
139692
116549
7895.61
0.481968
0.147658
16.8155
4.40821
0.0862287
662.138
0.350586
6878.38
46481
75128.1
12427
522.646
6780.84
974.144
91659.3
21136.5
128491
18264.3
999.01
9887.41
1858
21212.8
153453
196052
87545.2
3126.06
57082.8
5256.7
22675
128875
16124.7
13384.9
9628.99
1328.43
942.824
30845.2
29417.9
23442
2193.33
1738.09
1304.78
1649.69
20011
9692.81
15884.1
873.621
664.932
524.687
1105.58
62314
95306.4
10329.7
3652.61
6253.26
599.478
341.516
0.0325266
24.7956
0.49862
0.263862
0.0208663
1.38264
0.102533
2172.69
6186.32
40049.9
29565.5
237.095
1578.69
4516.37
18023.8
5613.32
13594.9
397.917
992.741
743.672
295.64
3779.31
5631.25
9202.19
496.677
114.302
296.159
194.789
2476.41
370.98
282.944
20.0853
252.869
192.388
3608.26
19291.4
151.478
1686.94
594.881
11266.2
1022.38
2932.77
857.278
176.843
120.34
91.2631
61.9375
12.9151
8.72821
1707.75
565.28
415.876
118.092
86.6074
21.1709
28.9495
1494.51
12.0713
60.8646
80.5333
801.385
151.766
114.993
2046.92
136.909
1438.58
12.3405
121.034
84.8825
8.6196
19.5376
520.118
37.9784
72.0523
36.754
5.24182
2.85558
1122.58
158.26
272.029
32.8018
56.4103
13.8579
8.03514
740.641
27.6789
530.139
4.12331
73.7842
52.127
2.92955
0.296859
0.00611714
0.065774
0.0354979
0.00453754
0.389404
0.0161565
116.09
4.50584
91.5802
68.3419
4.24709
86.7928
3.36563
514.124
84.6466
906.298
53.0543
3.06263
29.5875
5.40167
17.4157
192.38
338.17
32.7706
1.16661
18.3858
1.91186
111.745
12.0149
80.8322
4.07668
1.09803
0.821487
5.57305
20.0459
2.57632
51.4023
38.1731
0.883825
14.7729
1.94063
45.1158
2.88957
34.024
1.45497
26.6851
57.4031
2.3106
7.64508
29.7367
51.8284
2.67982
0.426465
1.62941
0.602117
20.6486
1.75618
13.8582
0.549915
1.75575
1.31377
0.522745
24.9586
0.65725
5.60305
0.869563
14.6264
9.58626
1.33129
17.0378
4.83894
3.49187
2.0858
1.63889
0.944668
0.846199
0.00730171
0.0554858
0.0127373
0.042767
0.0105448
0.00825347
0.00686288
5.99702
0.578931
4.09044
0.369857
1.05833
0.81784
0.358135
5.52179
0.427773
4.04291
1.18675
0.324387
0.314304
1.53315
5.45101
9.85083
2.14344
0.87317
1.10847
0.697701
0.621469
49703.5
248044
74496.5
262138
124947
205704
280762
199770
218942
104078
367843
130270
204897
186966
233410
213303
394698
252414
307163
80831.1
261795
84316.1
277451
134314
268803
318540
63317
57957.4
49927.9
134963
131195
111460
109629
102424
140338
166821
216747
155137
132576
199176
90859
58939
76600.8
139601
179551
113116
131338
111399
207505
277710
171483
145493
147644
226438
55915.6
51862.6
45512.7
69577
64912.1
71412.9
75800.5
209750
128009
117396
118362
190133
113625
195023
77092.5
145786
139951
173063
185926
113179
117933
59405.7
71686.9
68085.2
79037.8
90963.1
87732.2
82968.3
42922.7
54375.5
47477.3
66915.4
62686.7
69751.4
73854.5
103316
122112
121755
117144
117418
138775
139461
102580
124521
122454
121450
118763
141285
144551
136662
208860
263275
128404
191693
115877
224398
229126
159573
152858
204749
217129
132699
128814
107197
90412.3
85390.7
92073.9
117083
113962
96317.8
66109.3
52968.5
60628.4
71092.7
78075.8
77587.8
84277.9
100355
151292
193698
195268
121928
154599
251180
66988.4
70955.3
62129.1
77772.2
90886.5
81784.9
86901.2
91225.3
71605.8
86719.8
104169
88855
94770.8
109865
124959
295190
162203
123545
202046
153626
265761
77723.8
90821.3
88384.8
99799.3
97447.5
108130
109554
130900
134025
131562
151321
149495
151263
153698
99827.1
110775
130431
123591
121668
108574
103096
105590
87575.7
83525
90634.8
116923
112713
94652.1
106981
128093
133231
125618
149418
131381
156014
136382
136583
133297
154212
162215
158571
157264
112363
120822
115359
139230
140783
136317
143160
66069.3
81002.6
72846.2
94256.5
85279.4
91822.2
100799
166710
174228
306010
137637
141783
218868
280736
189708
255621
411889
180835
323378
231515
411818
202294
125628
132383
169932
242152
183191
264098
223545
308019
184237
204977
238910
292825
440433
134240
157569
135618
182978
158748
160510
185987
81036.3
92270.6
88145.5
101172
97018.9
108067
112577
255394
137959
177069
220886
278804
143984
190685
98757
112140
130087
125345
120857
102823
107889
82987.6
104909
97244.5
102139
126021
117112
111065
124181
124027
119295
143152
150305
148009
146340
165810
213517
389023
227392
137425
311642
157675
142121
161399
138171
163610
196805
168323
190525
91104.6
119996
97767.3
120623
98086.7
104749
127799
109795
117069
113116
137734
138643
134499
142102
101577
112378
99925
119739
131855
132362
120250
106532
106779
103373
40599.7
36919.5
32054.6
96475
21879.6
90088.4
47921
141791
67931.4
40396.4
93817.8
64279.8
130115
36675.8
24577.4
29659
54476.2
46987.3
51031.8
57672.7
44703.1
39958.2
34675.7
55149.2
64529.1
59602.5
60697.2
26605.8
31620.4
27545.1
47080.3
42622.5
46813.6
50848
50972.1
37811
49684.2
54706.4
64287
57551.9
66249.6
31531.9
41419.6
36147.7
51426.7
60717.1
56610.4
55324.8
81614.9
64013.8
82213.9
95012.1
77476.5
78770.8
95686.8
75098.5
89744
68489
71563.3
99014.3
92634.9
77931.4
43725.1
56279.2
53076.7
65660.8
61175.8
69127.6
73044.8
75232.8
101330
85350.7
102309
79784.4
96426.6
81212
83679.8
65502.9
82000.4
80982.7
100034
84309.1
97264.9
86483.4
67809.6
64218.6
67855.9
93626.3
89838.3
71503
72191.9
99372.4
81419.5
98080.3
77373.1
94095.8
76074.3
73238.3
100907
81234.9
97202
76342.7
83842.7
104056
112653
110796
93533.7
95686.3
132754
115557
112518
85188.7
101523
80296.4
87425
113521
92022
108262
98813.2
124760
119195
136601
103044
119568
115249
117354
148347
139941
147841
138722
164447
174826
240954
170797
161827
291036
321724
196763
213232
140944
152286
147183
168739
164578
172465
177017
119447
140262
118303
129046
149856
150995
129154
130235
116254
118793
146921
149445
135124
138171
108557
124533
148536
115552
157073
139480
131519
122631
121515
126900
142050
152247
147370
146666
129925
138296
136655
155224
153810
160603
161199
90685.3
95476.7
104593
102014
111324
116328
123523
197729
173444
171632
174514
203470
201758
176743
104587
112885
100055
120078
138827
133243
125160
247979
354253
488063
325518
393648
270016
405709
173991
204985
174853
183072
154933
183287
215130
164543
192490
164663
187962
190825
161626
167176
122675
140417
118026
129228
157855
151977
134389
132895
126208
122034
157543
152902
141986
146782
178723
187523
214615
209229
184522
207301
181378
115851
129416
106293
113113
147805
137036
122955
153257
144989
144435
168364
176031
177152
168151
133336
140887
136040
158929
153725
161203
166780
125876
139068
140255
144495
145859
160306
158368
168528
199663
174907
195753
173371
194776
170661
137444
193348
276386
204644
279704
242715
388581
165319
160888
155248
182349
199374
187161
194327
140776
160831
175542
151726
153334
162702
139881
114266
125534
111626
136808
121669
134093
149584
116768
120336
127153
142225
145964
149525
153528
296382
149415
200603
317108
447772
190470
257708
124074
150756
160539
167415
149207
140231
134178
137870
149644
150673
158498
159531
172350
170513
158805
145810
159023
171521
187267
172509
201988
164246
198690
189205
165670
192556
160971
169221
153923
149617
144392
169786
186266
175868
179517
107954
129445
114959
144244
129544
137282
152706
130608
131943
137877
156996
150915
158903
165528
135312
157189
138900
182408
162098
166332
186889
148397
131573
163578
138320
171157
152856
160554
126883
147922
142146
153609
147670
163288
169766
178183
230186
427399
348902
225197
457666
297782
195338
223938
192162
201778
239051
235561
205031
168687
202618
179769
203625
174139
197069
173944
141563
171182
178752
161307
155161
164760
147226
109215
119599
112519
139695
130348
134169
144039
126824
160244
134403
164453
139259
147476
174287
138341
158091
152073
167239
161097
175141
181987
178998
223952
312820
241927
306765
360027
322040
175102
194154
164017
193587
242724
227537
205855
167695
195959
170953
183124
155992
159710
188359
205609
179888
179073
185734
211077
212827
185578
184464
212370
216580
213124
218035
249646
255538
145133
145495
153793
164324
173030
173551
183093
163074
171922
173948
185184
187148
198663
196052
143769
149955
168736
172088
201084
179322
193115
153771
172123
155523
176092
190918
193731
173711
177598
199338
192257
214053
208516
225200
231952
122017
124375
116766
139052
157088
145160
149731
189838
164774
166970
181971
202913
206105
179340
180787
201496
175236
164350
205154
170326
195420
209298
186744
180616
188183
225896
217290
194959
162599
179412
164407
186549
199851
202717
184132
267238
325751
455485
324619
486380
427015
501213
138947
139895
124795
148444
181906
164774
164503
156623
157012
146663
192161
180530
170562
184132
196724
230523
222545
234028
224946
263844
275113
164622
183374
176494
198096
190542
203020
211518
145627
154435
160489
163547
169974
177937
188927
517499
218704
297973
459332
438599
313733
458120
213475
268592
231975
255591
250121
216985
227500
193562
232055
200763
219164
221580
202840
192353
163101
173705
145954
159660
210241
188835
177490
179012
168597
153224
162191
207825
178730
190061
194160
176765
169964
186088
220547
211327
193747
164796
176172
158568
180147
206922
198611
187437
154936
175701
163955
194887
183202
194237
207111
216466
184753
250749
163799
228374
290860
300980
320237
240861
216909
254037
245741
290107
260847
309960
186341
211910
179770
189548
232161
196846
224240
180520
207253
182264
195763
219317
222289
193373
206255
170506
174489
213100
179264
183668
217872
128535
146893
136584
166794
152915
162847
179682
229127
237263
234399
280655
272268
279644
289487
176339
159794
186642
207175
188420
219569
240757
183258
173589
167016
190539
216597
207669
198338
176997
187159
167031
211085
188247
198927
223306
183433
199779
186051
211967
223858
227394
208887
158446
165071
174768
175221
185813
190945
203514
144454
165903
168659
149561
171154
192110
188022
393987
519999
364787
500841
451782
451765
400098
187895
232873
196964
218658
178422
189608
237786
188357
261730
220529
242823
204046
238189
285798
196961
237881
215636
236158
226769
204539
207154
211965
192687
185436
200058
237918
227868
208345
193977
170134
207108
187355
202736
227322
228107
251076
245072
241553
290076
320974
304594
302644
198876
221201
214747
246373
218188
224819
195864
197447
204486
189719
217230
243933
233433
226749
189176
192158
208162
204416
221814
223091
238343
193103
171555
156082
160844
233714
199865
177358
232151
218333
193993
198875
272628
237682
223833
194268
237347
203660
241731
205656
216122
253134
244383
211157
213837
226749
254739
258772
223556
175985
156918
172722
201855
183150
203739
224318
183180
192357
172640
218149
196993
209747
232746
185414
227574
197066
233186
203926
217332
249392
175362
229354
225473
213712
193052
206032
194296
229531
217180
209492
245136
285245
269954
254701
190818
199292
178045
211414
255141
237915
225829
181952
214024
193677
228986
208987
223301
245323
118700
69250.5
303631
141717
122317
268090
58884.5
100155
107981
231067
99599.8
137943
283789
199533
162382
139027
298466
61390
75269.5
72799.7
75647.3
77996.5
90197.7
93333.3
64879.7
84313.5
79509.1
86531.9
81782.5
97575.9
102858
92411.9
81226.9
74650.3
90253.7
97489.1
109436
117513
143763
213302
314248
312436
186567
297358
275068
89053.1
111622
92271.6
129477
107914
111507
133727
129549
97024.4
125634
148499
114179
117817
153276
98536.6
108274
89130.7
116572
106189
127390
139518
109768
104418
134868
122741
169052
128987
159998
101841
116391
96546.2
116302
146877
122307
139457
124006
58361.2
59426.3
108417
118174
68234.3
48437
112080
95518.3
108199
82924
144359
79695.2
69630.7
69364.6
114941
122414
68547.9
50343.6
82906.6
52623
83149
66455.7
68435.5
71309.5
69347.2
55588.3
86094.9
84063
71097.1
74582.6
78749.5
63996.4
74436.3
89300.1
93737.6
78925.3
84238.9
44026.9
50856.7
46459.2
62119.5
58269.2
60786.6
64795.9
97141
113224
97760.5
98992.6
82605.1
84540.1
101116
53899.5
54200.1
49771.8
64158.1
72856.1
68335.4
68400.5
101519
115174
99084
87109.6
107542
90513.1
103894
100212
133600
148987
160828
127849
170284
241134
90721.7
75618.3
84154.7
106397
99389.4
90635.6
98327.1
63468.7
64755.6
58879.4
78330.1
73411.8
79513.7
84968.6
105139
128026
110018
112293
94900.2
100421
118340
77718.1
90531.1
73702.4
76377.9
98829.2
93470.3
80686.4
101654
91504
98639.5
114990
125466
107568
118680
85657.7
71639.2
76971.5
86798.2
102401
92930
95477
116241
144052
135165
107248
135154
125883
115627
79903
89435.9
101986
103131
84250.5
97280.1
84610.8
95379.3
107821
89594.1
96117.4
122897
114981
102609
147567
133348
153257
119680
113677
138109
131931
89135.3
95868.2
107822
113594
105782
117959
126743
154958
168110
145338
146436
125826
138118
160170
104019
134251
121705
132561
123697
111306
113532
150656
124847
116476
181467
137005
147216
198406
116423
129746
108406
156607
129901
139448
169269
142239
137964
121756
128282
149018
113178
132263
122677
128931
109631
131259
146635
154711
174298
178203
134106
159083
147008
124894
138387
162633
176208
198931
202850
183841
159461
152767
177150
180894
165019
135727
140115
240145
170731
187629
166012
150793
126134
151577
208991
185936
167129
148330
178044
135275
160296
248404
220631
177408
225393
252532
208887
205015
295861
263903
226219
250790
228385
218980
232632
277902
265814
242915
167083
196700
223197
246954
175246
209560
185447
158888
146508
158740
175776
221844
197135
192922
203873
241067
252843
233700
223873
230751
212570
292478
251169
244426
265437
349679
324124
276650
211305
236107
225842
259779
239731
229311
208395
171520
210082
189467
224664
201555
221215
246606
190176
210687
252698
178906
197393
146131
153982
205525
254733
241321
282395
213823
245218
231497
263602
289930
280043
344915
324534
351751
372592
227108
248880
214594
228329
282223
266560
242354
285987
347737
273134
326984
448487
345244
428501
202462
250313
216173
251994
219874
235396
270831
218399
226469
195679
229409
266914
255292
299291
98656.8
199677
281690
147988
261621
205644
24649.1
256788
333175
263489
399743
305185
313945
411827
216528
266690
257099
245909
246034
235305
225991
230844
292511
270854
303682
280033
336245
370635
207799
240718
221537
258344
239800
256805
277383
169031
157175
145864
218677
181577
166723
194580
258697
217441
217076
186902
190879
217263
216867
191855
196039
227043
260144
270227
220342
220388
239247
192203
156808
162194
138103
166105
200785
191900
209138
174059
203959
182484
167465
154461
212787
241585
186126
200817
295573
265282
234649
265728
244881
222678
260167
354870
287602
316448
241726
271052
296386
254555
258935
275767
237985
205560
249478
222354
275302
242337
261070
298931
266450
253776
223977
236088
332161
280640
269121
216503
220781
197190
226660
279141
252071
249858
210390
238124
212935
293962
255008
263929
311574
256772
241074
260470
284249
311678
287280
349211
279298
261815
227715
164990
187169
200760
232885
279963
241508
185936
171397
152583
187592
216133
241213
300636
258265
295606
257043
276240
323155
248234
297236
305324
278215
266029
283586
259374
255247
247209
224402
239665
300288
264524
273412
195776
194907
174748
255521
216543
250270
292732
284938
306426
253841
327820
302680
347042
385066
227303
250566
284554
205975
228391
164370
178118
119866
263211
104785
410587
113221
107018
197053
132325
156798
153856
131913
196564
109244
188035
192584
116483
188703
111124
192615
106217
123006
123953
117666
118700
139430
138793
107151
124473
124694
120013
119750
140461
141171
219230
188558
127060
127322
188845
113396
218715
120131
199677
153011
119875
199274
150547
261381
131525
132004
131563
148964
150594
149609
149870
131788
130829
131133
148454
150032
148626
149437
111843
114912
107755
131834
140226
137103
134322
320512
228513
181339
177965
317416
227904
410964
136670
154854
135430
159148
184138
181865
160809
153718
133770
134228
158047
181308
157937
180850
115032
110005
108237
132667
139021
134225
137738
107164
107950
104269
129533
134174
133928
130855
109275
107264
105355
130578
136279
132213
134753
83888.4
89290.2
102294
86245.4
42033.6
24377.3
94474.4
14383.8
87273
42394.1
130088
66982.1
34328.2
91427.5
64345.7
128552
27722.2
63451.5
18309.1
40394.4
86430.3
68202.9
50823.7
27479.9
16344.3
19633
39836.8
51306.8
42899.3
49022.1
15086.9
36483.8
21646.8
35419.8
47926.7
50644.4
40709.9
17369.5
21474.1
23883
35652.4
43599.6
38581.7
41093.9
34715.9
52652.1
48805.5
61604.7
53883.9
63430.6
50104.6
35670.4
48890.1
48503.6
62191.7
52351.2
50621
62977.7
64832.3
84782.9
85712.6
76841.3
96087.1
77033.5
96257.1
83419.7
64761.4
84447.5
76960.4
95172.9
76959.3
95806.9
62967.7
90597.3
92280.4
93412
76987.4
85412.6
71974.3
63049.6
93092.4
72711.6
87226.4
65381.5
85381.4
71207.7
57622.7
85150.3
65379.5
83644.7
65446.7
80651.5
61440.6
58222.2
85060.9
83616.6
64719.3
60791.1
81409.2
62373.2
77840.4
70085.5
97083.8
88530.7
78056.7
67924.3
97251.7
78476.8
89722
70916.3
98824.4
69126.2
79503.2
97654.2
91948.1
110698
111214
128843
91699.7
110260
110762
91862.9
128135
110811
109985
92266.8
110046
110082
126605
113339
112716
145166
144296
131118
132084
126725
114471
113148
145383
144433
131491
133034
169795
172059
196664
195156
194549
170624
171392
169328
195039
195336
171545
170020
194121
170503
157755
162315
185183
188060
185192
161263
158362
158505
188176
162994
186167
159714
185366
161899
111990
119720
111922
138224
137891
145523
146604
112737
121171
114325
139716
138240
145466
146880
156807
162064
186189
191640
185899
161731
156950
157485
191436
187049
163316
158821
185986
161993
133340
151202
132174
158255
181069
178832
159918
131907
151417
133000
157937
179530
159327
178204
136655
106340
111794
105278
125902
134869
127295
165352
186792
164090
151261
179161
177229
152658
186949
165623
164249
151569
179655
153422
177446
111824
107008
105505
126076
136752
127789
134889
178950
212531
209750
212568
209671
245283
248689
178691
209814
208789
210050
208723
244281
245949
167446
198134
166496
175033
210649
208586
176653
197866
167874
166476
174829
209941
176351
208286
227228
225990
224546
266020
276420
273126
269428
225819
225843
224084
265437
275440
267729
272849
167829
150763
188711
216176
186310
165554
152604
150879
216040
188805
167745
152905
186380
165521
189109
259310
228523
214762
190771
226640
213042
189459
229535
216382
259999
227031
213678
191574
314928
252576
250706
297608
392368
299884
389404
74156
94181.7
226850
106122
57229.4
95001.8
105588
225553
57611.2
71207.6
56581.1
70062.9
72874.8
87325.8
88763.8
56404.2
73513.4
70940.3
69924
72609.5
87078.6
88179.5
121969
123861
95729.5
146259
112527
110766
144107
87156
127250
105769
104272
85863
104479
125355
123081
93893.7
121670
110477
145436
111808
143788
104171
86956.7
85751
104249
126698
105571
125125
46755.5
93120.4
110851
46385.1
68134.8
46821.9
111422
93332.8
65844.3
80875.7
66968.8
82188
47058.2
63394.5
62808.3
67889.6
48735
82830.7
82830.1
47807.8
64083.3
64973.5
60186.3
41573.9
45996.2
41259.9
55237.2
55688.2
59306.1
95538.7
110992
96435.5
79533.9
96025.8
79354.7
95751
45983.2
42380.4
41524.4
55526.4
60340.9
56551.6
59320.6
111159
96825.6
96779.5
80138.5
97400.9
81115.2
96253.2
75545.3
70400.5
87769.6
91928.2
71036.7
86934.3
74528
70681.9
91969.7
75755.3
88543.7
71876.6
87199.2
74563.2
177796
133619
162263
131580
223689
159885
175179
131288
223275
176795
161412
132866
159573
174819
395871
302988
255218
316028
251682
298715
390630
431685
357447
339420
334905
410895
429232
354271
334110
411102
430102
356376
337035
428727
354030
248234
326366
359459
256349
280388
295933
347935
434408
343856
362251
355420
413228
441514
372119
292579
397529
359567
417852
328867
366223
311560
330589
317733
301687
386579
426613
401790
424387
302971
468841
370468
424454
325301
402106
486916
247298
235674
213062
235391
305960
271504
260841
232298
232330
209719
243232
301237
267654
271857
320774
293713
356777
332102
412534
366370
456974
272689
260718
239236
256690
321822
294015
280227
372074
459204
399405
413700
393353
450284
384939
250233
317830
309495
357273
297610
287543
266642
275406
265442
235981
257444
349854
299494
291139
271716
262717
241328
282368
361285
307025
327005
291819
361504
328161
400614
365088
416268
444090
221449
309726
290229
304939
290153
262190
249925
275459
284334
244792
323269
285583
340311
395831
270870
231148
193118
286788
320830
270748
230978
226207
246998
199602
300451
323106
277614
235784
308770
297073
307479
254444
275253
196764
222310
229999
215708
181103
220839
287845
272121
317525
318122
295825
274954
296960
394758
321939
353186
373786
322230
372556
308202
329284
252904
261283
259929
218369
295306
307551
303500
312618
273183
232553
298958
315659
252914
309701
196513
256196
260114
341750
331654
324598
287924
298927
289888
270862
403279
321980
367426
301788
365743
460561
267095
361569
318315
360587
319689
396624
454582
369058
430815
414906
441340
460081
483671
440653
386674
457577
352969
437301
506357
500555
471471
466142
413289
418220
443713
392148
467744
424452
342638
335696
285701
307906
468755
375321
367823
266491
264798
224758
292962
315850
326605
315647
315131
488571
392374
444985
350631
443533
513415
281485
364904
392180
358940
328138
308965
321607
384060
326846
361788
404961
468360
466686
441639
279749
393977
41590.2
398695
47789.6
0.494769
396970
49.1611
0.0390551
283207
9754.94
0.184864
0.00619871
206908
59736.1
0.173182
0.00917736
0.000988307
166285
8749.45
2.6086
0.0250866
0.00213055
8.98411e-05
70.2084
0.704818
0.020434
0.0024191
0.000125118
5.03226e-06
0.0768531
0.0139298
0.00151461
0.000100716
5.16165e-06
2.24434e-07
0.00244237
0.000563665
5.06255e-05
3.45764e-06
1.90645e-07
8.87667e-09
8.64517e-05
1.43891e-05
1.50045e-06
1.08193e-07
6.33008e-09
2.03727e-10
340734
213985
225223
213538
323478
224323
340830
232729
276162
293044
221336
279577
283402
235640
155615
279046
268213
127687
301248
284537
280688
164802
249821
129442
256454
248554
285994
132454
490537
339567
272468
233745
400272
338773
476936
213662
213507
213031
244271
244031
242676
245754
213067
213535
212725
243642
242750
244624
241974
217333
223625
216248
249108
259987
257812
250898
223140
216922
215889
248487
258600
249625
257241
127913
157252
126123
155005
153326
196023
198998
126014
156885
154956
154870
153075
195692
198006
3898.62
458774
500476
498943
397385
384822
4141.88
164461
204929
202833
244248
242521
279425
280254
167272
245140
206084
203221
242799
279494
280611
224134
281269
221207
218869
221419
278117
291349
218982
224188
221506
280970
278113
291564
293480
293916
234662
248853
232643
246448
270094
291309
232268
247964
246128
271462
269765
291119
293223
324511
329532
282435
280282
322147
327147
277657
252965
121839
413240
395356
400324
441850
374215
279493
321658
277797
328886
280688
326770
276796
1.03525
0.098216
0.00139861
1458.6
0.0100755
0.000629081
1.30727
0.0163549
0.0011937
1.02489
0.106412
0.00145211
44.9128
0.010793
0.000755957
2.94278e-05
25717.7
0.100938
0.00468234
0.000136856
458029
1432.99
71.251
458220
3.39941
0.359105
38.8041
0.128039
0.00871606
356661
14419.5
0.0083223
0.00164005
275188
143.221
0.0197915
0.00713509
0.00024782
303558
162116
37.2401
0.00998656
0.000697939
2.25707e-05
0.192227
0.0159599
0.000821531
3.15139e-05
1.24094e-06
0.00416387
0.000476624
2.61966e-05
1.2985e-06
5.69707e-08
0.000135676
1.39313e-05
9.10557e-07
4.96802e-08
2.15368e-09
4.40849e-06
4.2608e-07
2.94094e-08
1.58616e-09
0
355715
34501.7
33921.7
438656
39069
0.436615
946.101
39.8288
0.029505
253302
7975.56
0.155879
0.00429529
181922
50671.9
2.64837
0.00901304
0.000684251
242918
7359.72
2.10072
0.021813
0.00157211
6.40167e-05
60.5037
0.566106
0.0145071
0.00171895
8.80609e-05
3.50628e-06
2.85091
0.0257198
0.00103785
7.03951e-05
3.59338e-06
1.54992e-07
0.00157188
0.000397214
3.50962e-05
2.41068e-06
1.32044e-07
6.06815e-09
5.68572e-05
1.00653e-05
1.04857e-06
7.52334e-08
4.30737e-09
1.45519e-10
260171
54622.5
12.983
0.013755
0.000359097
14.9984
0.0190756
0.000482891
1.1228e-05
1.53334e-06
1.65615e-07
1.30676e-08
7.13044e-10
0
0
0.000341482
4.83164e-05
5.78797e-06
4.60495e-07
2.63826e-08
1.17871e-09
0
0.00566789
0.00142174
0.000227076
1.57475e-05
8.41974e-07
3.74421e-08
1.45519e-09
1.33456
0.0593763
0.00534483
0.00052234
2.6328e-05
1.0708e-06
3.85917e-08
126325
350.513
0.46426
0.00799681
0.000705671
2.85764e-05
9.35717e-07
365445
450625
15274.3
1.30695
0.00930053
0.000603181
1.95943e-05
277854
465078
66435.7
1.42622
0.00718535
0.000330609
257652
462144
21779
0.406343
0.00276492
316818
316662
2.5074
0.00759698
2.91508e-06
4.66534e-07
4.99276e-08
3.82715e-09
1.74623e-10
0
0
0.000114701
1.44902e-05
1.62785e-06
1.26951e-07
7.49424e-09
2.91038e-10
0
0.00250333
0.000360507
4.68013e-05
3.77739e-06
2.18221e-07
1.0361e-08
3.63798e-10
0.214364
0.0127387
0.00133653
0.000117516
6.0118e-06
2.69851e-07
1.05501e-08
9890.65
18.8631
0.0742279
0.00309057
0.00017971
6.42375e-06
2.34882e-07
455715
355321
891.089
0.236578
0.00302944
0.000148452
4.48451e-06
325765
485085
4151.93
0.235463
0.00197198
6.16168e-05
272743
488607
1318.7
0.0666697
0.000575238
392811
101689
0.181993
0.00229766
4.18135e-07
6.31553e-08
6.72298e-09
4.65661e-10
0
0
0
1.30277e-05
2.0154e-06
2.22513e-07
1.65746e-08
8.87667e-10
0
0
0.000334686
5.83137e-05
7.06117e-06
5.09041e-07
2.81289e-08
1.28057e-09
0
0.00783302
0.00179192
0.000218753
1.53199e-05
7.83592e-07
3.46045e-08
1.30967e-09
7.82456
0.123115
0.00377324
0.000420141
2.10204e-05
8.36968e-07
3.04135e-08
297202
4950.03
0.776565
0.00736624
0.000482612
1.8309e-05
6.01241e-07
518856
63122.4
2.94662
0.00750465
0.000310105
9.57742e-06
467743
507695
1.11527
0.00301336
0.000109806
466621
267732
0.00360594
0.000559757
5.46424e-08
8.06176e-09
7.71252e-10
0
0
0
0
1.61937e-06
2.50817e-07
2.63244e-08
1.8772e-09
4.36557e-11
0
0
4.09975e-05
7.05585e-06
7.71703e-07
5.64032e-08
3.21597e-09
1.01863e-10
0
0.00089379
0.000209359
2.21059e-05
1.54642e-06
8.43575e-08
3.98722e-09
1.01863e-10
0.0314816
0.0038826
0.000599951
4.06618e-05
2.04811e-06
9.10513e-08
3.52156e-09
98017.8
333.392
0.00904369
0.000908447
4.55683e-05
1.85252e-06
6.87287e-08
366764
233521
3529.04
0.0138026
0.000792162
3.13724e-05
1.08541e-06
372347
25632.4
1402.04
0.00822454
0.000383215
1.22767e-05
338748
280941
29.102
0.00204992
8.36998e-05
6.24277e-09
8.14907e-10
0
0
0
0
0
1.90252e-07
2.75468e-08
2.663e-09
1.45519e-10
0
0
0
5.07945e-06
7.82617e-07
7.74307e-08
5.50062e-09
2.61934e-10
0
0
0.000123287
2.15856e-05
2.12058e-06
1.44937e-07
8.00355e-09
3.34694e-10
0
0.0029711
0.0005967
5.70624e-05
3.61424e-06
1.88258e-07
8.73115e-09
3.0559e-10
0.142924
0.00830407
0.00137914
8.51765e-05
4.0312e-06
1.74536e-07
6.75209e-09
574.554
1489.25
0.0206412
0.00161193
7.54941e-05
2.99896e-06
1.10056e-07
305004
32335.4
3218.94
0.0197307
0.000996898
3.90368e-05
1.37738e-06
26512.6
352.873
0.00548889
0.000332509
1.13998e-05
4.36557e-10
0
0
0
0
0
0
1.52213e-08
2.03727e-09
1.45519e-10
0
0
0
0
4.15137e-07
5.80912e-08
5.42786e-09
3.34694e-10
0
0
0
1.04614e-05
1.52188e-06
1.42871e-07
9.82254e-09
4.94765e-10
0
0
0.000248907
3.87569e-05
3.50924e-06
2.30895e-07
1.26311e-08
5.67525e-10
0
0.00638079
0.000932726
8.26467e-05
4.98681e-06