/*--------------------------------*- C++ -*----------------------------------*\
  =========                 |
  \\      /  F ield         | OpenFOAM: The Open Source CFD Toolbox
   \\    /   O peration     | Website:  https://openfoam.org
    \\  /    A nd           | Version:  9
     \\/     M anipulation  |
\*---------------------------------------------------------------------------*/
FoamFile
{
    format      ascii;
    class       volVectorField;
    location    "0.0021";
    object      rhoU;
}
// * * * * * * * * * * * * * * * * * * * * * * * * * * * * * * * * * * * * * //

dimensions      [1 -2 -1 0 0 0 0];

internalField   nonuniform List<vector> 
17317
(
(1278.48 104.4 49.0257)
(119.457 9.58288 2.85916)
(125.152 10.8353 44.6692)
(6.74671 0.468518 1.89037)
(0.10704 0.00712086 0.0450268)
(7.23827e-05 8.36434e-06 2.46077e-05)
(0.00044834 3.05895e-05 0.000160732)
(1.19076e-05 1.62251e-06 3.82139e-06)
(114.266 15.9762 91.2856)
(0.00616414 0.000505226 0.00379454)
(2.68104e-05 3.22505e-06 1.0494e-05)
(2.03215e-06 2.82982e-07 7.10343e-07)
(524.142 75.9098 480.496)
(418.409 81.2047 306.913)
(795.104 106.907 700.793)
(772.288 102.509 588.332)
(880.463 248.317 638.487)
(241.148 71.8135 199.051)
(770.981 193.853 751.9)
(419.898 106.423 348.957)
(300.651 44.7605 232.888)
(402.804 57.7286 296.4)
(310.753 62.8048 240.025)
(382.56 56.5414 318.84)
(397.492 79.5429 330.934)
(532.471 74.4943 423.762)
(558.186 106.066 443.901)
(101.995 16.4388 92.0287)
(230.208 40.1862 281.483)
(392.277 62.2688 432.925)
(222.232 35.2867 202.851)
(256.309 89.2753 267.995)
(607.822 157.044 634.485)
(149.782 55.1455 131.171)
(334.44 107.088 290.249)
(137.761 30.5071 121.355)
(105.369 24.135 95.5931)
(133.197 21.3476 117.167)
(133.701 22.3702 133.39)
(138.211 31.9697 138.217)
(172.076 28.1076 164.259)
(177.853 39.688 169.872)
(143.118 41.7232 125.588)
(195.629 69.6042 185.797)
(149.834 57.3609 148.683)
(108.573 33.6036 98.2813)
(115.696 44.264 107.197)
(143.731 43.4877 143.466)
(185.894 53.2054 177.11)
(174.498 30.0094 193.605)
(296.479 49.4873 343.214)
(222.94 37.0187 234.436)
(238.184 56.3916 291.097)
(180.335 42.3455 200.099)
(230.518 51.9579 242.192)
(307.567 69.5047 355.897)
(174.41 27.4962 148.064)
(288.732 44.3723 251.879)
(228.585 35.1285 185.972)
(236.075 49.392 191.638)
(180.259 38.8532 152.882)
(229.66 49.557 209.481)
(298.688 62.2082 260.282)
(347.229 120.225 401.039)
(265.732 96.8378 323.729)
(198.694 73.5047 219.356)
(249.678 74.8981 304.799)
(188.403 56.4869 208.719)
(241.423 69.0509 253.028)
(323.917 92.6428 374.418)
(262.205 85.2751 211.002)
(247.194 65.8431 199.822)
(198.169 68.4024 166.603)
(188.385 52.2534 159.206)
(255.019 85.5348 231.702)
(240.452 66.0142 218.894)
(313.422 82.8119 272.506)
(452.669 138.494 375.334)
(325.856 83.5731 250.691)
(347.844 107.915 266.248)
(477.286 141.333 346.408)
(442.084 108.629 322.769)
(654.025 189.969 516.984)
(597.968 143.792 474.389)
(287.894 45.945 287.784)
(379.852 58.0279 362.83)
(542.978 81.2598 572.628)
(570.08 116.094 598.713)
(395.09 81.7401 377.169)
(409.036 88.0143 451.124)
(298.201 64.4073 297.658)
(417.82 109.529 398.45)
(434.005 118.291 478.819)
(654.4 205.149 677.75)
(470.212 155.019 518.816)
(450.586 142.862 429.522)
(334.495 111.052 333.02)
(313.152 85.7641 312.173)
(885.27 71.3584 25.9204)
(347.315 30.0008 104.152)
(1357.82 114.011 251.043)
(1344.06 212.269 51.3399)
(491.769 99.7734 13.827)
(123.093 24.7519 36.3672)
(1417.1 227.657 267.74)
(0.0742453 0.00810465 0.0478466)
(848.584 108.058 595.33)
(369.135 46.9529 227.043)
(0.0161845 0.00392628 0.010352)
(10.0882 2.43462 4.98785)
(27.2354 7.64649 21.2665)
(594.359 161.048 369.847)
(737.789 104.944 725.726)
(826.266 115.281 769.223)
(746.848 102.387 648.602)
(753.851 147.936 738.455)
(549.991 108.164 503.683)
(770.546 145.438 667.331)
(825.356 159.36 765.244)
(897.781 117.979 660.273)
(825.113 106.714 553.825)
(569.908 77.2096 397.074)
(846.99 151.278 569.897)
(598.306 110.012 415.316)
(798.19 145.816 607.852)
(897.255 163.349 658.196)
(889.306 249.312 598.001)
(870.053 199.477 586.401)
(700.425 197.173 483.364)
(641.135 149.258 443.81)
(851.034 243.938 646.632)
(826.284 193.527 629.471)
(894.041 207.947 652.119)
(589.327 146.716 537.688)
(785.44 241.313 762.207)
(642.357 193.377 583.063)
(818.623 241.968 703.253)
(806.559 241.029 740.37)
(796.105 192.403 686.894)
(820.299 202.176 757.194)
(1314.16 108.911 145.311)
(1304.47 154.656 49.9303)
(1340.19 160.584 148.705)
(1621.86 196.61 181.421)
(1599.83 130.721 57.4373)
(1617.09 133.652 179.805)
(1606.21 192.995 57.6175)
(1516 134.538 527.094)
(0.921318 0.0654215 0.345577)
(1443.27 134.37 721.262)
(0.239585 0.0356007 0.0876215)
(720.197 156.304 421.33)
(36.5348 6.65822 11.8586)
(1544.38 320.47 554.748)
(1379 219.334 153.987)
(1393.63 278.174 53.1767)
(1425.91 286.345 160.812)
(1628.58 261.737 183.46)
(1616.75 323.529 57.4633)
(1623.59 326.323 184.052)
(1615.57 257.949 57.7845)
(1432.62 122.997 376.993)
(1381.22 167.517 258.013)
(1451.49 179.804 387.348)
(1611.47 197.872 312.991)
(1587.55 135.352 435.095)
(1573.99 195.657 435.649)
(1612.29 135.14 309.858)
(514.292 68.2311 430.164)
(865.122 116.874 716.13)
(837.885 109.547 657.797)
(865.619 161.916 714.245)
(443.173 82.6194 369.103)
(766.682 142.94 673.719)
(809.064 146.574 632.877)
(1458.1 295.514 279.564)
(1511.95 309.852 416.61)
(1480.98 242.224 401.546)
(1606.96 260.627 315.676)
(1508.98 303.667 425.16)
(1588.08 320.274 315.344)
(1551.39 253.007 433.416)
(928.007 119.139 605.511)
(824.042 102.374 515.116)
(777.51 134.553 484.749)
(923.387 164.399 601.821)
(813.954 143.865 569.06)
(398.676 72.0807 271.734)
(477.112 61.054 325.205)
(703.8 155.97 437.93)
(667.179 183.103 462.472)
(886.483 243.695 574.026)
(912.044 207.264 593.316)
(756.584 170.605 526.63)
(299.423 70.0607 203.132)
(193.28 55.3184 129.768)
(682.256 191.421 528.69)
(852.861 247.198 694.926)
(645.978 186.822 561.839)
(863.547 206.315 708.178)
(349.66 84.532 289.984)
(720.007 171.241 629.849)
(760.152 175.533 591.936)
(1543.42 141.257 661.827)
(1524.92 194.652 535.686)
(1531.59 200.3 662.21)
(1498.83 129.665 528.293)
(1467.08 183.872 519.954)
(1280.3 112.936 543.247)
(1212.89 154.804 518.585)
(22.2178 1.61902 5.58906)
(0.0167759 0.00118023 0.000214925)
(0.00330904 0.000261773 0.000665756)
(36.8714 6.59002 0.745052)
(6.58078 1.0518 1.54384)
(0.00529534 0.000877743 8.99741e-05)
(0.00139107 0.000235146 0.000269679)
(1511.43 181.486 166.497)
(1573.03 126.828 51.6349)
(806.916 65.7933 88.7213)
(786.428 95.7812 22.9091)
(707.834 87.0699 78.6558)
(1553.63 126.123 170.728)
(1536.78 183.659 50.1032)
(1477.61 306.984 646.64)
(1537.89 257.224 546.142)
(1512.92 256.838 659.036)
(1326.11 267.033 476.674)
(1414.27 231.467 504.3)
(1110.83 185.241 479.414)
(962.374 198.519 421.156)
(36.6848 4.75196 27.4711)
(121.503 32.7209 177.834)
(106.666 50.8393 165.785)
(71.7364 13.691 89.7547)
(66.4793 20.7917 64.7859)
(82.2848 14.0115 88.0743)
(164.012 67.6905 225.541)
(150.099 38.6937 207.131)
(52.6568 8.72148 57.1003)
(39.7371 7.7152 34.2344)
(54.577 14.315 59.9358)
(47.063 7.01711 39.8902)
(49.173 11.5332 43.5704)
(65.4395 11.1031 71.2653)
(67.4366 17.4756 74.1564)
(97.3458 -71.8322 127.456)
(49.6766 0.372907 54.3581)
(57.7858 19.622 66.4486)
(55.6184 12.9865 57.2355)
(84.557 -16.6267 98.955)
(69.6317 24.6519 77.2278)
(78.9318 28.8004 92.9481)
(60.7112 9.56734 54.2207)
(104.454 17.7381 108.464)
(78.4892 12.595 71.3685)
(62.5139 15.2257 56.8647)
(80.8337 19.2405 74.2222)
(84.8034 21.2043 91.5021)
(107.886 25.9324 112.568)
(99.6058 28.2267 154.032)
(117.949 23.0225 171.847)
(96.7905 19.543 148.615)
(88.3432 16.1561 113.578)
(72.0852 13.3469 95.8608)
(74.376 20.4149 99.8636)
(91.1424 23.8957 117.937)
(83.2991 16.01 88.8777)
(83.4636 26.9827 77.856)
(94.1995 32.9248 93.4323)
(87.0213 29.8914 93.7529)
(116.12 47.5273 120.653)
(93.2051 38.7684 102.634)
(111.303 35.9803 115.984)
(131.17 58.2523 191.869)
(125.949 44.1787 184.824)
(102.77 38.522 160.058)
(82.0209 36.8672 112.096)
(76.4652 28.7695 103.334)
(93.7853 33.4197 121.695)
(98.1588 44.2027 126.624)
(145.502 27.4567 200.397)
(109.658 19.7845 135.073)
(137.688 24.3576 161.27)
(181.805 33.0504 235.871)
(187.782 46.4373 243.746)
(113.233 28.5385 139.977)
(142.247 34.6296 166.887)
(207.554 80.1173 268.131)
(121.735 52.0483 149.499)
(154.775 61.5279 180.531)
(156.3 51.7176 215.615)
(196.285 61.7502 254.307)
(117.19 39.2508 144.936)
(148.083 46.7401 173.557)
(0.00133872 0.000103278 0.000607553)
(446.351 46.3681 279.339)
(0.508407 0.0458399 0.275888)
(0.11884 0.0221618 0.0657298)
(0.000603931 0.000102252 0.000275622)
(0.0269437 0.00470483 0.0112678)
(15.5048 3.01211 9.38141)
(1395.54 168.609 276.007)
(613.806 51.1781 128.293)
(1241.91 103.11 347.543)
(278.246 35.8594 84.025)
(523.116 65.5628 110.852)
(1165.09 142.712 329.615)
(1452.34 118.862 284.885)
(1440.49 228.325 159.014)
(650.744 105.896 18.6983)
(1377.38 269.891 43.7519)
(425.195 86.8311 48.5477)
(1330.27 261.422 147.187)
(576.145 94.4991 64.7961)
(1476.27 233.178 47.5972)
(1307.23 208.405 261.122)
(197.382 33.3072 59.6317)
(281.853 58.1249 61.4438)
(884.319 178.402 259.385)
(1177.47 232.813 238.169)
(407.75 67.9358 87.7474)
(1049.06 169.708 301.141)
(1104.78 106.433 626.383)
(1017.48 139.011 582.104)
(1406.12 185.932 706.008)
(271.538 27.1378 152.782)
(828.58 77.1205 417.587)
(727.536 97.8153 370.022)
(207.43 29.4033 116.094)
(526.852 68.2923 397.079)
(81.5375 15.8737 64.7764)
(451.023 82.3633 339.639)
(74.6168 14.0352 52.4943)
(10.8245 1.37019 8.02565)
(7.43699 1.29169 5.47054)
(105.187 14.3496 75.2605)
(3.39254 0.371661 1.57797)
(0.00186638 0.000130801 0.000752327)
(0.00034924 3.34574e-05 0.000179662)
(0.00214493 0.00039089 0.000908149)
(0.000296805 5.21759e-05 0.000136211)
(0.00184212 0.000385376 0.00104671)
(0.744019 0.164661 0.330817)
(43.5596 5.41032 23.6593)
(30.0847 5.08513 15.96)
(294.333 53.0073 180.341)
(53.1977 9.55959 32.8774)
(6.23378 0.716813 3.3865)
(4.24359 0.670349 2.28177)
(76.7309 10.0918 48.2805)
(1258.8 262.318 638.282)
(888.372 157.068 514.343)
(1349.03 230.224 680.427)
(591.591 103.887 303.521)
(84.9953 17.7709 44.5937)
(432.183 93.4298 222.422)
(142.065 25.4498 77.624)
(884.629 76.2588 319.977)
(93.203 11.638 32.726)
(783.743 99.7331 287.481)
(30.6283 2.41635 11.2568)
(431.098 39.3259 189.064)
(351.398 46.9578 154.739)
(22.733 2.54958 8.11446)
(0.00140315 8.78744e-05 0.0003076)
(0.000414438 3.6941e-05 0.00014285)
(0.0471363 0.00292961 0.0163039)
(0.0122775 0.00207311 0.0042066)
(0.000240888 3.20858e-05 8.36576e-05)
(1.89548 0.285388 0.500528)
(0.00100715 0.00014344 0.000229976)
(18.4813 3.83112 9.48938)
(122.683 34.5852 73.3412)
(207.244 48.1397 125.861)
(32.2775 7.10799 19.4754)
(1.36223 0.312507 0.710124)
(17.5406 4.46717 10.2354)
(2.55281 0.498327 1.35435)
(239.485 69.6991 178.496)
(50.7456 12.2489 40.0205)
(352.447 83.4255 264.386)
(45.7613 10.5996 31.6873)
(2.39249 0.603735 1.72796)
(24.5762 6.59277 16.6581)
(4.4752 0.960436 3.26403)
(61.4233 9.6501 20.8915)
(485.688 101.345 183.375)
(646.568 108.689 240.878)
(255.649 44.7191 112.636)
(8.91748 1.47726 2.94103)
(162.101 34.1621 70.2067)
(15.0923 2.12986 5.19316)
(58.7862 6.04106 36.8069)
(357.865 52.4116 224.519)
(41.5808 5.77569 25.9095)
(35.8755 3.32684 19.7261)
(25.8225 3.262 13.9497)
(3.49696 0.296764 1.91972)
(2.47252 0.287267 1.35411)
(95.612 7.61402 10.352)
(90.456 10.7867 2.09341)
(71.9193 8.48309 7.67898)
(6.59366 0.431376 0.105449)
(5.22343 0.3397 0.467053)
(3.89825 0.380086 0.345501)
(4.92819 0.483593 0.0766065)
(60.8076 9.27808 1.32846)
(29.3684 5.15979 2.93439)
(48.3416 7.2558 5.01848)
(2.59255 0.323176 0.226531)
(1.95813 0.293501 0.0277786)
(1.54687 0.230015 0.132629)
(3.27888 0.41225 0.0489181)
(162.276 36.4357 100.358)
(256.257 48.0496 160.75)
(26.5706 4.49401 16.3792)
(9.77628 1.75561 4.9889)
(16.7784 2.60263 8.82814)
(1.56725 0.224332 0.852982)
(0.890711 0.148755 0.479915)
(9.14678e-05 6.24214e-06 3.28744e-05)
(0.0665545 0.00594786 0.0279203)
(0.0013826 0.000133011 0.000505231)
(0.000721939 0.000136208 0.000272583)
(5.87654e-05 1.36499e-05 2.06522e-05)
(0.00374213 0.000879222 0.00135717)
(0.000283551 6.29704e-05 9.04031e-05)
(6.20201 0.458566 2.18073)
(17.3078 1.42593 7.70429)
(112.534 10.4161 52.7745)
(82.4745 10.7339 37.5741)
(0.660739 0.0660689 0.246128)
(4.48277 0.46953 1.55083)
(12.5915 1.44457 5.4873)
(54.6393 4.22086 10.8659)
(16.6785 1.77463 4.12053)
(41.0539 4.64605 8.01578)
(1.1585 0.0723092 0.249012)
(2.93973 0.187536 0.492011)
(2.19183 0.208955 0.363413)
(0.857789 0.0794675 0.182726)
(11.1298 1.50943 2.68763)
(16.8449 2.84212 3.09499)
(27.6995 3.9744 5.25793)
(1.45645 0.176574 0.237023)
(0.329068 0.0466028 0.0686617)
(0.863766 0.126219 0.138092)
(0.562911 0.0660909 0.119381)
(6.29726 1.04291 3.95421)
(0.915847 0.105775 0.629293)
(0.73035 0.0804829 0.425805)
(0.0502234 0.00787754 0.0321646)
(0.62159 0.100747 0.424909)
(0.493939 0.0774086 0.286523)
(9.22619 1.11371 5.85443)
(53.5186 8.64399 23.307)
(0.420924 0.0524162 0.155537)
(4.66384 0.774012 1.92971)
(1.6736 0.258892 0.550827)
(31.4985 5.84126 12.9866)
(2.88845 0.378321 0.978102)
(8.14326 1.16114 3.45766)
(2.31965 0.350987 1.06616)
(0.471254 0.0498491 0.235646)
(0.319001 0.0481051 0.158658)
(0.249138 0.0250682 0.106799)
(0.167882 0.0258048 0.0715527)
(0.0347019 0.00343677 0.0163745)
(0.0233173 0.00354662 0.0109188)
(4.94655 0.497369 1.36752)
(1.61797 0.107187 0.48197)
(1.18677 0.113902 0.34751)
(0.340541 0.0204589 0.081426)
(0.248972 0.0232213 0.0591742)
(0.0603354 0.00562736 0.016601)
(0.082679 0.00488913 0.0229825)
(3.77765 0.771596 2.34523)
(0.0301564 0.00514029 0.0193085)
(0.154873 0.0372208 0.0884043)
(0.196181 0.0480653 0.132339)
(2.01429 0.484542 1.23358)
(0.371862 0.0726054 0.252723)
(0.29461 0.0531534 0.169706)
(5.24511 0.487747 3.15034)
(0.351521 0.044551 0.191626)
(3.66508 0.46374 2.20668)
(0.0324196 0.00259064 0.0159854)
(0.314002 0.0252221 0.173377)
(0.219401 0.0257195 0.12149)
(0.0225888 0.00282323 0.0110903)
(0.0524812 0.013513 0.0221785)
(1.39967 0.261656 0.632739)
(0.0997409 0.022765 0.048822)
(0.190424 0.0334189 0.094116)
(0.0996855 0.0141191 0.0424201)
(0.0141052 0.00179151 0.0064576)
(0.00765387 0.00194647 0.00347823)
(3.23192 0.411157 0.8757)
(0.448708 0.0650312 0.125175)
(0.773748 0.0940535 0.221581)
(0.0937923 0.0141276 0.02109)
(0.162128 0.0173259 0.0369028)
(0.0393817 0.00413987 0.0113073)
(0.0227485 0.00345923 0.00639684)
(2.0172 0.155979 0.935199)
(0.0756541 0.00809573 0.0317974)
(1.43929 0.154477 0.662595)
(0.0111436 0.000769081 0.00506038)
(0.196462 0.0145357 0.098233)
(0.138388 0.0149966 0.0692)
(0.00790515 0.000866205 0.00356707)
(0.000822081 7.34282e-05 0.000313686)
(1.70128e-05 3.01902e-06 6.44764e-06)
(0.000181094 1.3581e-05 6.99768e-05)
(9.63778e-05 1.87538e-05 3.95829e-05)
(1.24867e-05 2.24378e-06 4.82099e-06)
(0.00107062 0.000129333 0.000430879)
(4.54502e-05 6.15455e-06 1.54694e-05)
(0.343086 0.0197312 0.00426256)
(0.0133192 0.000969169 0.00106364)
(0.271201 0.0156396 0.0220513)
(0.201771 0.0180295 0.0163828)
(0.0125041 0.00101685 0.00016075)
(0.255773 0.0229266 0.00313787)
(0.00993682 0.000784015 0.000770078)
(1.29709 0.233752 0.781648)
(0.216219 0.0326443 0.118819)
(2.29648 0.356162 1.38525)
(0.136722 0.018599 0.075821)
(0.00797696 0.00162807 0.00382895)
(0.0758692 0.0136409 0.0420346)
(0.0141362 0.00190991 0.00692137)
(0.047586 0.00479377 0.0200212)
(0.51944 0.0815333 0.233568)
(0.915716 0.121674 0.41662)
(0.0868276 0.0109904 0.043389)
(0.00312195 0.000516643 0.00146733)
(0.0485015 0.0080719 0.024182)
(0.00513692 0.000481947 0.00238896)
(0.317238 0.0206987 0.0958266)
(0.0335805 0.00342095 0.0116215)
(0.22883 0.0217053 0.0687546)
(0.0115962 0.00122502 0.00315291)
(0.00303284 0.000173378 0.0012192)
(0.00227244 0.000228685 0.000898642)
(0.0158735 0.00073952 0.00429403)
(0.0581315 0.00329143 0.0117318)
(0.00758616 0.000522506 0.00114177)
(0.15081 0.00864372 0.0230548)
(0.111704 0.00993063 0.0169873)
(0.00258082 0.000218434 0.000497508)
(0.042755 0.00381357 0.0085682)
(0.00570547 0.000487024 0.000840353)
(0.132708 0.015007 0.0107122)
(0.00855058 0.000877407 0.000127962)
(0.0995719 0.0136487 0.00117717)
(0.00429986 0.000732541 0.000345096)
(0.0782063 0.0107305 0.00626882)
(0.168551 0.0191716 0.00202503)
(0.00685848 0.000686158 0.00055895)
(0.0213921 0.00205419 0.00732284)
(0.083783 0.0120239 0.0245485)
(0.146348 0.0172483 0.0434834)
(0.00760926 0.000630374 0.00206581)
(0.00119122 0.000203072 0.000457462)
(0.00461857 0.000798945 0.00122651)
(0.00167888 0.000126694 0.000635999)
(0.0539062 0.00563143 0.0295977)
(0.00445078 0.000633475 0.00279053)
(0.0360064 0.00565499 0.0196831)
(0.00141682 0.000117081 0.000853327)
(0.0046913 0.000359616 0.00232002)
(0.00354039 0.000411716 0.00170736)
(0.00137696 3.39524e-05 0.000811296)
(0.0727991 0.00805546 0.010912)
(0.00192204 0.000209818 0.000369412)
(0.0161333 0.00230249 0.00318172)
(0.0025524 0.00039867 0.000410245)
(0.0425383 0.00587147 0.00631516)
(0.0276901 0.0029226 0.00558309)
(0.00391757 0.000423288 0.000608833)
(0.0455485 0.0059878 0.0190988)
(0.0134345 0.000906008 0.00458031)
(0.00966653 0.00145151 0.00335002)
(0.00577658 0.000383229 0.00193839)
(0.00457176 0.000587309 0.00146835)
(0.00264694 0.000186694 0.000899832)
(0.00237546 0.00025425 0.000811781)
(2.02968e-05 2.97961e-06 9.15232e-06)
(0.000153469 1.68009e-05 6.24024e-05)
(3.4998e-05 4.2036e-06 1.59954e-05)
(0.000119345 1.71367e-05 4.31338e-05)
(2.86648e-05 5.09241e-06 1.30278e-05)
(2.30945e-05 3.82895e-06 8.98783e-06)
(1.88064e-05 3.25138e-06 8.49426e-06)
(0.0164473 0.0016458 0.00669774)
(0.00160641 0.000116158 0.000646814)
(0.0111824 0.00144865 0.0045543)
(0.000994787 8.06718e-05 0.0004798)
(0.00283902 0.000229555 0.00134241)
(0.00218566 0.000224943 0.001079)
(0.000982287 2.24179e-05 0.000473536)
(0.0159541 0.00092427 0.00338734)
(0.00124329 9.45321e-05 0.000276193)
(0.0116605 0.00105083 0.00245487)
(0.00340881 0.000330911 0.000861465)
(0.000929403 5.35422e-05 0.000278943)
(0.000898409 6.80598e-05 0.000271811)
(0.00440926 0.000197504 0.00109039)
(0.0144237 0.00284734 0.00607738)
(0.0262072 0.00389427 0.0110705)
(0.00591051 0.000844071 0.00202595)
(0.00241011 0.000523546 0.000743667)
(0.00305971 0.000439498 0.00101345)
(0.0019394 0.000324103 0.000673419)
(0.00169854 0.000376279 0.000607191)
(141.689 -2.90107 -9.67479)
(498.832 -195.24 126.087)
(114.893 -54.6084 22.0612)
(567.383 -221.239 179.958)
(164.992 -89.1476 148.705)
(433.618 -133.265 237.748)
(716.111 -315.51 437.648)
(407.147 -87.5657 13.3313)
(464.144 -107.151 118.917)
(121.975 -45.2767 152.05)
(1010.02 -230.994 545.797)
(280.803 -83.9491 210.047)
(181.953 -357.301 18.0892)
(297.586 -184.268 15.3246)
(237.102 -436.921 145.611)
(367.898 -242.581 120.674)
(525.091 -998.603 613.446)
(481.837 -378.35 343.914)
(776.955 -637.393 596.829)
(163.523 -45.5965 -1.84147)
(540.85 -232.033 141.001)
(127.895 -69.383 23.0523)
(613.29 -261.947 201.76)
(190.825 -111.853 154.04)
(622.812 -296.429 339.183)
(840.251 -402.231 504.198)
(153.392 -19.6229 -5.27335)
(132.989 -21.6431 6.80242)
(131.76 -12.1376 4.05785)
(227.224 -95.4098 21.1156)
(247.8 -81.9816 4.76647)
(244.509 -42.592 -1.71808)
(206.847 -53.0628 11.6622)
(134.113 -33.337 164.305)
(172.53 -56.876 221.184)
(302.384 -85.7023 189.856)
(429.706 -115.537 322.877)
(283.551 -39.537 187.537)
(166.697 -23.1017 224.568)
(383.637 -45.6645 304.772)
(136.772 -76.3297 68.8472)
(98.7764 -31.7402 21.0116)
(107.846 -51.6052 66.869)
(244.871 -111.511 42.8108)
(370.42 -171.337 164.811)
(208.525 -64.7279 27.8966)
(256.297 -86.5191 86.8843)
(131.048 -60.1987 146.12)
(427.839 -194.402 239.331)
(637.592 -281.502 428.348)
(250.224 -127.882 254.238)
(182.366 -70.0819 224.414)
(237.404 -83.6823 170.388)
(462.876 -145.69 338.236)
(147.433 -10.4553 -7.6371)
(143.363 -11.4977 -4.75066)
(139.581 -3.88059 -8.45328)
(173.134 -12.9126 -7.87243)
(168.296 -14.5033 -4.22996)
(171.247 -22.943 -1.40125)
(178.102 -21.2225 -5.60299)
(415.721 -95.6674 82.5263)
(282.147 -48.9204 0.627495)
(257.971 -40.0061 13.1387)
(281.137 -22.4724 -4.79116)
(408.186 -43.604 9.95216)
(247.823 -25.9159 9.93788)
(402.429 -44.2614 65.4399)
(140.149 -47.8698 8.965)
(238.936 -113.824 28.0092)
(250.357 -97.8027 6.56019)
(278.905 -156.206 12.8292)
(293.957 -182.393 67.2192)
(179.729 -103.097 1.60895)
(166.396 -112.626 13.3941)
(147.274 -21.0163 -1.70552)
(158.585 -31.2396 -3.20728)
(151.111 -32.8423 0.635219)
(174.494 -33.5811 1.11128)
(186.943 -45.143 -1.16269)
(177.827 -46.5643 3.05181)
(183.009 -31.8796 -3.23251)
(131.589 -5.01262 -0.282229)
(111.7 -17.8045 5.9188)
(112.783 -9.56372 4.061)
(137.395 -23.9858 5.22016)
(156.2 -16.3362 3.83005)
(156.582 -24.7462 6.92641)
(138.473 -33.3657 7.0059)
(142.351 -25.9745 171.144)
(153.979 -24.9958 209.477)
(147.521 -33.8601 203.884)
(176.059 -30.506 169.54)
(170.833 -39.9333 164.198)
(193.135 -29.71 217.67)
(189.56 -40.5352 213.392)
(126.389 -39.8596 157.626)
(137.834 -48.9489 195.194)
(141.203 -41.6475 198.781)
(166.491 -56.6883 156.658)
(166.662 -48.2682 159.621)
(186.85 -50.8091 210.041)
(188.12 -61.1251 208.679)
(189.897 -61.3797 213.264)
(469.187 -125.696 317.882)
(770.128 -198.371 473.313)
(174.224 -23.2239 212.79)
(416.491 -49.0948 298.705)
(247.702 -33.0624 188.338)
(641.058 -74.2187 397.768)
(444.673 -172.224 21.3176)
(273.334 -115.41 37.661)
(283.536 -100.176 7.87303)
(407.441 -104.24 15.2399)
(426.442 -115.7 91.3221)
(282.098 -59.983 2.78744)
(257.346 -60.5532 18.7445)
(234.825 -42.6643 3.63341)
(208.283 -26.0288 -5.87941)
(200.15 -27.4829 -0.669433)
(202.169 -37.032 2.06056)
(245.474 -54.0991 1.02579)
(235.965 -53.8353 5.77275)
(211.411 -35.8558 -2.93749)
(99.816 -45.016 42.0292)
(97.428 -23.4972 20.8811)
(95.3581 -37.1302 42.5919)
(126.951 -37.9338 20.4537)
(131.208 -50.4495 42.7379)
(131.254 -47.299 21.4259)
(139.002 -60.0909 43.4916)
(157.153 -94.4437 72.0119)
(262.406 -131.534 51.9697)
(406.665 -206.051 181.54)
(334.504 -208.576 99.1583)
(179.396 -128.136 34.5975)
(267.397 -194.603 137.276)
(549.025 -343.524 266.732)
(135.729 -33.5708 8.28291)
(119.192 -41.131 7.75945)
(113.759 -28.4429 7.26185)
(158.412 -35.5121 9.21543)
(149.818 -58.3225 9.15745)
(142.638 -44.8036 8.29917)
(161.998 -48.6345 10.6722)
(118.467 -56.1163 100.558)
(101.315 -43.7706 68.2133)
(111.202 -48.189 102.592)
(156.25 -62.2279 105.996)
(142.619 -57.5694 69.4211)
(152.973 -67.8852 70.0988)
(167.968 -73.6314 106.799)
(248.852 -52.2996 31.4922)
(778.907 -180.643 351.198)
(340.101 -76.2835 147.614)
(265.742 -34.9952 55.34)
(440.582 -47.9796 96.9719)
(328.393 -43.0692 144.149)
(703.141 -76.6995 299.726)
(155.313 -47.0109 1.91403)
(168.243 -62.6733 -0.76661)
(160.078 -63.3815 2.66511)
(190.463 -61.1383 0.363397)
(181.595 -61.9218 4.17008)
(186.389 -79.4023 4.8864)
(194.304 -79.3216 1.74681)
(161.929 -23.7071 225.154)
(166.735 -33.768 222.237)
(159.08 -33.4903 221.469)
(219.078 -28.8926 244.207)
(207.067 -28.6846 240.099)
(206.701 -40.7253 238.1)
(221.084 -42.0622 243.333)
(204.488 -49.0002 4.28304)
(216.196 -62.9308 1.70109)
(239.609 -82.3574 8.33411)
(246.537 -67.3427 3.09142)
(237.477 -67.0882 7.31954)
(207.155 -63.2379 5.75568)
(214.049 -48.2652 -0.243871)
(219.3 -44.8321 12.1557)
(169.047 -38.8717 7.36481)
(185.322 -30.0739 7.61328)
(186.138 -39.5929 10.2782)
(210.984 -64.9707 13.944)
(220.509 -55.8757 14.6261)
(171.834 -49.1963 9.28967)
(123.153 -51.761 148.078)
(140.161 -56.9032 193.562)
(149.519 -66.6148 194.256)
(172.71 -66.3342 155.488)
(196.01 -72.5426 209.663)
(186.055 -78.7995 156.808)
(211.528 -86.7488 213.575)
(156.249 -52.9007 217.988)
(167.95 -44.8993 220.737)
(156.489 -43.1567 218.64)
(207.586 -53.103 237.644)
(235.314 -71.6998 246.794)
(212.399 -66.0835 239.505)
(225.732 -56.1954 243.752)
(272.375 -22.4829 1.65027)
(281.405 -30.4363 -3.59801)
(272.208 -30.417 2.59311)
(313.204 -40.7806 8.60139)
(322.532 -30.9042 1.38234)
(313.22 -30.402 8.09654)
(322.677 -41.1247 2.05966)
(104.716 -42.1135 21.3998)
(123.624 -67.3665 43.6428)
(109.582 -54.8885 42.5071)
(151.931 -72.8232 24.4554)
(139.859 -58.9193 22.6418)
(151.516 -72.1036 45.1359)
(167.573 -87.0145 47.9425)
(280.111 -142.545 250.082)
(410.584 -205.919 291.394)
(918.954 -416.412 564.703)
(302.276 -106.178 223.587)
(203.784 -76.8124 217.911)
(505.896 -158.978 334.176)
(832.016 -254.127 510.837)
(386.129 -85.0418 218.802)
(589.189 -151.661 391.171)
(1332.32 -315.98 771.218)
(370.188 -47.0993 214.678)
(882.8 -94.3268 458.519)
(515.578 -59.4666 356.731)
(1331.08 -136.472 752.265)
(322.807 -212.719 84.1247)
(188.633 -124.797 3.7275)
(183.243 -135.01 22.1077)
(233.588 -199.212 11.9468)
(417.236 -324.597 24.2998)
(249.622 -219.086 69.5107)
(469.536 -360.593 141.999)
(474.863 -236.387 262.985)
(738.416 -353.996 485.115)
(285.898 -157.623 271.24)
(350.2 -246.439 266.883)
(445.668 -304.381 355.992)
(665.432 -410.403 383.263)
(1180.04 -695.532 775.605)
(220.74 -34.4438 173.69)
(285.214 -54.1199 186.114)
(218.872 -46.006 170.124)
(318.677 -41.2256 255.084)
(245.108 -34.419 231.194)
(244.732 -47.7448 228.471)
(322.182 -57.9322 254.433)
(127.308 -55.8713 7.89167)
(137.984 -72.7658 7.95899)
(146.634 -64.4631 9.3535)
(159.637 -74.0415 9.81833)
(167.578 -64.0659 11.5507)
(175.416 -81.6937 12.5934)
(172.017 -92.0049 11.5645)
(324.107 -483.938 27.1691)
(109.988 -238.824 6.3534)
(180.689 -273.38 14.4302)
(207.751 -384.749 102.112)
(360.194 -546.15 160.622)
(125.32 -223.93 25.2736)
(205.897 -284.752 75.4152)
(188.636 -51.4648 12.3486)
(186.22 -76.2389 12.3977)
(228.331 -84.7347 19.2529)
(217.815 -79.0368 16.8685)
(223.428 -69.1383 16.9126)
(177.607 -61.5822 10.7401)
(193.052 -65.6926 13.8574)
(119.944 -62.2403 67.2089)
(149.753 -83.0153 102.658)
(131.463 -67.4751 100.65)
(168.627 -81.2386 72.3677)
(208.651 -108.001 114.811)
(185.685 -88.5018 109.675)
(188.403 -98.5955 76.3997)
(272.396 -48.3974 6.05204)
(282.028 -39.1779 -1.75247)
(272.425 -38.9008 4.08677)
(313.236 -51.7696 9.91622)
(322.834 -63.224 4.79984)
(312.638 -63.8195 11.6885)
(323.144 -51.834 3.29442)
(302.574 -132.706 63.3821)
(477.139 -210.337 208.64)
(1051.77 -400.721 543.05)
(480.275 -130.531 130.592)
(260.291 -78.5771 39.4197)
(826.378 -224.405 383.009)
(331.663 -104.808 107.502)
(224.585 -69.445 167.876)
(290.347 -69.1264 186.622)
(219.09 -57.2978 167.956)
(246.663 -61.1665 227.392)
(345.221 -95.0999 261.851)
(254.292 -75.4798 228.972)
(329.815 -75.5508 256.283)
(164.18 -51.4073 22.2213)
(228.014 -76.6184 53.8117)
(175.353 -63.1645 45.6405)
(217.542 -78.1449 31.3782)
(171.025 -62.6393 24.2698)
(186.252 -75.4703 48.1887)
(241.736 -91.982 58.4005)
(259.95 -23.0967 9.12671)
(247.126 -35.2408 11.6786)
(258.98 -31.4018 10.8691)
(299.207 -40.5871 19.8149)
(291.016 -31.6467 21.0174)
(299.244 -29.9084 18.4208)
(291.85 -43.3149 23.0203)
(173.289 -82.0961 0.296586)
(173.173 -102.051 3.84936)
(165.803 -81.7916 3.14675)
(192.794 -98.8627 5.5848)
(207.484 -119.371 5.23351)
(201.585 -120.338 7.1714)
(199.563 -98.9911 3.14332)
(243.417 -32.9646 -4.4971)
(203.342 -53.2992 25.0983)
(205.391 -43.089 9.2567)
(132.181 7.2717 -13.9369)
(131.838 0.219675 -5.88592)
(125.428 7.87592 -18.1135)
(239.411 -13.8077 -10.33)
(137.322 2.20441 -24.3504)
(211.054 -20.308 2.70699)
(100.297 -17.301 20.4809)
(269.477 -78.2007 127.798)
(100.702 -38.1514 70.8452)
(114.981 -9.50153 19.6251)
(204.437 -25.829 19.428)
(112.7 -28.8415 78.5457)
(255.781 -37.2507 125.823)
(128.553 8.9633 -15.9353)
(131.298 4.78333 -30.8189)
(131.676 6.58897 -25.3574)
(159.506 2.02184 -14.9155)
(161.007 0.463334 -19.1203)
(161.435 -0.38209 -14.9925)
(161.708 0.943382 -13.1412)
(136.498 3.28117 -11.7163)
(136.16 2.0433 -13.4379)
(133.37 5.39424 -19.408)
(162.973 -3.1467 -11.0185)
(168.653 -6.71024 -9.70386)
(165.284 -7.96076 -7.52102)
(164.677 -2.25739 -11.5198)
(134.49 3.83934 -19.0701)
(127.37 0.693014 -4.37275)
(133.928 0.209323 -7.311)
(154.349 -6.72761 -4.23099)
(161.764 -2.37697 -13.9912)
(159.152 -3.27649 -9.66684)
(148.492 -8.81712 -1.57926)
(109.576 -22.0323 47.2094)
(124.004 -7.65492 18.7648)
(118.985 -18.1808 49.2914)
(143.567 -15.5543 17.2083)
(142.407 -24.0107 45.471)
(136.602 -19.9931 17.8412)
(135.976 -30.2296 44.088)
(132.648 3.07411 -12.603)
(116.189 -3.91489 1.87824)
(121.055 -0.249063 -1.12507)
(157.404 -5.63347 -4.82856)
(139.16 -16.7942 3.21375)
(156.52 -9.97146 -0.0369075)
(142.949 -11.7113 1.03729)
(122.444 -31.9463 117.625)
(121.853 -23.6907 82.8248)
(131.234 -25.6955 123.685)
(161.235 -30.0839 118.223)
(148.924 -27.9246 77.2131)
(143.123 -35.0801 74.0064)
(155.618 -38.056 113.604)
(197.675 -5.66829 -12.3624)
(233.149 -14.6372 -4.65209)
(195.343 -6.6085 -10.2815)
(195.686 -10.2765 -8.20325)
(240.517 -19.1033 -9.10328)
(233.175 -20.1804 -3.21387)
(199.488 -8.6917 -11.5395)
(106.388 -12.5589 20.3435)
(96.2656 -31.2546 43.6907)
(101.447 -26.7214 45.4273)
(126.945 -30.6998 19.4773)
(130.443 -24.9212 18.7039)
(130.826 -36.4812 43.2148)
(128.726 -42.7587 42.6248)
(196.813 -14.5759 -5.90943)
(234.083 -33.5458 1.26668)
(205.096 -18.566 -8.24559)
(242.059 -25.3504 -7.21884)
(198.29 -20.0733 -3.32536)
(233.614 -26.3321 -1.249)
(202.007 -12.9844 -10.3043)
(110.264 -42.3732 106.456)
(104.982 -33.6894 74.3926)
(114.589 -37.5297 111.605)
(138.813 -42.1507 71.5415)
(150.882 -53.2352 107.13)
(138.049 -49.2269 69.937)
(151.357 -45.586 109.731)
(223.985 -16.5977 1.11449)
(180.043 -13.9395 -1.45043)
(191.001 -9.25837 -5.91726)
(188.717 -12.9523 -2.82366)
(208.447 -27.3383 4.50255)
(222.25 -22.494 3.52504)
(175.498 -18.5988 0.590005)
(186.788 -17.1137 0.787054)
(219.507 -35.8768 9.38591)
(169.009 -30.4344 5.17117)
(206.027 -34.5838 6.65968)
(185.66 -22.703 4.45131)
(220.576 -28.642 6.31257)
(171.251 -23.6789 2.86126)
(170.087 -21.4352 16.3965)
(214.334 -31.0342 45.9115)
(173.32 -27.722 43.175)
(202.585 -34.456 20.7487)
(165.738 -27.9317 17.3911)
(170.026 -35.9846 42.879)
(213.633 -41.3721 46.6214)
(233.301 -34.408 79.7536)
(201.136 -33.2996 117.872)
(185.062 -30.9376 75.1606)
(182.627 -40.3297 73.5255)
(256.63 -50.208 124.957)
(233.651 -46.0982 79.6396)
(198.908 -43.6561 115.105)
(161.466 -42.2339 20.4988)
(201.593 -43.3417 22.7184)
(162.318 -34.6203 18.8626)
(168.093 -44.1521 43.243)
(218.924 -63.4542 50.4826)
(169.411 -52.9126 44.1051)
(214.45 -51.8863 48.1939)