# vtk DataFile Version 2.0
sampleSurface
ASCII
DATASET POLYDATA
POINTS 7166 float
-2.71051e-18 0 0 0.1 0 0 -1.35525e-18 0.1 0 -1.35525e-18 -0.1
0 -0.1 0 0 -0.1 0.1 0 -0.1 -0.1 0
0.1 0.1 0 0.1 -0.1 0 0 0.2 0 -0.2
0 0 0.2 0 0 0 -0.2 0 -0.1 0.2
0 0.1 0.2 0 -0.2 0.1 0 -0.2 -0.1 0
-0.1 -0.2 0 0.2 0.1 0 0.1 -0.2 0 0.2
-0.1 0 -0.2 0.2 0 0.2 0.2 0 -0.2 -0.2
0 0.2 -0.2 0 9.03502e-19 0.3 0 -0.3 0 0
0.3 0 0 1.58113e-18 -0.3 0 -0.1 0.3 0 -0.3
0.1 0 0.3 -0.1 0 0.3 0.1 0 0.1 0.3
0 -0.1 -0.3 0 0.1 -0.3 0 -0.3 -0.1 0
-0.3 0.2 0 -0.2 0.3 0 0.2 0.3 0 0.3
0.2 0 -0.3 -0.2 0 0.3 -0.2 0 -0.2 -0.3
0 0.2 -0.3 0 1.807e-18 0.4 0 -0.4 0 0
0.4 0 0 3.16226e-18 -0.4 0 0.1 0.4 0 -0.1
0.4 0 -0.4 0.1 0 -0.4 -0.1 0 0.4 0.1
0 0.4 -0.1 0 0.1 -0.4 0 -0.1 -0.4 0
0.3 0.3 0 0.3 -0.3 0 -0.3 0.3 0 -0.3
-0.3 0 -0.4 0.2 0 -0.2 0.4 0 0.2 0.4
0 0.4 0.2 0 -0.4 -0.2 0 0.4 -0.2 0
-0.2 -0.4 0 0.2 -0.4 0 9.03502e-19 0.5 0 -0.3
0.4 0 -0.5 0 0 0.5 0 0 -0.4 -0.3
0 1.58113e-18 -0.5 0 -0.4 0.3 0 0.4 0.3 0
0.3 0.4 0 -0.3 -0.4 0 0.4 -0.3 0 0.3
-0.4 0 0.1 0.5 0 -0.5 0.1 0 -0.1 0.5
0 -0.5 -0.1 0 0.5 0.1 0 0.5 -0.1 0
-0.1 -0.5 0 0.1 -0.5 0 -0.5 0.2 0 -0.2
0.5 0 0.2 0.5 0 0.5 0.2 0 -0.5 -0.2
0 0.5 -0.2 0 -0.2 -0.5 0 0.2 -0.5 0
-0.4 0.4 0 0.4 0.4 0 -0.4 -0.4 0 0.4
-0.4 0 0.3 0.5 0 0.5 0.3 0 0.3 -0.5
0 0.5 -0.3 0 -0.3 0.5 0 -0.5 -0.3 0
-0.5 0.3 0 -0.3 -0.5 0 0 0.6 0 0.6
0 0 -0.6 0 0 0 -0.6 0 -0.1 0.6
0 0.1 0.6 0 0.6 -0.1 0 0.6 0.1 0
-0.6 -0.1 0 -0.6 0.1 0 -0.1 -0.6 0 0.1
-0.6 0 -0.6 0.2 0 -0.2 0.6 0 0.2 0.6
0 0.6 0.2 0 0.6 -0.2 0 -0.6 -0.2 0
-0.2 -0.6 0 0.2 -0.6 0 -0.4 0.5 0 -0.5
0.4 0 0.5 0.4 0 0.4 0.5 0 -0.4 -0.5
0 -0.5 -0.4 0 0.5 -0.4 0 0.4 -0.5 0
-0.6 0.3 0 -0.3 0.6 0 0.3 0.6 0 0.6
0.3 0 -0.6 -0.3 0 -0.3 -0.6 0 0.6 -0.3
0 0.3 -0.6 0 0 0.7 0 0.7 0 0
-0.7 0 0 3.38813e-18 -0.7 0 0.5 -0.5 0 -0.1
-0.7 0 0.1 -0.7 0 0.7 -0.1 0 0.7 0.1
0 0.1 0.7 0 0.5 0.5 0 -0.7 0.1 0
-0.7 -0.1 0 -0.1 0.7 0 -0.5 0.5 0 -0.5
-0.5 0 -0.6 0.4 0 -0.4 0.6 0 0.4 0.6
0 0.6 0.4 0 -0.4 -0.6 0 -0.6 -0.4 0
0.6 -0.4 0 0.4 -0.6 0 -0.7 0.2 0 -0.2
0.7 0 0.2 0.7 0 0.7 0.2 0 0.7 -0.2
0 -0.7 -0.2 0 -0.2 -0.7 0 0.2 -0.7 0
0.3 0.7 0 -0.3 0.7 0 -0.7 -0.3 0 -0.3
-0.7 0 -0.7 0.3 0 0.7 0.3 0 0.3 -0.7
0 0.7 -0.3 0 -0.6 0.5 0 -0.5 0.6 0
0.5 0.6 0 0.6 0.5 0 -0.6 -0.5 0 -0.5
-0.6 0 0.6 -0.5 0 0.5 -0.6 0 -0.8 0
0 6.77626e-18 -0.8 0 0 0.8 0 0.8 0 0
-0.7 0.4 0 -0.4 0.7 0 0.4 0.7 0 0.7
0.4 0 -0.8 0.1 0 -0.8 -0.1 0 0.1 -0.8
0 -0.1 -0.8 0 -0.7 -0.4 0 -0.4 -0.7 0
0.7 -0.4 0 0.4 -0.7 0 -0.1 0.8 0 0.1
0.8 0 0.8 -0.1 0 0.8 0.1 0 -0.8 0.2
0 -0.2 0.8 0 0.2 0.8 0 0.8 0.2 0
0.8 -0.2 0 -0.8 -0.2 0 0.2 -0.8 0 -0.2
-0.8 0 -0.6 0.6 0 0.6 0.6 0 -0.6 -0.6
0 0.6 -0.6 0 0.3 0.8 0 -0.8 0.3 0
0.8 0.3 0 0.8 -0.3 0 -0.3 0.8 0 -0.8
-0.3 0 -0.3 -0.8 0 0.3 -0.8 0 0.7 0.5
0 0.5 -0.7 0 -0.5 -0.7 0 0.7 -0.5 0
-0.7 0.5 0 -0.5 0.7 0 0.5 0.7 0 -0.7
-0.5 0 0.4 0.8 0 -0.8 0.4 0 -0.4 0.8
0 0.8 0.4 0 -0.8 -0.4 0 -0.4 -0.8 0
0.8 -0.4 0 0.4 -0.8 0 -0.9 0 0 3.38813e-18
-0.9 0 0 0.9 0 0.9 0 0 0.9 0.05
0 0.9 -0.05 0 -0.1 -0.9 0 -0.1 0.9 0
0.1 0.9 0 -0.9 0.1 0 0.1 -0.9 0 0.9
0.1 0 0.9 -0.1 0 -0.9 -0.1 0 -0.7 0.6
0 -0.6 0.7 0 0.6 0.7 0 0.7 0.6 0
-0.7 -0.6 0 -0.6 -0.7 0 0.7 -0.6 0 0.6
-0.7 0 -0.9 0.2 0 -0.2 0.9 0 0.2 0.9
0 0.9 0.2 0 0.9 -0.2 0 -0.9 -0.2 0
-0.2 -0.9 0 0.2 -0.9 0 -0.8 0.5 0 0.5
0.8 0 -0.5 0.8 0 0.8 0.5 0 -0.8 -0.5
0 -0.5 -0.8 0 0.8 -0.5 0 0.5 -0.8 0
-0.9 0.3 0 -0.3 0.9 0 -0.9 -0.3 0 0.9
0.3 0 -0.3 -0.9 0 0.9 -0.3 0 0.3 -0.9
0 0.3 0.9 0 0.95 0 0 0.95 0.05 0
0.95 -0.05 0 0.95 0.1 0 0.95 -0.1 0 0.4
0.9 0 -0.9 0.4 0 -0.4 0.9 0 0.9 0.4
0 -0.9 -0.4 0 -0.4 -0.9 0 0.9 -0.4 0
0.4 -0.9 0 -0.7 -0.7 0 0.7 -0.7 0 0.7
0.7 0 -0.7 0.7 0 1 0 0 -0.8 0.6
0 -0.6 0.8 0 0 1 0 0.6 0.8 0
0.8 0.6 0 -1 0 0 0 -1 0 -0.8
-0.6 0 -0.6 -0.8 0 0.8 -0.6 0 0.6 -0.8
0 1 -0.05 0 1 0.05 0 1 -0.1 0
1 0.1 0 -0.1 1 0 0.1 1 0 -1
-0.1 0 -1 0.1 0 -0.1 -1 0 0.1 -1
0 1 0.2 0 1 -0.2 0 -1 0.2 0
-0.2 1 0 0.2 1 0 -1 -0.2 0 -0.2
-1 0 0.2 -1 0 -0.5 -0.9 0 0.5 -0.9
0 0.5 0.9 0 -0.9 0.5 0 0.9 -0.5 0
0.9 0.5 0 -0.5 0.9 0 -0.9 -0.5 0 1
0.3 0 -1 0.3 0 -0.3 1 0 0.3 1
0 -1 -0.3 0 -0.3 -1 0 1 -0.3 0
0.3 -1 0 1.05 0 0 1.05 -0.05 0 1.05
0.05 0 1.05 -0.1 0 1.05 0.1 0 -0.8 -0.7
0 -0.8 0.7 0 -0.7 0.8 0 0.8 0.7 0
0.7 0.8 0 -0.7 -0.8 0 0.8 -0.7 0 0.7
-0.8 0 1 0.4 0 0.4 1 0 -1 0.4
0 -0.4 1 0 -1 -0.4 0 -0.4 -1 0
1 -0.4 0 0.4 -1 0 -0.6 0.9 0 -0.9
0.6 0 0.6 0.9 0 0.9 0.6 0 -0.9 -0.6
0 -0.6 -0.9 0 0.9 -0.6 0 0.6 -0.9 0
1.1 0 0 0 1.1 0 -1.1 0 0 4.06576e-18
-1.1 0 1.1 -0.05 0 1.1 0.05 0 0.1 1.1
0 0.1 -1.1 0 -0.1 1.1 0 -1.1 0.1 0
-1.1 -0.1 0 -0.1 -1.1 0 1.1 -0.1 0 1.1
0.1 0 1 0.5 0 0.5 1 0 -1 0.5
0 -0.5 1 0 -1 -0.5 0 -0.5 -1 0
1 -0.5 0 0.5 -1 0 1.1 0.2 0 1.1
-0.2 0 -0.2 1.1 0 0.2 1.1 0 -1.1 0.2
0 -1.1 -0.2 0 -0.2 -1.1 0 0.2 -1.1 0
-0.8 -0.8 0 -0.8 0.8 0 0.8 0.8 0 0.8
-0.8 0 -0.7 -0.9 0 0.7 0.9 0 -0.9 -0.7
0 0.9 -0.7 0 0.3 1.1 0 0.9 0.7 0
-1.1 0.3 0 -1.1 -0.3 0 0.7 -0.9 0 1.1
0.3 0 -0.7 0.9 0 -0.9 0.7 0 -0.3 1.1
0 -0.3 -1.1 0 1.1 -0.3 0 0.3 -1.1 0
1 0.6 0 0.6 1 0 -0.6 1 0 -1
0.6 0 -0.6 -1 0 -1 -0.6 0 1 -0.6
0 0.6 -1 0 -1.1 0.4 0 1.1 0.4 0
0.4 1.1 0 -0.4 1.1 0 -0.4 -1.1 0 -1.1
-0.4 0 1.1 -0.4 0 0.4 -1.1 0 1.2 0
0 0 1.2 0 -1.2 0 0 8.13152e-18 -1.2 0
1.2 -0.1 0 1.2 0.1 0 -0.1 1.2 0 0.1
1.2 0 -1.2 0.1 0 -1.2 -0.1 0 -0.8 -0.9
0 -0.9 -0.8 0 0.1 -1.2 0 -0.1 -1.2 0
-0.8 0.9 0 -0.9 0.8 0 0.9 0.8 0 0.8
0.9 0 0.9 -0.8 0 0.8 -0.9 0 1.1 0.5
0 -1.1 -0.5 0 -1.1 0.5 0 -0.5 1.1 0
0.5 1.1 0 1.1 -0.5 0 0.5 -1.1 0 -0.5
-1.1 0 1.2 0.2 0 1.2 -0.2 0 -0.2 1.2
0 0.2 1.2 0 -1.2 0.2 0 -1.2 -0.2 0
0.2 -1.2 0 -0.2 -1.2 0 1 0.7 0 -0.7
1 0 -1 0.7 0 0.7 1 0 -0.7 -1
0 -1 -0.7 0 1 -0.7 0 0.7 -1 0
-1.2 0.3 0 -1.2 -0.3 0 1.2 0.3 0 -0.3
1.2 0 0.3 1.2 0 1.2 -0.3 0 -0.3 -1.2
0 0.3 -1.2 0 1.1 0.6 0 0.6 1.1 0
-0.6 1.1 0 -1.1 0.6 0 -0.6 -1.1 0 -1.1
-0.6 0 1.1 -0.6 0 0.6 -1.1 0 -1.2 0.4
0 -1.2 -0.4 0 1.2 0.4 0 0.4 1.2 0
-0.4 1.2 0 1.2 -0.4 0 -0.4 -1.2 0 0.4
-1.2 0 -0.9 -0.9 0 -0.9 0.9 0 0.9 -0.9
0 0.9 0.9 0 1 0.8 0 -0.8 1 0
-1 0.8 0 0.8 1 0 -0.8 -1 0 -1
-0.8 0 1 -0.8 0 0.8 -1 0 -1.2 0.5
0 -1.3 0 0 4.06576e-18 -1.3 0 1.2 0.5 0
0.5 1.2 0 -0.5 1.2 0 -1.2 -0.5 0 1.2
-0.5 0 1.3 0 0 0 1.3 0 -0.5 -1.2
0 0.5 -1.2 0 1.1 0.7 0 -0.7 1.1 0
0.1 1.3 0 0.1 -1.3 0 -1.1 -0.7 0 1.1
-0.7 0 0.7 -1.1 0 1.3 0.1 0 1.3 -0.1
0 -0.1 1.3 0 0.7 1.1 0 -1.1 0.7 0
-1.3 -0.1 0 -1.3 0.1 0 -0.7 -1.1 0 -0.1
-1.3 0 0.2 1.3 0 -1.3 0.2 0 -1.3 -0.2
0 -0.2 -1.3 0 0.2 -1.3 0 1.3 0.2 0
1.3 -0.2 0 -0.2 1.3 0 1.3 0.3 0 -1.3
-0.3 0 1.3 -0.3 0 -1.3 0.3 0 -0.3 -1.3
0 0.3 -1.3 0 -0.3 1.3 0 0.3 1.3 0
1.2 0.6 0 0.6 1.2 0 -0.6 1.2 0 -1.2
0.6 0 -0.6 -1.2 0 -1.2 -0.6 0 1.2 -0.6
0 0.6 -1.2 0 1 0.9 0 -0.9 1 0
-1 0.9 0 0.9 1 0 -0.9 -1 0 -1
-0.9 0 1 -0.9 0 0.9 -1 0 -1.3 -0.4
0 1.3 0.4 0 0.4 1.3 0 -1.3 0.4 0
1.3 -0.4 0 -0.4 1.3 0 -0.8 -1.1 0 -0.4
-1.3 0 0.4 -1.3 0 1.1 0.8 0 -0.8 1.1
0 0.8 1.1 0 -1.1 0.8 0 -1.1 -0.8 0
1.1 -0.8 0 0.8 -1.1 0 1.2 0.7 0 -0.7
1.2 0 0.7 1.2 0 -1.2 0.7 0 -0.7 -1.2
0 -1.2 -0.7 0 1.2 -0.7 0 0.7 -1.2 0
0.5 -1.3 0 1.3 0.5 0 -1.3 0.5 0 1.3
-0.5 0 -1.3 -0.5 0 0.5 1.3 0 -0.5 1.3
0 -0.5 -1.3 0 1.4 0 0 0 1.4 0
-1.4 0 0 0 -1.4 0 1.4 -0.1 0 1.4
0.1 0 0.1 1.4 0 -0.1 1.4 0 -1.4 0.1
0 -1.4 -0.1 0 -0.1 -1.4 0 0.1 -1.4 0
1.4 0.2 0 1.4 -0.2 0 0.2 1.4 0 -0.2
1.4 0 -1.4 0.2 0 -1.4 -0.2 0 -0.2 -1.4
0 0.2 -1.4 0 1 1 0 -1 1 0
-1 -1 0 1 -1 0 -1.1 -0.9 0 0.9
-1.1 0 1.1 0.9 0 0.9 1.1 0 -0.9 -1.1
0 -0.9 1.1 0 -1.1 0.9 0 1.1 -0.9 0
1.3 0.6 0 0.6 1.3 0 -1.3 0.6 0 -0.6
-1.3 0 -1.3 -0.6 0 1.3 -0.6 0 0.6 -1.3
0 1.4 0.3 0 0.3 1.4 0 -0.3 1.4 0
-1.4 0.3 0 -0.3 -1.4 0 -1.4 -0.3 0 1.4
-0.3 0 0.3 -1.4 0 -0.6 1.3 0 -0.8 -1.2
0 1.2 0.8 0 -0.8 1.2 0 0.8 1.2 0
-1.2 0.8 0 -1.2 -0.8 0 1.2 -0.8 0 0.8
-1.2 0 1.4 0.4 0 0.4 1.4 0 -0.4 1.4
0 -1.4 0.4 0 -0.4 -1.4 0 -1.4 -0.4 0
1.4 -0.4 0 0.4 -1.4 0 -1.3 0.7 0 -0.7
-1.3 0 1.3 -0.7 0 0.7 -1.3 0 0.7 1.3
0 1.3 0.7 0 -0.7 1.3 0 -1.3 -0.7 0
1 1.1 0 1.1 1 0 1.4 0.5 0 0.5
1.4 0 -1 1.1 0 -0.5 1.4 0 -1.1 1
0 -1.4 0.5 0 -1 -1.1 0 -0.5 -1.4 0
-1.1 -1 0 -1.4 -0.5 0 1.1 -1 0 1
-1.1 0 1.4 -0.5 0 0.5 -1.4 0 1.2 0.9
0 1.5 0 0 -0.9 1.2 0 0 1.5 0
0.9 1.2 0 -1.2 0.9 0 -1.5 0 0 -0.9
-1.2 0 -1.2 -0.9 0 2.25875e-18 -1.5 0 1.2 -0.9
0 0.9 -1.2 0 1.5 -0.1 0 1.5 0.1 0
0.1 1.5 0 -0.1 1.5 0 -1.5 0.1 0 -1.5
-0.1 0 -0.1 -1.5 0 0.1 -1.5 0 1.5 0.2
0 1.5 -0.2 0 0.2 1.5 0 -0.2 1.5 0
-1.5 0.2 0 -1.5 -0.2 0 -0.2 -1.5 0 0.2
-1.5 0 1.4 0.6 0 0.6 1.4 0 -0.6 1.4
0 -1.4 0.6 0 -0.6 -1.4 0 -1.4 -0.6 0
1.4 -0.6 0 0.6 -1.4 0 -0.8 -1.3 0 1.3
0.8 0 0.8 1.3 0 -1.3 0.8 0 -1.3 -0.8
0 1.3 -0.8 0 0.8 -1.3 0 -0.8 1.3 0
0.3 -1.5 0 1.5 0.3 0 0.3 1.5 0 -0.3
1.5 0 -1.5 0.3 0 -0.3 -1.5 0 -1.5 -0.3
0 1.5 -0.3 0 -0.4 -1.5 0 0.4 -1.5 0
1.5 0.4 0 0.4 1.5 0 -0.4 1.5 0 -1.5
0.4 0 -1.5 -0.4 0 1.5 -0.4 0 -1.1 -1.1
0 1.1 1.1 0 -1.1 1.1 0 1.1 -1.1 0
1 1.2 0 1.2 1 0 -1 1.2 0 -1.2
1 0 -1 -1.2 0 -1.2 -1 0 1.2 -1
0 1 -1.2 0 1.4 0.7 0 -0.7 1.4 0
0.7 1.4 0 -1.4 0.7 0 -0.7 -1.4 0 -1.4
-0.7 0 1.4 -0.7 0 0.7 -1.4 0 0.9 -1.3
0 0.9 1.3 0 0.5 -1.5 0 1.3 0.9 0
-1.3 0.9 0 -1.3 -0.9 0 1.3 -0.9 0 1.5
0.5 0 -0.9 1.3 0 -0.5 1.5 0 -1.5 0.5
0 -0.9 -1.3 0 -1.5 -0.5 0 0.5 1.5 0
-0.5 -1.5 0 1.5 -0.5 0 -1.6 0 0 4.51751e-18
-1.6 0 1.6 0 0 0 1.6 0 1.6 -0.1
0 1.6 0.1 0 0.1 1.6 0 -1.6 0.1 0
-1.6 -0.1 0 0.1 -1.6 0 -0.1 -1.6 0 1.4
0.8 0 -0.8 1.4 0 0.8 1.4 0 -1.4 0.8
0 -0.8 -1.4 0 -1.4 -0.8 0 1.4 -0.8 0
0.8 -1.4 0 1.6 0.2 0 1.6 -0.2 0 0.2
1.6 0 -1.6 0.2 0 -1.6 -0.2 0 0.2 -1.6
0 -0.2 -1.6 0 1.5 0.6 0 0.6 1.5 0
-0.6 1.5 0 -1.5 0.6 0 -0.6 -1.5 0 -1.5
-0.6 0 1.5 -0.6 0 0.6 -1.5 0 -1.1 -1.2
0 -0.3 -1.6 0 0.3 -1.6 0 1.1 1.2 0
1.2 1.1 0 1.6 0.3 0 0.3 1.6 0 -1.1
1.2 0 -1.2 1.1 0 -1.6 0.3 0 -1.2 -1.1
0 -1.6 -0.3 0 1.2 -1.1 0 1.1 -1.2 0
1.6 -0.3 0 1.3 1 0 -1.3 1 0 -1
-1.3 0 -1.3 -1 0 1 -1.3 0 1.3 -1
0 1 1.3 0 -1 1.3 0 -0.4 -1.6 0
0.4 -1.6 0 -1.6 0.4 0 1.6 0.4 0 0.4
1.6 0 -1.6 -0.4 0 1.6 -0.4 0 0.7 1.5
0 -1.5 0.7 0 -0.7 1.5 0 0.7 -1.5 0
1.5 0.7 0 -1.5 -0.7 0 -0.7 -1.5 0 1.5
-0.7 0 1.4 0.9 0 -0.9 1.4 0 0.9 1.4
0 -1.4 0.9 0 -0.9 -1.4 0 -1.4 -0.9 0
1.4 -0.9 0 0.9 -1.4 0 -0.5 -1.6 0 0.5
-1.6 0 1.6 0.5 0 0.5 1.6 0 -1.6 0.5
0 -1.6 -0.5 0 1.6 -0.5 0 1.2 1.2 0
-1.2 1.2 0 -1.2 -1.2 0 1.2 -1.2 0 0
1.7 0 -1.7 0 0 2.25875e-18 -1.7 0 1.5 0.8
0 -0.8 1.5 0 0.8 1.5 0 -1.5 0.8 0
-0.8 -1.5 0 -1.5 -0.8 0 1.5 -0.8 0 0.8
-1.5 0 1.7 0 0 -1.7 -0.1 0 -1.3 1.1
0 -1.3 -1.1 0 1.7 0.1 0 1.7 -0.1 0
-1.7 0.1 0 0.1 -1.7 0 1.3 1.1 0 0.1
[...]
CELL_DATA 6870
FIELD attributes 1
p 1 6870 float
38818.2 21424.1 29539.9 13892.9 23784.8 30763 35108 37148.3 33906.8 36862.3 126456
118826 104254 101316 101298 101298 101298 101303 101302 101299 101298
101298 101298 101298 101355 101301 101298 101298 101298 101298 101298
123292 101376 101298 101298 101298 101298 101298 109200 181762 102924
101299 101298 101298 101298 101298 173284 234199 102413 101298 101298
101298 101298 101298 131727 101331 120727 101346 101332 101302 101317
101303 101301 101305 101399 113117 101309 101427 108120 131038 158102
104903 101773 108609 170082 165679 200317 152152 148956 98676.7 102195
144795 131123 104422 104755 135661 101330 101627 101609 101300 101300
101302 101321 101302 101302 101848 102005 101431 114181 104711 104020
140991 122654 124889 102506 116579 112920 88379 67258.4 85598.2 130970
131299 152189 112923 116177 217620 139801 101332 212976 154329 135445
111215 91793.7 167832 128078 90713.6 220561 169285 96209.9 93304.1 96185.4
90561.9 122484 82639.4 93086.1 99031.1 95251.9 101146 99920.9 80361.1 47093.2
70632.7 117185 132048 159086 96609.5 132128 156452 73162 120279 103432
92529.8 86889.1 82653 86075.4 82120.8 87729.4 107574 90465.9 83428.8 77237.5
76735.2 76420 91814.6 93254.3 88779.9 96477.2 94640.8 92748.1 66664.1 87906.3
95456.2 94871.5 112434 127674 65463.3 63843.3 63980.9 70195.3 70383.1 70711.7
64222.7 57790.7 58951.9 57674.4 57964.3 52003.7 51894 51787 70470 77519.2
80272.2 106933 132522 145037 52811.2 52259.7 58300.1 73561.7 75306.3 68322.9
87702.1 84899.9 92564.4 64681.1 71297.2 72230.4 115371 123560 128028 90065.5
82587.9 80685.6 115343 119310 110903 100310 108062 111609 79159 78020.1
84580.3 141096 167081 184958 136256 132153 141126 101434 104658 97452
137008 128047 123915 119719 115478 122590 90453.7 95608.1 98385.1 150541
160310 164104 117487 111293 107158 149668 155508 146156 103217 99662.5
103147 129452 136231 143156 36865.8 37318.6 36800.2 36929.2 32913.4 32876.6
32824.9 37758.8 92604.8 65629.2 47325.1 41973.3 41300.6 41369.9 46286.6 46375.7
46472 41446.5 42605.5 60052.2 66352.8 50021.4 69612.6 86026.4 58819.6 65676.1
72536.2 56373.3 60333 53709.6 38542.5 33937.8 33433 76542.7 98858.8 112921
45260.2 51109.9 53425.2 79284 72495.7 79335.2 73827.4 67037.6 62904.6 33168.3
33010.9 37069 47959 49273.1 43674.3 59795.7 57294 63747.1 86124.6 93054.4
99164.3 41620.8 46687.5 47141 83687.5 87897.8 80772.3 61659.2 55289.9 53790.4
105911 100143 107589 102893 95232.5 91107.7 121812 129056 123311 174290
170237 180239 174404 164994 158353 105381 107520 114792 138564 168193
204635 151032 143198 150567 141484 135022 126635 28758.3 35362.3 24070.8
30176.9 30615 26778.8 18080.1 35837 33130.8 32563.4 38146.7 44091.7 44461.9
43059.1 43081.8 40793.2 40878.3 38325.5 45519.5 40863.2 45116.1 44120 44802.5
39641.5 42306.2 43360.4 37850.8 45884.4 42234.1 12442.5 44619.9 40819.6 30467.6
20023.5 34275.9 22431.1 45141.3 44586.3 46130.3 35502.9 42069.9 44691.6 26141.7
29312 29336.2 29337 26219.9 35976.7 29341 17308.8 17246.5 26136.4 31163
19418.7 20102.3 18899 17332.9 23132 23123.7 23132.9 26138.6 29380.4 18284.5
31249.4 32199.5 31715.8 19859.5 27406.7 26618 25295.3 18315.1 18361.9 17425.1
23104.8 20412.2 20382 20371.5 26102.9 33679.3 34052.2 35785.9 29732.4 28893.7
20336.3 17452.5 18384.6 18348.9 41548.4 29602.7 29876.1 26347.5 20429 20427.9
23095.6 36204.7 34836.8 39804.8 26098.7 29377 29463 27196.8 26625.9 30432.6
31392.8 23183.8 23264.2 20480.5 20436.4 35840.5 28109.7 43897.2 58539.5 31818.9
38251.9 43540.7 32738.8 34829.3 29470.8 51240.1 45129.6 51985.2 47224.2 40877.3
38061.7 11102.2 40118.8 16626.3 16139.2 38590.2 14891.2 33574.9 14495.5 14561.6
18849.5 16983.2 23660 13269.6 12069.9 11599.9 16176.8 24188.2 28965 18955.7
13574 21821.8 12873.4 12889.2 14475.3 42143.1 34933.7 28298.6 16461.5 18879
19438.4 14404.3 13148.9 14006 37216.5 37447.9 41085.4 16297.3 21249.5 15749.5
18377.4 18589.9 16316.7 23470.6 22090.8 26378.5 16264.8 18123.2 18197.5 17146.6
26470.6 29292.7 24990.4 21405.1 20976.2 18265.3 18173.5 16571.7 20723.1 20577.7
23387.5 118373 109401 111944 158757 168336 178056 101111 100356 90642.1
146582 157762 148905 116614 123888 135594 181253 250637 297211 190296
179636 192986 86962.5 101003 102224 106578 114767 106206 180768 168269
156408 148300 219415 237838 145033 133600 145164 112300 105900 95613.4
165875 230903 219553 115743 115838 133396 207848 224011 237297 137860
125469 118862 196027 210139 194637 119712 130572 121280 138038 119871
126175 158993 173653 183175 153609 174231 168496 166123 168272 152710
256423 242792 282507 221446 305970 242060 133877 142218 159783 186273
179264 159090 173946 146446 136055 284567 239358 291116 223160 247455
180407 212083 300251 306717 298544 230899 288088 281342 218891 137971
173007 265965 228231 213925 222804 188283 186109 189546 192846 221501
252524 266420 258897 272143 280579 293469 233628 230902 240735 179270
101997 122107 201876 194062 229287 180470 200490 192732 175024 158333
184286 224040 196344 202941 212439 221342 226974 157807 148721 165439
179884 192457 192509 188137 245751 232155 107402 101313 101342 111486
101862 255750 251548 224614 196502 209336 225197 271814 221166 211475
164041 273891 260501 198097 209007 192246 204253 101298 101298 196585
255367 176420 215433 240224 191054 203409 209669 187280 195776 184349
232068 307733 315066 224566 217938 233663 225034 209590 200366 250052
265322 268418 249233 258779 241834 282889 279842 314190 312652 275665
267927 111472 128771 141234 203620 203090 212916 152374 201188 189142
101303 101303 103043 116522 161783 150632 310266 268445 293160 220062
219464 253827 101555 101302 101463 131877 167874 200548 101389 101301
101305 172197 146594 109613 101302 101305 102373 136707 121762 105045
171078 169400 118287 268593 198132 155910 104082 104020 121509 102848
101875 103897 115549 103365 103840 122732 103948 104056 101300 101299
101349 106423 144530 163911 102808 109710 103772 110441 102843 109004
103922 119979 106309 102137 102746 111427 26604.3 17056.4 33561.7 63708.8
20963 28978.6 37864.6 20739.8 23529.5 18211.2 50858.3 39517.8 51052.5 40918
31313.2 26208.4 10477.9 10479.9 14647.3 18694.9 10395.1 11551.5 11846.2 11501.5
11501.2 10379 14934.8 12942 12911.6 14187.3 13176.8 15956.5 11655.9 24859
10187.9 9547.22 8458.87 8499.18 9211.24 15873.7 9593.07 9999.41 9603.6 9326.99
11057 8982.76 8893.72 9543.08 8317.56 8124.75 8302.31 15230.9 12377.5 9225.7
141345 125527 149009 161779 136180 142657 147526 132809 137827 130970
120852 99945 118723 135660 114385 119399 125458 106060 112990 107405
124594 118655 112256 130360 124611 130167 153100 145190 140640 154318
149636 157193 169813 208860 261076 157988 189028 197849 165555 174630
178354 167658 171144 161707 200816 243727 247160 192170 181315 177987
187716 184411 195048 214030 217118 203932 206633 219561 221301 258216
314655 288369 245846 231279 228756 103442 73900.6 93741 116529 93725.8
99376 108109 80694.7 90080.4 83483 101860 96195.9 87345.3 112338 104575
109522 75341 42197.5 66899.3 98352.9 62289.3 72182.2 84851.9 51061.5 60808.8
51079.3 76487.4 69234.1 59388.4 92337.2 80292.7 87475.7 234313 233181 246895
260498 275890 283421 270288 271854 259885 301358 302666 303548 311950
296151 288071 107267 119671 103126 102409 101438 101684 101509 101551
103325 103410 101543 101489 101874 101380 101444 101300 101298 101299
101343 101654 101675 101643 101576 101333 101299 101298 101299 101299
101298 101299 101343 101571 102902 102476 101535 101332 101413 101348
101816 101599 101620 101337 101299 101300 101313 101945 101444 101332
101322 101407 101603 101310 101341 101637 101314 101336 101535 101322
101487 101403 101469 101314 101304 101298 101298 101298 101344 101315
101302 101298 101298 101299 101303 101327 101323 101298 101298 101298
101305 101302 101306 101317 101323 101303 101306 101336 101306 101299
101303 101309 101304 101302 101303 101298 101298 101299 101313 101309
101305 101311 101319 101310 101309 101308 101309 74919.3 86630.7 71701.3
97187.5 96705.5 100696 95014.8 92391.9 86288.3 87008.4 85632.5 71260.2 73546.2
70517.2 65973.4 112986 116748 108559 100217 121451 114115 107113 119640
124031 103344 107113 102886 111354 102487 112288 108773 114773 115868
149776 161364 126454 138633 132306 127887 158306 171244 134413 101356
101298 186147 101375 101298 154921 99722.2 71445.7 73669.8 72519.2 77305.8
73088.9 84108.3 75384.6 92563 89213.3 73666 80269.3 81485.4 75782.2 72922.5
77836.6 72486.7 78636.4 82030.1 74052.4 75524.9 73678.5 174878 130774 55838.6
77773.1 98885.1 108164 178384 56845.9 112331 134794 129926 64013.4 54631.5
91379 102257 110151 100584 58009.8 70494.9 67822.5 123781 161619 153575
103329 121259 74565.1 112518 92376.9 80647 80849.8 77344.4 66521 57302.7
58825.3 59255.4 115147 131852 130401 47213 55437.1 59612.9 57184.4 58659.2
54009.9 55671.4 55646.8 93588.5 87748.6 84739.6 95518.8 98073.5 103405 59509.7
58018.4 66998.9 61971.9 63157.6 61965.9 66817.5 146837 149276 157085 137024
145396 103324 144057 139999 120129 117084 101817 97569.5 95276.8 168957
164889 120556 153547 105499 157240 131202 107496 101910 109985 144874
119918 61405 56655.2 54967.3 56942.7 62795.4 62620.2 54091.3 51085 55833.6
54765.2 57262.8 57738.1 62191.8 55992.1 53578.4 53667.9 102056 101298 101318
101298 101304 101298 80526.3 78910.2 76787.3 78385.8 78980.5 71782.4 70573.9
74490.4 199653 68648.2 69813 102213 101299 186569 189683 101330 101298
74098 75838.8 74564.4 61042.1 65486.2 66607.9 72353.2 68471.7 66462.5 61805.6
63562.7 59636.1 85148 82264.1 76430.8 74761.8 80572.6 136616 104074 135368
121703 159836 80299.5 81435.5 76551 89445.4 92452.3 87104 78435.7 80808.7
99338.1 96694.4 116476 103749 129475 118436 103258 102025 94696 115624
108869 109696 148162 83706.2 86969.2 94996.3 56440.3 54316.1 54393.4 96483
90455.4 90779.5 71134 74525.7 64190.1 102001 107496 105139 68632.2 80155.5
85427.2 91944.2 92649.8 98060.1 89627 83309.9 78946.9 111063 109231 103377
71956.2 68706.8 61760.6 76653.4 64540 63846.4 63065.1 65454.3 64532.1 66391.2
68751.4 70590.9 74485.1 75980.9 71754.7 72421 78929 80086.9 77632.5 78027.1
80081.8 80199.4 78799.5 78070 111462 113998 121369 93520.7 88923.4 95008.4
88358 88506.9 81030.9 106145 116795 113003 141049 128964 127414 146036
147023 127109 87272.8 104821 90567.6 85810.9 91113.8 92881.1 104358 99716.4
110271 124805 116613 119852 96098.7 99830.2 94788.3 105233 97106.2 96796.9
84382.7 89477 95899.6 164010 123867 108757 100056 104639 110399 61435.9
63105.8 61191.9 61649.7 65781 65314.3 65027 69575.1 69869.8 70435.2 64700.2
75459 94426.9 84584.4 76578.7 73529.4 73739.3 74203.9 78379.6 86780.6 81172
104212 102958 98118.2 96572.6 88428 92098.2 86295.4 81184.7 76879 70871.4
91820.3 95307.9 97978.9 88430.6 92115.3 89061.4 67319.2 73242.7 70317.1 82477.5
81010.1 84543.2 68090.4 66609.2 62166.8 75273.1 77903.9 80400.6 75152 71515.2
73142.9 69241 59754.9 64806.8 59189.1 62983 56683.7 56888.9 61636.6 53071.3
57450.4 54774.3 52501.9 50026 53618 59402.5 49846.5 101111 74733.9 56450.9
80410.4 86104.2 77106.1 71005.5 62555.5 68849.4 62091.9 90676 83530.2 93074.3
68227.6 75160.5 81736 74338.7 51447.6 48493.7 47914.8 57091.3 48493.6 42793.1
64071.6 56235.6 66597.2 42443 44876.2 45952.5 47470 49823.2 56053.5 129159
61800.3 57497.2 52985.5 57639.8 62022.7 57692.9 54488.7 54608.1 57095.9 58641
62181.1 66559.6 65361.4 67461.5 67200 61949.7 63242.4 56499.7 54649.8 57717.3
59042.7 59931.3 60230.9 61655.4 66732.6 56358 60738 61694.8 61357.3 59985.2
63898.6 64340.3 63410.7 60980.5 61912.4 64223.6 66725.5 59398.8 60173.8 58286.1
69123 47657.7 57979.5 41295.2 54093.6 59635.6 61613.3 68261.2 71943.8 68935.8
62463.8 66565.6 65691.9 70408.9 58451.6 71470.9 77259.1 78235.3 74471.8 75016.3
71654.8 66236.8 65670.9 61612.8 61266.4 56558.7 62553.3 54475.6 67668 73999.7
71295.4 61572 66533 66213.6 68962.9 64250.9 64465.7 63280.9 67994.5 76732.1
60900.4 57688.5 66167.5 67615.6 58748.7 76994.7 75596.6 69744 59867.1 66916.7
65754.5 72707.5 75752.6 79293.4 132843 123937 112298 119632 123013 129979
123607 129438 142498 178266 215333 216520 131900 147718 146326 102644
97346.1 107071 105378 114168 107788 115440 121304 112674 109287 110147
104102 154951 150154 135639 118094 111641 122615 139956 150833 143669
100493 98369.2 101784 151324 137948 146085 172991 140544 133062 131703
121911 111709 155901 171277 162314 116937 128273 136838 124941 117985
114301 144284 131783 124658 190181 170768 111228 109018 116751 113384
103671 98678 103059 101820 107652 116023 156517 161510 171609 172488
201922 208935 194233 183436 165819 146307 155964 143466 136922 143346
134414 165646 166963 168580 149906 140506 153722 121803 126013 136549
133598 132894 117901 121500 123130 108295 182200 191689 219032 121606
135825 140392 115171 127318 123587 137613 131675 115617 126419 120294
140806 179311 168534 159601 225935 200678 141447 146789 156630 150121
175708 180005 191450 112484 129693 142518 128659 141329 137593 158265
151584 147027 147945 157643 144239 143495 134014 122036 220576 202205
205245 76265 78136.9 76070.7 76626.9 77774.8 77292.5 76984.1 79531.3 78529.2
77243.3 69445 44271.3 42828.9 52489.9 57874.1 66213.4 60739 65028 58530.2
42150.2 47535.1 49264 42033.7 61187.4 56503.1 53673.8 73302.3 51772.8 66030.6
74463.1 71644.6 76352.4 76130 71704.1 106767 101839 151804 168766 148477
144839 108618 109211 182484 160198 165609 172057 145499 148869 174598
154378 170140 155764 153314 147301 146645 154595 150094 157106 101710
102029 153929 152071 153080 145820 191831 181160 166452 138338 140181
135151 197311 194855 207709 155486 168344 180002 181284 155623 165839
159091 150276 154134 161798 155601 168734 101889 101378 128413 101319
101523 129050 146506 144032 136209 169315 167960 160712 211049 187601
169265 101613 106045 205694 179436 195575 211781 186939 181828 175826
168076 157112 173486 207733 200988 203900 51735.1 56556.8 42956.5 45654.2
46512.2 46528.8 45551.7 52842.3 49208.7 48549.3 44425.3 46574.4 46710.7 51867.4
50369 54529.3 188349 186622 193074 182140 175770 171093 115323 121148
145268 101469 101316 102260 131787 149267 159541 156006 147757 139202
122775 136705 125146 150195 125253 126883 222034 213079 230506 165799
141007 121605 124134 118629 152554 209300 176467 186322 117169 104706
109107 101303 101304 102375 142113 148050 110880 117307 130242 111275
126347 154969 206785 144234 111441 105753 108004 103100 110572 101304
101301 101372 104438 121259 132758 110515 149423 144890 101299 101302
101865 134818 121495 103760 101709 102537 107529 101301 101301 101396
104877 110976 102752 106118 105999 102042 101908 105102 103850 101300
101299 101309 101684 104023 105289 108256 94270.9 86120.4 82714 88334.6
91929.1 87696.8 83171.5 79398.7 89072.9 95784.6 94941.5 94154.7 79711.5 80178.8
83763 87766.9 97098.5 86404.6 94537.3 97174.2 93689.7 91625.5 88828.4 90611.2
88166.5 103919 97882.2 101934 91661.6 94423.7 100153 91789 86892.2 89113.7
83343.8 84983.4 89658.1 84794.8 80900.4 81970.5 99028.1 97242.1 90341.9 79278.6
84123.6 85948.4 83975 82200.5 80632.7 82248.5 80763.7 233660 216370 230228
238598 178953 176978 175267 174561 224535 219064 174336 176725 184610
112595 101300 101298 149793 102637 182382 190498 191812 197990 101325
101304 101495 123413 167028 181783 198527 177894 140572 109651 134266
107227 102884 101763 104671 102281 109978 104228 101299 101300 101325
102682 101904 101398 103647 101760 101492 101913 102762 101496 102573
101454 101432 101403 101440 102482 101395 101355 101734 101299 101299
101302 101348 101603 102404 102170 101417 101326 101572 101328 101360
101298 101298 101299 101306 101358 101506 101497 101326 101311 101338
101513 101374 101401 101316 101315 101311 101314 101383 101311 101308
101347 101303 101310 101400 101334 101369 101320 101319 101304 101303
101305 101304 101308 101298 101298 101299 101303 101312 101309 101312
101314 101304 101314 101308 101309 101298 101298 101298 101304 101305
101307 101304 101308 101304 101298 101298 101298 101302 101302 101302
44578.1 51141.2 45836.4 42781.9 45257.2 47970.4 46420.4 48212.6 48420.7 45622.3
46445.5 47489.1 46696.1 48356 48941.6 50535.3 111793 320222 230890 218833
101300 101298 101298 216933 182364 187394 183586 194020 193132 197867
195559 185089 101298 101298 101298 101298 101298 132491 125861 127409
136822 104303 103986 101317 101325 101300 101300 101300 101316 101326
101300 101298 101298 101517 101534 101317 101298 101298 101298 101298
101298 101298 101298 132960 101512 101299 101298 101298 101298 101298
101298 101298 101298 101298 101298 101298 101298 101298 101298 101298
101298 101298 101298 101298 101298 101298 101298 101298 101298 101298
101298 101298 101298 101298 101298 101298 101298 101298 101298 101298
101298 101298 101298 101298 101298 101302 101298 101298 101298 101298
101298 101298 101298 101298 101298 101298 101298 101298 101298 101298
101298 101298 101298 101298 101298 101298 101298 101298 101298 101298
101298 101298 101298 101298 101298 101298 101298 101298 101298 101298
101298 101298 101298 101298 101298 101298 101298 101298 101298 101298
101298 101298 101298 101298 101298 101298 101298 101298 101298 101298
101298 101298 101298 101298 101298 101298 101298 101298 101298 101298
101298 302222 307088 309892 290409 301024 224578 280898 255853 274801
272657 298506 249912 251126 295184 223477 227473 232424 229400 229107
101298 101298 101298 101298 101299 109986 326750 101298 203332 452372
109447 487097 101298 101299 101299 103228 126133 485473 522930 101300
108303 102816 193041 492726 522060 460519 396645 405349 101818 482466
106197 101601 101740 388678 370119 170673 501426 481061 481570 409854
416109 473899 101298 101298 101298 101298 101996 101461 112977 528828
418396 550910 340191 366554 101298 101298 101298 101298 101298 101298
101298 101298 101300 101298 101298 101300 101327 334508 330739 328744
365829 327901 363687 365810 216503 171140 148854 161536 211506 162518
153070 162155 164562 149706 137643 175917 162217 176111 176483 138676
139295 150093 206983 166355 173205 155180 126325 134069 211139 207268
209842 192418 192501 191658 209434 137323 125191 115313 109654 110678
101593 102497 103399 111596 117500 93818.8 101007 118287 119378 127567
120248 129437 128666 124089 128091 103969 115216 122400 118428 110955
107139 114742 111605 108630 105865 98317.7 164894 136884 145176 134236
126177 129749 95947.1 103375 101092 119667 122699 130992 122405 113951
116728 109071 111421 119873 153365 151296 142617 139633 148555 145918
113337 105005 106916 143259 140472 131264 128706 137875 135466 213434
175483 181073 169788 160325 161957 155177 157784 167502 133168 131138
122051 160009 149937 152641 144988 147403 157529 192014 190816 179848
178323 172680 147245 155545 149915 157514 155173 162565 159729 152564
148954 139750 119013 130812 122878 129252 125747 136643 133139 127094
145812 139356 142668 132620 135831 142708 175846 167447 170185 163651
165641 174340 177983 189277 187042 151312 140805 142736 184799 182667
170874 168508 180447 178577 290557 230917 231493 218663 206738 208151
204589 205354 217483 310181 229016 230681 215730 202727 203752 177342
176341 163065 199639 201477 214786 209667 195473 197477 192053 193488
207901 231609 251969 249954 248522 248118 230330 241461 249289 232774
207594 191006 191429 229840 248070 247784 246823 244835 225723 224066
242471 241513 321160 288401 237030 275660 269588 273263 308805 274130
275964 417805 362340 312136 251153 257972 239360 242509 244905 225989
273159 273569 310086 306681 270034 272561 263868 265974 300049 290769
265281 262455 265228 272365 287483 257459 262896 247450 310587 341719
333536 351126 379168 415826 444683 451255 362949 353294 437456 408596
111529 320169 321974 102262 233723 254721 304886 297413 319500 104071
364611 320687 340360 342535 318091 319304 293828 293730 381351 365578
323398 436017 382453 367335 232076 244692 322650 331806 254482 336690
325261 348021 356619 347839 200872 205686 266030 257970 223118 264327
229575 144661 193860 196723 273472 125075 129656 123004 150072 151132
234714 226916 181517 152106 154108 158009 134624 138595 160650 164897