/*--------------------------------*- C++ -*----------------------------------*\
  =========                 |
  \\      /  F ield         | OpenFOAM: The Open Source CFD Toolbox
   \\    /   O peration     | Website:  https://openfoam.org
    \\  /    A nd           | Version:  9
     \\/     M anipulation  |
\*---------------------------------------------------------------------------*/
FoamFile
{
    format      ascii;
    class       volScalarField;
    location    "0.00285";
    object      overpressure;
}
// * * * * * * * * * * * * * * * * * * * * * * * * * * * * * * * * * * * * * //

dimensions      [1 -1 -2 0 0 0 0];

internalField   nonuniform List<scalar> 
27205
(
47184.8
39282.6
54874.5
45998
75974.2
48826.7
109619
44023
14798.8
17747.7
32454.9
56936.6
36721.7
63763.9
62399.4
21096.8
35957.8
52322.6
69687.3
24161.5
40397.3
15879.9
20304.9
21355.2
22626
23793.1
29316.6
28125.2
18799.7
35308.6
59412.7
41847.9
67349.6
51584
86644.1
73483.9
25332.4
42413.4
68480.9
93345.9
33822.2
55177.2
22460.6
25578.5
26963
29426.8
31012.8
35580.8
33954.4
16642.7
23617.6
22118.8
26032
24575.6
30076.9
31987.5
23404.8
28978.2
27852.1
33030.7
31918.4
36443.9
37987.3
26221.8
33699.6
27289.6
35324.6
40123.8
41784
33976.8
40972.9
30804.3
32152.4
37744.9
44653.1
46636.4
36241.2
30559.1
37521.9
31982.6
40674
44240.6
46270.4
38909.5
61624.5
66586.6
96811.5
66856.1
92488.2
90441.9
105088
20938.1
24795.2
27252.5
27321.7
29690.4
33437.5
36304.2
98787.5
39313.9
62008
107487
118281
68628.2
95624.7
41778.6
34781.1
32922.5
38531.2
50104.6
47508.9
40801.7
29945.5
34431.6
28030.8
36086.2
45173.1
42620.3
38361.9
84085.4
76612.9
69693.4
56975.3
77928.3
99322.3
80447.7
119770
38132.2
49432.5
39975.5
44617.7
51670.4
54153.4
42639.5
38366.8
34418.5
32835.6
41543.4
49597.9
47207.3
43524.5
27028.2
30449.1
34576.5
32607.7
36689.1
39795.9
42431.4
50536.2
58156.2
45068.1
39068.4
46022
52708.2
65319.2
50259.9
42407.3
40849.1
45524.3
57519.3
55077.4
47502.7
43803.5
50485.3
48204.2
59254.4
50328.5
52773.3
42013.5
30506.8
23766.9
28304.2
37671.5
32870.5
39943.1
45112.6
34282
38568.4
31390.3
47578.6
40229.3
43510.6
51346.3
36295.6
49312.3
39122.9
52572.7
42701
45982.5
56432.4
36117.7
45560.9
38779.3
52153.9
45679.4
48819.9
55856.3
44677.9
56665.5
60562.5
54171.1
51291.7
53746.4
47242
49831.3
56683
52934.9
64939.3
59349.6
55481.7
47547.7
29508.4
40169.3
35529.8
44226
39563.8
45888.7
51011.4
44379.8
58174.5
47022
60487.2
49837
53008.6
64396.1
41269.6
41247.9
33961.4
43657.4
51311.2
51535.5
59550.6
115986
97107.6
72872.2
121785
107253
96440.9
129598
50710.3
66460.8
63315.1
59295.3
60448.9
56493.3
53116.9
70939.1
67619
62266.6
84854.9
75174
69553.7
78906.2
84081.9
60450.3
73757.7
64619.6
52148.6
60561.7
73873.9
67171.8
54197.8
63791.5
72133.4
87112.1
61668.3
75255.2
43054.8
46004.7
37908
47701
62292.7
56127.1
53315.9
46715.2
46010.5
50115.3
53690.2
58049.2
57362.5
65660.9
59666.1
57133.5
49659.1
53460.6
72453
61540
64160.1
58207.3
69993.1
50329
73179.4
60933.7
69603
82453.3
53631.9
48018.8
42793.7
50216.4
67750.8
61378.7
55894.8
49616.4
47299.4
42221.4
52903.7
66786.4
60592.7
58520.4
66652.5
62438.5
55858.1
59638
78632.7
71211.9
66888.7
62513.3
55761.7
50547.2
57169.8
75979.6
69417.7
62923.3
56275.8
76458.6
63591.1
82191.5
68465.2
76515.5
90854.3
58440.7
57347.6
49421.9
69815.1
60257.4
68763.4
79009.6
94624.2
88215.8
78130.9
99403.5
106207
94625.1
88290.1
87078.9
93092.8
81122.2
102916
109503
96202.4
89907.7
64128.9
74341.8
66328.7
75658.6
74066.5
84440.6
83610.7
92930.8
96343.7
110884
81801.8
98023.7
70361.2
84891
58312.9
76802.4
78836.6
73941.8
67033.1
69761.7
64561.9
54500.6
75549.6
62674.7
75552.9
62937.7
71615.3
85201.9
53577.9
70582.9
61619.7
74395.1
65464.2
74291
83929.3
62310.3
85799
71013.9
84194.9
70071
79307.7
94688.7
64477.7
85231.8
84267.4
79465.3
76987.8
72437.4
70813.3
77263
67164.6
79562.9
79379.7
104848
90340.5
92970.7
0.00904146
0.00214992
0.000393609
5.77538e-05
5.43433e-06
4.03321e-07
2.44181e-08
93.9048
0.0360597
0.00986486
0.00159819
0.000139114
9.76383e-06
5.6038e-07
19781.2
11.7765
0.333452
0.0210608
0.00308037
0.000215327
1.15981e-05
301249
185369
1327.86
1.36748
0.0362561
0.00392864
0.000221001
161126
232533
317948
29605.2
5.47496
0.0429736
0.00330537
90156.8
121126
178993
314577
83248
6.07045
0.0310843
68725.9
103343
165784
313234
39127
1.54053
61407.3
102232
176192
322438
2264.07
78917.9
142503
308644
5323.59
0.00286786
0.000938392
0.000139199
1.91952e-05
1.92875e-06
1.48415e-07
9.25502e-09
0.10324
0.0132703
0.00289349
0.000443668
4.62117e-05
3.38725e-06
2.03916e-07
197.778
1.85416
0.0933133
0.0106226
0.00111761
7.26568e-05
3.97302e-06
285779
70903.3
190.224
0.573071
0.0152768
0.00160954
7.46134e-05
187125
279038
296744
4307.32
1.06377
0.0172375
0.00131854
104934
141599
206079
328842
14360.5
1.04357
0.0130441
81058.2
121208
189985
329554
5843.63
0.489154
60891.9
119951
202063
308968
337.202
92445.7
165182
284544
84.157
0.000869744
0.000167027
3.38549e-05
4.10833e-06
3.79252e-07
2.78233e-08
1.58616e-09
0.0127797
0.00382339
0.000891429
0.000101369
9.2174e-06
6.58489e-07
3.83297e-08
0.73115
0.14081
0.0125659
0.00205808
0.000194356
1.3747e-05
7.72663e-07
64573.8
617.403
1.60365
0.0435615
0.00353598
0.000253149
1.39911e-05
291157
328277
54164.4
27.5501
0.106376
0.00384738
0.000213027
147388
190727
309496
221386
91.3883
0.111412
0.00247769
110065
170178
269485
234236
39.0324
0.0342828
102762
123479
297885
85130
2.53953
124521
150665
4381.75
0.529953
0.000107123
2.28665e-05
4.11361e-06
5.08066e-07
4.65225e-08
3.36149e-09
1.01863e-10
0.00226591
0.000636501
0.000103121
1.25138e-05
1.12718e-06
7.99482e-08
4.61296e-09
0.0527321
0.011482
0.0022005
0.000268535
2.43098e-05
1.6736e-06
9.39617e-08
3.98983
0.755697
0.0430123
0.00510466
0.000471386
3.17997e-05
1.71657e-06
237515
10475.9
23.4265
0.175518
0.00864614
0.00051825
2.72643e-05
163724
228218
197437
270.651
0.308641
0.00693725
0.00034506
128718
150475
194717
282503
333.721
0.190263
0.00300135
109878
170564
206078
227639
42.5658
0.0307164
118216
142361
282883
1.0402
0.0222982
1.21682e-05
2.57765e-06
4.30358e-07
5.17612e-08
4.68572e-09
2.76486e-10
0
0.000262211
5.98172e-05
1.0078e-05
1.21404e-06
1.08805e-07
7.85803e-09
3.7835e-10
0.00451054
0.00135784
0.000207399
2.52171e-05
2.23762e-06
1.57524e-07
9.09495e-09
0.105899
0.0157026
0.00354011
0.000463586
4.17644e-05
2.87764e-06
1.61599e-07
5.80889
0.977468
0.0642522
0.00726251
0.000665423
4.57671e-05
2.50241e-06
178953
6826.94
21.5436
0.210211
0.00869306
0.000582028
3.18945e-05
208612
187733
85183.3
89.4226
0.210886
0.00498519
0.00029722
95977.2
138471
176399
101482
34.0988
0.0549255
0.00211135
155231
210627
1.86057
0.0489929
0.0097924
1.29042e-06
2.62778e-07
4.05707e-08
4.55475e-09
3.20142e-10
0
0
2.89893e-05
5.86751e-06
9.22126e-07
1.05312e-07
9.19681e-09
5.96629e-10
0
0.000549362
0.000119471
1.88012e-05
2.12647e-06
1.83936e-07
1.30531e-08
7.13044e-10
0.00888695
0.00255276
0.000356231
3.98074e-05
3.35171e-06
2.32278e-07
1.34169e-08
0.0409373
0.0319064
0.00581436
0.000665185
5.4621e-05
3.65844e-06
2.04789e-07
14.1741
1.55795
0.0766186
0.00910042
0.000756341
4.89633e-05
2.64596e-06
168238
5004.33
8.44701
0.127435
0.00788688
0.000513167
2.70432e-05
117111
155502
208453
10.7653
0.0708548
0.00402608
0.000208679
210762
216935
161840
0.078178
0.0185068
0.00100056
1.05982e-07
2.11585e-08
3.04135e-09
2.47383e-10
0
0
0
2.34295e-06
4.63871e-07
6.88742e-08
7.5961e-09
5.67525e-10
0
0
4.52625e-05
8.93984e-06
1.34634e-06
1.48822e-07
1.28639e-08
8.58563e-10
0
0.000772014
0.000162632
2.4445e-05
2.66227e-06
2.26501e-07
1.6109e-08
8.58563e-10
0.0117507
0.00307636
0.000409288
4.31557e-05
3.55137e-06
2.4648e-07
1.43045e-08
0.0345965
0.0327294
0.00620899
0.000621189
4.82505e-05
3.23019e-06
1.83572e-07
8.92954
1.24791
0.0626622
0.00740263
0.000539851
3.42674e-05
1.89595e-06
90796.5
1286.43
2.83957
0.0582034
0.00457318
0.000275518
1.48047e-05
205599
66034.6
63.9428
0.0218703
0.00138658
8.09573e-05
6.94126e-09
1.25146e-09
1.01863e-10
0
0
0
0
1.5134e-07
2.99333e-08
4.19095e-09
3.7835e-10
0
0
0
2.84714e-06
5.59594e-07
8.18109e-08
8.93488e-09
7.13044e-10
0
0
4.80801e-05
9.49566e-06
1.41183e-06
1.54745e-07
1.34023e-08
8.58563e-10
0
0.000693411
0.000145334
2.18929e-05
2.37716e-06
2.03014e-07
1.46101e-08
7.71252e-10
0.00754881
0.00205134
0.000299975
3.1781e-05
2.64157e-06
1.86774e-07
1.10012e-08
0.0201707
0.0170887
0.00321807
0.000352505
2.80444e-05
1.94655e-06
1.14611e-07
1.23409
0.313411
0.0207603
0.00270715
0.00022189
1.52991e-05
9.05973e-07
1.08195
1.65174
0.0110848
0.00110098
8.42173e-05
5.20344e-06
2.91038e-10
0
0
0
0
0
0
8.3819e-09
1.5425e-09
1.45519e-10
0
0
0
0
1.52679e-07
3.0268e-08
4.26371e-09
3.7835e-10
0
0
0
2.50178e-06
4.97108e-07
7.29488e-08
7.989e-09
6.1118e-10
0
0
3.54916e-05
7.16523e-06
1.07677e-06
1.19253e-07
1.03319e-08
6.98492e-10
0
0.000396893
8.69348e-05
1.36103e-05
1.51605e-06
1.32364e-07
9.66247e-09
4.80213e-10
0.00321194
0.000754142
0.00013672
1.56434e-05
1.36324e-06
1.00219e-07
6.09725e-09
0.022533
0.00445275
0.000836391
0.000115813
1.0513e-05
7.89965e-07
4.92291e-08
0.0694005
0.00345089
0.000540243
5.6472e-05
4.49199e-06
2.874e-07
0
0
0
0
0
0
0
2.91038e-10
0
0
0
0
0
0
6.97037e-09
1.33878e-09
1.01863e-10
0
0
0
0
1.11671e-07
2.24391e-08
3.18687e-09
2.76486e-10
0
0
0
1.5363e-06
3.13477e-07
4.68863e-08
5.22414e-09
3.7835e-10
0
0
1.73138e-05
3.65409e-06
5.67976e-07
6.49306e-08
5.76256e-09
3.34694e-10
0
0.000147943
3.24424e-05
5.45071e-06
6.47866e-07
5.92845e-08
4.49654e-09
2.03727e-10
0.000967323
0.000203419
3.5943e-05
4.77259e-06
4.57192e-07
3.57395e-08
2.15368e-09
0.00120839
0.000166717
2.44648e-05
2.53302e-06
2.05968e-07
1.35769e-08
92968.8
41705
62085.4
76697.1
103049
46879.5
69438.2
90080.3
40562.1
64014.3
68704.9
99898.2
43917.5
71506.2
87514
48090.4
53772.2
66420.2
101848
74129.5
112694
111391
56637.1
72614.9
99453.8
123106
62805.8
80905.7
38943.3
45782.2
46634
47831.3
48683.3
55848.4
53721.4
109243
49327.8
73555.3
103316
139667
63804
94570.3
50047.1
72811.7
105992
75734.2
93765
135649
84128.1
43545.9
47858.8
50077.8
50007.1
52388.7
58882.7
56399.4
56358.1
100927
71968.2
78456.1
119442
100598
152615
41375.2
51608.5
52485.4
48809.8
49646.2
57269.8
60346.9
44450.6
53815.2
51018.4
56145.3
53361.4
60120.1
63264.9
50295.2
53557.3
56006.3
57478.4
60011.4
65717.8
63270.8
130390
66016.7
83605.8
133494
166376
90321.5
108634
80310.4
134479
119820
109594
137702
138179
223257
90846
127653
152867
124866
142435
142023
237529
108965
113522
71356.6
127516
189026
78684.3
99114.5
51126.5
59974.5
56999.7
64134.3
61104.2
67226.5
70556.7
59317.2
61328
63987.1
66866.3
69431.1
74314.7
71770.1
140526
92788.1
114089
198883
269511
126872
148967
146451
70269.7
101039
114346
160427
78330.8
111829
53258.1
63489.8
55378.5
63555.8
69986.1
72010.5
61487.9
54614.6
64281.5
56959.2
65845.1
71336.4
73518.1
63505
60283.4
68231
65286.5
74063.1
71038.8
76348
79721.9
46311.3
54542.1
55433.6
58859.3
59784
63822.4
68798.3
153233
73924.8
111917
113127
167430
78422.3
123643
54982.9
66241.7
57157.3
64476.3
71821.8
73921.7
62381.5
52998.6
56764.4
59176.7
61066.6
63520.5
66790.4
71766.6
161138
79451.4
106085
133706
175967
84351.6
117328
58988.1
71227.9
61531.4
68151
75874.2
78244.1
65706.1
65330.6
59857.6
56797.3
65436.3
78021.7
74270.3
68810.8
68044
61641.9
58497.7
66333.6
80001.1
76193.4
69738.9
59682.1
68783.4
62099.6
72105.3
76868.5
79184.7
69658.6
81286.7
67708.2
70172
76251.6
85589.5
87896.9
73793.9
156360
91499.9
96661.5
117472
184048
129667
201128
73170.2
66042.7
62868.4
69953.4
84476
80597.7
73419.1
66038.3
61309.2
58182.8
67578.5
79509.3
75740.4
71008.1
60324.9
63058.6
67407.7
67686.4
72170.2
74427.9
79774.7
66726.8
70597.7
63464.6
74019.9
85497
81530
77638.7
66647.6
75121.7
69171.4
79896.9
83988.9
86325.7
77462.5
206917
103944
128745
176602
228877
114491
141907
77869.7
92389
80337.2
85631.4
96155.6
98411.2
83300
77444.4
103869
149510
104453
130571
212312
118070
83645.6
75305.2
71910.8
78358.6
94854.3
90582.3
82084.3
77276.2
74245.6
70954.1
82307.3
93222.2
89058.9
86068
70128.3
71772.4
77867
76516.6
82857.8
84006.7
89646.2
169210
83092.6
118588
154699
211316
106624
151413
54777.9
71032.5
72030.4
64244.7
65204.7
74984.9
82588.3
176400
93749.6
131036
153099
221326
111818
166776
153960
94531.2
104714
143720
221881
107187
117205
57684.7
73221.4
66426.3
75818.2
68938.5
78002.8
85666.6
63305.7
78324.6
68261.6
82786
72930
78470
89050.2
65165.9
81436.9
70186
84848.8
73899.1
79507.1
91235
96231.8
70118.8
84667.4
81399.4
97694.4
92622.4
110654
78266.8
82187.3
68783.3
76497.6
89930.9
80119.9
88637.3
185550
100239
124347
179804
237673
119183
158642
69692
86880.9
74717.9
89429.6
77649.8
83309.9
95974.6
100340
120062
141218
111172
167804
139609
252250
75486.1
83916.3
81542.5
95342.9
86198.4
83755.4
73186.9
72539.4
79460
80445.2
92323.9
81538.8
82554.5
70508.6
95274.5
86171.3
82641.2
88287.6
106183
101564
92227.2
64773.9
79080.3
69729.7
84288.9
75158.5
80728
90588.9
72341
80011.3
79314.8
82152.7
81402.8
91984.6
89724.2
65419.7
80705.1
73457.6
85732.4
78207.6
86601.4
94939.5
70425.4
84278.5
75632.9
90562.9
82103
88096.5
97277.4
75058.7
84398.8
101330
88344
106393
98739.6
118280
76139.6
82260.8
84445.3
84941.2
87207.1
96396.9
94016.5
79387.3
99069.7
84963.4
100369
86752.5
93027.6
107711
210796
114820
136748
137372
213317
174406
287776
183190
102405
133839
225745
297673
137247
160972
77739.6
98316.9
93188.7
90601
88902.8
86384.1
81547.7
74811.7
95226.5
88323.8
89391.3
84135.7
85168.3
78579.7
83077
93170.3
88552.9
104366
90875.6
95522.6
80729.3
74580.2
88933.2
88167.8
84748.5
83992.2
94875.6
99520.3
81832.7
87188.6
89516
91432.6
93772.6
102444
99972.2
86623.1
102166
113299
97372.9
87035.4
73105.6
82571
91496
78259.1
85458.3
98582.4
90871.1
97217.2
105654
109560
99847.4
83957.9
102474
112488
121379
132386
82295.1
91366.5
87087.2
94275.8
89906.6
99373.3
104179
85428.7
100687
111851
96002.8
81436.7
71960.2
85660.7
82645.8
82421.8
75466.9
97698.6
89409.1
96960.3
106064
88350.9
96750.3
92347.4
101355
96778.9
105676
110685
82337.7
96050.8
107397
95784.4
85373.7
72192.9
81566.5
98000.1
116235
126701
98788.3
108369
82563.1
91384.2
85562
103179
107570
98189.6
93683.5
98487.4
89662.4
91825.1
103157
96725.3
113952
105527
99070
89542.1
85288.4
81974.2
74403.7
85469.5
106308
96863.9
93966.3
97343
76449
88644
86587.1
108900
99227.2
95154
90314.2
80304.8
68362.8
79232.3
89146
91717.2
102660
109807
98931
98367.7
86458
85444.1
96165.8
95864.1
135290
112632
128034
114500
121459
107024
100303
106829
94663
94827
83014.1
83778.5
94790
94625.6
246922
121028
150156
251628
323973
154622
190498
90765.4
112264
96831.6
112228
97333.3
104107
120309
96279.9
86527.7
85530.6
109871
99134
98559.5
110034
149584
127836
107974
139061
241177
213654
191170
178975
124828
134761
148395
219094
254049
166844
98749.2
96059.4
86385.4
92778.3
117348
106056
103224
88924.4
94285.5
81100.2
90522.7
114194
104192
99267.8
86076.4
83473.6
75888.4
87805.4
108026
98469.8
96384.8
93741.2
94856.8
83371.9
89671.9
113946
100827
102011
107070
112579
100166
121603
114343
127968
135438
93759
98895
101264
105834
108237
117006
114363
89354.5
94344.9
93569.1
101431
100632
105579
113485
80581.1
84224.2
71295.1
81496.9
91556.1
94936.9
106206
115375
103207
88101.4
104506
93268.3
78653.2
88575.9
84414.3
85669.4
73958
75948.5
66374.6
77145.9
87542.8
125632
92097.9
105615
119967
105440
125503
141893
136368
157905
172964
254570
257695
298283
269149
124849
113586
107211
123731
129830
135757
142164
113800
159615
108441
144279
200419
204791
75154.8
94774.6
117567
113996
107072
108919
102269
99138.9
90219.3
91681.1
82196.8
95760.9
115918
105695
105001
87229.7
96913
99949.7
104187
107408
110479
118712
273084
117923
166821
195081
298767
130137
181673
90898.8
105907
93211.1
104102
115442
118240
101594
261802
114568
171329
180575
288330
126489
186348
91595.2
104733
93894.1
106972
116474
119279
104405
168682
271012
157078
294006
290398
180289
261944
275031
125140
149597
211630
101660
154540
217399
156044
214375
92484.9
183374
49096.6
200087
203533
94523.3
130961
113206
122804
106752
127269
145577
113656
107268
95119.9
123551
110436
131601
146153
94702.9
118566
103365
107689
93006.7
102420
118365
70956.6
88145.9
79541.6
92016.3
83170.3
92572.3
102593
89450.9
103500
91680.4
103291
113758
116498
100820
101150
109344
104415
116814
111591
120571
126238
90098
106342
89537
80033.8
94952
104979
117254
109298
104049
94918.6
101898
128288
111765
117380
99030.4
90492.3
99174.9
105357
125644
114661
115346
120707
137067
130852
145545
139973
151054
157267
95968.9
108715
98398.6
112588
121546
124486
109895
106196
110844
113265
119950
122472
130933
128135
93473.8
102472
107308
109997
115143
117268
125902
307237
129175
204530
191677
319908
142199
224104
88589.9
102585
118230
116652
101247
116068
133129
188568
186968
194058
303160
313461
280128
246599
117774
92149.5
107520
100988
128201
117015
110678
115249
103947
121893
145567
134036
137548
158730
102824
120402
132570
136648
123997
144402
157583
109129
100799
96127.4
107284
127453
121706
112446
106676
99215.2
94570.9
106462
125626
119934
111606
97404.2
114658
99859.3
110257
123687
126674
107602
107925
101545
96821.9
110198
128541
122750
115480
118060
107862
102926
113547
136304
130259
118950
109549
122273
116858
132057
126272
134933
141120
121229
108303
121405
139593
125803
108866
93227.3
316796
140108
186852
258786
319199
153992
204033
105075
123940
107582
117619
132571
135673
114871
190933
284390
343197
284727
150652
241738
303832
118260
139260
150815
166661
142856
154329
179403
120655
113333
104800
112312
139963
129493
121608
112009
106317
101476
116006
134054
128082
121486
111824
99834.3
91156.4
107907
120870
117137
130955
233273
117868
166585
249850
347618
147418
240360
154242
168360
246164
182998
244281
347746
283805
100785
127490
126230
122916
115199
112159
110518
97553.1
123831
120190
121567
109630
110905
107075
127724
116249
111001
121210
145950
139572
126918
107457
120296
110030
127284
136026
139219
124372
91060.4
115901
101935
117513
104084
116123
130800
93361.7
107683
120057
120344
105361
117508
133853
97168.2
120842
119953
110246
109408
123327
135105
92611.9
116827
103633
119407
106653
118965
132888
124433
107515
92156.1
120223
104110
120163
138294
107000
115803
123700
124362
132839
133724
143539
13134.2
33767.2
16601.9
40005.4
29731.4
59570
70635.5
27939.6
-8748.85
5805.11
15758.1
31669.2
-7087.68
8357.84
-7918.42
-4478.98
-3547.7
-1794.35
-873.554
3485.87
2515.09
33296.3
-6586.72
9204.94
24472.6
44545.1
1414.51
18065.6
-7114.49
-2447.48
-2788.7
152.392
-19.7984
4302.04
4782.85
50806.3
6816.38
23471.8
57133.2
81511.4
31665.8
49494.8
53600.8
11671.7
31671.3
38079.8
60171.5
14492.3
35870.7
396.071
6747.21
1348.68
8401.65
12823.7
13812.8
7414.65
5502.5
14296.8
6517.83
10913.8
17547.4
18744.2
9862.09
15241.7
7758.78
7428.19
11779.8
20487.8
19645.4
12418.4
7405.68
2688.84
2043.57
9174.01
15635.1
14591.1
9947.79
-5362.97
-1772.92
690.334
-391.919
1873.79
5557.37
6986.09
-3107.82
6298.51
1871.58
8390.09
4033.11
9237.4
13563.6
15855.2
22501.6
20205.5
29192.4
23715.4
21293.1
14780.3
12602.1
18696.6
17964.9
19681.5
18886.1
26013.5
24993.6
13806.1
11621.5
13647.3
18570.1
20583.6
18830.5
25795.4
63613.9
15457.1
40985.2
52781.8
82256.7
32776.1
50649.1
3484.49
11128.7
5105
16719.9
10892.4
12639.3
18819.4
8397.85
18023.8
9658.86
21647.3
13351.1
14902.4
23434.9
16696.5
30023.6
25784.7
23410.2
24584.1
22132.5
17645.8
13291.4
21837.1
21090.1
20479.1
19631.6
26778.8
28583.2
97876.7
42259.8
61345.6
95790.2
142683
72783.9
96202.5
22078.8
36646
26899.1
38902.6
28971.8
34305.9
44491.8
26083.3
35165.6
27200.8
33600.2
39916.1
41613
32322.5
20275.8
16039.2
11791.1
17279.2
30397.4
26020.3
21563.4
13665
11832.8
7451.16
15082.3
26055.8
21569.5
19437.6
24664.4
32869.6
25631.6
32833.5
38513.9
40119.7
31623.2
27190.9
24752.7
18807.1
20732.3
36009.9
29439.1
27111.6
17681.9
23109.1
22293.7
25580.6
24835.8
30083.5
32932.5
91340.1
46099.2
65842
92086.9
132692
66603.3
77100.8
17144.8
30495
24111.3
31629.8
24813.9
31835.5
38807.3
35977.2
29722.1
28007.9
34377.3
44933.5
42475.8
36554.3
33586
28246.6
26359.5
33570.2
43450.7
40929.9
35812.2
21224
36819.9
28189.8
35907.7
26888.2
33923.3
43167.9
-10641
-1263.43
34590.1
-12534.2
7364.06
9990.27
5015.46
25073.4
7601.88
28700.6
-11592
-6329.64
-7149.96
-6174.31
-5344.05
82.7603
-883.408
-9907.96
10848.6
12121.7
8346.34
30147.4
17423.2
41804.7
-10964
-4178.49
-5022.41
-5587.01
-4726.97
643.984
1483.06
4196.05
32351.5
48216.7
22881.9
55986.3
57157.3
66762.8
318.505
8388.89
1316.06
6757.96
12851.1
13843
5790.14
-1269.1
5936.71
-323.566
5942.86
11298.9
12209.5
5014.98
-8213.42
-3443.31
-4283.26
-2541.52
-1755.64
2202.88
4067.87
2701.39
9085.28
1952.66
7360.14
15769.7
14547.1
8427.61
1070.85
6497.51
214.556
6481.77
14150.2
12841.8
7633.44
-5806.2
5119.21
4337.19
-128.683
661.544
6552.2
10979.9
12625.8
18770.8
17991.7
26058.2
18903.4
19728.2
11693
11195.7
10498.7
9720
16683.8
17465.7
16342.8
23329.6
3453.71
12804.1
5246.52
16720.4
9190.1
11237.2
18966.5
1783.3
10385.9
3651.46
15039.9
8349.4
10420.8
17327.6
13267.7
21998.1
26778.9
21150
19622
20462.5
14579.8
28880.3
35424.7
24993.7
25784.2
19462.7
31774.9
41684.1
19818.1
7713.76
15401.7
13869.2
26393.8
21848.6
18304.3
10553.4
12991.4
6127.35
13056.3
24741.6
20212.2
17501.5
23145.5
22309
15462
17754.7
33042.2
24879
25711.9
24477.8
17481.8
25267.7
32043.8
23757.3
30819.7
39281.4
29883.8
22848.8
15907.5
30368.5
22945
29993.5
37557.9
47489.5
54367.3
50138
59964.3
63235.9
56127.2
69652.8
59218.2
51645
41075.9
42961.3
32959.6
39462.3
49852.4
46377.6
48780.9
38471.7
41190.9
31311.7
38595.7
48904.7
23397.4
39473.7
37083.8
34857.5
32415.9
30141.5
27831.5
45819.8
47318.7
36818.7
42713.9
64123.3
52388.8
53588.3
39102.1
42566.6
32562.2
40502.8
58677.7
47683.9
51077.2
40462.5
46459.4
45749.9
55762.9
48531.2
47781.6
38856.5
25029.5
27983.6
20511.2
33432.5
28683
36490.2
41602.2
32873.1
33714.7
36659.7
28062.8
28912.6
20655.2
25205.1
31279.4
43181.9
34065.6
47340
38422.6
41640.9
51013.8
32594.2
29710.5
37714.1
45846.7
37662.6
40915.2
49560.3
41295.6
57068.8
52269.4
51532.1
49467.4
48736
43791.7
42917.5
40706.9
33375.2
40573.4
58714.9
50459
48182.4
37804.6
38647.4
30630.9
39291.7
46744.1
47839.2
55681.6
46243.3
48104.2
38771.7
47150.9
39644
30848.7
38055.8
74922.2
53826.8
66753.3
71665.8
63280.1
77403.2
86682.8
67046.9
79276.9
73352.3
83386.7
77332.8
84402.2
90672
59494.9
86765.4
73862
78431.7
66339.5
81308.2
95431.6
41326.9
45109.9
36184.8
45015
60346.4
54258.2
50533.5
55248.1
57458.8
46629.6
67421.4
55932.2
65329.5
77457.6
77801.4
65664.4
55404.9
56384.6
67883.7
46908.2
57740.6
49573.4
68692.5
72220.4
69262.7
59997.9
57491.7
60864
55191.9
54458.7
46186.8
49877.6
68570.5
59488
58763.9
47239.2
42662.9
37577.8
45718.4
61773.4
55688.9
51247.4
55428.6
57471.8
47569.5
67800.1
57318.9
65674.8
76815.9
48918.3
67990.8
56762.7
69198.8
58017.5
66373.7
78324.7
87498.1
83761.2
74397.4
90222.3
117624
105682
100800
89437.1
110314
103781
97457.6
119551
112927
104047
87017.8
80841.8
89686.1
92768.4
109599
102660
99344
54559.1
74699.4
71598.7
70890.1
64840.3
64125
60629.6
89103.5
76130.1
65051.7
75946.2
101936
87886
88915.5
78524.5
78901.7
66519.2
76726.8
104078
89595.4
89891.1
79790.6
79060.2
68043.2
77085.7
102250
89737.7
88949.4
106922
135631
130275
125114
123511
117999
113772
88204.8
115625
117604
116436
101973
101033
102365
130417
112418
138365
151208
130779
119005
101347
306826
134011
196120
240034
335958
170160
250390
146555
198015
269533
174438
326134
341630
261199
127309
114138
98424.4
126121
109741
122406
140407
121769
114587
104722
112835
143330
130691
123600
105275
127392
113181
133105
118346
127129
142807
101914
124113
113245
127907
116720
128990
141270
123911
111606
99884.3
127939
115946
129210
142280
315060
137839
191155
271589
330966
174826
242262
106899
130154
114870
135011
119217
128042
144817
107718
128839
115777
136167
122434
131481
146035
151099
127062
143419
143402
169607
160573
151200
118778
123847
113406
131011
149510
143069
137096
119038
131665
121695
140878
149081
152403
137805
132169
114091
103000
121021
140566
132773
153396
107622
122209
121862
120605
136488
123398
139436
120517
136240
139217
121938
123160
107499
107864
86929.9
110585
99456.5
113154
126937
110584
99437.2
145696
122688
125438
135725
154062
157486
132686
298038
165961
181645
221544
301125
245317
282295
110686
139790
139397
133084
121452
127571
121322
130823
157114
149403
145388
174334
164810
153190
145424
130939
137870
149428
173754
164789
156531
125303
129874
143343
113444
147050
131194
126458
112069
100784
89433.9
103433
130580
116120
115159
149749
135178
129192
139624
168664
161675
145981
112669
133502
120992
141954
128729
138182
152174
108793
130932
119472
137117
125079
136808
149909
129794
129412
139714
138884
149832
149271
159957
126043
113113
113093
129155
142525
130574
146312
117325
129076
132129
130629
133707
150536
147174
326821
150462
239651
261531
302103
189718
319596
135637
131367
125503
145016
163514
156651
151552
114347
140651
122839
144307
126085
135376
154631
119971
122298
109404
138691
127372
142138
154491
120785
131849
134976
135223
138429
154551
151092
130519
112063
103344
115151
99141.9
89403.2
100729
318745
162720
216213
331153
245704
206571
291291
123148
151854
132208
154379
134463
144291
165254
111496
129958
144833
141380
122159
136125
157258
190843
347998
236968
191380
322486
308090
289104
126743
141046
146358
165930
172488
161751
189628
148161
163492
170210
155434
187805
177961
162187
163100
155460
142368
163629
189140
178116
171545
116808
129701
128765
149811
132773
131812
114053
122373
133402
137409
156717
136550
140654
119486
120956
143025
138296
159929
162196
154850
180402
87197.6
99316.7
114638
100787
124225
126360
145807
120768
142074
135821
143708
137415
154448
161143
121929
152031
154272
144888
140746
132146
133665
120575
154440
136165
142737
180107
161754
159781
127853
163019
147726
151342
190579
166676
173541
113332
107735
97073
107518
143177
125657
120160
120250
153731
142752
141754
136482
135507
125948
129425
145856
139868
164772
149250
143172
126402
124783
148096
135195
158043
144396
155825
170234
125866
147379
135165
158044
145145
155576
169054
148505
117222
127438
161088
137854
148833
173318
124300
145048
138714
148635
142212
158517
165295
136152
144600
125182
138156
158454
148164
165219
103664
108397
115415
121612
130420
137308
156466
132264
142733
146091
149443
152897
168496
164824
246317
190836
260826
294141
196011
210110
285741
138783
164486
141772
151654
173260
176783
148424
153842
163789
178259
167117
211353
194119
181722
187767
168149
161735
174216
219027
203172
183116
125881
160657
146630
150870
140274
144416
131777
132641
134142
118365
131710
165561
147258
148922
149145
132156
115248
130790
167210
146945
149370
135566
135197
154664
132310
171272
150285
151163
139289
135652
122109
135911
170581
154749
150694
134684
131628
150478
134091
170283
149338
153521
131206
133371
132387
146992
148953
148125
165019
335628
170647
211160
320604
170010
278417
342830
126520
164638
141473
158159
136465
152333
176525
168533
155639
166084
183089
195851
180590
213212
133155
168909
159942
153578
153241
147034
139309
169068
152417
145944
155948
189960
181692
162789
141344
136731
124811
139061
171423
157023
152203
138354
134751
123003
138069
169095
154862
151111
124625
165432
143777
138080
181326
158056
158432
135967
156508
149928
163590
156859
172637
179758
143091
176888
153443
178187
154378
165290
191045
314565
192388
255813
264292
262738
331000
80599.1
137328
136908
141040
151969
155587
156526
172175
139917
137802
125811
142768
172690
158290
156173
144969
144027
131450
150033
179813
164871
164121
160062
145450
126235
145748
183456
159972
167618
139087
160872
149212
172719
160168
171508
185074
141038
165229
150893
177966
162597
173447
189967
143314
153251
156727
162233
165782
181723
177964
143766
150288
151973
160835
162572
169926
181183
131606
144440
151242
160491
165121
168086
183130
147584
167633
157615
187845
161159
171255
144275
152642
146174
133473
146972
182350
167406
160705
153941
146670
133852
148861
185897
162769
170891
147811
153375
157106
164054
167975
174239
185806
135555
153491
159668
175378
153648
159816
186676
210522
271772
214728
276460
116944
760.544
90221
161747
138548
141757
179962
158995
166318
192242
151596
183240
192729
172295
165302
175695
158252
150988
149959
133437
143163
180479
161575
160504
155000
159395
139566
149633
188042
165725
170325
164652
157361
143661
156595
195124
178807
171148
174850
151348
138797
161030
203616
174683
187245
147392
167800
160891
177529
170201
186501
194609
231553
188727
310492
324066
161813
205157
322881
146131
169379
149478
169779
188386
192117
166187
176541
195077
192693
210442
231962
207686
252439
161625
192613
195235
180109
182499
203911
222928
282602
181720
274194
38953.6
420.734
221517
107928
217376
215791
93715.3
14451.9
152.07
185772
22452.1
119918
160340
163344
155184
140896
135059
135486
163236
188169
173505
210770
191820
177113
159803
168848
162234
147456
157977
198445
180441
173385
163750
164076
190974
153814
207524
177768
177679
160623
159822
146839
168521
199306
182769
183756
113903
129652
147816
150202
131417
150732
176015
159855
180794
167137
155719
142219
162205
193047
148117
170434
151512
172940
190770
194539
169295
166374
175075
154405
198256
175981
186730
213474
161097
165226
172591
176466
184377
189521
202750
150564
175928
147788
131248
150105
127808
113837
189376
197954
323722
323940
114401
215522
323510
150801
225830
301530
154132
10036.7
309470
321535
161012
201897
172542
201807
172023
184620
218998
192478
170557
206546
5087.99
61709.7
19374
82.9756
161624
192766
203932
195725
182538
180117
170837
170058
159766
147525
164400
205265
189879
177742
154999
119707
135387
163074
140445
159753
188675
131825
154235
131845
170246
144444
170302
198115
149544
174971
152950
171637
192769
196523
168029
170234
201679
187490
211126
195284
216319
238555
169480
180445
184130
197239
200984
222087
217980
130489
210178
318653
307681
62122
230267
324857
155400
182789
158950
176981
201103
204965
173273
158273
179914
161855
186760
205626
209480
182948
320314
186476
283957
339203
33986.4
281535
331380
167694
162970
173842
181190
187109
194324