/*--------------------------------*- C++ -*----------------------------------*\
  =========                 |
  \\      /  F ield         | OpenFOAM: The Open Source CFD Toolbox
   \\    /   O peration     | Website:  https://openfoam.org
    \\  /    A nd           | Version:  9
     \\/     M anipulation  |
\*---------------------------------------------------------------------------*/
FoamFile
{
    format      ascii;
    class       volScalarField;
    location    "0.00285";
    object      rho.air;
}
// * * * * * * * * * * * * * * * * * * * * * * * * * * * * * * * * * * * * * //

dimensions      [1 -3 0 0 0 0 0];

internalField   nonuniform List<scalar> 
27205
(
0.277694
0.287663
0.569009
0.553558
1.04103
0.873028
1.44759
0.449096
0.168475
0.350596
0.270896
0.425695
0.427869
0.5459
0.42965
0.161553
0.266268
0.454184
0.558539
0.356017
0.43166
0.19229
0.199183
0.222354
0.202399
0.225514
0.258893
0.23699
0.45003
0.727861
0.875493
0.62237
0.640979
0.813139
1.00305
0.660132
0.464527
0.533603
0.924368
1.04859
0.723323
0.841439
0.186792
0.192171
0.216866
0.193361
0.218338
0.25266
0.228856
0.255784
0.375999
0.283451
0.38094
0.28673
0.316129
0.406519
0.254442
0.380341
0.281811
0.385398
0.284148
0.314136
0.410794
0.233287
0.291325
0.2552
0.295355
0.316358
0.335234
0.27496
0.308313
0.241861
0.263835
0.300983
0.330329
0.349356
0.280507
0.227072
0.287944
0.250484
0.290868
0.312733
0.332936
0.26875
0.944252
0.979299
1.2936
1.00589
1.18118
1.22962
1.32118
0.54057
0.474749
0.482999
0.568454
0.580262
0.506721
0.606684
1.2362
0.793431
0.941274
1.39453
1.47668
1.02067
1.28916
0.360591
0.413257
0.321198
0.353143
0.478122
0.395888
0.440052
0.401439
0.343481
0.312399
0.34748
0.461408
0.381643
0.432954
1.08268
0.996736
0.982233
0.802955
1.00558
1.23271
1.09375
1.46307
0.231491
0.300664
0.255696
0.295097
0.324635
0.345687
0.272528
0.342908
0.405252
0.311081
0.34666
0.466827
0.382327
0.437643
0.56242
0.487793
0.497305
0.588618
0.603172
0.520218
0.628446
0.73733
0.810162
0.732973
0.672763
0.739095
0.807149
0.884875
0.358336
0.417355
0.318053
0.351791
0.485478
0.396835
0.445182
0.341242
0.376087
0.367586
0.441159
0.384846
0.393468
0.322329
0.650915
0.617236
0.686417
0.746104
0.666092
0.699042
0.786987
0.595297
0.523162
0.498668
0.556788
0.530597
0.632642
0.660567
0.516952
0.66379
0.620922
0.579343
0.540874
0.646683
0.690601
0.510455
0.639005
0.613986
0.569222
0.543662
0.653492
0.679946
0.387632
0.509766
0.477126
0.500009
0.425609
0.434307
0.468526
0.338369
0.375316
0.366669
0.446203
0.39426
0.3853
0.317738
0.646245
0.762382
0.678003
0.787062
0.697698
0.729146
0.825511
0.531198
0.68937
0.644749
0.596278
0.555526
0.670311
0.717226
0.800906
0.808834
0.748675
0.821967
0.896949
0.873129
0.961241
1.65366
1.50278
1.14787
1.65999
1.51597
1.49666
1.77588
0.388605
0.485224
0.519773
0.508151
0.438854
0.428992
0.475167
0.903667
0.906384
0.821305
1.08769
0.987467
0.89533
0.987497
1.0807
0.887888
0.974457
0.880784
0.80372
0.887269
0.973868
0.898163
0.81846
0.914224
1.00342
1.10523
0.896196
0.984244
0.769947
0.718761
0.684662
0.731776
0.871234
0.765721
0.828486
0.862488
0.84306
0.872677
0.924164
0.959745
0.920574
1.01953
0.607989
0.595631
0.566488
0.673567
0.75432
0.704152
0.720148
0.947994
1.03215
0.871981
1.06362
0.975207
1.0542
1.15799
0.771244
0.808892
0.717261
0.749529
0.916137
0.80353
0.849549
0.741397
0.801588
0.70985
0.760418
0.904609
0.79219
0.864681
0.62621
0.610772
0.581665
0.697155
0.781499
0.747525
0.726947
0.808071
0.853585
0.751321
0.782592
0.963823
0.840501
0.892207
0.935828
1.10694
1.00979
1.15996
1.05306
1.12657
1.24834
0.907382
0.938846
0.853515
0.978238
0.924832
1.02551
1.09095
1.19499
1.08719
0.982891
1.20436
1.31917
1.19431
1.08658
1.10436
1.12313
1.00297
1.2319
1.34692
1.20656
1.09835
1.05055
1.06928
0.980335
1.07913
1.15826
1.17778
1.26435
1.22305
1.20789
1.35776
1.10632
1.22227
0.987307
1.08652
0.782149
0.957807
0.87619
0.933924
0.817616
0.83763
0.890739
0.898654
1.08817
0.990687
1.02981
0.949071
1.05315
1.14945
0.891826
1.04601
0.985181
1.01834
0.968783
1.07843
1.1384
0.954745
1.16513
1.06081
1.08866
1.00187
1.11799
1.2214
0.814471
0.912543
1.00478
0.97281
0.874792
0.848476
0.931817
1.11163
1.02852
1.12814
1.13414
1.35437
1.2144
1.25582
1.225
1.225
1.225
1.225
1.225
1.225
1.225
1.22579
1.225
1.225
1.225
1.225
1.225
1.225
1.36854
1.2251
1.225
1.225
1.225
1.225
1.225
2.77339
2.36913
1.23577
1.22501
1.225
1.225
1.225
1.39492
2.12327
2.86203
1.43541
1.22505
1.225
1.225
0.586881
0.983677
1.66511
2.73397
1.78145
1.22505
1.225
0.488205
0.826168
1.52305
2.72072
1.49928
1.22501
0.46478
0.822096
1.63463
2.86034
1.2431
0.558006
1.21736
2.71188
1.26577
1.225
1.225
1.225
1.225
1.225
1.225
1.225
1.225
1.225
1.225
1.225
1.225
1.225
1.225
1.22666
1.22502
1.225
1.225
1.225
1.225
1.225
2.77515
1.70315
1.2266
1.225
1.225
1.225
1.225
1.65086
2.42567
2.83359
1.25884
1.22501
1.225
1.225
0.826464
1.19029
1.87425
2.86128
1.33177
1.22501
1.225
0.700475
1.00332
1.72002
2.8563
1.27041
1.225
0.858495
0.994641
1.83607
2.86493
1.22781
0.777631
1.43926
2.76774
1.22571
1.225
1.225
1.225
1.225
1.225
1.225
1.225
1.225
1.225
1.225
1.225
1.225
1.225
1.225
1.22501
1.225
1.225
1.225
1.225
1.225
1.225
1.66048
1.23006
1.22501
1.225
1.225
1.225
1.225
2.47692
2.85237
1.59593
1.22523
1.225
1.225
1.225
1.48281
1.95414
2.60598
2.54006
1.22577
1.225
1.225
1.29914
1.59413
2.35678
2.59909
1.22533
1.225
1.33339
1.29286
2.53265
1.79057
1.22502
1.41753
1.50974
1.25908
1.225
1.225
1.225
1.225
1.225
1.225
1.225
1.225
1.225
1.225
1.225
1.225
1.225
1.225
1.225
1.225
1.225
1.225
1.225
1.225
1.225
1.225
1.22503
1.22501
1.225
1.225
1.225
1.225
1.225
2.58693
1.30344
1.2252
1.225
1.225
1.225
1.225
1.84293
2.24756
2.40436
1.22726
1.225
1.225
1.225
1.57003
1.74474
2.02206
2.76417
1.22778
1.225
1.225
1.34969
1.96969
2.10764
2.54832
1.22536
1.225
1.3911
1.6789
2.57382
1.22501
1.225
1.225
1.225
1.225
1.225
1.225
1.225
1.225
1.225
1.225
1.225
1.225
1.225
1.225
1.225
1.225
1.225
1.225
1.225
1.225
1.225
1.225
1.225
1.225
1.225
1.225
1.225
1.225
1.225
1.22505
1.22501
1.225
1.225
1.225
1.225
1.225
2.37423
1.27764
1.22518
1.225
1.225
1.225
1.225
2.32725
2.16413
1.79584
1.22575
1.225
1.225
1.225
1.39785
1.81309
2.07583
1.89923
1.22529
1.225
1.225
1.89899
2.34108
1.22502
1.225
1.225
1.225
1.225
1.225
1.225
1.225
1.225
1.225
1.225
1.225
1.225
1.225
1.225
1.225
1.225
1.225
1.225
1.225
1.225
1.225
1.225
1.225
1.225
1.225
1.225
1.225
1.225
1.225
1.225
1.225
1.225
1.225
1.225
1.225
1.225
1.225
1.22512
1.22501
1.225
1.225
1.225
1.225
1.225
2.33193
1.2655
1.22507
1.225
1.225
1.225
1.225
1.70056
2.00973
2.49297
1.22509
1.225
1.225
1.225
2.41575
2.49017
2.29998
1.225
1.225
1.225
1.225
1.225
1.225
1.225
1.225
1.225
1.225
1.225
1.225
1.225
1.225
1.225
1.225
1.225
1.225
1.225
1.225
1.225
1.225
1.225
1.225
1.225
1.225
1.225
1.225
1.225
1.225
1.225
1.225
1.225
1.225
1.225
1.225
1.225
1.225
1.225
1.225
1.225
1.225
1.225
1.225
1.225
1.22508
1.22501
1.225
1.225
1.225
1.225
1.225
1.87087
1.23573
1.22502
1.225
1.225
1.225
1.225
2.41899
1.70591
1.22555
1.225
1.225
1.225
1.225
1.225
1.225
1.225
1.225
1.225
1.225
1.225
1.225
1.225
1.225
1.225
1.225
1.225
1.225
1.225
1.225
1.225
1.225
1.225
1.225
1.225
1.225
1.225
1.225
1.225
1.225
1.225
1.225
1.225
1.225
1.225
1.225
1.225
1.225
1.225
1.225
1.225
1.225
1.225
1.225
1.225
1.225
1.225
1.225
1.225
1.225
1.225
1.225
1.22501
1.225
1.225
1.225
1.225
1.225
1.225
1.22501
1.22501
1.225
1.225
1.225
1.225
1.225
1.225
1.225
1.225
1.225
1.225
1.225
1.225
1.225
1.225
1.225
1.225
1.225
1.225
1.225
1.225
1.225
1.225
1.225
1.225
1.225
1.225
1.225
1.225
1.225
1.225
1.225
1.225
1.225
1.225
1.225
1.225
1.225
1.225
1.225
1.225
1.225
1.225
1.225
1.225
1.225
1.225
1.225
1.225
1.225
1.225
1.225
1.225
1.225
1.225
1.225
1.225
1.225
1.225
1.225
1.225
1.225
1.225
1.225
1.225
1.225
1.225
1.225
1.225
1.225
1.225
1.225
1.225
1.225
1.225
1.225
1.225
1.225
1.225
1.225
1.225
1.225
1.225
1.225
1.225
1.225
1.225
1.225
1.225
1.225
1.225
1.225
1.225
1.225
1.225
1.225
1.225
1.225
1.225
1.225
1.225
1.225
1.225
1.225
1.225
1.225
1.225
1.225
1.225
1.225
1.225
1.225
1.225
1.225
1.225
1.225
1.225
1.225
1.225
1.225
1.225
1.225
1.225
1.225
1.225
1.225
1.225
1.225
1.225
0.718119
0.30956
0.465476
0.603868
0.810335
0.46052
0.57447
0.703145
0.331185
0.480406
0.572529
0.791313
0.456734
0.588854
0.676053
0.340506
0.49006
0.492755
0.801373
0.602758
0.897782
0.859608
0.333875
0.503783
0.716342
0.969257
0.49797
0.622583
0.312176
0.357562
0.361503
0.375061
0.378824
0.426602
0.41125
0.897224
0.55932
0.66506
1.09793
1.31073
0.882364
1.03173
0.652123
0.662246
0.874716
0.680313
1.02567
1.27526
0.981856
0.329377
0.356827
0.374765
0.360534
0.37882
0.428611
0.4124
0.595039
1.11047
0.946694
0.695995
0.989653
1.0815
1.42496
0.377692
0.489319
0.49324
0.416043
0.419651
0.462741
0.530072
0.377955
0.492891
0.417007
0.499178
0.421723
0.46586
0.536213
0.359717
0.3873
0.404837
0.401476
0.419108
0.468818
0.453149
1.07189
0.613159
0.806379
1.3015
1.53736
1.04233
1.13563
1.09424
1.61843
1.46396
1.39617
1.63166
1.65406
2.38095
1.13706
1.52633
1.80373
1.48346
1.63676
1.6682
2.48326
1.43531
1.48832
1.02248
1.78474
2.25833
1.31613
1.52391
0.406449
0.522578
0.445915
0.538505
0.460623
0.505707
0.576813
0.355359
0.386832
0.405936
0.40225
0.421466
0.478044
0.460912
1.66747
1.22287
1.44026
2.20057
2.69565
1.51776
1.76014
1.30694
0.530024
0.811183
0.916356
1.4055
0.628981
0.898378
0.408053
0.478253
0.423478
0.480263
0.530504
0.542303
0.466876
0.40844
0.479227
0.424334
0.4834
0.533307
0.545597
0.469299
0.407406
0.534243
0.45163
0.552291
0.468279
0.519461
0.59595
0.550491
0.58218
0.587027
0.686785
0.692977
0.622197
0.73098
1.38152
0.555199
0.913599
0.909861
1.48058
0.596772
1.00714
0.417058
0.494024
0.432366
0.48535
0.542561
0.554474
0.471965
0.665947
0.589167
0.598387
0.697358
0.710107
0.632123
0.745318
1.46884
0.571184
0.84948
1.08897
1.5724
0.616514
0.941885
0.419428
0.502944
0.435839
0.491207
0.553491
0.566517
0.476777
0.510552
0.527125
0.45978
0.512433
0.628641
0.571329
0.574158
0.526138
0.536223
0.468327
0.517458
0.641497
0.583575
0.579462
0.437635
0.506651
0.45322
0.523562
0.573053
0.585585
0.509405
0.572463
0.472615
0.488449
0.545194
0.626863
0.639848
0.530822
1.33116
0.665299
0.712015
0.966633
1.70655
1.06405
1.81919
0.537379
0.545639
0.473855
0.524758
0.658549
0.597435
0.589817
0.511729
0.530123
0.461059
0.516304
0.6338
0.575201
0.580119
0.711181
0.623926
0.643265
0.740612
0.76519
0.677021
0.798626
0.559367
0.539031
0.489509
0.556544
0.675632
0.615502
0.621572
0.443218
0.518806
0.45998
0.539389
0.594468
0.608045
0.524166
1.90611
0.717646
1.05411
1.52612
2.04896
0.844069
1.16628
0.484814
0.602438
0.502172
0.566296
0.664151
0.678323
0.55087
1.07476
1.16183
1.44149
1.24938
1.47112
2.05651
1.40232
0.607598
0.598598
0.526192
0.579126
0.736016
0.671943
0.645742
0.554392
0.575111
0.5002
0.576351
0.706585
0.641449
0.646498
0.740072
0.6445
0.666154
0.771479
0.799053
0.704203
0.835888
1.49881
0.716049
0.982362
1.41928
1.91449
1.09647
1.38815
0.755007
0.907894
0.917084
0.795856
0.803571
0.847427
0.968647
1.57434
0.861185
1.09834
1.40385
1.99703
1.13981
1.5304
1.48157
1.20053
1.16908
1.64642
2.12051
1.38097
1.39459
0.773935
0.926075
0.8102
0.946422
0.826782
0.866541
0.992623
0.618925
0.773488
0.727112
0.715229
0.663756
0.775
0.827498
0.629486
0.794583
0.739999
0.729256
0.669681
0.781946
0.843395
1.20852
0.988483
1.08779
1.10775
1.22417
1.22353
1.35879
1.10368
1.13956
1.09578
1.18401
1.23001
1.22131
1.31723
1.67083
0.897158
1.03125
1.6479
2.12443
1.19311
1.45568
0.644179
0.821213
0.761108
0.750636
0.683948
0.801103
0.869964
1.25172
1.48963
1.59349
1.22655
1.60267
1.55439
2.31539
0.553619
0.628798
0.61535
0.728698
0.640338
0.626565
0.540947
0.546328
0.608147
0.615356
0.713145
0.618811
0.626068
0.534558
0.641958
0.62255
0.544624
0.604648
0.785858
0.714937
0.67692
0.623916
0.777335
0.734332
0.722006
0.672219
0.786497
0.83617
0.541994
0.607895
0.605698
0.618837
0.61644
0.707803
0.697662
0.829259
0.988002
0.863063
1.02404
0.893497
0.9306
1.06767
0.656773
0.813154
0.773897
0.766916
0.717112
0.837853
0.886155
1.03008
1.13137
1.25167
1.16863
1.29644
1.27987
1.42455
0.5674
0.628083
0.638981
0.647149
0.658311
0.74568
0.735374
0.70183
0.907229
0.828387
0.833338
0.744109
0.869023
0.960385
1.91531
1.01192
1.33378
1.1588
1.92514
1.60032
2.45615
1.72442
1.27508
1.45771
2.18802
2.56406
1.61977
1.77571
0.583756
0.754976
0.725992
0.710216
0.668592
0.654147
0.643487
0.575316
0.73829
0.699744
0.707466
0.645466
0.652808
0.632699
0.609449
0.706873
0.673157
0.812226
0.684609
0.718618
0.596644
0.571238
0.700986
0.697628
0.645935
0.643218
0.733159
0.786402
0.584514
0.64867
0.660557
0.67528
0.687498
0.781527
0.770346
1.19871
1.34284
1.43268
1.28134
1.20718
1.08855
1.16611
0.847099
0.680011
0.722146
0.804794
0.749371
0.879096
0.932071
1.39279
1.28826
1.12302
1.25028
1.36313
1.4433
1.56316
0.655614
0.721436
0.665976
0.742429
0.685774
0.771325
0.826043
1.19733
1.33625
1.42312
1.27084
1.16006
1.085
1.19875
0.905524
1.00107
0.870367
1.0859
0.940754
0.980354
1.13095
0.679396
0.748883
0.689754
0.779461
0.717999
0.809675
0.868828
1.05392
1.13566
1.27752
1.21228
1.08142
1.00062
1.11616
1.31092
1.46434
1.54208
1.30338
1.36943
1.17705
1.24639
0.640283
0.808685
0.839439
0.771214
0.712864
0.748032
0.702155
0.638435
0.753901
0.709584
0.871531
0.766853
0.722146
0.624587
0.896283
0.963309
0.842836
0.897846
1.0941
0.95604
1.02735
1.05494
0.858491
0.921241
0.906043
1.11548
0.974457
1.03692
1.15909
1.03436
0.963702
1.02368
1.14684
1.09538
1.23131
1.54125
1.32979
1.42133
1.19498
1.28192
1.30373
1.39575
1.62572
1.34331
1.50478
1.35881
1.478
1.32559
1.21079
1.42132
1.3845
1.29239
1.25917
1.17274
1.29167
1.38381
2.18655
0.956022
1.27331
2.20977
2.72387
1.45097
1.74342
0.733995
0.966923
0.871172
0.892683
0.783344
0.918253
1.03078
1.30597
1.19771
1.28464
1.45092
1.33365
1.4249
1.54419
1.94282
1.78169
1.52322
1.74948
2.55307
2.4349
2.45185
2.17079
1.60767
1.82117
1.84105
2.49344
2.64295
2.32731
0.814665
0.796834
0.733391
0.849786
1.0135
0.932238
0.911846
1.01724
0.955835
0.88673
0.930986
1.15567
1.00742
1.06791
0.90123
0.975251
0.852401
0.912747
1.10744
0.966929
1.04577
0.7839
0.792286
0.719543
0.832284
0.987037
0.8961
0.905418
1.32714
1.34404
1.21211
1.48069
1.36104
1.50634
1.62769
0.67848
0.749833
0.761862
0.80463
0.816955
0.92165
0.910134
0.828802
0.786099
0.781882
0.899277
0.894089
0.869996
0.982392
1.10821
1.06963
0.992314
1.04573
1.17299
1.12442
1.26583
1.3414
1.19014
1.10054
1.28
1.13817
1.05045
1.17606
1.37509
1.38737
1.2642
1.24647
1.14124
1.25782
1.36973
1.50831
1.2159
1.35075
1.48373
1.35058
1.5085
1.66496
1.61835
1.78108
1.87781
2.37049
2.6149
2.88922
2.6909
1.50954
1.3842
1.26813
1.44038
1.55811
1.57477
1.69181
1.66992
2.04104
1.62586
1.91467
2.43906
2.44704
1.76822
0.673444
0.903091
0.869115
0.818829
0.800843
0.754289
0.741301
1.03183
0.943637
0.900353
0.973194
1.17342
1.02421
1.11638
0.744856
0.807564
0.830454
0.922453
0.947842
0.912324
1.02825
2.4374
0.981158
1.53324
1.77338
2.59197
1.07402
1.63658
0.704228
0.836271
0.714562
0.822714
0.957901
0.96803
0.812784
2.36147
0.953267
1.58179
1.6257
2.51879
1.04259
1.68503
0.715432
0.83189
0.725534
0.852029
0.972026
0.982068
0.842115
1.86647
2.46365
1.77421
2.84205
2.86342
2.05109
2.64198
2.79067
1.61123
1.85049
2.51031
1.93706
2.00464
2.46931
2.01861
2.45393
1.47753
2.38284
1.58911
2.33569
2.44564
1.24546
1.5627
1.38473
1.51376
1.36603
1.52682
1.70065
1.38273
1.36663
1.24458
1.51695
1.3975
1.56221
1.70225
1.27727
1.54166
1.37662
1.52368
1.36446
1.46662
1.63127
1.18999
1.41507
1.28475
1.45541
1.32364
1.42382
1.55856
0.697431
0.820925
0.707442
0.817934
0.94506
0.955031
0.808126
0.778709
0.856317
0.792733
0.916501
0.849443
0.951825
1.01659
1.19048
1.29949
1.11615
1.06529
1.15779
1.21008
1.36157
0.902655
0.861809
0.79614
0.918948
1.1122
0.982388
1.0272
1.08643
0.943737
0.987234
1.02556
1.23992
1.07969
1.18127
1.39733
1.63309
1.51477
1.71849
1.60125
1.72516
1.84059
0.740062
0.859801
0.750925
0.893788
1.01709
1.02761
0.883201
0.731984
0.812326
0.825629
0.89079
0.904255
1.02054
1.00771
0.774222
0.840187
0.874182
0.961022
0.999101
0.961582
1.0848
2.67492
1.10357
1.90326
1.73924
2.76424
1.19986
2.02588
1.19617
1.29639
1.45321
1.43804
1.28279
1.38196
1.55439
2.07336
1.98944
2.05356
2.93013
2.70811
2.76132
2.68466
1.21112
0.966766
1.05447
1.01
1.2695
1.10854
1.15946
1.44279
1.3289
1.50253
1.68619
1.61022
1.61557
1.81053
1.32982
1.49815
1.60215
1.6156
1.48674
1.68514
1.80563
0.861442
0.794418
0.7403
0.847477
1.04897
0.993065
0.901287
0.845342
0.785452
0.732599
0.842442
1.03422
0.979617
0.895594
0.763792
0.924011
0.774349
0.882518
1.04658
1.05707
0.872389
0.85638
0.804514
0.750842
0.876737
1.06221
1.0068
0.931081
0.949824
0.856816
0.800594
0.907623
1.14004
1.08247
0.9632
0.769944
0.933872
0.861444
1.01802
0.94151
1.05604
1.1313
1.48137
1.38764
1.43387
1.61317
1.52192
1.35639
1.24303
2.78475
1.20262
1.74373
2.28338
2.82823
1.31107
1.8567
0.809578
0.994986
0.821104
0.938463
1.12705
1.13834
0.927559
2.02741
2.57956
2.87268
2.87166
2.17367
2.51528
2.90614
1.4705
1.65602
1.74741
1.87362
1.65696
1.77118
1.97929
0.973499
0.917906
0.843519
0.975879
1.20569
1.10935
1.04786
0.885529
0.834938
0.777964
0.920349
1.11221
1.0536
0.978591
1.33231
1.18273
1.13367
1.23498
1.39405
1.28716
1.45399
2.0981
1.24347
1.5601
2.27943
2.86426
1.57777
2.22071
1.63936
1.57688
2.19123
1.7095
2.24698
2.88933
2.48485
0.983388
1.15334
1.22496
1.1977
1.07138
1.04783
1.12716
0.961482
1.12258
1.17488
1.18702
1.02881
1.03939
1.10035
1.02452
0.912985
0.850776
0.966284
1.22977
1.16656
1.02716
0.849383
0.977395
0.860551
1.04435
1.17467
1.18605
1.03319
1.08922
1.30826
1.22411
1.24057
1.16364
1.31023
1.39832
1.11092
1.19583
1.3475
1.26506
1.17479
1.32333
1.4259
0.957864
1.18026
1.1727
1.03303
1.02673
1.11787
1.27034
1.10372
1.31707
1.24171
1.25646
1.18586
1.33682
1.4168
1.51089
1.34488
1.23554
1.47376
1.31319
1.42218
1.60179
0.879977
0.954487
1.01964
1.08378
1.15426
1.1175
1.24943
0.134565
0.265117
0.431559
0.525732
0.717622
0.919501
0.983309
0.226224
0.0731533
0.134965
0.327473
0.400947
0.241262
0.318616
0.0937154
0.0904339
0.113007
0.0909082
0.113484
0.135051
0.110983
0.502219
0.331266
0.412251
0.661552
0.781734
0.493243
0.61743
0.152832
0.267286
0.175828
0.27018
0.176915
0.200743
0.295636
0.868306
0.527265
0.667391
0.90026
1.15727
0.644414
0.828009
0.407177
0.162376
0.26808
0.427342
0.52714
0.344195
0.424824
0.111013
0.159655
0.135028
0.159305
0.16152
0.18627
0.134477
0.111255
0.159501
0.135305
0.159239
0.161084
0.186177
0.134342
0.227317
0.2989
0.201677
0.226283
0.351818
0.252998
0.323779
0.22503
0.293028
0.199946
0.225524
0.345667
0.251368
0.320734
0.402813
0.358891
0.364881
0.433635
0.442241
0.391305
0.471598
0.453162
0.533334
0.488873
0.545486
0.499585
0.534496
0.586777
0.185993
0.191564
0.191635
0.24927
0.215985
0.215789
0.161057
0.186911
0.192332
0.193483
0.2162
0.217087
0.249561
0.227178
0.562794
0.570477
0.583593
0.608613
0.622628
0.630451
0.673832
0.619514
0.4387
0.616572
0.822841
0.965483
0.706727
0.804564
0.385663
0.493625
0.463603
0.442558
0.417143
0.50055
0.529442
0.398287
0.521972
0.481886
0.455866
0.423699
0.510077
0.549183
0.251948
0.309013
0.376067
0.372836
0.280056
0.279005
0.34829
0.251203
0.370705
0.3699
0.278591
0.278783
0.307703
0.396363
1.28093
0.697554
0.898058
1.18288
1.69818
0.944393
1.20862
0.600781
0.697761
0.65012
0.714948
0.665393
0.72105
0.775864
0.226308
0.286396
0.249006
0.286122
0.308146
0.327606
0.265179
0.596416
0.601937
0.547555
0.581091
0.701848
0.628744
0.643263
0.559645
0.574786
0.524265
0.568618
0.670082
0.602844
0.628263
0.228627
0.28862
0.250762
0.286914
0.309546
0.328673
0.266215
0.479411
0.472439
0.448509
0.538138
0.60165
0.575948
0.565469
0.523812
0.467336
0.464791
0.557842
0.553995
0.49194
0.586069
1.09195
0.846517
0.995166
1.25303
1.55064
0.999645
1.10314
0.617214
0.716197
0.659555
0.731094
0.679747
0.729796
0.790421
0.34056
0.397958
0.307922
0.339518
0.456397
0.37549
0.424689
0.340937
0.396363
0.308328
0.339648
0.454399
0.375438
0.423792
0.6472
0.772376
0.692228
0.768212
0.696761
0.748693
0.832851
0.235557
0.477105
0.678273
0.072765
0.139195
0.321337
0.135714
0.230594
0.317632
0.398046
0.0927613
0.0916718
0.0908742
0.113023
0.11358
0.136201
0.112699
0.322182
0.417414
0.574944
0.409637
0.493305
0.611737
0.758721
0.149804
0.264101
0.263342
0.174167
0.174451
0.199564
0.291128
0.509884
0.728975
0.851681
0.646814
0.92445
0.902572
0.999429
0.113758
0.163072
0.136998
0.161868
0.166372
0.190344
0.137758
0.111909
0.16023
0.135626
0.16096
0.163474
0.187803
0.136639
0.39128
0.353751
0.351626
0.424103
0.42744
0.381754
0.45873
0.292623
0.227203
0.200235
0.225973
0.347149
0.253742
0.319009
0.290677
0.224904
0.199293
0.22521
0.343948
0.251514
0.317773
0.439081
0.524031
0.519308
0.476881
0.481153
0.518106
0.567093
0.188913
0.19677
0.194944
0.252579
0.218347
0.220034
0.164769
0.544212
0.560086
0.555167
0.592217
0.59727
0.608345
0.649734
0.385317
0.501773
0.464136
0.44343
0.412356
0.494333
0.530996
0.380571
0.490007
0.45677
0.437492
0.409688
0.490238
0.522079
0.252345
0.372549
0.309854
0.370508
0.279605
0.281127
0.344936
0.622296
0.683767
0.632439
0.637644
0.58066
0.694764
0.74632
0.6293
0.525027
0.570331
0.560691
0.671715
0.604865
0.618064
0.564308
0.554965
0.515554
0.555317
0.658448
0.593357
0.611943
0.468658
0.46523
0.439127
0.524586
0.587661
0.554577
0.559604
0.65851
0.616729
0.679824
0.732004
0.667472
0.715744
0.790454
0.708899
0.660808
0.605478
0.717218
0.660837
0.708751
0.774512
0.75487
0.765695
0.774805
0.827951
0.851937
0.841028
0.924289
0.921357
0.842359
0.781629
0.756335
0.704016
0.767374
0.826598
0.834534
0.819092
0.760277
0.743224
0.691792
0.759985
0.818627
0.614139
0.693605
0.741526
0.724725
0.661184
0.647483
0.683905
0.831276
0.799225
0.741492
0.804219
0.978888
0.900812
0.868751
0.768271
0.758479
0.705553
0.783174
0.922854
0.852405
0.844747
0.327445
0.355331
0.355607
0.422705
0.372948
0.373129
0.308236
0.661337
0.632734
0.595628
0.712799
0.637696
0.673286
0.757024
0.707343
0.714627
0.675067
0.633427
0.639735
0.596628
0.662135
0.49585
0.627374
0.592038
0.552277
0.520401
0.619327
0.655716
0.58451
0.491021
0.518925
0.547683
0.51803
0.61558
0.648539
0.374702
0.459137
0.489196
0.488006
0.414655
0.414399
0.454334
0.818266
0.798423
0.747281
0.808782
0.957441
0.894859
0.871667
0.778613
0.776893
0.72072
0.784214
0.855163
0.839276
0.92329
0.846793
0.840809
0.777383
0.855947
0.785668
0.721187
0.778653
0.986046
0.820974
0.900453
1.00577
0.917356
1.00865
1.10781
0.854807
1.01956
0.924419
1.05259
0.953576
1.0336
1.1378
0.868548
1.08895
0.957841
1.07228
0.945584
1.04262
1.18792
0.754129
0.711428
0.671117
0.710331
0.853264
0.750551
0.803465
0.918855
0.907927
0.839214
1.01117
0.928824
1.01155
1.10943
1.10955
1.01222
0.918882
0.928897
1.01053
0.838864
0.907183
0.873105
1.05185
1.06503
1.03319
0.974891
0.947827
0.946569
0.583335
0.580981
0.548334
0.649796
0.728262
0.689094
0.685538
0.726085
0.76653
0.681081
0.715419
0.865773
0.760414
0.809809
0.919051
0.897829
0.835794
0.95781
0.896801
0.99425
1.06837
0.850433
1.02068
0.936456
0.972828
0.904228
1.00308
1.08577
1.17187
1.13373
1.03364
1.14095
1.42737
1.30084
1.25483
1.07407
1.33821
1.22087
1.1663
1.44512
1.32653
1.27922
1.10686
1.00533
1.10018
1.12636
1.35013
1.23463
1.2363
0.752437
0.844506
0.912526
0.90641
0.79931
0.794479
0.855809
1.21583
1.09953
1.00636
1.09879
1.32555
1.1891
1.21535
1.13013
1.12781
1.02709
1.10935
1.35022
1.20959
1.22811
1.02956
1.02215
0.961051
1.07224
1.22762
1.15426
1.14529
1.27263
1.57963
1.56504
1.51424
1.44618
1.39502
1.38926
1.19383
1.37812
1.44873
1.43655
1.29164
1.28124
1.3314
1.55997
1.38629
1.62135
1.70411
1.50903
1.4376
1.31539
2.64222
1.12948
1.78024
2.1487
2.89551
1.542
2.22308
1.52966
1.83529
2.34717
1.63281
2.71889
2.90508
2.34792
1.4073
1.24711
1.15338
1.31254
1.21198
1.36701
1.48081
1.12802
1.18326
1.0234
1.07173
1.36687
1.19148
1.23586
0.86852
1.09518
0.980366
1.12078
0.979686
1.09259
1.23583
0.99526
1.20928
1.05877
1.24178
1.0874
1.16822
1.32607
1.38228
1.31501
1.16889
1.33099
1.26653
1.42725
1.49971
2.70445
1.16484
1.73181
2.36499
2.89785
1.58891
2.16587
0.879337
1.11952
0.993275
1.13767
0.98642
1.10052
1.25518
0.889033
1.10845
1.00276
1.15024
1.01741
1.13306
1.26702
1.78743
1.49679
1.66625
1.66693
1.96144
1.83558
1.78845
0.950329
1.0043
0.889108
1.07273
1.27481
1.21336
1.13557
0.923945
1.06595
0.93633
1.15529
1.29498
1.30756
1.1428
1.57474
1.40153
1.32924
1.4569
1.64038
1.52908
1.72415
1.42893
1.58139
1.66073
1.56589
1.72508
1.67545
1.82143
1.56502
1.72305
1.81972
1.57867
1.67314
1.42733
1.52181
1.3641
1.63021
1.49329
1.62709
1.77361
1.62987
1.49277
1.22971
0.986979
0.998902
1.12742
1.36574
1.37842
1.11572
2.62666
1.49172
1.60903
2.04205
2.83288
2.18493
2.78246
1.06171
1.33942
1.25946
1.2849
1.12592
1.17533
1.21646
1.5339
1.84356
1.7242
1.68622
2.00122
1.87421
1.80692
1.68415
1.53073
1.65001
1.72075
1.99694
1.87253
1.83805
1.61244
1.65971
1.79085
1.57988
1.88787
1.75133
1.70524
1.64448
1.50686
1.39046
1.53421
1.80598
1.65581
1.67362
1.26141
1.09947
1.0308
1.15746
1.4761
1.40883
1.22382
0.924372
1.15027
1.04371
1.20551
1.07097
1.19352
1.3282
1.03931
1.26242
1.10416
1.31072
1.14701
1.23228
1.39782
1.10038
1.04429
1.13465
1.18656
1.28322
1.24653
1.39229
1.70121
1.48309
1.57536
1.65272
1.78414
1.7455
1.88207
0.963243
1.11346
1.12411
1.12919
1.13988
1.32704
1.3152
2.82719
1.29418
2.14236
2.29769
2.84003
1.72807
2.67647
1.09752
1.04067
0.969941
1.18891
1.40993
1.33953
1.26204
0.945478
1.21975
1.06434
1.23181
1.05162
1.16983
1.35283
1.29111
1.39282
1.23458
1.4092
1.34429
1.51862
1.58998
0.991445
1.1387
1.14954
1.17449
1.18555
1.36811
1.35597
1.80449
1.64343
1.53157
1.67189
1.52241
1.38825
1.50528
2.85707
1.41563
1.96209
2.81834
2.64442
1.87808
2.49094
1.01012
1.32214
1.13821
1.32988
1.12349
1.25035
1.45959
1.2593
1.37441
1.54849
1.43875
1.31567
1.48246
1.61931
1.91501
2.8974
2.12839
1.78224
2.68227
2.62253
2.77975
1.55096
1.6614
1.70584
1.87274
1.92555
1.81244
2.05035
1.7513
1.84933
1.9642
1.77586
2.11444
1.98599
1.89109
1.8991
1.78058
1.64338
1.85509
2.12347
1.98871
1.97482
0.956421
1.1176
1.10968
1.31878
1.12831
1.12033
0.946397
1.01307
1.1585
1.20247
1.39374
1.16935
1.21359
1.00286
1.49251
1.6745
1.63556
1.82122
1.84031
1.75501
1.97919
1.42247
1.53918
1.67712
1.55285
1.75975
1.77736
1.93184
0.987826
1.20669
1.14957
1.22286
1.16541
1.35378
1.4133
1.12974
1.36296
1.44455
1.37097
1.26877
1.20128
1.29729
1.49102
1.75161
1.61707
1.67382
1.9767
1.83766
1.82037
1.55631
1.82304
1.7159
1.74771
2.05854
1.87748
1.9328
1.63473
1.60866
1.47181
1.5764
1.91319
1.74625
1.71942
0.981163
1.34566
1.21191
1.20312
1.15404
1.14586
1.03616
1.07652
1.28926
1.22491
1.48182
1.30117
1.23633
1.06566
1.16604
1.40641
1.23701
1.48711
1.3127
1.40502
1.57762
1.04632
1.28399
1.17332
1.37216
1.23459
1.36386
1.49878
1.69574
1.43356
1.49934
1.78441
1.57237
1.64046
1.86273
1.01688
1.23437
1.17556
1.27172
1.2119
1.39542
1.45649
1.72399
1.80688
1.69975
1.81606
1.93092
1.90339
2.03918
1.5822
1.62629
1.68977
1.74048
1.81323
1.86967
2.01712
1.11446
1.26107
1.27265
1.33425
1.34637
1.52405
1.51083
2.65594
1.72433
2.32842
2.77805
2.42251
1.86643
2.48598
1.11682
1.40845
1.13002
1.26764
1.54886
1.56282
1.25454
1.76512
1.8401
1.93743
1.88345
2.20736
2.08862
1.99684
2.06239
1.94159
1.82509
1.94837
2.35209
2.18748
2.07359
1.03802
1.42061
1.25302
1.29815
1.195
1.23944
1.09437
1.33169
1.34545
1.24762
1.40617
1.62045
1.50071
1.51579
1.65845
1.5452
1.37357
1.47328
1.77521
1.57337
1.6606
1.57727
1.5155
1.70838
1.48834
1.81058
1.60448
1.67754
1.38947
1.35846
1.27951
1.44324
1.6646
1.56547
1.53104
1.56978
1.48178
1.67106
1.50459
1.80116
1.59514
1.6976
1.40179
1.33832
1.32937
1.49831
1.43637
1.5085
1.61526
2.82583
1.64386
1.93889
2.86691
2.26032
2.477
2.82634
1.34907
1.6762
1.52606
1.55159
1.40758
1.59086
1.74917
1.89083
1.77896
1.85841
2.00702
2.1024
1.95721
2.22354
1.10339
1.50995
1.39136
1.32411
1.32889
1.26317
1.16392
1.44533
1.2457
1.16682
1.30297
1.67927
1.59949
1.37994
1.25972
1.28487
1.13046
1.23855
1.55555
1.39573
1.39592
1.23196
1.26711
1.11526
1.22939
1.53201
1.37407
1.38553
1.4603
1.7919
1.58505
1.53903
1.88708
1.668
1.73774
1.14062
1.35845
1.29891
1.4341
1.37341
1.55173
1.61274
1.20569
1.57692
1.34251
1.5814
1.3274
1.46071
1.71674
2.77634
1.72042
2.23952
2.31677
2.71881
2.77609
1.76251
1.45713
1.37052
1.40672
1.54323
1.49716
1.58278
1.68002
1.24638
1.29488
1.14008
1.27304
1.56644
1.40701
1.43261
1.29335
1.34817
1.187
1.34006
1.63684
1.47337
1.50552
1.75307
1.66195
1.47607
1.60499
1.90701
1.68705
1.81219
1.14961
1.41041
1.28953
1.51966
1.37483
1.51728
1.65928
1.26802
1.53311
1.35184
1.63954
1.45349
1.55839
1.74118
1.21451
1.36777
1.38029
1.46219
1.47539
1.6579
1.64363
1.24495
1.29677
1.31353
1.41457
1.43194
1.50605
1.6253
1.35565
1.43156
1.48529
1.61214
1.57606
1.67141
1.76677
1.27333
1.52856
1.4227
1.72105
1.43545
1.54198
1.26134
1.36551
1.36921
1.20768
1.31249
1.65904
1.49661
1.47465
1.51372
1.45427
1.37948
1.55362
1.7932
1.63473
1.69953
1.28471
1.3273
1.36642
1.44825
1.48927
1.55205
1.67469
1.7165
1.88356
1.98961
2.06751
1.88469
1.99064
2.19819
2.39791
2.7586
2.55477
2.79517
2.03486
1.23137
1.86348
2.00644
1.74523
1.84208
2.10429
1.93232
2.04322
2.24023
1.30209
1.63801
1.7524
1.52633
1.46372
1.57213
1.36619
1.30324
1.2934
1.12335
1.23917
1.61876
1.4225
1.41146
1.34473
1.39105
1.18407
1.30278
1.69499
1.46424
1.51184
1.47639
1.46055
1.29047
1.40075
1.77904
1.61038
1.5693
1.861
1.64295
1.56882
1.71342
2.04014
1.79294
1.94697
1.2445
1.47411
1.40939
1.57468
1.50649
1.68953
1.75751
2.60231
1.76493
2.70035
2.80828
2.24604
1.87476
2.7878
1.30445
1.53633
1.31625
1.54058
1.76182
1.77645
1.5273
1.9323
2.09577
2.04475
2.2046
2.35046
2.14018
2.47452
1.8446
2.15294
2.17345
2.00796
2.02755
2.19319
2.37937
2.85233
2.37377
2.77476
1.5144
1.22855
2.52452
1.97764
2.48844
2.49362
1.89115
1.3384
1.2263
2.39272
1.39761
1.69247
2.03022
2.06961
2.00514
1.87518
1.82426
1.84863
1.42153
1.71854
1.57691
1.92202
1.73317
1.5908
1.40824
1.49025
1.42065
1.26025
1.38622
1.79839
1.61796
1.54562
1.80104
1.74384
1.98034
1.66778
2.07468
1.82325
1.88701
1.4941
1.43299
1.32481
1.51581
1.81435
1.64706
1.68547
1.63439
1.77643
1.94567
1.96504
1.79208
1.95225
2.16236
1.93852