/*--------------------------------*- C++ -*----------------------------------*\
  =========                 |
  \\      /  F ield         | OpenFOAM: The Open Source CFD Toolbox
   \\    /   O peration     | Website:  https://openfoam.org
    \\  /    A nd           | Version:  9
     \\/     M anipulation  |
\*---------------------------------------------------------------------------*/
FoamFile
{
    format      ascii;
    class       volScalarField;
    location    "0.00285";
    object      rho.c4;
}
// * * * * * * * * * * * * * * * * * * * * * * * * * * * * * * * * * * * * * //

dimensions      [1 -3 0 0 0 0 0];

internalField   nonuniform List<scalar> 
27205
(
1.62868
1.69332
2.44184
2.57299
5.238
4.40168
8.19445
2.14735
1.12128
1.53958
1.64701
2.40251
2.13977
2.90782
2.32689
1.11041
1.6177
2.06182
2.78373
1.52354
2.09187
1.16913
1.27325
1.32404
1.28779
1.33858
1.51594
1.46236
1.92207
3.79635
4.76624
3.26487
3.4219
4.87849
6.80759
3.23857
1.88069
2.52662
4.47078
6.3641
3.20873
4.7397
1.15983
1.25243
1.30525
1.26084
1.31418
1.4828
1.42662
1.29403
1.72041
1.45604
1.72503
1.46796
1.65033
1.92426
1.28651
1.6892
1.43761
1.68759
1.44392
1.6157
1.87162
1.44865
1.70435
1.50224
1.71717
1.87943
1.94084
1.66016
1.75001
1.4787
1.53234
1.73258
1.91048
1.9705
1.67575
1.4215
1.67624
1.47716
1.67859
1.83788
1.89947
1.61973
4.17548
5.44216
6.84552
5.99397
8.31842
6.76781
9.14775
2.42063
2.13489
2.12633
2.69345
2.66767
2.35453
2.95603
8.25843
3.50152
5.43942
7.02151
8.48062
4.16266
6.89288
1.87852
1.92752
1.66281
1.86613
2.38312
2.10157
2.1457
1.92099
1.84569
1.63982
1.85518
2.38048
2.0814
2.14343
5.00109
4.39576
4.47328
3.35807
4.30058
5.83763
5.19261
7.98048
1.43327
1.68719
1.48984
1.6825
1.84125
1.90143
1.62357
1.8142
1.87862
1.61332
1.81273
2.31144
2.03385
2.08012
2.33242
2.07612
2.05719
2.58682
2.54252
2.26638
2.80813
3.02031
3.35789
3.07512
2.76782
3.07081
3.44477
3.77081
1.81417
1.8666
1.61939
1.81271
2.2811
2.0269
2.06976
1.9549
2.14684
2.13212
2.46631
2.19621
2.21
1.8941
3.2877
2.92412
3.33114
3.75797
3.25049
3.64552
4.28527
2.97574
2.60113
2.36162
2.85699
2.59735
3.2528
3.56212
2.34254
3.19165
2.92408
2.83734
2.58756
3.22778
3.51528
2.29164
3.14844
2.86038
2.7517
2.49761
3.09323
3.39909
2.09094
2.63629
2.60556
2.6362
2.33529
2.34402
2.38261
1.90002
2.07481
2.07564
2.38643
2.13586
2.13857
1.83893
2.80106
3.6645
3.14765
3.59387
3.08255
3.45096
4.0969
2.24284
2.97882
2.75671
2.68352
2.46828
3.0343
3.27276
4.15422
3.79199
3.60198
4.12099
4.37556
4.77031
5.1178
12.2533
9.84203
5.83008
11.9988
9.84028
9.80787
15.0638
2.02989
2.51404
2.5215
2.54203
2.26048
2.26807
2.29584
3.81085
3.88972
3.40365
5.00557
4.38719
3.80664
4.30359
4.92869
3.90575
4.28586
3.77061
3.44716
3.90258
4.28212
3.77444
3.44015
3.89935
4.47943
4.9524
3.90217
4.28858
4.31396
4.07402
3.67425
4.0567
5.48003
4.47977
4.86259
3.71861
4.05839
3.99646
4.34794
4.30279
4.63746
5.05685
3.12049
3.13098
2.85011
3.54476
4.22194
3.88071
3.85793
4.61052
4.85738
3.96354
4.85336
4.59314
5.40288
5.72317
3.96598
4.23592
3.59872
4.01997
5.41111
4.41116
4.82495
3.925
4.17628
3.52587
3.84624
5.26237
4.26302
4.65636
2.94909
2.98965
2.71765
3.33644
3.94694
3.59532
3.66521
3.67593
4.01585
3.37541
3.7592
5.05128
4.0756
4.56141
3.91712
4.88789
4.59675
4.89068
4.57281
5.41452
5.81197
5.52319
5.12824
4.79132
6.36261
5.51555
5.99786
7.0439
5.77326
4.92
4.30128
5.69061
6.73533
5.76667
4.91504
5.02871
4.96135
4.31767
5.73702
6.80035
5.78839
4.92983
5.00809
5.06637
4.42873
5.07975
5.85154
5.8662
6.87631
6.1211
5.75555
6.84031
5.20327
5.77759
4.47358
4.93277
4.45492
6.09216
5.35986
6.12289
4.90647
4.87391
5.45689
4.72911
5.96254
5.08932
6.32366
5.48904
5.98838
7.05403
4.70093
5.97942
5.09481
6.21976
5.37723
5.95259
7.01665
4.57283
5.90109
5.02086
6.05968
5.304
5.92014
6.97146
4.17099
4.97813
5.68288
5.80253
4.50878
4.61143
5.15996
6.37033
5.40123
5.70527
6.38899
8.15935
7.59525
6.8052
7.46388e-14
2.22045e-16
2.22045e-16
2.22045e-16
2.22045e-16
2.22045e-16
2.22045e-16
19.8581
2.33529e-11
2.22045e-16
2.22045e-16
2.22045e-16
2.22045e-16
2.22045e-16
46.6224
0.0613899
5.94744e-09
8.5023e-14
2.22045e-16
2.22045e-16
2.22045e-16
15.9603
56.0662
91.8839
1.55826e-06
3.79192e-14
2.22045e-16
2.22045e-16
4.25295
8.63433
33.1182
116.177
4.93798e-05
1.06797e-14
2.22045e-16
2.56867
4.05521
7.71549
24.0181
128.576
7.02352e-05
5.0803e-14
2.59713
4.10652
7.69138
24.1927
122.719
5.31812e-07
2.64335
4.20806
8.07876
33.3214
101.988
2.71895
4.51455
16.1886
60.6933
3.03646e-16
2.22045e-16
2.22045e-16
2.22045e-16
2.22045e-16
2.22045e-16
2.22045e-16
3.77757e-09
4.48128e-13
2.22045e-16
2.22045e-16
2.22045e-16
2.22045e-16
2.22045e-16
40.4157
2.82336e-05
3.051e-12
2.02915e-15
2.22045e-16
2.22045e-16
2.22045e-16
25.2269
69.8956
14.7026
1.05725e-07
2.91941e-15
2.22045e-16
2.22045e-16
5.63775
12.3454
50.0838
119.968
1.3441e-07
7.16336e-16
2.22045e-16
3.38697
5.34966
10.1222
35.7683
133.125
1.28243e-08
4.26234e-15
3.55766
5.44221
10.0763
35.9282
126.981
2.73804e-08
5.48333
5.59777
10.6118
50.2471
30.5819
3.68921
6.05042
66.0207
4.95456
2.22045e-16
2.22045e-16
2.22045e-16
2.22045e-16
2.22045e-16
2.22045e-16
2.22045e-16
3.12419e-13
2.22045e-16
2.22045e-16
2.22045e-16
2.22045e-16
2.22045e-16
2.22045e-16
5.44985e-06
6.10431e-12
1.439e-15
2.22045e-16
2.22045e-16
2.22045e-16
2.22045e-16
102.268
70.6552
1.26582e-07
1.60489e-15
2.22045e-16
2.22045e-16
2.22045e-16
19.6356
59.7197
190.935
0.00503302
1.4385e-14
2.22045e-16
2.22045e-16
8.82392
20.6502
36.5646
190.129
0.148574
9.55164e-14
2.22045e-16
9.72718
15.3847
32.4546
191.132
0.012927
1.10343e-15
8.10938
10.8711
37.2064
211.396
3.28836e-07
10.0021
11.0672
221.439
2.72548e-07
2.22045e-16
2.22045e-16
2.22045e-16
2.22045e-16
2.22045e-16
2.22045e-16
2.22045e-16
2.22045e-16
2.22045e-16
2.22045e-16
2.22045e-16
2.22045e-16
2.22045e-16
2.22045e-16
5.98517e-13
2.09379e-15
2.22045e-16
2.22045e-16
2.22045e-16
2.22045e-16
2.22045e-16
2.77167e-05
1.32883e-07
2.03487e-15
2.22045e-16
2.22045e-16
2.22045e-16
2.22045e-16
161.386
271.633
0.00181792
1.61302e-14
2.22045e-16
2.22045e-16
2.22045e-16
10.0801
25.6099
321.928
2.66817
3.37973e-13
2.22045e-16
2.22045e-16
7.80933
10.439
22.1184
278.871
5.01058
1.3272e-13
2.22045e-16
6.82581
14.5343
23.1348
320.158
0.0124886
3.74257e-16
6.79921
9.35543
30.5076
1.07048e-06
1.44645e-13
2.22045e-16
2.22045e-16
2.22045e-16
2.22045e-16
2.22045e-16
2.22045e-16
2.22045e-16
2.22045e-16
2.22045e-16
2.22045e-16
2.22045e-16
2.22045e-16
2.22045e-16
2.22045e-16
2.22045e-16
2.22045e-16
2.22045e-16
2.22045e-16
2.22045e-16
2.22045e-16
2.22045e-16
2.80282e-13
2.22045e-16
2.22045e-16
2.22045e-16
2.22045e-16
2.22045e-16
2.22045e-16
5.90002e-05
1.66996e-08
6.32141e-16
2.22045e-16
2.22045e-16
2.22045e-16
2.22045e-16
115.48
235.569
0.00123999
2.25253e-13
2.22045e-16
2.22045e-16
2.22045e-16
19.1024
19.699
274.998
0.133616
1.87112e-13
2.22045e-16
2.22045e-16
8.23643
14.8594
18.5464
273.032
0.00669142
2.22045e-16
2.22045e-16
14.716
22.1461
6.19884e-06
2.85312e-13
2.22045e-16
2.22045e-16
2.22045e-16
2.22045e-16
2.22045e-16
2.22045e-16
2.22045e-16
2.22045e-16
2.22045e-16
2.22045e-16
2.22045e-16
2.22045e-16
2.22045e-16
2.22045e-16
2.22045e-16
2.22045e-16
2.22045e-16
2.22045e-16
2.22045e-16
2.22045e-16
2.22045e-16
2.22045e-16
2.22045e-16
2.22045e-16
2.22045e-16
2.22045e-16
2.22045e-16
2.22045e-16
2.22045e-16
8.32251e-12
2.08432e-15
2.22045e-16
2.22045e-16
2.22045e-16
2.22045e-16
2.22045e-16
0.00119753
2.02331e-07
1.45412e-15
2.22045e-16
2.22045e-16
2.22045e-16
2.22045e-16
104.431
169.904
4.55119e-06
2.38124e-14
2.22045e-16
2.22045e-16
2.22045e-16
12.5305
20.5667
95.557
1.36634e-05
2.02085e-15
2.22045e-16
2.22045e-16
41.8911
63.8407
125.223
2.02692e-13
2.22045e-16
2.22045e-16
2.22045e-16
2.22045e-16
2.22045e-16
2.22045e-16
2.22045e-16
2.22045e-16
2.22045e-16
2.22045e-16
2.22045e-16
2.22045e-16
2.22045e-16
2.22045e-16
2.22045e-16
2.22045e-16
2.22045e-16
2.22045e-16
2.22045e-16
2.22045e-16
2.22045e-16
2.22045e-16
2.22045e-16
2.22045e-16
2.22045e-16
2.22045e-16
2.22045e-16
2.22045e-16
2.22045e-16
2.22045e-16
2.22045e-16
2.22045e-16
2.22045e-16
2.22045e-16
2.22045e-16
2.22045e-16
2.22045e-16
7.81958e-13
1.93861e-15
2.22045e-16
2.22045e-16
2.22045e-16
2.22045e-16
2.22045e-16
0.000223922
3.98972e-08
7.45067e-15
2.22045e-16
2.22045e-16
2.22045e-16
2.22045e-16
109.514
148.586
9.45254e-08
2.72285e-15
2.22045e-16
2.22045e-16
2.22045e-16
37.8608
126.597
0.258024
2.57613e-16
2.22045e-16
2.22045e-16
2.22045e-16
2.22045e-16
2.22045e-16
2.22045e-16
2.22045e-16
2.22045e-16
2.22045e-16
2.22045e-16
2.22045e-16
2.22045e-16
2.22045e-16
2.22045e-16
2.22045e-16
2.22045e-16
2.22045e-16
2.22045e-16
2.22045e-16
2.22045e-16
2.22045e-16
2.22045e-16
2.22045e-16
2.22045e-16
2.22045e-16
2.22045e-16
2.22045e-16
2.22045e-16
2.22045e-16
2.22045e-16
2.22045e-16
2.22045e-16
2.22045e-16
2.22045e-16
2.22045e-16
2.22045e-16
2.22045e-16
2.22045e-16
2.22045e-16
2.22045e-16
2.22045e-16
2.22045e-16
2.22045e-16
2.22045e-16
2.21362e-12
2.22045e-16
2.22045e-16
2.22045e-16
2.22045e-16
2.22045e-16
2.22045e-16
1.17613e-05
7.09317e-11
2.86843e-15
2.22045e-16
2.22045e-16
2.22045e-16
2.22045e-16
1.63515e-05
1.04689e-05
2.22045e-16
2.22045e-16
2.22045e-16
2.22045e-16
2.22045e-16
2.22045e-16
2.22045e-16
2.22045e-16
2.22045e-16
2.22045e-16
2.22045e-16
2.22045e-16
2.22045e-16
2.22045e-16
2.22045e-16
2.22045e-16
2.22045e-16
2.22045e-16
2.22045e-16
2.22045e-16
2.22045e-16
2.22045e-16
2.22045e-16
2.22045e-16
2.22045e-16
2.22045e-16
2.22045e-16
2.22045e-16
2.22045e-16
2.22045e-16
2.22045e-16
2.22045e-16
2.22045e-16
2.22045e-16
2.22045e-16
2.22045e-16
2.22045e-16
2.22045e-16
2.22045e-16
2.22045e-16
2.22045e-16
2.22045e-16
2.22045e-16
2.22045e-16
2.22045e-16
2.22045e-16
2.22045e-16
2.22045e-16
2.22045e-16
2.22045e-16
2.22045e-16
2.22045e-16
2.22045e-16
2.55192e-12
2.22045e-16
2.22045e-16
2.22045e-16
2.22045e-16
2.22045e-16
2.22045e-16
1.19689e-10
2.22045e-16
2.22045e-16
2.22045e-16
2.22045e-16
2.22045e-16
2.22045e-16
2.22045e-16
2.22045e-16
2.22045e-16
2.22045e-16
2.22045e-16
2.22045e-16
2.22045e-16
2.22045e-16
2.22045e-16
2.22045e-16
2.22045e-16
2.22045e-16
2.22045e-16
2.22045e-16
2.22045e-16
2.22045e-16
2.22045e-16
2.22045e-16
2.22045e-16
2.22045e-16
2.22045e-16
2.22045e-16
2.22045e-16
2.22045e-16
2.22045e-16
2.22045e-16
2.22045e-16
2.22045e-16
2.22045e-16
2.22045e-16
2.22045e-16
2.22045e-16
2.22045e-16
2.22045e-16
2.22045e-16
2.22045e-16
2.22045e-16
2.22045e-16
2.22045e-16
2.22045e-16
2.22045e-16
2.22045e-16
2.22045e-16
2.22045e-16
2.22045e-16
2.22045e-16
2.22045e-16
2.22045e-16
2.22045e-16
2.22045e-16
2.22045e-16
2.22045e-16
2.22045e-16
2.22045e-16
2.22045e-16
2.22045e-16
2.22045e-16
2.22045e-16
2.22045e-16
2.22045e-16
2.22045e-16
3.62872
1.83896
2.63125
3.07214
4.20896
2.32716
3.15209
3.71609
1.92911
2.67896
3.17255
4.32277
2.37588
3.20184
3.19274
1.92799
2.38214
2.69
3.78781
3.20277
4.40115
3.56515
1.84511
2.58697
2.97505
4.11466
2.26884
3.04335
1.86672
2.10618
2.11836
2.1727
2.1837
2.44236
2.37676
4.83349
2.78378
3.68711
7.104
9.90871
5.34617
7.4361
3.56652
3.71634
4.98044
3.7447
7.50437
10.2657
6.8246
1.90085
2.08234
2.14718
2.0779
2.14206
2.40266
2.33805
2.82024
6.65669
5.34605
3.73685
5.0699
7.54692
10.5582
2.07271
2.62678
2.63333
2.31808
2.32692
2.58998
2.90131
2.03913
2.58209
2.28592
2.5623
2.27633
2.53908
2.83285
1.98705
2.16237
2.22413
2.17812
2.2376
2.48847
2.42878
4.70323
2.65301
3.86975
6.64412
9.60363
5.56342
6.9654
5.19788
9.58969
7.99163
7.443
10.9399
9.77316
24.3722
4.98158
8.27724
11.7856
7.09598
8.39034
11.0469
26.1069
7.23456
8.36207
4.4813
13.383
29.4916
6.8985
9.96243
2.11264
2.63414
2.35278
2.63029
2.36118
2.61893
2.90229
1.90425
2.07517
2.13317
2.07807
2.13267
2.37211
2.3179
9.48075
5.31768
7.54649
14.2996
31.1685
7.23291
10.2432
6.4188
2.94229
4.18321
4.74388
7.3415
3.48057
4.83952
2.36547
2.70716
2.43133
2.71925
2.95706
3.01982
2.65522
2.3462
2.69497
2.41164
2.68237
2.92646
2.98881
2.6191
2.02582
2.50194
2.25386
2.48595
2.25034
2.49181
2.73512
2.85693
3.12955
3.1344
3.8869
3.8908
3.427
4.23906
6.6729
2.9932
4.2917
4.86889
7.62633
3.20787
4.96713
2.38962
2.7425
2.45415
2.73099
2.98255
3.04538
2.66739
3.45535
3.06378
3.02861
3.78852
3.73094
3.32667
4.09024
6.43119
2.87971
4.08548
4.67315
7.33571
3.07626
4.71603
2.33181
2.65724
2.39431
2.66971
2.89466
2.95525
2.60767
2.85728
2.8911
2.57956
2.87057
3.50134
3.17489
3.18777
2.88892
2.9065
2.59812
2.88088
3.52623
3.19948
3.19723
2.41575
2.75299
2.47792
2.76205
3.00292
3.06544
2.70039
2.77562
2.44063
2.49784
2.7694
3.02085
3.07999
2.70982
5.23249
3.031
3.23264
4.32898
7.2546
5.01209
8.32386
2.79052
2.80867
2.52621
2.80738
3.39584
3.09695
3.10041
2.84152
2.85563
2.55274
2.82449
3.45502
3.13845
3.12747
3.47671
3.10404
3.0833
3.82428
3.78313
3.38917
4.15765
2.90628
2.89558
2.61264
2.9011
3.53431
3.21476
3.20094
2.32216
2.64458
2.37869
2.63175
2.8652
2.92114
2.57727
6.92638
2.84799
4.06271
4.89458
8.0568
3.28325
4.68133
2.31797
2.61742
2.36939
2.62106
2.84366
2.89512
2.5696
7.0271
9.45148
13.8054
9.79298
13.2165
30.3839
11.0177
2.9094
2.89689
2.62471
2.90547
3.5351
3.22567
3.19703
2.77372
2.75863
2.50234
2.7572
3.33475
3.05575
3.01505
3.21421
2.90879
2.87288
3.52568
3.46242
3.14741
3.79572
8.43191
4.04465
5.56174
11.2176
17.9389
8.24304
11.4957
4.48609
6.12462
6.13271
4.91595
4.9206
5.38444
6.82248
8.77352
5.02371
5.71707
11.5998
19.0045
8.38079
11.9845
13.4286
8.27026
9.397
12.6702
31.4567
8.27218
10.9985
4.34231
5.99342
4.78576
5.9086
4.70579
5.18196
6.59937
3.41563
4.57751
4.22479
4.07244
3.73581
4.60421
4.9954
3.4287
4.60905
4.23751
4.09942
3.74496
4.61429
5.02793
5.7623
4.48177
4.94286
5.21921
5.79764
6.13463
6.85779
5.12655
5.17666
5.08208
5.91099
5.98258
5.98604
7.02979
8.43152
4.68699
5.40621
11.0469
18.5214
7.78322
11.1407
3.28407
4.33238
4.02181
3.91789
3.60532
4.40881
4.76398
8.36005
8.39112
11.5795
9.56896
14.3802
13.6447
35.33
2.9721
3.23268
3.25239
3.69374
3.29443
3.31486
2.91026
3.03335
3.30828
3.32317
3.78237
3.3718
3.38683
2.97056
2.73628
2.71717
2.48538
2.74307
3.2872
3.02408
2.99043
3.36421
4.5348
4.14884
4.00812
3.64927
4.47746
4.90255
3.00482
3.27225
3.29118
3.3352
3.35444
3.74002
3.67425
4.35252
6.04019
4.82457
5.97349
4.76386
5.26908
6.71771
3.40808
4.59103
4.19443
4.09621
3.72349
4.56306
5.01009
4.48324
5.22254
5.82257
5.2418
5.88305
6.19643
6.98442
3.05609
3.33609
3.39999
3.34794
3.4119
3.81809
3.75088
3.36715
4.49422
4.11532
4.08043
3.70661
4.52892
4.97051
13.2347
4.95725
8.34097
5.77264
9.70319
12.1652
24.1233
13.2615
6.97656
11.4058
19.4967
40.3423
8.83093
13.3407
3.11774
3.85734
3.76841
3.79961
3.44639
3.47
3.42614
3.18875
3.95332
3.87731
3.89366
3.5334
3.54857
3.5165
3.07321
3.37143
3.35952
3.85521
3.42307
3.43409
3.01198
3.15789
3.82942
3.85573
3.49334
3.51484
3.90835
4.27104
2.93829
3.21399
3.27458
3.1964
3.25529
3.6533
3.58999
5.73461
6.88392
8.30556
7.66501
6.40193
5.39103
6.40078
4.25264
3.19191
3.50851
3.82118
3.46001
4.17434
4.61095
6.38543
5.3604
4.524
5.10882
6.02072
6.13089
7.32392
3.53169
3.90563
3.56099
3.91497
3.57184
3.9893
4.3611
5.78417
6.9517
8.36901
7.68574
6.42435
5.42266
6.43729
4.4069
4.95245
3.98747
5.45922
4.31469
4.76041
6.10701
3.36514
3.7375
3.4235
3.70765
3.40143
3.81268
4.15233
7.31685
8.38276
9.84825
8.34524
7.30727
6.35373
7.05595
5.85301
7.12219
8.62466
6.48879
7.78198
5.41317
6.45218
3.22047
3.93198
4.02736
3.9234
3.58214
3.59257
3.53507
2.90537
3.16923
3.18043
3.62588
3.22477
3.23748
2.85195
5.83383
6.80007
5.36599
5.86973
8.30931
6.38171
7.54758
7.56577
5.38161
5.87483
5.88255
8.37557
6.42585
7.56676
8.2854
7.30931
6.35722
7.2935
8.2584
8.35376
9.74404
9.95168
6.94949
8.30676
5.89899
6.92385
6.88238
8.21408
9.6147
6.68752
7.99967
6.7232
8.02709
6.74728
5.6992
8.11271
8.18364
6.86221
6.8657
5.85992
6.85435
8.17524
9.59258
3.7343
5.36087
12.7761
26.6038
7.44661
11.1262
3.11037
4.05406
3.73253
3.74527
3.41715
4.1049
4.49221
6.90407
5.91847
6.94153
8.23041
6.98011
8.33567
9.98931
19.2504
15.2739
9.88284
12.0358
34.2852
42.0155
137.496
26.1624
9.91141
15.5135
12.5755
50.4033
37.6402
147.665
4.33565
4.38042
3.96492
4.83722
5.85823
5.26249
5.32929
6.48997
5.48986
5.08557
5.59874
7.91935
6.05654
7.23278
5.77495
6.68812
5.26301
5.6952
8.15426
6.2531
7.34466
4.48438
4.50351
4.09064
5.0192
6.06054
5.47621
5.50052
6.76402
6.69606
5.71183
8.05899
6.74807
8.02208
9.64314
3.08816
3.38539
3.44693
3.40541
3.46603
3.90719
3.84062
4.95616
4.42182
4.45699
5.38929
5.4389
4.91552
5.97304
7.0288
7.15888
6.2781
7.21452
8.26778
8.19213
9.72727
9.71704
8.01309
7.08057
8.24062
6.98735
6.14235
6.99262
8.0758
8.13298
6.74159
6.78542
5.73628
6.82158
8.14574
8.2232
6.11343
7.30032
8.83031
7.30873
8.23415
10.0278
10.827
13.6746
17.0659
39.415
33.6947
125.494
36.0922
8.1302
6.89192
5.79776
6.90685
8.28374
8.21471
9.89662
12.2766
21.0953
10.4085
14.3954
65.1654
60.3538
152.022
3.03694
3.78247
3.66078
3.68055
3.36644
3.38115
3.30703
6.77124
5.84982
5.32139
5.81066
8.37158
6.40032
7.51213
4.10049
4.51543
4.52272
5.51327
5.5181
5.025
6.11692
16.2656
4.67748
7.65288
8.76812
19.1722
5.38301
8.70833
3.65126
4.1765
3.7167
4.20144
4.69816
4.77449
4.13121
16.0013
4.78877
7.94144
8.75682
18.7561
5.51856
9.03354
3.73392
4.27931
3.80061
4.30496
4.82414
4.90215
4.2331
14.4435
42.3521
13.7417
43.4162
140.7
15.2682
34.5781
46.5998
8.77165
12.6834
67.5331
158.786
17.9927
45.5591
18.1297
46.7614
8.4233
76.7895
148.988
24.7932
61.9123
6.17995
8.43938
6.93098
8.9707
7.35985
8.30969
10.229
6.89633
7.33449
6.15239
8.92927
7.39983
8.38584
10.1765
6.07005
8.54181
7.0906
8.69329
7.15584
8.48582
10.4205
5.84411
8.24148
6.90072
8.41453
7.01523
8.36219
10.1606
3.69619
4.25394
3.76217
4.22783
4.75598
4.83306
4.15733
3.53768
3.94323
3.6051
3.96286
3.62439
4.08167
4.46107
7.04035
8.37171
7.2775
6.2756
7.23508
8.35323
9.94463
4.53392
4.52817
4.08885
4.99089
6.17128
5.51912
5.52085
6.23161
4.86674
5.37446
5.26179
7.64862
5.83462
6.83019
6.03015
8.56288
7.11446
8.82147
7.29335
8.71655
10.5836
3.6081
4.15516
3.67244
4.1386
4.66543
4.74129
4.06946
2.89773
3.16984
3.2242
3.19304
3.24646
3.6497
3.59018
3.86932
4.29009
4.24583
5.19283
5.1248
4.75483
5.74294
20.3427
4.96898
8.78623
9.18829
24.1548
5.73067
10.0902
7.56418
9.08562
9.87601
9.82368
9.04764
10.9365
12.0894
13.1334
18.0421
15.3624
55.833
50.5308
38.843
168.886
7.42522
5.20947
5.71404
5.76243
8.33657
6.34363
7.46718
7.48314
6.24519
7.57834
8.71657
9.18765
8.5353
10.5965
6.30743
7.66618
9.27827
8.61101
7.16804
8.8181
10.7055
4.35459
4.24033
3.88277
4.38155
5.40933
4.97137
4.77559
4.43739
4.29888
3.93221
4.40986
5.47998
5.0336
4.8083
3.76845
4.36489
3.83592
4.33298
4.9121
4.99186
4.26035
4.46367
4.34283
3.97182
4.49007
5.55975
5.10528
4.8979
4.55269
4.37994
4.00738
4.5191
5.66288
5.19844
4.92975
3.02456
3.65643
3.36453
3.67789
3.38594
3.80562
4.13882
9.97281
8.22861
11.1283
12.3839
10.097
9.21871
7.63242
22.2878
4.68585
7.80703
10.176
26.7156
5.38641
8.88406
3.57486
4.12238
3.63682
4.12709
4.66869
4.74329
4.0589
15.633
26.3139
63.0478
80.3095
205.575
19.857
49.1675
6.48525
7.99432
9.73585
9.36791
7.51211
9.06488
11.443
4.17726
4.20605
3.77742
4.54266
5.66842
5.02192
5.06472
4.33142
4.17921
3.83375
4.31355
5.36662
4.93533
4.69412
8.23653
6.89646
5.99233
6.8293
8.27344
7.81326
9.73218
25.4561
10.6597
15.6893
40.1709
105.848
16.0692
38.9821
16.5307
15.8472
27.3034
16.521
39.6612
120.103
46.1311
6.16125
7.46807
8.83703
8.95198
6.70248
6.79717
8.04525
6.41406
7.74749
9.20556
9.25693
7.00098
7.03492
8.35283
4.29624
4.12963
3.79459
4.30128
5.36698
4.93704
4.67911
3.81066
4.40246
3.87763
4.44846
5.03663
5.11767
4.37494
8.32846
11.4094
9.7151
10.7234
9.49348
11.4396
13.3843
8.37335
9.55281
11.5747
10.8279
9.52643
11.4967
13.5467
6.32765
9.05282
9.13797
6.88074
6.9495
7.62619
10.1013
8.25114
11.4013
9.71684
10.5855
9.32951
11.4066
13.3383
10.1547
9.21819
7.64591
10.0116
9.14772
11.0961
12.4302
4.07607
4.54366
4.56518
5.52963
5.55631
5.14223
6.26724
0.979407
1.61842
1.71186
2.55284
3.08069
5.48098
3.90035
1.41894
0.679338
0.956053
1.37207
1.88693
0.987136
1.35852
0.711608
0.752688
0.789554
0.765562
0.802167
0.89353
0.852594
2.31551
1.26098
1.72743
2.86152
4.24062
2.039
2.96633
0.80607
1.09246
0.892958
1.10393
0.906388
1.00657
1.22261
4.74908
2.17865
3.17915
3.6111
5.75637
2.5689
3.66379
2.3558
1.08966
1.63642
2.10418
2.87552
1.52256
2.13405
0.844288
1.00095
0.885376
1.00489
1.08959
1.13807
0.959952
0.865114
1.02454
0.905952
1.0128
1.1003
1.1493
0.967844
1.14544
1.23211
1.01919
1.13431
1.52108
1.27759
1.36559
1.12126
1.21559
0.997405
1.12619
1.52049
1.26729
1.3609
1.57563
1.39732
1.40163
1.75931
1.74989
1.55236
1.95138
1.8422
2.30666
2.07662
2.27874
2.05521
2.31813
2.59058
1.14183
1.24623
1.24316
1.47408
1.29853
1.29505
1.09313
1.13791
1.2435
1.24693
1.29495
1.29801
1.4773
1.4231
2.30342
2.45982
2.42932
2.58945
2.55828
2.76711
2.90688
3.3944
1.92267
3.26462
4.80199
6.7552
3.81738
4.87802
1.55207
2.19248
1.96423
1.91594
1.7238
2.17727
2.42612
1.55182
2.12855
1.9339
1.89334
1.71823
2.15458
2.36773
1.27094
1.61285
1.69235
1.69685
1.43298
1.43084
1.52004
1.26641
1.70182
1.70707
1.43123
1.43394
1.6185
1.90377
6.23973
2.75498
3.91176
5.1478
9.97481
3.92416
5.80696
2.42622
2.87042
2.71842
2.84534
2.6889
3.04543
3.21467
1.41949
1.67661
1.47414
1.67994
1.84266
1.9046
1.62201
2.5353
2.55196
2.28651
2.57784
3.26894
2.85487
2.91112
2.63264
2.6144
2.3397
2.61131
3.3494
2.93605
2.94629
1.42929
1.69409
1.48312
1.68592
1.85649
1.91918
1.62812
2.09574
2.11286
1.9062
2.40103
2.9066
2.63012
2.66595
2.44147
2.12549
2.13405
2.69079
2.70532
2.34942
2.96601
8.29483
4.4132
5.98643
6.83647
12.1042
4.85251
5.68456
2.79037
3.33565
2.92916
3.62543
3.16287
3.32222
3.81891
1.81762
1.89564
1.61469
1.823
2.34284
2.04638
2.11587
1.83731
1.91096
1.62399
1.8297
2.36793
2.06392
2.12597
2.72658
3.247
2.86712
3.55839
3.13029
3.29303
3.76667
0.965236
2.06426
2.88304
0.662202
0.977653
1.37145
0.956053
1.43772
1.35873
1.9167
0.694822
0.749795
0.743203
0.780288
0.786723
0.886701
0.845643
1.24483
1.73042
2.6158
1.72981
2.36303
2.97495
4.32421
0.785422
1.08508
1.08031
0.880703
0.886846
0.996095
1.21416
2.20716
3.31576
3.9814
2.94003
5.1276
4.1894
4.84881
0.854497
1.02216
0.895366
1.01156
1.10868
1.15658
0.96689
0.840936
1.0009
0.88207
1.00447
1.09296
1.14107
0.959711
1.57751
1.39217
1.3903
1.76702
1.76452
1.55247
1.97304
1.22023
1.13994
1.00464
1.12963
1.5342
1.28274
1.36541
1.21117
1.12
0.991891
1.12281
1.52577
1.26865
1.36114
1.85995
2.32126
2.327
2.09445
2.0897
2.35363
2.62678
1.1473
1.26173
1.25303
1.49138
1.3039
1.31252
1.0993
2.33232
2.47391
2.48021
2.60911
2.60241
2.79998
2.93669
1.55359
2.1859
1.96703
1.92668
1.73159
2.19771
2.43931
1.55162
2.20038
1.97438
1.92686
1.73137
2.20217
2.44858
1.27416
1.71647
1.63107
1.71205
1.43898
1.44639
1.5297
2.59035
2.87668
2.73592
2.72906
2.45267
3.07115
3.23133
2.9515
2.34379
2.62176
2.63915
3.35883
2.95101
2.96977
2.62941
2.64299
2.35573
2.6452
3.3724
2.96414
2.97612
2.13919
2.13878
1.92835
2.44826
2.98305
2.71103
2.70769
2.92526
2.78871
3.16127
3.62685
3.1788
3.33254
3.81391
3.33939
3.18483
2.80302
3.6383
3.18481
3.33847
3.82399
3.07119
3.02035
3.05393
3.36739
3.36297
3.44372
3.79363
4.18594
3.6457
3.46347
3.22215
3.06014
3.47858
3.6568
3.9894
3.66306
3.48556
3.23478
3.07472
3.48408
3.66084
2.90201
3.58963
3.72799
3.77479
3.20897
3.25746
3.3175
3.40795
3.1845
3.00869
3.44809
4.18326
3.95366
3.64132
3.48346
3.23012
3.06573
3.47288
4.19819
3.99028
3.65843
1.91081
2.08895
2.09675
2.42111
2.15406
2.16275
1.84868
3.36641
3.30747
2.95589
3.80332
3.28984
3.66618
4.30931
3.82178
3.81629
3.68525
3.31371
3.30825
2.96345
3.37119
2.33505
3.19481
2.94208
2.81192
2.57402
3.22972
3.50173
2.97949
2.3588
2.59843
2.84929
2.5893
3.25286
3.55791
2.05491
2.56655
2.60032
2.61562
2.29668
2.30781
2.35676
4.11163
4.14694
3.60105
3.80132
5.12038
4.38588
4.40748
3.824
4.17042
3.63567
4.16414
4.41397
4.78987
5.12778
4.41251
4.79713
4.17214
4.41123
4.1689
3.63673
3.822
4.29976
3.45041
3.78578
4.4961
3.91596
4.31925
4.97241
3.422
4.43128
3.8345
4.46107
3.84758
4.35959
5.09189
3.42533
4.35769
3.79524
4.51823
3.91281
4.33931
5.05674
4.32088
4.07451
3.68172
4.06069
5.47169
4.47555
4.86606
4.61609
4.19372
3.99136
4.86452
4.62218
5.39929
5.69838
5.6887
5.39366
4.6137
4.61442
4.85295
3.98739
4.18798
3.97917
5.42345
4.88659
4.87836
4.6171
4.62511
4.19618
3.09346
3.11577
2.83416
3.53624
4.19448
3.83509
3.86833
3.9878
4.28423
3.63641
4.03252
5.40695
4.40438
4.8424
5.12555
5.52041
4.79467
6.34588
5.51367
5.98501
7.01671
4.77714
5.99107
5.12916
6.31358
5.50262
5.98977
7.02627
5.28347
5.25016
4.50979
5.0117
7.03681
5.93093
5.85588
4.38777
6.0456
5.09157
5.03461
7.06974
5.92407
5.94604
5.04674
4.33231
4.94404
4.98422
6.83151
5.7614
5.86556
4.44854
5.32523
6.05619
6.09937
4.84835
4.89196
5.44716
6.74626
6.35675
5.39107
6.35943
8.09442
7.55247
6.75211
6.404
5.72561
5.41338
6.37865
8.18708
7.60354
6.78568
7.24976
7.27426
6.33329
7.01864
9.70814
8.25644
8.2493
5.83419
8.27937
8.34964
8.18025
6.96361
6.83985
6.93486
7.56823
10.9276
9.89846
9.83102
9.08565
9.04779
8.12289
10.3241
9.29183
10.5324
12.9647
11.3331
9.37831
7.72586
22.9033
6.3376
10.4132
22.1438
69.6079
13.1987
23.3972
13.344
15.4084
27.3618
15.328
53.0986
135.101
41.7172
11.4089
9.14131
8.11211
10.3928
9.24448
11.4113
13.3398
5.092
6.00723
4.6702
5.16294
7.45956
5.66735
6.71637
4.95096
6.75237
6.0213
6.2904
5.52307
6.70081
7.63365
6.41986
9.29398
7.05319
9.3198
7.06007
7.82961
10.4055
11.6619
9.89866
8.37588
10.9076
9.57294
11.752
13.8063
23.5413
6.17197
10.0195
23.6052
72.9923
12.8182
22.0867
4.87548
6.59266
5.91767
6.20418
5.48222
6.64638
7.52148
5.00427
6.80042
6.0913
6.38811
5.63316
6.84763
7.76429
11.695
7.97957
9.66797
9.68254
14.4787
11.8605
11.7137
4.42671
4.59247
4.05079
4.64114
5.81132
5.33065
5.06733
3.56696
4.12923
3.62691
4.15584
4.71997
4.79336
4.08947
10.2417
9.29134
7.69483
9.37575
10.4182
11.3981
12.8764
8.14723
9.81792
12.0137
9.73627
11.8718
12.1201
14.9491
9.72306
11.8379
14.9102
9.78038
12.0787
8.12733
9.86112
8.12583
12.1048
9.85626
12.0742
15.18
12.0975
9.84829
4.58898
3.88426
3.95078
4.50797
5.21858
5.30013
4.43413
13.2733
5.35695
6.19894
9.24581
35.3293
10.7837
42.6088
6.37223
9.36578
7.90983
9.34036
7.06113
7.06388
8.35324
8.12478
12.0724
9.96244
9.7835
14.8441
12.1312
11.8405
9.74035
8.081
9.7186
9.89179
14.75
12.059
11.9837
9.96812
10.1871
12.3023
10.165
15.5967
12.6435
12.3251
12.2169
9.93016
8.23215
10.0741
15.5396
12.2902
12.4445
4.78785
4.51195
4.12713
4.70358
6.02887
5.52161
5.13799
4.79248
6.54346
5.79862
6.15109
5.37702
6.50256
7.45266
5.94485
8.71433
6.60221
8.59402
6.50381
7.30572
9.71393
4.47175
4.16915
4.19266
5.00849
5.03692
4.73195
5.70732
12.2653
8.31581
10.1209
10.1175
12.2138
12.5758
15.5002
4.86627
5.51967
5.6046
5.56609
5.6513
6.60922
6.51661
30.0004
6.59761
11.9015
24.4098
95.242
14.0156
32.0828
4.30328
4.11455
3.7829
4.33043
5.42651
4.98895
4.71149
5.04582
6.95916
6.14188
6.51415
5.67152
6.89865
7.93416
9.02699
9.71038
7.90665
10.1678
8.91868
11.4217
13.3647
4.75358
5.42702
5.51037
5.41904
5.50208
6.47532
6.38536
15.5014
12.1997
10.0518
12.4294
9.95838
8.22029
9.91012
33.567
6.17708
10.2975
36.266
107.163
13.0394
25.1847
4.7234
6.46468
5.69704
6.15096
5.35706
6.4744
7.45422
8.32765
9.58132
11.9869
10.9861
9.57109
11.8523
14.1563
18.3138
77.2177
19.044
16.8549
38.0752
50.8095
194.104
9.10932
11.1124
11.3424
12.7995
13.1443
14.045
16.4103
10.1428
10.3852
12.7032
10.1095
15.6939
12.6725
12.2866
12.4074
10.2077
8.47729
10.514
15.8773
12.8171
12.8568
4.80194
5.44841
5.4802
6.51042
5.53223
5.56461
4.72525
4.94322
5.62138
5.68818
6.76605
5.7072
5.77486
4.86439
8.85198
10.0601
10.9014
12.3939
12.5001
13.5072
15.6204
8.19009
9.93439
12.3378
10.0263
12.91
13.0854
16.6901
5.06815
6.33932
5.82897
6.39235
5.87715
6.86202
7.45474
5.73733
7.20312
8.43029
8.49259
6.35968
6.41841
7.53384
8.87251
13.5401
10.8397
10.0867
15.6673
12.5508
12.4109
9.04546
13.9406
11.2456
10.36
16.2651
12.7146
13.021
10.6288
10.4614
8.55371
10.3001
16.7806
12.9739
12.816
5.00073
6.75942
6.25407
6.29295
5.75289
5.78729
5.44284
4.73793
5.44332
5.42489
6.51963
5.52551
5.50772
4.66252
6.32718
9.41191
7.07896
9.5004
7.12171
8.05477
10.814
5.10014
7.03401
6.2104
6.69789
5.84176
7.12864
8.18491
10.8096
7.88066
9.50113
11.2029
9.69455
11.7152
13.8487
4.9488
6.2266
5.72909
6.21396
5.71924
6.71941
7.29323
10.4815
10.8694
10.7744
13.1083
13.2122
13.78
17.1822
10.1891
10.4692
10.8162
12.8728
13.396
13.9602
17.8696
5.04952
5.76831
5.856
5.86253
5.95073
6.99926
6.90535
41.0328
5.12016
9.46542
19.7354
48.6077
5.93339
11.3716
3.64647
4.31812
3.70592
4.21319
4.90384
4.97478
4.14705
11.6283
11.9893
14.9555
11.032
17.8877
14.1725
13.5901
11.3701
11.0195
9.00313
10.8909
17.9781
13.9968
13.4594
5.14768
7.02124
6.45486
6.53081
5.93437
6.00387
5.60657
12.1454
12.2254
10.7782
13.4487
18.3767
15.6738
15.7938
14.9818
12.0504
10.9023
13.2293
18.7597
16.0495
14.9765
12.2075
13.4603
15.3212
13.3163
19.1061
16.2918
15.0969
11.8015
11.8987
10.497
13.3386
18.1389
15.5564
15.5538
12.2377
13.2753
15.1122
13.3862
19.0925
16.17
15.345
13.3493
11.9856
12.0666
15.5986
13.6011
15.5629
18.159
43.2601
10.1259
15.6589
99.2665
215.461
27.4347
60.0522
7.75708
11.6479
9.81432
10.0597
8.84138
11.4884
13.5931
10.8841
11.4919
11.8004
13.4184
13.9352
14.7519
17.6044
4.93153
6.76148
6.23546
6.2172
5.74167
5.72396
5.3612
4.49556
4.19812
3.86194
4.38854
5.64995
5.17812
4.77509
8.41262
10.0079
7.55018
8.4845
12.8779
9.61562
11.304
8.62942
10.1874
7.69252
8.55792
13.07
9.76507
11.3971
11.207
16.0599
13.6988
13.5297
19.9881
16.5365
15.6611
5.25901
6.62295
6.08776
6.73222
6.18627
7.26088
7.89034
5.20531
7.42529
6.35342
6.98031
5.9306
7.25254
8.60234
20.4232
7.21271
17.0097
12.9512
53.6644
37.0387
136.955
13.668
12.3056
12.3849
15.9525
14.059
16.1431
18.8307
8.69841
10.3374
7.79189
8.76793
13.3497
9.9525
11.7116
8.34659
9.80796
7.38443
8.29137
12.7885
9.52896
11.0791
15.632
12.6053
11.2544
13.8637
20.0575
16.8332
16.0282
4.7028
6.48195
5.66789
6.23283
5.39961
6.54002
7.58803
5.64044
8.42915
6.34329
8.51682
6.38529
7.2688
9.75983
4.75979
5.47405
5.55525
5.5225
5.60245
6.647
6.56186
7.6965
7.27942
7.34356
8.85031
8.93537
8.5674
10.4488
10.2784
11.6977
11.5999
15.5714
13.2771
15.61
18.2467
5.19892
6.108
5.9727
7.34676
6.06098
6.19568
5.11752
8.93295
10.476
7.8664
8.8436