/*--------------------------------*- C++ -*----------------------------------*\
  =========                 |
  \\      /  F ield         | OpenFOAM: The Open Source CFD Toolbox
   \\    /   O peration     | Website:  https://openfoam.org
    \\  /    A nd           | Version:  9
     \\/     M anipulation  |
\*---------------------------------------------------------------------------*/
FoamFile
{
    format      ascii;
    class       volVectorField;
    location    "0.00285";
    object      rhoU;
}
// * * * * * * * * * * * * * * * * * * * * * * * * * * * * * * * * * * * * * //

dimensions      [1 -2 -1 0 0 0 0];

internalField   nonuniform List<vector> 
27205
(
(33.1216 -89.4292 2.85683)
(62.6089 -34.4811 1.9394)
(46.9634 -89.2279 17.2229)
(68.4694 -47.0059 13.5465)
(100.191 -177.509 78.1497)
(83.8886 -70.0923 63.0965)
(197.978 -160.129 233.14)
(59.9249 -40.1567 5.96022)
(29.0598 -10.8463 0.0478082)
(19.9056 -12.7542 -1.49155)
(43.5602 -37.7772 0.427748)
(83.5388 -61.7722 5.68579)
(41.1855 -37.8747 3.30272)
(86.4201 -69.1516 19.8375)
(58.4135 -102.985 6.60573)
(6.03747 -51.0457 0.562484)
(30.0501 -60.8522 1.12485)
(39.6657 -81.2361 8.79162)
(67.1269 -103.478 23.1544)
(11.4366 -35.9161 -1.50362)
(34.1781 -54.3356 3.49281)
(26.3852 -10.4179 -1.47215)
(32.9353 -19.1406 -0.195786)
(30.7663 -18.4411 -1.87486)
(39.0247 -18.0455 0.250031)
(36.7321 -17.6889 -1.40871)
(41.5007 -26.0599 -1.42213)
(43.4457 -26.6324 0.249846)
(23.361 -17.9112 2.54296)
(62.6308 -53.2275 32.3143)
(122.719 -86.114 50.1522)
(59.614 -54.2998 18.9922)
(99.1059 -78.6753 30.2093)
(90.6379 -81.9752 44.5523)
(173.398 -136.885 80.3242)
(76.5542 -117.228 34.3901)
(18.6199 -37.7741 2.52442)
(40.7586 -60.5217 10.8104)
(86.1537 -153.039 57.3227)
(134.174 -202.003 88.5699)
(45.3267 -69.0668 29.5809)
(81.0339 -107.465 46.2757)
(5.80697 -47.4992 -1.55031)
(13.2082 -53.4471 0.407163)
(12.9059 -50.3658 -1.69815)
(14.3654 -62.6898 0.979917)
(14.1988 -59.5257 -1.1701)
(21.6617 -62.4428 -1.02838)
(21.8484 -65.2001 1.02088)
(21.7511 -10.7037 -2.5958)
(26.3604 -20.4495 -1.03983)
(27.1617 -18.3986 -2.54204)
(31.7443 -21.3036 -0.238857)
(32.6667 -18.5647 -1.46215)
(38.5604 -26.499 -0.378866)
(38.618 -29.3331 1.15049)
(7.79834 -40.3871 -1.3026)
(18.0357 -41.255 -0.907616)
(14.737 -44.35 -1.26729)
(20.3287 -49.6462 0.199096)
(16.4828 -53.1603 0.0315491)
(23.5917 -57.3528 1.08007)
(27.3818 -55.1179 1.76028)
(37.7136 -28.1947 -0.152007)
(41.8819 -36.5889 -1.04715)
(35.9162 -27.2225 -1.86112)
(47.0685 -35.1005 -0.604546)
(55.2578 -45.248 2.09346)
(53.5567 -44.6844 1.06036)
(48.8371 -35.7876 0.832816)
(60.7331 -34.5553 0.635454)
(50.1568 -26.0303 0.760375)
(48.0874 -25.7992 -0.843039)
(53.3043 -34.3714 -0.0409989)
(68.2231 -42.8826 3.15603)
(66.5582 -43.309 2.25693)
(55.1621 -34.6191 1.35517)
(21.3002 -56.6827 0.473456)
(29.642 -58.522 -0.632047)
(20.8896 -54.0454 -1.55367)
(29.9114 -66.2983 -0.110939)
(38.7042 -73.274 2.98413)
(38.9064 -71.0941 1.75397)
(30.0394 -68.7559 1.64307)
(86.4445 -69.6319 98.5917)
(142.161 -99.4466 68.9058)
(188.625 -141.541 147.723)
(122.703 -109.646 82.5334)
(191.486 -157.882 114.369)
(158.952 -141.02 137.899)
(219.19 -180.128 146.655)
(30.3311 -26.4624 7.95608)
(30.9548 -25.5427 4.07324)
(36.7406 -27.0877 4.83422)
(39.5737 -34.5145 10.5095)
(45.8654 -36.7029 11.4872)
(44.6853 -34.9923 7.30264)
(55.6261 -45.128 15.0739)
(156.271 -223.769 123.676)
(52.3811 -79.7244 43.6321)
(95.0816 -125.31 64.3336)
(145.927 -235.348 166.393)
(173.719 -264.1 184.483)
(74.6728 -114.055 107.11)
(140.77 -186.586 146.309)
(58.7731 -36.1117 3.83785)
(45.0848 -30.4511 2.10684)
(44.9849 -27.0221 0.797607)
(51.3422 -35.2485 2.62207)
(67.6116 -48.8121 9.82651)
(65.4718 -44.8353 6.51263)
(52.3595 -38.8444 4.66854)
(33.4142 -28.7948 0.542902)
(40.143 -35.8875 1.06304)
(33.3154 -26.762 -1.22916)
(45.1749 -35.1841 1.6939)
(54.3115 -47.4821 7.96951)
(52.4115 -44.7392 4.75939)
(46.1142 -38.0759 3.82065)
(96.8214 -96.8689 179.254)
(84.9669 -73.7059 165.156)
(81.5104 -81.6939 121.656)
(43.8484 -43.2715 115.741)
(93.2852 -76.3152 148.983)
(147.009 -113.806 209.674)
(107.958 -103.801 136.596)
(186.808 -177.16 246.372)
(23.5135 -75.4262 1.60469)
(33.5763 -86.8387 1.4961)
(23.5306 -72.5994 -0.431329)
(31.2213 -75.6029 0.548935)
(40.5912 -92.2285 4.14806)
(41.6555 -90.0178 3.27417)
(31.0672 -78.1013 2.21717)
(30.6481 -55.0868 2.07724)
(25.6368 -47.3979 0.684805)
(22.3496 -49.2612 -0.119119)
(31.4557 -62.5735 3.15119)
(44.3305 -68.6619 8.90432)
(40.2999 -68.5285 6.25826)
(35.3758 -61.5518 4.60077)
(28.6908 -45.0843 8.72956)
(24.9181 -44.8141 4.24619)
(27.4857 -53.2902 5.57084)
(35.6211 -53.4494 11.3024)
(38.2702 -63.0457 13.2063)
(34.3311 -60.316 8.36515)
(45.7334 -71.7159 17.1125)
(30.9427 -30.927 105.898)
(47.0706 -43.9311 117.866)
(32.1236 -32.4015 90.2788)
(20.5142 -21.8855 82.8431)
(34.4606 -33.5504 91.6862)
(47.6549 -45.686 99.8337)
(61.8506 -58.1258 128.701)
(35.4561 -82.6083 6.46124)
(29.764 -64.7896 3.33806)
(25.6361 -67.3405 2.46225)
(33.068 -71.6512 4.53319)
(47.5024 -87.0494 13.1787)
(43.3621 -86.9295 9.41625)
(37.2645 -70.4183 6.29631)
(59.46 -43.5891 1.61424)
(75.0295 -51.8123 4.69592)
(68.35 -52.9331 4.13371)
(81.479 -64.3714 6.82906)
(66.6072 -53.7003 3.82436)
(73.4475 -53.1426 4.37025)
(61.1666 -43.5755 2.64534)
(50.3125 -43.5896 20.6682)
(39.6411 -33.8996 17.4058)
(50.4309 -41.8751 27.8771)
(70.9013 -55.4459 33.7186)
(57.6851 -45.9194 21.7036)
(69.2489 -56.3427 25.9844)
(84.3021 -68.1004 38.9039)
(49.2879 -43.6241 14.2809)
(47.6614 -43.5819 10.3183)
(38.9647 -33.9691 6.66103)
(62.5978 -54.3588 15.7843)
(53.165 -43.9995 10.9211)
(65.8516 -54.9873 19.7956)
(77.0142 -66.639 25.4566)
(51.6522 -36.743 8.40163)
(83.661 -58.4846 23.1014)
(63.5181 -47.274 16.527)
(77.5885 -56.2072 18.3028)
(60.0816 -45.1823 11.969)
(73.8487 -56.4436 21.1459)
(94.8075 -68.7992 28.6017)
(32.1657 -52.4093 7.0112)
(52.6225 -72.7292 20.1261)
(43.4013 -62.7521 15.2102)
(51.8539 -76.8425 17.3181)
(42.362 -68.1445 12.2202)
(54.3541 -81.5398 22.0092)
(64.7938 -92.355 27.7288)
(58.3118 -44.4406 5.44995)
(76.2375 -58.2949 14.7224)
(81.9047 -65.5495 13.7369)
(69.0805 -57.8104 13.7208)
(66.0734 -54.5435 9.12349)
(73.0079 -54.5963 9.91684)
(60.2609 -47.8874 8.68191)
(39.7362 -79.7255 2.42269)
(48.8244 -96.622 5.64995)
(47.8826 -86.9264 5.18562)
(61.5629 -100.517 8.33055)
(50.8392 -94.5897 5.64612)
(49.4093 -84.9788 4.7902)
(39.1667 -81.9077 3.51858)
(36.5672 -56.2261 18.6781)
(55.3963 -80.3722 34.0721)
(45.1812 -66.03 21.8623)
(57.9438 -93.0909 36.5479)
(47.7197 -77.1168 24.0357)
(57.1599 -87.7383 28.4861)
(69.4637 -105.518 41.896)
(36.8052 -70.305 10.3108)
(58.6159 -105.865 28.3283)
(48.082 -83.0977 19.7621)
(55.4998 -97.0967 22.5374)
(44.5556 -77.555 14.2983)
(56.48 -92.4077 24.6973)
(68.2694 -116.187 34.2145)
(73.5709 -61.7663 46.8678)
(67.1615 -54.6941 55.8457)
(59.2098 -48.47 41.0565)
(82.7098 -63.7917 48.5887)
(93.8918 -71.9823 65.2704)
(98.4069 -78.7354 55.2469)
(112.45 -89.3707 73.9475)
(253.158 -205.193 250.249)
(198.427 -177.2 221.349)
(116.35 -109.902 161.753)
(237.734 -225.724 256.052)
(195.938 -195.874 229.271)
(186.423 -186.35 219.589)
(268.875 -255.546 276.073)
(41.4317 -76.9238 7.62994)
(63.0452 -99.8417 16.6644)
(56.5251 -94.2689 18.1969)
(55.0979 -84.5324 15.9088)
(52.4532 -92.4752 12.9577)
(50.9945 -83.0741 11.2883)
(45.6242 -76.9928 10.6434)
(64.0559 -57.434 148.66)
(62.9235 -57.8642 147.258)
(45.1509 -42.9928 133.146)
(103.165 -93.3898 180.982)
(78.6045 -75.1424 161.973)
(59.3791 -57.5421 145.729)
(80.5364 -74.1756 162.291)
(99.5803 -99.5747 157.665)
(60.8586 -63.2995 109.419)
(75.9215 -79.0936 141.458)
(58.633 -59.046 127.412)
(45.3578 -45.9397 98.9881)
(63.0849 -61.4463 109.653)
(79.0763 -76.3205 141.703)
(67.4674 -58.7942 131.981)
(52.0497 -46.7651 101.894)
(74.2853 -62.4101 114.209)
(92.6735 -79.8623 125.203)
(113.852 -96.325 163.253)
(67.4305 -61.2076 111.227)
(84.7135 -75.4784 144.214)
(76.0148 -66.6116 37.7947)
(74.3828 -67.4784 30.601)
(61.9064 -54.6638 25.1532)
(81.6686 -68.2339 31.4939)
(114.565 -98.9433 54.0267)
(94.9974 -82.0898 38.1384)
(98.8334 -82.5621 45.6477)
(59.1658 -89.7197 59.5703)
(64.3663 -93.3801 49.5422)
(67.0215 -107.726 52.6284)
(73.2228 -106.02 67.0295)
(76.0331 -122.307 71.2049)
(80.7836 -122.496 59.3516)
(92.1579 -140.017 79.8262)
(87.6857 -66.6889 24.0897)
(79.5683 -66.0868 22.6612)
(69.2986 -54.9591 16.7591)
(84.9239 -67.3527 26.7164)
(120.017 -94.8164 42.605)
(97.1434 -80.1656 33.2808)
(106.876 -80.9038 35.0759)
(94.2453 -78.6261 82.8626)
(107.029 -88.7594 108.734)
(75.4419 -61.2831 74.3036)
(119.499 -90.665 112.999)
(105.304 -80.4706 85.809)
(126.873 -100.541 96.4418)
(143.93 -113.416 125.749)
(102.671 -71.9945 35.2027)
(94.8647 -70.2167 40.9141)
(78.5964 -58.5763 27.5634)
(91.0609 -69.8461 33.0139)
(138.564 -101.08 58.5818)
(116.02 -84.3873 41.9287)
(109.489 -84.0891 47.4769)
(66.1716 -89.2292 32.0465)
(67.3218 -93.2423 39.3905)
(54.9426 -77.1153 26.3814)
(67.892 -99.7036 34.1419)
(97.5148 -135.058 57.3141)
(80.3902 -112.689 40.9534)
(82.6949 -119.63 48.7089)
(65.2124 -106.381 28.5171)
(63.6519 -95.4651 25.664)
(53.4302 -86.0027 19.4968)
(66.3384 -103.151 30.4653)
(92.2845 -140.634 48.1908)
(79.3961 -127.868 40.8938)
(78.0578 -114.929 37.1709)
(71.6817 -128.325 41.4133)
(71.542 -120.927 45.4129)
(59.2536 -101.068 31.4641)
(69.8555 -112.518 37.2207)
(100.449 -167.939 66.1644)
(83.5605 -140.935 48.407)
(84.5088 -134.632 52.285)
(66.1265 -100.252 79.8435)
(92.9642 -135.137 117.54)
(82.3337 -119.069 88.6773)
(96.5479 -156.828 126.102)
(85.4507 -137.736 94.6376)
(104.158 -158.785 105.328)
(118.134 -181.22 139.231)
(106.511 -95.7601 62.0769)
(102.469 -88.3438 71.9836)
(89.3258 -77.4508 53.7924)
(134.237 -115.778 73.4046)
(115.575 -96.0773 63.3688)
(132.639 -109.533 84.2803)
(154.62 -132.757 96.4479)
(118.047 -124.05 199.568)
(95.3122 -99.6379 178.256)
(75.8706 -76.0602 160.541)
(122.814 -122.578 197.931)
(148.992 -148.683 221.286)
(124.315 -118.046 199.56)
(99.8559 -95.4926 178.444)
(112.572 -92.1697 185.863)
(118.293 -94.0328 188.466)
(87.9507 -74.2066 166.867)
(141.357 -117.171 205.403)
(171.71 -139.753 228.289)
(133.799 -114.773 203.001)
(107.346 -93.7694 181.876)
(98.6931 -87.8181 143.755)
(97.0895 -92.0871 163.208)
(80.453 -72.4251 147.214)
(104.882 -89.2418 166.286)
(125.429 -105.678 164.65)
(124.315 -111.58 183.623)
(145.921 -130.508 183.797)
(141.594 -130.512 155.449)
(129.783 -124.157 177.699)
(168.07 -153.745 202.785)
(114.899 -102.171 138.637)
(138.535 -121.717 180.865)
(85.7989 -79.8669 122.637)
(105.178 -96.8712 159.164)
(104.338 -82.8368 39.6863)
(155.401 -117.834 68.6567)
(145.678 -114.986 58.9939)
(142.057 -117.221 65.8282)
(118.657 -97.8964 47.5911)
(130.241 -98.6498 49.8431)
(125.203 -99.585 55.8986)
(110.134 -80.8138 57.6988)
(162.276 -112.842 91.4758)
(125.534 -91.3528 77.0674)
(160.985 -117.621 78.9844)
(127.364 -97.4989 65.5778)
(145.664 -110.816 87.1497)
(184.371 -134.364 103.524)
(78.5815 -108.518 56.2142)
(109.081 -143.691 85.7886)
(89.8025 -124.004 75.674)
(114.579 -157.431 77.6893)
(96.7089 -139.11 67.4123)
(110.855 -159.437 89.8444)
(132.114 -180.964 102.079)
(82.9652 -140.076 63.7492)
(114.934 -203.79 103.853)
(94.6353 -160.184 85.6699)
(117.346 -195.3 88.6695)
(98.5107 -156.32 71.8763)
(112.934 -179.266 95.7077)
(135.175 -224.668 116.441)
(81.8612 -125.462 44.1243)
(112.327 -170.151 65.5811)
(116.277 -184.309 76.6817)
(115.18 -166.404 71.2822)
(96.9956 -155.007 56.4344)
(95.784 -139.556 52.0647)
(98.9375 -149.905 61.0322)
(139.639 -124.303 106.872)
(115.767 -99.5992 93.7036)
(131.293 -112.529 121.659)
(150.717 -123.887 109.382)
(201.866 -171.578 160.753)
(176.556 -150.845 124.618)
(171.597 -140.375 141.675)
(7.93907e-06 -2.56349e-05 1.7893e-06)
(2.04362e-06 -6.06181e-06 3.91447e-07)
(4.38323e-07 -1.09602e-06 6.22936e-08)
(6.67459e-08 -1.58534e-07 7.73904e-09)
(7.72107e-09 -1.43793e-08 6.68284e-10)
(6.79296e-10 -1.01076e-09 4.60288e-11)
(4.28973e-11 -5.95548e-11 2.69883e-12)
(0.078629 -0.266617 0.00272367)
(2.96526e-05 -0.000103705 3.84329e-06)
(1.20179e-05 -2.69702e-05 1.94455e-06)
(1.90274e-06 -4.41005e-06 2.551e-07)
(2.05786e-07 -3.68297e-07 1.91515e-08)
(1.69251e-08 -2.44365e-08 1.19556e-09)
(1.02057e-09 -1.35359e-09 6.50201e-11)
(21.5909 -57.0185 0.93569)
(0.0110635 -0.0330801 0.000376274)
(0.000440933 -0.000887881 2.8224e-05)
(2.87893e-05 -5.64496e-05 3.41488e-06)
(5.35916e-06 -7.68006e-06 5.37456e-07)
(4.10578e-07 -5.1655e-07 3.11823e-08)
(2.31299e-08 -2.67357e-08 1.50948e-09)
(446.179 -1103.51 30.8195)
(314.994 -600.424 12.8476)
(1.76195 -3.57075 0.0428124)
(0.00190488 -0.00360464 7.75012e-05)
(6.44957e-05 -8.93614e-05 4.36248e-06)
(8.29679e-06 -8.56861e-06 7.05901e-07)
(4.81853e-07 -4.67772e-07 3.35533e-08)
(202.252 -467.277 20.871)
(408.668 -737.939 28.0895)
(692.992 -1025.99 28.6977)
(54.7011 -72.56 1.28022)
(0.0101752 -0.0127615 0.000176361)
(9.2783e-05 -9.17673e-05 4.52296e-06)
(7.4842e-06 -6.58958e-06 6.10497e-07)
(81.8533 -171.816 9.08284)
(168.127 -267.702 13.8692)
(357.999 -478.872 22.5522)
(790.586 -913.322 30.2173)
(189.877 -192.71 4.05591)
(0.0138112 -0.0116942 0.000188653)
(7.48819e-05 -5.6508e-05 3.9602e-06)
(70.2294 -111.543 6.88887)
(157.436 -184.917 11.0738)
(372.041 -380.135 20.3474)
(893.331 -801.484 30.0027)
(94.3609 -74.6359 1.71618)
(0.00388217 -0.00244418 8.18955e-05)
(75.832 -84.1591 5.02439)
(178.421 -159.467 10.7059)
(460.204 -358.741 21.867)
(1026.08 -716.857 29.0314)
(6.04259 -3.16703 0.0744348)
(137.843 -78.1417 7.36204)
(372.033 -190.357 17.4548)
(1075.76 -497.137 227.658)
(14.7573 -6.2293 3.02148)
(2.23753e-06 -8.09241e-06 1.79987e-06)
(8.10502e-07 -2.63163e-06 6.29345e-07)
(1.57497e-07 -3.81785e-07 1.01509e-07)
(2.35506e-08 -5.17317e-08 1.39496e-08)
(2.79618e-09 -5.02168e-09 1.36023e-09)
(2.51382e-10 -3.66608e-10 1.01619e-10)
(1.61354e-11 -2.22631e-11 6.28991e-12)
(6.37901e-05 -0.000296087 4.3261e-05)
(1.057e-05 -3.75042e-05 6.73972e-06)
(3.52393e-06 -7.77347e-06 1.8382e-06)
(5.58701e-07 -1.19392e-06 3.13735e-07)
(6.69871e-08 -1.20765e-07 3.19667e-08)
(5.88269e-09 -8.34677e-09 2.33478e-09)
(3.68976e-10 -4.8699e-10 1.40824e-10)
(0.16025 -0.554233 0.114588)
(0.00156495 -0.00518219 0.00077706)
(0.000105619 -0.000253626 4.21189e-05)
(1.5339e-05 -2.74515e-05 6.5172e-06)
(1.72455e-06 -2.89226e-06 7.39125e-07)
(1.35321e-07 -1.74172e-07 5.02504e-08)
(7.82826e-09 -9.06265e-09 2.86178e-09)
(404.286 -1018.72 282.403)
(104.806 -198.005 56.2804)
(0.232847 -0.505275 0.106459)
(0.00086939 -0.00143354 0.000319822)
(2.72696e-05 -3.68707e-05 8.80563e-06)
(3.32096e-06 -3.53365e-06 1.04348e-06)
(1.62784e-07 -1.5655e-07 5.33684e-08)
(232.03 -543.131 153.054)
(480.547 -884.478 247.296)
(627.767 -940.333 264.77)
(7.25293 -10.5313 2.70362)
(0.00196318 -0.00244406 0.000563295)
(3.73385e-05 -3.61946e-05 9.45776e-06)
(3.09839e-06 -2.44593e-06 8.81653e-07)
(98.5545 -205.23 58.0149)
(195.246 -320.12 94.0979)
(405.636 -548.262 167.97)
(811.359 -938.96 287.064)
(30.1468 -30.8111 9.58141)
(0.00235036 -0.00199359 0.00049489)
(3.16994e-05 -2.22234e-05 7.88145e-06)
(90.0458 -130.15 39.9625)
(185.178 -221.745 71.4587)
(423.704 -433.558 148.27)
(923.934 -829.624 285.027)
(14.0482 -10.2715 3.68786)
(0.00123165 -0.000730996 0.000273698)
(106.576 -99.5938 52.8511)
(212.961 -188.66 69.9818)
(524.558 -406.646 161.662)
(966.811 -673.097 271.156)
(0.886897 -0.435071 0.190325)
(168.989 -97.7787 46.7379)
(436.024 -218.978 121.311)
(937.807 -420.424 399.959)
(0.22474 -0.0797819 0.0716768)
(6.35559e-07 -2.42725e-06 6.50152e-07)
(1.49506e-07 -4.56908e-07 1.34572e-07)
(3.07552e-08 -9.27698e-08 2.29162e-08)
(4.72384e-09 -1.09573e-08 2.77293e-09)
(5.34241e-10 -9.72081e-10 2.53938e-10)
(4.60743e-11 -6.7699e-11 1.84928e-11)
(2.86908e-12 -3.96729e-12 1.11669e-12)
(8.69829e-06 -3.57568e-05 9.36758e-06)
(3.68426e-06 -1.02844e-05 3.33235e-06)
(8.51922e-07 -2.45089e-06 6.38621e-07)
(1.24931e-07 -2.70323e-07 7.12435e-08)
(1.34997e-08 -2.36213e-08 6.1871e-09)
(1.12436e-09 -1.59575e-09 4.31795e-10)
(6.79933e-11 -8.99473e-11 2.55856e-11)
(0.000441175 -0.00200602 0.00074121)
(0.000138481 -0.000373354 0.000126516)
(1.30524e-05 -3.39169e-05 9.41799e-06)
(3.03778e-06 -5.19613e-06 1.65326e-06)
(3.18154e-07 -4.80354e-07 1.4587e-07)
(2.5535e-08 -3.20106e-08 9.50652e-09)
(1.49194e-09 -1.72866e-09 5.29396e-10)
(71.0238 -176.349 86.3303)
(0.662806 -1.62646 0.568806)
(0.00174023 -0.00422682 0.0012616)
(6.05679e-05 -0.00011126 3.20865e-05)
(6.46882e-06 -8.03366e-06 3.12943e-06)
(5.14156e-07 -5.46079e-07 1.97907e-07)
(2.95731e-08 -2.89932e-08 1.01045e-08)
(366.234 -893.971 454.37)
(540.154 -999.678 507.883)
(88.2085 -131.905 66.4578)
(0.0423266 -0.0662261 0.0229526)
(0.00020739 -0.000230743 8.18964e-05)
(8.33916e-06 -7.51887e-06 3.45633e-06)
(4.8362e-07 -3.96716e-07 1.70938e-07)
(183.39 -389.354 192.128)
(314.532 -477.166 346.313)
(611.8 -847.901 462.324)
(495.499 -576.876 311.741)
(0.180871 -0.187555 0.0792015)
(0.000260654 -0.000192721 8.71597e-05)
(5.76726e-06 -4.26246e-06 2.25632e-06)
(181.255 -248.583 142.365)
(317.691 -381.679 226.525)
(621.608 -637.758 394.168)
(603.687 -541.529 330.764)
(0.0918336 -0.0627338 0.0332193)
(8.61282e-05 -4.9163e-05 2.80573e-05)
(189.275 -174.241 157.473)
(269.275 -211.789 147.95)
(797.052 -605.727 439.407)
(212.124 -149.371 108.236)
(0.00657423 -0.00305855 0.00200365)
(310.28 -186.316 165.487)
(390.682 -214.301 195.918)
(11.0356 -4.33408 6.08531)
(0.00132236 -0.000457722 0.000739287)
(8.08675e-08 -2.91678e-07 1.06246e-07)
(1.92519e-08 -6.1763e-08 2.19862e-08)
(3.7987e-09 -1.10362e-08 3.80544e-09)
(5.82247e-10 -1.33178e-09 4.59098e-10)
(6.55268e-11 -1.17425e-10 4.11093e-11)
(5.60922e-12 -8.18299e-12 2.91673e-12)
(3.46366e-13 -4.78622e-13 1.52151e-13)
(1.83691e-06 -6.02007e-06 2.6232e-06)
(5.31481e-07 -1.73759e-06 6.28289e-07)
(9.68806e-08 -2.77092e-07 1.02788e-07)
(1.47393e-08 -3.28792e-08 1.18153e-08)
(1.62004e-09 -2.84686e-09 1.01917e-09)
(1.35208e-10 -1.91038e-10 6.98037e-11)
(8.20194e-12 -1.08355e-11 4.04337e-12)
(3.2734e-05 -0.000142712 5.92449e-05)
(1.0857e-05 -2.96661e-05 1.43197e-05)
(2.49098e-06 -5.61059e-06 2.67028e-06)
(3.57165e-07 -6.84841e-07 2.89185e-07)
(3.79549e-08 -5.96711e-08 2.39852e-08)
(3.05044e-09 -3.85278e-09 1.55495e-09)
(1.77855e-10 -2.07641e-10 8.55805e-11)
(0.00255055 -0.00994928 0.00603825)
(0.00069243 -0.00188902 0.00102199)
(4.59501e-05 -0.000109429 5.31472e-05)
(7.73196e-06 -1.19583e-05 6.4429e-06)
(8.09749e-07 -1.09137e-06 5.2187e-07)
(6.33424e-08 -6.86318e-08 3.20778e-08)
(3.5576e-09 -3.52751e-09 1.65605e-09)
(270.371 -673.784 502.311)
(12.3936 -24.5222 16.6058)
(0.0275555 -0.0553671 0.0329767)
(0.000283071 -0.000378792 0.000241154)
(1.63889e-05 -1.8063e-05 1.12935e-05)
(1.12624e-06 -1.00118e-06 5.76835e-07)
(6.16169e-08 -4.97821e-08 2.81187e-08)
(206.737 -395.957 295.292)
(370.51 -570.968 462.061)
(353.137 -487.75 386.672)
(0.430012 -0.560956 0.400741)
(0.0006275 -0.000550653 0.000431096)
(1.57067e-05 -1.15276e-05 8.82449e-06)
(8.26004e-07 -5.33775e-07 3.85978e-07)
(167.539 -274.125 222.097)
(225.69 -292.034 281.877)
(384.51 -414.633 373.632)
(627.243 -644.897 584.381)
(0.669436 -0.557127 0.496147)
(0.000444744 -0.000264399 0.000255561)
(7.0971e-06 -4.17692e-06 3.88045e-06)
(159.325 -158.746 200.898)
(324.871 -294.233 344.174)
(480.339 -369.656 401.948)
(562.949 -428.383 455.403)
(0.0988642 -0.0533265 0.0600729)
(7.65649e-05 -3.52433e-05 3.94151e-05)
(184.294 -145.231 233.905)
(311.806 -199.987 247.07)
(766.238 -396.292 594.395)
(0.00246177 -0.000726682 0.00173795)
(5.44209e-05 -1.95602e-05 3.20333e-05)
(9.58159e-09 -3.24992e-08 1.27492e-08)
(2.18992e-09 -6.82364e-09 2.68492e-09)
(4.19171e-10 -1.12537e-09 4.49536e-10)
(6.15637e-11 -1.32081e-10 5.38209e-11)
(6.74156e-12 -1.15701e-11 4.79427e-12)
(5.4403e-13 -8.08882e-13 3.19176e-13)
(2.63375e-14 -4.03588e-14 1.07055e-14)
(2.13856e-07 -6.92e-07 3.0228e-07)
(5.14434e-08 -1.58216e-07 6.54101e-08)
(9.78943e-09 -2.63276e-08 1.11667e-08)
(1.45091e-09 -3.09639e-09 1.32167e-09)
(1.58219e-10 -2.66586e-10 1.15264e-10)
(1.32532e-11 -1.83178e-11 7.99569e-12)
(8.0964e-13 -1.03937e-12 4.44705e-13)
(4.0192e-06 -1.12395e-05 6.08237e-06)
(1.24896e-06 -3.45283e-06 1.77316e-06)
(2.21123e-07 -5.23825e-07 2.65173e-07)
(3.23723e-08 -6.25124e-08 3.07249e-08)
(3.46997e-09 -5.30999e-09 2.60432e-09)
(2.82675e-10 -3.51848e-10 1.72672e-10)
(1.6957e-11 -1.98755e-11 9.75376e-12)
(7.97401e-05 -0.000253164 0.000163191)
(1.52732e-05 -3.80192e-05 2.31163e-05)
(4.47105e-06 -8.12638e-06 5.24003e-06)
(6.57723e-07 -1.07843e-06 6.42997e-07)
(7.02695e-08 -9.35898e-08 5.44481e-08)
(5.56714e-09 -6.02944e-09 3.4514e-09)
(3.2248e-10 -3.25732e-10 1.84309e-10)
(0.00440849 -0.0133139 0.00939724)
(0.000930654 -0.00215211 0.00168663)
(7.61142e-05 -0.000139775 0.000108064)
(1.12252e-05 -1.51401e-05 1.16295e-05)
(1.21385e-06 -1.3454e-06 9.81819e-07)
(9.57301e-08 -8.61475e-08 6.04035e-08)
(5.41506e-09 -4.50881e-09 3.07024e-09)
(210.275 -475.379 380.791)
(7.79347 -13.7573 13.2394)
(0.0248838 -0.0411222 0.0422157)
(0.000324841 -0.00036627 0.000402831)
(1.67244e-05 -1.48569e-05 1.42585e-05)
(1.28592e-06 -9.22306e-07 8.31354e-07)
(7.35265e-08 -4.85476e-08 4.1624e-08)
(276.132 -537.553 431.239)
(314.207 -418.867 383.74)
(142.039 -172.954 170.242)
(0.135289 -0.142054 0.180197)
(0.00040642 -0.000295873 0.000387623)
(1.09984e-05 -7.03391e-06 7.44545e-06)
(7.01726e-07 -3.92874e-07 4.07314e-07)
(154.17 -181.384 208.37)
(272.056 -271.902 286.713)
(359.447 -325.733 358.634)
(204.906 -179.944 205.393)
(0.0634832 -0.0422125 0.0668525)
(0.000121823 -6.49701e-05 9.04678e-05)
(5.01471e-06 -2.33607e-06 3.04516e-06)
(313.703 -270.041 316.572)
(524.692 -319.168 431.716)
(0.00445554 -0.00150095 0.00289687)
(0.000121149 -4.07767e-05 6.6263e-05)
(2.32034e-05 -9.82441e-06 1.43961e-05)
(1.01996e-09 -3.40692e-09 1.42582e-09)
(2.25788e-10 -6.85874e-10 2.98142e-10)
(4.12822e-11 -1.0386e-10 4.69529e-11)
(5.70242e-12 -1.15553e-11 5.39908e-12)
(5.65692e-13 -9.87939e-13 4.49821e-13)
(3.60334e-14 -5.77908e-14 2.34005e-14)
(0 0 0)
(2.29713e-08 -7.64506e-08 3.28544e-08)
(5.13662e-09 -1.53087e-08 6.79928e-09)
(9.35441e-10 -2.36083e-09 1.09338e-09)
(1.30275e-10 -2.61308e-10 1.26239e-10)
(1.36707e-11 -2.21148e-11 1.09669e-11)
(1.09489e-12 -1.49618e-12 7.45028e-13)
(5.77908e-14 -7.46021e-14 3.40113e-14)
(4.72876e-07 -1.41289e-06 6.741e-07)
(1.11266e-07 -3.04751e-07 1.50628e-07)
(1.99804e-08 -4.69671e-08 2.40271e-08)
(2.77544e-09 -5.13031e-09 2.75154e-09)
(2.86823e-10 -4.22591e-10 2.33569e-10)
(2.32812e-11 -2.85342e-11 1.59543e-11)
(1.41104e-12 -1.62754e-12 9.05895e-13)
(8.3243e-06 -2.20345e-05 1.19607e-05)
(2.53649e-06 -6.30487e-06 3.49033e-06)
(4.12487e-07 -8.54022e-07 4.87121e-07)
(5.58557e-08 -9.18881e-08 5.55324e-08)
(5.59845e-09 -7.29646e-09 4.60401e-09)
(4.39238e-10 -4.74048e-10 3.02241e-10)
(2.60335e-11 -2.67116e-11 1.70276e-11)
(2.85778e-05 -0.000102036 6.54492e-05)
(3.65096e-05 -7.42795e-05 4.83263e-05)
(8.06596e-06 -1.31899e-05 8.24504e-06)
(1.02884e-06 -1.44034e-06 9.72434e-07)
(9.90491e-08 -1.09301e-07 8.00414e-08)
(7.42403e-09 -6.77501e-09 5.07581e-09)
(4.25083e-10 -3.67223e-10 2.73223e-10)
(0.0135586 -0.0334098 0.021901)
(0.00182967 -0.00343117 0.00246723)
(0.000108566 -0.000164774 0.000120282)
(1.58231e-05 -1.78892e-05 1.36407e-05)
(1.50096e-06 -1.33272e-06 1.12814e-06)
(1.0655e-07 -7.82498e-08 7.01058e-08)
(5.87709e-09 -4.08354e-09 3.65931e-09)
(237.885 -454.329 358.033)
(6.97014 -10.4754 8.21616)
(0.0122714 -0.0164413 0.0142556)
(0.000224352 -0.000220633 0.00021696)
(1.70084e-05 -1.23167e-05 1.13853e-05)
(1.18683e-06 -6.96389e-07 7.12151e-07)
(6.33964e-08 -3.47792e-08 3.72542e-08)
(203.841 -254.838 277.626)
(301.49 -334.668 364.799)
(478.047 -436.587 466.536)
(0.0199209 -0.0167216 0.0183389)
(0.000152614 -9.80252e-05 0.000113355)
(9.70479e-06 -4.49918e-06 5.602e-06)
(5.06367e-07 -2.19062e-07 2.85677e-07)
(474.021 -429.533 487.873)
(503.455 -437.44 492.629)
(416.478 -259.787 341.264)
(0.000183481 -7.76433e-05 0.000122808)
(4.37919e-05 -1.9922e-05 2.77141e-05)
(2.43369e-06 -1.03607e-06 1.40664e-06)
(8.48305e-11 -2.71745e-10 1.41369e-10)
(1.83113e-11 -5.37892e-11 2.87109e-11)
(3.2216e-12 -7.76576e-12 4.23228e-12)
(3.95885e-13 -8.32188e-13 4.37789e-13)
(2.91536e-14 -6.21488e-14 2.88954e-14)
(6.66272e-16 0 0)
(0 0 0)
(1.86565e-09 -6.01572e-09 3.21296e-09)
(4.05012e-10 -1.1761e-09 6.42093e-10)
(7.16505e-11 -1.70913e-10 9.6186e-11)
(9.59423e-12 -1.83807e-11 1.06123e-11)
(9.48628e-13 -1.51678e-12 8.79936e-13)
(6.19928e-14 -8.90308e-14 4.95485e-14)
(0 0 0)
(3.8153e-08 -1.135e-07 6.76329e-08)
(8.36276e-09 -2.21029e-08 1.33606e-08)
(1.46686e-09 -3.24609e-09 2.02504e-09)
(1.962e-10 -3.456e-10 2.2165e-10)
(1.99816e-11 -2.86614e-11 1.86567e-11)
(1.59306e-12 -1.94023e-12 1.26448e-12)
(9.09495e-14 -9.74691e-14 6.35699e-14)
(7.1787e-07 -1.86903e-06 1.27251e-06)
(1.62599e-07 -3.86801e-07 2.66412e-07)
(2.812e-08 -5.66257e-08 4.00334e-08)
(3.72361e-09 -5.89496e-09 4.30059e-09)
(3.71806e-10 -4.74828e-10 3.51494e-10)
(2.96913e-11 -3.19582e-11 2.36849e-11)
(1.79625e-12 -1.82648e-12 1.34662e-12)
(1.21258e-05 -2.61832e-05 2.15314e-05)
(3.26805e-06 -6.90798e-06 5.57839e-06)
(5.11435e-07 -9.01856e-07 7.27945e-07)
(6.50383e-08 -8.93848e-08 7.57825e-08)
(6.2449e-09 -6.85276e-09 5.94223e-09)
(4.81967e-10 -4.45613e-10 3.85049e-10)
(2.85714e-11 -2.54178e-11 2.17017e-11)
(2.65129e-05 -7.26158e-05 7.25915e-05)
(3.9302e-05 -6.81253e-05 6.31754e-05)
(8.91529e-06 -1.23914e-05 1.17203e-05)
(1.03097e-06 -1.16682e-06 1.16814e-06)
(9.18948e-08 -8.23705e-08 8.60351e-08)
(6.72767e-09 -5.10642e-09 5.32191e-09)
(3.87963e-10 -2.84176e-10 2.89608e-10)
(0.00839564 -0.0167923 0.0188615)
(0.00157401 -0.00233177 0.00248163)
(9.30215e-05 -0.00011208 0.000127117)
(1.33592e-05 -1.18656e-05 1.43588e-05)
(1.11827e-06 -7.81849e-07 9.93475e-07)
(7.5799e-08 -4.53664e-08 5.80468e-08)
(4.23088e-09 -2.46599e-09 3.06669e-09)
(116.555 -188.839 218.186)
(1.76249 -2.06902 2.75761)
(0.00426342 -0.00455363 0.00583023)
(0.00010919 -8.28134e-05 0.00011659)
(9.78713e-06 -5.3959e-06 8.62409e-06)
(6.34489e-07 -2.98e-07 4.73596e-07)
(3.43416e-08 -1.6036e-08 2.41881e-08)
(382.678 -338.041 595.899)
(127.119 -93.5911 151.391)
(0.116887 -0.0742344 0.131955)
(4.74707e-05 -2.4008e-05 4.1182e-05)
(3.21991e-06 -1.42207e-06 2.36151e-06)
(1.9098e-07 -7.96508e-08 1.3231e-07)
(5.60798e-12 -1.73848e-11 1.11238e-11)
(1.15747e-12 -3.4053e-12 2.16554e-12)
(1.72783e-13 -4.68769e-13 2.85354e-13)
(1.30555e-14 -3.97904e-14 2.19795e-14)
(4.35091e-16 0 0)
(8.50195e-18 0 0)
(0 0 0)
(1.20239e-10 -3.70316e-10 2.44842e-10)
(2.57203e-11 -7.24956e-11 4.83469e-11)
(4.45522e-12 -1.02548e-11 6.92268e-12)
(5.48893e-13 -1.05811e-12 7.1689e-13)
(4.19703e-14 -7.66453e-14 5.14433e-14)
(8.7941e-16 0 2.84217e-16)
(0 0 0)
(2.34805e-09 -6.72886e-09 5.00352e-09)
(5.07361e-10 -1.30851e-09 9.74168e-10)
(8.84696e-11 -1.87232e-10 1.40805e-10)
(1.16709e-11 -1.99106e-11 1.50943e-11)
(1.153e-12 -1.63808e-12 1.24127e-12)
(7.94648e-14 -9.61484e-14 7.53175e-14)
(0 0 5.68434e-16)
(4.20324e-08 -1.0777e-07 9.28009e-08)
(9.1917e-09 -2.10914e-08 1.80369e-08)
(1.59872e-09 -3.06207e-09 2.63456e-09)
(2.10923e-10 -3.23735e-10 2.79516e-10)
(2.12969e-11 -2.68502e-11 2.31576e-11)
(1.69521e-12 -1.82799e-12 1.56765e-12)
(9.45496e-14 -9.23923e-14 7.8065e-14)
(6.55519e-07 -1.41328e-06 1.46678e-06)
(1.49506e-07 -2.96648e-07 3.05272e-07)
(2.60127e-08 -4.38756e-08 4.47907e-08)
(3.41762e-09 -4.57852e-09 4.65642e-09)
(3.40213e-10 -3.72359e-10 3.75179e-10)
(2.72423e-11 -2.54341e-11 2.52869e-11)
(1.66002e-12 -1.46939e-12 1.44685e-12)
(7.52856e-06 -1.40479e-05 1.66838e-05)
(2.20469e-06 -3.49956e-06 4.83254e-06)
(3.73578e-07 -5.26203e-07 6.77013e-07)
(4.82219e-08 -5.39758e-08 6.76852e-08)
(4.68166e-09 -4.26348e-09 5.22451e-09)
(3.67012e-10 -2.86399e-10 3.41806e-10)
(2.21113e-11 -1.68103e-11 1.95707e-11)
(1.41547e-05 -3.51883e-05 4.90917e-05)
(2.04747e-05 -2.6973e-05 3.97463e-05)
(4.15184e-06 -4.52951e-06 7.82603e-06)
(5.54612e-07 -4.91352e-07 8.08475e-07)
(5.22935e-08 -3.78063e-08 5.87605e-08)
(4.00084e-09 -2.51149e-09 3.71936e-09)
(2.39181e-10 -1.4744e-10 2.0968e-10)
(0.000924929 -0.00188499 0.00308608)
(0.000364877 -0.000457557 0.000733285)
(2.96857e-05 -2.62099e-05 4.92757e-05)
(4.20121e-06 -3.18481e-06 6.50557e-06)
(4.22096e-07 -2.46664e-07 4.87195e-07)
(3.24208e-08 -1.64447e-08 3.01804e-08)
(1.95414e-09 -9.73509e-10 1.69736e-09)
(0.00114714 -0.00103211 0.00282275)
(0.00224488 -0.0016703 0.00401776)
(1.89325e-05 -1.2036e-05 2.54167e-05)
(2.11455e-06 -1.14923e-06 2.4155e-06)
(1.81356e-07 -8.13201e-08 1.68297e-07)
(1.14251e-08 -4.88968e-09 9.89567e-09)
(2.64322e-13 -9.41105e-13 6.80988e-13)
(4.43321e-14 -1.69204e-13 1.1615e-13)
(2.76316e-15 -1.55372e-14 9.75812e-15)
(1.46619e-16 0 0)
(4.15525e-18 0 0)
(6.25859e-20 0 0)
(0 0 0)
(6.57678e-12 -1.94782e-11 1.52415e-11)
(1.35416e-12 -3.76138e-12 2.94307e-12)
(2.00791e-13 -4.96177e-13 3.87198e-13)
(1.6778e-14 -4.11768e-14 3.25902e-14)
(4.62384e-16 0 0)
(7.25251e-18 0 0)
(0 0 0)
(1.23509e-10 -3.37194e-10 2.97725e-10)
(2.64337e-11 -6.64468e-11 5.82595e-11)
(4.58477e-12 -9.42792e-12 8.24258e-12)
(5.65029e-13 -9.7073e-13 8.4943e-13)
(4.55086e-14 -6.85719e-14 6.16751e-14)
(7.58903e-16 0 2.84217e-16)
(0 0 0)
(2.09077e-09 -5.15663e-09 5.29412e-09)
(4.54313e-10 -1.02325e-09 1.03261e-09)
(7.97448e-11 -1.47912e-10 1.47915e-10)
(1.05502e-11 -1.58597e-11 1.57317e-11)
(1.03571e-12 -1.30134e-12 1.29177e-12)
(6.87023e-14 -7.41957e-14 7.74018e-14)
(0 0 3.78956e-16)
(3.08078e-08 -6.56631e-08 8.14662e-08)
(6.8694e-09 -1.33506e-08 1.61203e-08)
(1.21954e-09 -1.98518e-09 2.35562e-09)
(1.62941e-10 -2.14853e-10 2.50029e-10)
(1.66114e-11 -1.81707e-11 2.07732e-11)
(1.31886e-12 -1.24109e-12 1.41474e-12)
(7.29491e-14 -5.91977e-14 7.1149e-14)
(3.59495e-07 -6.45057e-07 9.72299e-07)
(8.63065e-08 -1.37423e-07 2.10759e-07)
(1.57695e-08 -2.15913e-08 3.21169e-08)
(2.14107e-09 -2.38406e-09 3.40278e-09)
(2.19299e-10 -2.02413e-10 2.79263e-10)
(1.7956e-11 -1.42931e-11 1.916e-11)
(1.10996e-12 -8.29493e-13 1.10352e-12)
(2.98148e-06 -4.48123e-06 8.10658e-06)
(8.01275e-07 -1.01843e-06 1.90849e-06)
(1.58296e-07 -1.71913e-07 3.42486e-07)
(2.23719e-08 -2.01678e-08 3.72471e-08)
(2.32995e-09 -1.74745e-09 3.02695e-09)
(1.91881e-10 -1.24836e-10 2.06549e-10)