/*--------------------------------*- C++ -*----------------------------------*\
  =========                 |
  \\      /  F ield         | OpenFOAM: The Open Source CFD Toolbox
   \\    /   O peration     | Website:  https://openfoam.org
    \\  /    A nd           | Version:  9
     \\/     M anipulation  |
\*---------------------------------------------------------------------------*/
FoamFile
{
    format      ascii;
    class       volScalarField;
    location    "0.0013";
    object      p;
}
// * * * * * * * * * * * * * * * * * * * * * * * * * * * * * * * * * * * * * //

dimensions      [1 -1 -2 0 0 0 0];

internalField   nonuniform List<scalar> 
10601
(
104080
101654
104980
106659
108179
101498
101625
101738
101444
101298
101298
101298
128127
103100
105589
101865
102387
101417
101449
101317
101332
101298
101298
101298
101299
101299
166018
121334
254752
110492
197729
110788
196339
137317
104788
103671
123374
105445
145318
123203
111972
102860
114434
101928
116498
102293
109152
107976
101608
101544
103082
101848
105484
104587
101669
101382
101858
101305
102617
101318
101420
101359
101299
101299
101300
101301
101314
101304
101298
101298
101298
101308
101315
101299
101298
101322
101305
101298
594315
263157
558849
105878
130810
101309
102098
101298
101298
101298
575661
343071
654078
388224
102538
101636
126379
101382
209947
101840
218620
101806
101305
101301
101322
101298
101517
101300
104779
101307
101298
101298
101298
101298
167928
101403
101300
101298
101319
101298
101298
101298
101298
101298
103975
182200
113393
237612
159774
109988
105239
101303
102131
101466
101832
101334
101394
101319
101298
101300
101299
101303
101298
101299
101298
101298
101298
101298
101298
101298
101298
101298
101298
101298
101298
101298
101298
101298
101298
101298
101298
627347
999271
455117
555230
988599
417770
649261
569444
507943
862786
201295
956848
331774
436989
102346
183239
106842
102300
125959
105223
101538
126473
617125
119235
115227
245593
314146
103165
105045
103206
112179
101383
146700
101577
102373
101299
101379
101303
101299
101314
101301
101298
101509
105777
101336
101392
101777
103252
101314
101374
101331
101500
101299
102008
101304
101319
101298
101300
101298
101298
101298
101298
101298
102025
202543
104903
112220
106884
116964
101828
101331
101475
101561
101323
101369
102555
101419
101303
102864
101356
101304
101301
101298
101301
101298
101299
101341
101298
101298
101303
101305
101298
101298
101298
101298
101298
101299
101298
101298
101298
101298
101298
101298
101298
101298
101298
101298
101298
101298
101298
101298
101298
101298
101298
101298
101298
101298
101298
101298
101298
101298
101298
101298
101298
101298
101298
101298
101298
101298
101298
187094
286592
382450
402345
357314
258632
399693
103546
195445
101731
101325
101299
101361
101437
101298
101298
137969
94181.1
225282
211839
112084
243812
125968
156656
238581
164810
315821
135134
269629
185045
244315
220895
374636
458526
225137
275548
376518
225685
451391
265877
245757
283051
314641
197007
164501
248435
203261
327934
177359
240749
174280
151739
300830
242360
124946
241559
148252
135103
107546
228935
109752
133172
118813
188544
103352
102596
106300
104242
101325
129237
101593
101428
566895
551011
472404
250811
631012
507281
295799
372397
127402
147125
103838
342942
134132
150588
101311
101654
101301
101300
101344
101338
101299
104042
101454
101306
104332
101440
101453
101306
101298
101298
101298
101298
101298
101298
101298
101299
101298
101298
101298
101298
101298
101298
101298
101298
101298
101298
101298
101318
101298
101299
101298
101298
101298
101298
101298
101298
101298
101298
101298
101298
101298
101298
101298
101298
101298
101298
101298
101298
101298
101298
101298
101298
101298
101298
101298
101298
101298
101298
101298
101298
101298
101298
101298
101298
101298
101298
101298
101298
101298
101298
101298
101298
101298
101298
101298
101298
101298
101298
101298
101298
101298
101298
101298
101298
101298
101298
101408
101819
101305
101312
101662
101302
101462
101340
101304
101335
101298
101451
101300
101308
101298
101298
101298
101298
101298
101298
101298
101298
101298
101298
101298
101298
101298
101298
101298
101304
101298
101298
101299
101299
101298
101298
101298
101298
101298
101298
101298
101298
101298
101298
101298
101298
101298
101298
101298
101298
101298
101298
101298
101298
101298
101298
101298
101298
101298
101298
101298
101298
101298
101298
101298
101298
101298
101298
101298
101298
101298
101298
101298
101298
101298
101298
101298
101298
101298
101298
101298
101298
101298
101298
101298
101298
101298
101298
101298
101298
101298
101298
101298
101298
101298
101298
101298
101298
101298
101298
101298
101298
101298
101298
101298
101298
101298
101298
101298
101298
101298
101298
101298
101298
101298
101298
101298
101298
101298
101298
101298
101298
101298
101298
101298
101298
101298
101298
101298
101298
101298
101298
101298
101298
101298
101298
101298
101298
101298
101298
101298
101298
101298
101298
101298
101298
101298
101298
101298
101298
101298
101298
101298
101298
101298
101298
101298
101298
101298
101298
101298
101298
101298
101298
101298
101298
101298
101298
101298
101298
101298
101298
101298
101298
101298
101298
101298
101298
101298
101298
101298
101298
101298
101298
101298
101298
101298
101298
101298
101298
101298
101298
101298
101298
101298
101298
101298
101298
101298
101298
101298
101298
101298
101298
101298
101298
101298
101298
101298
101298
101298
101298
101298
101298
101298
101298
101298
101298
101298
101298
101298
101298
101298
101298
101298
101298
101298
101298
101298
101298
101298
101298
101298
101298
101298
101298
101298
101298
101298
101298
101298
101298
101298
101298
101298
101298
101298
101298
101298
101298
101298
101298
101298
101298
101298
101298
101298
101298
101298
101298
101298
101298
101298
101298
101298
101298
101298
101298
101298
101298
101298
101298
101298
101298
101298
101298
101298
101298
101298
101298
101298
101298
101298
101298
101298
101298
101298
101298
101298
101298
101298
561624
591632
634594
467310
506689
697423
622872
634456
681148
101298
101298
101298
101298
101298
101298
101298
101298
101298
101298
101298
101298
101298
101298
101298
101298
111401
101298
101298
101298
101298
101298
101298
101298
101298
101298
101298
101385
101330
101298
101298
101298
101298
101298
101298
101298
101298
101298
101298
101298
101298
101298
101298
101298
101298
101298
788191
733367
965473
793894
648145
606385
988165
1.08797e+06
1.16699e+06
1.07685e+06
1.1924e+06
1.1352e+06
1.02347e+06
862739
1.93558e+06
1.71907e+06
1.1271e+06
703353
998644
730854
503213
980282
784567
382210
282188
167339
436459
126892
150643
531937
312100
488058
221727
407170
208234
103655
119182
108259
107431
623754
874538
642105
161346
101298
384663
708747
448678
556791
811737
587725
491941
299627
270821
101349
984257
538701
1.10187e+06
657769
572974
1.10761e+06
971237
972911
773508
1.12545e+06
1.01704e+06
1.03087e+06
930613
1.0229e+06
297799
643811
382548
534751
416240
549557
264420
101880
190823
104130
108784
105951
113861
101639
101298
101298
842563
453129
698451
408186
482237
713194
828412
2.48617e+06
2.83915e+06
2.75847e+06
2.54124e+06
2.12295e+06
1.75337e+06
1.72955e+06
2.16163e+06
969835
665427
620275
1.08758e+06
580636
1.08702e+06
977002
831656
417225
525602
716330
491074
708280
835295
2.38845e+06
2.48279e+06
2.62741e+06
2.28576e+06
2.04045e+06
1.5846e+06
1.67838e+06
1.93239e+06
848602
653771
754463
676064
881045
800033
719413
1.28634e+06
2.01252e+06
1.92508e+06
1.27619e+06
1.08237e+06
1.26974e+06
1.62092e+06
752708
800789
981196
789680
570017
925561
814412
587630
710328
683048
706891
407253
814046
578297
531122
614238
219958
562371
254836
518712
163125
322547
234023
289363
592914
290734
423472
390596
518159
216525
119246
137244
152333
113560
119701
124116
149506
110567
198439
435197
341035
117971
462331
172888
127620
201192
358483
345155
118020
447369
157413
131331
106844
102093
104963
102569
107352
102183
104620
102775
101324
101426
101513
101313
101354
102000
101390
101300
102522
101330
101302
101301
101298
101299
101298
101298
101298
101298
101298
101298
101298
101298
539278
504376
618971
615976
502650
478250
498016
727029
693887
623541
574803
469834
122682
356617
571915
262449
461374
358414
441153
569094
524662
472102
287810
165253
205443
241213
344693
328588
262638
399014
538418
408844
470592
484131
538529
492836
475095
335613
202429
338930
296931
240313
382976
286955
375557
322682
322461
444649
279760
406694
418877
586711
392292
545366
551967
498672
474153
679315
602760
595383
503276
688464
501505
725604
593839
553084
484576
625608
502078
564867
480611
591964
572716
494155
530715
554671
500148
580515
611165
101298
101298
101298
101298
101298
101298
101298
101298
101298
101298
101298
101298
101298
101298
101298
101298
101298
101298
794063
1.11082e+06
101440
101298
101298
101298
101298
101298
101298
308425
1.40164e+06
101299
101298
101298
101298
101298
101298
101298
101303
286328
101298
101298
101298
101298
101298
101298
101298
101298
102291
101298
101298
101298
101298
101298
101298
101298
101298
101298
101298
101298
101298
101298
101298
101298
101298
101298
101298
101298
101298
101298
922653
593266
960294
601029
1.06069e+06
206332
713730
1.2664e+06
129423
727547
1.2561e+06
799732
101298
101330
101298
101298
101298
101298
101298
101298
101298
101298
101298
101298
101298
101298
101298
101298
101298
1.0262e+06
988474
1.41424e+06
101931
103506
408963
101302
504954
101298
101298
101298
101298
101298
101298
101298
101298
101298
101298
101298
101298
101298
101298
101298
101298
101298
730856
624755
656205
186344
101299
101298
102948
101298
107496
233213
101298
101298
101298
101298
101298
101298
101298
101298
101298
101298
101298
101298
101298
101298
101298
101298
101298
243704
602762
102556
110859
101549
101298
101298
101298
101298
129726
101299
101321
101298
101298
101298
101298
101298
101298
101298
101298
101298
101298
101298
101298
101298
101298
101298
101298
101298
101298
101298
101298
101298
101298
101298
101298
101298
101298
101298
101298
101298
101298
101298
101298
101298
101298
101298
101298
101298
101298
101298
101298
101298
103580
102144
101308
101298
101298
101298
101300
101298
101298
101323
101298
101298
101298
101298
101298
101298
101298
101298
101298
101298
101298
101298
101298
101298
101298
101298
101298
101298
101298
101298
101298
101298
101298
101298
101298
101298
1.37861e+06
1.017e+06
1.43888e+06
1.12902e+06
1.03237e+06
1.41297e+06
1.40948e+06
101390
105534
104054
101747
122526
115694
101968
101298
101298
101298
101298
101298
101298
101298
929539
1.23456e+06
1.20939e+06
1.28112e+06
1.18333e+06
1.17706e+06
897664
101321
101298
101300
101298
101462
101303
101313
101298
101298
101298
101298
101298
101298
101298
117138
420635
114487
187825
149225
295503
105819
101298
101298
101298
101298
101298
101298
101298
101298
101298
101298
101298
101298
101298
101298
101316
104874
101341
101414
101455
101715
101303
101298
101298
101298
101298
101298
101298
101298
101298
101298
101298
101298
101298
101298
101298
101298
101298
101298
101298
101298
101298
101298
101298
101298
101298
101298
101298
101298
101298
101298
101298
101298
101298
101298
101298
101298
101298
101298
101298
101298
101298
101298
101298
101298
101298
101298
101298
101298
101298
101298
1.12788e+06
870751
1.35418e+06
1.08719e+06
897266
1.33847e+06
1.13395e+06
174571
571670
508191
996798
436038
377288
1.06924e+06
1.93107e+06
2.66176e+06
2.48392e+06
2.06814e+06
1.12386e+06
1.13551e+06
1.0688e+06
1.29897e+06
948615
1.31738e+06
1.1171e+06
372541
106684
204153
837076
146674
261164
579387
1.65953e+06
1.58182e+06
2.15128e+06
1.20326e+06
1.30893e+06
860408
1.21482e+06
757621
883813
1.2106e+06
1.32688e+06
2.9524e+06
3.00971e+06
2.82211e+06
3.13041e+06
2.97235e+06
3.00009e+06
2.8945e+06
3.11068e+06
1.32051e+06
1.15178e+06
1.09266e+06
1.35287e+06
1.03219e+06
1.37182e+06
1.29091e+06
1.25655e+06
760941
924198
1.1602e+06
882919
1.17302e+06
1.23096e+06
2.6581e+06
1.92101e+06
2.49596e+06
2.17733e+06
2.74858e+06
2.50429e+06
2.71876e+06
2.4296e+06
101298
101303
101301
101311
101299
101298
101318
102265
101304
101484
101469
102547
107144
101333
101299
101298
101298
101303
101298
101298
101299
101298
101298
101298
101298
101298
101298
101298
101298
101298
101298
101298
101298
101298
101298
101298
101298
101298
101298
101298
101298
101298
101298
101298
101298
101298
101298
101298
101298
101298
101298
101298
101298
101298
101298
101298
715042
1.22661e+06
1.15996e+06
1.28303e+06
1.01518e+06
1.168e+06
834602
115539
101354
102524
119831
107068
271191
101816
203370
853387
636182
269709
266993
906163
359095
123657
828948
328258
115982
101388
101305
101298
102646
101301
101337
101400
108309
102184
112744
101818
576071
1.07904e+06
1.37548e+06
362514
564535
922989
628551
154821
933043
412774
248144
169618
103692
123490
109460
101298
101298
101298
101298
101298
101298
101298
101298
101298
101298
101298
101298
101299
101298
101298
101298
101298
101298
101298
101298
101298
101298
101298
101298
101298
101298
101298
101298
101298
101298
101298
101298
101298
101298
101298
101298
101298
101298
101298
101298
101298
101298
101298
101298
101298
101298
101298
101298
101298
101298
101298
101298
101298
101298
101298
101298
101790
150818
105347
128592
103265
113652
102523
101298
101298
101298
101301
101298
101311
101298
101317
101476
101372
101353
101423
108965
101929
101368
104656
101633
101321
101298
101298
101298
101299
101298
101298
101298
101303
101301
101313
101299
102041
101924
103560
101507
105909
129701
123345
101575
191267
102565
102286
115170
374729
166971
109227
282786
137940
104398
101507
101310
101355
101342
101947
101670
103023
101438
101298
101298
101298
101298
101298
101298
101298
101298
101298
101298
101298
101298
101298
101298
101298
101298
101298
101298
101298
101298
101298
101298
101298
101298
101298
101298
101298
101298
101298
101298
101298
101298
101298
101298
101298
101298
101298
101298
101298
101298
101298
101298
101298
101298
101298
101298
101298
101298
101298
101298
101298
101298
101298
101298
101298
101298
101298
101382
101309
101327
101301
101306
101299
101298
101298
101298
101298
101298
101298
101298
101298
101298
101298
101298
101298
101301
101298
101298
101299
101298
101298
101298
101298
101298
101298
101298
101298
101298
101298
101298
101298
101298
101354
111933
102576
104720
101780
102572
101449
101299
101300
101305
101298
101300
101355
101319
101305
101300
101308
101301
101298
101336
101298
101298
101303
101609
101307
101299
101414
101312
101298
101298
101298
101298
101298
101298
101298
101299
101298
101298
101298
101298
101298
101298
101298
101298
101298
101298
101298
101298
101298
101298
101298
101298
101298
101298
101298
101298
101298
101298
101298
101298
101298
101298
101298
101298
101298
101298
101298
101298
101298
101298
101298
101298
101298
101298
101298
101298
101298
101298
101298
101298
101298
101298
101298
101298
101298
101298
101298
101298
101298
101298
101298
101298
101298
101298
101298
101298
101298
101298
101298
101298
101298
101298
101298
101298
101298
101298
101298
101298
101298
101298
101298
101298
101298
101298
101298
101298
101298
101298
101298
101298
101298
101298
101298
101298
101298
101298
101298
101298
101298
101298
101298
101298
101298
101298
101298
101298
101298
101298
101298
101298
101298
101298
101298
101298
101298
101298
101298
101298
101298
101298
101298
101298
101298
101298
101298
101298
101298
101298
101298
101298
101298
101298
101298
101298
101298
101298
101298
101298
101298
101298
101298
101298
101298
101298
101298
101298
101298
101298
101298
101298
101298
101298
101298
101298
101298
101298
101298
101298
101298
101298
101298
101298
101298
101298
101298
101298
101298
101298
101298
101298
101298
101298
101298
101298
101298
101298
101298
101298
101298
101298
101298
101298
101298
101298
101298
101298
101298
101298
101298
101298
101298
101298
101298
101298
101298
101298
101298
101298
101298
101298
101298
101298
101298
101298
101298
101298
101298
101298
101298
101298
101298
101298
101298
101298
101298
101298
101298
101298
101298
101298
101298
101298
101298
101298
101298
101298
101298
101298
101298
101298
101298
101298
101298
101298
101298
101298
101298
101298
101298
101298
101298
101298
101298
101298
101298
101298
101298
101298
101298
101298
101298
101298
101298
101298
101298
101298
101298
101298
101298
101298
101298
101298
101298
101298
101298
101298
101298
101298
101298
101298
101298
101298
101298
101298
101298
101298
101298
101298
101298
101298
101298
101298
101298
101298
101298
101298
101298
101298
101298
101298
101298
101298
101298
101298
101298
101298
101298
101298
101298
101298
101298
101298
101298
101298
101298
101298
101298
101298
101298
101298
101298
101298
101298
101298
101298
101298
101298
101298
101298
101298
101298
101298
101298
101298
101298
101298
101298
101298
101298
101298
101298
101298
101298
101298
101298
101298
101298
101298
101298
101298
101298
101298
101298
101298
101298
101298
101298
101298
101298
101298
101298
101298
101298
101298
101298
101298
101298
101298
101298
101298
101298
101298
101298
101298
101298
101298
101298
101298
101298
101298
101298
101298
101298
101298
101298
101298
101298
101298
101298
101298
101298
101298
101298
101298
101298
101298
101298
101298
101298
101298
101298
101298
101298
101298
101298
101298
101298
101298
101298
101298
101298
101298
101298
101298
101298
101298
101298
101298
101298
101298
101298
101298
101298
101298
101298
101298
101298
101298
101298
101298
101298
101298
101298
101298
101298
101298
101298
101298
101298
101298
101298
101298
101298
101298
101298
101298
101298
101298
101298
101298
101298
101298
101298
101298
101298
101298
101298
101298
101298
101298
101298
101298
101298
101298
101298
101298
101298
101298
101298
101298
101298
101298
101298
101298
101298
101298
101298
101298
101298
101298
101298
101298
101298
101298
101298
101298
101298
101298
101298
101298
101298
101298
101298
101298
101298
101298
101298
101298
101298
101298
101298
101298
101298
101298
101298
101298
101298
101298
101298
101298
101298
101298
101298
101298
101298
101298
101298
101298
101298
101298
101298
101298
101298
101298
101298
101298
101298
101298
101298
101298
101298
101298
101298
101298
101298
101298
101298
101298
101298
101298
101298
101298
101298
101298
101298
101298
101298
101298
101298
101298
101298
101298
101298
101298
101298
101298
101298
101298
101298
101298
944496
976270
515788
665001
108979
101298
940700
441828
983497
988866
506832
1.15053e+06
840204
1.29024e+06
399005
1.40714e+06
1.37301e+06
292945
924704
647477
872432
125606
560703
836286
104249
138290
576280
507181
605147
101351
106995
101298
101302
595110
516718
101298
424431
418469
201354
151075
239497
118404
101864
101304
102401
101400
101298
101298
101300
101298
101298
101298
921053
897031
925975
977317
947606
974128
953410
460802
243451
256656
315691
473274
497425
299879
947003
922677
924653
1.00158e+06
1.01963e+06
987018
1.0698e+06
285500
335809
578362
348522
653451
550011
411570
1.10968e+06
1.06775e+06
982531
1.55367e+06
1.13171e+06
1.24535e+06
1.31072e+06
391206
608694
493494
660279
817371
531907
885243
1.3827e+06
1.01893e+06
1.06811e+06
1.74489e+06
1.28141e+06
1.36628e+06
1.72626e+06
178356
277814
140259
649464
446804
736200
516395
1.24036e+06
1.29605e+06
932845
1.22575e+06
1.08003e+06
1.48748e+06
913076
110175
108772
103332
254250
228116
358729
145566
849807
1.12922e+06
1.1996e+06
1.03576e+06
690461
800947
841393
101842
101795
101370
179153
103127
113740
121487
763037
672203
970456
227036
529104
555447
292845
101303
101306
101299
101433
101469
103067
101313
101298
101298
101298
101308
101298
101299
101299
424133
262890
267985
279835
281710
379208
163779
275581
156924
105395
111305
102917
101664
101617
101382
101314
101317
101301
101298
101298
101298
101298
101298
101298
101312
101327
101298
773730
955172
760964
1.01043e+06
982187
789759
748384
813114
1.04729e+06
1.06957e+06
942819
1.00924e+06
836021
902904
1.41301e+06
1.25402e+06
1.16827e+06
1.49384e+06
1.10093e+06
1.48727e+06
1.35947e+06
1.55258e+06
1.29926e+06
1.23885e+06
942757
1.48278e+06
1.28894e+06
1.41395e+06
778193
905773
533818
371221
1.06366e+06
704127
303787
577512
235945
399475
117855
560042
179829
355522
107042
209403
103574
101949
160228
115506
101519
101713
101355
101385
101299
102550
101315
101298
101298
101298
101298
101298
101298
101298
101298
101298
101298
101298
101298
101298
101298
101298
101298
101298
101298
101298
101298
101298
101298
101298
101298
101298
101298
101298
101298
101298
101298
101298
101298
101298
101298
101298
101298
101298
101298
101298
101298
101298
101298
101298
101298
101298
101298
101298
101298
101298
101298
101298
101298
101298
101298
101298
101298
101298
101298
101298
101298
101298
101298
101298
101298
101298
101298
101298
101298
101298
101298
101298
101298
101298
101298
101298
101298
101298
101298
101298
101298
101298
101298
101298
101298
101298
101298
101298
101298
101298
101298
101298
101298
101298
101298
101298
101298
101298
101298
101298
101298
101298
101298
101298
101298
101298
101298
101298
101298
101298
101298
135268
325020
101387
101298
101298
101298
101298
101298
101298
101299
101298
101298
101319
101301
101298
101299
350005
113086
272075
111380
103076
127469
101869
101351
102495
101302
101298
101298
101298
101298
101298
101298
101298
101298
101323
103162
101819
101320
101299
101399
101325
101303
101298
101298
101298
101298
101298
101298
101298
101298
101303
101298
101298
101299
101298
101298
101298
101298
101298
101298
101298
101298
101298
101298
101418
101299
451444
196010
287041
415859
537311
386583
344657
484733
395603
229587
120983
147998
200886
350522
267214
334578
392410
471804
458292
397212
473473
480192
519502
398307
361022
424254
464996
451594
481911
443591
438057
357778
405769
489269
532918
545392
322866
253218
285983
352325
396242
331669
286437
525398
634763
505215
576799
454905
575479
510679
409401
339250
393215
445284
496422
435639
383814
596193
452599
411447
448137
497530
601403
660642
565382
587919
620991
505906
573440
550401
488942
101298
101298
101298
101298
101298
101298
101298
101298
101298
101298
101298
101298
101298
101298
161043
213350
201344
166294
151328
141351
177001
134401
105059
112922
115189
103829
102154
101363
101727
101478
101311
101311
101343
101301
101301
101298
101299
101298
101298
101298
101298
101298
101298
101298
101298
101298
101298
101298
101298
101298
101298
101298
101298
101298
101298
101298
101298
101298
101298
101298
101298
101298
101298
101298
101298
101298
101298
101298
101298
101298
101298
101298
101298
101298
101298
101298
101298
101298
101298
101298
101298
101298
557597
636374
677667
543767
686899
593230
712998
643921
712042
695778
695160
662846
753048
752597
486745
450672
513392
535986
507353
485481
420875
567957
614052
661431
578814
644184
702974
644507
405680
459577
535803
405547
459364
390876
337913
767991
833804
985554
850123
908662
1.00749e+06
1.04293e+06
963829
945756
852581
905730
906839
1.03106e+06
1.03101e+06
466520
539419
556500
476315
505685
585180
571106
558824
547008
604917
484968
530019
481384
432244
510573
568795
647738
680242
739238
758083
804418
871131
826324
979604
938324
908681
1.10929e+06
1.1633e+06
661982
641506
730900
873104
646319
790454
571042
746148
829735
917256
827895
736036
1.11488e+06
992039
722440
667174
647691
896744
823761
827083
773367
662063
747398
641131
697726
759540
819233
803899
968747
1.06944e+06
1.04316e+06
1.0703e+06
1.09079e+06
969759
999635
458190
562245
591701
451804
535843
507339
426054
724878
820882
824941
868898
1.0529e+06
944966
948372
772183
845425
782919
862807
1.0112e+06
951112
853085
549982
660677
718676
649925
624147
818469
720153
645863
608966
592085
662421
721766
690560
643617
956030
1.00683e+06
1.07079e+06
1.10105e+06
1.0962e+06
1.16431e+06
988722
621948
467974
565979
531100
484739
595100
641970
107158
101320
101298
101298
101861
101388
103588
101321
101298
101298
101298
101298
101298
101298
108149
101842
111421
101735
101736
109329
109508
105749
101541
101417
103264
101568
106101
103463
101485
101334
101827
101302
102031
101306
101407
101336
101299
101298
101300
101300
101315
101305
101298
101298
101298
101298
101300
101298
101298
101298
101298
101298
101298
101298
101298
101298
101298
101298
101298
101298
101298
101298
101298
101298
101298
101298
101298
101298
101298
101298
101298
101298
101298
101298
101298
101298
101298
101298
101298
101298
101298
101315
101298
101298
101298
101298
101298
101302
101298
101298
101298
101298
101298
101298
101298
101298
101298
101298
101298
101298
101298
101298
101298
101298
101298
101298
101298
101298
101298
101298
101298
101298
101298
101298
101298
101298
101298
101298
101298
101298
101298
101298
101298
101298
101298
101298
101298
101298
101298
101298
101298
101298
101298
101298
101298
101298
101298
101298
101298
101298
101298
101298
101298
101298
101298
101298
101298
101298
101298
101298
101298
101298
101298
101298
101298
101298
101298
101298
101298
101298
101298
101298
101298
101298
101298
101298
101298
101298
101298
101298
101298
101298
101298
101298
101298
101298
101298
101298
101298
101298
101298
101298
101298
101298
101298
101298
101298
101298
101298
101298
101298
101298
101298
101298
101298
101298
101298
101298
101298
101298
101298
101298
101298
101298
101298
101298
101298
101298
101298
101298
101298
101298
101298
101298
101298
101298
101298
101298
101298
101298
101298
101298
101298
101298
101298
101298
101298
101298
101298
101298
101298
101298
101298
101298
101298
101298
101298
101298
101298
101298
101298
101298
101298
101298
101298
101298
101298
101298
101298
101298
101298
101298
101298
101298
101298
101298
101298
101298
101298
101298
101298
101298
101298
101298
101298
101298
101298
101298
101298
101298
101298
101298
101298
101298
101298
101298
101298
101298
101298
101298
573899
324971
351390
509957
525555
344821
366394
676764
701937
663302
656957
619938
711693
730821
525458
664455
646963
629211
650221
677704
647212
528787
681661
647137
668175
687063
694590
656609
1.05095e+06
1.20777e+06
1.1495e+06
1.23852e+06
1.3567e+06
1.37536e+06
1.43241e+06
861814
850344
1.08329e+06
1.2865e+06
1.0416e+06
1.22465e+06
872889
615159
377860
440275
547056
401610
546768
468297
642818
658358
633751
607907
558505
620852
618361
668181
554509
661198
781095
662844
602242
468562
694869
681372
657858
688421
623058
602565
669766
651375
650209
511400
596242
541582
624676
432551
669390
561443
611767
454078
495671
415332
276081
648154
627092
680395
522870
418038
631669
573794
359378
535262
406877
277060
186167
148239
115240
101298
101298
101298
101298
101298
101298
101298
101298
101298
101298
101298
101298
101298
101298
101298
101298
101298
101298
101298
101298
101298
101298
101298
101298
101298
101298
101298
101298
101298
101298
101298
101298
101298
101298
176548
152241
176938
150750
185092
144391
258569
173781
143346
266545
178991
195013
167231
133195
282068
140214
277256
204611
108566
101553
101308
101298
115016
101305
106070
101299
101302
102987
101298
104401
101299
101357
101298
103214
101298
101434
101298
101298
101325
101298
101336
101298
101298
101298
101380
101298
101305
101298
101298
101298
101298
101299
101298
101298
101298
101300
101298
101298
101298
102176
110633
102526
113461
109777
102341
102310
101378
101306
101397
101304
101304
101380
101393
101927
110104
105300
101649
108019
102004
101645
101351
101301
101300
101321
101302
101349
101325
101354
103168
101424
101929
101446
102059
101339
101302
101299
101306
101298
101308
101298
101301
101324
101550
101504
101307
101646
101315
101314
101300
101298
101298
101299
101298
101299
101299
101304
101430
101304
101343
101308
101377
101301
101298
101298
101298
101298
101299
101298
101298
101301
101319
101314
101298
101338
101299
101299
101298
101298
101298
101298
101298
101298
101298
101298
101303
101298
101298
101298
101299
101298
101298
101298
101298
101298
101298
101298
101298
101298
101298
101298
101298
101298
101298
101298
101298
101298
101298
101298
101298
101298
101300
101308
101298
101298
101303
101302
101298
101298
101298
101298
101298
101298
101298
101298
101298
101298
101298
101298
101298
101298
101298
101298
101298
101298
101298
101298
101298
101298
101299
101299
101298
101298
101300
101298
101298
101298
101298
101298
101298
101298
101298
101298
101298
101298
101298
101298
101298
101298
101298
101298
101298
101298
101298
189625
200020
206976
400839
389089
343451
350872
458204
564963
581644
485574
348869
212619
325272
160875
314811
254279
148459
127309
107459
104103
649043
639632
522054
560351
275521
228606
430838
772855
671445
685886
707699
734743
942796
941113
451514
352954
171391
356604
537346
260039
129069
681043
239334
505219
430943
631967
169009
412415
148652
329221
353973
353983
120514
285016
180843
101298
101298
101326
101298
101704
101298
101299
719345
564233
728158
797779
901663
953265
923626
132474
105927
104442
123904
311268
189959
165960
112848
199947
148717
113271
105451
102376
101618
563470
214031
469485
125792
300549
108489
193472
117755
259436
105782
180364
102116
167767
116376
129060
102532
104878
181834
132194
267232
362282
156496
445111
326929
103925
123394
174685
110376
183859
125222
135332
431535
387186
516157
494447
102380
103231
289944
139153
346429
127052
116123
106964
112941
115688
101638
102318
102122
101747
111852
242550
104249
157660
101588
107248
128529
601949
132147
338250
963487
795835
384015
739557
102564
101373
101484
120184
109014
104257
102329
111660
118651
103950
292537
446133
173011
340487
101298
101298
101299
101298
101298
101298
101298
101298
101302
101301
101298
101298
101298
101298
101779
215965
105074
101482
152972
107971
103846
229710
101799
111292
104635
166586
101504
105429
104581
102331
108552
101470
101500
101793
101351
101602
101315
101335
105387
103388
101793
101526
101298
101298
101298
101298
101298
101298
101298
101298
101298
101298
101298
101298
101298
101298
103080
101309
102247
103566
105060
101343
101513
101418
101387
101298
101298
101715
101300
101442
102461
101792
101316
101319
101354
101304
101298
101298
101298
101300
101298
101302
101298
101298
101298
101298
101302
101298
101298
101298
101298
115147
102296
101474
101370
101310