/*--------------------------------*- C++ -*----------------------------------*\
  =========                 |
  \\      /  F ield         | OpenFOAM: The Open Source CFD Toolbox
   \\    /   O peration     | Website:  https://openfoam.org
    \\  /    A nd           | Version:  9
     \\/     M anipulation  |
\*---------------------------------------------------------------------------*/
FoamFile
{
    format      ascii;
    class       volScalarField;
    location    "0.0013";
    object      T;
}
// * * * * * * * * * * * * * * * * * * * * * * * * * * * * * * * * * * * * * //

dimensions      [0 0 0 1 0 0 0];

internalField   nonuniform List<scalar> 
10601
(
291.291
288.293
292.424
294.992
296.984
288.123
288.263
288.382
288.069
287.926
287.926
287.926
318.019
289.803
292.752
288.463
289.03
288.038
288.062
287.942
287.956
287.926
287.926
287.926
287.926
287.926
380.288
311.465
478.039
298.357
434.451
298.317
400.781
339.552
291.731
290.557
314.529
292.578
341.318
318.986
302.064
289.62
303.713
288.55
308.894
288.978
297.303
296.451
288.225
288.172
289.89
288.493
292.79
292.071
288.328
288.006
288.508
287.932
289.466
287.944
288.046
287.986
287.926
287.926
287.927
287.928
287.941
287.932
287.926
287.926
287.926
287.935
287.941
287.927
287.926
287.947
287.932
287.926
1249.88
509.918
702.471
293.786
320.498
287.935
288.737
287.926
287.926
287.926
864.729
549.585
1050.88
607.859
289.274
288.271
324.619
288.006
422.619
288.478
408.124
288.414
287.932
287.928
287.947
287.926
288.128
287.927
291.72
287.933
287.926
287.926
287.926
287.926
363.993
288.024
287.927
287.926
287.945
287.926
287.926
287.926
287.926
287.926
291.212
393.939
305.236
480.904
367.55
300.203
292.887
287.93
288.844
288.095
288.485
287.959
288.018
287.944
287.926
287.928
287.926
287.93
287.926
287.926
287.926
287.926
287.926
287.926
287.926
287.926
287.926
287.926
287.926
287.926
287.926
287.926
287.926
287.926
287.926
287.926
287.926
854.887
1238.93
664.863
832.095
1206.39
628.872
885.987
767.958
749.833
944.431
411.871
1109.17
543.094
623.345
289.12
408.7
295.126
289.083
321.997
293.075
288.176
318.519
720.197
311.733
305.537
446.381
491.53
290.005
292.016
289.984
299.878
288.002
339.537
288.194
288.981
287.926
288.001
287.93
287.927
287.94
287.929
287.926
288.118
292.657
287.959
288.01
288.377
289.9
287.94
287.994
287.955
288.115
287.927
288.615
287.931
287.944
287.926
287.927
287.926
287.926
287.926
287.926
287.926
288.662
394.862
291.966
301.058
294.312
306.598
288.457
287.955
288.092
288.177
287.948
287.991
289.256
288.039
287.93
289.591
287.978
287.93
287.928
287.926
287.928
287.926
287.926
287.965
287.926
287.926
287.93
287.931
287.926
287.926
287.926
287.926
287.926
287.926
287.926
287.926
287.926
287.926
287.926
287.926
287.926
287.926
287.926
287.926
287.926
287.926
287.926
287.926
287.926
287.926
287.926
287.926
287.926
287.926
287.926
287.926
287.926
287.926
287.926
287.926
287.926
287.926
287.926
287.926
287.926
287.926
287.926
1142.74
1060.75
995.52
735.251
663.238
485.821
573.189
290.395
408.669
288.381
287.951
287.927
287.983
288.059
287.926
287.926
804.165
972.078
944.847
1158.46
1000.38
950.913
793.164
785.252
1129.34
949.06
846.372
997.928
915.885
733.771
594.208
907.705
759.335
915.104
670.478
862.34
655.394
522.529
823.102
743.816
474.042
803.479
553.834
468.338
403.639
690.239
423.16
605.796
431.442
646.177
385.827
376.443
549.871
557.582
319.301
604.008
351.588
344.938
296.74
501.005
298.642
331.004
314.993
420.499
290.368
289.539
294.229
291.805
287.951
330.612
288.237
288.061
683.279
776.435
607.539
443.768
796.287
667.197
469.541
522.222
319.885
341.567
290.715
511.043
326.901
345.04
287.938
288.293
287.928
287.928
287.968
287.962
287.926
290.988
288.075
287.932
291.31
288.062
288.074
287.933
287.926
287.926
287.926
287.926
287.926
287.926
287.926
287.926
287.926
287.926
287.926
287.926
287.926
287.926
287.926
287.926
287.926
287.926
287.926
287.945
287.926
287.927
287.926
287.926
287.926
287.926
287.926
287.926
287.926
287.926
287.926
287.926
287.926
287.926
287.926
287.926
287.926
287.926
287.926
287.926
287.926
287.926
287.926
287.926
287.926
287.926
287.926
287.926
287.926
287.926
287.926
287.926
287.926
287.926
287.926
287.926
287.926
287.926
287.926
287.926
287.926
287.926
287.926
287.926
287.926
287.926
287.926
287.926
287.926
287.926
287.926
287.926
287.926
287.926
287.926
287.926
287.926
287.926
288.034
288.495
287.932
287.939
288.316
287.93
288.09
287.966
287.931
287.961
287.926
288.081
287.927
287.935
287.926
287.926
287.926
287.926
287.926
287.926
287.926
287.926
287.926
287.926
287.926
287.926
287.926
287.926
287.926
287.931
287.926
287.926
287.927
287.926
287.926
287.926
287.926
287.926
287.926
287.926
287.926
287.926
287.926
287.926
287.926
287.926
287.926
287.926
287.926
287.926
287.926
287.926
287.926
287.926
287.926
287.926
287.926
287.926
287.926
287.926
287.926
287.926
287.926
287.926
287.926
287.926
287.926
287.926
287.926
287.926
287.926
287.926
287.926
287.926
287.926
287.926
287.926
287.926
287.926
287.926
287.926
287.926
287.926
287.926
287.926
287.926
287.926
287.926
287.926
287.926
287.926
287.926
287.926
287.926
287.926
287.926
287.926
287.926
287.926
287.926
287.926
287.926
287.926
287.926
287.926
287.926
287.926
287.926
287.926
287.926
287.926
287.926
287.926
287.926
287.926
287.926
287.926
287.926
287.926
287.926
287.926
287.926
287.926
287.926
287.926
287.926
287.926
287.926
287.926
287.926
287.926
287.926
287.926
287.926
287.926
287.926
287.926
287.926
287.926
287.926
287.926
287.926
287.926
287.926
287.926
287.926
287.926
287.926
287.926
287.926
287.926
287.926
287.926
287.926
287.926
287.926
287.926
287.926
287.926
287.926
287.926
287.926
287.926
287.926
287.926
287.926
287.926
287.926
287.926
287.926
287.926
287.926
287.926
287.926
287.926
287.926
287.926
287.926
287.926
287.926
287.926
287.926
287.926
287.926
287.926
287.926
287.926
287.926
287.926
287.926
287.926
287.926
287.926
287.926
287.926
287.926
287.926
287.926
287.926
287.926
287.926
287.926
287.926
287.926
287.926
287.926
287.926
287.926
287.926
287.926
287.926
287.926
287.926
287.926
287.926
287.926
287.926
287.926
287.926
287.926
287.926
287.926
287.926
287.926
287.926
287.926
287.926
287.926
287.926
287.926
287.926
287.926
287.926
287.926
287.926
287.926
287.926
287.926
287.926
287.926
287.926
287.926
287.926
287.926
287.926
287.926
287.926
287.926
287.926
287.926
287.926
287.926
287.926
287.926
287.926
287.926
287.926
287.926
287.926
287.926
287.926
287.926
287.926
287.926
287.926
287.926
287.926
287.926
287.926
287.926
287.926
287.926
287.926
287.926
287.926
287.926
287.926
287.926
287.926
287.926
287.926
287.926
287.926
287.926
287.926
287.926
287.926
287.926
287.926
287.926
287.926
973.527
950.713
969.296
981.444
1004.01
859.878
924.448
934.251
851.598
287.926
287.926
287.926
287.926
287.926
287.926
287.926
287.926
287.926
287.926
287.926
287.926
287.926
287.926
287.926
287.926
299.812
287.926
287.926
287.926
287.926
287.926
287.926
287.926
287.926
287.926
287.926
288.014
287.957
287.926
287.926
287.926
287.926
287.926
287.926
287.926
287.926
287.926
287.926
287.926
287.926
287.926
287.926
287.926
287.926
287.926
1141.09
1046.76
1219.44
816.628
946.807
701.856
935.54
1230.89
1177.12
1096.93
1154.52
1076.84
977.012
797.691
1227.39
1141.17
895.112
717.699
958.448
750.133
600.517
910.042
779.606
525.486
475.957
365.321
576.87
319.288
344.152
631.722
481.16
615.252
410.905
546.707
399.512
290.422
309.146
295.894
294.854
1345.91
1207.71
744.418
356.58
287.926
1315
1285.24
1182.2
1088.41
851.585
757.602
669.914
474.798
456.902
287.973
1543.83
1338.88
1581.15
1362.67
1355.32
1559.35
1562.83
977.176
1188.46
1180.79
1100.92
1161.2
1089.85
988.916
470.623
757.191
530.536
661.003
551.862
678.313
446.319
288.51
385.337
291.05
296.686
293.233
302.953
288.259
287.926
287.926
1498.05
1327.76
1422.35
1321.34
1341.13
1404.6
1515.95
1784
1856.28
1813.28
1823.56
1700.94
1587.25
1549.95
1739.4
1466.16
1347.92
1265.62
1349.95
1333.56
1483.31
1329.5
1416.2
1275.57
1234.21
1175.71
1310.89
1318.75
1272.29
1675.53
1528.16
1703.26
1501.59
1590.55
1261.71
1441.86
1410.68
927.571
1149.27
1014.84
981.795
1103.64
1051.16
842.734
941.685
1258.57
1243.99
940.727
873.504
1009.03
1157.66
733.12
807.049
977.763
857.691
644.15
974.694
806.968
657.536
767.062
867.615
829.047
551.035
939.722
683.042
630.622
658.365
414.733
639.592
441.109
609.956
355.32
489.537
422.158
463.46
736.835
465.555
601.275
536.572
664.571
404.765
308.84
330.309
346.361
302.212
308.971
313.346
342.197
298.208
391.098
578.019
505.168
307.851
600.61
367.394
319.279
392.187
535.01
507.601
307.276
594.111
349.95
323.004
294.191
288.728
291.982
289.241
294.698
288.813
291.462
289.457
287.949
288.045
288.13
287.939
287.976
288.64
288.012
287.928
289.214
287.954
287.929
287.928
287.926
287.927
287.926
287.926
287.926
287.926
287.926
287.926
287.926
287.926
1084.19
1073.69
1082.82
1043.2
997.467
1191.45
1165.02
1147.09
1066.34
977.362
710.552
602.614
313.551
1059.16
1072.67
1189.43
1084.04
1168.39
1116.61
930.044
859.775
666.437
1159.35
1067.49
1113.51
1120.28
1181.19
1157.73
1142.94
1180.15
1155.47
1154.43
1169.2
1146.05
1123.38
1116.13
1018.5
1187.53
1113.12
1200.95
1218.88
1151.21
1235.3
1150.04
1195.83
1212.59
1152.46
1203.77
1164.24
1234.19
1182.92
1143.73
1130.37
1163.3
1064.65
1165.87
1111
1116.87
1105.07
999.881
1042.45
986.09
1076.02
1054.91
1070.79
987.023
1000.81
913.145
797.987
1029.59
959.846
847.396
936.948
736.897
851.658
706.415
912.214
781.767
874.122
287.926
287.926
287.926
287.926
287.926
287.926
287.926
287.926
287.926
287.926
287.926
287.926
287.926
287.926
287.926
287.926
287.926
287.926
1061.15
1610.97
288.078
287.926
287.926
287.926
287.926
287.926
287.926
551.201
1268.51
287.926
287.926
287.926
287.926
287.926
287.926
287.926
287.93
453.619
287.926
287.926
287.926
287.926
287.926
287.926
287.926
287.926
288.938
287.926
287.926
287.926
287.926
287.926
287.926
287.926
287.926
287.926
287.926
287.926
287.926
287.926
287.926
287.926
287.926
287.926
287.926
287.926
287.926
287.926
1324.92
1219.14
1405.74
1184.07
1603.48
434.473
950.427
1434.53
330.904
1371.34
1422.96
1308.63
287.926
287.957
287.926
287.926
287.926
287.926
287.926
287.926
287.926
287.926
287.926
287.926
287.926
287.926
287.926
287.926
287.926
1298.43
1080.14
1301.39
288.692
290.832
549.116
287.93
579.239
287.926
287.926
287.926
287.926
287.926
287.926
287.926
287.926
287.926
287.926
287.926
287.926
287.926
287.926
287.926
287.926
287.926
905.844
769.272
819.664
381.1
287.926
287.926
289.679
287.926
294.971
421.258
287.926
287.926
287.926
287.926
287.926
287.926
287.926
287.926
287.926
287.926
287.926
287.926
287.926
287.926
287.926
287.926
287.926
426.66
721.068
289.237
299.112
288.168
287.926
287.926
287.926
287.926
321.623
287.926
287.946
287.926
287.926
287.926
287.926
287.926
287.926
287.926
287.926
287.926
287.926
287.926
287.926
287.926
287.926
287.926
287.926
287.926
287.926
287.926
287.926
287.926
287.926
287.926
287.926
287.926
287.926
287.926
287.926
287.926
287.926
287.926
287.926
287.926
287.926
287.926
287.926
287.926
287.926
287.926
287.926
287.926
290.872
288.935
287.935
287.926
287.926
287.926
287.928
287.926
287.926
287.951
287.926
287.926
287.926
287.926
287.926
287.926
287.926
287.926
287.926
287.926
287.926
287.926
287.926
287.926
287.926
287.926
287.926
287.926
287.926
287.926
287.926
287.926
287.926
287.926
287.926
287.926
1531.04
1541.75
1520.26
1598.7
1541.98
1487.74
1566.62
288.021
293.82
291.642
288.449
321.91
310.575
288.73
287.926
287.926
287.926
287.926
287.926
287.926
287.926
868.412
1236.46
1082.32
1047.9
1104.04
1041.72
827.084
287.948
287.926
287.928
287.926
288.107
287.93
287.94
287.926
287.926
287.926
287.926
287.926
287.926
287.926
306.29
546.626
303.27
378.337
342.747
464.137
292.918
287.926
287.926
287.926
287.926
287.926
287.926
287.926
287.926
287.926
287.926
287.926
287.926
287.926
287.926
287.942
291.875
287.964
288.033
288.072
288.334
287.93
287.926
287.926
287.926
287.926
287.926
287.926
287.926
287.926
287.926
287.926
287.926
287.926
287.926
287.926
287.926
287.926
287.926
287.926
287.926
287.926
287.926
287.926
287.926
287.926
287.926
287.926
287.926
287.926
287.926
287.926
287.926
287.926
287.926
287.926
287.926
287.926
287.926
287.926
287.926
287.926
287.926
287.926
287.926
287.926
287.926
287.926
287.926
287.926
287.926
1363.87
1527.49
1467.23
1590.06
1517.03
1443.32
1382.24
395.55
773.657
726.944
1047.47
676.501
626.954
1085.34
1306.83
1481.18
1430.95
1347.96
1308.55
1531.48
1388.63
1263.66
1468.57
1374.91
1213.65
608.837
295.582
432.888
945.532
357.994
506.156
765.681
1207.01
1121.34
1315.31
1035.14
1561.51
1438.36
1587.51
1388.5
1451.73
1564.06
1590.57
1662.9
1600.27
1544.48
1718.98
1757.7
1847.29
1802.76
1808.09
1436.39
1535.14
1385.49
1276.83
1495.43
1402.4
1297.44
1473.48
1376.31
1345.35
1349.45
1431.09
1483.86
1334.33
1533.9
1203.26
1417.2
1318.64
1638.25
1508.7
1689.39
1444.17
287.926
287.93
287.928
287.938
287.926
287.926
287.945
289.12
287.931
288.131
288.112
289.534
296.493
287.961
287.926
287.926
287.926
287.93
287.926
287.926
287.926
287.926
287.926
287.926
287.926
287.926
287.926
287.926
287.926
287.926
287.926
287.926
287.926
287.926
287.926
287.926
287.926
287.926
287.926
287.926
287.926
287.926
287.926
287.926
287.926
287.926
287.926
287.926
287.926
287.926
287.926
287.926
287.926
287.926
287.926
287.926
820.823
1280.36
1084.25
1082.83
1059.85
1098.47
829.626
309.135
287.983
289.48
316.354
296.425
509.962
288.548
434.297
845.22
774.99
494.664
497.869
815.91
556.175
317.366
843.161
525.13
308.923
288.022
287.932
287.926
289.639
287.928
287.965
288.032
297.91
288.886
303.821
288.507
667.666
902.509
1008.92
552.319
630.239
798.678
662.948
350.995
839.55
552.313
434.001
373.597
290.57
317.541
297.589
287.926
287.926
287.926
287.926
287.926
287.926
287.926
287.926
287.926
287.926
287.926
287.926
287.927
287.926
287.926
287.926
287.926
287.926
287.926
287.926
287.926
287.926
287.926
287.926
287.926
287.926
287.926
287.926
287.926
287.926
287.926
287.926
287.926
287.926
287.926
287.926
287.926
287.926
287.926
287.926
287.926
287.926
287.926
287.926
287.926
287.926
287.926
287.926
287.926
287.926
287.926
287.926
287.926
287.926
287.926
287.926
288.432
354.589
292.519
320.256
290.217
303.805
289.19
287.926
287.926
287.926
287.928
287.926
287.937
287.926
287.943
288.094
287.996
287.975
288.046
296.769
288.587
287.99
291.908
288.25
287.947
287.926
287.926
287.926
287.926
287.926
287.926
287.926
287.93
287.928
287.938
287.926
288.66
288.545
290.34
288.121
293.053
320.662
313.733
288.191
382.219
289.223
288.935
304.096
528.259
360.798
297.18
458.044
330.679
291.342
288.122
287.936
287.977
287.965
288.568
288.286
289.737
288.055
287.926
287.926
287.926
287.926
287.926
287.926
287.926
287.926
287.926
287.926
287.926
287.926
287.926
287.926
287.926
287.926
287.926
287.926
287.926
287.926
287.926
287.926
287.926
287.926
287.926
287.926
287.926
287.926
287.926
287.926
287.926
287.926
287.926
287.926
287.926
287.926
287.926
287.926
287.926
287.926
287.926
287.926
287.926
287.926
287.926
287.926
287.926
287.926
287.926
287.926
287.926
287.926
287.926
287.926
287.926
287.926
287.926
288.005
287.935
287.951
287.928
287.933
287.927
287.926
287.926
287.926
287.926
287.926
287.926
287.926
287.926
287.926
287.926
287.926
287.926
287.928
287.926
287.926
287.926
287.926
287.926
287.926
287.926
287.926
287.926
287.926
287.926
287.926
287.926
287.926
287.926
287.926
287.977
300.351
289.258
291.729
288.4
289.25
288.068
287.926
287.927
287.932
287.926
287.928
287.978
287.945
287.931
287.927
287.935
287.928
287.926
287.96
287.926
287.926
287.93
288.228
287.933
287.927
288.034
287.938
287.926
287.926
287.926
287.926
287.926
287.926
287.926
287.926
287.926
287.926
287.926
287.926
287.926
287.926
287.926
287.926
287.926
287.926
287.926
287.926
287.926
287.926
287.926
287.926
287.926
287.926
287.926
287.926
287.926
287.926
287.926
287.926
287.926
287.926
287.926
287.926
287.926
287.926
287.926
287.926
287.926
287.926
287.926
287.926
287.926
287.926
287.926
287.926
287.926
287.926
287.926
287.926
287.926
287.926
287.926
287.926
287.926
287.926
287.926
287.926
287.926
287.926
287.926
287.926
287.926
287.926
287.926
287.926
287.926
287.926
287.926
287.926
287.926
287.926
287.926
287.926
287.926
287.926
287.926
287.926
287.926
287.926
287.926
287.926
287.926
287.926
287.926
287.926
287.926
287.926
287.926
287.926
287.926
287.926
287.926
287.926
287.926
287.926
287.926
287.926
287.926
287.926
287.926
287.926
287.926
287.926
287.926
287.926
287.926
287.926
287.926
287.926
287.926
287.926
287.926
287.926
287.926
287.926
287.926
287.926
287.926
287.926
287.926
287.926
287.926
287.926
287.926
287.926
287.926
287.926
287.926
287.926
287.926
287.926
287.926
287.926
287.926
287.926
287.926
287.926
287.926
287.926
287.926
287.926
287.926
287.926
287.926
287.926
287.926
287.926
287.926
287.926
287.926
287.926
287.926
287.926
287.926
287.926
287.926
287.926
287.926
287.926
287.926
287.926
287.926
287.926
287.926
287.926
287.926
287.926
287.926
287.926
287.926
287.926
287.926
287.926
287.926
287.926
287.926
287.926
287.926
287.926
287.926
287.926
287.926
287.926
287.926
287.926
287.926
287.926
287.926
287.926
287.926
287.926
287.926
287.926
287.926
287.926
287.926
287.926
287.926
287.926
287.926
287.926
287.926
287.926
287.926
287.926
287.926
287.926
287.926
287.926
287.926
287.926
287.926
287.926
287.926
287.926
287.926
287.926
287.926
287.926
287.926
287.926
287.926
287.926
287.926
287.926
287.926
287.926
287.926
287.926
287.926
287.926
287.926
287.926
287.926
287.926
287.926
287.926
287.926
287.926
287.926
287.926
287.926
287.926
287.926
287.926
287.926
287.926
287.926
287.926
287.926
287.926
287.926
287.926
287.926
287.926
287.926
287.926
287.926
287.926
287.926
287.926
287.926
287.926
287.926
287.926
287.926
287.926
287.926
287.926
287.926
287.926
287.926
287.926
287.926
287.926
287.926
287.926
287.926
287.926
287.926
287.926
287.926
287.926
287.926
287.926
287.926
287.926
287.926
287.926
287.926
287.926
287.926
287.926
287.926
287.926
287.926
287.926
287.926
287.926
287.926
287.926
287.926
287.926
287.926
287.926
287.926
287.926
287.926
287.926
287.926
287.926
287.926
287.926
287.926
287.926
287.926
287.926
287.926
287.926
287.926
287.926
287.926
287.926
287.926
287.926
287.926
287.926
287.926
287.926
287.926
287.926
287.926
287.926
287.926
287.926
287.926
287.926
287.926
287.926
287.926
287.926
287.926
287.926
287.926
287.926
287.926
287.926
287.926
287.926
287.926
287.926
287.926
287.926
287.926
287.926
287.926
287.926
287.926
287.926
287.926
287.926
287.926
287.926
287.926
287.926
287.926
287.926
287.926
287.926
287.926
287.926
287.926
287.926
287.926
287.926
287.926
287.926
287.926
287.926
287.926
287.926
287.926
287.926
287.926
287.926
287.926
287.926
287.926
287.926
287.926
287.926
287.926
287.926
287.926
287.926
287.926
287.926
287.926
287.926
287.926
287.926
287.926
287.926
287.926
287.926
287.926
287.926
287.926
287.926
287.926
287.926
287.926
287.926
287.926
287.926
287.926
287.926
287.926
287.926
287.926
287.926
287.926
287.926
287.926
287.926
287.926
287.926
287.926
287.926
287.926
287.926
287.926
287.926
287.926
287.926
287.926
287.926
287.926
287.926
287.926
287.926
287.926
287.926
287.926
287.926
287.926
287.926
287.926
287.926
287.926
287.926
287.926
287.926
287.926
287.926
287.926
287.926
287.926
287.926
287.926
287.926
287.926
287.926
287.926
287.926
287.926
287.926
287.926
287.926
287.926
287.926
287.926
287.926
287.926
287.926
287.926
287.926
287.926
287.926
287.926
287.926
287.926
287.926
287.926
287.926
287.926
287.926
287.926
287.926
287.926
287.926
287.926
287.926
287.926
287.926
287.926
287.926
287.926
287.926
287.926
287.926
287.926
287.926
287.926
287.926
287.926
287.926
287.926
287.926
287.926
287.926
287.926
287.926
287.926
287.926
287.926
287.926
287.926
287.926
287.926
287.926
287.926
287.926
287.926
287.926
287.926
287.926
287.926
287.926
287.926
287.926
287.926
287.926
287.926
287.926
287.926
287.926
287.926
287.926
287.926
287.926
287.926
287.926
287.926
287.926
287.926
287.926
287.926
287.926
1349.97
1350.8
996.546
802.01
296.843
287.926
1624.14
1165.19
1656.56
1498.52
1128.51
1491.82
1223.65
1298.38
869.491
1386.59
1176.47
582.933
804.394
1083.93
1018.74
328.184
617.974
909.833
292.228
331.378
927.732
977.336
675.075
287.981
294.44
287.926
287.929
947.349
628.008
287.926
792.702
738.664
421.151
357.634
514.731
315.682
288.578
287.931
289.325
288.038
287.926
287.926
287.927
287.926
287.926
287.926
1617.3
1519.28
1546.03
1671.46
1607.94
1621.13
1672.42
1158.69
1003.57
1001.96
1312.72
1418.31
1414.79
1313.23
1592.03
1546.9
1468.16
1626.32
1504.37
1599.46
1528.26
984.814
943.442
1064.95
1289.2
1324.38
1383.27
1231.58
1385.72
1249.9
1347.45
1337.6
1378.85
1417.63
1278.8
744.747
946.956
757.756
1066.85
1242.28
1162.62
1090.44
1228.94
1119.21
1172.24
1256.01
1108.9
1190.16
1175.12
415.398
524.831
347.957
930.915
646.916
882.941
766.193
1080.97
1126.21
1067.38
982.447
1016.27
1078.74
927.835
301.788
298.618
290.596
501.513
453.879
612.201
353.287
970.462
962.92
1031.28
888.047
743.517
842.069
775.645
288.624
288.525
288.002
408.005
290.297
306.471
321.231
814.496
681.413
853.04
424.12
617.255
622.343
461.702
287.93
287.933
287.926
288.075
288.107
290.411
287.94
287.926
287.926
287.926
287.935
287.926
287.927
287.926
778.922
682.736
673.871
649.275
603.621
661.904
393.921
527.307
373.566
293.885
302.711
289.987
288.352
288.283
288.014
287.942
287.945
287.928
287.926
287.926
287.926
287.926
287.926
287.926
287.939
287.952
287.926
1627.25
1647.59
1598.32
1648.26
1649.27
1591.07
1631.7
1579.96
1594.15
1507.02
1458.7
1609.69
1541.14
1495.01
1319.27
1388.75
1371.25
1233.01
1398.15
1284.3
1253.32
1206.22
1028.74
1008.37
847.76
1158.63
1072.97
1061.4
760.809
850.775
637.5
510.689
894.189
733.653
494.241
650.179
419.776
530.708
309.447
637.087
384.01
520.386
294.895
399.414
290.535
288.584
361.278
304.747
288.144
288.35
287.978
288.007
287.927
289.242
287.941
287.926
287.926
287.926
287.926
287.926
287.926
287.926
287.926
287.926
287.926
287.926
287.926
287.926
287.926
287.926
287.926
287.926
287.926
287.926
287.926
287.926
287.926
287.926
287.926
287.926
287.926
287.926
287.926
287.926
287.926
287.926
287.926
287.926
287.926
287.926
287.926
287.926
287.926
287.926
287.926
287.926
287.926
287.926
287.926
287.926
287.926
287.926
287.926
287.926
287.926
287.926
287.926
287.926
287.926
287.926
287.926
287.926
287.926
287.926
287.926
287.926
287.926
287.926
287.926
287.926
287.926
287.926
287.926
287.926
287.926
287.926
287.926
287.926
287.926
287.926
287.926
287.926
287.926
287.926
287.926
287.926
287.926
287.926
287.926
287.926
287.926
287.926
287.926
287.926
287.926
287.926
287.926
287.926
287.926
287.926
287.926
287.926
287.926
287.926
287.926
287.926
287.926
287.926
287.926
287.926
287.926
287.926
287.926
287.926
287.926
327.783
486.155
288.009
287.926
287.926
287.926
287.926
287.926
287.926
287.927
287.926
287.926
287.946
287.928
287.926
287.927
499.768
302.493
458.097
300.423
289.838
318.935
288.517
287.974
289.179
287.929
287.926
287.926
287.926
287.926
287.926
287.926
287.926
287.926
287.948
289.938
288.464
287.946
287.927
288.021
287.95
287.93
287.926
287.926
287.926
287.926
287.926
287.926
287.926
287.926
287.93
287.926
287.926
287.927
287.926
287.926
287.926
287.926
287.926
287.926
287.926
287.926
287.926
287.926
288.039
287.927
1027.38
1073
1157.71
1168
1027.58
1068.96
1028.07
1001.49
1009.71
1115.11
994.836
1047.13
1106.92
1175.58
1137.42
1141.56
1131.1
1152.18
1090.13
1099.1
1119.43
1087.8
1095.28
1051.46
1040.89
1062.61
1047
1058.87
1065.98
1039.64
1036.07
1026.04
1052.99
1026.79
976.232
986.498
1039.27
1050.07
1079.61
1067.72
1094.71
1115.15
1081.58
1083.78
1117.7
1099.65
1130.58
1113.52
1126.27
1139.1
1077.64
1107.82
1118.19
1109.81
1117
1137.66
1133.31
1102.2
1063.8
1047.14
1078.34
1101.44
1124.32
1148.92
1048.5
1063.96
1088.86
1072.52
1102.59
1078.14
1049.41
287.926
287.926
287.926
287.926
287.926
287.926
287.926
287.926
287.926
287.926
287.926
287.926
287.926
287.926
387.17
441.518
427.381
395.612
368.125
344.169
394.563
337.999
293.155
304.569
307.878
291.247
288.976
287.991
288.412
288.123
287.939
287.938
287.971
287.929
287.929
287.926
287.926
287.926
287.926
287.926
287.926
287.926
287.926
287.926
287.926
287.926
287.926
287.926
287.926
287.926
287.926
287.926
287.926
287.926
287.926
287.926
287.926
287.926
287.926
287.926
287.926
287.926
287.926
287.926
287.926
287.926
287.926
287.926
287.926
287.926
287.926
287.926
287.926
287.926
287.926
287.926
287.926
287.926
287.926
287.926
287.926
287.926
1076.47
1105.03
1117.49
1114.88
1165.24
1128.27
1188.74
1070.08
1128.81
1116.62
1101.8
1138.2
1182.95
1133.98
1006.41
1003.27
1019.71
1035.73
1051.38
1035.16
1022.16
1020.77
1050.77
1080.08
1033.4
1064.3
1083.06
1043.24
1115.12
1148.77
1230.13
1192.58
1231.27
1160.31
1123.44
1185.1
1208.04
1380.3
1238.98
1268.75
1435.99
1468.56
1420
1421.01
1260.41
1307.17
1337.64
1504.1
1473.99
993.093
1000.07
1018.92
990.504
1001.86
1005.04
977.583
1244.78
1173.68
1235.15
1240.23
1223.81
1176.39
1174.3
1131.36
1162.86
1255.35
1191.25
1224.06
1295.72
1331.05
1263.05
1203.75
1263.82
1293.48
1202.18
1373.73
1268.77
1149.09
1172.08
1200.71
1145.59
1188.45
1140.52
1169.63
1139.72
1135.19
1190.9
1121.55
1055.45
1181.96
1100.6
1103.97
1109.25
1073.99
1076.76
1001.22
1076.59
1006.28
1277.18
1253.9
1199.44
1266.13
1266.21
1324.31
1357.37
1360.52
1606.15
1525.57
1551.27
1614.05
1444.98
1473.96
1020.74
980.548
963.344
1013.16
1002.32
1018.58
1031.65
1186.4
1215.87
1219.5
1143.43
1135.98
1240.67
1142.42
1090.4
1077.76
1019.43
923.647
1030.4
1061.17
974.195
1028.73
1022
1075.23
995.159
950.408
1007.2
926.343
1021.29
1032.12
990.248
848.954
920.486
929.895
861.137
1393.91
1412.58
1562.16
1582.99
1492.93
1480.43
1484.77
932.769
995.521
976.582
951.424
980.02
942.442
891.44
295.526
287.946
287.926
287.926
288.515
288.013
290.719
287.947
287.926
287.926
287.926
287.926
287.926
287.926
296.317
288.483
300.881
288.38
288.374
298.324
297.923
293.452
288.173
288.042
290.278
288.198
294.05
290.547
288.124
287.96
288.516
287.93
288.758
287.933
288.037
287.964
287.926
287.926
287.928
287.927
287.942
287.932
287.926
287.926
287.926
287.926
287.927
287.926
287.926
287.926
287.926
287.926
287.926
287.926
287.926
287.926
287.926
287.926
287.926
287.926
287.926
287.926
287.926
287.926
287.926
287.926
287.926
287.926
287.926
287.926
287.926
287.926
287.926
287.926
287.926
287.926
287.926
287.926
287.926
287.926
287.926
287.941
287.926
287.926
287.926
287.926
287.926
287.929
287.926
287.926
287.926
287.926
287.926
287.926
287.926
287.926
287.926
287.926
287.926
287.926
287.926
287.926
287.926
287.926
287.926
287.926
287.926
287.926
287.926
287.926
287.926
287.926
287.926
287.926
287.926
287.926
287.926
287.926
287.926
287.926
287.926
287.926
287.926
287.926
287.926
287.926
287.926
287.926
287.926
287.926
287.926
287.926
287.926
287.926
287.926
287.926
287.926
287.926
287.926
287.926
287.926
287.926
287.926
287.926
287.926
287.926
287.926
287.926
287.926
287.926
287.926
287.926
287.926
287.926
287.926
287.926
287.926
287.926
287.926
287.926
287.926
287.926
287.926
287.926
287.926
287.926
287.926
287.926
287.926
287.926
287.926
287.926
287.926
287.926
287.926
287.926
287.926
287.926
287.926
287.926
287.926
287.926
287.926
287.926
287.926
287.926
287.926
287.926
287.926
287.926
287.926
287.926
287.926
287.926
287.926
287.926
287.926
287.926
287.926
287.926
287.926
287.926
287.926
287.926
287.926
287.926
287.926
287.926
287.926
287.926
287.926
287.926
287.926
287.926
287.926
287.926
287.926
287.926
287.926
287.926
287.926
287.926
287.926
287.926
287.926
287.926
287.926
287.926
287.926
287.926
287.926
287.926
287.926
287.926
287.926
287.926
287.926
287.926
287.926
287.926
287.926
287.926
287.926
287.926
287.926
287.926
287.926
287.926
287.926
287.926
287.926
287.926
287.926
287.926
287.926
287.926
287.926
287.926
287.926
287.926
287.926
287.926
287.926
287.926
287.926
287.926
287.926
287.926
287.926
287.926
287.926
287.926
287.926
287.926
287.926
287.926
287.926
287.926
287.926
287.926
1261.94
1231.56
1235.82
989.185
976.923
998.158
995.258
995.815
956.812
899.705
810.375
746.412
826.649
886.286
967.205
910.342
970.761
900.916
840.716
855.449
779.135
992.498
935.921
928.982
909.268
823.413
851.274
959.333
1179.88
1137.74
1286.76
1370.94
1245.28
1349.14
1182
989.214
853.829
991.689
1123.72
987.711
992.464
800.135
1174.69
1182.22
1085.8
914.059
947.151
802.482
865.878
876.731
859.763
925.952
940.442
688.243
776.099
792.005
838.1
666.226
747.251
856.121
766.941
662.186
577.558
899.996
872.495
773.759
855.438
915.823
709.663
821.765
890.72
837.126
637.975
732.221
665.586
760.073
568.268
890.308
988.635
860.642
643.967
754.058
613.762
468.345
879.343
735.136
838.12
635.298
548.96
758.795
681.288
524.407
722.89
600.915
477.779
388.339
342.434
303.431
287.926
287.926
287.926
287.926
287.926
287.926
287.926
287.926
287.926
287.926
287.926
287.926
287.926
287.926
287.926
287.926
287.926
287.926
287.926
287.926
287.926
287.926
287.926
287.926
287.926
287.926
287.926
287.926
287.926
287.926
287.926
287.926
287.926
287.926
383.485
348.171
375.745
345.942
508.134
349.744
595.329
380.104
348.378
595.161
505.778
499.394
369.276
329.192
540.357
342.251
577.541
476.085
296.134
288.167
287.934
287.926
301.964
287.932
293.03
287.927
287.929
289.734
287.926
291.306
287.926
287.98
287.926
289.872
287.926
288.05
287.926
287.926
287.95
287.926
287.959
287.926
287.926
287.926
287.999
287.926
287.932
287.926
287.926
287.926
287.926
287.927
287.926
287.926
287.926
287.927
287.926
287.926
287.926
288.743
297.499
289.086
300.469
296.646
288.915
288.866
287.995
287.932
288.012
287.931
287.931
287.997
288.008
288.508
297.197
292.063
288.251
294.721
288.593
288.244
287.972
287.929
287.927
287.946
287.929
287.97
287.949
287.975
289.817
288.039
288.54
288.058
288.666
287.962
287.929
287.926
287.932
287.926
287.934
287.926
287.928
287.949
288.161
288.119
287.934
288.259
287.94
287.939
287.927
287.926
287.926
287.926
287.926
287.927
287.927