/*--------------------------------*- C++ -*----------------------------------*\
  =========                 |
  \\      /  F ield         | OpenFOAM: The Open Source CFD Toolbox
   \\    /   O peration     | Website:  https://openfoam.org
    \\  /    A nd           | Version:  9
     \\/     M anipulation  |
\*---------------------------------------------------------------------------*/
FoamFile
{
    format      ascii;
    class       surfaceScalarField;
    location    "0.00255";
    object      phi;
}
// * * * * * * * * * * * * * * * * * * * * * * * * * * * * * * * * * * * * * //

dimensions      [0 3 -1 0 0 0 0];

internalField   nonuniform List<scalar> 
62377
(
-0.00058662
-1.02068
-0.0325454
0.585072
1.02571
-0.393999
1.30288
0.488048
-0.988795
-1.26883
0.985386
-0.0772592
0.661154
0.0378642
-0.49872
-0.981568
-1.00141
0.0370688
1.04268
0.190394
0.221435
-0.000964831
-0.969651
-0.0696464
0.994488
0.979744
0.0674102
-0.869232
-0.889935
0.0190061
0.322398
1.01783
0.420448
-0.79838
0.96172
1.02569
0.022165
1.73689
-0.208037
-2.45742
-1.9017
0.385398
2.44455
2.74919
0.470995
1.79693
-3.24179
-1.92066
-0.473885
0.101304
-0.473947
0.0459556
-0.801022
-0.0367562
0.144512
-1.48559
-5.27807
1.24915
-0.94291
5.0874
2.67536
1.49061
2.17729
-1.89814
-0.746516
-5.04558
4.89927
-2.2694
5.90305
-1.18796
2.8505
-6.18873
1.44721
5.47801
-1.70471
1.82779
-5.85137
1.92107
-0.34766
-5.07934
2.40311
4.8621
1.07227
-0.656541
2.48471
-2.61917
0.715051
-5.01779
4.28094
-0.551177
5.07602
-2.09353
0.800386
-5.70665
2.26422
4.68398
-2.43174
-0.0842586
-5.44788
2.43041
0.925815
-4.61565
1.99072
3.65932
-0.927596
-0.315372
-0.0332678
-0.377615
-1.7093
1.69729
0.378146
4.09622
0.164987
-2.23875
-4.86813
1.8106
0.718088
2.49779
-0.7631
-0.993886
-3.05855
0.339079
1.20644
-0.730678
-1.23732
-0.195682
1.37607
1.30998
-0.156867
-0.866692
-1.46343
0.476222
1.02193
1.8073
-1.13148
4.96217
1.23559
1.52268
-5.13164
-5.14423
1.17426
-0.861826
4.74209
-1.26474
1.21446
-5.52407
-0.898471
2.28656
-1.22625
-5.14442
1.5766
5.01977
-5.2292
-0.805913
1.53805
4.81938
1.56572
-5.45136
1.98524
4.84651
0.999983
1.94799
-5.01493
-0.868345
-5.03852
4.9346
1.89369
-1.90155
-4.80105
2.27611
4.79323
-1.9349
-0.731792
2.29202
-5.25785
1.44241
4.76985
-5.35181
1.71435
2.38323
-4.887
-2.84419
4.8392
0.0304539
3.35352
-4.88224
-4.80183
2.6336
4.83709
-0.403784
2.64008
-5.21753
1.09866
0.0764093
-5.0794
2.57257
4.78145
-4.83082
2.87156
4.78271
2.987
-5.2513
0.669208
4.89179
-0.396773
3.77403
-4.953
0.5253
-5.09115
4.61843
-0.0370012
-2.88503
-4.76481
2.68459
4.12623
-3.32395
0.738495
3.44486
-5.43088
-0.298223
4.58249
-5.36477
0.193282
3.84326
-4.98649
-3.66874
3.15895
-0.961588
2.51533
-4.37631
-4.32801
1.84888
3.10661
0.828489
3.29683
-5.22027
-0.758285
0.48807
-3.80014
0.980049
2.7395
-0.707078
-4.87102
0.656084
2.13986
2.57563
-4.71459
-0.959007
1.84218
-0.323977
0.526048
-2.94948
-0.00927552
-2.51999
2.05339
-0.179142
0.0619624
-1.31404
-0.208643
1.45247
-1.03588
-0.293103
0.0233514
-1.97432
0.0577298
1.64214
-3.55774
-0.594265
-0.0556763
-1.35662
-2.53187
-1.41283
-0.520857
2.5873
0.597829
1.87097
-2.67009
3.01083
-2.48154
-0.395537
3.02262
0.514642
-0.699414
-0.854585
-2.34453
0.795689
1.30898
2.62569
0.0812837
1.01712
1.35362
-0.821072
-0.985126
-0.173869
1.13044
-0.67971
-0.0169395
-1.09863
1.05511
-1.41481
-1.14579
1.28127
0.155529
2.05629
-0.848643
1.10018
0.0975721
-0.931542
0.245806
1.77737
1.11492
-7.74591
-0.243113
-0.840071
8.32811
0.461919
-2.91187
3.69902
-0.0357066
0.0958204
0.497282
-7.19786
-0.844241
-0.017266
7.91889
0.912554
-0.294424
-3.02729
3.47475
0.87726
0.411386
0.276953
-6.26816
-1.59535
0.458378
6.81261
1.95548
-0.890302
-3.02984
2.71101
1.9246
1.07441
-2.82905
-5.86125
0.148443
0.871625
6.08816
3.30063
-1.68528
-3.24405
2.52444
3.15128
1.79995
-1.75119
-0.719267
1.91558
-1.27922
1.31192
0.654356
0.345359
-3.31491
3.36251
-2.43646
-0.102451
2.55299
-2.62433
7.89048
0.168387
-8.84599
-4.42126
7.98898
0.220379
4.54454
0.772627
-7.70201
-0.662107
-0.423377
8.36732
0.779697
2.98496
0.542983
-0.475931
-2.56708
7.62853
4.10551
5.99458
-0.296879
-4.57947
0.416826
-6.45728
3.79541
-4.302
0.100755
3.71824
-3.54353
-0.229443
3.60004
0.496548
3.76464
-0.139651
0.21666
3.66095
-3.49422
-2.50395
7.33864
0.57803
6.73665
-3.63293
-0.698351
-7.72483
3.77446
0.798837
0.404782
-6.58277
-1.05322
0.165318
7.30258
1.28892
3.02813
1.0252
-0.806937
-2.30476
6.12622
5.34882
-2.1165
-1.07969
2.69906
-6.49154
1.27045
3.37874
-3.6327
-0.295152
0.440047
3.43777
-3.19508
-0.714397
2.85235
1.75927
2.9378
-3.24435
-0.589691
0.737282
3.16126
-2.81389
-2.29859
5.82304
1.28868
4.77002
-1.45221
-1.48613
2.25623
-5.65356
1.72441
0.16387
-6.0732
-2.3641
0.772361
6.35923
3.16995
2.26921
-1.93405
-2.33557
5.02471
2.7407
-1.98584
-1.68734
-3.94311
1.8979
4.05565
-2.79484
-1.04408
2.98258
-2.50063
1.24958
2.94457
-1.49407
2.66076
2.77565
-1.53794
3.24735
-2.71193
1.76301
3.44113
-4.93399
-1.37488
3.89581
1.74035
-3.30071
5.76289
-4.11542
-3.6249
-0.463212
0.292817
3.84288
3.75426
-2.3118
4.65092
2.52205
2.6102
-1.77164
-1.90667
-3.79735
1.72842
3.67338
0.906937
-3.48392
2.8601
-0.142448
-4.78365
4.3225
3.28067
-2.35238
-2.1415
3.20681
2.14782
1.92669
-1.72335
-1.327
-2.93522
0.891312
2.47197
-1.75919
2.81277
-2.78777
1.52167
2.95453
-1.50809
1.80576
3.04646
1.23152
-1.13862
1.66106
-2.17169
0.767101
1.70585
-1.0254
-0.597014
-0.0525589
0.0326734
0.95893
0.176114
0.0921713
0.98773
-2.99947
3.08184
0.0539452
0.582903
-0.0563818
3.67105
0.0355361
-2.95088
0.135443
-3.01651
0.126035
3.05176
0.0315871
0.00756758
0.937852
0.153308
-0.311459
-1.78493
-0.865388
0.468172
1.61798
0.583316
1.55005
0.390449
-0.272433
-3.06961
2.8305
0.758469
0.339656
-0.165442
0.584086
3.27718
1.264
-3.06087
0.554878
-0.153898
1.46843
0.443792
-3.14131
0.536562
2.65642
0.495395
0.837011
-0.923803
-2.47248
-1.1832
1.11421
2.37915
0.994828
2.27051
1.05188
-0.869388
-3.16423
2.27786
1.16881
0.899538
-0.765268
1.5655
2.67695
2.14035
-3.07262
1.27582
-0.757387
2.16279
0.9262
-3.15945
1.26047
2.25282
1.05672
1.91671
-1.54901
-3.4589
-1.15076
1.44092
3.17249
1.41009
3.40431
1.82958
-1.71176
-3.25934
2.25393
1.23653
1.43161
-1.42751
2.91294
2.33412
3.28082
-3.32213
1.77402
-1.53545
3.32761
1.35591
-3.35635
1.81599
2.25878
1.36297
2.79117
1.99364
-3.70935
-1.69976
1.74055
-1.61423
2.50963
-2.48397
-1.90212
2.65372
2.18506
3.52979
-0.217008
-2.87923
3.00313
-2.19776
0.330414
2.16205
3.25557
2.02878
-1.99659
0.749692
-2.99658
-0.502185
-2.14431
3.32611
0.88834
-0.568755
2.05716
1.30345
-1.55599
-2.13666
2.77864
-2.37406
2.21431
1.55747
-2.25652
-0.590062
-1.91985
0.458918
1.26258
-2.5874
-0.863739
-0.895391
3.08891
1.15562
1.29095
-2.86486
1.28421
2.8793
-1.67742
1.78234
-9.05211
3.51461
-0.204501
0.411714
-3.07521
8.78775
0.20342
9.10062
-8.3824
-1.07763
0.167257
-3.50464
7.03112
-2.66162
7.81689
0.334412
0.407822
-8.31586
0.333928
6.95056
-3.06215
-9.06991
3.43301
0.592306
-2.94572
8.82269
-2.63384
7.79788
2.96466
-0.605015
8.98004
0.688201
-8.18323
-0.476792
-3.24115
2.99927
0.542987
6.77069
-8.29788
-1.00018
3.00488
6.93302
0.685909
-2.66657
8.73701
-1.10951
-0.650375
0.0839706
1.06944
0.251162
3.67514
0.188135
-0.211222
1.30908
2.95292
-0.0838862
0.692463
0.32785
3.04972
0.113932
1.2822
0.337142
-0.734645
-8.37451
2.97601
0.806523
-2.16612
8.14534
8.73212
0.707462
-7.93401
-0.590982
-3.08836
0.581403
6.49697
-2.39967
6.92684
0.657307
-2.39299
8.49367
0.743623
-7.58844
0.667276
6.11582
-7.95399
2.90196
0.955595
-1.9733
7.74097
-2.34744
6.50723
3.05047
-0.859465
7.53742
1.06292
-6.91406
-0.829881
-2.80104
3.18326
1.05373
5.25425
-7.22413
-0.446737
3.18105
5.66918
1.18377
-1.77808
7.33175
-1.97349
-0.991495
0.614166
1.7701
0.727002
3.05395
1.55771
-0.697464
2.14187
2.37788
-0.633022
1.11222
1.29421
2.48767
1.06037
1.95094
0.85815
-1.45128
-6.84658
2.5694
1.76373
-1.41138
6.59403
7.16416
1.33034
-6.68289
-0.347967
-2.68326
1.31376
4.90743
-2.3311
5.57702
1.59308
-1.58197
6.94941
1.65661
-6.52303
1.61297
4.61738
-6.5614
2.48656
2.12753
-1.26143
6.26419
-2.33482
5.32269
3.11422
-2.0409
6.29958
2.47918
-6.21738
-1.94701
-2.45467
3.18248
2.24887
4.11899
-6.38548
-0.207813
3.1611
4.36111
2.50973
-1.15242
5.96817
-2.71983
-1.22716
1.33219
2.82843
1.11404
2.689
2.38504
-1.4926
3.10131
2.28637
-1.2466
1.27967
2.83743
2.27888
2.36678
3.30026
1.27564
-3.45874
1.60943
4.69447
-0.882928
3.7924
-3.75055
-1.62501
4.00063
2.25182
-3.99671
-3.30823
-4.86253
3.34935
-0.730178
-2.75725
-4.77384
-1.33682
4.11225
1.54621
5.37226
-0.853691
-3.8406
-2.82481
4.31098
2.03434
-3.92283
-0.722582
3.58554
5.47355
-2.99689
4.966
3.42252
-3.74102
-5.18793
2.97748
5.99673
-2.4015
-2.39051
-3.84958
3.26691
5.67675
1.24104
4.35865
4.04434
-0.736023
-3.51265
-4.41725
-1.00419
1.06249
4.79233
-4.44249
-0.617096
0.546584
-3.20619
4.3121
-3.7191
-3.59959
-0.237131
3.99365
3.73832
1.44461
-3.72041
-0.600685
4.88642
-0.375852
-3.02594
4.22938
4.46881
3.8274
-3.41831
-3.50451
-3.68202
4.26148
3.76552
5.14484
4.24947
-2.9239
-2.8075
-5.61984
2.42405
2.83761
-1.07559
5.30325
6.00985
3.01862
-2.45
2.38691
3.96219
-2.21201
4.20063
2.54694
-1.08186
5.68811
3.191
-0.144779
2.34094
3.77073
-5.08665
2.388
2.56567
-1.11348
4.71855
-2.10633
3.76248
3.3059
-3.20649
4.17121
3.06118
-0.578408
-2.08225
-2.45798
3.16131
1.73926
2.97106
-0.256088
3.33077
3.44742
2.08503
-1.20577
3.7466
-3.2978
-1.02539
1.14399
2.68004
1.30351
2.09279
3.1475
-1.62914
3.00383
1.29334
1.90707
-1.01647
0.865322
2.07888
0.668165
2.10921
2.43676
2.06399
0.846038
1.09548
-2.74723
3.18683
3.06257
-0.891974
-2.60336
3.15559
3.80068
-1.6748
-1.54672
-3.11287
1.79603
3.60034
2.05696
3.83007
-2.37759
-0.740838
-3.17945
3.87034
-1.3003
2.38206
1.74486
-1.5376
2.6633
1.98918
-2.06403
2.27135
0.287761
-3.28289
-2.27924
2.75288
0.00193503
1.93461
0.045503
-0.909432
0.108961
-0.773619
0.152153
-0.00625836
-2.82872
0.390622
-2.50431
2.20997
-0.180984
1.7136
-0.364932
0.654089
-3.2991
2.15819
3.32931
1.07853
-0.216
-1.58362
0.377905
-2.59367
0.709261
-2.97123
2.22886
-2.19568
-0.220416
1.59251
0.359108
0.0190941
0.013172
-0.00300759
-0.109401
0.00907683
-0.141744
-2.98788
2.61043
-1.67678
2.83767
-2.70675
2.41512
1.91717
3.36649
2.34883
-1.42849
1.44997
3.01068
2.56131
-2.96887
2.00559
3.2482
1.67292
-2.23018
1.76905
2.81168
2.11551
1.26901
1.93384e-05
1.39006e-05
3.25656e-06
-3.63518e-05
-2.93366e-07
-3.59305e-05
-2.57105
-2.80891
0.509174
2.85868
3.14402
-0.337433
0.126363
-0.542435
-0.00425466
-0.998045
0.0248878
0.180881
-0.536275
5.18925
0.230644
-5.23305
1.15445
0.764624
-0.591567
-0.289553
5.44752
-5.46255
0.760771
-0.0552683
5.48566
0.961168
-5.46719
0.439537
1.88687
-1.49122
0.3877
5.37227
-5.18089
-0.100529
0.531193
5.40753
2.35852
-5.19098
-0.268687
4.0414
-3.45493
1.15464
5.59289
-5.49867
-1.07422
5.48494
1.60294
-4.98254
4.41201
-3.89638
3.62669
3.58804
-4.42491
-0.179079
-3.6209
1.14068
5.50319
4.27736
-1.27388
2.38602
-3.83551
-0.093448
3.11955
-0.33001
-2.23518
-0.987943
1.50107
1.02006
0.822441
-0.273629
-1.59515
0.569003
-0.75034
1.87734
-1.45991
2.23037
-2.89533
1.65283
-2.35656
2.2183
-1.40071
-2.54542
2.00175
0.76938
1.77236
-2.60162
0.461926
-0.485177
-1.72197
2.76851
1.30621
-2.39296
-0.508044
-1.11804
2.56562
0.577537
-4.78039
1.24043
-0.203748
0.354698
5.109
0.201227
4.72374
-4.01576
0.2287
-1.21466
2.04722
5.33501
-0.58512
5.24751
0.415535
-5.27019
1.20001
0.337035
-4.07089
0.414846
2.06412
5.38011
5.05884
-4.83971
1.11215
0.516767
5.19269
-0.497707
5.34825
-5.36308
1.06639
-0.4941
4.8776
0.694987
-4.19947
-0.593641
-0.887425
0.792675
1.70598
5.5302
-4.13139
1.94447
5.47068
0.728694
5.25406
-1.02241
-4.79068
0.530879
1.38454
4.86004
0.966308
-4.24366
-0.710553
1.04595
1.4541
0.152795
5.44885
1.18832
-5.36198
0.189462
1.27646
-4.22186
1.35616
1.22057
-4.73324
0.394088
1.81622
0.28727
5.39612
-5.2469
0.0259566
-1.6502
4.72842
2.10262
-4.18842
-1.74087
-0.256233
2.18326
0.851158
-4.18055
1.03349
2.30856
-2.84873
-4.8441
-0.266322
3.42362
4.77599
2.63586
-4.2769
-0.0472756
2.63692
0.59964
0.754182
5.4785
2.87595
-5.26686
-0.511425
3.24658
-4.40239
3.07531
0.253154
-4.93195
-0.648667
3.99543
1.0006
5.56129
-5.38752
-0.79394
-3.91388
5.02835
4.48376
-4.83275
-3.52806
0.930012
3.94235
-0.552045
-4.58363
-0.148782
4.42012
-4.47783
-4.78652
-1.10269
4.18802
5.037
4.72676
-4.91082
0.973901
4.01258
-0.917786
1.13552
5.14817
4.29806
-5.1641
-1.25641
4.73721
-4.71819
3.78437
-1.10833
-4.19162
-0.769038
2.55036
0.764601
4.43775
-4.59591
-0.991993
-4.04971
2.83254
-3.22549
1.89193
-2.73862
-0.0438797
0.928302
-0.305498
-4.1235
0.50866
-4.58518
4.31734
-2.00882
4.7964
1.55958
-3.83346
-4.41455
4.66976
1.0129
-4.30083
2.31035
4.39691
-4.146
-3.77164
1.35165
-4.86945
4.5852
2.11291
-4.16111
-3.87847
4.78299
0.492734
4.67887
-4.07552
3.94072
-1.34094
4.6923
-3.59935
0.607593
0.801996
-4.44044
-4.48025
-3.21458
3.27936
-1.23565
-4.7079
0.358046
4.29218
-3.38978
-0.205167
-3.87198
3.88035
-3.10875
-0.7491
-0.190433
-0.793655
1.52824
-1.24124
1.133
0.720701
-1.98069
-1.1858
-0.798703
0.357154
0.876503
-1.80036
0.895964
-1.17252
0.808393
1.87891
-0.770031
-1.08123
-1.6527
0.636954
0.41885
-2.32133
1.68356
-1.66028
-1.06995
2.86326
-2.59439
0.560025
-2.0814
-1.42403
1.93721
1.27717
2.40796
-2.42904
-1.84806
-1.34885
-2.04408
1.13266
2.24455
-1.61897
-2.27771
1.58222
-1.63249
1.83569
1.73357
-2.34532
-0.0716218
-1.84454
0.158549
2.51741
2.17679
2.34642
-3.15732
-2.46321
-0.151767
0.323371
0.536103
2.48771
-2.99002
-2.74002
-0.304995
-2.53452
3.10811
-2.616
0.175188
2.85913
-0.0216759
-2.34826
-0.0207334
-1.63921
2.46471
0.131254
2.03075
-2.63304
-0.0955607
2.82055
1.98906
0.178367
-2.50619
-0.290538
1.66872
2.68164
0.408984
-1.62193
1.21629
-0.61564
2.12732
0.0921969
0.0445011
0.00313916
-0.32056
-0.0417053
0.04919
-1.92939
1.22578
-0.291963
-0.490297
2.37501
0.404988
0.0129155
-0.010192
0.00694956
-0.116252
-0.0090839
0.014849
-2.76265
-0.780334
-0.231814
2.60794
0.830171
0.938473
0.000305336
-0.000713769
0.000253647
-0.00493641
-0.000101308
0.000461399
-1.46578
-0.42351
0.0535911
0.249773
0.155703
0.107288
6.13211e-06
-0.000335249
-4.85771e-05
1.57396e-05
5.98215e-05
-2.94068e-06
-1.27799
1.58831
3.05905
1.23372
-0.0069475
-0.0663064
-0.00654374
0.00748422
0.00399398
0.00555006
-8.47472e-06
3.4674e-07
4.80041e-07
2.23968e-06
-5.84377e-07
-1.04188e-06
-3.02187e-05
1.55943e-06
-7.30807e-06
3.72621e-06
-3.50053e-06
1.32582e-06
-0.833282
-0.206978
0.0989085
0.197089
3.0181
-0.127777
-3.12608
-0.340345
0.866466
0.273292
1.81434
-0.189829
-1.08037
-0.104222
3.01614
-3.09618
0.320356
-0.392027
0.905817
1.20271
1.17848
0.0681926
-0.818843
0.0269142
0.560236
-1.24544
0.67688
0.241257
-1.23402
-0.175368
1.21013
1.24818
-0.737689
-0.0705652
0.461446
0.102835
-1.18331
0.542972
-1.13795
-0.0206251
0.384811
2.94385
-0.439353
-2.94706
0.572894
-0.58603
1.08787
0.801967
2.6156
-0.623383
-1.72742
0.270712
3.32081
-0.856491
-3.02259
-1.02249
1.10626
1.66167
1.19198
1.26425
0.306954
-0.526832
-0.117144
0.250415
0.110007
-0.961947
0.255705
-2.17762
0.297317
1.01647
-3.21192
3.38246
-1.1838
-1.4526
1.48757
2.32268
0.966189
2.27233
-1.11092
-2.84853
0.250132
2.12118
-3.34919
3.04497
-1.53458
-1.75061
1.45896
-2.58599
0.203769
0.656811
1.00317
-2.38323
0.998101
-1.10355
-1.20346
0.568003
0.109472
0.0640387
-0.139927
-0.68934
0.0453322
0.0793359
-0.504655
0.0842218
-0.194439
-0.357061
0.0562589
-1.10658
3.21438
1.53551
0.0662313
-0.609629
-0.0859947
0.0306472
0.0967333
-3.22139
2.54274
-1.7189
0.788837
-0.512804
1.44228
-0.0728236
-0.771938
-0.342012
0.115579
0.086578
0.0664149
0.239291
-0.13938
3.10922
-0.429353
0.931483
0.0573337
-2.18913
-0.59733
1.41338
1.0702
-3.14649
0.12771
3.0483
-0.507754
-0.206773
-0.539143
2.3073
0.359301
3.12418
-0.468093
0.970182
-0.124244
0.182207
-2.15593
-0.541104
1.23576
1.1099
-3.21429
-0.260875
3.01802
0.397198
-0.560576
-0.476638
0.616702
3.20198
-0.628362
1.15521
-0.219272
0.229041
-1.9276
-0.38384
0.747907
1.06775
-3.21115
-0.511688
2.68924
0.594289
-0.642918
-0.652476
-0.298433
2.63335
1.08147
-0.968113
3.29039
-0.995035
1.14366
1.64863
-2.30688
-0.419413
0.420594
1.31557
-0.463561
0.751042
0.856909
-3.02993
-0.641301
1.71538
0.626485
-0.609821
-3.32733
-1.1804
2.58051
-1.12261
1.12748
1.39543
-1.6619
0.302043
-0.365202
0.223083
0.340206
-0.150879
0.0313527
-0.0684325
-0.309819
0.0201452
-0.0431453
0.0354892
-0.718487
0.0256503
0.732834
0.298988
0.39979
-1.87657
-0.757722
0.350499
-0.555871
0.234877
-0.318574
0.0335365
-0.0827194
0.0246016
0.0416174
-0.00583547
0.00166394
-0.00453278
-0.021887
0.000934467
-0.00341325
0.00203785
0.0162393
-0.15389
-0.0465284
0.0191993
-0.0561235
0.0107081
-0.0320806
0.00209988
-0.00672607
0.001913
0.00344193
0.000341443
0.000132623
7.58216e-05
-0.000192771
4.76494e-05
-0.000949042
-0.000192555
-0.0163236
0.000917558
0.0128785
0.00299601
0.000991526
-0.0108211
-0.00283129
0.0012579
-0.00431317
0.00072423
-0.00356408
0.000106089
-0.000512891
0.000180862
0.000393931
3.90491e-05
1.08515e-05
1.90005e-05
1.57923e-05
-1.22802e-05
-5.48296e-05
-1.55938e-05
-0.442099
0.350092
-1.20766
0.21024
0.33632
-0.451891
0.0542102
0.0383017
0.00551316
-0.0536792
0.00675525
-0.0153539
-0.0261806
0.0041079
-0.40074
-1.30226
0.195369
-0.538674
0.120004
0.198713
0.00240796
-0.005005
-0.00548539
-0.0239316
0.00194069
0.00115431
0.200228
1.48287
-0.0834654
0.0793468
-0.29275
0.0968642
-0.219866
0.101551
-1.42856
2.12403
-0.212631
-0.914002
-0.185118
0.120595
1.68727
0.0968183
0.11586
2.20767
-0.184112
-0.321619
0.151346
1.52989
0.161002
-0.230512
-0.976101
-0.156231
1.72262
-0.174966
-0.0693313
0.281123
-0.194546
-1.62105
0.280084
2.31585
-0.0462614
2.24045
-0.134105
0.257897
-0.117877
-0.484139
-1.2865
-0.0359541
0.0729939
0.678737
0.493909
0.0398371
0.482174
0.628277
0.0664927
1.28839
-1.35399
1.21052
1.20363
1.20827
0.119426
-1.21633
0.0741496
0.613801
0.127944
-1.35366
1.2279
0.700423
0.49546
-0.477505
-1.27252
0.105319
0.631067
0.480891
1.20892
1.22471
-1.22529
-0.105837
0.465635
0.13474
0.543714
-0.190052
1.24244
0.250752
-1.33765
1.23613
0.587172
-1.34889
1.2342
0.132313
0.558288
0.458546
-0.396903
-0.193563
1.76257
0.525053
0.171269
0.0477394
0.423217
-1.66735
0.400912
2.41583
0.0596724
-1.16982
0.0922706
0.491893
2.13298
0.00984665
0.53804
0.52289
2.63581
0.201034
-0.334338
1.92841
0.654279
0.333164
-1.38873
0.197533
2.38762
-0.646986
0.46208
0.762592
-0.672084
-2.20856
0.881594
3.11318
0.469115
2.89758
0.342542
0.790584
0.482323
-0.148406
-0.428935
-1.07575
0.326765
0.148473
0.36451
0.442257
0.155785
0.474889
1.18051
0.302524
-1.31054
1.21601
1.15265
1.3071
-1.19434
0.364279
0.460466
0.419922
0.384456
0.165025
-1.26128
0.34225
1.16357
-0.95527
-0.722978
3.08074
1.19426
0.776693
0.604466
0.904195
-2.66909
1.13148
3.20356
0.567503
-2.61683
0.297017
1.11324
2.80327
0.647699
1.10855
1.25003
3.23694
0.635234
-0.710321
3.22176
1.37215
0.853182
-2.80556
0.287099
2.68557
-1.25481
0.593229
1.25312
-1.25269
-3.30086
1.12141
2.69058
0.700217
3.14922
0.677479
1.3781
0.880251
-1.24654
-0.476029
2.26898
0.955066
0.836222
0.539043
1.10336
-2.99156
0.771657
1.669
0.499951
-2.01492
0.186856
0.343762
0.58651
0.994911
0.835175
0.373069
0.598047
0.312902
-0.41543
1.31591
0.604087
0.607615
-1.3084
0.0946281
0.23998
-0.495629
0.292617
0.302424
-0.141612
-0.545826
0.0868368
0.0539821
0.0787775
0.222181
0.176142
0.340884
0.441171
-0.931395
-3.67232
0.849953
2.61105
-0.590478
0.994145
3.53356
1.82229
-0.926616
-0.698556
0.758191
2.10641
0.743294
-1.15284
3.33247
1.4047
1.48099
2.41349
-0.566586
-0.870443
1.71607
2.16011
0.977588
0.821011
-0.344055
0.425339
0.793599
-0.299797
0.404729
-0.340622
0.237085
0.327277
-0.925567
0.0537158
-0.0747382
0.145029
-0.507262
-0.0843176
0.0600392
0.0728453
0.0463477
-0.280732
0.418335
0.310303
-0.0666591
0.123891
0.0776547
0.105119
2.6957
-0.103965
0.0944185
-0.745014
2.26474
-0.59049
2.19711
0.141012
2.78528
0.169133
-0.0668866
-0.733354
0.173203
2.28394
-0.116859
0.214558
-0.0663652
2.90703
-0.0908115
2.86523
0.482723
2.96797
-0.349802
0.113435
0.436851
-0.667
-0.346321
2.36942
-0.426059
2.43732
0.524463
3.03543
0.633894
0.207102
-0.607711
0.523702
2.37188
-0.546344
0.660746
0.128368
2.9876
-0.429407
0.0535765
2.98158
1.04141
3.14208
-0.959068
0.461875
0.622237
-0.389068
-0.637885
0.822628
-0.189882
2.39509
0.837501
0.763705
2.94546
1.06167
0.543784
-0.190081
0.477541
0.541805
0.916576
-0.834243
0.685011
0.3183
1.4089
-0.833722
0.350939
2.26849
0.188093
0.289666
-0.558403
0.130422
0.0184715
0.00429653
-0.0644053
0.0209383
0.0249108
0.0873045
0.0515108
0.0319016
0.0904214
0.0557488
0.0499149
0.00161398
0.0056929
0.00580651
0.0102414
-0.0218435
0.00600427
0.00518298
0.0103824
-0.0858444
0.0143882
0.0368995
2.75589
1.13352
1.93489
0.904698
0.661093
1.91936
2.94878
1.63253
1.29717
0.672897
1.47432
1.11185
1.0167
1.57247
0.750774
-2.33983
0.732759
0.504566
0.797822
1.02905
1.67883
-0.000784526
7.1295e-05
-0.00018414
0.000108722
-0.0002795
4.47336e-05
-4.50815e-05
-0.000740738
-6.87261e-05
2.91712e-05
8.31184e-05
3.69698e-05
1.58667e-05
1.82885e-05
-3.55222e-05
-6.34419e-05
-0.000179168
-6.41869e-05
2.61602e-05
-6.10961e-06
-1.82941e-05
-1.23045e-05
-7.11708e-06
-1.59274e-05
-1.23599e-05
-2.29842e-05
-0.000451883
0.000251241
-0.00048928
0.000175549
9.32153e-05
-8.65835e-05
9.53533e-06
1.59486e-05
4.59086e-05
-2.29313e-05
-2.88609e-05
1.39659e-05
-7.24136e-06
8.245e-06
-4.37688e-05
-0.000129813
-5.3461e-05
-2.73281e-05
1.82619e-05
-1.12758e-05
-5.5267e-06
-9.50802e-06
-5.15057e-06
-6.26709e-06
-9.65923e-06
-6.75702e-06
3.15646e-06
4.08873e-06
-2.41755e-05
-1.93282e-05
-2.39843e-05
-1.91672e-05
-0.650604
0.168153
0.110436
-0.0696918
0.106872
-0.000882214
-0.0216034
-0.0104927
0.00236189
0.00150719
0.0013734
-0.000397953
0.00152605
-0.014153
0.00115535
0.00227893
5.4472e-06
1.5862e-05
9.49892e-06
-4.58983e-05
-2.70157e-06
-2.61925e-05
-0.569642
2.24026
-0.253533
2.89754
0.0348467
-0.256859
-0.703727
2.33974
2.83394
-0.0282271
-0.722464
2.30221
0.319008
-0.0418358
2.91366
-0.00378783
2.94927
-0.359397
2.49424
1.15004
-0.802254
3.19007
0.379295
-0.596345
-0.482732
1.03372
2.10154
3.0874
0.290428
-0.535182
1.17985
0.768453
0.200732
2.92591
0.28632
2.74913
-0.109471
1.75328
0.564792
-0.942388
0.983801
0.325043
-0.214304
0.00323522
0.0801684
0.106573
2.22876
0.539417
-0.03916
0.254538
0.31979
0.134893
0.468695
0.0458638
0.140661
0.000478182
0.0318454
0.0105383
-0.0173215
0.0104495
0.00839451
0.00595925
-0.001748
-9.22001e-06
0.000488095
0.000709869
0.00138108
0.0299112
0.0204842
-0.000303864
0.00195572
0.00182725
0.00205826
0.00327716
0.000819954
0.000603959
0.0011123
0.355386
0.254117
-0.26043
0.0209243
0.0335027
0.0347775
-0.269555
0.0300813
0.0206902
0.0339709
0.183655
0.30739
0.285014
0.206668
0.110712
0.112752
0.0721735
0.0109301
0.00701325
0.0122745
-2.14951
0.356443
0.0309565
0.504778
-0.188921
0.000447045
4.49414e-05
-0.00608088
-0.000319106
0.000663245
0.000445477
4.64667e-05
-0.00721935
-0.00034834
0.000676098
0.0316921
-0.00959375
-0.24132
0.0117924
-0.0275695
0.035336
-1.88362
0.289671
-0.0913945
0.359684
0.123205
-0.143632
0.000298
-0.000127826
0.000444008
0.000152705
-0.00423853
-0.000189725
0.00029079
-0.000134434
0.000428143
0.000152168
-0.00473605
-0.000246158
-1.06607
0.135211
-0.114771
0.150489
0.0782577
-0.0784166
9.61996e-05
-9.6806e-05
7.56761e-05
-0.0016484
-3.36024e-05
0.000220263
8.47531e-05
-8.64963e-05
6.42113e-05
-0.00155549
-8.22239e-05
0.000184187
0.00291014
-0.00390011
0.00186126
-0.0327222
-0.00143172
0.00357815
0.0024454
-0.00377043
-0.0323538
0.00151477
-0.00259947
0.00300961
2.56769e-05
-3.72743e-05
5.5783e-05
2.48995e-05
-0.000374086
-8.68189e-07
1.8127e-05
-2.72722e-05
3.89499e-05
1.69299e-05
-0.000275321
-2.01296e-05
-0.000492745
0.000190734
-0.00324669
0.000138996
-0.000337936
0.00027464
3.13974e-06
-1.29968e-05
1.09684e-05
-7.99156e-05
-6.01279e-07
1.75887e-05
7.92716e-06
-1.00271e-05
1.37691e-05
9.00671e-06
-5.47269e-05
-7.72279e-06
5.91985e-05
2.36409e-05
-6.8418e-05
-0.000439827
2.81016e-05
1.48278e-06
3.34625e-05
1.82963e-05
-3.46245e-05
-0.000200235
1.63627e-05
-2.37405e-05
1.04987e-06
6.29623e-06
4.72657e-06
-2.64929e-05
-7.02953e-05
-2.7727e-05
-7.58711e-06
-8.77052e-06
-7.74722e-06
-9.29216e-06
1.51042e-05
4.77104e-06
6.58629e-06
-1.95787e-05
-5.33337e-05
-2.39941e-05
1.27231e-05
-6.22959e-06
-6.15985e-06
-6.5362e-06
-7.03908e-06
3.68862e-05
1.93335e-05
-5.66471e-05
-0.000300609
-9.51354e-05
-1.12186e-05
-2.30006e-05
-4.06227e-05
-1.44201e-05
2.07576e-05
-4.97677e-06
-3.31868e-06
-6.67805e-06
-5.50192e-06
1.10241e-07
2.06308e-06
5.65592e-06
2.01377e-06
-1.36205e-05
-1.38604e-05
-1.37074e-05
-1.39164e-05
1.49533e-06
3.51191e-06
1.91312e-06
3.07767e-06
1.62535e-05
3.80178e-06
-6.22877e-05
-3.86468e-05
-3.48924e-05
-5.68889e-05
6.88152e-06
-8.71874e-06
-7.07532e-06
-8.61295e-06
-6.9646e-06
9.96364e-06
3.60672e-06
-2.35959e-05
-2.32134e-05
-3.34447e-05
5.89713e-06
-1.05341e-07
1.77062e-06
4.82543e-07
5.20579e-07
1.29331e-06
3.78224e-07
7.2437e-07
1.9822e-05
5.29037e-06
2.34665e-06
-4.43632e-07
-4.07892e-05
-3.98041e-05
-3.91961e-05
-4.16199e-05
5.68327e-06
1.80725e-06
-2.90808e-06
-5.2418e-05
2.20112e-06
4.41697e-07
6.20947e-07
2.01666e-06
3.91231e-07
-1.07512e-06
-4.73384e-06
2.89283e-07
3.37851e-07
4.63693e-07
2.10432e-07
1.51136e-08
-5.90262e-07
-5.47822e-07
-6.08159e-07
-0.000960195
4.99845e-05
0.000106272
-0.00132122
-6.63237e-05
0.000152118
-2.92933
1.20275
-0.424338
-1.84851
1.82851
0.418514
0.505396
0.379179
-0.413073
-2.29882
-0.837709
0.315435
1.1178
-0.670693
-3.21967
-1.34031
0.968572
3.10825
0.00852764
0.0052978
-0.00840139
-0.0743615
-0.0424198
0.00533438
0.583427
-3.2873
-1.14464
-0.740793
1.14764
2.34368
-3.32389
0.825671
-1.71717
-0.776828
3.31697
1.85857
0.411335
-0.420429
-2.02013
-1.00687
0.330216
0.262967
0.0574718
0.031223
-0.12986
-0.483051
-0.0742757
0.0297208
0.315741
0.766226
1.17103
-1.49615
-0.36899
0.00880667
0.0105972
-0.171833
0.019499
-0.0652954
-0.0149536
2.08687
0.466859
-0.423741
-2.16337
-3.21037
-2.55747
3.04083
0.26647
-2.49338
-0.127019
2.89474
-2.3383
0.40863
-1.45984
-0.271912
2.39079
1.89759
-0.926989
-2.27962
-0.535489
1.37851
2.49683
0.285175
-2.77608
-0.145179
-1.58469
3.0724
2.41549
0.892445
-2.99314
-0.766319
-2.08018
2.96894
2.26873
-1.92413
-1.31706
-0.778922
0.456368
0.486285
0.327361
-0.0356771
0.00349445
-0.0112554
0.004303
0.00219655
-1.87134e-06
4.19783e-06
1.21298e-06
-2.47043e-05
-6.39102e-06
-0.00098552
0.000904056
-0.00445214
0.000570188
0.000529295
0.0464323
-0.0901699
0.0626064
-0.164052
0.0355614
0.00042315
-0.00627426
0.000619119
-0.00112828
-0.00168245
0.000309548
-2.50467
0.121199
-2.55141
2.377
2.47671
-3.12708
0.123403
2.89435
1.46271
-0.00366242
-0.286316
-0.177285
0.0112882
0.0345167
0.0396956
-2.81687
-1.64046
0.43624
3.05193
2.4211
-2.50155
-0.272039
2.3518
0.407
-2.56055
2.26441
-3.1734
-0.263472
2.80086
0.395744
1.42631
0.00813946
-0.0120678
-0.134885
-0.0768172
0.0140543
0.0166056
-2.30973
-0.502263
0.547895
-2.39115
1.7333
1.78749
-3.07289
-0.494064
2.22923
0.555483
1.26121
0.00792027
0.00411734
-0.0694274
-0.0376152
0.00662995
-2.96623
0.96343
-2.04287
2.77258
2.18781
-1.69188
-0.512251
0.522767
0.343658
-1.80631
0.516426
-2.61866
-0.561207
0.870284
0.464994
0.811894
-0.00167034
0.000561353
-0.00996658
-0.00527833
0.000859847
0.00104219
-0.299494
-0.127216
0.0288133
-0.335846
0.0488004
0.0505375
-0.0235709
-0.116565
0.00594344
0.00920446
0.0114685
6.90056e-05
-0.000156875
3.75238e-05
-0.00069576
-0.000384657
8.34513e-05
-0.694839
0.0953547
-0.324806
0.106408
0.0600075
-0.00228314
0.000342707
-0.00109136
-0.00267303
0.000332353
0.000184605
-0.00125421
-0.00612116
0.000259608
0.000412553
0.000530211
1.15017e-05
2.00446e-05
2.42945e-05
-1.54544e-05
-4.15918e-05
-2.99806e-05
2.27944e-05
-0.000104499
-4.81356e-05
-0.000116422
4.53869e-05
3.2117e-05
-5.48109e-05
2.50607e-05
-0.000231027
4.01204e-05
3.91156e-05
9.48153e-06
1.79279e-05
-2.29459e-05
-3.14316e-05
-3.42964e-05
-7.86402e-05
-1.97837e-05
-2.25989e-05
-2.47809e-05
-4.09393e-05
2.05768e-05
-1.43102e-05
-1.38391e-05
-2.18758e-05
-0.00203498
0.000224885
-0.000554662
0.0002843
8.88263e-05
4.78111e-05
-5.67374e-05
2.31091e-05
-6.63912e-05
-0.000160716
-6.21262e-05
-4.12076e-05
-7.55001e-05
-8.8244e-05
-0.000195656
-5.26007e-05
-1.25659e-05
-2.22484e-05
4.29035e-05
2.17028e-05
1.38233e-05
-6.33725e-05
-0.000148604
-5.33837e-05
-3.94103e-05
-1.85031e-05
-2.62792e-05
-3.88082e-05
-1.53927e-05
-2.55556e-05
-1.30275e-05
-1.83095e-05
2.98257e-05
5.54522e-06
7.12868e-06
1.29808e-05
2.37449e-05
-4.91419e-05
-2.40594e-05
1.01678e-05
-0.0845171
0.0552064
-0.182615
0.0441697
0.0318634
0.00272749
-0.0112788
0.00539343
-0.00692609
0.00253509
-9.78586e-05
7.26848e-05
-0.000206078
-0.000611818
4.15852e-05
4.1175e-05
2.5534e-05
2.20834e-05
-0.000490813
-8.25513e-05
6.98669e-05
-6.48882e-05
8.1402e-05
7.07175e-05
-0.00188672
-0.000508285
0.000189591
-0.000135108
1.76264e-05
1.52892e-05
-0.000133894
-4.30561e-05
-5.31188e-05
-0.000223054
-1.4169e-05
-1.90598e-05
-4.73478e-05
-9.8473e-06
-1.13635e-05
-1.12465e-05
-1.75859e-05
-0.000309256
-1.10017e-05
7.01741e-05
1.12944e-05
-0.000102109
1.84299e-05
-5.82716e-06
-3.78572e-05
6.89687e-06
-1.80993e-05
5.66675e-06
-5.19825e-06
-1.23367e-05
1.74563e-06
-1.20202e-05
-1.27069e-05
-1.11893e-05
-1.39472e-05
1.4914e-06
-9.08232e-07
-5.64823e-06
9.17267e-07
-1.81623e-06
1.60978e-07
4.16924e-08
3.40996e-08
3.86745e-09
-6.54177e-07
-6.38549e-07
-8.6527e-07
-7.37839e-07
2.81914e-06
7.59465e-07
1.09939e-06
-4.42593e-07
-1.51626e-05
-1.61914e-05
-1.21878e-05
3.32155e-08
4.892e-08
-7.43398e-10
9.98255e-07
4.80063e-07
4.15956e-07
4.16662e-07
-3.16533e-06
-4.53508e-06
-2.65956e-06
1.67554e-08
1.81054e-08
-1.01977e-09
2.74746e-07
7.12361e-08
7.27134e-08
8.63371e-09
-1.61407e-06
-2.08102e-06
-1.52309e-06
2.37836e-09
2.00092e-09
4.23398e-10
1.61301e-08
8.69696e-09
2.03517e-09
2.47872e-09
2.20432e-10
3.78861e-11
8.98339e-11
5.35488e-09
1.16095e-09
3.35874e-10
7.37849e-10
2.89155e-11
-7.60281e-12
2.8372e-11
5.26889e-07
2.14031e-07
-1.35923e-07
2.52731e-07
-2.23473e-06
-1.06221e-06
-1.20753e-06
-5.06949e-06
-2.63095e-07
-5.06029e-07
-2.90297e-07
2.49453e-08
7.83088e-09
2.11729e-09
6.15984e-09