/*--------------------------------*- C++ -*----------------------------------*\
  =========                 |
  \\      /  F ield         | OpenFOAM: The Open Source CFD Toolbox
   \\    /   O peration     | Website:  https://openfoam.org
    \\  /    A nd           | Version:  9
     \\/     M anipulation  |
\*---------------------------------------------------------------------------*/
FoamFile
{
    format      ascii;
    class       volScalarField;
    location    "0.00255";
    object      rho.c4;
}
// * * * * * * * * * * * * * * * * * * * * * * * * * * * * * * * * * * * * * //

dimensions      [1 -3 0 0 0 0 0];

internalField   nonuniform List<scalar> 
21307
(
1.73041
1.96961
1.75393
1.47764
1.49893
2.22981
2.0291
1.98046
2.23632
13.38
25.718
42.7214
1.50833
1.89657
1.51627
1.76437
1.99805
2.42797
1.93499
2.27141
2.65419
3.79193
3.36916
5.91172
4.68167
3.33121
1.66485
1.57326
1.46169
1.64457
1.52101
1.73138
1.58742
1.7992
1.77591
2.04433
1.77762
1.88903
1.69029
1.92011
2.16928
2.21175
1.85631
2.10309
2.04478
2.38241
1.9358
2.29165
2.24291
2.64283
2.18865
2.53197
2.03255
2.40906
2.66291
2.70433
2.40434
2.91719
2.52113
2.6019
2.71676
2.57668
3.14151
2.99775
3.04105
2.5902
3.04621
2.32086
3.71742
7.54309
4.71263
2.95454
3.06794
3.48915
4.73086
2.64695
3.07558
4.1636
0.844303
0.280763
1.05882
0.367192
1.48846
0.698558
2.17136
1.53153
4.68816
13.1088
0.257001
0.723954
0.898705
0.293634
0.804137
0.760696
0.325366
0.807534
0.329174
1.03117
1.2876
0.521717
1.48539
1.00385
0.606672
1.43547
0.597527
1.7639
1.82816
1.01388
2.62416
2.17984
1.15243
3.25911
2.39015
3.94446
1.33798
4.67853
3.21351
3.81095
10.9999
6.65922
5.18395
16.9504
0.514755
0.420164
0.36274
0.28866
0.431525
0.374863
0.49857
0.857926
0.556834
0.51542
0.432664
0.703496
0.662569
0.625689
1.6263
1.06202
1.00967
0.798628
1.42064
1.20255
1.15519
4.79302
2.18716
2.45537
2.16938
3.27462
3.02696
3.63952
5.45405
5.20133
5.88646
7.44293
11.1987
9.0261
30.8852
8.0063
13.8453
0.656428
0.637369
0.387439
0.263226
0.646336
0.395787
0.647828
0.671041
0.273017
0.694698
0.439383
0.661845
0.409658
0.704122
0.541974
0.300365
0.488459
0.438399
0.449681
0.394873
0.600517
0.849826
0.751351
0.492246
0.381224
0.762911
0.835073
0.572377
0.956933
0.448378
1.04157
0.788979
0.938281
0.676822
1.06407
1.04376
0.516682
0.92976
0.883487
0.7944
0.753752
1.23357
1.27112
1.13449
0.901212
0.685992
1.16321
1.23155
1.02727
1.42132
0.811749
1.58838
1.46812
1.36682
1.20077
1.6636
1.90605
0.932725
1.68563
1.76789
1.38962
1.37567
2.40619
3.05548
2.55994
2.29043
2.8785
2.46909
3.1164
2.8458
2.97997
2.22752
2.37109
2.8155
3.68894
3.41662
4.26355
4.12298
3.71212
3.48045
4.29351
3.73968
4.47233
3.56937
4.56185
2.63961
1.94557
1.87653
1.84091
2.05378
2.50429
2.50203
3.48155
2.60444
4.26402
5.20355
3.25003
3.51311
4.65109
7.55396
3.2654
7.28906
9.51061
4.54339
5.7848
12.2365
5.12938
4.78506
7.67604
5.00257
7.13877
6.14655
6.3623
32.4167
57.7946
39.6856
11.5169
46.6215
40.052
53.5255
6.36779
6.43534
5.52937
8.43336
9.83636
7.16974
13.6145
0.0209797
9.40533
47.0197
1.13848
1.26673
1.36833
1.65989
1.74314
2.08111
2.40955
3.39293
2.26954
3.11749
3.19131
3.19496
3.22199
3.39621
3.73073
3.65685
1.21313
1.19409
1.15421
1.15381
1.21248
1.17118
1.19071
1.2702
1.19194
1.36889
1.29744
1.26521
1.21491
1.37265
1.6429
1.50329
1.40677
1.47631
1.50662
1.6346
1.51864
1.76209
1.57388
1.82392
1.70943
1.73689
1.61867
1.87254
2.0859
1.91476
1.79351
1.83374
1.97943
2.01422
1.87238
2.18664
1.93921
2.21671
2.08869
2.11828
1.95883
2.26938
2.44165
2.2952
2.27761
2.48094
2.34639
2.33209
2.52467
2.58757
2.7982
2.43932
3.14129
2.39954
2.91944
2.4587
2.70278
2.34192
2.5876
2.74982
2.48197
2.49528
3.00262
2.88277
3.10268
2.66094
3.76381
2.62641
3.42743
2.96938
2.70236
2.40782
3.0843
3.23222
2.37628
2.54615
3.50615
2.54549
3.78936
3.20961
2.84308
2.5345
2.70114
3.45603
4.33651
25.8727
26.9073
8.44471
4.06432
4.74244
4.69358
1.00679
9.48894
1.60685
12.9505
5.73929
23.0722
13.7873
1.30653
9.4141
33.1562
6.29118e-09
2.45278e-08
0.723342
1.08582
0.885971
1.14278
1.24899
5.66619
1.594
6.0014
1.07059
1.55396
2.3574
3.73563
2.05725
8.63214
3.08198
4.18622
6.95811
8.1927
9.30471
17.4341
22.4777
27.581
7.22156
30.8116
28.7358
44.8154
1.38658
5.14263
3.44269
1.27053
1.4685
5.52068
3.75362
2.10674
8.22521
5.96938
4.23429
6.33104
10.0709
13.2146
13.1293
15.8167
25.6399
11.6953
20.4821
17.2252
25.4331
22.2076
18.3168
5.17126
25.8324
28.5275
24.6645
0.0961202
38.2993
30.5171
37.5886
44.6617
44.2648
0.648596
0.522266
0.792414
0.740179
0.537173
0.811749
0.629727
0.686463
0.783265
0.63878
0.97074
0.568045
0.858525
0.77174
2.77359
2.03456
1.90077
1.27049
2.06347
1.93121
2.73637
2.96008
1.36117
2.59923
2.4487
2.20993
2.07358
3.46541
1.1466
0.763647
1.17693
1.36784
0.922548
0.939848
1.51108
1.42625
1.79373
1.38448
2.62153
1.15283
1.99077
1.72979
6.17111
3.3768
3.20181
2.85683
4.48253
4.68969
4.49153
2.48845
1.64152
3.42431
4.03426
2.0588
1.99385
4.45433
3.15441
5.27102
3.45853
7.74913
2.56742
5.80946
4.17359
8.662
4.87283
10.6016
12.4403
5.84883
7.13511
14.2457
13.1083
16.7156
16.6312
24.0123
10.8782
18.5596
19.2982
16.573
6.38967
13.3289
11.0725
11.4977
9.91413
18.6164
26.8887
23.0737
30.2219
34.4835
21.067
28.4533
34.3133
1.03783
1.6433
1.02679
1.06022
1.67077
1.62045
1.59191
1.65183
2.76314
2.1813
2.25103
3.89565
3.79266
2.67627
6.08312
10.4871
7.50097
8.00924
12.7656
13.8052
10.8925
15.4651
16.5289
16.3746
17.8298
18.8502
19.7118
17.8184
12.8408
16.385
15.1391
20.8021
24.6168
32.3101
21.6621
0.845872
1.29476
0.00132755
6.09666
0.010745
0.000121641
2.10141e-06
51.2709
50.1325
52.8064
0.00499149
1.09633
1.30673
2.11635
1.13062
1.79434
1.73978
2.04931
3.04822
4.45491
7.96144
3.1725
5.65119
5.56791
8.01065
9.51542
13.1544
15.3152
10.4165
14.3123
16.0101
16.9678
20.371
26.6136
27.8442
21.5137
22.8143
23.3946
28.0909
25.3283
30.8873
36.5064
28.078
33.244
36.5871
37.3218
9.73447
12.3936
15.0487
9.71778
10.0446
12.6858
15.1511
13.4831
14.1121
11.1196
19.8455
23.3899
1.29951
0.494593
27.2917
0.182305
0.108816
2.0614
0.274596
0.00134647
0.000504069
0.0566351
3.75641e-05
1.76699e-06
0.00121942
7.69896e-05
3.99877e-08
8.7248e-10
0.00665154
9.2197e-05
2.91485e-06
5.58593e-11
8.13595
42.1671
39.0672
16.9289
53.7111
27.7732
17.0071
52.0514
40.3013
39.0588
44.1883
26.651
7.77579
3.84242
4.80045
2.04798
5.35832
26.6456
23.4294
1.4436e-06
53.6125
40.9319
27.4034
5.34957
4.47416
15.8098
2.21019
5.87921
4.87611
16.9869
9.79988
7.77648
19.4719
8.65459
21.4399
16.9286
27.0428
29.6383
28.048
3.60031
24.3228
27.7085
27.8707
0.269386
0.137955
0.32311
0.00117262
12.6929
0.014289
0.00285956
9.03393e-07
0.0123165
51.7572
40.41
0.139366
0.118479
5.86827
0.000909794
1.2456
0.106602
9.78862e-06
3.54429e-06
7.18481e-15
2.51798e-07
2.30394e-13
2.64676e-09
1.10558e-15
1.17538e-11
2.22045e-16
2.22045e-16
2.22045e-16
2.22045e-16
2.22045e-16
8.6517e-14
2.22045e-16
2.22045e-16
2.22045e-16
18.4327
11.0157
0.028259
2.23368e-06
0.0190124
1.27056e-12
2.22045e-16
2.22045e-16
2.22045e-16
2.22045e-16
1.92101
1.74612
1.63833
1.84685
1.71408
2.2244
2.34131
2.21381
2.32849
4.06204e-11
2.14799e-10
2.22045e-16
2.47599e-11
2.22045e-16
4.16296e-16
2.22045e-16
2.22045e-16
2.22045e-16
2.22045e-16
2.22045e-16
0.00137202
3.20048e-06
4.81237e-09
2.17191e-11
2.22045e-16
2.81695
99.8878
103.659
75.6102
26.2455
95.7221
37.9397
103.446
10.2705
0.0135553
3.17008e-10
1.28976
1.34709
2.15702
3.1723
5.40435
9.00321
27.0971
54.8833
86.4844
1.70667
5.38938
10.6752
4.04249
5.07496
6.55136
5.32589
6.95553
9.21143
7.71359
1.45852
1.874
1.32507
1.98944
2.28458
2.19722
1.60861
1.38512
1.35325
1.50798
1.4107
1.58823
1.53623
1.59423
1.35248
1.40367
1.53338
1.88217
1.74312
2.14948
2.03248
1.8566
1.78001
2.18201
1.86681
2.02287
1.77703
2.15975
2.64532
2.40541
2.236
2.37467
2.4383
2.6193
2.40108
2.61198
2.21637
2.40804
2.37476
1.00292
1.25373
1.99693
3.01863
5.50784
0.965329
1.13647
1.0506
1.13197
1.82487
1.48443
1.58415
2.60392
2.03878
5.06021
0.993375
0.960997
1.05236
1.02066
0.97714
1.06531
0.979966
1.33507
1.18375
1.27944
1.41602
1.18909
1.32658
1.44406
1.95186
1.82237
2.02601
2.15116
1.83029
1.96164
2.16541
3.36427
2.78222
2.99095
3.69875
2.71978
3.40468
3.68225
6.92884
11.5606
0.91529
0.934758
0.861586
0.978469
0.948738
0.873054
0.900837
1.00405
1.07275
1.08823
0.989604
0.901434
0.819699
0.832496
0.887688
1.02393
1.06029
1.07955
1.16634
1.01179
1.09768
1.08689
0.943193
1.0013
1.03322
0.941758
0.976135
0.894382
0.998561
1.03079
1.17862
1.11745
1.08688
0.927
0.899594
0.854075
0.978961
1.21932
1.12476
1.01915
1.24185
1.0896
1.24871
1.13155
1.3243
1.2825
1.18206
1.4443
1.19024
0.974951
1.06422
1.08505
1.51572
1.61901
1.67537
1.86198
1.50112
1.65409
1.69153
1.37875
1.36752
1.54126
1.39401
1.39631
1.26674
1.53117
1.49909
1.84865
1.65122
1.66237
1.34082
1.33825
1.21676
1.4795
1.75487
1.66714
1.49686
1.68836
1.65029
1.79405
1.59379
1.8981
2.00129
1.78774
2.13319
1.67519
1.43404
1.58422
1.52309
2.10488
2.33683
2.3868
2.59046
2.13632
2.33438
2.34217
1.89176
1.827
2.18573
1.93655
1.95491
1.72444
2.11103
2.0436
2.55979
2.29916
2.28138
1.80188
1.87136
1.65106
2.01822
3.32306
2.97387
2.66261
3.67544
4.10864
4.43711
4.67098
5.34147
4.07323
4.54675
4.79064
4.19
5.73255
4.68016
5.06453
7.45614
5.8254
5.0352
4.73426
5.29167
7.05394
6.3578
1.05632
1.05392
1.25639
1.57842
1.87696
0.975386
1.01839
1.38502
1.73183
2.09602
2.41493
2.79607
3.45042
0.974941
1.3631
1.08617
1.09772
1.20035
1.29771
1.63192
1.7229
2.1359
1.05798
1.24166
1.26153
1.04032
1.09855
1.42079
1.31295
1.17902
1.41959
1.54948
1.29364
1.68202
1.53468
1.79374
2.22677
1.07344
1.15791
1.01435
1.10167
1.17482
1.03022
1.05744
1.1129
1.13389
1.30687
1.12837
1.2186
1.06203
1.19438
1.43298
1.42302
1.229
1.41267
1.30693
1.54474
1.35611
1.55287
1.52851
1.74265
1.61808
1.64951
1.49109
1.65902
1.89342
1.83683
1.73878
1.82336
1.76786
1.93837
1.87177
2.04131
1.95206
2.18086
2.25708
2.04951
2.0346
2.23844
56.6919
2.95124e-06
0.00147007
9.36438e-11
1.37799e-08
35.6712
28.1176
40.021
31.7396
0.00860021
0.0177289
3.752e-08
1.20523e-11
7.05904e-12
7.2322e-14
1.21648e-09
7.22926e-12
1.54461e-12
1.0815
1.17202
0.664635
2.1639
5.10531
25.4249
10.7595
5.33995e-05
4.40484e-05
1.35467
1.48619
0.899263
3.19113
7.14956
29.1125
0.000818919
3.46335e-06
2.05101e-06
3.13026
2.74184
2.29813
12.6913
24.4129
0.020394
2.49577e-11
1.27561e-09
4.48707e-12
6.77958
4.35437
6.79118
60.6821
65.3339
1.62905e-06
1.16264e-05
1.9127e-14
2.22045e-16
45.2814
7.25
68.6764
12.1953
0.0002752
61.6595
3.29851e-15
1.96976e-07
100.807
14.8981
0.000634851
61.4329
7.75118e-14
5.24657e-07
1.1051
1.01684
1.17639
1.05147
1.19497
0.564529
1.14079
1.36244
0.581757
1.05415
1.32925
1.19568
1.18661
0.716497
1.28692
2.81866
6.95787
11.6023
2.34135
3.40608
7.35682
13.0534
6.91457
13.2187
8.15165
5.99884
8.21601
14.5024
9.81146
1.45083
1.95646
1.52523
0.677082
1.85032
2.45777
0.978821
2.3962
1.64285
1.36519
2.56072
4.1237
10.2046
15.1135
5.66284
10.606
26.8578
30.6579
10.2824
16.6581
13.5358
17.1298
19.9544
33.009
1.16266
2.5338
3.08365
2.78335
2.82798
2.18452
4.25949
3.99037
3.10147
3.76284
2.86036
4.63481
3.79941
9.68299
15.6412
52.4649
39.8903
32.7518
46.2739
75.724
18.3103
20.9964
42.4397
0.136818
57.7964
0.345894
0.147691
0.0100041
4.15959
3.11687
4.20966
3.6742
4.63477
4.75326
11.6014
7.65825
13.0007
3.29803
7.32911
5.5411
19.3639
17.8165
69.2585
57.0743
11.6792
0.582952
58.8649
48.2299
0.00216919
0.00731932
0.00516409
0.00235879
0.000278024
63.9324
42.9615
0.0106673
0.0738969
15.3861
95.2433
66.8633
111.994
77.8965
0.0552496
93.0427
7.1015
54.8625
34.1968
62.9877
33.0274
79.4956
54.9974
1.70721
7.1151
2.27279
10.5522
5.96476
64.3164
28.8527
0.000958981
111.104
7.86963e-06
1.04184
1.08258
0.938099
2.21821
1.39783
1.82789
1.01337
2.31717
1.51211
1.30528
2.38123
1.2783
3.36812
1.93292
3.4252
1.95922
4.38935
3.01898
3.91595
6.28368
4.57971
11.0593
5.47949
11.5474
7.83784
20.7444
11.5635
11.0531
23.2899
16.3849
96.9417
27.3717
75.5371
48.0756
16.679
81.0204
1.18893
1.13821
1.19265
1.18846
1.15412
1.20667
1.17484
0.683101
0.52743
0.541172
0.470425
0.335791
0.343924
0.459196
9.21428
8.03128
6.44333
5.16205
8.08347
6.50211
9.16518
1.65574
1.43729
1.47497
1.71827
1.4496
1.65653
1.68071
0.695117
1.08406
0.823325
0.73307
0.437434
0.612837
0.515409
15.3331
10.8233
8.9001
9.10747
12.2485
13.6197
11.2559
2.84192
2.5894
2.6774
3.04535
2.58689
2.84959
2.97162
2.96408
1.68518
2.15477
1.90246
1.03831
1.49199
1.32983
47.214
33.9048
28.6494
34.5308
36.5614
45.2257
39.0741
4.88951
4.00926
4.26888
5.32246
3.9972
4.9021
5.24897
10.4398
4.778
6.8668
7.32543
3.06884
4.66085
4.48475
0.000515554
3.87106
38.594
19.036
0.176228
0.0313389
2.1567
106.706
10.6373
42.3396
8.50688
10.7419
12.6998
51.1253
6.02574
9.02926
7.83414
10.4333
6.5875
40.8556
13.2418
26.7065
9.90293
22.5079
19.7983
17.6007
15.8234
33.9378
1.11553e-08
0.000439648
6.94573
74.185
0.00172814
2.59485
5.03799e-06
44.6175
0.000671071
4.65497
11.233
54.8746
0.00121199
0.00280385
1.18775
1.21884
1.18534
1.21235
1.23856
1.19969
1.17464
0.569316
0.840844
0.851311
0.912837
0.444741
0.446453
0.907975
1.1335
1.17958
1.19346
1.12292
1.22597
1.26209
1.40265
1.32764
1.29404
1.24081
1.30682
0.876928
0.612617
0.931062
0.929908
0.466385
0.451323
0.971345
1.16444
1.28703
1.22292
1.23149
1.16182
1.09982
1.10753
1.07134
1.1158
1.12049
1.14824
1.20842
1.19437
1.20601
1.19797
1.18636
1.12857
1.14344
1.1747
1.22813
1.23482
1.28795
1.33577
1.19819
1.24839
1.31068
1.19741
1.11343
1.24475
1.22798
1.15852
1.15425
1.27585
1.23569
1.31068
1.23727
1.30849
1.21637
1.24055
1.17481
1.28581
1.22483
0.907651
0.938613
0.729464
0.996744
1.02828
0.702868
0.566498
0.783602
0.615384
0.492307
0.388503
0.35888
0.537002
0.987415
1.41804
1.08593
0.76731
1.19117
1.08086
0.843839
2.64153
1.68014
4.04745
2.86446
1.71156
4.10873
2.59531
2.80008
3.02724
2.01882
4.87116
1.80635
4.33486
3.16105
11.2224
10.4349
7.27973
6.95401
10.4943
7.31854
11.1632
9.52577
5.4008
9.18676
7.50381
8.37184
6.78164
10.4291
11.6139
7.24664
11.9819
8.62337
10.8643
7.61839
12.8069
1.6534
1.57453
1.46842
1.76255
1.44236
1.82069
1.68248
1.02827
0.792104
1.19026
1.21254
0.506398
1.05862
0.584305
1.52842
1.39907
1.34234
1.58554
1.96038
2.08341
2.5488
2.36137
2.15285
1.99146
2.33888
1.44445
1.7908
1.24329
1.45676
0.898619
0.714129
1.78191
1.81637
2.19897
1.86593
2.18174
1.6225
1.43336
1.43161
1.627
1.94698
2.03243
2.28388
2.33747
1.95128
1.97957
2.28223
1.90673
2.23906
1.91421
2.22581
1.25273
2.00574
1.52179
1.16606
1.37468
0.968844
1.6674
1.02352
1.7661
1.31137
0.913096
0.811092
0.637082
1.1643
3.39016
1.93031
2.51749
1.45827
2.79484
2.11572
1.86977
4.98577
2.41054
5.886
5.35171
3.83244
3.08084
7.61271
6.92459
7.39022
6.08062
14.7457
4.1989
10.4106
10.1331
19.0401
14.2381
10.7648
13.4885
15.2053
17.9082
14.0361
20.1381
12.2595
24.649
20.6026
18.0389
14.9765
27.1666
24.4378
17.1459
30.0636
20.1682
23.2118
17.6221
31.0424
3.1
2.95268
2.71611
3.17344
2.72398
3.33599
3.03384
2.60559
1.56221
1.94221
2.47009
1.11622
2.12848
1.36457
2.90622
2.52332
2.55517
2.82177
3.49603
3.53698
4.21697
3.81293
3.73317
3.3728
3.99189
3.77476
2.4309
3.11044
2.85554
2.12121
1.68169
3.39492
3.27696
3.58208
3.14035
3.77468
2.76929
2.54536
2.51591
2.82686
3.10632
3.35991
3.47691
3.6766
3.12021
3.27557
3.464
2.8654
2.57602
3.16181
2.86391
2.84857
2.58831
3.17445
3.04526
3.55963
3.13636
3.42521
2.83579
2.84402
2.56054
3.15749
6.55957
3.31231
4.34276
3.15305
3.84052
2.42274
5.51531
2.75858
3.5779
4.9581
2.44095
2.2436
1.70978
3.25588
14.8255
5.73079
8.00814
4.2086
12.9882
8.31855
6.02022
23.267
9.2106
21.2101
23.224
15.3243
14.3478
30.1625
34.0295
33.8112
33.7547
51.8297
22.3617
41.0199
45.7219
8.18988
38.5486
21.1362
16.2958
31.9364
24.5369
6.04327
52.7942
46.7421
34.229
60.0215
56.0964
50.2724
8.68162
0.745149
3.48962
0.147996
0.0174314
5.095
0.865293
0.00817745
5.82602
4.88211
4.44925
5.62383
4.68986
5.88576
5.49355
6.3119
5.72298
4.1217
5.49705
2.80185
4.20555
3.94334
5.77286
4.27366
4.53409
5.4202
7.50646
6.70092
8.10348
8.67676
7.00744
7.03518
9.34146
12.2095
8.66135
8.3588
7.56897
9.18462
5.90005
10.6297
7.78628
9.97321
7.33506
10.7561
4.43808
3.63531
3.29158
4.03118
3.64437
4.43202
4.02756
4.91849
4.20282
3.99586
5.24841
4.46223
3.29176
3.65344
4.03767
6.17851
6.4127
6.79793
8.23036
5.94408
6.70498
7.50663
5.55365
4.85757
6.1365
5.9679
5.36383
5.01678
6.66847
6.43916
9.3366
7.00446
8.37488
5.75797
6.492
5.18352
7.34021
37.8643
23.347
12.0616
15.3921
20.4722
9.35641
32.4014
10.4565
31.3653
17.2604
12.5091
12.2468
7.09795
23.2339
54.0681
33.1764
56.2271
26.3616
61.3778
47.5604
43.8225
63.2902
46.8527
60.6723
64.2282
55.8429
57.4681
68.5207
69.5406
59.0702
73.5855
1.26502
65.1341
7.47914
14.9904
2.22586e-05
0.0014001
0.00021852
0.0236722
1.32708e-05
0.00792468
0.000171798
0.0361946
1.9407
53.2623
5.91331
4.04738
0.0104089
17.1147
0.243971
13.8995
46.9304
46.4959
8.73667
0.966278
35.2196
55.1116
19.9845
29.5319
24.7368
38.6184
31.8633
42.9028
76.7812
51.4495
77.095
74.7276
62.5279
64.85
85.2019
21.5346
8.23094
12.0739
11.0464
14.235
12.9483
18.1768
42.9951
40.8683
45.0846
62.5328
32.5654
53.2161
52.0029
35.5785
22.8796
38.5097
40.0348
26.7484
30.584
44.8109
4.91115
8.56961
0.00200236
7.51539
0.400354
0.00020139
17.6643
2.04988e-06
9.84628e-07
3.65087
2.36266e-05
6.28858e-11
6.37106
41.6569
1.02405e-06
56.9613
7.39242e-06
6.94667
5.92611
7.18625
9.91711
16.0656
5.68716
13.4171
11.7622
7.5477
2.26334
15.3053
18.9617
13.2075
1.1968
16.5365
14.9475
0.485808
17.9056
40.2743
28.6198
0.0879167
3.46404
31.4391
29.1869
47.0574
4.01162
3.34362
5.38975
4.944
3.37603
5.42071
3.97883
8.3526
5.30223
8.14715
10.0916
6.19283
7.23983
10.8445
16.4704
14.5734
18.1455
18.1561
15.5312
15.7906
18.5318
4.68081
18.0657
0.668207
0.305119
19.0711
18.635
0.0100249
15.844
6.12719
10.8845
9.87731
10.7133
9.54325
16.2875
35.1333
5.66709
2.8758
47.9745
45.8635
0.00802919
0.00845765
4.22696
5.17941
4.13674
6.45771
3.57174
5.66503
4.86739
11.1243
13.271
12.5087
16.7571
9.83518
14.0692
13.7565
8.4684
4.07364
8.79474
8.71755
6.57698
6.39235
10.9221
14.2039
10.9397
10.9799
9.51534
12.8934
12.7343
12.679
16.9707
18.2441
17.0269
6.39474
16.4539
18.9093
17.3856
15.1415
11.4435
15.2094
14.9415
14.0842
13.8621
16.0009
19.482
16.5764
16.3032
17.4738
17.233
19.0124
18.7529
1.69
16.0746
38.402
43.5601
18.1638
1.40103
41.5766
20.6468
21.5443
36.4475
29.4101
24.378
22.8062
39.5885
26.4533
20.6607
30.1896
36.843
20.1619
27.5272
34.9398
10.6382
13.2013
16.7806
12.3684
20.8906
16.591
13.7746
9.58496
7.60261
13.9255
8.44329
11.5117
10.2981
11.9758
8.38631
6.54488
5.64405
6.46021
7.36649
9.67287
8.87954
2.20856
1.49644
1.53418
2.21757
1.35997
1.38969
2.17576
25.3605
18.4868
18.8089
15.7961
4.65908
17.0648
1.27903
0.100846
0.0394245
9.00892
16.6839
0.795425
17.9383
0.691488
4.12434
2.10312
2.63327
4.17671
1.90928
3.22448
2.39371
27.382
6.29317
36.8632
19.4127
0.274108
36.9557
0.0180026
1.17884
6.18553e-06
0.0239906
20.3656
0.137306
26.6317
0.00115487
20.2617
7.23626
11.0651
20.4728
6.69585
12.9841
10.3342
65.4033
0.000842719
51.3591
46.8735
0.00593534
0.0447986
1.3949e-05
3.05823e-06
3.20476e-08
0.000826698
6.79326
1.88776e-06
0.00139282
6.55304e-09
72.3124
65.2594
44.1208
64.3701
38.9685
57.1378
52.2053
1.03314e-12
4.63941e-08
0.00887879
0.00517481
2.16622e-07
1.03286e-06
1.18298e-12
6.26551e-12
6.56719e-15
8.1925e-09
4.54792e-07
3.96137e-13
8.07324e-08
7.15284e-15
35.9107
92.7113
59.0842
77.7057
26.3899
47.3317
48.3644
51.5106
49.9432
66.1836
55.2703
55.5466
54.0152
26.0527
13.3783
81.8057
111.41
36.1703
83.8605
85.2763
98.5739
36.6342
61.6861
44.3919
28.5182
68.0081
73.8717
83.9465
1.37545e-07
33.612
0.000884616
98.2643
5.96875
0.000349023
0.000616361
61.392
58.8011
0.00101339
86.246
21.2036
0.528057
0.000155171
1.6133
2.64102
1.78934
2.35454
1.6234
1.46298
2.66155
8.25051
3.50168
4.91874
5.75939
4.51421
3.19368
8.4379
50.2155
17.4935
27.8732
31.7587
25.7699
16.3707
45.6603
75.8218
69.4955
76.178
69.5221
70.1809
61.6135
71.4092
95.1515
81.3473
76.6765
91.1364
78.299
69.0935
93.6072
7.52709
2.44651
2.63688
3.15152
13.2351
3.28888
14.1335
28.972
3.54521
6.19848
4.20475
19.9874
7.25963
35.8186
91.1227
13.8937
37.9985
18.1923
62.8502
59.4969
92.0305
20.7627
0.285576
74.3384
105.17
0.0144266
0.0285815
0.000109944
0.001147
97.1404
96.1544
88.8017
0.00720939
0.00107187
0.000426185
3.71431e-12
7.76981e-07
0.133582
1.41448e-05
8.23572e-10
5.7153e-10
2.22045e-16
23.5085
18.0599
17.3502
14.5676
29.7997
20.8762
27.3109
1.95256
84.9918
82.5624
6.13574
36.5249
0.0731139
0.00275032
84.2186
22.5603
78.8894
8.02194
90.671
2.20936
10.182
47.4613
45.0343
41.0064
45.0815
48.923
48.864
51.4585
2.21708
1.56093
8.83146
9.49491
12.7827
9.73237
13.276
11.9639
0.0126579
18.1362
13.0002
4.96452
19.8504
0.764574
0.0145928
0.000682143
0.46976
19.1403
0.0517884
0.766492
0.00116691
5.74579e-11
7.07035e-09
0.000562929
0.191272
4.22411e-05
0.00676778
1.63184e-07
44.6541
42.431
38.258
36.5437
40.5117
39.5203
42.5038
57.3659
52.4837
15.0116
35.7401
37.8001
37.9155
39.0279
38.2965
40.9503
40.9551
6.34287e-06
1.23225
1.63667
2.52091
2.37822
2.5764
11.2879
1.43716
1.355
1.22307
1.66336
1.46895
1.43318
1.20495
2.26755
2.01824
1.62514
3.21043
2.99533
2.63331
2.18696
3.26314
4.36118
3.00684
3.07794
5.30904
4.11534
2.66275
2.13889
2.7517
5.56112
4.6721
4.91865
6.19618
2.0871
2.0577
68.1286
1.50134
1.61466
1.50975
1.6025
2.24201
3.33945
2.27692
3.33288
5.07926
6.30508
4.77512
6.5177
6.54487
5.63951
9.52902
13.488
1.39366
1.31405
1.34589
1.49078
1.32515
1.3537
1.44881
1.39104
1.41256
1.4574
1.34345
1.28873
1.32468
1.29895
1.51203
1.41202
1.54522
1.5733
1.5594
1.42146
1.73941
1.54329
1.7256
1.61929
1.42969
1.55076
1.40312
1.60359
1.90799
2.07361
1.76099
2.38717
1.78416
2.005
2.10504
2.43971
1.86547
2.21301
2.26567
1.78059
1.87941
2.10258
2.73003
2.88306
2.4668
2.87061
2.94143
2.50499
3.39627
3.66869
2.66359
3.19997
2.75893
2.99709
2.51718
3.32222
3.52366
3.48058
3.16344
4.19376
3.33268
3.87167
3.63457
4.93152
3.75848
4.26753
4.27149
3.46996
3.85505
3.88404
3.24091
3.21299
3.42624
4.35279
3.97798
3.85199
4.35529
5.50861
4.71503
5.15987
4.58011
4.6319
4.25394
4.82859
2.84104
2.95706
2.99515
3.89298
3.94644
4.193
3.69402
5.32262
5.67022
6.22224
4.86609
5.14166
4.97317
5.78596
4.4638
6.74835
7.03347
4.55069
6.46777
6.26001
4.09505
1.53614
1.61145
1.65235
1.73828
1.92758
1.77317
2.70536
2.03566
2.41652
4.16213
2.92933
3.56178
5.83667
4.23617
4.86777
6.53212
5.42708
5.99812
6.25363
6.5798
7.17988
5.16653
7.7873
7.8464
3.28857
3.38502
4.43913
1.37812
1.26884
1.28148
1.24712
1.29428
1.30589
1.33984
1.46047
1.3108
1.49898
1.51662
1.36317
1.37754
1.61587
2.20364
1.71473
1.7294
1.89556
1.85948
2.01788
2.02381
2.64579
2.24365
2.80962
2.83835
2.39745
2.40522
3.13013
3.88575
3.18989
3.25143
3.34815
3.55919
3.51394
3.6133
4.16331
3.70258
4.16117
4.37446
3.81612
3.96526
4.45933
4.86161
4.53917
4.94364
5.38493
4.74472
4.77915
5.64787
4.75133
5.96019
4.39575
6.3473
4.71817
6.16116
96.4662
37.2968
2.1597e-09
2.22045e-16
2.22045e-16
4.51478e-08
6.26592e-15
1.95586e-12
2.22045e-16
9.34388e-14
1.26406e-06
2.32316e-12
3.77216e-08
2.11025e-14
1.26617e-08
4.18441e-16
2.22045e-16
1.70412e-13
8.68509e-08
4.33e-09
0.00207015
1.3732e-10
2.27697e-16
2.05798e-08
6.56333
2.72823e-07
8.95108e-13
0.0325963
2.13546e-08
2.57019e-14
8.36814e-13
3.63854e-06
1.13158e-11
1.80055e-05
8.03062e-11
5.97693e-07
2.21042e-13
5.66336e-06
0.0358873
5.06854e-06
5.01284e-11
0.0184687
5.1966e-06
3.89842e-11
2.22045e-16
2.22045e-16
2.22045e-16
9.24809e-12
2.32184e-11
2.22045e-16
1.23417e-13
2.22045e-16
8.2395e-13
2.22045e-16
2.22045e-16
2.43039e-10
9.00602e-10
2.22045e-16
2.22045e-16
2.5373e-12
3.32531e-12
2.22045e-16
2.22045e-16
6.73703e-16
2.22045e-16
2.22045e-16
2.22045e-16
2.22045e-16
2.22045e-16
2.22045e-16
2.22045e-16
2.22045e-16
2.22045e-16
2.22045e-16
2.22045e-16
2.94781e-07
5.51457e-13
8.93805e-09
3.61495e-15
4.28217e-13
2.22045e-16
2.22045e-16
2.22045e-16
2.22045e-16
2.22045e-16
2.22045e-16
2.22045e-16
2.22045e-16
2.22045e-16
2.22045e-16
2.22045e-16
2.22045e-16
2.22045e-16
2.22045e-16
2.22045e-16
2.22045e-16
2.22045e-16
2.22045e-16
2.22045e-16
2.22045e-16
2.22045e-16
2.22045e-16
2.22045e-16
2.22045e-16
2.22045e-16
2.22045e-16
2.22045e-16
70.7231
4.53416
44.9907
2.97549
2.39378
3.43807
5.26627
6.0241
7.74267
4.97426
18.5027
7.25354
3.30625
4.04119
5.53349
2.88654
3.90267
4.59241
3.41243
2.81695
3.34699
3.07247
3.72532
3.40734
3.42549
3.87066
3.29768
2.88187
3.82151
5.41939
15.6851
95.7117
52.6529
10.4033
27.7738
15.7606
66.869
4.41548
3.1058
3.27123
3.72012
4.23296
3.49643
3.76702
3.87183
7.16618
7.45658
9.25318
5.81657
6.71064
4.55014
7.5254
5.05921
4.15264
6.28848
5.88965
4.41518
4.54253
6.50373
6.95398
23.818
18.2398
9.38336
9.13123
12.6978
13.8718
46.5357
3.35203
4.35276
1.71865
0.991304
1.04626
1.22203
1.65628
1.7291
1.91911
1.97996
1.9391
1.00935
1.1682
1.18907
1.23644
1.12243
1.32577
1.42849
1.53627
1.33258
1.54068
1.63331
1.43585
1.89661
1.64153
1.75664
1.82951
1.65473
1.8875
2.00755
1.75905
2.124
1.78821
1.9673
1.80671
2.02123
2.30608
2.14639
0.956677
0.967192
0.987048
0.958737
0.976434
1.00156
0.982789
1.21721
1.38542
1.34941
1.39693
1.22231
1.23247
1.25513
1.01569
1.0269
1.10937
1.01842
1.10542
1.1304
1.04298
1.076
1.01189
0.993426
0.980641
0.998367
1.04017
1.05806
1.51153
1.71006
1.5464
1.47147
1.53135
1.66339
1.59481
46.0424
81.4134
76.7407
21.6374
29.9515
27.1914
54.2659
19.8383
31.2724
35.8137
3.41318e-05
1.6588e-06
1.87156e-10
4.42475e-16
1.90996
1.74461
1.77818
1.87046
1.99762
2.02221
1.85679
2.19322
3.05896
2.29998
2.53274
2.71606
3.80074
4.07886
3.31001
4.79453
7.01103
4.91611
5.97592
5.74821
7.67916
7.34399
6.54976
7.96791
7.21101
8.0069
7.90771
8.66125
6.49203
9.96161
9.10715
7.5025
2.22045e-16
8.23037e-11
2.22045e-16
8.54622e-13
2.22045e-16
2.22045e-16
2.22045e-16
2.22045e-16
2.22045e-16
2.22045e-16
2.22045e-16
2.22045e-16
2.22045e-16
2.22045e-16
2.22045e-16
2.22045e-16
2.22045e-16
14.6646
11.3266
20.8372
0.0125191
1.5933e-06
0.000656382
2.28582e-09
8.40041e-10
1.23798e-13
7.89947e-12
2.22045e-16
1.12738e-14
2.22045e-16
4.29961e-16
2.22045e-16
2.22045e-16
2.22045e-16
2.22045e-16
2.22045e-16
1.13475
1.12125
1.2109
1.04196
1.10527
1.12908
1.20019
1.41141
1.35308
1.43666
1.53474
1.26435
1.35215
1.55155
1.78512
1.88552
2.04029
1.87581
1.80455
1.95558
1.816
1.73823
1.827
1.63063
1.92525
1.7319
1.77897
2.01254
0.963008
0.978151
0.993583
0.978759
0.995048
1.01464
0.997421
1.12963
1.15227
1.25948
1.11556
1.13577
1.22888
1.25227
1.31986
1.4419
1.31029
1.1891
1.2963
1.3133
1.43692
1.99196
2.19561
2.01562
2.21482
2.08694
2.23093
2.43199
1.03356
1.1042
1.11543
1.02948
1.10099
1.13664
1.05426
0.991683
1.0076
1.03515
1.04355
1.06022
1.0683
1.08611
1.47577
1.69327
1.90407
1.46959
1.69941
1.63636
1.90949
1.39336
1.22961
1.23765
1.39644
1.20848
1.34676
1.25491
1.94004
2.55886
2.22364
1.9657
2.24754
2.23692
2.58869
1.5572
1.53439
1.67411
1.58458
1.77594
1.50651
1.66614
1.07924
1.10754
1.14195
1.16763
1.20356
1.22312
1.13173
1.12383
1.16878
1.18266
1.20371
1.19097
1.11755
1.13712
1.86352
2.25253
2.36029
1.95362
2.19641
2.10667
1.8641
1.28049
1.30284
1.35419
1.5549
1.57261
1.36892
1.4841
1.66431
1.79547
2.04732
2.10027
1.82824
1.70423
1.93149
2.38306
2.95376
2.81442
2.50691
2.73091
2.90678
3.16685
1.9043
1.81669
1.97782
2.12065
1.94862
1.81554
1.97109
1.28236
1.28501
1.2644
1.24652
1.38484
1.35433
1.18674
2.55452
2.08635
2.36911
2.38301
2.3217
2.6202
2.81785
1.76814
2.64189
5.97363
18.2956
2.28396
2.62917
1.8677
2.97496
5.63427
3.76292
7.29509
12.4638
9.45254
13.603
2.2081
2.47822
2.02015
2.3243
2.52142
2.05768
2.16271
2.3093
2.42505
2.89229
2.32686
2.64176
2.14531
2.52441
3.48296
3.32569
2.63215
3.52958
2.89542
4.01635
3.10122
4.35542
4.38987
6.79218
4.74792
5.08786
3.79635
5.59284
8.65405
9.07406
5.88212
9.24633
7.15722
11.1637
7.08904
9.57839
11.0239
12.2173
9.31157
12.3572
8.31588
9.86952
8.35919
11.2731
10.1266
14.7367
9.27075
11.968
10.7595
29.0392
39.2782
9.39604
18.3085
27.103
16.3119
16.9272
11.7802
14.3265
2.4745
16.982
62.3017
0.000516479
2.22045e-16
2.22045e-16
2.22045e-16
0.945766
1.23088
4.37136
16.9348
34.3974
1.47268
0.999008
1.55292
2.17356
1.7587
6.1296
8.86524
8.29592
18.1164
18.8676
26.2908
23.1832
34.0155
27.5512
30.4975
1.44079
2.07974
1.52472
2.26868
3.19429
5.74942
4.97469
14.2635
18.2686
27.5667
13.2973
26.0564
22.3003
4.97051
28.1968
0.609435
0.0514829
0.982678
36.8204
7.60075
1.0961
8.4549e-08
1.39502e-13
2.22045e-16
2.22045e-16
2.22045e-16
3.68455
4.07694e-08
6.57222e-14
2.35711e-08
3.91717e-16
2.22045e-16
9.45158e-15
2.22045e-16
2.22045e-16
5.33849e-06
1.37793e-12
2.22045e-16
47.1311
8.08298e-08
1.22524e-13
1.3701e-11
2.22045e-16
2.22045e-16
2.22045e-16
2.22045e-16
2.22045e-16
2.22045e-16
2.22045e-16
2.22045e-16
2.22045e-16
2.22045e-16
2.22045e-16
2.22045e-16
2.22045e-16
2.22045e-16
2.22045e-16
2.22045e-16
2.22045e-16
2.22045e-16
3.68428e-13
2.22045e-16
2.22045e-16
2.22045e-16
2.22045e-16
2.22045e-16
2.22045e-16
2.22045e-16
2.22045e-16
2.22045e-16
2.22045e-16
2.22045e-16
2.22045e-16
2.22045e-16
2.22045e-16
2.22045e-16
2.22045e-16
2.22045e-16
2.22045e-16
2.22045e-16
2.22045e-16
2.22045e-16
2.22045e-16
2.22045e-16
2.22045e-16
2.22045e-16
2.22045e-16
2.22045e-16
2.22045e-16
2.22045e-16
2.22045e-16
2.22045e-16
2.22045e-16
2.22045e-16
2.22045e-16
2.22045e-16
2.22045e-16
2.22045e-16
2.22045e-16
2.22045e-16
2.22045e-16
2.22045e-16
2.22045e-16
2.22045e-16
56.9234
2.86348e-10
1.21405e-07
2.92812e-08
2.22045e-16
2.756e-14
9.28798e-15
2.22045e-16
2.22045e-16
0.0444026
9.01333e-13
2.22045e-16
37.7875
8.07625e-08
1.81556e-13
38.4488
0.0510786
1.38645e-12
2.22045e-16
2.22045e-16
2.22045e-16
2.22045e-16
2.22045e-16
2.22045e-16
2.22045e-16
2.22045e-16
2.22045e-16
2.19207e-07
1.02847e-12
2.22045e-16
43.6978
1.85406e-07
3.29595e-13
3.39028e-12
2.22045e-16
2.22045e-16
2.22045e-16
2.22045e-16
2.22045e-16
2.22045e-16
2.22045e-16
2.22045e-16
2.22045e-16
2.22045e-16
2.22045e-16
2.22045e-16
2.22045e-16
2.22045e-16
2.22045e-16
2.22045e-16
2.22045e-16
1.78043e-07
9.02354e-13
2.22045e-16
2.22045e-16
2.22045e-16
2.22045e-16
1.06972e-12
2.22045e-16
2.22045e-16
2.22045e-16
2.22045e-16
2.22045e-16
2.22045e-16
2.22045e-16
2.22045e-16
2.22045e-16
2.22045e-16
2.22045e-16
2.22045e-16
2.22045e-16
2.22045e-16
2.22045e-16
2.22045e-16