/*--------------------------------*- C++ -*----------------------------------*\
  =========                 |
  \\      /  F ield         | OpenFOAM: The Open Source CFD Toolbox
   \\    /   O peration     | Website:  https://openfoam.org
    \\  /    A nd           | Version:  9
     \\/     M anipulation  |
\*---------------------------------------------------------------------------*/
FoamFile
{
    format      ascii;
    class       volScalarField;
    location    "0.0015";
    object      overpressureMax;
}
// * * * * * * * * * * * * * * * * * * * * * * * * * * * * * * * * * * * * * //

dimensions      [1 -1 -2 0 0 0 0];

internalField   nonuniform List<scalar> 
12179
(
1.35782e+06
217130
1.08265e+06
59672.5
636389
362321
2059.73
710927
511323
591360
401.57
333112
690886
744234
324206
589691
29.4535
25558.3
0.300587
1.15913e+06
85439.7
1.05545e+06
14670.3
658681
12538
443.429
1.26175e+06
1.21016e+06
1.25087e+06
887720
915555
1.02196e+06
964281
596665
503035
593705
256880
592486
531083
357199
894786
1.12275e+06
871098
869953
607287
927728
804170
600634
337713
9899.59
457791
491234
606667
187996
1.31179e+06
1.27212e+06
1.31729e+06
1.23725e+06
1.19624e+06
1.15619e+06
1.19468e+06
646676
953582
929926
1.00759e+06
745737
945347
721548
1.12134e+06
857814
879787
777181
761326
1.00621e+06
976306
1.22525e+06
1.20979e+06
1.17791e+06
1.11584e+06
1.10163e+06
1.0743e+06
1.14932e+06
1.28756e+06
1.19426e+06
1.22053e+06
1.13145e+06
1.17514e+06
1.14086e+06
1.10729e+06
600782
565779
559406
574262
573468
523765
520098
593141
545559
552455
581801
575615
517086
515197
486210
135304
429.423
513400
269379
421070
2718.82
506540
813973
835493
695843
586656
927673
888143
990898
1.12584e+06
1.08831e+06
1.05323e+06
988662
960273
1.08689e+06
1.01683e+06
1.13618e+06
1.01551e+06
1.0695e+06
979275
1.05287e+06
972477
893557
845365
496738
729410
954130
773759
28873.3
1.16751e+06
1.13649e+06
1.16699e+06
1.10294e+06
1.05148e+06
1.08134e+06
1.06372e+06
718289
853561
697456
714514
854688
862595
731487
887658
3254.41
670805
858970
651696
695082
16723.6
1.13091e+06
1.10826e+06
1.08333e+06
1.05647e+06
1.03191e+06
990519
1.01103e+06
547132
523264
539632
477280
495447
490143
471234
1.01809e+06
1.00415e+06
897159
952414
929572
981085
1.04617e+06
973681
1.04749e+06
1.06993e+06
1.03813e+06
940996
945894
1.02351e+06
593051
540196
536725
592848
515869
608358
521095
520473
513887
530746
484413
456928
478820
464280
981541
992104
966597
876462
911181
889924
897617
1.10515e+06
1.00344e+06
1.01313e+06
1.00806e+06
1.03252e+06
962314
948960
417996
22822.8
3.5995
268756
474377
74468.2
164.67
486534
49452.7
6.68939
538597
2275.37
161235
42.6856
697558
954933
929260
806076
293376
787963
48915.9
182195
2212.68
426530
372356
59865.8
1967.74
8.78031
576097
594650
578244
495417
500609
499946
490036
1.10336e+06
1.06475e+06
1.07254e+06
1.01716e+06
1.02165e+06
980405
979771
133549
907888
781941
530844
11378
880375
763091
1.0054e+06
967531
887960
915672
917714
996936
970366
886465
763516
741931
865220
759844
747497
862837
926506
975230
947817
861070
863227
843193
882155
804552
281800
44.2264
418732
860513
1366.71
758868
593794
597671
584055
501393
454792
505954
478370
998766
877470
931164
910356
980504
920774
865649
960830
933284
947096
862163
864413
873825
853767
1.0577e+06
987389
1.03533e+06
948262
921573
906661
966274
1.05235e+06
943386
984420
1.43046e+06
1.32205e+06
1.47664e+06
1.11299e+06
1.3921e+06
1.02964e+06
1.14707e+06
712584
836668
1.15963e+06
979477
812032
705229
1.455e+06
1.45019e+06
1.42777e+06
1.34162e+06
1.3138e+06
1.29283e+06
1.32392e+06
1.39829e+06
1.36105e+06
1.39914e+06
1.267e+06
1.27363e+06
1.23426e+06
1.30211e+06
1.37367e+06
1.2804e+06
1.29369e+06
1.20416e+06
1.27578e+06
1.25738e+06
1.18965e+06
993804
1.16443e+06
989275
1.11167e+06
986753
1.10376e+06
985838
1.35085e+06
1.24416e+06
1.26433e+06
1.23537e+06
1.15335e+06
1.20683e+06
1.17331e+06
668590
805871
668246
674676
825272
828610
678316
1.22316e+06
1.08263e+06
1.19175e+06
1.17323e+06
1.09509e+06
1.06537e+06
1.20607e+06
1.15489e+06
1.00987e+06
1.00166e+06
1.08367e+06
1.09511e+06
985438
983889
1.15008e+06
1.01919e+06
1.15943e+06
1.07604e+06
1.1213e+06
1.04503e+06
1.18546e+06
682116
822334
672803
835362
698670
844862
686231
1.05794e+06
1.11433e+06
1.16324e+06
1.14616e+06
1.01733e+06
1.04234e+06
1.1011e+06
1.12508e+06
999790
1.06766e+06
1.00202e+06
1.09988e+06
1.02298e+06
1.08544e+06
1.0483e+06
911336
956973
969013
1.03859e+06
951541
903840
818603
694469
831631
831567
705282
814706
696899
1.01496e+06
956997
1.02807e+06
946271
887968
939480
896632
833980
808528
712098
708339
836600
811576
702989
615517
543807
536968
646533
627325
531565
533618
362242
786880
804576
8089.8
583.609
714632
606504
510396
479336
500898
449142
474196
471559
440456
963574
864595
943669
907112
844886
832280
923570
505817
492077
484980
460715
454484
443396
437355
837206
722674
716120
835330
704603
798483
732551
910283
919661
902926
847577
825782
830998
841035
902292
898290
876835
841417
822950
801760
816686
988238
1.02442e+06
981467
967678
930586
952193
907894
421741
435830
460165
457268
337019
408501
431749
1.02163e+06
976543
1.02393e+06
938943
898020
897166
939430
50516.2
504.53
4.7066
0.224888
162.677
20263.7
2.73392
574010
413961
512347
531262
621593
503368
348486
797638
736196
823608
737006
727499
808445
811831
934916
856882
934490
898718
825725
825268
899538
496813
467214
476890
439385
447386
425486
402559
455014
408281
352286
304827
453472
386474
425110
936851
891206
960078
907960
834029
851170
892194
822094
867536
850008
778801
763558
754750
790791
883824
862351
864760
808831
812327
792223
789424
938961
904619
891152
877512
864852
823621
833524
784332
703451
782089
724673
769357
716127
798381
914929
567743
4309.95
653899
8215.3
53861.6
4.61706
490006
467973
493935
467713
356802
412881
436826
870540
810584
768782
845236
834322
800764
884410
780227
787427
885736
764776
855426
843284
762285
908711
898606
850902
841053
831882
803288
795455
1880.81
865641
710682
431.249
1.17076
546284
15391
830863
739636
774021
670381
791052
739112
824055
892790
865030
852800
832115
821270
786085
794851
556689
677273
652814
558034
497869
612994
411401
787129
708827
729098
789863
720306
797434
780083
814473
839120
840315
770899
746871
768919
748293
990251
911989
942106
885995
920129
881641
852425
875017
842670
833028
809664
821673
787013
775915
787655
685977
781982
545281
728316
711125
513131
461900
456255
426930
440543
395903
364462
303511
928409
880951
881371
855706
856024
815026
813725
780968
129663
10.8608
98.6069
445041
1.92746
1208.07
377737
298073
440587
408233
106254
217157
327540
774801
692124
755545
685697
760310
709521
769003
862625
793452
762262
825940
826278
793799
863414
467158
403835
460936
253026
394141
374159
217557
911635
813792
872136
818432
883779
848842
785190
882402
841242
843656
810183
812691
778152
775448
349996
856.815
2.57503
1696.55
15.9508
4.64184
0.600675
584577
458681
619781
467883
124543
246740
398256
411193
239627
398621
132732
344906
320811
102150
685157
763893
752643
734177
663898
644972
744136
518502
380223
353842
303325
261198
136287
104898
821635
844123
808922
795575
779718
752926
711130
793652
774512
765736
737261
729981
702576
711518
777037
771477
643893
685239
393338
646426
464524
854748
797434
843731
782375
748772
742199
790718
486093
352173
445465
257529
370410
246649
117469
439112
376165
453625
342758
108269
294750
167907
737239
807108
798215
762248
696697
679453
769679
345262
194356
377811
283539
33162.2
228752
66178.4
657191
740382
744495
726983
497129
598140
720329
823270
774098
813210
751701
718405
704364
758768
7382.42
278.599
2.12692
209.48
0.582724
5.22854
0.152277
785124
852641
871646
826488
637209
800608
727137
449214
330417
401397
248865
341171
209297
97644.6
437870
250810
311959
132948
202192
68200.1
35091.5
787174
759496
759649
707810
724323
678048
616666
878825
873097
848810
843499
821554
809993
756755
0.225029
202111
895.704
0.458596
0.0869706
1236.6
2.11101
352648
39946.5
135247
39680.9
117120
247029
256904
714591
468629
698230
603384
575691
686582
722380
710283
726119
813297
795723
324742
633628
641922
789005
820246
853361
823309
573102
786229
712035
729514
789086
790178
754864
542402
635545
749597
833893
789786
835098
775134
685683
729848
773060
825550
763161
794128
707600
759000
644161
538168
800.19
7749.46
3814.88
304028
3416.67
29.9719
247.571
0.407699
170066
257071
87512
69292.9
14336.5
26628.1
5132.27
738401
576917
757468
656432
250844
607485
337199
764385
673096
756089
725536
582676
550558
732262
621959
775568
767308
451188
711857
689572
404574
409605
178428
359011
52494.5
224625
134651
18215.8
268427
129161
237347
15353
54721.4
37667.7
10075.1
611004
675221
504007
329127
513888
249880
78773.3
766048
801957
804768
743986
582477
666985
725121
600030
532124
730830
296808
588066
501351
184995
744926
703493
737798
630440
526747
491393
652296
832506
831915
801729
801042
741239
756303
615671
442489
279877
426329
486588
410263
246513
78785
110.192
0.285438
0.253173
0.202307
9.80255
0.519268
0.0342828
293736
28158.6
216421
13121.5
153532
77119.1
4509.63
506643
37335.7
275422
58890.8
364778
121598
7690.39
705868
378457
584034
373837
508364
670330
655957
628403
743926
749010
706737
314866
471574
651109
228522
211419
121992
76726.8
24843.3
30126.3
4535.08
130661
89602.8
190909
21170.3
2689.43
9929.33
5676.37
722801
556861
624898
245887
596104
521701
732232
716328
674345
731661
576433
243261
405226
464952
697090
733298
613117
582960
380367
461605
189258
25547.4
45755.1
204764
168912
1740.3
16489.2
30298
150307
218207
515745
475283
11280.4
113100
175227
702883
295050
643125
155548
535811
432892
72951.2
314700
643357
620902
506371
181053
143532
540337
777115
828125
713530
455147
721830
553729
192168
796378
776271
829258
557694
744241
591634
288565
784964
339121
687062
346561
685205
489385
96977.7
741261
135365
253499
299232
626980
477396
510682
175493
213013
349187
91978.7
3403.47
15247
24578.6
593443
427728
679599
376362
26182.3
83930.1
223691
796054
525691
712903
395997
629774
391466
125279
362129
532255
32.2327
186932
344143
446.242
556917
436111
427275
2398.97
456330
206247
91.5457
6819.4
65402.7
194486
63.3451
549859
499274
519130
512479
493315
469664
464039
541718
496075
504824
478621
486467
456447
440743
469577
508538
521002
486077
474665
412179
364443
155404
1059.7
3.65783
8.25929
4773.33
19.713
0.256775
481767
410962
475695
260119
411970
394215
226583
274244
444980
298298
140424
370167
349509
112953
479052
423583
494682
397645
450918
287819
175654
398091
421500
238080
317936
45978.6
271776
79613.4
457733
384798
468716
366546
120691
324592
179073
525750
588841
703308
456649
541899
806764
618474
574993
480813
580798
609182
198563
568078
559849
660626
432634
527011
794412
744674
721468
734231
710204
673449
663606
756311
777757
720638
677221
695831
651742
636789
704714
683430
731749
656186
633198
619046
599351
681699
610133
672173
570508
622688
614057
563096
644285
565941
634144
546973
607564
598640
539014
646800
600529
660809
603728
543780
591308
554148
606033
555057
621383
587958
518028
574841
529280
518381
503650
158069
67752.3
491856
228219
281.176
645477
636156
676114
582116
608389
577522
554218
575169
611410
630276
531663
576724
560060
517834
588045
511115
568512
504771
559409
542181
490322
524564
515046
567123
559176
474553
507878
517658
551961
581041
613555
554989
527977
529717
504647
523800
590813
542885
541561
485276
502380
521375
547518
477026
494260
523572
456808
474830
503670
549948
500176
490024
467386
538894
499764
509490
489380
478678
525997
511138
387906
465863
476929
420992
515911
477031
547630
521781
501396
479273
543768
503369
480325
453926
499883
476028
377445
460081
415805
482309
408558
482907
455829
312290
494968
379792
402445
312834
438652
454773
477364
124972
305284
361704
20905.3
205099
124831
7983.92
390709
282686
434039
62227.3
262445
175589
23008.8
235095
286651
419426
442179
276637
492033
412944
362682
301853
443303
258131
117650
64923.5
12964.7
14770.2
306145
75811
275540
442310
360065
127057
374841
30693.8
146054
316096
456380
379670
153403
24224.6
44970.2
213325
180866
1604.13
30716.3
16557.1
27971.7
95915.1
318105
83647.4
1697.88
6791.85
24194.4
115238
23720.5
219752
53368.1
706.487
2625.82
14795.2
39416
8123.32
118177
24831.9
313.932
1282.22
6098.97
212101
450349
565277
423253
18959.9
74429.2
263576
121699
7729.08
4264.58
938.829
71367.7
9044.33
16578.6
158457
276586
82841.9
53957.1
1276.66
5262.55
13550.1
695911
275805
149527
381118
523847
436480
630187
8837.23
42216.9
127146
33317.2
410.855
1734.68
7935.1
645041
386689
507213
100820
338889
467635
667358
761609
338456
657555
171902
526390
303903
39702.3
8626.77
5002.57
915.623
17603.7
9767.83
137242
87256.1
414823
38320.5
69354.9
6548.2
332661
72897.3
121578
70596.2
6931.22
27090.8
1049.95
4121.53
1397.37
353.549
412648
162190
550327
294265
6896.81
24584.9
147728
8367.08
841.287
17072.9
3949.45
91.982
1855.93
200.231
672027
82490
463119
110643
504535
224330
13423.5
210466
159254
459694
113834
11454.2
16180.5
1330.87
0.063528
0.157518
37.3543
0.100474
0.187597
0.0879842
0.00660069
44498.8
1505.1
30166.4
553.988
10319.6
6928.49
364.415
588883
46053.3
94958.9
202983
231033
370720
471652
139180
8066.15
30464.7
2378.3
8502.23
1543.34
400.471
626562
171358
398628
72736.8
250149
51542.4
8491
85921.2
94086.4
312745
712.165
9932.53
105446
8806.11
496.734
50859.6
6937.95
87578.9
259673
51112.6
6961.49
56256.2
206812
24286.9
2389.52
321.122
40047
5488.43
269.96
3449.62
60110.1
36606.6
218285
25025.4
2067.34
4722.9
3338.69
54794.3
2241.87
25917.6
36890.8
211529
3083.32
1662.82
30807.2
10299.8
53.322
548.937
1011.58
11624.6
42504.1
175923
27397.3
209.375
4338.72
1374.88
327157
49225.8
5652.86
159913
125182
34131.6
373933
458301
35701.4
272821
6712.88
88399
21355.5
1499.37
16477.3
31359.6
231536
127283
502.947
6270.18
11769.2
293782
355962
636351
268128
2553.61
43393.9
29273.5
12845.3
11764.5
80077.3
634.996
4771.28
693.084
89.6381
29649.1
52292.2
14831.5
4717.68
1494.65
2485.53
228.718
164.667
348.881
1681.49
35902
7329.8
3462.63
666.959
64.7233
364.29
5954.08
16522.1
82051.4
5319.45
972.47
235305
1714.18
46327.4
3251.43
83690.8
9967.36
369.678
223427
3663.53
2368.4
15954.2
62575.9
14149.7
93028.6
89359.2
162710
472976
193344
913.949
23519.6
10592
9474.28
4850.67
51715.2
269.142
2916.18
518.014
46.9661
3849.94
756.751
35420.5
399.53
1918.93
203.722
40.6762
1255.04
776.467
183.148
3634.45
2154.74
42811.2
15677.9
1.0415e+06
19711.7
604906
52.5796
428255
606058
364812
535008
589739
593031
537344
368542
961152
763657
734092
1.02227e+06
753405
955065
728711
607578
571074
574008
576471
578118
529504
527290
601009
568065
572916
572029
576353
528244
523912
3353.94
282854
517481
519557
287230
431136
3563.13
868119
673883
699906
872372
669650
706143
21294.8
550549
540452
555880
501624
479904
484307
497206
541382
553179
556892
502619
482114
499890
485214
1.01052e+06
1.04158e+06
1.01136e+06
915191
938878
939459
915264
2681.42
176836
543740
555506
2904.94
181888
55.7169
572065
593087
575674
502578
493752
497818
498791
594346
576531
577349
503966
498090
502466
499480
1.03474e+06
994078
1.00473e+06
909370
923269
900257
933500
983485
964961
985359
895063
879440
882654
893586
962809
972076
980604
890676
873294
883146
880272
1.51973e+06
991615
1.14944e+06
1.04482e+06
1.41696e+06
1.51899e+06
1.12925e+06
1.42111e+06
1.03947e+06
1.16709e+06
705272
797125
1.17677e+06
988532
805012
707285
1.52513e+06
1.48895e+06
1.49371e+06
1.35424e+06
1.38125e+06
1.35124e+06
1.38564e+06
1.4998e+06
1.48762e+06
1.47178e+06
1.34752e+06
1.36196e+06
1.33288e+06
1.37927e+06
1.42366e+06
1.30816e+06
1.31487e+06
1.30707e+06
1.22053e+06
1.30078e+06
1.22697e+06
1.40847e+06
1.31496e+06
1.30593e+06
1.30354e+06
1.21588e+06
1.29094e+06
1.22592e+06
1.17436e+06
982959
989533
993290
1.11975e+06
986711
1.12576e+06
1.1704e+06
989927
992977
995146
1.11969e+06
1.12675e+06
990488
802637
669790
664622
825924
668638
820716
673186
670297
805918
672052
828349
674538
826230
675655
1.22888e+06
1.26072e+06
1.11438e+06
1.1509e+06
1.22635e+06
1.11579e+06
1.26378e+06
1.22166e+06
1.14402e+06
1.24124e+06
1.09668e+06
1.20826e+06
1.109e+06
1.25691e+06
1.19278e+06
1.08223e+06
1.13072e+06
1.04991e+06
1.18803e+06
1.08523e+06
1.13635e+06
1.18862e+06
1.04809e+06
1.07069e+06
1.12559e+06
1.17685e+06
1.08065e+06
1.13477e+06
968991
1.05949e+06
920146
996900
963343
1.06485e+06
925074
969488
996154
1.05732e+06
918704
1.06466e+06
963611
924948
836511
823482
691028
709164
831591
828055
695219
838044
710282
823756
695176
834288
828412
697113
522851
495801
500866
463667
468064
450596
446299
523804
497781
501797
465584
468946
451428
448096
463826
436887
424895
372128
430563
440730
460112
464903
373500
428902
439322
463056
432038
441635
829196
846478
753678
763645
753833
846129
828888
824361
759419
833196
743892
817284
749974
841279
920204
872708
925150
851168
855837
816571
812310
924190
866116
916859
848116
854800
816015
810156
814804
803515
743357
735930
744100
806067
814334
811250
733661
735737
797212
805069
740777
803736
794442
705419
798471
746096
558048
570872
739113
798433
701559
793194
746346
564402
739386
573262
269103
470293
435029
475070
410155
281542
402763
415653
293482
420630
363882
148753
161511
355348
295112
418103
421585
365285
153611
358867
163511
436218
472229
475917
411412
274215
405818
283570
553069
388452
398755
318048
334444
163329
150371
550268
395273
401280
328075
338351
165904
156888
785632
681579
789120
734765
479173
493550
727029
679739
782534
788002
734497
479797
725848
493534
281232
189130
292346
71935.7
18819.2
21859.4
64039
191132
286720
294408
73286.2
19958.9
67275.8
22378.6
55049.4
235157
31335.2
3902.23
36327.1
62959.8
221941
237256
3995.57
33210.2
58111.1
227182
37185.3
64299.7
551810
23559.1
176341
246041
540078
188481
258329
550237
171013
236426
22880.7
186391
254519
535731
3203.45
55527.4
60581.5
14549
710.918
13144.2
787.353
502178
452437
2889.22
419370
562812
450167
436892
3064.21
560437
522275
565929
527280
506863
476612
472223
566990
504200
524523
528190
507768
477445
474174
317653
308717
448234
153856
378943
386697
164874
484685
274899
434001
440580
489166
426341
286913
312692
453208
319199
388087
158532
382423
166893
441774
486655
490019
427612
280045
422465
288937
622354
483751
579857
749884
816575
625144
582264
485896
812837
727435
821005
735005
757503
685569
678696
822650
753264
730661
736428
759020
686853
681538
574419
686358
628705
692975
633586
627001
580110
649743
585885
656737
618824
551271
612467
557328
629904
689339
694262
634804
576820
629771
581259
586911
652532
657981
620043
553599
614967
558357
528080
577174
518756
488621
571053
524011
533246
578258
489532
530276
520881
573616
524937
534282
28846.7
228374
53176.9
240599
3320.69
60263.5
32916.4
242752
3399.98
30527.8
56079.4
233636
61574.7
33679.6
666.014
12288.6
51337.7
3108.81
58837.1
14175.5
768.299
202.522
1020.3
3856.77
4439.9
60.9362
234.539
1182.96
4539.71
62.2874
215.036
1081.37
4088.11
239.871
1209.97
8511.65
66.7496
80.5896
1307.26
1591.52
236.026
11.8238
165.141
3180.06
830.942
2076.33
27.4411
106.48
540.686
5595.86
64.7952
175.514
39.9178
801.1
284.919
1284.6
2062.33
2047.18
7919.84
404.553
24.659
100.107
100.605
3554.4
35.9479
739.541
56.5291
1258.87
254.629
12.0534
65594.7
91468
422743
158428
521.995
8160.86
12318.5
188621
112240
462874
87607.2
664.917
10823.1
5693.3
1892.96
2795.21
381.971
572.522
91.2251
122.581
18.0583
16306.9
50325.9
248666
48526.7
205.477
1816.98
5551.68
1135.04
26.1764
135.048
14.8272
528.091
57.5602
295.83
50975.8
574.035
1100.51
160.198
2052.18
3935.96
14690
6625.76
10235.8
136384
27182.2
68.5945
1052.92
1698.52
7118.02
18070.5
97092.7
4223.9
48.2982
696.507
292.801
5514.34
170.42
796.971
62.5865
282.192
39.9083
8.57967
2996.98
36.9885
68.214
14.689
153.236
283.989
723.179
2981.3
2539.31
34341.8
143.248
1681.2
129.247
10.8035
57.0072
704.499
9940.84
50.1382
4.21878
57.0102
705.729
501.647
358.25
6113.45
33.1837
2.82779
45.9922
562.626
4.74266
61.0133
18.6329
369.177
237.934
4883.49
1255.73
388.65
653.561
6956.19
514.238
29.7235
47.6358
2.88232
605.417
2761.12
16492.9
1925.83
11.2965
314.093
69.7679
15.0192
32.2063
2.02779
200.717
26.4258
3396.06
445.674
172.502
1244.02
58.9395
14.0465
0.728175
5.16067
105.928
319.041
18.8696
1.26366
157.254
9.63655
2530.35
147.604
20956.9
53.107
71.3409
110.006
1799.47
832.966
1283.3
6256.5
27.2526
575.268
33.144
756.813
64.9818
3.15086
7556.38
70.2036
625.04
39.8259
343.742
29.7695
3.41821
454.288
20.2807
85.968
5.59609
21.867
4.08987
1.08244
104.338
16.9207
390.741
74.0409
0.969605
3.48098
18.8501
9.93698
52.0196
208.317
68.5673
0.999744
3.41715
17.1418
142.288
274.894
3789.6
824.385
2.45952
31.2497
60.2627
183.886
126.791
1446.24
77.0297
1.01895
9.84552
6.98212
682.158
3.33665
71.4418
4.65478
108.882
10.6877
0.568227
3754.3
16.198
9.34703
27.0715
142.088
426.594
234.463
27.823
350.992
66.6532
18.4832
0.37725
1.56436
3.69357
5.47358
2291.65
431.034
479.993
0.124255
0.145995
2855.76
0.442514
119073
209.811
0.00364407
61.6483
0.0146102
0.000266442
0.196454
0.00398598
8.91818e-05
184.071
0.0424704
0.000387902
1.39584e-05
4534.86
0.0999089
0.00158902
4.68453e-05
1.41091e-06
78844.8
0.0463997
0.00230096
7.30284e-05
2.4677e-06
7.57282e-08
0.00692292
0.00102492
5.90455e-05
2.50997e-06
9.40054e-08
2.88128e-09
0.000239989
2.64876e-05
1.67749e-06
7.76781e-08
2.92493e-09
1.45519e-11
7.26362e-06
7.17802e-07
4.50818e-08
2.09548e-09
0
0
1.85362e-07
1.71858e-08
9.74978e-10
0
0
0
1495.01
688749
550221
679096
5253.14
541936
1430.87
0.711688
2.17001
714.367
73824.5
2.27828
195.657
0.749365
70961
1.35087
345.053
292292
21.7984
256.347
1.54592
83019.7
9.59692
0.320906
1426.96
8.94751
7.1728
0.333691
0.771347
418.954
43107.4
356416
60.4331
437.097
0.241596
676227
689540
677975
443007
473817
481886
433870
685627
666455
673722
438253
462997
423724
476955
640103
559234
643988
347210
178036
189607
334740
555397
630224
639547
343186
173181
326280
187082
287214
71550.8
299347
80968.9
80110.4
6253.71
5406.72
301341
75294.8
74630.2
82625.5
81804.3
6406.36
5739.48
0.0460897
11.4704
6.04815
6.47041
0.200076
2.85521
0.0471779
84411.7
12450.1
13699.8
4276.55
4662.53
663.175
604.435
75769.9
4066.65
11794.6
13392.2
4567.67
649.095
573.198
5442.83
2271.78
4476.76
288.156
144.011
233.326
113.719
13011.9
4237.56
70563.2
79090.9
15174.8
4897.96
830.193
80504.8
13805.7
15539.9
4483.52
5007.4
849.302
757.189
1061.02
1635.72
3377.95
114.732
52.2604
172.313
81.3601
4897.2
360679
108401
375325
119334
48132
5533.54
372908
109310
119397
42099
47440.1
5538.38
4947.52
1255.19
365.706
975.242
22.8751
61.9515
47.9169
17.2476
5552.52
3798.34
88581.9
96062.6
6113.29
4206.75
127472
0.0847707
0.0509515
55.2409
199.292
0.19528
1.95586
0.0502604
93969.5
5964.2
113509
3601.27
84260.6
4108.74
124781
0.00237915
0.000209608
6.49015e-06
192.399
0.0169471
0.000121685
2.95199e-06
2755.07
568.52
0.0034683
0.000222487
6.71697e-06
0.00320753
0.000290241
8.88306e-06
0.00201894
8.76043e-05
2.12109e-06
4.30591e-08
0.0773229
0.000656856
1.43454e-05
3.17043e-07
0.648719
0.00313903
0.000281117
0.195473
0.000547155
5.85772e-05
0.00241086
0.000432892
1.21902e-05
102.438
0.0108393
0.000130129
3.33403e-06
107.334
0.0030363
0.000224927
8.16169e-06
2.31128e-07
32.2381
0.0584076
0.000289869
1.21796e-05
4.17844e-07
1.16997e-08
0.000209629
1.10749e-05
4.53845e-07
1.53959e-08
4.07454e-10
6.38224e-06
3.29223e-07
1.34169e-08
4.07454e-10
0
1.57044e-07
8.26549e-09
2.61934e-10
0
0
3.36149e-09
1.45519e-10
0
0
0
728.672
0.0208713
0.00136994
7.91962
0.00898455
0.000138659
0.0216152
0.00235325
5.49559e-05
10645.7
0.0266054
0.000245346
8.89317e-06
11223.8
0.0733364
0.000821701
2.53483e-05
7.78105e-07
2246.32
0.0372059
0.001302
3.87123e-05
1.32085e-06
4.07308e-08
0.00480648
0.000589976
3.18695e-05
1.35256e-06
5.07716e-08
1.5425e-09
0.000146132
1.52474e-05
9.28485e-07
4.27535e-08
1.58616e-09
0
4.55834e-06
4.21351e-07
2.55532e-08
1.13505e-09
0
0
1.17536e-07
1.03028e-08
5.82077e-10
0
0
0
167.406
0.239774
0.00229819
5.58726e-05
1.04065e-06
0.00288669
8.42384e-05
1.54918e-06
2.47383e-09
2.03727e-10
0
0
0
0
0
1.10522e-07
1.18889e-08
7.27596e-10
0
0
0
0
4.46881e-06
5.57295e-07
3.38478e-08
1.42609e-09
0
0
0
0.000191152
3.07717e-05
1.57612e-06
6.30534e-08
1.96451e-09
0
0
0.0150909
0.000880225
6.92037e-05
2.74493e-06
7.94244e-08
2.03727e-09
0
137.752
0.119272
0.00140887
0.000103637
3.00624e-06
7.03731e-08
1.52795e-09
16105.5
0.495815
0.00207156
9.48394e-05
2.11287e-06
4.18077e-08
106827
0.571574
0.00147712
4.88736e-05
8.56191e-07
1154.08
0.0370847
0.000451523
8.9535e-06
6.54836e-10
0
0
0
0
0
0
3.08646e-08
2.70666e-09
1.01863e-10
0
0
0
0
1.25228e-06
1.10987e-07
7.14499e-09
2.61934e-10
0
0
0
4.23008e-05
4.05793e-06
2.74013e-07
1.24855e-08
4.07454e-10
0
0
0.00108341
0.000144114
9.62069e-06
4.28729e-07
1.52504e-08
4.65661e-10
0
1.34231
0.0120871
0.000368176
1.33073e-05
4.50003e-07
1.35042e-08
3.0559e-10
181.494
0.0349051
0.000448649
1.12932e-05
3.19284e-07
8.22183e-09
3969.76
0.0326153
0.00020581
5.36964e-06
1.40397e-07
13.3705
0.00358696
5.38811e-05
1.61299e-06
5.82077e-11
0
0
0
0
0
0
4.904e-09
4.07454e-10
0
0
0
0
0
1.95185e-07
1.90048e-08
1.13505e-09
0
0
0
0
6.94855e-06
7.20844e-07
4.53147e-08
1.96451e-09
0
0
0
0.000210868
2.46702e-05
1.59971e-06
7.01984e-08
2.47383e-09
1.45519e-11
0
0.00970391
0.000853026
5.78923e-05
2.14853e-06
7.51897e-08
2.2701e-09
0
0.0618321
0.00177168
6.5756e-05
1.88081e-06
5.63741e-08
1.45519e-09
0.399024
0.00244807
3.77112e-05
1.03771e-06
2.75468e-08
0.0254837
0.000412823
1.26348e-05
3.50134e-07
0
0
0
0
0
0
0
6.1118e-10
0
0
0
0
0
0
2.57569e-08
2.40107e-09
1.01863e-10
0
0
0
0
9.86664e-07
9.53878e-08
5.57338e-09
2.03727e-10
0
0
0
4.29574e-05
3.73401e-06
2.04993e-07
8.65839e-09
3.0559e-10
0
0
0.00444487
0.000139993
7.22744e-06
2.7752e-07
9.48785e-09
2.61934e-10
0
0.128224
0.033347
0.000224678
8.20879e-06
2.51282e-07
7.30506e-09
1.45519e-10
2.14591
0.00604126
0.000198887
5.67407e-06
1.49346e-07
3.7835e-09
1.8901
0.0169473
0.000103389
2.21461e-06
5.13828e-08
0
0
0
0
0
0
0
0
0
0
0
0
0
0
2.28465e-09
1.45519e-10
0
0
0
0
0
8.57399e-08
7.40692e-09
3.7835e-10
0
0
0
0
3.2828e-06
2.80459e-07
1.50321e-08
6.1118e-10
0
0
0
0.00012181
1.02981e-05
5.04981e-07
1.99798e-08
6.54836e-10
0
0
0.00240004
0.000322478
1.57015e-05
5.64003e-07
1.81899e-08
5.38421e-10
0
0.31064
0.00811873
0.000367433
1.35294e-05
4.02695e-07
1.14087e-08
2.61934e-10
0.00642097
0.000210677
6.25956e-06
1.68729e-07
4.29281e-09
0
0
0
0
0
0
0
0
0
0
0
0
0
0
5.82077e-11
0
0
0
0
0
0
4.1473e-09
2.76486e-10
0
0
0
0
0
1.4258e-07
1.20781e-08
6.54836e-10
0
0
0
0
4.83106e-06
3.94735e-07
2.08383e-08
8.58563e-10
0
0
0
0.000150194
1.20533e-05
5.8458e-07
2.31521e-08
8.00355e-10
0
0
0.0038074
0.000283639
1.4047e-05
5.1393e-07
1.69821e-08
4.80213e-10
0
1095.74
0.175418
0.00135793
0.000215163
8.09504e-06
2.5671e-07
7.66886e-09
1.74623e-10
0
0
0
0
0
0
0
0
0
0
0
0
0
0
0
0
0
0
0
0
0
8.73115e-11
0
0
0
0
0
0
4.94765e-09
3.63798e-10
0
0
0
0
0
1.45039e-07
1.23546e-08
6.54836e-10
0
0
0
0
3.96032e-06
3.33181e-07
1.79571e-08
7.71252e-10
0
0
0
8.4711e-05
7.56659e-06
3.88914e-07
1.59635e-08
5.52973e-10
0
0
0.000926087
0.000551447
9.70337e-05
5.83798e-06
2.37051e-07
8.42556e-09
2.61934e-10
0
0
0
0
0
0
0
0
0
0
0
0
0
0
0
0
0
0
0
0
0
0
0
0
0
0
0
0
0
1.01863e-10
0
0
0
0
0
0
4.05998e-09
3.0559e-10
0
0
0
0
0
9.68575e-08
8.49832e-09
4.65661e-10
0
0
0
0
1.87752e-06
1.74245e-07
9.83709e-09
4.07454e-10
0
0
0
7.7379e-05
2.00115e-05
2.28285e-06
1.40353e-07
6.37374e-09
2.03727e-10
0
0
0
0
0
0
0
0
0
0
0
0
0
0
0
0
0
0
0
0
0
0
0
0
0
0
0
0
0
0
0
0
0
0
0
0
0
2.91038e-11
0
0
0
0
0
0
2.2992e-09
1.30967e-10
0
0
0
0
0
4.11965e-08
3.95812e-09
2.03727e-10
0
0
0
0
2.46923e-06
4.23301e-07
4.98549e-08
3.21597e-09
8.73115e-11
0
0
0
0
0
0
0
0
0
0
0
0
0
0
0
0
0
0
0
0
0
0
0
0
0
0
0
0
0
0
0
0
0
0
0
0
0
0
0
0
0
0
0
0
0
0
0
0
0
0
0
0
9.02219e-10
1.45519e-11
0
0
0
0
0
6.2515e-08
9.63337e-09
1.01863e-09
0
0
0
0
0
0.229944
0.081925
0.00907779
0.298946
0.000549248
1.18063
0.00241597
6.2302e-05
0.0283946
0.00227587
8.88315e-05
2.31541e-06
0.000619022
5.69154e-05
2.07372e-06
7.59028e-08
1.35707e-05
1.13495e-06
5.50644e-08
2.28465e-09
3.32802e-07
2.66591e-08
1.35333e-09
0
7.72707e-09
5.67525e-10
0
0
67.3141
0.0180243
0.00104083
8.15495e-05
2.16912e-05
2.5169e-06
4.45783e-07
6.62985e-08
0.00136054
7.83719e-05
0.000566681
2.16258e-05
9.54375e-05
2.88092e-06
1.52312e-05
4.08327e-07
1.45912e-06
3.83152e-08
6.98637e-08
1.96451e-09
2.59024e-09
0
0
0
0
0
0
0
0.179125
328.598
0.515509
593.92
0.195133
0.971888
6455.12
47.7654
579227
331943
669211
4067.85
516281
1091.31
0.458302
516.892
0.138033
178.388
0.16933
0.894472
5896.17
1718.28
6.67219
0.0705997
0.881751
0.301033
0.108468
96.7955
34.1349
35.3085
0.442978
272190
16.5531
198.588
1.24098
9.28452
12990
145420
305.446
19.8885
511343
226910
22.4902
0.33183
1.41864
59831.3
1.7495
148.401
0.532804
7036.58
1.63509
21.5871
0.270581
7.23865
5.63403
0.311417
7.28973
741943
92788
1116.51
0.479431
656745
6891.66
12.4737
752807
51711.6
8226.64
0.807986
715592
3756.22
17722.4
0.127205
5.06744
0.15096
131.441
1.62966
0.0630564
81.5358
630409
414533
25766.7
1.39865
1875.49
0.163215
6.00354
0.457752
0.0673032
1548.18
4.58953
13.2599
0.309905
377.005
0.409845
0.0335885
0.16504
0.797278
3.14596
0.0912668
131578
0.153241
136.152
322757
46.1015
339.395
0.17772
0.383322
453660
6217.59
8.54523
0.091021
145539
420.779
652197
654463
633688
350679
437089
395906
395106
0.237454
0.0276417
0.310973
4342.39
27.6027
0.0892682
0.324633
0.0967505
51.2031
0.157042
0.595228
0.0225604
0.278052
0.0339502
2.40668
0.136194
0.0325365
196.202
0.148343
0.351027
0.0454364
548550
624033
600196
284551
247594
203756
332043
474927
612964
583155
245680
146796
293844
110516
759576
684388
665189
662742
641205
382307
429878
2238.42
0.0497995
1.77288
3.24003
65816.4
0.115364
56.4781
0.101208
506944
1106.38
0.155983
0.0526752
1545.7
0.663172
354714
1331.03
0.162857
614.131
0.73281
0.079339
7.98563
2.26346
3301.76
45838.1
0.0962072
0.0735158
305.131
20.7503
2.03361
0.0230111
0.075023
0.00518832
0.0216293
0.163988
1.20202
238382
60434.7
60238.4
41365.4
41747.3
2904.41
4446.47
735221
647236
620453
592489
559681
285665
335164
195178
0.323844