/*--------------------------------*- C++ -*----------------------------------*\
  =========                 |
  \\      /  F ield         | OpenFOAM: The Open Source CFD Toolbox
   \\    /   O peration     | Website:  https://openfoam.org
    \\  /    A nd           | Version:  9
     \\/     M anipulation  |
\*---------------------------------------------------------------------------*/
FoamFile
{
    format      ascii;
    class       volScalarField;
    location    "0.0004";
    object      alpha.c4;
}
// * * * * * * * * * * * * * * * * * * * * * * * * * * * * * * * * * * * * * //

dimensions      [0 0 0 0 0 0 0];

internalField   nonuniform List<scalar> 
5235
(
0.00245424
2.11751e-13
2.31123e-12
2.67923e-08
1.8568e-13
2.36799e-08
1.07914e-07
4.76417e-05
4.87383e-09
4.32506e-08
1.31555e-07
9.05015e-12
0.018921
4.49818e-16
4.54625e-16
1.59875e-14
3.25563e-14
1.59917e-13
4.91602e-16
1.35254e-15
5.28269e-11
4.39491e-15
1.50554e-11
2.15557e-05
0.000733321
2.50863e-10
5.71831e-13
0.000263617
9.53132e-11
3.84894e-05
0.0347024
2.02793e-05
0.00968175
0.194562
1.9843e-05
0.000821755
0.00145928
3.53685e-12
1.14798e-11
5.33067e-09
2.1997e-08
2.63068e-05
0.00507709
0.000131329
1.31448e-11
3.95613e-13
2.55932e-08
5.94989e-10
0.332692
0.233234
0.207127
0.102074
0.106844
0.083689
0.0311431
4.63336e-08
3.87964e-12
3.29915e-12
1.51283e-07
1.11051e-07
2.54904e-12
4.65912e-12
9.83652e-10
3.24856e-08
3.50372e-08
4.62943e-12
2.03138e-12
4.48071e-12
1.95738e-12
1.31426e-12
1.70631e-10
1.09172e-13
1.18761e-07
4.3966e-13
2.82573e-09
2.63728e-12
2.05283e-08
4.41489e-13
1.2608e-13
2.26768e-10
2.80462e-09
2.44211e-12
1.19919e-12
4.87025e-06
3.2929e-12
3.7318e-07
1.80919e-13
7.00431e-13
7.20686e-09
1.11541e-12
1.44983e-07
2.44609e-12
5.27014e-13
5.99736e-12
5.53716e-07
0.00700993
3.527e-07
2.16147e-12
1.41698e-07
5.73238e-05
5.61505e-12
3.52995e-10
9.81467e-14
1.36165e-12
0.0813202
0.00495786
0.0291603
0.00355872
0.0222137
0.00633374
0.000655144
0.115337
0.00797578
0.0342151
0.00805535
0.03507
0.00812915
0.00125118
0.0614636
0.00264322
0.0229974
0.00190439
0.0178601
0.00512741
0.000340083
0.00411101
0.00468918
0.00162575
0.000241894
0.000205713
4.11519e-05
4.77716e-05
0.00178275
0.00439384
0.00153062
0.000273893
0.000216308
4.30912e-05
5.52123e-05
2.17399e-10
1.06851e-12
2.41748e-13
2.79054e-14
7.34427e-08
4.6378e-11
2.24922e-09
6.5948e-14
3.02822e-13
1.32111e-09
9.16748e-09
3.1405e-13
1.17393e-10
6.74627e-14
7.03664e-05
1.01306e-12
9.61519e-07
2.94944e-14
1.83009e-13
2.56014e-11
3.4489e-13
2.68993e-14
2.74987e-15
4.67458e-13
3.27568e-11
1.03277e-13
1.29868e-11
3.10938e-14
6.37189e-14
2.31945e-12
5.2555e-12
7.76588e-07
5.93827e-07
1.73848e-13
6.7857e-13
4.322e-12
8.21972e-07
2.39758e-08
2.6192e-14
1.39396e-12
7.56871e-13
2.24053e-13
0.00254725
0.00082484
0.000189138
1.31918e-05
9.00316e-05
1.62302e-05
2.03394e-06
0.00110357
0.00189904
0.00288317
0.000103726
0.000142746
3.09389e-05
2.69954e-05
3.19298e-10
2.89354e-14
1.0542e-13
8.00387e-11
6.11183e-10
3.55864e-14
1.22363e-13
5.67286e-10
6.55468e-14
7.38939e-14
7.04691e-10
1.45326e-11
1.36543e-13
3.30249e-14
0.000239699
0.0003916
0.000114344
1.64852e-05
6.46812e-06
3.37372e-06
1.3419e-07
3.79562e-06
0.000166196
0.0032531
0.000617326
1.75267e-07
1.99167e-05
1.2527e-05
0.000766919
0.00103001
0.00720628
0.00108592
8.53772e-07
4.33817e-05
6.68409e-05
0.000851765
0.000408175
0.00576274
0.00088072
4.90393e-07
5.31384e-05
2.14691e-05
2.2633e-05
0.000273779
0.000306398
3.5989e-06
1.8747e-07
1.53989e-07
4.24858e-06
0.000345571
0.000288092
2.09219e-05
3.83617e-06
2.1943e-07
1.66119e-07
4.98453e-06
0.00103413
0.00101108
0.00072725
6.46069e-05
3.92013e-05
3.65625e-05
7.98382e-07
0.000675648
9.84834e-05
1.02661e-05
4.28297e-06
7.91771e-07
4.2145e-07
2.55884e-08
1.13389e-05
1.17414e-06
3.59947e-07
2.19842e-07
7.5043e-08
7.84821e-09
1.4439e-09
3.97707e-15
2.22704e-13
6.02587e-13
2.64106e-11
1.52945e-10
3.14928e-14
6.61996e-14
6.74413e-13
9.0367e-16
1.05421e-13
1.76116e-10
4.55988e-12
7.38463e-14
2.23006e-14
1.79958e-05
0.000202975
0.000225894
2.83834e-06
1.391e-07
1.20056e-07
2.96828e-06
2.96461e-06
1.64372e-08
2.34782e-06
3.3708e-07
2.98323e-09
2.28103e-09
4.16264e-07
2.07711e-05
9.37163e-07
7.89387e-06
1.32531e-06
5.93099e-09
5.56289e-08
1.4771e-07
3.47462e-06
1.7784e-08
2.4954e-06
3.58664e-07
3.45931e-09
2.46795e-09
4.87463e-07
1.23719e-05
1.82971e-06
6.12166e-07
2.68159e-07
8.69466e-08
1.32846e-08
1.86581e-09
8.56735e-08
5.67509e-08
4.31145e-08
8.64696e-10
6.78533e-10
3.23666e-10
4.32134e-10
8.56585e-08
3.24562e-10
6.7817e-10
5.70573e-08
1.08127e-07
8.66179e-10
4.34361e-10
1.32839e-07
1.11302e-07
1.18335e-07
1.0822e-09
1.09682e-09
9.73382e-10
9.09081e-10
1.04173e-06
8.7988e-09
1.44688e-06
2.21217e-07
8.76564e-10
1.29335e-09
1.80519e-07
5.99325e-08
1.00649e-07
1.19037e-07
9.50778e-10
3.44068e-10
7.90828e-10
4.54286e-10
1.40613e-07
1.54113e-07
1.51395e-07
1.23877e-09
1.23797e-09
1.13977e-09
1.26629e-09
9.06717e-10
9.71283e-10
1.18105e-07
1.32565e-07
1.31374e-07
1.08046e-09
1.09436e-09
8.64314e-10
1.06091e-07
1.20028e-07
1.33301e-07
1.20098e-07
1.09562e-09
9.85549e-10
2.44089e-10
5.75007e-10
7.25977e-08
4.14016e-08
8.71986e-08
6.99092e-10
3.15797e-10
7.73431e-08
4.25719e-08
8.83283e-08
7.08443e-10
2.62686e-10
6.12155e-10
3.24583e-10
1.00432e-07
5.97672e-08
4.61685e-08
9.48677e-10
7.89126e-10
3.42821e-10
4.53072e-10
6.98008e-15
4.95711e-13
4.79102e-09
4.15875e-16
2.33103e-15
4.8236e-15
1.06775e-13
1.95194e-15
3.31348e-16
5.96601e-15
3.752e-13
2.42039e-09
7.45607e-14
3.25236e-15
6.09243e-08
7.58161e-09
2.36102e-08
1.69634e-10
4.61537e-10
1.69155e-10
5.28257e-11
9.27952e-08
5.45512e-09
8.11729e-07
1.17939e-07
8.1035e-11
7.69137e-10
1.2925e-08
5.20093e-08
7.73642e-09
2.29198e-08
1.4936e-10
3.99035e-10
1.66162e-10
5.40629e-11
2.03694e-05
7.37694e-09
4.34503e-07
2.80271e-09
1.6266e-07
3.30812e-09
5.95315e-11
4.63128e-05
1.07759e-08
1.04196e-06
5.63257e-09
5.39801e-07
1.04709e-08
1.16873e-10
3.9307e-05
7.2409e-09
8.68111e-07
4.27128e-09
4.98435e-07
9.30631e-09
8.75519e-11
1.67521e-06
1.25529e-09
8.7146e-08
1.74279e-10
1.02233e-08
5.38788e-10
8.74226e-12
9.766e-10
1.83417e-15
1.54836e-13
5.25002e-15
5.44531e-16
2.0368e-15
3.31359e-14
4.29438e-05
4.83169e-09
9.98078e-09
7.55305e-09
5.63489e-07
9.05588e-07
3.89911e-07
4.32832e-08
1.85814e-09
2.05486e-07
4.12473e-10
4.24397e-08
1.71307e-09
1.7798e-11
1.13611e-06
2.86907e-10
4.44908e-08
1.64912e-10
2.40653e-08
9.40143e-10
6.89037e-12
1.84528e-05
2.89234e-09
3.82374e-07
2.5744e-09
3.46607e-07
6.78083e-09
5.47252e-11
5.51202e-06
3.31599e-09
1.50422e-07
8.51253e-10
3.29022e-08
9.01355e-10
2.17156e-11
1.29575e-06
1.04112e-09
2.05767e-08
4.54689e-10
7.95111e-09
1.34481e-10
7.25596e-12
7.0366e-07
1.44453e-08
1.16685e-08
5.3657e-09
4.24048e-09
8.75421e-11
1.15276e-10
6.31728e-07
1.66774e-08
1.25597e-08
6.21477e-09
4.62545e-09
9.62429e-11
1.31735e-10
2.46793e-08
1.34733e-09
8.52039e-12
2.12978e-10
1.04163e-09
1.60812e-10
3.10197e-08
2.68218e-08
1.56155e-09
9.45276e-12
2.4636e-10
1.14446e-09
1.76799e-10
3.62573e-08
1.92822e-09
1.69773e-08
1.22881e-08
8.65575e-11
2.17736e-11
1.51137e-11
1.21148e-10
1.65796e-08
2.02962e-09
1.22951e-08
8.73375e-11
2.17262e-11
1.59578e-11
1.18764e-10
8.53098e-09
6.09101e-11
1.13135e-08
1.82393e-09
8.14391e-11
1.43655e-11
1.07286e-11
1.16182e-08
1.40428e-09
1.86014e-09
6.52145e-11
8.35907e-11
1.46672e-11
1.12332e-11
3.84389e-08
7.8888e-10
1.94559e-08
2.44863e-10
6.10014e-09
1.32115e-10
5.97461e-12
5.41707e-07
1.37249e-08
9.7573e-09
3.74581e-09
3.15303e-09
5.94664e-11
6.80534e-11
2.17266e-07
4.46871e-10
4.16387e-09
1.56651e-10
1.49559e-09
3.01094e-11
3.33579e-12
1.60166e-09
6.69327e-10
1.86232e-10
3.34968e-11
1.10068e-11
5.41664e-12
2.07426e-12
2.40961e-08
3.89542e-11
3.5398e-09
2.41888e-12
1.9124e-10
2.84107e-11
5.72939e-13
4.80462e-14
3.27733e-15
7.5258e-16
2.86592e-16
7.77201e-16
3.48794e-15
3.89071e-16
1.64929e-08
6.4832e-10
4.59349e-12
6.87367e-11
6.78845e-10
9.15282e-11
1.49196e-08
8.62326e-09
3.69689e-11
2.79352e-12
5.8803e-12
3.59742e-10
5.36257e-11
9.09493e-10
1.50717e-09
7.55533e-10
5.54832e-09
3.73924e-11
1.94476e-12
5.94258e-12
1.03531e-11
1.76452e-09
8.97514e-10
5.95764e-09
4.08734e-11
2.46179e-12
7.09108e-12
1.23159e-11
6.31703e-08
2.78986e-11
4.44105e-09
1.4155e-11
2.41577e-09
1.45127e-10
1.68889e-12
0.00392283
9.21024e-05
0.00329558
0.0274515
6.94719e-07
1.49646e-12
5.64241e-09
4.22957e-10
0.0128505
0.0185138
0.00273769
0.00754966
0.00153323
0.00088651
0.000402927
0.00955746
0.000806587
0.00313108
0.000114682
0.000573627
0.000105342
1.34292e-05
0.000700533
0.000255386
0.00193515
1.05597e-05
0.000147481
4.93608e-05
2.64077e-06
7.97871e-05
2.44551e-07
3.24786e-05
1.0339e-07
1.45113e-05
4.77755e-06
3.05233e-08
0.000603745
3.73943e-06
4.68608e-05
8.66735e-06
2.23656e-08
7.30521e-07
3.35718e-07
9.52392e-07
5.07725e-08
7.75772e-06
8.62002e-07
4.68809e-10
8.33782e-08
5.12737e-09
6.96069e-08
8.4912e-09
1.33613e-06
3.58573e-07
9.39418e-11
1.59584e-08
2.15501e-09
5.31349e-08
1.27643e-10
2.56559e-11
1.15443e-11
4.11262e-09
1.94071e-09
2.98765e-10
1.78428e-08
3.62628e-11
3.00921e-09
2.65834e-12
1.27366e-10
2.29413e-11
1.14258e-12
4.53649e-10
1.37844e-11
2.96342e-12
5.28759e-13
5.04099e-11
9.62017e-12
2.51161e-13
4.0174e-09
3.78608e-12
5.49925e-10
9.98713e-13
9.19179e-11
1.33181e-11
3.20754e-13
3.8865e-10
1.18169e-09
7.77437e-10
6.38616e-12
4.86766e-12
9.41817e-12
3.54764e-12
4.96195e-10
1.03902e-09
6.8008e-10
6.97243e-12
5.73034e-12
9.74617e-12
4.38141e-12
1.08882e-09
4.17203e-10
7.1907e-10
7.62099e-12
7.05129e-12
5.46951e-12
1.05578e-11
1.25512e-09
4.65713e-10
8.20271e-10
8.61045e-12
7.99143e-12
1.19204e-11
6.1568e-12
9.97855e-11
5.27205e-11
3.86366e-11
1.41072e-12
1.66536e-12
8.24046e-13
3.45422e-13
4.02456e-11
4.57452e-11
4.58413e-09
8.94873e-11
1.85162e-12
2.83958e-12
2.68608e-12
1.26455e-10
1.06699e-10
2.66803e-10
2.49645e-12
1.10655e-12
1.41539e-12
1.63239e-12
5.25695e-11
9.79598e-11
5.24715e-09
4.64103e-11
2.12954e-12
3.02827e-12
2.6676e-12
2.05422e-11
7.82998e-12
1.10172e-09
2.44128e-11
5.46842e-13
7.75025e-13
1.02776e-12
3.80322e-11
5.32899e-11
4.57853e-09
9.64969e-11
1.94355e-12
3.20716e-12
3.01359e-12
1.42121e-10
1.15515e-10
1.20159e-08
1.37988e-10
4.35348e-12
6.10607e-12
5.85042e-12
3.78e-11
5.7179e-11
2.66882e-09
1.85189e-11
1.30516e-12
1.58113e-12
1.74321e-12
3.05356e-10
3.53282e-12
2.99397e-11
1.14435e-12
2.73639e-12
1.11665e-12
9.03652e-13
2.71268e-10
3.24832e-12
1.99981e-10
2.12106e-12
5.96051e-13
5.30073e-13
2.77592e-12
1.18206e-10
1.7836e-10
2.88014e-10
2.82985e-12
1.49079e-12
2.18827e-12
1.66666e-12
2.42026e-11
1.31238e-10
2.2711e-10
2.55236e-12
1.00318e-12
1.85124e-12
1.19697e-12
1.67847e-11
5.47271e-11
3.34213e-11
1.90874e-12
1.57693e-12
1.40324e-12
1.15238e-12
2.13037e-11
1.87389e-11
6.90289e-12
9.74117e-13
7.313e-13
6.56938e-13
5.17658e-13
1.11483e-10
1.19006e-11
1.59158e-10
4.22876e-12
3.17732e-12
3.26639e-12
3.91536e-12
4.51009e-16
5.69226e-16
9.11082e-16
4.73004e-16
5.33749e-16
3.07057e-15
1.14972e-14
7.31306e-16
4.45993e-16
5.90235e-16
5.45635e-16
1.26911e-14
4.74109e-16
4.34841e-15
1.13488e-10
2.51134e-11
2.13842e-10
4.45164e-12
3.12369e-12
3.20884e-12
3.83549e-12
4.62208e-12
3.50469e-12
3.25245e-10
1.41073e-11
1.09818e-12
1.22636e-12
1.27712e-12
1.81278e-10
1.80322e-12
8.0266e-13
5.89014e-12
7.43403e-13
8.03167e-13
8.94085e-13
3.58303e-12
1.28109e-11
2.51455e-10
2.73633e-12
9.20809e-13
1.02846e-12
9.70032e-13
2.90013e-12
5.10148e-13
2.64911e-13
1.05698e-12
2.2706e-13
2.80137e-13
2.35948e-13
9.41226e-12
1.20607e-11
1.6137e-10
4.32406e-12
3.26668e-12
4.03399e-12
3.34504e-12
3.62066e-12
1.16563e-11
2.56816e-10
2.76256e-12
8.66521e-13
9.80468e-13
8.84924e-13
1.68664e-12
3.99183e-13
3.72303e-11
1.04483e-12
1.68665e-13
2.25163e-13
1.82769e-13
2.11215e-12
1.75437e-10
1.35069e-10
1.4032e-12
5.093e-13
5.80556e-13
1.42783e-12
4.43367e-12
2.35068e-10
1.82397e-10
3.39588e-12
1.93749e-12
1.93447e-12
3.88168e-12
1.75478e-11
2.01583e-13
1.80048e-11
4.49159e-13
8.81325e-14
1.02887e-13
4.2149e-13
3.88485e-11
5.96744e-13
2.91703e-11
1.02175e-12
3.96571e-13
3.819e-13
1.25946e-12
4.45507e-11
6.66073e-13
3.22914e-11
1.13744e-12
4.35532e-13
4.29044e-13
1.41239e-12
1.09775e-10
2.26358e-11
1.72797e-11
3.91541e-12
3.60505e-12
2.87592e-12
2.97277e-12
1.20298e-10
2.59256e-11
1.9002e-11
4.39398e-12
4.00795e-12
3.18429e-12
3.31902e-12
9.62943e-12
2.52486e-12
9.60805e-12
2.60748e-12
9.01074e-12
9.81e-12
2.56988e-12
2.31952e-12
1.66394e-12
5.55005e-11
4.24457e-12
1.32875e-12
1.39466e-12
1.36842e-12
4.61921e-11
4.33551e-12
2.7008e-12
2.2544e-12
2.47938e-12
2.23795e-12
2.15958e-12
2.03825e-12
7.43425e-12
5.96556e-11
1.70457e-12
1.27995e-12
1.28653e-12
1.33907e-12
1.1336e-12
2.77097e-13
9.23223e-12
4.06181e-13
2.15121e-13
2.24181e-13
2.42349e-13
4.85378e-11
5.92799e-12
8.66403e-12
2.16983e-12
2.28729e-12
2.06369e-12
2.04094e-12
3.23853e-11
1.75027e-12
5.52021e-12
1.2861e-12
1.48043e-12
1.34353e-12
1.2532e-12
2.64679e-12
2.6429e-12
3.58027e-12
5.30792e-12
2.66851e-12
4.85906e-12
2.67268e-12
3.59729e-12
2.41867e-12
2.41357e-12
2.46129e-12
4.31435e-12
4.8349e-12
2.4688e-12
4.63645e-12
7.13744e-12
7.34191e-12
7.66728e-12
4.6656e-12
7.72901e-12
4.64205e-12
7.65955e-12
4.65348e-12
7.7237e-12
7.33918e-12
4.62431e-12
7.13197e-12
4.64719e-12
4.00502e-12
2.75135e-12
2.06561e-12
2.03343e-12
3.73581e-12
2.9198e-12
2.06928e-12
4.51056e-12
7.21863e-12
6.87755e-12
4.53593e-12
7.55973e-12
7.22887e-12
4.50652e-12
1.98392e-12
2.62878e-12
3.53856e-12
3.90584e-12
1.96113e-12
2.8235e-12
1.99627e-12
2.6341e-12
5.26665e-12
4.82027e-12
3.52726e-12
2.61161e-12
3.84098e-12
2.59603e-12
4.80425e-12
2.43391e-12
4.28734e-12
3.26933e-12
2.3931e-12
3.56518e-12
2.38625e-12
6.53583e-14
1.94229e-16
8.8558e-16
2.98332e-14
2.18391e-15
1.59318e-10
4.09336e-11
7.46349e-14
2.05215e-13
1.58194e-15
2.15689e-16
1.49703e-16
6.68672e-15
3.45409e-13
5.55454e-15
4.51625e-16
1.18962e-11
3.26155e-12
4.22549e-12
1.11612e-10
9.04054e-12
3.91133e-12
3.1721e-12
1.07953e-11
2.40476e-12
3.90097e-12
2.06891e-12
2.28171e-12
2.05847e-12
1.96417e-12
0.0764258
0.156725
0.0010101
0.357369
0.0360788
0.175365
0.00289226
0.0093876
0.400098
0.349323
0.393247
0.287949
0.278287
0.212715
0.222998
0.31883
0.322247
0.257638
0.372193
0.24578
0.178244
0.113738
0.165842
0.279552
0.26955
0.122659
0.0514384
0.0476031
0.131066
0.017112
0.0326344
0.0153562
0.138308
0.129121
0.0760172
0.0824133
0.12672
0.235992
0.167863
0.0955177
0.017587
0.0352521
0.0535515
0.0544088
0.0223693
0.0100544
0.0037897
0.0999418
0.0561562
0.0284667
0.00530501
0.0047141
0.000876751
0.0318787
0.0100279
0.00908482
0.0347915
0.000915466
9.90875e-05
0.000470095
0.0225959
0.00226382
0.00603578
0.0100304
0.282496
0.348498
0.440172
0.493074
0.530207
0.520885
0.626619
0.516684
0.384107
0.611225
0.485286
0.624955
0.486805
0.554159
0.622622
0.486522
0.590114
0.466065
0.582466
0.584887
0.616297
0.63442
0.623204
0.592489
0.575245
0.622014
0.580432
0.632451
0.580948
0.570895
0.621039
0.590616
0.580648
0.583535
0.613665
0.632926
0.591142
0.620782
0.573418
0.613021
0.580776
0.632057
0.581811
0.590444
0.573139
0.620711
0.583454
0.486048
0.544584
0.551079
0.525764
0.589541
0.49169
0.578013
0.548882
0.524035
0.482032
0.539674
0.587218
0.48996
0.523276
0.552334
0.589328
0.558651
0.559754
0.595731
0.52849
0.555883
0.559336
0.560665
0.524958
0.553283
0.596248
0.52946
0.295319
0.418145
0.408047
0.0162818
0.048666
0.0175724
0.0511807
0.421849
0.396518
0.429025
0.0508107
0.0147775
0.0537469
0.0153189
0.478816
0.486315
0.493531
0.486296
0.538082
0.537105
0.545135
0.477197
0.485201
0.492737
0.535549
0.535378
0.527152
0.543683
0.493333
0.480496
0.487141
0.53613
0.536381
0.543769
0.52926
0.486473
0.47971
0.529125
0.486265
0.537254
0.535769
0.544092
0.498911
0.375379
0.440353
0.385338
0.449338
0.505973
0.447322
0.447879
0.373701
0.437904
0.504122
0.436885
0.49502
0.445751
0.434792
0.471452
0.442265
0.464729
0.51249
0.51844
0.49231
0.472351
0.436446
0.44321
0.519216
0.488407
0.513528
0.493273
0.408268
0.419703
0.428531
0.314589
0.318495
0.331602
0.300586
0.418651
0.428512
0.418723
0.314491
0.314836
0.330718
0.29791
0.422488
0.413314
0.419929
0.324017
0.317974
0.332811
0.309203
0.430066
0.415363
0.423657
0.325885
0.322344
0.334776
0.313325
0.355157
0.295929
0.36811
0.2501
0.165187
0.23338
0.179368
0.404339
0.360777
0.394386
0.295966
0.213078
0.229946
0.280215
0.36713
0.283537
0.354881
0.24977
0.168726
0.179551
0.235784
0.405486
0.350463
0.361695
0.297458
0.215449
0.230798
0.283679
0.169094
0.167754
0.042091
0.0589037
0.187805
0.150231
0.0508233
0.169611
0.172895
0.059523
0.044245
0.189086
0.15443
0.0511354
0.180624
0.172087
0.0462358
0.0611309
0.191392
0.16226
0.0553467
0.182706
0.177957
0.062261
0.0487078
0.193721
0.167496
0.0563078
0.11659
0.06613
0.0195618
0.0291472
0.0723072
0.105864
0.0330742
0.146899
0.0757527
0.032869
0.0181226
0.087254
0.13051
0.039407
0.148287
0.0774327
0.0183017
0.0343068
0.0878068
0.134134
0.0399404
0.11636
0.0630358
0.0274501
0.0193155
0.102451
0.0718353
0.032855
0.231299
0.160247
0.301828
0.305941
0.351012
0.462143
0.48035
0.349983
0.565193
0.440085
0.472839
0.20247
0.470202
0.576687
0.442895
0.552103
0.421525
0.592212
0.574983
0.602615
0.52823
0.561933
0.552654
0.536091
0.603946
0.569557
0.595744
0.532271
0.563542
0.538039
0.556289
0.535259
0.502221
0.560396
0.497279
0.466378
0.522243
0.441661
0.575213
0.526111
0.544168
0.519149
0.514197
0.539402
0.496764
0.501462
0.470655
0.508035
0.534514
0.542303
0.499936
0.506985
0.509481
0.468296
0.504713
0.543984
0.538183
0.504397
0.509013
0.111663
0.000839414
0.000647284
0.352972
0.0142636
0.255006
0.00708257
0.468302
0.486947
0.459478
0.518525
0.42923
0.510628
0.49458
0.470376
0.437464
0.464778
0.491836
0.520236
0.496735
0.514196
0.406955
0.416903
0.466145
0.450022
0.504569
0.464253
0.404915
0.448786
0.309636
0.418227
0.415909
0.378106
0.476955
0.387102
0.422772
0.455818
0.49369
0.52496
0.503166
0.493569
0.470042
0.380172
0.418082
0.450688
0.480116
0.476394
0.500611
0.454003
0.311381
0.395933
0.389079
0.414399
0.408025
0.460599
0.465288
0.287255
0.391974
0.397148
0.41088
0.453356
0.376885
0.462686
0.396975
0.383481
0.335576
0.282969
0.263568
0.197737
0.217038
0.176446
0.272939
0.340788
0.406402
0.250996
0.318104
0.339705
0.269977
0.366602
0.30966
0.335239
0.38764
0.447381
0.412277
0.208122
0.325259
0.27347
0.141853
0.20114
0.14609
0.101471
0.145952
0.273696
0.254026
0.112771
0.0489091
0.0444064
0.125799
0.0298519
0.0341056
0.0160093
0.133162
0.117896
0.0692398
0.0784369
0.082417
0.146815
0.19836
0.0827605
0.0255151
0.0342084
0.0581624
0.0103855
0.0128634
0.020409
0.0513676
0.0808437
0.0487282
0.0322248
0.000920967
0.00444085
0.00490689
0.0295505
0.00939
0.00860518
0.0328702
0.000719565
0.00267144
0.00348182
0.0221047
0.00550993
0.0069345
0.0157176
0.0209943
2.16955e-09
0.0464727
0.267809
0.150546
0.342171
0.251079
2.86174e-05
0.00347233
0.440631
0.369054
0.350838
0.250668
0.446256
0.378429
0.238245
0.317195
0.392272
0.424981
0.28857
0.342215
0.204146
0.146965
1.04065e-09
0.00194267
0.00573138
1.45983e-09
3.68899e-12
1.29979e-06
5.54924e-11
0.0509754
0.179936
0.0164819
0.190157
0.0930275
0.0846297
0.0144899
0.109738
0.12272
0.265104
0.12212
0.0351108
0.0306778
0.111362
0.0354
0.107964
0.152306
0.0642617
0.0051294
0.0100595
0.0382779
0.213236
0.0452381
0.0807823
0.0103349
0.021035
0.083942
0.0489105
0.0284667
0.00035156
0.0056123
0.000265349
0.00469468
0.0249826
0.002913
0.00654298
0.00033134
3.10233e-05
0.0014218
0.00118369
0.0002678
2.30844e-05
0.00110277
0.000122693
0.00285544
0.0173378
0.000689793
0.00177835
0.00884593
0.00393009
0.000256936
0.000702233
4.96514e-05
0.000147892
1.05978e-05
2.66173e-06
0.000138997
4.6162e-06
3.24329e-08
3.14765e-06
2.17387e-08
0.00010422
9.0698e-07
1.89646e-08
1.47314e-09
2.58426e-08
3.82132e-06
2.28995e-07
2.85995e-06
1.64299e-07
2.22045e-07
1.17885e-06
7.88488e-09
1.14358e-05
4.7804e-05
3.61443e-07
7.57308e-08
9.52571e-11
4.25366e-10
8.52232e-09
3.60939e-07
1.34075e-06
6.98882e-08
1.60866e-08
1.12039e-09
2.21365e-09
5.43668e-09
1.35522e-08
2.61475e-08
6.45375e-10
0.000170802
1.51041e-15
0.00177481
0.00201671
0.0807565
1.46408e-11
0.000100463
0.0282817
1.06084e-05
0.213157
0.0838823
0.15026
0.0487717
0.045111
0.0210203
0.0102945
2.04343e-12
1.10693e-12
4.09471e-11
0.422345
0.249375
0.30658
0.00411362
0.463765
0.31515
0.381345
0.00974836
0.126393
0.181346
0.0211201
0.0638671
0.382552
0.0384674
0.253663
0.00708509
0.150132
0.253879
0.407237
0.125158
0.00690531
0.029527
0.514692
0.487972
0.572953
0.407535
0.149407
0.510474
0.28346
0.557171
0.474395
0.541989
0.50521
0.292593
0.46717
0.301117
0.108609
0.0458539
0.0247371
0.00803646
0.000100542
9.09819e-06
2.5505e-08
7.51167e-09
5.59657e-09
3.62446e-10
0.209887
0.00070791
3.74926e-09
1.88679e-10
0.00048741
1.46911e-09
0.00494604
0.00809698
2.07779e-07
3.77113e-05
2.11745e-11
2.673e-07
3.529e-05
4.72198e-11
0.00964388
0.157361
0.00685401
6.21585e-07
7.16378e-05
1.25648e-10
1.93504e-06
0.00102054
4.75153e-11
0.0185328
0.00561895
0.00784095
0.000621955
0.0024548
2.38446e-05
8.3556e-08
2.49363e-05
1.80255e-12
2.08565e-07
1.63603e-12
6.43213e-09
2.44284e-13
3.3394e-06
9.16782e-07
1.24923e-12
2.17687e-10
1.54489e-13
3.34702e-11
3.81659e-14
1.72576e-13
1.71007e-13
3.07864e-15
4.95996e-14
1.6666e-15
1.61452e-15
3.04295e-17
0.101463
0.447442
0.641309
0.496763
0.544103
0.552866
0.36743
2.65e-07
0.00650829
0.376701
0.179292
0.13002
0.545164
0.438026
0.314487
0.343535
0.434845
0.317916
0.341421
0.434754
0.451229
0.280086
0.250594
0.261454
0.0508277
0.0194102
0.00172152
0.387012
0.494562
0.197611
0.445844
0.179577
0.543683
0.314658
0.689403
0.606099
0.568192
0.591143
0.533571
0.528456
0.494612
0.223013
0.454097
0.257943
0.543756
0.334663
0.488384
0.35036
0.203751
0.450964
0.163009
0.409233
0.404756
0.102405
0.0966724
0.629867
0.665628
0.629872
0.615515
0.653013
0.641308
0.604885
0.645329
0.683698
0.674009
0.660645
0.667251
0.657321
0.65213
0.619639
0.647643
0.600656
0.586512
0.64103
0.625864
0.580866
0.58353
0.58064
0.573404
0.613656
0.632919
0.624948
0.620775
0.678546
0.68866
0.686827
0.682024
0.679372
0.686145
0.681173
0.676206
0.686932
0.680279
0.674699
0.669318
0.684562
0.679676
0.674235
0.682023
0.672738
0.664857
0.675195
0.681738
0.662518
0.668894
0.672468
0.65937
0.656809
0.670018
0.671917
0.654541
0.599391
0.558645
0.581631
0.567115
0.60905
0.534686
0.541268
0.597099
0.571256
0.580518
0.566097
0.607476
0.533583
0.54087
0.548322
0.605174
0.581814
0.605166
0.588246
0.627314
0.568176
0.54086
0.571249
0.580516
0.566092
0.557156
0.597088
0.607474
0.461022
0.481
0.5484
0.536318
0.476785
0.531378
0.465833
0.558627
0.523246
0.552312
0.589311
0.559728
0.595716
0.554127
0.478847
0.537152
0.538102
0.493561
0.530227
0.48636
0.486317
0.535574
0.49274
0.485324
0.477184
0.535358
0.52712
0.48518
0.493296
0.536096
0.48708
0.480472
0.536387
0.486511
0.529259
0.47969
0.537251
0.493079
0.535752
0.486263
0.529108
0.486437
0.426867
0.422078
0.0096284
0.0594759
0.36334
0.0192332
0.0910543
0.544408
0.508792
0.568424
0.472377
0.529423
0.505211
0.447776
0.512198
0.523952
0.538578
0.57444
0.551528
0.518617
0.494627
0.523945
0.518608
0.55152
0.512184
0.538567
0.574423
0.541967
0.380632
0.00474479
0.000223981
0.000361219
0.0303224
0.0157251
0.0308109
0.460814
0.468911
0.521796
0.490609
0.43818
0.427806
0.497146
0.504689
0.541188
0.54771
0.469595
0.461375
0.504723
0.510496
0.51099
0.539792
0.547236
0.471787
0.466605
0.505233
0.511015
0.497114
0.427627
0.490556
0.460802
0.521809
0.514695
0.468895
0.459422
0.486868
0.440045
0.518499
0.510559
0.468273
0.429127
0.52076
0.43391
0.504227
0.45093
0.537891
0.467108
0.520732
0.514461
0.469938
0.521584
0.492023
0.44084
0.497887
0.434963
0.389615
0.000579712
0.0322272
0.000722114
0.00869571
0.0292468
0.0399723
0.440439
0.440337
0.385447
0.506054
0.498999
0.449415
0.37551
0.464786
0.442928
0.491873
0.520254
0.470379
0.514215
0.437538
0.491988
0.440693
0.497838
0.463742
0.521571
0.469902
0.514449
0.492262
0.442197
0.464699
0.5184
0.486777
0.512466
0.47139
0.38422
0.504172
0.447951
0.437927
0.436909
0.495002
0.373773
0.436393
0.493217
0.443121
0.519166
0.472269
0.466021
0.513513
0.48533
0.480278
0.402574
0.438254
0.513576
0.508641
0.443486
8.55528e-06
9.12998e-08
2.35307e-06
0.040912
0.0170632
0.0185641
0.0609525
0.345293
0.368597
0.198468
0.183721
0.363661
0.351049
0.177557
0.297874
0.314807
0.330693
0.408069
0.428524
0.418682
0.418736
0.30911
0.332742
0.323889
0.413275
0.429004
0.419915
0.422418
0.331611
0.318506
0.300658
0.428536
0.418198
0.408292
0.419693
0.325734
0.322239
0.313193
0.429995
0.423557
0.415294
0.421799
0.469933
0.456039
0.512611
0.344946
0.41545
0.469946
0.407503
0.415589
0.448932
0.499629
0.375765
0.478921
0.418212
0.451285
0.500995
0.492675
0.524616
0.4174
0.452788
0.492697
0.467199
0.304601
0.389338
0.453556
0.418194
0.422514
0.482429
0.35028
0.375596
0.418085
0.478886
0.415531
0.448906
0.474378
0.499622
0.415878
0.309607
0.448682
0.41818
0.476881
0.350003
0.378019
0.351947
0.448212
0.48209
0.469091
0.386027
0.42683
0.498411
0.498443
0.469116
0.404774
0.482101
0.448243
0.386064
0.352001
0.482354
0.350189
0.418152
0.453559
0.30465
0.376828
0.389254
0.458774
0.388059
0.46409
0.284141
0.292076
0.406532
0.400238
0.461757
0.366545
0.45297
0.260743
0.28285
0.401179
0.386088
0.47641
0.380375
0.418114
0.450697
0.480169
0.500623
0.421651
0.332596
0.136532
0.308417
0.332568
0.185838
0.352449
0.163006
0.261365
0.401357
0.386286
0.453123
0.382964
0.366999
0.461884
0.406683
0.284586
0.400375
0.458874
0.388409
0.464206
0.381648
0.237072
0.350042
0.250399
0.445273
0.377708
0.438733
0.340313
0.349232
0.19985
0.208815
0.279692
0.270573
0.389538
0.396463
0.216966
0.28295
0.263577
0.383452
0.352895
0.396944
0.335438
0.396558
0.349581
0.341714
0.279889
0.270752
0.209336
0.200284
0.250068
0.165023
0.233298
0.355192
0.295966
0.368151
0.282506
0.201076
0.180785
0.325682
0.255085
0.274219
0.380543
0.393472
0.212938
0.34842
0.360673
0.229791
0.295801
0.394328
0.404238
0.249837
0.16877
0.235867
0.295414
0.367213
0.354949
0.28363
0.212888
0.287868
0.278254
0.393238
0.357402
0.400068
0.349463
0.215288
0.361552
0.230593
0.297268
0.283519
0.40536
0.396425
0.271491
0.09536
0.262181
0.314996
0.150634
0.321944
0.143677
0.393561
0.34394
0.326111
0.274426
0.255317
0.181384
0.201678
0.300809
0.358652
0.44429
0.254568
0.189005
0.32521
0.379429
0.289421
0.408758
0.456062
0.194964
0.335721
0.408801
0.28948
0.0582922
0.0505712
0.0477215
0.00966278
0.00901337
0.00651321
0.00715515
0.235762
0.335086
0.405941
0.149152
0.203782
0.255911
0.327824
0.29808
0.0966707
0.26373
0.0779131
0.237549
0.191429
0.0524564
0.189309
0.254939
0.325345
0.379556
0.444393
0.358945
0.407362
0.000110122
6.92281e-06
1.8855e-06
0.00184812
0.0049574
2.3658e-06
2.33151e-08
9.11703e-08
0.000817788
9.45469e-06
0.00833445
3.75481e-10
8.5386e-12
6.42971e-05
0.387523
0.141166
0.282396
0.338968
0.200943
0.422037
0.313598
0.263716
0.0524437
0.191383
0.0779176
0.237526
0.298057
0.126402
0.339064
0.282614
0.38762
0.201046
0.31366
0.261583
0.141358
0.322404
0.194847
0.26326
0.132517
0.192895
0.130473
0.0867566
0.368525
0.250908
0.315019
0.170902
0.239547
0.168563
0.107499
0.256001
0.204224
0.327986
0.406061
0.235977
0.306939
0.335124
0.146022
0.141888
0.201179
0.325278
0.208125
0.255066
0.273397
0.262923
0.0864174
0.194589
0.132249
0.192659
0.322329
0.249284
0.314723
0.168182
0.239338
0.107195
0.170681
0.315
0.368426
0.31888
0.113979
0.175389
0.178509
0.245784
0.372204
0.322489
0.127414
0.045542
0.146225
0.146595
0.127754
0.292702
0.270643
0.0498821
0.15582
0.0482045
0.156148
0.302002
0.150399
0.294365
0.262429
0.107221
0.113137
0.0396119
0.0378566
0.13583
0.141732
0.038141
0.142481
0.136435
0.263137
0.254469
0.113818
0.10777
0.105954
0.0913198
0.231802
0.115416
0.0304759
0.0361891
0.132924
0.0840551
0.0143004
0.0164669
0.189744
0.0930319
0.0458962
0.178576
0.0365749
0.133768
0.116189
0.254492
0.232628
0.0920209
0.10672
0.0299053
0.0518384
0.0409202
0.00506046
0.00744448
0.00506352
0.00310578
0.249674
0.110677
0.122777
0.26473
0.121962
0.0351198
0.0303276
0.123719
0.0260061
0.108716
0.0580811
0.0127162
0.0677063
0.0106552
0.129009
0.0294616
0.121008
0.0139014
0.0722449
0.0674515
0.0128088
0.32276
0.0735785
0.194379
0.0948592
0.0261715
0.090969
0.220025
0.0777948
0.0382939
0.0210999
0.0779068
0.125349
0.19991
0.265413
0.00152962
0.00129276
0.0166148
0.0354602
0.032713
0.0035735
0.00405428
0.0281206
0.067526
0.0935397
0.0676362
0.157546
0.0937505
0.213369
0.176044
0.0427337
0.124579
0.0585535
0.0833435
0.0156135
0.0217985
0.144291
0.042091
0.0782482
0.209719
0.0817903
0.00934366
0.0201742
0.144574
0.0818957
0.0783955
0.0459838
0.0422493
0.0202233
0.00939197
0.222835
0.0848351
0.0478548
0.0290622
0.111393
0.0671499
0.0146522
0.0341634
0.062573
0.14925
0.103067
0.0046448
0.0358873
0.0194322
0.205087
0.0268451
0.126288
0.0607067
0.00925848
0.126332
0.0268575
0.0262342
0.194674
0.09506
0.220153
0.322921
0.181504
0.0737556
0.157773
0.067404
0.0147471
0.111824
0.223331
0.0852276
0.0480856
0.102981
0.0358159
0.0625242
0.00463297
0.00961909
0.0341544
0.149211
0.0220008
0.058814
0.0838213
0.12495
0.176629
0.0643135
0.0429954
0.0518841
0.0205018
0.0945496
0.0507849
0.00328822
0.00862937
0.0260079
3.20832e-13
1.19662e-12
1.04147e-13
2.29285e-08
7.72551e-08
1.87104e-10
1.86324e-09
0.00944016
0.00140417
0.0111994
0.0109453
0.00139065
0.0474905
0.0457281
0.00935766
0.0455121
0.0111526
0.0472172
0.0109074
0.00138881
0.0013782
0.00722579
0.0105639
0.0172221
0.0452362
0.0731706
0.0393812
0.0251339
0.00686845
0.00034459
0.000818329
0.012229
0.0262046
0.00254521
0.00134751
0.00254282
0.012225
0.026193
0.0170599
0.00687007
0.00134699
0.000344655
1.53291e-13
2.98176e-12
3.12326e-13
1.77902e-08
6.98853e-10
1.82674e-09
5.91458e-10
0.000897571
0.00813825
0.00866817
0.00118205
0.00994608
0.0433941
0.0366158
0.0363678
0.00699354
0.0085593
0.00989561
0.0431029
0.00116653
0.000885563
0.000556183
1.01084e-05
0.000623967
0.000326036
5.1328e-06
4.11035e-06
0.000383461
7.22772e-13
3.54125e-11
8.68419e-07
0.000139364
6.83893e-10
7.38706e-13
3.7031e-11
7.32146e-08
1.27908e-08
1.27638e-12
8.25684e-10
0.000183122
9.22827e-11
1.32669e-12
0.00285782
0.00347067
0.0284926
0.000351102
0.00561081
0.000256256
0.00460515