/*--------------------------------*- C++ -*----------------------------------*\
  =========                 |
  \\      /  F ield         | OpenFOAM: The Open Source CFD Toolbox
   \\    /   O peration     | Website:  https://openfoam.org
    \\  /    A nd           | Version:  9
     \\/     M anipulation  |
\*---------------------------------------------------------------------------*/
FoamFile
{
    format      ascii;
    class       volScalarField;
    location    "0.0004";
    object      impulse;
}
// * * * * * * * * * * * * * * * * * * * * * * * * * * * * * * * * * * * * * //

dimensions      [1 -1 -1 0 0 0 0];

internalField   nonuniform List<scalar> 
5235
(
34.8046
8.8242e-08
1.4518e-06
0.00108964
7.60915e-08
0.000920818
0.00352216
0.62636
0.000245796
0.00159556
0.00419171
2.43503e-06
122.26
1.75797e-09
1.62087e-09
2.02048e-08
3.18831e-08
7.63248e-08
4.34445e-10
4.23664e-09
1.13652e-05
6.4281e-09
3.79799e-06
0.999362
9.28041
1.96692e-05
1.38024e-07
4.80294
1.14515e-05
0.755314
170.559
0.389308
79.1492
299.994
0.340874
30.2815
18.5548
1.67963e-06
2.74177e-06
0.000525197
0.000988284
0.423069
43.0782
1.98906
2.94626e-06
4.09326e-07
0.0011214
5.08451e-05
347.163
322.391
306.298
248.354
253.671
228.762
161.008
0.0016505
1.05401e-06
9.82054e-07
0.00472095
0.00365861
1.7468e-06
1.82194e-06
9.16505e-05
0.00124691
0.00133264
1.82964e-06
8.03785e-07
1.77039e-06
7.75601e-07
3.82533e-07
1.61573e-05
7.48249e-08
0.00382337
2.23349e-07
0.000164146
9.74103e-07
0.000839564
2.30774e-07
8.68276e-08
2.10629e-05
0.000164379
9.25772e-07
3.73318e-07
0.102473
1.77158e-06
0.0115215
8.63956e-08
6.16065e-07
0.000409843
7.29301e-07
0.00511265
1.64405e-06
1.79485e-07
2.93692e-06
0.0161868
75.3823
0.0103952
1.18534e-06
0.00467901
0.91789
1.2018e-06
3.00854e-05
4.76955e-08
5.80515e-07
226.068
60.1399
155.795
46.2183
133.403
70.5159
12.3839
261.495
81.8638
168.885
82.3231
171.609
83.1317
22.3492
198.706
36.1316
135.432
26.9726
117.414
60.6207
6.25084
39.7521
40.0886
18.6372
2.79564
2.54459
0.571332
0.61875
20.4558
38.5803
18.0423
3.23641
2.52541
0.569424
0.720242
1.75317e-05
5.94909e-07
8.92164e-08
1.78858e-08
0.00262788
4.60001e-06
0.000124495
4.1016e-08
1.72109e-07
8.6873e-05
0.000425593
1.76784e-07
1.01424e-05
4.03585e-08
0.985007
6.24322e-07
0.0244115
2.10172e-08
2.17763e-07
3.93224e-06
1.0011e-07
2.37348e-08
2.97647e-09
1.42243e-07
4.3973e-06
7.30155e-08
1.77054e-06
1.46206e-08
4.6906e-08
1.21111e-06
1.93447e-06
0.0470626
0.0165027
2.1888e-07
5.36946e-07
1.3171e-06
0.0213312
0.00111004
1.5397e-08
6.64268e-07
5.66827e-07
1.78552e-07
25.6914
10.6291
2.7695
0.19483
1.06679
0.239318
0.0419653
20.5849
55.9025
41.9193
3.49452
2.43185
0.589405
0.981943
3.26071e-05
4.20086e-08
1.27604e-07
1.61509e-05
5.59962e-05
5.00168e-08
1.46315e-07
5.2857e-05
8.83205e-08
6.03633e-08
6.31318e-05
3.1521e-06
1.59648e-07
4.16542e-08
4.44182
7.48809
2.04426
0.326936
0.136783
0.0744119
0.00474312
0.0803081
2.91078
42.5608
11.5384
0.00567064
0.388476
0.245149
14.3879
18.7509
77.0398
19.8166
0.0235926
0.861696
1.35059
15.698
7.51767
66.1117
16.2713
0.0139622
1.05503
0.413776
0.362782
4.23355
4.35647
0.0725074
0.00616782
0.005339
0.0805161
4.96007
4.24865
0.345498
0.0746083
0.00706684
0.00556457
0.0931434
18.8543
18.3954
13.5969
1.29832
0.769428
0.713448
0.0221215
9.93342
1.6508
0.168494
0.0892275
0.0193879
0.0110502
0.00108421
0.181631
0.0238209
0.00861479
0.00602937
0.00241311
0.000350045
8.67739e-05
6.47775e-09
1.06599e-07
2.24666e-07
5.64403e-06
1.52624e-05
2.57364e-08
5.27947e-08
2.38857e-07
3.43702e-09
5.34181e-08
1.71106e-05
1.12574e-06
5.65791e-08
1.68949e-08
0.430178
9.19922
5.09481
0.0755881
0.00994869
0.00530399
0.136753
0.0529285
0.000772602
0.0442531
0.00940969
0.000204054
0.000162697
0.010986
0.346437
0.0239814
0.146601
0.0300418
0.000350388
0.00221812
0.00496655
0.0611918
0.000806232
0.0451666
0.00961163
0.00022965
0.000169747
0.0125431
0.210299
0.0370749
0.014724
0.00771195
0.00309138
0.000597536
0.000122184
0.0028986
0.00202491
0.001592
7.66821e-05
6.30827e-05
3.44615e-05
4.34441e-05
0.00289666
3.45165e-05
6.30135e-05
0.00203512
0.00352809
7.67764e-05
4.36337e-05
0.00413923
0.00366857
0.00384172
9.96082e-05
9.87066e-05
9.20621e-05
8.74617e-05
0.044496
0.00052727
0.0358073
0.00794569
0.000124629
0.000115169
0.0106649
0.00211896
0.00323704
0.00383134
8.2856e-05
3.5379e-05
6.96387e-05
4.51422e-05
0.00438511
0.00471917
0.00472369
0.000111861
0.000111843
0.000103499
0.000111903
8.71739e-05
9.18092e-05
0.00383243
0.00413053
0.00418435
9.93539e-05
9.84481e-05
8.25896e-05
0.00344849
0.00383946
0.00413727
0.00383945
9.80856e-05
9.16815e-05
2.73407e-05
5.40232e-05
0.00247928
0.0015583
0.00293813
6.40513e-05
3.37631e-05
0.00264964
0.00160269
0.00299639
6.53064e-05
2.89236e-05
5.74768e-05
3.46568e-05
0.00323049
0.00211399
0.001645
8.26845e-05
6.94829e-05
3.52426e-05
4.50279e-05
6.19463e-09
1.66556e-07
0.000276152
2.70974e-09
4.19199e-09
5.35291e-09
5.17864e-08
2.95923e-09
1.89601e-09
4.77865e-09
1.30624e-07
0.000139124
4.03911e-08
3.5837e-09
0.00206644
0.00035689
0.000918417
1.86856e-05
4.16399e-05
1.86481e-05
8.06117e-06
0.00308597
0.000298547
0.0175602
0.00384809
1.0943e-05
6.41533e-05
0.000637904
0.00186681
0.000372886
0.000924483
1.74684e-05
3.8301e-05
1.90291e-05
8.46338e-06
0.402138
0.000392178
0.0130381
0.000180174
0.00568409
0.000202872
6.98349e-06
0.909619
0.000535507
0.0281115
0.000316893
0.0158009
0.000521919
1.17633e-05
0.766302
0.000361499
0.0235187
0.000230438
0.0143117
0.000456695
8.66381e-06
0.0376666
8.16841e-05
0.0030763
1.56052e-05
0.000482961
4.07436e-05
1.67372e-06
7.36892e-05
4.30147e-09
8.01652e-08
5.99182e-09
3.15901e-09
4.35845e-09
2.94109e-08
0.846523
0.000259692
0.000488461
0.000377632
0.01608
0.0244989
0.011426
0.00166018
0.000114879
0.00664511
3.23714e-05
0.00168334
0.000111855
2.96739e-06
0.0285009
2.81549e-05
0.00191047
1.74665e-05
0.00108841
7.17241e-05
1.48725e-06
0.362509
0.000180723
0.0115642
0.000168076
0.0107539
0.000364725
7.68447e-06
0.111992
0.000187799
0.00494531
6.09288e-05
0.00134748
6.40922e-05
3.56518e-06
0.0294013
6.89969e-05
0.000855146
3.5106e-05
0.000384032
1.24396e-05
1.46994e-06
0.0185554
0.000732513
0.000616577
0.000328995
0.000271487
1.21591e-05
1.50909e-05
0.0170247
0.00082917
0.00064532
0.000372025
0.000286972
1.28439e-05
1.66085e-05
0.00115658
0.000107537
2.30266e-06
2.45489e-05
8.6821e-05
1.94704e-05
0.00138238
0.00121557
0.000121403
2.40004e-06
2.74504e-05
9.22694e-05
2.06366e-05
0.00157665
0.000116286
0.000721026
0.000531378
1.21388e-05
5.79444e-06
4.84466e-06
1.56541e-05
0.000710622
0.000123963
0.000545397
1.25797e-05
5.92472e-06
5.12096e-06
1.56377e-05
0.000400665
9.30226e-06
0.00051827
0.000115695
1.14689e-05
4.28411e-06
3.76706e-06
0.000531501
9.13677e-05
0.000117876
9.75608e-06
1.17447e-05
4.37885e-06
3.84852e-06
0.00167019
6.18248e-05
0.000895076
2.52689e-05
0.000353399
1.48268e-05
2.12954e-06
0.0195584
0.00144281
0.000646091
0.000475351
0.000251332
9.38334e-06
1.61917e-05
0.00689457
3.94459e-05
0.000249954
1.72358e-05
0.000108856
4.62549e-06
1.16819e-06
9.87438e-05
4.86902e-05
1.77779e-05
5.29915e-06
2.77866e-06
2.04139e-06
1.47122e-06
0.000930946
4.55108e-06
0.00019441
8.3367e-07
1.66214e-05
3.79276e-06
5.13426e-07
2.47273e-08
3.4961e-09
1.78554e-09
1.47096e-09
1.84057e-09
3.63439e-09
1.70064e-09
0.000978932
0.00010676
1.40144e-06
1.59296e-05
7.00241e-05
1.33744e-05
0.00143377
0.000466633
5.50713e-06
8.73129e-07
1.47303e-06
3.41778e-05
7.42944e-06
7.41061e-05
9.17637e-05
5.26834e-05
0.000267083
5.5727e-06
1.40633e-06
2.08927e-06
2.61496e-06
0.000107961
6.24437e-05
0.000293673
6.31009e-06
1.73154e-06
2.49796e-06
3.13845e-06
0.00219647
4.46555e-06
0.00024687
3.04029e-06
0.000145301
1.47403e-05
1.34696e-06
36.0876
1.52363
34.8955
114.781
0.0141184
1.25758e-06
0.00028851
3.2322e-05
76.5385
95.1036
23.536
57.1503
15.1169
9.17964
4.68102
67.0245
11.8496
33.3329
1.51708
6.67126
1.3823
0.214888
8.58975
3.5505
22.1366
0.152041
1.70251
0.631229
0.0486595
0.814237
0.00607865
0.372213
0.0029915
0.183206
0.0745318
0.00112142
8.74485
0.0782036
0.732519
0.142654
0.000958994
0.0179678
0.00894689
0.0201248
0.00169149
0.113552
0.0183733
3.80707e-05
0.00279425
0.000263556
0.00219293
0.000383247
0.0249225
0.00868256
9.64681e-06
0.000659021
0.000126914
0.00187391
1.31952e-05
4.21178e-06
2.63477e-06
0.000230094
0.000119213
2.58365e-05
0.000687631
4.6972e-06
0.000158964
1.43552e-06
1.16194e-05
3.4878e-06
1.12947e-06
3.3137e-05
2.07151e-06
7.8598e-07
4.23524e-07
5.33885e-06
1.55318e-06
3.46431e-07
0.000231502
1.13623e-06
4.67449e-05
5.976e-07
9.88996e-06
2.3406e-06
4.49002e-07
3.7768e-05
9.98842e-05
6.84431e-05
2.88756e-06
2.567e-06
3.488e-06
2.24216e-06
4.7013e-05
8.76286e-05
6.07538e-05
4.14401e-06
3.86946e-06
4.62943e-06
3.59806e-06
9.20214e-05
4.09316e-05
6.46849e-05
4.67429e-06
4.56632e-06
4.22317e-06
5.20722e-06
0.000104052
4.42857e-05
7.16048e-05
5.0992e-06
5.03132e-06
5.70989e-06
4.63234e-06
1.00381e-05
6.265e-06
4.99098e-06
6.32233e-07
6.66527e-07
5.76382e-07
4.5413e-07
5.41063e-06
5.70042e-06
0.000246432
9.41092e-06
1.37755e-06
1.50658e-06
1.52709e-06
1.57633e-05
2.00206e-05
2.92181e-05
1.58764e-06
1.29339e-06
1.41976e-06
1.39482e-06
6.50357e-06
1.02864e-05
0.000278569
6.17478e-06
1.5968e-06
1.74118e-06
1.6811e-06
3.2184e-06
1.72116e-06
8.21771e-05
3.55828e-06
5.70183e-07
6.2087e-07
6.61567e-07
5.68948e-06
7.05643e-06
0.000261532
1.04974e-05
1.53421e-06
1.71031e-06
1.69935e-06
1.4275e-05
1.20822e-05
0.000556688
1.39542e-05
2.72163e-06
2.96141e-06
2.89093e-06
4.73584e-06
6.34776e-06
0.000152127
3.00895e-06
1.03915e-06
1.08681e-06
1.1127e-06
2.30602e-05
1.22417e-06
4.09478e-06
8.4147e-07
1.09134e-06
8.35193e-07
7.77908e-07
2.5467e-05
1.13517e-06
1.95173e-05
9.68122e-07
6.74074e-07
6.45662e-07
1.09094e-06
2.21505e-05
2.11842e-05
3.16861e-05
1.8746e-06
1.61896e-06
1.73822e-06
1.69548e-06
4.4377e-06
1.4141e-05
2.24806e-05
1.48005e-06
1.11097e-06
1.3317e-06
1.18063e-06
2.70184e-06
5.99766e-06
4.19129e-06
1.00823e-06
9.64215e-07
9.35938e-07
8.9173e-07
3.23159e-06
3.02886e-06
1.61288e-06
6.79013e-07
6.36001e-07
6.21057e-07
5.79235e-07
9.78871e-06
2.74089e-06
1.28771e-05
1.89491e-06
1.73445e-06
1.7538e-06
1.8508e-06
1.75956e-09
1.91092e-09
2.13632e-09
1.79999e-09
1.84985e-09
4.82937e-09
9.95556e-09
1.88242e-09
1.60991e-09
1.70784e-09
1.71733e-09
1.03438e-08
1.63892e-09
4.08804e-09
1.2073e-05
4.96477e-06
1.96383e-05
2.44342e-06
2.20794e-06
2.23256e-06
2.34176e-06
1.20248e-06
1.09382e-06
2.52296e-05
2.31085e-06
7.2244e-07
7.45619e-07
7.48808e-07
1.52587e-05
7.20548e-07
5.56742e-07
1.23626e-06
5.41781e-07
5.57265e-07
5.69601e-07
9.26519e-07
1.90285e-06
1.84675e-05
8.21513e-07
5.70164e-07
5.85923e-07
5.83208e-07
6.03634e-07
2.65594e-07
2.18529e-07
3.46736e-07
2.07177e-07
2.19328e-07
2.10886e-07
2.45308e-06
2.73633e-06
1.30109e-05
1.8877e-06
1.72761e-06
1.84712e-06
1.74631e-06
9.85131e-07
1.94104e-06
2.03247e-05
8.98315e-07
6.01929e-07
6.27097e-07
6.0733e-07
5.18533e-07
2.73051e-07
4.68536e-06
3.96034e-07
2.11645e-07
2.29867e-07
2.17409e-07
9.44031e-07
3.29243e-05
1.60823e-05
8.1975e-07
6.19199e-07
6.29561e-07
9.55089e-07
1.82122e-06
2.11992e-05
1.75187e-05
1.68081e-06
1.42415e-06
1.4265e-06
1.74827e-06
4.91408e-06
2.08911e-07
3.12664e-06
2.74812e-07
1.70223e-07
1.74715e-07
3.2614e-07
5.11662e-06
5.19183e-07
4.13956e-06
6.08006e-07
4.68178e-07
4.63193e-07
6.55221e-07
5.70888e-06
5.48074e-07
4.42233e-06
6.43749e-07
4.91248e-07
4.87969e-07
6.96841e-07
1.20779e-05
4.61067e-06
4.00986e-06
2.20863e-06
2.16198e-06
2.01589e-06
2.03366e-06
1.2756e-05
5.09185e-06
4.27243e-06
2.39647e-06
2.32672e-06
2.16932e-06
2.20427e-06
2.39033e-06
1.74616e-06
2.38654e-06
1.75291e-06
2.33824e-06
2.39308e-06
1.75037e-06
7.01106e-07
6.21739e-07
4.63621e-06
9.14607e-07
5.75409e-07
5.82519e-07
5.80894e-07
3.71449e-06
1.06374e-06
8.97694e-07
8.41623e-07
8.70123e-07
8.41927e-07
8.29042e-07
7.58311e-07
1.39071e-06
5.51915e-06
7.11485e-07
6.46462e-07
6.49145e-07
6.56672e-07
3.38105e-07
1.89861e-07
1.25169e-06
2.15642e-07
1.75682e-07
1.78451e-07
1.82231e-07
5.9065e-06
2.32335e-06
2.29514e-06
1.38187e-06
1.38676e-06
1.34447e-06
1.34453e-06
3.36871e-06
7.77167e-07
1.24048e-06
6.98926e-07
7.30078e-07
7.08688e-07
6.88644e-07
9.85985e-07
9.85765e-07
1.03853e-06
1.11625e-06
9.87548e-07
1.09571e-06
9.87995e-07
9.96911e-07
9.31047e-07
9.30837e-07
9.33862e-07
1.02876e-06
1.05051e-06
9.343e-07
1.82044e-06
1.94226e-06
1.95012e-06
1.96372e-06
1.82258e-06
1.9638e-06
1.8211e-06
1.97255e-06
1.83101e-06
1.97255e-06
1.95894e-06
1.82886e-06
1.95105e-06
1.83019e-06
9.04862e-07
8.46746e-07
8.06016e-07
8.0392e-07
8.92801e-07
8.55673e-07
8.06263e-07
1.77284e-06
1.90186e-06
1.88592e-06
1.77393e-06
1.91254e-06
1.90051e-06
1.77204e-06
7.77641e-07
8.1595e-07
8.58199e-07
8.74841e-07
7.75769e-07
8.26305e-07
7.78124e-07
9.7368e-07
1.10211e-06
1.08164e-06
1.02334e-06
9.71996e-07
1.03993e-06
9.70888e-07
1.04184e-06
9.25226e-07
1.02019e-06
9.73196e-07
9.22415e-07
9.87992e-07
9.22104e-07
3.85849e-08
1.02233e-09
2.25422e-09
1.59602e-08
3.25053e-09
1.28477e-05
3.4275e-06
4.42833e-08
8.83613e-08
2.03496e-09
1.04827e-09
9.42648e-10
6.67569e-09
9.25661e-08
5.08591e-09
1.26638e-09
2.69619e-06
1.71075e-06
1.85264e-06
9.75483e-06
2.38876e-06
1.80832e-06
1.69169e-06
1.6105e-06
8.80455e-07
1.03542e-06
8.37416e-07
8.63427e-07
8.34266e-07
8.21826e-07
222.835
264.454
14.8312
288.024
138.951
267.301
34.7273
69.8473
280.574
299.305
292.382
267.945
275.251
268.482
263.601
314.885
311.811
308.444
308.888
281.809
266.35
239.136
262.35
287.485
295.264
238.504
182.286
178.846
238.272
98.7658
132.633
93.4611
227.129
226.614
196.276
199.083
256.758
299.52
281.119
226.915
117.88
160.775
188.59
175.717
110.649
74.0655
40.7594
214.856
179.032
135.631
51.937
48.467
13.2336
144.56
82.6281
78.5964
149.05
14.1376
1.71938
7.58412
124.286
32.1384
61.7267
82.8504
862.121
310.056
1110.92
288.696
324.377
1253.47
475.149
1257.09
1011.19
492.583
313.152
484.344
336.249
381.668
508.15
287.517
443.347
317.021
390.854
358.949
465.569
545.283
511.209
392.072
372.869
511.421
404.118
560.997
381.069
389.411
528.665
403.995
394.401
367.444
481.022
548.682
392.835
517.955
376.334
489.594
399.758
563.342
377.08
404.133
384.113
527.622
532.179
1189.87
480.516
483.637
1243.84
543.02
1180.72
547.685
493.64
1248.32
1191.96
495.109
555.702
1181.49
354.729
373.166
435.072
380.593
386.543
454.717
356.657
387.206
382.537
387.642
358.742
378.091
456.319
357.486
880.302
301.555
294.956
221.531
154.253
237.203
159.325
275.11
302.986
275.329
159.046
89.6391
164.73
92.3337
302.721
306.613
284.912
276.202
301.844
332.592
316.972
312.296
285.062
290.385
341.803
315.266
336.832
325.272
293.694
299.256
302.373
333.755
315.6
326.818
327.351
298.939
295.567
322.432
283.068
308.947
329.141
320.706
454.322
1006.73
441.398
1012.7
440.674
453.533
1107.73
446.659
1011.64
452.671
461.571
1113.25
467.066
1106.38
323.379
315.385
323.825
313.422
335.441
338.947
336.87
317.514
326.529
325.105
340.967
339.756
339.536
338.021
302.725
271.162
273.916
293.278
261.602
263.865
293.629
297.188
270.711
265.091
291.039
257.401
262.273
286.995
284.811
282.741
271.297
274.586
262.556
266.743
271.374
279.006
285.622
287.416
276.488
266.299
269.46
274.058
425.186
880.575
427.849
394.255
661.945
384.628
692.236
301.807
311.776
300.055
286.11
276.243
283.413
281.862
431.98
870.977
435.821
397.117
675.775
693.827
395.393
303.697
312.803
312.971
287.663
278.99
284.574
284.754
260.691
230.095
157.748
171.61
240.032
248.821
176.964
261.689
234.418
172.316
164.96
240.743
255.35
177.867
246.354
234.624
154.119
176.136
244.063
237.004
170.429
247.944
239.368
178.149
158.487
246.254
240.41
171.984
317.892
450.875
253.367
181.451
470.294
308.569
194.437
241.735
196.868
132.919
103.338
210.826
230.328
148.905
243.227
200.067
104.362
136.718
212.101
233.796
150.334
315.537
433.097
170.554
249.614
297.24
466.599
192.252
450.585
260.075
311.751
300.953
1039.31
353.321
1233.1
992.661
397.921
296.186
321.279
305.647
365.753
381.45
298.557
395.457
331.024
440.04
387.754
443.285
361.06
359.15
375.318
339.966
432.611
392.238
436.891
351.478
354.234
336.674
367.841
515.116
1257.31
531.252
498.638
1192.66
498.282
1167.36
421.53
380.553
387.707
366.11
365.273
374.96
366.391
354.61
319.098
327.291
370.268
351.147
354.359
327.275
327.806
334.674
341.893
349.071
361.904
341.2
327.066
358.839
13.4774
30.7181
284.783
97.7525
836.085
148.539
289.858
341.22
321.38
313.758
331.772
339.007
312.179
291.703
312.783
305.926
327.557
312.553
312.125
328.181
1124.15
504.175
504.319
1191.19
507.285
502.901
1118.12
488.606
946.887
1107.26
464.689
474.32
478.758
1074.54
361.844
353.208
360.059
375.373
373.254
359.607
365.464
339.324
334.306
324.377
346.083
348.46
344.418
353.741
303.131
305.002
317.296
315.768
328.107
328.321
314.287
339.609
302.062
353.1
313.036
346.984
341.316
312.293
277.04
312.811
322.236
263.92
296.411
288.854
260.141
753.835
917.653
492.852
496.093
868.641
474.382
1013.85
319.139
332.887
334.513
347.823
344.443
347.247
355.658
772.604
441.871
439.693
630.723
387.509
362.329
558.361
287.46
284.853
319.915
256.526
179.07
192.357
234.994
138.568
133.93
94.5017
222.49
240.683
208.33
194.79
548.237
677.707
416.505
311.158
332.152
229.771
458.291
109.387
201.172
152.719
406.071
285.31
242.641
337.321
13.3839
50.0352
48.8566
153.187
79.1208
82.6528
144.878
17.3333
86.0909
58.522
177.428
147.704
99.455
247.631
112.703
0.000128662
157.849
318.308
267.791
318.498
298.397
0.44253
35.9543
333.801
324.95
317.145
298.639
331.206
323.608
295.622
321.883
348.88
342.72
325.758
329.067
287.761
266.435
6.90316e-05
22.1991
46.4946
8.9953e-05
1.47273e-06
0.0254906
7.60792e-06
165.842
266.714
97.8794
270.702
217.681
209.022
89.9136
231.092
243.035
301.802
241.131
151.752
140.323
233.988
140.474
234.596
256.679
190.208
50.1127
73.5524
158.371
290.428
172.804
210.003
82.8069
117.217
214.607
180.072
135.351
4.74034
52.8817
3.51849
45.8111
125.298
30.8913
51.6671
3.75207
0.391302
16.1731
13.484
2.99914
0.294388
16.0328
1.68681
32.3998
104.734
9.98893
21.2292
74.3913
36.1338
3.57129
8.60729
0.6345
1.70707
0.152497
0.0489956
1.77004
0.0780793
0.0011736
0.0547456
0.000817932
1.29948
0.0184089
0.000747606
9.43299e-05
0.000992795
0.0613792
0.00595686
0.0469629
0.00442571
0.00608437
0.0239103
0.000353835
0.183039
0.628265
0.00864615
0.00243563
1.08469e-05
3.36408e-05
0.000385382
0.00872868
0.0249905
0.00220069
0.000664978
0.000150745
0.000143207
0.000306547
0.000664797
0.000965804
4.39654e-05
2.29716
7.41755e-09
21.1972
24.5584
210.003
2.4835e-06
1.76624
152.621
0.207123
290.462
214.564
267.659
179.835
172.578
117.164
82.6019
7.93327e-07
4.39286e-07
3.43534e-06
1093.37
815.115
437.98
119.085
300.123
309.795
305.224
76.3917
223.433
286.394
296.568
262.617
282.328
170.273
264.333
67.4061
255.136
281.955
344.207
250.284
65.7443
153.444
320.735
1213.73
368.094
1093.1
679.592
300.929
277.407
358.289
342.065
377.254
326.505
283.029
353.249
323.124
228.631
171.924
123.697
68.9152
1.2483
0.148035
0.000980901
0.000346224
0.000265427
2.75243e-05
285.608
12.6346
0.000203785
1.56258e-05
7.03994
8.84892e-05
134.604
73.3085
0.0134097
1.77667
6.02656e-06
0.00778902
0.546511
6.92632e-06
75.6503
268.288
65.2899
0.0157888
1.03926
1.52789e-05
0.0437044
15.2573
6.4322e-06
117.552
62.874
67.7347
11.3228
33.1246
0.451655
0.00310921
0.465911
1.15997e-06
0.00641919
1.15637e-06
0.000319225
9.21983e-08
0.0697878
0.0214147
7.48116e-07
1.93957e-05
1.77612e-07
3.44577e-06
2.54909e-08
6.51664e-08
6.6681e-08
1.89995e-09
2.81647e-08
1.10111e-09
1.28841e-09
3.76177e-11
557.993
1106.49
560.167
312.992
320.253
330.919
322.475
0.00662245
51.4036
446.244
690.716
329.276
316.615
278.83
290.476
269.679
303.428
262.431
290.393
323.194
344.558
281.723
299.867
311.305
165.452
106.771
19.8489
1074.29
311.345
288.838
1105.51
692.564
325.135
292.926
3985.15
460.938
401.547
392.066
337.794
356.121
355.57
263.755
353.751
308.44
327.798
269.395
339.842
312.687
219.913
307.863
231.065
317.086
328.912
213.012
208.807
530.95
888.911
534.212
438.741
721.576
552.976
437.02
661.968
1461.41
1330.36
762.639
1087.91
761.348
796.708
529.361
806.885
454.269
425.148
665.28
566.631
416.198
367.617
393.899
375.003
477.569
547.25
484.632
517.353
1481.75
3092.89
2817.04
1889.92
1777.46
2363.88
1654.98
1150.02
2039.82
1328.4
958.312
877.921
1868.43
1262.32
1153.13
2027.11
1260.28
979.656
1252.72
1792.84
880.847
1045.21
1197.15
726.009
775.72
1062.01
1019.97
682.629
410.633
351.974
353.365
332.187
405.764
335.556
312.886
423.082
376.441
366.819
344.763
420.591
338.711
324.62
382.588
467.262
417.531
466.814
428.931
543.713
401.701
323.533
375.307
365.185
343.526
356.659
419.995
417.416
296.616
269.856
335.225
341.605
276.582
342.984
292.636
379.823
354.261
371.942
433.188
386.061
453.275
381.362
302.231
332.303
301.839
284.623
323.653
306.232
276.232
341.442
290.39
312.812
311.934
315.315
336.373
285.054
294.096
334.135
302.585
299.468
316.128
287.782
327.917
295.244
309.06
288.429
328.8
283.105
321.834
298.69
320.256
337.503
70.8738
177.467
333.217
120.922
232.4
482.847
1241.96
503.808
1179.67
474.131
468.776
1148.39
357.417
367.792
365.757
408.833
380.356
353.892
355.797
367.61
353.385
379.867
357.072
364.799
407.683
376.999
299.392
112.045
10.3812
5.50156
123.694
246.916
150.9
306.162
276.394
294.683
319.481
279.504
312.236
291.076
327.645
341.341
320.674
295.194
327.4
328.14
301.545
311.64
345.564
333.07
304.059
319.779
326.847
312.096
290.011
311.674
318.576
305.565
293.931
319.65
276.016
321.061
340.797
295.91
312.939
338.436
289.623
331.616
347.623
319.975
349.648
307.835
343.778
290.896
347.701
320.834
285.187
305.366
316.976
288.179
301.382
303.828
287.608
8.12992
128.733
10.9065
65.6303
142.654
154.857
440.728
1110.45
1011.48
452.748
453.335
439.931
1006.3
306.173
299.164
328.027
313.42
292.225
328.852
312.965
316.406
287.747
300.716
299.676
305.017
285.012
320.061
336.512
323.585
313.053
338.473
335.955
334.724
315.049
1010
460.996
446.062
452.124
1112.51
466.493
1010.75
326.528
338.08
324.986
341.2
317.55
317.082
339.813
335.736
336.063
318.111
311.147
341.409
341.404
309.001
0.117894
0.00269905
0.0389484
136.361
89.5604
94.9384
157.739
267.325
242.984
222.194
229.273
248.527
263.483
229.966
286.539
257.185
261.86
294.406
270.411
296.647
264.929
271.174
266.443
274.324
282.399
274.981
271.198
284.534
263.788
261.518
293.35
274.039
301.041
302.335
271.015
276.396
266.214
273.971
279.196
287.427
285.469
275.172
469.159
1167.62
472.735
1002.15
468.099
469.41
1092.9
328.79
318.284
336.961
331.046
335.732
322.025
344.701
359.795
345.673
359.978
349.235
339.421
345.856
353.315
918.05
1052.5
460.242
444.643
1093.72
456.554
976.701
330.949
321.827
335.405
328.653
317.997
341.804
336.411
464.343
946.668
488.414
1106.81
478.364
992.159
474.236
329.29
348.076
350.044
342.902
324.645
319.992
346.873
347.223
343.232
329.058
350.269
348.28
324.821
329.42
457.381
976.547
445.076
460.757
917.914
446.616
1052.03
314.909
289.899
299.285
295.704
282.645
297.786
313.375
290.055
317.567
322.662
309.183
276.992
290.568
326.862
348.559
339.278
334.276
324.435
346.268
344.602
330.98
277.148
227.228
288.569
277.079
227.324
260.74
231.01
309.574
290.87
327.082
323.152
282.926
318.029
290.743
298.026
295.967
313.517
315.22
290.317
299.752
305.508
293.627
316.781
298.426
330.358
322.958
330.948
316.344
276.886
258.451
250.385
260.707
270.064
287.295
274.245
260.231
263.94
296.286
312.56
284.786
276.973
322.216
274.478
277.27
290.728
260.897
270.274
250.81
258.82
393.419
660.747
383.931
424.548
879.219
427.094
861.28
244.64
267.885
302.758
283.434
255.005
298.939
266.727
276.139
309.976
311.604
283.238
285.877
299.867
301.526
396.535
674.869
394.944
879.001
431.382
435.292
870.027
268.532
267.987
275.215
292.418
288.37
280.794
299.342
278.822
312.74
284.29
287.47
284.64
303.578
302.92
287.729
206.685
286.777
283.264
231.431
281.286
229.113
267.128
270.166
303.186
255.288
283.903
268.497
245.172
322.969
320.594
334.492
302.89
290.315
334.566
329.975
323.837
349.557
351.669
295.243
341.252
349.62
323.885
155.304
150.114
145.958
58.1344
55.013
44.2101
47.8317
822.345
981.023
462.582
679.088
401.405
867.039
453.048
289.2
208.83
292.363
192.777
285.403
275.676
167.379
290.527
303.105
334.592
330.061
334.685
320.78
344.267
1.49349
0.137525
0.0429079
22.4833
57.9223
0.0452271
0.000976412
0.00269447
8.4645
0.137449
60.3041
3.02324e-05
2.13848e-06
1.0287
340.949
258.875
318.233
324.28
283.492
337.325
317.589
292.287
167.349
275.591
192.755
285.296
289.056
223.373
324.355
318.378
341.094
283.563
317.683
311.428
259.08
422.332
734.137
410.026
602.284
367.264
330.135
509.283
303.432
300.041
302.812
261.654
276.155
256.644
230.029
867.087
401.821
453.187
462.833
822.463
438.356
980.775
362.171
630.146
387.261
441.57
772.329
835.534
439.605
409.492
507.878
733.548
601.132
366.576
421.814
814.609
302.608
256.333
276.012
229.633
261.441
309.731
303.294
314.795
239.261
267.252
266.405
281.741
308.852
311.785
259.884
165.166
240.389
240.724
260.228
281.516
314.96
172.402
246.329
177.935
246.629
287.294
255.363
300.719
270.514
222.501
217.399
153.907
157.361
244.676
237.003
158.132
237.66
245.172
271.018
282.353
218.134
223.166
211.092
224.543
293.24
248.393
149.788
146.953
230.928
207.315
88.6628
97.7467
270.401
217.547
156.087
264.851
147.998
231.713
249.187
265.002
293.833
225.479
211.969
118.414
149.582
136.367
36.6759
48.1377
36.6955
25.7488
296.024
231.947
242.871
301.268
240.606
151.49
138.216
212.971
124.585
227.223
185.543
79.9
177.896
78.5464
218.036
124.994
219.886
84.6697
183.639
184.81
83.047
335.805
212.304
292.766
236.091
143.954
232.294
308.183
220.376
165.14
127.537
220.554
250.457
297.293
308.688
15.0229
12.7125
87.9163
130.4
124.289
28.7285
32.1043
197.514
490.579
316.13
490.989
700.938
316.464
410.997
373.95
384.328
613.548
454.928
298.208
245.55
169.203
259.206
164.11
204.854
285.499
209.952
76.5596
112.903
259.495
210.137
205.099
172.284
164.576
113.178
76.9003
285.83
211.715
175.128
141.985
237.899
205.838
103.18
136.815
186.381
252.783
227.832
46.2275
151.562
106.844
282.375
126.913
247.537
194.248
75.8185
247.591
126.944
144.2
292.999
236.337
308.244
335.894
286.533
212.587
268.652
206.309
103.738
238.372
286.168
212.297
175.736
227.713
151.355
186.285
46.128
70.8033
136.785
252.724
170.357
456.103
299.12
614.549
374.66
263.727
385.985
169.842
104.442
208.253
168.389
35.9205
66.0693
126.914
1.76417e-07
3.71088e-07
7.4829e-08
0.000924056
0.00264522
1.78517e-05
0.00011805
79.0394
18.5889
82.8158
86.4001
19.8573
168.59
173.383
78.4747
172.885
82.5389
167.946
86.1738
18.3542
19.664
82.8788
173.798
133.121
373.149
263.828
208.404
287.525
53.0092
3.99022
8.47285
73.6018
111.005
22.0163
13.3482
21.9952
73.5785
110.977
89.5449
53.0092
13.3416
3.98955
1.19711e-07
8.26845e-07
1.79775e-07
0.000741855
6.41841e-05
0.000116046
4.45971e-05
13.2751
73.6198
70.3677
15.6999
76.4721
161.355
165.998
165.229
66.6281
69.6115
76.142
160.638
15.4545
13.0642
5.16662
0.137822
5.85351
3.13103
0.0774573
0.063075
3.71251
2.94918e-07
4.70551e-06
0.0176857
1.77723
4.63236e-05
2.98933e-07
4.82543e-06
0.00233547
0.000597837
3.97602e-07
5.37266e-05
2.48994
1.079e-05
4.09491e-07
30.2321
35.9453
135.292
4.73728
52.845
3.38198
44.8213
32.5055
6.77182
35.0788
53.5156
56.3846
121.85
121.21
38.6718
38.5843
8.2823
61.5774
62.7702
127.492
128.471
221.947
67.3525
127.721
57.5678
117.952
42.5058
11.1254
73.6626
44.3728
121.856
37.5311
13.8581
4.5128
160.028
69.5652
152.732
68.1251
16.0071
69.6687
153.602
244.664
159.606
121.5
73.488
44.2548
4.46724
13.7253
37.2388
209.74
107.33
138.132
57.6631
36.4388
48.08
8.099
183.411
102.503
20.1936
49.3709
120.837
28.6474
3.97401
3.70898
13.1243
0.282817
2.87512
0.389068
16.1245
45.55
28.6826
3.99428
49.5079
183.548
20.2702
102.729
67.8158
0.0803275
2.06629
3.80986
2.06933
0.0171797
0.0390264
0.979612
210.165
138.556
48.4277
8.19656
117.955
107.854
36.709
104.658
9.93675
74.2165
1.6821
32.3629
15.9557
0.438795
105.338
10.0534
70.4401
2.28048
34.3288
16.3438
0.511425
76.3052
30.2932
15.4877
134.88
85.0183
284.417
191.116
101.132
8.55027
19.8592
0.349585
13.7769
1.48175
30.3004
9.80931e-08
2.67017e-08
1.44431e-06
0.000110328
4.35243e-07
0.0077439
0.00178098
84.7512
283.659
190.408
118.307
75.6108
30.0598
15.3048
27.8353
1.05617
4.84781
49.7621
25.05
110.942
73.1301
19.92
30.4297
101.305
8.60318
69.1503
13.8928
0.353829
1.96912
0.398575
8.34642
32.0374
100.911
64.5472
14.0592
28.9201
1.04088
9.03917
0.148498
28.9292
5.31276
1.04149
0.00505201
0.380981
0.295454
1.21834
0.027936
0.0219392
1.52923
2.98166
7.94495
0.0399588
0.137091
0.521537
1.53818
34.2733
5.56984
50.0054
33.5906
88.6007
58.2653
133.426
186.183
1.53829
7.95938
34.2765
2.99424
19.871
0.522539
0.0401595
1.19377e-07
1.72298e-08
3.81546e-09
1.14075e-07
2.46997e-08
0.000216546
3.27218e-06
0.250549
0.0120446
0.354805
10.0644
0.428912
12.086
0.609103
14.3241
0.774429
16.8404
0.765056
0.540177
0.018932
0.0122122
0.461889
0.478386
0.016166
14.3622
15.0509
0.810221
0.873465
19.8934
21.427
1.14788
1.02861
0.0253083
1.13848
0.0269058
0.000934008
0.0618175
0.165165
0.727432
0.00507429
0.012668
0.309785
0.0126363
0.164924
0.725907
0.00506995
0.309538
0.0618089
0.000933882
0.0918369
0.0367444
3.57804
0.148606
0.0610079
0.00249827
0.00152266
0.119721
6.78032
32.4941
3.72117
0.00403009
0.276435
0.0607292
10.3003
2.30853
38.4424
3.91989
0.00475979
0.324099
0.062441
0.713165
13.7845
63.1121
9.4185
0.383691
0.0124765
0.451096
5.20878
0.605948
0.120271
0.119621
0.601645
0.00244977
0.0132951
13.7028
12.5913
0.709801
0.379914
9.31833
0.0123776
0.445157
55.4285
5.12533
0.235961
0.585739
11.3545
0.00806563
0.235098
1.69645
7.57913
0.0446053
2.89344
0.00314672
0.208523
0.136169
3.66529
0.0989626
0.151747
0.0401053
0.0627694
0.00255485
0.00164063
0.0176499
0.0254154
1.76785
0.0778937
0.0522421
0.00116894
0.000780515
0.00071492
0.0606062
0.00424865
0.0448818
0.00591874
9.2993e-05
6.54543e-05
0.538045
0.00668653
0.10784
1.02637
0.000653205
0.0522177
0.0122326
0.61609
33.4622
17.0234
1.76487
0.0265645
0.61054
0.0107141
0.236729
0.00776125
0.00138772
9.86605
2.76277
0.448331
0.0866429
7.64235
0.00318987
0.211546
1.71411
33.3045
2.93276
0.0452427
1.23611
0.0765664