/*--------------------------------*- C++ -*----------------------------------*\
  =========                 |
  \\      /  F ield         | OpenFOAM: The Open Source CFD Toolbox
   \\    /   O peration     | Website:  https://openfoam.org
    \\  /    A nd           | Version:  9
     \\/     M anipulation  |
\*---------------------------------------------------------------------------*/
FoamFile
{
    format      ascii;
    class       volScalarField;
    location    "0.0004";
    object      p;
}
// * * * * * * * * * * * * * * * * * * * * * * * * * * * * * * * * * * * * * //

dimensions      [1 -1 -2 0 0 0 0];

internalField   nonuniform List<scalar> 
5235
(
1.44212e+06
101298
101298
101381
101298
101343
101450
141981
101311
101372
101475
101298
2.41728e+06
101298
101298
101298
101298
101298
101298
101298
101299
101298
101298
188072
565984
101299
101298
422304
101299
162151
2.64726e+06
131754
1.97096e+06
1.54327e+06
124440
1.60958e+06
863024
101298
101298
101339
101355
128707
1.26274e+06
231801
101298
101298
101364
101301
639837
1.3278e+06
1.44678e+06
2.2688e+06
2.22946e+06
2.29412e+06
2.62061e+06
101375
101298
101298
101497
101454
101298
101298
101302
101356
101360
101298
101298
101298
101298
101298
101299
101298
101464
101298
101307
101298
101338
101298
101298
101299
101307
101298
101298
109233
101298
102227
101298
101298
101329
101298
101702
101298
101298
101298
102618
2.20169e+06
102133
101298
101662
165601
101298
101300
101298
101298
2.26241e+06
1.95806e+06
2.58662e+06
1.70864e+06
2.50007e+06
2.13055e+06
809745
2.22523e+06
2.2934e+06
2.6488e+06
2.28937e+06
2.6417e+06
2.30725e+06
1.21042e+06
2.32758e+06
1.44319e+06
2.50331e+06
1.20762e+06
2.38792e+06
1.96596e+06
495114
1.30399e+06
1.21479e+06
821088
251566
248292
136440
137575
870271
1.21771e+06
819628
272871
242619
135659
143879
101299
101298
101298
101298
101501
101298
101306
101298
101298
101303
101319
101298
101299
101298
168319
101298
103135
101298
101298
101298
101298
101298
101298
101298
101298
101298
101298
101298
101298
101298
101298
105618
102466
101298
101298
101298
102742
101383
101298
101298
101298
101298
1.01437e+06
608951
279540
113714
165809
116287
104194
1.07209e+06
2.27982e+06
1.59228e+06
352900
261303
143116
179687
101300
101298
101298
101299
101301
101298
101298
101301
101298
101298
101302
101298
101298
101298
402727
568226
249113
127084
111792
107048
101673
107447
303626
1.6239e+06
767059
101747
131987
120186
896185
1.07381e+06
2.21713e+06
1.11829e+06
103259
171271
211090
950943
561080
2.05435e+06
974040
102430
186825
133742
124612
354534
345589
106139
101698
101663
106386
373475
345789
124188
106164
101759
101670
107189
1.08359e+06
1.06076e+06
864122
206935
163786
158784
103134
603899
216357
112195
107941
102675
102071
101379
113663
102932
101858
101728
101465
101322
101304
101298
101298
101298
101298
101299
101298
101298
101298
101298
101298
101299
101298
101298
101298
135308
734716
443521
107087
102166
101714
112808
104337
101345
103978
101881
101310
101308
101945
125750
103091
111507
103348
101324
101455
101650
104847
101346
103975
101882
101312
101308
102043
116061
103946
102304
101861
101518
101340
101307
101425
101390
101372
101301
101301
101299
101300
101425
101299
101301
101391
101451
101301
101300
101474
101454
101460
101302
101302
101302
101301
104811
101334
103761
101860
101308
101306
102157
101395
101441
101464
101302
101300
101301
101300
101485
101498
101498
101302
101302
101302
101302
101301
101302
101460
101473
101475
101302
101302
101301
101445
101460
101474
101460
101302
101302
101299
101300
101407
101369
101425
101301
101299
101414
101371
101428
101301
101299
101300
101299
101440
101395
101375
101302
101301
101300
101300
101298
101298
101321
101298
101298
101298
101298
101298
101298
101298
101298
101309
101298
101298
101393
101316
101343
101299
101300
101299
101298
101500
101317
102373
101545
101299
101302
101342
101383
101317
101342
101299
101300
101299
101298
133095
101330
102358
101313
101747
101314
101299
174832
101343
103652
101324
102586
101341
101299
163240
101328
103254
101317
102467
101336
101299
104104
101304
101536
101299
101334
101301
101298
101304
101298
101298
101298
101298
101298
101298
169798
101319
101338
101329
102615
103338
102218
101427
101307
101828
101300
101429
101307
101298
103438
101300
101446
101299
101382
101304
101298
129950
101313
102236
101312
102164
101328
101299
109607
101313
101683
101303
101399
101303
101298
103471
101303
101363
101301
101326
101299
101298
102542
101348
101343
101320
101317
101299
101299
102475
101356
101344
101323
101318
101299
101299
101375
101305
101298
101300
101304
101299
101386
101378
101306
101298
101300
101304
101299
101399
101304
101334
101325
101299
101298
101298
101299
101333
101305
101325
101299
101298
101298
101299
101318
101298
101323
101304
101298
101298
101298
101324
101303
101304
101298
101299
101298
101298
101428
101303
101367
101300
101325
101299
101298
102916
101432
101352
101341
101318
101299
101299
101796
101301
101317
101299
101306
101298
101298
101303
101301
101299
101298
101298
101298
101298
101365
101298
101313
101298
101299
101298
101298
101298
101298
101298
101298
101298
101298
101298
101372
101307
101298
101299
101304
101299
101419
101330
101298
101298
101298
101300
101298
101303
101303
101301
101312
101298
101298
101298
101298
101304
101302
101313
101298
101298
101298
101298
101444
101298
101316
101298
101308
101299
101298
1.18583e+06
207467
1.22575e+06
1.65397e+06
101997
101298
101316
101300
1.58813e+06
1.66822e+06
795241
1.46572e+06
641873
481599
333306
1.56639e+06
679412
1.19308e+06
193010
410774
185214
115198
521578
314913
939556
110527
197540
139632
104525
140776
101619
120307
101461
110859
105579
101364
554856
107120
152392
110518
101370
102570
101920
102540
101397
107668
102429
101301
101483
101314
101435
101321
102747
101829
101299
101342
101306
101422
101299
101298
101298
101314
101306
101300
101347
101298
101310
101298
101299
101298
101298
101300
101298
101298
101298
101298
101298
101298
101314
101298
101301
101298
101299
101298
101298
101300
101304
101302
101298
101298
101298
101298
101301
101303
101302
101298
101298
101298
101298
101303
101300
101302
101298
101298
101298
101298
101304
101301
101302
101298
101298
101298
101298
101299
101298
101298
101298
101298
101298
101298
101298
101298
101319
101299
101298
101298
101298
101299
101300
101300
101298
101298
101298
101298
101298
101299
101321
101298
101298
101298
101298
101298
101298
101305
101298
101298
101298
101298
101298
101298
101320
101299
101298
101298
101298
101299
101299
101345
101299
101298
101298
101298
101298
101298
101310
101298
101298
101298
101298
101299
101298
101298
101298
101298
101298
101298
101300
101298
101299
101298
101298
101298
101298
101300
101299
101300
101298
101298
101298
101298
101298
101299
101299
101298
101298
101298
101298
101298
101298
101298
101298
101298
101298
101298
101298
101298
101298
101298
101298
101298
101298
101299
101298
101299
101298
101298
101298
101298
101298
101298
101298
101298
101298
101298
101298
101298
101298
101298
101298
101298
101298
101298
101299
101298
101299
101298
101298
101298
101298
101298
101298
101300
101298
101298
101298
101298
101299
101298
101298
101298
101298
101298
101298
101298
101298
101300
101298
101298
101298
101298
101298
101298
101298
101298
101298
101298
101298
101298
101298
101299
101298
101298
101298
101298
101298
101298
101300
101298
101298
101298
101298
101298
101298
101298
101298
101298
101298
101298
101298
101301
101299
101298
101298
101298
101298
101298
101300
101299
101298
101298
101298
101298
101298
101298
101298
101298
101298
101298
101298
101298
101298
101298
101298
101298
101298
101298
101298
101298
101298
101298
101298
101298
101298
101299
101298
101298
101298
101298
101298
101298
101299
101298
101298
101298
101298
101298
101298
101298
101298
101298
101298
101298
101298
101298
101298
101298
101298
101298
101298
101298
101298
101298
101298
101298
101298
101298
101298
101298
101298
101298
101299
101298
101298
101298
101298
101298
101298
101298
101298
101298
101298
101298
101298
101298
101298
101298
101298
101298
101298
101298
101298
101298
101298
101298
101298
101298
101298
101298
101298
101298
101298
101298
101298
101298
101298
101298
101298
101298
101298
101298
101298
101298
101298
101298
101298
101298
101298
101298
101298
101298
101298
101298
101298
101298
101298
101298
101298
101298
101298
101298
101298
101298
101298
101298
101298
101298
101298
101298
101298
101298
101298
101298
101298
101298
101298
101298
101298
101298
101298
101298
101298
101298
101298
101298
101298
101298
101298
101298
101298
101298
101298
101298
101298
101298
101299
101298
101298
101298
101298
101298
101298
101298
101298
101298
101298
101298
101298
101298
101299
101298
101298
101298
101298
101298
101298
101298
101298
101298
101298
2.27303e+06
1.44394e+06
773807
302144
1.83766e+06
1.41004e+06
1.30772e+06
1.78355e+06
186632
347317
204594
495721
574690
958452
839137
575281
509143
952448
282222
830861
1.27582e+06
1.8344e+06
1.31447e+06
638047
735389
1.53815e+06
1.98848e+06
2.07279e+06
1.41275e+06
1.85103e+06
1.90111e+06
1.85727e+06
1.22474e+06
1.35566e+06
1.73301e+06
1.61981e+06
1.75331e+06
1.01302e+06
1.58354e+06
1.83243e+06
2.39075e+06
2.27478e+06
2.2907e+06
2.11508e+06
1.96585e+06
1.78258e+06
1.43811e+06
1.67359e+06
1.99417e+06
2.24474e+06
1.50854e+06
1.48485e+06
732958
2.057e+06
1.89711e+06
1.89601e+06
1.99665e+06
804783
226259
530050
2.1624e+06
1.37821e+06
1.79991e+06
2.06601e+06
4.04524e+06
402744
2.67111e+06
108393
109391
2.20966e+06
140884
2.07773e+06
2.91934e+06
132554
130466
136348
86879.7
88968.7
135143
105517
114543
104315
126898
124836
140689
144582
141261
129950
123598
136192
123857
142129
120357
116717
137878
128101
118106
119673
127315
142691
127111
133818
110804
128015
118286
141927
118575
126307
111868
133862
323168
2.35756e+06
331905
323722
2.15485e+06
319153
2.26685e+06
308141
318140
2.1059e+06
2.2112e+06
318018
313720
2.20772e+06
73813.6
91975.6
112880
99377.4
94671.1
119193
78150.6
91015.2
100052
95346.8
75629.7
94142.6
119709
78701.9
3.70757e+06
214138
246470
4.25893e+06
1.71904e+06
4.31336e+06
1.7015e+06
152180
202699
145295
1.70707e+06
1.92166e+06
1.68702e+06
1.94779e+06
139602
132338
109963
110817
104649
111069
110328
134054
105835
107938
108844
100095
103724
108035
107172
103826
104264
98610.9
99258.4
106233
93050.4
104524
104038
92247
107760
100562
98576.2
107166
386025
3.1854e+06
554689
3.00478e+06
505735
365777
2.54378e+06
499855
2.98399e+06
537916
360522
2.501e+06
372799
2.47098e+06
149082
101177
136965
103424
78972.2
82748.1
86756.9
101427
150181
137384
83231.8
88456.4
80543.9
87253.9
239118
153647
144677
505695
360185
302457
595977
216468
147111
160647
509856
373768
306930
610342
150657
164099
156835
344849
361401
299731
415038
143511
161344
149722
341127
347606
295571
402895
949002
3.80214e+06
846767
1.52517e+06
4.94294e+06
1.69319e+06
4.73973e+06
180278
339598
204387
503858
1.11545e+06
969300
600897
837477
3.81779e+06
921135
1.51305e+06
4.73547e+06
4.64979e+06
1.65799e+06
179814
401113
339436
500630
1.10744e+06
966716
590775
1.2427e+06
1.01115e+06
2.05427e+06
1.61425e+06
855775
1.41668e+06
1.97543e+06
1.2311e+06
989404
1.59926e+06
2.03675e+06
846194
1.38791e+06
1.95579e+06
955381
978477
1.80299e+06
1.59432e+06
825408
1.10728e+06
1.71226e+06
946451
952207
1.58536e+06
1.7909e+06
816193
1.08419e+06
1.70589e+06
2.36001e+06
4.92915e+06
4.4015e+06
2.8044e+06
4.92423e+06
2.48459e+06
2.77984e+06
1.28536e+06
1.94435e+06
1.95869e+06
2.00205e+06
1.8414e+06
1.42995e+06
1.93408e+06
1.27943e+06
1.941e+06
2.00904e+06
1.96752e+06
1.8392e+06
1.41563e+06
1.93452e+06
2.37646e+06
5.03462e+06
2.78593e+06
4.40336e+06
2.52494e+06
4.97814e+06
2.78769e+06
1.95484e+06
1.39926e+06
645327
600999
3.1504e+06
153834
2.20819e+06
3.18058e+06
112622
133370
105012
1.44703e+06
103091
113912
132158
90650.3
172745
125211
116208
127833
92489.3
109361
105328
91998.4
126072
108287
120496
84922.3
107679
91109.9
101356
316244
2.10128e+06
306502
364909
2.29852e+06
330093
2.47562e+06
106581
68508
82458.4
69001.8
72669.5
82929.2
77182.6
101076
105619
82712.8
91373.8
94369.6
101213
82486.8
82863.2
105802
79133.6
92404.9
85180.6
79420.4
82976.5
2.98531e+06
768737
1.76846e+06
316454
2.05416e+06
4.04424e+06
3.78017e+06
110137
116253
151499
91496.7
208503
104333
91574.6
109806
138245
110471
89585.6
91586
91930.6
87558.9
2.75116e+06
647973
451448
2.41835e+06
351509
453530
2.75219e+06
504697
3.49734e+06
2.64613e+06
629170
823015
414015
2.8785e+06
216230
118850
74145.6
66680.1
69576.9
74513.2
104208
342566
197781
118003
87869.3
96993.9
79968.6
129188
561227
227693
256174
200535
222463
112910
111098
917776
236447
344633
207348
165404
399773
111458
189979
315544
532585
521310
826364
1.28243e+06
890056
4.66052e+06
3.74591e+06
1.08333e+06
688636
3.95397e+06
1.22115e+06
3.23088e+06
894654
369636
715682
608503
312887
129908
245572
4.39045e+06
1.11705e+06
1.49886e+06
4.84525e+06
1.95064e+06
2.40211e+06
5.00497e+06
1.84048e+06
682440
1.03027e+06
1.89942e+06
2.05358e+06
2.45553e+06
1.48063e+06
2.12689e+06
1.84374e+06
1.83818e+06
1.26928e+06
1.67369e+06
2.04892e+06
1.66574e+06
5.48928e+06
4.86982e+06
2.13284e+06
2.9536e+06
5.3465e+06
3.43864e+06
5.27172e+06
2.62993e+06
4.11788e+06
2.79766e+06
4.91347e+06
2.6929e+06
2.97521e+06
4.88707e+06
724691
1.6107e+06
1.47226e+06
2.36431e+06
1.88636e+06
2.11748e+06
2.0332e+06
1.05811e+06
3.10187e+06
2.10188e+06
3.17082e+06
4.12079e+06
2.81278e+06
4.71892e+06
2.08499e+06
101306
2.01164e+06
998233
1.77315e+06
488628
1.01976e+06
132813
1.28755e+06
160251
382913
426920
1.00788e+06
148342
329293
1.13679e+06
653387
328552
202886
875417
536110
1.41606e+06
1.83273e+06
101302
940919
1.3172e+06
101304
101298
102887
101298
1.96846e+06
1.37359e+06
1.94912e+06
1.25768e+06
1.94893e+06
2.03366e+06
1.90959e+06
1.89681e+06
1.84193e+06
888012
1.7824e+06
2.28368e+06
2.28989e+06
1.95016e+06
2.07e+06
1.94774e+06
1.60853e+06
2.18088e+06
1.58594e+06
1.80476e+06
2.34462e+06
1.31712e+06
2.35218e+06
2.10294e+06
2.10318e+06
2.26373e+06
2.14413e+06
2.38532e+06
2.22742e+06
375530
1.63559e+06
316463
1.535e+06
2.21653e+06
1.19341e+06
1.37238e+06
288874
123864
754073
680039
258564
118496
884237
214675
1.30335e+06
2.16213e+06
632257
978099
1.99106e+06
1.18649e+06
315901
522165
139821
197772
110552
104547
209712
106415
101375
104955
101352
182489
102458
101341
101304
101354
104697
101646
103949
101561
101731
102937
101322
113753
142088
101860
101466
101299
101300
101321
101831
102751
101435
101342
101312
101308
101319
101348
101367
101301
248077
101298
977517
1.09271e+06
2.10664e+06
101298
230187
2.59255e+06
117181
1.31984e+06
2.14683e+06
1.7781e+06
2.38819e+06
2.3562e+06
2.26525e+06
2.10274e+06
101298
101298
101298
2.88083e+06
4.4071e+06
1.38779e+06
3.9311e+06
110849
582004
277425
1.82451e+06
1.29204e+06
1.62396e+06
5.58712e+06
3.163e+06
274109
2.52798e+06
768656
1.95015e+06
1.50839e+06
796481
253635
1.76928e+06
1.84227e+06
2.57312e+06
111748
2.4253e+06
120842
3.13294e+06
5.70021e+06
91436.5
702905
99356.5
94617.8
79176.4
78243.6
643332
103521
742382
1.9029e+06
2.37897e+06
2.20668e+06
1.92371e+06
179438
111404
101353
101319
101315
101300
1.32864e+06
818654
101311
101299
482393
101305
4.19405e+06
2.03915e+06
102537
262675
101298
101852
140191
101298
1.81751e+06
1.62472e+06
1.83728e+06
102360
170733
101299
104616
847661
101298
2.40695e+06
2.00215e+06
1.83513e+06
760938
1.40676e+06
137421
101542
138301
101298
101809
101298
101324
101298
106510
102873
101298
101299
101298
101298
101298
101298
101298
101298
101298
101298
101298
101298
5.0055e+06
2.54587e+06
140044
91828.7
107076
104593
382863
101634
1.36669e+06
892333
4.74472e+06
2.57174e+06
110237
147525
509352
350178
141999
361502
370785
149363
128168
602177
977829
1.02206e+06
1.96489e+06
2.04896e+06
879062
2.87486e+06
91756.4
1.28511e+06
2.47146e+06
4.64989e+06
107980
505106
170459
119902
96558.8
127063
81742.1
78214.1
74382.7
837693
128600
948338
106212
295480
88487.6
400867
574827
139661
924675
207270
225227
1.50891e+06
1.58369e+06
130725
152540
130699
129375
140634
140053
121512
139289
164340
157281
155374
150072
149474
144697
126176
143072
113924
109705
136199
132494
104140
119619
118096
110803
127346
142676
136333
133839
167348
168972
166449
164276
163289
166185
165995
159331
166405
163566
157905
144132
164594
162498
155578
159807
157825
148802
157362
160167
137819
159432
155689
151682
149842
156791
159307
141632
133617
113785
121291
115515
132744
101044
98623.4
118740
105165
113997
108821
126782
81616.1
91823.2
83104.1
118478
107490
118505
106429
127730
96578.8
91895.5
105198
114010
108789
99370.4
118763
126779
134665
130129
101553
100221
129576
97538.2
134047
99420.4
73867
92024.4
112936
94743.1
119245
89027.2
139477
110980
104523
109868
109246
132223
110684
108814
107862
130393
133958
100051
103676
105742
107151
98587.1
104238
103847
99221.1
105505
93058.5
103997
100465
108308
98516.6
107661
92193.9
104447
167454
202048
1.77376e+06
1.94353e+06
401615
2.41314e+06
2.30076e+06
330516
2.27582e+06
323660
2.49177e+06
343148
379854
2.74621e+06
69723.4
64476.9
79220.8
103496
85468
64674.9
74215.9
64516.3
64869.8
85509.1
69837.1
79289.6
103536
79196.7
332650
3.44222e+06
835251
429853
1.83312e+06
5.10892e+06
2.42165e+06
161487
118467
98468
126979
146901
228556
100038
112170
99503.2
99772
120538
178008
111950
91237.7
85720.3
81403.5
92490.9
112844
108846
78086
85572.7
100306
229776
127371
161745
98440.5
111738
118536
151604
116514
133676
91518.8
104399
110169
209106
94507.4
155352
89528.4
139582
98459.5
131900
94489.7
86491.5
113660
93666.6
88422.6
140094
94586.7
141293
211431
520483
1.83596e+06
674349
1.72823e+06
2.20744e+06
1.99217e+06
555628
2.67774e+06
3.00924e+06
365753
386407
505929
3.19495e+06
110344
131964
89347.5
91542.8
109739
87500.6
137754
88746
140612
94839.6
111051
93676.4
113747
86570.4
86813.3
137036
103535
82756.6
86974.7
79014.4
101181
2.91988e+06
360532
499718
537578
2.49923e+06
372698
2.98223e+06
150142
87300
137418
83254.2
101445
104350
80600.3
101932
102454
226085
151938
95861.2
93426.3
148139
106254
101445
103109
1.50732e+06
1.62869e+06
1.64514e+06
1.21236e+06
281787
227656
613007
725682
236225
265709
782953
610551
373698
306588
246428
146958
216260
160511
415473
299627
344808
164122
145197
156753
150564
302131
359732
595327
144553
213942
238877
153486
341105
347495
402768
143474
149689
161343
152159
482848
2.71358e+06
367917
3.66505e+06
722980
481995
3.12766e+06
197305
116749
77284.2
348221
85115.7
175316
127622
67088
72191.8
62154.7
226449
121352
72032.8
103330
3.96258e+06
3.23401e+06
533373
663152
2.89149e+06
429619
3.49307e+06
350209
176475
85526.1
198162
117184
94893.3
77493.1
629055
3.49542e+06
504737
2.64324e+06
413914
3.1787e+06
823563
454972
141745
94701
110094
288307
167313
91315.4
91342.9
110003
225249
94671.2
141501
288299
454568
428512
3.47809e+06
660779
531290
3.94327e+06
887784
3.22117e+06
115434
255983
118680
714124
646879
229981
244940
125964
462047
189182
1.10106e+06
707272
248723
417792
96807.8
340711
197188
117775
87516.3
79874
171804
328517
1.18541e+06
450874
328173
715003
262081
923736
1.095e+06
248010
416444
188362
272036
458701
125441
229402
710688
244297
114958
254290
118258
275483
1.1383e+06
425862
1.00645e+06
147719
328566
158849
488261
331217
1.01058e+06
904373
527064
602140
212123
197167
890937
521231
826641
315729
317171
190044
534070
196809
329420
368464
525909
600230
900764
1.00609e+06
1.5253e+06
4.95401e+06
1.69566e+06
950886
3.80865e+06
847262
4.05798e+06
954024
1.37938e+06
581074
865762
550698
333658
203997
1.118e+06
403797
339888
970176
504138
204777
180299
1.51216e+06
4.73424e+06
1.65686e+06
3.7087e+06
837203
920490
3.81682e+06
955502
495193
573651
204195
301588
186470
345868
1.10668e+06
339505
966747
500684
590486
179829
202649
657852
1.59813e+06
737646
406874
1.02755e+06
371143
1.10839e+06
203605
348021
577556
549504
863391
1.37334e+06
949891
746049
390924
132184
955070
1.5049e+06
647028
336324
840840
260055
126445
1.54049e+06
620765
259659
840161
1.25407e+06
1.37292e+06
1.41678e+06
1.10736e+06
1.08714e+06
1.01544e+06
1.04586e+06
4.68284e+06
3.73671e+06
762256
5.71829e+06
2.34324e+06
4.53445e+06
1.27455e+06
510041
1.58434e+06
747397
1.77334e+06
941099
1.30205e+06
1.99386e+06
1.50067e+06
951212
645638
335419
131529
388345
252527
202143
111855
104607
1.03346e+06
1.93138e+06
104557
101373
101445
457478
109673
1.48966e+06
101300
101298
173575
335258
1.85498e+06
897793
541859
1.42784e+06
202543
659548
747134
1.99363e+06
1.30218e+06
1.77215e+06
940563
509370
1.29039e+06
540076
894359
334126
1.42503e+06
658661
1.02022e+06
1.85113e+06
1.17005e+06
4.93073e+06
1.6155e+06
5.17783e+06
2.02814e+06
2.56235e+06
5.44871e+06
287937
973041
527644
1.42275e+06
852548
1.30699e+06
1.84527e+06
4.52537e+06
2.33447e+06
1.27149e+06
759319
4.66081e+06
1.38045e+06
3.72397e+06
2.40458e+06
4.84429e+06
1.95066e+06
1.11694e+06
4.39014e+06
4.04319e+06
1.50023e+06
1.62348e+06
5.46635e+06
4.95448e+06
5.19385e+06
2.03403e+06
1.17442e+06
4.42591e+06
530860
1.3124e+06
855771
1.85145e+06
1.42724e+06
584491
289298
573701
1.82849e+06
1.40702e+06
1.27123e+06
829015
281429
506596
2.05729e+06
2.0872e+06
1.52004e+06
1.51692e+06
2.0539e+06
694956
1.08745e+06
2.01735e+06
1.41763e+06
2.08732e+06
1.41492e+06
631983
1.50614e+06
695701
713629
1.60017e+06
1.50166e+06
1.99389e+06
2.06366e+06
1.52477e+06
1.42952e+06
2.06142e+06
1.4233e+06
1.51898e+06
708776
791393
1.4962e+06
1.59441e+06
1.57022e+06
2.04419e+06
1.17066e+06
2.03497e+06
2.42154e+06
2.03883e+06
1.5204e+06
2.03333e+06
1.89602e+06
1.9461e+06
1.25605e+06
1.94724e+06
2.00442e+06
1.37448e+06
2.03657e+06
1.51317e+06
2.02712e+06
762788
1.16242e+06
2.03682e+06
1.56402e+06
1.61065e+06
1.3528e+06
1.50628e+06
946089
1.04162e+06
946034
819096
1.02452e+06
1.95276e+06
1.84187e+06
888406
1.78469e+06
2.28338e+06
2.28211e+06
1.30863e+06
2.10514e+06
1.73421e+06
2.13202e+06
1.72337e+06
1.72045e+06
1.89266e+06
1.2703e+06
1.89045e+06
1.39184e+06
1.75591e+06
1.6785e+06
1.77109e+06
1.77492e+06
685405
2.33269e+06
1.53317e+06
2.26403e+06
2.55317e+06
2.302e+06
1.40702e+06
2.25333e+06
2.26402e+06
2.42525e+06
2.25169e+06
1.76722e+06
1.47109e+06
927548
627276
573097
1.62283e+06
1.57267e+06
1.5983e+06
862078
904868
3.53724e+06
6.28276e+06
3.36443e+06
6.2785e+06
5.72861e+06
3.36106e+06
2.32778e+06
2.40713e+06
5.59111e+06
5.65275e+06
6.04576e+06
3.27677e+06
5.10334e+06
3.29779e+06
1.79741e+06
2.34236e+06
2.11341e+06
1.33279e+06
2.15192e+06
2.03254e+06
2.23828e+06
1.79163e+06
2.14792e+06
2.10872e+06
2.37597e+06
2.33875e+06
2.23784e+06
2.03476e+06
1.06247e+06
1.8572e+06
2.27193e+06
2.20835e+06
1.78907e+06
2.26296e+06
2.25535e+06
2.05757e+06
2.18182e+06
1.61769e+06
1.96705e+06
1.52112e+06
2.33004e+06
2.04885e+06
1.19416e+06
2.13403e+06
1.81244e+06
2.33136e+06
1.93407e+06
1.81188e+06
2.13397e+06
2.55297e+06
1.52819e+06
2.26089e+06
1.40505e+06
683443
1.62149e+06
2.3296e+06
1.61814e+06
2.25883e+06
2.25817e+06
1.78382e+06
1.05662e+06
1.85113e+06
2.26801e+06
1.9685e+06
2.33147e+06
2.18393e+06
1.52015e+06
1.77373e+06
2.05777e+06
1.61846e+06
3.30151e+06
6.03625e+06
3.26891e+06
5.62905e+06
2.39516e+06
3.15538e+06
5.5844e+06
2.11063e+06
1.92617e+06
1.69165e+06
1.99224e+06
1.33543e+06
1.68509e+06
2.19781e+06
101298
101298
101298
101342
101414
101299
101304
1.88956e+06
901143
1.88785e+06
1.95967e+06
958361
2.00731e+06
2.07801e+06
1.88464e+06
2.08013e+06
1.88602e+06
2.0097e+06
1.95834e+06
893702
952377
2.36597e+06
3.98643e+06
2.71438e+06
5.05622e+06
2.77506e+06
3.04848e+06
4.93475e+06
1.41066e+06
304618
457710
1.5571e+06
1.63513e+06
762367
594036
762222
1.55725e+06
1.63613e+06
1.62881e+06
1.41061e+06
593898
304570
101298
101298
101298
101334
101301
101304
101300
783194
2.04302e+06
1.78176e+06
812676
1.85426e+06
2.07078e+06
2.49922e+06
2.49982e+06
1.94054e+06
1.77459e+06
1.85145e+06
2.07354e+06
804433
774957
287441
107003
306390
228883
104713
104127
247089
101298
101298
102413
210112
101301
101298
101298
101462
101338
101298
101302
259401
101299
101298
1.17815e+06
1.28698e+06
2.22606e+06
375458
1.63522e+06
309538
1.51693e+06
1.2776e+06
463060
1.22894e+06
1.7155e+06
1.59517e+06
2.27385e+06
1.97608e+06
1.29133e+06
1.31299e+06
535244
1.65117e+06
1.70024e+06
1.96357e+06
2.01834e+06
2.30144e+06
2.08909e+06
2.48038e+06
1.92301e+06
2.40481e+06
1.63859e+06
753683
1.94272e+06
1.65076e+06
2.38864e+06
1.50049e+06
794989
404035
2.25126e+06
2.11786e+06
2.58642e+06
2.08138e+06
968316
2.11898e+06
2.57285e+06
2.24653e+06
2.25254e+06
2.38768e+06
1.94119e+06
1.64851e+06
401334
790067
1.49424e+06
2.3023e+06
2.3153e+06
2.50834e+06
1.92781e+06
1.49912e+06
1.74e+06
605707
2.34178e+06
2.2734e+06
1.00577e+06
1.76553e+06
2.41303e+06
1.25577e+06
368772
286804
668243
117830
252616
123723
752035
1.29999e+06
1.25655e+06
369863
1.76761e+06
2.34074e+06
1.00781e+06
2.27431e+06
1.83572e+06
104813
192286
249158
192374
102138
103112
148136
2.29747e+06
2.50846e+06
1.74577e+06
610547
2.408e+06
2.31725e+06
1.50469e+06
2.16266e+06
630381
1.99013e+06
214422
1.3033e+06
881989
132563
2.16392e+06
644411
1.94166e+06
256503
1.35782e+06
901730
138584
2.56977e+06
1.84452e+06
1.0232e+06
4.19683e+06
2.73045e+06
5.47282e+06
3.47722e+06
2.13569e+06
570747
939323
126142
801620
201432
1.25615e+06
101298
101298
101298
101305
101298
101802
101435
2.72682e+06
5.4713e+06
3.47593e+06
3.92054e+06
2.55936e+06
1.835e+06
1.01489e+06
1.14193e+06
178370
393795
1.59788e+06
1.17345e+06
2.0761e+06
1.93963e+06
940566
1.25831e+06
2.13541e+06
572840
1.92546e+06
805490
126430
236289
130200
567541
1.30508e+06
2.12754e+06
1.85805e+06
816238
1.09808e+06
164422
568184
110914
1.0982e+06
357969
164452
101560
120053
116073
158426
102619
102347
171791
285196
496290
103950
109656
132963
188782
1.15088e+06
488267
2.35046e+06
1.54916e+06
3.33552e+06
2.19751e+06
2.97458e+06
4.43074e+06
188772
496656
1.15084e+06
285779
879442
133014
103962
101298
101298
101298
101298
101298
101309
101298
118791
102105
124522
647207
131633
682822
141715
825055
152865
851084
152221
139726
102576
102173
131676
133467
102411
761956
800236
155364
160895
941485
1.00656e+06
179651
170011
103018
179004
103175
101353
104869
109937
136462
101567
101925
117098
101923
109925
136400
101567
117086
104868
101353
107640
103758
316973
111334
105349
101468
101403
110520
532847
1.39176e+06
359950
101617
123056
106006
709893
264706
1.5323e+06
370822
101674
126789
106076
159216
875612
2.00543e+06
668420
131595
102313
137465
443893
144636
110512
110463
144319
101488
102264
872247
816794
158941
131291
663667
102305
136980
1.87686e+06
434487
119569
148497
762354
101943
119503
223629
575780
104709
306784
101546
117604
111755
321550
108123
111542
103988
105465
101472
101412
102411
102882
209577
106406
104794
101374
101350
101339
104650
101551
103828
101643
101304
101302
138835
101762
108336
173425
101347
105207
102158
153175
1.98256e+06
1.09536e+06
261650
103808
152703
102198
117892
101856
101405
632561
296696
133166
107938
578926
101549
117839
224815
1.41044e+06
309182
104757
192332
107199
101508
418072
115225
1.24744e+06
298354
105228
101347
102160
139060
482965
108353
101764
104805
179530
209614
102883
106414
101374
101350
182612
104963
102460
102893
106446
101375
101352
104454
105079
275769
147941
101314
102044
102127
101816
151808
120668
1.43279e+06
804378
213682
139134
102747
137870
111479
101649
101436
101319
101303
137708
101435
101800
101303
101645
102736
101319
102155
101300
101428
101373
106195
102156
101311
101954
101358
101311
104058
256282
138076
101896
101300
101301
101428
101371
101360
101299
101299
101300
101407
101425
101369
101356
101299
101299
101305
101334
101422
101739
102602
101299
101300
101299
101319
101422
102602
101740
101305
101334
101383
101299
101300
101317
101338
101299
101298
101850
101855
101319
101298
101308
101298
101308
107582
101300
101306
101306
101742
101399
101403
101314
101299
101323
102085
102448
101328
101317
101331
101299
101331
102835
102955
101338
101340
102382
101298
101320
101310
101995
101315
101806
101307
101298
101306
117703
101781
101316
101862
102530
101976
101973
101312
101322
101299
101322
102387
137727
101320
101310
101316
102003
101298
101526
101301
101307
101301
101525
101362
101298
101319
101299
101345
101302
101298
101300
101434
101299
101300
101372
101314
101334
101299
101298
101594
101314
101728
101298
101306
101303
101298
101298
101298
101298
101298
101298
101298
101298
101314
101301
101298
102144
101463
101302
101318
101304
101393
101298
101298
101299
101309
101298
101299
101298
101303
101303
101592
105795
101371
101324
101303
101319
101298
101298
101299
101298
101303
101324
101318
101298
101298
101298
101298
101302
101304
101558
101303
101298
101301
101298
101299
101299
101364
101301
101298
101300
101298
101304
101473
101563
101303
101298
101301
101298
101342
101299
101366
101301
101298
101298
101300
101302
101300
101298
102889
101346
101319
101299
101305
101807
101550
101298
101304
101301
101298
101571
101308
101300
101298
101299
101303
101298
101409
101303
101466
101301
101298
101298
101300
101322
101298
101299
101298
101299
101298
101298
101298
101323
101310
103409
102086
101331
101313
101298
101298
101299
101309
101393
101299
101304
101303
101301
101311
101298
101298
101298
101298
101315
101298
101322
101299
101298
101298
101299
101303
101415
101468
101301
101298
101300
101298
101316
101298
101322
101299
101298
101299
101298
1.08907e+06
113020
115677
108388
660501
101303
101301
101300
101298
1.17131e+06
117732
942867
101301
101307
101298
101298
1.37229e+06
1.42213e+06
108966
1.12109e+06
108364
104120
104323
1.41869e+06
1.12967e+06
2.67442e+06
820296
110033
117829
1.60894e+06
101559
102413
1.59998e+06
101302
101302
1.15824e+06
1.11136e+06
1.13223e+06
1.12914e+06
1.14293e+06
1.13023e+06
1.14479e+06
101472
1.28915e+06
309964
1.37087e+06
1.89853e+06
1.33965e+06
1.02221e+06
1.1609e+06
1.10778e+06
1.12953e+06
1.1261e+06
1.12607e+06
1.14553e+06
1.11195e+06
1.37544e+06
1.25512e+06
1.21416e+06
1.1126e+06
1.03589e+06
1.10681e+06
1.05341e+06
1.37442e+06
1.25497e+06
1.21285e+06
1.10768e+06
1.01568e+06
1.04642e+06
1.08727e+06
1.54383e+06
101403
1.49216e+06
101365
2.52048e+06
101393
101461
1.23058e+06
1.47783e+06
101344
109285
1.43435e+06
101485