/*--------------------------------*- C++ -*----------------------------------*\
  =========                 |
  \\      /  F ield         | OpenFOAM: The Open Source CFD Toolbox
   \\    /   O peration     | Website:  https://openfoam.org
    \\  /    A nd           | Version:  9
     \\/     M anipulation  |
\*---------------------------------------------------------------------------*/
FoamFile
{
    format      ascii;
    class       volScalarField;
    location    "0.0034";
    object      alpha.c4;
}
// * * * * * * * * * * * * * * * * * * * * * * * * * * * * * * * * * * * * * //

dimensions      [0 0 0 0 0 0 0];

internalField   nonuniform List<scalar> 
26926
(
0.000444938
0.000207963
3.88836e-06
7.96858e-05
6.60865e-11
2.02665e-09
4.27004e-14
3.81563e-14
0.00177559
0.0070799
0.000830067
0.000460169
2.17778e-09
3.72982e-10
8.04905e-11
1.33951e-11
0.0112122
0.000674048
0.00488294
0.000704753
0.00502238
0.0018292
0.0113727
0.0010358
0.00152045
0.0108125
0.000333457
0.00263919
0.000629203
0.00462996
0.00342682
0.000470327
0.0035607
0.00010606
9.70855e-05
0.00161726
0.00153154
0.00177021
0.000411233
0.00285345
8.68456e-05
0.00123077
3.80501e-05
0.000985884
0.0113434
0.00890912
0.00902493
0.00644201
0.0065365
0.00513952
0.00506295
0.0113689
0.00903563
0.00904098
0.00656426
0.00655922
0.00515284
0.00515116
0.00997893
0.00854784
0.00780275
0.00618244
0.00567469
0.00484025
0.00439906
0.00867882
0.00530299
0.00666318
0.00399338
0.00491284
0.00374078
0.00296486
0.00500997
0.00685361
0.00685078
0.00386018
0.00279354
0.00278537
0.00386344
0.00672482
0.0049807
0.00682947
0.0038451
0.00270762
0.00276682
0.00377945
0.00642058
0.00414488
0.00580738
0.00255866
0.00359686
0.00323912
0.00227958
0.00590737
0.00310193
0.0232046
0.00612571
0.0238738
0.00190285
0.00179593
0.00903744
0.00852626
0.00557079
0.0122547
0.0195256
0.00166026
0.00179676
0.00792196
0.00609298
0.0239866
0.0176515
0.017534
0.015734
0.0156652
0.0112924
0.0113622
0.0237023
0.0169032
0.0173521
0.0152167
0.0155498
0.0111766
0.0108865
0.0219431
0.0158765
0.0143901
0.0140214
0.0128241
0.0102267
0.00904044
0.0160564
0.00869963
0.0114537
0.00808763
0.0105751
0.00739588
0.00561902
0.0127503
0.00895578
0.0126478
0.00796357
0.00554045
0.00549495
0.00802271
0.00609921
0.0100138
0.0099708
0.00706557
0.00427393
0.00710789
0.00424883
0.0121097
0.00882077
0.0124835
0.00786357
0.00523881
0.00541629
0.00763008
0.00967221
0.00604859
0.0098928
0.00699102
0.00408501
0.00680381
0.00420237
0.0113091
0.00690965
0.0099237
0.00486916
0.00712726
0.00625703
0.00424732
0.00913736
0.00495091
0.00813822
0.00382384
0.00638311
0.00563494
0.00336539
0.00419478
0.00805934
0.0055784
0.00508346
0.00257138
0.0034273
0.0038388
0.00407267
0.00512745
0.00671029
0.00460326
0.00206613
0.00348845
0.00273935
0.00487958
0.00289366
0.00188866
0.00331168
0.00328585
0.00491433
0.00287382
0.00481763
0.00274633
0.00186121
0.00313016
0.00323885
0.00467074
0.00283651
0.00255396
0.00290353
0.00435576
0.00381552
0.00143689
0.00252524
0.00222826
0.00343856
0.00381066
0.00488516
0.00271172
0.00143454
0.00188065
0.00210436
0.00134329
0.00232532
0.0015152
0.00203002
0.000851042
0.00114832
0.00309155
0.00349525
0.00181634
0.00355924
0.00275818
0.00135307
0.00270923
0.00138326
0.00086343
3.33559e-05
7.59878e-06
0.000290208
3.702e-05
8.77213e-06
0.000307949
0.00357708
0.00183305
0.00358186
0.00276892
0.00139371
0.00276994
0.0013915
0.00354492
0.00244029
0.00242608
0.00194825
0.00193904
0.00130172
0.00130945
0.00232761
0.0035136
0.00239839
0.00186918
0.00192037
0.00128586
0.00124499
0.000695806
1.40506e-05
2.50727e-05
0.000134144
2.35174e-06
6.55711e-06
0.000267678
0.00168238
0.00304026
0.00333519
0.00127887
0.00257761
0.00232815
0.00114536
0.00190238
0.00322293
0.00217167
0.00175125
0.0015421
0.00115643
0.0010068
0.00204448
0.000701278
0.00145667
0.00101201
0.00145124
0.00204803
0.00100889
0.00129536
0.00211111
0.00261427
0.00196667
0.000746639
0.00154806
0.000958411
0.00203376
0.00097737
0.00140476
0.000694018
0.00143961
0.00199357
0.00100138
0.00233678
0.0015399
0.00115376
0.000943852
0.00125493
0.000809146
0.000601286
0.0681272
0.017903
0.120744
0.0346488
0.035953
0.108261
0.0146696
0.0137252
0.0586986
0.0326763
0.0462665
0.0975795
0.0126969
0.00664631
0.0519052
0.0242154
0.118513
0.101085
0.0801163
0.0989172
0.0790482
0.0633758
0.0643947
0.11465
0.0744094
0.0892961
0.0952067
0.0773981
0.061758
0.0589629
0.0816924
0.0686415
0.079981
0.0667716
0.05899
0.0539786
0.0461426
0.0630946
0.0345472
0.0378329
0.0516081
0.0466049
0.0364024
0.0269831
0.0836945
0.0663284
0.0816955
0.0502818
0.0401118
0.039315
0.0511956
0.0354424
0.0510325
0.0524863
0.0404406
0.0257999
0.0390662
0.0265419
0.0536286
0.0357411
0.0531565
0.0411354
0.0270867
0.0415998
0.026867
0.0633321
0.0729786
0.078298
0.0488041
0.0358732
0.0380256
0.0463021
0.0477655
0.0289208
0.0418097
0.0241546
0.0362822
0.0315447
0.0212238
0.0649351
0.0429739
0.053994
0.032381
0.0420764
0.0357661
0.0273725
0.0252704
0.023605
0.0336698
0.0253095
0.0130285
0.0189716
0.01723
0.0305354
0.0331339
0.0417
0.0281517
0.0158737
0.0214799
0.0208481
0.03145
0.0240495
0.0200972
0.0145085
0.0236988
0.0318637
0.0199018
0.0308064
0.0189579
0.0142506
0.0221141
0.0231414
0.0295893
0.0195993
0.0176376
0.020265
0.0272882
0.0235779
0.0110199
0.0174051
0.0154003
0.381139
0.513316
0.328582
0.449694
0.419687
0.472342
0.394924
0.351432
0.495193
0.493367
0.475183
0.494844
0.478196
0.457394
0.473918
0.45102
0.363255
0.4314
0.370439
0.437159
0.417301
0.35303
0.439643
0.417679
0.470245
0.423733
0.45276
0.43382
0.403082
0.346952
0.386488
0.411204
0.395963
0.315251
0.335826
0.369085
0.457285
0.443936
0.430381
0.421118
0.450463
0.435603
0.407757
0.357135
0.338887
0.396388
0.399302
0.320998
0.375204
0.339749
0.425206
0.36079
0.391965
0.410868
0.348557
0.381961
0.378615
0.320997
0.347885
0.276804
0.301496
0.298724
0.321475
0.376735
0.313643
0.0610413
0.114544
0.180706
0.333314
0.155339
0.30289
0.0947975
0.279293
0.103223
0.13588
0.231088
0.0818345
0.0361193
0.196722
0.0742926
0.39557
0.371943
0.382131
0.359308
0.322969
0.298289
0.308346
0.351372
0.263951
0.286197
0.330974
0.300224
0.27701
0.243646
0.244286
0.186823
0.217525
0.175792
0.168596
0.200958
0.155432
0.345133
0.302652
0.333327
0.271758
0.251115
0.24208
0.281358
0.256644
0.176466
0.249551
0.224545
0.157567
0.153352
0.231604
0.138933
0.0927955
0.0936842
0.128893
0.125582
0.114764
0.0833926
0.168359
0.2114
0.234876
0.21061
0.133614
0.189036
0.145595
0.307489
0.242747
0.266742
0.252091
0.19694
0.224152
0.221723
0.179188
0.110404
0.141718
0.116444
0.160076
0.126602
0.0945749
0.215843
0.148679
0.163605
0.162416
0.182958
0.141258
0.125147
0.0777664
0.0835873
0.106041
0.0944533
0.0521473
0.0685959
0.0716529
0.084252
0.106472
0.118441
0.103475
0.0641746
0.0910415
0.073983
0.199435
0.179611
0.135728
0.110826
0.173203
0.131713
0.20624
0.186447
0.10437
0.113667
0.143861
0.161373
0.166814
0.124519
0.0986018
0.121214
0.140963
0.111368
0.0661519
0.0955842
0.0799255
0.0828168
0.0438692
0.0500201
0.050533
0.0708476
0.0595713
0.0605164
0.0188466
0.0093766
0.00885681
0.0103317
0.0138533
0.0140995
0.0124417
0.629294
0.537435
0.594739
0.403936
0.532673
0.465046
0.548465
0.357906
0.516903
0.586535
0.635688
0.613876
0.599884
0.524667
0.620566
0.576785
0.573683
0.587925
0.562007
0.546556
0.582342
0.573887
0.559249
0.611085
0.627548
0.626498
0.603716
0.619025
0.599501
0.617202
0.570921
0.481578
0.533043
0.514376
0.511483
0.552195
0.457919
0.552763
0.515406
0.537454
0.521466
0.515271
0.536684
0.498975
0.615421
0.60372
0.623476
0.565382
0.588412
0.612284
0.601153
0.63499
0.633937
0.633213
0.62854
0.62641
0.625319
0.627597
0.626533
0.633269
0.631304
0.622499
0.620282
0.616238
0.625261
0.43593
0.472875
0.49955
0.483119
0.390946
0.418292
0.458258
0.528508
0.567241
0.538663
0.518973
0.506297
0.557738
0.541526
0.591487
0.570944
0.597775
0.609163
0.586204
0.606697
0.594888
0.494847
0.4875
0.512394
0.414674
0.472876
0.532856
0.436229
0.491568
0.466764
0.493934
0.50228
0.453074
0.477912
0.478893
0.544574
0.554981
0.572093
0.600027
0.571017
0.586899
0.586211
0.611692
0.608458
0.617949
0.616532
0.61033
0.606783
0.619397
0.612817
0.610465
0.593402
0.606792
0.602297
0.605154
0.616435
0.464772
0.376382
0.381223
0.417957
0.442369
0.400848
0.4407
0.58612
0.29135
0.40755
0.622144
0.5551
0.539531
0.332932
0.589195
0.481115
0.484959
0.137207
0.322503
0.221852
0.4018
0.103126
0.321438
0.599453
0.509935
0.574992
0.528023
0.581665
0.554429
0.479513
0.41154
0.418946
0.335019
0.452702
0.384022
0.307148
0.384748
0.617469
0.611988
0.604064
0.611935
0.605408
0.590354
0.600556
0.356941
0.245949
0.278723
0.309905
0.338094
0.259772
0.233045
0.569152
0.599739
0.58753
0.57237
0.571852
0.552517
0.586991
0.350998
0.207496
0.264604
0.239271
0.263435
0.185615
0.319121
0.512811
0.457877
0.54471
0.522788
0.37914
0.490481
0.427549
0.600945
0.579589
0.592749
0.576239
0.575201
0.56168
0.588305
0.503302
0.546715
0.563962
0.534853
0.430443
0.516212
0.4533
0.160937
0.183701
0.212199
0.194391
0.12466
0.144868
0.170727
0.425374
0.340531
0.361163
0.28505
0.334356
0.265981
0.357274
0.3044
0.297312
0.282455
0.243926
0.20837
0.228763
0.221172
0.556868
0.556398
0.517689
0.558556
0.540827
0.535481
0.573303
0.502285
0.354833
0.448395
0.379619
0.482661
0.469276
0.401994
0.219338
0.240991
0.272864
0.153137
0.202301
0.168131
0.293916
0.179654
0.113648
0.119398
0.147565
0.16604
0.131482
0.159186
0.109578
0.125045
0.300777
0.261324
0.147773
0.266646
0.221384
0.0808526
0.227008
0.285857
0.291281
0.215316
0.217118
0.277345
0.20653
0.168243
0.118456
0.159387
0.114279
0.157705
0.149813
0.108446
0.273808
0.198236
0.20671
0.25084
0.264902
0.197966
0.188734
0.280656
0.195474
0.207232
0.253034
0.267193
0.19728
0.18564
0.11401
0.147206
0.153228
0.143897
0.0999765
0.104297
0.137692
0.104434
0.13707
0.0946143
0.140464
0.089452
0.129984
0.0990605
0.238963
0.238294
0.254097
0.188487
0.164921
0.17629
0.178275
0.134566
0.0906613
0.0853859
0.116748
0.123872
0.0950328
0.127982
0.000919529
0.00132094
0.0018884
0.0016899
0.000551569
0.00116902
0.00081563
0.00160651
0.00103014
0.00103753
0.000842887
0.000530407
0.000526738
0.00084844
0.000976755
0.00158492
0.00101466
0.000830856
0.000497213
0.000518285
0.00080062
0.00140484
0.000511132
0.000723913
0.000446607
0.000957127
0.00108198
0.000671231
0.000772797
0.00141861
0.000898741
0.000454743
0.000737742
0.000635574
0.000387923
0.000184229
4.62065e-06
0.000197981
3.77741e-05
3.44353e-07
2.61861e-07
3.37209e-05
0.000467361
0.000996459
0.000991183
0.000650789
0.000300204
0.000654873
0.000298046
0.000951112
0.000461023
0.000980283
0.000641893
0.000280943
0.000619204
0.000293069
0.0007314
0.000450433
0.000612981
0.000505007
0.000221709
0.00030491
0.000371187
3.05272e-06
3.27874e-06
0.000168003
2.02819e-07
2.95805e-05
3.01625e-06
4.40572e-08
0.000886275
0.000355703
0.00077477
0.000256909
0.000571618
0.000493625
0.000219155
0.000866212
0.000644325
0.000642172
0.000363248
0.000361348
0.000259964
0.000261519
0.00046571
0.000283433
0.000625202
0.000392971
0.000124011
0.000288817
0.000171864
0.000854608
0.000618142
0.000636131
0.000342054
0.000355664
0.000255935
0.000246078
0.000410614
0.000182908
0.000105151
0.000250696
0.000248898
0.000413413
0.000181472
0.000404034
0.000169321
0.000102717
0.000233148
0.000244347
0.000387612
0.00017787
0.00077908
0.000578517
0.00051166
0.000316578
0.000277765
0.000226872
0.000196848
0.000584703
0.000322887
0.000421778
0.00017528
0.000228464
0.000158524
0.000118053
0.00015315
0.00021144
0.000354629
0.000302705
7.19972e-05
0.000178424
0.000128815
0.000434706
0.000301275
0.000448642
0.000173511
0.000105734
0.000111158
0.000166187
0.000305814
0.00045611
0.000453802
0.000176705
0.000114833
0.000113684
0.000178123
0.000237921
7.05554e-05
5.46422e-05
9.90556e-05
0.000138425
0.00017262
9.94335e-05
0.000404564
0.000231083
0.000353901
9.58276e-05
0.000152136
0.000130319
8.09122e-05
0.000213954
0.000183682
0.000286479
0.000102878
4.43763e-05
6.26371e-05
7.46296e-05
0.000196337
0.000120822
0.000119692
6.99645e-05
6.91653e-05
3.96983e-05
4.02001e-05
0.000192675
0.000110943
0.000116984
6.3538e-05
6.73378e-05
3.84839e-05
3.60061e-05
0.000142828
9.99003e-05
8.35401e-05
5.68856e-05
4.7261e-05
3.183e-05
2.60256e-05
0.000111428
4.47694e-05
6.39143e-05
2.49054e-05
3.5889e-05
1.94152e-05
1.32152e-05
8.84278e-07
2.92754e-09
1.99015e-10
1.37737e-10
1.12746e-06
1.08284e-06
1.39954e-06
0.000127306
3.66205e-05
0.000126268
8.70892e-05
2.45861e-05
8.78922e-05
2.42876e-05
0.000117131
3.5529e-05
0.000123341
8.50693e-05
2.20521e-05
8.07582e-05
2.3539e-05
6.96791e-05
3.73423e-05
6.89572e-05
2.14521e-05
1.10525e-05
1.08969e-05
2.17393e-05
0.00312457
3.5296e-05
1.14647e-05
1.47543e-12
2.11839e-15
0.00545126
0.000339844
8.06843e-11
9.43569e-14
0.00632332
0.000703534
0.00222921
0.000949147
0.00300572
0.000983831
0.000171718
0.00196848
0.000249458
0.000779656
6.1038e-05
0.000232658
0.000907163
0.00190535
0.00890255
0.0062959
0.00586663
0.00445186
0.00414049
0.00405353
0.00284441
0.00445514
0.00216749
0.00311693
0.00199326
0.00288516
0.00196793
0.00134731
0.00439018
0.00209894
0.0030871
0.00183232
0.0027536
0.0019196
0.00126746
0.000142512
0.000382242
0.000866953
2.46504e-05
0.000511797
8.54746e-05
4.93055e-06
0.00370577
0.00154688
0.00259534
0.00147198
0.00250319
0.00174057
0.00101275
0.00400833
0.00397386
0.00285053
0.00306201
0.00223687
0.00220994
0.00157264
0.0014768
0.00144526
0.00214498
0.00131705
0.000576676
0.000861241
0.000892304
0.00105145
0.00121562
0.00178718
0.00118875
0.000451498
0.00080065
0.000682002
0.00284659
0.00135111
0.00198432
0.00107337
0.001573
0.00108243
0.000726242
0.00165687
0.00107137
0.00059621
0.00114327
0.000402889
0.000732909
0.000647387
0.00279529
0.00132262
0.0019677
0.00102756
0.00153345
0.00106939
0.000705723
0.00687163
0.00983382
0.00927755
0.0335792
0.00477332
0.0172915
0.00640795
0.00161736
0.0246906
0.0249882
0.0273189
0.0198946
0.0181232
0.0194708
0.0140384
0.0132883
0.0139901
0.0184656
0.0109635
0.01469
0.0102006
0.00746184
0.0131432
0.0129914
0.0182926
0.0094317
0.0137102
0.00981092
0.00671024
0.0219315
0.0123385
0.0158129
0.0113718
0.0149984
0.0107429
0.00808335
0.264591
0.0508673
0.0402632
0.515093
0.571289
0.363693
0.517911
0.313572
0.431617
0.190421
0.152232
0.24371
0.104024
0.130359
0.0820519
0.101831
0.0294685
0.0457595
0.0830051
0.0945008
0.0746203
0.0562058
0.0256296
0.0213113
0.54971
0.554944
0.529916
0.555197
0.53172
0.510048
0.536609
0.482286
0.326431
0.453249
0.337152
0.459312
0.429277
0.300928
0.164564
0.206513
0.132865
0.219347
0.145747
0.116515
0.18475
0.123671
0.0805619
0.0969754
0.0922597
0.109362
0.084309
0.0698094
0.485591
0.536471
0.508869
0.486469
0.490315
0.459846
0.515284
0.537505
0.492426
0.512772
0.488536
0.493116
0.465019
0.516078
0.0895872
0.0729864
0.0839941
0.0692396
0.079645
0.0631363
0.0598057
0.397006
0.294049
0.42522
0.399629
0.238878
0.369152
0.268747
0.436979
0.414483
0.291597
0.405178
0.25472
0.380401
0.277271
0.0904162
0.176842
0.109016
0.0946293
0.133478
0.156865
0.0776235
0.199082
0.117109
0.181351
0.102846
0.149255
0.165964
0.0910639
0.0627039
0.0636012
0.0774785
0.0663355
0.0424705
0.0529736
0.0540037
0.461693
0.462279
0.464488
0.400286
0.434471
0.431198
0.491264
0.0973563
0.0727161
0.0867454
0.0736422
0.0524486
0.0643937
0.0605873
0.0863373
0.0642405
0.066802
0.073584
0.0766796
0.0576141
0.0553177
0.0574413
0.0433815
0.054498
0.0378978
0.0485213
0.0458847
0.0357455
0.0658177
0.0619824
0.0706139
0.0468234
0.0545356
0.0514583
0.0438822
0.37314
0.213908
0.221217
0.310175
0.345733
0.33996
0.244465
0.0824108
0.116642
0.123284
0.0573922
0.139116
0.0719068
0.066699
0.0569504
0.0354144
0.0388573
0.0379109
0.048936
0.0448012
0.0458572
0.0418762
0.0505934
0.0526084
0.0441937
0.0329764
0.0343882
0.0424222
0.0647923
0.0591911
0.067792
0.049399
0.0398083
0.0418734
0.0472523
0.0312503
0.0342284
0.0408649
0.0384191
0.0237161
0.0318928
0.0292435
0.0368398
0.0267003
0.0288482
0.0224899
0.0303644
0.0279732
0.0352243
0.019765
0.0376878
0.0447094
0.0780106
0.02568
0.051886
0.0248348
0.00969479
0.0602667
0.0696541
0.0689383
0.0535046
0.051797
0.0611935
0.0458413
0.047403
0.0332153
0.0419057
0.030802
0.039683
0.0350163
0.0271001
0.0577035
0.0334315
0.043835
0.0378133
0.0500578
0.0372525
0.0278552
0.0603374
0.0368398
0.0440431
0.0450882
0.0530662
0.0387376
0.0321169
0.0267448
0.0340072
0.0255205
0.028267
0.0158727
0.0217381
0.0208913
0.0196891
0.0328191
0.0267043
0.0288318
0.0171484
0.0232978
0.0217662
0.0314896
0.0357293
0.0427573
0.0311571
0.0183582
0.0255215
0.0228472
0.0231122
0.0125364
0.013279
0.0135906
0.0185118
0.0173696
0.0168284
0.00470717
0.00660892
0.00948147
0.0070292
0.00335507
0.00504612
0.00475113
0.00846494
0.0115215
0.00886613
0.00772971
0.00410111
0.00575365
0.00558442
0.00676567
0.00741671
0.0101627
0.00723535
0.00335757
0.00524613
0.0047896
0.00514259
0.00235368
0.0023392
0.00259341
0.00369453
0.00365274
0.00336622
0.000773664
0.000282462
0.000265733
0.000323054
0.00049089
0.000515355
0.000431635
0.000595799
0.00134909
0.000895958
0.00072395
0.000308071
0.000471407
0.000479039
9.30279e-06
1.6498e-06
9.96537e-05
2.11198e-05
1.5489e-07
9.10947e-05
1.36118e-06
0.00160697
0.000556531
0.00116299
0.000545421
0.00114469
0.000806073
0.000378238
0.00126268
0.000814815
0.000667185
0.000554067
0.000452636
0.00042032
0.000282043
0.000542396
0.000379827
0.000807728
0.000547129
0.0001618
0.000360633
0.000251719
0.000364087
0.000513182
0.000781332
0.000538411
0.000154433
0.000347705
0.00024653
0.000581115
0.00023903
0.000367593
0.000192863
0.000298775
0.000183999
0.000117206
0.000312261
0.00020819
0.000344712
0.000151697
0.000256769
0.000170404
9.9443e-05
0.000358846
0.000101239
9.87043e-05
0.000145979
0.000228258
0.000232863
0.000160629
0.000145272
0.000135017
0.000226237
0.000109762
3.88789e-05
6.31123e-05
6.88643e-05
2.18396e-07
8.3204e-06
1.78397e-06
9.68486e-07
8.38967e-09
2.24797e-07
1.04808e-09
0.000325302
9.28956e-05
0.000217333
8.35567e-05
0.000199141
0.000131269
5.34917e-05
0.000237041
0.000230998
0.000156123
0.000125575
8.45452e-05
8.17984e-05
5.32791e-05
5.82795e-05
8.85819e-05
0.000140669
8.369e-05
1.94262e-05
5.17725e-05
3.28721e-05
4.66887e-05
6.63905e-05
0.000117458
7.62939e-05
1.50965e-05
4.23729e-05
2.92815e-05
0.000157217
6.21498e-05
0.000100618
3.25856e-05
5.38324e-05
3.29265e-05
1.94292e-05
0.00014886
5.84681e-05
9.78913e-05
2.91282e-05
5.0214e-05
3.17935e-05
1.80203e-05
4.77917e-05
1.00969e-05
8.82274e-06
1.53527e-05
2.5998e-05
2.89458e-05
1.75598e-05
3.70592e-05
3.5855e-05
6.15006e-05
1.91634e-05
5.98854e-06
1.06271e-05
1.10606e-05
3.42737e-08
2.60599e-10
1.90733e-08
1.653e-10
1.51672e-08
2.96743e-11
4.0568e-08
1.63461e-09
2.55138e-08
2.57504e-05
2.36464e-05
2.68337e-05
3.57491e-08
5.34405e-08
2.76335e-05
2.06655e-08
6.94487e-09
2.48955e-05
2.20439e-05
1.37952e-05
1.15831e-08
1.79832e-05
2.15083e-05
2.4757e-05
2.69923e-08
4.42543e-09
1.50793e-06
5.95685e-09
1.83052e-06
2.90071e-09
8.18934e-10
1.97091e-05
1.13333e-05
3.99184e-06
2.33417e-09
7.63878e-06
1.12442e-09
2.37015e-06
4.88372e-06
2.57838e-07
1.90335e-11
1.01339e-10
9.22119e-07
2.98462e-05
0.000106537
9.14754e-05
1.96018e-05
7.31792e-05
6.21658e-05
1.62189e-05
6.30713e-05
3.61809e-05
6.71015e-05
2.07162e-05
9.63774e-06
1.04778e-05
1.923e-05
1.95445e-05
3.54644e-05
8.51783e-06
5.47343e-05
7.33634e-05
4.88881e-05
1.23102e-05
2.9124e-05
1.60166e-05
5.29114e-05
3.32017e-05
1.78949e-05
9.69895e-06
4.91273e-06
5.60378e-05
2.39278e-05
4.60748e-05
8.29613e-06
1.67931e-05
1.35111e-05
6.54436e-06
5.65647e-05
8.61901e-06
1.52395e-05
3.51912e-05
3.47421e-05
5.71991e-05
1.50157e-05
1.42937e-06
1.32729e-07
8.73555e-12
4.4936e-12
2.31237e-08
3.62419e-10
5.51653e-13
2.38546e-05
5.37966e-06
3.80754e-05
5.67268e-06
2.48087e-05
1.50112e-05
3.11864e-06
5.51169e-05
1.34866e-05
3.17126e-05
8.26223e-06
3.37306e-05
5.21469e-05
1.44918e-05
6.57853e-06
1.18859e-05
2.37676e-05
1.7639e-05
3.46001e-05
9.88626e-06
4.67004e-06
1.1853e-05
2.82821e-05
4.69724e-05
3.94507e-05
5.1785e-06
2.33985e-05
9.6181e-06
1.99175e-05
5.90775e-06
1.04993e-05
3.04918e-06
5.58238e-06
2.73816e-06
1.43519e-06
1.21345e-05
2.14813e-05
4.69922e-06
3.04229e-05
3.68218e-06
1.76648e-05
7.08111e-06
1.78107e-06
4.0299e-06
4.37664e-06
7.43279e-06
1.51524e-05
9.11903e-06
2.30119e-06
2.55772e-05
2.63398e-05
2.63867e-05
5.67426e-06
5.52098e-06
5.35618e-06
5.78831e-06
2.80486e-05
2.69018e-05
2.71555e-05
6.22635e-06
5.94206e-06
6.19203e-06
6.00766e-06
4.52408e-11
4.88754e-07
6.279e-07
2.37938e-08
1.6358e-08
1.02527e-12
1.49907e-12
4.52559e-06
2.04166e-05
2.01284e-05
1.09079e-05
2.1919e-06
1.10803e-05
2.14062e-06
2.49505e-05
2.48684e-05
2.59707e-05
5.40997e-06
4.57287e-06
5.05066e-06
4.95795e-06
2.78185e-05
2.58986e-05
2.68748e-05
5.7092e-06
5.50879e-06
5.26878e-06
5.96806e-06
1.81315e-05
4.2978e-06
1.94545e-05
1.04828e-05
1.79353e-06
9.66115e-06
2.01474e-06
2.44862e-05
2.34744e-05
2.28499e-05
5.15534e-06
4.94405e-06
4.39643e-06
4.64018e-06
1.85229e-13
3.04123e-08
6.12939e-12
3.30839e-11
3.88892e-07
1.1837e-08
7.45693e-13
1.59484e-05
2.51726e-06
1.29418e-05
1.47706e-06
8.35342e-06
6.62391e-06
1.09967e-06
3.18335e-06
8.78991e-06
1.52135e-05
8.88895e-06
8.2677e-07
4.95828e-06
1.6714e-06
2.36009e-05
1.98858e-05
2.17018e-05
4.09028e-06
4.59568e-06
4.01679e-06
3.49668e-06
2.28743e-05
1.84963e-05
1.98821e-05
3.92223e-06
4.30834e-06
3.4875e-06
3.13538e-06
2.1458e-05
2.39435e-05
2.08623e-05
4.79908e-06
4.60364e-06
3.87487e-06
3.73738e-06
7.66188e-06
1.39958e-05
2.83529e-06
8.51355e-06
7.21194e-07
4.50282e-06
1.5722e-06
2.12028e-05
1.71725e-05
2.04313e-05
3.69539e-06
3.10526e-06
3.94682e-06
2.87601e-06
1.70979e-05
1.5785e-05
1.90904e-05
3.3129e-06
2.08667e-06
2.80956e-06
2.52989e-06
1.88194e-06
1.23178e-05
1.25373e-05
1.71693e-05
1.67993e-05
2.848e-06
2.76223e-06
1.73676e-05
1.66354e-05
1.42755e-05
3.43902e-06
2.86212e-06
2.69051e-06
2.17296e-06
4.27792e-07
1.06358e-06
6.36134e-06
1.7311e-06
9.53374e-06
4.74028e-06
7.28242e-07
4.8623e-07
1.28627e-06
2.4423e-06
2.86871e-06
5.23587e-06
1.22773e-06
6.05923e-07
1.70715e-06
1.07907e-05
1.17633e-05
1.47789e-05
1.60193e-05
2.57643e-06
2.29272e-06
1.45073e-05
8.66501e-06
1.15322e-05
1.59556e-06
2.22602e-06
1.62885e-06
1.12113e-06
9.5029e-07
1.24619e-06
9.38575e-06
1.30563e-05
1.09021e-05
1.92709e-06
1.51029e-06
5.45546e-06
9.29733e-07
2.51317e-06
3.33679e-07
2.46165e-06
5.55189e-06
9.05057e-07
5.20583e-06
7.36487e-07
3.06777e-07
2.07248e-06
2.32446e-06
4.73123e-06
8.43116e-07
1.11404e-06
8.17571e-06
8.32093e-06
5.03238e-06
4.93267e-06
5.91582e-07
5.73113e-07
4.86804e-06
3.77799e-07
1.26102e-06
3.50287e-07
2.47301e-06
2.60953e-06
8.04472e-07
1.00765e-06
7.11954e-06
7.79898e-06
4.25703e-06
4.68946e-06
5.30378e-07
4.61216e-07
5.75843e-06
6.60898e-07
4.15465e-07
6.13126e-06
8.49363e-06
1.09018e-06
7.18051e-07
5.89769e-07
1.70642e-06
4.00322e-06
3.08072e-06
1.39378e-07
1.26994e-06
4.23113e-07
3.42422e-10
1.08953e-13
3.56632e-14
1.39854e-08
2.80179e-12
2.66037e-11
8.18846e-14
2.24868e-07
5.88729e-07
3.88222e-06
2.96052e-07
2.18852e-06
9.60047e-07
1.06469e-07
5.35847e-07
7.20429e-07
6.12305e-06
3.62082e-06
2.82878e-06
3.69605e-07
2.6731e-07
0.00718305
0.0128212
0.00214141
0.00760562
0.00103829
0.00699633
0.00118386
0.00231164
0.0130001
0.0120893
0.00279802
0.000370475
0.00274565
0.00194386
0.000890121
0.00617058
0.0131023
0.0116076
0.0116016
0.00772712
0.00777033
0.00679635
0.0067971
0.0130789
0.0110824
0.0114907
0.00750238
0.00772365
0.00670878
0.00641354
0.0107742
0.0101733
0.00876407
0.00698726
0.00616221
0.00582646
0.00497987
0.00965889
0.00757306
0.00962663
0.00434756
0.00558363
0.00557669
0.00433899
0.00902952
0.00742817
0.00948416
0.00547774
0.0039685
0.00517461
0.00424404
0.00903864
0.00544463
0.00709153
0.00406144
0.00513585
0.00400896
0.00306218
0.00811044
0.00504157
0.00679032
0.00347138
0.00460713
0.00383096
0.00281684
0.00230195
0.00436397
0.00436591
0.00196703
0.00377834
0.00376712
0.00195386
0.00396649
0.00384871
0.00532402
0.00298799
0.0015422
0.0021374
0.00221228
0.00414167
0.00225556
0.00431165
0.00369258
0.00177883
0.00349378
0.00190038
0.0023509
0.00156741
0.00306055
0.00304906
0.00117367
0.00155572
0.00234003
0.00380878
0.00332277
0.00167534
0.00158039
0.00314011
0.00265989
0.00132398
0.00297508
0.00139574
0.00210712
0.00113179
0.00278415
0.00150664
0.00227384
0.00136858
0.00106017
0.00215327
0.00212496
0.000782359
0.00104605
0.00160955
0.00121747
0.00182632
0.00245527
0.00202483
0.000708405
0.000993206
0.00146978
0.0167933
0.085646
0.00874345
0.0208612
0.0763682
0.0128512
0.0116475
0.0491545
0.109138
0.0211874
0.0654232
0.0537547
0.0119934
0.0198523
0.00474934
0.0103234
0.0396897
0.101102
0.103953
0.0945182
0.0599309
0.0565814
0.0564258
0.0522455
0.0513323
0.0937362
0.0756569
0.0854477
0.0539466
0.0487319
0.0452141
0.0170797
0.00912912
0.00337089
0.00107167
0.00329931
0.0044431
0.00888097
0.0917579
0.0670486
0.0818948
0.0401942
0.0491393
0.0448102
0.0362571
0.0762555
0.0481419
0.0647374
0.0529519
0.0432574
0.0409755
0.0352622
0.0582143
0.0624985
0.0724335
0.0411112
0.0293509
0.0373531
0.0328441
0.0421636
0.0315595
0.041591
0.0288919
0.0364418
0.0284536
0.0218011
0.0517574
0.0306111
0.040855
0.0253046
0.0328952
0.0273771
0.0205634
0.0346779
0.0212311
0.0339419
0.0191916
0.0319796
0.0307894
0.0190174
0.032796
0.0211926
0.0334674
0.0298938
0.0181844
0.0287486
0.0187851
0.0231311
0.0229139
0.0311394
0.0214107
0.0115568
0.0157296
0.0160082
0.0312882
0.0178592
0.0282819
0.0168191
0.026614
0.0231126
0.0145813
0.0233789
0.0319098
0.0236218
0.0219605
0.0161728
0.016232
0.0117528
0.0220114
0.0161619
0.0273464
0.0260574
0.012639
0.0159299
0.0208509
0.0250323
0.0149217
0.0123414
0.0185755
0.0236904
0.0156317
0.0198787
0.0190281
0.0150605
0.0239044
0.0187535
0.00910608
0.0118346
0.0144234
0.012235
0.0121544
0.0168974
0.00831753
0.0116672
0.00837359
0.00591504
0.0123652
0.0172434
0.012451
0.00836525
0.0117517
0.00841037
0.00593963
0.0134798
0.0164359
0.0213818
0.0179865
0.00847435
0.0113395
0.0134919
0.0141407
0.00759773
0.00666893
0.0064965
0.00891827
0.0103541
0.010589
0.0144886
0.0067354
0.0106937
0.00670001
0.0106782
0.00772534
0.0048326
0.00625527
0.00629036
0.00880301
0.00593938
0.00290044
0.00416572
0.00416467
0.00543275
0.00481873
0.00768954
0.00547028
0.00234339
0.00382055
0.00339603
0.00476612
0.00538307
0.00766664
0.00546712
0.00231137
0.00379968
0.00338021
0.239654
0.0233001
0.166354
0.111371
0.0585434
0.165902
0.0774672
0.0584582
0.304608
0.381384
0.306865
0.3344
0.252641
0.261726
0.192972
0.0999869
0.105846
0.133634
0.164436
0.210813
0.164221
0.124612
0.242521
0.287742
0.206601
0.174151
0.216623
0.151382
0.116224
0.213757
0.103707
0.12955
0.108915
0.179007
0.131525
0.0828365
0.0993803
0.0428293
0.057237
0.0760015
0.127826
0.0934402
0.0698033
0.432886
0.439337
0.346953
0.302345
0.138147
0.147655
0.2499
0.193751
0.441529
0.406141
0.382461
0.412128
0.380509
0.353984
0.350714
0.424083
0.385908
0.407541
0.350236
0.371824
0.338699
0.311194
0.377112
0.347017
0.380271
0.288436
0.321646
0.316679
0.281144
0.335549
0.344952
0.372675
0.301081
0.225918
0.268839
0.261646
0.298016
0.181022
0.287044
0.183071
0.276806
0.264282
0.168447
0.151601
0.168123
0.272845
0.246195
0.132905
0.218499
0.152469
0.216144
0.16248
0.247568
0.233591
0.122427
0.146878
0.200611
0.182797
0.109603
0.086614
0.212775
0.10536
0.129618
0.177945
0.0800684
0.116999
0.0788707
0.0589525
0.043577
0.0878747
0.0600412
0.143599
0.086621
0.0663153
0.100554
0.0470908
0.0632812
0.0750658
0.0315093
0.0427248
0.0318622
0.0647779
0.0326748
0.0445139
0.0475094
0.0225783
0.0384109
0.0521295
0.0415405
0.0124417
0.0176875
0.0320796
0.0410007
0.0649876
0.0714283
0.0876691
0.0636347
0.0474522
0.0526014
0.038581
0.0293759
0.0387787
0.0494274
0.0284574
0.036358
0.0288253
0.0218889
0.0502671
0.0304141
0.0375317
0.0318657
0.0406694
0.029781
0.0232346
0.0571745
0.0440158
0.0320473
0.0326818
0.0425677
0.0308552
0.0235941
0.0223076
0.0286785
0.0230172
0.0221671
0.0128482
0.0171767
0.0167327
0.0304463
0.0169321
0.023253
0.0225771
0.0123438
0.0167006
0.0170273
0.0242465
0.024135
0.0177532
0.023189
0.0127163
0.0174786
0.017343
0.00926919
0.00653028
0.00899482
0.00910301
0.012466
0.0126832
0.0169068
0.0636912
0.0818813
0.16742
0.106637
0.0325027
0.045662
0.0524821
0.0698721
0.135439
0.149644
0.126841
0.102259
0.120076
0.112641
0.0899622
0.137784
0.398144
0.418464
0.445385
0.438225
0.160749
0.141331
0.248921
0.309139
0.545999
0.502275
0.455981
0.455403
0.419667
0.363622
0.527178
0.504836
0.453707
0.52333
0.490477
0.508338
0.458141
0.48222
0.433702
0.400511
0.510081
0.456883
0.44725
0.508297
0.502676
0.450205
0.49582
0.0990616
0.180046
0.219547
0.0487634
0.0665528
0.0940231
0.0847081
0.302182
0.0983318
0.133793
0.233602
0.494183
0.462406
0.161421
0.407182
0.277721
0.370354
0.247299
0.340832
0.308295
0.223607
0.51032
0.431647
0.441546
0.461372
0.468856
0.384711
0.375813
0.470334
0.417316
0.445613
0.339263
0.381757
0.353903
0.318397
0.532274
0.504288
0.518402
0.515303
0.520822
0.503696
0.490744
0.460167
0.484799
0.499611
0.440278
0.44852
0.482325
0.464306
0.493576
0.452516
0.476363
0.433991
0.445398
0.478746
0.45297
0.200023
0.173047
0.159185
0.148661
0.15984
0.126387
0.119098
0.405958
0.425892
0.43318
0.340984
0.301889
0.33348
0.308384
0.239121
0.198206
0.284275
0.260064
0.151063
0.18252
0.222926
0.261631
0.339095
0.351918
0.292469
0.201855
0.211525
0.281786
0.482072
0.421609
0.454146
0.36746
0.406974
0.442357
0.354682
0.482401
0.479307
0.500902
0.483468
0.436783
0.463797
0.461873
0.497795
0.480006
0.469979
0.483186
0.436857
0.469751
0.453033
0.587949
0.612266
0.622415
0.558657
0.535947
0.494047
0.578766
0.509509
0.541059
0.54031
0.488339
0.532443
0.497217
0.559092
0.564974
0.471673
0.545927
0.551551
0.468873
0.490288
0.561978
0.559043
0.615072
0.587879
0.587268
0.598221
0.622364
0.613984
0.599723
0.58552
0.52108
0.578181
0.531261
0.509994
0.572394
0.575726
0.603497
0.588812
0.582928
0.59156
0.574817
0.59755
0.579642
0.506384
0.515379
0.567227
0.553985
0.506471
0.56788
0.559328
0.612929
0.599368
0.599678
0.601358
0.624688
0.609677
0.608889
0.556297
0.535323
0.568776
0.588125
0.556242
0.585397
0.569652
0.622257
0.654596
0.645247
0.653538
0.600875
0.619684
0.656395