/*--------------------------------*- C++ -*----------------------------------*\
  =========                 |
  \\      /  F ield         | OpenFOAM: The Open Source CFD Toolbox
   \\    /   O peration     | Website:  https://openfoam.org
    \\  /    A nd           | Version:  9
     \\/     M anipulation  |
\*---------------------------------------------------------------------------*/
FoamFile
{
    format      ascii;
    class       volScalarField;
    location    "0.0034";
    object      overpressureMax;
}
// * * * * * * * * * * * * * * * * * * * * * * * * * * * * * * * * * * * * * //

dimensions      [1 -1 -2 0 0 0 0];

internalField   nonuniform List<scalar> 
26926
(
193049
187820
137747
175045
171.506
4291.21
0.487296
0.98204
206835
258029
191938
185482
1160.66
425.166
112.446
39.389
268768
196487
254066
198672
258102
209009
273659
199569
203546
266371
190854
244940
195348
252119
248708
195072
252445
184438
182827
240824
237651
240030
192006
244815
182019
234288
178386
232245
270890
264084
266032
244650
246422
242097
240462
272514
268697
267559
248687
247748
243311
244231
263730
261854
259379
242586
240299
238569
236457
260951
253971
256749
235272
237844
234161
231718
257063
263509
262429
238833
235058
234236
239695
259174
255757
261017
237703
231805
233196
236199
257098
249912
254801
230187
234459
232485
228361
273861
263409
380103
278554
386800
257490
253807
348016
340424
271631
360425
371278
252001
253996
336854
336142
389268
376304
374002
345971
344072
333894
335639
383787
367647
371165
338634
341661
331660
328797
375934
363639
335287
359125
331523
325623
321982
366095
348553
354081
322962
327434
318008
313624
362524
346058
360421
323189
313622
312067
324885
277310
309397
307894
299635
271625
301075
270475
354373
343585
357757
321112
307681
310136
318474
303519
275795
305973
297880
267322
295631
269097
350593
332764
346258
304818
315452
312009
301535
300820
269148
297755
265251
293050
290146
262891
323043
341474
328151
308149
293737
297836
303901
266380
290826
294444
286942
257389
283408
260256
291140
264653
256504
283567
282305
292445
263568
289517
260662
255332
278847
280811
287407
262303
258722
276624
285010
282235
249892
273989
256510
247529
249619
252293
230330
224109
226314
228018
251224
275767
267730
271028
244806
247481
279168
224222
208111
225731
221793
203329
220420
204486
193787
158168
145762
182420
159719
148658
184247
226803
209632
227573
222782
205900
223503
205299
251478
246631
245721
230276
229478
224612
225355
243166
250278
244631
227251
228521
223735
222573
189041
151767
156005
177538
130988
143666
181441
205300
220445
222448
201944
218811
216970
200358
239548
246893
241497
225743
224030
221194
219581
218788
198112
215444
202270
214772
219490
201682
201618
215996
218267
214961
196689
212840
198593
217878
199907
212797
197429
213933
216629
200939
242528
237398
235008
219985
222092
217774
215778
528495
404186
648414
428956
440323
627260
386893
377470
512213
423744
576407
617232
372988
355995
504467
473496
643071
608314
569281
603410
565221
535783
539710
635909
552239
589027
596850
559371
530286
523518
605218
544031
579740
568851
534700
515902
507140
591496
512069
542606
556534
523940
497151
486003
568383
524591
563928
505216
477810
474321
509028
433577
486179
491964
470307
412826
464766
417275
500305
437397
496669
474788
423670
478172
420883
519113
550553
557865
500119
463969
469690
493986
479722
417921
472258
407802
458518
451403
402104
541987
495416
532050
457443
486923
478739
449976
454607
411422
463912
443388
388828
434563
395836
507933
484988
520704
469595
431821
441319
459187
451479
430198
405767
384445
427350
454524
403157
447278
395573
381320
418732
423540
442009
399774
390792
413369
436226
429542
367950
407191
385394
1.21784e+06
1.30099e+06
1.06911e+06
1.05232e+06
946118
976725
803064
784600
1.28788e+06
1.25947e+06
1.24837e+06
1.13133e+06
1.11789e+06
1.0863e+06
1.09694e+06
1.25865e+06
1.18925e+06
1.22324e+06
1.05983e+06
1.09394e+06
1.06675e+06
1.03861e+06
1.11475e+06
991273
1.19784e+06
1.10563e+06
1.18726e+06
1.04421e+06
983291
1.14094e+06
1.09037e+06
1.16845e+06
1.02757e+06
951957
1.00479e+06
970244
964958
843808
834961
824251
951043
942053
816202
920802
804196
821393
925631
787466
803989
904189
921165
773778
877337
912446
767107
795813
869921
756745
858162
743051
769371
841980
879662
898547
733779
646474
581366
735653
923778
710811
984720
562356
717945
863454
698268
864106
553212
516060
691097
628296
1.02117e+06
917630
1.01386e+06
910136
916406
831577
838236
1.00142e+06
891391
884617
899189
905690
821965
809689
961156
931418
872015
838816
848362
793412
772674
821770
727092
814721
752830
685921
679827
759445
828675
729487
821803
754058
682673
676871
760100
898625
792036
778444
809314
821217
748970
723136
721036
800424
812281
745417
660084
734756
669188
804672
706191
791378
744144
661560
671702
732828
784953
682956
765150
648894
721156
704232
635310
773667
672230
751402
648596
718414
700774
633212
719153
665392
743127
684969
602475
663576
619836
699820
651120
726653
680172
595466
615207
657281
689911
634503
631407
576718
629041
626148
695666
682007
570324
610663
612762
621709
672092
619199
600424
601925
660023
645253
542446
589165
588247
628416
558744
529989
557238
573948
609295
574381
422110
372633
362304
392454
400229
413731
379308
3.05046e+06
1.36084e+06
1.37221e+06
1.23382e+06
1.31371e+06
1.2223e+06
1.22135e+06
832154
1.03523e+06
1.57895e+06
3.2745e+06
1.56018e+06
2.11455e+06
1.51036e+06
2.53633e+06
1.52955e+06
1.32105e+06
1.37697e+06
1.31797e+06
1.19487e+06
1.30258e+06
1.30081e+06
1.19946e+06
1.57051e+06
1.99624e+06
2.00779e+06
1.54833e+06
1.97211e+06
1.55325e+06
1.97106e+06
1.37422e+06
1.27343e+06
1.30218e+06
1.18195e+06
1.2772e+06
1.29359e+06
1.15852e+06
1.31422e+06
1.3016e+06
1.30566e+06
1.15879e+06
1.15173e+06
1.16732e+06
1.13778e+06
2.02185e+06
1.57668e+06
2.01864e+06
1.55306e+06
1.55438e+06
1.96226e+06
1.94856e+06
3.22892e+06
2.47266e+06
2.46239e+06
2.88047e+06
2.32327e+06
2.31003e+06
2.84281e+06
2.41198e+06
3.15494e+06
2.44064e+06
2.28565e+06
2.70127e+06
2.25404e+06
2.78521e+06
1.24766e+06
1.27461e+06
1.2838e+06
1.13768e+06
1.0801e+06
1.10638e+06
1.11406e+06
1.09547e+06
1.24194e+06
1.22041e+06
1.01672e+06
1.01143e+06
1.23815e+06
1.10391e+06
1.54403e+06
1.52419e+06
1.81019e+06
1.90131e+06
1.54286e+06
1.89519e+06
1.80178e+06
1.08101e+06
1.22614e+06
1.21857e+06
996642
1.00308e+06
1.23279e+06
1.06111e+06
919857
872796
1.00276e+06
1.02316e+06
862880
910973
989584
1.53745e+06
1.51586e+06
1.53861e+06
1.88043e+06
1.76707e+06
1.78399e+06
1.86528e+06
2.23139e+06
2.0232e+06
2.16879e+06
2.15293e+06
2.2041e+06
2.00725e+06
2.50627e+06
2.13271e+06
2.39464e+06
1.96358e+06
2.16644e+06
1.98777e+06
2.10911e+06
2.45813e+06
1.00506e+06
943195
887799
849358
900607
982162
969482
2.55571e+06
1.32174e+06
1.66723e+06
2.93707e+06
1.57577e+06
1.82388e+06
1.48926e+06
2.05214e+06
1.50596e+06
1.33322e+06
1.02215e+06
1.18072e+06
1.2989e+06
1.23177e+06
759249
952005
2.01793e+06
1.58222e+06
2.01702e+06
1.55047e+06
1.93464e+06
1.92612e+06
1.56245e+06
1.23212e+06
1.30413e+06
1.1857e+06
1.25274e+06
1.12491e+06
1.09026e+06
1.24433e+06
2.38025e+06
2.82064e+06
2.35082e+06
2.60579e+06
2.22139e+06
2.19545e+06
2.50058e+06
1.19687e+06
1.12374e+06
1.13956e+06
1.03642e+06
1.06393e+06
1.01759e+06
990023
2.29816e+06
2.69612e+06
2.32812e+06
2.16669e+06
2.26431e+06
2.12364e+06
2.38646e+06
1.29601e+06
1.13355e+06
1.15409e+06
1.06719e+06
1.30941e+06
1.0673e+06
1.26478e+06
2.02805e+06
1.61698e+06
2.02366e+06
1.91899e+06
1.62357e+06
1.90435e+06
1.59293e+06
2.31212e+06
1.93088e+06
2.08313e+06
2.04818e+06
1.98088e+06
1.88376e+06
2.21962e+06
1.5376e+06
1.74552e+06
1.84823e+06
1.82963e+06
1.50301e+06
1.71909e+06
1.54459e+06
1.04987e+06
1.07075e+06
1.08836e+06
979779
907609
956990
945980
1.22409e+06
993608
1.03769e+06
1.02106e+06
1.2503e+06
1.00203e+06
1.23886e+06
872724
911669
810845
923434
788976
857921
877881
2.00182e+06
2.0227e+06
1.7682e+06
1.90219e+06
1.83025e+06
1.93985e+06
2.11873e+06
1.80633e+06
1.56431e+06
1.64934e+06
1.49949e+06
1.68695e+06
1.77627e+06
1.55539e+06
1.02217e+06
1.30979e+06
1.27484e+06
1.05883e+06
1.02492e+06
1.04813e+06
1.26856e+06
903351
819036
858663
770416
850976
891324
845235
926363
1.0127e+06
1.16727e+06
1.04034e+06
820190
781950
725245
653559
1.11545e+06
1.14565e+06
1.01934e+06
1.09823e+06
976367
1.00295e+06
962766
1.06409e+06
1.00048e+06
1.05074e+06
888369
931434
919998
876796
1.10509e+06
1.00622e+06
1.06372e+06
926870
974358
937878
895417
890222
757249
856050
765950
875873
842804
740740
972790
967194
1.01921e+06
897987
824867
857155
860985
787710
732641
710736
807654
686919
714016
772680
749471
820360
854414
824019
703640
725575
793992
790388
733721
671761
679396
699312
756874
764416
198653
211450
215157
213471
194001
209879
197185
239976
234155
234964
219755
215523
214875
220447
232020
238983
233242
218962
213168
214143
217906
211606
193795
206241
192497
208138
209598
195554
228862
236106
230584
211993
216639
215140
210582
179350
141778
181042
171487
90246.2
79265.9
170150
194541
211323
210693
206513
191423
207123
190914
208864
193913
209920
205805
189545
204853
190332
229961
224759
226911
213421
207403
209015
211525
146221
134762
178452
71685.8
169433
154405
38973
207624
190772
206170
188586
203705
202358
187441
194316
190847
190341
181150
180686
177463
177889
202734
189363
204526
200824
184815
199130
186139
193032
188680
189660
179091
180038
176883
176032
202346
187818
183978
198821
198241
202926
187307
201702
186054
183484
196844
197626
200844
186766
190598
187476
186076
177906
176520
174978
173731
187326
182819
184511
173319
174980
172338
170839
185208
195897
199788
198542
181010
194848
184257
185522
183222
186402
173850
170269
170965
173080
183790
187509
187022
174380
171888
171468
174794
197108
181806
179804
192127
193627
195646
183160
184438
180279
183160
169425
172132
171019
168470
180172
178968
181732
169781
166149
167404
168514
180595
177939
177484
169094
168711
165795
166152
180074
176328
176983
167637
168262
165387
164820
177402
175545
174659
166868
165951
164101
163208
176237
172296
173581
163609
164870
162143
160890
71315.7
1459.55
324.923
242.429
97655.2
79839.3
106761
169992
159371
169590
166524
156787
166888
156468
168170
158894
169023
166022
155260
165269
156021
174833
171114
174429
162728
159881
159561
163070
331893
180434
167943
47.9438
0.0598414
255010
183548
191.232
2.10359
347452
248842
260193
248210
317498
298029
231677
244617
190541
197435
183311
189075
236792
242176
354278
342582
318043
335991
312688
308817
303620
339943
321078
328808
300400
306813
297977
291826
330306
311471
323999
289218
299289
294235
284424
186157
227970
234455
176720
227455
213701
170275
286921
256713
282645
254254
279593
275430
250869
251822
251047
247903
232608
229824
229171
226488
309954
305086
317071
288787
273736
279406
283150
252949
272857
277952
270899
243388
266028
247229
248358
240847
244527
223720
226879
223628
220567
272000
264095
241935
267947
238979
260333
244909
246768
239184
243700
221737
225559
222969
219221
407922
452538
387420
559779
349040
460563
414967
324618
541607
498955
527023
509891
484587
473786
460221
469037
500885
521786
472116
491605
445517
429862
433123
396157
444381
381098
424812
414117
372725
493757
446464
478091
421251
447723
435070
409713
1.66867e+06
868909
737974
1.98109e+06
2.4061e+06
1.7091e+06
1.74449e+06
1.56009e+06
1.50103e+06
1.35702e+06
1.4881e+06
1.37497e+06
975456
1.09063e+06
801767
1.27119e+06
810555
808119
883419
959609
758778
626879
680657
546404
2.24938e+06
2.2579e+06
2.15857e+06
2.14477e+06
2.05225e+06
1.96971e+06
2.03022e+06
2.01135e+06
1.72562e+06
1.97095e+06
1.64028e+06
1.87376e+06
1.82699e+06
1.63712e+06
1.13076e+06
1.43281e+06
1.15026e+06
1.36452e+06
1.09237e+06
1.13823e+06
1.41164e+06
1.02063e+06
931553
1.00115e+06
875168
944562
941466
849798
1.93821e+06
2.11692e+06
2.05396e+06
1.87801e+06
1.80543e+06
1.7759e+06
1.91885e+06
1.92811e+06
1.70299e+06
1.87217e+06
1.79575e+06
1.66575e+06
1.63008e+06
1.83548e+06
948003
906069
846938
892664
833370
808410
789418
1.82528e+06
1.71081e+06
1.90736e+06
1.76375e+06
1.56549e+06
1.69229e+06
1.60983e+06
1.7366e+06
1.60725e+06
1.47018e+06
1.68829e+06
1.44147e+06
1.56043e+06
1.54066e+06
1.23259e+06
1.47593e+06
1.19097e+06
1.18633e+06
1.42559e+06
1.43438e+06
1.22287e+06
1.34926e+06
1.09747e+06
1.31368e+06
1.13738e+06
1.31274e+06
1.37161e+06
1.132e+06
996300
894809
989806
957678
826998
990003
834623
1.7105e+06
1.64607e+06
1.58472e+06
1.46862e+06
1.55206e+06
1.6169e+06
1.74179e+06
894315
754668
884301
916631
760698
921644
793728
924135
837370
872293
787427
815804
773029
748392
854459
780855
836434
746705
774455
746893
708045
692494
661293
737786
681095
733754
704902
639754
1.63167e+06
1.46061e+06
1.40314e+06
1.43853e+06
1.5035e+06
1.56469e+06
1.50651e+06
1.17605e+06
1.34952e+06
1.29782e+06
1.15032e+06
1.37076e+06
1.15107e+06
1.19531e+06
953758
808304
781106
986203
958927
992005
793569
763425
788632
818428
729924
665713
686675
707687
701801
644402
722678
688170
599326
617523
668719
704813
676100
714928
675662
610193
622300
651438
654394
601015
572449
570592
592008
621721
635063
551976
700287
625395
826557
500352
603932
578099
446180
786706
760908
746085
727473
711521
695319
665352
744590
654319
691798
636910
675134
633843
600614
693033
602439
665096
583237
640274
614823
562171
671568
578229
641438
573902
632717
605954
550952
603930
635238
577818
587943
515825
559599
539563
525443
610135
551745
578286
502403
526927
549694
541431
538714
588418
565666
483427
518812
522282
541705
480606
465293
475665
497608
516679
501950
367655
377919
420957
402610
353891
390281
363596
443279
461263
431210
421402
383647
397122
406772
365344
383804
404599
394522
341559
374423
357364
383702
339592
333400
353320
364170
371958
348733
263649
237929
235605
251650
256303
259211
241535
232471
240396
235977
220177
213603
216517
217194
148446
128627
177391
170651
78930.6
176082
123289
213619
195210
211146
194691
210592
208227
192600
237346
232444
217705
229639
215271
213602
211257
205877
192919
208580
205762
188145
203152
190416
191913
204200
207462
205194
187184
202032
189924
231331
223657
226635
209970
212645
208923
206382
222542
220085
224822
205530
209511
207469
203256
202811
185783
185339
197354
199718
200282
187839
219022
217112
222166
205062
197581
200594
202207
109685
159459
141375
146496
17740
127480
5618.86
200778
184539
198689
183359
197299
195508
181594
181537
181027
179150
171560
169806
169310
167717
182640
194394
196593
193443
177265
190980
179558
180202
190329
194053
192115
174816
188228
178345
179465
175392
177257
166031
168033
165912
163908
178507
174532
176816
164701
167084
165461
163063
189834
173888
172665
183169
185842
187230
176236
173125
172701
175115
163642
159294
161256
161648
8049.58
228.681
4669.54
172.981
3939.4
62.4785
9592.85
972.821
5924.74
165247
159994
162533
7691.11
12562.1
167373
4998.15
2332.69
163816
158219
148837
3364.33
155651
157113
159905
6044.26
1765.33
86876.4
2214.4
94879.6
1351.62
657.073
155184
145045
125665
1176.07
137212
770.128
114795
128791
60777
80.7913
198.527
91396.5
157233
167095
165845
154106
164327
163208
152430
173375
170708
173984
162359
158730
159218
161834
154232
160545
147042
162928
164455
161950
150130
170789
162160
173614
171936
169069
160541
157861
172627
168503
171704
158092
161153
160300
157262
163581
148101
153458
161058
160731
163931
153030
104072
47372.8
53.9662
40.632
12035.5
1313.59
12.2275
159000
142805
161281
143921
159513
157311
136933
163128
151287
159727
147200
160323
162463
152367
158019
166064
169275
167380
170585
159250
156196
149718
158969
161624
160614
140712
158044
147553
170045
165044
167156
156792
158754
155966
152468
155695
158134
140480
159457
136620
156953
144581
151415
156610
162799
164540
167751
166033
154345
163970
166253
165011
139158
139156
136231
141954
166124
166913
165671
144803
141073
142153
143768
127.052
76119.4
86609.2
18489.2
13576.7
12.7402
17.2089
141053
158231
157921
155092
131365
155389
130349
162251
161236
163386
135299
127028
132232
130277
164556
162024
164094
137330
133603
132418
138467
157011
139783
157549
154748
125515
154191
128468
162447
161805
160339
135223
132173
126822
130040
4.75257
21458.6
41.6127
103.656
69037.4
10995.3
10.4249
156317
130562
155450
121222
153269
151807
115067
137592
155584
157612
155474
117012
152674
128704
160610
155824
158374
122423
127998
122281
116074
158478
153522
155010
120198
123842
115372
111228
156577
159348
155971
127450
126186
119497
118069
154048
156661
134830
154991
112375
151292
127003
159112
153994
157547
119704
114336
123298
110326
152743
151758
155445
114575
97452.4
107775
104729
96546
146790
147492
152469
151829
109170
107603
152629
151445
148667
114971
108009
105484
98011.8
95630
116850
152398
124826
154290
149570
106610
138803
158694
160856
161959
164103
150289
143424
91697.8
143686
145592
149156
150786
104624
100095
149333
140157
144989
88428.7
99172.7
88742.6
77413.4
71934.3
80290.2
140950
146827
143650
93963.5
86061.3
151129
115086
144085
88412.9
143337
151596
113620
150419
106361
84817.6
140003
142054
149254
110793
81629.1
140394
141208
132984
131986
64448.3
62679.2
152303
100354
140358
97556.6
146948
147882
115970
76416.3
136633
138942
127329
130159
59304.3
54329.9
132192
62023.9
50830.8
133822
139422
76220.6
64688.1
100091
136979
147463
144794
62125.7
132696
91829.5
1730.53
3.53031
1.94401
14482.2
27.6192
295.602
3.65027
81922.2
105794
149424
91563.5
144919
134510
65315.6
56373.2
64591.9
133307
123324
117753
47911.6
40485.7
258735
272590
210875
266671
201270
260017
205795
217538
281286
269175
248116
192864
219502
208239
199335
257303
278744
276378
274067
256550
254230
251903
249838
275816
268503
271446
248527
251518
247447
244764
265733
265367
262151
245397
242240
241930
239012
271558
264742
269445
243020
247427
245585
241348
264348
262532
267046
243449
237211
241032
239426
262259
255467
258878
235874
239062
236031
233002
261456
254409
258427
234800
238422
235702
232237
215633
235518
233410
213436
231155
229306
211784
251930
251350
255273
232873
226708
229549
229955
228193
213374
230940
227128
207619
224692
209828
222930
209537
226984
225354
204531
208101
221491
225319
222406
205558
205258
222116
219454
202812
223441
204423
217821
203021
221268
206381
219781
202849
200142
216584
216736
197786
200315
213973
202295
215659
218906
216440
197272
200053
213380
378353
424858
361563
301158
413937
294605
286963
402103
435011
310484
415226
409371
285909
297504
273226
283865
397206
432064
428879
425682
386113
383119
380324
377288
375999
428757
418172
422197
379758
373978
370232
378507
281582
269043
254270
266044
342290
358347
421919
410390
418565
366953
374014
370981
363878
420355
371789
413504
408399
367282
366113
361707
406558
410638
414855
367628
356760
363891
360567
402569
395480
402448
356801
362402
356793
351148
405877
391791
400567
352648
359766
355346
348214
345048
307724
342163
305331
339649
336820
302771
335219
304621
338829
333639
296654
330178
299872
387331
385503
394421
350391
337516
343212
344709
331323
293752
327242
293245
326477
322547
289698
387432
394696
385804
350436
344709
343228
337516
327680
300063
333867
331150
292369
297674
325047
328166
291980
289819
318855
324794
294995
322143
318280
289892
322937
318352
282090
286027
313688
370365
370339
379228
331110
338224
331127
324107
368769
375992
365421
326944
335396
329737
321409
288758
315299
321186
317336
280602
285362
311546
313173
302791
277885
277076
281779
307406
308553
313090
277777
308511
276825
307245
302679
273093
352203
350666
360844
323457
308660
315309
316594
297682
273642
303368
297646
264457
292044
268972
271601
294050
300890
296373
262479
289641
267945
625294
426419
665518
514181
627871
541470
584737
510357
728798
743012
635667
726372
710628
623155
611732
674167
599819
694293
613605
712617
693458
599168
682367
706263
689716
590519
608192
596334
578325
549292
472561
478709
470461
539325
531125
464219
647634
549528
567997
652132
671746
582880
564698
781660
766089
729044
697776
470559
522074
555680
494293
774838
768333
662102
761787
657974
651576
646889
755282
740820
752847
644634
652176
640844
632950
751433
721403
744061
623772
639423
633787
617597
711056
721598
734299
627117
601348
618633
610205
567709
491424
564578
487514
559823
556146
484130
483720
487832
560657
551655
475943
546317
480303
539329
479805
550776
546405
466428
476067
534291
535291
467018
456504
541320
461902
471833
528763
521993
532422
465403
457063
448000
521375
456740
527786
461244
450431
518874
443510
454484
505018
483066
497411
437709
508900
435539
446739
494719
470019
605848
568531
497691
440836
529148
479844
591366
652638
584149
673254
648884
628461
565930
550192
532890
551360
630305
582031
606088
533082
514602
621510
572199
601336
523163
545480
530028
508147
509651
447210
437907
436061
495562
483473
426685
556456
579822
551390
513006
474334
491641
495020
484442
416352
427628
470225
405238
455885
416446
462801
423773
410426
467862
401367
451092
414516
424759
380879
393376
391483
404315
438462
454893
722739
877405
1.1893e+06
781116
649346
766392
667413
867157
1.12516e+06
1.04361e+06
1.0975e+06
1.04018e+06
992623
973884
927550
1.31467e+06
1.3276e+06
1.2877e+06
1.58409e+06
1.62089e+06
1.30007e+06
1.14455e+06
1.4454e+06
1.77634e+06
2.34808e+06
1.72613e+06
1.31442e+06
1.22685e+06
998338
813633
1.50935e+06
1.08398e+06
1.12042e+06
2.18435e+06
2.16625e+06
2.10096e+06
2.03507e+06
1.97271e+06
1.94787e+06
1.85078e+06
1.56615e+06
1.50962e+06
1.34024e+06
1.48446e+06
1.32066e+06
1.29085e+06
1.2722e+06
1.06597e+06
1.33009e+06
1.58938e+06
814922
975781
987589
1.02174e+06
791993
752813
1.0414e+06
1.27854e+06
1.47274e+06
1.0417e+06
811038
1.97186e+06
1.71219e+06
1.87322e+06
1.61119e+06
1.77807e+06
1.71342e+06
1.56967e+06
1.97331e+06
1.64906e+06
1.86086e+06
1.5924e+06
1.79404e+06
1.70226e+06
1.52823e+06
1.8546e+06
1.56e+06
1.76258e+06
1.52262e+06
1.72907e+06
1.663e+06
1.4792e+06
1.54023e+06
1.42087e+06
1.45496e+06
1.26828e+06
1.29511e+06
1.24616e+06
1.21678e+06
1.41695e+06
1.29106e+06
1.39269e+06
1.15294e+06
1.22753e+06
1.20947e+06
1.13615e+06
1.10483e+06
934096
923025
914376
1.09072e+06
1.07609e+06
904216
1.54448e+06
1.45076e+06
1.40841e+06
1.38036e+06
1.42247e+06
1.29709e+06
1.27866e+06
1.45773e+06
1.45945e+06
1.62184e+06
1.54814e+06
1.27626e+06
1.40113e+06
1.39306e+06
1.41365e+06
1.45239e+06
1.59305e+06
1.54721e+06
1.28156e+06
1.42359e+06
1.38428e+06
1.59437e+06
1.5537e+06
1.72952e+06
1.5949e+06
1.35079e+06
1.47643e+06
1.44525e+06
1.24081e+06
1.42575e+06
1.38401e+06
1.33805e+06
1.20838e+06
1.18534e+06
1.15109e+06
1.26144e+06
1.32593e+06
1.36139e+06
1.18334e+06
1.08125e+06
1.15312e+06
1.11123e+06
1.06236e+06
908222
892489
1.05565e+06
874159
1.03274e+06
890666
2.59892e+06
2.42967e+06
1.69664e+06
2.49224e+06
1.77604e+06
2.45773e+06
1.78645e+06
1.90738e+06
2.46815e+06
2.64096e+06
2.6388e+06
2.19871e+06
2.29937e+06
2.32082e+06
2.23295e+06
2.78404e+06
2.80167e+06
2.79706e+06
2.79386e+06
2.43185e+06
2.4386e+06
2.4618e+06
2.34691e+06
2.44314e+06
2.5606e+06
2.26964e+06
2.11924e+06
2.16791e+06
2.19988e+06
1.77086e+06
1.81485e+06
1.80142e+06
1.97493e+06
2.035e+06
2.04237e+06
1.99236e+06
2.55841e+06
2.71118e+06
2.73479e+06
2.37014e+06
2.30047e+06
2.2511e+06
2.4094e+06
2.16537e+06
1.87203e+06
1.84135e+06
1.87062e+06
2.12862e+06
2.11252e+06
2.14979e+06
1.74275e+06
1.7565e+06
1.68963e+06
2.00405e+06
1.9018e+06
1.92269e+06
1.96489e+06
1.81423e+06
1.72982e+06
1.70825e+06
2.0611e+06
2.00606e+06
1.96759e+06
2.09963e+06
2.28766e+06
3.55883e+06
2.22481e+06
4.02051e+06
2.43957e+06
2.08081e+06
5.8323e+06
4.24754e+06
2.42e+06
2.60848e+06
2.62833e+06
2.14165e+06
2.31695e+06
2.37811e+06
2.17029e+06
6.00311e+06
3.16356e+06
3.34041e+06
5.325e+06
2.9609e+06
3.13894e+06
5.37461e+06
2.59255e+06
2.38222e+06
2.6026e+06
2.42095e+06
2.10958e+06
2.44594e+06
2.14629e+06
2.02559e+06
1.75525e+06
1.7974e+06
1.91765e+06
2.12872e+06
2.20347e+06
1.94963e+06
5.92469e+06
6.05519e+06
3.47678e+06
3.28263e+06
5.2452e+06
3.36234e+06
5.37007e+06
2.8141e+06
4.35052e+06
2.75733e+06
4.83184e+06
2.84715e+06
2.96988e+06
4.78577e+06
1.84106e+06
2.15145e+06
1.82898e+06
2.26742e+06
1.9756e+06
2.31921e+06
1.96352e+06
2.90434e+06
4.14303e+06
2.86736e+06
3.07456e+06
4.60181e+06
3.13751e+06
4.7206e+06
1.47976e+06
1.84933e+06
1.87667e+06
2.35098e+06
1.37119e+06
1.78267e+06
2.50301e+06
1.78072e+06
2.61955e+06
2.3843e+06
2.6488e+06
2.40587e+06
2.35696e+06
2.18261e+06
2.17083e+06
2.60659e+06
2.30635e+06
2.37936e+06
2.22913e+06
2.31926e+06
2.13921e+06
2.07129e+06
2.11955e+06
1.83581e+06
2.11759e+06
1.73981e+06
1.96932e+06
1.94759e+06
1.71614e+06
2.10773e+06
1.8393e+06
2.08505e+06
1.77953e+06
1.97521e+06
1.94812e+06
1.74133e+06
1.7071e+06
1.96163e+06
2.0434e+06
1.90547e+06
1.62844e+06
1.84298e+06
1.69136e+06
2.0536e+06
1.81574e+06
2.1007e+06
1.91591e+06
1.64303e+06
1.8631e+06
1.68303e+06
1.6152e+06
1.63661e+06
1.80487e+06
1.77146e+06
1.45001e+06
1.58487e+06
1.59998e+06
1.72971e+06
1.41145e+06
1.50947e+06
1.50618e+06
1.67995e+06
1.54777e+06
1.55866e+06
2.87689e+06
1.50266e+06
3.14517e+06
1.50927e+06
1.85949e+06
3.85471e+06
2.29185e+06
1.96898e+06
2.20862e+06
4.31969e+06
3.56987e+06
1.64862e+06
1.63025e+06
1.29529e+06
1.7786e+06
1.78384e+06
2.42054e+06
2.27205e+06
2.5674e+06
2.15092e+06
2.53051e+06
2.08966e+06
2.45403e+06
2.47866e+06
2.03989e+06
2.21736e+06
2.06941e+06
2.09345e+06
2.01232e+06
2.03893e+06
1.88852e+06
1.88953e+06
5.63068e+06
5.23507e+06
3.50099e+06
5.00516e+06
3.37226e+06
3.31747e+06
4.67671e+06
2.36451e+06
2.20694e+06
2.15549e+06
2.14346e+06
2.09428e+06
1.9208e+06
1.96609e+06
1.88956e+06
1.89076e+06
3.86965e+06
1.76282e+06
2.17137e+06
2.7151e+06
1.76107e+06
1.1875e+06
1.58162e+06
1.66429e+06
999184
1.52459e+06
1.39824e+06
1.09841e+06
1.82157e+06
1.96202e+06
2.37302e+06
2.42559e+06
1.80738e+06
1.9147e+06
2.34554e+06
2.06716e+06
2.50994e+06
2.51674e+06
2.50309e+06
1.91302e+06
2.49805e+06
1.9653e+06
1.607e+06
1.81863e+06
1.81781e+06
1.699e+06
1.59556e+06
1.73823e+06
1.51721e+06
1.73857e+06
1.91417e+06
1.91236e+06
1.73825e+06
1.6843e+06
1.59743e+06
1.78215e+06
2.90595e+06
4.40349e+06
3.14604e+06
3.10145e+06
3.64258e+06
2.8669e+06
4.14115e+06
3.22161e+06
4.77758e+06
3.38438e+06
3.20974e+06
3.90274e+06
3.0669e+06
4.30005e+06
1.61337e+06
1.87874e+06
1.84484e+06
1.70797e+06
1.52001e+06
1.73439e+06
1.50806e+06
1.74865e+06
1.9875e+06
1.94656e+06
1.75015e+06
1.60474e+06
1.58506e+06
1.78107e+06
1.5778e+06
1.5446e+06
1.36327e+06
1.58793e+06
1.47223e+06
1.66077e+06
1.4339e+06
2.45321e+06
2.34078e+06
1.82553e+06
1.8818e+06
2.43764e+06
1.88276e+06
2.35965e+06
2.46656e+06
1.88543e+06
2.44351e+06
1.83775e+06
2.3804e+06
2.35404e+06
1.86834e+06
1.57914e+06
1.58982e+06
1.47292e+06
1.55032e+06
1.43634e+06
1.36549e+06
1.51355e+06
3.00781e+06
2.70428e+06
3.40287e+06
3.51074e+06
2.88857e+06
2.79441e+06
3.83252e+06
3.03051e+06
3.52536e+06
2.8992e+06
3.45256e+06
2.82499e+06
2.72575e+06
3.17473e+06
1.56885e+06
1.3029e+06
1.40712e+06
1.44337e+06
1.43731e+06
1.58493e+06
1.40319e+06
1.5671e+06
1.44204e+06
1.4369e+06
1.40306e+06
1.402e+06
1.30252e+06
1.29306e+06
2.59236e+06
3.19357e+06
2.75471e+06
2.60203e+06
2.61711e+06
2.44953e+06
2.8896e+06
1.3025e+06
1.53423e+06
1.38278e+06
1.30333e+06
1.51534e+06
1.50519e+06
1.25722e+06
2.2885e+06
1.89377e+06
2.38304e+06
2.29401e+06
1.88446e+06
2.20371e+06
1.89446e+06
3.06609e+06
2.43536e+06
2.62694e+06
2.54703e+06
2.52729e+06
2.35866e+06
2.83576e+06
1.79826e+06
2.146e+06
2.26941e+06
2.24269e+06
1.79762e+06
2.11191e+06
1.8458e+06
1.45752e+06
1.20896e+06
1.31421e+06
1.27125e+06
1.44591e+06
1.19577e+06
1.46585e+06
1.21032e+06
1.31005e+06
1.31778e+06
1.21038e+06
1.08948e+06
1.13468e+06
1.18672e+06
1.24111e+06
1.12393e+06
1.25208e+06
1.18163e+06
1.03607e+06
1.08032e+06
1.15728e+06
855937
1.04966e+06
888609
1.03623e+06
845979
879611
985006
1.45537e+06
1.248e+06
1.21377e+06
1.31329e+06
1.35303e+06
1.22657e+06
1.14299e+06
1.35909e+06
1.20444e+06
1.10863e+06
1.27716e+06
1.16443e+06
1.10728e+06
1.05404e+06
1.18669e+06
1.07765e+06
1.18547e+06
1.17597e+06
1.29878e+06
1.17478e+06
1.0685e+06
1.18913e+06
1.14732e+06
1.24257e+06
1.04942e+06
1.12099e+06
1.08474e+06
1.01415e+06
1.45624e+06
1.21552e+06
1.22879e+06
1.24841e+06
1.35389e+06
1.33039e+06
1.3163e+06
1.15294e+06
1.24176e+06
1.09147e+06
1.07886e+06
1.22361e+06
1.1408e+06
1.01066e+06
876615
858322
1.01749e+06
855290
1.00861e+06
981476
833809
2.43202e+06
2.37918e+06
2.10835e+06
2.34196e+06
2.24238e+06
2.28118e+06
2.60205e+06
1.01659e+06
942779
832075
847853
992575
865979
966314
2.18173e+06
1.83786e+06
1.96201e+06
1.79724e+06
2.04968e+06
2.09244e+06
1.86198e+06
924568
976501
1.07505e+06
1.12075e+06
1.02528e+06
1.04948e+06
1.07567e+06
1.2419e+06
1.52952e+06
1.23189e+06
1.49445e+06
1.20369e+06
1.49841e+06
1.23421e+06
1.13522e+06
1.15908e+06
1.24528e+06
1.13413e+06
981446
1.03805e+06
1.06486e+06
885694
952500
1.06355e+06
1.05328e+06
867533
939504
963410
1.09831e+06
1.04425e+06
1.17451e+06
1.10119e+06
934046
982421
1.03643e+06
916042
826593
965955
937621
769493
804266
887490
1.09842e+06
1.12528e+06
1.18913e+06
1.0427e+06
928079
992669
973668
950641
836556
987527
949380
783322
911491
809870
936778
1.05342e+06
976557
975619
905834
876950
823436
753190
868453
906565
746574
856548
820345
719323
952596
912296
1.00404e+06
829429
901825
860177
792127
876148
967986
895964
1.02217e+06
848745
917413
940164
718877
820220
868011
904981
745199
779883
855469
835152
818216
895342
814790
709734
751989
766874
689599
781260
826169
781114
657709
738913
689784
708240
747995
803150
769387
642728
717025
682173
587898
623525
694645
733228
616119
684111
653835
291408
259537
258555
279493
284802
285937
263951
213907
208483
195354
195104
197724
210971
211274
1.98343e+06
2.14097e+06
1.91353e+06
3.05197e+06
2.83858e+06
3.45234e+06
1.63518e+06
3.7098e+06
1.59913e+06
2.16945e+06
2.03815e+06
2.00334e+06
1.46355e+06
1.46546e+06
1.40954e+06
1.5008e+06
1.91917e+06
2.12812e+06
2.11497e+06
1.74605e+06
2.02814e+06
2.00113e+06
1.75296e+06
2.00944e+06
1.93908e+06
1.94082e+06
1.76756e+06
1.8135e+06
1.80782e+06
1.76692e+06
1.95206e+06
2.26325e+06
2.18766e+06
2.08092e+06
1.83075e+06
2.13901e+06
1.79006e+06
5.06384e+06
5.0917e+06
2.7908e+06
2.78529e+06
4.64392e+06
2.75673e+06
4.59804e+06
2.18507e+06
2.11298e+06