/*--------------------------------*- C++ -*----------------------------------*\
  =========                 |
  \\      /  F ield         | OpenFOAM: The Open Source CFD Toolbox
   \\    /   O peration     | Website:  https://openfoam.org
    \\  /    A nd           | Version:  9
     \\/     M anipulation  |
\*---------------------------------------------------------------------------*/
FoamFile
{
    format      ascii;
    class       volVectorField;
    location    "0.0034";
    object      U;
}
// * * * * * * * * * * * * * * * * * * * * * * * * * * * * * * * * * * * * * //

dimensions      [0 1 -1 0 0 0 0];

internalField   nonuniform List<vector> 
26926
(
(21.0873 -84.1346 182.16)
(47.5501 -88.92 194.451)
(21.8042 -84.2935 224.504)
(53.7566 -100.042 236.376)
(0.00350316 -0.124668 0.39677)
(1.98899 -4.28567 9.21856)
(2.26444e-05 -0.000384692 0.00114034)
(0.000416881 -0.000928582 0.00217098)
(19.1171 -56.3973 158.139)
(31.1071 -43.2889 90.9558)
(21.1657 -61.5671 191.751)
(46.953 -64.2965 206.127)
(0.233674 -0.626318 2.73775)
(0.180248 -0.228637 0.990118)
(0.0219705 -0.057531 0.265851)
(0.0170443 -0.0198601 0.091939)
(13.648 -40.8241 80.1917)
(20.4101 -76.2437 175.249)
(15.1625 -57.2659 99.0747)
(3.23281 -74.7144 170.981)
(2.31 -55.8451 96.1428)
(8.2844 -55.7898 155.01)
(1.88717 -38.967 76.115)
(42.3196 -58.3709 169.071)
(30.3188 -57.0719 162.727)
(17.7514 -41.0892 82.1545)
(45.7396 -80.0281 186.433)
(34.0098 -59.9424 107.595)
(26.3568 -76.8065 177.153)
(19.6796 -57.6026 100.266)
(15.7481 -63.5814 105.241)
(3.33655 -82.3911 177.755)
(2.41653 -62.2038 102.482)
(3.63516 -112.19 205.041)
(24.0826 -114.773 210.255)
(2.59965 -76.4602 114.794)
(17.048 -77.929 117.403)
(35.2077 -66.5642 113.378)
(27.2537 -84.8598 184.192)
(25.2114 -64.5464 108.121)
(31.3238 -116.142 213.061)
(27.1972 -79.086 120.086)
(54.9573 -122.694 224.782)
(32.4477 -80.0893 122.223)
(9.62024 -40.3413 78.5968)
(14.1133 -46.021 86.5559)
(10.0291 -45.677 85.2126)
(15.5832 -46.8509 106.225)
(11.0996 -46.5526 104.503)
(11.4124 -51.9252 110.806)
(15.9476 -52.1746 112.263)
(5.58842 -39.6265 77.4911)
(2.0508 -44.3022 82.9935)
(5.8659 -45.0343 84.3306)
(2.25628 -45.4132 101.959)
(6.5083 -45.988 103.337)
(6.71463 -51.4142 109.856)
(2.36762 -50.7421 108.508)
(21.9732 -41.6968 84.613)
(18.3144 -46.2694 88.1687)
(22.6779 -46.8729 90.2795)
(20.2341 -47.0775 108.2)
(25.0291 -47.5683 110.67)
(20.6936 -52.4449 113.889)
(25.6086 -52.9619 115.961)
(26.4863 -42.4903 87.4947)
(31.9551 -48.3729 96.2477)
(27.269 -47.5701 92.9445)
(35.1013 -48.793 116.775)
(30.0178 -48.152 113.539)
(30.6664 -53.5658 118.492)
(35.8283 -54.2659 121.459)
(6.43568 -56.751 97.403)
(2.19379 -49.9292 89.6549)
(6.15743 -50.7636 90.945)
(6.94424 -57.1339 116.017)
(2.57966 -62.3795 120.556)
(7.19271 -63.1772 121.854)
(2.47955 -56.3792 114.697)
(14.6072 -51.4619 92.8452)
(10.8622 -57.0971 98.0363)
(10.4521 -51.2592 91.6681)
(11.7558 -57.5577 116.803)
(16.9091 -63.7893 123.612)
(12.1246 -63.5294 122.536)
(16.4029 -57.8023 118.032)
(18.9607 -51.7403 94.1947)
(24.3226 -58.1575 102.066)
(23.4792 -52.3103 96.0914)
(21.9107 -64.1578 124.793)
(21.2712 -58.1354 119.376)
(26.2776 -58.6433 121.182)
(27.016 -64.6942 126.457)
(13.7081 -55.4171 81.4703)
(31.0367 -58.5897 91.1228)
(4.73148 -12.0673 58.2883)
(2.14305 -54.1082 78.3728)
(0.891486 -10.161 55.968)
(2.43084 -75.8432 101.205)
(15.9906 -77.4202 103.946)
(0.561675 -35.6064 98.8311)
(10.7333 -38.7512 99.2421)
(17.8019 -55.7281 82.8185)
(14.8223 -21.0931 65.4369)
(9.57375 -15.2932 60.0209)
(20.7716 -77.9673 105.083)
(29.1406 -71.9118 102.076)
(14.3973 -40.2011 98.0923)
(21.5975 -38.1425 88.6601)
(-0.46073 -9.07587 54.3273)
(-0.184758 -15.752 71.4468)
(1.65477 -17.0227 72.9171)
(1.0216 -31.1826 48.3728)
(3.06417 -32.19 50.0277)
(3.50868 -38.2507 63.0129)
(1.16009 -37.1398 61.4247)
(2.67798 -11.3768 57.2186)
(6.70033 -18.9577 73.9194)
(4.09032 -18.1133 73.5807)
(8.2406 -32.8237 52.8428)
(5.64 -32.7701 51.3269)
(6.4634 -38.7349 63.9868)
(9.39926 -38.9744 65.1643)
(6.98198 -13.3718 59.0838)
(9.48306 -20.4658 73.7572)
(11.0991 -33.2671 54.4403)
(12.4175 -22.5067 73.936)
(14.3123 -34.1836 56.4549)
(12.6474 -39.6858 66.3113)
(16.1325 -40.8041 67.9668)
(12.1329 -17.8674 62.1232)
(18.1735 -28.8597 77.5941)
(15.2431 -25.3369 75.2174)
(21.0394 -37.553 63.3057)
(17.6098 -35.5934 59.427)
(19.6693 -42.5349 70.4757)
(23.3664 -44.8148 73.7368)
(0.167736 -24.8068 86.3408)
(3.51504 -36.9794 100.078)
(2.55163 -26.1172 87.7096)
(4.02643 -45.7088 75.2021)
(1.50859 -53.3666 84.8523)
(4.65136 -54.5452 86.3345)
(1.31458 -44.5886 73.6334)
(5.82927 -55.0778 79.684)
(1.73995 -44.0833 57.894)
(4.63611 -45.1263 59.3612)
(4.99278 -51.5364 69.3077)
(2.24461 -60.6995 85.9815)
(1.85368 -50.4753 67.8382)
(6.1269 -61.6734 87.2877)
(8.73272 -28.0427 87.5951)
(7.12115 -37.7749 99.9191)
(5.59247 -27.0716 87.8791)
(7.38193 -46.1692 75.8681)
(12.1272 -55.5122 87.4328)
(8.42324 -54.9715 86.7837)
(10.7001 -46.6052 76.7374)
(11.2202 -45.4512 61.7531)
(9.82452 -55.338 80.374)
(7.96957 -45.4657 60.3664)
(8.59967 -51.796 70.1384)
(14.3971 -62.04 88.9529)
(12.097 -51.898 71.3622)
(10.3167 -61.8843 87.9053)
(11.9955 -29.533 86.8315)
(17.9773 -42.2687 97.3561)
(15.2652 -31.6311 86.4434)
(16.12 -56.4474 87.9058)
(14.3369 -47.438 77.5433)
(18.1095 -48.7443 78.8432)
(20.1678 -57.8572 88.8769)
(14.697 -45.746 63.3755)
(22.0579 -56.3365 84.832)
(18.4047 -46.3673 65.6449)
(18.7187 -62.4342 90.2591)
(15.8577 -52.3163 72.7957)
(19.7914 -53.0895 74.8785)
(23.1681 -63.1516 92.2227)
(24.9441 -48.6173 98.5299)
(18.3845 -34.5571 87.0709)
(21.4023 -45.1602 97.5145)
(21.9054 -50.688 80.887)
(28.4994 -62.3652 92.5204)
(24.2323 -59.8974 90.4571)
(25.8872 -53.1207 83.53)
(26.4538 -57.3004 87.6346)
(26.2173 -48.9229 72.7901)
(22.2271 -47.425 68.8065)
(23.8265 -54.3637 77.7883)
(32.5379 -65.6995 98.1574)
(28.0647 -56.0781 81.393)
(27.7473 -64.2701 94.9073)
(5.39093 -58.8778 79.0965)
(2.33259 -67.9712 93.624)
(6.79861 -76.8363 102.446)
(2.08749 -66.073 87.0572)
(5.84068 -67.1447 88.4503)
(1.96407 -57.8483 77.6203)
(6.4338 -68.9305 94.929)
(9.28436 -59.128 79.758)
(15.148 -69.3987 96.4969)
(11.4524 -77.0745 102.972)
(14.1416 -67.7103 89.9866)
(10.0566 -67.3955 88.9969)
(13.0617 -59.3524 80.8467)
(10.8481 -69.1482 95.4816)
(19.6941 -69.8724 97.7355)
(18.4967 -68.3054 91.0328)
(17.129 -59.8616 82.0945)
(21.3114 -60.77 83.9675)
(25.6359 -78.8497 106.804)
(22.9137 -69.2987 92.6911)
(24.3493 -70.6845 99.598)
(29.0891 -58.9247 104.539)
(32.9175 -53.8823 101.832)
(28.1381 -53.0024 98.6424)
(31.4054 -59.2892 123.511)
(37.6457 -66.3324 131.293)
(32.2427 -65.4247 128.658)
(36.6671 -60.0812 126.31)
(34.1756 -73.4168 105.02)
(30.0716 -64.0103 89.7518)
(32.1622 -72.6206 97.7752)
(27.4188 -70.7839 94.9821)
(35.9293 -81.693 111.737)
(30.6458 -80.1186 109.072)
(25.5846 -62.2029 86.5615)
(17.4138 -51.8571 131.535)
(13.7615 -56.1639 156.349)
(12.5143 -51.6661 129.796)
(12.7389 -57.1162 135.543)
(19.4414 -62.5407 163.533)
(17.7032 -57.3353 137.07)
(13.9886 -62.2401 161.864)
(9.33087 -60.9059 187.981)
(24.5206 -69.0109 262.008)
(22.8993 -82.5419 237.925)
(22.8939 -84.6637 213.321)
(3.91305 -69.3924 264.567)
(3.38953 -83.8982 242.505)
(3.63543 -82.888 208.166)
(7.43693 -51.2419 128.572)
(2.99527 -55.3785 153.653)
(2.61735 -50.7539 127.228)
(7.59011 -56.7102 134.477)
(3.06341 -61.3456 159.216)
(2.70257 -56.1453 133.124)
(8.42605 -61.8426 160.605)
(6.71467 -63.1258 103.725)
(2.51162 -69.0677 108.709)
(6.99506 -69.9933 109.926)
(2.67616 -68.8429 126.206)
(7.46411 -69.6677 127.479)
(7.73484 -76.6974 132.934)
(2.7673 -75.858 131.671)
(16.3731 -70.4791 111.351)
(11.2889 -63.3943 104.287)
(11.7399 -70.2287 110.446)
(17.4504 -70.287 129.079)
(12.5241 -69.9863 128.096)
(12.9479 -77.0086 133.525)
(18.0345 -77.3645 134.462)
(33.5173 -62.5116 197.672)
(49.2975 -66.4376 247.93)
(37.5567 -68.0888 256.664)
(51.7703 -90.0432 228.582)
(43.4529 -74.9873 212.848)
(28.8971 -81.3879 234.117)
(29.6165 -85.5174 215.992)
(24.6125 -56.6549 160.23)
(27.6829 -52.3789 135.928)
(22.4795 -52.032 133.512)
(25.062 -62.8998 165.476)
(22.8515 -57.5871 138.774)
(28.1464 -58.0071 140.861)
(30.9081 -63.4156 167.818)
(26.1739 -71.5427 114.137)
(20.4281 -63.932 106.387)
(21.2242 -70.8679 112.464)
(22.6005 -70.6812 130.185)
(27.843 -71.2685 131.762)
(23.3383 -77.8049 135.522)
(28.7411 -78.479 137.024)
(7.76812 -62.5712 140.121)
(8.8572 -75.36 172.441)
(2.8816 -68.2871 144.213)
(3.14337 -67.7589 164.915)
(7.97829 -68.9756 145.578)
(2.7884 -61.9492 138.754)
(8.62493 -68.3327 166.34)
(36.2167 -57.6577 165.688)
(38.4689 -53.3764 141.836)
(32.9966 -52.8234 138.741)
(33.5741 -58.583 143.361)
(43.1882 -64.9662 174.061)
(39.2333 -59.3359 146.169)
(36.9356 -64.1089 170.682)
(13.0155 -62.9558 141.069)
(19.868 -69.1114 169.149)
(18.5587 -69.687 147.689)
(14.6747 -75.8131 173.631)
(13.3463 -69.3584 146.443)
(18.0864 -63.2286 142.423)
(14.2963 -68.7594 167.541)
(30.1129 -65.4323 110.498)
(31.2507 -72.5108 116.382)
(36.5322 -73.7063 119.065)
(38.7868 -73.153 136.3)
(33.2097 -72.1056 133.83)
(34.2992 -79.4386 139.01)
(40.1283 -80.6778 141.414)
(1.40923 24.9326 156.247)
(9.94855 0.641296 87.6772)
(-2.54264 74.9733 144.16)
(3.42811 15.9252 95.2746)
(-2.20706 21.4961 96.401)
(7.44205 70.5915 135.6)
(-0.0931705 -16.7334 135.258)
(11.3565 -20.7746 132.071)
(14.4989 25.885 149.974)
(5.387 13.3431 92.7492)
(1.34322 63.8592 113.234)
(8.70942 71.3656 129.881)
(14.9414 -22.4981 128.687)
(23.3551 -32.6331 120.232)
(17.0834 25.8629 145.198)
(19.3837 16.8969 132.137)
(1.71525 73.0491 142.918)
(-0.503998 61.3117 147.565)
(-2.61821 69.7369 146.182)
(4.15765 60.8975 146.055)
(1.29178 67.9569 145.002)
(2.93465 51.154 153.952)
(-1.48512 52.2895 154.784)
(4.72952 71.1237 139.947)
(6.40366 63.2475 138.652)
(10.1826 60.4932 139.156)
(7.44749 60.4125 143.063)
(4.07056 65.5755 142.386)
(6.43169 49.5542 151.591)
(9.48819 47.7722 148.138)
(8.07302 71.4159 123.343)
(7.71452 60.4345 133.925)
(11.7896 60.245 134.185)
(12.1727 59.075 128.836)
(7.86556 57.0386 128.608)
(11.551 45.1377 143.587)
(12.5486 41.5577 138.525)
(5.06943 69.0579 117.482)
(5.21486 44.3252 120.838)
(9.06153 49.4877 120.879)
(10.9726 55.5642 124.257)
(6.437 51.8164 124.059)
(12.6304 36.4007 134.136)
(11.8686 29.6838 130.966)
(0.535116 43.244 152.492)
(6.64256 24.6377 155.751)
(5.61449 43.1875 151.491)
(4.20991 32.5067 161.048)
(0.440048 15.5914 165.644)
(5.32963 14.384 165.731)
(-0.512336 33.6802 161.334)
(1.21237 17.8203 96.7171)
(4.80438 42.2644 128.149)
(2.32587 45.1351 131.196)
(4.85983 30.3378 141.785)
(6.427 5.23616 111.005)
(8.12733 27.9698 138.809)
(3.45129 6.87384 113.037)
(-2.91158 49.4154 133.677)
(-0.561676 19.9277 97.1411)
(-0.0556704 47.6721 133.092)
(1.53456 32.5183 143.625)
(-1.50144 10.3467 113.387)
(-1.94087 34.3167 144.034)
(0.792068 8.6723 113.924)
(11.2117 25.0498 153.656)
(12.6571 43.9956 145.195)
(9.5372 43.4377 148.914)
(8.3456 31.4209 159.21)
(13.6901 13.0882 161.372)
(9.92944 13.6773 164.351)
(11.9627 30.31 156.026)
(6.53381 38.6582 123.927)
(7.2141 10.111 89.8257)
(7.39661 34.3854 119.155)
(9.00808 2.93646 107.828)
(10.5168 24.8543 134.67)
(12.037 21.0172 130.074)
(11.3416 0.00898249 104.418)
(14.5691 43.5566 140.284)
(18.824 24.6914 140.064)
(15.9238 41.9777 135.052)
(16.8172 11.7355 157.325)
(14.3959 28.2628 151.528)
(16.4133 25.4059 146.599)
(19.22 9.39033 152.812)
(7.65438 21.7824 112.742)
(8.57851 5.78531 88.0116)
(7.69257 28.6919 115.217)
(13.1334 15.9463 126.242)
(14.8293 -9.00144 100.717)
(13.4946 9.76874 123.551)
(13.1457 -4.04225 101.976)
(14.7767 32.9456 127.193)
(19.554 21.6099 135.533)
(15.992 38.3861 130.466)
(17.2414 20.9422 142.298)
(21.6303 0.260363 145.658)
(20.736 5.43628 148.826)
(17.1542 15.1194 139.063)
(3.00451 16.8743 151.833)
(-0.0807667 2.26437 157.878)
(-0.776895 -2.62559 125.972)
(3.40464 -18.3377 135.761)
(4.32848 0.589653 158.016)
(-0.982573 18.6265 151.915)
(2.13796 -4.24821 126.487)
(7.04312 15.1615 150.18)
(9.07146 -7.16911 123.009)
(7.42513 -19.4733 134.591)
(12.8727 -2.22108 153.531)
(8.86689 -0.699232 156.57)
(10.8364 13.2334 147.187)
(5.53876 -5.69166 125.375)
(12.1747 -9.1715 119.587)
(16.3292 -4.31877 149.553)
(13.6314 10.5759 143.011)
(15.9823 7.26042 138.575)
(18.0701 -24.9091 125.209)
(19.1176 -7.25074 145.324)
(14.9558 -11.8267 116.035)
(-59.3397 97.1509 -92.9395)
(-12.6742 68.222 -112.034)
(-27.5426 35.7674 -0.805095)
(-2.39078 32.3084 -20.852)
(-25.9172 61.7171 -65.5043)
(-6.56259 32.3743 -81.7991)
(1.68901 1.49639 -1.33941)
(-1.40268 25.0759 1.69297)
(-33.0514 73.279 -106.227)
(-11.6288 53.3722 -72.0669)
(-29.7953 52.966 -70.6636)
(-8.64496 49.6489 -96.908)
(-23.7435 58.5589 -89.9856)
(-18.5194 45.9308 -55.713)
(-5.11013 38.2097 -58.9027)
(-49.8006 81.4587 -98.6368)
(-48.8785 70.6262 -66.4752)
(-42.9256 57.7633 -68.0502)
(-43.8514 95.7702 -74.0045)
(-36.4308 73.8549 -80.7314)
(-28.4444 59.9554 -50.529)
(-33.792 79.9762 -47.5675)
(-10.0354 28.811 8.04776)
(-0.0366107 31.127 16.8979)
(-11.4622 38.4669 -32.5672)
(-20.8225 23.1638 5.55236)
(-26.9074 34.1372 -34.1053)
(-13.7544 38.721 -20.2444)
(-7.57969 36.3264 15.4388)
(-39.6614 47.7417 -36.1608)
(-26.9394 24.6258 2.31443)
(-36.898 36.3283 -34.9571)
(-21.6157 51.619 -18.9332)
(-15.7873 62.7101 11.2524)
(-25.7546 69.5472 -19.0506)
(-12.969 47.0606 13.6656)
(-16.9513 43.8549 -74.5768)
(-5.52105 20.5358 -62.8092)
(-11.1039 30.0659 -57.7092)
(-1.15784 7.16418 -34.4023)
(-2.27653 21.0561 -47.7749)
(-10.2312 31.2765 -43.7347)
(-4.93019 16.4312 -31.4779)
(-31.1686 84.4872 -58.997)
(-19.2488 68.3216 -44.5971)
(-16.3803 46.5807 -50.3406)
(-16.9159 47.6623 -38.3852)
(-9.87885 53.3354 -23.0305)
(-8.03419 32.6023 -26.5725)
(-20.7956 68.952 -34.7418)
(0.94695 16.1332 -11.4224)
(3.86804 3.15079 33.007)
(2.72065 16.7162 24.6931)
(-5.25331 24.7819 -10.1286)
(3.5947 10.8941 32.7876)
(-0.5482 10.0845 -0.195882)
(-0.618626 23.7591 24.0368)
(4.46528 23.5647 31.973)
(-3.31458 36.4186 22.8248)
(5.02475 39.105 30.3889)
(-2.10421 43.8341 2.61635)
(-4.73897 53.0504 21.1754)
(-12.9733 58.564 -7.49179)
(-10.1189 39.4022 -8.32185)
(4.92143 11.2137 64.9184)
(-1.5573 76.4691 88.8701)
(2.72558 29.1094 138.627)
(-2.76771 69.9491 130.123)
(-5.06531 41.7915 82.8993)
(8.60201 68.2382 117.957)
(-12.7885 35.3862 36.5941)
(15.9186 34.0137 129.855)
(9.91843 27.0422 61.0713)
(-24.3312 102.574 17.0347)
(9.78909 72.8479 110.654)
(-5.64547 75.9927 37.3389)
(17.9441 35.6745 124.209)
(17.6808 29.8499 109.29)
(12.1591 50.5272 53.6312)
(6.32112 66.9287 44.5512)
(-7.42212 29.5948 48.5087)
(0.901529 37.1834 52.4448)
(-12.5656 23.7673 45.7553)
(-1.42666 40.4138 50.0138)
(-4.76532 36.8368 80.3948)
(3.08766 50.2959 80.3167)
(1.47199 48.4099 83.1498)
(-13.8586 24.6948 41.3309)
(0.349814 45.8823 69.702)
(-3.76848 61.0333 41.7691)
(-3.21992 48.3481 46.1591)
(-1.85604 37.3069 75.711)
(4.58938 55.2139 75.7236)
(6.05736 63.8957 70.4006)
(-13.3065 54.059 31.4756)
(-15.0877 74.2906 25.838)
(0.86177 60.6147 62.8438)
(-8.64283 89.151 32.6839)
(-1.14983 75.8291 55.402)
(5.40561 74.6458 64.8614)
(3.1454 83.9578 59.038)
(3.35133 24.1214 58.1235)
(7.81754 17.6301 63.5904)
(4.20479 29.8015 56.23)
(7.47874 39.5455 84.5963)
(4.81162 21.2463 92.6802)
(10.1653 25.445 90.8877)
(3.82719 35.5781 87.1577)
(-3.44884 57.6551 109.195)
(1.82935 67.2814 128.122)
(0.229629 53.9648 106.803)
(5.35492 59.1327 105.987)
(0.538942 62.7333 129.982)
(5.21872 62.8007 127.692)
(1.36756 58.4393 108.582)
(-18.5924 91.6525 20.5508)
(-12.4151 95.0291 43.0438)
(-16.435 100.373 26.0442)
(-12.0532 97.6111 28.7698)
(-5.71918 88.189 48.43)
(-0.664681 89.2166 53.8587)
(-5.64737 89.4756 49.9916)
(5.24704 65.9866 123.821)
(7.27636 59.086 95.7607)
(4.26535 53.7496 102.044)
(8.17845 61.6129 101.409)
(11.0032 65.4291 118.256)
(10.5423 66.5569 95.8656)
(8.41516 63.3972 123.528)
(3.89648 39.4801 53.0597)
(11.8695 38.499 57.713)
(4.45283 52.1857 49.4045)
(9.36095 45.8986 80.6748)
(15.9019 39.6673 83.5191)
(13.1447 31.9014 87.6527)
(11.0904 54.2482 76.0944)
(8.34103 68.3062 88.3446)
(8.48381 77.3236 102.541)
(6.49223 77.8898 80.1272)
(12.047 67.7396 111.868)
(11.0186 72.6919 89.583)
(9.50314 77.6322 82.8996)
(11.4767 69.0783 105.197)
(3.30487 65.7741 45.4121)
(11.0439 60.6233 49.9251)
(1.17457 77.2869 41.4568)
(16.7982 47.6543 78.666)
(11.0312 63.356 71.135)
(9.65855 70.8426 66.3138)
(16.5772 54.0273 74.1878)
(-5.20125 86.4818 65.9344)
(4.39369 79.0218 94.8609)
(1.68277 84.7305 72.2651)
(5.98375 79.3061 76.8262)
(5.75352 63.7816 95.474)
(1.37639 77.1962 72.5755)
(9.05501 67.8396 99.4345)
(-4.11834 86.241 36.149)
(9.3846 66.2216 47.1382)
(-0.836763 84.474 38.6052)
(7.60094 74.9247 62.3512)
(12.5096 55.4718 66.7658)
(15.1909 56.8125 70.1508)
(4.31776 74.3377 59.126)
(8.14256 46.615 109.908)
(4.01839 28.1587 117.077)
(1.93045 46.837 134.546)
(8.43623 29.8765 137.315)
(9.90163 30.4081 115.359)
(7.23415 47.6047 132.493)
(3.26689 44.5379 112.399)
(11.4312 50.037 105.933)
(12.8479 31.6051 134.264)
(13.6506 51.4877 124.055)
(16.7636 38.873 107.759)
(13.9594 34.1541 112.092)
(13.6169 54.913 101.13)
(10.8915 49.1113 128.741)
(15.0957 53.29 118.266)
(18.09 43.2341 102.35)
(14.5365 59.9862 95.5706)
(14.2059 63.7405 90.0502)
(19.0587 35.9919 118.407)
(18.7959 46.1041 97.0819)
(15.5894 53.8001 112.22)
(12.4642 64.4214 84.96)
(12.5306 46.8734 103.014)
(18.9837 33.9583 113.221)
(15.8521 43.0766 88.3011)
(17.9535 46.0841 92.1385)
(9.63203 61.2936 81.1602)
(14.863 51.6494 106.79)
(17.5011 2.61595 134.846)
(19.2846 -20.2713 111.45)
(20.7628 -28.3839 122.372)
(22.9021 -16.6096 138.849)
(21.1542 -11.4937 141.715)
(18.4719 -3.03391 131.99)
(17.1925 -15.6094 113.295)
(-93.7751 240.117 -26.911)
(-155.636 188.548 -122.984)
(-58.0509 197.575 -218.168)
(-78.1808 121.868 -115.251)
(-17.002 85.1759 -153.092)
(-103.832 142.576 -32.284)
(-43.8892 137.155 -65.3746)
(-34.3967 89.976 -55.0186)
(-24.1108 78.0499 -124.448)
(-151.488 206.1 -83.0867)
(-47.7251 295.325 -36.4152)
(-65.7739 247.316 -152.508)
(-65.7499 131.816 -9.23444)
(-101.122 140.338 -19.1595)
(-34.2565 204.115 -21.3196)
(-44.3427 151.729 -44.8529)
(-42.5504 147.101 -215.265)
(-100.852 200.342 -186.113)
(-84.873 153.348 -189.392)
(-81.5949 138.443 -151.277)
(-59.455 182.255 -158.612)
(-98.6139 181.449 -133.661)
(-43.7109 129.553 -174.213)
(-103.55 237.052 -127.81)
(-62.9153 295.908 -96.3884)
(-90.4217 274.688 -82.1636)
(-62.7687 219.194 -103.763)
(-53.9577 250.264 -71.8344)
(-98.6088 207.184 -86.8064)
(-78.9339 231.421 -61.0688)
(-133.735 195.776 -151.155)
(-140.97 162.352 -133.219)
(-118.037 156.805 -159.051)
(-108.834 149.867 -124.397)
(-143.118 180.9 -84.5804)
(-126.073 178.673 -106.907)
(-126.464 165.477 -101.582)
(-25.3186 109.178 -191.489)
(-41.1516 92.0793 -141.627)
(-57.1925 117.31 -173.438)
(-52.7784 106.145 -140.842)
(-14.9306 67.834 -131.902)
(-25.4241 92.0548 -157.987)
(-34.2542 79.332 -119.761)
(-125.922 226.769 -57.3978)
(-132.568 220.634 -102.112)
(-111.271 249.459 -67.8972)
(-138.319 184.99 -55.5922)
(-123.128 192.195 -69.2614)
(-99.1216 209.891 -50.4055)
(-113.1 194.329 -42.3923)
(-63.676 277.314 -32.5286)
(-54.2175 304.316 -35.2229)
(-75.551 284.174 -30.5322)
(-41.5317 249.655 -27.5805)
(-46.8312 256.722 -29.9535)
(-66.6659 238.685 -25.0685)
(-56.631 233.685 -24.7239)
(-108.967 239.59 -22.0106)
(-79.8024 257.477 -28.3223)
(-94.4455 261.445 -24.6258)
(-84.8659 218.235 -19.9689)
(-86.7331 199.733 -20.516)
(-98.3041 201.092 -16.8774)
(-72.546 215.6 -21.7355)
(-107.274 144.436 -133.056)
(-63.2422 103.607 -127.438)
(-86.3602 127.738 -151.735)
(-76.284 123.793 -120.369)
(-62.2473 119.585 -93.1108)
(-92.3718 145.381 -103.268)
(-51.1871 96.5839 -105.033)
(-72.5762 124.42 -110.247)
(-53.3787 162.342 -106.475)
(-71.8801 135.938 -54.6257)
(-34.7001 105.189 -84.0823)
(-59.8951 109.825 -71.1164)
(-87.4095 160.377 -89.3992)
(-40.6978 117.184 -129.128)
(-55.0078 186.548 -69.5972)
(-69.7423 146.278 -35.4636)
(-34.6802 162.914 -35.9665)
(-43.9704 205.458 -52.3958)
(-85.5977 176.866 -57.356)
(-66.3293 191.302 -44.2631)
(-54.3485 153.484 -29.8471)
(-95.3891 135.176 -89.6247)
(-125.438 162.479 -55.4579)
(-91.6127 136.645 -42.7685)
(-87.8059 132.965 -46.2406)
(-77.9218 119.063 -57.569)
(-111.225 158.561 -71.1603)
(-109.147 149.875 -72.6035)
(-20.9446 69.2484 -90.8971)
(-11.1949 40.6625 -81.1869)
(-13.1313 50.6386 -108.761)
(-46.811 90.4411 -109.889)
(-21.0251 50.9503 -72.9359)
(-38.0928 78.8852 -79.8714)
(-28.1978 62.9427 -97.7688)
(-120.917 162.124 -35.0124)
(-88.1356 140.779 -26.5409)
(-107.183 166.26 -44.8259)
(-85.2942 175.027 -36.3247)
(-86.2833 136.876 -18.1692)
(-71.6579 143.054 -23.8413)
(-99.7356 163.762 -29.4452)
(-27.5405 160.238 -15.5202)
(-30.3652 164.691 -16.4243)
(-38.6367 209.708 -23.6258)
(-56.2471 195.87 -18.7645)
(-40.6519 151.306 -12.9081)
(-46.2824 155.516 -12.4566)
(-48.66 191.646 -18.5894)
(-72.7941 180.252 -14.478)
(-76.8128 164.499 -14.5217)
(-74.2877 136.508 -6.06841)
(-54.0533 141.078 -10.9155)
(-61.306 145.052 -9.05351)
(-86.4333 167.065 -11.3868)
(-63.7301 177.328 -16.1551)
(-65.3858 108.376 -92.9773)
(-49.028 105.792 -74.0993)
(-58.8153 113.901 -56.5057)
(-29.428 68.0129 -62.9051)
(-51.3545 94.3606 -67.1832)
(-77.1372 129.794 -78.8485)
(-40.9474 82.1444 -84.5787)
(-141.459 191.41 -20.2572)
(-173.035 217.111 -66.9148)
(-175.213 209.892 -53.4986)
(-105.565 226.303 -26.8685)
(-160.151 198.3 -71.2151)
(-101.043 115.306 -4.98344)
(-124.485 156.72 -10.6398)
(-75.6086 125.26 -8.91774)
(-110.619 144.047 -14.2555)
(-165.987 188.24 -101.703)
(-100.419 183.49 -84.5341)
(-87.1938 142.446 -106.581)
(-111.368 167.513 -18.6922)
(-109.663 151.256 -25.0169)
(-44.8779 132.113 -42.6761)
(-82.4806 149.925 -68.9593)
(-133.453 209.43 -52.0119)
(-163.14 198.759 -64.5004)
(-142.166 201.252 -50.528)
(-145.366 185.79 -46.0696)
(-122.215 185.929 -37.5993)
(-131.811 184.018 -35.7386)
(-149.99 191.589 -41.5511)
(-151.699 175.969 -111.985)
(-168.76 195.85 -86.8271)
(-154.23 192.361 -95.7363)
(-151.141 188.419 -68.3332)
(-134.454 182.237 -84.0539)
(-135.779 195.456 -71.845)
(-153.666 197.712 -59.1399)
(-119.903 221.37 -23.5213)
(-115.786 215.778 -28.1928)
(-129.463 208.815 -27.2458)
(-97.4093 189.599 -20.1369)
(-108.962 190.351 -16.611)
(-118.156 184.397 -18.2573)
(-105.114 183.428 -20.6561)
(-118.436 164.128 -117.694)
(-92.0911 161.027 -99.0271)
(-122.391 181.986 -103.781)
(-69.8049 142.546 -85.876)
(-100.912 166.249 -90.5728)
(-104.21 181.748 -80.8065)
(-75.2063 159.83 -79.8987)
(-153.578 192.463 -26.7176)
(-127.668 206.134 -25.6747)
(-140.774 200.59 -28.2376)
(-127.373 181.687 -18.033)
(-124.415 172.556 -15.8196)
(-136.857 178.079 -16.6797)
(-114.001 179.582 -18.7748)
(-170.41 207.173 -76.8732)
(-154.919 216.536 -77.6133)
(-153.863 206.918 -84.7096)
(-134.926 204.198 -64.7884)
(-154.883 210.321 -47.6308)
(-135.002 207.814 -59.3491)
(-154.366 205.701 -54.0306)
(-163.781 199.961 -43.5534)
(-168.758 204.093 -59.6243)
(-152.464 199.838 -48.2426)
(-140.641 186.457 -32.8708)
(-160.087 201.464 -35.3485)
(-150.165 187.597 -29.7223)
(-154.724 197.643 -38.5007)
(-87.0244 155.704 -14.2231)
(-85.3682 131.341 -5.07721)
(-97.6633 159.036 -10.8132)
(-106.587 155.295 -10.8617)
(-84.066 121.357 -8.43274)
(-94.3821 128.996 -4.32546)
(-94.6894 150.143 -14.0833)
(-128.868 164.217 -28.274)
(-98.441 135.264 -15.0131)
(-110.977 158.813 -25.6338)
(-120.541 159.694 -23.4885)
(-116.989 150.077 -12.0246)
(-107.58 137.214 -12.8348)
(-134.387 170.596 -25.0945)
(-126.917 204.537 -83.7415)
(-95.0706 175.214 -91.6973)
(-123.123 196.164 -93.0726)
(-104.679 191.345 -74.5089)
(-82.7759 174.247 -68.9987)
(-106.691 194.56 -67.5684)
(-78.3706 170.383 -74.6168)
(-132.052 170.218 -44.2224)
(-90.488 148.198 -39.007)
(-114.321 165.353 -60.0693)
(-114.168 178.009 -52.2606)
(-112.063 160.18 -21.6969)
(-90.2971 159.563 -35.4709)
(-134.308 179.331 -38.4718)
(-61.2594 132.932 -49.9694)
(-54.4873 128.225 -68.5646)
(-37.1569 111.189 -51.8724)
(-83.8391 164.409 -62.2519)
(-39.3974 125.391 -49.2072)
(-61.7365 145.819 -45.8938)
(-58.1872 143.962 -64.1807)
(-114.774 154.094 -9.96241)
(-111.472 142.901 -9.89129)
(-111.552 125.048 -3.22773)
(-92.3642 119.043 -6.59946)
(-102.629 127.592 -3.36841)
(-123.09 151.467 -8.74552)
(-103.091 147.508 -12.5026)
(-128.275 162.582 -20.9026)
(-142.468 179.451 -21.271)
(-123.619 139.112 -9.88168)
(-121.345 154.836 -11.0327)
(-115.599 138.98 -11.0799)
(-136.594 163.431 -18.5423)
(-138.641 176.494 -23.0746)
(-112.579 185.312 -47.9089)
(-133.284 189.571 -31.4142)
(-111.847 166.013 -20.1859)
(-88.3174 164.574 -30.2501)
(-89.2736 164.653 -33.6229)
(-111.461 186.7 -43.4348)
(-133.968 186.506 -35.3699)
(-83.6827 171.874 -57.8124)
(-63.5784 153.298 -55.2733)
(-63.1905 151.204 -38.7381)
(-41.5652 131.642 -46.5972)
(-62.085 151.242 -42.7642)
(-84.4614 173.048 -52.2986)
(-60.2639 151.889 -60.1349)
(-38.0682 112.225 -9.44107)
(-81.1702 162.255 -71.9568)
(-65.6961 116.867 -89.1216)
(-28.4433 55.8701 -3.51904)
(-43.9173 133.289 -49.7717)
(-22.0784 89.7013 -42.3117)
(4.55971 54.9446 27.6117)
(-2.17343 77.5343 22.1117)
(-70.8805 136.671 -84.8196)
(-52.3853 90.5383 -64.9506)
(-50.7559 118.361 -69.9865)
(-56.3623 112.889 -62.6165)
(-56.6299 136.693 -66.8639)
(-38.9359 101.442 -46.1037)
(-44.1647 119.437 -45.358)
(-75.0326 152.726 -78.9248)
(-65.4358 142.937 -54.9181)
(-59.6941 131.523 -59.443)
(-65.4867 154.786 -57.3071)
(-60.8449 148.947 -62.7007)
(-48.1963 131.38 -43.734)
(-52.4796 137.012 -40.746)
(-41.0458 68.4715 -36.5772)
(-30.1976 79.0088 -6.39556)
(-43.7157 92.4833 -36.5249)
(-18.3863 80.5839 8.54728)
(-29.0507 89.3813 -19.8064)
(-33.2021 106.463 -20.8672)
(-21.8408 96.3334 5.63033)
(-36.5564 106.872 -55.5872)
(-25.1189 105.123 -40.401)
(-40.9322 123.853 -53.261)
(-12.1219 73.9245 -22.2867)
(-25.1537 90.6172 -33.3061)
(-29.3082 107.836 -33.0764)
(-15.1682 89.558 -22.2115)
(-51.548 125.916 -33.6885)
(-33.1702 99.1262 -8.86657)
(-46.3795 113.031 -35.9951)
(-36.4315 117.728 -21.2373)
(-28.7824 110.952 2.21619)
(-40.6738 122.698 -20.4693)
(-24.7827 106.719 3.38147)
(-48.0705 135.879 -44.9197)
(-27.5013 113.146 -37.6214)
(-31.4492 115.166 -33.5187)
(-32.4464 117.823 -31.3933)
(-21.0758 100.645 -18.6299)
(-17.3747 98.1285 -20.8914)
(-36.2146 120.921 -28.8305)
(-3.38776 62.5643 1.56384)
(-6.65865 70.4003 18.627)
(-15.8035 78.4799 -8.22493)
(-19.2043 94.8927 -9.61145)
(2.77725 67.9662 24.8514)
(-5.97249 77.2753 0.0259319)
(-9.25161 84.9886 15.8951)
(-21.908 104.88 -9.6626)
(-14.5391 97.206 13.1477)
(-11.5037 88.2119 0.425926)
(1.02105 75.4759 23.3156)
(-8.04324 85.6509 -0.091052)
(-25.2937 108.156 -9.04438)
(-11.3608 94.2466 14.2644)
(25.6389 -69.5656 171.013)
(23.9888 -70.1273 149.026)
(23.3484 -63.5727 143.9)
(28.7711 -64.0965 145.744)
(32.5592 -77.5907 179.546)
(29.5917 -70.7856 150.726)
(31.6404 -70.2017 173.317)
(7.28787 -77.3707 116.011)
(7.61111 -85.2133 122.049)
(2.69513 -84.2982 120.859)
(8.02307 -84.3232 138.313)
(2.96211 -91.7822 142.698)
(8.36585 -92.6513 143.96)
(2.85976 -83.4714 137.047)
(17.7545 -85.8662 123.456)
(12.2241 -77.6196 116.508)
(12.7324 -85.4809 122.572)
(13.4102 -84.6582 138.906)
(19.4303 -93.5407 145.589)
(13.9544 -93.0239 144.607)
(18.68 -85.0696 139.858)
(34.3832 -64.845 148.014)
(44.2956 -72.0959 179.743)
(41.3678 -72.6916 155.57)
(38.9849 -78.6611 182.626)
(35.3733 -71.6521 152.916)
(40.238 -65.788 150.667)
(37.8336 -71.0356 176.224)
(28.2852 -87.1475 126.072)
(22.0819 -78.3603 118.483)
(22.9858 -86.3488 124.518)
(25.1302 -94.1858 146.757)
(24.1639 -85.5936 140.922)
(29.7599 -86.3973 142.439)
(30.9942 -95.1767 148.416)
(23.7944 -94.1833 222.589)
(3.09841 -86.3381 230.563)
(3.72619 -92.0874 217.041)
(3.82044 -124.465 242.415)
(1.70853 -72.2821 150.339)
(14.0849 -65.3595 133.871)
(26.5855 -125.9 243.874)
(9.14423 -83.0987 179.262)
(2.98109 -75.2311 149.661)
(8.22009 -75.9811 151.028)
(8.50627 -83.5412 156.711)
(3.44603 -91.0678 185.552)
(3.07759 -82.7374 155.339)
(9.47064 -91.8375 187.102)
(19.1115 -76.7814 153.035)
(15.1423 -83.5888 180.481)
(13.7301 -76.3771 151.851)
(14.1788 -83.9593 157.53)
(21.9055 -93.0401 190.192)
(19.7376 -84.4325 158.735)
(15.6895 -92.3774 188.381)
(37.9543 -81.3657 124.744)
(39.5958 -89.7823 130.559)
(33.7664 -88.2818 128.125)
(35.5627 -87.5265 144.486)
(43.6882 -98.3676 153.494)
(37.1355 -96.5524 150.667)
(41.7213 -88.991 147.029)
(49.3067 -97.5503 226.789)
(27.3565 -82.6212 219.438)
(30.8509 -95.2329 225.416)
(16.6781 -60.3287 122.321)
(34.3146 -126.385 243.74)
(53.0464 -118.235 228.673)
(16.5639 -36.4605 71.3883)
(24.7302 -77.2844 154.337)
(33.7034 -85.8444 186.814)
(30.5067 -78.0059 156.043)
(28.369 -93.9451 192.457)
(25.5326 -85.0212 160.097)
(31.512 -85.8394 161.936)
(35.1465 -95.2161 195.386)
(3.42667 -60.5321 186.547)
(3.48545 -67.2782 193.103)
(9.49236 -67.7356 194.596)
(3.86464 -67.3357 232.235)
(10.5197 -67.7114 233.698)
(10.7266 -75.685 240.818)
(3.90761 -75.2494 239.412)
(42.6368 -80.1264 161.132)
(40.4432 -87.1915 190.214)
(36.4398 -78.9579 158.301)
(37.7029 -86.9841 164.412)
(49.7008 -98.9092 203.415)
(44.2495 -88.52 167.542)
(42.2332 -96.8607 198.99)
(15.2573 -61.2655 189.609)
(21.5984 -68.5256 198.371)
(15.5418 -68.1443 196.229)
(23.8835 -68.553 237.817)
(17.1548 -68.1166 235.489)
(17.5328 -76.125 242.403)
(24.4474 -76.5954 244.388)
(8.84339 -91.8642 162.966)
(3.54827 -100.973 194.74)
(10.3049 -113.082 206.632)
(3.28772 -100.528 168.869)
(9.21765 -101.4 170.297)
(3.18167 -91.0308 161.572)
(9.8536 -101.801 196.325)
(14.7136 -92.3152 163.836)
(22.8914 -103.208 199.459)
(17.1343 -113.785 208.112)
(21.4322 -102.639 172.752)
(15.34 -101.911 171.304)
(20.498 -92.89 165.124)
(16.3431 -102.408 197.648)
(27.2099 -61.9512 194.416)
(27.8128 -69.0433 201.037)
(34.3178 -69.7944 204.288)
(30.7825 -69.1194 240.65)
(37.9256 -69.853 243.88)
(31.5206 -77.198 246.706)
(38.8014 -77.9461 249.225)
(40.0834 -63.2909 201.605)
(48.248 -72.0613 212.454)
(41.1107 -70.7871 208.039)
(52.7859 -71.6949 250.692)
(45.2724 -70.732 247.311)
(46.2496 -78.8349 251.907)
(53.7933 -79.7584 254.237)
(29.7086 -104.303 201.819)
(27.7703 -103.606 174.608)
(26.5227 -93.6488 166.661)
(32.7796 -94.7301 168.777)
(38.9001 -117.951 216.559)
(34.4004 -104.985 177.145)
(36.8541 -105.81 204.952)
(22.1654 -76.1755 205.626)
(16.3928 -84.043 211.259)
(15.9112 -75.6771 203.519)
(17.9311 -84.5462 248.541)
(25.5973 -93.5751 254.402)