/*--------------------------------*- C++ -*----------------------------------*\
  =========                 |
  \\      /  F ield         | OpenFOAM: The Open Source CFD Toolbox
   \\    /   O peration     | Website:  https://openfoam.org
    \\  /    A nd           | Version:  9
     \\/     M anipulation  |
\*---------------------------------------------------------------------------*/
FoamFile
{
    format      ascii;
    class       volScalarField;
    location    "0.0034";
    object      impulseMax;
}
// * * * * * * * * * * * * * * * * * * * * * * * * * * * * * * * * * * * * * //

dimensions      [1 -1 -1 0 0 0 0];

internalField   nonuniform List<scalar> 
31335
(
422.496
394.328
349.447
387.113
476.262
438.178
404.191
375.898
445.825
419.945
369.135
431.373
409.866
362.519
345.732
385.02
375.188
471.349
463.694
459.865
458.493
454.768
443.359
446.053
458.904
437.882
449.176
432.726
444.141
434.259
424.427
451.05
436.204
448.175
431.812
421.144
419.976
433.691
331.539
366.364
360.725
306.187
303.982
311.58
309.895
440.61
420.682
437.943
426.574
410.558
409.398
428.356
428.303
429.265
438.974
423.915
405.771
413.097
415.431
416.897
424.978
419.913
412.187
407.545
413.094
402.127
412.954
418.935
428.934
418.803
395.195
402.713
410.18
417.853
399.961
406.633
396.97
405.447
395.721
388.363
415.079
398.799
404.095
386.705
398.07
403.429
416.247
401.413
382.778
397.838
379.075
393.569
389.467
375.824
407.665
384.865
396.914
386.519
400.264
390.69
378.074
408.289
381.524
385.765
391.058
392.232
397.46
400.892
347.322
365.719
362.844
347.348
345.198
360.854
344.348
388.331
379.482
393.575
384.476
366.613
378.455
371.699
378.112
383.36
392.154
383.637
362.403
370.601
375.793
374.51
371.491
384.682
379.872
357.817
368.866
367.47
328.836
311.45
329.037
310.038
327.393
326.91
309.525
363.888
344.813
346.631
353.457
357.695
342.417
339.156
357.124
335.409
341.431
345.439
353.951
339.325
332.057
374.082
354.902
352.244
356.789
362.315
367.264
362.604
0.00710023
1.3362e-05
3.98651e-06
7.04435e-07
8.22425e-08
7.65907e-09
5.6208e-10
36.0385
0.00173675
0.000106959
1.05609e-05
1.65781e-06
1.54399e-07
1.1093e-08
107.378
18.8639
0.222138
0.000597997
2.34392e-05
2.61231e-06
1.87644e-07
196.737
151.84
80.283
7.05887
0.00483941
4.02349e-05
2.74988e-06
278.146
243.284
195.81
124.156
23.7697
0.0121377
3.96293e-05
349.69
310.994
269.173
216.01
138.711
25.2814
0.00605104
375.419
328.444
278.316
217.537
128.196
9.45729
385.989
329.74
271.929
200.612
88.7213
2.561e-05
6.13555e-06
1.44177e-06
2.75155e-07
3.29147e-08
3.11624e-09
2.32226e-10
0.018712
0.000457825
3.6971e-05
4.65808e-06
6.79651e-07
6.28199e-08
4.50597e-09
48.4163
7.02302
0.0449171
0.000200009
9.12821e-06
1.07673e-06
7.62787e-08
179.833
131.657
58.1663
1.72544
0.00100401
1.42782e-05
1.10324e-06
264.746
229.789
179.725
102.532
9.74855
0.00232566
1.27166e-05
333.279
299.16
257.315
201.301
118.582
10.7675
0.00120585
359.634
316.952
266.922
202.965
107.038
2.57873
373.419
318.45
260.329
185.008
66.6785
5.6917e-06
1.77235e-06
4.15407e-07
6.35443e-08
7.44428e-09
6.94546e-10
5.1416e-11
0.000450925
5.35542e-05
6.60708e-06
1.25714e-06
1.48785e-07
1.37951e-08
9.88895e-10
2.29951
0.148674
0.000835181
2.73685e-05
2.70336e-06
2.48144e-07
1.66453e-08
133.678
75.9012
12.4486
0.0272357
8.06838e-05
3.91078e-06
2.61603e-07
233.697
194.146
135.322
46.9902
0.199659
0.000121937
3.31821e-06
303.449
276.44
226.033
161.282
63.2476
0.233221
7.92638e-05
325.989
290.498
236.919
163.169
51.5235
0.0423721
309.142
322.743
229.421
141.838
18.0534
1.01711e-06
3.32716e-07
6.56391e-08
1.02647e-08
1.18562e-09
1.06656e-10
7.66983e-12
2.23206e-05
5.40894e-06
1.30147e-06
2.19082e-07
2.49194e-08
2.16316e-09
1.50779e-10
0.0167573
0.00038802
2.90287e-05
3.90043e-06
4.88244e-07
3.95904e-08
2.58374e-09
20.2271
5.32695
0.0299325
0.000148463
6.91841e-06
7.00785e-07
4.09679e-08
170.282
120.321
46.9862
0.676518
0.000406791
8.44252e-06
5.8358e-07
280.303
259.855
161.691
79.0292
2.23699
0.000450201
5.59434e-06
289.08
272.588
269.277
174.755
81.6481
0.963876
0.000138366
279.887
237.08
265.328
165.614
54.4957
0.0590767
285.084
246.541
5.98761
0.000741567
1.24143e-07
3.54132e-08
7.17324e-09
1.10324e-09
1.26598e-10
1.14833e-11
7.91867e-13
2.28229e-06
7.05815e-07
1.38784e-07
2.21615e-08
2.52251e-09
2.23718e-10
1.59873e-11
5.17939e-05
9.65064e-06
2.33667e-06
4.1238e-07
4.51398e-08
3.82641e-09
2.63972e-10
0.059122
0.00120813
5.65395e-05
5.82956e-06
7.85747e-07
6.10122e-08
3.92034e-09
17.712
7.95391
0.0655876
0.000231893
9.34697e-06
8.80276e-07
5.14375e-08
151.367
106.36
40.668
0.63039
0.000471448
8.30575e-06
5.47631e-07
208.317
214.114
136.236
57.2162
0.760886
0.000249937
3.67249e-06
228.455
210.651
216.657
138.312
45.639
0.114806
5.35714e-05
206.399
2.54868
0.000955511
2.74074e-05
1.45912e-08
3.66913e-09
7.15941e-10
1.04397e-10
1.16664e-11
1.01087e-12
4.54747e-14
2.66537e-07
7.07343e-08
1.36729e-08
2.01141e-09
2.24453e-10
2.00602e-11
1.42136e-12
4.16248e-06
1.16881e-06
2.23998e-07
3.38484e-08
3.75193e-09
3.29235e-10
2.34279e-11
7.86228e-05
1.36633e-05
3.20432e-06
5.33539e-07
5.74672e-08
4.87199e-09
3.36712e-10
0.000434074
0.000805603
5.73596e-05
6.17266e-06
7.86794e-07
6.34227e-08
4.19318e-09
10.0496
2.06267
0.0147511
0.000134436
7.13233e-06
6.73871e-07
4.27989e-08
118.229
72.1408
13.8047
0.0533373
0.000131272
4.68806e-06
3.3036e-07
187.186
173.521
132.97
15.957
0.0227648
5.2244e-05
1.88553e-06
143.858
116.575
0.00114323
4.42876e-05
7.4035e-06
1.40194e-09
3.3233e-10
6.16804e-11
8.56126e-12
8.81604e-13
5.11742e-14
0
2.58826e-08
6.22608e-09
1.15881e-09
1.62111e-10
1.76594e-11
1.52565e-12
8.02781e-14
4.09378e-07
1.03288e-07
1.89791e-08
2.64997e-09
2.87312e-10
2.53283e-11
1.79498e-12
5.79121e-06
1.59845e-06
2.82e-07
3.93483e-08
4.20963e-09
3.65304e-10
2.59062e-11
2.69474e-05
1.83993e-05
3.70177e-06
5.16759e-07
5.43221e-08
4.59711e-09
3.18903e-10
0.000421005
0.000638194
4.70943e-05
5.4551e-06
5.85415e-07
4.82795e-08
3.27059e-09
5.57929
0.847354
0.00378916
7.15015e-05
4.79271e-06
3.97039e-07
2.66143e-08
98.0127
48.2846
3.10984
0.00480877
4.19428e-05
2.49205e-06
1.66581e-07
92.6999
19.9078
4.06839e-05
1.07835e-05
7.76836e-07
1.0898e-10
2.52579e-11
4.48672e-12
5.85715e-13
4.0139e-14
0
0
1.97662e-09
4.6041e-10
8.32823e-11
1.1327e-11
1.17968e-12
7.9793e-14
0
3.0874e-08
7.28871e-09
1.32612e-09
1.81349e-10
1.95017e-11
1.68681e-12
8.98581e-14
4.28656e-07
1.05307e-07
1.91382e-08
2.60812e-09
2.78663e-10
2.4477e-11
1.73325e-12
5.04039e-06
1.40079e-06
2.45184e-07
3.30305e-08
3.48697e-09
3.02934e-10
2.16217e-11
1.8799e-05
1.27051e-05
2.65827e-06
3.53814e-07
3.68116e-08
3.1483e-09
2.21845e-10
0.000208517
0.000265807
2.13874e-05
3.04669e-06
3.11714e-07
2.6232e-08
1.82732e-09
0.251737
0.055542
0.000478635
1.91065e-05
1.97375e-06
1.64853e-07
1.15003e-08
1.71821
2.07047e-05
7.98589e-06
7.39728e-07
5.26283e-08
7.21181e-12
1.60362e-12
2.5284e-13
1.35818e-14
0
0
0
1.27869e-10
2.94996e-11
5.2051e-12
6.45863e-13
4.54747e-14
0
0
1.94611e-09
4.52664e-10
8.14763e-11
1.09861e-11
1.15142e-12
7.11831e-14
0
2.6332e-08
6.20947e-09
1.13659e-09
1.5482e-10
1.65638e-11
1.42112e-12
7.2517e-14
3.01918e-07
7.45445e-08
1.39159e-08
1.90162e-09
2.03542e-10
1.79909e-11
1.26674e-12
2.66932e-06
7.39184e-07
1.42987e-07
1.97369e-08
2.10324e-09
1.85496e-10
1.34376e-11
1.30866e-05
4.77362e-06
1.1146e-06
1.62393e-07
1.74222e-08
1.53439e-09
1.1147e-10
3.67419e-05
4.27939e-05
5.22945e-06
9.41242e-07
1.05193e-07
9.5255e-09
7.04594e-10
9.06276e-05
3.2173e-06
4.34902e-07
4.26943e-08
3.26236e-09
3.58826e-13
5.62674e-14
1.21266e-16
0
0
0
0
6.99292e-12
1.56154e-12
2.34771e-13
1.26117e-14
0
0
0
1.04176e-10
2.42366e-11
4.27196e-12
5.24475e-13
3.15291e-14
0
0
1.3664e-09
3.22006e-10
5.85992e-11
7.94959e-12
8.09693e-13
4.5596e-14
0
1.52982e-08
3.68622e-09
6.9116e-10
9.56091e-11
1.03428e-11
8.83665e-13
4.0139e-14
1.36497e-07
3.44522e-08
6.80399e-09
9.61151e-10
1.05306e-10
9.51319e-12
6.69509e-13
9.80909e-07
2.39381e-07
5.15414e-08
7.65042e-09
8.55138e-10
7.84177e-11
5.85242e-12
4.00353e-06
1.26254e-06
2.59349e-07
4.30573e-08
5.12131e-09
4.87869e-10
3.75147e-11
9.82433e-07
1.67921e-07
2.20145e-08
2.21271e-09
1.76891e-10
340.353
425.139
385.154
365.64
332.914
409.818
375.373
343.778
427.212
381.415
376.298
336.454
413.866
372.004
320.721
404.212
370.267
339.353
313.004
388.696
360.431
428.508
414.496
412.864
413.695
412.118
398.885
399.328
328.262
400.963
369.346
338.28
310.213
369.847
347.172
396.457
370.348
331.895
366.184
348.105
313.964
355.34
423.886
411.933
411.208
408.503
407.844
395.464
395.807
420.759
401.924
400.391
408.018
406.422
393.873
388.502
417.033
398.986
405.253
395.49
401.839
390.184
384.625
308.26
380.089
356.745
312.747
289.875
346.814
333.392
297.78
247.505
252.084
293.473
287.898
246.61
224.352
239.75
238.095
257.832
188.015
168.52
210.962
201.636
402.999
392.743
391.959
385.929
385.047
374.411
375.033
286.768
294.794
292.484
230.55
215.488
250.129
243.524
291.39
371.627
330.917
321.382
284.629
362.891
323.969
400.3
385.66
399.811
385.341
371.9
371.611
385.665
398.599
384.883
398.195
382.835
370.188
370.006
383.037
396.358
379.628
386.209
372.639
379.336
369.426
363.614
405.217
394.328
392.82
386.636
385.203
381.82
375.035
286.925
365.807
319.821
322.807
280.158
361.698
313.025
397.122
381.232
396.753
383.916
369.051
368.856
384.191
392.228
391.186
387.741
383.457
380.096
377.786
370.946
280.321
359.133
325.486
303.684
273.25
354.851
318.419
391.903
375.223
391.586
379.56
363.765
363.63
379.722
381.163
389.377
394.771
380.895
363.237
367.612
376.06
376.747
386.379
391.714
379.462
360.533
364.857
374.639
370.617
380.716
386.319
374.898
355.056
359.525
369.943
380.279
387.457
392.964
378.183
361.41
365.874
373.235
381.455
369.939
380.947
363.81
353.619
353.241
364.283
252.844
331.782
304.312
269.866
244.804
322.358
296.83
367.73
348.934
366.984
356.851
340.025
339.359
357.46
344.022
337.115
305.049
330.335
310.212
265.585
315.684
365.449
370.191
375.896
359.414
344.769
349.297
354.32
371.719
372.016
365.055
364.554
357.615
356.881
350.205
280.314
357.534
319.61
299.142
261.185
337.357
301.939
385.924
366.162
364.979
377.492
376.179
367.082
357.051
275.809
346.724
308.757
300.762
256.351
332.587
291.01
301.437
334.583
336.244
296.282
262.343
307.824
316.248
382.01
363.425
374.498
360.538
371.344
363.157
353.419
382.656
364.168
375.822
357.914
370.153
364.009
352.273
379.759
360.145
373.029
355.24
368.749
362.647
349.663
282.582
299.556
285.412
297.446
282.209
296.058
279.776
253.815
252.07
241.87
237.713
248.143
235.87
231.642
268.76
339.358
314.01
280.785
248.73
325.364
296.141
373.928
353.523
367.146
349.645
363.911
357.732
343.998
367.385
352.104
355.251
340.142
351.949
355.064
367.527
370.798
357.827
356.497
343.512
357.556
356.253
371.063
344.638
356.141
362.057
352.516
330.804
335.512
347.318
380.588
363.135
373.72
355.981
367.164
360.974
350.288
371.365
357.233
358.069
357.006
357.781
343.939
344.208
365.692
353.988
353.805
350.346
350.229
338.829
339.007
281.068
327.231
311.642
264.719
242.338
297.181
289.171
363.236
336.695
344.149
347.243
348.215
351.322
358.774
366.819
340.13
349.931
348.65
353.914
352.627
362.439
367.3
349.242
350.128
353.291
354.131
340.517
336.796
358.901
347.99
347.791
343.01
342.696
332.062
332.336
348.335
363.456
354.433
339.347
348.313
342.238
333.731
292.457
293.352
295.684
280.752
278.959
277.221
275.628
357.442
346.239
350.174
342.744
346.624
335.465
331.835
311.014
308.333
306.208
323.228
327.441
328.707
325.572
356.485
352.185
362.793
340.422
349.738
343.002
334.396
350.369
340.015
344.102
334.964
339.074
328.669
324.863
307.501
303.322
301.006
319.834
317.266
324.521
323.071
346.737
330.38
337.125
320.17
329.776
336.661
347.272
357.057
357.724
367.843
356.907
337.756
345.795
347.977
344.532
365.185
353.198
355.611
335.342
343.271
346.758
337.986
352.145
359.434
353.197
338.942
345.144
331.762
239.673
316.759
292.196
243.719
216.574
297.169
273.434
349.403
327.142
342.707
325.28
341.282
335.18
319.597
245.167
249.599
233.275
239.614
244.005
227.108
222.127
191.451
189.281
223.157
228.696
201.267
160.36
128.689
339.18
342.255
353.339
347.647
323.2
333.876
336.96
350.019
346.675
359.491
350.788
329.862
337.61
342.22
356.049
355.873
365.825
353.943
335.865
343.82
345.192
345.058
343.784
357.141
351.534
326.915
339.824
338.561
256.375
267.606
271.166
251.62
267.207
263.808
247.321
351.856
344.295
345.24
339.004
339.961
332.2
327.171
341.565
348.179
356.324
350.779
336.857
341.847
328.823
322.326
334.793
344.782
327.684
340.591
349.844
336.008
277.107
296.143
294.193
291.821
294.32
277.226
274.13
288.067
281.888
277.243
248.628
216.377
182.828
213.289
342.865
316.902
322.032
328.959
326.278
333.121
338.258
352.24
341.417
337.983
336.223
332.863
327.332
322.389
230.956
313.991
277.544
261.945
222.546
307.145
270.569
342.842
328.198
342.609
330.055
316.367
316.091
330.316
234.537
317.303
275.037
271.379
226.296
310.577
268.05
341.963
329.482
341.733
327.222
315.654
315.385
327.452
279.114
245.385
282.562
208.378
179.041
235.141
215.742
190.61
233.03
224.698
139.382
111.691
177.939
156.956
172.304
150.615
197.429
121.257
89.484
155.983
132.366
295.641
276.287
279.27
291.234
294.084
276.949
273.555
246.069
235.889
242.182
222.229
229.35
225.026
217.728
225.849
206.61
221.631
204.397
219.6
215.18
199.643
344.49
330.631
344.2
330.816
317.945
317.642
331.1
340.56
349.41
341.579
335.57
319.892
327.463
327.545
265.816
246.966
263.34
244.32
261.173
258.722
241.051
336.796
325.263
336.596
321.32
310.611
310.353
321.577
330.975
322.705
321.96
313.978
313.11
304.593
305.393
344.959
335.054
329.979
329.784
324.693
320.215
315.124
220.814
304.555
256.434
264.886
212.088
297.879
248.925
326.907
322.282
305.109
305.845
323.107
316.989
300.601
248.736
272.229
270.337
195.055
235.852
210.463
167.11
293.863
291.069
288.825
275.223
277.209
273.727
271.108
324.942
335.405
339.17
326.804
309.529
312.945
323.272
327.417
337.152
340.818
327.589
311.205
314.539
324.128
335.051
319.624
334.895
323.925
309.214
308.99
324.119
326.276
334.686
338.359
324.023
308.936
312.284
320.562
316.456
327.948
331.558
320.726
302.548
305.875
317.28
327.146
314.128
318.458
305.178
309.58
301.296
297.223
209.345
294.899
264.375
235.064
200.044
287.657
256.962
326.988
310.506
326.579
316.408
301.1
300.666
316.757
272.408
248.127
224.796
180.808
152.957
221.645
203.727
290.536
286.374
283.973
268.891
273.549
271.666
266.168
316.957
323.944
332.794
327.156
303.046
311.562
318.615
322.009
329.372
333.166
318.063
303.755
307.196
314.472
322.944
335.509
340.193
329.468
317.23
324.103
312.217
251.843
327.235
293.277
251.57
210.888
301.404
254.167
297.298
292.098
246.855
282.226
252.95
205.199
243.073
341.223
317.335
320.5
323.518
327.815
330.879
333.372
345.081
321.088
326.334
325.127
333.758
332.538
337.083
307.36
319.411
323.26
313.205
294.011
297.548
309.568
345.761
324.367
332.325
327.616
336.991
324.246
315.492
343.598
333.786
321.272
325.356
335.869
323.213
313.365
345.359
325.518
326.465
332.915
333.889
321.331
314.197
344.095
323.609
330.856
325.86
334.421
321.935
313.885
303.011
319.561
325.151
304.606
321.497
314.447
298.55
493.644
441.629
442.181
413.388
368.366
363.07
298.305
455.111
540.076
504.865
458.368
433.382
492.85
470.902
534.724
530.347
523.813
526.057
519.219
508.156
514.966
421.849
471.382
454.101
389.43
382.478
396.6
396.207
512.843
486.661
504.562
481.697
499.914
491.424
475.195
366.302
370.845
372.855
312.933
312.083
320.905
315.651
400.075
490.358
444.067
423.495
389.014
461.284
426.657
518.378
499.019
511.855
496.317
488.737
483.732
502.338
510.337
487.598
503.488
492.348
481.335
476.308
498.483
473.213
470.274
486.767
477.947
450.885
463.861
463.432
484.815
479.352
495.197
481.961
459.03
471.534
467.77
449.472
466.248
461.793
446.398
442.393
456.921
438.635
423.632
397.041
422.791
394.951
419.76
418.142
394.889
480.604
468.467
472.145
452.147
464.431
468.117
485.713
485.506
474.395
475.293
470.43
471.298
456.535
459.538
349.872
371.737
370.355
349.77
348.707
371.148
349.336
382.24
446.274
406.608
377.955
357.314
391.172
380.644
460.654
437.012
442.268
444.089
451.086
434.087
428.658
452.278
425.7
434.279
436.299
446.974
430.182
421.419
468.194
442.973
442.547
446.49
453.7
457.489
455.441
473.504
449.227
450.531
460.046
461.138
447.786
438.481
294.904
308.975
301.635
261.213
245.358
272.282
260.468
334.134
318.771
332.565
317.472
331.34
330.814
315.98
458.052
439.562
455.054
441.717
428.005
426.661
443.844
408.553
392.574
414.719
412.292
388.16
405.428
392.123
417.956
396.861
420.946
415.518
393.009
411.776
394.434
459.702
442.008
456.714
442.458
429.615
428.247
444.585
429.515
433.263
440.617
425.44
410.372
416.379
419.812
430.735
435.968
437.289
422.324
423.562
426.873
415.051
345.39
351.584
348.194
310.987
300.921
314.187
313.314
372.506
351.016
350.289
371.694
371.675
350.194
350.939
431.709
436.608
446.07
434.038
412.785
419.915
425.924
434.57
438.904
448.044
434.972
414.779
421.76
426.951
369.632
348.123
348.325
368.506
370.147
349.192
348.821
306.224
297.402
304.881
294.11
292.659
302.743
289.846
408.953
396.98
385.884
388.419
401.593
404.703
390.852
329.476
314.836
329.944
330.308
312.656
329.976
313.931
331.751
317.022
331.714
331.061
314.261
331.627
314.849
428.084
414.101
414.946
399.6
413.306
414.102
429.467
394.408
408.092
413.626
390.256
406.957
401.192
386.196
424.987
403.344
413.266
403.922
415.827
405.66
395.1
415.567
427.383
416.704
406.09
416.937
406.791
397.3
421.5
394.466
401.228
402.202
407.442
408.344
414.453
368.016
369.84
370.268
349.99
348.377
349.019
350.299
351.568
371.75
372.652
371.116
351.172
369.181
350.403
288.202
303.887
291.063
298.934
300.737
287.276
284.73
285.334
268.414
281.647
266.714
280.06
276.804
263.096
301.37
284.411
288.323
296.976
299.634
285.996
282.391
386.626
394.401
401.681
394.532
374.08
386.658
380.763
332.188
314.799
332.145
313.886
331.865
331.446
313.235
330.867
330.026
312.511
313.312
330.275
331.202
313.507
393.478
394.552
405.657
396.816
375.381
385.721
386.817
391.402
384.761
399.605
393.503
372.246
384.632
379.845
350.55
365.319
369.458
360.04
365.451
348.349
344.547
368.117
346.612
349.653
358.432
364.682
347.801
343.307
295.918
296.81
298.051
283.703
278.401
280.363
281.447
275.117
255.736
270.364
272.218
252.502
267.768
257.818
264.453
278.075
274.634
273.649
255.63
270.483
259.415
386.205
367.398
365.365
366.308
376.625
377.654
373.665
311.792
329.893
331.551
330.046
309.544
327.369
311.938
328.799
312.819
330.942
329.664
308.894
326.472
311.67
352.505
353.314
359.677
344.3
332.02
338.373
339.069
269.33
262.167
249.059
250.631
265.062
266.36
254.347
327.223
317.263
305.589
306.004
322.723
323.254
309.451
300.755
316.91
297.716
293.195
308.496
313.467
320.634
221.018
306.337
263.529
246.757
196.034
288.514
243
304.52
271.9
239.014
287.489
232.746
196.632
248.623
315.966
327.991
338.752
320.182
331.658
319.368
308.567
320.522
327.217
335.576
328.568
305.862
313.325
320.69
332.581
314.737
327.592
306.953
319.761
314.871
302.086
340.395
322.883
330.24
319.616
326.912
316.594
309.481
217.152
302.833
266.088
236.226
191.786
284.813
245.799
330.753
312.003
325.715
305.223
318.867
313.951
300.286
330.132
313.586
325.154
304.697
316.244
311.366
299.798
242.597
263.943
260.133
260.239
237.502
256.23
242.694
313.559
303.69
312.878
295.926
287.718
287.02
296.664
240.485
234.866
217.26
235.433
229.615
216.563
210.331
263.215
241.236
259.072
259.9
236.564
255.521
242.26
233.657
231.73
227.067
220.318
207.198
212.762
215.094
195.89
211.789
217.009
210.219
187.898
204.588
194.166
324.746
309.03
319.675
299.417
310.035
305.058
294.421
333.022
316.458
323.765
311.415
318.695
309.291
302.136
310.969
308.963
299.901
303.468
294.259
292.253
286.758
317.018
304.656
304.322
303.567
303.237
290.701
291.112
206.472
293.643
244.087
239.526
179.901
275.427
221.683
300.561
305.632
309.604
292.769
280.252
283.938
288.94
323.508
303.9
318.6
298.329
312.995
308.141
293.421
323.418
317.769
329.947
310.655
317.857
306.331
299.464
313.729
302.264
301.93
299.415
299.092
287.439
287.869
194.079
283.125
252.215
205.686
166.019
264.029
230.64
314.728
294.013
309.59
289.571
305.095
300.044
284.421
290.277
287.038
285.595
268.942
267.496
281.194
262.774
239.623
257.788
260.683
256.003
233.051
252.715
237.341
317.353
304.039
304.807
290.981
303.707
304.455
317.648
312.692
301.44
298.282
286.51
301.124
297.976
312.939
291.427
273.771
287.405
269.966
269.309
282.954
264.508
313.909
297.992
301.275
296.896
300.195
287.681
284.377
320.912
297.095
298.241
305.369
305.52
312.62
313.422
291.732
283.291
288.228
274.057
264.853
269.798
270.127
204.629
196.815
212.602
207.841
182.252
199.481
191.558
314.231
287.951
297.305
298.129
300.637
301.412
310.859
306.014
290.915
295.652
279.838
290.491
295.294
306.342
293.773
312.963
309.119
288.768
303.734
298.862
284.097
310.57
295.481
298.846
292.621
295.994
284.375
280.986
229.084
225.743
214.343
209.589
221.587
205.525
200.426
192.695
190.279
184.44
185.015
179.107
176.483
170.595
304.292
294.161
293.844
289.12
288.728
278.313
278.764
165.045
259.661
233.808
186.438
153.576
251.237
225.183
296.156
277.216
295.257
287.121
270.143
269.24
287.963
283.499
280.633
276.214
269.017
257.807
262.495
265.394
250.486
237.913
256.227
253.614
226.438
247.204
234.363
309.585
283.478
294.769
291.613
298.074
294.913
306.235
316.904
315.766
326.979
314.885
293.921
305.336
304.246
294.552
301.094
317.51
310.073
286.425
301.71
294.397
299.441
307.289
291.788
309.102
284.454
299.657
293.481
311.337
314.241
323.506
311.681
290.463
300.072
302.845
300.082
309.525
293.941
307.995
285.061
300.228
292.562
315.151
316.132
317.038
305.476
305.31
304.63
294.19
205.497
288.15
264.39
190.58
158.012
249.523
224.698
317.244
292.351
305.611
296.83
311.229
299.913
285.969
267.352
281.96
278.757
263.842
260.571
274.503
256.007
302.859
276.722
283.896
288.751
287.374
292.174
299.366
273.932
287.749
291.905
283.908
262.084
266.041
279.969
306.214
312.726
319.85
308.182
287.305
294.454
301.136
308.986
314.604
321.75
309.107
289.164
296.289
302.053
311.878
287.351
302.402
305.62
280.244
295.17
290.382
301.205
287.467
290.772
282.329
285.685
275.244
271.844
310.893
313.616
310.467
302.187
300.691
299.151
289.656
307.833
312.233
319.36
305.615
286.82
293.967
298.541
303.228
306.702
313.829
299.227
281.289
288.512
292.097
300.79
286.916
295.458
275.583
284.173
278.732
270.113
304.642
289.968
297.329
280.52
287.994
280.531
273.032
294.325
285.2
284.641
278.461
277.787
268.073
268.774
301.47
293.768
292.654
288.801
287.659
280.072
274.886
315.914
307.431
302.501
296.339
293.413
291.574
282.625
298.141
305.728
312.841
302.378
280.31
287.543
295.289
297.847
291.182
288.295
286.106
283.185
276.59
271.296
229.869
223.639
203.229
217.141
223.731
203.307
195.381
173.259
192.157
155.04
188.638
115.045
61.1173
110.27
293.033
293.879
306.58
301.703
275.13
288.023
288.907
290.532
287.381
302.027
297.111
270.523
285.499
282.313
288.051
296.549
303.706
294.18
270.93
278.356
286.986
283.396
298.248
304.199
293.075
271.589
286.332
278.381
291.248
278.023
281.56
271.086
274.708
264.974
261.331
161.476
264.312
218.792
207.055
150.396
257.05
209.972
291.695
277.802
291.279
277.661
264.631
263.98
278.171
276.87
262.408
272.057
258.665
253.734
267.533
248.943
255.85
231.383
230.563
251.272
250.56
245.001
224.007
182.706
150.569
191.372
99.6767
54.439
148.13
113.625
145.078
141.451
105.422
75.688
29.7424
122.114
80.7324
202.471
187.284
175.773
178.793
193.724
196.449
185.567
278.676
261.754
270.661
251.89
260.841
269.859
279.478
279.481
284.409
295.011
289.944
263.309
274.206
279.24
205.809
199.055
181.732
180.776
198.21
191.025
172.722
221.839
215.914
200.875
223.135
209.2
202.543
193.751
290.152
277.021
289.732
275.258
263.041
262.37
275.795
219.781
198.269
204.268
211.439
216.88
194.691
188.268
288.671
283.205
277.995
278.088
272.783
267.4
261.969
154.994
259.809
206.695
208.674
143.611
252.432
197.436
146.071
245.938
219.641
148.871
109.461
223.153
194.35
282.637
258.823
276.943
257.035
275.034
269.362
251.051
161.99
116.88
132.563
63.9056
98.9452
79.0409
24.0467
256.125
231.535
245.351
231.03
251.035
251.426
237.338
289.379
296.501
304.324
293.302
270.357
278.659
285.709
289.536
274.494
289.128
276.611
262.455
261.779
277.133
254.393
229.834
250.064
227.915
248.473
243.115
221.689
145.561
252.955
212.802
186.017
133.587
245.27
203.714
284.567
268.586
284.131
272.433
257.346
256.629
272.988
283.329
271.384
282.922
267.246
256.12
255.397
267.812
184.105
279.798
233.038
194.283
133.448
240.559
189.806
234.235
192.081
236.838
166.116
113.713
206.694
169.28
137.829
80.1214
167.849
185.382
136.989
105.498
39.8049
180.816
172.016
178.949
165.876
172.946
163.856
156.177
275.55
248.728
253.773
263.031
257.676
266.76
271.754
283.409
258.504
264.956
269.497
277.068
258.324
250.615
276.716
258.016
264.137
268.243
275.46
256.805
249.425
228.64
223.626
244.611
219.528
241.051
235.904
213.608
305.694
282.394
294.558
280.434
293.405
282.526
269.648
286.163
276.886
292.022
276.15
291.232
281.003
265.909
179.684
276.083
235.959
181.969
128.013
236.878
193.189
303.876
278.6
279.719
292.479
292.829
281.625
267.815
167.191
266.424
210.838
185.678
112.067
226.502
164.29
235.606
186.095
225.424
167.778
105.242
202.07
154.832
85.8478
161.284
137.727
45.9221
14.0997
105.803
70.6362
301.123
280.702
276.731
275.676
291.871
290.802
285.859
298.138
277.385
271.884
274.481
286.836
289.51
283.093
280.842
282.062
289.399
272.451
255.883
263.695
264.842
274.594
255.895
263.433
267.554
276.195
257.474
248.674
273.982
283.332
286.682
272.197
255.706
259.291
268.732
274.774
284.961
288.257
274.631
257.388
260.922
271.244
271.461
282.773
286.095
273.575
255.142
258.716
270.173
195.577
171.713
190.053
166.576
185.398
179.479
159.875
282.168
273.701
288.781
270.795
285.825
276.486
261.373
303.38
281.229
292.304
278.082
289.87
279.035
267.243
296.928
271.444
286.583
271.431
286.003
275.77
260.505
295.655
275.487
274.292
282.828
281.664
268.622
260.916
277.822
273.502
266.419
268.089
260.836
256.595
250.81
250.364
237.75
221.476
225.168
242.987
246.16
230.186
295.892
268.87
274.676
275.605
282.021
282.936
288.764
279.34
277.868
292.44
286.796
258.256
273.021
272.196
265.478
277.627
281.044
269.352
249.82
253.503
265.855
181.945
165.933
176.126
156.702
167.276
160.81
149.637
268.329
276.509
279.864
264.163
248.648
252.295
260.668
275.079
263.742
274.502
257.753
247.472
246.623
258.5
297.954
276.732
287.072
272.501
283.38
272.667
261.655
291.978
272.683
280.066
269.656
277.101
264.94
257.153
122.992
238.508
173.65
191.128
109.884
230.397
162.987
143.229
252.369
204.305
174.246
108.247
230.817
177.548
280.674
261.486
275.523
252.72
266.803
261.356
246.931
214.801
177.143
231.225
140.569
92.3527
195.502
162.341
120.047
197.518
177.35
55.3573
22.5812
122.728
91.4109
217.668
203.236
213.092
184.511
195.645
190.149
178.491
291.261
264.157
272.054
268.767
279.463
276.231
284.078
270.587
251.947
260.704
263.585
273.435
254.805
244.82
273.18
255.708
272.636
262.048
245.529
244.688
262.672
277.722
253.531
259.267
262.225
269.039
250.29
243.319
258.646
251.64
250.609
240.273
239.097
230.756
231.979
277.391
281.049
271.484
270.313
263.92
260.612
252.902
136.193
247.663
191.472
176.05
99.8963
225.577
163.252
291.255
268.326
283.217
263.712
278.571
269.728
254.726
110.064
193.21
179.092
219.635
157.333
147.15
66.5334
283.986
256.759
260.28
265.538
267.957
273.078
276.679
252.607
266.121
269.582
258.95
237.684
241.529
255.37
259.678
240.695
251.764
252.97
264.903
246.067
233.802
260.601
267.833
271.392
254.607
239.558
243.427
250.867
266.793
248.103
253.934
254.997
261.866
243.086
236.047
278.458
257.975
273.233
250.416
265.701
260.21
244.534
278.966
260.604
273.73
250.979
264.195
258.655
245.121
282.742
264.375
271.944
258.83
266.531
255.414
247.335
100.659
223.749
187.409
139.701
86.9571
214.848
177.244
261.379
242.262
260.547
250.599
232.931
231.824
251.48
272.128
254.692
266.793
243.823
256.052
250.323
237.757
152.499
254.779
220.218
144.474
92.9419
214.221
175.309
62.0274
138.457
111.005
15.6823
1.76611
57.7383
26.146
248.709
258.192
266.919
261.205
233.35
242.587
252.365
251.984
262.761
270.495
262.84
235.501
244.031
254.952
170.938
149.145
164.911
145.997
162.068
155.47
138.533
287.796
261.88
278.189
261.073
277.088
267.464
250.821
255.362
243.254
247.36
231.422
235.738
227.408
223.042
125.711
240.326
197.874
149.877
87.6931
217.493
170.438
273.194
251.592
267.835
244.991
261.271
255.646
238.946
243.083
216.689
238.823
210.623
233.463
228.174
204.705
207.601
191.525
205.194
183.889
197.99
180.981
172.729
194.818
209.632
208.666
186.46
185.35
200.929
176.406
182.887
163.626
173.209
182.943
153.436
173.857
163.658
209.775
209.109
216.9
195.021
176.701
185.731
186.584
180.042
171.171
189.655
182.011
151.14
171.869
162.584
239.071
253.686
257.438
247.446
224.428
228.577
243.597
271.615
253.809
261.675
246.084
254.206
243.879
235.403
263.654
249.447
250.257
248.612
249.426
233.784
234.845
101.252
225.162
156.027
155.946
62.4264
200.658
122.057
135.183
232.382
206.42
79.3375
42.2768
161.384
128.882
165.205
164.136
157.805
155.209
148.615
147.446
137.521
280.284
257.49
250.807
257.914
265.759
272.787
265.566
263.386
250.13
249.006
233.472
249.296
248.161
264.044
261.41
228.93
242.635
241.434
255.707
236.767
221.991
261.584
238.036
256.01
232.62
250.657
244.789
226.238
263.227
246.364
257.639
234.483
245.984
239.948
228.127
273.142
253.382
262.316
246.357
255.56
244.293
234.81
260.591
241.721
242.582
245.491
246.317
230.593
226.602
259.111
246.837
245.96
243.555
242.647
228.835
229.962
268.984
266.519
265.315
255.583
254.334
251.566
240.317
250.412
260.103
259.391
241.209
240.51
248.978
229.858
246.456
256.893
253.967
237.936
234.945
244.327
225.048
200.348
182.753
195.508
175.702
188.753
170.144
162.429
259.933
258.879
268.936
250.04
229.488
241.021
239.945
224.549
238.408
245.497
238.216
206.951
229.888
216.187
222.713
235.609
243.867
237.296
204.679
227.822
215.167
260.029
244.665
247.599
229.841
243.769
246.739
260.725
237.865
223.415
244.575
236.564
205.508
228.61
214.26
197.383
201.814
207.839
183.942
164.026
171.723