/*--------------------------------*- C++ -*----------------------------------*\
  =========                 |
  \\      /  F ield         | OpenFOAM: The Open Source CFD Toolbox
   \\    /   O peration     | Website:  https://openfoam.org
    \\  /    A nd           | Version:  9
     \\/     M anipulation  |
\*---------------------------------------------------------------------------*/
FoamFile
{
    format      ascii;
    class       volScalarField;
    location    "0.0034";
    object      rho.air;
}
// * * * * * * * * * * * * * * * * * * * * * * * * * * * * * * * * * * * * * //

dimensions      [1 -3 0 0 0 0 0];

internalField   nonuniform List<scalar> 
31335
(
0.20792
0.433992
0.764693
0.305331
0.140107
0.209905
0.345064
0.409052
0.287795
0.337058
0.486589
0.373419
0.416949
0.689932
0.758735
0.56921
0.6397
0.157568
0.161292
0.178169
0.159667
0.176683
0.199539
0.18341
0.208362
0.30432
0.227185
0.305652
0.226436
0.246623
0.322548
0.184515
0.224528
0.200408
0.22429
0.237523
0.251155
0.209357
0.88376
0.6139
0.70429
0.962795
1.01523
0.741815
0.906194
0.181977
0.223528
0.198371
0.224038
0.238215
0.252553
0.208759
0.267212
0.320543
0.246639
0.267821
0.357603
0.290514
0.339625
0.450801
0.388505
0.393219
0.466867
0.475404
0.407992
0.491036
0.269027
0.324367
0.24634
0.268494
0.365003
0.293858
0.342353
0.402991
0.497326
0.482542
0.436979
0.422395
0.506068
0.520561
0.251829
0.270771
0.269077
0.317198
0.283815
0.281775
0.23783
0.515764
0.593123
0.53454
0.60878
0.546958
0.565345
0.631609
0.413076
0.525023
0.499978
0.450236
0.428083
0.515334
0.54082
0.292066
0.349072
0.386148
0.381313
0.320424
0.317478
0.361132
0.655689
0.645095
0.663446
0.694655
0.715647
0.693023
0.753532
0.571501
0.61633
0.553255
0.583537
0.677452
0.60112
0.654487
0.467566
0.459847
0.443389
0.530365
0.575273
0.55724
0.545969
0.610938
0.648756
0.578569
0.596703
0.712579
0.629124
0.671209
0.696671
0.794464
0.742941
0.821548
0.766734
0.81347
0.876582
0.67485
0.769803
0.732643
0.750845
0.721764
0.789867
0.825799
0.713615
0.840002
0.777478
0.792599
0.741904
0.813251
0.87416
0.614542
0.66682
0.735476
0.716799
0.647462
0.632331
0.694043
1.22604
1.225
1.225
1.225
1.225
1.225
1.225
2.52184
1.22523
1.22501
1.225
1.225
1.225
1.225
2.49275
2.32879
1.25693
1.22507
1.225
1.225
1.225
1.61276
2.11709
2.64452
1.92162
1.22579
1.225
1.225
0.757848
1.16936
1.70505
2.41922
2.50978
1.22704
1.225
0.373458
0.588431
0.947867
1.51536
2.2614
2.53306
1.226
0.341897
0.527532
0.875992
1.50491
2.38304
2.06588
0.335134
0.528073
0.934514
1.67288
2.63842
1.225
1.225
1.225
1.225
1.225
1.225
1.225
1.22774
1.22505
1.225
1.225
1.225
1.225
1.225
2.59457
1.88793
1.2319
1.22502
1.225
1.225
1.225
1.78218
2.32334
2.66555
1.46022
1.22515
1.225
1.225
0.927
1.31607
1.84357
2.58591
2.10922
1.22539
1.225
0.560551
0.727798
1.07159
1.64853
2.45394
2.1618
1.22519
0.508118
0.649233
0.99172
1.63647
2.56046
1.55829
0.645745
0.64632
1.0531
1.80542
2.67861
1.225
1.225
1.225
1.225
1.225
1.225
1.225
1.22505
1.225
1.225
1.225
1.225
1.225
1.225
1.51546
1.24775
1.22512
1.225
1.225
1.225
1.225
2.31114
2.65642
2.21304
1.22963
1.22501
1.225
1.225
1.42405
1.75289
2.28343
2.69538
1.25818
1.22501
1.225
1.00264
1.28314
1.48537
2.03338
2.7156
1.26359
1.22501
0.919809
1.04331
1.38705
2.01747
2.70725
1.23218
0.933291
0.899785
1.45749
2.21734
2.39322
1.225
1.225
1.225
1.225
1.225
1.225
1.225
1.225
1.225
1.225
1.225
1.225
1.225
1.225
1.22772
1.22505
1.225
1.225
1.225
1.225
1.225
2.44203
1.81696
1.23005
1.22501
1.225
1.225
1.225
2.07686
2.50518
2.70889
1.33065
1.22505
1.225
1.225
1.19606
1.4184
2.08449
2.70397
1.54766
1.22506
1.225
1.0474
1.14725
1.32265
1.97093
2.69636
1.37385
1.22501
0.927388
1.35015
1.36317
2.05125
2.72208
1.23485
1.11176
1.53237
1.86094
1.22509
1.225
1.225
1.225
1.225
1.225
1.225
1.225
1.225
1.225
1.225
1.225
1.225
1.225
1.225
1.225
1.225
1.225
1.225
1.225
1.225
1.225
1.2345
1.22519
1.22501
1.225
1.225
1.225
1.225
2.36001
1.99327
1.23593
1.22502
1.225
1.225
1.225
2.34004
2.6704
2.66909
1.32162
1.22507
1.225
1.225
1.64755
1.55384
2.41227
2.70207
1.3407
1.22503
1.225
1.10212
1.38849
1.50133
2.3846
2.68636
1.24381
1.22501
1.65689
1.53203
1.2251
1.225
1.225
1.225
1.225
1.225
1.225
1.225
1.225
1.225
1.225
1.225
1.225
1.225
1.225
1.225
1.225
1.225
1.225
1.225
1.225
1.225
1.225
1.22501
1.225
1.225
1.225
1.225
1.225
1.225
1.22502
1.2251
1.225
1.225
1.225
1.225
1.225
1.97203
1.4787
1.22732
1.22501
1.225
1.225
1.225
1.99925
2.43839
2.19312
1.23326
1.22501
1.225
1.225
1.2651
1.42931
1.85643
2.25627
1.22856
1.225
1.225
1.74226
2.01333
1.22508
1.225
1.225
1.225
1.225
1.225
1.225
1.225
1.225
1.225
1.225
1.225
1.225
1.225
1.225
1.225
1.225
1.225
1.225
1.225
1.225
1.225
1.225
1.225
1.225
1.225
1.225
1.225
1.225
1.225
1.225
1.225
1.225
1.225
1.225
1.225
1.225
1.225
1.22502
1.22506
1.225
1.225
1.225
1.225
1.225
1.71444
1.32795
1.22551
1.22501
1.225
1.225
1.225
2.10202
2.31575
1.55542
1.22567
1.225
1.225
1.225
2.15418
2.17988
1.225
1.225
1.225
1.225
1.225
1.225
1.225
1.225
1.225
1.225
1.225
1.225
1.225
1.225
1.225
1.225
1.225
1.225
1.225
1.225
1.225
1.225
1.225
1.225
1.225
1.225
1.225
1.225
1.225
1.225
1.225
1.225
1.225
1.225
1.225
1.225
1.225
1.225
1.225
1.225
1.225
1.225
1.225
1.225
1.225
1.22502
1.22502
1.225
1.225
1.225
1.225
1.225
1.25342
1.23183
1.22505
1.225
1.225
1.225
1.225
1.40597
1.225
1.225
1.225
1.225
1.225
1.225
1.225
1.225
1.225
1.225
1.225
1.225
1.225
1.225
1.225
1.225
1.225
1.225
1.225
1.225
1.225
1.225
1.225
1.225
1.225
1.225
1.225
1.225
1.225
1.225
1.225
1.225
1.225
1.225
1.225
1.225
1.225
1.225
1.225
1.225
1.225
1.225
1.225
1.225
1.225
1.225
1.225
1.225
1.225
1.225
1.225
1.225
1.225
1.225
1.225
1.225
1.225
1.225
1.225
1.225
1.22501
1.225
1.225
1.225
1.225
1.225
1.225
1.225
1.225
1.225
1.225
1.225
1.225
1.225
1.225
1.225
1.225
1.225
1.225
1.225
1.225
1.225
1.225
1.225
1.225
1.225
1.225
1.225
1.225
1.225
1.225
1.225
1.225
1.225
1.225
1.225
1.225
1.225
1.225
1.225
1.225
1.225
1.225
1.225
1.225
1.225
1.225
1.225
1.225
1.225
1.225
1.225
1.225
1.225
1.225
1.225
1.225
1.225
1.225
1.225
1.225
1.225
1.225
1.225
1.225
1.225
0.471975
0.237539
0.334781
0.434567
0.539922
0.354673
0.421561
0.468067
0.254231
0.343596
0.420727
0.532951
0.352869
0.429434
0.525428
0.238626
0.347144
0.476876
0.6037
0.368998
0.442341
0.241696
0.270054
0.272173
0.281604
0.283712
0.313657
0.302924
0.601567
0.431328
0.489835
0.78355
0.883284
0.663118
0.742442
0.501774
0.488253
0.592195
0.498422
0.738143
0.865445
0.71613
0.250832
0.267464
0.279558
0.267904
0.280281
0.311847
0.300547
0.29095
0.372611
0.374866
0.314566
0.316549
0.342687
0.396623
0.289415
0.374189
0.313731
0.377229
0.315176
0.342274
0.399141
0.673991
0.457543
0.588477
0.887932
0.990444
0.756289
0.804857
0.787065
1.12407
1.02821
0.958986
1.10102
1.14505
1.58182
1.06637
1.10525
0.802607
1.36398
1.59897
1.05271
1.18915
0.253335
0.272817
0.286219
0.275436
0.28928
0.326272
0.313644
1.10968
0.852891
0.982042
1.47624
1.71915
1.04619
1.2084
0.764671
0.373143
0.523085
0.590409
0.821666
0.451163
0.583718
0.301012
0.345178
0.311785
0.346616
0.373886
0.383176
0.336536
0.299781
0.344989
0.310841
0.346089
0.373876
0.383537
0.335663
0.295726
0.391516
0.323856
0.397439
0.327931
0.359981
0.423319
0.425497
0.44321
0.44623
0.520338
0.524361
0.465974
0.54469
0.800909
0.386242
0.56765
0.589002
0.858547
0.418306
0.632097
0.305938
0.353712
0.316692
0.349327
0.380175
0.389538
0.339335
0.511829
0.447685
0.453056
0.527909
0.535986
0.471796
0.554225
0.839456
0.387547
0.536442
0.660639
0.901144
0.422377
0.60086
0.302426
0.352806
0.313983
0.34867
0.381019
0.391114
0.338016
0.370858
0.394958
0.340972
0.372122
0.451191
0.405728
0.42167
0.379155
0.400028
0.345659
0.374784
0.457773
0.411951
0.424522
0.380307
0.403464
0.345097
0.37553
0.463868
0.414913
0.428443
0.37092
0.396281
0.340706
0.372409
0.453208
0.406406
0.424096
0.30905
0.358363
0.321262
0.365279
0.395939
0.406556
0.35371
1.05099
0.438592
0.615539
0.844752
1.12762
0.534827
0.691641
0.319811
0.385823
0.332942
0.374018
0.419998
0.431238
0.362018
0.783837
0.826592
0.972027
0.88742
1.01895
1.33817
0.979612
0.386616
0.415693
0.354022
0.39444
0.483601
0.431921
0.451685
0.551961
0.47603
0.485319
0.569516
0.582963
0.506652
0.603004
0.878294
0.516508
0.640624
0.929694
1.15315
0.776962
0.914793
0.57512
0.673516
0.679576
0.597232
0.60234
0.62539
0.707378
0.916423
0.61521
0.693116
0.922481
1.19694
0.801313
0.984879
0.992628
0.86233
0.831812
1.1181
1.36622
0.962838
0.976542
0.589277
0.687021
0.607967
0.70042
0.618932
0.638872
0.724537
0.464024
0.56809
0.542302
0.516128
0.489094
0.568876
0.596848
0.470363
0.580534
0.550441
0.523532
0.492449
0.572997
0.605514
0.849875
0.726258
0.782313
0.794672
0.858024
0.860804
0.93224
0.855729
0.875576
0.902443
0.960574
0.935362
0.985317
1.04935
0.963464
0.633237
0.661136
1.03834
1.25815
0.83234
0.947206
0.478421
0.595861
0.563728
0.533254
0.499846
0.58464
0.619741
0.386318
0.423853
0.41885
0.480325
0.433038
0.427869
0.376435
0.385422
0.417525
0.421176
0.475893
0.426079
0.42966
0.376142
0.417001
0.432366
0.367581
0.404173
0.51357
0.458947
0.46288
0.467072
0.570548
0.547265
0.519495
0.493721
0.576117
0.601823
0.382558
0.41637
0.41608
0.425168
0.424567
0.472665
0.464819
0.395806
0.427119
0.435802
0.435833
0.444698
0.490643
0.482578
1.11361
0.903828
1.00788
1.37533
1.5231
1.08911
1.18335
0.409585
0.499187
0.498416
0.491802
0.454015
0.448372
0.457395
0.407902
0.494102
0.487917
0.491707
0.446218
0.449742
0.45334
0.405192
0.487971
0.486708
0.445376
0.444737
0.491013
0.530222
0.397903
0.431438
0.44084
0.441489
0.451145
0.500848
0.491946
0.609373
0.496067
0.518288
0.55727
0.530203
0.6249
0.649602
0.946624
0.883957
0.794378
0.858658
0.923173
0.959234
1.02909
0.464756
0.498362
0.455857
0.508223
0.46498
0.508992
0.548899
0.849649
0.931944
0.986475
0.903592
0.836378
0.789773
0.859089
0.664076
0.733216
0.644955
0.779603
0.682413
0.703474
0.803786
0.472617
0.507965
0.462423
0.520465
0.473566
0.520968
0.563943
0.908827
0.999163
1.04927
0.916879
0.958594
0.841138
0.885845
0.417322
0.469968
0.454083
0.534905
0.480372
0.464061
0.406462
0.651817
0.703893
0.62246
0.652604
0.775316
0.684256
0.738976
0.756393
0.632674
0.66705
0.657658
0.787338
0.694481
0.745068
0.834185
0.75571
0.713847
0.748828
0.826787
0.790102
0.876212
1.20343
0.615828
0.762193
1.28492
1.53038
0.954913
1.0835
0.518701
0.662679
0.619282
0.592198
0.544037
0.642448
0.691226
0.986598
0.916604
1.0268
1.08091
1.0034
1.12167
1.20313
1.4804
1.35446
1.18733
1.28488
1.74437
1.69187
2.04361
0.563698
0.555649
0.525057
0.609206
0.683626
0.648264
0.638382
0.740103
0.688562
0.651549
0.673898
0.811637
0.713861
0.765656
0.655197
0.712843
0.629452
0.66263
0.783588
0.690914
0.751738
0.549863
0.554058
0.518431
0.599423
0.671594
0.630423
0.635189
0.944441
0.927438
0.852154
1.0376
0.93619
1.01916
1.12954
0.597679
0.550718
0.548794
0.632098
0.629423
0.589722
0.669255
0.806977
0.780296
0.734236
0.764841
0.844986
0.810458
0.899625
0.944086
0.850115
0.799254
0.908795
0.821167
0.770376
0.848257
1.01474
0.856284
0.933484
1.01217
0.933878
1.01522
1.10527
1.09288
1.18739
1.24417
1.4839
1.68834
2.02319
1.72561
0.443805
0.557278
0.555299
0.536051
0.505175
0.48761
0.497007
0.531589
0.56153
0.572571
0.643822
0.656508
0.609776
0.691316
1.35557
0.601997
0.880745
1.00933
1.42339
0.662662
0.939183
0.466888
0.535201
0.475016
0.530127
0.592976
0.600309
0.522673
1.32381
0.592686
0.906635
0.933886
1.39028
0.650657
0.965043
0.473739
0.535434
0.481571
0.544327
0.600964
0.608151
0.536858
1.23055
1.5139
1.18437
1.79999
2.06527
1.39782
1.69897
1.89486
1.18799
1.35759
1.90629
2.23145
1.48456
1.72609
1.43597
1.67064
1.12531
1.83809
2.17752
1.47847
1.72297
0.872721
1.04278
0.945165
1.02955
0.94265
1.02475
1.12449
0.962765
1.14073
1.02977
1.19409
1.08208
1.15219
1.26985
0.985473
1.11733
1.04704
1.14719
1.07551
1.14168
1.2148
0.465208
0.530388
0.473026
0.528672
0.588798
0.595869
0.521324
0.779972
0.684197
0.706098
0.72619
0.856888
0.751298
0.829271
0.939388
1.12344
1.01039
1.17382
1.0528
1.12987
1.25739
0.480345
0.544339
0.488934
0.557706
0.616325
0.624076
0.549558
0.450329
0.490933
0.501648
0.519787
0.530648
0.590676
0.580708
0.544008
0.575002
0.589567
0.661792
0.678948
0.629091
0.715324
1.46882
0.658206
1.07545
0.993567
1.53657
0.720606
1.13926
0.8564
0.916873
1.00565
0.997143
0.908995
0.967428
1.06599
1.34219
1.2995
1.31535
1.94084
1.59779
1.76125
2.18235
0.915812
1.01144
1.07655
1.06878
0.993481
1.10267
1.17801
0.552387
0.533404
0.493509
0.547056
0.652356
0.61613
0.584341
0.54708
0.530077
0.491267
0.54543
0.646734
0.611413
0.58221
0.495017
0.575551
0.503311
0.557623
0.633384
0.640925
0.549955
0.552121
0.539088
0.499823
0.561106
0.659431
0.623673
0.598505
0.592964
0.562769
0.521995
0.574611
0.693964
0.656824
0.612748
0.479096
0.579551
0.52774
0.611099
0.557812
0.615724
0.666337
1.56467
0.691667
0.988522
1.24338
1.63716
0.762566
1.05179
0.506796
0.597093
0.516009
0.575215
0.660817
0.668961
0.566799
1.30412
1.52189
1.68034
2.10675
2.33706
1.6345
1.85711
0.984396
1.09044
1.14937
1.19599
1.07346
1.14486
1.26356
0.629427
0.607529
0.573114
0.668739
0.766159
0.725039
0.699896
0.561941
0.550068
0.508329
0.575912
0.678602
0.64063
0.615937
0.937557
0.845994
0.817803
0.874244
0.970633
0.90317
1.00476
1.27192
0.871483
1.02641
1.43281
1.69256
1.07858
1.4112
1.11443
1.0349
1.31786
1.10362
1.42195
1.74021
1.50618
0.700414
0.77941
0.844505
0.829948
0.743672
0.731524
0.795234
0.687193
0.764515
0.817414
0.823559
0.72123
0.726656
0.77871
0.617268
0.581663
0.537122
0.594266
0.728043
0.687132
0.635741
0.786045
0.919649
0.871728
0.869475
0.827508
0.920638
0.968913
0.800137
0.847778
0.943591
0.883526
0.834641
0.928757
0.985174
0.68552
0.820621
0.816511
0.723723
0.720288
0.762252
0.863193
0.796835
0.925753
0.884243
0.879398
0.842864
0.938429
0.980549
1.04008
0.948056
0.88255
1.01915
0.928982
0.993395
1.09394
0.122613
0.210635
0.353285
0.412226
0.565768
0.689925
0.717315
0.185533
0.0783361
0.126065
0.270131
0.318638
0.216095
0.266348
0.0950497
0.092567
0.109978
0.0919868
0.109339
0.125461
0.107716
0.398258
0.290915
0.341375
0.529832
0.603155
0.418756
0.499036
0.143017
0.232979
0.15925
0.234277
0.158978
0.175732
0.251118
0.659373
0.440369
0.531903
0.671873
0.827663
0.515092
0.631181
0.299986
0.145224
0.214055
0.334997
0.3949
0.282929
0.333499
0.108513
0.143649
0.126214
0.14281
0.144163
0.161421
0.125104
0.106683
0.140305
0.124352
0.141712
0.141672
0.159114
0.123968
0.19141
0.252297
0.175049
0.192298
0.286662
0.209293
0.269017
0.192806
0.249707
0.175882
0.192731
0.283929
0.210063
0.267642
0.350651
0.307958
0.311855
0.369507
0.37587
0.32848
0.393843
0.391823
0.445155
0.41446
0.453863
0.422445
0.44429
0.480647
0.160357
0.162596
0.163803
0.201215
0.179355
0.180409
0.142974
0.162298
0.164991
0.166105
0.181427
0.182333
0.203069
0.187784
0.463109
0.469282
0.478316
0.493757
0.502957
0.509074
0.536643
0.464442
0.35811
0.481535
0.627282
0.705791
0.55458
0.613808
0.324642
0.406283
0.387797
0.360723
0.344697
0.411411
0.429143
0.332717
0.426014
0.401017
0.368889
0.348854
0.418228
0.442606
0.209807
0.246613
0.302705
0.301218
0.227573
0.227821
0.285254
0.210177
0.300046
0.299424
0.228014
0.228286
0.246947
0.316189
0.891227
0.548487
0.673163
0.846497
1.17118
0.707801
0.871899
0.487352
0.549781
0.519821
0.559794
0.529281
0.565366
0.598579
0.186616
0.224987
0.202098
0.225723
0.238014
0.251014
0.211605
0.484735
0.491128
0.453583
0.474241
0.555156
0.504245
0.51754
0.458316
0.471917
0.436504
0.465153
0.533029
0.485808
0.506962
0.188954
0.227855
0.204056
0.226695
0.240112
0.252725
0.212763
0.383885
0.379716
0.364494
0.435197
0.474728
0.458967
0.452041
0.425073
0.376379
0.374568
0.446701
0.443827
0.391591
0.46389
0.788472
0.644477
0.735512
0.885604
1.06452
0.734425
0.795652
0.499795
0.563314
0.52702
0.572861
0.540607
0.572504
0.610555
0.266894
0.317143
0.246702
0.266915
0.352619
0.288916
0.333578
0.268136
0.316045
0.247441
0.267312
0.351553
0.289661
0.332996
0.520294
0.599501
0.548417
0.597889
0.552194
0.58484
0.637858
0.585401
0.589165
0.596097
0.628635
0.640247
0.637673
0.685038
0.494039
0.542486
0.579246
0.567665
0.523363
0.513856
0.542843
0.633353
0.611605
0.577638
0.617682
0.720114
0.677044
0.654963
0.595139
0.588158
0.555443
0.604724
0.688737
0.647787
0.641252
0.251665
0.267741
0.268609
0.310854
0.279578
0.280267
0.238897
0.526521
0.50289
0.480313
0.559131
0.506721
0.527953
0.585814
0.394271
0.489696
0.468212
0.427004
0.408738
0.484043
0.504976
0.4625
0.39078
0.407385
0.423789
0.406991
0.481149
0.49954
0.289007
0.340325
0.372401
0.371838
0.313212
0.313502
0.351528
0.628968
0.615578
0.583961
0.622599
0.715004
0.676459
0.66151
0.602495
0.600377
0.565448
0.605724
0.650523
0.639413
0.692258
0.723807
0.626575
0.673037
0.735907
0.68388
0.735384
0.792681
0.639739
0.755073
0.682493
0.770781
0.695635
0.744429
0.824626
0.651818
0.772895
0.700764
0.770026
0.698674
0.751738
0.830658
0.583435
0.549951
0.526022
0.549593
0.642519
0.572344
0.613503
0.687893
0.679663
0.63922
0.741539
0.694499
0.744642
0.799809
0.660613
0.770023
0.77215
0.754399
0.722786
0.706451
0.70239
0.444105
0.442542
0.42437
0.500699
0.543216
0.522325
0.519703
0.56116
0.592666
0.533715
0.55353
0.651875
0.579935
0.618193
0.688973
0.674296
0.636589
0.710279
0.674141
0.735482
0.780156
0.647263
0.753516
0.701224
0.721298
0.679544
0.741746
0.792477
0.827949
0.808523
0.750609
0.808838
0.965648
0.894769
0.873116
0.76256
0.937517
0.843057
0.818357
1.00689
0.906512
0.907808
0.809257
0.731117
0.78717
0.799844
0.956726
0.863372
0.886126
0.574054
0.623868
0.677545
0.672864
0.600289
0.59658
0.644712
0.862563
0.797468
0.740902
0.797569
0.929178
0.852531
0.862826
0.818011
0.810797
0.754678
0.804722
0.944798
0.866423
0.870819
0.753801
0.748232
0.713025
0.783286
0.874663
0.832593
0.826304
0.881422
1.05627
1.08462
1.05622
0.977422
0.952842
0.97735
0.856044
0.965939
1.00441
0.996739
0.915467
0.908544
0.933188
1.06655
0.971893
1.09833
1.14786
1.04242
1.0001
0.92896
1.45269
0.706454
1.02374
1.26819
1.72942
0.980895
1.30399
1.04501
1.163
1.38173
1.06291
1.58003
1.80353
1.45743
0.98012
0.880028
0.828485
0.912398
0.859194
0.956816
1.01804
0.774029
0.83062
0.72501
0.748616
0.917433
0.801872
0.856777
0.589179
0.718029
0.66833
0.702366
0.639236
0.716716
0.778301
0.706235
0.835249
0.736742
0.852546
0.751601
0.786914
0.890878
1.48703
0.721021
0.997727
1.36357
1.76612
1.00365
1.27662
0.593796
0.728731
0.674346
0.709365
0.642042
0.720247
0.786831
0.598954
0.724272
0.679178
0.715905
0.656683
0.735719
0.792936
1.23197
1.01397
1.11173
1.11224
1.3446
1.21378
1.23241
0.549242
0.624458
0.558959
0.659539
0.730335
0.738945
0.650352
1.06689
1.16883
1.28287
1.15846
1.26765
1.29419
1.3947
1.03328
1.26621
1.14267
1.12261
1.36821
1.23508
1.24369
1.19012
1.22336
1.31464
1.23042
1.44381
1.35307
1.31729
1.2682
1.19471
1.11661
1.21574
1.3706
1.29803
1.28925
0.613289
0.742345
0.697252
0.738628
0.678016
0.761322
0.81963
0.730927
0.864091
0.760059
0.888354
0.78052
0.81609
0.925632
0.718238
0.656486
0.690755
0.755525
0.793308
0.743165
0.842775
0.599764
0.670354
0.67742
0.67753
0.684639
0.776546
0.769239
1.5981
0.78142
1.20308
1.33665
1.87084
1.07518
1.49906
0.645969
0.631234
0.58272
0.682426
0.805516
0.759679
0.730611
0.625011
0.775558
0.708263
0.752927
0.672151
0.752704
0.833026
0.904746
0.97229
0.874968
0.964884
0.93318
1.04014
1.077
0.609531
0.679584
0.686965
0.694513
0.702076
0.793933
0.786331
1.70116
0.830694
1.11583
1.63007
1.98822
1.14514
1.41359
0.649162
0.816811
0.738142
0.792806
0.700076
0.785949
0.879223
1.04975
1.11733
1.14062
1.22654
1.25304
1.20401
1.32691
1.30041
1.17235
1.08826
1.21178
1.43945
1.29667
1.34655
0.595976
0.671109
0.668272
0.77201
0.678318
0.675362
0.588809
0.621722
0.690644
0.710451
0.808437
0.697889
0.717859
0.614367
1.01654
1.10993
1.10203
1.19912
1.20901
1.1737
1.29314
0.615273
0.726923
0.692189
0.734339
0.699401
0.790991
0.825876
0.774819
0.873579
0.95096
0.917185
0.834365
0.805201
0.885157
1.01668
1.17228
1.09256
1.11026
1.29179
1.20825
1.19888
1.29215
1.25119
1.17769
1.24816
1.43572
1.36612
1.32116
0.611614
0.786558
0.728542
0.725034
0.69326
0.690189
0.647238
0.643888
0.744088
0.716073
0.847454
0.75203
0.723829
0.635934
1.13578
0.992953
1.03295
1.1796
1.0711
1.1109
1.22516
0.625643
0.738046
0.702096
0.754258
0.717501
0.808809
0.845111
1.26913
1.32795
1.32148
1.40158
1.41388
1.46242
1.54444
1.19222
1.22184
1.22054
1.29021
1.28766
1.31684
1.38473
0.665956
0.73722
0.744825
0.771156
0.778974
0.873013
0.865049
1.969
0.928405
1.25496
1.70169
2.0718
1.01459
1.33328
0.623565
0.767251
0.633618
0.705686
0.844367
0.853473
0.696298
1.17042
1.20668
1.26383
1.2167
1.39481
1.32954
1.28735
1.32215
1.31924
1.18223
1.26148
1.55823
1.39785
1.40504
0.637351
0.822944
0.748057
0.768757
0.712681
0.732783
0.673697
0.917693
0.924681
0.873438
0.973546
1.08495
1.02367
1.0317
1.12642
1.06113
0.962762
1.02001
1.19207
1.0758
1.1275
1.07891
1.04535
1.1546
1.02907
1.21191
1.09418
1.13722
0.949354
0.932375
0.89318
0.996347
1.108
1.05985
1.04057
1.07583
1.02596
1.13404
1.03998
1.20657
1.08906
1.14913
0.971317
0.921508
0.916707
1.02252
0.969699
1.0281
1.08244
1.65725
1.07916
1.21181
1.87692
2.11898
1.48392
1.63746
0.935341
1.12027
1.04221
1.03553
0.965604
1.07734
1.15734
1.2175
1.17525
1.21351
1.29138
1.33554
1.27268
1.40329
0.661111
0.863094
0.807719
0.777447
0.768622
0.739712
0.700319
0.791961
0.712059
0.659562
0.729734
0.927816
0.876549
0.780387
0.823823
0.87042
0.768404
0.814005
0.987212
0.880679
0.918446
0.811042
0.861529
0.76094
0.809759
0.975831
0.870687
0.913493
1.01554
1.19854
1.08556
1.06008
1.25094
1.13026
1.17079
0.682358
0.796845
0.760066
0.832736
0.794773
0.888039
0.924978
1.00363
0.938116
0.957979
1.04704
1.00061
1.06939
1.11666
0.817952
0.875173
0.773115
0.830689
0.993263
0.886608
0.936716
0.839313
0.901733
0.795298
0.8606
1.02728
0.917104
0.970966
0.704698
0.854886
0.800433
0.877626
0.80498
0.901836
0.971971
0.833648
0.990615
0.869093
1.03806
0.911276
0.958182
1.08371
0.700031
0.778813
0.786953
0.821565
0.829939
0.932771
0.924249
0.782636
0.782351
0.790202
0.85782
0.866242
0.882199
0.95848
0.936431
0.972055
1.00006
1.08539
1.04089
1.11675
1.16177
0.874396
0.912536
0.806006
0.849429
1.04025
0.930015
0.957497
0.800058
0.795531
0.813252
0.873364
0.892895
0.904018
0.983392
1.2618
1.37668
1.50322
1.49537
1.37704
1.50379
1.62
1.70932
1.85701
2.23141
1.89547
2.20075
2.59371
2.24504
0.784828
0.780598
0.70329
0.779679
0.954911
0.861277
0.856199
0.804781
0.826676
0.731232
0.809603
0.994748
0.881928
0.905332
0.92196
0.955042
0.842023
0.88794
1.09724
0.982035
1.00115
1.23235
1.11619
1.07403
1.15224
1.32212
1.19518
1.27267
0.719407
0.845584
0.804552
0.892353
0.848792
0.950244
0.991859
2.03896
1.00795
1.49148
1.58581
2.12785
1.06824
1.56101
0.763968
0.88377
0.771258
0.886188
1.00646
1.01499
0.878419
1.24983
1.31885
1.30049
1.37996
1.43912
1.35194
1.4966
1.21883
1.46284
1.4749
1.3205
1.33138
1.42822
1.58288
1.98122
2.2864
1.86892
2.36522
2.60224
1.82433
2.2177
1.73182
1.7667
2.1605
2.27623
2.29932
1.8316
2.25051
1.32611
1.53426
1.51389
1.48088
1.44686
1.41163
1.39766
0.788749
0.942258
0.874871
1.06039
0.951334
0.883548
0.77987
0.870861
0.838268
0.762423
0.845836
1.04709
0.955454
0.920118
1.28154
1.37693
1.44783
1.45893
1.3885
1.48667
1.55443
1.41438
1.52106
1.54167
1.3893
1.41282
1.51635
1.64575
0.771762
0.888584
0.779215
0.901721
1.01822
1.02687
0.893766
1.453
1.58019
1.4879
1.60006
1.50511
1.63133
1.72278
0.863656
0.856302
0.894196
0.936844
0.977071
0.985557
1.06732
2.10545
1.05531
1.6149
1.57454
2.19977
1.11619
1.6852
2.16075
1.09896
1.40873
2.14501
2.52737
1.45595
1.72558
0.792245
1.0329
0.895917
1.00852
0.858744
0.960094
1.11223
1.55113
1.88774
1.84496
2.30729
2.22
2.26018
2.25461
1.21926
1.46271
1.427
1.47447
1.33083
1.32034
1.35055
1.07189
1.03322
0.99777
1.11425
1.24245
1.19748
1.15397
0.781194
0.914586
0.788584
0.89606
1.02902
1.03769
0.888228
1.26095
1.49819
1.3516
1.53381
1.38226
1.46694
1.62765
2.19669
1.11158
1.54662
1.77995
2.30389
1.1756
1.61753
0.808959
0.956248
0.81675
0.924254
1.07004
1.0791
0.916116
0.828844
0.942659
0.836562
0.980311
1.09234
1.10148
0.971891
1.84121
1.09666
1.42408
1.80589
2.29539
1.49995
1.84334
1.58625
1.85333
1.56333
2.16457
2.58328
1.80035
2.13109
1.9157
2.49548
2.13228
1.93373
2.42561
2.29213
2.57526
1.34403
1.4449
1.36444
1.43841
1.36009
1.45846
1.53903
0.810795
1.08054
1.02215
0.950226
0.972822
0.903763
0.859453
1.16857
1.37503
1.28769
1.31932
1.24526
1.37609
1.46067
1.25215
1.3835
1.30507
1.33491
1.26828
1.40096
1.47752
1.49256
1.58379
1.42587
1.64398
1.47769
1.55393
1.72649
0.967755
1.14564
1.08029
1.09114
1.02505
1.14422
1.21573
1.19512
1.26071
1.13623
1.26797
1.14275
1.20317
1.33492
1.87801
1.12186
1.39592
1.90386
2.35557
1.52935
1.81446
0.97791
1.10381
1.16408
1.03067
1.09157
1.15032
1.22939
1.98592
1.19809
1.62095
1.87672
2.52581
1.61575
2.05473
1.5748
1.90302
1.66251
2.14589
2.6437
1.85117
2.27875
2.34785
1.55384
1.80162
2.31506
2.0903
2.00728
2.29332
1.08109
1.20605
1.26223
1.27248
1.1376
1.14694
1.19778
1.10652
1.23163
1.3063
1.28332
1.17819
1.15686
1.22535
0.963602
1.03276
0.911708
1.01448
1.20331
1.08187
1.13818
1.2737
1.40626
1.30788
1.34028
1.25535
1.38665
1.48277
0.903226
0.829528
0.7939
0.916512
1.07916
1.04195
0.953013
0.89831
0.820574
0.785732
0.900685
1.06642
1.02988
0.936162
0.929117
0.838205
0.803038
0.91056
1.08939
1.05261
0.946175
1.41781
1.5578
1.49395
1.61244
1.55227
1.62928
1.68819
1.23347
1.29092
1.16409
1.31694
1.18854
1.24105
1.37616
0.982901
1.15476
1.09698
1.11021
1.05069
1.17185
1.23615
1.02498
1.16094
1.07365
1.22914
1.14354
1.19676
1.29017
0.875337
1.05532
1.06508
0.949682
0.958738
1.05058
1.15643
0.920774
0.911749
0.962308
0.999759
1.0544
1.05985
1.14996
1.34226
1.54582
1.6392
1.58097
1.47234
1.42255
1.49299
0.872465
1.04723
1.06033
1.05376
0.953998
0.948133
0.977951
1.24312
1.27411
1.1538
1.1943
1.422
1.28505
1.32011
0.971542
0.868973
0.831916
0.939243
1.13275
1.09456
0.976341
1.32546
1.50706
1.39508
1.52867
1.41915
1.48848
1.6009
0.957274
0.887382
0.851233
0.995125
1.15388
1.11658
1.03189
0.877646
0.997203
0.8859
1.04716
1.16276
1.17254
1.03814
1.01373
1.18553
1.13155
1.1475
1.08927
1.21436
1.27622
0.895496
1.07508
0.967467
1.09809
0.988797
1.07843
1.18672
2.44726
1.26549
1.92095
1.74427
2.53604
1.33191
2.00682
2.19888
1.12821
1.62296
1.91994
2.5466
1.40909
1.89212
0.87675
1.06958
0.952839
1.12597
0.993832
1.07149
1.20564
1.73945
1.97253
1.61195
2.43673
2.69938
1.93618
2.20349
2.60077
1.81058
2.04559
2.58775
2.42794
2.09412
2.43945
1.48357
1.72935
1.57019
1.76827
1.61265
1.69418
1.84856
0.904746
1.08897
1.0832
1.10977
0.975613
1.0006
1.01303
1.32234
1.46137
1.35683
1.38296
1.29178
1.42697
1.53049
0.909852
1.08454
0.918091
1.02742
1.19724
1.20712
1.01869
1.23727
1.43446
1.36317
1.39363
1.33244
1.47117
1.54092
0.937693
1.02769
1.03725
1.1344
1.14455
1.25258
1.24169
1.20722
1.117
1.17028
1.24814
1.21633
1.30729
1.35467
2.27716
1.17682
1.74615
1.90535
2.61126
1.46008
2.01892
1.15982
1.33654
1.2062
1.37394
1.24062
1.29041
1.42932
2.67663
1.90657
2.1001
1.70862
2.15145
2.36153
2.72924
0.945758
1.14631
1.16977
1.12948
1.0562
1.01822
1.05828
1.10049
0.971906
0.933729
1.04267
1.26142
1.22302
1.08021
1.42087
1.57166
1.45215
1.47782
1.37269
1.5167
1.63517
1.01303
0.941799
0.902295
1.06384
1.22875
1.189
1.10414
1.36012
1.50438
1.44123
1.46171
1.40568
1.55656
1.61902
0.895152
1.10277
0.972256
1.14945
1.0042
1.08233
1.22981
0.887127
1.07647
0.964918
1.13998
1.01262
1.0927
1.22128
0.962796
1.14501
1.03404
1.18946
1.0765
1.16507
1.27614
2.57724
1.37965
1.77935
2.23143
2.62082
1.45587
1.85854
0.981104
1.17938
0.989987
1.10724
1.29568
1.30653
1.09779
0.946443
1.13325
1.0263
1.21508
1.09245
1.17393
1.29684
2.11537
1.27315
1.53613
2.2365
2.65518
1.70017
1.9575
2.30325
1.66194
1.96415
2.04982
1.41564
2.26687
2.18971
1.10071
1.02448
0.935893
1.03492
1.30132
1.20178
1.12109
1.15381
1.14574
1.01561
1.07692
1.35729
1.2299
1.2045
1.33684
1.54978
1.40412
1.58126
1.43314
1.50242
1.6585
1.07407
1.22242
1.12247
1.29448
1.19864
1.25056
1.35571
0.961312
1.11134
1.0597
1.22045
1.16753
1.27486
1.32581
2.38917
1.23949
1.68019
2.14013
2.66435
1.53239
1.95276
0.929418
1.15503
1.01071
1.19555
1.0372
1.11883
1.27924
1.46343
1.70811
1.53177
1.78761
1.60108
1.66443
1.85571
1.65789
1.67787
1.69688
1.78034
1.7945
1.81873
1.92
1.62553
1.61929
1.63194
1.74153
1.75329
1.74476
1.86761
1.59128
1.65692
1.54849
1.59198
1.77002
1.7043
1.65761
1.6193
1.63202
1.50178
1.62663
1.86851
1.75485
1.74203
1.62817
1.57115
1.50444
1.60414
1.79439
1.72908
1.66916
1.19854
1.05303
1.00877
1.12508
1.36805
1.32508
1.16749
1.02694
1.21979
1.10362
1.28065
1.16174
1.25493
1.37109
1.0165
1.16011
1.15354
1.16968
1.16305
1.32884
1.31812
2.59214
1.39611
2.07925
2.0862
2.69592
1.68482
2.43642
2.37206
1.64081
1.80025
2.73328
2.67929
2.29374
2.55254
1.52153
1.53219
1.5236
1.62737
1.61738
1.62807
1.72832
1.23672
1.37829
1.471
1.41867
1.32967
1.28163
1.36827
1.02172
1.15625
1.16847
1.33452
1.16576
1.17806
1.01316
1.40806
1.68909
1.56145
1.57274
1.45951
1.61817
1.74366
1.03452
1.28825
1.11865
1.32436
1.14215
1.22533
1.40786
1.00657
1.20149
1.09313
1.2941
1.17058
1.25895
1.38072
1.16052
1.34691
1.29402
1.3343
1.27039
1.40912
1.47242
1.03146
1.22365
1.2166
1.18542
1.17869
1.34552
1.38484
1.06417
1.19165
1.2014
1.22648
1.2365
1.3843
1.37327
1.22163
1.17296
1.18349
1.30146
1.31268
1.2753
1.40613
1.46433
1.39755
1.40535
1.54951
1.55791
1.4805
1.64217
1.50747
1.42949
1.45717
1.58331
1.61319
1.52405
1.68789
1.74849
1.77346
1.8122
1.86474
1.89747
1.92749
2.02088
1.39912
1.40997
1.32535
1.46697
1.6456
1.55105
1.56248
1.57646
1.52246
1.42233
1.52345
1.79571
1.61945
1.68921
1.60112
1.55642
1.44454
1.53484
1.82101
1.64303
1.70161
1.04755
1.20623
1.1773
1.36657
1.21618
1.187
1.03874
1.53184
1.59891
1.44199
1.55136
1.81658
1.63802
1.72112
1.81163
1.74842
1.65893
1.77977
2.0259
1.93391
1.86986
1.6643
1.63793
1.57608
1.71221
1.86729
1.80219
1.77239
1.17851
1.17133
1.09355
1.21835
1.4025
1.30734
1.2997
1.29304
1.34644
1.21345
1.27828
1.50831
1.36394
1.41673
1.27329
1.33209
1.20071
1.27179
1.49343
1.34973
1.40949
1.13702
1.26575
1.1471
1.36809
1.47712
1.48948
1.35643
1.07915
1.25525
1.2171
1.29055
1.25228
1.401
1.44031
1.12097
1.24658
1.25687
1.29729
1.308
1.45187
1.44019
1.19444
1.24877