/*--------------------------------*- C++ -*----------------------------------*\
  =========                 |
  \\      /  F ield         | OpenFOAM: The Open Source CFD Toolbox
   \\    /   O peration     | Website:  https://openfoam.org
    \\  /    A nd           | Version:  9
     \\/     M anipulation  |
\*---------------------------------------------------------------------------*/
FoamFile
{
    format      ascii;
    class       volVectorField;
    location    "0.0034";
    object      rhoU;
}
// * * * * * * * * * * * * * * * * * * * * * * * * * * * * * * * * * * * * * //

dimensions      [1 -2 -1 0 0 0 0];

internalField   nonuniform List<vector> 
31335
(
(5.74929 -29.3723 -0.810507)
(13.3651 -24.1504 2.4914)
(39.0077 -66.0707 28.9016)
(18.3091 -36.0989 1.36438)
(-12.3043 -6.05541 -1.32646)
(-0.278423 -12.8784 -1.32951)
(9.22571 -21.7582 -1.10031)
(21.4212 -33.1506 4.5543)
(-7.99933 4.3409 -4.3305)
(1.7727 -7.02517 -3.29004)
(25.572 -38.1062 9.21836)
(-3.71325 4.52348 -2.38773)
(4.85322 -9.17582 -0.38432)
(33.1592 -54.7964 20.0227)
(53.7509 -79.0661 30.4714)
(11.5673 -12.5091 8.33809)
(25.9435 -32.6448 14.3815)
(-11.8149 -3.70169 -2.35567)
(-8.99522 -7.82149 -1.40588)
(-8.6062 -5.47797 -2.7587)
(-6.80721 -13.2214 -1.22838)
(-6.38966 -10.9015 -2.22374)
(-2.95315 -12.6378 -2.48469)
(-3.20555 -14.917 -1.30435)
(-10.3925 0.763527 -2.86817)
(-5.34411 1.01397 -4.64376)
(-7.35394 -1.58719 -3.3897)
(-2.50345 -3.67562 -3.84382)
(-4.88005 -6.63313 -2.45261)
(-1.66534 -8.9697 -2.63234)
(0.372264 -6.92773 -3.62015)
(-4.93201 -10.1005 -1.43546)
(-0.513119 -10.8134 -2.5499)
(-4.78216 -7.84087 -2.85973)
(0.955982 -15.0913 -2.34082)
(5.69161 -20.0474 -0.796268)
(5.30565 -18.1529 -1.76591)
(1.03739 -17.2148 -1.22649)
(62.4259 -87.866 45.3189)
(14.72 -18.273 13.7753)
(32.2366 -41.305 22.3707)
(55.721 -86.7909 60.1521)
(67.6488 -100.435 67.4618)
(24.8315 -33.198 37.3249)
(51.2813 -66.5294 54.1149)
(-0.719719 -20.9418 -1.12482)
(5.76214 -27.1448 -1.54218)
(-0.487721 -18.7051 -2.04482)
(3.05965 -20.446 -2.01564)
(9.55679 -30.9228 -0.409587)
(9.41307 -28.8012 -1.08988)
(3.05549 -22.5725 -1.05044)
(0.108691 -8.06268 -2.8856)
(-2.08171 -2.80579 -4.23739)
(-3.82274 -4.53941 -3.42727)
(1.92971 -12.0296 -2.26064)
(7.9508 -15.0251 -1.34224)
(6.00063 -15.6888 -1.22872)
(3.84781 -10.7533 -2.76608)
(2.20966 1.3988 0.767165)
(-1.53891 0.253982 -2.41034)
(1.87514 -4.33089 -1.47595)
(4.62785 -3.47178 0.97997)
(8.05776 -8.51603 2.28136)
(4.27112 -8.49142 -0.941195)
(10.7378 -13.4473 2.97396)
(6.98801 -23.5701 -0.485806)
(3.22251 -12.3945 -2.8278)
(0.930639 -14.7515 -1.75725)
(4.21861 -17.1442 -1.48372)
(12.6368 -24.9439 0.305001)
(10.4341 -25.9644 0.397581)
(6.34624 -15.6028 -2.05885)
(1.28446 -4.36465 -1.69393)
(11.2831 -14.754 3.17652)
(7.60813 -8.95213 1.74558)
(11.3747 -17.8361 2.03626)
(7.39714 -12.9976 0.286415)
(13.9936 -18.9563 4.28983)
(18.1447 -24.7927 6.20416)
(7.04708 -22.9168 -1.50765)
(13.7477 -33.1971 0.38281)
(11.8601 -27.7956 0.156046)
(18.2264 -34.426 0.928315)
(13.5307 -31.2426 -0.188909)
(11.5069 -25.9597 -0.54291)
(7.28939 -24.9094 -0.621858)
(6.89183 -5.14165 4.87625)
(15.2129 -18.5183 10.1678)
(10.0198 -10.451 5.6585)
(18.4303 -24.9356 11.7836)
(13.268 -16.1678 7.17606)
(16.7679 -21.743 8.30868)
(22.8511 -31.2453 13.6376)
(7.48898 -13.9201 0.101627)
(19.7003 -31.258 7.56733)
(13.8454 -19.4089 4.45065)
(16.6586 -28.1659 4.21172)
(10.2886 -17.9216 1.22921)
(16.9083 -24.3718 5.76506)
(23.2928 -36.3981 9.40178)
(7.97993 -20.2579 -0.541764)
(19.1242 -32.9695 3.36776)
(16.6461 -28.7707 2.30186)
(14.4859 -23.7102 1.34984)
(14.4208 -29.1319 1.78735)
(12.3177 -23.9685 0.988341)
(10.0851 -19.432 -0.649821)
(18.2669 -23.7035 19.2146)
(19.2087 -25.229 16.476)
(22.2691 -32.2637 18.3054)
(23.4979 -31.6246 22.7711)
(26.459 -39.3641 24.7603)
(27.7315 -39.6147 21.0728)
(32.8395 -47.9441 28.6189)
(18.364 -23.0378 8.93527)
(20.0486 -25.2237 12.0276)
(13.8252 -16.4673 6.98524)
(21.002 -28.0443 10.0536)
(34.7834 -46.3426 18.7118)
(26.1006 -34.8867 12.3506)
(28.3679 -38.4353 15.7593)
(20.6875 -32.8635 6.49911)
(18.315 -27.4316 5.23521)
(13.8588 -22.4395 2.94057)
(20.6141 -29.9875 7.60756)
(33.1982 -48.8432 14.1079)
(27.6917 -42.3456 11.5433)
(25.4128 -36.0973 9.80385)
(26.1816 -42.3162 13.647)
(25.5743 -38.9723 15.5551)
(19.6101 -28.5465 10.0036)
(23.6909 -34.3949 11.6046)
(39.1621 -62.1038 22.735)
(30.9184 -48.5056 15.8337)
(30.8455 -45.7334 17.6333)
(21.2665 -28.1137 27.1417)
(31.6008 -42.7498 41.9241)
(27.3118 -36.9438 31.2858)
(34.4516 -51.7893 44.5724)
(30.2018 -45.2989 33.5537)
(37.6381 -55.2585 38.287)
(42.9794 -62.897 50.128)
(25.0505 -32.8805 19.2754)
(38.529 -50.0747 30.9882)
(30.249 -40.4348 26.6495)
(42.4349 -56.9256 27.5178)
(34.5155 -47.7926 23.9875)
(40.728 -57.3315 32.8201)
(50.1218 -67.6976 37.4591)
(30.3952 -48.0989 23.3057)
(45.2723 -77.6963 38.3949)
(35.4676 -57.3377 31.1322)
(46.4183 -74.6483 32.2196)
(36.8285 -55.9711 26.1626)
(43.0415 -66.4669 35.2595)
(54.0441 -87.539 42.8919)
(28.4876 -40.9978 13.8832)
(42.9081 -63.1679 21.49)
(45.9607 -70.2591 26.319)
(43.9908 -61.8088 24.0234)
(36.3971 -55.5372 18.4783)
(34.2665 -48.1645 16.5668)
(37.0035 -53.4138 20.4629)
(0.0998598 -0.348627 0.00342626)
(7.43855e-05 -0.000235228 9.33053e-06)
(3.74399e-05 -8.72602e-05 6.67606e-06)
(6.25311e-06 -1.31921e-05 8.45093e-07)
(9.48822e-07 -1.65272e-06 9.41382e-08)
(1.05895e-07 -1.58114e-07 8.28459e-09)
(8.30668e-09 -1.20545e-08 6.08797e-10)
(272.059 -769.579 16.0106)
(0.0239685 -0.0758837 0.000838374)
(0.00132915 -0.00310425 9.51852e-05)
(7.52396e-05 -0.000163878 6.83309e-06)
(1.83853e-05 -2.83933e-05 1.95683e-06)
(2.06866e-06 -2.89018e-06 1.69562e-07)
(1.61678e-07 -2.23881e-07 1.22032e-08)
(315.205 -868.604 22.7869)
(266.871 -573.303 10.9339)
(5.51763 -10.7253 0.130382)
(0.01038 -0.0212737 0.000262671)
(0.000306943 -0.000520846 1.59274e-05)
(3.61666e-05 -4.31764e-05 3.28867e-06)
(2.72989e-06 -3.29982e-06 2.19649e-07)
(176.062 -452.594 17.6376)
(315.443 -634.106 20.6968)
(511.872 -842.427 21.0545)
(203.458 -281.22 4.97912)
(0.158226 -0.226628 0.00254023)
(0.000792236 -0.000836258 2.8275e-05)
(4.1826e-05 -4.37808e-05 3.7464e-06)
(75.943 -171.033 8.03328)
(148.52 -268.371 12.4727)
(279.281 -418.433 16.9203)
(530.882 -690.062 21.169)
(510.908 -580.528 12.4452)
(0.500853 -0.513195 0.00656698)
(0.000950318 -0.000746339 2.88733e-05)
(32.944 -70.202 3.83902)
(63.0821 -97.8657 5.17204)
(132.542 -175.781 9.68624)
(278.108 -321.527 15.0686)
(543.77 -553.627 19.955)
(588.632 -535.435 12.846)
(0.282501 -0.207991 0.00315507)
(23.3841 -39.7494 2.33507)
(56.8934 -67.4252 4.07868)
(135.159 -138.296 8.52103)
(312.336 -281.179 14.8261)
(663.875 -529.816 20.7587)
(351.334 -260.652 6.32601)
(22.3478 -26.9982 1.42668)
(63.8079 -58.4447 3.83799)
(167.869 -132.403 9.38919)
(401.029 -279.291 16.4093)
(840.56 -529.16 21.0917)
(0.000165777 -0.000578767 0.000108863)
(3.03386e-05 -9.44876e-05 2.08271e-05)
(1.26414e-05 -2.82305e-05 6.3739e-06)
(2.69567e-06 -6.22309e-06 1.55395e-06)
(3.87645e-07 -7.06122e-07 1.92282e-07)
(4.38858e-08 -6.67295e-08 1.88111e-08)
(3.48247e-09 -5.05987e-09 1.48335e-09)
(0.259132 -0.915609 0.17668)
(0.00490472 -0.0162775 0.00217617)
(0.000405283 -0.000916051 0.000143665)
(3.45821e-05 -7.54898e-05 1.50148e-05)
(7.87008e-06 -1.24366e-05 3.39186e-06)
(8.75607e-07 -1.25042e-06 3.51514e-07)
(6.81017e-08 -9.4736e-08 2.75549e-08)
(297.308 -832.418 196.786)
(137.717 -289.004 69.0117)
(1.06178 -2.20819 0.440225)
(0.00253928 -0.005309 0.000849069)
(9.76106e-05 -0.000160691 3.08301e-05)
(1.40576e-05 -1.69096e-05 5.03298e-06)
(1.16656e-06 -1.39333e-06 4.45424e-07)
(195.086 -507.045 125.204)
(358.233 -731.732 176.462)
(495.976 -819.161 197.254)
(56.0737 -79.7522 20.1002)
(0.0295216 -0.0426428 0.00697781)
(0.000242468 -0.000297854 5.85468e-05)
(1.52985e-05 -1.5805e-05 5.38005e-06)
(85.4407 -200.924 46.9301)
(167.033 -306.671 78.432)
(308.169 -465.953 122.839)
(584.98 -760.851 193.491)
(302.889 -341.278 89.7001)
(0.0931506 -0.0956022 0.0217008)
(0.000264895 -0.000233599 5.64899e-05)
(39.8282 -77.3684 19.5932)
(72.6868 -117.21 28.0127)
(150.111 -202.98 54.4696)
(309.482 -359.18 103.564)
(616.161 -627.929 176.803)
(362.341 -331.862 95.7702)
(0.053608 -0.0393281 0.0101901)
(31.3087 -44.05 11.9568)
(67.7478 -80.6463 20.9967)
(154.751 -159.001 46.8272)
(348.771 -313.532 102.015)
(740.125 -590.33 189.024)
(115.844 -85.5135 29.3099)
(32.8652 -32.0708 16.4185)
(76.7757 -69.2348 20.2836)
(193.188 -150.647 52.0119)
(445.471 -308.258 117.563)
(830.929 -523.524 198.406)
(2.41283e-05 -8.7671e-05 2.45357e-05)
(1.39958e-05 -3.76714e-05 1.18527e-05)
(2.93651e-06 -7.22078e-06 2.23585e-06)
(6.06197e-07 -1.26785e-06 3.83857e-07)
(8.76044e-08 -1.54994e-07 4.58746e-08)
(9.85374e-09 -1.4677e-08 4.36117e-09)
(7.78181e-10 -1.1168e-09 3.34308e-10)
(0.00348312 -0.0165217 0.00398372)
(0.000555446 -0.00152882 0.000466477)
(4.46863e-05 -0.000122191 3.1921e-05)
(1.2377e-05 -2.31099e-05 7.60102e-06)
(1.751e-06 -2.97792e-06 9.10943e-07)
(1.9308e-07 -2.85136e-07 8.52813e-08)
(1.48791e-08 -2.06796e-08 6.34637e-09)
(39.5283 -108.772 51.0257)
(3.01183 -7.50372 2.64897)
(0.0153333 -0.0375047 0.00981548)
(0.000389877 -0.000655804 0.000208157)
(3.8619e-05 -5.52422e-05 1.92028e-05)
(3.89014e-06 -5.40952e-06 1.68951e-06)
(2.69048e-07 -3.26061e-07 1.0971e-07)
(264.586 -715.358 315.438)
(409.738 -841.975 368.407)
(265.617 -438.689 190.151)
(0.79265 -1.36519 0.495985)
(0.00176446 -0.00231825 0.000829025)
(5.49777e-05 -6.25663e-05 2.2955e-05)
(5.28178e-06 -5.16549e-06 1.92977e-06)
(136.566 -330.402 152.098)
(230.587 -432.153 205.592)
(404.947 -626.263 294.222)
(565.36 -735.201 342.77)
(7.53513 -9.10898 3.97592)
(0.00252822 -0.00255505 0.00104145)
(5.71824e-05 -4.89475e-05 2.15198e-05)
(78.8082 -163.982 69.1929)
(133.241 -196.214 123.99)
(225.215 -308.924 158.545)
(399.825 -466.359 245.258)
(677.116 -690.83 359.1)
(10.396 -9.09921 4.66551)
(0.00209108 -0.00146094 0.000737685)
(73.9084 -100.005 52.2784)
(132.178 -158.347 82.4294)
(240.191 -246.967 141.406)
(451.98 -405.579 242.082)
(737.466 -590.882 348.637)
(2.09615 -1.29669 0.782698)
(68.7582 -64.3225 59.6382)
(109.939 -88.0524 52.9536)
(295.306 -227.78 153.346)
(587.923 -400.538 279.838)
(549.165 -342.851 235.208)
(5.87964e-06 -1.82414e-05 8.66685e-06)
(2.2439e-06 -6.65217e-06 2.42928e-06)
(5.29759e-07 -1.3246e-06 5.08259e-07)
(1.00176e-07 -2.25515e-07 7.98322e-08)
(1.43691e-08 -2.64741e-08 9.25314e-09)
(1.58721e-09 -2.36423e-09 8.52903e-10)
(1.21666e-10 -1.73637e-10 6.4941e-11)
(0.000130631 -0.000537662 0.000255109)
(2.72219e-05 -9.19214e-05 3.573e-05)
(1.07808e-05 -2.39515e-05 1.06533e-05)
(2.29944e-06 -5.28692e-06 1.8699e-06)
(3.02878e-07 -5.54055e-07 1.92371e-07)
(3.20959e-08 -4.71503e-08 1.68476e-08)
(2.38195e-09 -3.2883e-09 1.22894e-09)
(0.249501 -0.845802 0.396011)
(0.00465427 -0.0145861 0.00622933)
(0.00033744 -0.000703309 0.000352121)
(3.59758e-05 -6.69652e-05 3.02489e-05)
(6.68331e-06 -1.00827e-05 4.12685e-06)
(6.33041e-07 -8.29311e-07 3.25457e-07)
(4.38366e-08 -5.26512e-08 2.14986e-08)
(206.74 -575.115 395.911)
(111.009 -224.587 142.378)
(0.749162 -1.47435 0.750797)
(0.00213581 -0.00378073 0.00183962)
(8.09197e-05 -0.000114881 5.49069e-05)
(1.15694e-05 -1.24517e-05 6.37937e-06)
(7.67267e-07 -7.63081e-07 3.59215e-07)
(216.019 -537.757 365.374)
(371.423 -723.208 504.436)
(475.204 -736.259 504.087)
(22.0523 -30.3154 19.1085)
(0.0107763 -0.0135395 0.00739246)
(0.000137223 -0.000134735 7.80309e-05)
(1.09293e-05 -9.45613e-06 5.56123e-06)
(81.1079 -148.608 100.185)
(151.269 -222.877 155.054)
(346.732 -479.314 364.521)
(592.031 -694.157 531.887)
(85.7055 -87.5584 64.7152)
(0.015228 -0.0130173 0.00852739)
(0.00010788 -7.43831e-05 5.28787e-05)
(63.2796 -98.5266 77.9109)
(84.2028 -105.268 102.546)
(157.229 -168.969 134.691)
(374.02 -384.042 329.003)
(677.76 -606.529 530.19)
(42.3701 -32.7088 27.5015)
(0.00410433 -0.00247072 0.00199171)
(51.8385 -52.1379 76.7358)
(127.628 -117.346 168.725)
(192.291 -152.68 141.727)
(456.081 -349.664 352.605)
(742.406 -505.314 517.356)
(2.87685 -1.52545 1.51202)
(114.8 -76.964 87.6976)
(275.078 -153.189 180.961)
(232.415 -100.849 186.818)
(0.0227896 -0.00868479 0.0167766)
(7.55993e-07 -2.26194e-06 1.15903e-06)
(2.50422e-07 -7.13633e-07 3.52474e-07)
(5.78267e-08 -1.46571e-07 7.1781e-08)
(1.09005e-08 -2.38394e-08 1.13034e-08)
(1.56801e-09 -2.78573e-09 1.32037e-09)
(1.73549e-10 -2.51605e-10 1.20636e-10)
(1.33952e-11 -1.88682e-11 9.10518e-12)
(1.40636e-05 -4.22525e-05 2.56665e-05)
(4.64551e-06 -1.20092e-05 6.94265e-06)
(1.12095e-06 -2.6543e-06 1.41718e-06)
(2.15478e-07 -4.77223e-07 2.35524e-07)
(3.07519e-08 -5.45952e-08 2.67553e-08)
(3.33472e-09 -4.7669e-09 2.35161e-09)
(2.52156e-10 -3.46256e-10 1.71815e-10)
(0.000378793 -0.00121001 0.000889134)
(6.46318e-05 -0.000186817 0.000112056)
(2.13451e-05 -4.22114e-05 2.85912e-05)
(4.41246e-06 -8.8088e-06 5.31051e-06)
(5.91204e-07 -9.47749e-07 5.34304e-07)
(6.01082e-08 -7.7e-08 4.32609e-08)
(4.35906e-09 -5.2423e-09 2.9539e-09)
(0.890234 -2.60522 2.09251)
(0.0195649 -0.0507684 0.0383939)
(0.000738 -0.00132528 0.00104564)
(5.3287e-05 -9.07344e-05 6.32838e-05)
(1.09302e-05 -1.3951e-05 1.00211e-05)
(1.04168e-06 -1.13224e-06 7.68912e-07)
(6.97971e-08 -7.03821e-08 4.68766e-08)
(177.111 -463.007 420.797)
(142.855 -276.081 243.428)
(1.6669 -2.70783 2.41843)
(0.00387821 -0.00596114 0.00490928)
(0.000127284 -0.000148783 0.000126134)
(1.43821e-05 -1.29188e-05 1.10993e-05)
(9.83936e-07 -7.94494e-07 6.63319e-07)
(221.204 -498.184 462.973)
(369.142 -655.793 627.098)
(424.438 -598.472 594.603)
(19.3412 -23.1745 23.3597)
(0.0127634 -0.0133731 0.0135231)
(0.000146566 -0.000114543 0.00012027)
(1.02983e-05 -7.17262e-06 7.6394e-06)
(118.895 -222.329 256.76)
(136.425 -176.543 229.564)
(381.587 -468.651 509.606)
(539.658 -555.08 623.505)
(27.4179 -24.2432 28.1813)
(0.00740426 -0.00520481 0.00631482)
(6.74946e-05 -4.02009e-05 5.07653e-05)
(66.0103 -75.0032 162.531)
(122.48 -121.996 209.882)
(153.599 -140.178 217.77)
(443.681 -387.488 494.309)
(599.657 -452.008 604.369)
(4.63888 -3.0147 4.24583)
(0.00132186 -0.000656038 0.000965049)
(218.666 -137.4 255.544)
(92.1491 -44.92 81.9064)
(0.0238211 -0.00898801 0.0212002)
(0.000502795 -0.000226804 0.000406782)
(9.08596e-08 -2.65657e-07 1.34117e-07)
(2.66353e-08 -7.20953e-08 3.73797e-08)
(5.86618e-09 -1.45373e-08 7.72759e-09)
(1.06368e-09 -2.19823e-09 1.19546e-09)
(1.48212e-10 -2.50969e-10 1.38992e-10)
(1.61568e-11 -2.2787e-11 1.27806e-11)
(1.23748e-12 -1.73259e-12 9.33274e-13)
(1.5885e-06 -4.53975e-06 2.42902e-06)
(4.89926e-07 -1.2946e-06 7.14914e-07)
(1.08728e-07 -2.61031e-07 1.44651e-07)
(1.97781e-08 -4.06874e-08 2.30028e-08)
(2.75607e-09 -4.64271e-09 2.6574e-09)
(2.98334e-10 -4.15487e-10 2.39341e-10)
(2.27503e-11 -3.10529e-11 1.79396e-11)
(2.52605e-05 -6.60684e-05 4.40676e-05)
(7.66701e-06 -1.7112e-05 1.10038e-05)
(1.81572e-06 -3.75432e-06 2.42652e-06)
(3.40424e-07 -6.4157e-07 4.22281e-07)
(4.70529e-08 -7.18905e-08 4.73475e-08)
(5.00227e-09 -6.24303e-09 4.09402e-09)
(3.75618e-10 -4.53534e-10 2.96107e-10)
(0.000499223 -0.00145285 0.00121173)
(8.87788e-05 -0.000206059 0.000150987)
(2.69867e-05 -4.7071e-05 3.68492e-05)
(5.71993e-06 -9.53038e-06 7.57929e-06)
(7.54845e-07 -1.00198e-06 8.01698e-07)
(7.65482e-08 -8.28671e-08 6.46432e-08)
(5.57516e-09 -5.76777e-09 4.38959e-09)
(0.00196272 -0.00513941 0.00374794)
(0.0105546 -0.0236991 0.0234333)
(0.000655465 -0.00101705 0.000978655)
(5.62851e-05 -7.62762e-05 7.13069e-05)
(1.08989e-05 -1.19128e-05 1.10731e-05)
(1.03223e-06 -9.23465e-07 8.97801e-07)
(7.18748e-08 -6.10346e-08 5.66289e-08)
(123 -271.992 214.483)
(42.0895 -70.6091 64.4169)
(0.343826 -0.474928 0.563224)
(0.0018489 -0.00223114 0.00255807)
(8.37583e-05 -8.09504e-05 9.12086e-05)
(1.12113e-05 -8.19858e-06 9.30278e-06)
(7.42026e-07 -5.09118e-07 5.84113e-07)
(177.499 -346.787 312.176)
(316.992 -480.333 438.975)
(249.48 -307.473 309.355)
(1.44568 -1.50663 2.08069)
(0.00225366 -0.00193197 0.00261067)
(6.69787e-05 -4.4409e-05 5.73411e-05)
(5.84406e-06 -3.41913e-06 4.63138e-06)
(90.4597 -113.506 155.743)
(128.05 -142.414 185.663)
(247.177 -224.177 276.195)
(323.006 -283.647 334.176)
(0.717468 -0.555208 0.863941)
(0.0010134 -0.000620313 0.00094247)
(2.59065e-05 -1.49295e-05 2.01605e-05)
(222.118 -191.372 249.872)
(338.868 -206.295 315.084)
(0.0213336 -0.00924852 0.0167169)
(0.000766642 -0.000313621 0.000532693)
(7.46815e-05 -3.45558e-05 6.10338e-05)
(9.18522e-09 -2.64682e-08 1.48965e-08)
(2.48013e-09 -6.50933e-09 3.77163e-09)
(5.27486e-10 -1.25534e-09 7.51462e-10)
(9.15546e-11 -1.80016e-10 1.11163e-10)
(1.22695e-11 -2.00464e-11 1.26139e-11)
(1.25426e-12 -1.80023e-12 1.11195e-12)
(8.56441e-14 -1.25813e-13 6.82121e-14)
(1.59748e-07 -4.59805e-07 2.61925e-07)
(4.49362e-08 -1.17896e-07 6.94024e-08)
(9.53301e-09 -2.26603e-08 1.37519e-08)
(1.65555e-09 -3.25668e-09 2.05034e-09)
(2.22546e-10 -3.61164e-10 2.32671e-10)
(2.36957e-11 -3.23506e-11 2.1073e-11)
(1.79246e-12 -2.39769e-12 1.56348e-12)
(2.54963e-06 -6.5614e-06 4.18996e-06)
(7.50124e-07 -1.81375e-06 1.16071e-06)
(1.58885e-07 -3.39043e-07 2.26413e-07)
(2.73909e-08 -4.886e-08 3.44093e-08)
(3.65303e-09 -5.3643e-09 3.88244e-09)
(3.85171e-10 -4.72948e-10 3.45749e-10)
(2.90843e-11 -3.52213e-11 2.57971e-11)
(3.64585e-05 -8.40503e-05 6.16095e-05)
(1.15317e-05 -2.49361e-05 1.68633e-05)
(2.43413e-06 -4.46908e-06 3.28407e-06)
(4.15483e-07 -6.52669e-07 5.30754e-07)
(5.44082e-08 -7.0367e-08 5.88066e-08)
(5.6291e-09 -6.05757e-09 5.08898e-09)
(4.194e-10 -4.41233e-10 3.69337e-10)
(9.10345e-05 -0.000258003 0.000217143)
(0.000116438 -0.000250319 0.000193071)
(3.26489e-05 -4.85723e-05 4.05587e-05)
(5.71283e-06 -7.43913e-06 7.3157e-06)
(7.16139e-07 -7.85817e-07 7.78431e-07)
(7.18591e-08 -6.54196e-08 6.50549e-08)
(5.25025e-09 -4.64668e-09 4.55614e-09)
(0.00202178 -0.00433281 0.00421605)
(0.00720755 -0.0140748 0.0121876)
(0.000548149 -0.00082435 0.000811911)
(5.95888e-05 -6.49381e-05 6.35078e-05)
(7.74856e-06 -7.09328e-06 8.3075e-06)
(7.59201e-07 -5.69172e-07 6.70266e-07)
(5.42395e-08 -3.94554e-08 4.57156e-08)
(76.1533 -143.701 146.615)
(17.8259 -24.8375 24.7803)
(0.0838864 -0.106061 0.113187)
(0.00115441 -0.0011347 0.00125282)
(6.01118e-05 -4.63667e-05 5.43548e-05)
(6.1345e-06 -3.8972e-06 5.20135e-06)
(4.34251e-07 -2.62741e-07 3.48419e-07)
(199.524 -332.927 404.789)
(292.973 -372.772 437.789)
(75.8054 -78.8056 87.6437)
(0.132886 -0.116125 0.150064)
(0.000786533 -0.000513761 0.000778752)
(3.4535e-05 -1.9814e-05 2.63003e-05)
(2.60568e-06 -1.35599e-06 1.99688e-06)
(332.819 -239.138 422.608)
(324.513 -199.911 337.408)
(0.000602543 -0.000283872 0.000584204)
(0.000131346 -5.84963e-05 0.000104083)
(1.40058e-05 -6.09616e-06 1.06204e-05)
(7.47386e-10 -2.07546e-09 1.39398e-09)
(1.93661e-10 -4.92419e-10 3.35619e-10)
(4.02843e-11 -9.19058e-11 6.38839e-11)
(6.76919e-12 -1.28072e-11 9.07259e-12)
(8.49443e-13 -1.40043e-12 9.64538e-13)
(7.15689e-14 -1.13876e-13 7.1528e-14)
(0 -1.89478e-15 9.4739e-16)
(1.27624e-08 -3.59319e-08 2.44912e-08)
(3.38519e-09 -8.63459e-09 5.98501e-09)
(7.06659e-10 -1.62413e-09 1.14531e-09)
(1.19589e-10 -2.27048e-10 1.63402e-10)
(1.57184e-11 -2.48606e-11 1.81319e-11)
(1.61032e-12 -2.18253e-12 1.59787e-12)
(1.11792e-13 -1.4232e-13 1.02413e-13)
(1.97791e-07 -5.05581e-07 3.85861e-07)
(5.40872e-08 -1.26399e-07 9.83962e-08)
(1.13188e-08 -2.3784e-08 1.86937e-08)
(1.91573e-09 -3.31493e-09 2.66329e-09)
(2.51529e-10 -3.6044e-10 2.93969e-10)
(2.64109e-11 -3.20583e-11 2.62913e-11)
(1.99615e-12 -2.3754e-12 1.94765e-12)
(2.7535e-06 -6.15454e-06 5.40163e-06)
(7.98674e-07 -1.69285e-06 1.49654e-06)
(1.65908e-07 -3.10126e-07 2.75565e-07)
(2.78755e-08 -4.28435e-08 3.91969e-08)
(3.62258e-09 -4.59788e-09 4.28069e-09)
(3.76112e-10 -4.03362e-10 3.76825e-10)
(2.83101e-11 -3.01778e-11 2.80602e-11)
(3.21312e-05 -6.36224e-05 6.35721e-05)
(1.08273e-05 -2.01331e-05 2.08309e-05)
(2.19046e-06 -3.45786e-06 3.54545e-06)
(3.59895e-07 -4.7403e-07 5.04791e-07)
(4.58565e-08 -4.99737e-08 5.4374e-08)
(4.67848e-09 -4.29999e-09 4.68837e-09)
(3.48545e-10 -3.1687e-10 3.42293e-10)
(5.74471e-05 -0.000132263 0.000166407)
(8.4131e-05 -0.00014638 0.000168233)
(2.3566e-05 -3.01332e-05 3.50838e-05)
(3.87596e-06 -4.25174e-06 5.18802e-06)
(4.88748e-07 -4.43994e-07 5.71914e-07)
(4.88055e-08 -3.73242e-08 4.83011e-08)
(3.59026e-09 -2.70886e-09 3.46324e-09)
(0.0018215 -0.00298442 0.00438012)
(0.00259064 -0.00389146 0.00500317)
(0.000214946 -0.000256676 0.000348879)
(3.15234e-05 -2.87869e-05 4.01528e-05)
(4.08208e-06 -3.03656e-06 4.55664e-06)
(4.03669e-07 -2.52448e-07 3.88426e-07)
(2.94163e-08 -1.81502e-08 2.76859e-08)
(3.31661 -5.40623 8.24614)
(0.980563 -1.24005 1.8402)
(0.00703314 -0.00759242 0.0118967)
(0.000248003 -0.000204207 0.00033336)
(2.4677e-05 -1.55714e-05 2.66313e-05)
(2.45182e-06 -1.3091e-06 2.33791e-06)
(1.79658e-07 -9.43085e-08 1.68082e-07)
(38.2871 -28.0213 54.0959)
(0.00018749 -0.000113397 0.000284312)
(0.000104092 -5.45849e-05 0.000115059)
(1.13971e-05 -5.55531e-06 1.18558e-05)
(7.92146e-07 -3.93677e-07 7.58749e-07)
(5.12548e-11 -1.36189e-10 1.07576e-10)
(1.29454e-11 -3.20121e-11 2.53514e-11)
(2.62959e-12 -5.85563e-12 4.64136e-12)
(3.90392e-13 -7.85766e-13 6.06709e-13)
(3.54559e-14 -7.50333e-14 5.50434e-14)
(9.43751e-16 -9.4739e-16 6.63173e-16)
(0 0 0)
(8.51766e-10 -2.31141e-09 1.85603e-09)
(2.20154e-10 -5.46235e-10 4.39542e-10)
(4.55057e-11 -1.01245e-10 8.19015e-11)
(7.52849e-12 -1.3938e-11 1.13613e-11)
(9.26931e-13 -1.48048e-12 1.20641e-12)
(7.61378e-14 -1.07685e-13 9.18021e-14)
(0 0 2.179e-15)
(1.27459e-08 -3.17442e-08 2.8807e-08)
(3.3743e-09 -7.60655e-09 6.91673e-09)
(7.02426e-10 -1.43191e-09 1.29913e-09)
(1.17925e-10 -1.98898e-10 1.8129e-10)
(1.53943e-11 -2.16788e-11 1.98424e-11)
(1.56907e-12 -1.88748e-12 1.73732e-12)
(1.09708e-13 -1.20403e-13 1.1255e-13)
(1.68867e-07 -3.7294e-07 3.93303e-07)
(4.65074e-08 -9.29168e-08 9.84276e-08)
(9.75546e-09 -1.78412e-08 1.86073e-08)
(1.65054e-09 -2.48727e-09 2.59289e-09)
(2.15588e-10 -2.70146e-10 2.81785e-10)
(2.25447e-11 -2.41346e-11 2.50664e-11)
(1.70057e-12 -1.78802e-12 1.85442e-12)
(1.87415e-06 -3.54491e-06 4.42632e-06)
(5.59597e-07 -9.64613e-07 1.25206e-06)
(1.18704e-07 -1.88369e-07 2.33692e-07)
(2.02447e-08 -2.64706e-08 3.24552e-08)
(2.63782e-09 -2.86067e-09 3.49242e-09)
(2.74569e-10 -2.54097e-10 3.07123e-10)
(2.08032e-11 -1.93011e-11 2.3007e-11)
(1.49123e-05 -2.61531e-05 3.52459e-05)
(5.57113e-06 -7.90596e-06 1.31641e-05)
(1.20219e-06 -1.57771e-06 2.41029e-06)
(2.07901e-07 -2.27547e-07 3.39122e-07)
(2.71157e-08 -2.46225e-08 3.62446e-08)
(2.80414e-09 -2.17617e-09 3.1455e-09)
(2.11851e-10 -1.65057e-10 2.33182e-10)
(3.1e-05 -6.35185e-05 0.000107269)
(3.45901e-05 -4.2702e-05 7.22704e-05)
(8.71691e-06 -9.09132e-06 1.72171e-05)
(1.6418e-06 -1.46671e-06 2.75098e-06)
(2.19113e-07 -1.61997e-07 2.96985e-07)
(2.27668e-08 -1.44519e-08 2.56244e-08)
(1.72481e-09 -1.10437e-09 1.88891e-09)
(0.000177558 -0.0003116 0.000641276)
(0.000358397 -0.000425963 0.000840757)
(4.45773e-05 -3.92047e-05 8.2913e-05)
(8.64232e-06 -6.92693e-06 1.55693e-05)
(1.24526e-06 -8.14833e-07 1.74843e-06)
(1.33961e-07 -7.41982e-08 1.5426e-07)
(1.04416e-08 -5.73009e-09 1.1556e-08)
(0.00118788 -0.000968255 0.00205257)
(3.08489e-05 -2.13685e-05 4.79286e-05)
(4.88956e-06 -3.00056e-06 7.16901e-06)
(5.58554e-07 -2.99384e-07 6.66327e-07)
(4.56168e-08 -2.42426e-08 5.13512e-08)
(2.9551e-12 -7.88968e-12 6.43344e-12)
(6.89211e-13 -1.83907e-12 1.49574e-12)
(1.16511e-13 -3.10555e-13 2.58164e-13)
(9.03216e-15 -3.06954e-14 2.50111e-14)
(3.44554e-16 0 0)
(7.99965e-18 0 0)
(0 0 0)
(4.9573e-11 -1.29402e-10 1.07564e-10)
(1.25743e-11 -3.05531e-11 2.52761e-11)
(2.5345e-12 -5.54223e-12 4.62677e-12)
(3.69e-13 -7.07322e-13 6.20351e-13)
(3.21632e-14 -6.13909e-14 5.99698e-14)
(7.66756e-16 0 6.63173e-16)
(0 0 0)
(7.19324e-10 -1.72239e-09 1.63708e-09)
(1.86942e-10 -4.11839e-10 3.87226e-10)
(3.88542e-11 -7.69739e-11 7.18305e-11)
(6.43283e-12 -1.06345e-11 9.92458e-12)
(7.8218e-13 -1.10977e-12 1.08173e-12)
(6.39545e-14 -7.92018e-14 8.69704e-14)
(0 0 1.80004e-15)
(9.19624e-09 -1.9676e-08 2.1987e-08)
(2.45969e-09 -4.80172e-09 5.28749e-09)
(5.1874e-10 -9.2281e-10 9.99056e-10)
(8.78599e-11 -1.2989e-10 1.38833e-10)
(1.14972e-11 -1.42734e-11 1.51206e-11)
(1.15648e-12 -1.239e-12 1.3488e-12)
(7.63597e-14 -7.50333e-14 9.0381e-14)
(9.88331e-08 -1.83135e-07 2.4627e-07)
(2.77653e-08 -4.63122e-08 6.21729e-08)
(5.98501e-09 -9.29314e-09 1.20902e-08)
(1.03423e-09 -1.33462e-09 1.69335e-09)
(1.37088e-10 -1.48197e-10 1.84043e-10)
(1.4496e-11 -1.3513e-11 1.6449e-11)
(1.10333e-12 -1.00272e-12 1.248e-12)
(8.22385e-07 -1.3596e-06 2.12235e-06)
(2.53343e-07 -3.5035e-07 5.92137e-07)
(5.67325e-08 -7.40632e-08 1.20579e-07)
(1.01245e-08 -1.10247e-08 1.72537e-08)
(1.36362e-09 -1.24525e-09 1.87763e-09)
(1.45625e-10 -1.14857e-10 1.67142e-10)
(1.12669e-11 -8.98372e-12 1.27194e-11)
(5.26177e-06 -7.30546e-06 1.45829e-05)
(1.67216e-06 -1.98455e-06 3.77367e-06)
(4.09618e-07 -4.30324e-07 8.92395e-07)
(7.65048e-08 -6.82367e-08 1.36493e-07)
(1.06691e-08 -8.01032e-09 1.51523e-08)
(1.16254e-09 -7.57177e-10 1.35647e-09)
(9.11119e-11 -6.03526e-11 1.03547e-10)
(2.33763e-05 -2.92367e-05 6.15677e-05)
(7.32802e-06 -7.58385e-06 1.62753e-05)
(1.98459e-06 -1.82553e-06 4.0139e-06)
(3.94567e-07 -3.21281e-07 7.42172e-07)
(5.91803e-08 -3.95753e-08 8.73985e-08)
(6.81613e-09 -3.84976e-09 8.1567e-09)
(5.56081e-10 -3.10802e-10 6.41625e-10)
(6.55816e-06 -5.391e-06 1.2131e-05)
(1.50155e-06 -1.09379e-06 2.55776e-06)
(2.35747e-07 -1.52272e-07 3.4991e-07)
(2.8894e-08 -1.593e-08 3.53405e-08)
(2.47214e-09 -1.31456e-09 2.90673e-09)
(45.401 -58.1361 3.59839)
(4.73327 -16.1653 -0.931601)
(21.4931 -29.0031 1.76719)
(26.9551 -38.2783 6.76719)
(50.0847 -61.4844 12.1154)
(6.2295 -11.6046 -1.80984)
(23.8817 -27.7806 5.21868)
(50.2735 -47.875 2.90126)
(5.70188 -7.28312 -1.86845)
(28.9748 -24.2948 1.83395)
(23.841 -26.219 5.26414)
(54.2291 -51.3328 11.1083)
(5.01415 -6.95919 -1.6688)
(29.3276 -26.6472 5.54124)
(52.6458 -87.3349 4.56366)
(12.4342 -38.4607 -0.0178755)
(25.19 -45.2816 2.57809)
(35.7063 -68.5686 12.9705)
(56.5088 -93.4599 17.0653)
(15.4605 -31.7496 1.64224)
(28.8216 -43.8513 7.74078)
(7.0078 -8.35186 -1.01574)
(11.8108 -14.0962 -0.373424)
(13.6268 -13.4501 -0.202364)
(10.5948 -12.9522 -1.09408)
(12.3892 -12.5902 -0.966847)
(17.4563 -18.3528 -0.0303594)
(18.6179 -19.1904 0.476083)
(55.7862 -68.9356 18.2533)
(9.32647 -14.2306 1.44402)
(28.2032 -32.5213 9.80067)
(62.6571 -88.3725 35.299)
(97.3573 -121.208 53.4471)
(32.8194 -40.6168 17.5359)
(61.0901 -68.5433 30.4018)
(14.5879 -15.4688 4.60327)
(28.3936 -30.8356 9.69685)
(61.0102 -57.4229 16.94)
(34.9312 -30.9546 10.1563)
(62.2085 -65.1968 29.9643)
(108.562 -101.084 50.7057)
(58.8343 -51.8041 25.5587)
(4.16277 -14.3778 -1.93097)
(9.93643 -19.9674 -0.11477)
(9.2932 -18.3615 -0.976835)
(10.5812 -23.4595 0.00873619)
(10.0935 -21.7199 -0.791643)
(15.438 -25.7923 0.392845)
(15.7778 -27.3193 1.00861)
(4.68831 -6.59522 -2.17735)
(10.7116 -12.5602 0.427014)
(12.108 -13.1176 0.569442)
(9.80444 -12.2158 -0.400232)
(11.5006 -12.2417 -0.336542)
(16.899 -18.063 1.51437)
(18.0494 -18.8903 2.98329)
(4.50457 -12.1446 -1.74454)
(11.3801 -16.4976 0.290814)
(9.55768 -16.6602 -0.0879603)
(12.7087 -19.6478 0.708823)
(10.6749 -19.8484 0.381689)
(16.0451 -24.5204 2.1854)
(18.2008 -24.6535 3.13144)
(61.7475 -104.052 24.8537)
(19.6185 -35.2318 5.88826)
(35.3321 -56.2069 16.2426)
(67.4221 -139.672 52.039)
(99.3023 -171.964 69.8568)
(47.8426 -80.4498 29.177)
(63.9691 -98.3703 38.2057)
(30.2709 -31.5356 51.26)
(79.1273 -78.9899 134.414)
(61.5966 -63.8489 121.284)
(57.2832 -68.4382 68.1208)
(90.913 -101.696 88.3218)
(76.1691 -88.6475 137.703)
(170.183 -183.39 211.588)
(54.2721 -78.5959 151.855)
(63.4578 -80.4869 154.856)
(25.7773 -26.2228 107.03)
(90.1287 -146.731 189.905)
(143.384 -193.955 229.925)
(53.2344 -74.3011 133.254)
(77.8045 -96.7224 155.326)
(12.3204 -36.1209 -0.470095)
(16.2251 -39.8509 0.723834)
(16.1098 -37.7368 0.336363)
(19.1997 -48.0411 1.28071)
(19.1577 -45.6821 1.11112)
(23.2751 -47.4902 1.97861)
(23.0446 -49.4101 2.11478)
(76.8037 -114.006 86.6588)
(36.6926 -49.8857 56.2813)
(58.7513 -75.9201 70.2604)
(101.567 -184.896 197.229)
(164.854 -250.064 245.393)
(53.0857 -80.2492 127.347)
(78.1958 -108.326 148.475)
(108.732 -114.818 7.20411)
(28.5463 -34.6048 2.37181)
(60.6455 -59.3604 3.73705)
(61.5921 -72.9163 14.2013)
(117.163 -124.632 26.9299)
(31.4798 -34.6945 7.33294)
(65.7157 -63.8097 13.4069)
(16.9415 -20.2339 0.426176)
(22.059 -25.871 1.06371)
(15.9469 -19.0807 -0.0728933)
(23.18 -24.783 0.928806)
(29.9759 -32.9138 1.72504)
(30.0735 -31.9139 2.03346)
(24.0807 -25.5407 1.02833)
(15.4341 -24.2192 0.858816)
(21.4783 -27.8502 1.28067)
(14.9649 -22.8074 0.204466)
(21.5766 -30.552 1.47891)
(28.0754 -37.0013 2.69904)
(28.8425 -36.1393 2.39188)
(21.4749 -31.7585 1.95427)
(13.3115 -33.0126 1.61364)
(19.2007 -34.9338 3.57164)
(17.0331 -35.4163 2.83915)
(21.9094 -42.391 5.31982)
(19.9882 -43.0456 4.27815)
(24.1305 -45.6742 5.44263)
(26.096 -45.8982 7.25036)
(7.83285 -9.54073 1.38836)
(14.0689 -15.7361 3.75011)
(15.766 -16.2751 3.92158)
(21.5292 -22.4205 7.19736)
(23.6205 -22.9068 7.4735)
(22.3065 -22.7236 6.7716)
(30.9805 -30.3582 10.3298)
(131.77 -107.854 7.7712)
(38.3247 -30.8342 2.70638)
(81.1193 -60.6838 4.42551)
(69.3631 -62.8581 13.6154)
(143.437 -116.049 29.1685)
(37.8179 -32.718 5.16903)
(89.1922 -64.8695 16.0288)
(20.883 -18.6418 0.820188)
(28.0756 -24.5116 1.39976)
(19.7513 -18.2143 0.224062)
(25.1968 -24.3969 1.12758)
(34.9539 -30.5891 2.38522)
(34.1741 -31.3905 2.24056)
(26.2321 -24.4749 1.48909)
(15.9713 -20.7238 5.26074)
(14.7457 -19.7192 3.84992)
(16.3082 -23.0636 4.37458)
(21.79 -27.1661 7.72886)
(23.4083 -31.0352 8.55217)
(22.1056 -28.8006 7.26747)
(29.841 -37.8802 11.3103)
(109.73 -150.309 8.3316)
(30.7764 -49.6778 3.28484)
(57.4731 -72.3849 4.2289)
(67.0193 -106.467 19.4277)
(117.128 -164.511 33.0195)
(32.9075 -48.3248 6.802)
(61.9381 -78.596 15.0474)
(16.7419 -31.2335 1.17352)
(23.723 -38.4551 2.01281)
(16.5297 -29.6262 0.640708)
(22.3389 -34.0318 1.74832)
(29.2864 -44.4051 3.09179)
(30.3056 -43.5171 2.92532)
(22.1314 -35.2868 2.158)
(22.0636 -25.4594 3.26)
(16.9296 -18.9407 2.90251)