/*--------------------------------*- C++ -*----------------------------------*\
  =========                 |
  \\      /  F ield         | OpenFOAM: The Open Source CFD Toolbox
   \\    /   O peration     | Website:  https://openfoam.org
    \\  /    A nd           | Version:  9
     \\/     M anipulation  |
\*---------------------------------------------------------------------------*/
FoamFile
{
    format      ascii;
    class       volVectorField;
    location    "0.00035";
    object      U;
}
// * * * * * * * * * * * * * * * * * * * * * * * * * * * * * * * * * * * * * //

dimensions      [0 1 -1 0 0 0 0];

internalField   nonuniform List<vector> 
4874
(
(0 0 1.30432e-17)
(0 3.02461e-16 5.27537e-15)
(0 0 -2.09908e-16)
(0 0 7.32816e-17)
(0 0 9.6749e-16)
(0 7.82611e-16 -2.4903e-14)
(0 7.82611e-16 -2.85793e-15)
(-2.02585e-15 2.6655e-17 3.3782e-15)
(7.84291e-15 8.95831e-16 7.58843e-17)
(-2.95061e-18 -3.9443e-16 1.49709e-17)
(0 -9.71289e-17 3.04013e-16)
(-5.8737e-18 7.18166e-19 8.91478e-15)
(1.57753e-17 0 -1.76591e-18)
(0 0 -4.23509e-15)
(-1.86972e-26 0 -5.01408e-15)
(0 1.34869e-15 -4.92031e-15)
(0 1.21926e-15 -3.56126e-15)
(0 0 -6.13186e-16)
(6.15526e-23 -1.11163e-14 7.93289e-15)
(-1.99184e-18 2.41816e-18 -3.14785e-15)
(0 0 0)
(6.92502e-16 0 -2.23313e-15)
(2.93335e-24 0 9.60544e-19)
(0 0 1.0566e-14)
(-1.31059e-19 0 2.9423e-15)
(9.90103e-24 -7.4907e-21 0)
(-7.95907e-20 -1.1499e-14 6.14351e-16)
(-4.64171e-18 1.35255e-15 2.58692e-15)
(-9.31245e-19 0 -1.62228e-15)
(-8.15634e-23 0 -2.27566e-14)
(0 0 -3.41798e-15)
(-7.82125e-18 1.44183e-15 2.55696e-15)
(-2.29855e-21 0 -1.30604e-14)
(0 0 -2.82436e-16)
(-1.08582e-19 9.18842e-17 0)
(-8.08261e-18 1.36978e-15 3.0232e-17)
(0 8.58539e-17 0)
(-4.44701e-18 1.42283e-15 0)
(1.02019e-23 -5.2586e-21 0)
(3.66322e-23 -1.02154e-22 1.09282e-23)
(4.14078e-24 -4.55282e-22 0)
(0 0 -4.07504e-18)
(0 -5.34039e-24 -3.2713e-16)
(0 0 2.87209e-26)
(6.38367e-16 0 6.71274e-24)
(0 -7.70714e-15 0)
(0 -3.23118e-19 1.5238e-15)
(-4.63994e-19 -3.19736e-19 5.19726e-15)
(-3.12343e-16 -1.20817e-22 5.1833e-15)
(0 0 0)
(-1.60645e-19 0 0)
(0 0 0)
(0 0 0)
(-1.05577e-20 0 0)
(-1.67496e-22 0 0)
(-6.36469e-41 -4.54296e-26 -1.19882e-25)
(0 0 -4.89406e-19)
(-4.64859e-18 0 6.03008e-15)
(0 0 5.66566e-15)
(0 0 3.93577e-16)
(-9.2025e-19 0 4.32377e-16)
(-2.28596e-20 0 3.9077e-16)
(-2.25321e-19 -1.14611e-18 -3.64684e-16)
(0 0 0)
(-4.22719e-21 0 0)
(0 0 0)
(0 0 0)
(-2.5174e-26 0 0)
(1.34193e-45 0 0)
(-1.11336e-38 0 -1.93953e-19)
(0 0 -1.01809e-20)
(-2.97383e-19 0 -3.18906e-19)
(0 0 -2.22777e-18)
(0 0 -1.03194e-17)
(-2.82333e-24 0 0)
(8.18434e-42 0 0)
(-1.42625e-19 -1.46479e-20 7.70033e-16)
(0 0 0)
(0 0 0)
(0 0 0)
(0 0 0)
(0 0 0)
(0 0 0)
(-7.62982e-35 0 0)
(0 0 0)
(0 0 0)
(0 0 0)
(0 0 0)
(0 0 1.79737e-17)
(0 0 -1.79737e-17)
(-1.18619e-21 -1.37613e-22 0)
(0 0 0)
(0 0 0)
(0 0 0)
(0 0 0)
(0 0 0)
(0 0 0)
(0 0 0)
(0 0 0)
(0 0 0)
(0 0 0)
(0 0 0)
(0 0 0)
(0 0 0)
(0 0 2.25577e-48)
(0 0 0)
(0 0 0)
(0 0 0)
(0 0 0)
(0 0 0)
(0 0 0)
(0 0 0)
(0 0 0)
(0 0 0)
(0 0 0)
(0 0 0)
(0 0 0)
(0 0 0)
(0 0 0)
(-7.67488e-20 -3.19366e-21 1.63899e-15)
(-7.95826e-22 -2.24664e-14 3.31192e-16)
(-3.56794e-19 -4.41067e-16 3.67569e-18)
(9.37561e-17 -1.7105e-24 1.44269e-15)
(0 0 -2.6901e-18)
(0 0 0)
(0 -5.30171e-19 0)
(0 0 0)
(0 0 1.02838e-45)
(0 0 0)
(0 0 0)
(-2.98382e-16 0 -1.59109e-14)
(0 0 -4.86133e-15)
(-5.54276e-18 0 1.36458e-14)
(-4.23228e-21 0 5.63365e-15)
(-4.5351e-17 7.3193e-15 6.78339e-15)
(-3.56794e-19 -2.21386e-14 1.23675e-16)
(-2.1145e-14 2.15679e-14 1.15651e-14)
(0 6.14961e-16 1.11054e-14)
(0 1.508e-17 0)
(0 2.58246e-17 -1.72219e-14)
(0 7.36585e-16 9.7775e-21)
(0 -2.22894e-19 5.29371e-34)
(0 0 3.43301e-43)
(0 0 0)
(0 -1.19526e-16 5.31667e-40)
(0 0 9.7659e-49)
(0 0 0)
(0 0 -1.06605e-14)
(0 1.69218e-14 1.07055e-15)
(0 -1.16687e-15 -2.25101e-14)
(0 0 4.61391e-15)
(0 0 0)
(0 0 -1.01919e-18)
(0 0 5.02709e-18)
(0 0 2.12849e-14)
(0 0 -2.31534e-14)
(0 0 -1.64122e-14)
(0 0 7.83673e-15)
(3.38426e-15 0 -1.39713e-14)
(-3.14158e-15 0 -2.00597e-14)
(2.46633e-16 2.66019e-18 7.59628e-15)
(-2.1934e-16 3.48805e-18 6.28536e-15)
(3.12872e-15 0 -1.7128e-14)
(-3.78665e-25 0 1.88026e-14)
(6.35152e-20 0 2.02037e-14)
(-2.74326e-15 0 4.33217e-18)
(-6.17126e-24 0 7.10474e-15)
(-7.55065e-20 0 7.04441e-16)
(2.58536e-15 -2.20413e-14 -1.12362e-14)
(-2.44164e-15 0 -2.13363e-14)
(6.46637e-16 0 -1.3232e-16)
(-3.41256e-15 -2.49192e-18 -3.46488e-16)
(-1.08808e-16 -5.02675e-15 -9.60775e-16)
(0 1.24266e-14 -7.25167e-15)
(1.42291e-17 4.70401e-15 1.63828e-15)
(0 0 -1.65885e-18)
(3.94126e-16 3.36236e-34 0)
(0 0 4.54257e-20)
(0 0 -5.33598e-16)
(0 -4.76225e-16 -1.15592e-14)
(-6.79001e-22 -8.31584e-15 -6.05181e-15)
(0 0 -8.49228e-17)
(0 0 0)
(0 0 0)
(0 -3.92012e-16 1.12909e-24)
(0 -9.95994e-18 0)
(0 -4.33644e-17 0)
(0 -1.24716e-16 2.69441e-22)
(-4.12824e-23 0 -2.23681e-18)
(0 0 0)
(0 0 0)
(0 -1.64582e-15 4.31678e-27)
(0 -5.76745e-17 -8.76497e-16)
(0 -1.36201e-16 0)
(0 -3.57676e-16 -1.2169e-25)
(0 -1.00765e-39 3.46849e-16)
(0 0 2.21408e-18)
(0 0 -3.39005e-16)
(0 5.41376e-23 3.35695e-15)
(0 -1.87019e-21 2.69732e-16)
(0 -1.62668e-20 -7.32948e-16)
(0 -1.92042e-19 1.6888e-16)
(0 -2.53129e-37 2.83663e-15)
(-2.10992e-20 0 1.1184e-15)
(-2.79327e-18 -8.87577e-32 -1.63258e-15)
(3.98468e-21 -1.42603e-25 2.31348e-14)
(8.78561e-19 -1.47627e-23 1.22597e-15)
(1.4147e-15 4.51384e-32 0)
(-3.40355e-18 -3.72196e-35 1.47986e-18)
(0 1.57524e-16 0)
(0 0 0)
(2.13124e-14 2.17931e-14 1.00249e-14)
(-1.92153e-14 0 -2.21234e-15)
(0 -5.77409e-16 -1.71128e-15)
(0 0 -4.06314e-16)
(0 0 0)
(0 0 0)
(0 0 3.42874e-19)
(0 0 1.25334e-16)
(0 0 3.25031e-20)
(0 0 1.5161e-20)
(0 0 -1.52184e-14)
(0 0 7.22569e-15)
(0 0 2.37344e-14)
(0 0 -1.99989e-28)
(0 0 0)
(0 0 0)
(0 0 2.82635e-15)
(0 0 0)
(-1.93614e-18 -1.20708e-16 -4.90553e-15)
(-2.02055e-15 0 -2.78349e-17)
(0 0 -3.02031e-15)
(0 0 -1.03264e-15)
(5.72335e-17 -1.80786e-15 0)
(0 -1.60513e-17 2.14731e-15)
(0 -7.38782e-18 -3.06356e-15)
(0 -5.77928e-19 -2.24649e-14)
(0 -8.76547e-18 6.41088e-16)
(0 0 1.58112e-21)
(1.64448e-24 -7.89831e-35 1.24277e-31)
(0 0 2.01516e-40)
(0 0 0)
(0 3.6011e-19 4.79174e-19)
(0 -9.86051e-23 3.74571e-29)
(8.22158e-23 0 1.22314e-37)
(0 2.68522e-32 1.55817e-30)
(0 0 7.60661e-38)
(0 0 3.22884e-46)
(0 1.14428e-34 4.17774e-39)
(0 0 0)
(0 0 0)
(0 3.06695e-37 0)
(2.2095e-18 5.34147e-20 1.53073e-15)
(5.48065e-26 -8.96046e-32 -1.95406e-24)
(0 0 0)
(-1.49845e-15 1.01359e-17 1.23874e-15)
(1.78251e-23 -7.42393e-16 -1.66542e-23)
(0 -1.06819e-14 2.20458e-15)
(-1.64546e-18 -4.60278e-16 -9.11297e-17)
(0 0 -2.48679e-25)
(0 6.09183e-23 1.78067e-18)
(0 -2.81189e-17 -1.98463e-17)
(0 -9.6671e-19 0)
(0 -1.03995e-20 1.14812e-20)
(0 0 0)
(0 8.53203e-26 0)
(0 0 0)
(0 0 2.17122e-31)
(0 0 0)
(0 1.17562e-28 0)
(0 0 0)
(0 0 5.18066e-40)
(0 0 0)
(0 1.79502e-31 0)
(0 0 0)
(0 0 0)
(9.27095e-15 0 -9.90457e-15)
(0 -1.78113e-14 -2.64877e-15)
(1.03702e-21 -2.22028e-15 -1.84431e-15)
(1.98161e-27 0 4.28946e-19)
(1.57379e-28 0 -1.10851e-15)
(0 0 0)
(5.93989e-28 0 5.44231e-19)
(6.88692e-21 -1.35261e-18 3.4883e-15)
(1.08467e-20 -2.47577e-16 -1.04487e-15)
(-1.74378e-20 -8.77617e-16 6.08141e-15)
(0 -4.14779e-18 9.58157e-18)
(0 -5.02542e-17 -4.08044e-16)
(0 -5.30175e-35 0)
(0 -4.61521e-34 -9.84011e-23)
(0 3.52813e-15 -4.21461e-15)
(0 -2.32086e-15 6.49639e-15)
(0 -1.14391e-19 -1.11997e-21)
(0 -2.37878e-14 -2.09344e-15)
(0 -2.27268e-16 0)
(0 -1.36503e-15 5.2364e-17)
(3.03821e-15 -2.40511e-14 -2.12182e-15)
(0 -5.53395e-16 0)
(0 -5.42032e-16 0)
(-3.13587e-17 -2.32089e-15 4.71762e-15)
(-1.25401e-18 -2.32088e-15 4.84334e-15)
(-2.41357e-15 -2.38703e-14 8.7222e-19)
(-4.02929e-25 -2.47922e-14 1.29928e-14)
(4.21171e-20 -5.53395e-16 0)
(-1.92114e-22 -5.53395e-16 0)
(3.43555e-39 -2.36791e-14 1.29928e-14)
(-2.94886e-16 -5.53435e-16 -9.62858e-15)
(2.18621e-17 -1.96118e-17 0)
(1.26052e-16 -5.53435e-16 0)
(2.23821e-18 -2.41658e-14 1.02368e-16)
(-2.82761e-17 -3.27105e-16 1.28532e-16)
(0 0 6.81022e-24)
(6.5275e-16 -5.00738e-15 1.40039e-21)
(0 0 5.04483e-15)
(0 0 -6.45943e-15)
(-3.09217e-15 0 1.26962e-14)
(0 0 1.06189e-15)
(-2.20458e-15 0 -8.7693e-15)
(0 0 -1.42058e-14)
(0 0 -2.40704e-14)
(2.01162e-14 0 1.29928e-14)
(0 2.24743e-14 1.36095e-14)
(1.94294e-22 0 -2.40195e-14)
(0 0 -5.3941e-15)
(-2.77889e-15 0 -8.46776e-22)
(0 -1.50769e-14 0)
(0 0 2.41495e-15)
(0 0 -1.43954e-14)
(0 0 7.73439e-15)
(0 0 8.31327e-16)
(0 0 0)
(0 0 2.15762e-14)
(0 0 -5.09423e-16)
(0 0 2.76026e-15)
(0 0 3.8669e-15)
(0 0 0)
(0 0 -2.00266e-14)
(0 0 0)
(0 0 -1.05812e-14)
(0 0 0)
(0 0 1.31006e-14)
(0 0 -2.8862e-15)
(0 0 6.46572e-15)
(0 0 0)
(0 1.1714e-14 -1.42715e-15)
(0 -1.30114e-14 2.2429e-14)
(0 -1.45442e-16 0)
(0 -1.82845e-16 0)
(0 -2.59856e-14 1.88641e-15)
(2.2875e-14 1.16646e-14 -5.29268e-15)
(0 -6.10504e-15 7.45737e-15)
(0 0 -2.31546e-14)
(0 0 2.35915e-15)
(0 0 4.21503e-15)
(0 0 6.73169e-15)
(0 0 1.58161e-14)
(0 0 -2.08735e-14)
(0 0 -1.38538e-14)
(0 0 -2.59064e-14)
(3.42515e-21 0 4.66558e-15)
(0 0 1.10246e-15)
(0 0 1.50085e-15)
(0 0 -2.96537e-15)
(0 0 -2.86946e-15)
(-2.88049e-15 0 1.27582e-14)
(-2.97997e-15 0 2.18925e-15)
(0 0 3.2724e-15)
(-2.97583e-15 0 -2.06416e-15)
(-2.97604e-15 0 2.5733e-15)
(0 0 3.34202e-15)
(-3.96841e-15 0 -2.33707e-15)
(0 0 -3.50239e-15)
(0 0 0)
(0 0 2.07058e-14)
(0 0 2.74413e-15)
(0 0 -2.01795e-14)
(0 0 -8.49422e-15)
(0 0 0)
(0 0 0)
(0 0 0)
(0 0 1.32966e-14)
(0 0 1.75397e-15)
(0 0 4.10815e-17)
(0 0 -2.02448e-14)
(0 0 -1.3996e-14)
(0 0 -4.04708e-18)
(0 0 -2.00791e-17)
(0 0 2.52378e-14)
(0 0 9.30145e-16)
(0 0 3.80353e-15)
(0 0 -2.07719e-14)
(0 0 -6.20652e-15)
(0 0 0)
(0 0 4.97898e-16)
(0 0 1.82447e-14)
(0 0 -2.83729e-15)
(0 0 0)
(0 0 5.92821e-15)
(0 0 3.20402e-15)
(0 0 0)
(0 0 5.13184e-16)
(0 0 1.82552e-14)
(0 0 -1.74489e-15)
(0 0 0)
(0 0 6.15888e-15)
(0 0 3.24269e-15)
(-2.58805e-15 0 -9.27968e-15)
(0 0 4.53307e-16)
(0 0 2.97407e-14)
(0 0 6.25076e-15)
(0 0 6.08356e-15)
(0 0 -2.95063e-14)
(0 0 -7.70613e-15)
(0 0 8.16888e-15)
(-4.76256e-15 0 -2.47197e-14)
(0 0 -1.74398e-14)
(-4.38522e-15 0 -2.34513e-14)
(0 0 2.46325e-15)
(0 0 5.57263e-15)
(-9.28387e-24 8.23009e-15 6.49639e-15)
(0 5.78536e-15 -4.17625e-15)
(-7.00469e-25 0 -2.06255e-14)
(0 0 6.87855e-15)
(0 0 6.36801e-15)
(-3.86301e-15 0 -1.82226e-14)
(8.33824e-19 -2.38974e-14 2.41495e-15)
(-3.19571e-15 -2.36761e-14 0)
(-4.14011e-15 0 -8.4718e-15)
(-3.72159e-15 0 6.32751e-15)
(-4.11694e-15 0 3.80276e-16)
(-1.86158e-14 1.16669e-14 3.92526e-15)
(-1.81939e-22 -2.36761e-14 0)
(-5.22995e-17 0 -3.6118e-21)
(-2.8145e-17 2.30653e-16 0)
(-2.7237e-17 2.76069e-16 0)
(-6.72374e-22 0 1.5338e-20)
(-5.14912e-18 0 8.74324e-19)
(-1.26694e-16 0 6.32565e-16)
(-1.38477e-18 0 3.5224e-19)
(-9.74379e-16 0 -2.7628e-14)
(3.69763e-15 0 -3.95256e-15)
(-6.50259e-16 0 -2.54189e-14)
(2.65114e-22 0 -3.68658e-16)
(5.38802e-18 0 1.15659e-15)
(3.00029e-16 -1.04089e-14 2.61072e-15)
(1.43644e-17 5.57775e-15 -6.26154e-15)
(3.20504e-15 0 -1.74251e-14)
(2.13058e-47 0 0)
(2.84138e-20 0 9.53695e-17)
(-5.2908e-16 -2.27674e-14 5.94743e-18)
(3.06509e-15 0 2.78331e-15)
(3.78868e-19 3.23548e-15 -1.77374e-16)
(0 0 1.09387e-14)
(0 0 -6.40244e-15)
(0 1.29692e-14 -5.38501e-17)
(0 -2.16277e-33 -1.48076e-18)
(0 1.29834e-14 1.06768e-14)
(0 -1.08717e-31 -9.78106e-16)
(0 0 1.43742e-14)
(0 1.29898e-14 -1.29168e-14)
(0 -3.61905e-29 0)
(0 0 0)
(0 0 -1.25733e-14)
(0 0 -1.01711e-14)
(0 0 -2.14294e-14)
(0 0 -2.29636e-16)
(0 0 -2.30832e-16)
(0 0 1.17651e-14)
(0 0 1.80248e-15)
(0 0 5.94843e-15)
(0 0 -2.29212e-14)
(0 0 -9.92782e-15)
(0 0 2.362e-14)
(0 0 2.35749e-14)
(0 0 -1.35909e-15)
(4.57656e-31 0 -1.29766e-14)
(0 0 0)
(0 0 0)
(0 0 -1.29964e-14)
(0 0 0)
(0 0 8.90995e-15)
(5.49601e-30 0 2.32014e-16)
(0 1.29928e-14 0)
(0 -1.11293e-18 -1.23542e-14)
(0 1.29928e-14 0)
(0 3.77621e-19 1.18909e-21)
(0 1.29928e-14 1.47985e-16)
(0 0 1.14817e-17)
(0 1.24904e-14 -1.59297e-15)
(0 -4.57384e-19 7.48881e-16)
(0 1.24733e-14 -1.18203e-15)
(0 0 0)
(0 0 0)
(0 0 0)
(0 0 0)
(0 1.29928e-14 0)
(0 0 0)
(0 1.29829e-14 -1.01004e-16)
(0 0 1.54347e-15)
(0 -1.10823e-31 0)
(0 1.29928e-14 6.57218e-18)
(0 -1.00343e-29 0)
(0 0 0)
(0 0 0)
(0 0 0)
(0 0 0)
(0 0 -7.58002e-15)
(0 1.2983e-14 0)
(0 0 0)
(0 1.2983e-14 6.62206e-19)
(0 0 0)
(0 -7.9843e-28 0)
(0 1.29928e-14 1.5866e-15)
(0 1.29928e-14 1.24013e-14)
(0 -5.77235e-26 0)
(0 -1.96133e-27 0)
(0 0 0)
(0 0 0)
(0 0 0)
(0 0 0)
(0 0 -4.89192e-16)
(0 1.2983e-14 0)
(0 0 0)
(0 1.2983e-14 4.52749e-19)
(0 0 0)
(1.00045e-22 1.26178e-14 -3.15089e-16)
(0 -4.48001e-24 0)
(0 -8.70932e-26 0)
(0 1.25262e-14 1.91819e-16)
(0 -2.47106e-22 0)
(1.24282e-22 -1.01313e-42 3.36174e-16)
(0 0 0)
(0 0 0)
(0 0 0)
(0 0 -3.82475e-16)
(0 1.29898e-14 0)
(0 0 0)
(0 1.29517e-14 0)
(0 0 0)
(0 -1.39996e-20 0)
(8.51362e-21 0 -1.59495e-15)
(0 1.24788e-14 1.33149e-15)
(0 -5.41956e-19 0)
(2.24104e-19 0 1.51708e-15)
(0 0 0)
(-5.12343e-16 -1.44213e-15 1.12938e-14)
(0 0 0)
(0 0 0)
(0 -1.40779e-14 1.17718e-14)
(-2.01162e-14 2.31224e-14 1.71155e-14)
(0 0 0)
(2.32106e-14 -2.02054e-14 1.57641e-14)
(0 0 0)
(0 0 0)
(0 0 0)
(0 0 0)
(0 0 0)
(0 0 0)
(0 0 0)
(0 0 0)
(0 0 1.39738e-19)
(0 0 0)
(0 0 0)
(0 0 0)
(0 0 0)
(0 0 0)
(0 0 0)
(0 0 0)
(0 0 0)
(0 0 0)
(0 0 0)
(0 0 0)
(0 0 0)
(0 0 0)
(0 0 2.50331e-17)
(0 0 0)
(0 0 0)
(0 0 0)
(0 0 9.28056e-16)
(0 0 0)
(0 0 0)
(0 0 0)
(0 0 0)
(0 0 0)
(0 0 0)
(0 0 0)
(0 0 0)
(0 0 0)
(0 0 4.18603e-17)
(0 0 0)
(0 0 0)
(0 0 0)
(0 0 0)
(0 0 0)
(0 0 0)
(0 0 0)
(0 0 0)
(0 0 0)
(0 0 0)
(0 0 0)
(0 0 0)
(0 0 8.03621e-15)
(0 0 6.9336e-16)
(0 0 0)
(0 0 0)
(0 0 0)
(0 0 8.77795e-15)
(0 0 0)
(1.52823e-29 0 2.63324e-14)
(0 0 8.34396e-15)
(0 0 -2.94279e-14)
(5.04748e-27 0 -1.14362e-14)
(0 0 2.64597e-15)
(1.80317e-28 0 2.99919e-14)
(3.15261e-28 0 -5.23086e-15)
(0 0 0)
(0 0 0)
(0 0 0)
(0 0 0)
(0 0 0)
(0 0 0)
(0 0 0)
(0 0 0)
(0 0 2.46384e-17)
(0 0 0)
(0 0 0)
(0 0 0)
(0 0 0)
(0 0 0)
(0 0 7.68693e-16)
(0 0 0)
(0 0 4.12436e-15)
(0 0 0)
(0 0 -3.03499e-15)
(0 0 0)
(0 0 0)
(2.57573e-25 0 2.23166e-14)
(0 0 -2.8333e-15)
(1.38389e-25 0 1.17651e-14)
(0 0 2.15494e-14)
(6.73328e-27 0 -1.44886e-14)
(0 0 7.4992e-16)
(3.31084e-24 0 4.67089e-16)
(0 0 2.28665e-15)
(0 0 3.01245e-16)
(0 0 0)
(0 0 -5.48266e-15)
(0 0 0)
(0 0 3.11022e-15)
(0 0 -5.81736e-17)
(0 0 0)
(0 0 0)
(0 0 0)
(0 0 0)
(0 0 0)
(0 0 0)
(0 0 0)
(0 0 0)
(0 0 3.685e-17)
(0 0 0)
(0 0 0)
(0 0 0)
(0 0 0)
(0 0 0)
(0 0 5.07096e-15)
(0 0 0)
(0 0 3.62499e-15)
(0 0 0)
(0 0 -3.11345e-15)
(0 0 0)
(0 0 -3.46214e-15)
(0 0 2.55441e-16)
(0 0 5.03038e-16)
(0 0 0)
(0 0 -4.06497e-15)
(0 0 0)
(0 0 5.49577e-15)
(0 0 -6.24348e-17)
(0 0 1.09128e-15)
(0 0 0)
(0 0 0)
(0 0 -7.03616e-19)
(0 0 -2.17419e-15)
(0 0 4.06968e-20)
(0 0 -2.80456e-17)
(0 0 -1.10617e-14)
(0 0 6.06986e-16)
(0 0 3.93721e-16)
(0 0 2.92758e-19)
(0 0 2.20773e-14)
(0 0 3.48304e-18)
(0 0 8.92495e-21)
(0 1.16884e-14 0)
(0 0 0)
(0 -1.88047e-17 0)
(4.89036e-18 0 0)
(0 1.73165e-14 -1.12234e-19)
(0 -3.8509e-16 -2.39807e-18)
(0 0 -5.6994e-21)
(0 0 0)
(0 0 0)
(0 0 -8.8908e-19)
(0 0 8.50379e-16)
(0 0 -9.63407e-20)
(0 0 -4.55233e-20)
(0 0 3.9218e-16)
(0 0 0)
(0 0 5.25029e-15)
(0 0 -2.01669e-17)
(0 0 -3.12351e-15)
(0 0 -1.24992e-18)
(0 0 -2.7148e-16)
(0 1.29928e-14 0)
(0 4.60401e-16 1.08789e-14)
(0 1.18327e-14 0)
(0 4.60401e-16 0)
(0 1.18327e-14 0)
(0 4.5953e-16 0)
(0 1.23008e-14 0)
(0 -3.2482e-15 0)
(0 0 0)
(0 0 0)
(0 0 0)
(0 1.16007e-15 -1.95258e-14)
(0 0 0)
(0 1.18327e-14 -2.46815e-15)
(0 0 0)
(0 0 0)
(0 0 0)
(0 0 0)
(0 0 0)
(0 1.16007e-15 0)
(0 1.16007e-15 0)
(0 0 0)
(0 1.18327e-14 0)
(0 0 0)
(0 0 0)
(0 0 0)
(0 0 0)
(0 0 0)
(0 1.16007e-15 0)
(0 1.16007e-15 0)
(0 0 0)
(0 1.18327e-14 0)
(0 0 0)
(0 0 0)
(0 0 0)
(0 1.43143e-15 0)
(0 0 0)
(0 0 0)
(0 0 0)
(0 0 0)
(0 0 0)
(0 0 0)
(0 0 0)
(0 0 0)
(0 0 0)
(0 0 0)
(0 0 0)
(0 0 0)
(0 0 0)
(0 0 0)
(0 0 0)
(0 0 0)
(0 0 0)
(0 0 0)
(0 0 0)
(0 0 0)
(0 0 0)
(0 0 0)
(0 0 0)
(0 0 0)
(0 0 0)
(0 0 0)
(0 0 0)
(0 0 0)
(0 0 0)
(0 0 0)
(0 0 0)
(0 0 0)
(0 0 0)
(0 0 0)
(0 0 0)
(0 0 0)
(0 0 0)
(0 0 0)
(0 0 0)
(0 0 0)
(0 0 0)
(0 0 0)
(0 0 0)
(0 0 0)
(0 0 0)
(0 0 0)
(0 0 0)
(0 0 0)
(0 0 0)
(0 0 0)
(0 0 0)
(0 0 0)
(0 0 0)
(0 0 0)
(0 0 0)
(0 0 0)
(0 0 0)
(0 0 0)
(0 0 0)
(0 0 0)
(0 0 0)
(0 0 0)
(0 0 0)
(0 0 0)
(0 0 0)
(0 0 0)
(0 0 0)
(0 0 0)
(0 0 0)
(0 0 0)
(0 0 0)
(0 0 0)
(0 0 0)
(0 0 0)
(0 0 0)
(0 0 0)
(0 0 0)
(0 0 0)
(0 0 0)
(0 0 0)
(0 0 0)
(0 0 0)
(0 0 0)
(0 0 0)
(0 0 0)
(0 0 0)
(0 0 0)
(0 0 0)
(0 0 0)
(0 0 0)
(0 0 0)
(0 0 0)
(0 0 -8.3996e-19)
(-1.72219e-17 0 -1.76621e-17)
(0 0 -1.14697e-16)
(0 0 -4.47274e-16)
(-8.6852e-23 -2.07862e-16 0)
(2.46926e-40 -2.21824e-16 0)
(-7.49683e-18 -2.19509e-16 1.00427e-14)
(0 0 0)
(0 0 0)
(0 0 0)
(0 0 0)
(0 0 7.60509e-16)
(0 0 -7.60509e-16)
(-2.13219e-19 -5.04879e-22 0)
(0 0 0)
(0 0 0)
(0 0 0)
(0 0 0)
(0 0 0)
(0 0 0)
(0 0 0)
(0 0 0)
(0 0 0)
(0 0 0)
(0 0 0)
(0 0 0)
(0 0 0)
(0 0 0)
(0 0 0)
(0 0 0)
(0 -7.03779e-16 0)
(0 0 0)
(0 -4.46357e-28 9.24018e-15)
(0 -3.82121e-19 -9.24018e-15)
(-1.17588e-17 -2.64654e-17 0)
(0 0 0)
(0 0 0)
(0 0 0)
(0 0 0)
(0 0 9.42314e-15)
(0 0 -9.42314e-15)
(-2.20511e-25 3.15257e-18 2.62429e-40)
(0 0 0)
(0 0 0)
(0 0 0)
(0 0 0)
(0 0 0)
(0 0 0)
(0 0 0)
(0 0 0)
(0 0 0)
(0 0 0)
(0 0 0)
(0 0 0)
(0 0 0)
(0 2.11838e-20 6.97296e-49)
(0 0 0)
(0 0 0)
(0 0 0)
(0 0 0)
(0 0 0)
(0 0 0)
(0 0 0)
(0 0 0)
(0 0 0)
(0 0 0)
(0 0 0)
(0 0 0)
(0 0 0)
(0 9.94111e-23 0)
(0 0 -1.42543e-17)
(-4.56406e-16 3.0041e-15 -3.461e-16)
(0 -1.99024e-15 -4.78847e-15)
(0 -4.99434e-15 5.19624e-15)
(0 0 -9.61157e-17)
(0 2.87011e-28 1.13162e-14)
(0 -6.2489e-25 0)
(0 0 -9.69053e-19)
(0 0 0)
(0 0 -6.7031e-21)
(0 3.18456e-27 -7.04906e-38)
(0 -6.25427e-25 -5.65323e-38)
(0 0 0)
(0 0 0)
(0 0 7.548e-18)
(0 1.3323e-25 -1.90077e-29)
(0 -6.46718e-25 -5.79454e-38)
(0 0 0)
(0 0 0)
(0 0 7.87371e-16)
(0 1.0571e-24 8.00111e-30)
(0 -7.84607e-25 0)
(0 0 0)
(0 0 0)
(4.10755e-25 0 -2.36545e-16)
(0 7.10608e-25 -4.47051e-25)
(0 -6.6637e-25 0)
(0 0 1.06273e-18)
(0 0 0)
(9.57383e-22 0 2.21369e-18)
(0 -7.87099e-25 4.41672e-25)
(0 0 -7.78904e-25)
(0 0 -1.06779e-18)
(0 0 -7.54119e-25)
(2.96793e-17 6.96101e-27 8.59169e-16)
(0 0 0)
(0 -2.44982e-26 0)
(0 0 0)
(0 0 0)
(0 0 0)
(2.33632e-17 0 2.47102e-37)
(0 0 0)
(0 0 0)
(0 0 0)
(0 0 0)
(0 0 0)
(0 0 0)
(0 0 4.51185e-46)
(0 0 0)
(0 0 0)
(0 0 0)
(0 0 0)
(0 0 0)
(0 0 0)
(0 0 0)
(0 0 0)
(0 0 0)
(0 0 0)
(0 0 0)
(0 0 0)
(0 0 0)
(0 0 0)
(-2.99426e-24 6.49639e-15 0)
(0 0 0)
(0 0 0)
(0 0 0)
(0 0 1.20067e-14)
(4.51274e-28 0 1.29928e-14)
(0 0 0)
(0 0 1.17747e-14)
(1.09434e-31 0 0)
(0 0 0)
(0 0 0)
(0 0 0)
(0 0 0)
(0 0 9.32274e-15)
(0 0 -8.48403e-15)
(0 0 1.04664e-14)
(0 0 1.29928e-14)
(0 0 0)
(0 0 0)
(0 0 0)
(0 0 0)
(0 0 0)
(0 0 0)
(0 0 0)
(0 0 0)
(0 0 0)
(0 0 0)
(0 0 0)
(0 0 0)
(0 0 0)
(0 0 0)
(0 0 0)
(0 0 0)
(0 0 0)
(0 0 0)
(0 0 0)
(0 0 0)
(0 0 0)
(0 0 0)
(0 0 0)
(0 0 0)
(0 0 -4.30443e-16)
(-1.17212e-20 6.49639e-15 4.05086e-17)
(0 0 0)
(0 0 0)
(0 0 6.44604e-20)
(0 0 0)
(3.05959e-26 0 0)
(0 0 0)
(0 0 0)
(2.85769e-29 0 0)
(0 0 0)
(0 0 0)
(0 0 0)
(0 0 0)
(0 0 0)
(0 0 0)
(0 0 0)
(0 0 0)
(0 0 0)
(0 0 0)
(0 0 0)
(0 0 0)
(0 0 0)
(0 0 0)
(0 0 0)
(0 0 0)
(0 0 0)
(0 0 0)
(0 0 0)
(0 0 0)
(0 0 0)
(0 0 0)
(0 0 0)
(0 0 0)
(0 0 0)
(0 0 0)
(0 0 0)
(0 0 0)
(0 0 0)
(0 0 0)
(0 0 0)
(0 0 0)
(0 0 0)
(9.85219e-28 0 -8.40622e-17)
(0 0 5.96508e-15)
(0 0 9.62858e-15)
(0 0 0)
(-1.19064e-18 6.49639e-15 0)
(0 6.49639e-15 -8.18828e-16)
(0 0 0)
(0 0 0)
(0 0 0)
(0 0 -8.4179e-16)
(4.36088e-24 0 0)
(0 0 0)
(0 0 0)
(6.09711e-27 0 0)
(0 0 0)
(0 0 0)
(0 0 0)
(0 0 0)
(0 0 0)
(0 0 0)
(0 0 0)
(0 0 0)
(0 0 0)
(0 0 0)
(0 0 0)
(0 0 0)
(0 0 0)
(0 0 0)
(0 0 0)
(0 0 0)
(0 0 0)
(0 0 0)
(0 0 0)
(0 0 0)
(0 0 0)
(0 0 0)
(0 0 0)
(0 0 0)
(0 0 0)
(0 0 0)
(0 0 0)
(0 0 0)
(0 0 0)
(0 0 0)
(0 0 0)
(0 0 0)
(0 0 -1.79827e-17)
(-1.06764e-23 0 -1.85935e-17)
(0 0 0)
(0 0 -1.48484e-16)
(0 0 1.20647e-14)
(0 1.68557e-14 1.79431e-14)
(0 1.29928e-14 1.66571e-14)
(0 0 0)
(0 6.49639e-15 0)
(0 6.49639e-15 0)
(0 6.49639e-15 1.14385e-14)
(0 0 0)
(0 0 0)
(0 0 0)
(0 0 0)
(2.02831e-22 0 0)
(0 0 0)
(0 0 0)
(1.08455e-24 0 0)
(0 0 0)
(0 0 0)
(0 0 0)
(0 0 0)
(0 0 0)
(0 0 0)
(0 0 0)
(0 0 0)
(0 0 0)
(0 0 0)
(0 0 0)
(0 0 0)
(0 0 0)
(0 0 0)
(0 0 0)
(0 0 0)
(0 0 0)
(0 0 0)
(0 0 0)
(0 0 0)
(0 0 0)
(0 0 0)
(0 0 0)
(0 0 0)
(0 0 0)
(0 0 0)
(0 0 0)
(0 0 0)
(0 0 0)
(0 0 0)
(0 0 0)
(0 0 0)
(0 0 -4.19065e-24)
(-2.24743e-14 0 -1.834e-20)
(0 0 -1.64376e-17)
(0 0 0)
(0 0 0)
(0 0 0)
(0 0 -1.88417e-16)
(0 0 1.17167e-14)
(0 1.68557e-14 1.61443e-14)
(0 1.29928e-14 1.65232e-14)
(0 0 0)
(0 6.49639e-15 -1.84775e-17)
(0 6.49639e-15 -3.31405e-17)
(0 6.49639e-15 -3.07972e-17)
(2.28546e-18 6.49639e-15 0)
(0 6.49639e-15 1.60299e-19)
(0 6.49639e-15 2.00435e-18)
(0 0 0)
(0 0 0)
(0 0 0)
(0 0 0)
(0 0 0)
(0 0 0)
(0 0 0)
(1.59498e-22 0 0)
(0 0 0)
(0 0 0)
(0 0 0)
(0 0 0)
(0 0 0)
(0 0 0)
(0 0 0)
(0 0 0)
(0 0 0)
(0 0 0)
(0 0 0)
(0 0 0)
(0 0 0)
(0 0 0)
(0 0 0)
(0 0 0)
(0 0 0)
(0 0 0)
(0 0 0)
(0 0 0)
(0 0 0)
(0 0 0)
(0 0 0)
(0 0 0)
(0 0 0)
(0 0 0)
(0 0 0)
(0 0 0)
(0 0 0)
(0 0 0)
(0 0 0)
(0 0 0)
(0 0 0)
(-6.49639e-15 0 -1.53646e-15)
(0 0 -1.22247e-18)
(0 0 0)
(0 0 0)
(0 2.77982e-17 6.24686e-15)
(0 0 0)
(0 0 0)
(0 0 -6.49639e-15)
(0 0 0)
(0 -6.49639e-15 -3.05233e-15)
(0 6.49639e-15 3.01799e-15)
(2.32532e-17 6.49639e-15 6.09177e-15)
(0 6.49639e-15 6.03766e-15)
(0 5.75857e-15 5.19122e-15)
(0 0 0)
(0 0 0)
(0 1.2249e-14 0)
(0 0 -1.29928e-14)
(0 0 0)
(0 0 -1.29928e-14)
(0 1.34861e-35 -3.03604e-17)
(0 0 0)
(0 0 0)
(0 0 0)
(0 0 0)
(0 0 0)
(0 0 0)
(0 0 0)
(7.52363e-21 0 -1.46893e-17)
(0 0 0)
(0 0 0)
(0 0 0)
(0 0 0)
(0 0 0)
(0 0 0)
(0 0 0)
(0 0 0)
(0 0 0)
(0 0 0)
(0 0 0)
(0 0 0)
(0 0 0)
(0 0 0)
(0 0 0)
(0 0 0)
(0 0 0)
(0 0 0)
(0 0 0)
(0 0 0)
(0 0 0)
(0 0 0)
(0 0 0)
(0 0 0)
(0 0 0)
(0 0 0)
(0 0 0)
(0 0 0)
(0 0 0)
(0 0 0)
(0 0 0)
(0 0 0)
(0 0 -5.52617e-17)
(0 0 -8.50451e-16)
(0 -1.2249e-14 -1.6241e-15)
(0 0 -6.49639e-15)
(0 -3.74263e-26 -8.12049e-15)
(0 -1.03268e-17 4.9116e-15)
(0 0 -7.24415e-16)
(0 0 -1.05148e-14)
(0 0 -9.74459e-15)
(0 0 -6.49639e-15)
(0 -9.17731e-24 -1.13687e-14)
(0 -4.86426e-22 1.6241e-15)
(-1.29689e-14 1.50044e-16 1.56007e-15)
(0 0 0)
(0 0 0)
(0 1.2249e-14 0)
(0 0 -1.29928e-14)
(0 0 0)
(0 0 -1.29928e-14)
(0 2.83741e-19 4.31507e-16)
(0 0 0)
(0 0 0)
(0 0 0)
(0 0 0)
(0 0 0)
(0 0 0)
(0 0 0)
(-5.69492e-18 0 1.01792e-14)
(0 0 0)
(0 0 0)
(0 0 0)
(0 0 0)
(0 0 0)
(0 0 0)
(0 0 0)
(0 0 0)
(0 0 0)
(0 0 0)
(0 0 0)
(0 0 0)
(0 0 0)
(0 0 0)
(0 0 0)
(0 0 0)
(0 0 0)
(0 0 0)
(0 0 0)
(0 0 0)
(0 0 0)
(0 0 0)
(0 0 0)
(0 0 0)
(0 0 0)
(0 0 0)
(0 0 0)
(0 0 0)
(0 0 0)
(0 0 0)
(0 0 0)
(0 0 0)
(0 0 0)
(0 0 0)
(0 0 0)
(0 0 0)
(0 0 0)
(0 0 0)
(0 0 0)
(0 0 0)
(0 0 0)
(0 0 0)
(0 0 0)
(0 0 0)
(0 0 0)
(0 0 0)
(0 0 0)
(-1.26989e-17 2.6045e-21 2.66638e-40)
(0 0 0)
(0 0 0)
(0 0 0)
(0 0 0)
(0 0 0)
(0 0 0)
(0 0 0)
(0 0 0)
(0 0 0)
(0 0 0)
(0 0 0)
(0 0 0)
(0 0 0)
(0 0 0)
(0 0 0)
(0 0 0)
(0 0 0)
(0 0 0)
(0 0 0)
(0 0 0)
(0 0 0)
(0 0 0)
(0 0 0)
(0 0 0)
(0 0 0)
(0 0 0)
(0 0 0)
(0 0 0)
(0 0 0)
(0 0 0)
(0 0 0)
(0 0 0)
(0 0 0)
(0 0 0)
(0 0 0)
(0 0 0)
(0 0 0)
(0 0 0)
(0 0 0)
(0 0 0)
(0 0 0)
(0 0 0)
(0 0 0)
(0 0 0)
(0 0 0)
(0 0 0)
(0 0 0)
(0 0 0)
(0 0 0)
(0 0 0)
(0 0 0)
(0 0 0)
(0 0 0)
(0 0 0)
(0 0 0)
(0 0 6.98415e-49)
(0 0 0)
(0 0 0)
(0 0 0)
(0 0 0)
(0 0 0)
(0 0 0)
(0 0 0)
(0 0 0)
(0 0 0)
(0 0 0)
(0 0 0)
(0 0 0)
(0 0 0)
(0 0 0)
(0 0 0)
(0 0 0)
(0 0 0)
(0 0 0)
(0 0 0)
(0 0 0)
(0 0 0)
(0 0 0)
(0 0 0)
(0 0 0)
(0 0 0)
(0 0 0)
(0 0 0)
(0 0 0)
(0 0 0)
(0 0 0)
(0 0 0)
(0 0 0)
(0 0 0)
(0 0 0)
(0 0 0)
(0 0 0)
(0 0 0)
(0 0 0)
(0 0 0)
(0 0 0)
(0 0 0)
(0 0 0)
(0 0 0)
(0 0 0)
(0 0 0)
(0 0 0)
(0 0 0)
(0 0 0)
(0 0 0)
(0 0 0)
(0 0 0)
(0 0 0)
(0 0 0)
(0 0 0)
(0 0 0)
(0 0 0)
(0 0 0)
(0 0 0)
(0 0 0)
(0 0 0)
(0 0 0)
(0 0 0)
(0 0 0)
(0 0 0)
(0 0 0)
(0 0 0)
(0 0 0)
(0 0 0)
(0 0 0)
(0 0 0)
(0 0 0)
(0 0 0)
(0 0 0)
(0 0 0)
(0 0 0)
(0 0 0)
(0 0 0)
(0 0 0)
(0 0 0)
(0 0 0)
(0 0 0)
(0 0 0)
(0 0 0)
(0 0 0)
(0 0 0)
(0 0 0)
(0 0 0)
(0 0 0)
(0 0 0)
(0 0 0)
(0 0 0)
(0 0 0)
(0 0 0)
(0 0 0)
(0 0 0)
(0 0 0)
(0 0 0)
(0 0 0)
(0 0 0)
(0 0 0)
(0 0 0)
(0 0 0)
(0 0 0)
(0 0 0)
(0 0 -1.70141e-15)
(6.32178e-26 0 -1.42275e-16)
(-1.29928e-14 0 -1.35704e-15)
(0 0 -1.20787e-15)
(-1.12416e-14 0 8.59476e-15)
(0 0 3.92131e-15)
(0 0 0)
(0 0 0)
(-2.20458e-15 0 1.04727e-14)
(0 0 -1.92587e-16)
(-1.29928e-14 0 -6.16459e-17)
(0 0 0)
(-1.13696e-14 0 -7.0725e-15)
(5.98804e-23 0 -5.31591e-17)
(-1.29928e-14 0 0)
(0 0 -1.38538e-15)
(-1.12446e-14 0 8.75045e-15)
(0 0 1.63492e-14)
(0 0 0)
(0 0 -3.8015e-16)
(0 0 -1.27794e-14)
(0 0 0)
(0 0 0)
(0 0 0)
(0 0 0)
(0 0 2.19124e-15)
(0 0 0)
(0 1.29928e-14 -1.09036e-14)
(0 1.29928e-14 -2.92728e-15)
(0 0 0)
(0 0 0)
(0 0 -2.04946e-14)
(0 0 0)
(0 0 1.56609e-14)
(0 0 1.29928e-14)
(0 0 0)
(0 0 0)
(0 0 1.58239e-14)
(0 2.89372e-15 1.37884e-14)
(0 0 1.29928e-14)
(0 1.62762e-14 1.28168e-16)
(0 0 -1.38042e-14)
(0 0 0)
(0 0 0)
(0 -2.7811e-15 1.29928e-14)
(0 -1.80896e-14 3.6153e-15)
(0 1.37479e-19 1.29834e-14)
(-2.59856e-14 1.80896e-14 1.38891e-14)
(0 1.68557e-14 0)
(0 1.29928e-14 -2.1933e-15)
(0 0 0)
(0 0 -3.3087e-16)
(0 0 0)
(0 0 0)
(0 0 1.35012e-14)
(0 0 0)
(0 0 4.4086e-17)
(0 0 -1.09751e-14)
(0 0 -1.42268e-14)
(0 1.29928e-14 5.60603e-15)
(0 0 0)
(0 0 0)
(0 1.14371e-14 -1.09814e-14)
(0 1.29928e-14 0)
(0 0 0)
(0 0 0)
(0 0 -4.31117e-16)
(0 0 0)
(0 0 0)
(0 0 -4.04903e-20)
(0 0 -1.15862e-15)
(0 0 1.43445e-14)
(0 0 0)
(0 -2.01162e-14 1.49778e-14)
(0 -2.06724e-14 5.81324e-15)
(0 2.08939e-14 9.00079e-15)
(0 2.06776e-14 1.30772e-14)
(0 0 -2.68286e-15)
(0 0 0)
(0 0 0)
(0 0 1.35979e-15)
(0 0 4.195e-16)
(0 0 5.14458e-16)
(0 0 3.94774e-15)
(0 0 -3.22407e-15)
(0 0 -4.58592e-15)
(0 0 2.07545e-14)
(0 0 7.60276e-16)
(0 0 0)
(0 0 -2.49659e-14)
(0 0 4.01571e-15)
(0 0 0)
(0 0 -6.7097e-16)
(0 0 0)
(0 0 0)
(0 0 0)
(0 0 0)
(0 0 0)
(0 0 1.39452e-14)
(0 0 3.52647e-17)
(0 0 -2.17222e-15)
(0 0 0)
(0 0 0)
(0 0 0)
(0 0 -1.37667e-14)
(0 0 0)
(0 0 0)
(0 0 4.6167e-16)
(0 0 0)
(0 0 8.34585e-17)
(0 0 0)
(0 0 0)
(0 0 0)
(0 0 4.91408e-16)
(0 0 0)
(0 0 -3.82671e-15)
(0 0 0)
(0 0 5.96709e-15)
(0 0 0)
(0 0 0)
(0 0 0)
(0 0 0)
(0 0 0)
(0 0 0)
(0 0 0)
(0 0 0)
(0 0 0)
(0 0 0)
(0 0 0)
(0 0 0)
(0 0 0)
(0 0 0)
(0 0 0)
(0 0 0)
(0 0 0)
(0 0 0)
(0 0 0)
(0 0 0)
(0 0 0)
(0 0 0)
(0 0 0)
(0 0 0)
(0 0 0)
(0 0 0)
(0 0 0)
(0 0 0)
(0 0 0)
(0 0 4.26583e-15)
(0 0 0)
(0 0 0)
(0 0 1.62616e-15)
(0 0 0)
(0 0 -4.18297e-17)
(0 0 5.20298e-15)
(0 0 -2.63978e-17)
(0 0 0)
(0 0 0)
(0 0 2.04847e-16)
(0 0 0)
(0 0 1.18018e-17)
(0 0 1.15892e-16)
(0 0 -1.45054e-15)
(0 0 0)
(0 0 0)
(0 0 3.28126e-15)
(0 0 0)
(0 0 -4.89556e-15)
(0 0 1.32717e-15)
(0 0 -1.23756e-14)
(0 0 0)
(0 0 0)
(0 0 1.47729e-14)
(0 0 2.17612e-14)
(0 0 4.85885e-15)
(0 0 3.63045e-15)
(0 0 -6.11526e-15)
(0 0 1.3137e-14)
(0 0 0)
(0 0 -1.62718e-14)
(0 0 -8.7576e-15)
(0 0 -1.29966e-14)
(0 0 7.93656e-15)
(0 0 -1.57714e-15)
(0 0 1.93597e-14)
(0 0 1.88035e-14)
(0 0 7.79283e-15)
(0 0 0)
(0 0 0)
(0 0 6.49639e-15)
(0 0 0)
(0 1.62867e-14 2.04946e-14)
(0 6.49639e-15 0)
(0 0 -4.00207e-16)
(0 0 0)
(0 0 -5.88864e-15)
(0 0 -1.29928e-14)
(0 1.62868e-14 1.52536e-14)
(0 6.49639e-15 2.3916e-18)
(0 1.13787e-14 -2.13815e-15)
(0 0 0)
(-1.12371e-14 0 0)
(0 0 0)
(0 0 0)
(-1.12371e-14 0 8.79908e-15)
(0 0 1.50495e-14)
(0 0 -1.24346e-14)
(0 0 0)
(0 0 0)
(0 1.1471e-14 -1.18458e-14)
(0 0 0)
(0 0 0)
(0 0 1.12852e-16)
(-1.12371e-14 0 -7.07033e-15)
(0 0 2.58722e-16)
(0 0 1.47154e-15)
(-1.12408e-14 0 1.11673e-14)
(0 0 1.47313e-14)
(0 0 -1.30242e-14)
(0 0 -8.95071e-18)
(0 0 2.78283e-16)
(0 0 0)
(0 1.12371e-14 -1.21863e-14)
(0 1.29928e-14 -2.26136e-15)
(0 0 0)
(0 0 0)
(-1.13745e-14 0 -1.23512e-14)
(0 0 1.15869e-14)
(0 0 0)
(0 1.29928e-14 2.385e-15)
(0 0 1.78842e-17)
(0 0 2.33778e-16)
(0 0 0)
(0 0 0)
(0 0 0)
(0 0 -1.76474e-16)
(0 0 0)
(0 0 0)
(0 0 0)
(0 0 3.24027e-19)
(0 0 0)
(0 0 6.97837e-17)
(0 0 3.79236e-16)
(0 0 4.46174e-16)
(0 0 2.25817e-17)
(0 0 1.85559e-17)
(-6.09835e-16 0 -1.50329e-19)
(-4.52608e-17 0 0)
(-1.08813e-22 0 0)
(-8.53296e-15 0 8.23349e-17)
(0 0 -2.17242e-18)
(0 0 -2.10544e-19)
(-1.29928e-14 0 1.90868e-16)
(0 0 0)
(-1.13676e-14 0 -8.29336e-15)
(0 0 -5.54687e-17)
(0 0 -5.27583e-18)
(0 0 -1.21278e-15)
(0 0 -1.14215e-16)
(0 0 1.36186e-14)
(0 0 2.22014e-14)
(0 0 -1.73312e-15)
(0 0 5.73709e-16)
(0 0 -6.08005e-16)
(0 0 -4.01628e-15)
(0 0 -1.45368e-14)
(0 1.29928e-14 5.49667e-15)
(0 0 0)
(0 0 0)
(0 0 -1.13905e-14)
(0 0 -3.59178e-15)
(0 0 -1.86246e-15)
(0 0 -7.06373e-16)
(0 1.29922e-14 0)
(0 0 0)
(0 0 0)
(0 0 -1.12104e-14)
(0 3.24395e-15 -1.64998e-15)
(0 0 -1.74611e-15)
(0 0 -3.42592e-16)
(0 0 -1.13477e-15)
(0 0 -1.29058e-16)
(0 0 0)
(0 0 0)
(0 0 1.48235e-15)
(0 0 -1.23956e-15)
(0 0 -8.7198e-15)
(0 0 0)
(0 0 -4.05828e-23)
(0 0 -1.84321e-24)
(0 0 0)
(0 0 0)
(0 0 -2.79968e-21)
(0 0 -1.11051e-22)
(0 0 1.10207e-14)
(0 2.23494e-15 0)
(0 9.17212e-17 0)
(0 0 -9.12731e-17)
(0 0 -4.88839e-18)
(0 0 -2.40803e-18)
(0 0 -2.02199e-19)
(0 0 0)
(0 2.91757e-18 0)
(0 1.74387e-19 0)
(0 0 -1.98807e-19)
(0 0 -6.77221e-21)
(0 0 -3.47408e-21)
(0 0 -1.47139e-22)
(0 0 0)
(0 0 0)
(0 0 0)
(0 0 0)
(0 0 0)
(0 0 0)
(0 0 0)
(0 0 0)
(0 0 7.63212e-16)
(0 0 4.43249e-15)
(0 0 -1.22416e-14)
(0 0 6.15662e-16)
(0 0 0)
(0 0 0)
(0 0 0)
(0 0 1.47123e-14)
(0 0 -1.04621e-14)
(0 0 -1.29798e-15)
(0 0 2.04242e-14)
(0 0 0)
(0 0 0)
(0 0 1.67427e-14)
(0 0 -1.40379e-14)
(0 0 0)
(0 0 8.28223e-15)
(0 0 -3.16948e-15)
(0 0 3.233e-15)
(0 0 2.86363e-15)
(0 0 6.4083e-20)
(0 0 0)
(0 0 0)
(0 0 5.36717e-17)
(0 0 8.74172e-17)
(0 0 2.75294e-18)
(0 0 3.53683e-18)
(0 0 0)
(0 0 0)
(0 0 0)
(0 0 0)
(0 0 5.04827e-16)
(0 0 0)
(0 0 0)
(0 0 1.63868e-14)
(0 0 3.37477e-15)
(0 0 0)
(0 0 -5.76671e-15)
(0 0 -1.30019e-14)
(0 0 -1.83953e-14)
(0 0 -3.79618e-15)
(0 0 0)
(0 0 0)
(0 0 8.27684e-16)
(0 0 0)
(0 0 3.82351e-17)
(0 0 3.33936e-18)
(0 0 4.27722e-17)
(0 0 0)
(0 0 3.51325e-15)
(0 0 5.53372e-15)
(0 0 -1.23228e-14)
(0 0 0)
(0 0 0)
(0 0 0)
(0 0 0)
(0 0 1.44133e-14)
(0 0 -1.29612e-14)
(0 0 -1.44475e-15)
(0 0 2.01461e-14)
(0 0 0)
(0 0 0)
(0 0 0)
(0 0 8.28593e-16)
(0 0 3.52234e-15)
(0 0 -1.25637e-14)
(0 0 5.24238e-16)
(0 0 0)
(0 0 0)
(0 0 0)
(0 0 1.45399e-14)
(0 0 -1.07942e-14)
(0 0 -1.74362e-15)
(0 0 2.15144e-14)
(0 0 0)
(0 0 0)
(0 0 -2.38046e-14)
(0 0 -2.20891e-14)
(0 0 -2.32014e-15)
(0 0 -4.64028e-16)
(0 0 1.55348e-14)
(0 0 7.60674e-16)
(0 0 5.06981e-15)
(0 1.29928e-14 1.59106e-14)
(8.25411e-33 1.29928e-14 1.60266e-14)
(0 1.29928e-14 0)
(0 6.49639e-15 1.29928e-14)
(5.58779e-27 6.49639e-15 1.29928e-14)
(0 6.49639e-15 1.29928e-14)
(0 1.29928e-14 1.64594e-14)
(9.49858e-29 1.29928e-14 1.70908e-14)
(0 1.18327e-14 0)
(0 6.49639e-15 0)
(4.14777e-25 6.49639e-15 0)
(0 6.49639e-15 0)
(0 1.29928e-14 1.6589e-14)
(3.14092e-25 1.29928e-14 1.8924e-14)