/*--------------------------------*- C++ -*----------------------------------*\
  =========                 |
  \\      /  F ield         | OpenFOAM: The Open Source CFD Toolbox
   \\    /   O peration     | Website:  https://openfoam.org
    \\  /    A nd           | Version:  9
     \\/     M anipulation  |
\*---------------------------------------------------------------------------*/
FoamFile
{
    format      ascii;
    class       volScalarField;
    location    "0.00315";
    object      overpressure;
}
// * * * * * * * * * * * * * * * * * * * * * * * * * * * * * * * * * * * * * //

dimensions      [1 -1 -2 0 0 0 0];

internalField   nonuniform List<scalar> 
26756
(
22106.5
7949.09
12559.2
34612
19558.2
42341.3
12894.5
33094.6
16223.7
12551
9558.94
12141.6
15442.9
19582
16059
15807.1
24181.7
20064.1
29319.6
24144.3
20325.2
25037.7
9780.4
6038.24
7378.27
8359.31
9886
13363.3
11337.8
10168.1
15889
12538.1
17156.9
18440.1
21436.6
14627.9
38002.4
22115.5
25911
17869.6
28841.9
21586.2
32310.6
30359.2
35593.2
47646.2
25861.2
41574.4
30851.5
36529.6
24912.1
12750.8
14900
18402.5
25128.1
28253.8
15857
22384
28713
36968.4
23668.5
27019.6
32223.9
19430.9
99072.9
104128
72587.2
81082.2
37331.3
126502
142272
48600.4
110275
116325
34135.9
33646.9
48552.4
90337.6
82460.8
65706.4
59420.9
62555.7
49627.8
62165.1
43904.2
43299.5
63426.9
50866.5
69008.8
52591.3
66954.7
44833.3
43560.1
64945.1
76595.5
54901
58149.9
69602.1
46907.8
50111.7
73116.9
15221.4
32255
4010.06
9379.67
17224.4
-251.64
4231.3
19853
2216.73
-418.718
1634.95
6243.85
7360.77
4133.55
2775.81
6360.39
9174.66
12005.8
6591.66
3925.29
8749.75
6146.54
768.467
-366.406
-1428.45
497.611
454.434
1303.67
2236.14
5011.12
2631.39
2334.46
5609.93
6755.34
3226.15
4199.08
31261
23915
10309.7
30474.5
15495.4
11030.2
23668.6
30747.8
16892.8
19149.9
14904
26345.1
12649.7
24538.1
6695.3
16978.8
5805.97
19529.4
7355.85
8270.66
19637.5
22452.9
10183.4
12044.2
18264.9
8221.38
9904.62
20692.7
37332.6
34108.8
37897.9
59603.7
55977.7
59607
55461
86074.2
62443.5
67744.4
59618.9
54364
77502.2
82816.8
35393.5
37802.1
39161.3
56966.2
61628.7
60252.1
55827.2
41229.2
58893.6
63818.9
40269
44385.1
67091.4
61898.8
43958.9
53419.8
48419.3
71342.7
70992.9
76727.6
65878.2
94641.5
76000.7
80215.6
85885.1
105560
82507.4
101321
67796.1
86224.5
71854.6
93591
76328
79370.5
97330.5
103648
84527.6
88957.2
89638.3
110121
93879.4
115064
80737.9
108185
80220
102425
80036
81656.4
105484
83617.4
112921
81820.4
86126.3
112745
83617
108874
126166
98245.3
113144
108362
93524.3
98689.8
120425
90070.3
120733
86303.7
89339
117280
93393.1
122599
101142
104350
136002
133659
94959.4
98356
128827
144121
84.4057
0.379151
172563
160323
133261
144319
146988
161877
121023
25785.2
10845.8
34274.5
6927.8
9346.11
19280.3
20133.3
-4301.22
17719.7
12017.1
16308.3
13762.6
7010.32
12352.5
10510.8
16828.9
16986.5
9959.03
2863.33
4171.19
9828.24
9746.93
2581.1
15097.4
3768.89
10387.7
9379.59
6039.14
3172.84
-7259.33
-2627.97
-502.537
4715.99
-886.712
4010.5
494.352
36025.8
27388.1
25913.1
20491.6
16139.9
16065.2
20523.6
34387.9
33652
25428.4
16560
23635.6
21706.5
17357
5657.84
5243.22
6055.94
10945.9
9345.23
9667.41
12093.2
6137.18
8807.32
5853.86
10362.5
16161.2
14008.3
11043.5
-89472.6
-88469.5
-69158.9
-65147.5
-49159.6
-49902.2
-62211.2
-55055.1
-84396.7
-89249.6
-88050.2
-88479.8
-87608
-88203.9
-85238.3
-81973.3
-89298.7
-80167
-85334.4
-86279.5
-87356.7
-75607.5
-61548.2
-69340.1
-70996.9
-59519.1
-77286.1
-64784
-61099
-59143.1
-68414.2
-75896.1
-44489.3
-80641.4
-47570.7
-62984.1
-87892.7
-88920.8
-87699.3
-88093.3
-86584.3
-88537
-88672.5
-88380.6
-89174.7
-88997.3
-89038.4
-88585
-88861
-88861.3
-85273.6
-85183.3
-83387
-77592.5
-82616.4
-87138.2
-80812.9
-86509.2
-87252.6
-86770.4
-81733.8
-84555.2
-84209.9
-88098.2
-67970.2
-73113.7
-81513.9
-65245.6
-80320.7
-74725.6
-63874.1
-58495.6
-56258
-48746.8
-43382.6
-42446.9
-57041.8
-56720.3
-61449.4
-72064.7
-82902.9
-52330.3
-82380.8
-50684.5
-73545.8
-60939.2
-60115.1
-48782.2
-44874.9
-43716.9
-62390.9
-58786.2
-87496.3
-60074.1
-55079.3
-55015.6
-51547.2
-46586.8
-50059.4
-42912.5
-62367.5
-74566.1
-75377.4
-82083.8
-66127.4
-67888
-68725
-58813.4
-60708.1
-65764.1
-59543.7
-62344.2
-62053.7
-59515.9
-58023.6
-63962.6
-53015.4
-52112.8
-60410.7
-59736.2
-51897.5
-46957.2
-56836.9
-68489
-43882.9
-58992.5
-60854
-45299.7
-78656.6
-85490.7
-85213.7
-86635.4
-81135.7
-83285.5
-83557.7
-73074.9
-80211.7
-70991.1
-72291.2
-75396.4
-77278.8
-69419.6
-72729.7
-80215.2
-70456.3
-73181
-74831.7
-68944.1
-77847
-76008.4
-84972.6
-76983.7
-78177.9
-80237.3
-72985.9
-81308.1
-47478.8
-57984.7
-51426.4
-50378.2
-58304.5
-52188.2
-56500.7
-56701.1
-57175.5
-51832.3
-46600.2
-56870.8
-48413.8
-56966.9
-43071.8
-45577.8
-53598.8
-48656.2
-54790.9
-45487.2
-48328.9
-45084.4
-54421.7
-49261.9
-50662.3
-48221
-49338.5
-54693.2
57690.5
47537.7
46306.7
61991.7
6578.61
4643.15
25653.4
17617.2
14417.1
10888.9
12643.6
33130.9
37689.4
27848.4
29345.4
19636.3
17238.7
13726.1
40997.2
38702
30292.5
32147.6
3626
16947.8
7214.98
8575.02
22058.8
23364.8
18118.2
56736.6
41923.3
46666
45167.1
43450.5
49168.8
60651.9
5130.49
11099
9053.76
23863.8
19768.7
18605
25253.3
72466.6
72106.1
59103.8
49649.2
63840.4
66368.9
47933.8
32953.5
47395.8
38691.4
41387
51160.5
56717.7
33920.1
40652.2
55394.8
51263.4
32902.9
59371.6
33260.3
39559.1
-36084.8
-45474.1
-6673.37
-1998.65
-6722
-30845.9
-30667.5
-8205.01
-31794.3
-43962.3
-33228.2
-43801
-31953.3
-43319.4
-32114.7
-22371
-31970.7
-42469.4
-40757.9
-30562.4
-43470.4
-28382.8
-38014.7
-30975.9
-38379.3
-31435
-41616.9
-41153.7
-31761.3
-17720.7
-18265.1
-366.029
-3681.57
-17043.2
-18288.7
-2679.97
9699.12
-17816.3
1347.44
1724.69
-15800.3
-2356.65
-13876.8
-31410.1
-40047.1
-39531.8
-31775.9
-41087.2
-41809.2
-30189.2
-8863.77
-20590.1
-21024.8
-19237.3
-6067.16
-19703
-5299.32
-8237.96
-19588.4
-20913.1
-19378
-3279.03
-5405.45
-17304.2
128107
148107
142537
167637
175012
169444
176458
138651
158922
153723
171589
170799
177356
177870
156290
172140
166990
188526
182286
183665
190142
167327
182592
177418
184722
192426
185131
191480
192.639
20980.8
12757.9
64.0817
10590.8
26.659
30362.2
178073
156285
178540
156271
176504
176952
151871
171677
151047
174356
174806
138340
171994
145936
152112
182524
180215
178916
141260
181537
147149
176951
176903
131170
132751
174151
179769
140479
112694
23170.5
0.497966
109117
30042.8
0.600228
151872
6554.4
0.285874
112253
31120.7
0.551759
171736
8.45857
0.0656811
164102
110144
168018
153740
134222
145832
129932
167940
163372
118979
154602
137539
150828
161972
161410
147241
133174
141391
129876
119765
144563
165914
158896
146396
55244.8
99797.8
139596
107829
106447
103555
36646.8
42031.4
52758
45460.5
76561.8
74086.2
47304.1
56199.2
45614.6
60888.7
44771.1
45463.3
59332
49119.7
40441.8
43369.2
45175.7
45698.7
57236.8
54563.3
23858.5
20006.1
15897.7
-823.736
25586.4
28115.5
17371.2
-88.5329
19922.9
9453.21
10879.8
15844.6
10888.7
7465.36
13591.6
1821.8
3964
2864.77
8110.67
6520.45
4238.68
2824.1
40136.4
31489.1
17578.8
18947.3
9499.18
6971.29
14720.8
671.646
3482.53
-530.764
14182
5946.88
3179.76
2549.77
17505.8
33373.5
32440.6
26623.7
24925.6
10519.8
11823.4
33668.3
23309.4
33252.6
31499.5
28880.6
14450.8
18827.3
18628.9
6124.77
7764.67
21400.2
20124
7487.28
8924.6
21251.9
10942.2
16429.7
27583.6
23716.5
11851.4
16634
35124.7
39138.7
40815.8
59962.9
57053.7
60369.9
58348.9
38863.5
44681.9
42708.5
60456.8
61118
59754.4
59844.3
79158.9
60278.5
63904.5
90113.5
73309.1
70247.2
86954.4
74864.5
54650.8
57093.3
67153.9
82579
64207.6
84372.2
80027.8
104931
79973
99593.1
78557
77007.3
96947.5
79812.1
102214
79339.9
75168.4
92523.7
73000
94526.9
37529.7
5300.62
44716.7
38495.1
82376.5
49394.8
65575.8
44905.7
38693.8
25724
28637.3
31143.4
53530.5
36264.6
20353
69827.1
79640.1
58869.5
76621.6
70112.2
57480.4
75186.1
37879.1
59816.8
58034.3
41213.6
28468.7
21310.3
49743.7
71162.3
67401.2
69885.8
60599.5
72797.1
65617
73364.2
39029.2
37638
31031.8
26224.8
21902.7
25425.1
19019.1
65542.9
40578.1
48725.5
43171.4
40809.9
31194.1
61239.2
11851.4
10151.6
22366.1
11488.2
15052.3
12702
26347.6
38315
20824.3
40057
61568
22707.9
45842.4
59627.3
124435
115237
128156
159928
161247
168858
166917
170321
170417
168605
16487.7
4465.62
35749.5
55183.8
109073
121408
119284
159071
158726
164000
165180
110291
118221
118411
160062
159051
163456
163552
123290
137269
132472
165497
163165
171008
173123
120002
123042
116357
161585
163303
164261
165360
131641
146822
144373
170405
178660
176461
172276
149837
153360
141441
176493
180871
174383
182885
129258
142660
141637
169026
172841
174483
168151
150876
157405
145920
178626
186732
180598
184843
127505
127207
121253
166702
165028
166684
168032
141460
142451
131930
171552
167799
167940
170664
147801
140008
135390
168411
170183
170268
169169
139635
141176
133994
168210
169224
169415
170091
156602
151462
145588
170156
169903
170258
169851
152904
155081
148336
170242
170185
170370
169944
162512
161426
157229
170057
167025
168988
168979
33035.8
253.008
316.712
107.757
79559.1
85.9974
69426.3
3169.14
232.435
25067.3
105.95
79287.7
78.162
12829.1
178005
166049
178647
177669
159059
176633
161252
167290
179658
179150
178567
163583
162687
179428
179961
167091
179992
180073
163666
179921
162981
165613
179131
179845
180035
159481
179554
161665
14690.1
99.6865
214.59
72.4149
62712.4
35354.9
32.5034
177172
157831
175992
156051
175435
173931
152097
166320
164189
161135
169434
168404
167187
165054
177938
158933
179571
151899
177704
157618
179283
176482
152986
149317
173435
175668
174877
155698
180874
159399
181064
154392
180307
182037
158999
181114
155631
153237
182867
180916
182685
157848
149429
171067
173140
171217
135882
168547
144847
171512
169663
167092
163205
166456
161718
156780
153185
172115
174335
172020
140332
146976
169639
171421
171196
170257
154319
162561
158988
148597
169066
131522
128953
162611
165803
138968
166515
6.17948
18.2513
21099.7
7757.44
69.791
26072.8
22.5898
169309
131907
166703
129941
165936
162971
120656
23627.5
41404.7
6766.12
24683.3
46329.3
40486
40411.5
8127.65
42403.8
36703.6
28554.6
41276.9
26684
41779
35102.8
38798.2
26925.9
26140.9
31485.3
32270.4
36873.1
33856.2
12197.8
8058.75
14364.8
14905.1
22325.6
21892.7
12769.6
19297.7
16962.7
13215.1
10338.9
16660.9
22682.7
14455
43698.1
29755.7
43157
22185.8
33791.8
39508.3
37442.2
19477.2
25526.3
14843.9
30446.6
26858.9
35130
31637.1
37927.3
38939.8
23113
35878.6
32160
33402.2
39830.9
39913.7
23759.3
25615.1
35981.3
47261.9
34456.6
43569.2
173264
481.314
0.62984
709.762
0.75663
127644
163.127
0.389741
179806
176487
528.639
0.653886
116509
103052
0.483331
171486
3.17013
0.0801688
175800
93267.4
98759.4
101273
168237
102151
172092
161535
114010
104651
111447
165656
152492
122028
97310.9
179922
95864.1
103238
171967
167480
111280
161745
173994
106250
125192
164588
115401
149922
144197
155818
124723
109852
147454
145576
131467
33084.6
42579.5
46112.1
34858.4
68190
68354.1
6425.92
38172.4
16041.5
35321.4
78158.9
71645.3
59373.7
38685.3
36683.9
20719
34602.2
33025.1
69637.2
78552.5
8208.88
15977.3
42414.8
47691.5
86026.7
68417.1
44834.8
66666.4
77651.3
86557.6
35457.4
49964.8
10017.3
5369.41
10759.9
20426.6
18812.7
21258.2
22142.4
30941
38801.1
26061.2
29391.4
45759.7
32500.2
41527.4
10535.4
10531.6
12015.6
22496.7
24946.4
23793.7
26021.7
50274.6
54851.7
49511.7
36194.4
41396.9
41494.7
36669.2
37791.9
30421.9
34691.8
18425.4
21802.1
27344.6
26501.3
5900.64
5199
12763
17474.8
17856.5
21283.1
22206.7
20890.1
32410.2
15556.1
36260.9
24429.4
21453
31583.5
26340.8
11089.2
7783.04
17881.2
19254
27506.6
24269.7
32509.3
26438.6
23332.1
16408.7
15871.5
26867.4
28132.2
52819.2
63889.5
56178.5
51480.1
46465.6
51931.4
46644
26615.5
41178
27935.6
31725.6
32365.3
50766.8
46021.8
13162.3
16528.6
14059.4
30404.3
27619.2
28599.3
31376.3
73007.4
59721.6
63697.7
56427.3
57148.9
61439.8
62174.7
34550.3
21611.1
21330
17919.7
16463.9
30093.2
32559.8
37735.7
38875.8
42454.2
61582.8
56369.1
50463.8
54311.9
82322.8
68264.7
73433.1
71856.3
66580.1
66884.2
71172.4
36492.9
61838.3
60187.6
37969.9
63229.5
39424.4
61608.6
34629.7
58993.1
58315.5
37125.1
59871.1
36903.1
60461.8
69413.6
49531.3
52402.4
41382.2
63054.8
42482.1
63057.6
67884.1
46719.5
47615.6
41205.4
65085.8
41823.6
63757.1
56084
74626.2
60265
47813.5
63935.3
44688
65676.1
38675.1
61840.3
60085.6
64519.8
44411
41449.3
62402
35336.4
58899.4
58276.6
39128
59998.4
37547.1
60882.1
40180.9
66102.3
63825
65216.7
41323.1
43565.4
67555.1
82007.6
64712.7
69257
71057.8
55730.8
51581.9
68099
71732.3
46805.1
47834.3
66951.7
43154.3
45113.8
69323.2
44894.7
71991.1
68786.3
46119.4
73702
70346.1
49023
74705.3
49791.8
52535.5
47607.9
75898.3
72284.3
50594.4
43934.5
41143.5
64034.1
67112.7
47769.5
51262.1
70081
90168.3
73772.1
78183.9
74385.5
59971.4
64086
77952.1
73149.9
69705.9
46876
54677.3
76945.1
57993
73361.3
71549.6
94384.8
98610.9
85609.1
81695.3
82449.5
67956.2
169983
159344
163923
119021
111200
22554.1
66640.1
23032.1
26114
25944.6
-6244.8
24785.8
14796.4
35811.7
2729.47
3617.92
28665
17503.9
28036.3
28859.1
11754.1
22384.2
32176.9
27972.5
28649.9
25568.8
19011.3
26266.5
29639.8
8929.06
7098.44
12881.9
15349.8
17717.1
24179.1
23375.3
23085.3
20819.9
21035.4
17540.6
12796.6
20714
24301.5
-3545.1
8271.42
4551.86
-2926.28
-1593.58
14504.5
8445.96
-858.2
11691.6
4531.7
20192.3
19227
25465.3
13418.7
31803.6
25445.9
28679.6
20421.4
17818.3
24160.8
22760.8
25718
34447.3
36494.6
27380.7
31708.8
30140.3
27366.5
95665.8
95053.5
93826.5
150169
147976
149841
148276
96930.3
96789
95032.8
151116
150664
152601
149201
99443.7
97798.8
95662.9
152042
152729
153911
150622
94170.3
93366.5
95113.7
148225
150008
150722
149101
101280
102322
99174.5
152740
154635
156996
155255
111358
108847
106367
159531
160642
161975
157949
110927
114575
108957
161529
164106
164132
161164
104864
103033
99326.1
153349
157242
155836
154850
102212
98101.2
97599.1
152361
154757
154984
151980
105136
98976.9
97888.1
155063
152081
152687
155901
107857
100827
103432
153904
159213
157361
155624
102401
104312
100606
155322
156208
158788
158153
107682
104080
107680
159147
156815
159090
161266
120046
111016
106859
161313
157770
160186
163571
117601
116236
112144
161425
165158
163309
163528
130722
121421
115863
162538
167136
165623
164653
127597
120285
117483
163055
164132
166192
165280
136104
128717
124076
166916
165485
167308
168417
141622
132927
135747
167992
168923
169366
167302
151148
139429
143737
168800
170178
169599
169838
157606
152196
150042
169868
169992
169788
169581
565.738
145580
138110
37609.5
41224.7
330.836
414.018
180687
178962
181083
178112
177275
180991
180765
181072
181514
178234
174349
176258
180987
181444
701.002
137418
145523
39070.7
4124.64
305.79
32023.9
180434
177704
180127
174032
180081
175986
180503
180145
171529
179112
170139
179526
179811
173487
181270
178174
181124
181074
179294
177455
181323
161538
154933
157973
169913
170034
169176
168441
179765
171452
179672
178957
170073
168233
179205
228.918
133090
106651
29518.7
19169.1
131.749
280.846
180359
175572
171370
180080
179790
174775
180620
175539
180172
180683
180537
171043
180051
174687
197.564
440.792
131896
112.403
253.948
27234.5
16896.7
180415
171237
169596
179477
179888
173306
180151
181460
171715
180727
180089
170744
168358
181082
168491
178721
179637
178707
160771
177360
164981
177789
166218
176650
159438
164283
176093
178186
168952
178494
179313
178447
162277
177485
165681
178949
178684
166718
158977
177281
164184
180178
177101
156477
157957
173963
175991
161579
175261
177267
154982
172944
155949
175371
175281
160568
162839
169138
164090
165391
164064
168237
167568
43.7067
44089.4
93706.1
24.3647
27531.1
10183.6
92.9288
174629
153449
173924
171142
148673
145905
172049
170851
158321
161012
168797
167067
166523
164937
150096
171320
172854
169837
136749
168140
141976
167734
164801
139465
123600
136206
163525
168809
166267
117742
159242
125429
164287
131667
161713
121587
158649
163238
158935
93145.3
153426
108342
171612
168079
171342
153726
129105
146275
140520
116840
155905
161632
158048
87242.5
105705
151282
2178.16
14.1514
8873.14
4.46762
3528.99
25.2583
28585.8
159525
106169
157897
90038.4
152144
149903
84254.8
90224.2
142071
152306
99270.8
155566
146647
76425.6
153106
135741
72093
75219.4
146143
91961.5
144811
1564.07
10.6335
6553.46
2.04462
406.156
3692.95
4.03056
78823.6
135751
147780
65359.7
141487
127161
42679.9
144256
141743
140425
61614
60070.3
54655.5
56116
141810
134180
137959
52114.5
56895.2
51609.5
47042.8
141612
144069
140073
61253.2
55728.2
59204
53728.6
129341
40049.9
128049
136434
135142
47810.3
49159.2
141418
133100
137300
50066.5
55433.6
50069.9
44949.3
127123
40798
128983
136197
134526
48744.4
46836.3
128920
126377
121791
45941.3
41262
38896.1
34802.4
34298.3
38940.8
123736
64621.8
140948
137721
58761.2
34015.5
125366
121069
128645
132623
44988.7
40821
118720
36068.8
123759
126946
131517
43422.1
38764
127212
124440
119301
43447.7
38799.1
36199.5
32171.5
117562
32618.4
119607
108126
106020
23378.1
24653.1
120057
32083.5
118705
108592
107177
24278.3
25037.7
42185.9
103286
126720
112287
28687
133134
51116.1
117550
101512
112629
24364.6
31597.9
28065.4
21387.6
24448
115025
107141
122981
115419
35654.2
29871.4
22035.7
111887
103221
120550
112226
33292.3
27349.2
27005.1
115851
111317
99489.7
104195
22616.2
20135.8
120700
50489.9
132824
115025
20151.1
99194
30745.1
108526
28540.6
113892
18374.1
96539.8
102206
21209.7
114785
97376.1
109351
21669
28844.7
25388.5
18841.1
16723.5
101375
92260.4
15224.2
88883.8
79293
12075.8
18893.9
105039
96899.2
92931.7
84415.5
17096.4
13872.2
14297.8
97387.4
85520.7
94519.2
105942
23812.5
17893.2
92602.3
79910.8
12382.9
89652.7
102003
21268.4
15640.7
32936.4
91695.1
117637
105579
11285.8
23973.2
77208.9
95165.4
77886
93623
17144.2
11941.7
11544.4
17710.9
94752.2
77179.3
92568.4
16445
11762.5
17402.1
11129.9
88244.2
78445.1
72880.5
17605.3
15348.4
10495.7
12065.4
85389
74501.6
90392.8
15929.4
9490.42
10705.2
14147.7
82521.6
67255.8
8686.27
73191.9
88513.8
14857.4
10060.9
10915.5
86712.9
74631.1
62212.6
74072.2
10752
7972.94
81140.7
68402.7
9321.88
55422.6
68057.7
9171.54
6686.54
78578.9
54466.6
70052.4
8040.15
11996.7
9716.87
6513.32
6937.43
56739
71776.9
80901.4
65608.9
12790.1
8724.81
74652.7
59425.7
7171.53
50100.2
64983
8365.84
5669.23
90391.1
42670.6
7279.34
9794.32
71824.7
15914.4
60366.4
48642.7
45048.1
59989.4
7525.61
3739.64
5050.29
5582.83
5284.16
46589.3
61100.6
49155.8
36186.9
5665.05
3850.5
61608.2
39407
56227.7
6852.23
4927.4
4281.63
7882.24
42041.7
40194.5
53761.8
6338.4
3076.38
4611.29
4284.28
2794.89
4526.79
41228.1
33768.7
49276.9
5694.47
3547.11
15213.2
-4147.4
36519.9
22130.6
29084.6
7758.58
9917.11
-8458.94
11768.8
17741.5
2768.66
3905.52
10353.1
19632.5
11842.2
-8063.25
-3255.4
-2500.54
-1046.56
4096.85
5380.75
-55.6072
20594.6
10710
6546.64
27765.5
22997.8
14570.5
18500.3
4539.32
1847.52
-6618.67
2545.64
-569.813
7627.78
10992.8
38695.8
26938.5
36163.4
26024.2
18695.8
20829.8
29033.8
32233.9
42057.7
46378.1
23601.3
36989.6
32731.1
27405.7
15960.4
13241.9
6589.8
18752.9
12250.4
13825.4
21830.6
13006.5
29189.8
19359.5
9932.87
18828.2
16065.6
25295.3
56195.1
36389.6
27699.5
51062.8
43611.9
50536.5
56895.1
46731
44316.3
39107.1
31412.7
47331.1
35180.7
55002.3
42701.6
44670.1
51344.3
39652.4
65508.4
59943
47204.3
52569.2
22729.3
20321.2
16736.1
20802.6
26822.2
31765.2
24524.6
29816.2
25117.3
31365.9
36528.9
34643.6
29234.1
41951.3
47839.2
37078.2
48741.8
44057.4
53089.6
52221.8
54362.6
46790.7
28420.1
32185.1
38374
50998.7
41813.3
55111.1
66155.3
50629.4
59511
57125.7
66062.8
62873.7
60084.8
36705.1
42088.1
56488.9
46162.2
65374.6
51609.1
59836.9
2085.09
3432.17
32864.9
15099.2
24651.6
2466.14
1472.16
37062
17633.2
26394.8
2621.65
3961.06
2659.64
1725.61
25078.8
16306.7
14021.2
2917.83
2516.83
1595.69
1366.32
16353.9
1599.6
20846.2
11442.8
2059.88
1110.08
856.413
10202.8
11059
17073.7
1669.6
625.804
1069.5
985.809
12153.1
1178.95
8571.84
4617.83
825.733
626.687
434.16
686.01
7465.61
7203.79
6293.54
618.967
598.64
6516.79
35.8449
0.695256
28.7479
0.848523
62.2288
0.823963
49.5762
607.128
5582.57
6398.01
5584.37
460.271
528.849
4875.83
26.5226
0.739818
33.6107
0.758167
46.0013
0.825794
61.3914
636.674
5929.62
6675.89
5840.2
494.221
5194.88
555.973
7381.78
667.024
611.006
6439.74
7024.37
6128.34
581.193
4126.74
8428.8
7219.85
386.87
813.313
694.039
327.941
5054.44
420.397
4432.69
392.433
4139.39
3628.9
342.507
24.1414
0.521522
11.4439
0.709316
41.9947
0.585928
3.99078
9.68372
0.52328
4.05422
0.572577
21.7439
0.633107
38.0938
372.393
3954.89
3520.56
4904.36
413.197
4367.01
464.853
400.763
4397.55
4253.74
5278.71
517.035
500.324
5460.89
387.721
408.185
4337.84
510.125
5392.55
5131.71
485.023
171.303
2132.47
1848.75
269.489
2900.41
2521.47
233.852
3272.17
3755.68
352.176
4677.52
383.536
441.076
4083.49
228.178
2998.11
2440.47
351.147
3726
3044.25
285.715
4677.26
383.449
4085.05
352.348
3763.67
3282.18
306.147
4557
2855.02
5879.03
560.698
197.612
429.027
261.938
5765.26
1920.23
3083.41
342.081
547.399
282.678
172.866
27.0195
0.578526
21.4818
9.30212
0.451285
7.59038
0.438834
19.7241
0.588659
25.2689
6.93602
0.414463
9.08231
0.46952
284.925
3050.67
2711.46
2240.25
185.114
1988.1
208.458
306.68
3390.92
3281.84
2411.16
231.469
224.283
2490.26
295.8
311.881
3339.57
2317.39
227.619
2448.57
215.557
306.236
2440.16
3251.43
2844.02
199.332
266.981
2127.15
202.171
2728.32
2175.71
319.031
3416.55
2736.5
254.331
2497.23
2877.35
268.166
168.83
1812.4
2096.36
195.125
7.07899
0.484663
15.8439
5.48149
0.355259
0.236483
3.08266
153.074
2072.55
1646.64
139.55
1499.38
1188.09
110.536
17.9665
0.399216
8.3983
6.27627
2.74263
0.36562
0.281677
174.093
2301.95
1866.77
156.907
1684.79
1364.26
127.067
177.227
1897.24
1410.11
2376.86
165.655
222.307
1771.34
141.854
1532.22
1213.03
153.942
1659.71
2093.86
193.934
3352.2
1059.28
2321.15
140.16
309.746
210.909
94.1364
1685.18
161.266
1166.36
104.423
1128.95
156.357
1739.73
1615.66
158.325
1147.81
100.244
1709.33
1086.03
149.759
1744.25
141.78
1517.34
1033.4
110.812
96.1033
1189.64
7.62042
0.223438
2.84229
0.443959
3.11031
0.304958
3.08617
1565.97
129.029
97.0316
929.092
1048.02
1389.82
145.351
116.917
1259.26
845.903
1459.23
90.7575
981.166
135.484
134.838
1447.25
1073.2
1055.8
72.0436
97.9039
780.43
914.265
116.285
1253.45
901.381
60.1905
654.181
83.3623
109.195
785.79
1177.4
952.395
58.1404
633.718
87.9993
62.4971
1001.4
677.824
117.478
1260.89
856.687
79.3273
96.1982
1038.96
695.815
819.815
50.0244
545.65
75.5546
676.671
914.316
1502.46
134.972
35.1567
81.2253
59.2258
4.6149
0.14771
1.78992
0.987769
0.103473
1.99195
0.156242
734.982
49.3068
44.5178
354.484
486.42
67.3255
540.379
46.8502
759.363
510.854
50.1848
549.033
365.871
33.5343
669.416
70.8466
475.041
37.6431
61.1556
409.782
772.535
617.831
40.6141
37.2376
287.625
443.767
406.732
56.3949
39.5366
261.379
434.201
552.524
31.038
50.3055
335.788
34.1224
244.007
376.539
247.737
15.1595
158.625
22.8634
29.4881
192.74
323.857
229.042
13.1545
21.1993
134.871
0.58002
0.118482
1.19398
0.711791
0.0922569
0.14236
1.6133
273.15
21.7622
234.222
14.0809
146.64
125.164
12.1345
146.792
17.9011
190.311
100.98
8.02645
77.3016
10.0334
153.075
55.7224
9.01002
9.66191
96.8297
14.3801
89.0922
0.430321
0.0907857
0.774482
0.282911
0.0548792
0.51509
0.0731696
107
7.80218
73.9106
6.18427
55.7051
38.0744
4.68935
33.9784
7.75642
72.6114
61.5419
4.01933
28.7028
6.78985
60.2128
54.1535
52.4448
7.31734
6.60237
6.7055
7.20066
58.3772
53.4059
50.7885
7.20944
6.94337
6.60457
6.36536
55.7663
43.2573
48.6269
6.38021
6.47271
5.95479
6.95992
52.9104
40.0545
46.051
5.95361
6.51992
5.97631
5.47388
48.9502
17.2053
4.75454
3.57237
36.9836
22.6797
5.70267
29.3151
5.47096
47.7129
24.2889
2.86163
14.9645
3.55696
34.7647
44.8221
43.4565
5.95665
5.39561
5.28236
6.08395
32.2851
35.9129
40.3741
5.61232
4.69861
4.97318
5.26009
30.4884
33.2046
38.1898
5.30301
4.36234
4.70546
4.87347
35.3213
44.1879
42.0536
5.32502
6.00138
5.77648
5.12969
36.5964
34.2418
29.8647
5.75871
5.34282
5.13198
4.7997
33.1506
30.3937
26.4638
5.21872
4.61022
4.81372
4.29133
1.03319e-07
2.24533e-06
4.42741e-05
0.000826447
0.0130513
1.14025
15.7368
1.07393e-08
2.29935e-07
4.41911e-06
8.18366e-05
0.00139841
0.0197942
0.194135
7.567e-10
1.87865e-08
3.52957e-07
6.28586e-06
0.000106181
0.00161303
0.0195274
0
1.19326e-09
2.37342e-08
4.09244e-07
6.56287e-06
9.68479e-05
0.00122958
0
0
1.22236e-09
2.26282e-08
3.48766e-07
4.86305e-06
5.95307e-05
9.91754
0.116471
0.0120408
0.000587483
54968.2
87002.4
9628.01
2.21927
0.0596593
0.00484171
50296.1
177562
102158
0.325433
0.0165151
52891.1
229909
193610
166035
11062
253889
218398
181595
136646
154.466
247620
173285
132350
113768
1.71575
0.314569
0.0261767
0.00319132
0.250137
5934.7
89010.5
238199
161330
0.000389225
0.00741382
0.000175507
0.0032388
3.84931e-05
0.000942093
7.37753e-06
0.000169136
1.08099e-06
2.4031e-05
0.000476571
0.00807316
0.105994
11289.4
264503
169630
1.39175e-07
3.02005e-06
5.89003e-05
0.00105968
0.0157035
1.38385
14447.9
182881
1.43627e-08
3.11207e-07
6.01998e-06
0.000111412
0.00188007
0.0263228
4.76473
22565.5
1.07684e-09
2.5495e-08
4.79995e-07
8.57588e-06
0.000143953
0.00213288
0.0251178
0.159712
0
1.61526e-09
3.23198e-08
5.56e-07
8.89375e-06
0.000129486
0.00159788
0.0146594
0
0
1.74623e-09
3.06754e-08
4.70478e-07
6.49704e-06
7.80145e-05
0.000740738
81109.2
86186.9
49766.3
180111
102352
3.19922
130466
0.0626112
0.487782
0.00620797
0.0235492
106860
122485
102861
94601.7
63156
37554.6
118491
72348.4
158572
114145
122992
56759.2
75279
114287
98207.4
110633
114162
98329.9
46829.3
56486.2
113340
78702.4
174742
135266
139004
126033
112535
120963
128639
116903
121362
91954.9
85843
80963.6
73454
116486
54579.1
46230.9
54215.5
43241.1
50233.2
56897.5
53883.3
103275
107987
97589.5
109782
114563
124938
121237
102738
112367
106815
108036
115526
119105
99891.3
59163.9
135541
72932.4
79232.7
67073.8
84345.9
122026
111962
92396.6
109492
136172
126311
84633.8
79821.2
58568.5
132959
72559.6
50120.3
58794.5
72216.3
133371
120962
79187.4
78676.8
75393.1
97858.2
105274
86343.2
73342.4
57887.1
61110.6
68862.6
85012.4
67788.2
84416.5
122572
134539
122595
131224
145732
136043
125575
80596.4
93202.1
109525
111616
59122.1
88365.2
77991.3
150692
164570
171241
86847
137066
134547
111851
122844
136945
125816
134834
148041
134632
143753
112218
131262
123724
124257
97501.7
127361
99665.3
135988
88420.4
111814
76497.7
134015
138030
230325
112379
68869.9
68892.6
71199
90693
99422.5
79624.4
63664.6
51719.3
54373.9
65309.2
78480.6
77602.7
64470.3
136459
136602
137284
149027
149245
148239
150510
127753
135241
135317
143980
132098
130590
143952
140039
133564
87111.6
143818
103238
79299.9
125004
68249.7
48123.6
55423.4
55348.9
66735.3
62309.6
58994.6
128069
166783
105533
142706
119100
79632.5
98420.2
239967
274555
65826.6
184313
115350
353029
245284
85181.7
406844
574300
452962
412545
361515
366615
326131
359451
372012
328424
381425
379437
333852
439068
392708
577156
294684
432626
567867
19811.8
469704
92202.3
325002
309436
351517
308490
369810
272592
197875
211615
149489
171076
239911
0.0426696
0.00195044
9.265e-05
0.00979169
0.000504793
2.43917e-05
183172
148257
206287
84328.2
32607.1
20598.9
104058
67741.9
211.868
10087.2
52902.1
275432
203693
325540
233065
240109
269000
227546
170696
187709
154786
305861
241186
1.62592
0.121911
254888
197414
161143
183327
141090
82437.9
102604
101766
49207
32255.8
126856
167796
255130
6144.47
62676.3
205098
779.11
118819
72413.5
113681
264772
241996
185613
177197
68434.2
110581
167855
87113.8
155564
152904
193893
117647
88704.4
224624
159658
47579.6
66417.2
128595
361449
159450
323.409
14.7051
210.182
46634.7
1.69763
31.4923
1.52534
125507
0.196453
0.0145636
0.000717512
190751
1551.22
0.07053
0.0623184
0.00435025
0.0041631
0.000217809
124896
196763
418164
316670
375268
438689
0.000161687
0.00312638
2.01281e-05
3.7577e-05
2.97121e-05
0.000391343
0.00216544
0.000195206
0.000873957
0.0415333
3.61336
0.035525
3.17697
0.00627881
0.0451304
936.486
0.24004
4445.69
13.4788
467772
154.142
3.11411e-07
7.4186e-06
5.02332e-07
1.13504e-05
4.78758e-09
1.4843e-09
1.19326e-09
5.23869e-10
1.96433e-06
1.77824e-07
5.57164e-07
0.000160063
2.13477e-08
2.9715e-07
3.95512e-06
3.02261e-05
2.22348e-05
2.02871e-05
1.06175e-05
2.51603e-08
2.2701e-09
1.218e-08
1.5134e-09
1.77242e-08
2.61934e-09
1.58325e-08
3.71074e-09
4.03088e-09
5.67525e-10
3.49246e-10
5.28235e-09
2.76486e-09
3.49246e-10
5.31344e-06
1.65199e-06
1.86486e-06
1.99175e-05
0.000253311
0.0013898
7.05069e-05
7.55375e-07
1.43595e-06
4.68863e-07
1.79571e-07
2.89787e-07
1.05487e-07
3.8906e-07
0.000283833
0.000167541
0.00048037
1.93104e-08
6.02449e-09
6.1118e-10
2.33558e-08
1.53814e-08
9.70613e-09
6.97037e-09
2.34286e-09
1.1496e-09
8.58563e-10
1.68802e-09
2.53931e-08
3.52156e-09
1.62254e-08
2.13477e-08
3.25963e-09
1.94996e-09
3.0559e-10
6.88306e-09
1.1205e-09
3.47791e-09
5.67525e-10
3.30328e-09
8.87667e-10
0
6.69388e-10
1.01863e-10
5.23869e-10
0
5.23869e-10
1.01863e-10
1.33878e-09
1.33296e-08
1.1205e-08
2.03727e-09
1.72586e-08
2.41562e-09
9.02219e-10
1.01863e-10
1.5134e-09
1.00408e-09
2.91038e-10
1.38243e-09
3.7835e-10
2.91038e-11
3.37604e-08
4.41636e-07
4.38216e-07
2.43905e-07
9.88657e-08
4.10218e-08
7.50442e-08
7.36618e-08
14.6051
0.0909257
210.218
222.213
3394.89
12.0811
3101.24
0.95237
0.832538
13.7437
0.00301913
0.00348813
0.209603
0.00989116
0.00620998
0.0517001
0.0332474
0.0548333
5.66506e-08
2.44897e-06
4.09884e-07
5.04995e-07
2.2826e-06
2.49653e-07
5.18776e-08
143058
2705.33
276946
352522
381175
233823
433419
27593.7
45342.1
215684
124142
6.61648
0.0128578
67.9687
37.3982
90.9272
192.974
108.435
150.632
23.7495
19.4017
73.4703
4.59422
64.7618
5.97502
62.5665
59.3796
5.55235
4.9864
3.76604
51.4568
34.648
3.50254
48.4022
4.62475
2.74697
1.029
21.5552
2.40966
13.2644
1.7696
11.6025
1.58087
1.04201
210.134
0.521417
76.7679
0.0999216
0.360866
0.0200494
0.0282992
2.24247
0.043549
0.0324508
0.2505
0.186235
0.0809637
0.122059
0.0631441
0.0869142
1.41944
0.801206
1.18125
0.0234529
0.00951679
0.134019
0.0541305
2.88635
0.0423878
0.0532056
0.0199561