/*--------------------------------*- C++ -*----------------------------------*\
  =========                 |
  \\      /  F ield         | OpenFOAM: The Open Source CFD Toolbox
   \\    /   O peration     | Website:  https://openfoam.org
    \\  /    A nd           | Version:  9
     \\/     M anipulation  |
\*---------------------------------------------------------------------------*/
FoamFile
{
    format      ascii;
    class       volScalarField;
    location    "0.00315";
    object      p;
}
// * * * * * * * * * * * * * * * * * * * * * * * * * * * * * * * * * * * * * //

dimensions      [1 -1 -2 0 0 0 0];

internalField   nonuniform List<scalar> 
26756
(
123405
109247
113857
135910
120856
143639
114193
134393
117522
113849
110857
113440
116741
120880
117357
117105
125480
121362
130618
125442
121623
126336
111078
107336
108676
109657
111184
114661
112636
111466
117187
113836
118455
119738
122735
115926
139300
123414
127209
119168
130140
122884
133609
131657
136891
148944
127159
142872
132150
137828
126210
114049
116198
119700
126426
129552
117155
123682
130011
138266
124967
128318
133522
120729
200371
205426
173885
182380
138629
227800
243570
149898
211573
217623
135434
134945
149850
191636
183759
167004
160719
163854
150926
163463
145202
144598
164725
152164
170307
153889
168253
146131
144858
166243
177893
156199
159448
170900
148206
151410
174415
116519
133553
105308
110678
118522
101046
105529
121151
103515
100879
102933
107542
108659
105432
104074
107658
110473
113304
107890
105223
110048
107445
102066
100932
99869.6
101796
101752
102602
103534
106309
103929
103632
106908
108053
104524
105497
132559
125213
111608
131772
116793
112328
124967
132046
118191
120448
116202
127643
113948
125836
107993
118277
107104
120827
108654
109569
120936
123751
111481
113342
119563
109519
111203
121991
138631
135407
139196
160902
157276
160905
156759
187372
163742
169042
160917
155662
178800
184115
136691
139100
140459
158264
162927
161550
157125
142527
160192
165117
141567
145683
168389
163197
145257
154718
149717
172641
172291
178026
167176
195940
177299
181514
187183
206858
183805
202619
169094
187522
173153
194889
177626
180669
198628
204946
185826
190255
190936
211419
195177
216362
182036
209483
181518
203723
181334
182954
206782
184915
214219
183118
187424
214043
184915
210172
227464
199543
214442
209660
194822
199988
221723
191368
222031
187602
190637
218578
194691
223897
202440
205648
237300
234957
196257
199654
230125
245419
101382
101298
273861
261621
234559
245617
248286
263175
222321
127083
112144
135573
108226
110644
120578
121431
96996.8
119018
113315
117606
115061
108308
113651
111809
118127
118285
111257
104161
105469
111126
111045
103879
116395
105067
111686
110678
107337
104471
94038.7
98670
100795
106014
100411
105309
101792
137324
128686
127211
121790
117438
117363
121822
135686
134950
126726
117858
124934
123005
118655
106956
106541
107354
112244
110643
110965
113391
107435
110105
107152
111660
117459
115306
112341
11825.4
12828.5
32139.1
36150.5
52138.4
51395.8
39086.8
46242.9
16901.3
12048.4
13247.8
12818.2
13690
13094.1
16059.7
19324.7
11999.3
21131
15963.6
15018.5
13941.3
25690.5
39749.8
31957.9
30301.1
41778.9
24011.9
36514
40199
42154.9
32883.8
25401.9
56808.7
20656.6
53727.3
38313.9
13405.3
12377.2
13598.7
13204.7
14713.7
12761
12625.5
12917.4
12123.3
12300.7
12259.6
12713
12437
12436.7
16024.4
16114.7
17911
23705.5
18681.6
14159.8
20485.1
14788.8
14045.4
14527.6
19564.2
16742.8
17088.1
13199.8
33327.8
28184.3
19784.1
36052.4
20977.3
26572.4
37423.9
42802.4
45040
52551.2
57915.4
58851.1
44256.2
44577.7
39848.6
29233.3
18395.1
48967.7
18917.2
50613.5
27752.2
40358.8
41182.9
52515.8
56423.1
57581.1
38907.1
42511.8
13801.7
41223.9
46218.7
46282.4
49750.8
54711.2
51238.6
58385.5
38930.5
26731.9
25920.6
19214.2
35170.6
33410
32573
42484.6
40589.9
35533.9
41754.3
38953.8
39244.3
41782.1
43274.4
37335.4
48282.6
49185.2
40887.3
41561.8
49400.5
54340.8
44461.1
32809
57415.1
42305.5
40444
55998.3
22641.4
15807.3
16084.3
14662.6
20162.3
18012.5
17740.3
28223.1
21086.3
30306.9
29006.8
25901.6
24019.2
31878.4
28568.3
21082.8
30841.7
28117
26466.3
32353.9
23451
25289.6
16325.4
24314.3
23120.1
21060.7
28312.1
19989.9
53819.2
43313.3
49871.6
50919.8
42993.5
49109.8
44797.3
44596.9
44122.5
49465.7
54697.8
44427.2
52884.2
44331.1
58226.2
55720.2
47699.2
52641.8
46507.1
55810.8
52969.1
56213.6
46876.3
52036.1
50635.7
53077
51959.5
46604.8
158988
148836
147605
163290
107877
105941
126951
118915
115715
112187
113942
134429
138987
129146
130643
120934
118537
115024
142295
140000
131590
133446
104924
118246
108513
109873
123357
124663
119416
158035
143221
147964
146465
144748
150467
161950
106428
112397
110352
125162
121067
119903
126551
173765
173404
160402
150947
165138
167667
149232
134251
148694
139989
142685
152458
158016
135218
141950
156693
152561
134201
160670
134558
140857
65213.2
55823.9
94624.6
99299.3
94576
70452.1
70630.5
93093
69503.7
57335.7
68069.8
57497
69344.7
57978.6
69183.3
78927
69327.3
58828.6
60540.1
70735.6
57827.6
72915.2
63283.3
70322.1
62918.7
69863
59681.1
60144.3
69536.7
83577.3
83032.9
100932
97616.4
84254.8
83009.3
98618
110997
83481.7
102645
103023
85497.7
98941.4
87421.2
69887.9
61250.9
61766.2
69522.1
60210.8
59488.8
71108.8
92434.2
80707.9
80273.2
82060.7
95230.8
81595
95998.7
93060
81709.6
80384.9
81920
98019
95892.6
83993.8
229405
249405
243835
268935
276310
270742
277756
239949
260220
255021
272887
272097
278654
279168
257588
273438
268288
289824
283584
284963
291440
268625
283890
278716
286020
293724
286429
292778
101491
122279
114056
101362
111889
101325
131660
279371
257583
279838
257569
277802
278250
253169
272975
252345
275654
276104
239638
273292
247234
253410
283822
281513
280214
242558
282835
248447
278249
278201
232468
234049
275449
281067
241777
213992
124469
101298
210415
131341
101299
253170
107852
101298
213551
132419
101299
273034
101306
101298
265400
211442
269316
255038
235520
247130
231230
269238
264670
220277
255900
238837
252126
263270
262708
248539
234472
242689
231174
221063
245861
267212
260194
247694
156543
201096
240894
209127
207745
204853
137945
143329
154056
146759
177860
175384
148602
157497
146913
162187
146069
146761
160630
150418
141740
144667
146474
146997
158535
155861
125157
121304
117196
100474
126884
129413
118669
101209
121221
110751
112178
117143
112187
108763
114890
103120
105262
104163
109409
107818
105537
104122
141434
132787
118877
120245
110797
108269
116019
101970
104781
100767
115480
107245
104478
103848
118804
134672
133739
127922
126224
111818
113121
134966
124607
134551
132797
130179
115749
120125
119927
107423
109063
122698
121422
108785
110223
122550
112240
117728
128882
125015
113149
117932
136423
140437
142114
161261
158352
161668
159647
140162
145980
144006
161755
162416
161052
161142
180457
161577
165203
191411
174607
171545
188252
176162
155949
158391
168452
183877
165506
185670
181326
206229
181271
200891
179855
178305
198246
181110
203512
180638
176466
193822
174298
195825
138828
106599
146015
139793
183675
150693
166874
146204
139992
127022
129935
132441
154828
137563
121651
171125
180938
160168
177920
171410
158778
176484
139177
161115
159332
142512
129767
122608
151042
172460
168699
171184
161898
174095
166915
174662
140327
138936
132330
127523
123201
126723
120317
166841
141876
150024
144469
142108
132492
162537
113149
111450
123664
112786
116350
114000
127646
139613
122122
141355
162866
124006
147140
160925
225733
216535
229454
261226
262545
270156
268215
271619
271715
269903
117786
105764
137047
156482
210371
222706
220582
260369
260024
265298
266478
211589
219519
219709
261360
260349
264754
264850
224588
238567
233770
266795
264463
272306
274421
221300
224340
217655
262883
264601
265559
266658
232939
248120
245671
271703
279958
277759
273574
251135
254658
242739
277791
282169
275681
284183
230556
243958
242935
270324
274139
275781
269449
252174
258703
247218
279924
288030
281896
286141
228803
228505
222551
268000
266326
267982
269330
242758
243749
233228
272850
269097
269238
271962
249099
241306
236688
269709
271481
271566
270467
240933
242474
235292
269508
270522
270713
271389
257900
252760
246886
271454
271201
271556
271149
254202
256379
249634
271540
271483
271668
271242
263810
262724
258527
271355
268323
270286
270277
134334
101551
101615
101406
180857
101384
170724
104467
101530
126365
101404
180586
101376
114127
279303
267347
279945
278967
260357
277931
262550
268588
280956
280448
279865
264881
263985
280726
281259
268389
281290
281371
264964
281219
264279
266911
280429
281143
281333
260779
280852
262963
115988
101398
101513
101370
164010
136653
101331
278470
259129
277290
257349
276733
275229
253395
267618
265487
262433
270732
269702
268485
266352
279236
260231
280869
253197
279002
258916
280581
277780
254284
250615
274733
276966
276175
256996
282172
260697
282362
255690
281605
283335
260297
282412
256929
254535
284165
282214
283983
259146
250727
272365
274438
272515
237180
269845
246145
272810
270961
268390
264503
267754
263016
258078
254483
273413
275633
273318
241630
248274
270937
272719
272494
271555
255617
263859
260286
249895
270364
232820
230251
263909
267101
240266
267813
101304
101316
122398
109055
101368
127371
101321
270607
233205
268001
231239
267234
264269
221954
124926
142703
108064
125981
147627
141784
141710
109426
143702
138002
129853
142575
127982
143077
136401
140096
128224
127439
132783
133568
138171
135154
113496
109357
115663
116203
123624
123191
114068
120596
118261
114513
111637
117959
123981
115753
144996
131054
144455
123484
135090
140806
138740
120775
126824
116142
131745
128157
136428
132935
139225
140238
124411
137177
133458
134700
141129
141212
125057
126913
137279
148560
135755
144867
274562
101779
101299
102008
101299
228942
101461
101298
281104
277785
101827
101299
217807
204350
101298
272784
101301
101298
277098
194565
200057
202571
269535
203449
273390
262833
215308
205949
212745
266954
253790
223326
198609
281220
197162
204536
273265
268778
212578
263043
275292
207548
226490
265886
216699
251220
245495
257116
226021
211150
248752
246874
232765
134383
143877
147410
136156
169488
169652
107724
139470
117339
136619
179457
172943
160672
139983
137982
122017
135900
134323
170935
179851
109507
117275
143713
148990
187325
169715
146133
167964
178949
187856
136755
151263
111315
106667
112058
121725
120111
122556
123440
132239
140099
127359
130689
147058
133798
142825
111833
111830
113314
123795
126244
125092
127320
151573
156150
150810
137492
142695
142793
137967
139090
131720
135990
119723
123100
128643
127799
107199
106497
114061
118773
119155
122581
123505
122188
133708
116854
137559
125727
122751
132881
127639
112387
109081
119179
120552
128805
125568
133807
127737
124630
117707
117170
128165
129430
154117
165188
157476
152778
147764
153229
147942
127914
142476
129234
133024
133663
152065
147320
114460
117827
115357
131702
128917
129897
132674
174305
161020
164996
157725
158447
162738
163473
135848
122909
122628
119218
117762
131391
133858
139034
140174
143752
162881
157667
151762
155610
183621
169563
174731
173154
167878
168182
172470
137791
163136
161486
139268
164527
140722
162907
135928
160291
159614
138423
161169
138201
161760
170712
150829
153700
142680
164353
143780
164356
169182
148018
148914
142503
166384
143122
165055
157382
175924
161563
149112
165233
145986
166974
139973
163138
161384
165818
145709
142747
163700
136634
160197
159575
140426
161296
138845
162180
141479
167400
165123
166515
142621
144863
168853
183306
166011
170555
172356
157029
152880
169397
173030
148103
149132
168250
144452
146412
170621
146193
173289
170084
147417
175000
171644
150321
176003
151090
153834
148906
177196
173582
151892
145233
142442
165332
168411
149068
152560
171379
191466
175070
179482
175683
161269
165384
179250
174448
171004
148174
155975
178243
159291
174659
172848
195683
199909
186907
182993
183747
169254
271281
260642
265221
220319
212498
123852
167938
124330
127412
127243
95053.2
126084
116094
137110
104027
104916
129963
118802
129334
130157
113052
123682
133475
129271
129948
126867
120309
127565
130938
110227
108396
114180
116648
119015
125477
124673
124383
122118
122333
118839
114095
122012
125600
97752.9
109569
105850
98371.7
99704.4
115803
109744
100440
112990
105830
121490
120525
126763
114717
133102
126744
129978
121719
119116
125459
124059
127016
135745
137793
128679
133007
131438
128665
196964
196352
195125
251467
249274
251139
249574
198228
198087
196331
252414
251962
253899
250499
200742
199097
196961
253340
254027
255209
251920
195468
194664
196412
249523
251306
252020
250399
202578
203620
200472
254038
255933
258294
256553
212656
210145
207665
260829
261940
263273
259247
212225
215873
210255
262827
265404
265430
262462
206162
204331
200624
254647
258540
257134
256148
203510
199399
198897
253659
256055
256282
253278
206434
200275
199186
256361
253379
253985
257199
209155
202125
204730
255202
260511
258659
256922
203699
205610
201904
256620
257506
260086
259451
208980
205378
208978
260445
258113
260388
262564
221344
212314
208157
262611
259068
261484
264869
218899
217534
213442
262723
266456
264607
264826
232020
222719
217161
263836
268434
266921
265951
228895
221583
218781
264353
265430
267490
266578
237402
230015
225374
268214
266783
268606
269715
242920
234225
237045
269290
270221
270664
268600
252446
240727
245035
270098
271476
270897
271136
258904
253494
251340
271166
271290
271086
270879
101864
246878
239408
138908
142523
101629
101712
281985
280260
282381
279410
278573
282289
282063
282370
282812
279532
275647
277556
282285
282742
101999
238716
246821
140369
105423
101604
133322
281732
279002
281425
275330
281379
277284
281801
281443
272827
280410
271437
280824
281109
274785
282568
279472
282422
282372
280592
278753
282621
262836
256231
259271
271211
271332
270474
269739
281063
272750
280970
280255
271371
269531
280503
101527
234388
207949
130817
120467
101430
101579
281657
276870
272668
281378
281088
276073
281918
276837
281470
281981
281835
272341
281349
275985
101496
101739
233194
101410
101552
128532
118195
281713
272535
270894
280775
281186
274604
281449
282758
273013
282025
281387
272042
269656
282380
269789
280019
280935
280005
262069
278658
266279
279087
267516
277948
260736
265581
277391
279484
270250
279792
280611
279745
263575
278783
266979
280247
279982
268016
260275
278579
265482
281476
278399
257775
259255
275261
277289
262877
276559
278565
256280
274242
257247
276669
276579
261866
264137
270436
265388
266689
265362
269535
268866
101342
145387
195004
101322
128829
111482
101391
275927
254747
275222
272440
249971
247203
273347
272149
259619
262310
270095
268365
267821
266235
251394
272618
274152
271135
238047
269438
243274
269032
266099
240763
224898
237504
264823
270107
267565
219040
260540
226727
265585
232965
263011
222885
259947
264536
260233
194443
254724
209640
272910
269377
272640
255024
230403
247573
241818
218138
257203
262930
259346
188540
207003
252580
103476
101312
110171
101302
104827
101323
129884
260823
207467
259195
191336
253442
251201
185553
191522
243369
253604
200569
256864
247945
177724
254404
237039
173391
176517
247441
193260
246109
102862
101309
107851
101300
101704
104991
101302
180122
237049
249078
166658
242785
228459
143978
245554
243041
241723
162912
161368
155954
157414
243108
235478
239257
153412
158193
152907
148341
242910
245367
241371
162551
157026
160502
155027
230639
141348
229347
237732
236440
149108
150457
242716
234398
238598
151364
156732
151368
146247
228421
142096
230281
237495
235824
150042
148134
230218
227675
223089
147239
142560
140194
136100
135596
140239
225034
165920
242246
239019
160059
135314
226664
222367
229943
233921
146287
142119
220018
137367
225057
228244
232815
144720
140062
228510
225738
220599
144746
140097
137497
133470
218860
133916
220905
209424
207318
124676
125951
221355
133381
220003
209890
208475
125576
126336
143484
204584
228018
213585
129985
234432
152414
218848
202810
213927
125663
132896
129363
122686
125746
216323
208439
224279
216717
136952
131169
123334
213185
204519
221848
213524
134590
128647
128303
217149
212615
200788
205493
123914
121434
221998
151788
234122
216323
121449
200492
132043
209824
129839
215190
119672
197838
203504
122508
216083
198674
210649
122967
130143
126686
120139
118021
202673
193558
116522
190182
180591
113374
120192
206337
198197
194230
185713
118394
115170
115596
198685
186819
195817
207240
125110
119191
193900
181209
113681
190951
203301
122566
116939
134234
192993
218935
206877
112584
125271
178507
196463
179184
194921
118442
113240
112842
119009
196050
178477
193866
117743
113061
118700
112428
189542
179743
174178
118903
116646
111794
113363
186687
175800
191691
117227
110788
112003
115446
183820
168554
109984
174490
189812
116155
111359
112213
188011
175929
163511
175370
112050
109271
182439
169701
110620
156721
169356
110470
107985
179877
155765
171350
109338
113295
111015
107811
108235
158037
173075
182199
166907
114088
110023
175951
160724
108470
151398
166281
109664
106967
191689
143969
108577
111092
173123
117212
161664
149941
146346
161287
108824
105038
106348
106881
106582
147887
162399
150454
137485
106963
105149
162906
140705
157526
108150
106225
105580
109180
143340
141492
155060
107636
104374
105909
105582
104093
105825
142526
135067
150575
106992
104845
116511
97150.6
137818
123429
130383
109057
111215
92839.1
113067
119040
104067
105204
111651
120931
113140
93234.7
98042.6
98797.5
100251
105395
106679
101242
121893
112008
107845
129063
124296
115868
119798
105837
103146
94679.3
103844
100728
108926
112291
139994
128237
137461
127322
119994
122128
130332
133532
143356
147676
124899
138288
134029
128704
117258
114540
107888
120051
113548
115123
123129
114305
130488
120658
111231
120126
117364
126593
157493
137688
128997
152361
144910
151835
158193
148029
145614
140405
132711
148629
136479
156300
144000
145968
152642
140950
166806
161241
148502
153867
124027
121619
118034
122101
128120
133063
125823
131114
126415
132664
137827
135942
130532
143249
149137
138376
150040
145355
154388
153520
155661
148089
129718
133483
139672
152297
143111
156409
167453
151927
160809
158424
167361
164172
161383
138003
143386
157787
147460
166673
152907
161135
103383
104730
134163
116397
125950
103764
102770
138360
118931
127693
103920
105259
103958
103024
126377
117605
115319
104216
103815
102894
102664
117652
102898
122144
112741
103358
102408
102154
111501
112357
118372
102968
101924
102367
102284
113451
102477
109870
105916
102124
101925
101732
101984
108764
108502
107592
101917
101897
107815
101334
101299
101327
101299
101360
101299
101348
101905
106881
107696
106882
101758
101827
106174
101325
101299
101332
101299
101344
101299
101359
101935
107228
107974
107138
101792
106493
101854
108680
101965
101909
107738
108322
107426
101879
105425
109727
108518
101685
102111
101992
101626
106352
101718
105731
101690
105437
104927
101641
101322
101299
101309
101299
101340
101299
101302
101308
101299
101302
101299
101320
101299
101336
101670
105253
104819
106202
101711
105665
101763
101699
105696
105552
106577
101815
101798
106759
101686
101706
105636
101808
106691
106430
101783
101469
103430
103147
101567
104198
103819
101532
104570
105054
101650
105976
101682
101739
105381
101526
104296
103738
101649
105024
104342
101584
105975
101681
105383
101650
105062
104580
101604
105855
104153
107177
101859
101496
101727
101560
107063
103218
104381
101640
101845
101581
101471
101325
101299
101319
101307
101298
101306
101298
101318
101299
101323
101305
101298
101307
101298
101583
104349
104009
103538
101483
103286
101506
101605
104689
104580
103709
101529
101522
103788
101594
101610
104638
103615
101526
103747
101514
101604
103738
104549
104142
101497
101565
103425
101500
104026
103474
101617
104715
104034
101552
103795
104175
101566
101467
103110
103394
101493
101305
101298
101314
101303
101298
101298
101301
101451
103371
102945
101438
102797
102486
101409
101316
101298
101306
101304
101301
101298
101298
101472
103600
103165
101455
102983
102662
101425
101475
103195
102708
103675
101464
101520
103069
101440
102830
102511
101452
102958
103392
101492
104650
102357
103619
101438
101608
101509
101392
102983
101459
102464
101402
102427
101454
103038
102914
101456
102446
101398
103007
102384
101448
103042
101440
102815
102331
101409
101394
102488
101306
101298
101301
101298
101301
101298
101301
102864
101427
101395
102227
102346
102688
101443
101415
102557
102144
102757
101389
102279
101433
101433
102745
102371
102354
101370
101396
102078
102212
101414
102551
102199
101358
101952
101381
101407
102084
102475
102250
101356
101932
101386
101360
102299
101976
101415
102559
102155
101377
101394
102337
101994
102118
101348
101844
101374
101975
102212
102800
101433
101333
101379
101357
101303
101298
101300
101299
101298
101300
101298
102033
101347
101343
101652
101784
101365
101838
101345
102057
101809
101348
101847
101664
101332
101967
101369
101773
101336
101359
101708
102071
101916
101339
101335
101586
101742
101705
101354
101338
101559
101732
101851
101329
101348
101634
101332
101542
101675
101546
101313
101457
101321
101327
101491
101622
101527
101311
101319
101433
101299
101298
101299
101299
101298
101298
101300
101571
101320
101532
101312
101445
101423
101310
101445
101316
101488
101399
101306
101375
101308
101451
101354
101307
101308
101395
101312
101387
101298
101298
101299
101298
101298
101299
101298
101405
101306
101372
101304
101354
101336
101303
101332
101306
101371
101360
101302
101327
101305
101358
101352
101350
101305
101305
101305
101305
101356
101351
101349
101305
101305
101305
101304
101354
101341
101347
101304
101304
101304
101305
101351
101338
101344
101304
101305
101304
101303
101347
101315
101303
101302
101335
101321
101304
101327
101303
101346
101322
101301
101313
101302
101333
101343
101341
101304
101303
101303
101304
101330
101334
101338
101304
101303
101303
101303
101328
101331
101336
101303
101302
101303
101303
101333
101342
101340
101303
101304
101304
101303
101335
101332
101328
101304
101303
101303
101303
101331
101328
101324
101303
101303
101303
101302
101298
101298
101298
101298
101298
101299
101314
101298
101298
101298
101298
101298
101298
101298
101298
101298
101298
101298
101298
101298
101298
101298
101298
101298
101298
101298
101298
101298
101298
101298
101298
101298
101298
101298
101298
101308
101298
101298
101298
156266
188300
110926
101300
101298
101298
151594
278860
203456
101298
101298
154189
331207
294908
267333
112360
355187
319696
282893
237944
101452
348918
274583
233648
215066
101300
101298
101298
101298
101298
107233
190309
339497
262628
101298
101298
101298
101298
101298
101298
101298
101298
101298
101298
101298
101298
101298
112587
365801
270928
101298
101298
101298
101298
101298
101299
115746
284179
101298
101298
101298
101298
101298
101298
101303
123863
101298
101298
101298
101298
101298
101298
101298
101298
101298
101298
101298
101298
101298
101298
101298
101298
101298
101298
101298
101298
101298
101298
101298
101298
182407
187485
151064
281409
203650
101301
231764
101298
101298
101298
101298
208158
223783
204159
195900
164454
138853
219789
173646
259870
215443
224290
158057
176577
215585
199505
211931
215460
199628
148127
157784
214638
180000
276040
236564
240302
227331
213833
222261
229937
218201
222660
193253
187141
182262
174752
217784
155877
147529
155514
144539
151531
158195
155181
204573
209285
198887
211080
215861
226236
222535
204036
213665
208113
209334
216824
220403
201189
160462
236839
174230
180531
168372
185644
223324
213260
193695
210790
237470
227609
185932
181119
159867
234257
173858
151418
160093
173514
234669
222260
180485
179975
176691
199156
206572
187641
174640
159185
162409
170161
186310
169086
185714
223870
235837
223893
232522
247030
237341
226873
181894
194500
210823
212914
160420
189663
179289
251990
265868
272539
188145
238364
235845
213149
224142
238243
227114
236132
249339
235930
245051
213516
232560
225022
225555
198800
228659
200963
237286
189718
213112
177796
235313
239328
331623
213677
170168
170191
172497
191991
200721
180922
164963
153017
155672
166607
179779
178901
165768
237757
237900
238582
250325
250543
249537
251808
229051
236539
236615
245278
233396
231888
245250
241337
234862
188410
245116
204536
180598
226302
169548
149422
156721
156647
168033
163608
160293
229367
268081
206831
244004
220398
180931
199718
341265
375853
167125
285611
216648
454327
346582
186480
508142
675598
554260
513843
462813
467913
427429
460749
473310
429722
482723
480735
435150
540366
494006
678454
395982
533924
669165
121110
571002
193500
426300
410734
452815
409788
471108
373890
299173
312913
250787
272374
341209
101298
101298
101298
101298
101298
101298
284470
249555
307585
185626
133905
121897
205356
169040
101510
111385
154200
376730
304991
426838
334363
341407
370298
328844
271994
289007
256084
407159
342484
101300
101298
356186
298712
262441
284625
242388
183736
203902
203064
150505
133554
228154
269094
356428
107442
163974
306396
102077
220117
173711
214979
366070
343294
286911
278495
169732
211879
269153
188412
256862
254202
295191
218945
190002
325922
260956
148878
167715
229893
462747
260748
101621
101313
101508
147933
101300
101329
101300
226805
101298
101298
101298
292049
102849
101298
101298
101298
101298
101298
226194
298061
519462
417968
476566
539987
101298
101298
101298
101298
101298
101298
101298
101298
101298
101298
101302
101298
101301
101298
101298
102234
101298
105744
101311
569070
101452
101298
101298
101298
101298
101298
101298
101298
101298
101298
101298
101298
101298
101298
101298
101298
101298
101298
101298
101298
101298
101298
101298
101298
101298
101298
101298
101298
101298
101298
101298
101298
101298
101298
101298
101298
101298
101298
101298
101298
101298
101298
101298
101298
101298
101298
101298
101298
101298
101298
101298
101298
101298
101298
101298
101298
101298
101298
101298
101298
101298
101298
101298
101298
101298
101298
101298
101298
101298
101298
101298
101298
101298
101298
101298
101298
101298
101298
101298
101298
101298
101298
101298
101298
101298
101298
101298
101298
101298
101298
101298
101298
101298
101298
101298
101298
101298
101298
101298
101298
101298
101298
101298
101298
101313
101298
101508
101520
104693
101310
104399
101299
101299
101312
101298
101298
101298
101298
101298
101298
101298
101298
101298
101298
101298
101298
101298
101298
101298
244356
104003
378244
453820
482473
335121
534717
128892
146640
316982
225440
101305
101298
101366
101335
101389
101491
101406
101449
101322
101317
101371
101303
101363
101304
101361
101357
101304
101303
101302
101349
101333
101302
101346
101303
101301
101299
101320
101300
101311
101300
101310
101300
101299
101508
101299
101375
101298
101298
101298
101298
101300
101298
101298
101298
101298
101298
101298
101298
101298
101299
101299
101299
101298
101298
101298
101298
101301
101298
101298
101298
101298
101299
101298
101303
101298
101308
101298
101298
101298
101299
101298
101298
101298
101298
101298
101299
101298
101300
101298
101298
101298
101298
101299
101298
101301
101298
101298
101298
101298
101298
101298
101298
101298
101298
141173
173382
106377
101302
101414
101299
101311
101299
101298
101298
101298
101298
101298
101298
101298
101298
101298
101298
101298
101298
101298
101298
101298
101298
101299
101298
101298
101299
101298
101298
101298
101298
101298
101298
101299
101298
101298
101298
101298
101298
101298
101298
101298
101298
101298
101298
101298
101298
101298
101298
101298
101298
101298
101298
101298
101298
101298
101298
101298
101298
101298
101298
101298
101298
101299
101304
101300
101299
101303
101299
101298
101298
101298
101298
101298
101298
101298
101298
101298
101298
101298
101298
101298
101298
101298
101298
101298
101298
101298
101298
101298
101298
101298
101299
101298
101299
101298
101298
101298
101298
101298
101298
101298
101298
101298
101298
101298
101298
101298
101298
101298
101298
101298
101298
101298
101301
101298
101298
101298
101299
101298
101298
101298
101298
101298
101298
101298
101301
101298
101309
101307
101299
101299
101333
178734
219069
117571
133615
191199
247019
110597
101376
102944
101816
104562
101449
102178
101605
101298
101298
101298
101298
101298
101298
101305
101342
101299
101300
101310
101325
101299
101614
101441
101337
101306
101704
101395
101327
101298
101298
101298
101298
101298
101298
101298
101298
101298
101298
101298
101298
101298
101298
101298
101298
101298
101298
101298
101298
101298
101298
101298
101298
101298
101298
101298
101298
101298
101298
101298
101298
101298
101298
101298
101298
101298
101298
101298
101298
101298
101298
101298
101298
101298
101298
101298
101298
101298
101298
101298
101298
101298
101298
101298
101298
101298
101298
101298
101298
101298
101298
101298
101298
101298
101298
101298
101298
101298
101298
101298
101298
101298
101298
101298
101298
101298
101298
101298
101298
101298
101298
101298
101298
101298
101298
101298
101298
101298
101298
101298
101298
101298
101298
101298
101298
101298
101298
101298
101298
101298
101298
101298
101298
101298
101298
101298
101298
101298
101298
101298
101298
101298
101298
101298
101298
101298
101298
101298
101298
101298
101298
101298
101298
101298
101298
101298
101298
101298
101298
101298
101298
101298
101298
101298
101298
101298
101298
101298
101298
101298
101298
101298
101298
101298
101298
101298
101298
101298
101298
101298
101298
101298
101298
101298
101298
101298
101298
101298
101298
101298
101298
101298
101298
101298
101298
101298
101298
101298
101298
101298
101298
101298
101298
101298
101298
101298
101298
101298
101298
101298
101298
101298
101298
101298
101298
101298
101298
101298
101298
101298
101298
101298
101298
101298
101298
101298
101298
101298
101298
101298
101298
123217
101801
101298
101298
101298
108094
101420
101298
101298
101298
101300
101299
101298
101298
101298
101298
101298
101298
101298
101298
101298
101298
101298
101298
101298
101298
101298
101298
101298
101298
101298
101298
101298
101298
101298
101298
101298
101298
101298
101298
101298
101298
101298
101298
101298
101298
101298
101298
101298
101298
101298
101298
101298