# vtk DataFile Version 2.0
sampleSurface
ASCII
DATASET POLYDATA
POINTS 5530 float
0.1 0 0.263952 -4.60398e-18 0 0.290429 0.1 0.1 0.265157 0.1 -0.1
0.26606 -4.92826e-19 0.1 0.292492 -4.96475e-19 -0.1 0.29337 0.198282 0 0.25
0.2 0 0.249946 0.2 -0.020045 0.25 0.2 0.0507215 0.25 0.2
0.1 0.250267 0.2 -0.1 0.251092 0.203679 0.1 0.25 0.214804 -0.1
0.25 -0.1 0 0.33137 0.1 0.2 0.270148 0.1 -0.2 0.27143
3.46107e-18 0.2 0.300483 3.44598e-18 -0.2 0.301353 -0.1 0.1 0.334831 -0.1
-0.1 0.335301 0.2 0.2 0.253096 0.2 -0.2 0.254357 0.3 0
0.248514 0.236807 0.2 0.25 0.3 0.1 0.24855 0.3 -0.1 0.248701
0.250484 -0.2 0.25 -0.157348 0 0.375 -0.1 -0.2 0.347414 -0.1
0.2 0.347692 -0.149345 -0.1 0.375 -0.149362 0.1 0.375 0.1 0.3
0.280232 0.1 -0.3 0.281151 5.81752e-18 -0.3 0.316255 7.38794e-18 0.3 0.316659
0.3 0.2 0.248885 0.3 -0.2 0.249109 -0.127941 0.2 0.375 0.2
0.3 0.258854 -0.128944 -0.2 0.375 0.2 -0.3 0.260247 0.4 0
0.247594 0.4 0.1 0.247622 0.4 -0.1 0.247752 0.282192 0.3 0.25
0.293229 -0.3 0.25 -0.1 -0.3 0.372276 -0.1 0.3 0.374872 -0.100102
0.3 0.375 -0.1 0.300231 0.375 -0.102245 -0.3 0.375 0.3 0.3
0.249588 0.3 -0.3 0.249842 -0.1 -0.305349 0.375 -0.2 0 0.45227
0.3 -0.313169 0.25 0.1 -0.4 0.297826 0.1 0.4 0.298653 0.4
0.2 0.247874 0.4 -0.2 0.248074 0.3 0.333496 0.25 -0.2 -0.1
0.469734 -0.2 0.1 0.470091 0.2 0.4 0.26951 0.2 -0.4 0.27016
7.48468e-18 -0.4 0.342898 9.72969e-18 0.4 0.346159 -0.212559 0 0.5 -0.0309425
0.4 0.375 -0.0361762 -0.4 0.375 -0.207779 0.1 0.5 -0.207916 -0.1
0.5 0.5 0 0.247 0.4 0.3 0.248377 0.4 -0.3 0.248614
-0.2 0.152428 0.5 -0.2 -0.155342 0.5 0.3 0.4 0.253976 0.3
-0.4 0.255142 0.5 0.1 0.247063 0.5 -0.1 0.247172 -0.182588 0.2
0.5 -0.184011 -0.2 0.5 5.86356e-18 0.451661 0.375 0.351105 0.4 0.25
0.5 0.2 0.247311 0.5 -0.2 0.24748 3.39309e-18 -0.463618 0.375 0.365341
-0.4 0.25 -0.136799 0.3 0.5 -0.138102 -0.3 0.5 0.1 -0.5
0.326156 0.1 0.5 0.330331 0.2 -0.5 0.287423 0.2 0.5 0.288867
0.4 0.4 0.249207 0.4 -0.4 0.249439 0.0296511 -0.5 0.375 0.0400798
0.5 0.375 0.5 0.3 0.24767 0.5 -0.3 0.247882 -0.1 0.384724
0.5 0.3 0.5 0.264576 0.3 -0.5 0.26484 -0.1 -0.388277 0.5
-0.2 -0.2 0.578136 -0.0886888 0.4 0.5 -0.0913096 -0.4 0.5 0.6
0 0.24664 0.4 -0.44696 0.25 -0.2 0.2 0.592273 0.6 0.1
0.246739 0.6 -0.1 0.246866 0.4 0.462749 0.25 -0.223055 -4.3744e-19 0.625
1.31475e-18 -0.5 0.436782 -0.217428 0.1 0.625 -0.21819 -0.1 0.625 1.5861e-18
0.5 0.449843 0.6 0.2 0.24701 0.6 -0.2 0.247191 -0.1 -0.4
0.542323 0.5 0.4 0.248245 -0.20249 0.2 0.625 0.5 -0.4 0.248468
-0.203836 -0.2 0.625 0.4 0.5 0.252292 0.4 -0.5 0.25314 -0.2
0.209115 0.625 -0.1 0.4 0.553117 -0.2 -0.214244 0.625 0.1 0.580697
0.375 -0.0150927 0.5 0.5 -0.0159242 -0.5 0.5 0.2 -0.6 0.317206
0.435698 0.5 0.25 0.2 0.6 0.322307 -0.153024 0.3 0.625 -0.155374
-0.3 0.625 0.1 -0.598637 0.375 0.101232 -0.6 0.375 0.6 0.3
0.247291 0.6 -0.3 0.247485 0.1 -0.6 0.377526 0.448831 -0.5 0.25
0.117639 0.6 0.375 0 0.520322 0.5 7.12134e-19 -0.521181 0.5 0.3
-0.6 0.282737 0.3 0.6 0.28475 0.1 0.6 0.405986 0.7 0
0.243007 -0.2 0.2 0.686479 0.7 0.1 0.244687 0.7 -0.1 0.244872
-0.10699 0.4 0.625 0.5 0.5 0.249153 0.5 -0.5 0.249332 -0.107604
-0.4 0.625 -0.1 0.411788 0.625 -0.1 -0.412383 0.625 0.6 0.4
0.247669 0.6 -0.4 0.247862 0.4 -0.6 0.26329 0.4 0.6 0.263458
0.7 0.2 0.246871 0.7 -0.2 0.247111 -0.217408 -6.60577e-19 0.75 0.0705482
-0.6 0.5 0.0707736 0.6 0.5 0.5 -0.551494 0.25 -0.211881 0.1
0.75 -0.213171 -0.1 0.75 -0.2 -0.2 0.736119 0.5 0.560173 0.25
-0.2 0.180236 0.75 -0.193061 0.2 0.75 -0.2 -0.196022 0.75 0.7
0.3 0.247043 0.7 -0.3 0.24725 -0.029073 -0.5 0.625 -0.030337 0.5
0.625 -0.198658 -0.2 0.75 0.2 0.693506 0.375 0.1 -0.633711 0.5
0.1 0.633947 0.5 0.2 -0.7 0.368636 0.194205 -0.7 0.375 0.6
0.5 0.248308 0.6 -0.5 0.248468 0.206362 0.7 0.375 -0.145769 0.3
0.75 0.5 0.6 0.252722 0.5 -0.6 0.253101 -0.14854 -0.3 0.75
0.2 0.7 0.385666 0.3 -0.7 0.314374 0.2 -0.706092 0.375 1.6555e-18
-0.537873 0.625 0.3 0.7 0.320483 2.05398e-18 0.541333 0.625 0.8 0
0.224289 0.8 0.05 0.223446 0.8 -0.05 0.223744 0.8 0.1 0.229691
0.8 -0.1 0.23027 0.7 0.4 0.247317 0.7 -0.4 0.247493 -0.2
0.1 0.818169 0.546135 0.6 0.25 0.55235 -0.6 0.25 0.4 -0.7
0.282735 0.4 0.7 0.285603 -0.102831 0.4 0.75 -0.103151 -0.4 0.75
-0.2 -0.1 0.827144 -0.1 0.40488 0.75 -0.1 -0.405135 0.75 0.8
0.2 0.24509 0.8 -0.2 0.245352 0.0518964 0.6 0.625 0.0561271 -0.6
0.625 -0.1 0.4 0.765379 -0.1 -0.4 0.766823 -0.2 0 0.852217
0.16294 0.7 0.5 0.163308 -0.7 0.5 0.85 0 0.218769 0.85
0.05 0.220338 0.85 -0.05 0.220719 0.6 0.6 0.249354 0.6 -0.6
0.24943 0.85 0.1 0.223331 0.85 -0.1 0.223937 0.8 0.3 0.246888
0.8 -0.3 0.247097 0.7 0.5 0.247764 0.7 -0.5 0.247894 -0.19149
0 0.875 -0.179131 0.1 0.875 -0.182487 -0.1 0.875 0.5 -0.7
0.264775 0.5 0.7 0.265784 -0.024185 -0.5 0.75 -0.026804 0.5 0.75
0.1 -0.649992 0.625 0.6 -0.635486 0.25 0.6 0.636848 0.25 -0.151776
0.2 0.875 -0.155644 -0.2 0.875 0.1 0.656915 0.625 0.2 -0.737935
0.5 0.2 0.738259 0.5 3.64616e-18 -0.531345 0.75 4.40924e-18 0.53703 0.75
0.9 0 0.211112 0.3 0.790736 0.375 0.9 0.05 0.211812 0.9
-0.05 0.212543 0.8 0.4 0.247055 0.8 -0.4 0.247226 0.3 -0.8
0.368717 0.293981 -0.8 0.375 0.9 0.1 0.217311 0.9 -0.1 0.218353
-0.119048 0.3 0.875 -0.121154 -0.3 0.875 0.309689 0.8 0.375 0.3
-0.80571 0.375 0.9 0.15 0.222981 0.3 0.8 0.390577 0.9 -0.15
0.223925 -0.1 0.345595 0.875 -0.1 -0.347803 0.875 0.140851 0.7 0.625
0.4 -0.8 0.31728 0.147903 -0.7 0.625 0.9 0.2 0.229325 0.9
-0.2 0.230228 0.4 0.8 0.324573 0.7 0.6 0.248563 0.7 -0.6
0.248619 0.6 -0.7 0.255037 0.6 0.7 0.255318 0.0548371 0.6 0.75
0.0616517 -0.6 0.75 -0.0635638 -0.4 0.875 -0.0637023 0.4 0.875 0.95
0 0.207598 0.95 0.05 0.205791 0.95 -0.05 0.206946 0.8 0.5
0.247412 0.8 -0.5 0.247529 0.95 0.1 0.211161 0.95 -0.1 0.212607
0.262089 -0.8 0.5 0.262103 0.8 0.5 0.9 0.3 0.244612 0.9
-0.3 0.244908 -0.1 0.3 0.929924 0.5 -0.8 0.287417 0.95 0.15
0.219579 0.95 -0.15 0.220828 -0.1 -0.3 0.935127 0.5 0.8 0.291392
0.1 -0.643674 0.75 0.95 0.2 0.222734 0.95 -0.2 0.223841 0.2
-0.754006 0.625 0.1 0.654234 0.75 0.2 0.762212 0.625 -0.000880451 -0.5
0.875 -0.00431664 0.5 0.875 4.34274e-18 -0.501153 0.875 -0.129746 0 1
4.36114e-18 -0.5 0.877342 3.28841e-18 0.506074 0.875 0.685751 -0.7 0.25 -0.123274
0.1 1 -0.124902 -0.1 1 0.688292 0.7 0.25 0.9 0.4
0.246762 0.9 -0.4 0.246966 3.16582e-18 0.5 0.88697 0.3 0.835782 0.5
0.3 -0.836594 0.5 0.7 -0.7 0.24983 0.7 0.7 0.249857 1
0 0.209298 1 0.05 0.206485 1 -0.05 0.207602 0.7 0.705659
0.25 -0.106839 0.2 1 -0.108985 -0.2 1 0.7 -0.707322 0.25
1 0.1 0.209687 1 -0.1 0.211184 -0.1 0.224219 1 0.8
0.6 0.248044 0.8 -0.6 0.248115 -0.1 -0.231056 1 0.4 0.875039
0.375 1 0.15 0.217562 1 -0.15 0.218934 0.142897 0.7 0.75
0.6 -0.8 0.270056 0.6 0.8 0.27202 0.153682 -0.7 0.75 -0.1
0.2 1.0132 -0.1 -0.2 1.01708 0.237799 0.8 0.625 1 0.2
0.223246 1 -0.2 0.224447 0.245993 -0.8 0.625 -0.0622096 0.3 1
-0.064392 -0.3 1 0.4 -0.898293 0.375 -0.1 0.1 1.04474 0.401889
-0.9 0.375 0.4 -0.9 0.378494 -0.1 -0.1 1.04753 0.9 0.5
0.247155 0.9 -0.5 0.247283 -0.1 -1.02803e-19 1.05689 0.0790843 0.6 0.875
0.086668 -0.6 0.875 0.427937 0.9 0.375 0.4 0.9 0.418208 1.05
0 0.206571 1.05 0.05 0.204919 1.05 -0.05 0.205882 1 0.3
0.242929 1 -0.3 0.243075 -1 -0.102677 0.375 -1 -0.1 0.376314
-1.00095 -0.1 0.375 0.1 -0.615262 0.875 1.05 0.1 0.210733 1.05
-0.1 0.211922 -1 0 0.397724 -0.0131266 -0.4 1 -0.0143978 0.4
1 0.2 -0.748185 0.75 -1 0.151132 0.375 -1 0.1 0.392308
0.5 -0.9 0.326282 0.1 0.62533 0.875 0.5 0.9 0.334646 1.05
0.15 0.21944 1.05 -0.15 0.220451 -1.01643 -6.07674e-19 0.375 -1 -0.2
0.36768 -1.01253 0.1 0.375 -0.997919 -0.2 0.375 1.61715e-18 -0.421013 1
-1 0.2 0.372595 -0.999294 0.2 0.375 0 0.425088 1 0.2
0.760695 0.75 -0.9 -0.35882 0.5 0.8 0.7 0.249099 0.8 -0.7
0.249124 1.05 0.2 0.222715 1.05 -0.2 0.223527 0.366434 -0.9 0.5
0.368234 0.9 0.5 0.7 -0.8 0.260112 0.7 0.8 0.261152 0.1
-0.6 0.910545 0.3 -0.852073 0.625 2.65953e-18 -0.4 1.02359 -0.9 -0.4
0.489233 -1 -0.3 0.348288 1.50237e-18 0.4 1.02682 -0.89729 -0.4 0.5
-0.982827 0 0.5 -0.993624 -0.3 0.375 0.3 0.859013 0.625 -0.937578
-0.3 0.5 -0.9 0.399577 0.5 -0.9 0.4 0.499908 -0.899973 0.4
0.5 -1 0.3 0.360667 -0.979996 -0.1 0.5 1 0.4 0.246726
1 -0.4 0.246788 -0.996378 0.3 0.375 -0.981838 0.1 0.5 -1.1
-0.0453491 0.125 -1.1 -2.04584e-18 0.135116 -0.969617 -0.2 0.5 -1.1 -0.1
0.106188 0.9 0.6 0.247775 0.9 -0.6 0.247842 -1.09969 -0.1 0.125
-1.1 0.1 0.125353 -1.1 0.100867 0.125 -1.10022 0.1 0.125 -1.10632
-2.01222e-18 0.125 0.1 0.6 0.933716 -1 -0.4 0.286207 -0.975799 0.2
0.5 -0.9 -0.3 0.585385 -1.1 -0.191404 0 -0.9 -0.5 0.433815
-1.09985 -0.2 0 -1.1 0.2 0.0526438 0.0570908 0.5 1 -1
-0.437036 0.25 0.0632323 -0.5 1 1.1 0 0.20992 -1.09235 -3.49578e-18
0.25 -0.957193 0.3 0.5 1.1 0.05 0.210882 1.1 -0.05 0.211373
-0.9 -0.55395 0.375 0.6 -0.9 0.297828 0.239205 0.8 0.75 -1.09803
-0.2 0.125 0.6 0.9 0.30276 0.8 0.74781 0.25 -1.09103 -0.1
0.25 -1.09891 0.2 0.125 0.8 -0.749511 0.25 -1.09191 0.1 0.25
-1.1 0.234906 0 0.251805 -0.8 0.75 -1 0.4 0.326007 -0.982993
-0.4 0.375 1.1 0.1 0.216828 1.1 -0.1 0.217506 -0.0525508 -3.33051e-19
1.125 -0.9 -0.261158 0.625 0.4 0.926731 0.5 0.4 -0.929291 0.5
-1.02692 -0.4 0.25 -0.0448201 0.1 1.125 -0.0463168 -0.1 1.125 -0.943283
-0.5 0.375 -0.9 0.3 0.617034 -0.990192 0.4 0.375 1.1 0.15
0.222856 1.1 -0.15 0.223469 -0.9 0.5 0.472026 -1.08644 -0.2 0.25
-0.9 0.287631 0.625 0.168924 0.7 0.875 -1.11554 0.2 0 -0.886564
-0.5 0.5 -0.898357 -0.3 0.625 0.179991 -0.7 0.875 -1 -0.5
0.195043 -1.08925 0.2 0.25 -0.899538 0.3 0.625 -1.13159 -0.1 0
-1.09711 -0.3 0 -1 0.481492 0.25 0.5 0.95107 0.375 -0.9
-0.6 0.355067 -0.930582 -0.2 0.625 -1.09852 0.3 0 -0.893278 0.5
0.5 -0.894269 -0.6 0.375 -0.8 -0.641877 0.5 -1.14108 0 0
1.1 0.2 0.229427 1.1 -0.2 0.229824 -0.995175 -0.5 0.25 -1.13708
0.1 0 -1.09429 -0.3 0.125 -1.0728 -0.3 0.25 -0.9 0.594194
0.375 -1 0.5 0.234942 -0.0253957 0.2 1.125 -0.0268499 -0.2 1.125
-1.09632 0.3 0.125 -0.9 0.6 0.372278 -0.95311 -0.1 0.625 -0.899175
0.6 0.375 -0.998471 0.5 0.25 -0.836383 -0.6 0.5 -0.958776 3.41561e-19
0.625 0.1 -0.54786 1 1 -0.5 0.247161 1 0.5 0.247183
-0.938932 0.2 0.625 -0.955314 0.1 0.625 0.34325 0.9 0.625 -1.08122
[...]
CELL_DATA 5421
FIELD attributes 1
p 1 5421 float
101350 101320 101398 101322 101313 124144 101709 101490 121594 101783 102384
101392 116379 101400 101405 102371 101666 101305 103162 147508 131360
121198 111300 141949 139609 108039 116903 101864 129836 105035 109201
102253 106908 101970 128584 118825 101950 125824 112935 101600 109575
122521 139643 102150 111205 105115 103095 101751 109943 119397 101511
104344 101763 121088 113635 103422 134730 110526 137266 107904 101633
113518 107097 104374 107124 101779 101372 104549 103702 101353 101649
105651 102048 104293 105115 102823 102862 127712 101932 101337 104739
114654 101589 101369 102112 104704 125895 101322 102488 107279 101638
118122 114626 107773 102981 102142 101522 101461 101538 101382 101357
104913 103728 101805 101549 103312 102304 101671 103409 102221 101460
101340 103089 101765 109414 101492 101349 101408 102051 102920 105600
108414 103206 101573 102530 101605 101311 119892 104450 102045 101437
109601 101892 101373 101445 101317 101574 101328 101498 101327 101600
101392 106585 102598 101382 101320 101457 103619 101924 102575 101362
101301 101349 101701 101483 101457 101363 101400 101305 101311 101359
101317 101407 127004 111205 103367 101375 116304 107775 105700 132110
101931 112916 156205 101366 102571 104112 101837 104572 123477 154467
109696 102529 101532 105611 110120 101683 101480 101326 101454 102410
101344 101552 101311 105647 101399 101514 119637 101326 128283 101312
101306 101789 111668 109916 104525 102221 135367 101401 105109 121024
107999 101534 127887 122212 101445 102021 101534 101306 102103 101872
102180 121499 114346 101345 102427 101454 106959 133772 114783 101485
101693 105723 110341 103037 109939 145184 107496 101315 101327 101929
118705 101320 101755 102083 101310 101464 101338 107105 108931 101333
102656 103091 106096 101300 101302 101303 101387 101413 101497 109495
101522 106737 109842 108791 103052 101301 105735 101487 101303 101410
101330 102451 140115 124189 102023 101334 102466 101793 116802 109012
101792 101534 101331 101357 101572 103322 101306 101357 101318 121111
134691 114733 107968 128296 102240 122509 145624 109975 101536 145186
103038 107578 114221 101823 101863 101321 101641 102193 104512 101429
104247 107548 101314 101885 101315 101559 101306 111433 101590 101320
101766 119038 101328 101934 101316 102239 101323 101399 101909 101371
101321 101325 101304 101310 124734 101315 108897 101963 102182 101435
101478 139517 101317 102199 101481 146418 110174 120168 101320 101743
102079 101308 101505 101321 157492 105806 101776 34444.3 29478.6 128094
109330 101322 145821 102349 101798 101354 123914 103730 102365 102912
105277 101339 101398 53258.3 247387 101393 117829 79195.1 125830 102076
101896 101317 70001.9 107218 103620 101504 101381 101467 101365 154568
101960 101700 105220 101321 102667 101316 101398 103100 102103 101317
101432 101348 109011 110897 125615 102705 104819 101775 101399 120129
130314 114935 116883 101689 106314 105458 101480 108008 101479 106951
101449 101449 103946 106000 101381 105482 101448 104898 101422 102912
104253 157279 124173 118207 101393 104739 103827 101512 105784 109274
108654 101305 101311 101308 101560 101494 101641 102053 101406 101306
128271 114967 101756 101363 103290 101304 101410 115168 104455 115134
162141 118613 101348 102848 101774 103216 101633 101471 109167 101373
101340 101618 101334 101310 101305 105991 101306 101559 101420 101310
101797 101313 84343 58028.4 119313 248769 156599 65683 79283.1 80191.3
44572.1 45877.8 51009.7 27270.2 185039 105045 54806.4 100576 53696 161514
154045 185629 194311 163467 218908 266986 66254 232428 205635 125247
185865 227510 271631 101548 101684 101306 101308 101317 102873 105254
103519 107647 101745 102365 101471 104462 101419 106837 101678 101303
101459 146296 103938 113336 101354 109724 101392 103072 101448 109808
102219 101477 101764 106945 106673 101597 104027 143021 145324 154765
116954 142395 120582 117245 113481 130776 106380 152214 108881 107877
113472 129837 112969 104384 140854 140123 113017 146297 103697 115139
126033 107269 106356 105484 103631 126846 114847 102136 133433 108553
103250 133527 101438 113446 103206 101588 110142 102722 133082 112007
101572 104280 101598 103920 109169 101658 104397 116924 101688 118439
115188 107257 101485 108483 101506 109533 106433 104760 112692 109975
112675 133096 110376 107840 101972 142547 105741 101513 102303 103302
101406 111599 105762 103678 101514 105243 109308 101348 118670 103110
115204 162481 102857 103838 101962 118287 124223 104745 101867 101332
102682 101533 125206 110727 101634 101331 101925 114682 102644 127802
101799 101353 101322 123931 103713 102346 105306 102870 101346 105102
102854 103372 138046 110792 106044 101647 101450 103813 108470 118196
102181 102252 111066 148109 101401 102149 105992 101366 102455 120014
102346 101749 101324 104804 102013 112822 101774 101711 103123 103530
101461 101614 102658 102009 108297 101311 101641 116740 114780 101890
101312 101390 101397 104733 117322 101761 101340 101374 103224 109185
101633 112741 102500 101477 101575 101339 101406 101395 105445 101465
104863 101446 101377 101340 104212 101420 101364 102886 102129 101363
101545 101335 102657 101622 103558 120622 111469 101591 102353 101357
101323 101424 103040 102007 101418 101306 101432 106015 101420 101305
101561 101305 101494 101308 101311 108677 101642 101560 101308 101312
101664 101308 111232 101664 101546 101332 101303 102932 101409 101374
101345 101408 101304 101397 103259 102751 103406 101857 144292 101451
103839 101343 102026 101351 102222 101349 102130 101310 101620 101334
101362 101316 101748 101311 101313 101787 101347 101377 103434 111854
101463 101333 101961 101643 101324 101458 101438 102776 101312 101511
101488 132743 109078 120724 101397 198726 189375 116424 106579 103609
101967 104212 107886 132723 101967 101440 103972 109088 101471 101354
102449 101722 104774 101506 109556 106440 102256 101688 102256 106559
101903 101410 101397 101904 101410 106566 101332 101375 101303 101409
102936 101369 101313 101450 101356 101913 101463 101407 101340 101420
101394 101338 101349 101352 101310 101486 102138 101350 101420 101305
101310 101304 101311 137609 98018.2 158673 47443.5 31397.9 273302 139036
159613 68757.3 165166 146707 228360 148477 101648 101339 31231.9 179257
175703 179074 183609 30606.7 67474.9 121970 31242.4 31620.1 31015.1 31905.2
31279.2 31766.4 31901.7 31007.1 31624.1 31248 31411.3 45584.2 112272 51653.1
40781.9 189243 183693 189164 189952 193430 184446 184250 193030 189757
30391.8 31588 33591.7 30239.1 33547.8 30235.4 31590.3 30386.1 41726.4 31557
35710.1 30611.7 31553.3 35712 41651.8 245822 167716 46596.4 48703.2 46523.5
33028.2 34281.9 33376.2 41265.3 40646.2 40156.7 26724.2 60100.4 35884.8 50246.6
122998 60198.8 23576.3 59379.7 23428.9 50032.8 35812.9 59799.6 26679.3 163374
58735.8 85645.8 133003 36107.2 261778 45057.8 90577.7 26036.1 88981.7 22562.9
18624.8 51780.7 20030.2 22717.7 40833.2 71818.3 22692.2 20482.6 20390 30747
32371.6 59630.1 109699 32381.7 52188.8 25030.6 91793.8 24914.2 91176 32134
28399.7 59299.9 30509.3 198598 116709 51663.4 130916 128330 121272 35486.2
34726.4 132052 34938.2 128762 35726.9 121600 272678 188150 176478 51040.3
103113 103675 189927 177070 51444.9 217952 165313 80157.4 211659 200486
160690 153138 54909.3 53856.7 146226 219017 75566.8 235377 43300.7 149176
47164.8 157579 149056 47376.1 17903.7 43533 75834.3 146516 219253 236147
22210.7 77829.4 55740.1 168057 213843 192824 32351.8 86344.2 189826 71644.7
264346 22126.6 55516 192178 68534.2 77398.3 213303 116946 102106 239045
185278 271672 70286 125328 216874 73827.8 125525 206529 67582 128618
164871 178269 227981 248130 142588 109334 130879 106133 148524 130949
106142 140250 113000 104390 140914 101317 103822 101451 108500 102185
118251 101823 107239 101823 127478 103305 127510 103726 101523 110285
108685 101573 101845 101357 101892 103072 109451 108088 101507 101470
125942 110679 118468 129711 101394 101413 103385 106288 105494 101434
103238 105818 103197 105559 102476 101327 101359 128228 102559 103987
213018 133307 188827 144069 118973 128072 194314 211989 168927 149240
125698 44208.5 90523.4 156512 49406.3 32770 50193.8 132598 107376 46645
42608.5 52387.6 33895 45767.1 99486.5 48360.3 26812.8 77408.9 194809 107705
40055.8 26223.6 67477.6 70850.6 39025.5 55674.5 34112 28182.2 194529 111400
115208 58892.8 29941.1 180856 36537.7 148602 131557 153449 67562.6 244277
206647 107039 101927 107751 101445 101428 101504 101679 105514 101391
34223 152595 68312.7 101747 102237 105851 32513 112153 123639 124437
135519 39472.1 200370 132981 220099 148254 153397 109768 109727 101391
111990 119570 108557 111405 149399 105242 101377 102274 151318 101581
101335 101952 114675 103062 134057 101634 101387 101308 101554 101505
102352 101317 107782 101523 117196 232823 224444 105131 103311 101596
101396 109278 126280 120069 103899 122962 103419 102085 102578 102279
102333 101853 102014 104906 116336 105378 114773 101660 101718 101331
129491 101364 106035 101557 104338 102069 101363 128124 110115 101635
101357 101376 101463 104637 101527 103695 101412 102062 102944 101350
101497 101326 101697 120068 131157 102600 101462 125020 101430 104137
103570 107767 106528 103356 104399 114530 102006 111888 121442 101645
101577 101872 105556 104724 211633 93312.9 240830 201145 58316.7 167098
53567.9 149109 256547 118715 67322 175337 238795 110986 105416 102834
101765 115747 101498 101359 296569 183071 249714 123447 153000 104497
105410 101310 101541 101360 101305 101331 101389 101306 105428 101317
117629 147835 101595 105107 101552 119018 113779 102244 107794 110692
105812 132636 103421 101374 109679 101842 102490 101393 101320 101324
83093.5 21209.4 137521 216736 42720 140836 41444.7 38416.9 30865.8 32710.5
19324.2 17824.1 21958.7 47839.5 30439.2 47802 23351.7 63285.6 36648.2 21112.2
123031 111827 124163 32270.2 34521.3 137855 303117 143244 43202.6 42477.5
137741 109077 145684 199340 132267 38911.3 67142.1 179791 206178 73128.2
21417 50814.2 65466 158042 31322.3 252422 66975 289876 82746.4 180105
167035 151151 221369 52435.8 73255.3 22149.4 31332.2 31119.5 31604.7 36548.7
192106 158515 28525.7 66662.6 39655 59485.8 24191.4 52840.6 121572 50256.7
35575.1 53691.4 22353.6 125557 180272 192957 201269 182929 132023 54350.7
120071 111446 104389 130145 142348 111482 121315 107633 138886 115402
145970 105250 102439 117459 119581 105964 104953 102332 101516 147143
111399 102270 103294 113528 101738 104323 138461 103963 120957 111517
118511 101773 123253 101566 101884 106468 101869 102565 112729 102175
108490 106789 101961 119717 103132 105172 101515 101759 101514 102745
104941 127727 101375 101870 111286 118825 109318 101728 118819 111712
108021 118387 117706 105979 107114 113677 101637 107978 102479 123921
101858 111958 103840 152398 101884 101535 105152 112509 130477 102853
102078 123893 130346 104680 104137 104410 101330 101375 124649 101860
102628 102919 101331 101480 102349 101473 110223 125520 103627 103050
101741 101497 101347 104161 102263 102024 103692 104402 121553 101369
101776 101353 102202 101449 101644 101459 102202 108867 101461 101900
101916 122846 101444 106439 101435 111485 101739 101358 101408 104094
102314 101554 101810 104636 102196 103413 109306 152450 108914 104648
102179 101773 101427 101386 102912 108600 101471 101336 101780 101548
101381 101322 101639 102125 101829 123331 101319 102111 101329 101308
101526 101364 101456 104588 101938 101352 101717 101383 101520 104386
101308 101444 101314 101313 101856 110651 101567 101538 101518 102382
101606 101585 101379 101473 101434 101322 102108 101319 101388 101309
101317 101810 101362 121250 101560 119958 118850 129827 115834 111785
106833 102369 102261 106432 133844 101744 104051 102024 105411 102053
102337 101670 101788 102634 102555 101755 101346 101405 101506 101317
101318 101421 101350 101325 101312 101551 101376 101314 101314 101310
101304 106796 101412 109856 108147 106266 103358 101390 105335 102996
101513 101470 129314 124907 42480.9 107575 231345 177804 159077 195224
145086 209261 173028 31611.5 34550.8 35625.3 45690.3 48985.4 44431.9 121368
50279.3 54776.2 35062.5 39962.6 65462.4 35787.3 141861 130239 166412 151069
101823 101920 107653 101443 101422 103369 101473 105155 101646 101383
119458 117725 125510 114357 110321 106709 102348 102212 106142 118333
130785 101681 101957 105023 103648 102471 102597 101776 101728 101942
102227 101634 101523 78636.7 43742.9 206411 194669 40433.5 85522.3 24048.3
96473.3 35730.4 41545.6 53181.1 28455.5 186373 125142 41602.7 31725.6 20446.4
108016 60122.8 20656.6 30403.2 47418.8 147686 168148 54264.1 228526 178355
217453 74487 123956 234597 30842.9 53540.6 125783 178611 32321.1 40466.5
80291 46810.1 32508 28016.6 31360.8 31158.9 30986.8 30897.7 30816.3 31108.6
30875.6 187960 177430 180187 184447 176116 182920 184635 177062 63120.5
109725 102217 45094.9 33459.9 30413 30088.7 34220.1 29898.6 30223.4 189733
185004 180112 197420 37928.9 31032.2 33199.1 47001.5 52260.6 55253.8 180323
40056.5 31653.5 23895.8 95663.4 85260.5 43763.4 78590.4 51897.3 63116.1 35505.6
40981.4 110791 68199.6 73218.4 32528.3 20345.6 20519.3 110092 59836.7 21580.7
42133.1 28348.1 189107 125116 53517.6 178968 132169 84985 227280 205778
47160.4 146978 166632 195270 73960.3 217263 237156 111517 101581 114026
101681 102406 108529 101511 101508 101423 106517 112911 101490 105559
111200 139385 101807 104359 113652 101365 102253 133562 101365 101824
103755 104244 102087 102600 119814 101329 107556 101461 126528 123629
101793 109386 103926 111490 104758 101362 101630 104544 142838 102358
114594 105648 103304 112800 101358 109582 101354 101369 104767 112792
101438 101916 101378 103400 102746 107027 101322 101732 101469 123997
118570 132626 126092 132634 126056 122592 101354 112749 108189 114114
132188 134269 115435 107123 101399 102030 102715 128172 104588 134415
104737 101399 102528 102248 102040 102240 133896 104681 104204 102086
102556 102346 102256 124740 111655 120889 101843 101634 101961 102044
102542 102252 112769 101604 102352 102566 102258 104529 136993 127737
103708 113686 124725 120206 101636 101962 101828 115658 101804 107045
124029 114243 103316 110929 102897 101606 101496 125725 109560 118794
101782 101600 101948 101517 122221 102145 111084 103144 101721 120979
116459 107792 101510 109530 101354 101558 124677 101827 111413 101634
101960 113600 120183 111640 101842 120869 124687 101632 101959 113587
115446 101796 102576 106966 107721 120662 116323 101717 101506 101816
112149 124087 102523 136787 110405 134303 113309 110990 110705 101605
101679 113346 110760 110375 101595 101680 101398 107080 107888 113500
101633 101347 101315 101439 120995 105892 119617 105948 121219 101606
107465 112471 106147 103919 109278 104604 101456 103870 101502 107754
103930 109294 104602 101502 106127 107502 112457 101606 115631 112474
104776 104069 101580 101646 105555 109613 102305 103337 101508 101401
103811 103741 107111 107081 101480 101374 103312 103292 106603 106488
101461 101359 102070 104785 101918 102274 109992 102134 101524 101496
104712 105532 102065 101907 101803 133482 111349 103491 101446 101656
102771 102963 121517 108187 101918 104781 105531 102065 102576 123562
101383 102705 101831 101330 146978 104726 101588 104666 102103 101369
102090 111112 102265 101522 101486 104754 105575 102075 114451 102957
102130 101519 107688 101330 108013 129994 101732 101440 109136 125747
103264 102093 101646 101436 102763 101469 101629 102066 103287 101844
103892 101739 129287 101434 108838 106947 101668 122384 102054 147336
107101 101692 101393 126204 104287 102384 102047 102298 101804 101548
104124 101531 106845 101794 101420 107519 101589 101862 101373 101436
101668 101458 102215 108072 121235 101443 102939 101651 101329 127920
107424 102078 101461 101477 101321 105538 108318 101569 103179 116702
104281 105812 102436 112669 102099 101651 103287 146766 125914 102044
101687 101391 104505 103258 101833 103840 101626 102752 102066 108104
109243 101442 101737 101420 101813 107016 129601 108936 101436 101671
101798 103068 102428 101574 101465 101339 105104 101826 120443 101852
101408 101314 114375 104054 104916 112412 104931 104410 104600 103267
102199 101305 101637 102437 107405 101442 101325 109159 106492 103327
101305 101430 101401 101723 101410 101328 102336 101378 101580 101317
104315 105855 102449 108880 103077 107056 102643 101333 101444 101306
101919 101376 102019 101365 108262 102535 101565 101799 101410 101349
102406 102147 101325 101373 101982 101803 101531 101356 101525 104657
101683 101323 109510 101889 101372 101443 101316 103586 101915 101455
101857 102605 101636 101375 101600 101532 102150 114536 103682 101878
101308 101337 127803 103584 104430 101773 101936 101310 101355 101669
101628 101590 101380 101613 101494 101551 101556 102580 101662 101391
101381 101319 101437 101637 101568 101695 101481 101929 101378 102031
101378 101378 101566 101402 101809 101453 101333 103608 101613 101927
101380 101599 101544 101562 101638 101598 101534 101521 101678 104609
101355 101811 101374 101993 102234 101323 101326 101344 101311 101793
101313 101598 102618 101376 101640 101570 101636 101634 101397 101351
101391 101351 101441 101404 101363 101447 101455 101363 101368 101357
101349 101430 101379 101378 101570 101404 106054 101303 101412 101302
101386 101300 101358 101369 101368 101350 103579 101452 101333 101359
101336 101327 101381 101448 101312 101352 101314 102241 101350 101339
102657 101299 101324 101332 101682 101313 101305 101331 101314 101312
101332 101318 101317 101312 101328 101459 101336 101397 101322 101381
101318 101305 101305 101331 101336 101306 101363 101312 101337 101306
101300 101337 168564 169920 169854 167038 169451 169558 168697 171216
171586 169912 168556 172593 171463 177943 174716 173693 105017 102254
101511 131320 141728 111258 121138 129721 109207 101971 106907 128602
109936 101752 103091 105111 119402 37217.5 52446 50214.2 46557.5 40056.6
119784 101992 46086.8 33052.6 33201.4 94721.7 61902.2 170719 139654 279183
69414.8 57705.6 34147.7 40313.8 73666.6 26330.5 46653.6 95586.9 47213 92493.1
28996.5 30893.2 61764.8 200729 120038 115975 109639 107259 133182 136855
155117 189769 196433 205957 139878 171653 128264 43170.9 35176.7 121210
145644 149424 180575 67859.8 201686 245258 101338 104508 114572 127157
101469 108630 101439 107399 104000 102128 101386 103028 105134 139151
103033 123370 84716.7 54447.6 188788 225917 56662.1 163317 150714 219441
203264 69814 261173 179155 237991 101386 106219 106591 104458 122709
128972 129762 124694 101353 139607 115578 107732 120149 104339 113686
103313 101740 101422 103405 107619 104046 101459 107765 104118 101431
103585 101463 107504 101480 104098 129683 121512 113553 114027 125945
128286 118026 101349 102191 103732 102051 120889 114672 122702 112095
109040 104794 101344 101513 101498 108691 102962 102770 109414 116246
107057 101920 102370 105012 119848 105493 104328 103404 120945 101760
146925 111352 102266 105400 102328 101515 107782 111200 132100 105705
103367 103173 102989 101936 102002 105752 132964 101580 103152 101975
101392 102213 102629 101798 101632 145184 123878 107053 154281 123432
109683 104562 102525 101836 101374 118061 103003 103263 102141 102234
101747 102539 101881 105092 101316 104690 130463 111561 121513 143023
115589 103537 119988 103609 117987 120632 101992 102393 102196 125631
102418 102059 102215 123612 110703 101794 101617 101933 113035 118954
124131 101625 111608 101841 120656 101947 113333 120966 138467 103954
112163 101875 106521 126587 122918 101771 118234 109354 101568 111633
128047 108503 106799 101959 102173 110086 119656 103132 105177 101758
101514 106069 118808 108011 101637 113610 107180 104445 104622 102811
132875 126537 139343 107986 116292 101503 109329 101460 103925 107731
102825 108832 101460 102198 101458 105211 104366 101825 101975 104670
105322 101994 101872 102613 124993 101376 102649 101867 101331 155937
126840 112850 101366 102565 101927 101846 101564 101484 103697 101778