# vtk DataFile Version 2.0
sampleSurface
ASCII
DATASET POLYDATA
POINTS 1297 float
-2.71051e-18 0 0 0.1 0 0 -0.1 0 0 -3.83988e-18 0
0.125 0.1 0 0.125 -0.1 0 0.125 -0.2 0 0
0.2 0 0 -0.2 0 0.125 0.2 0 0.125 -4.96926e-18
0 0.25 0.1 0 0.25 -0.1 0 0.25 -0.3 0
0 0.3 0 0 -0.2 0 0.25 0.2 0 0.25
-0.3 0 0.125 0.3 0 0.125 -3.83988e-18 0 0.375 0.1
0 0.375 -0.1 0 0.375 -0.3 0 0.25 0.3 0
0.25 -0.4 0 0 0.4 0 0 -0.4 0 0.125
0.4 0 0.125 -0.2 0 0.375 0.2 0 0.375 -0.4
0 0.25 0.4 0 0.25 0.3 0 0.375 -0.3 0
0.375 -2.71051e-18 0 0.5 -0.5 0 0 0.5 0 0
0.1 0 0.5 -0.1 0 0.5 -0.5 0 0.125 0.5
0 0.125 -0.2 0 0.5 0.2 0 0.5 -0.4 0
0.375 0.4 0 0.375 -0.5 0 0.25 0.5 0 0.25
-0.3 0 0.5 0.3 0 0.5 -0.6 0 0 0.6
0 0 -0.6 0 0.125 0.6 0 0.125 -4.29163e-18 0
0.625 -0.5 0 0.375 0.5 0 0.375 0.1 0 0.625
-0.1 0 0.625 -0.4 0 0.5 0.4 0 0.5 -0.6
0 0.25 0.6 0 0.25 -0.2 0 0.625 0.2 0
0.625 -0.3 0 0.625 0.3 0 0.625 -0.7 0 0
0.7 0 0 -0.5 0 0.5 0.5 0 0.5 -0.6
0 0.375 0.6 0 0.375 -0.7 0 0.125 0.7 0
0.125 -0.4 -3.79471e-18 0.625 0.4 0 0.625 0.6 0 0.4375
-0.7 0 0.25 0.7 0 0.25 -5.87276e-18 0 0.75 0.65
0 0.375 -0.1 0 0.75 0.1 0 0.75 0.7 0
0.3125 -0.2 0 0.75 0.2 0 0.75 -0.6 0 0.5
0.6 0 0.5 0.65 0 0.4375 0.75 0 0.25 -0.7
0 0.375 0.7 0 0.375 -0.8 0 0 0.8 0
0 -0.5 0 0.625 0.5 0 0.625 -0.3 -3.79471e-18 0.75
0.3 0 0.75 -0.8 0 0.125 0.8 0 0.125 0.75
0 0.3125 0.65 0 0.5 0.8 0 0.1875 0.6 0
0.5625 0.7 0 0.4375 -0.8 0 0.25 0.8 0 0.25
0.75 0 0.375 -0.4 1.54074e-33 0.75 0.4 0 0.75 0.8
0 0.3125 0.85 0 0.125 0.65 0 0.5625 -0.7 0
0.5 0.7 0 0.5 -0.6 0 0.625 0.6 0 0.625
0.75 0 0.4375 0.85 0 0.1875 -4.74338e-18 0 0.875 -0.1
0 0.875 0.1 0 0.875 -0.8 0 0.375 0.8 0
0.375 0.85 0 0.25 -0.2 0 0.875 0.2 0 0.875
0.7 0 0.5625 -0.9 0 0 0.9 0 0 -0.5
-3.79471e-18 0.75 0.5 0 0.75 0.75 0 0.5 0.65 0
0.625 0.9 0 0.0625 0.85 0 0.3125 -0.9 0 0.125
0.9 0 0.125 0.8 0 0.4375 0.9 0 0.1875 0.3
0 0.875 -0.3 0 0.875 0.85 0 0.375 -0.9 0
0.25 0.9 0 0.25 0.75 0 0.5625 0.7 0 0.625
-0.7 0 0.625 -0.8 0 0.5 0.8 0 0.5 0.95
0 0 0.95 0 0.0625 0.9 0 0.3125 0.85 0
0.4375 0.95 0 0.125 -0.6 0 0.75 0.6 0 0.75
-0.4 0 0.875 0.4 0 0.875 0.95 0 0.1875 0.9
0 0.375 -0.9 0 0.375 0.75 0 0.625 0.8 0
0.5625 0.7 0 0.6875 0.95 0 0.25 0.85 0 0.5
-3.61401e-18 0 1 -1 0 0 1 0 0 0.95
0 0.3125 0.9 0 0.4375 1 0 0.0625 0.1 0
1 -0.1 0 1 -0.5 0 0.875 -1 0 0.125
1 0 0.125 0.5 0 0.875 -0.8 0 0.625 0.8
0 0.625 1 0 0.1875 0.75 0 0.6875 0.85 0
0.5625 -0.2 0 1 0.2 0 1 0.95 0 0.375
-0.7 1.65709e-18 0.75 0.7 0 0.75 -0.9 0 0.5 0.9
0 0.5 -1 0 0.25 1 0 0.25 -0.3 0
1 0.3 0 1 0.95 0 0.4375 1 0 0.3125
1.05 0 0 1.05 0 0.0625 0.8 0 0.6875 0.85
0 0.625 1.05 0 0.125 0.75 0 0.75 -0.6 0
0.875 0.6 0 0.875 0.9 0 0.5625 1.05 0 0.1875
-1 0 0.375 1 0 0.375 0.95 0 0.5 -0.4
0 1 0.4 0 1 1.05 0 0.25 1 0
0.4375 0.85 0 0.6875 1.05 0 0.3125 -0.9 9.62965e-35 0.625
0.9 0 0.625 0.8 0 0.75 -0.8 3.85186e-34 0.75 -1.1
0 0 1.1 0 0 1.1 0 0.0625 0.95 0
0.5625 -1.1 0 0.125 1.1 0 0.125 1.05 0 0.375
1.1 0 0.1875 -1 0 0.5 1 0 0.5 -0.5
0 1 0.5 0 1 -0.7 0 0.875 0.7 0
0.875 6.77626e-19 -4.51751e-19 1.125 -1.1 -3.78534e-18 0.25 1.1 0 0.25
-0.1 0 1.125 0.1 0 1.125 0.9 0 0.6875 0.85
0 0.75 0.95 0 0.625 1.05 0 0.4375 0.8 0
0.8125 -0.2 0 1.125 0.2 0 1.125 1.1 0 0.3125
1 0 0.5625 1.15 0 0.125 -1.1 0 0.375 1.1
0 0.375 1.05 0 0.5 0.3 0 1.125 -0.3 0
1.125 1.15 0 0.1875 -0.6 0 1 0.6 0 1
-0.9 0 0.75 0.9 0 0.75 0.95 0 0.6875 0.85
0 0.8125 1.15 0 0.25 -1 0 0.625 1 0
0.625 1.1 0 0.4375 -0.8 1.65709e-18 0.875 0.8 0 0.875
1.05 0 0.5625 1.15 0 0.3125 -0.4 3.73447e-18 1.125 0.4
2.25875e-19 1.125 -1.2 0 0 1.2 0 0 -1.2 -3.78534e-18
0.125 1.2 0 0.125 -1.1 -3.61401e-18 0.5 1.1 0 0.5
1.15 0 0.375 0.95 0 0.75 0.9 0 0.8125 1
0 0.6875 1.2 0 0.1875 0.85 0 0.875 -0.7 0
1 0.7 0 1 1.05 0 0.625 -1.2 0 0.25
1.2 0 0.25 1.15 0 0.4375 -0.5 0 1.125 0.5
0 1.125 1.1 0 0.5625 1.2 0 0.3125 -1 0
0.75 1 0 0.75 4.96926e-18 0 1.25 0.95 0 0.8125
1.15 0 0.5 0.1 -4.51751e-19 1.25 -0.1 -4.51751e-19 1.25 1.05
0 0.6875 -0.9 0 0.875 0.9 0 0.875 -1.2 0
0.375 1.2 0 0.375 -1.1 0 0.625 1.1 0 0.625
-0.2 0 1.25 0.2 0 1.25 1.25 0 0.25 -0.6
0 1.125 0.6 0 1.125 1.2 0 0.4375 1.15 0
0.5625 -0.8 0 1 0.8 0 1 -0.3 0 1.25
0.3 0 1.25 1.25 0 0.3125 1 0 0.8125 1.05
0 0.75 0.95 0 0.875 1.1 0 0.6875 0.9 0
0.9375 -1.2 1.54074e-33 0.5 -1.3 0 0 1.2 0 0.5
1.3 0 0 1.25 0 0.375 -1.3 0 0.125 1.3
0 0.125 1.15 0 0.625 -0.4 0 1.25 0.4 0
1.25 -1.3 -3.78534e-18 0.25 1.3 0 0.25 1.25 0 0.4375
-0.7 0 1.125 0.7 0 1.125 1.2 0 0.5625 1.05
0 0.8125 -1 0 0.875 1 0 0.875 -1.1 -1.03903e-18
0.75 1.1 0 0.75 0.95 0 0.9375 1.3 0 0.3125
1.15 0 0.6875 -0.9 0 1 0.9 0 1 1.25
0 0.5 -0.5 0 1.25 0.5 0 1.25 -1.3 0
0.375 -1.2 0 0.625 1.2 0 0.625 1.3 0 0.375
1.05 0 0.875 1.1 0 0.8125 1.25 0 0.5625 1
0 0.9375 1.3 0 0.4375 1.15 0 0.75 2.71051e-18 -4.51751e-19
1.375 0.1 0 1.375 -0.1 0 1.375 0.95 0 1
-0.8 5.48124e-18 1.125 0.8 0 1.125 1.2 0 0.6875 -0.6
0 1.25 0.6 0 1.25 -0.2 0 1.375 0.2 0
1.375 -1.3 0 0.5 1.3 0 0.5 1.25 0 0.625
-1.4 0 0 1.4 0 0 1.35 0 0.375 -1.1
0 0.875 -1.4 0 0.125 1.4 0 0.125 1.1 0
0.875 0.3 0 1.375 -0.3 0 1.375 1.05 0 0.9375
1.15 0 0.8125 -1 0 1 1 0 1 -1.2
0 0.75 1.2 0 0.75 1.3 0 0.5625 1.35 0
0.4375 -1.4 0 0.25 1.4 0 0.25 1.25 0 0.6875
-0.4 3.73447e-18 1.375 0.4 2.25875e-19 1.375 -0.7 5.48124e-18 1.25 0.7
0 1.25 1.35 0 0.5 -0.9 0 1.125 0.9 0
1.125 1.3 0 0.625 1.15 0 0.875 1.1 0 0.9375
1.2 0 0.8125 -1.4 0 0.375 1.4 0 0.375 1.05
0 1 1.25 0 0.75 1.35 0 0.5625 -0.5 0
1.375 0.5 0 1.375 1.4 0 0.4375 1.3 0 0.6875
-0.8 0 1.25 0.8 0 1.25 -1.2 0 0.875 1.2
0 0.875 -1.4 0 0.5 -1.1 -3.61401e-18 1 1.4 0
0.5 1.1 0 1 1.35 0 0.625 1.5 0 0
4.51751e-19 0 1.5 -0.6 0 1.375 0.6 0 1.375 1.3
0 0.75 0.1 0 1.5 -0.1 0 1.5 -1 0
1.125 1.5 0 0.125 1 0 1.125 1.4 0 0.5625
-0.2 0 1.5 0.2 0 1.5 1.5 0 0.25 -0.3
0 1.5 0.3 0 1.5 1.4 0 0.625 -0.9 0
1.25 0.9 0 1.25 0.7 0 1.375 -0.7 0 1.375
1.5 0 0.375 0.4 0 1.5 -0.4 0 1.5 -1.2
1.54074e-33 1 1.2 0 1 1.3 0 0.875 -1.1 0
1.125 1.1 0 1.125 1.5 0 0.5 -0.5 0 1.5
0.5 0 1.5 -1.4 0 0.75 1.4 0 0.75 -0.8
5.48124e-18 1.375 0.8 0 1.375 -1.6 0 0 1.6 0
0 -1 0 1.25 1 0 1.25 1.6 0 0.125
-0.6 0 1.5 0.6 0 1.5 -1.6 0 0.25 1.6
0 0.25 1.5 0 0.625 9.03502e-19 0 1.625 0.1 0
1.625 -0.1 0 1.625 -0.2 0 1.625 0.2 0 1.625
1.3 0 1 -0.9 0 1.375 0.9 0 1.375 1.6
0 0.375 -1.2 0 1.125 1.2 0 1.125 1.4 0
0.875 -0.3 0 1.625 0.3 0 1.625 -0.7 0 1.5
0.7 0 1.5 -1.1 0 1.25 1.1 0 1.25 -0.4
0 1.625 0.4 3.87422e-18 1.625 -1.6 0 0.5 1.6 0
0.5 1.5 0 0.75 -0.8 0 1.5 0.8 0 1.5
1.7 0 0 -0.5 0 1.625 0.5 0 1.625 -1
0 1.375 1 0 1.375 1.7 0 0.125 1.6 0
0.625 1.7 0 0.25 1.3 0 1.125 -1.4 0 1
1.4 0 1 -0.6 0 1.625 0.6 0 1.625 -1.2
-1.95759e-18 1.25 1.2 0 1.25 1.5 0 0.875 1.7 0
0.375 -0.9 0 1.5 0.9 0 1.5 1.35525e-18 0 1.75
0.1 0 1.75 -0.1 0 1.75 1.1 0 1.375 -0.2
0 1.75 0.2 0 1.75 1.6 0 0.75 -0.7 9.62965e-35
1.625 0.7 0 1.625 1.7 0 0.5 -0.3 -3.97541e-18 1.75
0.3 3.87422e-18 1.75 -0.4 0 1.75 0.4 3.08149e-33 1.75 1.4
0 1.125 -1.8 0 0 1.8 0 0 -1 0
1.5 1.5 0 1 1 0 1.5 1.3 0 1.25
1.8 0 0.125 -0.8 1.56607e-18 1.625 0.8 0 1.625 1.7
0 0.625 -1.8 0 0.25 1.8 0 0.25 -0.5 -3.97541e-18
1.75 0.5 3.87422e-18 1.75 1.6 0 0.875 1.2 0 1.375
1.8 0 0.375 -0.6 0 1.75 0.6 0 1.75 0.9
0 1.625 -0.9 9.62965e-35 1.625 1.7 0 0.75 1.1 0
1.5 -1.8 0 0.5 1.8 0 0.5 1.5 0 1.125
9.03502e-19 0 1.875 -1.4 0 1.25 1.4 0 1.25 -0.1
0 1.875 0.1 0 1.875 0.7 0 1.75 -0.7 1.56607e-18
1.75 -0.2 0 1.875 0.2 0 1.875 1.6 0 1
1.3 0 1.375 0.3 0 1.875 -0.3 0 1.875 1.9
0 0 1.9 0 0.125 1.8 0 0.625 -1 0
1.625 1 0 1.625 1.7 0 0.875 1.9 -1.71331e-19 0.25
-0.4 0 1.875 0.4 0 1.875 -1.2 0 1.5 1.2
0 1.5 0.8 0 1.75 -0.8 0 1.75 1.9 0
0.375 0.5 0 1.875 -0.5 0 1.875 1.8 0 0.75
1.5 -3.61401e-18 1.25 1.6 -3.61401e-18 1.125 1.1 0 1.625 1.4
0 1.375 1.9 0 0.5 0.9 0 1.75 -0.9 1.92593e-34
1.75 -0.6 0 1.875 0.6 0 1.875 1.7 0 1
1.3 0 1.5 2 0 0 4.51751e-19 0 2 1.9
0 0.625 0.7 0 1.875 -0.7 0 1.875 1.8 0
0.875 0.1 0 2 -0.1 0 2 2 0 0.125
-0.2 0 2 0.2 0 2 -1 0 1.75 1
0 1.75 2 0 0.25 1.2 0 1.625 -0.3 0
2 0.3 0 2 1.6 1.54074e-33 1.25 2 -1.71331e-19 0.375
1.5 0 1.375 0.8 0 1.875 -0.8 1.56607e-18 1.875 1.7
0 1.125 -0.4 0 2 0.4 0 2 1.9 2.99829e-19
0.75 -1.4 0 1.5 1.4 0 1.5 -1.8 0 1
1.8 0 1 -0.5 0 2 0.5 0 2 2
0 0.5 1.1 0 1.75 0.9 0 1.875 1.3 0
1.625 -1.2 -3.85186e-34 1.70864 -0.6 0 2 0.6 0 2
1.9 0 0.875 2 2.99829e-19 0.625 2.1 0 0 2.1
0 0.125 1.6 -3.61401e-18 1.375 1.7 0 1.25 2.1 -1.71331e-19
0.25 -0.7 0 2 0.7 0 2 1.5 0 1.5
-1.2 1.92593e-34 1.75 1.2 0 1.75 1.8 0 1.125 1
0 1.875 -8.80914e-18 3.61401e-18 2.125 -0.1 0 2.125 0.1 0
2.125 2.1 0 0.375 -0.2 0 2.125 0.2 0 2.125
2 0 0.75 1.4 0 1.625 -0.3 0 2.125 0.3
0 2.125 1.9 0 1 -0.8 0 2 0.8 0
2 2.1 0 0.5 -0.4 -1.20467e-19 2.125 0.4 0 2.125
1.1 0 1.875 1.3 0 1.75 0.5 0 2.125 2
0 0.875 -0.5 0 2.125 1.7 0 1.375 2.1 0
0.625 1.8 0 1.25 0.9 0 2 1.6 0 1.5
-2.2 0 0 2.2 0 0 2.2 0 0.125 -0.6
0 2.125 1.9 0 1.125 0.6 0 2.125 1.5 0
1.625 2.2 0 0.25 1.2 0 1.875 2.1 2.99829e-19 0.75
2.2 0 0.375 -1 0 2 1 0 2 2
0 1 0.7 0 2.125 -1.4 0 1.75 1.4 0
1.75 -1.807e-17 0 2.25 0.1 3.61401e-18 2.25 -0.1 0 2.25
-2.2 0 0.5 2.2 0 0.5 -0.2 0 2.25 0.2
0 2.25 1.8 0 1.375 1.7 0 1.5 0.3 0
2.25 -0.3 0 2.25 0.8 0 2.125 1.9 5.42101e-18 1.25
2.1 0 0.875 1.6 0 1.625 1.3 0 1.875 1.1
0 2 0.4 0 2.25 -0.4 0 2.25 2.2 0
0.625 2 5.42101e-18 1.125 2.3 0 0 2.3 0 0.125
1.5 1.807e-18 1.75 -0.5 -1.20467e-19 2.25 0.5 0 2.25 0.9
0 2.125 2.3 0 0.25 2.2 0 0.75 2.1 0
1 -0.6 0 2.25 0.6 0 2.25 2.3 0 0.375
-1.2 0 2 1.2 0 2 1.4 0 1.875 -1.8
0 1.5 1.8 0 1.5 1.9 0 1.375 1 0
2.125 1.7 0 1.625 2.3 3.61401e-18 0.5 0.7 0 2.25
2 0 1.25 2.2 0 0.875 1.6 0 1.75 -8.80914e-18
3.61401e-18 2.375 -0.1 0 2.375 0.1 0 2.375 2.1 0
1.125 2.3 0 0.625 -0.2 0 2.375 0.2 0 2.375
1.3 0 2 -0.8 0 2.25 0.8 0 2.25 1.1
0 2.125 0.3 0 2.375 2.4 0 0 1.5 0
1.875 2.4 0 0.125 0.4 0 2.375 2.4 0 0.25
-2.2 0 1 2.2 0 1 2.3 5.42101e-18 0.75 1.9
0 1.5 0.9 0 2.25 1.8 0 1.625 2 0
1.375 0.5 0 2.375 2.4 0 0.375 1.7 1.807e-18 1.75
1.2 0 2.125 -1.4 0 2 1.4 0 2 2.1
5.42101e-18 1.25 0.6 0 2.375 2.4 -1.54074e-33 0.5 2.3 0
0.875 -1 0 2.25 1 0 2.25 1.6 0 1.875
2.2 0 1.125 0.7 0 2.375 2.4 -2.06721e-18 0.625 1.3
0 2.125 4.51751e-19 0 2.5 2 0 1.5 1.5 0
2 2.5 0 0 1.9 0 1.625 0.1 0 2.5
-0.1 0 2.5 2.5 0 0.125 1.1 0 2.25 0.8
0 2.375 2.3 3.61401e-18 1 -0.2 0 2.5 0.2 0
[...]
POINT_DATA 1297
FIELD attributes 1
p 1 1297 float
1.11822e+06 989872 1.26565e+06 687739 599467 813394 1.39775e+06 901531 977043 544748 148664
120701 217739 1.52498e+06 850165 382322 109813 1.19712e+06 514193 29121.6 24828
52231.2 702675 105139 1.69271e+06 821884 1.4741e+06 497399 152964 25359.6 1.1365e+06
102397 25922.9 435536 16389.7 1.8949e+06 801705 15932.2 26301.2 1.76195e+06 485708
83460.6 17740.2 894755 26017.4 1.56654e+06 100760 294772 18628.7 2.10146e+06 783651
2.02543e+06 475873 14491.4 1.38501e+06 26164.5 14290.4 22416.4 701285 19191.7 1.90505e+06
99893.7 68653.4 16095.4 247990 17171.7 2.2454e+06 770205 1.17001e+06 19714 1.70528e+06
24898.3 2.17481e+06 469940 607252 17961.1 20181.9 1.9693e+06 88669.1 14515.1 22685
23810.3 13823.5 30097.7 77411.8 15445.3 1.41385e+06 19888.6 19874.7 65919.2 1.56323e+06
22406.8 2.09486e+06 773630 1.02754e+06 18745.7 264616 16556.1 1.94426e+06 450384 28595.1
19736.3 173473 19524 19792.8 1.50327e+06 65639.7 21092 605583 17333 26076.3
377543 19745 1.12557e+06 19834.2 1.22047e+06 19314 19937 167762 15410.3 31908.9
13180.3 910986 20479.6 52307.1 117263 14511.3 20107.1 1.33177e+06 855151 980945
18192 20216.5 19687.2 750244 23689.4 1.13572e+06 413859 20227.7 149730 15877.1
345040 20029.7 691404 44566.7 20415.6 20213.8 909848 503526 20595.6 873383
732248 22162.7 20443.4 411259 1.13943e+06 18987.9 682686 16652.5 143499 20009.8
305498 20452.5 20663.6 19900.7 39326.1 20803.1 20621.3 444881 857995 21368.8
20666 726347 12906 65391.6 1.01238e+06 351197 418308 17415 373915 20552.9
148232 20180.2 20798.6 215357 12880.8 20126.6 826095 19512.7 146264 21000.6
188917 38613.2 487972 14592.5 20892 21217.1 882965 737752 20510.9 20568.3
410335 19899.8 1.10603e+06 18193.8 20950.8 141302 111671 20171.3 21218.3 813951
15689.4 38720.5 20907.3 20543.4 21379.5 121596 20635.8 20358 329867 115887
869761 760583 21143.3 110576 415454 20236.2 147232 102481 21230.2 1.08941e+06
16409.2 746939 18846.6 50854 103463 43438.5 163404 18460.7 20520.7 20511.9
20761.5 21001.1 19812.2 387327 12736.7 22119.9 21150.6 380668 101500 20176.2
21322.4 12765.5 679994 165954 1.07107e+06 17129.6 115919 20440.6 20565.5 20037.6
50877.8 101866 20771 20872.7 280843 19253.8 21234.3 23520.8 985781 13751.3
101556 792074 101463 457400 101327 21202.3 20149.7 20345.5 20201.1 20547.6
172202 19590.7 630718 17779.6 20828.4 101337 64534.6 20668.8 1.16602e+06 14565.9
21116.2 25743 101714 20275.7 156153 20036.7 21032.4 54849.7 354451 20605
110467 19850.4 101302 20525.5 101314 20748 622204 22120.7 65094.3 959090
15295.2 20433.3 20982 214227 18252.3 922826 14973.7 28086.8 19863.1 20368.9
19740.5 20579.4 19120.1 101299 101303 20808.5 792541 21101.9 101301 481111
20690.4 1.17104e+06 13696.4 101299 88147.8 20119.7 456878 15985.8 20829.1 20049.2
101554 19522.9 101310 20471.5 19171.4 29520.3 20609.1 105540 18424.2 20406.4
1.13793e+06 13656 101298 101299 20672.9 22382.3 19747.7 20214.5 20555.4 19209.1
19976.3 20551.5 374271 185883 627363 18683.6 146985 16502.2 20590 706975
13882.4 917561 79079.5 101298 20003.1 20560.3 101298 810854 22706.9 101305
101298 489902 19854.5 36006.2 1.17636e+06 19177.3 20059.5 101411 18749.1 101298
20412.6 20212.5 20072.8 101298 100034 20273.7 1.21581e+06 22596.4 259683 14254.3
19896.3 102579 16775.9 20301.8 19601.1 19116.1 19846.7 101298 24767.6 18688.6
19976.5 19844.3 870544 18539.9 20356.7 20002.1 110169 14677.1 101298 19276.7
101298 101301 20030.6 18419.7 19777.7 833920 688716 380161 17010.6 19595.5
449650 960805 101330 502475 16850.3 19635.2 1.19676e+06 262973 101092 1.23483e+06
139452 19414.4 101515 15007.3 16448.4 135051 25843.2 76120.2 930235 101298
18257.5 18892.9 101299 16761.9 19757.6 451978 48887.3 101298 19065.6 102196
16474.8 101298 859678 101304 15140.5 517160 163079 37291.9 101298 102870
18813.5 1.02955e+06 798831 1.21308e+06 1.20211e+06 586916 17799.1 101320 16734.9 25564.6
101298 16466 18263.3 897005 407748 103432 32238.2 101298 15021.2 454562
274341 101298 19138.6 18269.5 101353 30380.9 892957 174432 187946 101299
16906.1 536591 18000.8 105656 15937.8 101298 17180.2 104466 138617 101298
14702.7 17512 25350.3 101299 30064.9 1.17555e+06 1.09121e+06 1.08465e+06 16851.6 775219
938022 17427.9 101387 113551 18535.4 393872 777017 162534 629407 15271.1
101298 950699 101298 16489.3 30265 14317.3 570658 101300 102690 17200.4
101298 110560 104330 509879 16777.9 16727.7 24662.7 101398 425503 99552.3
101298 16664.8 30571.9 101298 17608.5 14584.7 864122 101298 14010.3 576502
1.03172e+06 373141 101301 291249 1.06383e+06 15779.5 16894.6 1.02242e+06 136503 1.0473e+06
630308 16118 101298 99948.9 16004.8 122258 103240 952022 101298 31505.9
346605 101298 24137.7 876152 101377 15555.1 13880 13810.4 102148 17707.5
15805.8 338136 101298 101301 808279 14625.4 34253.7 1.18269e+06 357192 14320.9
757600 101298 14596.2 561496 187683 723629 113462 730158 101298 339386
152007 108107 102157 838907 14100.3 28773.4 19651.9 730122 101298 12933.8
101343 893054 13906.9 101298 40760.8 101298 12930.1 101300 910808 16362.1
345679 723308 122693 101298 101298 908519 13224.3 14530.7 1.3303e+06 852848
24759.1 15929.7 226204 101298 898533 54941.1 101298 360882 13219 726846
122469 104068 181942 53891 101564 276129 14553.8 152971 101317 372567
13127.4 101298 889503 26701.7 101299 454797 733353 393988 517144 15472
101298 41252.2 22492.4 24714.8 885905 87029 101298 1.45714e+06 1.02086e+06 101298
19801.5 558720 208852 403184 747975 23762.6 162429 101298 885580 21316.3
581005 101298 452622 101780 103805 101361 101298 86740.5 101305 110359
90276.8 157857 125626 101299 586433 61616.4 32065.4 302482 779921 884929
149828 101298 69009.2 54908 1.58045e+06 1.24761e+06 542634 101298 176523 582911
740070 76821 67335.7 101298 199056 457928 101298 886631 831040 101298
289406 205270 577272 441786 304267 213417 169587 117217 665850 101309
101299 101359 171407 249797 101298 101531 891668 101298 218227 570783
101969 1.73934e+06 895558 1.52219e+06 102813 1.17851e+06 101298 218929 264596 483206
217202 624719 400295 104030 921169 812814 563725 101298 894836 372467
105354 713235 346572 101298 214261 964310 398451 106384 610632 550113
101298 727860 887324 1.9309e+06 839519 101300 101298 1.80151e+06 210242 106820
494663 101298 101304 658294 967946 1.60148e+06 607526 101316 1.40072e+06 643680
1.02283e+06 101341 101298 106798 521639 101381 1.17247e+06 205596 687349 694501
857069 101298 101429 106591 1.06554e+06 1.02672e+06 999046 1.10778e+06 949243 101468
197321 1.04681e+06 823428 101298 2.13067e+06 475721 2.05567e+06 981299 1.91944e+06 106293
945611 101298 101486 789976 1.68773e+06 101298 101298 101298 1.38798e+06 1.01659e+06
181789 1.00038e+06 101299 1.22424e+06 101486 1.16445e+06 411472 105936 101298 1.21663e+06
989717 101300 1.20638e+06 1.19452e+06 101298 672516 101298 101479 1.09646e+06 101302
2.24149e+06 2.15607e+06 160262 1.18365e+06 1.13398e+06 105348 1.91144e+06 101303 331585 1.48141e+06
101469 1.03665e+06 1.17392e+06 1.17225e+06 800830 1.10593e+06 101304 1.22016e+06 1.06779e+06 101298
104400 101298 101298 503149 136925 1.20669e+06 101298 886148 101455 101304
101298 242148 101298 1.07193e+06 101298 1.13143e+06 1.97547e+06 816575 1.80724e+06 101304
103307 1.34876e+06 712527 101298 514677 844910 101432 118094 798044 310450
890139 953462 101298 742780 457422 101304 160486 842524 102371 101298
101298 101397 359643 626832 107429 690000 101303 350860 254192 101298
413948 324022 165001 1.11487e+06 939009 555796 101359 419782 114913 101761
248063 448944 101298 101302 277716 360140 134663 102972 101298 119577
125805 101329 148143 101298 109054 211414 101301 250112 101456 160817
103098 115208 322915 101298 101298 101298 101298 153598 256072 101298
101298 101607 150111 144548 101311 101300 106728 101298 110154 130429
102165 101298 101338 101298 102625 101859 103464 101470 101298 101298
101816 103682 109200 105367 101299 101339 101298 101303 101298 103003
101696 107865 105504 101298 101305 102317 102490 102052 101408 101333
101546 101353 101298 101310 101298 101371 101320 101299 101302 101366
101491 101298 101298 101298 101406 101313 101299 101341 101298 101298
101309 101416 101298 101300 101374 101327 101299 101300 101316 101317
101298 101300 101305 101300 101298 101298 101298 101300 101299 101303
101301 101299 101299 101298 101298 101298 101298 101298 101298 101298
101299 101300 101299 101298 101299 101298 101298 101298 101298 101298
101298 101298 101298 101298 101298 101298 101298 101298 101298 101298
101298 101298 101298 101298 101298 101298 101298 101298 101298 101298
101298 101298 101298 101298 101298 101298 101298 101298 101298 101298
101298 101298 101298 101298 101298 101298 101298 101298 101298 101298
101298 101298 101298 101298 101298 101298 101298 101298 101298 101298
101298 101298 101298 101298 101298 101298 101298 101298 101298 101298
101298 101298 101298 101298 101298 101298 101298 101298 101298 101298
101298 101298 101298 101298 101298 101298 101298 101298 101298 101298
101298 101298 101298 101298 101298 101298 101298 101298 101298 101298
101298 101298 101298 101298 101298 101298 101298 101298 101298 101298
101298 101298 101298 101298 101298 101298 101298 101298 101298 101298
101298 101298 101298 101298 101298 101298 101298 101298 101298 101298
101298 101298 101298 101298 101298 101298 101298 101298 101298 101298
101298 101298 101298 101298 101298 101298 101298 101298 101298 101298
101298 101298 101298 101298 101298 101298 101298 101298 101298 101298
101298 101298 101298 101298 101298 101298 101298 101298 101298 101298
101298 101298 101298 101298 101298 101298 101298 101298 101298 101298
101298 101298 101298 101298 101298 101298 101298 101298 101298 101298
101298 101298 101298 101298 101298 101298 101298 101298 101298 101298
101298 101298 101298 101298 101298 101298 101298 101298 101298 101298
101298 101298 101298 101298 101298 101298 101298 101298 101298 101298
101298 101298 101298 101298 101298 101298 101298 101298 101298 101298
101298 101298 101298 101298 101298 101298 
