/*--------------------------------*- C++ -*----------------------------------*\
  =========                 |
  \\      /  F ield         | OpenFOAM: The Open Source CFD Toolbox
   \\    /   O peration     | Website:  https://openfoam.org
    \\  /    A nd           | Version:  9
     \\/     M anipulation  |
\*---------------------------------------------------------------------------*/
FoamFile
{
    format      ascii;
    class       volScalarField;
    location    "0.00345";
    object      rho;
}
// * * * * * * * * * * * * * * * * * * * * * * * * * * * * * * * * * * * * * //

dimensions      [1 -3 0 0 0 0 0];

internalField   nonuniform List<scalar> 
29571
(
0.929925
1.03532
0.757937
0.727396
0.567245
0.757868
0.687501
0.562942
0.920393
1.41013
1.25357
1.68932
0.333688
0.433451
0.371739
0.443134
0.472561
0.626478
0.524955
0.635573
0.692627
0.886163
0.829937
1.03697
0.961853
1.00048
0.332949
0.328706
0.311452
0.362277
0.304497
0.357447
0.340244
0.365739
0.396389
0.428619
0.409148
0.391534
0.373978
0.400098
0.472962
0.468024
0.444594
0.515881
0.435079
0.511918
0.482379
0.517558
0.566605
0.625093
0.577017
0.56389
0.526003
0.569672
0.676039
0.690116
0.631751
0.759146
0.624156
0.753231
0.685492
0.716814
0.818361
0.885048
0.775171
0.808906
0.730753
0.765349
0.85286
0.908232
1.39102
0.819188
0.853154
0.823114
1.0948
0.722657
0.981112
0.915627
0.311045
0.29698
0.380106
0.327852
0.539215
0.428991
0.656772
0.480481
0.925892
1.46996
0.267457
0.328224
0.326871
0.279618
0.341007
0.327283
0.311187
0.334662
0.294817
0.371866
0.464074
0.364127
0.490474
0.367952
0.409732
0.455612
0.377703
0.587811
0.614706
0.386181
0.746753
0.644599
0.462617
0.785964
0.678465
0.78744
0.391224
0.927653
0.74945
0.518629
1.19699
0.979937
0.668199
1.29602
0.326484
0.31174
0.350078
0.298538
0.31352
0.351117
0.324539
0.406888
0.351005
0.389223
0.352921
0.368834
0.384813
0.420697
0.585388
0.506399
0.509271
0.441883
0.544748
0.53662
0.532833
0.824001
0.627011
0.645222
0.512613
0.737845
0.679198
0.714127
0.738826
0.476744
0.967157
1.04403
1.0753
1.04026
1.66857
1.30355
1.25245
0.327694
0.326739
0.309292
0.268291
0.326614
0.310737
0.326665
0.331638
0.271346
0.338257
0.325304
0.329553
0.315104
0.340989
0.331761
0.302244
0.329696
0.36739
0.318339
0.355524
0.34457
0.388047
0.355319
0.344367
0.317311
0.358877
0.382559
0.374851
0.426631
0.342836
0.453625
0.450802
0.41826
0.413395
0.465433
0.453609
0.382581
0.469908
0.485137
0.427308
0.454334
0.500991
0.531491
0.481603
0.481094
0.38415
0.499563
0.507214
0.504513
0.56382
0.385799
0.55773
0.543424
0.532617
0.523819
0.598734
0.626936
0.451627
0.591018
0.596136
0.563139
0.560549
0.675168
0.61199
0.666046
0.648637
0.721358
0.599648
0.695596
0.676194
0.524213
0.579046
0.515623
0.591209
0.622784
0.755621
0.746659
0.728251
0.718366
0.698109
0.648868
0.533171
0.647223
0.610484
0.56435
0.682456
0.58224
0.568175
0.407479
0.63755
0.609731
0.604462
0.73069
0.444954
0.691033
0.752611
0.641909
0.662495
0.792429
0.947697
0.571723
0.874599
0.951537
0.758847
0.81901
1.10035
0.640982
0.369273
0.717914
0.543471
0.590461
0.648952
0.748213
1.60045
1.94464
1.68726
1.31412
1.8421
1.59084
2.07023
0.895214
0.684077
0.757591
0.91106
0.906776
0.88204
1.10759
1.99887
1.11614
1.71247
0.254906
0.27484
0.295626
0.403364
0.441522
0.568936
0.648336
0.747189
0.615802
0.717171
0.73595
0.876994
0.777474
0.758698
0.944088
0.94367
0.248198
0.234835
0.257507
0.25756
0.238108
0.260517
0.244672
0.253423
0.262728
0.254958
0.277752
0.243404
0.265812
0.264531
0.313474
0.274573
0.298499
0.326854
0.284687
0.302907
0.329172
0.346644
0.364457
0.36815
0.400492
0.335285
0.364491
0.380259
0.448359
0.400652
0.435875
0.480393
0.413411
0.434825
0.472606
0.488527
0.522651
0.517712
0.561631
0.473386
0.514041
0.535321
0.630511
0.564071
0.611863
0.658663
0.584569
0.607097
0.659005
0.665338
0.691781
0.667883
0.72726
0.639998
0.696104
0.698031
0.665604
0.5895
0.671524
0.691737
0.628285
0.626234
0.712419
0.690174
0.722071
0.671868
0.768621
0.651538
0.743538
0.709702
0.732989
0.63909
0.756438
0.789736
0.657361
0.700041
0.823718
0.674116
0.777746
0.790081
0.721524
0.71206
0.747754
0.798852
1.21538
1.44965
1.55488
1.0435
1.19557
1.13591
1.16146
0.722521
1.49446
0.75621
1.55934
0.883353
1.65304
1.18742
1.63288
0.824138
1.90038
1.22602
1.27072
0.570608
0.411426
0.58996
0.422574
0.891277
1.21088
0.890118
1.22423
0.618475
0.498886
0.707494
0.77305
0.898899
1.26812
0.747176
0.813033
0.937898
0.986666
1.04574
1.22242
1.60199
1.61839
0.613441
1.66099
1.2613
1.6666
0.547378
1.15173
0.998413
0.734139
0.56355
1.16342
1.00832
0.673552
1.20404
1.06094
0.842501
0.925125
1.10593
1.14992
1.06793
1.20692
1.47354
1.07543
1.27158
1.37305
1.68396
1.58817
1.58553
1.85053
1.71864
1.97577
1.73139
1.55607
1.8071
1.7743
2.08534
1.81094
2.12396
0.376327
0.433689
0.471892
0.570548
0.434978
0.47428
0.374087
0.38263
0.574518
0.456481
0.505425
0.440574
0.482866
0.399464
1.15877
1.09566
0.986952
0.891254
1.0968
0.989872
1.15571
1.16313
0.888517
1.10156
0.99697
1.09739
0.99012
1.17292
0.476305
0.486016
0.54366
0.649783
0.430985
0.523345
0.595379
0.529404
0.676169
0.586421
0.699995
0.557305
0.651371
0.582464
1.21171
1.11038
1.0139
0.911372
1.18925
1.12345
1.03805
0.68364
0.616453
0.748439
0.796732
0.631758
0.653604
0.80551
0.742239
0.858577
0.76126
0.959472
0.700945
0.87493
0.81162
1.01857
0.840689
1.06624
1.19541
0.899876
0.947803
1.21022
1.18231
1.39181
1.27747
1.63326
1.09691
1.40485
1.37982
0.950915
0.477276
0.88466
0.851385
0.7269
0.711653
1.10035
1.2663
1.26601
1.51214
1.76107
1.1101
1.42259
1.61649
0.609258
0.877663
0.72287
0.612399
0.879572
0.799075
0.796115
0.688711
0.907555
0.781692
0.738639
0.934737
0.886748
0.853375
0.872748
1.04761
0.933025
0.930757
1.10461
1.07787
1.01411
1.21294
1.39415
1.33738
1.387
1.53185
1.58808
1.41776
1.02712
1.09273
1.0337
1.24768
1.26436
1.45502
1.23874
2.15505
1.78944
1.27128
2.15408
2.07158
1.59528
1.29114
1.97104
2.25011
2.25127
2.0584
0.723264
0.645399
0.886907
0.620293
0.878411
0.803036
0.822049
0.809162
0.82412
1.00238
0.782136
0.965485
0.92138
0.963253
0.994336
1.08984
1.27243
1.00057
1.17756
1.16041
1.27051
1.52313
1.79882
1.82417
1.60005
1.6696
1.73823
1.87613
1.44076
1.83116
1.87186
1.55247
1.57422
1.73367
1.96668
1.33396
1.60708
1.69802
1.51471
1.35582
1.60109
1.69876
1.41818
1.58142
1.6936
1.61072
1.67983
1.51474
1.64549
1.75499
1.37608
1.48612
1.62069
1.76511
1.23992
1.24842
1.52242
1.23038
1.22716
1.3781
1.28672
1.2252
1.22618
1.22725
1.22591
1.22504
1.22501
2.21713
1.46622
2.10595
1.91966
2.01241
1.63684
1.71557
2.02418
1.8871
1.40674
1.78024
1.32075
0.951724
1.09649
1.31284
0.669319
0.966356
1.3226
1.71206
1.22678
2.18761
2.16743
2.24422
1.06364
1.07515
1.58526
0.692254
1.09462
1.08715
1.62963
1.26729
1.14658
1.66868
1.08453
1.4329
1.24113
1.78393
1.52167
1.56359
1.92444
1.38853
1.87402
1.76826
1.89714
2.09186
1.90268
1.67012
2.08202
1.90979
1.4391
1.26052
1.95493
2.12667
2.09522
2.24586
2.20783
2.17667
2.14587
1.82653
1.51689
1.25022
1.22523
1.225
1.22502
1.225
1.225
1.225
1.225
1.225
1.225
1.225
1.225
1.225
1.22536
1.225
1.225
1.225
1.91223
1.94988
1.97267
1.37936
2.19487
1.23556
1.22501
1.225
1.225
1.225
0.588118
0.568319
0.559332
0.541135
0.53452
0.606239
0.582583
0.576922
0.612705
1.22502
1.22506
1.225
1.225
1.225
1.225
1.225
1.225
1.225
1.225
1.225
1.37282
1.22513
1.22503
1.225
1.225
0.73224
2.4281
1.87931
1.5344
1.28755
1.74451
1.83725
1.66566
2.10845
2.28535
1.31872
0.310469
0.315245
0.385434
0.467186
0.589994
0.694824
1.05998
1.41384
1.86119
2.48936
1.07888
1.41926
0.830288
0.987359
1.24661
0.751753
1.01036
1.18161
0.889165
0.346294
0.438159
0.308697
0.410821
0.519914
0.446204
0.314179
0.294295
0.302494
0.336577
0.291679
0.321618
0.322858
0.303544
0.289453
0.285882
0.30327
0.345541
0.372997
0.398442
0.382262
0.35824
0.350746
0.381439
0.331074
0.35617
0.326958
0.36391
0.44905
0.43755
0.413187
0.47868
0.416767
0.473411
0.442024
0.425834
0.385672
0.39634
0.41338
0.283893
0.324546
0.471575
0.57047
0.713217
0.281176
0.303578
0.301971
0.326228
0.435768
0.460649
0.505955
0.553287
0.633165
0.619987
0.31206
0.287713
0.296573
0.285879
0.289695
0.297377
0.311225
0.366042
0.334241
0.319889
0.355963
0.340186
0.370225
0.341818
0.489713
0.502124
0.426985
0.503456
0.463086
0.538833
0.453557
0.551222
0.621203
0.510915
0.584439
0.541808
0.638826
0.521543
0.535544
0.95573
0.319258
0.286016
0.317898
0.282882
0.287935
0.31866
0.31837
0.332531
0.305315
0.304439
0.333395
0.35096
0.355871
0.356269
0.350942
0.315356
0.291304
0.309978
0.30653
0.295905
0.299788
0.324111
0.323106
0.288556
0.308027
0.33367
0.294061
0.32277
0.333139
0.331559
0.30331
0.303048
0.333137
0.352606
0.367159
0.358957
0.358267
0.381154
0.332855
0.354237
0.364179
0.351879
0.37117
0.386575
0.350261
0.306568
0.338292
0.317155
0.390723
0.383869
0.370763
0.410552
0.400456
0.395869
0.460619
0.398759
0.415256
0.369721
0.433548
0.419967
0.411738
0.467187
0.471585
0.418898
0.428358
0.460213
0.367695
0.360996
0.336818
0.387683
0.41673
0.478789
0.445432
0.439044
0.531481
0.512977
0.512048
0.548037
0.497954
0.554855
0.548781
0.431099
0.386651
0.408727
0.412425
0.474215
0.506488
0.456851
0.530837
0.512318
0.530935
0.598975
0.496941
0.571209
0.477623
0.529543
0.559832
0.589711
0.631727
0.617265
0.59431
0.583476
0.58258
0.452475
0.459546
0.438113
0.469921
0.490437
0.566545
0.550811
0.504336
0.491507
0.475103
0.483454
0.483007
0.559622
0.595871
0.67928
0.541896
0.653633
0.529522
0.580759
0.495427
0.500426
0.482782
0.52176
0.46176
0.44969
0.285229
0.314328
0.483362
0.50955
0.578941
0.256364
0.274457
0.306832
0.377238
0.454947
0.274704
0.279237
0.356541
0.454284
0.539495
0.631466
0.666812
0.72419
0.270885
0.342854
0.261188
0.289542
0.281813
0.304719
0.426311
0.468976
0.600643
0.2699
0.272643
0.276078
0.266673
0.276298
0.295701
0.282395
0.289317
0.342124
0.317867
0.31067
0.349972
0.377582
0.3853
0.513435
0.266914
0.256296
0.269609
0.263569
0.259406
0.271811
0.264267
0.272928
0.269046
0.276353
0.291112
0.264313
0.277485
0.286232
0.343796
0.297395
0.316179
0.339602
0.309244
0.328255
0.35521
0.385055
0.382323
0.400073
0.452977
0.364004
0.403526
0.426777
0.504326
0.434709
0.499617
0.511085
0.466158
0.469614
0.543039
0.543786
0.554436
0.54803
0.628171
0.507144
0.585313
0.585943
2.10957
1.64312
1.99324
1.22579
1.22741
1.34383
1.73281
1.42392
1.79234
2.02981
1.87303
2.19592
1.22658
1.84603
1.22526
1.60417
1.2254
1.28622
0.233142
0.240877
0.290764
0.57099
1.21659
1.73401
1.62271
1.25338
1.22515
0.271141
0.281326
0.31672
0.587737
1.21775
1.78452
1.23612
1.23841
1.22511
0.456038
0.444149
0.428511
0.703709
1.28123
1.82866
1.22516
1.22513
1.22503
0.652901
0.596225
0.536756
0.945484
1.43775
1.86977
1.24905
1.22501
1.225
1.33134
0.672723
0.958702
0.327628
2.29627
1.57501
1.23846
1.28765
1.94558
1.4771
2.48582
1.7358
1.25622
1.91962
0.238694
0.268566
0.24667
0.274083
0.232933
0.243014
0.242353
0.253592
0.249386
0.273104
0.261536
0.290632
0.38613
0.295358
0.389071
0.994407
0.855547
1.18832
0.57039
0.988149
0.855916
1.20705
1.6426
1.36707
1.67549
1.21526
1.63747
1.39106
1.67147
0.275785
0.34621
0.273264
0.271256
0.333052
0.390396
0.325341
0.397585
0.408562
0.365606
0.449961
0.989489
0.8824
1.22484
0.632859
1.01647
0.991447
1.33438
1.63016
1.4103
1.63381
1.25521
1.55943
1.5042
1.47819
0.430645
0.511974
0.593076
0.438268
0.419989
0.550769
0.577634
0.497146
0.569886
0.529264
0.503306
0.489732
0.585068
1.03378
1.12011
1.39752
0.816106
1.13296
1.33078
1.64107
1.5144
1.54324
1.33948
1.38958
1.33704
1.64092
1.25799
0.617338
0.624109
0.663786
0.692476
0.614961
0.563546
0.759492
0.673794
0.566746
0.546451
0.6287
0.590952
0.706807
0.654557
1.13902
1.19986
1.67103
1.69376
1.60204
1.5833
1.95317
1.66587
1.29759
1.62532
1.23783
1.50739
1.30944
1.45531
1.34976
0.377189
1.32835
1.27337
1.47623
1.10703
2.103
1.67778
0.316393
1.17982
1.14836
1.03944
1.02512
1.61135
1.36203
0.359258
0.831676
0.402673
0.862615
0.623407
1.15912
0.956418
2.01407
1.66629
2.35452
0.291383
0.296913
0.318951
0.385414
0.354175
0.368124
0.325471
0.392309
0.360949
0.326802
0.437285
0.35475
0.474672
0.390056
0.490115
0.42851
0.531962
0.447141
0.530459
0.640564
0.578078
0.730895
0.518016
0.774992
0.664155
0.841148
0.606957
0.781771
0.978559
0.760407
1.0827
0.74286
1.1918
0.945048
1.59043
1.18637
0.261711
0.24802
0.25605
0.244229
0.250798
0.258454
0.259891
0.292606
0.272541
0.274943
0.285514
0.237916
0.24016
0.283642
1.4499
1.43236
1.25103
1.21709
1.43227
1.25329
1.44926
0.313865
0.285251
0.289949
0.311864
0.288611
0.314106
0.318555
0.300697
0.338041
0.324555
0.320148
0.259804
0.304572
0.278024
1.46188
1.43252
1.26814
1.22456
1.45659
1.43462
1.28243
0.467943
0.439234
0.449464
0.489994
0.431169
0.480842
0.491931
0.459507
0.429023
0.460729
0.402654
0.350478
0.382535
0.368065
1.49683
1.44674
1.36515
1.31327
1.48592
1.45335
1.40345
0.539334
0.564987
0.566887
0.610802
0.533969
0.574712
0.568345
0.608335
0.516583
0.55627
0.507648
0.387503
0.466468
0.397955
1.48725
1.45828
1.52956
1.50594
1.49709
1.45765
1.58275
1.3902
0.849147
0.886951
0.737766
0.301071
1.03723
1.02933
0.684506
0.275056
0.514713
0.991757
0.957853
0.968803
0.929229
0.680793
0.307297
0.500158
0.522837
0.472132
0.495236
0.717805
1.34792
1.8916
1.94303
1.71344
1.68614
1.95983
1.51044
1.58917
1.58044
1.85487
1.89861
1.9252
1.65308
1.61862
0.248013
0.227711
0.249267
0.236565
0.231048
0.251934
0.245009
0.245953
0.245548
0.249063
0.239345
0.189513
0.191982
0.236831
0.261232
0.259684
0.262283
0.258085
0.253508
0.242239
0.247264
0.26776
0.236512
0.257377
0.263866
0.254438
0.256981
0.264108
0.244138
0.200275
0.19461
0.253253
0.266867
0.277368
0.267485
0.277278
0.268624
0.259238
0.280275
0.275278
0.261721
0.281255
0.267442
0.268667
0.264356
0.266214
0.267553
0.272179
0.283121
0.282798
0.271927
0.26563
0.250054
0.266581
0.27283
0.256047
0.263338
0.273681
0.271543
0.280098
0.276562
0.29002
0.266536
0.283695
0.278294
0.271482
0.278999
0.270351
0.278007
0.273486
0.284239
0.282601
0.277514
0.387293
0.325176
0.326582
0.351793
0.434858
0.434685
0.351124
0.277846
0.302739
0.285615
0.287834
0.248221
0.242304
0.293912
0.328998
0.395732
0.336072
0.352385
0.435588
0.433683
0.356135
0.820276
0.745961
1.03774
0.993925
0.74492
1.03963
0.819202
0.817085
0.989849
0.736087
1.04151
0.739357
1.03825
0.817594
1.60488
1.58664
1.66701
1.64186
1.58575
1.66582
1.60589
1.45071
1.21489
1.43179
1.25939
1.43162
1.25407
1.45304
1.60314
1.64077
1.58116
1.65973
1.58415
1.66425
1.60018
0.311505
0.265837
0.285963
0.303898
0.282005
0.295209
0.315633
0.280281
0.294244
0.305777
0.29438
0.210916
0.269043
0.227874
0.325186
0.294816
0.295578
0.323872
0.352463
0.344282
0.379857
0.402986
0.334535
0.35631
0.39977
0.340537
0.380057
0.36011
0.329363
0.27379
0.250172
0.369308
0.366609
0.411361
0.364614
0.414441
0.311718
0.294397
0.290248
0.320111
0.349535
0.352174
0.395523
0.403957
0.352221
0.358359
0.390597
0.343355
0.399155
0.35672
0.380055
0.349226
0.427461
0.369101
0.378299
0.442044
0.364597
0.453088
0.356467
0.396754
0.392905
0.339848
0.327545
0.30194
0.361353
0.474388
0.393506
0.420965
0.396948
0.487166
0.467787
0.418861
0.837174
0.73752
1.04932
0.994817
0.823772
0.743479
1.06324
0.855953
1.00379
0.764958
1.10749
0.752976
1.08244
0.879859
1.58571
1.5755
1.65031
1.61636
1.59469
1.56672
1.63375
1.46883
1.23661
1.44203
1.33044
1.43799
1.30285
1.47677
1.572
1.59309
1.53632
1.56899
1.55406
1.60721
1.55329
0.494961
0.427275
0.450651
0.486355
0.448061
0.475711
0.496437
0.458964
0.393429
0.422355
0.447297
0.294734
0.409326
0.311069
0.505492
0.457628
0.462093
0.498351
0.539165
0.533499
0.57332
0.570671
0.525024
0.537331
0.578089
0.532536
0.444779
0.458967
0.481428
0.325142
0.321408
0.508182
0.54127
0.54544
0.529489
0.565053
0.445821
0.440101
0.415185
0.475345
0.498998
0.533122
0.546503
0.554461
0.517806
0.528312
0.521306
0.477507
0.506778
0.528348
0.489107
0.504448
0.468132
0.49942
0.471616
0.517914
0.502035
0.490535
0.452787
0.462119
0.440132
0.474022
0.539365
0.450975
0.484155
0.469901
0.512921
0.442887
0.54701
0.485435
0.503119
0.520434
0.421909
0.383837
0.378811
0.441251
0.643597
0.5229
0.569719
0.500909
0.643833
0.590309
0.537719
0.949056
0.779916
1.13921
1.05699
0.910336
0.799857
1.18017
0.998138
1.08855
0.864985
1.3032
0.827412
1.23337
1.06071
1.49763
1.51189
1.51969
1.45996
1.52828
1.48099
1.4593
1.50565
1.34889
1.46297
1.48601
1.46064
1.44412
1.5063
1.46244
1.39731
1.40351
1.32646
1.44545
1.38958
1.41289
0.631279
0.619041
0.592689
0.642404
0.609944
0.660081
0.600657
0.590272
0.476838
0.467042
0.538877
0.321312
0.527354
0.319143
0.570829
0.546668
0.572819
0.539577
0.636876
0.656853
0.719035
0.595227
0.688955
0.595085
0.646681
0.666877
0.619114
0.503523
0.546217
0.374729
0.33105
0.570622
0.563125
0.532013
0.52803
0.569591
0.521817
0.544836
0.503746
0.560235
0.513515
0.556106
0.514139
0.502281
0.522608
0.500522
0.519367
0.489877
0.476571
0.486662
0.481878
0.538791
0.615621
0.594426
0.56265
0.579045
0.562765
0.539592
0.525325
0.56956
0.582583
0.528767
0.563721
0.521437
0.529089
0.495015
0.512406
0.508542
0.501551
0.484018
0.492875
0.478588
0.494342
0.81888
0.719087
0.628354
0.651309
0.711723
0.585287
0.80373
0.57852
0.803666
0.690517
0.58182
0.492489
0.42843
0.69285
0.968812
0.817448
0.954113
0.747238
1.11368
0.931647
0.890667
1.27822
0.923029
1.39261
1.30904
1.1466
1.01817
1.50896
1.48322
1.47594
1.4144
1.87688
1.19293
1.68744
1.7601
1.32602
1.35987
1.28753
1.28738
1.35733
1.33147
1.28125
1.50828
1.57184
1.36605
1.74889
1.45625
1.67622
1.56336
1.38822
1.32787
1.31278
1.49948
1.34866
1.36478
1.50863
0.89428
0.469542
0.573316
0.589408
0.679126
0.689085
0.795364
1.17429
0.915097
1.3283
1.38729
0.988011
1.08673
1.48221
0.676265
0.304107
0.487505
0.506846
0.46884
0.491725
0.697416
0.968403
0.836361
1.12682
1.29508
0.798693
1.01033
1.24944
0.954914
0.815632
1.11284
1.27121
0.786736
0.979676
1.2361
1.49608
1.50698
1.22622
1.49035
1.24881
1.2255
1.4561
1.22528
1.22503
1.34111
1.24616
1.225
0.343995
1.65257
1.2596
1.789
1.7613
1.42447
1.49307
1.43501
1.46186
1.46918
0.946664
1.42465
1.31834
0.972628
1.40451
1.28659
1.37383
1.12765
1.29278
1.44459
1.21233
1.2452
1.57932
1.33257
1.54004
1.33588
1.62558
1.22835
1.06983
1.52932
1.3383
1.30008
1.52116
1.49554
1.30064
1.52079
1.33622
1.37359
1.31083
1.51745
1.48623
1.35941
1.32003
1.51405
1.44535
1.36552
1.47794
1.43568
1.4276
1.38506
1.45591
1.43481
1.40563
1.33595
1.3221
1.45163
1.40987
1.31215
0.828658
0.391949
0.532277
0.543917
0.6067
0.608755
0.747423
1.81809
1.85276
1.73936
2.06058
2.1219
1.46236
1.72324
1.34204
1.49469
1.30499
1.51945
1.30206
1.52035
1.34902
1.39071
1.47949
1.34696
1.49591
1.33195
1.5078
1.40902
1.23911
0.926768
1.16111
1.10288
1.14004
1.06729
1.27356
1.36602
1.18912
1.14696
1.0087
1.31618
1.22697
1.20236
1.4575
1.40716
1.40779
1.38499
1.40059
1.42725
1.46021
1.41778
1.06071
1.32256
1.35189
1.27191
1.27147
1.46712
1.536
1.37135
1.44119
1.29978
1.50323
1.42885
1.52124
1.44907
1.34347
1.39422
1.51048
1.42503
1.37155
1.55318
1.58623
1.41681
1.50134
1.75295
1.49865
1.62265
1.66453
1.13219
0.879189
1.35273
1.34706
0.978784
1.03816
1.46604
0.481135
0.358665
0.487252
0.540592
0.570841
0.631689
0.564176
0.452215
0.266767
0.443997
0.43898
0.428373
0.511232
0.527636
0.436208
0.436782
0.269957
0.264857
0.433986
0.426601
0.507758
0.571822
0.467169
0.467807
0.661746
0.547878
0.547166
0.661177
1.74619
1.25718
1.26878
1.33815
1.71624
1.37905
1.7052
1.24832
1.24008
1.59506
1.49576
1.60788
1.52974
1.56895
0.607863
0.486081
0.505297
0.686055
0.550211
0.669491
0.561747
1.37981
1.82635
1.22374
1.41103
1.69231
1.56561
1.56856
1.52546
1.22774
1.35902
1.55252
1.53734
1.63839
1.37025
0.753957
0.588117
0.629588
0.814521
0.627582
0.770303
0.665186
1.68199
1.58182
1.63727
1.62495
1.48371
1.72593
1.25959
1.23594
1.22646
1.27174
1.65957
1.3124
1.61858
1.234
1.1215
0.989554
0.835126
1.13769
0.839399
1.01841
0.935118
1.22978
1.40672
1.86091
1.71555
1.2379
1.35652
1.22618
1.2251
1.22512
1.2282
1.52153
1.22832
1.27245
1.22517
0.784303
1.10003
0.928183
1.00431
0.632025
0.838762
0.8268
1.47352
1.80687
1.62906
1.69796
1.57088
1.78392
1.83748
2.3109
1.88851
1.98644
1.61745
1.37032
1.79836
2.20689
1.57774
1.95223
1.6987
1.56645
1.30756
1.76545
2.15779
1.66044
2.15384
2.38439
1.44145
1.97069
2.41889
2.23047
2.27569
1.69636
2.30732
1.37886
1.91099
2.37354
2.27544
0.467979
0.574645
0.473465
0.658875
0.544405
0.544056
0.660223
0.664039
0.528555
0.555468
0.707952
0.599136
0.577866
0.735521
0.892764
0.682815
0.750248
0.869176
0.768913
0.712092
0.935205
1.33481
1.10194
1.31648
1.33341
1.33483
1.0902
1.63033
1.60242
1.35778
1.13261
1.25256
1.3449
1.08138
1.54298
0.832279
0.534825
0.538618
0.481737
0.949689
0.491388
0.958228
0.982489
0.566788
0.62211
0.551962
1.00428
0.671315
1.1099
1.4056
0.699528
0.823224
0.80988
1.267
0.96692
1.49678
1.65561
1.79708
0.99293
1.19757
1.85694
1.8114
2.1571
2.26252
1.31998
1.43501
1.55572
2.02856
2.52789
2.40091
1.25876
1.8221
2.00165
2.13612
1.91858
2.01963
1.25704
0.705177
0.757932
0.513262
0.623184
0.720848
0.741096
0.891559
1.91086
1.64386
1.6664
1.94099
1.90994
2.10753
2.12435
1.73318
1.97022
1.7491
2.00238
1.86154
2.06655
1.954
1.79344
1.66968
1.46209
1.4455
1.66687
1.5568
1.77271
1.27557
1.25744
1.51369
1.53299
1.56301
1.5462
1.55034
1.52828
1.23071
1.53435
1.57761
1.51218
1.60907
1.42357
1.24883
1.22799
1.31847
1.61305
1.30647
1.52429
1.23242
1.22509
1.22516
1.23031
1.51604
1.22772
1.30214
1.22514
1.83374
1.69994
1.51772
1.59272
1.74357
1.73324
1.87363
2.28245
2.20533
2.36771
1.70607
1.88746
1.90876
1.81383
1.81745
1.91125
1.9514
1.5737
0.226668
0.260041
0.452217
0.593292
0.742526
1.14483
0.211664
0.217585
0.219511
0.225825
0.224157
0.23902
0.250132
0.266315
0.244406
0.257776
0.33639
0.303723
0.366632
0.379907
0.417117
0.377562
0.410585
0.497773
0.457907
0.553442
0.524959
0.555065
0.575899
0.566913
0.600411
0.684654
0.706515
0.587574
0.67023
1.76966
0.231125
0.237343
0.252928
0.260955
0.259865
0.319039
0.31403
0.38335
0.39516
0.479557
0.465532
0.580079
0.599346
0.740361
0.749551
0.961156
0.208628
0.213939
0.217169
0.218369
0.216183
0.219679
0.214987
0.220113
0.212362
0.214403
0.203695
0.213847
0.216962
0.201071
0.216045
0.221455
0.231016
0.222719
0.233258
0.223727
0.232388
0.218956
0.228248
0.23345
0.209038
0.230031
0.220835
0.219986
0.241249
0.271309
0.246287
0.274642
0.249155
0.248515
0.275126
0.270783
0.249666
0.275703
0.261601
0.245878
0.236632
0.271146
0.299318
0.342406
0.30488
0.30872
0.347163
0.309381
0.346736
0.340315
0.30939
0.347277
0.293078
0.343095
0.304788
0.328673
0.411385
0.373801
0.379974
0.423707
0.384805
0.385135
0.421984
0.415634
0.386486
0.427133
0.402507
0.383035
0.365144
0.424544
0.456131
0.496049
0.451778
0.464471
0.501684
0.46059
0.508495
0.508396
0.472024
0.524157
0.443576
0.520847
0.4699
0.491411
0.53854
0.583608
0.541589
0.595978
0.54298
0.55352
0.582045
0.628142
0.582532
0.642632
0.60149
0.575189
0.545902
0.63031
0.750211
0.698043
0.754731
0.652894
0.727362
0.680276
0.705878
0.233349
0.228727
0.2304
0.234986
0.244052
0.246057
0.285465
0.261683
0.287048
0.356709
0.32002
0.357319
0.4348
0.396094
0.43679
0.534314
0.482853
0.538625
0.670474
0.604336
0.675757
0.828175
0.745264
0.820025
0.953003
0.76641
0.969369
0.210119
0.214141
0.213987
0.223438
0.217635
0.217388
0.207011
0.214209
0.228072
0.232149
0.232059
0.222028
0.221891
0.223822
0.266147
0.248786
0.249392
0.286874
0.239774
0.275689
0.276912
0.299593
0.32434
0.349145
0.352873
0.310515
0.312519
0.33708
0.414153
0.388511
0.394721
0.456082
0.375459
0.428395
0.43799
0.45513
0.504152
0.515801
0.534774
0.470548
0.484358
0.500618
0.596396
0.561879
0.58677
0.64333
0.548706
0.60672
0.637156
0.642239
0.676037
0.684402
0.722561
0.644658
0.680791
1.50844
1.11652
1.40332
1.22612
1.22503
1.32326
1.22537
1.22881
1.22505
1.22511
1.31965
1.22516
1.29851
1.22517
1.23299
1.2251
1.22515
1.30565
2.20644
1.76685
2.17057
1.33909
1.22589
1.88024
2.16903
1.29558
1.22806
2.13022
1.45984
1.2275
1.2251
1.30039
1.22515
1.25733
1.22563
1.2406
1.22506
1.5573
2.28846
1.26438
1.22758
2.18319
1.35223
1.23254
1.225
1.225
1.22501
1.22513
1.22526
1.225
1.22504
1.22501
1.22537
1.225
1.225
1.22503
1.22503
1.225
1.225
1.22501
1.22501
1.225
1.225
1.225
1.225
1.225
1.225
1.225
1.225
1.225
1.225
1.225
1.225
1.225
1.225
1.22501
1.225
1.225
1.225
1.225
1.225
1.225
1.225
1.225
1.225
1.225
1.225
1.225
1.225
1.225
1.225
1.225
1.225
1.225
1.225
1.225
1.225
1.225
1.225
1.225
1.225
1.225
1.225
1.225
1.225
1.225
1.225
1.5821
0.925531
1.39364
0.646043
0.655733
0.753358
0.744426
0.730889
1.28838
1.06994
1.31265
1.06228
0.67292
0.643671
0.879408
0.576857
0.799588
0.785574
0.588808
0.606404
0.674308
0.623626
0.635158
0.653579
0.61542
0.67908
0.846792
0.751565
0.747516
0.994832
1.27383
1.77736
1.8183
1.28687
1.27735
1.53076
1.65674
0.69031
0.679929
0.665453
0.758396
0.762152
0.689313
0.6756
0.757855
0.872129
0.799656
0.894761
0.808495
0.760916
0.711423
0.833379
0.788806
0.7189
0.750923
0.774097
0.720104
0.773833
0.803854
0.833023
1.73405
1.0846
0.982255
0.885876
1.01148
1.14892
1.78386
0.961525
0.819142
0.444738
0.263436
0.272606
0.304972
0.423334
0.395702
0.449594
0.557043
0.510994
0.266479
0.266381
0.269471
0.27559
0.285013
0.288112
0.308767
0.336561
0.332843
0.39359
0.366949
0.363895
0.418907
0.412241
0.447781
0.422183
0.42076
0.475624
0.449598
0.444259
0.480328
0.506387
0.479653
0.476571
0.508548
0.548621
0.543318
0.267537
0.266861
0.270062
0.269247
0.272781
0.273045
0.269829
0.310415
0.349493
0.340849
0.34928
0.309801
0.31431
0.315195
0.276689
0.276337
0.289183
0.278673
0.291866
0.292609
0.27923
0.260503
0.268874
0.265112
0.265194
0.269038
0.255166
0.259078
0.38267
0.440484
0.394286
0.377253
0.390527
0.431846
0.412854
1.61386
2.26004
1.9242
1.41667
1.52697
1.25726
1.89381
1.18872
1.80582
1.46618
1.26525
1.24394
1.22515
1.22501
0.247731
0.248891
0.25104
0.246147
0.252707
0.265038
0.255482
0.262492
0.305512
0.281607
0.279256
0.307517
0.339043
0.378118
0.340696
0.376808
0.45974
0.417877
0.416638
0.461358
0.509932
0.575228
0.512012
0.572859
0.740286
0.652905
0.650837
0.741439
0.834263
0.936804
0.833064
0.955929
1.225
1.22504
1.225
1.22501
1.225
1.225
1.225
1.225
1.225
1.225
1.225
1.225
1.225
1.225
1.225
1.225
1.225
1.03127
0.972844
1.18879
2.10723
1.73165
1.97889
1.50846
1.38555
1.24295
1.75933
1.225
1.22507
1.225
1.22504
1.225
1.225
1.225
1.225
1.225
0.286918
0.265601
0.276714
0.274474
0.263606
0.286716
0.274178
0.337891
0.294537
0.342123
0.323421
0.307822
0.293297
0.325201
0.459452
0.492212
0.520319
0.482304
0.469848
0.505759
0.474756
0.418404
0.431527
0.386148
0.401951
0.361529
0.366502
0.409515
0.269753
0.272911
0.277513
0.275075
0.277556
0.272437
0.269636
0.241929
0.245716
0.230279
0.240542
0.244374
0.226619
0.23028
0.234608
0.244206
0.259903
0.248407
0.258102
0.234286
0.243955
0.488409
0.509724
0.472404
0.472992
0.438803
0.448921
0.485923
0.284042
0.293049
0.298323
0.283876
0.298213
0.29266
0.278682
0.264977
0.268382
0.271391
0.253516
0.257046
0.255957
0.258904
0.276173
0.303699
0.286161
0.275689
0.305358
0.260517
0.28795
0.355439
0.317615
0.323853
0.362559
0.324412
0.364996
0.317194
0.340529
0.359269
0.321246
0.343952
0.384619
0.324114
0.362769
0.405208
0.402596
0.450371
0.410235
0.457631
0.415469
0.466951
0.277176
0.261849
0.286576
0.289808
0.272637
0.274945
0.263933
0.242448
0.229849
0.225968
0.229881
0.233514
0.241793
0.244904
0.536542
0.578949
0.593406
0.524355
0.556973
0.541852
0.505255
0.309522
0.312815
0.293149
0.326681
0.327495
0.295525
0.347462
0.391966
0.368931
0.412891
0.412537
0.368369
0.390564
0.434285
0.417042
0.432254
0.396353
0.423
0.459707
0.400434
0.437324
0.498983
0.494619
0.536069
0.537466
0.49994
0.513827
0.55533
0.25692
0.260046
0.23413
0.238243
0.244211
0.249192
0.249535
0.581633
0.52146
0.545946
0.541922
0.50709
0.522929
0.559679
0.274339
0.338376
0.508519
1.02108
0.289966
0.312441
0.282857
0.332203
0.449844
0.408653
0.502215
0.732764
0.640889
0.862498
0.266416
0.2864
0.268114
0.293324
0.289444
0.270605
0.264348
0.272393
0.300145
0.308995
0.286846
0.296508
0.276088
0.28344
0.32972
0.329142
0.304682
0.363022
0.301605
0.360349
0.332316
0.365558
0.402947
0.447968
0.408714
0.400627
0.367847
0.406694
0.50195
0.500773
0.453416
0.561739
0.451541
0.560845
0.503759
0.561974
0.635351
0.73251
0.637474
0.634313
0.563341
0.636419
0.850868
0.864685
0.732305
1.02432
0.731262
1.03336
0.84991
1.41835
1.42689
0.985382
1.20732
1.49089
1.12292
1.23527
0.976185
1.16059
0.409267
0.895961
1.32917
2.29553
1.22501
1.225
1.225
0.348491
0.395883
0.848247
1.47386
2.20364
0.494396
0.357423
0.505932
0.579001
0.496472
0.914037
1.0927
1.1104
1.67958
1.8959
1.95845
2.45359
2.13019
2.64308
2.36686
0.497883
0.591754
0.513987
0.61502
0.730341
0.974205
0.870712
1.3127
1.24896
1.49789
1.15283
1.733
1.41246
2.08564
1.8306
2.22952
1.59654
2.31607
2.25939
2.28593
2.02838
1.22506
1.225
1.225
1.225
1.225
2.31423
1.22541
1.225
1.95354
1.22501
1.225
1.23482
1.225
1.225
1.47506
1.22504
1.225
2.05671
1.22518
1.22501
1.27741
1.22502
1.225
1.225
1.225
1.225
1.225
1.225
1.225
1.225
1.225
1.225
1.225
1.225
1.225
1.225
1.225
1.225
1.22508
1.22527
1.225
1.22502
1.225
1.225
1.225
1.225
1.225
1.225
1.225
1.225
1.225
1.225
1.225
1.225
1.225
1.225
1.225
1.225
1.225
1.225
1.225
1.225
1.225
1.225
1.225
1.225
1.225
1.225
1.225
1.225
1.225
1.225
1.225
1.225
1.22502
1.225
1.225
1.225
1.225
1.225
1.225
1.225
1.225
2.28325
1.28138
1.43598
1.22504
1.22503
1.22545
1.225
1.225
1.225
2.31277
1.22844
1.225
1.85896
1.22661
1.225
1.74785
1.47004
1.22501
1.225
1.225
1.225
1.225
1.225
1.225
1.225
1.225
1.225
1.24329
1.22501
1.225
2.03558
1.22518
1.225
1.24615
1.22501
1.225
1.225
1.225
1.225
1.22501
1.225
1.225
1.225
1.225
1.225
1.225
1.225
1.225
1.225
1.225
1.225
1.22509
1.225
1.225
1.225
1.225
1.225
1.22501
1.225
1.225
1.225
1.225
1.225
1.225
1.225
1.225
1.225
1.225
1.225
1.225
1.225
1.225
1.225
1.225
1.225
0.310262
0.278959
0.280764
0.307815
0.309806
0.277764
0.279876
0.480857
0.454623
0.494106
0.510843
0.494602
0.455417
0.474598
0.488019
0.508657
0.469508
0.497479
0.53665
0.475771
0.516656
0.565741
0.615514
0.614716
0.627665
0.657407
0.645968
0.591387
0.306531
0.310706
0.27969
0.261865
0.290477
0.2688
0.299121
0.388908
0.395586
0.351001
0.327782
0.368281
0.338495
0.382539
0.315586
0.285574
0.29723
0.314379
0.285038
0.32562
0.296955