/*--------------------------------*- C++ -*----------------------------------*\
  =========                 |
  \\      /  F ield         | OpenFOAM: The Open Source CFD Toolbox
   \\    /   O peration     | Website:  https://openfoam.org
    \\  /    A nd           | Version:  9
     \\/     M anipulation  |
\*---------------------------------------------------------------------------*/
FoamFile
{
    format      ascii;
    class       volScalarField;
    location    "0.00345";
    object      rho.c4;
}
// * * * * * * * * * * * * * * * * * * * * * * * * * * * * * * * * * * * * * //

dimensions      [1 -3 0 0 0 0 0];

internalField   nonuniform List<scalar> 
29571
(
1.79948
2.25382
1.49656
1.36939
1.1197
1.45314
1.24556
1.08637
1.66413
2.3165
4.22101
7.43319
0.647269
0.783596
0.713418
0.799709
0.82393
1.00319
0.88255
1.01082
1.08952
1.35698
1.27726
1.59533
1.5046
1.93202
0.65307
0.637994
0.6125
0.697164
0.600884
0.687762
0.665153
0.7002
0.742521
0.774981
0.754422
0.733394
0.713053
0.741647
0.825783
0.816311
0.792973
0.870168
0.781215
0.863908
0.83525
0.882723
0.928761
1.0027
0.954689
0.925182
0.888033
0.953987
1.11419
1.08805
1.03122
1.17654
1.0327
1.16839
1.11396
1.18776
1.25144
1.35299
1.28958
1.23033
1.19421
1.29473
2.36369
2.78739
3.6945
1.49659
1.39661
1.40759
1.76439
1.28083
1.66112
1.62446
0.607254
0.5522
0.768593
0.605168
0.979294
0.745534
1.06343
0.655555
1.71882
4.3628
0.542585
0.631379
0.648663
0.565836
0.651694
0.625226
0.576798
0.642065
0.592868
0.71701
0.912841
0.71529
0.90243
0.712862
0.743304
0.871293
0.714559
1.00035
1.02515
0.609487
1.18258
1.10598
0.662092
1.22427
1.12871
1.3326
0.588601
1.39926
1.2125
0.798579
1.8458
1.44199
0.964863
1.98937
0.551307
0.591379
0.544868
0.555203
0.594882
0.547197
0.547496
0.703299
0.661712
0.616917
0.650427
0.630026
0.72514
0.679901
0.911454
0.908343
0.793481
0.724432
0.900013
0.912963
0.782425
1.07197
0.906958
0.796899
0.681144
0.972807
0.959991
0.870245
1.36417
0.847115
2.34929
2.45631
2.51127
1.95978
3.01914
2.95102
2.62101
0.644073
0.64921
0.622356
0.544364
0.649384
0.625158
0.64174
0.653908
0.550784
0.678146
0.655491
0.657161
0.634236
0.677522
0.561155
0.561821
0.623838
0.575869
0.60371
0.555153
0.584841
0.778714
0.716078
0.69245
0.633921
0.718829
0.772304
0.750258
0.849024
0.682017
0.894777
0.879553
0.840268
0.822231
0.90628
0.790814
0.705115
0.873885
0.787132
0.806267
0.745765
0.862137
0.953648
0.917522
0.907129
0.689023
0.937955
0.921936
0.908321
0.966536
0.647315
0.912022
0.881491
0.919088
0.894399
0.985954
0.915915
0.689202
0.894338
0.769638
0.902644
0.76973
0.929232
0.953107
1.13709
1.04693
1.18476
0.970211
1.16265
1.06232
0.779766
0.874742
0.7953
0.860677
0.95662
1.24728
1.26878
1.16446
1.19621
1.09057
1.01255
0.779491
0.937733
0.869022
0.834305
1.0714
0.910269
0.884963
0.596261
1.01868
0.924585
0.918761
1.15426
0.649973
1.07082
1.20452
0.965492
1.01472
1.2942
1.26643
0.769014
1.32987
1.3211
1.08707
1.02983
1.60475
1.04437
0.674449
1.34814
0.884212
1.11263
1.17564
1.38307
5.00634
9.5009
6.65294
3.45644
6.22469
6.35016
12.3614
1.54756
1.17907
1.2783
1.5735
1.73367
1.66057
2.12659
67.0195
3.52271
8.19886
0.481697
0.53581
0.587945
0.759401
0.800204
0.945862
1.08056
1.28093
1.00875
1.22422
1.31474
1.79366
1.663
1.37364
2.30374
2.2466
0.472132
0.438075
0.487864
0.488018
0.445458
0.494755
0.464314
0.486329
0.502562
0.49265
0.541055
0.460297
0.509099
0.516659
0.622509
0.543961
0.591101
0.651601
0.565943
0.603844
0.649781
0.672625
0.711025
0.696336
0.746235
0.65539
0.702632
0.71394
0.791454
0.73251
0.784277
0.841143
0.751097
0.771621
0.824074
0.842199
0.889026
0.880175
0.934604
0.81982
0.872942
0.906676
1.05754
0.948254
1.00543
1.0766
0.979924
1.02062
1.08021
1.13437
1.14632
1.18214
1.23924
1.0952
1.15431
1.22749
1.15813
1.00639
1.16843
1.14543
1.09776
1.06643
1.22277
1.21265
1.20597
1.19184
1.35487
1.12317
1.28057
1.27885
1.39919
1.17843
1.33827
1.50931
1.20233
1.36
1.54141
1.25592
1.441
1.53614
1.36209
1.41512
1.51062
1.58663
3.45812
5.31774
5.68677
3.28939
3.38796
3.01197
3.0478
0.7635
2.71747
0.921711
3.7836
1.54751
10.8682
2.0129
12.4327
1.39018
6.76014
1.41576
61.451
0.674175
0.68054
0.731963
0.698579
0.792155
1.43163
0.862532
1.4864
0.80697
0.814889
1.12924
1.32573
0.961173
1.91339
1.19531
1.33185
1.31508
1.45168
1.42184
1.72486
2.84966
2.64548
1.07893
4.0394
3.03586
4.82976
0.761815
1.29151
1.04668
0.830848
0.786498
1.34055
1.08405
0.953878
1.69823
1.30446
1.41684
1.60101
2.01365
1.97391
1.92728
2.90953
4.32868
1.80644
2.19259
3.70674
6.27951
2.85953
5.07417
9.1814
4.58828
5.19772
8.4204
18.8279
3.59141
4.12198
5.9769
5.42673
10.443
0.572611
0.5805
0.633605
0.677386
0.583802
0.638092
0.568516
0.584314
0.692556
0.626332
0.693855
0.595899
0.654596
0.613559
0.989976
0.867821
0.890648
0.798813
0.875245
0.900261
0.980907
1.02126
0.816246
0.96718
0.986443
0.899569
0.923751
1.10556
0.75545
0.685773
0.76501
0.914346
0.669799
0.771713
0.876212
0.856423
1.02982
0.912421
1.13155
0.856608
1.01324
0.9419
1.5825
1.11124
1.12016
1.12376
1.28252
1.35288
1.34699
1.01925
0.936043
1.21087
1.23412
0.992145
0.94357
1.26278
1.04289
1.26551
0.972993
1.37066
0.951255
1.30854
1.08013
1.3049
1.03004
1.48271
1.64053
1.15621
1.15029
1.70226
1.58267
2.0639
1.85431
2.9311
1.39272
2.12914
2.07963
1.8317
0.861404
1.56746
1.60118
1.30015
1.34087
2.13636
2.61853
2.40773
3.61115
4.69611
2.08951
3.02555
4.07425
0.727123
0.881079
0.768921
0.733396
0.889867
0.859456
0.851078
0.893828
1.08934
1.06443
1.04384
1.2951
1.24827
1.05411
1.54133
2.09958
1.63296
1.63403
2.28426
2.19722
2.01673
2.00379
3.12352
2.43001
2.40338
3.88999
3.75388
3.00479
1.75056
1.84735
2.01542
2.13975
2.5802
3.08501
2.45779
13.4203
17.2711
26.6811
15.8805
38.947
34.0774
48.2612
7.41584
12.4887
16.9258
56.0494
0.785358
0.799712
0.967153
0.751776
0.910022
0.879645
0.936722
1.24282
1.40578
1.85895
1.22897
1.57056
1.50765
1.78352
1.70357
1.81068
2.69358
1.70989
2.45549
2.36409
2.59251
3.20322
4.53003
7.59841
3.1717
5.19877
5.0298
7.27405
2.63302
4.26274
5.48646
2.8784
3.59269
4.22533
6.29299
1.60985
6.39729
6.06585
2.84109
1.68143
6.6096
6.26741
2.19452
8.49725
8.14951
6.69494
6.06317
14.0402
14.0959
10.7832
18.7201
21.4466
14.1035
15.7743
18.2106
22.8075
19.6616
17.7276
22.4107
15.8939
20.5203
0.157081
10.2089
10.9995
5.90643
0.00192052
5.58685e-07
22.1124
5.81681
7.35119
4.91905
14.2657
5.91243
5.56961
8.19941
10.0369
5.12693
9.19321
4.7501
2.92452
3.08266
3.4164
0.867511
1.32826
2.63649
3.3579
12.0097
21.2311
9.39895
18.1382
1.05265
1.1157
1.81794
0.899309
1.10812
1.15588
2.07268
1.39522
1.39128
2.51053
1.65569
2.14654
2.13188
4.90202
3.28908
4.91399
10.5998
2.55404
5.63056
7.45246
23.6719
10.0101
11.1867
27.5226
6.4166
21.1827
21.1578
26.7698
64.3087
10.1294
15.1615
26.6807
35.4322
23.3365
43.11
8.0153
14.3327
28.3419
0.0536164
5.10793e-09
0.000184485
2.65178e-08
4.08235e-06
2.59522e-10
6.75291e-08
6.90229e-13
1.1793e-10
2.22045e-16
1.87626e-14
2.22045e-16
0.0184354
1.62312e-12
2.22045e-16
2.22045e-16
3.53596
5.18541
15.8286
30.8289
32.7787
63.1579
1.79937e-11
2.22045e-16
2.22045e-16
2.22045e-16
1.15626
1.02181
1.01421
0.963416
0.960312
1.07925
1.02576
1.02333
1.08438
9.33115e-07
0.00536567
5.89145e-10
2.66818e-07
5.75214e-12
4.43123e-09
1.53851e-14
7.11886e-13
2.22045e-16
2.06231e-15
2.22045e-16
14.0915
0.0194254
0.000221097
2.73983e-08
2.50836e-09
2.10992
14.6211
17.7304
9.50806
6.41817
13.603
9.26
12.0518
27.504
40.7228
139.82
0.794269
0.813092
1.0627
1.37163
1.89615
2.33988
3.48053
4.64429
6.74715
15.9028
3.49712
5.94268
2.634
3.31157
4.29174
2.42265
3.2474
3.95994
2.97646
0.748194
0.968514
0.657668
0.911368
1.12086
0.981744
0.673866
0.627969
0.635166
0.730203
0.615187
0.701356
0.685854
0.644584
0.598057
0.597848
0.634835
0.760243
0.818897
0.904664
0.842943
0.798064
0.759541
0.863135
0.72634
0.786892
0.705048
0.826454
0.994182
0.995237
0.906215
1.01843
0.948594
1.05021
0.934443
0.943552
0.848107
0.905872
0.875904
0.575291
0.686552
1.01211
1.00574
1.39019
0.552075
0.628659
0.606594
0.665687
0.947503
0.916751
0.973792
1.02861
1.08599
1.04827
0.629962
0.577916
0.602701
0.580403
0.582917
0.605189
0.627286
0.76886
0.698008
0.670207
0.766272
0.70641
0.785191
0.722155
0.966522
1.04366
0.909244
1.04296
0.957092
1.07813
0.923306
0.872309
1.07872
0.866016
0.993061
0.891079
1.0735
0.850872
1.00452
2.27548
0.638578
0.568535
0.629021
0.556477
0.5733
0.631402
0.63579
0.67333
0.622695
0.621202
0.67458
0.704875
0.709746
0.711085
0.704382
0.640095
0.595153
0.636026
0.633214
0.599231
0.613124
0.664699
0.649823
0.571331
0.625995
0.671617
0.589338
0.64288
0.676986
0.673149
0.622215
0.619772
0.67896
0.709991
0.738643
0.718543
0.724665
0.789274
0.688078
0.721021
0.747475
0.72329
0.775015
0.790676
0.719343
0.629538
0.692161
0.657604
0.795907
0.775529
0.752699
0.830321
0.84733
0.858846
0.978071
0.86216
0.885693
0.790698
0.916993
0.872969
0.83803
0.962115
0.946157
0.87369
0.87311
0.949534
0.766135
0.775681
0.714726
0.81354
0.853793
0.953118
0.898907
0.894274
1.01663
1.02732
0.993687
1.01492
0.998115
1.06838
1.01782
0.837388
0.816596
0.836765
0.832159
0.887679
0.973273
0.901409
0.969392
0.952318
1.04625
1.08735
0.89315
1.09014
0.915665
0.923131
1.01339
1.05015
1.11739
1.0398
1.0961
1.03104
0.995075
0.822508
0.816529
0.831525
0.796656
0.86084
0.910063
0.947194
0.825688
0.756144
0.794927
0.771698
0.778431
0.872895
0.997105
1.14073
0.884481
1.08142
0.852814
0.916963
0.756144
0.822058
0.773667
0.813701
0.923184
0.78558
0.568965
0.597287
0.809921
0.981406
1.05325
0.496412
0.534718
0.641127
0.824428
0.985245
0.554538
0.562312
0.755791
0.972451
1.11414
1.17362
1.20198
1.40186
0.517253
0.717422
0.502103
0.575683
0.559654
0.617586
0.829656
0.879451
1.02156
0.5056
0.499541
0.506957
0.498173
0.522781
0.559131
0.52315
0.55899
0.68307
0.616954
0.614936
0.686307
0.745289
0.746362
0.916488
0.51105
0.477384
0.527322
0.508115
0.484689
0.532809
0.504499
0.528531
0.523638
0.536578
0.586053
0.500923
0.54882
0.566312
0.700257
0.592253
0.648292
0.692476
0.624792
0.659521
0.73501
0.777207
0.767591
0.769311
0.917032
0.720679
0.831416
0.842267
0.940173
0.809381
0.983536
0.924119
0.894165
0.849127
1.03429
0.987549
0.969883
0.94808
1.12104
0.894702
1.07786
1.04031
14.0495
104.141
67.3411
0.217437
13.1535
2.69445
6.67854
3.16253
8.16593
10.8535
22.4666
68.045
1.27235
99.0013
0.0018328
149.309
0.00318661
154.078
0.522563
0.505
0.646885
1.24052
1.6316
7.16005
7.24275
21.9686
0.00323026
0.646578
0.614135
0.729769
1.42822
1.8931
8.73376
12.542
23.1631
0.00016037
1.28836
1.10001
1.32575
2.6785
4.21128
23.6659
0.00308777
7.26016e-05
4.49342e-08
1.72866
1.29328
1.47389
4.13622
9.74766
44.7868
28.9978
1.63028e-08
1.32324e-09
5.0104
1.45996
3.30956
0.781397
28.2174
6.58885
87.7342
41.7065
15.6019
4.44656
48.5497
6.36483
95.316
63.1057
0.497817
0.548357
0.524234
0.559717
0.497164
0.56101
0.548884
0.556634
0.577761
0.556952
0.559917
0.605656
0.826715
0.660106
0.852594
1.31092
1.76778
2.3093
1.27298
1.38919
1.79092
2.45823
3.00147
3.08795
3.88365
1.72902
3.3792
3.32
5.46002
0.618782
0.805391
0.615403
0.639447
0.861685
0.984611
0.800264
0.964164
0.972869
0.938695
1.28667
1.50083
2.01196
2.70646
1.85928
2.39968
3.33201
4.95569
3.98711
3.69303
6.93933
3.31456
7.94699
7.13652
13.2004
1.02175
1.17624
1.21278
1.13108
1.15612
1.51123
1.39227
1.37889
1.29654
1.0107
1.82135
1.62502
2.38703
2.92551
5.34171
6.52264
3.82796
4.91709
8.67661
15.3625
9.26091
9.56471
16.0439
8.13932
11.8794
22.3248
17.1543
1.30941
1.24607
1.40822
1.38234
1.41859
1.4693
2.00015
1.48447
1.5406
0.989337
1.29232
1.025
2.35892
1.82364
4.28621
5.66962
14.5019
19.8416
9.61721
11.1446
27.4156
40.682
13.6155
27.786
22.7545
9.80724
6.72788
35.6296
24.0161
0.953807
5.57285
4.22532
6.81748
3.63845
16.7107
7.996
0.65081
3.42291
2.70332
3.10935
2.59583
6.8247
4.01779
0.934428
1.75682
1.08272
2.00755
2.03509
5.41475
3.52514
28.1279
8.48882
36.5573
0.700185
0.72069
0.777335
1.00271
0.831782
0.961879
0.795887
1.02429
0.85765
0.835843
1.25739
0.880861
1.28263
0.983343
1.41046
1.12995
1.57691
1.32937
1.62089
1.94634
1.82125
2.77345
1.94756
2.79722
2.12383
3.51047
2.59241
2.30655
2.9356
2.39564
5.16796
2.65367
4.35605
3.07789
8.15954
4.74565
0.540874
0.515542
0.53238
0.513034
0.521928
0.538313
0.536472
0.651521
0.627096
0.632523
0.590483
0.524007
0.529146
0.585018
2.69715
2.47755
1.79029
1.63585
2.47975
1.79764
2.69219
0.681298
0.612992
0.625144
0.699366
0.613577
0.691222
0.704824
0.698261
0.810966
0.764424
0.736904
0.581974
0.666826
0.634423
3.76838
2.92158
2.10961
2.19001
3.19502
3.44484
2.45595
1.08064
1.04272
1.09767
1.20495
1.01664
1.12567
1.18676
1.5073
1.20038
1.3438
1.28649
0.961825
1.15613
1.05319
9.95809
6.9907
4.8581
5.35587
7.72834
8.96496
6.23473
1.02164
1.14906
1.17491
1.27637
1.05152
1.12256
1.13356
1.83336
1.45019
1.74165
1.44799
1.05577
1.39407
1.05541
22.197
16.5337
11.8401
12.4374
18.7886
19.3597
15.093
5.81813
2.3998
2.8438
1.81973
0.771978
3.14084
3.21274
1.35883
0.664605
0.998252
2.82097
2.36282
2.78292
2.25337
1.55462
0.694463
1.13603
1.27436
0.991871
1.13586
1.7664
83.9529
57.0745
12.8096
8.3589
42.1945
12.5345
62.5275
5.33716
33.2539
15.9542
10.6215
8.65391
46.6729
36.249
0.532749
0.498368
0.524248
0.506379
0.507401
0.531205
0.52488
0.568072
0.545791
0.554449
0.527009
0.433712
0.439832
0.519316
0.563778
0.548918
0.555372
0.556945
0.549433
0.522763
0.561496
0.577186
0.524963
0.546579
0.582991
0.571156
0.599917
0.603694
0.541928
0.463229
0.447319
0.571318
0.579877
0.598686
0.569762
0.611781
0.55142
0.533311
0.572157
0.562331
0.539047
0.574898
0.548327
0.555876
0.551639
0.556117
0.553175
0.559808
0.580147
0.579837
0.558863
0.55142
0.528538
0.563201
0.577807
0.535379
0.551479
0.573504
0.559757
0.575545
0.579153
0.601185
0.551715
0.582435
0.57916
0.563487
0.591011
0.567061
0.581487
0.564088
0.586533
0.58091
0.575957
0.834168
0.699082
0.704386
0.699637
0.855037
0.862672
0.693688
0.639675
0.683097
0.659645
0.600516
0.55117
0.535247
0.62415
0.716891
0.894991
0.747941
0.713695
0.923078
0.881359
0.745893
1.32413
1.15588
1.43072
1.31857
1.16589
1.44157
1.31143
1.34654
1.33706
1.23199
1.5313
1.18521
1.46528
1.40278
3.95242
3.67341
3.22375
3.01777
3.6828
3.24182
3.94078
2.74034
1.6566
2.63737
1.91584
2.51473
1.82591
2.88049
4.02991
3.10841
3.96781
3.62992
3.75227
3.34047
4.26418
0.733517
0.623873
0.63163
0.707424
0.641753
0.718624
0.719677
0.658173
0.702903
0.740947
0.70093
0.491733
0.621955
0.53752
0.755142
0.649308
0.667523
0.730612
0.862825
0.834644
0.994674
0.998377
0.845829
0.845552
1.02014
0.858146
1.00432
0.933176
0.81315
0.701188
0.607175
0.953455
0.881584
1.00042
0.850297
1.04086
0.672599
0.633428
0.614905
0.703219
0.784011
0.820564
0.926218
0.965471
0.800244
0.822587
0.90809
0.763989
0.941704
0.808958
0.878254
0.808026
1.10046
0.9106
0.901994
0.999744
0.8053
1.12189
0.871634
1.11843
1.02535
0.844799
0.835226
0.718185
0.992838
1.53162
1.06681
1.27972
1.04632
1.52504
1.29661
1.24035
1.71522
1.32695
1.66727
1.69549
1.5172
1.48634
1.90488
2.01498
1.99066
2.03863
2.78277
1.7218
2.26925
2.42946
5.69906
4.44817
4.27173
5.03498
4.77822
5.31666
5.37857
4.67329
2.65257
5.43094
3.78473
4.26569
2.99905
5.97306
7.11756
6.44556
8.47712
8.48999
6.65452
6.87952
9.06728
1.30849
1.143
1.14759
1.25257
1.17837
1.27293
1.26074
1.28541
1.077
1.19068
1.21227
0.800113
1.09738
0.871421
1.32202
1.14576
1.2019
1.24045
1.39441
1.34084
1.45601
1.3312
1.3779
1.32101
1.43258
1.43677
1.24958
1.25806
1.27753
0.878067
0.900782
1.30488
1.37703
1.24145
1.26819
1.37083
1.02037
1.06042
0.973483
1.1255
1.09919
1.26998
1.17079
1.21236
1.16672
1.22211
1.08452
1.00446
1.02471
1.05835
0.919344
1.06812
0.936072
0.989611
1.0265
1.10928
1.13599
1.00575
0.949703
0.867411
0.880822
0.933105
2.12023
1.5273
1.76132
1.66104
1.79887
1.46086
2.08461
1.42212
1.44739
1.68992
1.35456
1.07591
1.08576
1.37709
2.61173
1.94337
2.07566
1.79981
2.52761
2.33351
1.88085
3.57856
2.42717
3.45708
3.54809
2.95979
2.85369
4.28258
4.2323
4.22492
3.65579
6.26023
3.26999
5.22232
4.88511
14.4046
10.7623
9.9058
10.2962
11.5369
13.3915
11.0249
12.5966
6.69711
13.7558
9.7101
11.2794
7.87415
15.5105
17.4711
11.1053
18.98
12.6726
16.1591
11.8877
20.5665
1.43058
1.51436
1.30618
1.43461
1.43651
1.57232
1.26878
1.4962
1.2501
1.24707
1.28017
0.842807
1.29514
0.821086
1.27607
1.18136
1.32542
1.1248
1.4247
1.44399
1.71185
1.2562
1.62738
1.24202
1.45829
1.70541
1.55189
1.32345
1.28611
0.993437
0.855836
1.36794
1.24694
1.12815
1.09484
1.28257
0.939375
1.03553
0.893749
0.977743
0.961343
1.01794
0.8776
0.937383
1.06049
0.969097
1.0171
0.874924
0.842695
0.902833
0.820108
1.00923
1.26229
1.14594
1.12258
1.11203
1.10937
1.02188
0.934017
0.97943
1.05645
0.900089
1.01629
0.878523
0.949061
0.919896
1.02653
0.991685
0.956668
0.859284
0.852158
0.809175
0.898435
3.09429
2.82565
2.19441
2.05349
2.70131
1.9469
2.92483
1.57507
2.39761
2.03166
1.6109
1.30072
1.1169
1.93721
3.18811
2.65136
3.51593
2.2809
4.0153
3.29682
2.75417
6.64331
4.07636
7.49209
6.933
5.60443
4.66275
9.30084
8.57651
9.74072
8.03165
16.7611
5.83553
13.0308
12.4373
21.1047
21.7847
14.3552
15.49
23.5309
18.5247
17.1083
17.2915
15.1469
7.77008
15.1919
13.5659
19.1263
11.8873
14.4436
10.8115
6.91523
10.1635
11.3999
13.5694
10.5147
2.66451
1.25705
1.41995
1.53107
1.86439
1.93148
2.137
3.90421
2.41947
4.99589
4.91437
2.99998
3.18553
5.98911
1.47124
0.656163
0.943051
1.06451
0.940931
1.07509
1.46129
2.32476
1.96
2.93535
4.06154
1.70374
2.65512
3.52447
2.17034
1.58589
2.71984
3.23431
1.59181
2.14387
3.26863
1.79547
3.59513
8.40761
2.45308
10.7124
1.53477
5.77513
0.316725
0.000129803
8.51903
27.7029
3.02318e-07
0.672304
5.50096
38.229
6.44695
61.5586
2.34496
2.04488
2.45501
3.24804
5.00646
1.54515
3.71115
2.68418
1.71447
11.8219
3.22281
7.55402
2.10405
12.3655
4.1762
2.4021
15.2402
5.63413
6.92118
5.99143
23.3246
9.08812
2.81193
2.63339
4.33392
1.2939
1.13825
1.96337
1.80453
1.14524
1.97489
1.28477
2.20323
1.54492
2.67296
3.14921
1.73777
1.95374
3.42623
4.65805
3.55615
6.3465
6.38946
4.1285
3.98559
7.03759
8.27634
5.733
9.17958
10.9382
6.66211
7.26778
11.9079
1.61547
0.73329
0.985207
1.0916
1.0932
1.17441
1.50157
6.92968
16.2523
18.0019
9.56968
10.7491
34.7284
29.5496
1.3385
1.86372
1.3002
2.23626
1.18461
2.04066
1.46527
2.8378
4.06893
3.07242
5.4806
2.49973
4.4357
3.5219
1.98878
1.33461
2.00506
1.97208
1.67379
1.65157
2.42747
3.16744
2.27228
2.24764
1.83509
2.82121
2.50582
2.46831
5.19049
6.94649
4.97406
8.29016
4.43606
7.6571
5.81656
3.52111
1.94496
3.09229
2.96883
2.75612
2.68174
3.97082
5.66973
3.61819
3.45044
2.94872
4.62295
4.49683
4.25635
11.7962
10.6946
7.48447
10.3571
10.0005
13.2762
10.8937
8.16682
4.02333
7.96481
8.71412
6.53454
5.766
11.0835
2.33349
1.64443
3.11255
3.32237
1.80745
2.18786
3.5933
1.07793
0.973701
1.24925
1.29142
1.56971
1.62451
1.35133
0.957916
0.609861
1.06962
0.883336
0.972549
1.08849
1.18943
0.906974
0.796111
0.562805
0.576713
0.829838
0.92215
1.02582
1.25161
1.02055
1.02952
1.2949
1.05497
1.06402
1.28332
7.2999
2.90129
2.94704
3.26802
13.0434
3.52451
13.9855
10.711
11.3038
7.44437
4.67817
16.4246
5.09771
17.2816
1.60141
1.19279
1.34278
1.66103
1.21984
1.47599
1.36738
4.06211
13.3135
4.42051
3.94242
15.5471
7.87562
28.522
9.23024
6.47065
16.268
5.73703
18.8547
11.6437
30.8866
3.23193
2.20765
2.60667
3.38727
2.23268
2.80998
2.63369
12.1896
52.7528
13.8575
10.6911
35.5262
25.9155
53.4709
19.2903
1.39354
18.64
15.7413
36.6813
34.7288
28.3437
5.80474
5.03445
3.71512
5.95825
3.65324
5.17834
4.0367
19.6271
60.0009
24.829
32.7766
52.7634
49.3871
0.440727
0.00221366
0.000632951
16.3561
40.9042
4.59717
41.9654
0.00135411
2.38555
4.14871
3.02933
3.41967
1.7928
2.5246
2.6005
5.47829
12.5991
6.88098
10.3138
5.86983
10.2356
12.1074
27.092
9.97337
12.3292
6.17158
5.04937
9.7433
19.2382
5.01823
9.75006
6.85732
5.50202
4.35981
8.63863
16.3983
116.42
16.703
46.9731
5.71303
12.097
40.7359
68.448
15.7366
6.11828
45.8113
4.90374
10.3518
24.9307
58.9428
1.05075
1.32493
1.10045
1.31542
1.12999
1.08352
1.36711
2.21584
1.56129
1.85134
1.93802
1.87242
1.58278
2.3199
4.42199
3.00255
3.36451
3.995
3.34764
3.01812
4.58259
6.10355
4.80564
7.08258
7.37725
6.10978
4.72769
10.2264
7.91821
5.65478
4.08342
4.78251
5.35026
3.6289
7.07637
1.78278
1.21614
1.25632
1.22352
2.05891
1.25824
2.11879
3.30103
1.44164
1.91094
1.48094
2.39264
2.08226
3.19282
8.98159
2.75344
3.94668
3.16467
4.96334
4.5919
8.5687
9.96334
15.8481
4.50822
6.33152
16.1852
11.3197
52.1853
21.6982
5.05403
6.35935
5.90628
11.2754
18.4286
50.7717
86.9849
66.3915
13.6329
16.3466
75.478
76.5911
92.1522
2.07584
2.06847
1.4419
1.58381
2.15455
2.07013
2.69897
14.3434
8.62419
8.78969
15.4102
12.0325
21.3729
21.9136
9.3058
16.0748
8.54745
17.2582
10.5411
19.1359
15.3056
9.21749
9.05387
4.91922
5.00231
9.29491
5.40243
9.36883
9.0132
9.5111
3.76453
3.23298
7.10367
3.38079
7.31805
4.98543
17.0963
8.54299
4.50454
9.2857
7.89675
14.7615
14.1649
16.0127
14.512
12.248
18.4839
14.8554
17.5964
0.00200521
0.146729
16.1714
13.0014
18.0488
15.6413
0.0214336
9.49236
9.30082
5.10221
5.56087
9.93404
5.93726
10.1139
15.7118
11.1716
19.1539
6.3868
11.6442
7.64219
11.0408
6.65431
11.1375
12.6252
76.7754
0.481673
0.621309
1.0919
1.37006
1.70965
3.6206
0.472044
0.50954
0.478664
0.53262
0.534995
0.542694
0.517851
0.692375
0.634062
0.603932
0.928671
0.84565
0.943806
0.922609
1.14077
1.09981
1.07399
1.33292
1.3339
1.36781
1.23558
1.16275
1.51649
1.62547
1.43895
1.95219
1.64997
1.22223
1.43084
7.51338
0.563605
0.587535
0.63474
0.66314
0.693297
0.910766
0.876022
1.15167
1.18907
1.4637
1.46642
1.82505
1.81122
2.202
2.29197
2.89316
0.462813
0.470342
0.480226
0.487802
0.477181
0.487408
0.477793
0.517649
0.503457
0.510357
0.468918
0.485514
0.495146
0.45937
0.490712
0.499445
0.541686
0.506773
0.546509
0.505612
0.549076
0.529494
0.569349
0.573455
0.49096
0.55173
0.512656
0.535046
0.598763
0.699192
0.607498
0.71239
0.611434
0.616586
0.702872
0.729224
0.636348
0.728686
0.692601
0.614729
0.601029
0.705268
0.806009
0.92853
0.810345
0.829639
0.934486
0.814544
0.957215
0.973943
0.846546
0.979324
0.804439
0.952421
0.821485
0.927624
1.14991
1.04488
1.04032
1.18771
1.0481
1.07886
1.14879
1.21692
1.1114
1.23449
1.15614
1.08169
1.04715
1.19989
1.23674
1.35887
1.25208
1.28943
1.32947
1.24097
1.39093
1.46873
1.35501
1.48741
1.26103
1.42253
1.31054
1.37422
1.42607
1.58248
1.4711
1.59648
1.4138
1.49366
1.49764
1.79149
1.6355
1.79636
1.63275
1.53872
1.49902
1.66405
2.16717
1.95866
2.14965
1.76819
1.94707
1.79446
1.93523
0.57077
0.566168
0.57165
0.589806
0.628658
0.624717
0.788549
0.687577
0.781339
1.0492
0.90192
1.03995
1.32435
1.18098
1.3183
1.62455
1.45925
1.61949
2.01166
1.80401
2.00497
2.48116
2.20484
2.44901
2.4418
1.68699
2.45329
0.471147
0.470675
0.477839
0.489024
0.480644
0.487817
0.4618
0.490505
0.505446
0.539003
0.545311
0.498822
0.50569
0.532077
0.692032
0.601783
0.609808
0.693807
0.597327
0.690898
0.704052
0.80652
0.810501
0.92153
0.95582
0.800608
0.822737
0.931724
1.16161
1.03901
1.08616
1.18845
1.05303
1.14365
1.20358
1.26124
1.28589
1.32276
1.4048
1.23725
1.30892
1.35888
1.55249
1.40144
1.49638
1.50612
1.45524
1.4833
1.59182
1.65885
1.56465
1.68577
1.80771
1.56822
1.68627
5.80989
3.52647
67.14
0.721288
2.02048e-06
49.0044
0.01145
23.099
4.8115e-05
0.00526521
31.2555
0.0257091
39.932
0.00885226
58.383
0.00177432
6.88903e-05
119.603
75.0893
91.024
19.0908
75.0542
0.245523
81.4527
13.3791
55.1911
21.9607
16.2693
59.7822
13.6485
0.00318148
30.2559
0.0171661
30.0752
2.02263
37.8014
0.000947729
65.3544
25.2374
49.8373
16.4319
32.0291
49.4904
57.8353
4.91512e-12
1.34941e-10
2.01263e-07
0.000217389
0.00510069
7.02032e-12
2.22309e-05
7.77502e-09
0.0481729
2.97461e-12
2.02152e-13
2.08827e-05
2.32284e-06
1.52886e-10
1.7341e-12
1.38364e-08
1.24456e-08
6.03469e-13
4.63227e-14
3.29216e-11
5.45603e-12
2.22045e-16
2.22045e-16
4.08176e-13
7.7803e-15
2.22045e-16
2.22045e-16
2.22045e-16
2.40118e-16
2.22045e-16
2.22045e-16
5.7568e-05
7.07699e-09
2.57436e-06
1.11046e-10
2.15602e-08
1.4304e-13
1.90794e-11
2.22045e-16
1.91041e-15
2.22045e-16
7.25392e-11
2.22045e-16
2.22045e-16
8.90435e-12
2.22045e-16
2.22045e-16
2.22045e-16
1.671e-13
2.59279e-11
2.22045e-16
2.22045e-16
2.22045e-16
2.22045e-16
2.88508e-14
2.64579e-11
2.22045e-16
2.22045e-16
2.22045e-16
2.22045e-16
2.22045e-16
2.22045e-16
2.22045e-16
8.84021
2.86809
6.87454
1.71615
1.53931
2.1077
2.23153
1.77073
4.65201
3.22047
4.73895
3.20872
2.05909
1.96719
2.69947
1.75963
2.42508
2.33427
1.73415
1.59706
1.85982
1.69658
1.70043
1.68886
1.57785
1.84022
2.21503
1.87908
1.75191
2.71482
5.24568
12.0908
8.96353
4.58087
5.06731
5.40592
7.83127
1.80286
1.85321
1.92218
2.23982
2.19659
1.82251
1.90148
2.06371
2.69212
2.33974
2.73261
2.38078
2.0947
2.01916
2.40986
2.21197
1.82392
1.9429
1.99445
1.93742
2.05351
2.20064
2.61944
7.35111
3.35029
3.17587
2.72237
3.23377
3.82715
8.41512
2.77637
2.31425
0.85786
0.485538
0.508262
0.593712
0.880692
0.738592
0.810156
1.09918
0.907987
0.492396
0.48382
0.490263
0.504723
0.541881
0.536611
0.588444
0.648711
0.653917
0.746188
0.699282
0.705699
0.792918
0.795064
0.815934
0.772685
0.780169
0.874426
0.831313
0.83532
0.870545
0.908345
0.855686
0.858827
0.918597
0.969725
0.969452
0.508729
0.501493
0.509314
0.524385
0.53322
0.524888
0.51693
0.637289
0.737823
0.690814
0.717453
0.621749
0.653168
0.640461
0.535575
0.52739
0.565184
0.5515
0.59129
0.58137
0.542905
0.507117
0.51612
0.506611
0.5209
0.530598
0.507359
0.517789
0.803593
0.928331
0.836078
0.758256
0.79823
0.867858
0.813869
4.82147
13.642
6.43135
4.80004
4.74104
3.8733
6.41652
3.77063
6.48115
4.8233
23.0867
24.1079
0.000263633
1.80447e-09
0.648441
0.641016
0.647841
0.643435
0.666702
0.704883
0.665088
0.70721
0.879594
0.77357
0.776766
0.875312
1.01056
1.1547
1.00518
1.16104
1.48047
1.31304
1.31944
1.47539
1.64885
1.83735
1.64526
1.84085
2.30739
2.05988
2.06585
2.30125
2.52421
2.8442
2.53569
2.87682
1.11971e-12
0.000252401
1.3996e-09
3.77243e-08
6.62674e-12
6.21961e-11
2.22045e-16
2.11878e-13
2.22045e-16
2.22045e-16
2.22045e-16
2.22045e-16
2.22045e-16
2.22045e-16
2.22045e-16
2.22045e-16
2.22045e-16
3.22855
3.12128
3.89406
11.6983
28.8705
24.2585
31.5517
53.4296
54.3407
93.9663
2.3788e-12
0.000311322
2.13359e-12
2.16579e-05
6.51962e-15
7.97001e-13
2.22045e-16
9.45228e-15
2.22045e-16
0.576017
0.526276
0.568319
0.548852
0.535746
0.588967
0.575544
0.728619
0.634924
0.741597
0.725822
0.652934
0.640078
0.729409
0.941258
0.992615
1.06016
1.00165
0.922928
0.971103
0.899237
0.913925
0.945072
0.845474
0.922922
0.826664
0.832584
0.934738
0.536788
0.54449
0.561356
0.547796
0.553815
0.534605
0.52768
0.487526
0.498309
0.492508
0.494242
0.505034
0.48672
0.497343
0.5124
0.555085
0.560017
0.523101
0.562788
0.515455
0.555414
1.04532
1.08966
1.0256
1.07173
1.00335
1.0212
1.09122
0.578587
0.600436
0.61585
0.570526
0.607989
0.590152
0.551975
0.533711
0.54223
0.555315
0.517254
0.526535
0.52895
0.536196
0.626046
0.717186
0.711923
0.626375
0.714333
0.618952
0.707284
0.739472
0.663646
0.680057
0.77583
0.673138
0.767299
0.6523
0.820994
0.927136
0.81864
0.817269
0.922934
0.813724
0.924751
0.867605
0.838506
0.927483
0.888938
0.99261
0.878668
0.981144
0.571324
0.543282
0.596577
0.60553
0.578591
0.581661
0.550749
0.507911
0.489739
0.48544
0.49609
0.499063
0.506551
0.514403
0.997408
1.07301
1.16279
1.04375
1.11179
1.01996
0.945166
0.657755
0.665171
0.637552
0.723516
0.718237
0.636132
0.75399
0.860131
0.829861
0.940075
0.939747
0.824752
0.861717
0.967594
1.01307
1.11726
1.02775
1.01583
1.09391
1.02685
1.11626
1.05361
0.997198
1.05264
1.11845
1.06937
1.05754
1.1086
0.560324
0.559485
0.512982
0.514313
0.55032
0.548244
0.528544
1.19761
1.10311
1.1453
1.20014
1.13613
1.15251
1.20901
0.738225
0.998419
1.7177
3.17805
0.830374
0.912584
0.767146
0.994645
1.48951
1.29573
1.70814
2.44619
2.19152
2.77007
0.741556
0.823784
0.737398
0.841016
0.833639
0.744945
0.735317
0.761666
0.864846
0.906684
0.806887
0.858328
0.763944
0.805264
0.997479
0.989766
0.882569
1.12241
0.881641
1.11876
0.997122
1.14619
1.29001
1.48846
1.31681
1.28768
1.14458
1.31956
1.70011
1.70748
1.50351
1.93419
1.50639
1.93282
1.69831
1.90195
2.17334
2.43617
2.1217
2.16695
1.90087
2.12201
2.66759
2.75819
2.37883
3.1245
2.37808
3.11309
2.67053
4.00856
4.40176
2.91853
3.47368
4.09215
3.33834
3.44207
2.94482
3.3794
1.10405
2.06619
4.42197
27.9027
1.22133e-08
2.67023e-14
2.22045e-16
0.654954
0.75538
1.3602
1.97159
11.7948
0.756917
0.674808
0.778854
0.897181
0.933135
1.36411
1.58256
1.59619
2.18624
2.42984
2.75336
3.55222
21.2858
8.74022
6.3333
0.785001
0.831421
0.808368
0.867241
1.11614
1.15861
1.37068
1.81365
2.18527
2.76076
1.72625
3.77631
2.04735
6.08318
3.13863
14.0879
37.8857
26.7284
7.71238
24.3919
22.9839
0.000222942
7.06179e-12
1.7933e-15
2.22045e-16
2.22045e-16
35.6744
1.61258
1.95371e-09
100.956
2.52779e-08
2.22045e-16
32.9767
2.1902e-13
2.22045e-16
74.4539
4.13507e-05
1.51853e-12
12.8048
0.1087
5.01265e-06
74.4513
3.00082e-07
2.22045e-16
2.22045e-16
2.22045e-16
2.22045e-16
4.57132e-11
2.22045e-16
2.22045e-16
2.22045e-16
2.22045e-16
2.22045e-16
2.22045e-16
2.22045e-16
2.22045e-16
2.22045e-16
2.22045e-16
2.22045e-16
1.61525e-05
0.0164888
5.88036e-14
1.97758e-06
2.22045e-16
2.22045e-16
2.22045e-16
2.22045e-16
2.22045e-16
2.22045e-16
2.22045e-16
2.22045e-16
8.81326e-14
1.19702e-11
2.22045e-16
2.22045e-16
2.22045e-16
2.22045e-16
2.22045e-16
2.22045e-16
2.22045e-16
2.22045e-16
2.22045e-16
2.22045e-16
2.22045e-16
2.22045e-16
2.22045e-16
2.22045e-16
2.22045e-16
2.22045e-16
2.22045e-16
2.22045e-16
2.22045e-16
2.22045e-16
2.22045e-16
2.22045e-16
8.81998e-10
2.22045e-16
2.22045e-16
2.22045e-16
2.22045e-16
2.22045e-16
2.22045e-16
2.22045e-16
2.22045e-16
22.354
104.842
75.3145
0.000147169
5.57474e-07
0.195506
9.12099e-09
2.22045e-16
3.33955e-14
45.2002
18.7051
6.74563e-12
7.76835
30.7161
2.61002e-07
7.04772
45.4848
1.29255e-06
2.22045e-16
2.22045e-16
2.22045e-16
2.22045e-16
2.22045e-16
2.22045e-16
2.22045e-16
2.22045e-16
2.22045e-16
54.201
1.92011e-06
2.00495e-12
11.532
0.141223
7.56696e-09
61.2142
2.70141e-09
2.22045e-16
2.22045e-16
2.22045e-16
2.22045e-16
1.92565e-09
2.22045e-16
2.22045e-16
2.22045e-16
2.22045e-16
2.22045e-16
2.22045e-16
2.22045e-16
2.22045e-16
2.22045e-16
2.22045e-16
2.22045e-16
0.000529812
1.33718e-10
2.09086e-14
2.22045e-16
2.22045e-16
2.22045e-16
2.04609e-09
2.43279e-12
2.22045e-16