/*--------------------------------*- C++ -*----------------------------------*\
  =========                 |
  \\      /  F ield         | OpenFOAM: The Open Source CFD Toolbox
   \\    /   O peration     | Website:  https://openfoam.org
    \\  /    A nd           | Version:  9
     \\/     M anipulation  |
\*---------------------------------------------------------------------------*/
FoamFile
{
    format      ascii;
    class       volScalarField;
    location    "0.00085";
    object      overpressure;
}
// * * * * * * * * * * * * * * * * * * * * * * * * * * * * * * * * * * * * * //

dimensions      [1 -1 -2 0 0 0 0];

internalField   nonuniform List<scalar> 
8305
(
0.00233414
2.99825e-05
3.8273e-07
5.63159e-09
1.45519e-11
0.149849
7.90852
119.429
11.3392
0.00154475
0.00017023
0.00552552
0.000353952
2.47893e-05
2.28059e-06
3.70317e-07
3.11848e-08
4.61296e-09
3.7835e-10
4.74659e-06
6.56728e-08
8.58563e-10
4.1107e-05
6.38902e-07
8.57108e-09
1.62254e-07
2.21189e-09
0
0
7.31134e-05
2.99138e-06
4.4849e-08
5.67525e-10
0
595930
6.47852e-05
7.46276e-06
1.43147e-07
2.6339e-09
1.81668
0.00018535
8.34884e-06
1.32204e-07
1.94996e-09
0.0768954
8.02205e-05
1.22534e-06
2.00525e-08
2.61934e-10
0.000102396
6.4536e-06
1.25059e-07
1.99361e-09
0
0.00120293
1.26879e-05
2.66722e-07
4.65661e-09
4.36557e-11
0
9.83114e-06
2.72528e-07
5.6898e-09
4.36557e-11
0
0
4.48199e-09
4.36557e-11
0
0
0
1.45519e-11
0
0
0
0
0
0
0
0
0
0
0
0
0
0
0.0029459
5.72492e-05
8.04823e-07
1.32713e-08
30.4674
0.000162416
2.23347e-06
3.50556e-08
0.000489886
3.2708e-05
8.2927e-07
1.57161e-08
0.00110533
6.83358e-05
1.77516e-06
3.40951e-08
137.573
0.000190838
9.95336e-06
1.99288e-07
3.07045e-09
3806.03
0.000301648
1.96111e-05
4.32643e-07
7.10133e-09
0.00103558
2.39225e-05
5.52332e-07
1.12632e-08
1.45519e-10
0.007107
6.08937e-05
1.22977e-06
2.54222e-08
4.07454e-10
0.0480255
4.58888e-05
1.0707e-06
2.41853e-08
4.65661e-10
0
0.0817377
0.000119024
2.4187e-06
5.39876e-08
1.04774e-09
0
3.352e-05
1.1137e-06
3.00206e-08
6.1118e-10
0
0
7.2e-05
2.39833e-06
6.56437e-08
1.42609e-09
0
0
6.84289e-07
2.40398e-08
5.82077e-10
0
0
0
1.37347e-06
5.12082e-08
1.42609e-09
0
0
0
1.23255e-08
3.7835e-10
0
0
0
0
2.54659e-08
9.02219e-10
0
0
0
0
1.45519e-10
0
0
0
0
0
3.63798e-10
0
0
0
0
0
0
0
0
0
0
0
0
0
0
0
0
0
0.0129721
0.0216471
1.0387e-05
1.8481e-05
2.19661e-07
3.52156e-09
0
4.08327e-07
7.04313e-09
2.91038e-11
24.2113
0.055725
0.761836
0.757463
24.0824
127.768
0.0576763
0.0324051
4.71184
28.9428
0.532862
17.3444
109.901
0.0422432
736.511
0.00270462
2.18436e-05
3.23504e-07
4.03088e-09
1.0856e-06
1.48138e-08
0.0196139
0.00016157
2.19425e-06
3.26836e-08
4.65661e-10
0.000113961
1.06976e-05
2.3465e-07
3.98722e-09
0
826.372
868.989
0.00252825
0.00467594
2.47932e-05
3.21054e-05
3.68091e-07
5.48214e-07
4.5693e-09
7.72707e-09
942.663
0.00620412
0.0059765
6.42795e-05
6.22927e-05
1.09937e-06
1.61381e-08
0
0
0
0
0
0
0
0
0
0
0
0
0
0
1.45519e-11
0
0
0
0
0
0
0
0
0
8.58563e-10
4.45289e-09
5.15138e-09
1.22236e-09
2.91038e-11
0
0
0
0
0
0
0
2.93294e-07
3.40937e-07
8.99454e-08
6.28643e-09
4.22006e-10
0
0
0
0
0
0
1.47161e-05
1.71214e-05
5.1051e-06
4.67378e-07
3.65544e-08
1.30967e-09
0
0
0
0
0
0.00830896
0.000621326
0.00015827
4.18367e-05
2.42962e-06
9.19827e-08
2.06637e-09
0
0
0
0
39114.2
1.78185
0.204711
0.00771436
8.19619e-05
5.06526e-06
1.27286e-07
2.37196e-09
0
0
0
1.38838e+06
1.34135e+06
1.62396e+06
1.5698e+06
0.100383
0.000183664
5.44816e-06
1.1074e-07
1.76078e-09
0
0
70.4888
0.00012446
3.3893e-06
5.84114e-08
8.29459e-10
0
0
0
0
0
0
0
0
0
0
0
0
0
0
0
0
0
0
0
0
0
0
0
0
0
6.8394e-10
2.43017e-09
2.61934e-09
6.98492e-10
0
0
0
0
0
0
0
0
1.31564e-07
1.43729e-07
3.64234e-08
4.26371e-09
2.61934e-10
0
0
0
0
0
0
7.43114e-06
8.12038e-06
1.77906e-06
2.26195e-07
1.7375e-08
6.98492e-10
0
0
0
0
0
0.000460019
0.000504187
9.93988e-05
9.40516e-06
8.81832e-07
4.31173e-08
1.25146e-09
0
0
0
0
13.5199
0.0370223
0.00741251
0.000258345
3.94593e-05
2.07975e-06
6.1118e-08
1.35333e-09
0
0
0
509.904
1.0223e+06
457537
2170.23
0.00298114
9.23562e-05
2.41505e-06
5.53555e-08
1.01863e-09
0
0
0.124867
7.00384e-05
1.58991e-06
3.11265e-08
4.80213e-10
0
0
0
0
0
0
0
0
0
0
0
0
0
0
0
0
0
0
0
0
0
0
0
0
0
1.01863e-10
7.42148e-10
5.82077e-10
1.45519e-10
0
0
0
0
0
0
0
0
3.93629e-08
3.11848e-08
8.7748e-09
8.58563e-10
0
0
0
0
0
0
0
2.0117e-06
1.57418e-06
3.77549e-07
5.72909e-08
3.84171e-09
1.16415e-10
0
0
0
0
0
0.000113625
9.24023e-05
1.58654e-05
3.5406e-06
2.32016e-07
9.4733e-09
1.74623e-10
0
0
0
0
0.870051
0.00940957
0.00213305
0.000100381
1.13375e-05
5.35438e-07
1.37952e-08
2.18279e-10
0
0
0
32.0509
568709
34520.3
749.774
0.000395355
2.33313e-05
6.39353e-07
1.2602e-08
1.89175e-10
0
0
0.00337218
2.10803e-05
4.44503e-07
7.33417e-09
8.73115e-11
0
0
0
0
0
0
0
0
0
0
0
0
0
0
0
0
0
0
0
0
0
0
0
0
0
0
0
0
0
0
0
0
0
0
0
0
0
3.33239e-09
3.28873e-09
8.00355e-10
4.36557e-11
0
0
0
0
0
0
0
2.15645e-07
1.93337e-07
4.36412e-08
4.99131e-09
2.76486e-10
0
0
0
0
0
0
1.58504e-05
1.03917e-05
2.41298e-06
2.65587e-07
2.01399e-08
6.98492e-10
0
0
0
0
0
0.0019966
0.00024798
0.000163068
1.1425e-05
1.04289e-06
3.84462e-08
9.60426e-10
0
0
0
0
283.251
1315.78
114.518
0.00107609
4.91564e-05
1.708e-06
4.29281e-08
8.44011e-10
0
0
0
6.96684e-05
1.47753e-06
2.9715e-08
5.09317e-10
0
0
0
0
0
0
0
0
0
0
0
0
0
0
0
0
0
0
0
0
0
0
0
0
0
0
0
0
0
0
0
0
0
0
0
0
0
0
7.27596e-11
7.27596e-11
0
0
0
0
0
0
0
0
0
7.47968e-09
7.6252e-09
1.70257e-09
1.45519e-10
0
0
0
0
0
0
0
4.53962e-07
4.34695e-07
9.04693e-08
1.05356e-08
6.1118e-10
0
0
0
0
0
0
2.57216e-05
2.2724e-05
5.45155e-06
4.93441e-07
3.44153e-08
1.17871e-09
0
0
0
0
0
0.000457873
0.00740654
0.000203649
1.96135e-05
1.47092e-06
5.22559e-08
1.25146e-09
0
0
0
0
0.000169126
5.98507e-05
1.79494e-06
4.55329e-08
9.16771e-10
0
0
0
0
0
0
0
0
0
0
0
0
0
0
0
0
0
0
0
0
0
0
0
0
0
0
0
0
0
0
0
0
0
0
0
0
0
0
0
0
0
0
0
0
0
0
0
0
0
0
0
0
1.16415e-10
1.45519e-10
0
0
0
0
0
0
0
0
0
1.84809e-09
9.31323e-09
9.54606e-09
2.15368e-09
2.32831e-10
0
0
0
0
0
0
0
8.26112e-08
4.65981e-07
4.61878e-07
9.6712e-08
1.19471e-08
7.567e-10
0
0
0
0
0
0
1.97961e-05
1.98123e-05
4.53657e-06
4.58254e-07
3.18396e-08
1.13505e-09
0
0
0
0
0
1.21199e-05
1.02326e-06
3.78059e-08
9.60426e-10
0
0
0
0
0
0
0
0
0
0
0
0
0
0
0
0
0
0
0
0
0
0
0
0
0
0
0
0
0
0
0
0
0
0
0
0
0
0
0
0
0
0
0
0
0
0
0
0
0
0
0
0
0
0
0
0
0
0
0
0
0
0
0
0
0
1.16415e-10
1.45519e-10
0
0
0
0
0
0
0
0
0
1.57161e-09
7.55244e-09
7.87259e-09
1.8772e-09
1.89175e-10
0
0
0
0
0
0
0
2.86047e-07
2.91344e-07
6.34464e-08
8.67294e-09
5.67525e-10
0
0
0
0
0
0
2.41373e-07
1.77533e-08
6.1118e-10
0
0
0
0
0
0
0
0
0
0
0
0
0
0
0
0
0
0
0
0
0
0
0
0
0
0
0
0
0
0
0
0
0
0
0
0
0
0
0
0
0
0
0
0
0
0
0
0
0
0
0
0
0
0
0
0
0
0
0
0
0
0
0
0
0
0
0
0
0
0
0
0
0
0
0
0
0
0
8.73115e-11
7.27596e-11
0
0
0
0
0
0
0
0
0
3.97267e-09
4.2055e-09
1.06229e-09
1.01863e-10
0
0
0
0
0
0
0
3.84171e-09
2.32831e-10
0
0
0
0
0
0
0
0
0
0
0
0
0
0
0
0
0
0
0
0
0
0
0
0
0
0
0
0
0
0
0
0
0
0
0
0
0
0
0
0
0
0
0
0
0
0
0
0
0
0
0
0
0
0
0
0
0
0
0
0
0
0
0
0
0
0
0
0
0
0
0
0
0
0
0
0
0
0
0
0
0
0
0
0
0
0
0
0
0
0
0
0
0
0
0
0
0
0
0
0
0
0
0
0
0
0
0
0
0
0
0
0
0
0
0
0
0
0
0
0
0
0
0
0
0
0
0
0
0
0
0
0
0
0
0
0
0
0
0
0
0
0
0
0
0
0
0
0
0
0
0
0
0
0
0
0
0
0
0
0
0
0
0
0
0
0
0
0
0
0
0
0
0
0
0
0
0
0
0
0
0
0
0
0
0
0
0
0
0
0
0
0
0
0
0
0
0
0
0
0
0
0
0
0
0
0
0
0
0
0
0
0
0.0249272
0.145027
0.00396425
0.00108477
0.000286341
0.000108525
1.34496
7.50409e-06
7.73875e-06
1.51894e-06
6.83733e-05
9.07603e-08
9.44128e-08
2.36469e-08
9.89166e-07
1.22236e-09
1.26602e-09
3.34694e-10
1.56724e-08
0
0
0
1.89175e-10
688.447
4.85096e-05
1.51462e-06
0.0480083
1.95097e-05
4.64206e-07
0.00388007
7.00825e-06
1.31389e-07
2.58048e-05
5.72778e-07
1.06375e-08
3.92312e-05
9.53951e-07
2.0591e-08
3.34694e-10
7.71761e-07
2.13768e-08
4.65661e-10
0
1.36206e-08
3.34694e-10
0
0
1.30967e-10
0
0
0
0
0
0
0
0
0
0
0
0.332819
0.00503622
0.0262461
0.000397858
1.64771e-05
232.768
0.0541461
7.26075e-05
1.7915e-05
3.30487e-06
3.1403e-07
0.00231197
0.000510652
1.03924e-06
2.90282e-07
5.9139e-08
4.91855e-09
1.70984e-05
1.7147e-05
1.63127e-08
5.09317e-09
8.00355e-10
0
2.26079e-07
2.23488e-07
2.03727e-10
0
0
0
2.75031e-09
2.6921e-09
3.47695e-06
5.521e-08
9.02219e-10
0
0
9.65405e-05
1.30814e-06
2.13331e-08
3.34694e-10
0
0.000421728
1.6987e-05
2.90849e-07
5.09317e-09
0
10.8551
0.000336328
5.65514e-06
6.26023e-08
7.71252e-10
1.81462e-08
1.89175e-10
8.90577e-09
1.01863e-10
2.05182e-09
0
1.16415e-10
0
0
0
0
0
0
0
0
0
0
0
0
0
3.74564
0.000279184
5.92154e-06
6.42322e-08
7.27596e-10
1109.91
0.0840652
0.00688593
0.00109219
6.04128e-05
5.72209e-05
1.10555e-06
1.05472e-06
1.56579e-08
1.50612e-08
1092.91
32.8567
0.00791844
0.00987926
8.74757e-05
9.23466e-05
1.65767e-06
1.77421e-06
2.51166e-08
2.70229e-08
1.43182e+06
1.29218e+06
1.48542e+06
990776
697986
26505.9
8640.9
1.13613e+06
523104
667263
2357.47
744.491
336.641
95.7718
0
6.54836e-10
4.48636e-08
2.91684e-06
0.0002198
0
7.27596e-10
4.52419e-08
2.42346e-06
0.00010041
0
1.01863e-10
8.7166e-09
5.04893e-07
2.26108e-05
0.0253518
428828
0.0379373
9148.65
0.00454562
14.4538
0
0
0
0
0
0
0
0
0
0
0
0
0
0
0
0
0
0
0
0
0
0
0
0
0
0
0
0
0
0
0
0
0
0
0
0
0
0
0
0
0
0
0
0
0
0
0
0
0
0
0
0
0
0
0
0
0
0
0
1.92085e-09
0
0
0
0
0
0
0
0
2.09548e-09
1.26398e-07
0
0
0
0
0
0
0
1.44064e-09
1.06898e-07
6.23261e-06
0
0
0
0
0
0
0
0
0
0
0
0
0
0
0
0
0
0
0
0
0
0
0
0
0
0
0
0
0
0
0
0
0
0
0
0
0
0
0
0
0
0
0
0
0
0
0
0
0
0
0
0
0
0
0
0
0
0
0
1.01863e-09
0
0
0
0
0
0
0
0
1.1205e-09
5.05388e-08
0
0
0
0
0
0
0
8.14907e-10
4.47908e-08
1.94566e-06
0
0
0
0
0
0
0
0
0
0
0
0
0
0
0
0
0
0
0
0
0
0
0
0
0
0
0
0
0
0
0
0
0
0
0
0
0
0
0
0
0
0
0
0
0
0
0
0
0
0
0
0
0
0
0
0
0
0
0
1.45519e-10
0
0
0
0
0
0
0
0
1.60071e-10
9.79344e-09
0
0
0
0
0
0
0
8.73115e-11
8.96398e-09
4.70958e-07
0
0
0
0
0
0
0
0
0
0
0
0
0
0
0
0
0
0
0
0
0
0
0
0
0
0
0
0
0
0
0
0
0
0
0
0
0
0
0
0
0
0
0
0
0
0
0
0
0
0
0
0
0
0
0
0
0
0
0
0
0
0
0
0
0
0
0
0
0
6.98492e-10
0
0
0
0
0
0
0
0
6.54836e-10
3.51429e-08
0
0
0
0
0
0
0
0
0
0
0
0
0
0
0
0
0
0
0
0
0
0
0
0
0
0
0
0
0
0
0
0
0
0
0
0
0
0
0
0
0
0
0
0
0
0
0
0
0
0
0
0
0
0
0
0
0
0
0
0
0
0
0
0
0
0
0
0
0
0
0
0
0
0
0
0
0
0
0
9.60426e-10
0
0
0
0
0
0
0
0
0
0
0
0
0
0
0
0
0
0
0
0
0
0
0
0
0
0
0
0
0
0
0
0
0
0
0
0
0
0
0
0
0
0
0
0
0
0
0
0
0
0
0
0
0
0
0
0
0
0
0
0
0
0
0
0
0
0
0
0
0
0
0
0
0
0
0
0
0
0
0
0
0
0
0
0
0
0
0
0
0
0
0
0
0
0
0
0
0
0
0
0
0
0
0
0
0
0
0
0
0
0
0
0
0
0
0
0
0
0
0
0
0
0
0
0
0
0
0
0
0
0
0
0
0
0
0
0
0
0
0
0
0
0
0
0
0
0
0
0
0
0
0
0
0
0
0
0
0
0
0
0
0
0
0
0
0
0
0
0
0
0
0
0
0
0
0
0
0
0
0
0
0
0
0
0
0
0
0
0
0
0
0
0
0
0
0
0
0
0
0
0
0
0
0
0
0
0
0
0
0
0
0
0
0
0
0
0
0
0
0
0
0
0
0
0
0
0
0
0
0
0
0
0
0
0
0
0
0
0
0
0
0
0
0
0
0
0
0
0
0
0
0
0
0
0
0
0
0
0
0
0
0
0
0
0
0
0
0
0
0
0
0
0
0
0
0
0
0
0
0
0
0
0
0
0
0
0
0
0
0
0
0
0
0
0
0
0
0
0
0
0
0
0
0
0
0
0
0
0
0
0
0
0
0
0
0
0
0
0
0
0
0
0
0
0
0
0
0
0
0
0
0
0
0
0
0
0
0
0
0
0
0
0
0
0
0
0
0
0
0
0
0
0
0
0
0
0
0
0
0
0
0
0
0
0
0
0
0
0
0
0
0
0
0
0
0
0
0
0
0
0
0
0
0
0
0
0
0
0
0
0
0
0
0
0
0
0
0
0
0
0
0.0199911
1.72951e+06
0.00131799
143244
0.000252956
0.0793996
5.60895e-05
0.00162789
1.51848e-06
4.59741e-05
0.000555018
3.09266e-05
3.10247e-08
8.87187e-07
1.11454e-05
6.58969e-07
1.51853e-05
9.48104e-05
5.09317e-10
1.48138e-08
2.09708e-07
1.14087e-08
2.84621e-07
3.13268e-06
0
1.30967e-10
3.15777e-09
1.16415e-10
4.29281e-09
5.32309e-08
0
0
0
0
0
7.42148e-10
0
0
0
0
0
0
0
0
0
0
0
0
0
0
4.36557e-11
0
3.7835e-10
5.51518e-09
1.17871e-09
3.37459e-08
3.90835e-07
9.20554e-08
2.57198e-06
3.37926e-05
5.89933e-06
6.08796e-05
0.0058725
0.000216979
0.30887
210279
0
0
0
0
0
0
0
0
0
0
2.32831e-10
4.1473e-09
6.40284e-10
1.67784e-08
2.36672e-07
3.74275e-08
8.74905e-07
1.15033e-05
1.74463e-06
3.69844e-05
0.000286465
6.8485e-05
0.0203707
1005.14
0
0
0
0
0
0
0
0
0
0
0
8.14907e-10
7.27596e-11
3.21597e-09
5.45842e-08
7.07223e-09
1.929e-07
3.85355e-06
4.05897e-07
1.00583e-05
0.000121213
1.8725e-05
0.000162471
0.903793
0
0
0
0
0
0
0
0
0
0
0
1.45519e-11
0
2.61934e-10
4.11819e-09
5.52973e-10
1.69384e-08
2.32889e-07
3.17232e-08
9.34917e-07
1.07258e-05
1.48114e-06
4.25553e-05
0.0164623
0
0
0
0
0
0
0
0
0
0
0
0
0
0
8.73115e-11
0
5.23869e-10
8.55653e-09
9.02219e-10
2.85218e-08
4.25236e-07
4.28408e-08
1.27581e-06
1.71566e-05
0
0
0
0
0
0
0
0
0
0
0
0
0
0
0
0
0
1.30967e-10
0
5.67525e-10
9.64792e-09
8.44011e-10
2.63681e-08
3.94124e-07
0
0
0
0
0
0
0
0
0
0
0
0
0
0
0
0
0
0
0
0
1.16415e-10
0
4.07454e-10
7.07223e-09
0
0
0
0
0
0
0
0
0
0
0
0
0
0
0
0
0
0
0
0
0
0
0
8.73115e-11
0
0
0
0
0
0
0
0
0
0
0
0
0
0
0
0
0
0
0
0
0
0
0
0
0
0
0
0
0
0
0
0
0
0
0
0
0
0
0
0
0
0
0
0
0
0
0
0
0
0
0
0
0
0
5.38421e-10
2.93949e-08
1.40381e-06
0
0
0
0
0
0
6.54836e-10
5.14701e-08
3.39551e-06
0.000775333
0
0
0
0
0
1.45519e-10
1.38243e-08
1.13626e-06
8.29611e-05
634.179
0
0
0
0
0
3.0268e-09
1.78028e-07
9.78138e-06
0
0
0
0
2.18279e-10
1.69384e-08
1.11465e-06
8.3345e-05
0
0
0
0
0
0
0
0
3.63798e-10
2.53203e-08
1.28988e-06
5.37346e-05
0
0
0
0
0
1.01863e-10
8.25094e-09
4.53758e-07
2.02199e-05
0.0231317
0
0
0
0
0
1.74623e-09
1.13112e-07
7.61436e-06
0
0
0
0
2.32831e-10
1.78406e-08
1.00209e-06
4.31064e-05
0
0
0
0
0
0
0
0
2.91038e-11
5.18048e-09
3.26705e-07
1.67531e-05
0
0
0
0
0
0
1.68802e-09
1.0716e-07
6.10533e-06
0.00260229
0
0
0
0
0
3.0559e-10
1.91649e-08
1.13869e-06
0
0
0
0
0
3.30328e-09
2.04571e-07
1.02274e-05
0
0
0
0
0
0
0
0
0
3.34694e-10
2.39961e-08
1.25561e-06
0
0
0
0
0
0
1.01863e-10
8.64384e-09
4.86689e-07
2.18681e-05
0
0
0
0
0
0
1.67347e-09
1.00641e-07
0
0
0
0
0
1.74623e-10
1.17143e-08
5.69475e-07
0
0
0
0
0
0
0
0
0
0
6.98492e-10
3.70055e-08
0
0
0
0
0
0
0
2.61934e-10
1.66765e-08
8.01083e-07
0
0
0
0
0
0
1.45519e-11
3.75439e-09
0
0
0
0
0
0
4.65661e-10
2.42289e-08
0
0
0
0
0
0
1.23691e-09
6.05505e-08
0
0
0
0
0
0
0
0
0
6.98492e-10
0
0
0
0
0
0
0
0
2.76486e-10
1.75351e-08
0
0
0
0
0
0
0
2.91038e-11
0
0
0
0
0
0
0
6.25732e-10
0
0
0
0
0
0
0
1.64437e-09
0
0
0
0
0
0
0
0
0
0
0
0
0
0
0
0
0
0
0
2.18279e-10
0
0
0
0
0
0
0
0
0
0
0
0
0
0
0
0
0
0
0
0
0
0
0
0
0
0
0
0
0
0
0
0
0
0
0
0
0
0
0
0
0
0
0
0
0
0
0
0
0
0
0
0
0
0
0
0
0
0
0
0
0
0
0
0
0
0
0
0
0
0
0
0
0
0
0
0
0
0
0
0
0
0
0
0
0
0
0
0
0
0
0
0
0
0
0
0
0
0
0
0
0
0
0
0
0
0
0
0
0
0
0
0
0
0
0
0
0
0
0
0
0
0
0
0
0
0
0
0
0
0
0
0
0
0
0
0
0
0
0
0
0
0
0
0
0
0
0
0
0
0
0
0
0
0
0
0
0.000893714
7484.78
0.00248229
6.78887
0.000263974
0.861805
0.000868938
0.851767
7.39641e-05
0.0482366
0.00024232
0.0763602
5.10221e-06
0.00038705
2.48106e-05
0.002419
2.12822e-07
9.92211e-06
1.06743e-06
4.6443e-05
2.64513e-06
0.000118997
4.70027e-09
2.23721e-07
2.98314e-08
1.09756e-06
7.3167e-08
2.62384e-06
2.91038e-11
3.75439e-09
5.82077e-10
2.38215e-08
1.58616e-09
5.732e-08
0
0
0
3.7835e-10
0
1.03319e-09
0
0
0
0
0
0
0
0
0
0
0
0
0.0303953
0.000349574
4.75088e-06
7.05768e-08
1.01863e-09
0.000133522
0.932768
1.68022
8.42904e-06
9.27742e-05
2.46215
3.21731e-05
0.0157201
50.3026
7.5339e-05
0.00213033
1.40426e-07
3.40467e-06
2.85049e-05
6.70989e-07
1.06254e-05
0.000207391
1.51429e-06
2.09612e-05
2.02272e-09
4.62751e-08
4.25513e-07
1.23255e-08
2.23503e-07
2.69743e-06
2.86964e-08
4.65981e-07
0
5.96629e-10
7.02858e-09
1.30967e-10
3.68163e-09
3.65253e-08
4.36557e-10
8.11997e-09
0
0
2.91038e-11
0
0
4.80213e-10
0
8.73115e-11
6.62546e-05
0.00605632
5.63741e-08
2.67287e-06
0.00149455
14313.3
3.40951e-08
1.56682e-06
8.30174e-05
4.60064
8.41101e-09
3.522e-07
1.35233e-05
0.203839
6.98492e-10
3.74566e-08
2.02154e-06
0.000130887
0
1.46974e-09
7.70087e-08
4.18864e-06
1.45558e+06
182.645
10.7966
0.530152
0.000294919
0.00377462
638709
5707.53
1.41187e+06
1.29687e+06
1.48209e+06
990226
25220.2
974157
83.0418
512700
650517
1.13079e+06
2267.8
334.322
1258.81
1.26325
0.119325
1199.44
0.13939
0.155592
1400.07
534.432
0.419253
1.05098
0.501817
15.2993
1113.64
0.146984
1.37599e+06
1.39667e+06
1.37241e+06
470425
14324.1
3561.86
48.9608
906034
145636
493844
302.4
4.04056
35.8644
0.444933
643.426
0.102948
0.0753577
0.0870816
665.391
0.138761
1382.75
0.373124
646.791
12.0485
0.129228
1307.68
0.810585
24.8967
1122.96
1.10409
0.136592
0.143274
1320.1
1.10024
32.8258
208266
0.137554
4435.79
374875
15846.4
135.132
0.600065
0.930698
0.046609
357.28
986.311
390.872
0.0472399
0.0884464
159107
493926
99865.9
135.44
35.8019
0.598654
0.143306
401808
2050.06
1.1826e+06
8904.5
21.7698
1.63557e+06
580488
358524
28.3368
195671
1.70203
26718.4
8707.61
0.24338
0.744652
0.0496265
300.284
400.189
0.151722
0.953207
0.0464063
311.635
0.0500824
61.0559
0.0337405
287.62
0.0877185
0.0538554
1.39633e+06
1.29156e+06
1.39774e+06
1.60111e+06
1.52098e+06
1.60536e+06
1.51812e+06
3460.9
13.4131
1.55773e+06
11.4544
3127.36
1.56343e+06
398971
1.30983e+06
1.40147e+06
1.4165e+06
1.52353e+06
1.60837e+06
1.61305e+06
1.53252e+06
1.10835e+06
854444
833226
614853
382234
352060
573067
1.49305e+06
1.33992e+06
1.44677e+06
1.62636e+06
1.60852e+06
1.6397e+06
1.5626e+06
1.44411e+06
1.30607e+06
1.41184e+06
1.604e+06
1.56485e+06
1.61225e+06
1.53173e+06
115850
1769.52
16.0339
13.258
0.155541
0.0626915
0.0197209
1.47716e+06
1.56549e+06
1.56361e+06
1.56363e+06
1.16217e+06
1.57694e+06
1.1415e+06
1.12352e+06
855887
839954
362833
622408
598827
384999
745380
648355
727845
276280
217155
296864
197776
26578.5
1.58076
0.328148
1.40821
0.319402
63187.3
8880.27
1853.36
1.53597e+06
309474
1.08223e+06
25235.1
86.4296
0.311019
1.47032e+06
1.56751e+06
1.57502e+06
1.15479e+06
1.57501e+06
1.56002e+06
1.11841e+06
668872
746520
728487
216793
295705
270775
195572
8.01601
0.0531588
0.0550309
389.81
0.0225809
0.0333889
19.1566
0.177607
382.608
6.6946
0.024144
8.9319
0.0324065
19.2515
27167.3
0.0504248
3942.65
734.373
8.65116
0.0854046
0.013564
1.08817e+06
726661
799587
304298
412511
529368
213015
1.46012e+06
1.58517e+06
1.56909e+06
1.53697e+06
981060
1.4895e+06
1.08417e+06
0.207903
39724.1
5858.89
260.246
1925.63
0.0562142
0.025785
1.61656e+06
1.45134e+06
1.59299e+06
1.53069e+06
910148
1.04078e+06
1.46994e+06
699010
1.06128e+06
785111
282964
345590
482020
183635
1.49422e+06
1.46992e+06
1.5589e+06
1.60289e+06
1.60587e+06
1.54894e+06
1.61129e+06
1.06514e+06
2209.7
1.61854
180267
7.04865
0.0157174
488.104
611783
602564
686353
224317
95957.4
149229
154384
823704
32936.1
58.3343
0.0174538
5.34659
383092
801.105
1.55365e+06
1.54011e+06
1.62226e+06
1.64902e+06
1.62656e+06
1.5522e+06
1.64334e+06
597888
601188
682888
212580
86638.4
148913
132489
4279.6
0.0282363
11.6933
0.10794
0.114292
12.5971
0.0297453
401315
546253
373871
124338
109674
37760.8
31282.1
0.872629
0.00331075
0.0139302
2.39763
0.0654889
0.0096886
4.74277
938.83
0.121826
0.0332243
0.118802
0.0329721
3764.17
14.1356
1.44097e+06
1268.61
2.9729
112111
181.767
0.832498
0.00720388
1.60335e+06
1.6005e+06
1.25818e+06
817327
1.39837e+06
1.23858e+06
582056
548699
570436
402651
124385
108882
31049.5
37819.9
55919.3
3156.96
19840.9
0.00651142
0.0645759
15.3822
0.0885885
1267.05
0.371538
0.0188876
0.00682267
0.0793871
8.05254
0.0268289
131.283
0.368948
0.0316685
1.74011
157996
0.0451543
608.019
0.516728
159909
52203.9
0.0461899
0.0457785
637.843
203.408
1.55973e+06
1.60879e+06
1.61704e+06
1.39771e+06
1.31017e+06
1.10818e+06
1.532e+06
0.0126283
0.00385199
0.649148
82.2243
7.71888
0.0362784
0.0103795
1.46163e+06
1.57361e+06
955951
748651
711336
1.48424e+06
1.55687e+06
14.7052
0.00965675
0.0646667
716044
5774.32
19.5252
0.0860839
0.0265338
2388.21
8.45728
0.291698
97.4861
0.0271225
0.00610133
1.57542e+06
743707
1.4839e+06
1.45837e+06
943219
689617
1.56231e+06
607658
721333
433353
262736
114962
40265.4
118305
400852
326925
235545
40443.9
73572.7
22525.7
11777.6
312143
218186
403715
41029.3
78805.7
20100
9929
1.32965e+06
1.60726e+06
1.63043e+06
712243
1.35562e+06
1.16453e+06
452397
0.365556
0.0062654
0.0266142
0.38131
0.00643338
45.2248
0.0276368
7677.89
0.540848
0.0227871
24.1627
0.0712602
0.0169609
1.21327
1.41132e+06
1.47016e+06
862904
467371
618547
1.3183e+06
1.52713e+06
65.3328
0.00441378
0.525191
70.692
0.513843
0.0327768
0.00614822
1.40134e+06
1.46884e+06
404914
828333
573451
1.29084e+06
1.53455e+06
393678
309055
493049
36858.5
76022.1
19343.4
9068.41
1.66865e+06
1.68716e+06
1.63693e+06
1.36723e+06
1.27868e+06
1.0277e+06
1.54082e+06
559079
604412
828494
190503
86464.4
24390.3
68040.7
272454
460737
373331
31962
56041.3
14920.4
8519.68
1.46327e+06
1.57457e+06
1.48593e+06
752044
958543
714677
993441
1.46026e+06
1.57641e+06
1.48566e+06
747184
945990
692934
993040
0.00805983
0.27539
0.00383428
0.00240127
0.0677311
37.6428
0.0181238
52.5143
0.00234036
0.376059
0.0861469
0.0586787
0.0095266
0.00282828
2.79216
0.212895
7238.79
0.0216169
0.015554
28.2615
1.0776
3156.94
0.221464
0.04645
0.451312
7.62076
0.0251087
0.0102349
0.359033
0.0224687
17.802
0.0104686
0.00475591
0.0673715
0.0026016
1.40356e+06
1.4706e+06
1.29322e+06
831099
576444
407462
641396
0.380879
116.204
28.0294
0.00914165
0.00557838
0.0281137
0.030572
0.0310499
20204.3
297.568
0.0233927
0.0107978
80.4278
1.07017
1.09066e+06
451711
300486
23255.3
275614
1.11885e+06
425831
1.74292e+06
1.69196e+06
1.55844e+06
1.54414e+06
1.34372e+06
678569
982584
45.8076
0.128092
0.0303603
0.0458535
0.00655616
179.115
0.48022
441601
293324
1.11256e+06
1.06781e+06
19867.4
253486
395761
1.53888e+06
1.06234e+06
751160
981576
93322.8
608009
308362
1.34966e+06
283794
1.15776e+06
908780
238166
119394
1.13171e+06
1.32606e+06
220700
1.10373e+06
819476
182581
77836.4
1.07969e+06
104802
101457
247726
12548.7
3209.82
3431.9
777.918
1.45872e+06
1.30038e+06
1.09225e+06
910168
659691
208203
380202
0.0163702
2.37565
0.00961601
0.035115
61.7765
0.017926
9.91933
0.0211553
64.0753
19.8748
0.018148
0.0106539
9.98188
2.73632
218307
57606.2
183369
9278.51
6069.21
31508.5
1692.64
1.87618
0.0285478
0.00540933
0.405823
0.0073843
0.000719959
0.0381663
1066.11
0.0402208
0.0900163
0.136951
0.00532716
0.115377
0.00747093
681.602
0.137308
0.096183
0.0592826
0.0435209
0.00605932
0.00562896
0.00374
205.427
0.0758094
0.14339
660.498
0.0585696
0.00638211
805.687
0.0273812
0.0597195
246.302
0.00648805
0.00391402
0.0813954
37.8219
1200.32
1196.02
1312.49
46.5903
41.7664
42.2619
1.01653e+06
251410
131948
16172.7
215332
884403
357984
26511.7
79024.8
2070.39
923.377
70422.4
804.736
30520
1.09361e+06
455023
1.1219e+06
303363
23611.9
278194
26947.2
2702.29
0.0179415
6.07345
0.00114471
0.00572945
0.372868
0.0535919
0.11349
0.00405538
0.00704726
52.6545
409.443
0.0283027
0.0315277
971188
94651
189833
12090.9
179204
306601
810725
76186.1
902.918
29809.5
24463.4
1814.3
62353.9
742.215
1235.25
1390.09
1386.4
49.4225
42.6887
43.8277
49.3104
939793
1.30767e+06
1.51292e+06
865694
44100.9
466426
194585
1.07101e+06
444974
1.11573e+06
296085
20199.1
25642.2
256050
271594
130202
37006.9
15274.9
4620.43
3870.75
1060.93
1.32818e+06
822545
1.10646e+06
222511
183978
78686.2
404035
505.929
24.4774
570.248
18.5335
386.941
16.1925
12.0904
600.208
29.2784
950.711
651.619
32.202
21.2953
19.5078
15342.6
18348.4
219.175
1103.3
39113.2
466.319
7374.38
17983.1
26731.8
1423.48
284.97
50013.1
548.68
9407.3
16247
10637.7
589.672
289.208
513.166
18716.1
9168.75
80.8011
0.0240181
0.00558487
0.0194851
0.166101
0.00410538
0.000512458
10565.8
581.79
18438.2
15407.9
280.941
487.102
8929.61
1207.8
1316.96
1322.86
47.2349
42.8319
43.0881
46.704
1427.99
1386.42
1401.5
50.4318
50.3854
51.3918
49.501
566249
402170
72641.9
5996.58
30196.3
232051
801071
89001.5
15922.3
31741.9
5442.98
483.46
948.71
2865.42
1388.18
1253.96
1231.98
49.3243
49.2663
42.6091
43.7018
1191.43
1193.54
1086.02
46.4572
37.6311
41.579
42.1366
1173.42
1259.69
1173.58
42.2231
45.0132
42.2301
40.3797
1315.35
1205.37
1198.23
47.1539
46.663
42.8005
43.0186
139289
159855
19492.3
5032.82
598.419
6107.44
486.662
668.108
949.287
635.136
31.8834
33.3817
21.8185
20.5913
19396.2
139254
15918.4
595.433
6079.17
5052.35
489.593
144627
90240.3
319399
5140.63
2568.56
773.28
14983.7
71055.1
79839.7
30603.6
2090.77
2384.46
926.252
806.962
24612.5
77065.2
29938.7
1840.59
2296.86
907.084
746.93
974426
191992
814141
12285
181222
95832.5
5793.15
1.59989e+06
1.26289e+06
993646
813142
533696
129335
284133
4.91109
0.00199298
0.000247281
0.00688099
0.0986836
0.0103451
0.00239918
32.2118
745.666
24.9938
1068.46
879.992
37.2398
30.0893
5869.62
1337.55
7955.33
172.314
1006.5
233.253
37.8786
0.0153816
0.00443958
0.000388427
0.00061619
0.0290294
0.0057858
3.84642
1.55638
0.000447701
0.017711
0.000636689
0.0298187
0.00595518
3.87962
890.821
1304.94
1108.17
37.8024
45.6253
37.754
29.6948
941.874
30.7
883.902
1038.94
1089.25
38.8276
36.8762
11023.5
3255.24
175.69
193.015
346.191
5815.25
6272.42
16237
10595.3
18701.1
589.271
288.693
512.962
335.378
9935.09
144.564
2837.17
179.983
310.813
5885.68
4853.69
1109.98
966.936
949.925
39.5035
39.1749
32.8867
33.6617
133467
57000.5
681519
423922
1081.36
17378.3
47096.5
742.3
30.0047
877.234
1064.82
937.563
32.0608
37.1289
948.037
33.6334
966.169
1107.85
1112.78
39.4737
39.1078
47051.2
9747.07
97164.9
3125
129.301
295.876
1376.33
10153.1
4950.24
51923.8
3247.7
145.594
1529.83
309.326
35553.8
84512.4
580489
320103
564.518
9957.25
24874.9
460673
47386
3358.88
313867
153754
18047.4
713357
58637.6
15921.6
99393
3267.82
266.14
484.606
1781.79
15410.6
10511.4
18430.3
581.562
279.39
332.675
487.21
1.52495e+06
254332
1.05928e+06
113576
767563
187180
8357.33
0.830589
0.0503913
0.000846297
0.00446663
9.04037e-05
0.000509744
0.0245524
261733
136320
392627
34704.7
14638.4
3034.63
7338.33
713.044
22.4171
663.724
440.178
474.154
15.4939
14.2911
714.419
24.8695
733.429
472.827
487.508
15.9162
15.3442
544.29
416.934
644.127
27.3467
20.8316
17.3584
12.969
0.00387741
11243.3
0.591187
0.00613059
0.00103254
26.7433
0.0162807
31665
0.331824
0.0137504
0.706963
0.00611979
0.0220542
0.0015938
0.0350182
0.00760351
0.984669
0.0297392
0.00412337
0.00144972
0.000305882
0.0208738
1.15962
97.5731
0.000943108
0.000274579
0.0544693
0.00720127
0.00503081
0.000201328
0.00146743
0.0865404
18.7467
0.00892264
0.00238941
21.5404
0.022894
0.0503527
0.00106791
0.007086
0.000272884
0.00372696
0.0165205
0.000243207
0.000854747
73.8936
0.0434181
0.637429
0.00679066
473.39
487.527
15.8539
733.817
715.687
24.1206
24.8825
416.477
543.488
824.594
27.3048
12.9589
20.8128
17.3524
633.565
981.75
946.233
31.8359
21.809
20.6061
33.2938
594.602
943.884
861.65
29.0981
21.2151
19.3976
32.0399
384.44
18.4591
566.959
501.697
731.134
24.3389
16.1038
85664.4
322508
583625
36034.4
572.507
10082.6
2081.02
15475.2
18651
7451.9
1120.94
470.488
518.4
221.716
9954.33
2831.42
4876.31
179.188
311.489
145.358
82.9405
356379
75073.8
572766
14389.2
223173
31932.3
1691.18
463273
315777
155168
47870.2
18252.7
3397.93
8991.88
0.000992906
1.27579
0.177746
21.4741
0.0068422
0.125362
0.00175873
0.174949
0.014535
0.00339335
31.4179
0.0148808
0.195954
0.00363252
532.43
21.5086
646.508
421.87
340.738
13.5053
10.6739
0.00300387
7.79714
0.132045
0.00610844
0.00106079
0.976431
0.0486374
0.0039716
3.7343
0.982266
0.00148647
0.000674055
0.0609251
0.0250196
35.1452
0.00544743
0.0148437
0.00248272
0.000465689
0.182356
0.0354718
73.1028
0.332409
0.00400988
0.00395975
0.288812
0.0236672
65.8683
0.208586
0.00496078
0.00142944
0.381522
0.03036
20067.1
27.8186
0.0212126
6231.42
9.64699
0.00320738
0.0598272
0.00089433
0.00727207
934082
30774.1
413734
6260.88
131155
14745.8
673.558
1.22773
0.00354182
0.0117747
0.0194068
0.117532
0.00157225
0.000263334
0.0038248
0.000644593
0.0354621
0.00289998
0.00010809
0.0199568
0.000449568
0.0068972
0.769402
0.00476821
0.00174159
0.0626901
0.00080645
0.0310259
6805.68
76.2359
2707.04
706.463
49.0191
20.1221
1892.78
17.402
341.758
10.6609
13.4775
422.771
648.292
21.5617
11073.1
112.303
3921.43
1170
92.6677
3574.19
33.1117
1223.06
67.0758
2312.99
679.738
10.4871
19.931
361.09
4549.96
113.818
3856.49
33.2094
1135.63
940.863
27.6007
1231.51
73.7
2534.5
606.492
8.53542
17.7263
298.868
68936.3
1315.24
143689
4005.23
59941.2
1524.44
161381
67225.4
3930.39
1171.81
133265
1481.44
54047.9
159524
3331.13
5226.9
22052
95.5263
650.611
151.06
20.9338
753193
77277.9
505646
21901.8
4172.73
1550.78
57351.4
638163
11578.5
375005
40164.2
2267.96
769.69
112954
1.2197e+06
183761
933456
103718
12885.3
4466.08
248004
66344.5
131868
53349.1
1156.43
3881.52
1460.95
3088.18
142263
68049
59159
1297.34
3956.72
1503.49
3417.98
4394.12
900.828
1060.52
111.807
129.964
30.9749
26.3929
160.387
8.06791
265.595
12.5752
398.361
249.328
7.56988
15176.1
83348.5
32558.5
694.298
825.945
320.588
1832.71
0.00144218
44.2254
0.0618033
0.0015182
0.000159516
0.160032
0.00677182
0.00620501
0.0262009
0.000829807
0.00986978
3.73121
0.00158187
0.0613784
0.000480451
0.00280357
0.648336
7.81847e-05
0.000208235
0.00160893
0.00608249
24665.1
11389.1
1532.97
4540.12
735.583
307.214
45.4628
0.17269
0.0109303
39.0226
0.00390148
0.00124303
1.71726
0.0344152
179317
2225.21
781.265
261.623
4320.7
39257.3
11497
4540.72
112.084
3802.68
933.068
33.2674
27.3854
1136.86
176.134
385.164
189.746
11.9943
5.13597
11.0589
5.55737
368.397
190.769
177.507
12.1627
5.1597
11.3715
5.58311
108365
126.795
387.508
989.208
19645.2
2277.06
5698.93
49.5492
963.385
1698.99
455.075
7.49215
13.3479
259.368
12.6223
250.254
7.57347
266.937
161.075
8.09733
4.71549
455.642
172.219
287.461
8.65099
14.2723
8.65537
4.99535
18726.8
480.548
5358.86
51.1068
548.236
153.051
13.7429
702.589
84274.5
32957.9
15354.4
834.315
324.247
39521.7
368.077
190.53
177.654
12.1514
11.3795
5.1687
5.58223
354.015
188.634
174.568
11.9332
10.9737
5.09419
5.52938
345.193
1418.01
15343.2
40.8218
448.013
111.053
9.83664
106530
853.968
42787.3
5040.36
255.844
99.064
12596.3
3498.73
830.224
1031.71
102.378
126.473
30.156
24.3108
3845.93
4523.22
1127.97
113.626
134.752
32.9788
27.5384
4501.25
921.145
1124.31
111.017
134.003
32.8669
27.0193
635843
39842.5
373087
11472.4
2248.66
763.322
32633.7
101086
20903.8
40566.3
876.987
1123.88
448.34
2274.22
33146.5
3910.93
799.769
862.451
222.403
96.6527
22.4844
13117.9
438.681
805.515
223.958
413.197
25.2088
13.5836
253.1
130.583
273.949
8.48015
3.50079
7.78004
3.84324
134.024
271.104
281.292
8.70208
3.74056
8.33854
3.94017
238.641
82.9905
188.399
3.1754
7.22969
5.59447
2.37655
4277.81
220.027
431.623
63.0296
125.446
12.5924
6.33698
1102.74
70.1289
2413.3
583.304
7.72569
17.0753
270.9
103.143
311.624
146.147
6.87887
9.45205
4.1976
2.91947
0.0196224
8.0222e-05
0.00146931
0.212216
0.00476313
0.00236415
0.00016815
0.00139953
25.0388
0.0786367
0.00078604
0.0315839
0.000111779
0.00340432
145.994
225.983
105.424
4.21844
9.15455
6.73307
3.00961
145.936
103.08
232.829
4.1906
9.44778
6.87995
2.91787
224.408
297.663
104.606
144.652
9.08412