/*--------------------------------*- C++ -*----------------------------------*\
  =========                 |
  \\      /  F ield         | OpenFOAM: The Open Source CFD Toolbox
   \\    /   O peration     | Website:  https://openfoam.org
    \\  /    A nd           | Version:  9
     \\/     M anipulation  |
\*---------------------------------------------------------------------------*/
FoamFile
{
    format      ascii;
    class       volScalarField;
    location    "0.002";
    object      alpha.c4;
}
// * * * * * * * * * * * * * * * * * * * * * * * * * * * * * * * * * * * * * //

dimensions      [0 0 0 0 0 0 0];

internalField   nonuniform List<scalar> 
14814
(
4.68055e-06
2.35259e-16
1.06003e-16
2.65433e-18
5.6789e-20
1.19295e-15
4.41717e-17
8.1642e-19
1.60544e-15
5.10427e-05
2.61749e-14
2.76768e-14
2.40956e-13
7.67966e-16
1.68978e-15
2.18708e-11
1.73039e-14
8.44777e-15
1.08539e-15
3.74765e-12
7.97791e-14
1.77682e-14
7.07558e-06
2.77413e-09
3.61352e-06
1.51359e-07
4.70149e-09
1.09252e-05
1.83985e-13
2.0923e-05
5.42742e-05
2.35486e-05
2.21522e-06
7.18125e-06
2.43001e-06
7.12263e-06
7.34711e-13
2.32e-15
5.21682e-15
2.28542e-14
1.58984e-14
1.10927e-13
1.51617e-13
3.35196e-11
7.90971e-13
2.46549e-10
1.37882e-10
5.32013e-12
5.12676e-12
1.46591e-09
1.8547e-06
8.69891e-06
2.59871e-06
5.32584e-07
1.43514e-07
6.64803e-07
9.22527e-08
1.79318e-15
2.53464e-13
5.70227e-14
9.37818e-15
3.04346e-12
1.43456e-11
2.53528e-11
2.46177e-13
6.49257e-10
2.10759e-11
1.79389e-12
5.9662e-09
8.42648e-13
7.5071e-11
1.27093e-10
4.54487e-09
1.91187e-08
7.66146e-10
2.52966e-08
5.39957e-10
2.7727e-06
5.39632e-10
6.79789e-07
6.99214e-13
1.61291e-05
1.6603e-07
1.36458e-07
6.20479e-11
2.00318e-16
1.85499e-14
1.19989e-17
1.96282e-20
1.59505e-17
1.87998e-16
1.89144e-18
2.48195e-15
4.58168e-17
6.29756e-19
1.16033e-20
1.26823e-20
1.41833e-20
2.08774e-16
4.94241e-18
8.346e-20
1.13435e-21
9.06664e-23
9.96036e-23
7.8943e-18
1.73256e-19
3.12247e-21
4.95654e-23
1.14465e-24
6.66621e-25
2.10991e-19
4.64323e-21
8.80765e-23
1.51545e-24
2.6195e-26
4.4996e-27
4.40144e-21
9.9862e-23
1.99898e-24
3.65617e-26
6.24161e-28
3.49728e-29
7.67638e-23
1.8318e-24
3.88971e-26
7.51345e-28
1.32423e-29
3.693e-31
2.81485e-12
2.07043e-17
3.00699e-15
1.77683e-18
3.40641e-21
4.44552e-19
2.09533e-17
1.87951e-19
6.55061e-16
9.40494e-18
1.24866e-19
1.73895e-21
7.94952e-22
1.39217e-21
5.32069e-17
1.07935e-18
1.87681e-20
2.84349e-22
8.74806e-24
1.01127e-23
1.74665e-18
3.84593e-20
7.42136e-22
1.29078e-23
2.3016e-25
7.31705e-26
4.55707e-20
1.05152e-21
2.15775e-23
4.00014e-25
6.80187e-27
5.80075e-28
9.54358e-22
2.32015e-23
5.01935e-25
9.74735e-27
1.69874e-28
5.97328e-30
1.70216e-23
4.38895e-25
9.98482e-27
2.01812e-28
3.62733e-30
8.31853e-32
8.54275e-16
3.01323e-19
1.30728e-19
3.84525e-22
1.00544e-22
6.69798e-20
2.8666e-21
1.08556e-16
1.80469e-18
2.52187e-20
3.15046e-22
8.80676e-24
2.70384e-23
9.35342e-18
1.97078e-19
3.28448e-21
4.76271e-23
6.26972e-25
2.56133e-25
2.52496e-19
5.77181e-21
1.07545e-22
1.74873e-24
2.55172e-26
2.63526e-27
5.43072e-21
1.32095e-22
2.6827e-24
4.75528e-26
7.51191e-28
3.29283e-29
9.8693e-23
2.56007e-24
5.58516e-26
1.05827e-27
1.77461e-29
4.97129e-31
1.60344e-24
4.43348e-26
1.02731e-27
2.05346e-29
3.61046e-31
8.21409e-33
9.6109e-20
5.13027e-21
1.70125e-19
6.10693e-23
3.01515e-25
2.01723e-23
7.18916e-23
2.06053e-17
2.32462e-19
2.55412e-21
2.74581e-23
3.62992e-25
9.533e-25
7.64759e-19
1.63135e-20
2.60104e-22
3.60374e-24
4.29633e-26
1.30194e-26
1.89615e-20
4.24032e-22
7.75919e-24
1.23089e-25
1.73346e-27
1.86778e-28
3.75379e-22
9.10419e-24
1.83227e-25
3.19445e-27
4.94598e-29
2.83191e-30
6.40182e-24
1.68285e-25
3.66326e-27
6.87011e-29
1.13828e-30
4.42628e-32
9.94129e-26
2.80937e-27
6.53193e-29
1.29976e-30
2.27182e-32
6.97773e-34
1.21429e-11
2.88916e-17
1.44037e-20
1.95827e-22
3.52479e-22
1.7167e-14
3.60044e-17
6.2497e-21
4.80801e-24
6.70511e-25
5.54727e-24
2.83408e-17
2.64463e-19
2.23775e-21
1.80304e-23
1.77106e-25
8.53069e-26
5.3169e-19
7.08934e-21
1.00468e-22
1.11384e-24
1.01332e-26
1.31632e-27
8.21132e-21
1.31089e-22
1.8633e-24
2.3184e-26
2.59305e-28
1.99895e-29
1.09017e-22
2.01227e-24
3.13e-26
4.29231e-28
5.40274e-30
2.97502e-31
1.32827e-24
2.77155e-26
4.76911e-28
7.19262e-30
9.95172e-32
4.32111e-33
1.54489e-26
3.5812e-28
6.78017e-30
1.11803e-31
1.68175e-33
6.16468e-35
1.29221e-10
1.17105e-16
9.76303e-19
4.13474e-20
3.30318e-21
1.21411e-22
3.60091e-16
4.8354e-18
5.21893e-20
5.48811e-22
4.93747e-23
2.31706e-24
7.11868e-18
1.44726e-19
2.22106e-21
2.62118e-23
8.51653e-25
4.07503e-26
1.45975e-19
3.28469e-21
5.43977e-23
7.29728e-25
1.58904e-26
6.80266e-28
2.49442e-21
5.99126e-23
1.06054e-24
1.54429e-26
2.87431e-28
1.07871e-29
3.66712e-23
9.27578e-25
1.74527e-26
2.71945e-28
4.7993e-30
1.6162e-31
4.82886e-25
1.2742e-26
2.53097e-28
4.18651e-30
7.33273e-32
2.28492e-33
5.9353e-27
1.61982e-28
3.37469e-30
5.89369e-32
1.04698e-33
3.08938e-35
3.11559e-16
8.27529e-18
3.27172e-19
1.2373e-20
4.89773e-22
1.29229e-23
1.14303e-17
3.18337e-19
9.8414e-21
3.05502e-22
1.16098e-23
3.4592e-25
3.52547e-19
1.09301e-20
2.95272e-22
7.63235e-24
2.5204e-25
7.85259e-27
8.57403e-21
2.71495e-22
6.95722e-24
1.69975e-25
5.07994e-27
1.5771e-28
1.68638e-22
5.45133e-24
1.41011e-25
3.38728e-27
9.4724e-29
2.88126e-30
2.84257e-24
9.34446e-26
2.46845e-27
5.97894e-29
1.62597e-30
4.87062e-32
4.29231e-26
1.42585e-27
3.85181e-29
9.52198e-31
2.57366e-32
7.67594e-34
6.04833e-28
2.02045e-29
5.57924e-31
1.4168e-32
3.85301e-34
1.15144e-35
7.25759e-18
3.5765e-19
2.02859e-20
7.90544e-22
2.23729e-23
5.95533e-25
3.29077e-19
1.36095e-20
5.79761e-22
2.43012e-23
7.34019e-25
2.0205e-26
1.10576e-20
4.2719e-22
1.57436e-23
6.05503e-25
1.92995e-26
5.53575e-28
2.88167e-22
1.08825e-23
3.77767e-25
1.37092e-26
4.44112e-28
1.30728e-29
6.16203e-24
2.32793e-25
7.97293e-27
2.81982e-28
9.21995e-30
2.75544e-31
1.13742e-25
4.33671e-27
1.4991e-28
5.2915e-30
1.75343e-31
5.29747e-33
1.87972e-27
7.25519e-29
2.55912e-30
9.14303e-32
3.08675e-33
9.424e-35
2.88334e-29
1.12906e-30
4.08714e-32
1.48966e-33
5.1442e-35
1.58919e-36
1.82936e-19
1.03006e-20
5.13156e-22
2.04443e-23
6.5484e-25
1.86476e-26
8.24601e-21
4.08827e-22
1.85841e-23
7.62784e-25
2.48882e-26
7.17539e-28
2.81743e-22
1.29516e-23
5.53233e-25
2.24256e-26
7.50721e-28
2.21305e-29
7.68179e-24
3.415e-25
1.41401e-26
5.65556e-28
1.92744e-29
5.79544e-31
1.74978e-25
7.72202e-27
3.17382e-28
1.2638e-29
4.37005e-31
1.33526e-32
3.46331e-27
1.53855e-28
6.37445e-30
2.54906e-31
8.94145e-33
2.76955e-34
6.13183e-29
2.76353e-30
1.1646e-31
4.70444e-33
1.67507e-34
5.2537e-36
1.00392e-30
4.61649e-32
1.98957e-33
8.14831e-35
2.94698e-36
9.35475e-38
4.08709e-21
2.39671e-22
1.17249e-23
4.74733e-25
1.60442e-26
4.79365e-28
1.8529e-22
1.00523e-23
4.74057e-25
1.94371e-26
6.62709e-28
1.99337e-29
6.48232e-24
3.33608e-25
1.53358e-26
6.3122e-28
2.1848e-29
6.66012e-31
1.8409e-25
9.23944e-27
4.19631e-28
1.73141e-29
6.07567e-31
1.8781e-32
4.41506e-27
2.20529e-28
1.00192e-29
4.15384e-31
1.47588e-32
4.62115e-34
9.23906e-29
4.65187e-30
2.13346e-31
8.91333e-33
3.20487e-34
1.0154e-35
1.72934e-30
8.84826e-32
4.12e-33
1.73834e-34
6.3239e-36
2.02612e-37
2.98889e-32
1.56346e-33
7.41889e-35
3.16627e-36
1.16558e-37
3.77503e-39
5.92511e-15
2.82986e-17
3.08737e-15
2.81335e-17
2.26804e-18
1.4559e-20
1.61776e-18
1.73384e-20
2.2419e-21
1.35578e-18
1.09976e-21
2.09741e-19
2.8115e-09
6.19557e-17
6.54806e-15
1.69041e-09
1.04357e-17
1.38157e-15
3.63359e-14
1.43387e-14
6.50897e-16
3.07612e-11
1.37594e-14
5.62925e-15
2.80616e-16
4.97097e-16
7.69185e-15
4.12886e-16
1.05511e-14
2.78215e-16
4.15836e-15
3.16705e-16
3.24903e-19
1.32589e-17
2.97338e-18
6.61163e-18
1.88043e-19
1.09545e-17
2.32505e-18
1.32246e-19
1.04685e-19
3.48904e-20
6.5808e-21
4.37837e-20
8.91029e-20
2.58197e-20
1.68739e-16
1.54231e-19
1.46216e-18
5.4462e-18
6.10784e-17
5.19769e-20
5.17128e-19
9.90421e-16
8.11447e-18
1.53434e-18
5.05935e-19
2.5087e-21
9.38414e-20
1.33595e-21
4.65416e-22
4.71372e-20
1.17741e-22
7.20304e-23
2.4203e-10
2.45672e-18
3.49305e-16
8.49697e-12
3.92698e-21
7.68414e-18
3.58778e-15
1.32712e-15
8.14561e-17
1.56444e-14
3.4675e-16
1.50484e-16
7.35462e-18
7.7521e-17
1.10852e-15
7.01444e-17
1.58697e-17
2.61929e-16
2.49855e-17
5.46656e-20
2.29924e-18
5.97991e-19
3.91028e-19
1.38559e-20
1.0215e-18
1.99713e-19
3.55275e-21
2.32094e-20
7.84686e-21
6.56686e-22
1.59133e-22
1.19816e-20
2.73036e-21
5.97402e-18
4.36249e-21
5.04842e-20
9.18365e-21
2.11324e-19
3.08953e-22
2.60172e-21
3.80695e-19
1.45652e-19
2.90725e-20
5.70951e-22
8.3601e-21
7.71881e-23
6.32752e-23
7.48364e-24
1.17134e-23
1.15358e-24
7.65909e-15
2.16082e-22
4.01107e-19
1.23476e-17
2.22627e-25
3.85608e-21
1.74719e-17
7.52923e-18
3.49757e-19
1.0422e-17
4.18785e-19
1.11744e-19
1.52411e-20
5.29509e-18
8.01623e-17
1.03205e-17
1.54312e-18
3.52204e-17
3.87762e-18
5.60781e-21
3.94423e-19
1.18747e-19
4.0521e-20
1.99703e-21
2.15059e-19
4.38548e-20
4.16327e-23
4.43226e-21
1.4747e-21
1.00008e-22
1.33103e-23
2.41169e-21
5.328e-22
4.34968e-21
5.2698e-23
7.09319e-23
2.22655e-24
7.43142e-23
2.74982e-23
7.16044e-24
2.71787e-19
1.51477e-15
1.54832e-20
4.02091e-23
8.42974e-17
8.67236e-21
3.87119e-24
3.46432e-25
3.46611e-22
1.68977e-24
2.60775e-20
4.3699e-26
1.05357e-22
5.35136e-22
2.96508e-25
4.41333e-24
7.52973e-21
1.49733e-21
4.93653e-22
2.9577e-21
8.64085e-22
8.00812e-23
1.05754e-22
1.08871e-17
4.63698e-17
2.20267e-18
4.9787e-16
6.4383e-16
1.41171e-17
2.60859e-21
5.57336e-20
1.24307e-20
6.05436e-18
6.34679e-20
2.39076e-19
7.32993e-21
3.94628e-24
3.92979e-22
1.28758e-22
6.7791e-22
9.10531e-24
2.43637e-22
4.39714e-23
1.26404e-24
4.08012e-24
1.39207e-24
2.17494e-25
1.1339e-25
2.04787e-24
4.60237e-25
1.91715e-14
6.74355e-16
9.85741e-20
6.49877e-14
2.75756e-15
2.34994e-15
6.60524e-17
3.84122e-19
5.81536e-21
3.56554e-23
5.52468e-17
1.27452e-18
1.54889e-18
4.1437e-20
8.68015e-22
6.1387e-24
1.16252e-24
4.43858e-20
4.04627e-21
1.52704e-21
1.3935e-22
3.091e-12
3.03366e-16
1.4768e-17
8.80394e-17
3.13271e-19
1.02782e-10
6.66941e-16
4.98076e-21
2.07561e-20
1.49126e-06
1.88416e-15
1.93015e-17
1.148e-18
2.30575e-19
5.07825e-21
4.36678e-13
2.14464e-16
1.23515e-17
5.03714e-19
1.65806e-20
3.60765e-22
1.03915e-16
7.01226e-18
3.73832e-19
1.46811e-20
4.80706e-22
1.27899e-23
2.83277e-18
1.8241e-19
9.29393e-21
3.71219e-22
1.24197e-23
3.57281e-25
6.36228e-20
4.04372e-21
2.04969e-22
8.37874e-24
2.87589e-25
8.64286e-27
1.20432e-07
7.82947e-08
2.47167e-09
1.12365e-07
9.54598e-11
1.11829e-09
1.88367e-09
4.2945e-11
1.3502e-08
5.44257e-10
6.66673e-12
1.0764e-09
3.14558e-12
1.5793e-14
1.07778e-11
1.57151e-14
4.69118e-13
2.81646e-13
6.83611e-16
4.60113e-15
4.76847e-14
9.19344e-16
1.68264e-13
1.15558e-16
7.80876e-16
1.59849e-17
6.77274e-15
8.97684e-19
8.35168e-17
1.11808e-20
2.92135e-18
5.49053e-18
2.61952e-19
3.38026e-18
4.21396e-19
1.01646e-19
2.64332e-20
1.08535e-07
1.89427e-07
4.18753e-10
6.21705e-13
5.19459e-08
1.97409e-12
5.12867e-10
2.57957e-14
1.13603e-14
6.62795e-16
5.7844e-18
3.64045e-14
6.82475e-16
1.50113e-15
3.33825e-17
1.71124e-17
2.02121e-19
1.23377e-20
2.53552e-17
2.58838e-18
1.14989e-18
1.12971e-19
1.3571e-11
3.48836e-09
6.42826e-14
6.45718e-14
5.30255e-13
5.02944e-11
2.39015e-12
1.80975e-14
1.2341e-12
5.79174e-14
3.36276e-13
5.15089e-18
7.97848e-17
2.69322e-18
1.12079e-18
2.32941e-18
1.10871e-19
5.61625e-18
5.20785e-21
5.18348e-21
1.22823e-21
1.21558e-21
3.73993e-22
9.54693e-23
4.18993e-21
9.25252e-17
5.62581e-16
1.66549e-15
5.70781e-15
5.25141e-16
1.48359e-15
1.03221e-16
8.82634e-18
1.58439e-18
1.22319e-16
2.52191e-17
1.43156e-18
1.13198e-16
9.74598e-18
6.69019e-17
3.43187e-15
2.50028e-16
6.65245e-16
3.27875e-16
1.15597e-15
3.92596e-17
6.16149e-18
2.88982e-17
1.21772e-18
5.59746e-17
1.41571e-18
7.67893e-17
3.93699e-18
2.28126e-20
1.53652e-19
4.98597e-19
2.13238e-18
1.42286e-19
4.46975e-19
2.52615e-20
1.85185e-21
6.21607e-22
3.52152e-20
7.78782e-21
4.1612e-22
2.54474e-20
2.23253e-21
1.7474e-20
1.67164e-18
1.08346e-19
2.27755e-19
1.22936e-19
3.25086e-19
1.30412e-20
1.85497e-21
1.74138e-20
6.82253e-22
2.61967e-20
6.92537e-22
2.98994e-20
1.55114e-21
2.13081e-21
1.48813e-22
1.16405e-21
1.30949e-21
9.91829e-23
8.49674e-22
2.6627e-21
1.46201e-19
1.18326e-17
2.98714e-20
1.10172e-18
9.75373e-18
2.48591e-20
1.79683e-19
1.12476e-21
1.08345e-21
7.60574e-23
2.54074e-22
8.43541e-23
3.81204e-22
3.68079e-22
7.98125e-20
6.01386e-19
1.93242e-18
4.93364e-21
5.50433e-18
1.22628e-20
2.66769e-20
2.48877e-09
8.94296e-10
7.72616e-10
4.9879e-11
1.78903e-11
1.52685e-11
5.72729e-11
3.76398e-14
7.4351e-16
2.10861e-15
5.10259e-17
6.21133e-16
1.75915e-15
4.44464e-14
4.92103e-10
7.90088e-10
2.07974e-10
3.24377e-11
3.786e-12
9.41644e-12
1.41606e-11
2.27511e-14
2.87568e-17
1.34082e-16
3.85736e-16
3.62569e-16
1.02928e-15
8.87596e-15
7.6295e-18
8.82275e-17
3.23547e-16
1.69543e-17
1.30121e-16
7.75587e-19
4.03411e-19
2.10779e-17
2.5877e-18
1.57893e-18
1.37809e-19
1.18545e-17
3.51737e-19
1.61704e-18
6.6153e-20
2.73326e-18
8.16517e-20
4.51973e-18
1.96381e-19
2.94454e-21
3.88406e-20
1.65058e-19
2.51013e-19
7.77281e-21
1.53879e-20
5.88587e-20
2.54691e-22
1.73236e-22
8.55812e-21
1.21423e-21
6.6966e-22
6.46623e-23
3.4446e-21
1.53311e-21
1.03776e-19
6.24868e-21
1.43329e-20
7.6636e-21
3.44893e-20
7.96299e-22
1.53552e-22
9.88842e-22
5.26965e-23
1.92829e-21
3.87635e-23
2.57696e-21
1.09548e-22
1.66709e-23
3.12011e-23
1.94098e-22
2.41169e-22
9.01908e-23
1.33293e-23
8.61136e-23
1.01273e-21
4.63097e-19
9.22264e-22
8.60827e-21
6.20507e-21
7.96972e-20
2.22341e-22
2.53452e-24
9.38056e-23
6.79401e-24
2.29392e-23
5.60394e-24
2.16159e-23
1.37963e-24
1.08359e-22
8.41279e-22
6.90115e-22
6.11216e-24
8.89622e-21
1.79792e-23
8.44887e-24
5.6885e-11
5.35735e-11
1.11923e-11
8.5875e-13
9.91858e-13
4.05072e-12
1.9191e-13
4.42285e-16
3.32566e-17
9.47097e-17
4.43061e-19
2.29447e-15
6.06045e-18
1.86513e-17
1.47458e-12
1.30223e-13
8.75768e-13
1.25008e-13
2.59334e-15
2.44208e-14
1.18383e-14
5.54469e-17
4.724e-20
5.75696e-20
1.69854e-19
7.1348e-19
2.04798e-18
4.67545e-18
5.5918e-20
2.17912e-20
1.40058e-18
1.72203e-19
1.07775e-19
9.68384e-21
8.47078e-19
2.66164e-20
1.46802e-19
8.8717e-21
3.05966e-19
6.93401e-21
3.18088e-19
5.64985e-20
1.99994e-22
2.22809e-21
6.68105e-21
1.8631e-20
3.65221e-22
1.14184e-21
3.94545e-21
2.08271e-23
2.51042e-23
7.78512e-22
3.01412e-22
4.95936e-23
1.31505e-23
3.04506e-22
7.55752e-23
7.70087e-21
6.90372e-22
1.38436e-21
5.96903e-22
1.2546e-21
7.49899e-23
9.71189e-24
5.61955e-23
2.82114e-24
2.25533e-22
2.84326e-24
1.79018e-22
1.06727e-23
5.18465e-25
3.74735e-24
2.82479e-23
3.49679e-23
1.24259e-24
2.22769e-24
1.02128e-23
1.1916e-25
3.9641e-23
4.92181e-24
3.7128e-24
7.04133e-25
1.40387e-24
1.9886e-24
1.54064e-25
1.19761e-23
5.30071e-25
4.04239e-24
6.46218e-25
3.03154e-24
1.65559e-25
3.20004e-26
1.21134e-24
4.4287e-26
8.18134e-25
8.8009e-26
5.73495e-25
3.65661e-26
3.81933e-16
5.55801e-14
2.39877e-15
3.19121e-17
1.53034e-16
7.19882e-16
3.45375e-17
7.59198e-21
3.31012e-21
9.64191e-21
1.0357e-23
2.71846e-19
9.74808e-23
3.28551e-22
9.64869e-19
7.89981e-17
2.1814e-18
1.07689e-18
1.30712e-19
7.86266e-19
3.23523e-20
2.61313e-22
4.40864e-25
1.21734e-25
1.29681e-24
3.00824e-24
1.12974e-23
7.59465e-24
1.14349e-16
1.49907e-19
1.5301e-18
2.19532e-18
2.17055e-18
7.79255e-18
2.14349e-17
6.11142e-15
7.32166e-17
2.2623e-14
2.13902e-14
4.22862e-16
7.77642e-16
3.19841e-13
2.10272e-20
8.48683e-21
3.31573e-21
1.0597e-19
4.62381e-22
4.37017e-19
1.62287e-20
8.22074e-22
2.135e-24
1.49317e-22
9.92226e-23
2.03626e-23
2.95637e-23
5.78422e-22
1.13053e-18
3.44289e-18
1.29093e-15
4.18915e-18
2.38735e-17
4.13656e-19
6.08751e-17
4.42577e-20
3.0544e-21
5.75808e-20
1.66991e-19
1.35581e-21
1.30539e-20
2.40758e-18
1.47489e-25
2.48827e-25
1.3316e-24
5.72755e-24
7.05199e-26
1.28597e-24
1.40506e-24
2.45755e-26
1.39442e-26
3.80972e-25
3.0703e-25
1.81824e-26
1.43981e-26
1.77775e-25
4.11977e-24
8.99786e-23
1.83579e-21
6.7336e-23
4.75272e-23
1.29717e-23
1.50144e-22
5.8407e-25
4.96476e-25
4.48228e-24
5.98879e-24
1.45502e-25
8.73759e-25
1.88521e-23
6.92496e-21
2.37194e-21
4.95123e-20
8.8972e-23
5.3105e-21
8.99723e-22
1.36014e-21
1.1209e-25
1.26715e-26
1.16085e-25
3.8118e-26
4.23639e-25
6.30356e-27
3.01541e-26
8.33815e-22
2.32173e-22
3.8074e-22
2.08272e-23
1.73804e-22
2.15563e-22
1.46451e-23
5.31441e-26
3.56354e-26
9.54297e-25
1.02729e-25
3.58929e-26
1.94286e-26
3.39088e-25
7.94157e-16
8.99447e-14
2.8302e-15
7.82311e-16
7.47748e-17
2.21467e-15
1.40542e-16
1.21057e-19
1.71626e-19
3.14406e-20
1.07614e-19
2.02046e-21
9.90674e-21
2.89383e-20
1.32223e-08
1.22886e-06
1.34701e-07
7.7412e-08
2.46339e-07
1.12541e-14
3.03536e-12
5.36756e-12
2.2097e-12
1.40939e-13
8.21158e-14
3.36437e-13
1.30691e-17
2.80876e-16
4.02494e-17
5.81329e-16
1.21609e-17
2.76167e-16
4.04329e-17
1.08917e-07
4.08866e-08
3.58956e-08
2.94061e-06
1.2669e-06
1.15226e-06
3.13714e-06
2.38246e-08
4.00239e-08
1.06892e-08
2.3257e-06
4.28763e-07
8.36025e-07
1.39019e-06
3.08715e-09
3.15508e-09
6.19811e-10
1.55944e-07
1.41755e-07
5.70271e-07
3.08854e-08
8.56754e-11
7.86161e-12
6.25329e-11
3.08764e-08
4.32139e-10
4.53829e-09
4.17268e-09
2.13721e-14
4.22863e-12
1.8184e-13
1.35631e-11
2.5946e-11
3.14767e-10
1.07114e-12
2.91871e-11
1.20149e-11
1.77989e-11
3.553e-14
8.12012e-10
1.42225e-12
6.875e-13
4.3922e-17
5.80557e-15
1.52867e-16
4.16947e-13
9.0103e-16
3.35754e-14
1.04151e-14
1.79867e-19
9.39378e-20
3.13904e-18
4.13157e-18
2.05693e-17
2.02095e-16
1.5696e-18
1.72411e-20
5.44778e-21
9.81797e-21
2.604e-19
1.21688e-19
2.27785e-19
1.30363e-19
7.88879e-09
2.94515e-07
3.00353e-08
1.7003e-06
7.08141e-07
3.79014e-06
2.05173e-07
4.38305e-10
1.98077e-10
7.90994e-11
6.4909e-09
2.74598e-09
1.2215e-11
1.77167e-11
2.00351e-09
9.87157e-11
5.37201e-10
7.01746e-08
4.02519e-09
1.27858e-08
2.0719e-14
3.70803e-12
1.13042e-13
1.81889e-11
4.65389e-12
1.55073e-10
5.2773e-13
8.72927e-16
9.53696e-14
4.14215e-16
6.58487e-15
3.4849e-15
1.27672e-14
3.40051e-16
9.19989e-17
3.02051e-15
8.63472e-17
5.96026e-16
1.22112e-13
3.14483e-15
1.43837e-14
1.38284e-18
4.12888e-18
7.14558e-19
5.22938e-17
1.67758e-17
1.06369e-16
1.5851e-17
5.3552e-20
1.05839e-19
2.45359e-20
5.88659e-19
2.13132e-18
5.33301e-19
2.17345e-18
1.97108e-16
3.45355e-13
7.78987e-16
1.19157e-15
1.3267e-14
7.20893e-15
4.623e-17
7.38633e-18
1.10423e-16
8.73815e-17
3.16882e-18
2.21113e-16
5.19969e-18
3.3142e-18
2.29354e-10
1.01952e-08
8.25378e-10
2.09201e-11
2.76293e-10
6.27034e-12
9.5973e-11
1.93785e-16
5.59402e-16
5.74747e-08
1.70647e-16
6.85087e-16
6.3848e-17
1.46607e-17
6.21901e-17
1.19817e-16
2.44849e-12
3.09911e-14
4.56644e-06
1.10773e-06
3.43996e-07
8.50414e-12
1.47005e-13
8.02922e-16
5.57222e-17
3.73028e-18
2.15368e-16
1.28644e-17
2.97016e-17
1.85481e-17
6.9579e-17
1.84219e-18
4.74225e-19
5.48799e-18
2.11507e-17
3.42278e-17
1.14257e-18
2.52058e-18
8.02353e-18
2.29921e-19
1.33066e-17
6.03581e-18
5.09491e-18
1.25076e-18
3.02601e-18
6.82015e-19
1.38541e-15
2.70638e-16
3.29657e-17
2.5515e-15
2.72689e-17
1.36598e-14
2.88613e-16
7.18743e-14
9.16877e-14
3.32652e-11
2.52848e-13
6.83873e-13
1.03336e-14
3.63675e-12
9.2166e-07
1.78512e-06
7.21331e-06
8.12071e-06
4.23582e-05
1.44341e-05
2.8035e-05
1.19664e-08
2.32748e-08
5.95366e-07
4.11473e-08
9.28488e-08
2.85264e-09
1.19609e-09
3.58635e-22
8.14687e-22
5.71148e-22
1.96476e-23
3.02337e-23
1.80521e-22
7.86221e-23
1.55948e-13
5.28818e-16
2.52769e-15
2.81158e-15
6.85669e-17
1.08774e-15
4.16246e-17
4.41234e-19
1.25126e-18
3.28808e-20
4.81033e-17
1.69559e-18
1.6095e-18
2.4765e-19
1.44319e-22
6.72115e-22
1.10307e-22
4.76834e-20
3.31745e-21
7.02033e-21
1.39295e-21
6.36981e-25
2.84426e-24
7.89017e-25
1.03312e-22
2.43933e-23
4.12788e-23
7.39155e-24
4.65886e-14
1.78257e-15
4.22461e-14
2.69437e-15
3.77506e-13
2.96752e-15
1.34099e-16
4.08644e-15
7.19598e-18
1.3988e-16
1.48315e-16
6.25262e-18
6.62966e-18
1.0035e-18
5.46443e-18
3.20669e-19
4.93334e-19
2.31167e-19
1.98502e-20
7.63252e-20
2.59793e-20
4.79695e-20
1.28473e-20
1.33022e-20
1.83133e-21
5.77653e-22
2.52226e-21
1.08809e-21
8.8876e-13
3.37002e-13
1.82466e-14
5.57307e-15
2.83844e-13
1.54252e-14
1.03527e-12
5.56567e-13
3.1239e-15
6.5899e-14
3.67409e-15
1.69754e-13
9.31805e-15
2.29248e-13
1.25998e-14
1.65535e-14
9.42091e-16
1.3459e-16
6.21057e-14
3.302e-15
1.94943e-16
1.69505e-15
1.37962e-17
4.59298e-17
2.31413e-18
3.82714e-16
2.26225e-17
1.50637e-16
4.07578e-19
2.70178e-18
1.20067e-19
9.7587e-20
8.91387e-18
6.8318e-19
6.71695e-21
1.41962e-20
5.09195e-21
5.65031e-21
6.46803e-23
2.0563e-20
2.77292e-22
5.2291e-22
4.0695e-24
2.13182e-22
3.09236e-24
2.11728e-23
2.03465e-23
8.44134e-23
5.7926e-25
1.15733e-24
4.72062e-24
9.1814e-24
1.9948e-25
1.23296e-23
1.99688e-25
9.00062e-25
6.148e-16
2.83896e-14
3.35561e-17
4.10023e-16
1.34019e-15
9.14136e-15
1.06063e-16
2.93864e-17
1.94788e-18
1.44249e-18
1.27261e-18
5.26815e-17
6.11237e-18
5.53133e-18
1.10249e-19
7.23661e-20
1.19774e-21
1.1666e-19
6.01517e-21
3.4182e-19
2.95383e-20
8.54337e-21
1.57603e-22
1.31418e-22
8.67851e-22
6.39157e-22
3.29659e-21
3.31125e-21
3.1164e-22
1.24865e-21
3.32164e-22
3.91569e-22
7.65518e-23
3.37258e-23
1.77892e-22
1.50714e-22
2.86504e-23
1.85533e-24
1.35432e-22
8.88211e-24
3.55814e-22
3.77607e-23
3.29585e-23
5.54566e-24
6.93302e-25
5.58702e-24
3.05563e-24
2.10344e-23
1.31805e-23
6.46678e-21
2.16202e-20
2.00181e-20
6.53905e-19
1.01918e-19
2.33184e-19
4.99803e-20
3.04348e-09
1.08216e-13
1.77113e-14
2.04486e-10
1.26501e-08
2.75506e-11
6.15629e-12
3.99464e-13
1.11923e-16
2.43569e-15
3.0076e-11
2.19295e-14
1.27537e-14
1.00118e-15
9.16163e-17
9.32189e-18
1.21578e-17
1.06607e-15
2.21203e-16
2.98305e-16
2.22329e-16
1.20732e-18
4.28906e-19
4.42197e-19
2.49158e-17
1.41374e-17
2.64543e-17
1.39476e-17
1.84917e-18
2.80551e-17
1.01713e-18
1.46323e-17
1.84853e-18
2.54356e-17
8.38432e-19
5.23465e-21
1.63488e-20
5.80094e-21
1.0798e-19
5.53597e-20
1.02267e-19
5.61817e-20
2.51911e-12
1.64946e-13
6.73873e-12
1.18621e-14
4.90762e-13
6.91604e-15
1.68889e-13
8.10586e-13
3.18584e-11
1.87958e-12
7.38944e-11
1.72416e-11
3.29184e-10
6.48109e-10
1.61717e-17
2.68163e-18
3.70007e-19
8.436e-17
6.94738e-18
1.18891e-18
1.89626e-19
1.70087e-18
2.60333e-19
3.13502e-20
1.69558e-18
1.5572e-19
2.17723e-20
7.22429e-21
5.51919e-21
6.85036e-22
2.03235e-22
1.21323e-21
3.09848e-22
1.42379e-23
3.58236e-23
1.57388e-23
4.0763e-25
4.16253e-24
1.27557e-24
5.99174e-24
8.04866e-26
1.3092e-24
1.28701e-24
8.84237e-26
3.89848e-25
7.31851e-24
4.57557e-24
2.51873e-24
1.00588e-24
2.86992e-16
7.62923e-18
1.57872e-19
2.66893e-21
6.40157e-17
1.68419e-18
3.3888e-20
5.66497e-22
8.08858e-18
1.75229e-19
3.05598e-21
4.66108e-23
7.14415e-19
1.23408e-20
1.90483e-22
2.71706e-24
3.49215e-19
4.17674e-21
4.55112e-23
4.79276e-25
7.85049e-15
1.68807e-15
2.8166e-16
3.65416e-17
2.55064e-17
1.44642e-16
3.52182e-18
6.11938e-20
8.8762e-22
1.15818e-23
1.42711e-25
7.30125e-18
1.77374e-19
3.46529e-21
5.8817e-23
9.07319e-25
1.31608e-26
6.1963e-18
2.12754e-19
5.51565e-21
1.18056e-22
2.20861e-24
3.72581e-26
5.82864e-28
1.38322e-19
4.92068e-21
1.35762e-22
3.11959e-24
6.23898e-26
1.11462e-27
1.83099e-29
2.83713e-21
1.03632e-22
2.99967e-24
7.2629e-26
1.5259e-27
2.85033e-29
4.8793e-31
0.013009
0.0387009
0.000639363
8.51772e-09
0.00873308
3.8435e-05
2.88461e-12
0.00108836
2.09594e-06
8.74257e-06
0.00666053
2.0884e-12
1.67481e-13
0.00162164
1.1179e-06
5.33628e-16
0.000548953
3.92447e-08
0.000186866
4.67465e-06
0.000176373
1.5676e-12
1.72847e-15
1.0763e-05
2.73612e-11
1.47903e-16
1.94316e-05
5.85939e-12
2.77112e-08
7.86374e-09
0.000313783
2.55791e-07
1.56558e-14
1.85412e-16
1.42222e-05
4.14826e-10
4.10602e-15
1.09893e-17
1.2907e-05
9.7107e-10
5.54179e-13
3.67833e-14
5.82878e-16
1.90697e-17
3.08047e-05
2.90271e-08
2.8525e-14
1.20636e-16
1.04856e-18
7.43361e-06
9.61516e-14
1.56446e-15
4.25648e-17
1.19386e-18
3.61325e-08
7.03228e-14
1.63834e-16
4.46121e-18
1.05638e-19
1.55465e-15
5.56113e-17
1.76526e-18
4.97149e-20
5.54631e-15
2.10705e-16
7.43337e-18
2.01692e-19
4.97672e-21
1.0588e-16
5.83405e-18
2.10746e-19
6.22667e-21
1.66515e-22
0.00275735
0.00193383
0.000279097
0.00139302
5.70539e-05
0.00674808
6.7864e-05
0.000930742
2.67295e-05
0.00207963
0.00160447
4.45457e-05
0.000811615
2.41679e-05
5.71288e-08
0.0012518
0.000147778
0.00113309
0.000168088
1.19289e-05
5.87107e-05
1.62852e-07
3.81667e-10
4.794e-05
5.4827e-05
3.68655e-05
8.50904e-06
4.10058e-05
4.80344e-07
1.18876e-09
1.57627e-05
1.47321e-08
5.31436e-09
2.41982e-13
2.38567e-08
8.73609e-12
6.5322e-05
4.54492e-05
7.31882e-07
1.1341e-08
4.69358e-08
7.04068e-05
3.81124e-05
0.000267821
3.06839e-05
3.88501e-05
9.00933e-08
1.43993e-08
1.11925e-05
1.79855e-08
3.52262e-07
1.26265e-11
3.2435e-09
9.64378e-14
1.05459e-13
4.45123e-10
1.44699e-14
5.09236e-13
1.57768e-14
4.44475e-15
1.04631e-15
3.92128e-05
3.24283e-05
1.35589e-07
3.6896e-08
5.57427e-09
1.51222e-13
3.94276e-15
2.77959e-05
4.11146e-07
3.48658e-09
0.000493111
0.00108328
0.000486552
1.81157e-05
0.00057454
1.18662e-05
4.83331e-05
2.59438e-08
4.96989e-05
1.11033e-07
0.000211423
0.000306922
0.000106612
4.10814e-06
5.04283e-06
6.74134e-07
3.40619e-06
2.51808e-06
3.72205e-07
1.95708e-11
1.57261e-11
3.32375e-13
8.50581e-07
1.03263e-05
3.20423e-09
7.68369e-07
5.76904e-08
3.96606e-07
5.11724e-12
1.00539e-12
9.69632e-11
1.31759e-13
3.84939e-12
5.90457e-14
3.05665e-13
9.45818e-15
1.39277e-15
3.37518e-15
1.32504e-16
2.48404e-15
3.96844e-16
2.90976e-16
4.06736e-17
1.28816e-06
1.05054e-06
0.0049969
0.00272965
0.004873
0.00248095
0.00298246
0.00422131
0.000947382
0.002445
0.00059997
0.00137349
0.00236812
0.000585946
0.000990029
0.000771859
0.00123037
0.0013456
0.000368155
0.0020022
0.000510981
0.000485863
0.00207559
0.00194058
0.00100343
0.000338622
0.000439679
2.71404e-05
3.60259e-05
9.94806e-05
7.0075e-06
0.000136551
1.11192e-05
1.90519e-05
0.00165445
0.000691703
0.000765112
0.000340052
0.000122949
0.000323027
0.000684714
0.000362356
3.71687e-06
5.79071e-05
3.08014e-06
4.24444e-06
1.00194e-05
2.6445e-05
9.13438e-07
0.000145877
1.56702e-05
4.49897e-05
3.86102e-05
4.00809e-05
0.000145413
1.65921e-05
0.000117853
1.09646e-05
5.26633e-05
3.63463e-05
0.000114388
3.71922e-05
1.31287e-05
0.000104726
4.62928e-05
9.86562e-06
1.03875e-05
3.86034e-06
1.75038e-07
3.30388e-06
2.07548e-06
1.53553e-05
1.85116e-06
1.61736e-07
1.04755e-05
3.10152e-06
3.8452e-06
1.65184e-06
2.05045e-06
4.45241e-07
5.3518e-09
5.27899e-07
5.53362e-09
5.0059e-10
1.93863e-07
2.2684e-08
1.10584e-10
0.000166528
2.04723e-05
6.26772e-05
0.000123994
1.58832e-05
5.40666e-05
5.05626e-06
4.34682e-06
1.88866e-05
9.89475e-10
4.03092e-07
1.1974e-09
4.31313e-10
2.11518e-08
2.73889e-08
4.73635e-11
7.92804e-07
1.06754e-09
4.39295e-08
5.15592e-05
4.28273e-05
0.000111325
9.91731e-06
0.000146484
1.13138e-05
3.71377e-05
5.9915e-05
6.62158e-05
9.6229e-06
3.76188e-05
1.64697e-05
1.36639e-05
1.4943e-06
1.77734e-07
1.40745e-06
1.8087e-06
9.36797e-06
2.51581e-06
9.57999e-08
1.00639e-05
2.58865e-06
1.93117e-06
1.60676e-06
1.51192e-06
2.1973e-07
3.27072e-09
4.36756e-09
3.54889e-07
3.00277e-10
1.30311e-07
8.98227e-11
1.04484e-08
3.7251e-09
1.24681e-07
6.83129e-09
1.03832e-10
1.0653e-07
5.34349e-09
2.22908e-10
1.1337e-10
4.78396e-12
2.45232e-13
3.10168e-12
3.29512e-12
1.70913e-10
6.94019e-12
8.93107e-14
1.03021e-10
9.088e-12
7.23663e-12
2.21749e-12
2.28673e-12
1.60597e-13
3.31106e-14
1.22219e-13
3.35286e-14
1.03546e-15
1.15814e-13
4.5598e-15
2.23475e-14
0.00010344
1.05672e-05
3.52553e-05
8.74584e-06
3.32916e-05
1.85539e-06
1.56321e-06
9.27949e-06
5.63553e-07
6.65296e-10
2.24905e-08
2.15394e-07
1.82068e-10
1.12009e-08
9.96941e-12
5.46826e-12
3.64332e-10
2.43333e-13
1.4085e-16
5.50472e-15
9.99098e-06
8.37498e-05
6.38326e-06
6.36679e-06
2.33473e-05
2.44495e-05
2.0532e-06
9.97484e-08
3.15431e-05
0.000159959
1.43657e-05
4.28808e-05
0.000156088
1.36377e-05
3.26886e-05
1.00993e-06
1.07531e-06
2.45283e-06
1.99029e-08
9.38871e-06
1.79193e-07
1.99809e-07
0.00226549
0.0218003
0.000527699
0.0152055
0.00158097
0.0157093
0.000150044
1.27296e-09
7.95378e-07
1.71238e-08
5.90629e-06
8.32999e-11
3.94715e-07
6.88757e-09
1.14933e-11
3.02978e-08
4.96259e-12
5.88824e-10
1.10237e-13
3.75214e-10
1.20877e-14
0.00056525
0.00049317
0.00173024
0.000389922
0.00032993
9.13525e-05
1.79482e-08
4.85e-05
6.31248e-09
2.31864e-06
5.4613e-11
3.20401e-08
8.25437e-13
1.41297e-14
3.16556e-12
5.47565e-15
3.37255e-14
1.17943e-15
8.04151e-14
2.74067e-16
5.57381e-06
9.10623e-05
8.92026e-08
4.55733e-06
8.15482e-09
1.57585e-06
7.97419e-11
7.94733e-13
2.64068e-09
2.82404e-13
2.31529e-10
5.07114e-13
2.51509e-12
7.61627e-14
3.43006e-16
5.89451e-16
2.85434e-17
6.50132e-16
2.26791e-16
4.68655e-17
1.0873e-17
0.00069541
0.000211266
0.000295782
0.000231336
0.000298653
9.83339e-05
9.10175e-05
0.000130533
3.77667e-05
1.27243e-05
0.000113696
3.87947e-05
8.5071e-06
3.09498e-05
0.000328322
0.00129791
4.56211e-05
0.000464776
4.25633e-06
0.000475761
1.30289e-07
6.05852e-17
9.34667e-18
2.55909e-18
7.26599e-17
1.73573e-17
4.46814e-18
1.01178e-18
4.99632e-09
1.29159e-10
1.11636e-14
2.13651e-16
4.23379e-18
0.389219
0.376087
0.312943
0.0683358
0.0105138
0.133332
0.00313148
0.160075
0.0507487
0.0369093
0.0172897
0.00489018
0.0122829
0.0566757
0.00645789
0.00687049
0.000284351
0.000523812
0.000253169
0.017663
0.000859498
5.48357e-08
1.90072e-07
3.34125e-06
7.73814e-14
2.85241e-12
6.72524e-16
3.99253e-17
1.63527e-18
5.40894e-20
1.54893e-21
1.56597e-15
1.66174e-17
9.25789e-19
3.89719e-20
1.32745e-21
3.94262e-23
3.24066e-17
2.43548e-18
1.27571e-19
4.93855e-21
1.58202e-22
4.52482e-24
3.27634e-19
1.85015e-20
8.05278e-22
2.85701e-23
8.92764e-25
6.67889e-19
4.8278e-20
2.55974e-21
1.05053e-22
3.56904e-24
1.07384e-25
0.0655987
0.0201919
0.0905752
0.0767941
0.0124883
0.0183722
0.0131658
0.0332291
0.0145536
0.00869599
0.0168007
0.0107346
0.00724088
0.0218537
0.00789265
0.0122283
0.0028414
0.00138353
0.00394745
0.00566991
0.000698903
0.000166632
0.000970607
0.00693987
0.00130814
0.0009518
0.000636536
0.000786957
0.00431592
0.000353366
0.000108714
0.000514121
0.00076165
0.000109862
0.00634744
0.010264
0.00626488
0.01238
0.00676727
0.00325198
0.00295349
0.0020147
0.00144398
0.000991272
0.000324868
0.00027278
0.00014631
0.000236863
0.000100422
2.6212e-06
0.0394219
0.0303125
0.0298244
0.0194056
0.0289443
0.0283301
0.0417253
0.0428029
0.0231029
0.0331865
0.0290705
0.0327164
0.0168381
0.0173903
0.0172286
0.0244761
0.0240234
0.0226916
0.0138588
0.0212857