/*--------------------------------*- C++ -*----------------------------------*\
  =========                 |
  \\      /  F ield         | OpenFOAM: The Open Source CFD Toolbox
   \\    /   O peration     | Website:  https://openfoam.org
    \\  /    A nd           | Version:  9
     \\/     M anipulation  |
\*---------------------------------------------------------------------------*/
FoamFile
{
    format      ascii;
    class       volScalarField;
    location    "0.002";
    object      overpressureMax;
}
// * * * * * * * * * * * * * * * * * * * * * * * * * * * * * * * * * * * * * //

dimensions      [1 -1 -2 0 0 0 0];

internalField   nonuniform List<scalar> 
14814
(
32086.5
0.00120576
0.000480867
1.70478e-05
5.10801e-07
0.00340181
0.000181504
4.59119e-06
0.00339602
216669
0.122783
0.128345
0.740513
0.00326485
0.00520991
17.5647
0.0367202
0.0161035
0.00359922
3.77671
0.158918
0.054228
178517
980.971
125316
21683.3
1527.27
336827
0.313046
209420
152571
150599
91376
97363.4
68763.2
133242
0.80876
0.0115721
0.0169776
0.0758181
0.0433934
0.228865
0.286882
14.7525
1.20257
77.594
59.0273
4.4114
4.36218
243.868
118001
131865
96636.7
44901.4
15455.5
38453.2
13686.9
0.0090422
0.539803
0.187488
0.0562321
5.70329
16.2124
25.6957
0.580904
439.683
30.7719
3.13031
2086.14
2.31044
66.7454
85.7768
1188.87
3501.86
276.294
3500.44
248.972
220815
254.589
75698.6
2.17204
313364
15078.2
19311.7
66.5547
0.0016235
0.00675694
2.27538e-05
1.66998e-07
0.000219546
0.00209725
2.48797e-05
0.001433
5.38022e-05
1.58497e-06
2.73983e-07
5.63945e-07
3.64729e-07
0.000193902
8.29878e-06
2.80867e-07
1.02737e-08
7.13044e-09
5.09317e-09
1.20088e-05
4.80126e-07
1.65601e-08
4.65661e-10
4.36557e-11
4.36557e-11
5.52958e-07
2.19588e-08
7.27596e-10
0
0
0
2.0882e-08
7.42148e-10
0
0
0
0
5.67525e-10
0
0
0
0
0
5.8969
0.000229768
0.00189888
5.59483e-06
2.67755e-08
1.30519e-05
0.000352322
3.37407e-06
0.000536615
1.55643e-05
4.25105e-07
2.14932e-08
5.26197e-08
4.87344e-08
6.18077e-05
2.31115e-06
7.73434e-08
2.43017e-09
5.96629e-10
6.25732e-10
3.2992e-06
1.28595e-07
4.49654e-09
1.01863e-10
0
0
1.45912e-07
5.80621e-09
1.60071e-10
0
0
0
5.36966e-09
1.74623e-10
0
0
0
0
1.16415e-10
0
0
0
0
0
0.00869596
5.56692e-06
7.33955e-07
4.33647e-09
1.06375e-08
2.65855e-06
7.93079e-08
0.000117422
3.80466e-06
1.0553e-07
2.67755e-09
4.65661e-10
1.23691e-09
1.28727e-05
4.93834e-07
1.57161e-08
3.7835e-10
0
0
5.78439e-07
2.2832e-08
7.42148e-10
0
0
0
2.18133e-08
8.14907e-10
0
0
0
0
6.98492e-10
0
0
0
0
0
0
0
0
0
0
0
3.24874e-06
9.39908e-08
3.98944e-06
3.49246e-09
0
2.15368e-09
1.99361e-09
8.01661e-05
1.45144e-06
2.7183e-08
4.51109e-10
0
0
3.0267e-06
9.88803e-08
2.59024e-09
0
0
0
9.93168e-08
3.4197e-09
2.91038e-11
0
0
0
2.96859e-09
5.82077e-11
0
0
0
0
1.45519e-11
0
0
0
0
0
0
0
0
0
0
0
33.9954
0.00104551
1.08576e-06
6.09725e-09
5.326e-09
0.116993
0.000776566
5.41811e-07
7.567e-10
0
8.73115e-11
0.000298581
4.70017e-06
7.68487e-08
1.22236e-09
0
0
8.37063e-06
1.87298e-07
4.70027e-09
5.82077e-11
0
0
2.24478e-07
5.76256e-09
1.01863e-10
0
0
0
5.42786e-09
1.16415e-10
0
0
0
0
8.73115e-11
0
0
0
0
0
0
0
0
0
0
0
160.388
0.00177141
1.55606e-05
7.60949e-07
4.50382e-08
2.06637e-09
0.00323872
7.04889e-05
1.31439e-06
2.44327e-08
1.36788e-09
0
8.28157e-05
2.49127e-06
6.16128e-08
1.35333e-09
0
0
2.40374e-06
8.00355e-08
2.13913e-09
0
0
0
6.4756e-08
2.19734e-09
0
0
0
0
1.55705e-09
0
0
0
0
0
0
0
0
0
0
0
0
0
0
0
0
0
0.00237687
7.56101e-05
3.29815e-06
1.55851e-07
7.79983e-09
2.03727e-10
0.000105772
4.12331e-06
1.73619e-07
6.88306e-09
2.61934e-10
0
4.01984e-06
1.80153e-07
7.43603e-09
2.61934e-10
0
0
1.36468e-07
6.14091e-09
2.03727e-10
0
0
0
4.01633e-09
1.45519e-10
0
0
0
0
5.82077e-11
0
0
0
0
0
0
0
0
0
0
0
0
0
0
0
0
0
5.90691e-05
3.18685e-06
1.88185e-07
9.42964e-09
3.7835e-10
0
3.52981e-06
1.80618e-07
9.31323e-09
3.7835e-10
0
0
1.55385e-07
8.13452e-09
3.0559e-10
0
0
0
5.6607e-09
2.61934e-10
0
0
0
0
1.45519e-10
0
0
0
0
0
0
0
0
0
0
0
0
0
0
0
0
0
0
0
0
0
0
0
1.80694e-06
1.19355e-07
7.30506e-09
3.34694e-10
0
0
1.14087e-07
6.78119e-09
3.0559e-10
0
0
0
5.28235e-09
2.32831e-10
0
0
0
0
1.16415e-10
0
0
0
0
0
0
0
0
0
0
0
0
0
0
0
0
0
0
0
0
0
0
0
0
0
0
0
0
0
5.27943e-08
3.8126e-09
1.45519e-10
0
0
0
3.31784e-09
1.60071e-10
0
0
0
0
1.01863e-10
0
0
0
0
0
0
0
0
0
0
0
0
0
0
0
0
0
0
0
0
0
0
0
0
0
0
0
0
0
0
0
0
0
0
0
0.00307645
4.38664e-05
0.00178042
3.77694e-05
6.70353e-06
8.87667e-08
5.23697e-06
1.20344e-07
2.21771e-08
3.19405e-05
1.73459e-08
7.95611e-06
639.756
0.000681963
0.0418995
438.418
0.000181438
0.0115875
0.15419
0.0746477
0.00528564
35.2728
0.0674637
0.0338266
0.00244087
0.000409067
0.00380451
0.000323163
0.00433729
0.000257909
0.00235974
0.000235686
1.32668e-06
2.09662e-05
4.4075e-06
1.4194e-05
8.28746e-07
1.61361e-05
3.50719e-06
3.30173e-06
3.21088e-07
2.11905e-07
9.00181e-08
1.29455e-06
2.70971e-07
1.28406e-07
0.00195296
4.90822e-06
3.90957e-05
8.99219e-05
0.000845174
1.92843e-06
1.6234e-05
0.000867624
1.63734e-05
4.38339e-06
2.24625e-06
3.5463e-08
6.23331e-07
1.52795e-08
6.70843e-09
2.54929e-06
1.97906e-09
1.34605e-08
144.383
6.24693e-05
0.00425666
17.443
3.76633e-07
0.000105612
0.023767
0.0111668
0.000953516
0.0940306
0.00352852
0.00194385
0.000126532
0.000107727
0.000944221
8.1664e-05
3.15099e-05
0.000293719
3.24315e-05
3.42785e-07
5.17358e-06
1.23691e-06
1.7081e-06
1.05967e-07
2.40719e-06
4.54354e-07
1.72411e-07
9.18953e-08
3.77622e-08
7.39237e-09
8.30914e-09
4.88653e-08
1.27911e-08
0.000138785
2.60596e-07
2.48426e-06
5.86835e-07
8.33538e-06
1.49012e-08
1.82612e-07
1.74291e-06
1.18033e-06
2.60217e-07
5.10772e-09
1.3379e-07
2.88128e-09
9.60426e-10
1.23691e-09
2.76486e-10
0
0.0768088
3.60742e-08
8.85538e-06
0.000371199
0
1.26238e-07
0.000283139
0.000150614
9.4711e-06
0.000170741
1.10673e-05
3.62785e-06
3.39292e-07
1.41047e-05
0.000116075
1.41044e-05
8.39282e-06
6.51641e-05
6.81489e-06
4.80795e-08
1.00856e-06
2.90776e-07
3.9782e-07
2.19006e-08
5.81684e-07
1.15688e-07
6.8394e-10
2.05473e-08
7.18865e-09
1.35333e-09
1.01863e-10
1.12777e-08
2.70666e-09
2.2653e-07
7.71252e-10
5.39876e-09
1.45519e-10
5.50062e-09
2.03727e-10
1.89175e-10
7.6e-06
0.0207147
6.73172e-07
3.04135e-09
0.0022598
1.1684e-06
3.0559e-10
0
8.4663e-08
5.09317e-10
1.54317e-06
0
6.8103e-09
4.22588e-08
4.36557e-11
2.91038e-10
3.36018e-07
8.87521e-08
1.48866e-08
1.41285e-07
2.33413e-08
5.57338e-09
1.9354e-09
0.000115693
0.000273779
1.39773e-05
0.00436438
0.00406461
0.000188446
1.22731e-07
6.82223e-07
6.83794e-08
0.000125113
2.94361e-06
6.54788e-06
2.39743e-07
1.01863e-10
3.89991e-09
1.20781e-09
6.86123e-08
1.68802e-09
9.31323e-09
7.71252e-10
1.16415e-10
0
0
1.45519e-11
0
0
0
0.218663
0.0160076
9.71196e-06
0.449322
0.0307722
0.026735
0.00129161
2.17332e-05
8.46485e-07
6.17001e-09
0.00112191
4.42831e-05
5.44199e-05
2.43961e-06
4.22879e-08
1.26602e-09
1.01863e-10
2.10543e-06
1.55327e-07
1.22163e-07
8.84756e-09
6.66186
0.0035837
0.000296765
0.00192728
4.73156e-06
183.36
0.0082941
9.26229e-08
1.88811e-07
176093
0.0196154
0.00017444
1.18618e-05
2.07621e-06
6.71571e-08
1.10633
0.00136944
7.3669e-05
4.00073e-06
1.80502e-07
5.70435e-09
0.000457714
4.60668e-05
3.06404e-06
1.63622e-07
7.46513e-09
2.03727e-10
1.71764e-05
1.60614e-06
1.09751e-07
5.93718e-09
2.03727e-10
0
5.52332e-07
4.99131e-08
3.40515e-09
1.16415e-10
0
0
8762.43
6521.78
1283.27
24666.3
97.1835
646.218
936.634
48.3968
2652.57
436.267
13.8249
790.897
6.7127
0.156997
27.494
0.0985125
2.21829
2.18329
0.0101863
0.0569604
0.30334
0.010164
1.37879
0.00264884
0.00781748
0.000276149
0.0972143
3.20684e-05
0.000885196
5.07614e-07
8.21236e-05
0.000115648
8.21312e-06
6.84149e-05
6.25529e-06
3.49793e-06
4.43353e-07
28493.9
66967.2
525.915
3.29466
20168.5
6.83737
661.12
0.192541
0.0946604
0.013435
0.000213372
0.235828
0.00723805
0.0189044
0.000690612
0.00023045
1.03757e-05
3.63274e-07
0.000391015
3.19648e-05
3.18582e-05
2.38234e-06
34.2037
2012.25
0.503319
0.396918
2.98609
97.0798
9.52201
0.196873
5.67696
0.531236
2.10054
0.000169203
0.00268066
0.000186775
3.43171e-05
0.000165908
1.40054e-05
0.00017078
3.63943e-07
7.7326e-07
2.03465e-07
8.18836e-08
7.8755e-08
2.10712e-08
2.69807e-07
0.000156923
0.000745662
0.000970011
0.00296924
0.000691101
0.000891942
0.000172687
2.65088e-05
6.84764e-06
0.000145668
3.98438e-05
6.25018e-06
0.000136087
2.90494e-05
0.000115804
0.00198847
0.00036507
0.000480846
0.000481203
0.000685688
7.94451e-05
1.91261e-05
4.08067e-05
4.75186e-06
7.20039e-05
5.62542e-06
9.53276e-05
1.32884e-05
2.57118e-07
1.17534e-06
2.00901e-06
6.32099e-06
1.08889e-06
1.81946e-06
2.82991e-07
4.66534e-08
1.23691e-08
3.50192e-07
8.0312e-08
1.14524e-08
3.15762e-07
5.21832e-08
2.04076e-07
5.3261e-06
8.16581e-07
1.05936e-06
9.30318e-07
1.40493e-06
1.57495e-07
3.54776e-08
1.25467e-07
1.29658e-08
1.91663e-07
1.41008e-08
2.24085e-07
2.858e-08
1.86148e-07
9.41509e-09
6.06378e-08
1.88884e-08
8.39646e-09
5.43805e-08
2.06695e-07
5.42862e-06
0.000164839
1.33857e-06
2.79724e-05
0.000149355
1.18364e-06
6.01249e-06
1.17565e-07
1.76369e-08
4.1764e-09
1.68802e-08
6.27188e-09
3.20288e-08
4.95493e-08
3.5189e-06
1.78098e-05
4.6512e-05
3.16577e-07
9.94497e-05
7.25282e-07
1.55579e-06
571.558
374.893
326.48
34.0142
19.8302
17.0053
38.8134
0.0789454
0.00420839
0.0119159
0.000593281
0.00382843
0.00994785
0.0932401
233.165
279.752
132.17
24.8269
6.24756
11.6924
14.6291
0.0534994
0.000387398
0.00129993
0.00318688
0.00261894
0.00647759
0.0279807
2.75796e-05
0.000187921
0.00031415
4.71467e-05
0.000177298
4.66232e-06
2.25891e-06
4.10287e-05
7.00845e-06
7.62483e-06
1.05202e-06
2.73836e-05
2.37899e-06
4.98731e-06
5.27521e-07
7.6881e-06
6.75296e-07
1.28013e-05
1.39944e-06
4.73228e-08
3.91447e-07
7.54866e-07
1.24278e-06
9.78907e-08
1.94603e-07
3.50599e-07
8.96398e-09
4.9622e-09
1.09721e-07
1.81026e-08
1.66619e-08
2.25555e-09
6.70989e-08
2.99187e-08
6.46149e-07
9.22009e-08
1.30254e-07
1.109e-07
2.4357e-07
1.82335e-08
5.02041e-09
1.66328e-08
1.57161e-09
2.36905e-08
1.80444e-09
3.40515e-08
3.33239e-09
3.57977e-09
1.55705e-09
5.54428e-09
3.89991e-09
1.5003e-08
5.96629e-10
2.16824e-09
1.21057e-07
1.59252e-05
9.39617e-08
6.42627e-07
4.96671e-07
4.09014e-06
2.42435e-08
6.1118e-10
1.8772e-09
1.89175e-10
4.07454e-10
2.61934e-10
6.25732e-10
7.27596e-11
2.15659e-08
1.09649e-07
9.65665e-08
6.1118e-10
7.7374e-07
3.76895e-09
2.57569e-09
58.3083
58.5405
19.5423
2.43102
2.55643
6.80377
0.786949
0.0032672
0.000480642
0.00115123
1.60557e-05
0.0110589
0.000132364
0.00033023
4.83236
0.75892
3.43504
0.632409
0.027097
0.176205
0.107642
0.000705915
2.99192e-06
3.529e-06
8.60964e-06
2.68721e-05
6.27205e-05
0.000101188
5.60336e-07
2.45302e-07
5.07019e-06
8.7735e-07
9.01622e-07
1.28697e-07
3.45081e-06
4.34928e-07
7.45466e-07
5.28889e-07
3.39451e-06
1.17143e-07
1.79032e-06
3.82615e-06
5.54428e-09
4.33356e-08
7.70233e-08
1.61221e-07
1.02445e-08
2.40107e-08
4.32919e-08
8.73115e-10
6.1118e-10
1.28493e-08
2.21189e-09
1.80444e-09
2.32831e-10
6.37374e-09
3.34694e-09
1.1269e-07
5.77129e-08
4.33211e-08
1.82772e-08
2.39379e-08
7.21775e-09
5.67525e-10
1.45519e-09
2.61934e-10
4.94765e-09
1.16415e-10
4.51109e-09
8.00355e-10
0
8.73115e-11
2.47383e-10
5.38421e-10
0
0
1.74623e-10
0
9.0804e-09
7.27596e-11
1.01863e-10
2.18279e-10
6.54836e-10
0
0
1.45519e-10
0
0
0
0
0
0
0
0
0
2.91038e-11
0
0
0.00605609
0.385014
0.0294567
0.000867519
0.00269269
0.0112306
0.000379093
8.25792e-07
3.39132e-07
8.24366e-07
2.72121e-09
1.00146e-05
2.50293e-08
6.72007e-08
2.77788e-05
0.00178461
9.31988e-05
5.29671e-05
2.96942e-06
1.98581e-05
2.92165e-06
5.24742e-08
1.30967e-10
4.36557e-11
3.34694e-10
1.52795e-09
4.27826e-09
1.99361e-09
0.0019712
1.09005e-05
3.40002e-05
7.16399e-05
8.47676e-05
0.000258534
0.000542449
0.0449426
0.00132894
0.136442
0.150828
0.00622323
0.00990928
0.922585
2.43539e-06
1.11105e-06
1.1806e-07
7.32887e-06
1.03159e-07
2.71834e-05
8.65461e-07
1.88025e-07
6.69388e-10
1.28057e-08
1.31404e-08
8.09086e-09
1.3024e-08
6.83794e-08
6.15006e-05
0.000139582
0.0156962
0.000203499
0.00067827
1.54134e-05
0.00146893
4.7603e-06
1.8561e-07
7.35959e-06
1.60326e-05
3.09505e-07
1.1919e-06
0.000115295
1.01863e-10
2.91038e-11
4.36557e-11
1.00408e-09
0
9.02219e-10
2.61934e-10
0
0
0
0
0
0
0
2.11003e-09
1.3184e-08
4.18149e-07
1.33441e-08
1.97033e-08
2.05182e-09
3.93338e-08
2.91038e-10
7.27596e-11
1.38243e-09
1.8772e-09
2.91038e-11
1.74623e-10
5.6607e-09
3.90224e-07
3.28131e-07
3.94994e-06
2.12021e-08
2.21087e-07
1.46858e-07
6.13218e-08
0
0
0
0
1.45519e-10
0
0
7.17555e-08
3.73257e-08
6.36501e-08
5.3551e-09
9.73523e-09
1.31113e-08
3.4197e-09
0
0
2.61934e-10
0
0
0
4.36557e-11
0.0154545
0.71425
0.045747
0.0154855
0.0026668
0.039812
0.00215321
6.88038e-06
1.89041e-05
4.00277e-06
5.21939e-06
3.79383e-07
1.71924e-06
1.5056e-06
8622.7
197159
52016.2
31967.5
80882.3
0.130451
11.9444
14.4936
8.0374
0.858943
0.57997
1.93134
0.000291947
0.00317385
0.000872567
0.00695947
0.000295049
0.00312466
0.000812657
8012.11
6347.92
5633.29
75934.6
85424.2
78688.7
79370.1
4211.59
4564.59
2550.99
68733.1
43983.5
64384.6
56935.2
1216.29
1233.95
447.677
22717.8
23416.2
40381.3
9454.64
120.641
21.1381
103.035
9624.19
541.532
2822.48
2850.23
0.167365
13.0248
1.0003
33.4492
59.9139
430.868
4.49979
60.0882
45.9063
65.3346
0.308939
1450.19
6.22045
2.88074
0.000645711
0.0597314
0.00303587
1.95666
0.013731
0.267025
0.0963568
6.07762e-06
6.55286e-06
0.000117525
0.000147662
0.000609312
0.00361187
5.58366e-05
8.74599e-07
4.56814e-07
8.45888e-07
1.18852e-05
4.94305e-06
8.97447e-06
5.60326e-06
4537.09
45014.9
10033.1
191875
105559
189012
61319.4
570.85
247.551
132.342
4109.69
2159.12
33.5549
46.2609
1591.1
168.073
677.342
24860.8
2944.13
7770.6
0.212957
12.7273
0.803541
47.0519
13.9996
223.939
2.84983
0.0138568
0.764103
0.00657772
0.0569329
0.0462779
0.0946602
0.00513404
0.00176798
0.0459319
0.00285006
0.0122521
0.801544
0.0466053
0.163748
6.09653e-05
0.00023371
4.76162e-05
0.00155452
0.000554359
0.00297191
0.000472593
3.09985e-06
8.53543e-06
2.29526e-06
2.57988e-05
8.92621e-05
2.61702e-05
8.34169e-05
0.00395424
2.595
0.0131626
0.0132781
0.113053
0.102882
0.000951165
0.000190156
0.00132328
0.00101691
6.24021e-05
0.0045205
0.000108885
7.10338e-05
301.892
3686.03
703.55
45.3134
265.187
19.2012
135.547
0.000241643
0.00256904
15735.7
0.000222252
0.000577457
0.000106557
8.69083e-05
0.000160351
0.00103363
3.98931
0.104685
209505
140078
47600.9
15.5956
0.85118
0.000748665
0.000131467
1.46535e-05
0.000278582
4.02236e-05
4.85497e-05
5.7867e-05
9.74984e-05
8.23018e-06
3.05391e-06
2.09818e-05
3.77246e-05
6.42036e-05
5.47532e-06
1.24758e-05
2.01261e-05
2.61953e-06
3.74293e-05
0.000136295
2.78051e-05
1.23875e-05
1.02963e-05
2.61967e-05
0.0119143
0.00275787
0.000257226
0.0176026
0.000547523
0.0563019
0.00345645
0.253451
0.284361
21.0072
0.862455
1.13498
0.0584973
4.9269
110824
115451
164148
287515
219342
212601
308495
3497.64
4734.63
51331
10586.7
15926.8
1207.76
751.858
5.60249e-09
1.90194e-08
2.31375e-08
1.09139e-09
5.38421e-10
2.92493e-09
1.00408e-09
0.608064
0.00588224
0.0211967
0.0275745
0.00110074
0.0136812
0.000639727
1.9635e-05
3.95645e-05
1.359e-06
0.00103236
5.63511e-05
4.61068e-05
4.44696e-06
1.82481e-08
5.09899e-08
4.78758e-09
2.74938e-06
1.70039e-07
2.37764e-07
5.05097e-08
1.45519e-11
2.18279e-10
0
8.67294e-09
1.32422e-09
2.61934e-09
4.07454e-10
0.26319
0.0150641
0.217508
0.0249991
1.6592
0.0290241
0.0014975
0.0396515
0.000130516
0.00218754
0.00230194
0.00015182
0.000128369
1.27474e-05
0.00013106
5.03083e-06
1.1986e-05
8.92706e-06
7.66959e-07
1.38785e-06
4.21132e-07
1.11599e-06
2.62386e-07
2.51894e-07
7.1348e-08
1.49594e-08
5.68252e-08
1.8641e-08
1.65413
0.944006
0.0880611
0.0352028
0.795861
0.0746855
1.91692
1.1584
0.0224257
0.269662
0.0261082
0.532868
0.0503839
0.638051
0.0870399
0.10459
0.0101664
0.00157656
0.271228
0.0303116
0.00309364
0.0203572
0.000274638
0.00098292
0.000102273
0.00623885
0.000629502
0.00311245
2.45546e-05
9.3511e-05
9.17344e-06
2.14686e-06
0.000311343
1.70729e-05
7.63888e-07
1.50868e-06
1.77824e-07
2.12836e-07
6.82485e-09
8.99629e-07
4.86034e-08
9.12987e-08
1.36788e-09
1.54396e-08
4.94765e-10
1.57161e-09
5.86442e-09
6.34464e-09
1.16415e-10
3.7835e-10
3.7835e-10
8.29459e-10
0
1.17871e-09
0
2.18279e-10
0.0127741
0.30055
0.00146781
0.00850033
0.0274769
0.126275
0.0017238
0.00103231
0.000145148
0.000112807
3.56544e-05
0.00206185
0.000174094
0.000156825
5.07403e-06
9.87764e-06
1.51776e-07
5.04791e-06
1.08055e-06
1.62299e-05
1.45585e-06
6.29007e-07
3.70637e-08
2.34868e-08
6.95291e-08
1.49754e-07
2.41678e-07
2.34519e-07
2.54804e-08
7.54371e-08
4.94183e-08
2.12458e-08
4.38013e-09
5.83532e-09
8.83301e-09
1.37952e-08
7.63976e-09
3.34694e-10
1.27184e-08
2.2701e-09
3.39642e-08
3.89991e-09
2.73576e-09
4.65661e-10
4.36557e-11
3.49246e-10
6.1118e-10
1.44064e-09
9.74978e-10
7.00093e-08
3.00846e-07
4.99684e-07
1.08661e-05
1.3914e-06
3.06859e-06
5.4868e-07
1916.41
0.509024
0.123254
276.821
5227.37
33.607
12.5918
1.958
0.00131208
0.0263961
52.7152
0.139878
0.0803293
0.00762366
0.00137389
7.63288e-05
0.000155823
0.00921788
0.0013416
0.00139609
0.000969494
1.54927e-05
4.75864e-06
4.67538e-06
0.000165674
8.31963e-05
0.000164918
8.44088e-05
4.73673e-05
0.00040272
2.50377e-05
0.000199224
4.92505e-05
0.000386138
1.95454e-05
2.53e-07
6.74961e-07
5.15123e-07
4.96965e-06
2.47773e-06
5.1307e-06
1.97976e-06
8.69964
0.993981
16.4928
0.143144
2.56778
0.078268
1.1887
3.05575
50.184
5.32863
81.9873
23.4086
240.138
339.024
0.00024011
6.1218e-05
8.83812e-06
0.00102678
0.000110858
2.9862e-05
4.14001e-06
3.64446e-05
8.80522e-06
1.08599e-06
4.4499e-05
4.67905e-06
1.08924e-06
1.84533e-07
2.65398e-07
5.24742e-08
8.78936e-09
7.65285e-08
1.24855e-08
1.61526e-09
8.29459e-10
5.82077e-10
4.36557e-11
5.82077e-11
1.16415e-10
1.01863e-10
0
0
0
0
0
1.74623e-10
4.36557e-11
0
0
0.000250135
1.16146e-05
4.47268e-07
1.38971e-08
7.07335e-05
3.21995e-06
1.18031e-07
3.53612e-09
1.13366e-05
4.42771e-07
1.43336e-08
3.34694e-10
2.69634e-06
7.19156e-08
1.81899e-09
0
6.24206e-06
1.45854e-07
3.01225e-09
0
0.00414491
0.00116251
0.000239171
9.76411e-05
0.0002367
0.000923347
3.68027e-05
1.1361e-06
2.93658e-08
6.25732e-10
0
5.28969e-05
2.01643e-06
6.35773e-08
1.77533e-09
0
0
4.15651e-05
2.04575e-06
7.98755e-08
2.663e-09
0
0
0
1.33923e-06
6.72444e-08
2.64845e-09
1.45519e-11
0
0
0
3.77186e-08
1.92085e-09
0
0
0
0
0
574516
654799
468603
466.469
938547
317636
4.74587
1.3099e+06
211640
243083
633216
1.91083
0.207832
955473
48189.1
0.00333059
1.20187e+06
16782.6
375225
149716
535465
1.31549
0.00434826
530465
24.7994
0.000918388
1.02929e+06
24.3747
2649.72
870.481
328719
11222.2
0.035758
0.000529836
496099
177.767
0.0184773
5.1833e-05
1.01501e+06
1782.48
0.746037
0.0798383
0.00185003
7.6084e-05
316164
6746.17
0.105517
0.000609064
5.36392e-06
598791
0.177199
0.00424986
0.000164513
6.49052e-06
7824.18
0.216869
0.000771877
3.03029e-05
9.87842e-07
0.0037774
0.000190059
8.98456e-06
3.69197e-07
0.0252746
0.000854932
4.2951e-05
1.71858e-06
5.91972e-08
0.000407629
3.31522e-05
1.68799e-06
7.20465e-08
2.59024e-09
1.44653e+06
1.3822e+06
624362
1.33479e+06
938111
941641
468563
1.27379e+06
823180
1.45351e+06
1.35974e+06
778258
1.23481e+06
731275
14698.8
1.35484e+06
1.25199e+06
1.3183e+06
1.16294e+06
669972
1.08013e+06
93667.9
546.575
831962
1.19324e+06
1.08393e+06
778837
1.21792e+06
296740
503.076
1.07201e+06
13733.4
1410.02
0.561039
23969.5
33.2903
1.10531e+06
1.13903e+06
425011
10646.6
49592.5
753830
1.16813e+06
357594
359601
844364
29761.1
2668.29
996956
18056.6
46817.2
15.63
2327.04
0.708306
0.265926
836.619
0.129599
1.16868
0.0619665
0.0513856
0.00827508
1.14954e+06
942881
66523.5
39362.5
5057.93
1.24956
0.0650238
703311
91954.8
2818.07
1.18408e+06
1.28977e+06
1.16773e+06
332714
1.24935e+06
718745
789449
5034.37
1.15249e+06
61015.2
1.09681e+06
1.16463e+06
1.06685e+06
794835
871355
383035
775720
654781
240009
72.1073
59.6092
2.54124
101067
562725
1842.91
91134.1
12462.4
62966
11.3361
2.27991
128.929
0.575098
6.59788
0.195533
0.990611
0.0535976
0.00737462
0.0242462
0.00126633
0.0127917
0.00144222
0.00262235
0.000254883
301103
225432
1.42378e+06
1.42761e+06
1.41256e+06
1.4069e+06
1.39273e+06
1.40368e+06
1.25261e+06
1.34826e+06
1.2228e+06
1.31694e+06
1.33546e+06
1.20662e+06
1.26662e+06
1.23862e+06
1.29688e+06
1.31015e+06
1.16829e+06
1.32485e+06
1.18844e+06
1.21967e+06
1.42874e+06
1.39731e+06
1.26459e+06
1.12439e+06
1.14748e+06
234712
758492
908486
286044
923474
319506
234477
1.38361e+06
1.32724e+06
1.36825e+06
1.29606e+06
1.29757e+06
1.3411e+06
1.27378e+06
1.21948e+06
210980
891887
228543
541435
230541
869641
145179
1.12339e+06
974354
1.03761e+06
1.27957e+06
1.24276e+06
1.29577e+06
1.10877e+06
1.34739e+06
1.08454e+06
1.22018e+06
1.28608e+06
1.32027e+06
1.24554e+06
1.07793e+06
1.37701e+06
1.22938e+06
1.00596e+06
1.07636e+06
835968
112969
779890
622134
1.11047e+06
544613
104127
1.03066e+06
717614
817558
502947
609585
263075
5594.57
316407
5725.62
926.609
129871
22085.6
224.621
1.19645e+06
1.04689e+06
1.12251e+06
1.23318e+06
1.03328e+06
1.12987e+06
885795
849568
1.04776e+06
1077.19
240957
1506.69
801.416
15147.3
26417.7
106.851
442669
1914.77
44758.1
953626
1.13703e+06
1.21674e+06
872906
1.2119e+06
677447
1.063e+06
777551
676370
642027
950499
482471
529203
329733
29355.7
254290
181086
732666
200583
32976.1
868053
659503
488978
404792
255305
127439
2421.89
4154.47
222239
572.569
69493.6
146.125
10091.3
1772.4
56260.6
2488.39
173.744
21211.7
4692.41
190.843
129.406
18.6736
0.99508
11.4917
8.49633
320.268
13.5982
0.466166
198.1
34.5381
27.9541
8.62018
7.75437
1.23431
0.127761
0.968155
0.148195
0.00892666
0.565358
0.0544069
0.080533
1.2451e+06
966417
1.11979e+06
769018
1.04683e+06
497477
387257
867705
349682
1262.76
23571
129631
353.872
11148.5
39.4211
22.2536
712.548
1.92815
0.00366679
0.0870058
371639
733958
299253
470873
322883
559920
256042
43617.1
235837
948175
344154
770998
937051
336409
238353
154018
317135
595521
13674.8
801482
61228.4
74699.1
509202
649547
523221
641848
502640
622066
456539
154.29
115119
4522.79
130175
23.4316
62196.1
2162.08
6.28882
9409.61
9.30383
251.794
0.220569
434.245
0.107355
562567
580310
396068
473458
480526
461771
2377.57
502356
1719.07
69221.8
20.3393
4651.35
1.24262
0.0521476
13.5478
0.0570845
0.114916
0.00625831
0.649964
0.0045951
114290
355167
9060.29
135839
1226.74
115323
56.2573
0.837989
619.069
0.469366
83.3754
0.60454
3.74139
0.173068
0.00144884
0.00787389
0.000310356
0.00352178
0.000690784
0.000472375
6.57163e-05
1.29142e+06
1.14715e+06
1.22471e+06
1.19406e+06
1.26598e+06
1.12481e+06
1.16185e+06
1.19566e+06
1.1882e+06
982314
1.23456e+06
1.0887e+06
899554
1.086e+06
494238
594294
392292
570528
179365
576593
17494.5
0.000206472
9.05771e-05
1.71354e-05
0.000278553
7.19735e-05
3.13686e-05
6.55375e-06
741.743
44.7003
0.0181632
0.000455622
1.42703e-05
1.03892e+06
1.38517e+06
982109
993228
2.03557e+06
985362
621158
1.14553e+06
874899
1.06865e+06
981594
1.79395e+06
403520
576846
617575
1.01493e+06
1.28208e+06
1.44741e+06
321416
466270
791820
6266.57
25921.7
230151
0.128076
4.43035
0.00150048
0.000130636
7.78321e-06
3.91694e-07
1.64e-08
0.00419401
5.55391e-05
4.5862e-06
2.82656e-07
1.43918e-08
5.67525e-10
0.000120126
1.42948e-05
1.0736e-06
5.7451e-08
2.56114e-09
1.45519e-11
1.69899e-06
1.39436e-07
8.7166e-09
4.22006e-10
0
3.53174e-06
4.12343e-07
3.07627e-08
1.67347e-09
0
0
1.23631e+06
1.90496e+06
1.07166e+06
1.02194e+06
1.84812e+06
948437
1.79978e+06
996085
950164
1.72286e+06
2.28007e+06
2.08572e+06
1.8649e+06
994800
1.82911e+06
1.00117e+06
985493
1.71482e+06
955292
1.69918e+06
1.28038e+06
963110
1.58691e+06
2.00912e+06
1.73579e+06
1.55399e+06
1.27788e+06
1.62879e+06
860157
1.22099e+06
1.29013e+06
1.51351e+06
1.61282e+06
1.25083e+06
1.81459e+06
1.98894e+06
1.77595e+06
2.52951e+06
2.45293e+06
1.61004e+06
1.71659e+06
1.54409e+06
2.00071e+06
1.81788e+06
1.3085e+06
1.33723e+06
1.21685e+06
1.33463e+06
1.19047e+06
197982
1.62067e+06
1.59728e+06
1.99381e+06
1.88216e+06
1.60162e+06
1.97182e+06
1.61228e+06
1.65263e+06
2.06723e+06
2.04432e+06
1.67553e+06
1.62964e+06
1.8632e+06
1.62746e+06
1.96371e+06
1.60866e+06
1.95945e+06
1.65263e+06
1.53349e+06
1.57349e+06
1.67924e+06
1.77532e+06
1.5738e+06
1.65478e+06
1.53673e+06
1.48254e+06
1.55795e+06
1.53734e+06
1.49039e+06
1.53616e+06
1.75109e+06
1.59245e+06
1.60427e+06
1.57693e+06
1.62964e+06
1.54333e+06
1.47757e+06
1.49387e+06
1.5171e+06
1.47302e+06
2.5406e+06
2.22434e+06
2.47579e+06
2.59823e+06
2.6645e+06
2.15747e+06
2.33305e+06
2.40276e+06
1.62145e+06
1.59043e+06
1.93057e+06
1.67144e+06
1.72696e+06
1.50401e+06
1.54988e+06
1.83211e+06
2.10347e+06
1.74852e+06
2.11017e+06
1.79e+06
1.67585e+06
1.96884e+06
1.80651e+06
1.71625e+06
1.72829e+06
1.94766e+06
1.87067e+06
1.97169e+06
2.06077e+06
1.84925e+06
1.81936e+06
1.77177e+06
1.72558e+06
1.84556e+06
1.74628e+06
1.90961e+06
1.80164e+06
1.56377e+06
1.62429e+06
1.58161e+06
1.67664e+06
1.55352e+06
1.65295e+06
1.55413e+06
1.46797e+06
1.46637e+06
1.47013e+06
1.43724e+06
1.55639e+06
1.64003e+06
1.62973e+06
1.46838e+06
1.65696e+06
1.51669e+06
1.52202e+06
1.45076e+06
1.35691e+06
1.4029e+06
1.4088e+06
2.25472e+06
1.92408e+06
2.1715e+06
2.17832e+06
2.3336e+06
1.83739e+06
1.94427e+06
2.07127e+06
1.45256e+06
1.3987e+06
1.63986e+06
1.39836e+06
1.47503e+06
1.26828e+06
1.33575e+06
1.64082e+06
1.84984e+06
1.77176e+06
1.69966e+06
1.62836e+06
1.66441e+06
1.7443e+06
1.5227e+06
1.73588e+06
1.56788e+06
1.6174e+06
1.47848e+06
1.39223e+06
1.5438e+06
1.3169e+06
1.49316e+06
1.40629e+06
1.32781e+06
1.34546e+06
1.45062e+06
1.48129e+06
1.34921e+06
1.38003e+06
1.56973e+06
1.403e+06
1.42209e+06
1.46098e+06
1.48176e+06
1.32024e+06
1.79824e+06
1.48408e+06
1.64652e+06
1.48642e+06
1.64655e+06
1.36146e+06
1.37101e+06
1.50315e+06
1.03474e+06
1.25003e+06
1.17087e+06
1.11743e+06
1.08336e+06
1.17759e+06
1.0745e+06
1.29265e+06
987516
1.11358e+06
1.01737e+06
716418
890143
685055
908036
698828
844154
676802
942511
1.09648e+06
886841
842404
717498
884901
766333
688573
821579
644802
698698
606135
661500
619870
613606
686104
708265
499253
395268
663724
553897
603379
345838
409351
360477
372814
316080
374051
317663
383988
6123.67
3.19608
0.0433584
0.0140742
0.00152464
0.000584181
4.74653e-05
2.19066e-05
347776
276655
263557
385424
357532
270322
181863
179790
343519
245697
239699
354613
254931
177213
174366
331913
226315
233271
320097
991602
865764
1.10085e+06
614329
420542
419756
820532
363355
398614
773672
342320
586390
1.25379e+06
3.09926e+06
2.83455e+06
2.21202e+06
1.41563e+06
2.14661e+06
2.16258e+06
2.8773e+06
2.2261e+06
2.10985e+06
2.42949e+06
1.95398e+06
1.42244e+06
1.5945e+06
781094
1.22349e+06
486211
870171
1.25933e+06
1.46578e+06
985825
2.81577e+06
3.01502e+06
2.74103e+06
2.75833e+06
1.9922e+06
1.25196e+06
364647
617783
265814
1.64515e+06
1.66475e+06
2.07456e+06
2.12649e+06
1.68149e+06
2.05378e+06
1.63296e+06
2.12178e+06
1.70118e+06
1.68498e+06
2.93781e+06
1.77587e+06
2.25509e+06
1.8632e+06
2.21577e+06
1.85191e+06
1.88825e+06
2.61508e+06
1.74711e+06
1.77838e+06
1.58644e+06
1.5984e+06
1.24768e+06
1.40994e+06
1.78618e+06
851974
1.02838e+06
1.15867e+06
1.07956e+06
957231
914642
1.03384e+06
777116
969284
745515
874227
825648
949972
720751
1.10351e+06
1.11487e+06
982242
1.47609e+06
1.28243e+06
1.30236e+06
1.13211e+06
1.03307e+06
1.16828e+06
1.35178e+06
2.20873e+06
1.27945e+06
2.25343e+06
3.39222e+06
3.17539e+06
1.14294e+06
2.34148e+06
1.01943e+06
2.21479e+06
3.15958e+06
2.67965e+06
1.01593e+06
2.02835e+06
828918
1.40106e+06
2.41538e+06
1.68019e+06
1.76172e+06
1.6991e+06
2.26576e+06
2.19079e+06
1.72266e+06
2.25176e+06
1.72934e+06
1.76014e+06
2.19102e+06
1.73147e+06
2.33957e+06
1.72306e+06
2.25774e+06
1.76277e+06
3.68873e+06
3.29954e+06
3.58969e+06
3.22138e+06
3.49624e+06
3.51619e+06
1.87321e+06
1.8024e+06
2.44783e+06
2.38103e+06
1.82643e+06
1.87534e+06
2.48657e+06
1.84827e+06
2.33773e+06
1.81102e+06
2.26818e+06
1.8781e+06
2.4257e+06
1.75175e+06
3.49968e+06
3.07317e+06
3.39818e+06
2.90899e+06
2.91282e+06
3.19701e+06
1.41546e+06
1.67899e+06
2.03876e+06
1.8148e+06
1.59458e+06
1.50444e+06
1.78809e+06
1.24356e+06
1.60189e+06
1.16622e+06
1.33222e+06
1.32698e+06
1.54724e+06
1.0893e+06
2.59977e+06
2.15597e+06
2.29072e+06
1.90914e+06
1.70982e+06
1.99128e+06
415854
466760
384748
641993
406210
669678
442856
1.16214e+06
702601
659484
1.15265e+06
822714
711884
956609
527508
587951
560814
578008
511249
602597
395195
980524
1.15975e+06
984640
1.11365e+06
983216
1.10855e+06
983640
794946
656359
798527
665942
818137
820095
667228
1.3377e+06
1.42742e+06
1.38103e+06
1.21908e+06
1.30341e+06
1.25638e+06
1.26635e+06
955354
761532
730383
709656
728897
1.00481e+06
924114
1.31219e+06
1.30878e+06
1.29101e+06
1.37168e+06
1.47948e+06
1.44077e+06
1.41099e+06
1.00405e+06
1.09367e+06
986362
1.15698e+06
993340
1.1022e+06
985190
664417
686192
838303
657319
807464
826894
673879
594639
588007
552421
567210
563814
518256
512565
1.32536e+06
1.24028e+06
1.21534e+06
1.18423e+06
1.15232e+06
1.21606e+06
1.12892e+06
1.13695e+06
1.28804e+06
1.24554e+06
1.3385e+06
1.29276e+06
1.17846e+06
1.22284e+06
1.31444e+06
1.21167e+06
1.30634e+06
1.33298e+06
1.30238e+06
1.39087e+06
1.32134e+06
534567
567613
503634
582005
543437
563378
507498
1.13401e+06
1.01458e+06
1.02118e+06
981371
1.08178e+06
1.06675e+06
985192
330912
381608
393916
510226
387674
479326
350795
864243
679473
702248
863583
703727
851460
723794
1.11161e+06
1.19024e+06
1.0526e+06
1.04338e+06
1.14499e+06
1.01372e+06
1.15622e+06
1.2163e+06
1.25567e+06
1.15962e+06
1.1874e+06
1.07742e+06
1.15029e+06
1.10466e+06
543210
518324
534061
473652
491097
484070
466211
1.12792e+06
1.09305e+06
1.2675e+06
1.23567e+06
1.19684e+06
1.29118e+06
1.26692e+06
1.00789e+06
1.03483e+06
1.00116e+06
936565
912618
906815
931957
1.05297e+06
914365
958303
977680
1.04623e+06
953996
908567
914309
718287
701294
698195
610813
699171
887552
581987
526879
564397
505724
577815
593957
502249
1.30137e+06
1.05073e+06
1.30624e+06
1.09852e+06
1.32453e+06
1.21667e+06
1.31897e+06
819125
688720
828283
828549
702673
815779
690196
1.03929e+06
978502
949801
1.07621e+06
1.01619e+06
982780
1.11619e+06
1.08266e+06
1.01268e+06
1.06886e+06
967156
1.11132e+06
986902
1.04794e+06
1.31245e+06
1.02812e+06
1.3031e+06
1.03233e+06
1.03334e+06
1.29986e+06
1.32503e+06
495240
449049
469267
507387
523311
476552
457927
1.27078e+06
1.17209e+06
1.29511e+06
1.12701e+06
1.28824e+06
1.04414e+06
1.26561e+06
1.11795e+06