/*--------------------------------*- C++ -*----------------------------------*\
  =========                 |
  \\      /  F ield         | OpenFOAM: The Open Source CFD Toolbox
   \\    /   O peration     | Website:  https://openfoam.org
    \\  /    A nd           | Version:  9
     \\/     M anipulation  |
\*---------------------------------------------------------------------------*/
FoamFile
{
    format      ascii;
    class       volScalarField;
    location    "0.002";
    object      rho;
}
// * * * * * * * * * * * * * * * * * * * * * * * * * * * * * * * * * * * * * //

dimensions      [1 -3 0 0 0 0 0];

internalField   nonuniform List<scalar> 
14814
(
1.45979
1.225
1.225
1.225
1.225
1.225
1.225
1.225
1.225
2.14074
1.225
1.225
1.22501
1.225
1.225
1.22515
1.225
1.225
1.225
1.22503
1.225
1.225
2.15594
1.23295
1.97605
1.37869
1.23719
2.76213
1.225
2.21032
1.84585
1.93874
1.81007
1.82389
1.68216
2.01271
1.22501
1.225
1.225
1.225
1.225
1.225
1.225
1.22512
1.22501
1.22564
1.22549
1.22504
1.22504
1.22697
1.9146
1.92117
1.79207
1.536
1.34175
1.49921
1.3258
1.225
1.225
1.225
1.225
1.22505
1.22514
1.22522
1.225
1.22855
1.22526
1.22503
1.24116
1.22502
1.22556
1.22572
1.23468
1.25259
1.22731
1.25293
1.22708
2.33265
1.22707
1.68154
1.22502
2.71249
1.33163
1.35747
1.22554
1.225
1.225
1.225
1.225
1.225
1.225
1.225
1.225
1.225
1.225
1.225
1.225
1.225
1.225
1.225
1.225
1.225
1.225
1.225
1.225
1.225
1.225
1.225
1.225
1.225
1.225
1.225
1.225
1.225
1.225
1.225
1.225
1.225
1.225
1.225
1.225
1.225
1.225
1.225
1.225
1.225
1.225
1.225
1.22505
1.225
1.225
1.225
1.225
1.225
1.225
1.225
1.225
1.225
1.225
1.225
1.225
1.225
1.225
1.225
1.225
1.225
1.225
1.225
1.225
1.225
1.225
1.225
1.225
1.225
1.225
1.225
1.225
1.225
1.225
1.225
1.225
1.225
1.225
1.225
1.225
1.225
1.225
1.225
1.225
1.225
1.225
1.225
1.225
1.225
1.225
1.225
1.225
1.225
1.225
1.225
1.225
1.225
1.225
1.225
1.225
1.225
1.225
1.225
1.225
1.225
1.225
1.225
1.225
1.225
1.225
1.225
1.225
1.225
1.225
1.225
1.225
1.225
1.225
1.225
1.225
1.225
1.225
1.225
1.225
1.225
1.225
1.225
1.225
1.225
1.225
1.225
1.225
1.225
1.225
1.225
1.225
1.225
1.225
1.225
1.225
1.225
1.225
1.225
1.225
1.225
1.225
1.225
1.225
1.225
1.225
1.225
1.225
1.225
1.225
1.225
1.225
1.225
1.225
1.225
1.225
1.225
1.225
1.225
1.225
1.225
1.225
1.225
1.225
1.225
1.225
1.225
1.225
1.225
1.22528
1.225
1.225
1.225
1.225
1.225
1.225
1.225
1.225
1.225
1.225
1.225
1.225
1.225
1.225
1.225
1.225
1.225
1.225
1.225
1.225
1.225
1.225
1.225
1.225
1.225
1.225
1.225
1.225
1.225
1.225
1.225
1.225
1.225
1.225
1.225
1.225
1.225
1.225
1.225
1.225
1.225
1.225
1.225
1.225
1.225
1.225
1.22631
1.225
1.225
1.225
1.225
1.225
1.225
1.225
1.225
1.225
1.225
1.225
1.225
1.225
1.225
1.225
1.225
1.225
1.225
1.225
1.225
1.225
1.225
1.225
1.225
1.225
1.225
1.225
1.225
1.225
1.225
1.225
1.225
1.225
1.225
1.225
1.225
1.225
1.225
1.225
1.225
1.225
1.225
1.225
1.225
1.225
1.225
1.225
1.225
1.225
1.225
1.225
1.225
1.225
1.225
1.225
1.225
1.225
1.225
1.225
1.225
1.225
1.225
1.225
1.225
1.225
1.225
1.225
1.225
1.225
1.225
1.225
1.225
1.225
1.225
1.225
1.225
1.225
1.225
1.225
1.225
1.225
1.225
1.225
1.225
1.225
1.225
1.225
1.225
1.225
1.225
1.225
1.225
1.225
1.225
1.225
1.225
1.225
1.225
1.225
1.225
1.225
1.225
1.225
1.225
1.225
1.225
1.225
1.225
1.225
1.225
1.225
1.225
1.225
1.225
1.225
1.225
1.225
1.225
1.225
1.225
1.225
1.225
1.225
1.225
1.225
1.225
1.225
1.225
1.225
1.225
1.225
1.225
1.225
1.225
1.225
1.225
1.225
1.225
1.225
1.225
1.225
1.225
1.225
1.225
1.225
1.225
1.225
1.225
1.225
1.225
1.225
1.225
1.225
1.225
1.225
1.225
1.225
1.225
1.225
1.225
1.225
1.225
1.225
1.225
1.225
1.225
1.225
1.225
1.225
1.225
1.225
1.225
1.225
1.225
1.225
1.225
1.225
1.225
1.225
1.225
1.225
1.225
1.225
1.225
1.225
1.225
1.225
1.225
1.225
1.225
1.225
1.225
1.225
1.225
1.225
1.225
1.225
1.225
1.225
1.225
1.225
1.225
1.225
1.225
1.225
1.225
1.225
1.225
1.225
1.225
1.225
1.225
1.225
1.225
1.225
1.225
1.225
1.225
1.225
1.225
1.225
1.225
1.225
1.225
1.225
1.225
1.225
1.225
1.225
1.225
1.225
1.225
1.225
1.225
1.225
1.225
1.225
1.225
1.225
1.225
1.225
1.225
1.225
1.225
1.225
1.225
1.225
1.225
1.225
1.225
1.225
1.22954
1.225
1.225
1.22815
1.225
1.225
1.225
1.225
1.225
1.22529
1.225
1.225
1.225
1.225
1.225
1.225
1.225
1.225
1.225
1.225
1.225
1.225
1.225
1.225
1.225
1.225
1.225
1.225
1.225
1.225
1.225
1.225
1.225
1.225
1.225
1.225
1.225
1.225
1.225
1.225
1.225
1.225
1.225
1.225
1.225
1.225
1.225
1.225
1.225
1.225
1.225
1.225
1.22609
1.225
1.225
1.22514
1.225
1.225
1.225
1.225
1.225
1.225
1.225
1.225
1.225
1.225
1.225
1.225
1.225
1.225
1.225
1.225
1.225
1.225
1.225
1.225
1.225
1.225
1.225
1.225
1.225
1.225
1.225
1.225
1.225
1.225
1.225
1.225
1.225
1.225
1.225
1.225
1.225
1.225
1.225
1.225
1.225
1.225
1.225
1.225
1.225
1.225
1.225
1.225
1.225
1.225
1.225
1.225
1.225
1.225
1.225
1.225
1.225
1.225
1.225
1.225
1.225
1.225
1.225
1.225
1.225
1.225
1.225
1.225
1.225
1.225
1.225
1.225
1.225
1.225
1.225
1.225
1.225
1.225
1.225
1.225
1.225
1.225
1.225
1.225
1.225
1.225
1.225
1.225
1.225
1.225
1.225
1.225
1.225
1.225
1.225
1.225
1.225
1.225
1.225
1.225
1.225
1.225
1.225
1.225
1.225
1.225
1.225
1.225
1.225
1.225
1.225
1.225
1.225
1.225
1.225
1.225
1.225
1.225
1.225
1.225
1.225
1.225
1.225
1.225
1.225
1.225
1.225
1.225
1.225
1.225
1.225
1.225
1.225
1.225
1.225
1.225
1.225
1.225
1.225
1.225
1.225
1.225
1.225
1.225
1.225
1.225
1.225
1.225
1.225
1.225
1.225
1.225
1.225
1.225
1.225
1.225
1.225
1.22505
1.225
1.225
1.225
1.225
1.22641
1.225
1.225
1.225
2.20974
1.225
1.225
1.225
1.225
1.225
1.22501
1.225
1.225
1.225
1.225
1.225
1.225
1.225
1.225
1.225
1.225
1.225
1.225
1.225
1.225
1.225
1.225
1.225
1.225
1.225
1.225
1.225
1.225
1.225
1.26851
1.2586
1.23391
1.35611
1.22576
1.22965
1.23171
1.22538
1.24065
1.22795
1.22511
1.23057
1.22505
1.225
1.22521
1.225
1.22502
1.22502
1.225
1.225
1.225
1.225
1.22501
1.225
1.225
1.225
1.225
1.225
1.225
1.225
1.225
1.225
1.225
1.225
1.225
1.225
1.225
1.40487
1.60546
1.22911
1.22503
1.35057
1.22506
1.23011
1.225
1.225
1.225
1.225
1.225
1.225
1.225
1.225
1.225
1.225
1.225
1.225
1.225
1.225
1.225
1.22529
1.24035
1.225
1.225
1.22503
1.22579
1.22508
1.225
1.22505
1.225
1.22502
1.225
1.225
1.225
1.225
1.225
1.225
1.225
1.225
1.225
1.225
1.225
1.225
1.225
1.225
1.225
1.225
1.225
1.225
1.225
1.225
1.225
1.225
1.225
1.225
1.225
1.225
1.225
1.225
1.225
1.225
1.225
1.225
1.225
1.225
1.225
1.225
1.225
1.225
1.225
1.225
1.225
1.225
1.225
1.225
1.225
1.225
1.225
1.225
1.225
1.225
1.225
1.225
1.225
1.225
1.225
1.225
1.225
1.225
1.225
1.225
1.225
1.225
1.225
1.225
1.225
1.225
1.225
1.225
1.225
1.225
1.225
1.225
1.225
1.225
1.225
1.225
1.225
1.225
1.225
1.225
1.225
1.225
1.225
1.225
1.225
1.225
1.225
1.225
1.225
1.225
1.225
1.225
1.225
1.225
1.225
1.225
1.225
1.225
1.22906
1.22782
1.22746
1.22527
1.22516
1.22514
1.22531
1.225
1.225
1.225
1.225
1.225
1.225
1.225
1.22678
1.22706
1.22602
1.2252
1.22505
1.2251
1.22512
1.225
1.225
1.225
1.225
1.225
1.225
1.225
1.225
1.225
1.225
1.225
1.225
1.225
1.225
1.225
1.225
1.225
1.225
1.225
1.225
1.225
1.225
1.225
1.225
1.225
1.225
1.225
1.225
1.225
1.225
1.225
1.225
1.225
1.225
1.225
1.225
1.225
1.225
1.225
1.225
1.225
1.225
1.225
1.225
1.225
1.225
1.225
1.225
1.225
1.225
1.225
1.225
1.225
1.225
1.225
1.225
1.225
1.225
1.225
1.225
1.225
1.225
1.225
1.225
1.225
1.225
1.225
1.225
1.225
1.225
1.225
1.225
1.225
1.225
1.225
1.225
1.225
1.225
1.225
1.225
1.225
1.225
1.22546
1.22545
1.22516
1.22502
1.22502
1.22506
1.22501
1.225
1.225
1.225
1.225
1.225
1.225
1.225
1.22504
1.22501
1.22503
1.22501
1.225
1.225
1.225
1.225
1.225
1.225
1.225
1.225
1.225
1.225
1.225
1.225
1.225
1.225
1.225
1.225
1.225
1.225
1.225
1.225
1.225
1.225
1.225
1.225
1.225
1.225
1.225
1.225
1.225
1.225
1.225
1.225
1.225
1.225
1.225
1.225
1.225
1.225
1.225
1.225
1.225
1.225
1.225
1.225
1.225
1.225
1.225
1.225
1.225
1.225
1.225
1.225
1.225
1.225
1.225
1.225
1.225
1.225
1.225
1.225
1.225
1.225
1.225
1.225
1.225
1.225
1.225
1.225
1.225
1.225
1.225
1.225
1.225
1.225
1.225
1.225
1.225
1.225
1.225
1.225
1.225
1.225
1.225
1.225
1.225
1.225
1.225
1.225
1.225
1.225
1.225
1.225
1.225
1.225
1.225
1.225
1.225
1.225
1.225
1.225
1.225
1.225
1.225
1.225
1.225
1.225
1.225
1.225
1.225
1.225
1.225
1.225
1.225
1.225
1.225
1.225
1.225
1.225
1.225
1.225
1.225
1.22501
1.225
1.225
1.225
1.225
1.225
1.225
1.225
1.225
1.225
1.225
1.225
1.225
1.225
1.225
1.225
1.225
1.225
1.225
1.225
1.225
1.225
1.225
1.225
1.225
1.225
1.225
1.225
1.225
1.225
1.225
1.225
1.225
1.225
1.225
1.225
1.225
1.225
1.225
1.225
1.225
1.225
1.225
1.225
1.225
1.225
1.225
1.225
1.225
1.225
1.225
1.225
1.225
1.225
1.225
1.225
1.225
1.225
1.225
1.225
1.225
1.225
1.225
1.225
1.225
1.225
1.225
1.225
1.225
1.225
1.225
1.225
1.225
1.225
1.225
1.225
1.225
1.225
1.225
1.225
1.225
1.225
1.225
1.225
1.225
1.225
1.22501
1.225
1.225
1.225
1.225
1.225
1.225
1.225
1.225
1.225
1.225
1.225
1.225
1.2803
2.08997
1.48824
1.40729
1.65145
1.225
1.2251
1.22512
1.22507
1.22501
1.225
1.22502
1.225
1.225
1.225
1.225
1.225
1.225
1.225
1.26489
1.26326
1.25914
1.38776
1.54509
1.52155
1.396
1.25123
1.24995
1.24163
1.38186
1.41487
1.47819
1.37139
1.23333
1.23284
1.22819
1.31035
1.33836
1.34936
1.27618
1.22589
1.22516
1.22573
1.26791
1.22853
1.24159
1.23957
1.225
1.2251
1.22501
1.22524
1.22544
1.22765
1.22504
1.22541
1.22535
1.22549
1.225
1.23425
1.22505
1.22502
1.225
1.225
1.225
1.22502
1.225
1.225
1.225
1.225
1.225
1.225
1.225
1.225
1.225
1.225
1.225
1.225
1.225
1.225
1.225
1.225
1.225
1.25753
1.49129
1.29179
2.14315
1.74356
2.03876
1.56768
1.22929
1.22687
1.22605
1.25125
1.24049
1.22527
1.22538
1.23678
1.22633
1.23013
1.36862
1.24522
1.2775
1.225
1.22511
1.22501
1.22538
1.22511
1.22673
1.22502
1.225
1.22501
1.225
1.225
1.225
1.225
1.225
1.225
1.225
1.225
1.225
1.22501
1.225
1.225
1.225
1.225
1.225
1.225
1.225
1.225
1.225
1.225
1.225
1.225
1.225
1.225
1.225
1.225
1.225
1.22502
1.225
1.225
1.225
1.225
1.225
1.225
1.225
1.225
1.225
1.225
1.225
1.225
1.22743
1.25225
1.23051
1.22538
1.22716
1.22516
1.22612
1.225
1.225
1.33377
1.225
1.225
1.225
1.225
1.225
1.225
1.22503
1.225
2.23873
1.9775
1.53501
1.22513
1.22501
1.225
1.225
1.225
1.225
1.225
1.225
1.225
1.225
1.225
1.225
1.225
1.225
1.225
1.225
1.225
1.225
1.225
1.225
1.225
1.225
1.225
1.225
1.225
1.225
1.225
1.225
1.225
1.225
1.225
1.225
1.225
1.225
1.22517
1.22501
1.22501
1.225
1.22504
1.83734
1.83728
1.99279
2.42063
1.74402
2.00592
2.3285
1.25183
1.26144
1.55833
1.30014
1.33801
1.23459
1.23101
1.225
1.225
1.225
1.225
1.225
1.225
1.225
1.22501
1.225
1.225
1.225
1.225
1.225
1.225
1.225
1.225
1.225
1.225
1.225
1.225
1.225
1.225
1.225
1.225
1.225
1.225
1.225
1.225
1.225
1.225
1.225
1.225
1.225
1.225
1.225
1.225
1.225
1.225
1.225
1.22501
1.225
1.225
1.225
1.225
1.225
1.225
1.225
1.225
1.225
1.225
1.225
1.225
1.225
1.225
1.225
1.225
1.225
1.225
1.225
1.225
1.225
1.225
1.225
1.22501
1.22501
1.225
1.225
1.22501
1.225
1.22502
1.22501
1.225
1.225
1.225
1.225
1.225
1.22501
1.225
1.225
1.225
1.225
1.225
1.225
1.225
1.225
1.225
1.225
1.225
1.225
1.225
1.225
1.225
1.225
1.225
1.225
1.225
1.225
1.225
1.225
1.225
1.225
1.225
1.225
1.225
1.225
1.225
1.225
1.225
1.225
1.225
1.225
1.225
1.225
1.225
1.225
1.225
1.225
1.225
1.225
1.225
1.225
1.225
1.225
1.225
1.225
1.225
1.225
1.225
1.225
1.225
1.225
1.225
1.225
1.225
1.225
1.225
1.225
1.225
1.225
1.225
1.225
1.225
1.225
1.225
1.225
1.225
1.225
1.225
1.225
1.225
1.225
1.225
1.225
1.225
1.225
1.225
1.225
1.225
1.225
1.225
1.225
1.225
1.225
1.225
1.225
1.225
1.225
1.225
1.225
1.225
1.225
1.225
1.225
1.225
1.225
1.23957
1.225
1.225
1.22721
1.26293
1.22528
1.22511
1.22502
1.225
1.225
1.22544
1.225
1.225
1.225
1.225
1.225
1.225
1.225
1.225
1.225
1.225
1.225
1.225
1.225
1.225
1.225
1.225
1.225
1.225
1.225
1.225
1.225
1.225
1.225
1.225
1.225
1.225
1.225
1.225
1.225
1.225
1.225
1.22507
1.22501
1.22514
1.225
1.22502
1.225
1.22501
1.22503
1.22542
1.22505
1.22568
1.2252
1.22698
1.2278
1.225
1.225
1.225
1.225
1.225
1.225
1.225
1.225
1.225
1.225
1.225
1.225
1.225
1.225
1.225
1.225
1.225
1.225
1.225
1.225
1.225
1.225
1.225
1.225
1.225
1.225
1.225
1.225
1.225
1.225
1.225
1.225
1.225
1.225
1.225
1.225
1.225
1.225
1.225
1.225
1.225
1.225
1.225
1.225
1.225
1.225
1.225
1.225
1.225
1.225
1.225
1.225
1.225
1.225
1.225
1.225
1.225
1.225
1.225
1.225
1.225
1.225
1.225
1.225
1.225
1.225
1.225
1.225
1.225
1.225
1.225
1.225
1.225
1.225
1.225
1.225
1.225
1.225
1.225
1.225
1.225
1.225
1.225
1.225
1.225
1.225
1.225
1.225
1.225
1.225
1.225
1.225
1.225
1.49397
1.22094
2.89961
1.22875
2.54135
2.89092
1.22504
2.81347
1.96077
2.46591
1.57797
1.22502
1.225
3.42292
1.53387
1.225
3.20611
1.3163
3.11715
2.05775
3.3166
1.22501
1.225
3.58457
1.22521
1.225
3.65185
1.22519
1.24625
1.23216
2.64351
1.30953
1.225
1.225
3.73354
1.22649
1.225
1.225
4.26751
1.23613
1.22501
1.225
1.225
1.225
2.74313
1.27741
1.225
1.225
1.225
3.65513
1.225
1.225
1.225
1.225
1.28522
1.225
1.225
1.225
1.225
1.225
1.225
1.225
1.225
1.225
1.225
1.225
1.225
1.225
1.225
1.225
1.225
1.225
1.225
2.32661
2.57353
3.65214
2.87245
3.84383
2.69819
3.3553
3.18609
3.60344
2.34078
2.53787
3.0992
3.03823
3.0779
1.30659
2.79963
3.85236
2.70064
3.47793
3.01546
3.60154
1.58585
1.22871
4.40434
4.03743
5.32919
4.39721
4.73125
2.20089
1.22898
3.91721
1.29431
1.23611
1.225
1.33484
1.22526
3.64656
4.32639
2.54107
1.28091
1.42553
4.47185
4.94026
2.2891
3.03766
4.53178
1.40246
1.24616
4.42464
1.31227
1.55372
1.22513
1.2414
1.22501
1.225
1.23059
1.225
1.22501
1.225
1.225
1.225
4.70808
4.68856
1.54669
1.38936
1.25635
1.22501
1.225
3.83867
1.75457
1.24431
3.39369
2.84904
3.39962
2.90999
3.43627
3.39037
4.16722
1.26136
3.9526
1.4761
3.50623
3.37036
3.5459
3.3691
3.4925
2.44854
3.55018
3.43649
2.06621
1.22554
1.22545
1.22502
1.89755
3.79673
1.23902
1.83356
1.31923
1.66114
1.2251
1.22502
1.22605
1.225
1.22506
1.225
1.22501
1.225
1.225
1.225
1.225
1.225
1.225
1.225
1.225
2.59515
2.30819
2.2605
2.36276
2.30409
2.43313
2.60291
2.40178
3.90008
2.92177
3.61163
2.91298
2.97423
3.62802
3.87107
4.01933
3.00655
3.38129
3.77322
3.11563
3.68411
4.21491
2.37542
2.43146
2.915
3.46058
3.41949
1.51189
3.08503
3.17398
2.00785
3.13407
2.04003
1.56884
2.92991
3.10941
3.3989
3.49538
4.46502
3.97218
2.92711
3.20686
1.65998
3.23552
1.91469
2.79838
1.62648
3.28592
1.71534
3.50298
3.58523
3.58617
4.89114
4.64587
3.955
4.04738
4.63048
4.44224
4.21786
5.14371
4.53164
5.33951
4.32203
5.25998
4.47355
4.66525
4.58913
3.56563
1.67691
3.52722
3.28935
4.18377
3.16993
1.63495
4.25391
3.28627
3.48855
2.92744
3.21126
2.10338
1.25741
2.24986
1.25823
1.23115
1.72449
1.32789
1.22663
3.5527
3.73261
3.78828
4.05393
4.02263
4.01432
3.55948
3.57272
3.85665
1.23059
2.04866
1.23393
1.23039
1.27888
1.34527
1.22576
2.58853
1.23692
1.41128
5.00384
5.35867
5.0231
4.45518
5.31998
4.27795
4.98363
4.44104
4.04093
4.10384
4.85493
3.649
3.85366
2.72715
1.43507
2.53506
2.29255
4.32094
2.45277
1.40604
4.60166
3.36719
3.07339
2.87373
2.48089
1.73011
1.24134
1.25034
2.00066
1.22894
1.53429
1.22612
1.27927
1.23853
1.49924
1.24485
1.22634
1.36972
1.25385
1.22659
1.22605
1.22515
1.22501
1.22509
1.22507
1.22732
1.22512
1.225
1.22646
1.22527
1.22522
1.22507
1.22506
1.22501
1.225
1.22501
1.225
1.225
1.225
1.225
1.225
4.85372
4.49178
4.96182
4.30964
4.97296
3.16715
2.92691
4.50067
2.35256
1.23313
1.33321
1.75138
1.22757
1.28436
1.2253
1.22518
1.22983
1.22502
1.225
1.225
2.69261
3.40773
2.37148
3.23619
2.29044
3.40526
2.37965
1.45738
1.48178
3.12374
2.06165
3.08763
3.12102
2.04924
1.48032
1.60027
2.25988
2.9438
1.28768
3.27374
1.46188
1.43879
2.42326
1.88784
3.09171
1.35695
2.56079
1.93351
3.08561
1.22628
1.69373
1.25292
2.00006
1.2252
1.49189
1.23917
1.22505
1.27767
1.22508
1.22703
1.225
1.22812
1.225
3.16637
3.09503
2.35667
3.29021
3.24768
3.38935
1.24294
3.29306
1.23808
1.68258
1.22517
1.26035
1.22501
1.225
1.22511
1.225
1.225
1.225
1.22501
1.225
1.97192
2.9474
1.29362
2.09995
1.23502
1.97974
1.22548
1.22501
1.23009
1.225
1.22571
1.22501
1.22503
1.225
1.225
1.225
1.225
1.225
1.225
1.225
1.225
3.75862
3.85362
3.69112
4.39187
4.1708
3.89934
4.45547
3.87009
4.48942
3.76883
4.43971
3.89811
3.99519
4.37106
2.95065
2.33186
2.99191
3.04803
2.18368
2.78987
1.34165
1.225
1.225
1.225
1.225
1.225
1.225
1.225
1.2311
1.22538
1.225
1.225
1.225
0.700933
0.971547
1.3805
1.31952
1.46903
0.761014
2.20911
1.24201
1.47206
1.17066
1.75944
1.79446
1.48429
1.61716
1.77656
2.16829
4.86119
2.96816
2.59434
1.08515
3.54049
1.27383
1.41344
2.57433
1.225
1.22504
1.225
1.225
1.225
1.225
1.225
1.225
1.225
1.225
1.225
1.225
1.225
1.225
1.225
1.225
1.225
1.225
1.225
1.225
1.225
1.225
1.225
1.225
1.225
1.225
1.225
1.225
1.225
1.225
1.10623
1.28129
1.06176
1.16077
1.44991
2.02096
1.45703
1.53091
2.14476
1.63937
1.2895
1.44983
1.64035
1.57646
1.59914
1.59656
2.95966
2.46295
2.84984
1.80032
3.82141
4.35966
2.71526
1.59345
2.38525
2.60385
4.50576
2.90622
3.10173
5.1717
4.84684
3.20822
2.74883
4.44519
1.69489
1.49472
1.72499
1.29315
1.46783
2.04314
2.01598
2.26227
2.27872
2.66486
3.23868
3.4677
3.75357
4.6662
5.05745
2.45517
1.14513
1.24961
1.13858
1.30748
1.27649
1.16311
1.12038
1.07431
1.16578
1.08536
1.15464
1.1897
1.35667
1.42459
1.2955
1.32622
1.20852
1.27888
1.64035
1.40817
1.67715
1.48589
1.43723
1.7093
1.60838
1.90802
1.95544
1.99004
1.87163
1.70188
1.53882
1.60162
1.87336
1.49278
1.76602
1.82402
1.98026
2.16987
2.05193
2.12882
1.14424
1.31278
1.16672
1.1676
1.08896
1.36032
1.29601
1.21198
1.98211
2.01628
1.54462
1.88142
1.77822
2.17706
2.07152
1.47803
1.29359
1.28664
1.47385
1.64085
1.58759
1.4334
1.81762
1.42529
1.83122
1.63062
1.7318
2.00955
1.7125
2.04359
1.93405
2.10482
2.59415
2.22931
2.16429
1.89568
2.30451
2.34163
1.78256
2.04465
2.03347
2.02914
2.0562
2.28848
2.75407
2.35717
2.37892
2.61927
2.77682
2.33635
2.93282
3.02108
2.43231
2.60813
3.37623
3.27677
3.44897
2.97414
3.96763
1.43054
1.80009
1.61871
1.9631
1.69219
2.06781
2.16867
1.86499
2.33674
2.54633
2.2904
2.83709
2.52811
3.15162
2.81022
2.88686
2.3582
2.41868
2.77521
3.38456
3.16712
2.63102
3.49583
2.77043
3.95361
3.12985
3.48526
4.01373
3.31711
4.16104
4.18928
4.28936
5.45069
4.61217
4.9064
3.81639
4.98341
4.93773
3.63098
3.58982
3.89339
4.18521
4.55631
4.19793
2.51894
3.19433
2.94423
3.90451
3.18559
3.83859
4.31602
3.53441
4.83794
4.67858
4.69217
5.00546
1.32578
1.00819
1.0937
1.00806
1.38027
1.06108
1.15579
1.22645
1.3065
1.7399
1.41581
1.24543
1.52302
1.81723
1.49769
1.17858
1.59186
1.55568
1.39958
1.63668
2.95229
1.38547
1.7783
2.20936
1.54655
2.60514
2.43142
2.4383
1.50105
2.18509
3.35119
1.27082
1.82222
2.31261
3.07607
2.65587
2.20061
1.90021
2.64135
1.8463
2.66766
1.95585
2.7126
1.29171
1.27286
1.22503
1.225
1.225
1.225
1.225
1.225
1.225
2.75338
1.67727
2.18128
2.41472
2.68055
1.93939
1.21855
1.44733
1.45262
0.792063
0.94938
1.21828
2.31548
1.70516
1.92136
1.74028
1.43675
1.16876
2.06203
4.71281
4.29436
4.91784
2.57555
3.13647
2.26161
2.19716
1.57544
2.5957
2.75909
1.96649
3.0698
1.00567
0.924965
1.17451
2.04351
4.02778
0.921499
1.05391
1.05676
1.17287
1.80901
1.77879
2.09625
3.37749
3.35063
3.18796
3.25762
2.90344
4.28534
3.95561
3.31114
4.50791
1.02476
0.947102
1.04715
1.33933
2.36199
4.63309
2.24978
3.75735
2.70583
1.0345
0.917546
1.02066
0.943961
0.939586
1.04403
1.01155
0.980783
1.04582
0.974508
0.984341
1.16543
1.34113
1.33835
1.55593
1.81412
1.5574
1.54427
2.11185
2.43378
2.47255
2.85689
3.41756
2.91682
2.78334
2.90382
3.19183
2.72467
3.65191
2.66218
3.50882
2.99395
3.16536
4.06548
3.89018
3.62942
3.7805
3.28808
3.43759
3.87309
4.47342
4.23205
2.74002
3.80728
3.07328
4.26025
3.78136
3.44004
0.845103
0.83668
0.887721
0.956005
0.839602
0.959529
1.06032
1.06615
1.41602
1.63081
1.06969
1.61085
1.84533
1.86146
2.62835
2.84709
1.82396
2.82626
0.782336
0.835028
0.762543
0.857821
0.856261
0.782064
0.762342
0.809153
0.890456
0.949408
0.869654
0.886723
0.811672
0.863693
0.764724
0.860907
0.784285
0.89364
0.87383
0.814527
1.10178
1.05716
0.969674
1.22379
0.959457
1.21423
1.1162
1.27482
1.41672
1.62083
1.47089
1.40752
1.29008
1.45585
0.974865
1.2259
1.12182
1.41158
1.45714
1.28948
1.84897
1.85526
1.65363
2.12287
1.64166
2.12806
1.85515
2.10413
2.44801
2.84006
2.42194
2.46185
2.10939
2.39651
1.62642
2.07332
1.8196
2.40037
2.3997
2.07384
2.78662
1.52584
1.2517
2.1035
1.01895
1.72392
1.863
0.599894
1.10752
0.795704
1.2041
1.30213
1.23542
1.16851
0.922751
1.24501
0.898336
1.17455
1.00749
1.38713
1.69238
0.651685
0.740378
0.725021
0.634612
0.694736
0.701629
0.728394
0.717937
0.815616
0.753717
0.860877
0.771948
0.793539
0.875648
0.987733
1.01958
1.03547
1.08478
1.1333
1.14002
1.06929
0.751063
0.871465
1.02687
1.11128
0.994827
1.25298
1.13472
0.86803
0.860273
0.838074
0.787936
0.776546
0.796608
0.767838
1.28621
1.25057
1.26165
1.03711
1.00323
0.972283
0.894017
1.26293
1.10641
1.18368
0.918619
0.941074
0.872332
0.916849
0.865118
0.877489
0.906494
0.94738
0.959333
0.996055
1.00957
1.05581
1.12798
1.09052
1.10363
1.21564
1.14589
1.19317
1.03511
0.92855
0.952152
0.943178
0.962143
1.04808
1.02712
0.884466
0.95118
0.947215
0.807594
0.864957
0.811638
0.861168
1.07059
1.0933
1.09987
0.929608
0.935212
0.989061
1.03601
1.22219
1.4056
1.41839
1.59792
1.35155
1.35195
1.5185
2.43438
1.56912
1.54305
0.943143
1.61108
1.01745
2.02442
1.64923
1.63133
1.86275
1.84687
1.56779
1.59404
1.99594
1.19053
1.24084
1.28827
1.31188
1.23643
1.29838
1.1762
0.973893
0.981709
1.05069
1.06237
1.14911
1.07038
1.16209
0.911113
0.933577
0.919295
1.05036
1.02056
1.03709
1.06947
1.00301
1.03208
1.03178
0.920726
0.946476
0.941099
0.917093
0.695696
0.753452
0.738894
0.754549
0.750716
0.776084
0.782828
0.688523
0.866165
0.765802
0.787966
0.72366
0.791441
0.886686
0.850749
1.21475
1.29482
1.30068
2.47339
1.44025
1.08871
1.98395
1.49198
1.96542
1.88654
1.46459
2.01276
1.32474
1.05577
1.22036
1.21382
1.09856
1.09626
0.959626
0.956168
0.982912
0.963875
0.86062
0.878283
1.13036
1.00117
0.979598
1.12503
1.19062
1.22443
1.14166
1.21904
1.24543
1.11759
1.20864
1.30373
1.30368
1.41619
1.23072
1.31528
1.30399
1.40882
1.62547
1.62264
1.43339
1.26409
1.44397
1.26598
0.993325
1.15001
1.11595
0.952056
0.939806
1.06422
1.10164
1.06536
0.971147
0.970144
1.04508
1.0426
1.14619
1.14785
1.19314
1.39225
1.3729
1.29978
1.53898
1.57312
1.31997
1.2416
1.09676
1.17159
0.867433
0.891589
0.866624
0.934775
1.18354
1.21024
1.13772
0.97586
0.93242
0.871553
0.900299
2.78045
1.84698
1.47794
3.06779
1.66374
2.16086
3.17731
1.61426
1.91254
1.8877
2.23695
1.85448
1.89596
2.23297
2.1159
1.85305
2.09125
1.78772
1.60257
1.8259
1.62522
1.12386
1.10194
1.08629
0.922211
1.16717
1.04043
1.01414
1.07085
1.27481
1.09037
1.34652
1.14069
1.16439
1.3813
2.55432
2.23348
2.4684
1.69433
2.49461
2.16094
1.52559
0.699204
0.776297
0.731017
0.826228
0.758874
0.780898
0.844554
1.47237
1.39548
1.39254
1.35952
1.36796
1.39678
1.47443
1.37886
1.26267
1.25648
1.16911
1.39699
1.27905
1.27306
1.76741
1.45029
1.6322
1.52152
1.49309
1.5628
1.87568
2.19353
2.34433
2.51895
2.65877
2.9775
2.49909
2.46525
1.80291
1.12052
1.49911
1.62466
1.23294
1.2436
1.42689
1.51667
1.18642
1.26322
1.31955
1.1226
1.2013
1.43698
0.95703
0.990104
1.0089
1.09216
1.11305
1.16363
1.18941
1.09335
1.12554
1.1328
1.19637
1.22129
1.22987
1.24883
1.96118
1.41938
1.42183
1.88045
1.532
1.961
1.99681
1.1664
1.04969
1.07971
0.855328
0.873169
0.845552
0.886595
1.16562
1.35841
1.34564
1.494
1.2912
1.28675
1.51505
2.76365
2.43085
2.3762
2.20033
2.31393
1.99683
2.06525
1.09016
1.2043
1.30106
0.981105
1.04173
1.14998
1.234
2.16189
2.30996
2.17331
0.971568
1.17956
1.27042
1.08254
1.23196
1.41395
1.18252
1.20908
1.52431
1.45199
1.25994
1.49364
1.35299
1.38162
1.52356
1.35447
1.41279
1.61066
1.6298
1.82763
1.72753
1.37587
1.80709
1.90189
1.38421
0.809711
0.877382
0.808663
0.825805
0.881686
0.888174
0.828572
1.17325
1.3825
1.27255
1.25682
1.40034
1.29684
1.26571
1.44659
1.33868
1.47729
1.48634
1.33658
1.35991
1.46661
0.987422
0.871502
1.0056
0.954331
0.970441
1.12466
1.14417
1.57453
1.86699
1.83944
1.7684
2.172
1.81096
2.1027
1.43544
1.95429
1.73205
1.78261
1.62589
1.46377
1.99751
2.65569
2.09708
2.71756
2.74299
3.0084
2.32365
1.93005
1.60826
1.37887
1.31757
1.25294
1.59244
1.51587
1.30833
1.15297
1.25122
1.25254
1.49304
1.27541
1.38631
1.38791
1.00395
1.07268
1.03606
0.868943
0.911872
0.917481
0.877593
1.13441
1.32542
1.15705
1.52784
1.31256
1.33976
1.5656
1.08776
1.12669
1.23588
0.91801
1.04469
1.00525
1.17695
2.49375
2.14085
2.51728
3.0005
2.60548
2.5059
3.10823
1.38961
1.70269
1.54282
1.53827
1.53481
1.40224
1.69084
2.45075
2.63336
2.14124
2.1619
2.54222
2.35047
2.46091
2.66399
2.74469
3.02977
2.47022
2.37416
2.536
2.7464
0.9159
0.916895
0.829101
0.843587
1.0397
0.927936
0.929034
1.25573
1.51968
1.52859
1.51043
1.34812
1.31661
1.51475
1.72871
1.98476
1.89498
1.62377
1.47132
1.41735
1.60629
1.50059
1.28077
1.2506
1.09699
1.12134
1.30341
1.33609
1.56227
1.47043
1.35896
1.35213
1.50271
1.38787
1.5311
1.82988
1.38631
1.73924
1.42483
1.77419
1.3929
1.89846
1.66245
1.42453
1.57765
1.89671
1.42234
1.69219
1.85572
2.35292
3.30429
3.06759
3.26558
2.47545
2.52106
2.57923
1.68044
3.14341
2.08706
2.78374
3.2731
1.48238
1.34599
1.01397
1.03369
1.00243
0.879744
1.06266
0.954251
0.959186
1.69838
1.26048
1.44006
1.37155
1.19448
1.38022
1.62222
1.51785
1.63018
1.67774
1.78441
1.83585
2.02516
2.0916
2.49884
2.39408
1.22867
1.49652
1.22611
1.23054
2.42391
1.95778
2.34239
2.65568
2.19178
2.6556
2.52932
2.27382
1.75334
1.45774
1.99507
1.37435
1.56539
1.88479
2.12943
1.29168
1.61379
1.32136
1.73556
1.39699
1.43425
1.79472
3.33979
2.9172
2.89839
4.03751
3.51677
3.58564
3.49456
1.44746
2.37114
1.6962
2.20765
1.93439
1.6453
1.6256
1.7102
1.40247
1.33001
1.22289
1.46857
1.16226
1.38974
1.62665
1.40585
1.71924
1.56021
1.56949
1.44374
1.7625
1.21006
1.5396
1.58804
1.54023
1.29187
1.29115
1.63599
1.80168
1.45022
1.58795
1.68896
1.37298
1.49619
1.88923
2.02435
1.86471
2.34845
1.57932
1.75504
1.9157
2.19811
2.61929
1.24861
1.24656
1.22614
1.22501
1.225
1.225
1.225
1.26649
1.225
1.225
1.225
2.32277
1.86618
2.40377
2.61528
2.59359
1.32432
2.69011
1.96377
3.05853
2.88589
2.69718
2.62191
1.67077
1.50195
2.97094
1.99136
2.35208
2.54237
2.77899
2.0632
2.24718
2.41489
1.72291
1.895
1.85965
1.62045
1.65373
1.61199
1.59313
2.01827
2.21038
2.47098
2.27662
1.80611
1.98344
2.1753
1.79762
1.96264
1.80358
1.4123
1.82397
1.53514
1.86518
2.72247
2.61319
2.22173
2.22881
3.11695
2.1586
1.891
1.07305
1.23202
1.08861
1.46464
1.28071
1.3025
1.48934
0.987278
0.98375
1.00044
1.16564
1.18596
1.2075
1.18664
2.46111
2.66743
2.44081
2.27342
2.69074
1.52913
2.34423
1.49909
1.30073
1.61711
1.39421
1.70082
1.57293
2.0228
1.74001
1.90819
1.79424
2.41271
2.22444
2.30782
2.49534
1.49403
1.89499
1.70236
2.19349
2.02817
2.26748
2.4051
2.69507
2.22779
2.62564
2.69307
2.58234
1.22542
1.29983
1.95696
2.39251
2.14816
1.8635
1.55109
1.67453
1.71081
2.07412
3.11933
2.34944
2.13796
2.38948
2.85427
2.88197
1.57308
1.16805
1.38357
1.25757
1.11568
1.33421
1.52447
1.0687
1.28799
1.30984
1.00929
1.02629
1.24499
1.22414
2.15675
2.32746
2.00418
2.53768
2.75397
2.18824
1.95917
2.68901
3.03745
3.58351
4.12312
3.7724
3.18712
2.59229
1.97684
2.16353
2.11869
1.797
1.66893
1.70514
1.76113
4.27955
3.70174
3.68276
3.14896
3.52105
2.96186
3.75081
2.00378
1.97068
2.22993
1.94587
1.74215
1.67819
1.8495
2.01515
2.61694
2.76821
2.01068
1.88422
2.43892
2.61628
1.04614
1.19669
1.0607
1.41412
1.25821
1.28129
1.44055
2.3923
1.99926
1.76335
2.14092
2.00456
2.45341
2.0867
1.64634
1.80032
1.64659
1.74488
1.32785
1.72368
1.47266
2.37339
1.9359
1.86845
2.01298
1.58402
1.63127
2.08762
1.96934
2.24423
1.6816
2.12485
1.81829
2.36736
2.55358
1.46859
1.80261
1.50923
1.80537
1.86766
2.27587
2.34476
1.22533
1.52216
1.53814
1.63201
1.4014
1.41998
1.62783
1.77854
1.81955
1.52195
1.55346
2.26939
1.81569
1.86592
1.13825
1.55146
1.38345
1.22368
1.08605
1.32015
1.48458
0.599396
0.586761
0.586009
0.558823
0.591116
0.540946
0.602101
0.605732
0.554483
0.546009
0.539777
0.601669
0.553732
1.04767
0.625655
0.662886
0.667412
0.710625
0.726532
1.05044
1.09216
0.733323
1.09388
1.13629
1.195
1.18877
0.575516
0.625912
0.658182
0.607619
0.624797
0.575989
0.603786
0.628327
0.611651
0.577964
0.736675
0.717266
0.659159
0.836249
0.651277
0.818923
0.751907
0.854338
0.970806
1.07331
0.988859
0.948745
0.875716
0.969968
0.665421
0.846509
0.761612
0.980329
0.993865
0.886406
1.15585
1.18049
1.0796
1.29751
1.0657
1.28655
1.16641
1.07795
1.28592
1.16022
0.909315
1.09025
1.47006
0.625946
0.633854
0.715849
1.34211
1.48909
0.75542
0.525413
0.667247
0.690853
0.649728
0.638582
0.944921
1.01276
0.784458
0.807942
1.33186
1.51739
0.73459
1.49491
2.56054
0.638432
0.679504
0.724525
0.72933
0.801047
0.698234
0.655282
0.715585
0.888138
1.02502
0.716719
0.641726
0.696752
0.655365
0.658177
0.71493
0.698358
0.740518
0.681099
0.719136
0.793075
0.679498
0.742504
0.787322
0.683741
0.797763
0.745207
0.999812
0.790802
0.881763
0.871199
1.01683
1.4162
1.31191
1.75718
1.97757
2.0904
1.16368
1.20277
1.2001
1.32406
1.64437
1.803
1.79123
1.98493
2.02974
2.38087
2.41566
0.934171
1.456
1.43254
1.60754
2.3076
2.14133
2.53675
2.93412
2.84074
3.39429
0.924418
0.906477
1.15525
1.06868
1.18472
1.32795
1.17404
1.31111
1.07566
1.31992
1.17742
1.62358
1.30968
1.47508
1.45054
1.46179
1.43911
1.63341
1.82339
1.61026
1.77904
2.07881
1.59851
1.83432
2.05148
1.59226
2.06227
1.80802
2.44553
1.9466
2.31004
2.13641
2.26088
2.09217
2.51049
2.63701
2.27212
2.39969
2.90099
2.22992
2.70679
2.88
2.30097
2.99812
2.79399
0.883548
0.679479
0.854006
0.710317
0.921821
0.688524
0.892799
0.828344
1.14179
0.791175
1.06798
1.01254
1.43501
1.42714
1.21557
1.3512
1.65384
1.84269
1.4193
1.46291
2.13926
1.60353
1.04662
0.994506
2.07081
0.914365
1.25286
1.65808
1.45806
1.58011
1.57174
1.55283
1.7271
1.72013
1.26278
1.42676
1.56017
1.39621
1.41538
1.27392
1.37991
1.41471
1.39113
1.2665
1.58313
1.69653
1.51663
1.84187
1.49261
1.81108
1.60534
1.51215
1.83884
1.59845
1.67536
2.00118
1.97876
1.79192
1.85374
1.73708
2.35298
3.12563
1.65676
1.93487
2.02709
1.70371
1.91242
1.6687
1.73522
1.92973
1.65455
1.64957
1.48827
1.02227
1.40881
1.08253
2.29507
1.27935
1.78607
1.69409
1.27365
1.25828
0.720798
1.233
0.850235
1.44299
1.08212
0.456341
0.765657
0.646414
0.932019
0.475805
0.54442
0.987138
0.926554
1.2639
1.16442
0.588808
1.13828
0.761977
1.33686
0.845478
1.23879