/*--------------------------------*- C++ -*----------------------------------*\
  =========                 |
  \\      /  F ield         | OpenFOAM: The Open Source CFD Toolbox
   \\    /   O peration     | Website:  https://openfoam.org
    \\  /    A nd           | Version:  9
     \\/     M anipulation  |
\*---------------------------------------------------------------------------*/
FoamFile
{
    format      ascii;
    class       volScalarField;
    location    "0.002";
    object      rho.air;
}
// * * * * * * * * * * * * * * * * * * * * * * * * * * * * * * * * * * * * * //

dimensions      [1 -3 0 0 0 0 0];

internalField   nonuniform List<scalar> 
14814
(
1.45966
1.225
1.225
1.225
1.225
1.225
1.225
1.225
1.225
2.13998
1.225
1.225
1.22501
1.225
1.225
1.22515
1.225
1.225
1.225
1.22503
1.225
1.225
2.15568
1.23295
1.97589
1.37868
1.23719
2.76152
1.225
2.20983
1.84522
1.93832
1.80997
1.82371
1.68207
2.01249
1.22501
1.225
1.225
1.225
1.225
1.225
1.225
1.22512
1.22501
1.22564
1.22549
1.22504
1.22504
1.22697
1.91449
1.92093
1.79196
1.53597
1.34174
1.49918
1.32579
1.225
1.225
1.225
1.225
1.22505
1.22514
1.22522
1.225
1.22855
1.22526
1.22503
1.24115
1.22502
1.22556
1.22572
1.23468
1.25259
1.22731
1.25293
1.22708
2.33245
1.22707
1.68148
1.22502
2.71173
1.33162
1.35746
1.22554
1.225
1.225
1.225
1.225
1.225
1.225
1.225
1.225
1.225
1.225
1.225
1.225
1.225
1.225
1.225
1.225
1.225
1.225
1.225
1.225
1.225
1.225
1.225
1.225
1.225
1.225
1.225
1.225
1.225
1.225
1.225
1.225
1.225
1.225
1.225
1.225
1.225
1.225
1.225
1.225
1.225
1.225
1.225
1.22505
1.225
1.225
1.225
1.225
1.225
1.225
1.225
1.225
1.225
1.225
1.225
1.225
1.225
1.225
1.225
1.225
1.225
1.225
1.225
1.225
1.225
1.225
1.225
1.225
1.225
1.225
1.225
1.225
1.225
1.225
1.225
1.225
1.225
1.225
1.225
1.225
1.225
1.225
1.225
1.225
1.225
1.225
1.225
1.225
1.225
1.225
1.225
1.225
1.225
1.225
1.225
1.225
1.225
1.225
1.225
1.225
1.225
1.225
1.225
1.225
1.225
1.225
1.225
1.225
1.225
1.225
1.225
1.225
1.225
1.225
1.225
1.225
1.225
1.225
1.225
1.225
1.225
1.225
1.225
1.225
1.225
1.225
1.225
1.225
1.225
1.225
1.225
1.225
1.225
1.225
1.225
1.225
1.225
1.225
1.225
1.225
1.225
1.225
1.225
1.225
1.225
1.225
1.225
1.225
1.225
1.225
1.225
1.225
1.225
1.225
1.225
1.225
1.225
1.225
1.225
1.225
1.225
1.225
1.225
1.225
1.225
1.225
1.225
1.225
1.225
1.225
1.225
1.225
1.225
1.22528
1.225
1.225
1.225
1.225
1.225
1.225
1.225
1.225
1.225
1.225
1.225
1.225
1.225
1.225
1.225
1.225
1.225
1.225
1.225
1.225
1.225
1.225
1.225
1.225
1.225
1.225
1.225
1.225
1.225
1.225
1.225
1.225
1.225
1.225
1.225
1.225
1.225
1.225
1.225
1.225
1.225
1.225
1.225
1.225
1.225
1.225
1.22631
1.225
1.225
1.225
1.225
1.225
1.225
1.225
1.225
1.225
1.225
1.225
1.225
1.225
1.225
1.225
1.225
1.225
1.225
1.225
1.225
1.225
1.225
1.225
1.225
1.225
1.225
1.225
1.225
1.225
1.225
1.225
1.225
1.225
1.225
1.225
1.225
1.225
1.225
1.225
1.225
1.225
1.225
1.225
1.225
1.225
1.225
1.225
1.225
1.225
1.225
1.225
1.225
1.225
1.225
1.225
1.225
1.225
1.225
1.225
1.225
1.225
1.225
1.225
1.225
1.225
1.225
1.225
1.225
1.225
1.225
1.225
1.225
1.225
1.225
1.225
1.225
1.225
1.225
1.225
1.225
1.225
1.225
1.225
1.225
1.225
1.225
1.225
1.225
1.225
1.225
1.225
1.225
1.225
1.225
1.225
1.225
1.225
1.225
1.225
1.225
1.225
1.225
1.225
1.225
1.225
1.225
1.225
1.225
1.225
1.225
1.225
1.225
1.225
1.225
1.225
1.225
1.225
1.225
1.225
1.225
1.225
1.225
1.225
1.225
1.225
1.225
1.225
1.225
1.225
1.225
1.225
1.225
1.225
1.225
1.225
1.225
1.225
1.225
1.225
1.225
1.225
1.225
1.225
1.225
1.225
1.225
1.225
1.225
1.225
1.225
1.225
1.225
1.225
1.225
1.225
1.225
1.225
1.225
1.225
1.225
1.225
1.225
1.225
1.225
1.225
1.225
1.225
1.225
1.225
1.225
1.225
1.225
1.225
1.225
1.225
1.225
1.225
1.225
1.225
1.225
1.225
1.225
1.225
1.225
1.225
1.225
1.225
1.225
1.225
1.225
1.225
1.225
1.225
1.225
1.225
1.225
1.225
1.225
1.225
1.225
1.225
1.225
1.225
1.225
1.225
1.225
1.225
1.225
1.225
1.225
1.225
1.225
1.225
1.225
1.225
1.225
1.225
1.225
1.225
1.225
1.225
1.225
1.225
1.225
1.225
1.225
1.225
1.225
1.225
1.225
1.225
1.225
1.225
1.225
1.225
1.225
1.225
1.225
1.225
1.225
1.225
1.225
1.225
1.225
1.225
1.225
1.225
1.225
1.225
1.225
1.225
1.22954
1.225
1.225
1.22815
1.225
1.225
1.225
1.225
1.225
1.22529
1.225
1.225
1.225
1.225
1.225
1.225
1.225
1.225
1.225
1.225
1.225
1.225
1.225
1.225
1.225
1.225
1.225
1.225
1.225
1.225
1.225
1.225
1.225
1.225
1.225
1.225
1.225
1.225
1.225
1.225
1.225
1.225
1.225
1.225
1.225
1.225
1.225
1.225
1.225
1.225
1.225
1.225
1.22609
1.225
1.225
1.22514
1.225
1.225
1.225
1.225
1.225
1.225
1.225
1.225
1.225
1.225
1.225
1.225
1.225
1.225
1.225
1.225
1.225
1.225
1.225
1.225
1.225
1.225
1.225
1.225
1.225
1.225
1.225
1.225
1.225
1.225
1.225
1.225
1.225
1.225
1.225
1.225
1.225
1.225
1.225
1.225
1.225
1.225
1.225
1.225
1.225
1.225
1.225
1.225
1.225
1.225
1.225
1.225
1.225
1.225
1.225
1.225
1.225
1.225
1.225
1.225
1.225
1.225
1.225
1.225
1.225
1.225
1.225
1.225
1.225
1.225
1.225
1.225
1.225
1.225
1.225
1.225
1.225
1.225
1.225
1.225
1.225
1.225
1.225
1.225
1.225
1.225
1.225
1.225
1.225
1.225
1.225
1.225
1.225
1.225
1.225
1.225
1.225
1.225
1.225
1.225
1.225
1.225
1.225
1.225
1.225
1.225
1.225
1.225
1.225
1.225
1.225
1.225
1.225
1.225
1.225
1.225
1.225
1.225
1.225
1.225
1.225
1.225
1.225
1.225
1.225
1.225
1.225
1.225
1.225
1.225
1.225
1.225
1.225
1.225
1.225
1.225
1.225
1.225
1.225
1.225
1.225
1.225
1.225
1.225
1.225
1.225
1.225
1.225
1.225
1.225
1.225
1.225
1.225
1.225
1.225
1.225
1.225
1.22505
1.225
1.225
1.225
1.225
1.22641
1.225
1.225
1.225
2.20958
1.225
1.225
1.225
1.225
1.225
1.22501
1.225
1.225
1.225
1.225
1.225
1.225
1.225
1.225
1.225
1.225
1.225
1.225
1.225
1.225
1.225
1.225
1.225
1.225
1.225
1.225
1.225
1.225
1.225
1.2685
1.25859
1.2339
1.3561
1.22576
1.22965
1.23171
1.22538
1.24065
1.22795
1.22511
1.23057
1.22505
1.225
1.22521
1.225
1.22502
1.22502
1.225
1.225
1.225
1.225
1.22501
1.225
1.225
1.225
1.225
1.225
1.225
1.225
1.225
1.225
1.225
1.225
1.225
1.225
1.225
1.40486
1.60544
1.22911
1.22503
1.35056
1.22506
1.23011
1.225
1.225
1.225
1.225
1.225
1.225
1.225
1.225
1.225
1.225
1.225
1.225
1.225
1.225
1.225
1.22529
1.24035
1.225
1.225
1.22503
1.22579
1.22508
1.225
1.22505
1.225
1.22502
1.225
1.225
1.225
1.225
1.225
1.225
1.225
1.225
1.225
1.225
1.225
1.225
1.225
1.225
1.225
1.225
1.225
1.225
1.225
1.225
1.225
1.225
1.225
1.225
1.225
1.225
1.225
1.225
1.225
1.225
1.225
1.225
1.225
1.225
1.225
1.225
1.225
1.225
1.225
1.225
1.225
1.225
1.225
1.225
1.225
1.225
1.225
1.225
1.225
1.225
1.225
1.225
1.225
1.225
1.225
1.225
1.225
1.225
1.225
1.225
1.225
1.225
1.225
1.225
1.225
1.225
1.225
1.225
1.225
1.225
1.225
1.225
1.225
1.225
1.225
1.225
1.225
1.225
1.225
1.225
1.225
1.225
1.225
1.225
1.225
1.225
1.225
1.225
1.225
1.225
1.225
1.225
1.225
1.225
1.225
1.225
1.225
1.225
1.22906
1.22782
1.22746
1.22527
1.22516
1.22514
1.22531
1.225
1.225
1.225
1.225
1.225
1.225
1.225
1.22678
1.22705
1.22602
1.2252
1.22505
1.2251
1.22512
1.225
1.225
1.225
1.225
1.225
1.225
1.225
1.225
1.225
1.225
1.225
1.225
1.225
1.225
1.225
1.225
1.225
1.225
1.225
1.225
1.225
1.225
1.225
1.225
1.225
1.225
1.225
1.225
1.225
1.225
1.225
1.225
1.225
1.225
1.225
1.225
1.225
1.225
1.225
1.225
1.225
1.225
1.225
1.225
1.225
1.225
1.225
1.225
1.225
1.225
1.225
1.225
1.225
1.225
1.225
1.225
1.225
1.225
1.225
1.225
1.225
1.225
1.225
1.225
1.225
1.225
1.225
1.225
1.225
1.225
1.225
1.225
1.225
1.225
1.225
1.225
1.225
1.225
1.225
1.225
1.225
1.225
1.22546
1.22545
1.22516
1.22502
1.22502
1.22506
1.22501
1.225
1.225
1.225
1.225
1.225
1.225
1.225
1.22504
1.22501
1.22503
1.22501
1.225
1.225
1.225
1.225
1.225
1.225
1.225
1.225
1.225
1.225
1.225
1.225
1.225
1.225
1.225
1.225
1.225
1.225
1.225
1.225
1.225
1.225
1.225
1.225
1.225
1.225
1.225
1.225
1.225
1.225
1.225
1.225
1.225
1.225
1.225
1.225
1.225
1.225
1.225
1.225
1.225
1.225
1.225
1.225
1.225
1.225
1.225
1.225
1.225
1.225
1.225
1.225
1.225
1.225
1.225
1.225
1.225
1.225
1.225
1.225
1.225
1.225
1.225
1.225
1.225
1.225
1.225
1.225
1.225
1.225
1.225
1.225
1.225
1.225
1.225
1.225
1.225
1.225
1.225
1.225
1.225
1.225
1.225
1.225
1.225
1.225
1.225
1.225
1.225
1.225
1.225
1.225
1.225
1.225
1.225
1.225
1.225
1.225
1.225
1.225
1.225
1.225
1.225
1.225
1.225
1.225
1.225
1.225
1.225
1.225
1.225
1.225
1.225
1.225
1.225
1.225
1.225
1.225
1.225
1.225
1.225
1.22501
1.225
1.225
1.225
1.225
1.225
1.225
1.225
1.225
1.225
1.225
1.225
1.225
1.225
1.225
1.225
1.225
1.225
1.225
1.225
1.225
1.225
1.225
1.225
1.225
1.225
1.225
1.225
1.225
1.225
1.225
1.225
1.225
1.225
1.225
1.225
1.225
1.225
1.225
1.225
1.225
1.225
1.225
1.225
1.225
1.225
1.225
1.225
1.225
1.225
1.225
1.225
1.225
1.225
1.225
1.225
1.225
1.225
1.225
1.225
1.225
1.225
1.225
1.225
1.225
1.225
1.225
1.225
1.225
1.225
1.225
1.225
1.225
1.225
1.225
1.225
1.225
1.225
1.225
1.225
1.225
1.225
1.225
1.225
1.225
1.225
1.22501
1.225
1.225
1.225
1.225
1.225
1.225
1.225
1.225
1.225
1.225
1.225
1.225
1.28029
2.08981
1.48822
1.40728
1.65141
1.225
1.2251
1.22512
1.22507
1.22501
1.225
1.22502
1.225
1.225
1.225
1.225
1.225
1.225
1.225
1.26488
1.26325
1.25913
1.38759
1.54497
1.52145
1.39581
1.25122
1.24995
1.24163
1.38171
1.41483
1.47811
1.37129
1.23333
1.23284
1.22819
1.31033
1.33834
1.34931
1.27618
1.22589
1.22516
1.22573
1.2679
1.22853
1.24159
1.23957
1.225
1.2251
1.22501
1.22524
1.22544
1.22765
1.22504
1.22541
1.22535
1.22549
1.225
1.23425
1.22505
1.22502
1.225
1.225
1.225
1.22502
1.225
1.225
1.225
1.225
1.225
1.225
1.225
1.225
1.225
1.225
1.225
1.225
1.225
1.225
1.225
1.225
1.225
1.25753
1.49126
1.29178
2.14299
1.74348
2.03851
1.56765
1.22929
1.22687
1.22605
1.25125
1.24049
1.22527
1.22538
1.23678
1.22633
1.23013
1.36861
1.24522
1.2775
1.225
1.22511
1.22501
1.22538
1.22511
1.22673
1.22502
1.225
1.22501
1.225
1.225
1.225
1.225
1.225
1.225
1.225
1.225
1.225
1.22501
1.225
1.225
1.225
1.225
1.225
1.225
1.225
1.225
1.225
1.225
1.225
1.225
1.225
1.225
1.225
1.225
1.225
1.22502
1.225
1.225
1.225
1.225
1.225
1.225
1.225
1.225
1.225
1.225
1.225
1.225
1.22743
1.25224
1.23051
1.22538
1.22716
1.22516
1.22612
1.225
1.225
1.33376
1.225
1.225
1.225
1.225
1.225
1.225
1.22503
1.225
2.23849
1.97741
1.53499
1.22513
1.22501
1.225
1.225
1.225
1.225
1.225
1.225
1.225
1.225
1.225
1.225
1.225
1.225
1.225
1.225
1.225
1.225
1.225
1.225
1.225
1.225
1.225
1.225
1.225
1.225
1.225
1.225
1.225
1.225
1.225
1.225
1.225
1.225
1.22517
1.22501
1.22501
1.225
1.22504
1.83726
1.83716
1.99252
2.42022
1.74326
2.00544
2.32771
1.25183
1.26144
1.55829
1.30014
1.338
1.23459
1.23101
1.225
1.225
1.225
1.225
1.225
1.225
1.225
1.22501
1.225
1.225
1.225
1.225
1.225
1.225
1.225
1.225
1.225
1.225
1.225
1.225
1.225
1.225
1.225
1.225
1.225
1.225
1.225
1.225
1.225
1.225
1.225
1.225
1.225
1.225
1.225
1.225
1.225
1.225
1.225
1.22501
1.225
1.225
1.225
1.225
1.225
1.225
1.225
1.225
1.225
1.225
1.225
1.225
1.225
1.225
1.225
1.225
1.225
1.225
1.225
1.225
1.225
1.225
1.225
1.22501
1.22501
1.225
1.225
1.22501
1.225
1.22502
1.22501
1.225
1.225
1.225
1.225
1.225
1.22501
1.225
1.225
1.225
1.225
1.225
1.225
1.225
1.225
1.225
1.225
1.225
1.225
1.225
1.225
1.225
1.225
1.225
1.225
1.225
1.225
1.225
1.225
1.225
1.225
1.225
1.225
1.225
1.225
1.225
1.225
1.225
1.225
1.225
1.225
1.225
1.225
1.225
1.225
1.225
1.225
1.225
1.225
1.225
1.225
1.225
1.225
1.225
1.225
1.225
1.225
1.225
1.225
1.225
1.225
1.225
1.225
1.225
1.225
1.225
1.225
1.225
1.225
1.225
1.225
1.225
1.225
1.225
1.225
1.225
1.225
1.225
1.225
1.225
1.225
1.225
1.225
1.225
1.225
1.225
1.225
1.225
1.225
1.225
1.225
1.225
1.225
1.225
1.225
1.225
1.225
1.225
1.225
1.225
1.225
1.225
1.225
1.225
1.225
1.23957
1.225
1.225
1.22721
1.26293
1.22528
1.22511
1.22502
1.225
1.225
1.22544
1.225
1.225
1.225
1.225
1.225
1.225
1.225
1.225
1.225
1.225
1.225
1.225
1.225
1.225
1.225
1.225
1.225
1.225
1.225
1.225
1.225
1.225
1.225
1.225
1.225
1.225
1.225
1.225
1.225
1.225
1.225
1.22507
1.22501
1.22514
1.225
1.22502
1.225
1.22501
1.22503
1.22542
1.22505
1.22568
1.2252
1.22698
1.2278
1.225
1.225
1.225
1.225
1.225
1.225
1.225
1.225
1.225
1.225
1.225
1.225
1.225
1.225
1.225
1.225
1.225
1.225
1.225
1.225
1.225
1.225
1.225
1.225
1.225
1.225
1.225
1.225
1.225
1.225
1.225
1.225
1.225
1.225
1.225
1.225
1.225
1.225
1.225
1.225
1.225
1.225
1.225
1.225
1.225
1.225
1.225
1.225
1.225
1.225
1.225
1.225
1.225
1.225
1.225
1.225
1.225
1.225
1.225
1.225
1.225
1.225
1.225
1.225
1.225
1.225
1.225
1.225
1.225
1.225
1.225
1.225
1.225
1.225
1.225
1.225
1.225
1.225
1.225
1.225
1.225
1.225
1.225
1.225
1.225
1.225
1.225
1.225
1.225
1.225
1.225
1.225
1.225
1.4542
1.09836
2.89343
1.22875
2.47469
2.88977
1.22504
2.79665
1.96051
2.46536
1.54958
1.22502
1.225
3.40375
1.53381
1.225
3.19358
1.3163
3.11423
2.05745
3.31204
1.22501
1.225
3.58352
1.22521
1.225
3.64988
1.22519
1.24625
1.23216
2.64045
1.30952
1.225
1.225
3.73279
1.22649
1.225
1.225
4.26578
1.23613
1.22501
1.225
1.225
1.225
2.74214
1.27741
1.225
1.225
1.225
3.65437
1.225
1.225
1.225
1.225
1.28522
1.225
1.225
1.225
1.225
1.225
1.225
1.225
1.225
1.225
1.225
1.225
1.225
1.225
1.225
1.225
1.225
1.225
1.225
2.2974
2.54874
3.64737
2.85314
3.84058
2.64317
3.35347
3.16998
3.60144
2.31665
2.51567
3.09665
3.02297
3.07613
1.30658
2.78035
3.84592
2.68202
3.47099
3.01433
3.59792
1.58581
1.22871
4.40138
4.03346
5.32638
4.39604
4.72761
2.20071
1.22898
3.91536
1.2943
1.23611
1.225
1.33483
1.22526
3.64234
4.32247
2.54082
1.28091
1.42551
4.46969
4.93727
2.28629
3.03673
4.52979
1.40245
1.24616
4.42312
1.31227
1.5537
1.22513
1.2414
1.22501
1.225
1.23059
1.225
1.22501
1.225
1.225
1.225
4.70487
4.68649
1.54666
1.38935
1.25635
1.22501
1.225
3.83711
1.75451
1.24431
3.38216
2.83199
3.38809
2.90925
3.42388
3.3892
4.16464
1.26136
3.94921
1.47607
3.49889
3.36126
3.54104
3.36836
3.49157
2.44834
3.54939
3.43593
2.06609
1.22554
1.22545
1.22502
1.89748
3.79589
1.23902
1.83349
1.31922
1.6611
1.2251
1.22502
1.22605
1.225
1.22506
1.225
1.22501
1.225
1.225
1.225
1.225
1.225
1.225
1.225
1.225
2.59493
2.30803
2.21629
2.33321
2.25991
2.40474
2.57039
2.36112
3.88455
2.8946
3.59922
2.89354
2.94722
3.61567
3.85526
4.00537
2.98797
3.36189
3.76346
3.09098
3.67251
4.20413
2.35085
2.40731
2.89829
3.45095
3.40846
1.51072
3.08278
3.1697
2.00726
3.12895
2.03923
1.56788
2.9078
3.09559
3.38514
3.48579
4.45924
3.96334
2.91282
3.19658
1.65964
3.23239
1.91437
2.79782
1.62583
3.28396
1.71521
3.49697
3.58363
3.58324
4.88741
4.64241
3.94795
4.04528
4.62415
4.44051
4.21357
5.14015
4.52489
5.33645
4.32013
5.25389
4.4694
4.6638
4.58741
3.56474
1.67685
3.52642
3.28878
4.18163
3.16945
1.6349
4.25238
3.28565
3.48773
2.92705
3.21073
2.10324
1.25741
2.24968
1.25823
1.23115
1.72443
1.32789
1.22663
3.54517
3.73038
3.78371
4.04684
4.02049
4.00986
3.55846
3.57175
3.85433
1.23059
2.04855
1.23393
1.23039
1.27887
1.34526
1.22576
2.58827
1.23692
1.41126
5.00153
5.35608
5.01794
4.45403
5.31488
4.27707
4.98119
4.43887
4.03879
4.10298
4.8528
3.64813
3.85284
2.72691
1.43505
2.53487
2.29239
4.32001
2.45257
1.40603
4.60054
3.36658
3.073
2.87341
2.4807
1.73004
1.24134
1.25034
2.00054
1.22894
1.53425
1.22612
1.27927
1.23853
1.49922
1.24485
1.22634
1.3697
1.25385
1.22659
1.22605
1.22515
1.22501
1.22509
1.22507
1.22732
1.22512
1.225
1.22646
1.22527
1.22522
1.22507
1.22506
1.22501
1.225
1.22501
1.225
1.225
1.225
1.225
1.225
4.84845
4.49043
4.95916
4.30866
4.97068
3.16678
2.92663
4.49957
2.35236
1.23313
1.3332
1.75132
1.22757
1.28435
1.2253
1.22518
1.22983
1.22502
1.225
1.225
2.692
3.40514
2.37101
3.23557
2.28956
3.40395
2.37942
1.45736
1.4805
3.11815
2.06069
3.08514
3.1155
2.04832
1.47901
1.60013
2.25968
2.94335
1.28767
3.27269
1.46184
1.43875
2.41118
1.77216
3.0862
1.30311
2.55075
1.84784
3.08297
1.22628
1.69362
1.25291
1.99981
1.2252
1.49184
1.23917
1.22505
1.27766
1.22508
1.22703
1.225
1.22812
1.225
3.15833
3.08764
2.34858
3.28533
3.24329
3.387
1.24293
3.29083
1.23808
1.68248
1.22517
1.26035
1.22501
1.225
1.22511
1.225
1.225
1.225
1.22501
1.225
1.97172
2.94574
1.29362
2.09974
1.23502
1.97964
1.22548
1.22501
1.23009
1.225
1.22571
1.22501
1.22503
1.225
1.225
1.225
1.225
1.225
1.225
1.225
1.225
3.7456
3.8465
3.68251
4.38479
4.16264
3.89476
4.45119
3.86452
4.48644
3.76736
4.43465
3.89539
3.99401
4.36863
2.94629
2.32134
2.99062
3.04065
2.18338
2.78345
1.34164
1.225
1.225
1.225
1.225
1.225
1.225
1.225
1.2311
1.22538
1.225
1.225
1.225
0.17082
0.302552
0.45196
1.03081
1.4067
0.576729
2.19248
0.859199
1.29871
1.03898
1.64916
1.75093
1.45792
1.4425
1.75306
2.11987
4.85104
2.95409
2.59139
1.04752
3.52939
1.27382
1.41343
2.57404
1.225
1.22504
1.225
1.225
1.225
1.225
1.225
1.225
1.225
1.225
1.225
1.225
1.225
1.225
1.225
1.225
1.225
1.225
1.225
1.225
1.225
1.225
1.225
1.225
1.225
1.225
1.225
1.225
1.225
1.225
0.892403
1.18742
0.802105
0.90065
1.3759
1.89816
1.382
1.35363
2.04171
1.57727
1.20864
1.38458
1.58702
1.4541
1.54193
1.52943
2.92693
2.44053
2.81132
1.75135
3.80651
4.35384
2.69657
1.542
2.36335
2.5849
4.49176
2.88941
3.06472
5.16252
4.84084
3.19456
2.73209
4.43902
1.64837
1.43223
1.6779
1.22926
1.42254
2.00815
1.98245
2.23495
2.25862
2.64865
3.22776
3.45737
3.74598
4.65881
5.05295
2.45495
1.00056
1.11954
1.02545
1.21439
1.14812
1.05191
0.972767
0.93297
1.07189
0.969453
1.04248
1.05956
1.26974
1.32839
1.21086
1.20899
1.10655
1.1738
1.55119
1.29745
1.61953
1.41076
1.32716
1.65116
1.51919
1.84185
1.91328
1.94734
1.80556
1.61899
1.46748
1.51729
1.82411
1.39102
1.71016
1.75546
1.91889
2.13355
2.01074
2.07873
1.04341
1.23256
1.06763
1.08081
0.982337
1.28478
1.21939
1.12051
1.9482
1.98174
1.48465
1.83963
1.73233
2.14579
2.03758
1.42108
1.22478
1.20567
1.4251
1.58681
1.51655
1.36968
1.77577
1.34835
1.78189
1.58475
1.69051
1.98211
1.67682
2.01218
1.89576
2.07443
2.57066
2.20401
2.13049
1.86217
2.27661
2.30937
1.72054
2.00557
1.99743
1.97968
2.01424
2.2599
2.73201
2.32856
2.34388
2.59863
2.75627
2.31045
2.91432
3.00667
2.40466
2.58783
3.36266
3.26285
3.43875
2.95961
3.9583
1.37224
1.76156
1.57638
1.93776
1.65911
2.03898
2.14476
1.83373
2.31035
2.5258
2.26512
2.822
2.50758
3.14068
2.79505
2.86629
2.33633
2.39365
2.75752
3.36829
3.15027
2.61144
3.48316
2.74939
3.94118
3.11461
3.46824
4.00263
3.30285
4.14773
4.17675
4.28003
5.44519
4.60364
4.89739
3.80467
4.97456
4.93124
3.61807
3.57947
3.88339
4.17569
4.54698
4.19077
2.50027
3.18166
2.9296
3.89428
3.17253
3.82922
4.30765
3.5231
4.83303
4.67082
4.68315
5.00098
0.365824
0.573793
0.650816
0.458234
0.926617
0.711183
0.797112
0.951212
0.868085
1.48463
1.03764
1.14587
1.28024
1.62616
1.26008
1.00898
1.43557
1.33839
1.3556
1.51967
2.9131
1.33869
1.63763
2.18854
1.51716
2.59395
2.415
2.42746
1.46589
2.0876
3.33348
1.16204
1.80856
2.23019
3.06576
2.64533
2.19539
1.88788
2.63832
1.84028
2.66546
1.95207
2.71125
1.27076
1.27285
1.22503
1.225
1.225
1.225
1.225
1.225
1.225
2.75013
1.67568
2.18046
2.41236
2.67977
1.93821
1.21739
1.44642
1.45016
0.789722
0.947555
1.21501
2.31497
1.70447
1.92089
1.73849
1.4357
1.16737
2.06078
4.70882
4.28973
4.91388
2.57225
3.13564
2.2597
2.19219
1.57346
2.59454
2.75536
1.9651
3.06762
0.781088
0.786311
1.10586
2.02208
4.01837
0.773117
0.951835
0.961011
1.0997
1.77985
1.75213
2.07244
3.36348
3.33842
3.16778
3.24355
2.8987
4.28166
3.94498
3.29924
4.50432
0.904169
0.812218
0.929439
1.29148
2.34425
4.62661
2.24677
3.75557
2.70537
0.875413
0.739954
0.889012
0.799607
0.767408
0.915491
0.848033
0.852201
0.92732
0.82298
0.863958
1.08116
1.28996
1.27927
1.51846
1.77998
1.51393
1.50954
2.08339
2.41378
2.44783
2.83995
3.39891
2.89501
2.76849
2.88415
3.17174
2.70664
3.64198
2.63634
3.49471
2.98062
3.15287
4.05921
3.88582
3.62381
3.77228
3.27934
3.43023
3.8589
4.4664
4.22309
2.72493
3.79869
3.06212
4.25451
3.77624
3.43242
0.524626
0.67408
0.628636
0.846064
0.685666
0.855394
0.927587
0.988638
1.34537
1.59992
0.996393
1.58265
1.79042
1.8357
2.57617
2.82973
1.80093
2.81151
0.588893
0.645468
0.588717
0.699726
0.672578
0.612671
0.56305
0.638883
0.750346
0.824399
0.751453
0.72563
0.66094
0.731347
0.598894
0.71115
0.622541
0.760906
0.761031
0.670541
1.03818
0.96938
0.887076
1.17016
0.867176
1.15313
1.05962
1.22751
1.37745
1.58438
1.43802
1.36217
1.24871
1.41721
0.896283
1.17542
1.06822
1.37505
1.42701
1.25076
1.81748
1.82389
1.62569
2.10056
1.60765
2.09977
1.83022
2.07398
2.42824
2.81607
2.40082
2.43566
2.08646
2.36758
1.6013
2.05372
1.79759
2.3833
2.38169
2.05393
2.78494
1.52211
1.24906
2.09888
1.01556
1.71782
1.86025
0.231847
1.03521
0.56556
0.723345
1.03427
1.18344
0.952467
0.804506
1.18065
0.694121
0.986149
0.886038
1.34205
1.67416
0.354989
0.307597
0.414018
0.327639
0.469158
0.379567
0.508591
0.469085
0.595085
0.508476
0.698054
0.591187
0.621469
0.721795
0.344019
0.221852
0.260949
0.39569
0.260855
0.304508
0.350017
0.496389
0.575299
0.911619
1.00638
0.738505
0.344323
0.801328
0.559573
0.626678
0.596005
0.547424
0.453457
0.486112
0.518458
0.939585
0.841977
1.00325
0.513713
0.641243
0.578423
0.657822
1.03872
0.975835
1.00918
0.704471
0.680299
0.707716
0.778091
0.643126
0.667023
0.712987
0.793285
0.813815
0.857441
0.877918
0.375364
0.590136
0.66992
0.524612
0.686925
0.436457
0.767069
0.616028
0.503298
0.543309
0.398777
0.440224
0.500806
0.456432
0.684426
0.758271
0.795062
0.601135
0.669239
0.550219
0.703524
0.916303
0.982689
1.00473
0.735886
0.761731
0.860812
0.920367
0.930601
1.13141
1.213
1.41243
1.00198
1.07279
1.28819
2.43027
1.55382
1.5331
0.874611
1.60208
0.968047
2.01776
1.48828
1.44024
1.71978
1.71151
1.43765
1.42922
1.88648
0.455962
0.306758
0.476989
0.419994
0.355505
0.532292
0.405266
0.632887
0.544585
0.799769
0.737257
0.893974
0.614666
0.830327
0.741664
0.819245
0.757379
0.974765
0.909258
0.930383
0.996441
0.686817
0.725281
0.813564
0.602412
0.639165
0.714931
0.683257
0.20252
0.185129
0.217827
0.259628
0.296684
0.309593
0.271764
0.44654
0.750177
0.602972
0.605909
0.483552
0.63446
0.774293
0.710507
1.15544
1.24648
1.2477
2.46001
1.40396
0.94467
1.8492
1.34267
1.84118
1.81053
1.36003
1.91927
1.24413
0.949862
1.12729
1.13982
1.00368
1.02017
0.824632
0.846741
0.896988
0.854411
0.73515
0.758936
1.06099
0.918688
0.875775
0.695744
0.743578
0.790113
0.568202
0.599969
0.651712
0.52018
0.603332
0.597905
0.80163
1.01159
0.508981
0.699517
0.880851
1.35329
1.56602
1.57699
1.37042
1.19102
1.39562
1.20841
0.909598
1.09728
1.0399
0.849839
0.795986
0.969866
1.03626
0.876619
0.712443
0.775887
0.852707
0.894381
0.953138
1.00276
0.972402
1.23899
1.25599
1.13155
1.42733
1.4294
1.10326
0.929032
0.992415
1.00359
0.684512
0.623368
0.714814
0.829955
0.445794
0.394297
0.489439
0.245751
0.281862
0.357727
0.321313
2.7672
1.83186
1.4366
3.05777
1.6337
2.15036
3.17084
1.5271
1.8105
1.8147
2.17329
1.77487
1.79133
2.14741
2.07762
1.81234
2.03751
1.72809
1.54304
1.78331
1.58106
1.05822
1.02295
0.983874
0.814239
1.10497
0.965465
0.922096
0.970108
1.21304
0.994502
1.29202
1.05246
1.08006
1.32903
2.55137
2.23294
2.46353
1.68471
2.49347
2.15603
1.52555
0.305607
0.51905
0.32456
0.618907
0.413444
0.428907
0.635669
0.789582
0.584446
0.578059
0.510347
0.640874
0.636978
0.730391
1.12259
0.900052
0.998301
0.694515
1.06545
0.792692
0.937377
1.61122
1.15082
1.40767
1.40296
1.23611
1.38895
1.75435
2.12564
2.25115
2.45275
2.6029
2.92833
2.43546
2.39086
1.70091
1.05283
1.436
1.57223
1.19339
1.18374
1.39627
1.47885
1.11751
1.20339
1.26445
1.03823
1.12691
1.39043
0.89034
0.951682
0.97147
1.04848
1.07084
1.13865
1.16532
0.780496
0.820207
0.924089
0.890804
1.02148
0.93051
1.05273
1.85957
1.3546
1.34731
1.83749
1.42356
1.89216
1.924
0.561744
0.819146
0.629108
0.585821
0.3986
0.4762
0.677838
1.06197
1.26734
1.27337
1.42387
1.16049
1.18503
1.42701
2.72846
2.39387
2.32231
2.13717
2.27154
1.93529
2.02276
1.06152
1.17315
1.28289
0.920678
1.00749
1.11192
1.21219
2.14505
2.29596
2.15797
0.800525
1.10588
1.20709
0.947829
1.18645
1.37303
1.11388
1.14315
1.49914
1.41277
1.21617
0.981512
0.706714
1.10262
1.16013
0.829027
0.821236
1.31774
1.60125
1.80599
1.6887
1.31837
1.77749
1.84748
1.33792
0.392606
0.609113
0.430575
0.442407
0.585587
0.61965
0.404586
0.990598
1.1929
1.01592
1.06365
1.26517
1.1232
1.12421
1.0462
0.914263
1.09266
0.939321
0.713347
0.766807
0.884834
0.90364
0.732393
0.923633
0.846747
0.863166
1.06289
1.08302
1.52136
1.81261
1.79724
1.71838
2.12407
1.74876
2.06487
1.27095
1.86127
1.62822
1.65284
1.43294
1.25567
1.88635
2.60669
2.03756
2.65591
2.71673
2.9687
2.27516
1.90184
1.57986
1.34714
1.27043
1.19431
1.57006
1.48092
1.26918
1.13106
1.23498
1.2225
1.48291
1.25225
1.36957
1.37396
0.715804
0.567751
0.596929
0.479499
0.621757
0.654387
0.443071
1.07478
1.27858
1.09907
1.49472
1.2702
1.29813
1.53332
0.986268
1.05567
1.18268
0.782889
0.967416
0.90069
1.11861
2.46106
2.10467
2.47158
2.97442
2.56498
2.47525
3.0723
1.03647
1.49242
1.22652
1.1082
1.22385
0.923965
1.42591
2.39217
2.58119
2.0712
2.07466
2.49961
2.28399
2.39729
2.63846
2.70197
2.9998
2.42732
2.3152
2.49677
2.71621
0.754759
0.71834
0.549672
0.56149
0.923973
0.728975
0.766991
0.940701
1.23409
1.20781
1.0016
0.764268
0.803978
0.950423
1.70752
1.97505
1.87976
1.59705
1.44792
1.38226
1.5896
1.49022
1.26548
1.23483
1.07313
1.09812
1.28767
1.32094
1.41286
1.21706
1.17891
1.06935
1.25544
1.21041
1.37979
1.77292
1.27086
1.55661
1.34885
1.64074
1.34269
1.81138
1.59581
1.29621
1.4843
1.82133
1.32346
1.60911
1.79505
2.33433
3.27752
3.02675
3.23437
2.43895
2.49248
2.53012
1.68036
3.14132
2.08682
2.78107
3.27135
1.48235
1.34598
0.82948
0.876422
0.702165
0.597075
0.950128
0.759858
0.799123
1.67255
1.21387
1.40553
1.32883
1.14095
1.3412
1.59239
1.47799
1.5966
1.64556
1.75729
1.80965
2.00412
2.07146
2.49477
2.39261
1.22867
1.49644
1.22611
1.23054
2.42224
1.95758
2.34198
2.6532
2.19137
2.65209
2.52527
2.27339
1.73998
1.44231
1.98515
1.35798
1.55332
1.87423
2.12169
1.26537
1.59927
1.29616
1.72612
1.38147
1.41942
1.78576
3.31353
2.88715
2.85503
4.02047
3.495
3.56345
3.46424
1.43452
2.34197
1.66663
2.19505
1.92866
1.63799
1.61237
1.70261
1.39055
1.31601
1.20478
1.45704
1.14094
1.37601
1.49324
1.16254
1.56785
1.43718
1.35752
1.28538
1.66006
1.02013
1.33735
1.48179
1.17252
1.11544
0.938804
1.43879
1.7911
1.43179
1.57696
1.67607
1.35046
1.48292
1.88123
2.00405
1.84094
2.33324
1.54331
1.72623
1.89182
2.17997
2.61025
1.24861
1.24655
1.22614
1.22501
1.225
1.225
1.225
1.26649
1.225
1.225
1.225
2.31782
1.85947
2.40327
2.61232
2.59284
1.32431
2.68779
1.95747
3.0557
2.88045
2.69003
2.61164
1.64692
1.46815
2.96178
1.94582
2.30426
2.5018
2.75239
2.00743
2.20781
2.38234
1.44395
1.70335
1.656
1.30276
1.35141
1.18548
1.133
1.9024
2.13178
2.41105
2.21354
1.63734
1.85023
2.08712
1.77642
1.9453
1.77634
1.37119
1.79836
1.50582
1.82202
2.71702
2.60152
2.21479
2.21717
3.09556
2.13531
1.87815
0.991335
1.1725
1.00665
1.43129
1.2348
1.25673
1.45611
0.829619
0.814099
0.84373
1.08003
1.10538
1.12779
1.10207
2.46067
2.66662
2.43755
2.27323
2.68916
1.52911
2.34401
1.48963
1.28652
1.60997
1.38367
1.69409
1.5639
2.01821
1.71585
1.89384
1.77121
2.40355
2.20983
2.29389
2.48666
1.48162
1.88813
1.69324
2.18763
2.02018
2.2617
2.40095
2.69357
2.22739
2.62291
2.69188
2.58183
1.22542
1.29982
1.94883
2.3886
2.14217
1.85722
1.53724
1.6647
1.70231
2.06908
3.10905
2.3381
2.12779
2.36698
2.84509
2.86401
1.5442
1.09307
1.34336
1.19996
1.03579
1.29023
1.49262
0.92308
1.21916
1.24458
0.848221
0.877145
1.17036
1.14513
2.14046
2.31467
1.98592
2.52563
2.74471
2.17463
1.94084
2.67663
3.01232
3.56395
4.11245
3.76725
3.17488
2.58705
1.84951
2.09083
2.04473
1.68504
1.47343
1.51532
1.64765
4.26343
3.67811
3.66322
3.11703
3.50196
2.93716
3.72547
1.85176
1.8625
2.13566
1.78854
1.49752
1.35261
1.65892
1.99833
2.60655
2.76185
1.99793
1.86372
2.42645
2.60855
0.925251
1.12309
0.940197
1.37227
1.19364
1.21735
1.39913
2.35293
1.90882
1.68033
2.07667
1.9377
2.40357
2.03525
1.62153
1.77909
1.60115
1.70994
1.25426
1.6399
1.43715
2.36902
1.92948
1.86173
2.00664
1.57403
1.62175
2.08159
1.96121
2.23711
1.67034
2.11853
1.80947
2.36191
2.54995
1.45796
1.79561
1.49899
1.79818
1.86075
2.271
2.34013
1.08978
1.40064
1.40245
1.58626
1.34477
1.36651
1.57833
1.75651
1.79628
1.49132
1.52322
2.25313
1.79398
1.84318
1.03451
1.51726
1.33088
1.15331
0.971132
1.26012
1.4456
0.338177
0.397832
0.405018
0.348052
0.377096
0.352438
0.414744
0.395571
0.366628
0.332237
0.359291
0.421537
0.373097
0.994486
0.39993
0.516094
0.524837
0.579397
0.619535
0.994156
1.04934
0.629828
1.05329
1.08045
1.15696
1.15316
0.379445
0.450673
0.498946
0.452425
0.432221
0.397092
0.436538
0.458489
0.46032
0.404298
0.648967
0.601395
0.541489
0.763268
0.525083
0.739711
0.670261
0.790642
0.917922
1.02558
0.94096
0.890922
0.816641
0.917595
0.550967
0.776133
0.682481
0.929578
0.947948
0.829294
1.10969
1.13709
1.03682
1.26168
1.01802
1.24472
1.12582
1.03735
1.25274
1.12206
0.808896
0.969358
1.35613
0.246644
0.302749
0.530216
1.17771
1.32475
0.662458
0.0354463
0.0689706
0.174164
0.390117
0.459525
0.404032
0.914218
0.662264
0.714412
0.744288
1.35421
0.674783
1.41662
2.55745
0.45161
0.459252
0.587421
0.596838
0.703812
0.524036
0.478436
0.544917
0.802949
0.967328
0.515406
0.43001
0.514894
0.471218
0.451191
0.536823
0.491625
0.56156
0.512208
0.56912
0.665766
0.492846
0.582031
0.646551
0.520587
0.675467
0.590941
0.932624
0.684453
0.792711
0.772804
0.956307
1.36709
1.28058
1.67958
1.95468
2.07376
1.11052
1.16417
1.16395
1.29009
1.56889
1.77348
1.76502
1.95844
1.97899
2.37103
2.40726
0.870956
1.42815
1.40371
1.58246
2.2888
2.124
2.52266
2.92919
2.83879
3.39304
0.858501
0.834147
1.10547
1.0208
1.14078
1.29261
1.12992
1.2701
1.03011
1.28721
1.13582
1.58895
1.26996
1.44445
1.4189
1.42511
1.40111
1.60541
1.78948
1.57974
1.74126
2.05362
1.56076
1.80781
2.01801
1.56476
2.04038
1.78461
2.42057
1.91086
2.28784
2.11576
2.22982
2.06251
2.49353
2.62006
2.25777
2.38532
2.89337
2.20873
2.69529
2.86921
2.28897
2.99144
2.78425
0.258707
0.294011
0.436578
0.244486
0.398939
0.357598
0.55835
0.536458
0.741295
0.612716
0.897943
0.834831
1.18484
1.3023
1.0925
1.05389
1.41876
1.7306
1.09054
1.26981
2.02421
1.46844
0.891083
0.932698
2.04275
0.88397
1.23838
1.65205
1.37898
1.546
1.54085
1.47006
1.69618
1.69284
1.21646
1.39179
1.51808
1.35721
1.37355
1.23402
1.33335
1.38263
1.3552
1.22932
1.54535
1.65641
1.48109
1.81749
1.44816
1.77724
1.57711
1.48016
1.81802
1.57388
1.62432
1.98903
1.96856
1.78556
1.81755
1.7259
2.34235
3.12186
1.6282
1.91765
2.00922
1.68921
1.88738
1.64853
1.71407
1.9153
1.64237
1.63245
1.48041
0.989301
1.35504
1.0713
2.29101
1.26351
1.75773