/*--------------------------------*- C++ -*----------------------------------*\
  =========                 |
  \\      /  F ield         | OpenFOAM: The Open Source CFD Toolbox
   \\    /   O peration     | Website:  https://openfoam.org
    \\  /    A nd           | Version:  9
     \\/     M anipulation  |
\*---------------------------------------------------------------------------*/
FoamFile
{
    format      ascii;
    class       volScalarField;
    location    "0.00105";
    object      overpressure;
}
// * * * * * * * * * * * * * * * * * * * * * * * * * * * * * * * * * * * * * //

dimensions      [1 -1 -2 0 0 0 0];

internalField   nonuniform List<scalar> 
8976
(
84211.4
-97127.4
-96575.3
100738
-57667
94547.7
-51911.6
79335.9
-12564.9
-96977.7
-97140
-97147.3
-97201.6
-97137.9
-97150.8
-97024.9
15649.4
16637
90885
78051.9
26055.8
29879.2
81124.1
-96928.3
-97082.1
-96903.3
-97043.2
-97146.7
-97020.3
-97217.3
-12430.2
-13022.2
-96508.8
-95037.6
1681.69
-96486.8
-22902.6
18685.5
109760
16238.4
24189.1
97604.3
24408.7
87198.9
-61362.8
-92792.2
-96267
-23543.8
-96140.3
-96731.9
-52797.5
24087.4
107193
16061.9
99867.8
18591.9
24030.3
86234.9
-60900
-57435.4
-96256.3
-96070
-92673.6
-23308.2
-96714.1
15274.7
86992.2
28939.8
15483.3
76917.5
25848.6
79676.1
-22119.4
-96463.7
-96463.3
-12384.6
-94942.4
1574.56
-96463.6
-97196.5
-97105.9
-97103.7
-97014.5
-97128.9
-97212.7
-97008.7
-97133.3
-97247.3
-97240.5
-97079.5
-97186.8
-97186.7
-97059.5
-97020.8
-96999
-97149.8
-97146.3
-97084.4
-97155.3
-97011.7
-97111.1
-97148.4
-96978.3
-97120
-97028.4
-97016.5
-97215.7
-97242.6
-97151.4
-97252.7
-97075.3
-97196.3
-97086.6
-97192.4
-97108.5
-96930.8
-97241.4
-96930.8
-97038.6
-97149.5
-97012.6
-97029.7
-97161.2
-97163.4
-97025
-97142.4
-97076.2
-97163.5
-96994.2
-97092.1
-96996.7
-97144.9
-96926.7
-97130.9
-97047.1
-85519.4
-88155.1
-96552.3
-96282.6
-96417.3
-83530.7
-88764.8
-46996.8
-14978.5
-51308.1
-4465.68
-53627
-7671.9
-43554.8
-97086.2
-97296.4
-97256.2
-97278.7
-97392
-97202.5
-97157.8
-97026.4
-97118
-97030.2
-97160
-96964
-97149
-97076.6
-97078.9
-97015.3
-97141.1
-97007
-97280.2
-96956.4
-97043.6
42203.3
21708.9
14666.7
37293.9
20883.4
39666.3
39781.3
42725.9
38005.5
22268.4
15127.2
40434
20806.1
40641.9
72242.1
80325.3
70925.5
79869.2
70350.6
71431.5
83820.4
42872.9
24781.2
25091.6
46475
23835.5
42595.1
43221.4
-97012.5
-97012.2
-96976.5
-96819.7
-96936.8
-96899.3
-97063.4
-96997.7
-97117.6
-97125.9
-96857.2
-96922.3
-97167.4
-96927.9
-97005.1
-96989.3
-96957.5
-96808.2
-96925.3
-96891.6
-97044.5
-96962.6
-97052
-97053.2
-97066.2
-97059.5
-97020.5
-97007.4
-97005.4
-97024.7
-97103.6
-97156.7
-97137.3
-96940.3
-97071.7
-97014.7
-96972.9
-96964
-97091.4
-96908.7
-97058.8
-97050.2
-96984.5
-97028
-97014.9
-97024.7
-96964.7
-96967.9
-96948.1
-47638.8
-4201.31
-51501.2
-15044.2
-7476.24
-54366.9
-43739.1
-48433.6
-53517.1
-4456.42
-15786.7
-7942.28
-44891.9
-55791.9
-88604.4
-96585.8
-96572.1
-90611.1
-96600.2
-89755.6
-90015.6
-80717
-95597.9
-75433.5
-95507.8
-95933.3
-77707.6
-78267.7
-41097.3
970.721
942.633
-36629.9
-1277.15
-38002.9
-38506.6
-84966.7
-86672.8
-96505.5
-96180.3
-96381.1
-87907.2
-82413.4
-54729.3
-19887.7
-20227.4
-64835.5
-15759.9
-59773.5
-60362.5
-90637.9
-90899.5
-96086.7
-96608.9
-90925.1
-90814.9
-96287.5
-67386.3
-29196
-60224.7
-23640.8
-61669.3
-28876.3
-65846.9
-89951.2
-95933.7
-96356.9
-89781.5
-89327.9
-96163.9
-90225.7
-91106.4
-96764.2
-90458.7
-96619.2
-90348.9
-91369.6
-96571.3
-90452.7
-90831.1
-96070.8
-96587.1
-90787.6
-90712.1
-96254.2
-89489
-89179.5
-95871.7
-96309.6
-89718.9
-88761.7
-96118
-66809.5
-23226.9
-28929.8
-59924.3
-65637
-28397.9
-60915.3
-90842.7
-96739.6
-96590
-90308.6
-91263.3
-89948.7
-96542.3
41329.3
36859.4
14065.4
21219.3
39021.7
19971.1
39295.2
41445.2
14234.6
21319.2
37095.4
39416.6
39240
20019.6
70388.2
78793.3
70265.9
78844.8
69847.8
69715.1
81971.4
41852.3
24414.4
24452.5
46147.5
42226.5
23025.4
42155.5
-53310.1
-19308.1
-63343.7
-19295
-58482
-58500.7
-15097.8
-84199.4
-86442.3
-96460.7
-96144.2
-87263.8
-82128.9
-96315.6
-87551.8
-89853.7
-96528.4
-96533.5
-88963.8
-89001.7
-96545.5
-46979.1
-14869.8
-4349.98
-51229.7
-43504.3
-53604.1
-7630.67
-79821.4
-95441.2
-75055.3
-95437
-77330.5
-77357.2
-95810.2
-40412.4
788.251
831.224
-36408.9
-37780.9
-1478.93
-37805.2
-84195
-96463.2
-86431.7
-96140.2
-82085.5
-87277.1
-96315.6
-97074.4
-97245
-97297.6
-97275.5
-97388.5
-97189.5
-97157.8
-97019.1
-97112.7
-97005.3
-97012.5
-96945.6
-97254.2
-97031.8
-97101.7
-97152.6
-97131.9
-97073.6
-96974.8
-97154.8
-97333.6
-96881.7
-97231.6
-97067.3
-97156.8
-96952.4
-97140.5
-97042.1
-97071.8
-97004.7
-97135.3
-97001
-96946.8
-97269.3
-97043.5
-97061.3
-97119.5
-96988.1
-96990.1
-96938.5
-97029.8
-97257.6
-97050.3
-97253.3
-97148.4
-97253.5
-97101.5
-97095.7
-97356.5
-96885.8
-97033.5
-97027.5
-97070.2
-96960.9
-96980.4
-96974.5
-97116
-97168.1
-97095.4
-97149.2
-97347.7
-97168.1
-96998.7
-97036.3
-97117.3
-97023.2
-97009.9
-97038.8
-97263.4
-96960.3
-96901
-97235.2
-97172.4
-97072.1
-97155.1
-97044.9
-96975.5
-97033.7
-97148.6
-96889.7
-97147.2
-96959.4
-97191.4
-96958.8
-97026.2
-97017.2
-96835.3
-96978.2
-96956.1
-96910.1
-97069
-97008.8
-97043
-97050.6
-97050.5
-96992.9
-96992.7
-96969.3
-97026.1
-96835.1
-97017
-96978.4
-97069
-96956
-96910.1
-96979.7
-97051.9
-97051.4
-97065.1
-97025.2
-97060.1
-97025
-97026.6
-97117.1
-97029.8
-97159.5
-97076.7
-97148.8
-96964.1
-97023.5
-96972.8
-96973.2
-97088.6
-97062.3
-96916.6
-97062.1
-97078.9
-97015.1
-97007
-97141.2
-97043.5
-97280.1
-96956.5
-97057.9
-97261
-97137.9
-97261.2
-97101.9
-97101.8
-97369.5
-96884.5
-97033.8
-97034.2
-97059.9
-96977.4
-96964.4
-96977.1
64.1086
3080.95
1.2498e+06
73381
54.1564
0.598814
0.0379099
488.687
4.28624
0.0240943
0.04706
1056.45
93038.6
4.66823
0.0732545
654772
47876.5
8.0845
0.867127
43680.7
60.7158
650378
539787
27.8397
3085.48
1296.84
143300
2.32492
0.0315809
29105.7
40.4123
576633
3.20449
0.0570666
164851
2431.63
0.103679
1.36238
0.0719183
0.0701951
0.0930708
2753.79
34.8407
1.1799e+06
1.03713e+06
916359
775932
634501
223274
334235
135.396
0.157189
1.54758
0.141385
61.5763
0.0204514
0.00864917
0.0662696
1821.79
23.7082
0.0270597
0.0149457
145.296
1.55227
534846
680261
561805
54368.6
84167.1
94581.7
47743.7
681124
527191
560432
53563.2
80856.1
45176.2
94007.4
32886.2
21206.4
6692.09
3858.77
1184.34
784.732
244.121
453809
457708
343546
55232.4
30512.7
16528.8
29882.9
1.00155e+06
168852
616781
45884.3
317145
58761.6
5035.87
0.458841
0.00600713
0.0256102
0.0116062
0.0603877
0.00288873
0.000538797
280489
54372.9
302449
13468.5
1296.85
1479.81
11832.5
52707.9
271018
299534
13189.7
1173.59
1430.87
11050.8
309785
102034
216828
7511.04
5065.31
2747.37
13342.2
603108
78576.1
456521
26221
3977.8
1966.09
52037.9
213926
15417.9
139283
774.054
7530.15
4104.08
409.602
118416
1554.11
63917.1
7161.58
339.634
172.662
13748.9
3650.63
148.726
1112.32
17.3921
131.32
39.1346
5.12082
7137.31
214.134
1476.68
36.9237
258.42
52.2939
7.45232
6768.24
24116.6
67281.7
1744.53
61.0514
608.471
176.405
3364.73
8785.84
2172.84
379.719
102.958
244.709
11.3628
17805.5
15537
181128
5307.42
32.2641
382.516
443.446
1491
2405.1
34.4843
72.6622
39.2367
2735.03
1306.05
1466.74
71.9425
32.2927
2285.98
38.5743
1227.51
2710.55
3484.9
263.276
297.166
88.6922
100.4
9.56604
8.46255
137.65
1.43392
41.2518
1.05866
28.2109
8.46525
0.332236
1127
311.726
12703.1
1414.15
3.01089
33.7967
123.528
21.4845
1524.03
821.317
441.007
21.2504
11.3063
808.784
3352.08
240.478
288.117
79.1393
96.5697
9.27916
7.73179
160.965
961.242
83.9878
52.1344
27.3323
5.14028
2.68658
20.342
4.8598
196.496
103.201
0.313362
2.51449
10.6172
31.1582
33.644
240.364
8.27401
0.191336
1.09233
1.218
0.965832
317.364
34.304
361.284
1.09523
9.23806
39.0174
353.163
1.05826
30.9619
7.44773
9.01679
37.7265
294.29
636.735
30.7947
96.1924
1.14579
47.4425
15.3301
1270.28
193.451
9.1075
1.68954
128.233
4.80434
67.9867
356.507
2.60204
35.6972
73.3028
41.1102
83.8732
2.96104
1.5552
40.8444
70.1369
82.7465
2.92198
1.32479
1.54403
2.48563
374.248
12.625
36.9638
4.75658
12.5302
1.27613
0.503461
819.656
2.63681
34.9166
1.66451
22.2593
1.03769
0.0969125
47.363
12.4115
24.7119
0.908502
1.68249
0.910391
0.511805
414.153
11.5887
34.711
3.97688
11.5435
1.12441
0.412421
15.9945
4.9971
1.89926
1.48792
0.598189
0.225968
0.102429
127
0.303457
0.805957
0.221713
9.21913
2.93204
10.9051
43.4558
0.139139
0.377978
1.52183
1.05918
15.1641
4.46383
1.26843
0.31322
8.85031
1.79296
0.0353268
0.0876539
0.272939
58.6
0.103545
3.02836
0.182877
6.49512
0.340932
0.0272985
0.602799
0.176504
4.50233
1.33094
0.0333905
0.197154
0.0728829
4.87844
3.12365
9.85212
0.403532
0.144482
0.194602
0.253573
0.0463419
2.47137
0.290246
0.11126
2.80079
0.322658
0.0455596
0.106584
2.2088
2.69508
0.312647
0.0415919
0.0433874
0.266295
1.42736
0.0484003
0.746277
0.0347791
0.177743
0.107129
0.0316939
3.15673
0.0783577
0.312084
0.0622623
0.143563
0.0564756
0.0456803
0.950519
0.272079
2.8662
0.167574
0.0868768
0.0901476
0.115862
49.6761
0.0431799
375447
1.19299e+06
759.016
540527
26757.8
581702
851994
45387
18.2282
1.07754e+06
1.19515e+06
892327
1.26803e+06
827827
765340
1.0829e+06
940930
92772.3
706384
266267
1.07053e+06
662987
1889.09
653869
489.678
606984
491981
133062
781.903
7.44313
640291
614060
671163
693538
753883
793148
734158
835891
1.23977e+06
552745
1.16252e+06
1.24508e+06
332812
4993.52
829925
746393
714381
1.06231e+06
848081
892302
1.13288e+06
711550
708708
655248
848116
866667
922297
789845
858338
995428
900096
1.15746e+06
1.01389e+06
1.01469e+06
1.20579e+06
796070
748749
675317
673535
793195
756191
622783
1.03211e+06
84845.4
315.03
9380.91
841510
242.603
0.466114
849141
1.11548e+06
909331
967322
1.14441e+06
1.1732e+06
912338
668064
658045
647971
605723
538119
542080
448991
0.0474401
386236
424.9
1419.26
483690
143.088
0.0957378
977373
846826
789461
956203
1.26389e+06
1.04481e+06
1.20513e+06
308856
130.572
1.27848
31.8627
3858.18
0.200194
0.0251768
1.02502e+06
1.21598e+06
1.1101e+06
969091
1.19975e+06
854058
1.22804e+06
780575
879942
927758
970908
1.01937e+06
1.13539e+06
1.09763e+06
1.21941e+06
1.24097e+06
1.03887e+06
1.10058e+06
1.12803e+06
1.24636e+06
1.26399e+06
1.04284e+06
1.21818e+06
1.24001e+06
1.09413e+06
1.13043e+06
1.22718e+06
994973
713896
808920
828732
671167
372021
523870
526864
22.6785
0.0475131
0.0435916
293189
173.509
17546.5
2.94219
5394.55
1.29331e+06
1.01554e+06
12.6694
51699.8
0.116004
440.277
926268
1.28035e+06
1.03929e+06
1.2902e+06
1.14984e+06
1.25075e+06
1.25099e+06
1.16928e+06
382213
853426
744754
706538
227105
1.1211e+06
580477
603208
654835
261390
430016
311476
140750
1.1707e+06
1.01276e+06
1.16625e+06
1.21624e+06
1.23873e+06
1.23996e+06
1.26283e+06
162763
435031
566036
446483
33888.1
72351.9
316871
465213
566566
657059
212750
420381
298861
103806
1.01049e+06
1.19577e+06
1.05106e+06
1.24619e+06
1.30049e+06
1.2734e+06
1.22659e+06
1.16905e+06
1.19756e+06
1.21794e+06
1.26024e+06
1.08616e+06
975130
1.27665e+06
1.26897e+06
1.24122e+06
888300
1.1029e+06
647454
908291
348232
708947
325713
505227
164932
294343
82933.8
32239.3
336907
14335.1
214097
14323.5
214675
109301
4751.91
573233
501078
861548
23089.4
341391
92192.3
1.02481e+06
1.31571e+06
1.29632e+06
1.18024e+06
1.29288e+06
818107
1.18697e+06
1.10889e+06
500223
211078
112014
100179
192970
9959.18
11628.7
277667
8717.15
4382.45
50246.8
107943
19790.5
166638
347097
507896
312210
149330
5950.8
40969.7
29713.6
996679
1.09963e+06
1.27079e+06
1.20822e+06
236590
703698
884990
447472
46722
103618
76784
155613
7046.54
4004.71
1.17891e+06
774213
1.03584e+06
222115
632595
915016
1.24892e+06
433680
210346
88855.1
100982
30700.2
13018.4
4178.47
1.29551e+06
1.28341e+06
1.21834e+06
1.19719e+06
1.10542e+06
680298
823207
0.265911
232.356
412408
0.0210038
22.1014
0.0167605
0.0772238
3852.28
21121
92907.9
32935.2
243.958
6686.4
1186.24
177902
21718.6
51729.4
18178.1
8176.12
1765.96
617.307
0.0102201
3321.57
0.490593
0.00149012
0.0446873
0.218822
0.02116
3341.67
13211.3
83518.3
28595.2
152.66
1029.97
4305.76
1.00005e+06
45430.1
167804
58284.7
315448
615047
537851
1.11416e+06
239245
608310
215844
587459
93685
11637.4
1.28706e+06
565631
1.03943e+06
365491
867399
351615
51576.9
142796
3520.34
24568.3
958.839
6634.8
883.436
124.082
609468
4699.28
124497
15049
298914
23214
756.781
91153.1
30235.2
206161
10504.9
351.841
1074.9
3738.01
251583
972852
841109
164597
18674.2
9407.93
263941
754.41
8445.3
21283
3136.7
42.3151
106.944
1184.8
73631.6
574.18
1123.14
5148.36
2472.95
171.208
38.0312
7162.03
37.1099
214.635
52.3415
1478.39
259.237
1061.72
1193.08
23880
20185.4
730.023
52.545
44.2819
860.965
40233.6
1151.7
12401
140.731
1502.59
455.345
41.3367
601718
26039.1
455165
78159.8
3955.38
1954.5
142679
1545.05
87.3299
2700.73
238.164
4.21684
7.70177
131.967
7627.07
804.432
13871.1
501.442
15.5704
29.7916
271.32
123.192
4358.39
3770.16
340.737
13.0194
398.331
11.1148
3631.8
39.0696
1109.52
17.2575
485.917
148.232
5.09082
67032.6
107687
514549
37070.9
144.191
1799.16
3026.31
17677.7
5269.94
180223
15446.6
32.0614
380.225
1289.27
33547.2
73139.6
28633.7
2720.05
1124.44
2224.15
86.5294
2150.59
8713.59
72697.6
3328.64
11.2562
101.839
376.298
712.472
8.29402
266.132
1.82987
57.6715
20.0667
0.64038
3296.22
55.1831
1085.42
6.32205
114.185
37.8689
2.03794
368.558
240.764
2703.53
95.6835
1.14805
8.51588
12.9763
473.458
107.933
195.819
26.4318
15.6037
6.66168
0.936271
2630.08
51.5884
27.9451
186.79
90.8766
6.48959
1.95231
4884.79
494.883
243.013
6.1551
119.79
244.549
9617.8
370.237
4.69088
12.5496
1.22929
12.3175
36.6176
134.315
33.6566
8.08511
240.283
31.1178
0.178264
1.04313
4.26998
81942.4
162.788
3084.63
468.677
609420
643253
567008
705452
1243.12
134314
6.78251
24235.2
227.634
553359
631964
695156
165629
652503
561717
649723
649876
648492
627026
632355
599660
677136
578724
661364
646569
615555
594565
628235
693715
662462
700621
602916
556762
493901
1.39727
649175
80090.3
102854
12.4747
81.955
0.105657
708141
660711
670018
529025
350942
334328
539705
699576
703333
642291
504710
236839
296963
462304
126209
474330
467340
340200
44932.9
40207.2
351741
691979
623311
683143
453614
546590
397475
256540
415967
108306
448628
312375
19809.5
30862.4
264750
684202
464089
643548
159242
395558
296420
82514.5
51078.5
364609
287220
10571
197532
120827
4815.17
507456
535780
308581
315035
133871
108387
23473.3
443172
329986
567652
173407
7001.41
67216.6
27810.8
9309.73
87464.4
185730
54434.7
505.91
1769.23
15928.6
158602
1080.99
37303.9
8325.17
32431.7
7358.98
171366
131994
3530.59
14101.3
786.65
23695.6
5578.92
94564.5
1793.38
6951.98
54164.1
22860.5
88.413
735.723
2823.08
335436
12880.5
102866
3542.25
27438.5
3542.45
406.686
255456
7033.9
45090.3
1430.73
14767.5
2630.04
226.133
5136.82
24684
778.045
120.285
3860.13
729.296
22.4647
7709.24
66.0621
27.247
221.844
248.052
2155.2
876.011
405092
533882
434628
318765
182509
600610
485761
244198
324665
360731
367018
511957
514921
547526
544871
565888
353732
395936
336437
378172
521686
553581
479371
412567
418874
584563
621910
622814
582658
450265
633613
520119
498463
430488
589539
626065
433014
593608
593418
589256
391716
590390
388556
590415
354696
581126
422863
591698
585698
376229
574413
331406
236312
543027
539236
576468
326333
282678
558155
509229
568160
216185
528408
310590
2.70948
36.8114
1159.44
857.629
11048
351.187
27.6295
0.384437
3.25854
108.71
25.9437
847.021
108.707
3.25587
14.3409
44.8537
466.052
80.9507
0.252671
7.04435
2.45617
0.583904
77.5178
2.38542
5.48825
0.0587698
0.18994
1.24896
13.9465
60.4048
286.204
9.93962
0.155062
2.16079
0.555137
4713.51
8.88443
170.997
6.82836
135.192
5.42633
0.315056
24.9691
0.0855322
1.84076
0.983563
1.55364
29.4451
0.836683
1.8742
4.98148
53.9389
15.9534
0.0783324
0.574658
1.46321
925.068
3.79702
1.15031
2.01021
22.736
45.9713
76.3739
813.861
1.03167
34.6678
1.65665
61.2389
2.62856
0.0966812
17.0156
0.315777
0.557226
0.0642235
1.04471
0.570962
9.07552
4.82913
1.79143
53.1992
0.306429
2.84109
0.155199
0.0638888
0.0220856
0.0493608
0.862124
0.0540709
0.334721
1.13075
10.7493
0.500268
3.34302
0.12707
0.0338963
0.23186
0.0551441
0.0267751
3.23256
0.0409472
0.0617101
0.034864
0.127293
0.302905
0.450772
0.14861
0.239441
3.71974
1.24419
0.0388244
0.0746746
0.103482
9.79047
0.110934
1.2996
0.0753127
0.390121
0.0982782
0.0562687
2.96673
0.667564
10.9459
0.476689
0.124229
0.137308
0.221641
0.202447
0.114176
3.70558
0.174189
0.0156301
0.0212668
0.0253248
0.971484
0.135038
2.95935
0.247609
0.0473907
0.0518672
0.108451
699378
696512
10550.1
723807
34970.2
728107
485064
403132
358839
476062
366561
485209
494425
674176
667843
380676
551884
541927
505475
515161
691499
718102
667269
730053
661686
745430
621162
605917
750859
735152
690746
695318
748990
594471
754747
579065
709430
716354
683512
740342
512020
572281
729672
717488
730962
708873
742815
486921
545395
730502
616997
29398.9
311459
287233
289090
631879
265873
584440
170264
154859
19839.3
241315
220826
527041
1.15136e+06
584113
86569.6
3039.18
686537
0.160289
1.21317e+06
0.0236711
1511.62
2.3158
1.27702e+06
424316
300801
58929.8
289.572
1.15988e+06
509713
748099
494403
1.16546e+06
754221
1.16432e+06
977260
92808.4
966.521
84465.7
945.986
1.18632e+06
582960
1.14094e+06
772881
1.18236e+06
912132
1.26406e+06
830817
89530.8
650.659
1.18646e+06
558101
317305
1.12191e+06
5184.09
44.6301
991357
1.22662e+06
1.11002e+06
51859.4
824202
1.06303e+06
1.35894e+06
406446
426.776
4.81857
421.335
4.72836
502066
85534.8
886805
211.38
21261.4
994803
1.26337e+06
606398
27252.3
3.22688
473149
61059.4
4273.68
214598
19.0444
0.220842
815750
743812
811745
995156
944201
999265
938206
823056
745930
814303
997406
950447
1.0074e+06
939716
589317
3769.99
745994
1.92651
2236.44
1.12886e+06
33857.2
840202
803536
867733
976467
1.03003e+06
1.0665e+06
1.01914e+06
737841
780552
824880
819767
865543
982092
944064
925816
1.15253e+06
924088
1.12331e+06
1.23827e+06
1.12327e+06
1.24537e+06
651264
13.0093
188339
0.0298232
0.757171
13066.9
101.601
1195.44
0.0722245
11.7435
167234
1.02611e+06
1494.43
11.2732
938234
1.15619e+06
927963
1.12675e+06
1.2438e+06
1.24671e+06
1.13569e+06
848835
967089
909013
1.11521e+06
1.14435e+06
1.1731e+06
1.07736e+06
1.18538e+06
1.18997e+06
984397
1.04956e+06
1.06206e+06
687258
670917
968676
1.18977e+06
980533
1.04191e+06
1.05909e+06
681950
656740
958041
1.20992e+06
990612
1.23948e+06
1.15493e+06
1.18467e+06
1.22767e+06
719403
594149
728657
408351
270562
392030
286989
712221
593931
726001
406508
268938
286832
386176
794371
1.15935e+06
890293
1.22624e+06
948037
1.09879e+06
1.32852e+06
1.2406e+06
1.10018e+06
1.03828e+06
1.21922e+06
1.12944e+06
1.24656e+06
1.19611e+06
950450
1.18557e+06
917282
1.00781e+06
603317
949380
514058
686553
512010
641875
228385
339813
263116
165148
1.04268e+06
1.09411e+06
1.13036e+06
1.2183e+06
1.2274e+06
1.2407e+06
1.26857e+06
264613
30.2569
0.23583
439101
7203.12
1.25565e+06
1.20702e+06
1.18363e+06
1.09227e+06
1.15973e+06
1.17412e+06
1.18203e+06
1.10856e+06
1.15932e+06
1.18593e+06
1.17661e+06
1.09543e+06
1.16739e+06
1.11083e+06
1.19074e+06
1.16067e+06
1.01034e+06
1.24625e+06
1.05091e+06
1.19568e+06
1.30081e+06
1.27384e+06
1.16242e+06
900302
1.10207e+06
936593
1.14336e+06
1.27247e+06
1.28908e+06
1.10496e+06
1.18477e+06
1.33542e+06
1.17009e+06
1.31136e+06
1.05632e+06
1.24354e+06
826082
1.06021e+06
1.18819e+06
1.20393e+06
1.22007e+06
1.08798e+06
992393
1.21962e+06
501719
513244
421189
177173
192341
97800.4
87183.4
513706
406877
421820
176554
192494
97926.5
86733.2
934568
582972
813115
472009
682369
364453
178949
435115
447588
566795
163434
34017.6
72900.8
92797.8
1.16959e+06
746288
854455
708836
853884
384174
228896
1.17051e+06
1.21725e+06
1.23877e+06
1.01459e+06
1.24072e+06
1.16756e+06
830025
420237
371111
307903
142515
94870.8
63726.5
34975.1
1.26074e+06
1.19762e+06
1.21801e+06
1.17026e+06
1.08765e+06
976779
1.24082e+06
1.22166e+06
1.03968e+06
913867
533966
1.21371e+06
935183
1.05543e+06
1.22271e+06
988077
1.24273e+06
708599
1.18793e+06
877831
1.24578e+06
1.31604e+06
1.29328e+06
1.18006e+06
1.29638e+06
819570
1.24571e+06
1.18782e+06
1.31545e+06
1.23667e+06
1.03474e+06
1.26914e+06
1.14024e+06
1.33041e+06
1.32165e+06
853343
992923
1.21303e+06
1.19293e+06
319871
757274
922119
1.22377e+06
528496
909519
1.03402e+06
934578
1.05332e+06
1.22011e+06
565947
454783
346475
316120
208347
92885.4
31164.6
1.29566e+06
1.19799e+06
681358
1.28378e+06
1.21883e+06
1.10631e+06
1.29338e+06
336469
108966
213258
14313.8
45205.8
14225.2
4732.68
1.27898e+06
1.32334e+06
1.3378e+06
1.30039e+06
1.27664e+06
934734
1.05734e+06
259004
98150
277578
25862.9
3626.42
4252
21951
1.14192e+06
197890
647029
419427
1.04358e+06
613492
810434
258272
98034.9
277856
25849.7
3569.01
21687.7
4242.6
1.20928e+06
1.10104e+06
1.27126e+06
998389
238262
705815
555132
1.1799e+06
478507
1.09231e+06
914822
337594
237247
1.02784e+06
279046
50616.1
108879
8766.27
20004.8
4431.18
1903.48
575295
863438
343519
503631
93282.3
268368
23405
135.716
0.091375
0.0217208
0.263647
299.875
700629
1953.12
24732.1
0.0378302
6.78434
0.00408477
0.0614929
0.664736
0.129139
599562
102706
620489
186318
7806.6
171838
8769.5
99360.7
581790
613984
181969
7149.3
8499.22
160891
215517
32588.1
151969
2376.14
14609.3
7823.02
1215.16
1.3201e+06
560740
974635
587404
1.02105e+06
415934
74959.5
515608
4899.17
32318.6
121472
412148
73062.8
2619.44
60338.3
24771
2056.89
1115.05
53275.2
2357.82
28630.6
59688.5
1109.12
1972.49
24318.5
2327.19
28527.8
51416.2
1.28747e+06
366736
352643
566628
1.04016e+06
1.01642e+06
868612
1.11512e+06
94552.4
610136
217032
842878
240577
11739.5
425599
23573.6
140145
10075.6
71369.8
6562.27
881.702
1.34499e+06
710619
781251
1.18855e+06
1.1421e+06
622328
159983
1337.9
16768
35905.1
19132.5
349.53
705.685
9144.93
14147.6
145369
280415
32552.2
375.648
11433.3
1095.69
10854.1
493.741
12552.6
4367.47
137.591
161.341
3753.09
492.875
10744.9
12546.2
4368.08
135.929
161.195
3716.67
636127
414180
11273.6
119142
293969
66949.7
770960
427750
218932
881430
637672
6555.11
70608.3
199783
13065.7
28401
82863
3309.97
151.524
1023.45
484.523
10620.6
91815.6
207590
30532.2
354.49
9452.17
1085.38
268605
120518
504515
70924.6
1358.69
5228.33
19828
0.0741728
0.00147663
0.00741122
0.0326961
0.0789071
747.067
0.327014
7530.56
153.028
4170.51
90.8921
2524.34
1308.56
46.8893
8085.6
142.921
1257.81
94.1958
2759.75
293.433
3959.68
153763
4003.54
61028.2
530.014
7916.15
2407.88
154.456
40478.6
456.985
12448.6
141.454
3879.13
1155.71
41.4512
23494.8
611755
125772
15220.7
85779.4
4759.82
765.966
165098
973438
841785
252001
18729.7
9436.09
375908
305303
1.08391e+06
964771
305455
32898.4
16238.3
439276
330780
8389.26
2369.02
1299.65
94210.8
14062.8
52014.5
3174.61
8516.13
21546.9
763.597
42.7246
108.274
317.729
60.9231
536.459
1704.12
530.303
5.76147
168.886
18.7658
28831.7
73478.5
413629
33784.1
86.997
2734.66
1132.66
51192.1
103.28
3331.19
359.22
12605.2
765.815
23.6791
117741
129793
168382
6870
5049.56
7415.01
260.716
37230.7
108026
515326
67202
144.627
5408.1
1804.91
984.907
133.288
30.5799
5.68235
35.9204
157.179
838.443
984.015
5.66525
30.1256
131.076
35.8734
827.962
156.77
89627
181165
658849
89699
241.878
7209.07
3121.92
1611.79
2111.72
932.251
134.7
79.1012
62.3477
5.23234
19.9511
86.317
557.808
293.401
1.61792
10.2032
43.7154
95.8062
368.911
2709.51
241.278
1.13327
31.8871
8.50262
1691.82
796.512
12692
489.717
3.94099
30.8796
63.6125
324.873
23.9521
706.933
153.916
2.42568
5.26427
68.1
2651.14
28.0753
6.49373
51.8953
187.944
763.926
91.5182
7959.81
78.8353
97.4265
400.325
309.917
15.8553
4.09652
432
71.687
2626.06
148.677
0.695816
23.3587
4.45177
14139.2
806.074
14.6315
1032.36
505.298
396.669
28510
117.537
0.667119
5.16752
1.24509
35.9724
3.94372
17.1118
10.9887
20.1743
303.268
88.4427
0.234364
5.77083
3.20371
217.202
30.3149
37.1951
10.5573
8.63224
1.58508
0.477026
628198
1.04186e+06
653929
612449
642367
1.0217e+06
1.06499e+06
13098.6
648743
138448
1492.59
941505
380375
452844
498125
348596
928548
620369
700547
463123
344401
466850
960925
321178
702933
964575
395468
468721
734066
1.13202e+06
431572
566465
698004
468532
355109
623021
1.20507e+06
544701
405716
427208
427941
324391
504623
672816
475590
626808
385976
333177
524997
103182
542017
411389
676746
496345
489275
442164
551454
611054
607660
557952
451504
490738
442303
550102
608681
553011
607297
398246
456815
390967
528768
597272
594657
531700
458674
402367
392866
529415
597692
531753
595258
358287
350527
370806
467048
432734
474806
425796
374636
347268
369154
464898
424983
467987
423142
322187
315347
335868
463554
437449
431064
469244
345445
314905
336710
463943
435625
468423
430691
504672
514453
487523
617672
568240
582682
631683
370517
386903
415307
445095
488073
507112
461818
407368
477156
419846
603044
538913
558625
620348
859731
1.09753e+06
1.25177e+06
789802
1.20464e+06
463018
615784
909893
32537
773512
527460
1.22796e+06
614282
468342
332281
346075
369106
449453
479810
502660
472874
406985
467528
438819
532330
513866
564425
484209
533077
533467
507893
603156
703441
631934
659420
500667
488700
444939
600356
724630
659170
675542
319444
348977
343474
436715
430089
469125
476467
434867
346189
321647
318310
342451
429556
468960
577917
693936
527011
621035
686491
585280
520362
717640
124.128
462152
29563.9
430235
475628
727621
686778
519107
577905
575289
618265
683729
517516
368008
435376
393512
545247
573706
613872
512757
347675
359638
378069
450217
475441
492751
521974
659099
784317
748530
930772
777315
742829
665045
741216
775033
657765
656767
926944
774177
740645
719338
958712
776772
1.03299e+06
956848
769749
727974
706701
539317
598121
616274
663637
725648
557091
725515
1.03577e+06
773144
719378
1.03174e+06
958722
769185
503629
503129
548761
551500
604825
652229
597252
796975
761538
675449
691253
1.00422e+06
817290
786770
371563
456615
408314
572431
515679
563952
614963
970331
795175
749886
792223
1.1049e+06
992003
833544
269825
180098
725338
178026
668323
264552
63.8063
650061
798150
610825
704032
800990
605763
657635
611528
803134
657529
650849
705253
803521
606480
566700
678882
609809
766026
668997
715071
848262
684455
219425
41.9787
61.047
11641.5
744549
28734.2
640076
693323
793024
614012
753655
671095
581519
798715
623437
675363
706335
693345
800592
645264
402709
495875
395511
551849
671639
558873
668547
503864
559150
400658
495887
394879
552216
669311
557371
711479
663872
823954
789019
938273
962297
501604
564177
604948
650640
709050
810714
721572
596107
657646
592544
619854
627161
633334
621890
666951
552838
604451
707843
724332
777487
652582
714105
1.06121e+06
891980
891510
847689
746247
829159
622997
654896
597307
658163
593310
620460
633129
417624
561319
443765
682390
576115
605262
699668
606130
636690
624120
614461
629967
644468
588306
748393
673595
756773
706405
793456
795712
675450
857205
1.15636e+06
1.01474e+06
993796
1.01349e+06
898665
939711
848045
655314
711590
765437
866595
922238
708825
529236
569306
636778
621305
665407
687087
678711
614112
546512
484712
643447
699966
682933
713057
721144
759035
660907
772681
1.08783e+06
846367
954898
1.035e+06
845871
827935
1.08097e+06
1.25994e+06
1.13708e+06
1.12537e+06
605557
668165
648236
658237
448564
537545
653803
955900
976481
789416
846807
1.2638e+06
1.04451e+06
1.08208e+06
672170
572699
445416
673429
583347
671019
681370
673678
571961
671688
672516
445130
582718
681311
835972
879895
1.1353e+06
970802
927746
1.01927e+06
780663
894401
686368
750396
877034
661739
842625
740215
969744
1.10863e+06
1.02403e+06
1.07027e+06
1.20024e+06
855356
1.21508e+06
668839
747261
663282
730677
751769
620727
607309
662658
723813
745655
730080
750957
620264
604930
547042
657799
672591
672869
314584
498587
625804
672159
714076
828669
809465
372994
525351
663555
710077
716154
740301
729260
698794
570995
510558
671368
688037
694733
562188
671558
613528
457322
626373
727306
699386
635942
693598
641353
508600
926148
1.28026e+06
1.25078e+06
1.29058e+06
1.03906e+06
1.14964e+06
1.19251e+06
655016
311315
603174
261901
580897
492152
140856
736081
626348
696961
572494
655881
413865
275118
656655
211450
298021
464263
419331
606461
565521
1.03267e+06
1.24163e+06
350226
1.104e+06
889480
649418
1.26882e+06
710082
83802.4
326974
165882
506931
296050
541489
626467
643374
712883
511500
89618.8
290953
303564
30304.8
619269
287845
631879
311548
292127
35145.8
544404
197636
559673
279008
21119.7
259325
24828
197239
542920
559649
278219
20549.6
256057
24643.7
286204
616124
631101
310234
29060
287597
34665.5
211103
89247.7
434384
309250
4192.58
101271
30783.8
505226
85880.8
438995
13666.8
209293
141613
7150.11
148973
311527
507520
346972
5936.73
40924.4
132828
583277
153696
525728
19585.6
239719
168920
10425.7
37179.9
200776
336829
70394.8
882.336
2884.63
22879.6
81467.9
299009
433468
89731.2
1396.94
31097.4
4398.07
559315
725194
564856
506401
112519
581997
679053
716579
486026
484465
286873
287684
599005
578216
52731.5
557498
202283
551239
338628
180001
615511
306818
616037
544308
670616
294578
263585
721074
292237
213813
208479
281273
275753
367131
373415
294481
209322
216151
283482
276553
367883
375710
227689
242642
295602
313436
325104
390352
413752
479415
565114
724.54
739861
334614
123477
744108
582538
376783
421241
407393
573239
456419
602880
694613
661855
712772
880.763
454033
742778
648871
15838.4
696978
618593
507338
729.307
682943
54389.3
264144
375654
388010
339453
351358
448650
502432
502569
624386
449061
598561
502579
624408
638652
595948
529663
403392
590978
397199
522679
716105
476809
366941
359287
485731
675172
495158
668728
674744
492936
364944
476575
358639
485184
668939
591781
398143
406150
523454
717472
532735
716180
479202
641218
550355
588779
518151
631244
641386
381169
542843
403644
692390
516015
552699
718686
422097
644469
448254
723939
553612
589969
734192
385459
424637
438856
496705
515059
583093
689611
314534
229776
621243
545048
699332
340719
371272
682788
204875
229184
277993
255650
306689
308064
339422
265303
345296
294452
411793
351505
385513
454574
273953
377005
304838
444266
359829
397789
499728
515261
563354
407861
572194
411179
456241
614608
410765
504572
377719
464277
509711
637468
680034
688513
402569