/*--------------------------------*- C++ -*----------------------------------*\
  =========                 |
  \\      /  F ield         | OpenFOAM: The Open Source CFD Toolbox
   \\    /   O peration     | Website:  https://openfoam.org
    \\  /    A nd           | Version:  9
     \\/     M anipulation  |
\*---------------------------------------------------------------------------*/
FoamFile
{
    format      ascii;
    class       volScalarField;
    location    "0.00105";
    object      p;
}
// * * * * * * * * * * * * * * * * * * * * * * * * * * * * * * * * * * * * * //

dimensions      [1 -1 -2 0 0 0 0];

internalField   nonuniform List<scalar> 
8976
(
185509
4170.64
4722.74
202036
43631
195846
49386.4
180634
88733.1
4320.26
4158.01
4150.69
4096.44
4160.11
4147.24
4273.07
116947
117935
192183
179350
127354
131177
182422
4369.73
4215.94
4394.71
4254.8
4151.34
4277.73
4080.68
88867.8
88275.8
4789.19
6260.39
102980
4811.24
78395.4
119983
211058
117536
125487
198902
125707
188497
39935.2
8505.77
5031.01
77754.2
5157.74
4566.1
48500.5
125385
208491
117360
201166
119890
125328
187533
40398
43862.6
5041.74
5227.99
8624.35
77989.8
4583.86
116573
188290
130238
116781
178216
127147
180974
79178.6
4834.35
4834.67
88913.4
6355.6
102873
4834.37
4101.48
4192.12
4194.26
4283.49
4169.14
4085.32
4289.26
4164.71
4050.69
4057.54
4218.47
4111.25
4111.29
4238.51
4277.18
4298.99
4148.15
4151.74
4213.65
4142.69
4286.25
4186.89
4149.57
4319.72
4177.98
4269.6
4281.48
4082.33
4055.37
4146.57
4045.28
4222.71
4101.74
4211.45
4105.58
4189.45
4367.24
4056.62
4367.23
4259.41
4148.49
4285.39
4268.35
4136.83
4134.58
4272.96
4155.56
4221.77
4134.54
4303.84
4205.93
4301.35
4153.14
4371.28
4167.14
4250.9
15778.6
13142.9
4745.7
5015.45
4880.68
17767.3
12533.2
54301.2
86319.5
49989.9
96832.3
47671
93626.1
57743.2
4211.79
4001.61
4041.77
4019.28
3905.96
4095.49
4140.19
4271.63
4180
4267.78
4138.04
4334.04
4149.05
4221.38
4219.09
4282.67
4156.92
4291.05
4017.83
4341.56
4254.37
143501
123007
115965
138592
122181
140964
141079
144024
139304
123566
116425
141732
122104
141940
173540
181623
172223
181167
171649
172730
185118
144171
126079
126390
147773
125134
143893
144519
4285.46
4285.84
4321.55
4478.26
4361.16
4398.71
4234.59
4300.26
4180.43
4172.09
4440.8
4375.68
4130.56
4370.06
4292.86
4308.68
4340.52
4489.84
4372.74
4406.39
4253.54
4335.36
4245.99
4244.76
4231.75
4238.48
4277.5
4290.57
4292.6
4273.3
4194.39
4141.33
4160.71
4357.7
4226.27
4283.27
4325.07
4334.03
4206.61
4389.32
4239.18
4247.76
4313.46
4270.02
4283.14
4273.32
4333.29
4330.08
4349.94
53659.2
97096.7
49796.8
86253.8
93821.8
46931.1
57558.9
52864.4
47780.9
96841.6
85511.3
93355.7
56406.1
45506.1
12693.6
4712.19
4725.93
10686.9
4697.76
11542.4
11282.4
20581
5700.06
25864.5
5790.22
5364.73
23590.4
23030.3
60200.7
102269
102241
64668.1
100021
63295.1
62791.4
16331.3
14625.2
4792.54
5117.74
4916.94
13390.8
18884.6
46568.7
81410.3
81070.6
36462.5
85538.1
41524.5
40935.5
10660.1
10398.5
5211.29
4689.12
10372.9
10483.1
5010.55
33911.7
72102
41073.3
77657.2
39628.7
72421.7
35451.1
11346.8
5364.33
4941.14
11516.5
11970.1
5134.1
11072.3
10191.6
4533.84
10839.3
4678.76
10949.1
9928.45
4726.7
10845.3
10466.9
5227.24
4710.87
10510.4
10585.9
5043.82
11809
12118.5
5426.28
4988.35
11579.1
12536.3
5180.03
34488.5
78071.1
72368.2
41373.7
35661
72900.1
40382.7
10455.3
4558.43
4707.97
10989.4
10034.7
11349.3
4755.74
142627
138157
115363
122517
140320
121269
140593
142743
115533
122617
138393
140715
140538
121318
171686
180091
171564
180143
171146
171013
183269
143150
125712
125750
147446
143524
124323
143454
47987.9
81989.9
37954.3
82003
42816
42797.3
86200.2
17098.6
14855.7
4837.28
5153.76
14034.2
19169.1
4982.42
13746.2
11444.3
4769.65
4764.52
12334.2
12296.3
4752.5
54318.9
86428.2
96948
50068.3
57793.7
47693.9
93667.3
21476.6
5856.84
26242.7
5861.02
23967.5
23940.8
5487.79
60885.6
102086
102129
64889.1
63517.1
99819.1
63492.8
17103
4834.78
14866.3
5157.76
19212.5
14020.9
4982.35
4223.65
4052.99
4000.41
4022.49
3909.54
4108.48
4140.21
4278.92
4185.25
4292.73
4285.52
4352.39
4043.78
4266.18
4196.25
4145.35
4166.13
4224.42
4323.17
4143.2
3964.41
4416.33
4066.37
4230.73
4141.17
4345.56
4157.49
4255.91
4226.19
4293.28
4162.66
4296.95
4351.2
4028.65
4254.5
4236.68
4178.46
4309.94
4307.89
4359.45
4268.21
4040.43
4247.71
4044.67
4149.57
4044.53
4196.49
4202.27
3941.55
4412.24
4264.48
4270.51
4227.82
4337.14
4317.58
4323.5
4181.97
4129.88
4202.6
4148.81
3950.33
4129.88
4299.28
4261.66
4180.68
4274.81
4288.13
4259.19
4034.65
4337.73
4397
4062.83
4125.59
4225.89
4142.87
4253.13
4322.45
4264.3
4149.38
4408.32
4150.79
4338.61
4106.62
4339.23
4271.79
4280.78
4462.74
4319.8
4341.87
4387.9
4228.99
4289.18
4255.01
4247.4
4247.46
4305.13
4305.25
4328.66
4271.9
4462.89
4280.99
4319.64
4229.02
4341.97
4387.88
4318.32
4246.14
4246.61
4232.89
4272.84
4237.91
4272.99
4271.39
4180.92
4268.17
4138.55
4221.3
4149.24
4333.86
4274.47
4325.18
4324.79
4209.43
4235.65
4381.36
4235.86
4219.14
4282.92
4290.98
4156.79
4254.51
4017.88
4341.51
4240.12
4037.01
4160.1
4036.81
4196.1
4196.2
3928.45
4413.48
4264.2
4263.79
4238.07
4320.63
4333.6
4320.86
101362
104379
1.3511e+06
174679
101352
101299
101298
101787
101302
101298
101298
102354
194337
101303
101298
756070
149174
101306
101299
144979
101359
751676
641085
101326
104383
102595
244598
101300
101298
130404
101338
677931
101301
101298
266149
103730
101298
101299
101298
101298
101298
104052
101333
1.2812e+06
1.13843e+06
1.01766e+06
877230
735799
324572
435533
101433
101298
101300
101298
101360
101298
101298
101298
103120
101322
101298
101298
101443
101300
636144
781559
663103
155667
185465
195880
149042
782422
628489
661730
154861
182154
146474
195305
134184
122504
107990
105157
102482
102083
101542
555107
559006
444844
156530
131811
117827
131181
1.10285e+06
270150
718079
147182
418443
160060
106334
101298
101298
101298
101298
101298
101298
101298
381787
155671
403747
114766
102595
102778
113130
154006
372316
400832
114488
102472
102729
112349
411083
203332
318126
108809
106363
104045
114640
704406
179874
557819
127519
105276
103264
153336
315224
116716
240581
102072
108828
105402
101708
219714
102852
165215
108460
101638
101471
115047
104949
101447
102410
101315
101429
101337
101303
108435
101512
102775
101335
101556
101350
101305
108066
125415
168580
103043
101359
101906
101474
104663
110084
103471
101678
101401
101543
101309
119104
116835
282426
106605
101330
101681
101741
102789
103703
101332
101371
101337
104033
102604
102765
101370
101330
103584
101337
102526
104009
104783
101561
101595
101387
101398
101308
101306
101436
101299
101339
101299
101326
101306
101298
102425
101610
114001
102712
101301
101332
101422
101319
102822
102119
101739
101319
101309
102107
104650
101538
101586
101377
101395
101307
101306
101459
102259
101382
101350
101325
101303
101301
101318
101303
101494
101401
101298
101301
101309
101329
101332
101538
101306
101298
101299
101299
101299
101615
101332
101659
101299
101307
101337
101651
101299
101329
101305
101307
101336
101592
101935
101329
101394
101299
101345
101313
102568
101491
101307
101300
101426
101303
101366
101655
101301
101334
101371
101339
101382
101301
101300
101339
101368
101381
101301
101299
101300
101300
101672
101311
101335
101303
101311
101299
101299
102118
101301
101333
101300
101320
101299
101298
101345
101310
101323
101299
101300
101299
101299
101712
101310
101333
101302
101310
101299
101298
101314
101303
101300
101299
101299
101298
101298
101425
101298
101299
101298
101307
101301
101309
101341
101298
101298
101300
101299
101313
101302
101299
101298
101307
101300
101298
101298
101298
101357
101298
101301
101298
101304
101298
101298
101299
101298
101303
101299
101298
101298
101298
101303
101301
101308
101298
101298
101298
101298
101298
101300
101298
101298
101301
101298
101298
101298
101300
101301
101298
101298
101298
101298
101299
101298
101299
101298
101298
101298
101298
101301
101298
101298
101298
101298
101298
101298
101299
101298
101301
101298
101298
101298
101298
101348
101298
476745
1.29429e+06
102057
641825
128056
683000
953292
146685
101316
1.17883e+06
1.29644e+06
993625
1.36932e+06
929125
866638
1.1842e+06
1.04223e+06
194070
807682
367565
1.17182e+06
764285
103187
755167
101788
708282
593279
234360
102080
101305
741589
715358
772461
794836
855181
894446
835456
937189
1.34107e+06
654043
1.26382e+06
1.34638e+06
434110
106292
931223
847691
815679
1.1636e+06
949379
993600
1.23418e+06
812848
810006
756546
949414
967965
1.02359e+06
891143
959636
1.09673e+06
1.00139e+06
1.25876e+06
1.11519e+06
1.11599e+06
1.30709e+06
897368
850047
776615
774833
894493
857489
724081
1.13341e+06
186143
101613
110679
942808
101541
101298
950439
1.21678e+06
1.01063e+06
1.06862e+06
1.24571e+06
1.2745e+06
1.01364e+06
769362
759343
749269
707021
639417
643378
550289
101298
487534
101723
102717
584988
101441
101298
1.07867e+06
948124
890759
1.0575e+06
1.36519e+06
1.14611e+06
1.30643e+06
410154
101429
101299
101330
105156
101298
101298
1.12632e+06
1.31727e+06
1.2114e+06
1.07039e+06
1.30105e+06
955356
1.32934e+06
881873
981240
1.02906e+06
1.07221e+06
1.12067e+06
1.23669e+06
1.19893e+06
1.3207e+06
1.34227e+06
1.14017e+06
1.20188e+06
1.22933e+06
1.34766e+06
1.36529e+06
1.14414e+06
1.31947e+06
1.34131e+06
1.19543e+06
1.23173e+06
1.32848e+06
1.09627e+06
815194
910218
930030
772465
473319
625168
628162
101321
101298
101298
394487
101472
118845
101301
106693
1.39461e+06
1.11684e+06
101311
152998
101298
101738
1.02757e+06
1.38165e+06
1.14058e+06
1.3915e+06
1.25114e+06
1.35205e+06
1.35229e+06
1.27058e+06
483511
954724
846052
807836
328403
1.2224e+06
681775
704506
756133
362688
531314
412774
242048
1.272e+06
1.11406e+06
1.26755e+06
1.31754e+06
1.34003e+06
1.34126e+06
1.36413e+06
264061
536329
667334
547781
135186
173650
418169
566511
667864
758357
314048
521679
400159
205104
1.11179e+06
1.29707e+06
1.15236e+06
1.34749e+06
1.40179e+06
1.3747e+06
1.32789e+06
1.27035e+06
1.29885e+06
1.31924e+06
1.36154e+06
1.18746e+06
1.07643e+06
1.37795e+06
1.37027e+06
1.34252e+06
989598
1.2042e+06
748752
1.00959e+06
449530
810245
427011
606525
266230
395641
184232
133537
438205
115633
315395
115621
315973
210599
106050
674531
602376
962846
124387
442689
193490
1.1261e+06
1.41701e+06
1.39762e+06
1.28154e+06
1.39418e+06
919405
1.28827e+06
1.21019e+06
601521
312376
213312
201477
294268
111257
112927
378965
110015
105680
151545
209241
121089
267936
448395
609194
413508
250628
107249
142268
131012
1.09798e+06
1.20093e+06
1.37209e+06
1.30951e+06
337888
804996
986288
548770
148020
204916
178082
256911
108345
105303
1.28021e+06
875511
1.13714e+06
323413
733893
1.01631e+06
1.35022e+06
534978
311644
190153
202280
131998
114316
105476
1.39681e+06
1.38471e+06
1.31964e+06
1.29849e+06
1.20672e+06
781596
924505
101298
101530
513706
101298
101320
101298
101298
105150
122419
194206
134233
101542
107984
102484
279200
123017
153027
119476
109474
103064
101915
101298
104620
101298
101298
101298
101298
101298
104640
114509
184816
129893
101451
102328
105604
1.10135e+06
146728
269102
159583
416746
716345
639149
1.21546e+06
340543
709608
317142
688757
194983
112935
1.38836e+06
666929
1.14073e+06
466789
968697
452913
152875
244094
104818
125866
102257
107933
102181
101422
710766
105997
225795
116347
400212
124512
102055
192451
131533
307459
111803
101650
102373
105036
352881
1.07415e+06
942407
265895
119972
110706
365239
102052
109743
122581
104435
101340
101405
102483
174930
101872
102421
106446
103771
101469
101336
108460
101335
101513
101350
102776
101557
102360
102491
125178
121483
102028
101351
101342
102159
141532
102450
113699
101439
102801
101753
101339
703016
127337
556463
179458
105253
103252
243977
102843
101385
103999
101536
101302
101306
101430
108925
102102
115169
101799
101314
101328
101569
101421
105656
105068
101639
101311
101696
101309
104930
101337
102408
101315
101784
101446
101303
168331
208985
615847
138369
101442
103097
104324
118976
106568
281521
116745
101330
101678
102587
134845
174438
129932
104018
102422
103522
101385
103449
110012
173996
104627
101309
101400
101674
102010
101306
101564
101300
101356
101318
101299
104594
101353
102383
101304
101412
101336
101300
101667
101539
104002
101394
101299
101307
101311
101771
101406
101494
101324
101314
101305
101299
103928
101350
101326
101485
101389
101304
101300
106183
101793
101541
101304
101418
101543
110916
101668
101303
101311
101299
101310
101335
101432
101332
101306
101538
101329
101298
101299
101302
183240
101461
104383
101767
710718
744551
668306
806750
102541
235612
101305
125533
101526
654657
733262
796454
266927
753801
663015
751021
751174
749790
728324
733653
700958
778434
680022
762662
747867
716853
695863
729533
795013
763760
801919
704214
658060
595199
101299
750473
181388
204152
101310
101380
101298
809439
762009
771316
630323
452240
435626
641003
800874
804631
743589
606008
338137
398261
563602
227507
575628
568638
441498
146231
141505
453039
793277
724609
784441
554912
647888
498773
357838
517265
209604
549926
413673
121108
132160
366048
785500
565387
744846
260540
496856
397718
183812
152377
465907
388518
111869
298830
222125
106113
608754
637078
409879
416333
235169
209685
124771
544470
431284
668950
274705
108299
168515
129109
110608
188762
287028
155733
101804
103067
117227
259900
102379
138602
109623
133730
108657
272664
233292
104829
115399
102085
124994
106877
195862
103091
108250
155462
124158
101386
102034
104121
436734
114178
204164
104840
128736
104840
101705
356754
108332
146388
102729
116066
103928
101524
106435
125982
102076
101418
105158
102027
101320
109007
101364
101325
101520
101546
103453
102174
506390
635180
535926
420063
283807
701908
587059
345496
425963
462029
468316
613255
616219
648824
646169
667186
455030
497234
437735
479470
622984
654879
580669
513865
520172
685861
723208
724112
683956
551563
734911
621417
599761
531786
690837
727363
534312
694906
694716
690554
493014
691688
489854
691713
455994
682424
524161
692996
686996
477527
675711
432704
337610
644325
640534
677766
427631
383976
659453
610527
669458
317483
629706
411888
101301
101335
102457
102156
112346
101649
101326
101298
101301
101407
101324
102145
101407
101301
101312
101343
101764
101379
101298
101305
101300
101299
101376
101300
101303
101298
101298
101299
101312
101358
101584
101308
101298
101300
101299
106012
101307
101469
101305
101433
101303
101298
101323
101298
101300
101299
101300
101327
101299
101300
101303
101352
101314
101298
101299
101299
102223
101302
101299
101300
101321
101344
101374
102112
101299
101333
101300
101359
101301
101298
101315
101298
101299
101298
101299
101299
101307
101303
101300
101351
101298
101301
101298
101298
101298
101298
101299
101298
101298
101299
101309
101299
101301
101298
101298
101298
101298
101298
101301
101298
101298
101298
101298
101298
101298
101298
101298
101302
101299
101298
101298
101298
101308
101298
101299
101298
101298
101298
101298
101301
101299
101309
101298
101298
101298
101298
101298
101298
101302
101298
101298
101298
101298
101299
101298
101301
101298
101298
101298
101298
800676
797810
111848
825105
136268
829405
586362
504430
460137
577360
467859
586507
595723
775474
769141
481974
653182
643225
606773
616459
792797
819400
768567
831351
762984
846728
722460
707215
852157
836450
792044
796616
850288
695769
856045
680363
810728
817652
784810
841640
613318
673579
830970
818786
832260
810171
844113
588219
646693
831800
718295
130697
412757
388531
390388
733177
367171
685738
271562
256157
121137
342613
322124
628339
1.25265e+06
685411
187868
104337
787835
101298
1.31447e+06
101298
102810
101300
1.37832e+06
525614
402099
160228
101588
1.26117e+06
611011
849397
595701
1.26676e+06
855519
1.26561e+06
1.07856e+06
194106
102265
185764
102244
1.28762e+06
684258
1.24223e+06
874179
1.28365e+06
1.01343e+06
1.36536e+06
932115
190829
101949
1.28775e+06
659399
418603
1.22321e+06
106482
101343
1.09266e+06
1.32792e+06
1.21131e+06
153157
925500
1.16433e+06
1.46023e+06
507744
101725
101303
101719
101303
603364
186833
988103
101509
122559
1.0961e+06
1.36467e+06
707696
128550
101301
574447
162357
105572
315896
101317
101298
917048
845110
913043
1.09645e+06
1.0455e+06
1.10056e+06
1.0395e+06
924354
847228
915601
1.0987e+06
1.05175e+06
1.1087e+06
1.04101e+06
690615
105068
847292
101300
103534
1.23015e+06
135155
941500
904834
969031
1.07777e+06
1.13133e+06
1.16779e+06
1.12044e+06
839139
881850
926178
921065
966841
1.08339e+06
1.04536e+06
1.02711e+06
1.25383e+06
1.02539e+06
1.22461e+06
1.33957e+06
1.22457e+06
1.34667e+06
752562
101311
289637
101298
101299
114365
101400
102493
101298
101310
268532
1.12741e+06
102792
101309
1.03953e+06
1.25748e+06
1.02926e+06
1.22805e+06
1.3451e+06
1.34801e+06
1.23699e+06
950133
1.06839e+06
1.01031e+06
1.21651e+06
1.24565e+06
1.2744e+06
1.17866e+06
1.28668e+06
1.29127e+06
1.08569e+06
1.15086e+06
1.16336e+06
788556
772215
1.06997e+06
1.29107e+06
1.08183e+06
1.14321e+06
1.16039e+06
783248
758038
1.05934e+06
1.31122e+06
1.09191e+06
1.34078e+06
1.25623e+06
1.28596e+06
1.32896e+06
820701
695447
829955
509649
371860
493328
388287
813519
695229
827299
507806
370236
388130
487474
895669
1.26065e+06
991591
1.32754e+06
1.04934e+06
1.20009e+06
1.42982e+06
1.3419e+06
1.20147e+06
1.13958e+06
1.32051e+06
1.23074e+06
1.34785e+06
1.29741e+06
1.05175e+06
1.28687e+06
1.01858e+06
1.10911e+06
704615
1.05068e+06
615356
787851
613308
743173
329683
441111
364414
266446
1.14398e+06
1.1954e+06
1.23166e+06
1.3196e+06
1.32869e+06
1.342e+06
1.36987e+06
365911
101328
101298
540399
108501
1.35695e+06
1.30832e+06
1.28492e+06
1.19357e+06
1.26103e+06
1.27542e+06
1.28333e+06
1.20985e+06
1.26062e+06
1.28723e+06
1.2779e+06
1.19673e+06
1.26869e+06
1.21213e+06
1.29204e+06
1.26197e+06
1.11164e+06
1.34755e+06
1.15221e+06
1.29697e+06
1.4021e+06
1.37514e+06
1.26372e+06
1.0016e+06
1.20337e+06
1.03789e+06
1.24466e+06
1.37376e+06
1.39038e+06
1.20626e+06
1.28607e+06
1.43672e+06
1.27139e+06
1.41266e+06
1.15762e+06
1.34484e+06
927380
1.16151e+06
1.28949e+06
1.30523e+06
1.32137e+06
1.18928e+06
1.09369e+06
1.32092e+06
603017
614542
522487
278471
293639
199098
188481
615004
508175
523118
277852
293792
199224
188031
1.03587e+06
684270
914413
573307
783667
465751
280247
536413
548886
668093
264732
135316
174199
194096
1.27088e+06
847586
955753
810134
955182
485472
330194
1.2718e+06
1.31855e+06
1.34007e+06
1.11589e+06
1.34202e+06
1.26885e+06
931323
521535
472409
409201
243813
196169
165025
136273
1.36204e+06
1.29892e+06
1.31931e+06
1.27155e+06
1.18895e+06
1.07808e+06
1.34211e+06
1.32296e+06
1.14098e+06
1.01517e+06
635264
1.31501e+06
1.03648e+06
1.15673e+06
1.32401e+06
1.08938e+06
1.34403e+06
809897
1.28923e+06
979129
1.34708e+06
1.41734e+06
1.39458e+06
1.28136e+06
1.39768e+06
920868
1.34701e+06
1.28912e+06
1.41674e+06
1.33797e+06
1.13604e+06
1.37044e+06
1.24154e+06
1.43171e+06
1.42295e+06
954641
1.09422e+06
1.31433e+06
1.29423e+06
421169
858572
1.02342e+06
1.32506e+06
629794
1.01082e+06
1.13532e+06
1.03588e+06
1.15462e+06
1.32141e+06
667245
556081
447773
417418
309645
194183
132463
1.39696e+06
1.29929e+06
782656
1.38508e+06
1.32013e+06
1.20761e+06
1.39468e+06
437767
210264
314556
115612
146504
115523
106031
1.38028e+06
1.42464e+06
1.4391e+06
1.40168e+06
1.37794e+06
1.03603e+06
1.15864e+06
360302
199448
378876
127161
104924
105550
123249
1.24321e+06
299188
748327
520725
1.14488e+06
714790
911732
359570
199333
379154
127148
104867
122986
105541
1.31057e+06
1.20233e+06
1.37256e+06
1.09969e+06
339560
807113
656430
1.28119e+06
579805
1.19361e+06
1.01612e+06
438892
338545
1.12914e+06
380344
151914
210177
110064
121303
105729
103201
676593
964736
444817
604929
194580
369666
124703
101434
101298
101298
101298
101598
801927
103251
126030
101298
101305
101298
101298
101299
101298
700860
204004
721787
287616
109105
273136
110067
200659
683088
715282
283267
108447
109797
262189
316815
133886
253267
103674
115907
109121
102513
1.4214e+06
662038
1.07593e+06
688702
1.12234e+06
517232
176258
616906
106197
133617
222770
513446
174361
103917
161636
126069
103355
102413
154573
103656
129929
160986
102407
103270
125617
103625
129826
152714
1.38877e+06
468034
453941
667926
1.14146e+06
1.11772e+06
969910
1.21642e+06
195850
711434
318330
944176
341875
113038
526897
124872
241443
111374
172668
107860
102180
1.44628e+06
811917
882549
1.28985e+06
1.2434e+06
723626
261281
102636
118066
137203
120430
101648
102004
110443
115446
246667
381713
133850
101674
112731
102394
112152
101792
113851
105665
101436
101459
105051
101791
112043
113844
105666
101434
101459
105015
737425
515478
112572
220440
395267
168248
872258
529048
320230
982728
738970
107853
171906
301081
114364
129699
184161
104608
101450
102321
101783
111919
193114
308888
131830
101652
110750
102383
369903
221816
605813
172223
102657
106526
121126
101298
101298
101298
101298
101298
102045
101298
108829
101451
105469
101389
103822
102607
101345
109384
101441
102556
101392
104058
101591
105258
255061
105302
162326
101828
109214
103706
101452
141777
101755
113747
101439
105177
102454
101339
124793
713053
227070
116519
187077
106058
102064
266396
1.07474e+06
943083
353299
120028
110734
477206
406601
1.1852e+06
1.06607e+06
406753
134196
117536
540574
432078
109687
103667
102598
195509
115361
153313
104473
109814
122845
102062
101341
101406
101616
101359
101834
103002
101828
101304
101467
101317
130130
174777
514927
135082
101385
104033
102431
152490
101401
104629
101657
113903
102064
101322
219039
231091
269680
108168
106348
108713
101559
138529
209324
616624
168500
101443
106706
103103
102283
101431
101329
101304
101334
101455
102136
102282
101304
101328
101429
101334
102126
101455
190925
282463
760147
190997
101540
108507
104420
102910
103410
102230
101433
101377
101360
101303
101318
101384
101856
101591
101300
101308
101342
101394
101667
104008
101539
101299
101330
101307
102990
102095
113990
101788
101302
101329
101362
101623
101322
102005
101452
101300
101303
101366
103949
101326
101304
101350
101486
102062
101390
109258
101377
101395
101698
101608
101314
101302
101730
101370
103924
101447
101299
101321
101302
115437
102104
101313
102330
101803
101695
129808
101416
101299
101303
101299
101334
101302
101315
101309
101318
101601
101386
101298
101304
101301
101515
101328
101335
101309
101307
101300
101298
729496
1.14316e+06
755227
713747
743665
1.12299e+06
1.16629e+06
114397
750041
239746
102791
1.0428e+06
481673
554142
599423
449894
1.02985e+06
721667
801845
564421
445699
568148
1.06222e+06
422476
804231
1.06587e+06
496766
570019
835364
1.23331e+06
532870
667763
799302
569830
456407
724319
1.30636e+06
645999
507014
528506
529239
425689
605921
774114
576888
728106
487274
434475
626295
204480
643315
512687
778044
597643
590573
543462
652752
712352
708958
659250
552802
592036
543601
651400
709979
654309
708595
499544
558113
492265
630066
698570
695955
632998
559972
503665
494164
630713
698990
633051
696556
459585
451825
472104
568346
534032
576104
527094
475934
448566
470452
566196
526281
569285
524440
423485
416645
437166
564852
538747
532362
570542
446743
416203
438008
565241
536923
569721
531989
605970
615751
588821
718970
669538
683980
732981
471815
488201
516605
546393
589371
608410
563116
508666
578454
521144
704342
640211
659923
721646
961029
1.19883e+06
1.35307e+06
891100
1.30594e+06
564316
717082
1.01119e+06
133835
874810
628758
1.32926e+06
715580
569640
433579
447373
470404
550751
581108
603958
574172
508283
568826
540117
633628
615164
665723
585507
634375
634765
609191
704454
804739
733232
760718
601965
589998
546237
701654
825928
760468
776840
420742
450275
444772
538013
531387
570423
577765
536165
447487
422945
419608
443749
530854
570258
679215
795234
628309
722333
787789
686578
621660
818938
101422
563450
130862
531533
576926
828919
788076
620405
679203
676587
719563
785027
618814
469306
536674
494810
646545
675004
715170
614055
448973
460936
479367
551515
576739
594049
623272
760397
885615
849828
1.03207e+06
878613
844127
766343
842514
876331
759063
758065
1.02824e+06
875475
841943
820636
1.06001e+06
878070
1.13429e+06
1.05815e+06
871047
829272
807999
640615
699419
717572
764935
826946
658389
826813
1.13707e+06
874442
820676
1.13303e+06
1.06002e+06
870483
604927
604427
650059
652798
706123
753527
698550
898273
862836
776747
792551
1.10552e+06
918588
888068
472861
557913
509612
673729
616977
665250
716261
1.07163e+06
896473
851184
893521
1.2062e+06
1.0933e+06
934842
371123
281396
826636
279324
769621
365850
101362
751359
899448
712123
805330
902288
707061
758933
712826
904432
758827
752147
806551
904819
707778
667998
780180
711107
867324
770295
816369
949560
785753
320723
101340
101359
112939
845847
130032
741374
794621
894322
715310
854953
772393
682817
900013
724735
776661
807633
794643
901890
746562
504007
597173
496809
653147
772937
660171
769845
605162
660448
501956
597185
496177
653514
770609
658669
812777
765170
925252
890317
1.03957e+06
1.0636e+06
602902
665475
706246
751938
810348
912012
822870
697405
758944
693842
721152
728459
734632
723188
768249
654136
705749
809141
825630
878785
753880
815403
1.1625e+06
993278
992808
948987
847545
930457
724295
756194
698605
759461
694608
721758
734427
518922
662617
545063
783688
677413
706560
800966
707428
737988
725418
715759
731265
745766
689604
849691
774893
858071
807703
894754
897010
776748
958503
1.25766e+06
1.11604e+06
1.09509e+06
1.11479e+06
999963
1.04101e+06
949343
756612
812888
866735
967893
1.02354e+06
810123
630534
670604
738076
722603
766705
788385
780009
715410
647810
586010
744745
801264
784231
814355
822442
860333
762205
873979
1.18913e+06
947665
1.0562e+06
1.13629e+06
947169
929233
1.18227e+06
1.36123e+06
1.23837e+06
1.22666e+06
706855
769463
749534
759535
549862
638843
755101
1.0572e+06
1.07778e+06
890714
948105
1.3651e+06
1.1458e+06
1.18338e+06
773468
673997
546714
774727
684645
772317
782668
774976
673259
772986
773814
546428
684016
782609
937270
981193
1.23659e+06
1.0721e+06
1.02904e+06
1.12057e+06
881961
995699
787666
851694
978332
763037
943923
841513
1.07104e+06
1.20993e+06
1.12533e+06
1.17157e+06
1.30154e+06
956654
1.31638e+06
770137
848559
764580
831975
853067
722025
708607
763956
825111
846953
831378
852255
721562
706228
648340
759097
773889
774167
415882
599885
727102
773457
815374
929967
910763
474292
626649
764853
811375
817452
841599
830558
800092
672293
611856
772666
789335
796031
663486
772856
714826
558620
727671
828604
800684
737240
794896
742651
609898
1.02745e+06
1.38155e+06
1.35208e+06
1.39188e+06
1.14036e+06
1.25094e+06
1.29381e+06
756314
412613
704472
363199
682195
593450
242154
837379
727646
798259
673792
757179
515163
376416
757953
312748
399319
565561
520629
707759
666819
1.13397e+06
1.34293e+06
451524
1.2053e+06
990778
750716
1.37012e+06
811380
185100
428272
267180
608229
397348
642787
727765
744672
814181
612798
190917
392251
404862
131603
720567
389143
733177
412846
393425
136444
645702
298934
660971
380306
122418
360623
126126
298537
644218
660947
379517
121848
357355
125942
387502
717422
732399
411532
130358
388895
135964
312401
190546
535682
410548
105491
202569
132082
606524
187179
540293
114965
310591
242911
108448
250271
412825
608818
448270
107235
142222
234126
684575
254994
627026
120884
341017
270218
111724
138478
302074
438127
171693
102180
104183
124178
182766
400307
534766
191029
102695
132395
105696
660613
826492
666154
607699
213817
683295
780351
817877
587324
585763
388171
388982
700303
679514
154030
658796
303581
652537
439926
281299
716809
408116
717335
645606
771914
395876
364883
822372
393535
315111
309777
382571
377051
468429
474713
395779
310620
317449
384780
377851
469181
477008
328987
343940
396900
414734
426402
491650
515050
580713
666412
102023
841159
435912
224775
845406
683836
478081
522539
508691
674537
557717
704178
795911
763153
814070
102179
555331
844076
750169
117136
798276
719891
608636
102027
784241
155687
365442
476952
489308
440751
452656
549948
603730
603867
725684
550359
699859
603877
725706
739950
697246
630961
504690
692276
498497
623977
817403
578107
468239
460585
587029
776470
596456
770026
776042
594234
466242
577873
459937
586482
770237
693079
499441
507448
624752
818770
634033
817478
580500
742516
651653
690077
619449
732542
742684
482467
644141
504942
793688
617313
653997
819984
523395
745767
549552
825237
654910
691267
835490
486757
525935
540154
598003
616357
684391
790909
415832
331074
722541
646346
800630
442017
472570
784086
306173
330482
379291
356948
407987
409362
440720
366601
446594
395750
513091
452803
486811
555872
375251
478303
406136
545564
461127
499087
601026
616559
664652
509159
673492
512477
557539
715906
512063
605870
479017
565575
611009
738766
781332
789811
503867
605298
685335
528442
448306
557213
372939
479040
687499
422420
673104
678000
654791
779842
788267
670738
766557
738007
576876
630323
719939
735299
666601
741515
672669
729522
723404
699181
590048
538249
708592
863384
780010
848643
783148
646050
588588
742150
829856
802053
841492
666554
741487
735200
780255
729517
723381
672658
801653
777676
814379
744226
714649
585383
647300
732169
758374
101433
101596
536998
101299
101477
555730
861138
851353
712641
730701
879466
885775
222997
383119
303533
620498
658697
620459
561237
852063
830823
796332
792675
696016
836969
856848
792690
695069
850427
829427
797401
836335
856083
188204
238259
340633
641104
577121
607987
523504
671050
868959
781297
839917
847912
880919
754763
725977
829448
815913
780828
854683
872382
676563
857985
585339
723823
850584
712200
840007
830440
844025
818558
810899
832702
587008
831388
797301
714471
772405
772765
662741
818615
788968
558091
703676
845527
755710
810797
838676
827567
740347
774753
757563
798238
579381
679872
579372
426947
828757
610209
742693
794979
737700
828933
727436
793145
724434
796342
498585
647810
554856
357744
154049
552496
467692
142696
443254
329200
115153
115146
213764
142670
552448
329162
467663
443215
854376
495446
729613
677590
860866
798545
754785
905906
903953
912054
808157
808057
775155
515566
861157
748377
877925
822391
264873
677137
498871
878095
819603
874075
841611
328582
703948
584430
744733
404962
612671
727517
190888
563398
392000
875023
844043
839512
802675
389306
623093