/*--------------------------------*- C++ -*----------------------------------*\
  =========                 |
  \\      /  F ield         | OpenFOAM: The Open Source CFD Toolbox
   \\    /   O peration     | Website:  https://openfoam.org
    \\  /    A nd           | Version:  9
     \\/     M anipulation  |
\*---------------------------------------------------------------------------*/
FoamFile
{
    format      ascii;
    class       volVectorField;
    location    "0.00105";
    object      U;
}
// * * * * * * * * * * * * * * * * * * * * * * * * * * * * * * * * * * * * * //

dimensions      [0 1 -1 0 0 0 0];

internalField   nonuniform List<vector> 
8976
(
(-43.8666 70.1038 97.4896)
(-25.2096 171.256 19.1003)
(-21.8129 170.884 -25.3002)
(-265.317 40.1474 28.386)
(-317.985 51.1694 281.357)
(-185.275 -104.403 44.6077)
(-238.87 -143.747 311.963)
(-38.8338 -76.4075 101.083)
(-21.942 -197.511 455.277)
(-336.85 143.559 56.1636)
(-335.378 144.414 298.979)
(-47.3485 145.686 417.092)
(-373.5 -17.4959 12.6764)
(-335.692 -48.5537 295.05)
(-23.145 -171.675 20.7044)
(-24.0959 -169.285 260.046)
(-167.134 25.7189 403.579)
(-25.5045 165.618 397.422)
(-104.452 97.3063 77.4807)
(-20.1888 3.59981 61.647)
(-27.8353 29.0278 486.661)
(-130.702 129.149 320.891)
(-77.2902 33.7855 100.084)
(-161.137 23.1685 201.59)
(-164.952 165.039 19.0399)
(-22.6701 161.686 200.258)
(-25.172 23.2282 24.7962)
(-171.631 23.1181 20.2599)
(-22.2508 22.3014 211.76)
(-179.608 180.665 221.115)
(-198.872 29.0143 454.541)
(-22.0581 202.071 444.718)
(-161.484 162.592 -26.7226)
(-24.1065 25.2278 32.136)
(-30.7139 39.0465 549.564)
(-171.129 22.9115 -19.9664)
(-205.121 209.612 386.356)
(-305.402 47.4326 300.716)
(-280.621 109.918 -4.12742)
(-315.599 135.535 285.078)
(-210.909 46.703 319.847)
(-188.406 102.79 40.4917)
(-229.068 135.157 304.089)
(-173.039 38.4935 76.9138)
(-325.011 146.617 246.694)
(-324.461 133.149 42.3862)
(-354.593 17.283 -21.0419)
(-227.777 35.1333 405.008)
(-206.734 151.736 -20.2759)
(-219.029 23.6299 -29.6261)
(-236.135 147.434 304.008)
(-227.459 -133.1 305.792)
(-277.309 -110.243 -2.10033)
(-314.839 -133.673 286.037)
(-264.684 -39.3778 29.0487)
(-305.706 -44.44 300.855)
(-210.908 -44.7376 321.237)
(-172.406 -39.8191 78.3354)
(-326.561 -143.465 251.6)
(-319.381 -46.5756 283.582)
(-357.363 -16.2106 -21.0986)
(-209.25 -152.287 -17.2087)
(-326.124 -131.707 45.3295)
(-228.232 -28.2913 406.537)
(-221.885 -24.7982 -28.635)
(-23.4217 -165.868 404.423)
(-100.036 -100.002 80.7914)
(-128.224 -128.023 324.546)
(-166.241 -23.0943 404.727)
(-18.8403 -17.9406 61.5865)
(-27.5284 -27.2336 487.868)
(-76.174 -38.551 101.124)
(-206.218 -205.304 395.607)
(-23.7328 -174.345 -18.7102)
(-163.992 -164.174 -23.3571)
(-198.404 -21.5875 455.953)
(-27.3813 -27.3501 39.6893)
(-30.967 -30.5497 551.035)
(-174.358 -23.7759 -18.469)
(-372.727 18.4142 12.9395)
(-339.111 145.449 176.43)
(-338.736 48.6986 177.158)
(-210.184 23.2591 208.414)
(-213.426 166.521 18.7331)
(-221.455 24.3192 22.117)
(-242.893 145.916 179.025)
(-333.53 47.9149 296.436)
(-336.99 145.38 418.733)
(-334.822 47.9235 416.032)
(-238.011 48.1659 296.69)
(-240.839 146.004 419.03)
(-238.571 48.4255 417.041)
(-239.524 145.3 299.109)
(-167.077 24.6798 260.321)
(-23.2915 169.718 258.337)
(-144.521 146.752 421.925)
(-17.0765 19.1709 457.008)
(-23.7732 24.9704 272.107)
(-143.129 49.0794 418.291)
(-144.002 145.802 301.113)
(-341.132 -48.6801 176.234)
(-213.068 -166.203 19.1202)
(-338.097 -143.013 55.9443)
(-340.889 -145.491 175.631)
(-244.432 -145.784 178.44)
(-212.402 -23.3996 207.358)
(-221.747 -24.2099 22.4367)
(-337.052 -49.1387 414.406)
(-337.009 -145.156 297.944)
(-338.845 -146.554 417.543)
(-240.97 -145.083 298.162)
(-242.722 -146.244 417.984)
(-240.205 -47.9064 295.656)
(-240.757 -48.7628 415.848)
(-164.259 -164.399 20.1442)
(-22.6782 -163.103 201.396)
(-180.81 -180.733 221.118)
(-163.045 -22.6868 201.397)
(-24.9947 -24.9173 29.2885)
(-171.785 -23.3021 20.8712)
(-23.9962 -24.093 215.032)
(-145.221 -145.173 300.895)
(-146.178 -146.151 421.444)
(-48.5241 -145.076 417.834)
(-169.223 -24.096 260.042)
(-17.2953 -17.4591 458.846)
(-25.5366 -25.6257 275.146)
(-144.977 -48.5138 417.857)
(-76.6552 112.348 89.0554)
(-72.361 166.376 20.9849)
(-24.6913 166.676 83.4869)
(-25.4786 122.339 21.9213)
(-71.335 157.122 85.342)
(-75.0878 119.056 21.6887)
(-26.3452 119.812 88.1714)
(-91.0054 137.831 169.584)
(-22.2665 194.92 127.654)
(-69.7878 164.967 -23.4286)
(-23.4384 123.522 -15.3404)
(-74.4379 119.249 -20.5677)
(-26.3802 150.023 208.28)
(-73.604 180.789 114.453)
(-96.3214 -138.806 412.377)
(-76.4275 -187.071 447.069)
(-21.7983 -203.303 393.773)
(-25.4532 -141.017 478.414)
(-79.687 -190.897 382.497)
(-91.345 -137.598 464.65)
(-26.4683 -145.704 437.905)
(-297.426 -75.2611 84.9887)
(-365.564 -17.0297 91.7709)
(-364.911 -75.2122 11.9377)
(-321.987 -25.3942 23.6383)
(-358.367 -83.8927 97.2879)
(-310.457 -66.3932 25.0071)
(-309.673 -27.178 80.4373)
(-75.9264 -113.907 89.2396)
(-70.7016 -167.743 21.451)
(-22.8692 -166.37 84.5724)
(-24.6516 -123.199 24.441)
(-70.2106 -158.053 85.3908)
(-74.5767 -120.976 22.4887)
(-24.7661 -119.849 90.2162)
(-76.7261 -113.765 330.993)
(-75.5538 -170.368 254.272)
(-12.3551 -175.844 332.883)
(-25.2442 -123.737 273.257)
(-83.0244 -178.242 332.095)
(-71.8657 -123.929 268.935)
(-19.4956 -114.938 333.014)
(-86.5786 66.6809 290.602)
(-126.414 27.7616 419.219)
(-161.473 64.2577 393.716)
(-136.449 24.633 282.513)
(-121.12 74.9226 407.932)
(-137.603 68.6149 276.465)
(-96.399 24.312 299.535)
(-72.5676 81.4124 288.441)
(-31.6163 132.498 276.736)
(-25.7845 126.721 415.9)
(-63.5597 161.345 390.264)
(-74.4363 134.032 272.782)
(-73.561 122.39 407.011)
(-31.1895 91.0724 294.709)
(-22.3631 10.2546 175.255)
(-23.6171 27.1173 57.7939)
(-10.2354 -3.36397 200.26)
(-41.2058 5.53501 58.5044)
(-11.5429 4.35509 189.213)
(-17.084 -0.282372 187.554)
(-58.2891 43.0333 54.6757)
(-49.5379 41.9347 315.368)
(-81.6151 26.633 459.174)
(-24.6117 82.4536 457.458)
(-21.7737 13.9828 362.304)
(-73.2239 74.7775 437.737)
(-55.86 13.7629 336.668)
(-21.2062 48.1888 334.281)
(-125.403 76.7771 150.7)
(-173.517 24.726 144.035)
(-114.932 23.7744 210.569)
(-154.862 71.5369 198.331)
(-173.477 75.1682 144.073)
(-110.433 73.5263 209.822)
(-124.454 25.9602 150.769)
(-124.031 123.976 92.2621)
(-118.537 171.934 18.184)
(-171.653 117.883 18.6485)
(-158.264 158.9 84.7966)
(-114.86 171.181 87.7618)
(-123.715 123.504 22.5426)
(-170.378 114.833 88.0065)
(-77.2291 125.735 150.99)
(-24.9133 174.082 142.892)
(-23.1942 115.285 210.064)
(-71.0759 156.391 197.863)
(-75.1462 174.578 143.727)
(-72.6684 111.785 209.989)
(-26.4152 125.015 150.41)
(-68.2667 67.7955 83.2173)
(-25.7811 73.1065 20.1995)
(-74.429 22.5887 22.7705)
(-24.5519 23.2631 87.8385)
(-74.2099 71.3607 20.9074)
(-72.7154 21.2256 83.9843)
(-22.4005 72.085 81.9971)
(-112.197 76.0327 88.2677)
(-166.503 24.2243 84.3132)
(-167.893 70.8687 21.1858)
(-123.177 24.3949 22.1303)
(-121.397 74.403 20.7792)
(-156.375 71.0412 85.2771)
(-120.051 25.2921 88.2218)
(-76.5538 76.1334 141.873)
(-69.0291 22.0234 202.75)
(-20.8036 69.222 201.452)
(-25.1929 25.3722 151.488)
(-66.8589 68.1231 198.422)
(-75.1128 24.6873 144.487)
(-25.4898 75.5551 142.889)
(-127.569 127.625 158.129)
(-172.621 114.203 215.92)
(-177.471 178.225 137.911)
(-113.635 173.969 215.654)
(-124.08 174.432 150.54)
(-173.717 124.315 150.805)
(-120.389 121.29 215.029)
(-138.108 105.679 403.81)
(-141.683 33.9879 477.151)
(-204.199 30.214 391.806)
(-187.199 83.0119 442.482)
(-137.496 98.9577 459.575)
(-190.162 87.7517 373.971)
(-145.865 36.7431 435.261)
(-96.0115 146.405 399.998)
(-21.3283 209.329 374.079)
(-25.6121 147.699 473.235)
(-75.7286 192.56 437.104)
(-91.2317 144.153 457.737)
(-26.415 154.712 427.748)
(-77.5866 196.92 363.263)
(-126.815 131.9 97.7951)
(-116.436 169.15 -30.0229)
(-167.616 117.416 -28.9214)
(-155.122 159.068 63.8184)
(-121.969 123.149 -29.3413)
(-163.18 120.169 80.459)
(-115.227 167.703 74.3468)
(-95.7871 104.748 256.483)
(-22.544 78.3274 10.3093)
(-31.5208 40.4698 347.856)
(-78.0971 24.8173 16.3399)
(-73.9819 75.3409 -0.873196)
(-104.076 38.0101 307.203)
(-27.7367 112.298 298.516)
(-95.8567 106.468 458.543)
(-93.4816 36.0499 522.978)
(-27.2607 100.931 520.822)
(-31.8832 42.1526 524.511)
(-88.4193 96.809 496.611)
(-101.562 39.7116 493.413)
(-28.729 111.651 489.46)
(-131.594 98.8403 177.539)
(-193.959 28.916 157.235)
(-164.499 70.8503 -21.0809)
(-123.588 24.9643 -10.7722)
(-118.653 75.8889 -20.2481)
(-176.956 81.3884 131.393)
(-143.806 34.9204 225.972)
(-135.471 143.093 340.183)
(-211.096 134.936 407.962)
(-128.611 215.541 404.123)
(-155.112 162.188 300.737)
(-142.35 148.892 413.468)
(-165.816 129.197 324.971)
(-121.155 172.458 319.806)
(-294.072 60.4341 74.4375)
(-341.643 26.4772 62.081)
(-346.183 61.838 -16.436)
(-314.048 25.376 -25.3141)
(-340.768 70.9167 57.4536)
(-300.427 29.4054 76.7386)
(-300.857 57.9861 -20.9741)
(-245.147 48.9474 289.691)
(-292.701 35.5433 384.979)
(-226.639 26.5342 314.077)
(-219.995 106.479 405.016)
(-218.087 61.1266 313.646)
(-288.661 105.228 380.094)
(-247.498 25.7292 287.369)
(-251.7 111.077 85.3429)
(-255.637 157.372 -15.2932)
(-214.578 118.154 -24.4273)
(-205.341 159.596 87.067)
(-211.568 120.071 103.101)
(-256.711 109.808 -21.2233)
(-255.835 165.962 69.8067)
(-244.031 53.1618 60.2959)
(-267.094 22.6023 -28.5776)
(-219.469 24.441 69.4717)
(-210.137 70.3688 -28.4037)
(-207.591 63.5761 72.9376)
(-257.557 22.5199 49.8233)
(-254.776 66.735 -26.1864)
(-296.299 -57.3769 78.1738)
(-342.923 -23.2416 63.445)
(-348.702 -61.5806 -16.7267)
(-316.515 -24.8664 -24.8317)
(-342.264 -68.1766 60.0216)
(-301.943 -25.8585 78.9552)
(-303.358 -57.8242 -20.727)
(-254.181 -108.943 95.011)
(-208.173 -157.472 100.715)
(-257.328 -156.652 -13.6621)
(-216.781 -119.243 -21.4262)
(-257.393 -163.63 80.2948)
(-214.947 -117.918 115.373)
(-258.526 -110.273 -19.7982)
(-248.579 -42.9147 295.13)
(-221.51 -99.6419 409.525)
(-293.624 -29.3347 386.814)
(-227.254 -18.7624 317.026)
(-248.321 -19.4724 289.926)
(-290.926 -100.048 384.276)
(-220.333 -54.1931 321.88)
(-246.649 -49.1802 66.2841)
(-269.791 -22.8827 -28.1069)
(-212.6 -71.6967 -26.908)
(-220.976 -19.8123 73.0438)
(-258.796 -18.5141 52.2533)
(-210.67 -59.0785 83.0613)
(-257.118 -67.1464 -25.7405)
(-69.1746 -84.444 293.261)
(-27.5971 -135.767 283.973)
(-61.5939 -159.769 396.454)
(-24.6154 -125.471 419.971)
(-71.0807 -136.852 278.403)
(-72.5713 -120.117 411.407)
(-27.7521 -95.528 300.359)
(-84.2474 -69.0207 293.659)
(-159.872 -61.3845 396.503)
(-125.809 -24.2717 420.728)
(-135.893 -27.3194 283.774)
(-95.5476 -27.574 300.811)
(-136.771 -70.8538 278.305)
(-120.167 -72.3878 411.746)
(-18.2331 -18.2025 177.139)
(-21.0568 -40.3418 58.3384)
(-8.79559 -8.35244 199.543)
(-41.4724 -20.1164 58.394)
(-10.2467 -13.1947 189.102)
(-13.5624 -10.0167 189.05)
(-56.7298 -56.064 56.2922)
(-46.362 -46.5799 317.805)
(-23.8642 -81.0777 459.996)
(-81.1685 -23.6148 460.41)
(-20.6787 -20.4975 362.936)
(-54.7013 -18.7047 337.321)
(-72.5357 -72.5381 441.045)
(-18.8349 -54.8096 336.991)
(-136.583 -136.355 354.824)
(-129.466 -210.683 414.796)
(-159.808 -158.344 316.835)
(-211.608 -129.02 414.707)
(-124.342 -168.568 338.952)
(-169.836 -123.572 338.482)
(-142.381 -142.093 420.994)
(-92.8459 -134.339 193.761)
(-22.6153 -194.666 161.79)
(-71.7846 -167.164 -18.5756)
(-25.6895 -126.966 -7.04676)
(-76.0264 -180.063 145.412)
(-27.0252 -144.938 231.613)
(-77.0021 -121.429 -15.3143)
(-129.713 -129.279 120.823)
(-157.573 -156.643 82.1703)
(-118.608 -170.357 -25.5358)
(-170.046 -118.762 -25.3629)
(-118.03 -165.165 98.6107)
(-166.396 -117.582 97.8625)
(-124.512 -124.695 -24.595)
(-139.282 -96.2589 412.688)
(-187.64 -76.0927 447.197)
(-141.664 -25.0007 479.36)
(-204.318 -21.463 394.459)
(-146.486 -26.1399 438.876)
(-191.509 -79.2671 382.655)
(-137.943 -91.1034 464.983)
(-98.169 -97.8948 271.87)
(-25.4293 -81.3594 20.2372)
(-32.376 -32.0951 354.082)
(-81.3568 -25.4813 20.4981)
(-104.802 -29.4701 313.595)
(-29.7232 -104.552 313.066)
(-76.7999 -76.9025 4.89683)
(-96.7301 -96.3611 466.403)
(-27.3699 -92.8577 524.379)
(-93.2602 -26.9456 524.865)
(-32.1288 -31.7121 526.896)
(-101.636 -28.7875 496.404)
(-88.9833 -88.6967 501.381)
(-29.1989 -101.229 495.866)
(-134.793 -92.8653 193.953)
(-167.099 -71.8296 -18.6516)
(-195.439 -22.3717 162.291)
(-126.958 -25.7568 -6.81167)
(-145.575 -26.8754 232.808)
(-180.682 -75.8939 145.489)
(-121.303 -77.1338 -15.3432)
(-295.937 75.4202 85.5885)
(-363.984 75.9797 12.7917)
(-364.296 17.2921 91.853)
(-321.389 26.2448 23.5561)
(-356.622 84.2199 98.1305)
(-309.703 67.0074 25.5982)
(-308.748 27.2509 80.67)
(-272.1 78.7472 138.678)
(-270.961 12.7737 215.911)
(-223.141 25.2949 153.196)
(-205.602 74.0623 208.327)
(-221.652 71.9032 152.472)
(-270.588 82.5896 218.11)
(-271.687 20.7656 141.196)
(-268.749 114.571 91.9964)
(-272.253 174.978 8.66299)
(-221.022 122.968 21.7622)
(-209.367 168.274 85.1607)
(-218.515 122.189 85.0379)
(-268.125 116.174 14.2326)
(-273.841 178.5 98.2614)
(-243.149 72.1536 86.7663)
(-271.089 23.4627 19.0241)
(-212.076 25.8446 88.0904)
(-213.963 73.1237 21.3914)
(-199.496 76.652 90.6378)
(-259.83 72.1712 20.5698)
(-257.499 23.9239 85.9034)
(-111.699 77.6911 331.643)
(-121.312 25.4689 272.07)
(-173.552 13.3027 332.862)
(-167.998 75.692 254.864)
(-121.414 71.8433 269.472)
(-176.224 83.6723 332.844)
(-112.665 20.1756 332.074)
(-75.907 113.962 331.293)
(-12.1116 175.885 331.029)
(-24.2405 123.491 271.268)
(-74.5939 170.121 254.223)
(-70.4342 123.607 269.405)
(-19.2538 115.023 330.986)
(-82.3251 178.735 332.106)
(-73.6878 75.9561 368.099)
(-14.1039 79.5471 446.828)
(-24.9129 27.5168 393.648)
(-77.4669 16.6108 447.763)
(-67.9621 28.3079 379.576)
(-25.7194 70.6358 378.526)
(-81.732 83.9784 441.624)
(-68.0613 70.2883 309.024)
(-71.5821 25.1661 260.865)
(-23.8112 73.1805 259.751)
(-21.0097 23.0305 332.01)
(-73.9705 75.5429 254.154)
(-68.3573 22.4022 318.504)
(-19.8898 70.2842 317.461)
(-270.358 -114.695 91.7906)
(-272.385 -174.134 8.46861)
(-209.684 -167.921 85.1501)
(-221.757 -122.945 22.5612)
(-274.608 -178.266 97.5669)
(-269.291 -115.524 14.2326)
(-219.849 -122.391 85.2438)
(-274.388 -78.8492 137.891)
(-273.111 -12.7838 215.078)
(-208.059 -73.7749 207.44)
(-223.784 -25.211 152.415)
(-272.824 -20.3132 140.442)
(-273.144 -82.6908 217.127)
(-223.891 -71.6702 151.852)
(-244.708 -72.1017 86.4613)
(-271.493 -22.8264 19.1506)
(-214.165 -73.0572 21.5139)
(-212.333 -25.1103 87.9287)
(-260.26 -71.4294 20.0652)
(-258.136 -23.7667 85.8613)
(-201.163 -76.3569 90.5497)
(-124.523 -124.52 93.5457)
(-117.519 -172.038 19.9351)
(-158.298 -158.34 85.7354)
(-171.915 -117.668 20.0886)
(-114.534 -171.5 88.9329)
(-123.679 -123.807 24.5896)
(-171.52 -114.595 88.922)
(-77.0865 -127.048 150.932)
(-24.0108 -173.995 143.835)
(-70.9787 -157.306 197.861)
(-23.3585 -116.996 211.898)
(-74.8493 -175.35 143.81)
(-73.013 -112.973 209.555)
(-25.6967 -124.99 152.313)
(-127.97 -127.83 158.962)
(-177.875 -177.784 138.132)
(-114.212 -174.021 215.958)
(-174.094 -114.16 215.927)
(-124.266 -174.437 151.307)
(-174.592 -124.156 151.253)
(-121.3 -121.237 215.468)
(-127.168 -76.9827 150.909)
(-157.344 -70.9845 197.812)
(-174.011 -23.9668 143.866)
(-116.927 -23.3137 211.954)
(-125 -25.6304 152.375)
(-175.469 -74.7756 143.755)
(-113.013 -72.9616 209.529)
(-69.7963 -69.6775 82.3401)
(-25.0405 -74.306 24.0688)
(-74.3873 -24.9906 24.1898)
(-24.0478 -23.9836 91.6756)
(-72.3313 -23.5201 85.1762)
(-73.5951 -73.5475 20.9166)
(-23.6174 -72.2527 85.0793)
(-114.034 -75.9131 89.1982)
(-167.772 -70.8317 21.369)
(-166.477 -22.9286 84.6384)
(-123.281 -24.7189 24.5159)
(-119.942 -24.7664 90.272)
(-121.013 -74.6586 22.4454)
(-158.18 -70.2516 85.2999)
(-78.0055 -77.899 141.036)
(-23.2092 -70.7789 204.311)
(-70.6907 -23.1733 204.407)
(-25.2904 -25.3057 154.933)
(-75.353 -26.4902 145.935)
(-69.3298 -69.2971 197.691)
(-26.5804 -75.3554 145.832)
(-113.774 -76.7197 330.986)
(-170.396 -75.5419 254.246)
(-123.683 -25.1972 273.304)
(-175.751 -12.3344 332.888)
(-114.874 -19.4825 333.062)
(-178.24 -82.9876 332.089)
(-123.96 -71.8059 268.916)
(-75.344 -75.3647 368.556)
(-15.641 -78.5676 448.832)
(-25.6618 -25.7487 395.797)
(-78.4217 -15.7219 448.866)
(-68.7997 -27.3907 380.964)
(-27.3759 -68.8919 380.903)
(-83.2316 -83.2863 442.283)
(-70.0171 -70.0016 309.001)
(-25.9688 -73.7128 262.506)
(-73.6351 -25.9325 262.583)
(-22.6962 -22.7321 334.642)
(-70.1019 -22.472 320.093)
(-76.4568 -76.4224 253.825)
(-22.4876 -70.1432 320.025)
(-0.1544 0.00501385 0.00314081)
(-6.73263 0.304821 3.04132)
(-877.113 -537.593 68.0374)
(-102.038 -58.8713 65.3353)
(-0.120326 -0.0508867 0.0177957)
(-0.00139354 -7.99046e-05 0.00045168)
(-8.99098e-05 -9.39124e-06 1.00704e-05)
(-1.09569 -0.445697 0.17995)
(-0.00953957 -0.00336334 0.00257328)
(-5.41876e-05 -1.84826e-05 1.28782e-05)
(-0.00010766 -3.77982e-05 9.93512e-06)
(-2.36647 -0.726753 0.781208)
(-149.822 -70.3251 39.9233)
(-0.0109713 -0.00226274 0.00113331)
(-0.000168969 -3.19023e-05 5.15481e-05)
(-667.254 44.9181 39.5424)
(-85.5165 5.17672 39.1506)
(-0.0192683 0.000662995 0.0031466)
(-0.00203249 -0.000109303 0.000569402)
(-78.8673 -6.50152 36.1508)
(-0.146231 -0.00625596 0.00300976)
(-661.817 -53.6491 39.7198)
(-446.283 -275.46 259.887)
(-0.0631865 -0.0177973 0.0185342)
(-6.95816 -2.51393 0.227815)
(-2.67388 -1.38773 1.0151)
(-178.533 -128.5 11.0154)
(-0.00525404 -0.00204921 9.57919e-05)
(-7.00493e-05 -2.7757e-05 2.17036e-05)
(-55.3291 -7.60036 24.6019)
(-0.0971284 -0.00758677 0.00193436)
(-602.55 -87.0122 35.9637)
(-0.00763097 -0.00126427 0.000125003)
(-0.00013298 -2.38133e-05 3.81045e-05)
(-232.634 -73.4634 12.9133)
(-5.46833 -1.15962 1.91518)
(-0.000240671 4.72587e-06 6.44309e-05)
(-0.00326529 0.000163396 0.000390633)
(-0.000171026 4.01751e-06 1.78161e-05)
(-0.000167062 -4.95693e-06 1.69121e-05)
(-0.000216286 -1.21371e-05 5.70749e-05)
(-6.02217 -0.389317 2.72508)
(-0.0834778 -0.00408311 0.00873809)
(-834.505 -509.694 212.136)
(-751.586 -494.265 55.3731)
(-690.778 -452.56 179.034)
(-634.289 -376.925 43.7447)
(-552.86 -330.075 143.58)
(-259.373 -165.002 70.4637)
(-346.937 -223.306 22.3885)
(-0.299368 -0.129421 0.0389439)
(-0.000355055 -0.00012884 3.31275e-05)
(-0.00340779 -0.000942921 0.00139139)
(-0.000288413 -0.000175119 4.77359e-05)
(-0.1257 -0.0603993 0.0635325)
(-4.41818e-05 -1.82603e-05 1.57119e-05)
(-1.86846e-05 -8.51206e-06 3.40757e-06)
(-0.000153742 -1.01405e-05 3.90629e-05)
(-4.01067 -0.439958 1.78596)
(-0.0566487 -0.00548123 0.00585495)
(-6.28783e-05 -1.16741e-05 1.40545e-05)
(-3.49017e-05 -6.83637e-06 4.5278e-06)
(-0.324615 -0.0597293 0.13436)
(-0.00365114 -0.00073542 0.000387944)
(-580.356 39.1616 129.1)
(-683.419 10.9612 40.5315)
(-598.835 9.10407 132.766)
(-101.068 1.16639 21.8367)
(-145.741 9.16161 7.3146)
(-159.494 2.10222 8.08905)
(-90.5863 5.44587 19.4007)
(-683.446 -16.4051 40.8731)
(-572.095 -47.5158 129.161)
(-597.122 -15.157 133.372)
(-99.7758 -2.05392 21.699)
(-140.585 -10.9447 7.11589)
(-86.093 -6.50072 18.5967)
(-158.592 -3.22913 8.10973)
(-62.1931 -26.9697 20.1728)
(-42.0232 -19.0022 9.74678)
(-14.5825 -5.64754 3.88643)
(-8.77843 -2.95966 1.6548)
(-2.70868 -0.833272 0.618462)
(-1.80951 -0.57941 0.303117)
(-0.561348 -0.164834 0.115885)
(-510.505 -74.9364 117.367)
(-505.263 -103.996 29.7292)
(-412.903 -86.2261 97.1775)
(-101.924 -14.1035 4.90049)
(-61.0103 -7.94731 12.7357)
(-35.3592 -5.90437 6.90089)
(-59.7807 -10.7188 2.59695)
(-711.901 -429.84 305.662)
(-195.033 -126.151 110.587)
(-500.697 -330.613 223.448)
(-72.6834 -38.4801 36.9825)
(-327.473 -196.401 143.964)
(-90.6119 -52.4324 35.5602)
(-10.2828 -4.58955 4.14436)
(-0.00101256 -0.000398458 0.000260815)
(-1.33707e-05 -5.40239e-06 3.15802e-06)
(-5.72645e-05 -2.28665e-05 8.81349e-06)
(-2.36215e-05 -1.46774e-05 6.42768e-06)
(-0.000126305 -7.18817e-05 2.27574e-05)
(-6.47743e-06 -2.7758e-06 7.9507e-07)
(-1.19151e-06 -5.79272e-07 2.84673e-07)
(-350.693 23.5571 136.275)
(-95.0442 0.94106 44.0023)
(-369.686 4.90174 144.057)
(-29.042 0.23936 8.65021)
(-3.00741 0.121026 0.979679)
(-3.42126 0.018482 1.12544)
(-25.8571 1.29117 7.55684)
(-92.6461 -2.42223 42.9341)
(-340.486 -29.5884 133.506)
(-366.981 -9.87904 143.466)
(-28.5051 -0.522568 8.46959)
(-2.72115 -0.152897 0.89119)
(-3.31073 -0.0535776 1.09252)
(-24.2339 -1.58455 7.03125)
(-376.954 -99.9431 21.7385)
(-161.263 -49.5059 38.1148)
(-289.841 -77.3452 69.6321)
(-17.0282 -3.22808 3.06391)
(-11.6712 -2.51202 0.384115)
(-6.41901 -1.3073 1.06616)
(-29.1492 -5.8825 1.10261)
(-502.963 -356.032 34.5013)
(-112.423 -78.6016 29.7995)
(-417.058 -295.159 113.542)
(-46.6342 -27.2316 10.8405)
(-8.33924 -4.40358 0.296109)
(-4.21032 -2.13829 0.75767)
(-83.531 -51.5866 4.42569)
(-283.124 -43.3254 111.439)
(-31.431 -5.50394 13.093)
(-202.64 -42.9626 78.7783)
(-1.79692 -0.1724 0.575177)
(-16.8997 -1.89643 4.67876)
(-9.41077 -1.37426 2.43791)
(-0.951722 -0.119017 0.291956)
(-167.183 -92.2077 9.70806)
(-3.54861 -1.22505 0.598639)
(-102.486 -53.7865 25.5339)
(-15.145 -6.73529 2.94876)
(-0.781736 -0.270574 0.0197885)
(-0.397583 -0.132358 0.0585443)
(-27.5787 -13.2754 1.14199)
(-8.12867 -3.34097 1.54474)
(-0.333489 -0.12669 0.0680848)
(-2.50263 -0.940852 0.575535)
(-0.0394416 -0.0139669 0.00553288)
(-0.300644 -0.0989266 0.0454306)
(-0.0892613 -0.0280774 0.0172121)
(-0.0115842 -0.00397144 0.00210985)
(-15.4379 -5.53994 4.90507)
(-0.483492 -0.143201 0.144715)
(-3.34368 -1.12607 0.906387)
(-0.0841227 -0.021511 0.0233054)
(-0.592753 -0.164026 0.139378)
(-0.119931 -0.033033 0.0260231)
(-0.0169565 -0.00440027 0.00451195)
(-14.6982 -2.90549 5.58365)
(-47.077 -12.5594 15.3847)
(-113.558 -28.7059 42.0854)
(-4.07531 -0.679103 0.967944)
(-0.141728 -0.0229988 0.0398532)
(-1.43183 -0.257932 0.307683)
(-0.410017 -0.0597203 0.119512)
(-6.41204 -2.87098 3.68507)
(-15.9583 -8.10017 9.69136)
(-4.37816 -1.73964 2.38114)
(-0.74408 -0.319145 0.434075)
(-0.211268 -0.0746694 0.108782)
(-0.513758 -0.195302 0.256752)
(-0.0233686 -0.00858084 0.0119878)
(-31.2841 -18.147 14.8815)
(-28.1796 -17.4085 9.31034)
(-208.784 -143.542 92.2751)
(-10.9937 -5.35372 3.06364)
(-0.0699905 -0.0306839 0.0217413)
(-0.834902 -0.390511 0.182859)
(-0.960515 -0.406366 0.33065)
(-3.57319 0.0223529 0.55732)
(-5.75617 0.240849 0.171576)
(-0.0828866 0.00264045 0.0109105)
(-0.174823 0.000781822 0.00356735)
(-0.0942179 0.000378562 0.0123916)
(-6.5241 0.0468762 0.196785)
(-3.13695 0.125495 0.486925)
(-3.51709 -0.0433025 0.552629)
(-0.173164 -0.0014012 0.00356923)
(-0.0776077 -0.00329748 0.0103286)
(-5.47247 -0.29254 0.164322)
(-0.0926611 -0.000820757 0.0122833)
(-2.94789 -0.15261 0.461829)
(-6.46974 -0.0768771 0.196857)
(-7.5709 0.0463777 3.44994)
(-0.59812 0.0237752 0.183597)
(-0.673717 0.0033987 0.20719)
(-0.202267 0.00706137 0.0769886)
(-0.22853 0.000873923 0.0875505)
(-0.0219722 8.37888e-05 0.00582069)
(-0.0194705 0.000706104 0.00515301)
(-0.319554 -0.0858473 0.0475895)
(-0.00334008 -0.000676272 0.000752044)
(-0.0954088 -0.0242843 0.0181076)
(-0.00244661 -0.000789033 0.000249859)
(-0.0654056 -0.0174767 0.00923752)
(-0.0195417 -0.0049902 0.00356608)
(-0.000761897 -0.000235001 0.000171662)
(-2.48137 -0.870379 0.879066)
(-0.716926 -0.220472 0.148187)
(-25.3606 -11.0483 7.78499)
(-3.1525 -1.22838 0.758836)
(-0.00680568 -0.00206263 0.00188137)
(-0.0773231 -0.0244184 0.0141208)
(-0.275827 -0.0943034 0.0861561)
(-0.051533 -0.00389016 0.0068054)
(-3.65467 -0.356813 0.103702)
(-1.97108 -0.182363 0.300842)
(-1.05587 -0.127461 0.154471)
(-0.0508873 -0.00556071 0.000961712)
(-0.0270327 -0.00286199 0.003476)
(-1.93893 -0.245222 0.0504625)
(-7.29219 -0.145877 3.32577)
(-0.54706 -0.0297495 0.163079)
(-0.654101 -0.00940845 0.198996)
(-0.180297 -0.00915927 0.0689504)
(-0.219879 -0.0031723 0.0844497)
(-0.0213338 -0.000253737 0.00559414)
(-0.0178029 -0.000857968 0.00457932)
(-0.365817 -0.0365031 0.107035)
(-2.13023 -0.305102 0.930352)
(-0.190162 -0.0257585 0.0554901)
(-0.118672 -0.0104044 0.0449167)
(-0.0621312 -0.00737401 0.0231762)
(-0.0118208 -0.0010359 0.00299812)
(-0.00615547 -0.00077729 0.00154866)
(-0.0476786 -0.00378265 0.0127039)
(-0.0115788 -0.000645359 0.00174215)
(-0.467017 -0.0397461 0.0929781)
(-0.244698 -0.0273422 0.0465936)
(-0.0007277 -9.48278e-05 0.000230775)
(-0.00597322 -0.000724352 0.00087966)
(-0.0248385 -0.00264378 0.00644924)
(-0.0698544 -0.0254448 0.0150096)
(-0.0755369 -0.0240514 0.0212536)
(-0.543477 -0.184802 0.128761)
(-0.0188705 -0.00566872 0.00376088)
(-0.000426986 -0.000150726 0.000123646)
(-0.0024698 -0.000835146 0.000465588)
(-0.00274667 -0.000806941 0.000770873)
(-0.00226542 7.36438e-05 0.000628191)
(-0.7552 0.0269653 0.15658)
(-0.0805599 0.00257125 0.0215655)
(-0.858552 0.00408812 0.17999)
(-0.00256665 5.76095e-06 0.00071471)
(-0.0220008 6.95753e-05 0.00361857)
(-0.0915137 0.00032029 0.0246607)
(-0.839903 -0.0100496 0.175512)
(-0.00248023 -2.78277e-05 0.00069442)
(-0.0726758 -0.00332199 0.0196353)
(-0.0177453 -0.000832966 0.00288233)
(-0.021477 -0.000197893 0.00352595)
(-0.0885229 -0.00106557 0.0239669)
(-0.700496 -0.0336784 0.143956)
(-1.42857 -0.595781 0.231477)
(-0.0703917 -0.0252375 0.00145228)
(-0.215202 -0.0925903 0.00502402)
(-0.00258702 -0.00100358 0.000340149)
(-0.106112 -0.044947 0.0152922)
(-0.0350249 -0.0122959 0.00477433)
(-2.83245 -1.2271 0.0847103)
(-0.46186 -0.0645943 0.0644179)
(-0.0217973 -0.00240621 0.000374678)
(-0.00401932 -0.000655165 0.000502736)
(-0.305784 -0.049356 0.00654964)
(-0.0114838 -0.00123307 0.0014563)
(-0.161829 -0.0252107 0.0215642)
(-0.852882 -0.124404 0.0202163)
(-0.00620626 0.00029254 0.000542147)
(-0.0854975 0.00374977 0.00914808)
(-0.174381 0.00733995 0.0215651)
(-0.0982887 0.000625592 0.0104461)
(-0.1992 0.00117115 0.0244158)
(-0.00705803 3.5329e-05 0.000611834)
(-0.00372418 2.27387e-05 0.000443543)
(-0.0977336 -0.000830248 0.0103038)
(-0.166957 -0.00836501 0.0197157)
(-0.196716 -0.00195763 0.0237058)
(-0.00696251 -6.29925e-05 0.000592604)
(-0.00317707 -0.000184083 0.000369829)
(-0.00369543 -3.36204e-05 0.00043554)
(-0.00593216 -0.000333297 0.000494451)
(-0.79832 -0.343303 0.192743)
(-0.0274988 -0.0127664 0.00352627)
(-0.0776601 -0.0346288 0.020311)
(-0.0106169 -0.00418141 0.00134259)
(-0.0272992 -0.0103427 0.0056349)
(-0.00274284 -0.00113892 0.000580053)
(-0.00110774 -0.00049227 0.000143373)
(-1.63709 -0.772956 0.897737)
(-0.00520769 -0.00249618 0.00291942)
(-0.0690521 -0.0304583 0.0398253)
(-0.0035066 -0.00151511 0.0015536)
(-0.0471178 -0.0185993 0.0219996)
(-0.00212975 -0.000852275 0.0010622)
(-0.000200237 -8.98175e-05 7.80604e-05)
(-0.112464 -0.0110871 0.0128957)
(-0.029495 -0.00413016 0.00296063)
(-0.0583679 -0.00819179 0.00649874)
(-0.0021725 -0.000148841 0.000248308)
(-0.0040055 -0.00026923 0.000326966)
(-0.0021594 -0.000336442 0.000172382)
(-0.00122056 -0.000188797 0.000132316)
(-0.922182 -0.153481 0.393637)
(-0.0260225 -0.0047931 0.00784461)
(-0.0782739 -0.0125314 0.0231962)
(-0.00901646 -0.00154447 0.00324098)
(-0.0262421 -0.00349444 0.00963433)
(-0.00257181 -0.00035153 0.00065189)
(-0.000936375 -0.000194916 0.000229859)
(-0.0354973 -0.0144745 0.00674515)
(-0.0109674 -0.00502182 0.00137847)
(-0.00426968 -0.00166716 0.000452287)
(-0.00324658 -0.0014798 0.000675841)
(-0.0013407 -0.000505011 0.000304495)
(-0.000497558 -0.000227211 5.05298e-05)
(-0.000224729 -0.000107351 4.81034e-05)
(-0.285628 -0.108759 0.0567696)
(-0.000673272 -0.000229983 0.000235995)
(-0.00177266 -0.000712014 0.000503756)
(-0.000498787 -0.000188891 7.50928e-05)
(-0.0205321 -0.00835562 0.00361165)
(-0.00666752 -0.00226582 0.00104518)
(-0.0242578 -0.00876276 0.00703023)
(-0.102796 -0.0133982 0.0185645)
(-0.000324361 -2.9104e-05 9.8829e-05)
(-0.000893249 -0.000161951 0.000125621)
(-0.00354892 -0.000527788 0.000885634)
(-0.00251833 -0.000224191 0.000357426)
(-0.0357894 -0.00528539 0.00612637)
(-0.0104343 -0.00126715 0.00264706)
(-0.00291858 -0.000637587 0.000728616)
(-0.000729202 -0.000137166 0.000123518)
(-0.0204507 -0.00486741 0.00407867)
(-0.00413259 -0.0010273 0.000794297)
(-8.16271e-05 -2.19925e-05 2.28226e-05)
(-0.000201554 -6.42554e-05 3.28827e-05)
(-0.000624628 -0.000154358 0.000157898)
(-0.126872 -0.0394819 0.0580409)
(-0.000224693 -6.44197e-05 8.41841e-05)
(-0.00642053 -0.00199289 0.00292803)
(-0.00040203 -0.000124028 0.000154496)
(-0.014102 -0.0046055 0.00610094)
(-0.00072 -0.000247671 0.000320161)
(-5.96435e-05 -2.12029e-05 1.67034e-05)
(-0.0013808 -0.000448979 0.000140179)
(-0.000407069 -0.000113782 3.95495e-05)
(-0.0103706 -0.00304699 0.00137728)
(-0.0030568 -0.000874894 0.000534362)
(-7.68998e-05 -2.60048e-05 1.28008e-05)
(-0.000447253 -0.00014833 9.73398e-05)
(-0.000168586 -4.4499e-05 3.29732e-05)
(-0.0115402 -0.00189868 0.00114854)
(-0.0073076 -0.00145895 0.000789574)
(-0.0231741 -0.003801 0.0025414)
(-0.000954834 -0.000118342 7.53872e-05)
(-0.000341748 -7.5081e-05 4.07153e-05)
(-0.00045704 -0.000101691 3.27749e-05)
(-0.000602838 -7.74604e-05 6.957e-05)
(-0.000108842 -1.68305e-07 2.05075e-05)
(-0.00569705 0.000190619 0.00190741)
(-0.000676854 2.5419e-05 0.000149277)
(-0.000258402 1.81969e-06 7.02358e-05)
(-0.00644624 2.13302e-05 0.00217127)
(-0.000751761 3.57131e-06 0.000167936)
(-0.00010723 1.70556e-06 1.93255e-05)
(-0.00024725 -4.68536e-06 6.7289e-05)
(-0.00508787 -0.000232198 0.00171116)
(-0.00620497 -7.58937e-05 0.00209584)
(-0.000728286 -9.22707e-06 0.000160626)
(-9.80029e-05 -5.49434e-06 1.69173e-05)
(-0.00010239 -3.39424e-06 1.80366e-05)
(-0.000621572 -3.4655e-05 0.00013222)
(-0.00328463 -0.000255351 0.0010934)
(-0.000113269 -1.17184e-05 2.52986e-05)
(-0.00171531 -0.000185914 0.000559016)
(-8.18151e-05 -6.57326e-06 1.51395e-05)
(-0.000414525 -2.65374e-05 8.75474e-05)
(-0.000249752 -3.15545e-05 5.17363e-05)
(-7.46126e-05 -7.76637e-06 1.40006e-05)
(-0.00700666 -0.00278255 0.00139375)
(-0.000163714 -8.66363e-05 5.28473e-05)
(-0.000682155 -0.000300913 0.000134506)
(-0.000137322 -5.24697e-05 4.14772e-05)
(-0.000320292 -0.000122765 6.03998e-05)
(-0.000121844 -5.9843e-05 2.54654e-05)
(-9.76608e-05 -4.77694e-05 2.76465e-05)
(-0.00203607 -0.00103262 0.000264878)
(-0.000554508 -0.000297139 0.000140376)
(-0.00591575 -0.00282523 0.00169585)
(-0.000354229 -0.000169951 6.66638e-05)
(-0.00018014 -0.000102759 2.9338e-05)
(-0.000187934 -0.000105749 1.98735e-05)