/*--------------------------------*- C++ -*----------------------------------*\
  =========                 |
  \\      /  F ield         | OpenFOAM: The Open Source CFD Toolbox
   \\    /   O peration     | Website:  https://openfoam.org
    \\  /    A nd           | Version:  9
     \\/     M anipulation  |
\*---------------------------------------------------------------------------*/
FoamFile
{
    format      ascii;
    class       volScalarField;
    location    "0.0003";
    object      rho.air;
}
// * * * * * * * * * * * * * * * * * * * * * * * * * * * * * * * * * * * * * //

dimensions      [1 -3 0 0 0 0 0];

internalField   nonuniform List<scalar> 
2427
(
0.0117498
0.0333342
0.00680194
0.00785908
0.0938753
0.798339
0.0106412
0.104716
0.00818963
0.013939
0.00702269
0.0128754
0.00677865
0.00794456
0.0162288
0.00585201
0.006811
0.00639052
0.00439425
0.00507069
0.00514495
0.00639122
0.00747733
0.00958878
0.00625917
0.00938008
0.0120125
0.00634117
0.00709623
0.00822691
0.00496369
0.0156438
0.0181588
0.00631725
0.00666958
0.0273613
0.00628185
0.00673952
0.00666752
0.00613027
0.00613148
0.00615182
0.00679406
0.0059762
0.006658
0.0058969
0.00659009
0.00553328
0.00601136
0.00665355
0.00601612
0.00644192
0.00568739
0.00623469
0.0059612
0.00542
0.00656066
0.00494757
0.00524893
0.00437193
0.00444231
0.00518966
0.00515798
0.00422893
0.0154318
0.0257425
0.166344
0.0338075
0.0106342
0.0628411
0.0413396
0.0132729
0.0206345
0.175253
0.0388382
0.031633
0.0100346
0.0627126
0.0115148
0.0187628
0.0152209
0.0580295
0.0224534
0.00972531
0.025701
0.0286533
0.2101
0.351246
0.384369
0.0763391
0.14792
0.0856667
0.00684545
0.042968
0.00725589
0.00559302
0.00875446
0.00886984
0.0764807
0.0125396
0.0742149
0.374845
0.0572404
0.346527
1.80233
1.62741
1.88271
1.76366
0.00496226
0.00642809
0.00663684
0.00452111
0.004787
0.00428474
0.00603134
0.00583504
0.0062878
0.007408
0.00853333
0.00604439
0.00812115
0.00603477
0.00498881
0.00649725
0.00577769
0.00466569
0.0044971
0.00531484
0.00574737
0.00584423
0.00376837
0.0150841
0.0091531
0.00611873
0.00451525
0.0140063
0.00620713
0.00673037
0.00683994
0.00623198
0.00617767
0.00626461
0.00672395
0.00596219
0.00647483
0.00598684
0.00638013
0.00599885
0.00595156
0.00642292
0.00612594
0.00671062
0.00614153
0.00657868
0.00619838
0.00620393
0.00655112
0.00541497
0.00536728
0.0047275
0.00454388
0.00538188
0.00539498
0.00470635
0.00527892
0.00481517
0.00506253
0.00474454
0.00525788
0.00512905
0.00473197
0.00523684
0.00404745
0.00520275
0.00439026
0.00533312
0.0049776
0.00434817
0.00589588
0.00528837
0.00626195
0.00631397
0.00557735
0.00593534
0.00626044
0.0057802
0.00627517
0.00596823
0.00623282
0.00590798
0.0057774
0.0062413
0.00499587
0.0063245
0.00591259
0.00637913
0.00570504
0.00562586
0.00595045
0.00447833
0.00392847
0.00414092
0.0037618
0.0041265
0.00459883
0.00382724
0.00617009
0.00557735
0.0101008
0.0177353
0.00492279
0.0068256
0.0147626
0.278191
0.0734838
0.040563
0.189399
0.0645778
0.322653
0.174772
0.00599174
0.00780035
0.00653248
0.00959482
0.00846686
0.00649894
0.00620223
0.00827929
0.017026
0.0302597
0.0614913
0.00889193
0.0154062
0.0256523
0.00852904
0.0184021
0.0619257
0.0314135
0.0158845
0.00942792
0.0262924
0.284954
0.0438424
0.0839563
0.243094
0.0674533
0.186275
0.355039
0.538705
0.154588
0.29845
1.38787
0.126983
0.653657
1.14922
1.04503
0.739612
1.97016
1.74782
1.19759
0.682177
1.94574
0.536556
0.293297
0.154626
1.27103
0.12816
1.11602
0.641818
1.05108
0.90847
1.76473
1.97836
0.717665
1.2549
1.94397
1.70759
2.27983
1.92012
1.75569
1.89392
2.2459
1.96825
1.67646
2.29767
1.82247
1.97721
2.23697
1.84786
1.99998
1.1583
1.59158
2.08762
1.2281
1.225
1.22523
0.0899331
1.12715
0.0131912
0.353486
1.61997
2.79087
0.297222
1.43485
0.082512
0.0177046
0.0323379
0.0189517
0.0274662
0.0534728
0.0480484
0.295329
0.0578717
0.468916
0.771738
0.0960675
0.182369
1.12394
0.0118395
2.47366
1.26114
2.69107
1.86511
2.75405
1.23517
0.316693
0.0160289
0.509049
0.217474
1.16648
0.207062
1.41956
1.2251
1.22893
0.0988043
0.527022
1.40735
2.01381
1.61575
1.28381
0.0426712
0.0280946
0.0120499
0.0162032
0.0439915
0.0154119
0.0289357
0.573928
2.50991
3.04096
0.023592
1.62068
0.315626
2.71062
2.45539
2.61962
0.6816
0.095723
2.34048
1.17201
1.69045
2.40264
0.823703
2.45833
1.32308
1.22509
1.41015
1.23223
0.0468649
0.0131413
0.0437055
0.0201441
0.0164835
0.0607181
0.0328832
0.123407
0.0448798
0.581823
0.175563
0.138639
0.0401767
0.484601
1.84446
2.48693
2.50342
1.22678
1.22503
1.27563
1.22584
0.138902
0.2253
0.41842
0.301062
0.579194
0.883421
1.127
0.128592
0.0503074
0.17517
0.568607
0.0415635
0.158101
0.483916
1.06283
2.57782
2.41482
1.40407
1.28143
1.22545
1.22532
0.484086
0.303657
0.482315
0.0881914
0.143815
0.142072
0.0915589
0.0716806
0.0468586
0.0307361
0.0999019
0.0664168
0.221833
0.159648
0.18962
0.271814
0.0348816
0.159057
0.0608944
0.106894
0.460346
0.715498
0.370502
0.542318
0.158361
0.146835
0.208982
0.106497
0.128471
0.144997
0.189223
0.330352
0.492889
0.642148
0.441456
1.33613
2.52583
2.47579
1.2271
1.34519
1.225
1.22524
0.578069
0.103066
0.174096
0.53693
0.867294
0.268293
0.158574
0.905841
0.738787
2.26393
1.62325
2.07103
2.45981
2.40789
1.225
1.90283
1.22814
2.96435
1.22554
1.15444
1.32364
1.22742
0.429663
2.41333
2.48963
1.40928
0.385135
1.25751
0.247299
0.98331
1.72586
0.503609
0.970685
1.67693
2.37129
0.0795166
0.841246
0.617636
0.25026
0.172988
0.51485
1.47058
2.54395
1.89259
0.933845
0.632013
0.522549
0.230157
1.22806
1.21575
2.54087
2.42102
0.401177
1.41688
0.494956
1.26265
0.587776
1.61825
0.737982
2.49026
1.77392
2.02764
2.53942
0.369638
1.3451
0.461303
2.3158
1.13786
1.33046
2.45658
0.721006
1.73106
2.15368
1.5823
2.01735
2.48701
2.52866
1.36582
2.82233
2.70111
1.24576
1.22502
1.22509
1.225
1.61162
1.98525
2.41299
0.59597
0.827666
0.355342
1.24493
0.554698
2.17111
2.65977
2.59536
1.71147
1.88516
0.832746
1.225
2.33397
1.45553
1.22871
1.7976
2.46405
1.57955
1.42446
1.99303
1.74927
1.95169
2.10052
2.25819
1.857
0.404768
0.138448
0.189261
0.587511
1.19929
1.52447
0.41937
1.9713
0.856845
1.12908
0.250792
0.34523
0.734853
0.533262
0.479865
0.22079
0.313916
1.02563
1.47553
1.84441
0.749005
1.66599
2.18442
1.1912
2.43097
2.49503
2.32415
2.17148
1.09625
2.45005
1.50272
1.78578
2.49338
2.48158
1.39739
1.50345
1.02064
1.47964
2.48038
2.31799
2.49465
2.33954
1.64285
1.62034
2.08422
2.3822
2.47244
2.47176
2.54487
1.95891
1.22438
1.64257
2.50832
2.57398
2.51178
2.45482
1.20856
1.34455
0.449433
1.22259
3.13597
2.48307
2.40015
1.86028
2.12987
1.11172
2.44773
2.47647
2.71308
2.59373
2.36814
1.90863
2.18194
2.39136
1.39117
2.3121
1.65393
1.94371
2.87291
2.78558
1.88119
0.777272
1.43937
2.64783
2.17241
1.87006
2.46049
2.6986
2.75638
2.5565
2.45227
2.75199
2.19652
2.63833
2.63418
2.83392
1.50305
2.28506
2.56134
2.72336
2.40015
2.10586
2.47813
1.86312
1.47663
1.39391
1.83098
0.736896
1.84663
2.86421
2.74458
2.6434
1.57569
1.22501
1.58947
1.22501
1.22501
1.225
1.225
1.99228
1.58399
2.34427
2.31672
1.26336
1.87984
1.48632
2.91239
2.69866
2.88045
1.64156
2.54718
2.81255
1.30956
2.31851
2.19156
2.73324
2.60407
2.47566
2.79411
2.01856
2.39125
2.54798
2.34342
2.48305
1.588
2.31128
2.50708
2.28851
2.54927
1.3564
1.43588
2.50982
2.10494
1.924
2.08357
1.40045
2.19711
1.70836
1.23842
1.5513
1.24967
2.43346
2.52249
2.46185
2.40097
1.57901
2.40755
1.62437
1.23921
2.59996
2.50259
2.7868
2.82075
2.93052
3.04752
1.225
1.225
1.29581
1.225
1.225
1.225
1.225
1.44911
2.47159
1.48797
2.59017
2.50679
2.20291
2.18166
2.24652
1.44648
2.25324
1.80079
1.25185
1.75901
1.25736
1.86062
1.25689
2.10811
2.55621
1.29475
1.72238
1.52826
2.45839
2.51188
2.55974
2.38599
1.55231
2.2858
1.64203
2.6987
2.75173
2.66111
2.3175
2.08169
2.56162
1.75187
2.82632
2.22025
2.45872
2.60107
2.44723
2.09962
2.36034
0.00590677
0.0110994
0.0298959
0.20805
0.0200343
0.119022
0.42402
1.45684
0.00903208
0.00640511
0.00736217
0.00540969
0.00625432
0.00764967
0.00837089
0.0169406
0.00742931
0.0279928
0.0475832
0.00882747
0.0138023
0.0646631
0.0121562
0.00758417
0.0189024
0.0126119
0.00783777
0.0236509
0.0107048
0.0185726
0.0121845
0.0389544
0.0430159
0.0150255
0.0553777
0.0147851
0.026256
0.0272229
0.0499297
0.252844
0.0123672
0.0593935
0.113726
0.0466223
0.11645
0.144489
0.524618
0.0369267
0.147187
0.18605
0.148303
0.028554
0.0441687
0.063562
0.0639483
0.0914313
0.0216828
0.501243
0.0761737
0.610071
0.812111
0.170155
0.239081
0.301765
1.92543
1.2497
1.72599
1.23173
1.42011
1.31908
1.22794
2.12276
2.34264
2.66189
1.45548
2.28964
2.07221
1.32615
1.225
1.26697
1.225
1.225
1.225
1.225
1.225
2.71034
1.64386
1.93156
1.39514
2.10208
2.39208
2.71987
2.23312
1.38042
1.2565
1.24136
1.89229
1.65653
1.34694
1.51942
3.02861
2.45979
2.50615
2.74221
3.09534
3.13884
1.93097
2.23583
1.3717
1.29709
1.99345
1.28626
2.16136
1.85823
1.93914
1.32749
1.25269
1.27194
1.71715
2.09495
2.11868
1.27308
1.85894
1.64698
1.27809
1.24605
1.91593
2.33052
1.34031
2.74478
2.78185
2.01429
1.63887
1.25461
2.72577
1.90196
2.59541
2.50811
2.9648
1.89663
1.33255
3.08422
2.4759
2.74445
3.13393
3.02012
2.54132
1.52952
2.34503
1.29281
1.52654
1.22671
1.23432
1.33567
1.25135
1.71521
2.67434
2.20473
1.65556
1.22858
1.24996
1.31149
2.166
1.25513
1.86803
1.23893
1.6014
1.3707
1.22872
2.74592
1.89952
2.37118
1.37661
2.04381
1.59681
1.25777
1.79663
2.83218
2.64808
1.49026
1.27664
1.24911
1.6918
1.28739
1.23306
1.47031
1.2564
1.22517
1.22585
1.23269
2.01749
3.09015
2.98689
2.04208
1.35618
1.28465
2.3697
1.54883
2.86556
2.69853
1.85788
1.2908
1.25395
2.1775
1.49538
1.23453
1.23982
1.24067
1.24619
1.2256
1.22541
1.23886
1.64686
1.24317
1.24246
1.24906
1.2257
1.22548
1.22911
1.22517
1.23211
1.30484
1.22637
1.26995
1.22755
1.22516
1.22522
1.23417
1.33091
1.22769
1.31468
1.22837
1.47818
1.24148
1.23485
1.22552
1.48386
1.23464
1.24406
1.44866
1.2381
1.23009
1.22551
1.23336
1.37333
1.24433
1.36769
1.29301
1.23867
1.22566
1.22972
1.56234
1.25048
1.66576
1.23492
1.49443
1.289
1.22908
1.22686
1.3542
1.22699
1.38588
1.22998
1.23349
1.22822
1.2252
1.22507
1.36723
1.48379
2.34896
1.30205
1.2252
1.22848
1.23128
1.22502
1.22504
1.22708
1.22566
1.24868
1.23586
1.22526
1.23434
1.2309
1.39619
1.29699
1.22508
1.22716
1.22842
1.25037
1.2305
1.43494
1.25007
1.22504
1.22554
1.22734
1.23394
2.11435
1.35524
1.27747
1.22518
1.22873
1.2284
1.23968
1.60241
2.65178
1.4636
1.22539
1.234
1.23997
1.28602
1.36507
2.17512
1.38106
1.22519
1.22917
1.23446
1.40395
1.23065
1.23161
1.22607
1.22616
1.22516
1.22502
1.22506
1.22621
1.27161
1.23794
1.22501
1.22565
1.22526
1.24439
1.22506
1.22545
1.22508
1.22567
1.22501
1.225
1.22965
1.22671
1.28458
1.23788
1.22501
1.22527
1.2258
1.27596
1.22504
1.22961
1.22841
1.22684
1.22635
1.3397
1.2252
1.225
1.225
1.22815
1.22501
1.22506
1.22563
1.24226
1.22508
1.22504
1.22501
1.22541
1.22568
1.2274
1.23335
1.22635
1.22542
1.22501
1.22517
1.22555
1.2434
1.22523
1.22501
1.22537
1.22501
1.225
1.22501
1.225
1.2295
1.225
1.22509
1.225
1.22509
1.225
1.225
1.22551
1.22502
1.22568
1.22502
1.225
1.22501
1.225
1.225
1.225
1.225
1.32513
1.23209
1.225
1.225
1.225
1.225
1.2712
1.22935
1.22789
1.22619
1.22676
1.22503
1.22509
1.225
1.225
1.225
1.225
1.225
1.225
1.225
1.22532
1.22501
1.22501
1.22514
1.2252
1.225
1.225
1.225
1.22626
1.225
1.58034
1.225
1.22507
1.225
1.225
1.225
1.225
2.35204
1.24615
1.56455
1.2599
1.22503
1.225
1.22503
1.225
2.73914
1.225
1.22527
2.42552
1.25459
1.23063
1.22502
1.4661
1.24247
1.22682
1.22501
1.225
1.225
1.225
1.225
1.22589
1.41264
2.14563
1.22513
1.24831
1.225
1.46642
1.60811
1.51714
1.25792
1.26679
1.24461
1.23856
1.60726
1.4868
1.53754
1.2531
1.26627
1.24668
1.24051
1.225
1.225
1.225
1.22826
1.23138
1.225
1.225
2.53682
2.32791
2.25966
2.50248
2.46529
1.57277
1.49386
1.225
1.225
1.225
1.225
1.22664
1.225
1.225
1.32483
1.26145
1.37667
1.2312
1.22566
1.22865
1.22625
1.27083
1.36356
1.40119
1.23244
1.22613
1.22657
1.23027
1.39195
1.31306
1.27511
1.2376
1.23177
1.22804
1.22663
1.225
1.22537
1.225
1.225
1.2251
1.225
1.22503
2.78281
1.65314
2.06322
1.91418
2.35079
1.35197
1.25572
1.92326
2.02607
1.79251
1.26188
1.36483
1.28559
1.30433
1.225
1.225
1.225
1.225
1.22797
1.225
1.225
1.225
1.225
1.225
1.225
1.225
1.22507
1.25014
1.22633
1.22505
1.22676
1.22569
1.22501
1.22544
1.22502
1.225
1.225
1.22507
1.225
1.225
1.225
1.225
1.22609
1.22505
1.22674
1.22577
1.22501
1.2255
1.22502
1.71037
1.24532
1.61725
1.22592
1.24904
1.24164
1.22557
1.39789
1.22862
1.3466
1.22533
1.23858
1.23415
1.2252
1.29191
1.22984
1.24468
1.22546
1.2272
1.22552
1.2251
1.3097
1.77033
1.55685
1.23866
1.23101
1.2275
1.25493
1.49374
1.24037
1.40957
1.23137
1.22564
1.23551
1.22538
1.3031
1.37076
1.48559
1.23133
1.22858
1.23543
1.2252
1.24106
1.22609
1.23459
1.22504
1.22544
1.22523
1.22502
1.23131
1.22536
1.22572
1.22508
1.22516
1.22501
1.22501
1.23322
1.22575
1.22597
1.22515
1.22521
1.22502
1.22501
1.225
1.225
1.225
1.225
1.22505
1.225
1.22514
1.225
1.26921
1.23233
1.41875
1.2312
1.22503
1.22518
1.22613
1.23852
1.22636
1.27816
1.22847
1.22501
1.22507
1.22568
1.225
1.22538
1.22507
1.225
1.22517
1.22503
1.225
1.24032
1.23032
1.29747
1.2271
1.22501
1.22511
1.22533
1.23039
1.22504
1.22711
1.22614
1.22506
1.22502
1.22781
1.2258
1.22538
1.22849
1.22507
1.225
1.22501
1.22501
1.22517
1.22501
1.225
1.225
1.2251
1.22503
1.225
1.22521
1.22502
1.225
1.225
1.22504
1.22513
1.225
1.22571
1.22516
1.22504
1.22506
1.22501
1.225
1.225
1.22576
1.22532
1.22506
1.22507
1.22501
1.22501
1.225
1.23582
1.22677
1.22569
1.22561
1.22523
1.22501
1.22503
1.225
1.225
1.225
1.225
1.225
1.225
1.225
1.225
1.22501
1.22564
1.2254
1.225
1.22501
1.22501
1.22532
1.225
1.22512
1.22501
1.225
1.22505
1.22584
1.22525
1.225
1.22501
1.22514
1.225
1.225
1.22501
1.23844
1.22501
1.22525
1.22501
1.22537
1.22501
1.225
1.22974
1.225
1.22509
1.225
1.22524
1.225
1.225
1.22672
1.225
1.22511
1.225
1.22506
1.225
1.225
1.22511
1.225
1.225
1.22503
1.225
1.22669
1.22506
1.22502
1.225
1.225
1.22507
1.225
1.2263
1.22506
1.22515
1.22501
1.225
1.22533
1.22501
1.2252
1.23252
1.22501
1.225
1.225
1.22533
1.22546
1.22501
1.22501
1.225
1.225
1.22502
1.22548
1.22574
1.22502
1.22501
1.225
1.225
1.22501
1.22526
1.22509
1.22501
1.225
1.22503
1.22502
1.22519
1.225
1.225
1.225
1.225
1.225
1.22652
1.22507
1.225
1.22502
1.225
1.225
1.22513
1.22501
1.225
1.225
1.225
1.225
1.225
1.22509
1.225
1.225
1.225
1.225
1.225
1.225
1.22501
1.225
1.225
1.22512
1.22501
1.225
1.225
1.225
1.225
1.225
1.22504
1.22511
1.225
1.225
1.225
1.225
1.225
1.22512
1.22502
1.225
1.225
1.225
1.225
1.225
1.22515
1.22502
1.225
1.225
1.225
1.22504
1.22511
1.225
1.225
1.225
1.225
1.225
1.22513
1.225
1.225
1.225
1.225
1.22502
1.22501
1.225
1.22505
1.22501
1.225
1.225
1.225
1.225
1.22506
1.22503
1.225
1.225
1.225
1.225
1.225
1.22505
1.22507
1.225
1.225
1.225
1.225
1.22501
1.22501
1.2251
1.225
1.225
1.225
1.225
1.22502
1.225
1.22505
1.225
1.225
1.225
1.225
1.225
1.225
1.225
1.22504
1.225
1.225
1.225
1.225
1.225
1.22501
1.225
1.225
1.225
1.225
1.225
1.22501
1.225
1.225
1.225
1.225
1.225
1.225
1.225
1.22502
1.225
1.225
1.225
1.225
1.22502
1.22506
1.225
1.225
1.225
1.225
1.225
1.22502
1.225
1.225
1.225
1.225
1.225
1.225
1.225
1.225
1.225
1.225
1.22501
1.225
1.225
1.225
1.225
1.225
1.225
1.22501
1.225
1.225
1.22501
1.225
1.225
1.225
1.225
1.225
1.225
1.225
1.225
1.225
1.225
1.225
1.225
1.225
1.225
1.225
1.225
1.225
1.225
1.225
1.225
1.225
1.225
1.225
1.22501
1.225
1.225
1.225
1.26164
1.22535
1.55435
1.23714
1.22503
1.225
1.22502
1.225
1.48683
1.42386
1.35859
1.25093
1.24073
1.23441
1.23011
1.23728
1.3711
1.27461
1.22624
1.2307
1.22666
1.22533
1.23082
1.28615
1.25784
1.22534
1.22719
1.22608
1.22514
1.22598
1.22501
1.22501
1.22552
1.22528
1.22514
1.225
1.22751
1.22675
1.23674
1.22531
1.22501
1.22504
1.22505
0.078875
1.225
1.22508
0.0093436
0.0117811
0.00609011
0.0106124
0.00695398
0.0663468
0.00734698
0.00512931
0.0128211
0.00478882
0.00726923
0.00597839
0.00403739
0.0104574
0.00593921
0.0124583
0.00697422
0.0107851
0.00656959
0.00645245
0.0111415
0.00452286
0.00434656
0.00581113
0.00651875
0.00487212
0.00401513
0.00649634
0.00561758
0.010321
0.00682521
0.0113697
0.00609006
0.00667677
0.0107529
0.00398607
0.00679516
0.00693379
0.00443562
0.00432936
0.00418608
0.00677509
0.00480844
0.00630517
0.00363346
0.0113756
0.00522885
0.0034278
0.00975297
0.00556124
0.00532728
0.00585276
0.00611407
0.00493353
0.00556404
0.00614849
0.00623998
0.00691728
0.00689829
0.00627955
0.00624534
0.00627693
0.00692265
0.00590927
0.00634863
0.00584599
0.00643285
0.00584303
0.00578197
0.00641292
0.00449486
0.00392587
0.00392099
0.00490474
0.00364706
0.00480034
0.00477248
0.00558904
0.00557094
0.00617009
0.00636326
0.00510252
0.00569901
0.00625861
0.0063249
0.00700134
0.00615611
0.00666679
0.00630755
0.00601017
0.00695162
0.00624418
0.005981
0.0068218
0.0067099
0.00609644
0.005969
0.00692782
0.00494363
0.004245
0.00413042
0.0046803
0.00489509
0.00483795
0.00410479
0.00622314
0.00695338
0.00610537
0.00671858
0.00607449
0.00626433
0.00692741
0.00605489
0.0067723
0.00621887
0.00682847
0.00605458
0.00610177
0.00680293
0.00521853
0.00531799
0.00459556
0.00430488
0.00430165
0.00531108
0.0053017
0.00496575
0.00438992
0.00490621
0.00436993
0.00496099
0.00415819
0.00510399
0.00517317
0.00430374
0.00512283
0.00423457
0.00509185
0.00423025
0.00526075
0.0060697
0.00601892
0.00662821
0.00686131
0.0059634
0.00599239
0.00682434
0.00376133
0.00371881
0.00383124
0.00343964
0.00354314
0.00407085
0.0034367
0.00363473
0.00354195
0.00342514
0.00339918
0.00353313
0.00348185
0.00336414
0.00778055
0.0578846
0.0199653
0.0234546
0.00857026
0.0200735
0.0178982
0.00827337
0.0272362
0.0226143
0.0620362
0.00967363
0.0214315
0.0189588
1.68313
1.22502
1.58136
1.63555
1.60936
1.22508
1.22504
1.22506
1.30321
1.66766
1.29859
1.61966
1.22507
1.22506
1.67766
1.65006
1.69937
1.31616
1.28715
1.3114
1.2949
1.6764
1.69863
1.69663
1.3148
1.29372
1.28874
1.31849
1.64231
1.63808
1.67626
1.29989
1.26291
1.28625
1.26778
1.6571
1.57403
1.62584
1.2766
1.29914
1.26935
1.25587
1.62076
1.68481
1.65695
1.28174
1.30442
1.27236
1.25893
1.64761
1.63013
1.67192
1.29424
1.25072
1.27168
1.26296
1.32935
1.45952
1.51778
1.24224
1.22777
1.23711
1.22905
1.48718
1.336
1.54048
1.2432
1.22777
1.23792
1.22919
1.22916
1.22793
1.22507
1.22513
1.22773
1.22938
1.22512
1.22919
1.22512
1.22773
1.22509
1.22904
1.22811
1.22512
1.22802
1.22505
1.2259
1.22504
1.22692
1.22649
1.22509
1.2283
1.22504
1.22655
1.22508
1.22769
1.22672
1.2251
1.22739
1.2251
1.22856
1.22694
1.22503
1.22629
1.22505
1.2251
1.22722
1.22836
1.22686
1.22503
1.22623
1.22505
1.22559
1.22501
1.22506
1.225
1.22537
1.22501
1.22511
1.225
1.22501
1.22537
1.22557
1.225
1.22501
1.22511
1.225
1.225
1.22515
1.22504
1.225
1.225
1.22501
1.22501
1.225
1.22505
1.22502
1.225
1.225
1.225
1.90773
0.357128
1.68246
1.75509
0.298375
0.0407353
0.249117
0.0359162
1.83685
1.66833
1.24496
0.0512601
0.508761
1.73135
1.23905
1.87445
1.51154
0.0360612
0.0653542
1.97514
0.0312946
0.0471094
1.59544
1.82327
0.120012
0.0257055
0.0306169
0.138026
0.0256856
0.119463
0.134837
0.137796
0.0445165
0.0341777
0.204272
0.0306628
0.149199
0.196352
0.201184
0.175846
0.059714
0.0320963
0.253534
0.0471596
0.140953
0.191044
0.0303338
0.0523391
0.156788
0.0444351
0.223305
0.134693
0.127279
0.156469
0.036917
0.0280385
0.160961
0.0282943
0.125496
0.590049
0.0761708
0.0917806
0.22479
0.14038
0.326519
0.400952
0.148441
0.0438565
0.284904
0.0492047
0.191659
0.0334151
0.216176
0.48417
1.48799
0.547025
1.57398
0.480969
0.535453
1.50715
0.385714
0.217656
0.109023
0.884762
0.0931902
0.448835
0.786782
0.507818
0.613436
1.7016
1.50747
0.630874
0.500012
1.52671
0.736897
1.55968
0.614986
1.84133
0.847378
0.534645
1.7727
0.548539
1.82687
0.78364
1.63544
0.587514
0.760274
1.59977
1.12835
0.641088
0.160306
1.20078
0.298999
0.651559
1.81615
0.768652
1.93348
0.681128
1.59012
0.939828
0.556283
1.81331
0.410129
1.02922
0.128579
0.233447
0.526897
0.0996483
0.836126
1.22104
0.782971
0.203127
1.72467
0.318346
2.14467
0.841292
0.586638
1.80311
1.0431
1.87052
0.739022
0.82561
1.64024
1.78634
0.862736
1.95689
1.9812
1.18507
1.42367
1.9562
1.32586
1.89573
1.97228
2.021
1.47705
2.04487
1.88785
1.37925
2.10399
2.1113
1.93681
1.61926
2.08566
1.94331
2.1422
1.4351
0.668526
1.98239
2.52726
2.58914
2.42842
2.27116
2.15472
1.52006
1.98731
1.85081
1.8544
2.25918
2.2713
2.27739
1.39489
1.86204
2.21731
2.09686
1.74288
2.35818
1.59598
1.30624
1.28266
2.02528
1.52627
2.08691
1.22501
1.225
1.225
1.225
1.225
1.225
1.225
1.225
1.225
1.225
1.225
1.225
1.225
1.225
1.225
1.225
1.225
1.225
1.225
1.225
1.225
1.225
1.225
1.225
1.225
1.225
1.225
1.225
1.225
1.225
1.225
1.225
1.225
1.225
1.225
1.225
1.225
1.225
1.225
1.225
1.225
1.225
1.225
1.225
1.225
1.225
1.225
1.225
1.225
1.225
1.22501
1.225
1.225
1.225
1.225
1.225
1.225
1.225
1.225
1.225
1.225
1.225
1.225
1.225
1.225
1.225
1.225
1.225
1.225
1.225
1.225
1.225
1.225
1.225
1.225
1.225
1.225
1.225
1.225
1.225
1.225
1.225
1.225
1.225
)
;

boundaryField
{
    ground
    {
        type            zeroGradient;
    }
    outlet
    {
        type            zeroGradient;
    }
    wall
    {
        type            zeroGradient;
    }
    wall2
    {
        type            zeroGradient;
    }
    wall3
    {
        type            zeroGradient;
    }
    internalPatch
    {
        type            internal;
    }
    procBoundary2to0
    {
        type            processor;
        value           nonuniform List<scalar> 
384
(
1.225
1.225
1.225
1.225
1.225
1.225
1.225
1.225
1.225
1.225
1.225
1.225
1.225
1.225
1.225
1.225
1.225
1.225
1.225
1.225
1.225
1.225
1.225
1.225
1.225
1.225
1.225
1.225
1.225
1.225
1.225
1.225
1.225
1.225
1.225
1.225
1.22502
1.22593
1.22593
1.22502
1.225
1.225
1.225
1.225
1.225
1.225
1.225
1.225
1.225
1.225
1.225
1.225
1.225
1.225
1.225
1.225
1.225
1.225
1.225
1.225
1.225
1.225
1.22501
1.22508
1.22554
1.2269
1.2289
1.23079
1.23228
1.22965
1.22674
1.22533
1.22504
1.22501
1.225
1.225
1.225
1.225
1.225
1.225
1.225
1.225
1.225
1.225
1.225
1.225
1.225
1.225
1.225
1.225
1.225
1.225
1.225
1.225
1.225
1.225
1.225
1.225
1.225
1.225
1.225
1.225
1.225
1.225
1.225
1.225
1.225
1.225
1.225
1.225
1.225
1.225
1.225
1.225
1.225
1.225
1.225
1.225
1.225
1.225
1.225
1.225
1.225
1.22501
1.22557
1.22557
1.22501
1.225
1.225
1.225
1.225
1.225
1.225
1.225
1.225
1.225
1.225
1.225
1.225
1.225
1.225
1.225
1.225
1.225
1.225
1.225
1.225
1.225
1.225
1.225
1.225
1.225
1.22503
1.22522
1.2258
1.22657
1.22716
1.22756
1.2266
1.22557
1.2251
1.22501
1.225
1.225
1.225
1.225
1.225
1.225
1.225
1.225
1.225
1.225
1.225
1.225
1.225
1.225
1.225
1.225
1.225
1.225
1.225
1.225
1.225
1.225
1.225
1.225
1.225
1.225
1.225
1.225
1.225
1.225
1.225
1.225
1.225
1.225
1.225
1.225
1.225
1.225
1.225
1.225
1.225
1.225
1.225
1.225
1.225
1.225
1.225
1.225
1.225
1.225
1.22517
1.22517
1.225
1.225
1.225
1.225
1.225
1.225
1.225
1.225
1.225
1.225
1.225
1.225
1.225
1.225
1.225
1.225
1.225
1.225
1.225
1.225
1.225
1.225
1.225
1.225
1.225
1.225
1.225
1.22503
1.22511
1.22519
1.22523
1.22523
1.22513
1.22504
1.225
1.225
1.225
1.225
1.225
1.225
1.225
1.225
1.225
1.225
1.225
1.225
1.225
1.225
1.225
1.225
1.225
1.225
1.225
1.225
1.225
1.225
1.225
1.225
1.225
1.225
1.225
1.225
1.225
1.225
1.225
1.225
1.225
1.225
1.225
1.225
1.225
1.225
1.225
1.225
1.22502
1.22502
1.225
1.225
1.225
1.225
1.225
1.225
1.225
1.225
1.225
1.225
1.225
1.225
1.225
1.225
1.225
1.225
1.225
1.225
1.225
1.225
1.225
1.225
1.225
1.225
1.225
1.225
1.225
1.22501
1.22501
1.22501
1.22501
1.225
1.225
1.225
1.225
1.225
1.225
1.225
1.225
1.225
1.225
1.225
1.225
1.225
1.225
1.225
1.225
1.225
1.225
1.225
1.225
1.225
1.225
1.225
1.225
1.225
1.225
1.225
1.225
1.225
1.225
1.225
1.225
1.225
1.225
1.225
1.225
1.225
1.225
1.225
1.225
1.225
1.225
1.225
1.225
1.225
1.225
1.225
1.225
1.225
1.225
1.225
1.225
1.225
1.225
1.225
1.225
1.225
1.225
1.225
1.225
1.225
1.225
1.225
)
;
    }
    procBoundary2to3
    {
        type            processor;
        value           nonuniform List<scalar> 
376
(
1.225
1.225
1.225
1.225
1.225
1.225
1.225
1.22502
1.22592
1.25399
1.69123
1.24898
1.22567
1.22501
1.225
1.225
1.22506
1.22518
1.23227
1.40118
2.19159
2.24803
0.982553
0.291698
0.0843595
0.02663
0.0110671
0.00682217
0.005626
0.00584652
0.00627159
0.00656048
0.00663222
0.00678267
0.00685776
0.00697232
0.00693546
0.00693546
0.00696947
0.00702405
0.0068192
0.0066333
0.00647789
0.00621289
0.00617018
0.00575407
0.00575407
0.00631149
0.00807058
0.0143119
0.0156332
0.0339882
0.127963
0.483292
1.49141
2.33663
1.79072
1.26095
1.22608
1.22502
1.225
1.225
1.22501
1.22502
1.22503
1.22503
1.22502
1.22501
1.225
1.22501
1.22501
1.22501
1.22501
1.225
1.225
1.225
1.225
1.225
1.225
1.225
1.225
1.225
1.225
1.22512
1.225
1.22501
1.22501
1.22501
1.22501
1.22565
1.24844
1.69516
2.5438
2.3129
2.41493
1.51496
1.23681
1.22529
1.22769
1.29961
1.97838
2.42556
1.40278
0.44859
0.131648
0.0391681
0.0137474
0.00695599
0.0048793
0.00422226
0.00491293
0.00565045
0.00605242
0.00602774
0.00620621
0.00629892
0.00636966
0.00633359
0.00633359
0.00633698
0.00634568
0.00620091
0.00599201
0.00587893
0.00565834
0.0056973
0.00575407
0.00575407
0.00498052
0.0058171
0.00803434
0.0133932
0.0454158
0.21286
0.830933
2.08159
2.09793
1.38213
1.23054
1.22513
1.2255
1.22599
1.22622
1.2261
1.22574
1.22532
1.22524
1.22543
1.22552
1.22551
1.22551
1.2251
1.22501
1.225
1.225
1.225
1.225
1.225
1.22501
1.225
1.22502
1.22735
1.22897
1.22521
1.22529
1.22534
1.22534
1.23869
1.567
2.49769
2.3105
1.0943
0.35063
0.109251
0.0343865
0.0126977
0.00665558
0.00472456
0.00396982
0.00360157
0.00457923
0.00499304
0.00532072
0.00541201
0.0054704
0.00545227
0.00545227
0.00539424
0.00534748
0.00524556
0.00504247
0.00496469
0.00474787
0.00450098
0.00368551
0.00433574
0.006333
0.00778098
0.0196436
0.0970084
0.409256
1.39592
2.07536
1.52664
1.24175
1.25295
1.25813
1.25535
1.24736
1.23662
1.23397
1.23916
1.24152
1.24107
1.24107
1.22882
1.22554
1.22505
1.22505
1.22504
1.22503
1.22641
1.22579
1.22688
1.23029
1.23102
1.23102
1.40556
2.33446
2.42309
1.14312
0.401953
0.133293
0.0424135
0.0170797
0.0102043
0.00781952
0.00685329
0.00353651
0.00356297
0.00452501
0.00402214
0.00447514
0.00454711
0.00454372
0.00454372
0.00437563
0.00430404
0.00427381
0.00412747
0.00425513
0.00398549
0.00344004
0.00346178
0.00584423
0.00835143
0.0139329
0.0655896
0.283638
1.04573
2.00845
1.60533
1.63463
1.61696
1.56647
1.47117
1.4349
1.49456
1.51838
1.50679
1.50679
1.3331
1.24382
1.22707
1.22707
1.29083
2.02714
2.48978
1.36434
0.546587
0.203214
0.0854894
0.0854894
0.0102043
0.00781952
0.00685329
0.00614527
0.00614527
0.00419999
0.00353969
0.00360439
0.00359143
0.00362048
0.00363841
0.00363841
0.00348769
0.00343479
0.00342699
0.00336873
0.00330998
0.00338359
0.00366121
0.00476949
0.00476949
0.00584423
0.00835143
0.0580106
0.251537
0.947372
1.97285
1.98178
2.02418
2.06964
2.05611
2.05752
2.05423
2.03384
2.03384
1.9948
1.62287
2.36388
1.70535
0.81066
0.367915
0.367915
0.365183
0.0842788
0.00926182
0.00675082
0.00520414
0.00461196
0.00414039
0.00489972
0.00495496
0.00610358
0.00610358
0.00419376
0.00362803
0.00362803
0.0033425
0.00329055
0.0035312
0.00471241
0.00471241
0.00495496
0.00610358
0.00419376
0.00365648
0.00439096
0.00434996
0.00579012
0.00834326
0.0601542
0.261733
0.980923
1.14904
1.5476
1.67023
1.40193
1.30074
1.30395
1.30395
2.04556
0.407749
0.0950347
0.0101876
0.00730331
0.00938995
0.0726395
0.316765
0.472089
0.542342
0.128938
0.0129648
0.110701
0.00491356
)
;
    }
}


// ************************************************************************* //
