/*--------------------------------*- C++ -*----------------------------------*\
  =========                 |
  \\      /  F ield         | OpenFOAM: The Open Source CFD Toolbox
   \\    /   O peration     | Website:  https://openfoam.org
    \\  /    A nd           | Version:  9
     \\/     M anipulation  |
\*---------------------------------------------------------------------------*/
FoamFile
{
    format      ascii;
    class       volScalarField;
    location    "0.0003";
    object      T;
}
// * * * * * * * * * * * * * * * * * * * * * * * * * * * * * * * * * * * * * //

dimensions      [0 0 0 1 0 0 0];

internalField   nonuniform List<scalar> 
2427
(
312.551
354.82
272.341
261.514
408.68
1042.21
245.114
349.722
254.422
315.24
271.32
300.246
254.761
268.417
305.47
249.339
274.656
268.388
245.572
250.284
246.573
267.017
248.505
264.236
263.249
248.452
253.246
246.651
264.162
236.244
239.077
254.342
252.132
238.046
234.122
269.13
266.256
271.574
270.021
263.539
262.999
264.172
272.011
263.229
271.751
264.542
274.901
259.997
263.697
271.21
262.584
267.523
258.741
269.77
260.908
257.303
268.801
252.528
254.399
248.073
244.105
251.391
252.487
239.95
252.694
311.912
495.82
289.566
247.583
323.22
333.164
244.144
255.297
428.367
279.605
276.965
237.498
311.939
256.987
324.62
278.948
383.948
278.645
269.57
324.426
277.02
561.143
692.357
645.811
350.966
417.423
397.651
274.236
297.824
264.239
291.717
276.336
244.758
324.076
276.261
356.792
588.112
350.803
656.908
1258.85
677.134
1412.09
939.017
257.166
267.765
278.616
249.581
241.559
268.851
274.694
253.065
266.445
264.486
249.503
248.559
252.413
267.909
265.032
283.248
283.948
280.273
271.208
273.226
277.11
243.701
241.504
249.727
254.912
239.088
254.997
255.432
266.966
271.826
275.545
266.205
264.395
268.679
273.398
262.839
267.773
261.844
269.001
261.217
263.579
269.028
269.389
275.891
274.078
277.527
270.389
275.534
273.694
258.202
256.878
251.035
254.444
254.567
260.302
253.985
254.964
245.2
249.731
247.604
251.389
254.156
250.801
261.357
256.723
268.184
260.459
264.717
266.856
254.456
266.332
265.333
271.636
273.859
264.364
272.159
270.268
260.611
267.342
261.1
268.237
262.952
258.694
268.828
275.217
288.537
278.889
280.741
274.489
284.829
287.315
237.548
241.108
241.584
248.59
246.124
233.08
245.732
250.507
265.652
264.003
278.908
260.666
257.184
264.276
557.64
321.823
305.434
477.626
321.929
581.681
475.033
259.647
269.18
278.128
266.483
258.577
266.65
272.218
242.788
251.817
270.847
316.507
239.069
253.862
270.733
248.886
272.467
326.178
298.282
260.353
255.982
278.97
591.887
320.157
373.859
606.759
336.186
507.724
712.232
771.366
397.635
544.083
1140.37
380.982
826.145
1098.94
1135.22
1003.32
1194.9
1294.1
1147.78
992.633
1272.51
811.513
566.325
456.456
1287.26
397.248
1150.18
955.59
1200.84
1216.51
1356.02
1390.76
1056.86
1341.75
1349.42
1304.75
1309.8
1016.97
861.11
1277.11
1394.79
1160.43
1379.19
1564.07
958.716
1261.29
1482.22
1480.44
1252.98
1536.15
1819.08
1530.93
289.107
287.926
287.987
451.761
1446.57
269.81
740.26
1504.09
1993.41
533.588
1482.11
374.863
279.316
306.457
266.31
284.537
328.17
334.428
582.077
314.037
690.954
900.374
367.924
461.387
1144.31
269.499
2051.91
318.216
1783.89
1368.54
2051.2
293.909
694.439
289.835
937.759
466.471
1330.49
517.101
1568.58
287.946
289.512
430.045
872.659
1546.58
1397.41
756.744
330.863
316.946
300.308
270.808
262.973
314.988
265.951
303.393
1086.57
1865.38
2436.27
312.519
1828.42
672.778
2179.33
2057.21
2144.52
1246.62
512.033
2317.42
1509.63
873.406
1557.31
1029.04
1709.22
358.411
287.941
479.524
291.232
330.832
277.593
341.868
289.685
274.253
364.322
315.573
402.4
297.073
773.307
439.478
414.398
294.863
718.726
1005.6
1577
1580.4
288.419
287.931
319.024
288.134
477.688
639.487
853.859
720.109
982.614
1238.39
1348.66
419.964
330.152
454.97
857.802
304.181
478.122
745.934
1466.04
2074.57
1939.63
548.935
345.949
288.029
287.995
863.291
678.973
859.038
390.714
454.863
455.696
396.37
399.332
370.313
320.818
442.158
403.957
639.128
548.751
529.253
694.49
318.345
544.763
350.324
430.12
889.33
1121.41
765.351
932.935
486.109
491.214
571.845
422.792
568.905
594.16
670.905
897.314
1099.36
1269.51
1052.32
402.231
1966.09
2172.97
288.618
452.528
287.926
287.976
944.901
411.83
493.855
936.865
1195.8
615.463
488.172
940.014
869.814
1378.21
1331.58
1400.28
1526.26
1414.43
287.926
1152.46
289.119
2146.29
288.068
1291.36
383.652
1359.39
716.935
1790.81
1777.95
1319.41
691.357
1261.43
606.098
1251.07
1506.84
912.746
1222.71
1540.37
1742.48
394.049
1116.57
994.284
623.396
550.656
940.264
1546.71
1890.71
1555.95
1051.39
900.367
879.723
531.439
1403.29
1391.09
1961.93
1857.35
728.059
1457.51
851.336
1306.41
1036.77
1648.11
1147.38
1801.56
1601.55
1680.08
1839.7
889.008
1630.33
1001.17
2017.54
1597.35
1742.14
2097.49
900.414
1519.07
1588.24
1384.27
1472.04
1629.05
1722.09
475.678
2347.39
2123.23
302.745
287.929
287.943
287.926
1711.62
2030.6
2146.31
957.801
1229.3
736.479
1509.9
814.247
1648.63
1838.77
1800.92
1453.24
1718.22
1044.41
287.926
1789.32
614.711
289.513
1179.61
2162.74
1830.47
1439.58
1331.77
1510.31
1173.03
1605.72
1639.74
1066.18
917.262
529.67
614.874
1066.4
1557.67
1744.6
902.809
1967.4
1295.02
1485.97
653.675
771.34
1179.33
1005.71
1053.7
719.116
859.938
1601.86
1891.07
2044.33
1386.33
1292.74
1457.55
1076.25
1414.03
1463.68
1325.45
1209.04
1745.39
2243.81
1937.41
2084.29
2363.23
2254.8
1946.3
1686.65
1436.31
1679.87
2076.06
2162.5
2107.48
2132.41
1761.23
1801.19
1945.97
2168.86
2085.43
2021.5
2176.83
1942.11
1588.25
1771.01
2087.95
2197.75
2101.83
2155.91
1519.95
1512.37
905.945
1489.55
2307.18
2020.85
2096.87
1691.91
1838.92
1375.25
1807.69
1698.8
1915.56
1858.33
1617.99
1146.19
1592.77
1662.83
463.872
1538.54
803.836
1867.48
2150.08
2096.47
1735.76
1131.63
1609.24
2060.24
1740.14
1652.09
1739.94
1880.79
1988.93
1777.32
1664.97
1883.7
1405.79
1765.77
2019.75
2171.7
1520.92
1967.96
1677.05
1707.79
1576.11
1203.67
1432.65
934.834
559.534
1703.04
1866.38
1263.8
1998.17
2210.55
2206.14
2268.81
737.773
287.927
713.218
287.927
287.927
287.926
287.926
1146.61
675.015
1598.31
1576.56
314.902
1066.12
573.559
2331.75
2304.62
2337.13
1794.22
2256.36
2319.2
1619.61
2279.5
1736.03
2447.38
2348.72
2171.29
2418.04
2224.22
1885.04
1925.61
2145.23
2217.87
769.625
1834.01
1919.19
1411.06
1617.71
409.736
512.248
1666.29
1227.6
1022.1
1096.62
445.191
1278.43
812.582
293.775
605.069
301.68
1945.16
1748.41
1674.55
1757.18
714.918
1761.32
782.073
1644.46
2354.19
2269.2
2335.97
2392.49
2373.08
2479.34
287.926
287.926
347.201
287.926
287.926
287.926
287.926
556.337
1664.3
583.104
1855.37
1749.79
1355.3
1394.29
1441.11
503.511
1394.76
931.409
305.336
934.81
308.188
1001.07
308.6
1242.47
1606.49
343.2
815.567
603.735
1987.87
1841.93
1822.92
1776.75
730.659
1733.6
819.39
2169.47
2353.26
2195.56
1752.41
1619.96
2076.34
1109.25
2317.6
2117.04
2159.73
2189.92
2029.04
1600.9
1888.97
299.223
285.398
375.162
674.662
302.477
436.704
901
1626.86
288.803
291.463
306.072
287.746
279.642
295.047
299.154
291.107
271.636
310.302
367.259
265.4
290.426
387.675
288.133
284.871
308.187
278.197
272.647
311.697
296.117
320.841
321.963
390.127
396.163
318.663
419.145
320.87
308.726
300.516
342.061
638.703
268.758
376.418
457.65
370.275
511.234
536.893
1001.69
353.861
562.568
592.369
575.13
340.863
379.122
436.447
415.161
487.529
331.152
1001.3
424.03
1034.02
1238.72
570.476
699.921
735.938
950.015
300.786
779.853
290.311
459.968
362.004
288.784
1321.13
1550.64
2006.07
555.314
1642.95
1373.29
385.583
287.926
324.183
287.926
287.926
287.926
287.926
287.926
2290.72
911.153
1216.56
499.213
1571.54
1755.94
2199.04
1458.13
463.583
311.372
297.51
1099.93
814.207
407.622
682.641
2323.4
1733.95
2116.52
1962.6
2269.76
2369.58
1400.83
1872.99
489.241
366.73
1482.96
350.548
1771.88
1302.85
1442.37
416.183
309.266
331.49
1093.77
1655.66
1746.83
334.101
1322.91
946.899
341.125
302.192
1411.05
1606.99
415.012
1972.23
2000.8
1262.75
822.072
310.922
2004.64
1122.9
1791.27
1722.79
2126.43
1121.01
407.605
2310.71
1751.44
1969.32
2387.48
2375.85
1891.8
692.205
1411.99
347.686
614.788
288.47
292.314
385.66
305.43
853.478
1922.34
1508.74
839.088
289.344
304.314
377.925
1381.22
310.091
1079.42
295.809
758.871
453.809
289.415
2174.63
1189.74
1709.95
480.206
1485.47
846.942
315.192
1159.91
2300.2
2123.72
700.082
341.58
307.316
1022.74
336.051
291.059
511.644
306.79
287.957
288.125
291.293
1433.63
2472.58
2388.08
1462.5
464.437
351.189
1830.16
792.831
2406.77
2213.34
1243.94
361.829
312.529
1644.02
588.009
292.259
295.773
296.461
300.585
288.073
288.018
295.817
791.611
298.39
298.672
303.202
288.107
288.047
289.322
287.957
290.852
353.778
288.264
317.686
288.678
287.957
287.968
292.113
384.48
288.809
374.278
289.021
614.65
297.281
292.722
288.046
624.33
292.513
299.162
586.199
295.429
290.02
288.045
291.801
484.455
299.693
471.382
367.063
296.094
288.093
289.842
791.247
307.725
1004.24
293.432
703.076
361.371
289.61
288.531
468.246
288.54
450.869
289.81
291.807
289.086
287.968
287.939
456.365
620.629
1588.39
367.15
287.976
289.437
291.201
287.928
287.932
288.523
288.069
300.895
292.81
287.976
292.401
290.365
498.174
356.083
287.94
288.593
289.177
306.895
290.425
541.975
306.72
287.932
288.066
288.827
292.995
1508.52
447.213
342.036
287.967
289.538
289.357
297.462
786.467
1978.7
624.65
288.036
293.011
297.668
352.21
457.832
1564.56
495.838
287.97
289.78
293.33
509.268
290.5
291.083
288.269
288.303
287.961
287.93
287.936
288.274
327.306
295.834
287.927
288.109
287.985
299.553
287.937
288.035
287.942
288.108
287.928
287.926
289.907
288.454
350.963
296.1
287.928
287.986
288.151
339.495
287.932
290.035
289.358
288.593
288.377
437.836
287.966
287.926
287.926
288.955
287.927
287.936
288.082
298.381
287.941
287.933
287.928
288.018
288.105
288.747
292.61
288.356
288.027
287.927
287.961
288.074
301.293
287.971
287.927
288.008
287.927
287.926
287.927
287.926
290.006
287.926
287.946
287.926
287.946
287.926
287.926
288.05
287.928
288.097
287.928
287.926
287.927
287.926
287.926
287.926
287.926
414.736
291.676
287.926
287.926
287.926
287.926
333.512
289.878
289.072
288.31
288.558
287.932
287.944
287.926
287.926
287.926
287.926
287.926
287.926
287.926
288.011
287.927
287.927
287.956
287.973
287.926
287.926
287.926
288.335
287.926
723.731
287.926
287.939
287.926
287.926
287.926
287.926
1593.6
297.733
751.924
310.839
287.93
287.926
287.929
287.926
2066.21
287.926
287.989
1911.03
307.25
290.015
287.929
552.221
297.598
288.414
287.927
287.926
287.926
287.926
287.926
288.183
564.302
1818.49
287.948
302.561
287.926
516.426
790.818
615.911
304.304
310.449
296.53
292.938
821.639
600.812
662.265
303.214
311.6
298.215
294.95
287.926
287.926
287.926
288.827
290.419
287.926
287.926
1979.02
1525.01
1499.31
1787.93
1789.97
678.179
605.006
287.926
287.926
287.926
287.926
288.317
287.926
287.926
353.472
309.351
411.212
289.899
288.054
288.897
288.206
317.638
412.438
445.116
290.496
288.193
288.304
289.676
449.911
355.562
324.082
293.16
290.336
288.789
288.343
287.926
288.032
287.926
287.926
287.947
287.926
287.93
2046.56
833.136
1312.53
1159.37
1648.76
425.194
311.637
1431.45
1634.78
1236.57
319.28
472.976
348.304
380.252
287.926
287.926
287.926
287.926
288.901
287.926
287.926
287.926
287.926
287.926
287.926
287.926
287.94
308.187
288.195
287.932
288.303
288.055
287.927
288.002
287.928
287.926
287.926
287.939
287.926
287.926
287.926
287.926
288.154
287.932
288.309
288.076
287.927
288.02
287.928
859.292
300.623
778.178
288.17
302.374
297.575
288.073
456.703
289.199
407.845
287.996
294.674
292.278
287.967
340.412
289.831
299.223
288.024
288.529
288.04
287.944
392.443
1197.19
816.744
296.397
290.773
288.812
312.423
645.28
296.937
531.614
290.692
288.078
293.082
288.011
367.351
458.533
621.354
291.222
289.476
294.061
287.977
295.8
288.202
292.19
287.931
288.014
287.969
287.929
290.137
287.994
288.084
287.937
287.953
287.928
287.927
291.152
288.103
288.153
287.952
287.963
287.928
287.928
287.926
287.926
287.926
287.926
287.933
287.926
287.951
287.926
325.889
291.442
521.716
290.747
287.93
287.965
288.288
296.197
288.327
332.935
289.251
287.927
287.938
288.118
287.926
287.995
287.937
287.926
287.955
287.931
287.926
298.071
290.245
366.748
288.605
287.928
287.947
288.001
290.062
287.932
288.55
288.227
287.935
287.929
288.853
288.131
288.009
289.13
287.937
287.926
287.928
287.926
287.954
287.927
287.926
287.926
287.94
287.93
287.926
287.96
287.929
287.926
287.926
287.931
287.948
287.926
288.075
287.954
287.931
287.936
287.928
287.926
287.926
288.12
287.995
287.935
287.938
287.928
287.926
287.926
294.532
288.532
288.118
288.083
287.975
287.927
287.931
287.926
287.926
287.926
287.926
287.926
287.926
287.926
287.926
287.928
288.083
288.021
287.926
287.927
287.927
287.996
287.926
287.949
287.928
287.926
287.933
288.142
287.975
287.926
287.927
287.951
287.926
287.926
287.927
296.454
287.927
287.994
287.927
288.033
287.927
287.926
290.12
287.926
287.947
287.926
287.989
287.926
287.926
288.534
287.926
287.95
287.926
287.938
287.926
287.926
287.95
287.926
287.926
287.93
287.926
288.524
287.938
287.929
287.926
287.926
287.938
287.926
288.333
287.937
287.958
287.927
287.926
288.015
287.927
287.974
291.958
287.927
287.926
287.926
288.002
288.033
287.928
287.927
287.926
287.926
287.928
288.046
288.118
287.928
287.927
287.926
287.926
287.927
287.984
287.943
287.926
287.926
287.931
287.928
287.96
287.926
287.926
287.926
287.926
287.926
288.418
287.939
287.926
287.93
287.926
287.926
287.948
287.926
287.926
287.926
287.926
287.926
287.926
287.941
287.926
287.926
287.926
287.926
287.926
287.926
287.927
287.926
287.926
287.947
287.926
287.926
287.926
287.926
287.926
287.926
287.932
287.946
287.926
287.926
287.926
287.926
287.926
287.95
287.929
287.926
287.926
287.926
287.926
287.926
287.958
287.929
287.926
287.926
287.926
287.933
287.949
287.926
287.926
287.926
287.926
287.926
287.952
287.926
287.926
287.926
287.926
287.929
287.927
287.926
287.933
287.927
287.926
287.926
287.926
287.926
287.934
287.93
287.926
287.926
287.926
287.926
287.926
287.935
287.938
287.926
287.926
287.926
287.926
287.927
287.927
287.945
287.926
287.926
287.926
287.926
287.929
287.926
287.936
287.926
287.926
287.926
287.926
287.926
287.926
287.926
287.932
287.926
287.926
287.926
287.926
287.926
287.927
287.926
287.926
287.926
287.926
287.926
287.927
287.926
287.926
287.926
287.926
287.926
287.926
287.926
287.929
287.926
287.926
287.926
287.926
287.93
287.938
287.926
287.926
287.926
287.926
287.926
287.929
287.926
287.926
287.926
287.926
287.926
287.926
287.926
287.926
287.926
287.926
287.927
287.926
287.926
287.926
287.926
287.926
287.926
287.928
287.926
287.926
287.927
287.926
287.926
287.926
287.926
287.926
287.926
287.926
287.926
287.926
287.926
287.926
287.926
287.926
287.926
287.926
287.926
287.926
287.926
287.926
287.926
287.926
287.926
287.926
287.927
287.926
287.926
287.926
309.48
287.995
671.409
292.661
287.929
287.926
287.929
287.926
560.73
454.31
386.054
299.981
294.276
291.052
289.423
293.246
398.111
317.154
288.204
289.624
288.311
287.988
289.83
324.708
305.558
287.986
288.448
288.156
287.949
288.116
287.927
287.926
288.019
287.972
287.947
287.926
288.631
288.366
292.696
287.982
287.926
287.931
287.934
425.501
287.926
287.938
275.243
335.857
299.08
316.159
278.741
378.978
248.268
262.151
278.482
271.947
267.174
265.886
268.736
268.726
273.265
324.822
292.004
328.43
279.975
287.982
315.04
273.068
280.866
293.394
288.017
281.021
270.551
290.202
266.431
323.719
276.754
301.506
258.697
286.839
308.3
261.108
287.822
278.06
252.637
247.229
268.442
287.642
258.254
259.196
245.184
253.98
247.278
263.584
262.125
288.354
291.146
298.155
293.539
286.752
287.878
293.676
273.841
282.467
277.666
270.112
269.441
274.885
282.407
289.408
290.779
281.056
288.128
282.045
285.076
293.221
277.786
268.695
277.087
274.325
268.771
271.957
277.419
285.609
279.947
294.891
287.693
280.473
280.922
291.867
271.1
279.582
268.143
278.072
268.297
268.897
280.319
275.167
278.704
288.341
282.941
278.271
273.454
285.573
264.075
259.487
267.472
269.644
268.494
264.214
257.654
277.71
286.53
280.175
286.635
279.866
278.82
285.906
270.72
275.892
270.178
280.266
270.624
267.603
280.304
262.851
259.36
256.123
257.881
255.564
258.265
264.975
258.837
254.444
256.595
252.164
259.546
250.899
255.378
267.911
271.107
272.058
263.891
271.032
262.214
270.117
275.112
280.801
285.162
284.8
278.533
275.08
284.102
247.816
242.4
248.438
251.024
248.484
238.54
246.131
254.857
265.121
263.074
258.079
256.274
254.785
254.167
259.933
374.242
307.693
280.739
251.891
284.701
312.239
264.141
308.392
334.406
387.683
270.111
291.716
319.842
991.537
287.928
752.841
890.034
823.5
287.937
287.931
287.935
353.918
972.66
341.305
856.069
287.936
287.934
1001.55
915.831
1022.8
351.812
325.52
347.983
330.853
982.054
1035.37
1036.5
351.539
333.74
330.638
353.325
858.801
913.989
984.66
337.895
309.711
326.301
312.663
970.447
744.167
856.037
318.208
337.516
314.132
304.114
847.975
1013.83
900.19
326.535
342.854
317.105
308.388
919.978
847.316
988.842
334.628
301.65
317.721
309.959
371.943
511.811
596.611
295.336
288.665
292.485
289.119
573.322
382.431
628.544
296.186
288.734
293.517
289.218
289.034
288.662
287.937
287.945
288.605
289.088
287.944
289.036
287.944
288.57
287.939
288.984
288.676
287.944
288.689
287.933
288.113
287.931
288.379
288.255
287.938
288.761
287.932
288.266
287.937
288.572
288.307
287.94
288.519
287.941
288.852
288.375
287.93
288.215
287.933
287.94
288.434
288.778
288.345
287.93
288.181
287.933
288.039
287.927
287.936
287.926
287.996
287.927
287.943
287.926
287.927
287.991
288.032
287.926
287.927
287.942
287.926
287.926
287.949
287.931
287.926
287.926
287.926
287.927
287.926
287.933
287.929
287.926
287.926
287.926
1214.13
719.953
1476.39
1497.03
730.02
336.554
627.352
297.745
1083.67
1324.92
1275.59
305.1
684.464
884.665
294.708
1268.03
540.63
335.964
416.645
1540.05
293.472
351.829
1307.26
1422.44
460.434
303.636
307.029
447.44
315.051
447.302
451.987
498.144
365.037
323.488
579.033
334.941
485.984
595.641
555.979
541.893
359.655
316.203
638.773
334.472
481.234
531.141
305.412
320.383
465.41
323.91
546.553
462.38
482.416
519.326
349.008
316.401
543.241
328.302
464.507
829.718
336.051
337.591
510.565
396.156
626.687
650.619
528.295
370.828
766.958
381.396
607.627
347.169
644.331
924.765
1357.99
927.179
1319.69
912.351
926.223
1374.83
761.122
602.366
399.983
1189.75
391.078
802.683
1149.75
981.129
1089.19
1487.51
1410.68
1122.93
956.797
1422.18
1111.67
1378.69
981.578
1350.45
1130.68
962.896
1408.75
1007.92
1457.4
1167.89
1364.93
997.048
1187.9
1408.76
1173.81
937.761
449.986
1307.74
580.965
938.165
1478.01
1162.27
1514.52
1138.37
1435.49
1288.06
1007.56
1467.25
801.714
1343.47
460.686
633.713
937.24
407.159
1203.27
1130.35
887.149
442.247
1237.49
560.972
1373.48
934.901
1075.49
1517.35
1411.3
1500.43
1225.02
1263.94
1457.23
1329.43
1067.08
1276.34
1167.42
1219.71
1217.37
1116.48
1394.07
1194.7
1541.32
1307.56
1391.6
1393.97
1570.89
1448.74
1457.27
1690.54
1252.21
1540.51
1452.68
1627.36
1592.83
1254.48
862.964
1408.96
1583.44
1537.86
1606.5
1445.79
1520.24
585.163
1168.85
1421.98
928.872
1444.85
1371.34
1277.05
425.572
926.898
1221.35
1313.04
807.85
1369.37
667.664
349.626
325.436
1032.37
558.036
1173.46
287.926
287.926
287.926
287.926
287.926
287.926
287.926
287.926
287.926
287.926
287.926
287.926
287.926
287.926
287.926
287.926
287.926
287.926
287.926
287.926
287.926
287.926
287.926
287.926
287.926
287.926
287.926
287.926
287.926
287.926
287.926
287.926
287.926
287.926
287.926
287.926
287.926
287.926
287.926
287.926
287.926
287.926
287.926
287.926
287.926
287.926
287.926
287.926
287.926
287.926
287.927
287.926
287.926
287.926
287.926
287.926
287.926
287.926
287.926
287.926
287.926
287.926
287.926
287.926
287.926
287.926
287.926
287.926
287.926
287.926
287.926
287.926
287.926
287.926
287.926
287.926
287.926
287.926
287.926
287.926
287.926
287.926
287.926
287.926
)
;

boundaryField
{
    ground
    {
        type            zeroGradient;
    }
    outlet
    {
        type            zeroGradient;
    }
    wall
    {
        type            zeroGradient;
    }
    wall2
    {
        type            zeroGradient;
    }
    wall3
    {
        type            zeroGradient;
    }
    internalPatch
    {
        type            internal;
    }
    procBoundary2to0
    {
        type            processor;
        value           nonuniform List<scalar> 
384
(
287.926
287.926
287.926
287.926
287.926
287.926
287.926
287.926
287.926
287.926
287.926
287.926
287.926
287.926
287.926
287.926
287.926
287.926
287.926
287.926
287.926
287.926
287.926
287.926
287.926
287.926
287.926
287.926
287.926
287.926
287.926
287.926
287.926
287.926
287.926
287.926
287.929
288.174
288.174
287.929
287.926
287.926
287.926
287.926
287.926
287.926
287.926
287.926
287.926
287.926
287.926
287.926
287.926
287.926
287.926
287.926
287.926
287.926
287.926
287.926
287.926
287.926
287.927
287.94
288.053
288.486
289.32
290.308
291.231
289.748
288.431
287.996
287.932
287.927
287.926
287.926
287.926
287.926
287.926
287.926
287.926
287.926
287.926
287.926
287.926
287.926
287.926
287.926
287.926
287.926
287.926
287.926
287.926
287.926
287.926
287.926
287.926
287.926
287.926
287.926
287.926
287.926
287.926
287.926
287.926
287.926
287.926
287.926
287.926
287.926
287.926
287.926
287.926
287.926
287.926
287.926
287.926
287.926
287.926
287.926
287.926
287.926
287.926
287.928
288.071
288.071
287.927
287.926
287.926
287.926
287.926
287.926
287.926
287.926
287.926
287.926
287.926
287.926
287.926
287.926
287.926
287.926
287.926
287.926
287.926
287.926
287.926
287.926
287.926
287.926
287.926
287.926
287.931
287.971
288.123
288.361
288.573
288.74
288.381
288.057
287.943
287.927
287.926
287.926
287.926
287.926
287.926
287.926
287.926
287.926
287.926
287.926
287.926
287.926
287.926
287.926
287.926
287.926
287.926
287.926
287.926
287.926
287.926
287.926
287.926
287.926
287.926
287.926
287.926
287.926
287.926
287.926
287.926
287.926
287.926
287.926
287.926
287.926
287.926
287.926
287.926
287.926
287.926
287.926
287.926
287.926
287.926
287.926
287.926
287.926
287.926
287.926
287.963
287.963
287.926
287.926
287.926
287.926
287.926
287.926
287.926
287.926
287.926
287.926
287.926
287.926
287.926
287.926
287.926
287.926
287.926
287.926
287.926
287.926
287.926
287.926
287.926
287.926
287.926
287.926
287.926
287.93
287.945
287.963
287.97
287.972
287.95
287.932
287.926
287.926
287.926
287.926
287.926
287.926
287.926
287.926
287.926
287.926
287.926
287.926
287.926
287.926
287.926
287.926
287.926
287.926
287.926
287.926
287.926
287.926
287.926
287.926
287.926
287.926
287.926
287.926
287.926
287.926
287.926
287.926
287.926
287.926
287.926
287.926
287.926
287.926
287.926
287.926
287.93
287.93
287.926
287.926
287.926
287.926
287.926
287.926
287.926
287.926
287.926
287.926
287.926
287.926
287.926
287.926
287.926
287.926
287.926
287.926
287.926
287.926
287.926
287.926
287.926
287.926
287.926
287.926
287.926
287.926
287.927
287.927
287.927
287.926
287.926
287.926
287.926
287.926
287.926
287.926
287.926
287.926
287.926
287.926
287.926
287.926
287.926
287.926
287.926
287.926
287.926
287.926
287.926
287.926
287.926
287.926
287.926
287.926
287.926
287.926
287.926
287.926
287.926
287.926
287.926
287.926
287.926
287.926
287.926
287.926
287.926
287.926
287.926
287.926
287.926
287.926
287.926
287.926
287.926
287.926
287.926
287.926
287.926
287.926
287.926
287.926
287.926
287.926
287.926
287.926
287.926
287.926
287.926
287.926
287.926
287.926
)
;
    }
    procBoundary2to3
    {
        type            processor;
        value           nonuniform List<scalar> 
376
(
287.926
287.926
287.926
287.926
287.926
287.926
287.926
287.929
288.161
306.117
853.905
302.601
288.085
287.928
287.926
287.926
287.935
287.958
291.113
536.033
1892.64
2285.96
1646.4
839.608
493.111
372.713
327.358
314.024
308.068
303.74
296.419
293.984
288.015
284.378
282.028
281.832
279.689
279.689
285.002
289.04
288.747
290.623
294.101
296.212
300.93
297.473
297.473
295.91
296.667
347.006
339.948
365.989
516.756
940.189
1566.85
1753.29
1024.95
312.991
288.191
287.929
287.926
287.926
287.927
287.929
287.93
287.929
287.928
287.926
287.926
287.927
287.927
287.927
287.927
287.926
287.926
287.926
287.926
287.926
287.926
287.926
287.926
287.926
287.926
287.948
287.926
287.927
287.927
287.928
287.928
288.078
301.372
824.388
1880.46
2107.84
1867.38
667.446
293.812
287.983
288.769
367.025
1501.8
2223.6
1868.97
1040.85
570.432
391.213
322.906
302.572
296.07
287.923
291.906
292.163
291.832
283.396
279.667
276.628
275.021
272.291
272.291
277.757
282.327
283.703
285.182
288.795
290.958
296.835
297.473
297.473
286.94
285.306
285.461
282.253
349.058
593.583
1200.07
1657.98
1375.76
434.097
289.853
287.948
288.025
288.137
288.188
288.16
288.077
287.984
287.968
288.006
288.023
288.021
288.021
287.94
287.927
287.926
287.926
287.926
287.926
287.926
287.928
287.926
287.928
288.632
289.228
287.967
287.985
287.997
287.997
294.428
656.075
1739.52
1979.25
1551.87
858.804
498.905
354.039
298.461
282.851
279.397
275.841
272.386
281.293
275.41
274.674
270.753
267.281
263.782
263.782
269.59
275.506
278.387
279.207
282.654
283.388
287.12
280.898
283.316
275.278
270.35
300.225
424.075
845.056
1485.07
1521.25
656.855
296.091
303.596
306.444
304.614
299.332
292.789
291.391
294
295.111
294.864
294.864
289.028
288.034
287.932
287.932
287.932
287.93
288.283
288.111
288.42
289.775
290.098
290.098
454.985
1492.65
1877.96
1479.79
876.973
524.983
367.365
308.082
285.403
275.013
264.471
259.946
271.917
278.051
274.501
268.799
262.937
257.934
257.934
263.557
270.188
274.955
276.916
285.574
283.509
279.456
270.045
273.382
281.824
290.329
381.126
698.681
1364.49
1541.72
796.175
823.52
798.738
713.787
558.114
499.227
580.762
604.684
595.585
595.585
369.231
297.105
288.479
288.479
334.311
1144.11
1780.26
1520.51
1007.49
618.183
421.843
421.843
285.403
275.013
264.471
249.667
249.667
251.518
255.276
256.629
263.284
256.681
250.628
250.628
257.086
264.05
269.549
272.311
268.103
270.66
267.466
262.382
262.382
273.382
281.824
375.951
661.711
1321.21
1529.38
1539.06
1548.53
1504.26
1440.22
1461.52
1447.01
1423.11
1423.11
1198.59
698.105
1597.36
1581.04
1206.05
814.745
814.745
840.337
437.691
297.122
286.597
273.13
265.86
260.968
254.573
250.48
244.466
244.466
248.118
251.476
251.476
254.796
262.545
258.653
257.855
257.855
250.48
244.466
248.118
250.765
268.527
273.162
283.335
291.453
392.372
699.555
1360.14
1459.73
1607.64
1613
1507.25
1444.02
1417.11
1417.11
1599.43
919.489
469.097
304.507
292.875
300.931
426.197
804.655
1027.7
1089.36
542.16
316.336
507.736
280.368
)
;
    }
}


// ************************************************************************* //
