/*--------------------------------*- C++ -*----------------------------------*\
  =========                 |
  \\      /  F ield         | OpenFOAM: The Open Source CFD Toolbox
   \\    /   O peration     | Website:  https://openfoam.org
    \\  /    A nd           | Version:  9
     \\/     M anipulation  |
\*---------------------------------------------------------------------------*/
FoamFile
{
    format      ascii;
    class       volScalarField;
    location    "0.00025";
    object      alpha.c4;
}
// * * * * * * * * * * * * * * * * * * * * * * * * * * * * * * * * * * * * * //

dimensions      [0 0 0 0 0 0 0];

internalField   nonuniform List<scalar> 
4631
(
5.75577e-22
1.9063e-20
3.35238e-34
1.73106e-31
8.64592e-29
4.079e-26
1.76392e-23
3.61998e-34
1.58331e-31
7.04294e-29
3.16329e-26
1.38598e-23
2.8541e-35
1.16189e-32
4.39789e-30
1.5216e-27
4.73062e-25
6.51857e-21
1.75201e-18
5.3886e-21
1.53973e-18
1.28983e-22
2.99803e-20
1.48736e-16
6.18503e-09
1.49777e-16
1.21207e-07
8.65482e-18
3.42384e-15
5.29738e-08
1.1792e-13
1.07858e-13
1.55687e-10
8.41243e-14
7.54281e-13
2.76588e-08
1.12828e-13
2.3018e-10
1.23885e-13
2.85816e-11
1.08734e-13
9.2084e-08
1.21735e-13
1.27213e-66
5.13673e-64
1.94918e-61
6.88504e-59
2.24216e-56
6.6505e-54
1.77019e-51
4.15392e-49
8.41755e-47
1.43791e-44
4.18146e-64
1.71554e-61
6.61819e-59
2.37533e-56
7.84699e-54
2.35541e-51
6.32729e-49
1.49485e-46
3.04569e-44
5.23482e-42
1.27126e-61
5.30676e-59
2.08195e-56
7.58674e-54
2.53844e-51
7.69535e-49
2.08225e-46
4.94732e-44
1.01419e-41
1.76069e-39
3.53234e-59
1.50101e-56
5.98494e-54
2.21104e-51
7.4778e-49
2.28485e-46
6.21919e-44
1.48656e-41
3.07719e-39
5.44539e-37
8.85842e-57
3.83016e-54
1.55002e-51
5.79408e-49
1.9767e-46
6.07814e-44
1.66413e-41
4.01347e-39
8.46019e-37
1.55286e-34
1.97161e-54
8.66454e-52
3.55264e-49
1.3411e-46
4.60747e-44
1.42498e-41
3.93227e-39
9.63606e-37
2.10123e-34
4.1169e-32
3.80854e-52
1.6988e-49
7.045e-47
2.68111e-44
9.26689e-42
2.88548e-39
8.06591e-37
2.03389e-34
4.70512e-32
1.02511e-29
6.19373e-50
2.80032e-47
1.17273e-44
4.49317e-42
1.56212e-39
4.91043e-37
1.40262e-34
3.71156e-32
9.43859e-30
2.39902e-27
1.70851e-66
6.42038e-64
2.26635e-61
7.47091e-59
2.28594e-56
6.42991e-54
1.63978e-51
3.72335e-49
7.3633e-47
1.23752e-44
5.573e-64
2.11644e-61
7.57439e-59
2.5376e-56
7.89982e-54
2.25999e-51
5.85345e-49
1.34768e-46
2.70196e-44
4.62152e-42
1.6692e-61
6.42024e-59
2.33315e-56
7.94831e-54
2.51595e-51
7.30914e-49
1.91909e-46
4.47506e-44
9.10361e-42
1.59157e-39
4.53318e-59
1.76875e-56
6.53145e-54
2.26162e-51
7.26906e-49
2.14062e-46
5.69013e-44
1.34445e-41
2.78552e-39
5.02008e-37
1.10168e-56
4.36389e-54
1.63702e-51
5.75444e-49
1.87471e-46
5.58811e-44
1.50398e-41
3.61232e-39
7.68684e-37
1.44948e-34
2.3537e-54
9.4641e-52
3.60263e-49
1.28342e-46
4.23152e-44
1.27641e-41
3.48759e-39
8.58285e-37
1.90562e-34
3.85489e-32
4.31556e-52
1.75984e-49
6.7868e-47
2.44612e-44
8.15653e-42
2.49459e-39
6.96764e-37
1.7836e-34
4.24367e-32
9.58583e-30
6.56803e-50
2.71215e-47
1.05767e-44
3.8521e-42
1.30022e-39
4.05322e-37
1.17247e-34
3.2016e-32
8.50671e-30
2.26739e-27
1.22549e-67
4.67199e-65
1.67372e-62
5.59821e-60
1.73626e-57
4.93981e-55
1.2717e-52
2.91604e-50
5.83131e-48
9.89652e-46
4.0296e-65
1.55193e-62
5.6322e-60
1.91224e-57
6.02539e-55
1.74138e-52
4.5532e-50
1.06003e-47
2.15302e-45
3.72201e-43
1.21456e-62
4.73319e-60
1.74187e-57
6.00373e-55
1.92041e-52
5.63067e-50
1.49367e-47
3.52992e-45
7.29616e-43
1.29185e-40
3.31188e-60
1.30734e-57
4.87997e-55
1.70644e-52
5.53353e-50
1.64451e-47
4.42592e-45
1.06397e-42
2.25084e-40
4.12562e-38
8.05877e-58
3.22322e-55
1.21967e-52
4.32146e-50
1.41882e-47
4.27442e-45
1.16969e-42
2.87729e-40
6.30118e-38
1.21617e-35
1.71813e-55
6.95908e-53
2.66594e-50
9.55398e-48
3.17572e-45
9.71988e-43
2.72073e-40
6.92987e-38
1.6003e-35
3.32388e-33
3.13097e-53
1.2824e-50
4.96299e-48
1.79727e-45
6.06006e-43
1.89541e-40
5.49213e-38
1.47653e-35
3.68159e-33
8.3878e-31
4.71129e-51
1.94623e-48
7.59198e-46
2.78171e-43
9.56402e-41
3.09204e-38
9.45462e-36
2.74939e-33
7.55515e-31
1.89904e-28
1.73733e-69
6.67883e-67
2.41244e-64
8.13589e-62
2.545e-59
7.31208e-57
1.90386e-54
4.41571e-52
8.92407e-50
1.52721e-47
5.73614e-67
2.22621e-64
8.13985e-62
2.78407e-59
8.83999e-57
2.57768e-54
6.80598e-52
1.59905e-49
3.27146e-47
5.67116e-45
1.73402e-64
6.80445e-62
2.52068e-59
8.74446e-57
2.81637e-54
8.32436e-52
2.22595e-49
5.29405e-47
1.09721e-44
1.93288e-42
4.73646e-62
1.88103e-59
7.0616e-57
2.48345e-54
8.10469e-52
2.42546e-49
6.56496e-47
1.58196e-44
3.33305e-42
6.01119e-40
1.15302e-59
4.63569e-57
1.76292e-54
6.27917e-52
2.07415e-49
6.28187e-47
1.72281e-44
4.22172e-42
9.1136e-40
1.70535e-37
2.45637e-57
9.99442e-55
3.84665e-52
1.38608e-49
4.63177e-47
1.42107e-44
3.96365e-42
9.95797e-40
2.23387e-37
4.42395e-35
4.46878e-55
1.83841e-52
7.15233e-50
2.60525e-47
8.81356e-45
2.7491e-42
7.86196e-40
2.05449e-37
4.89013e-35
1.04826e-32
6.71174e-53
2.78791e-50
1.09511e-47
4.03328e-45
1.38554e-42
4.42734e-40
1.31675e-37
3.65501e-35
9.44633e-33
2.2243e-30
1.60109e-71
6.17844e-69
2.23883e-66
7.57117e-64
2.37447e-61
6.84128e-59
1.78725e-56
4.16112e-54
8.44349e-52
1.45033e-49
5.29427e-69
2.06078e-66
7.55262e-64
2.58826e-61
8.23372e-59
2.40612e-56
6.36958e-54
1.50065e-51
3.07721e-49
5.33799e-47
1.60141e-66
6.29728e-64
2.3364e-61
8.1154e-59
2.61715e-56
7.74766e-54
2.07523e-51
4.94126e-49
1.02353e-46
1.79513e-44
4.37307e-64
1.73897e-61
6.53389e-59
2.29946e-56
7.51002e-54
2.2493e-51
6.08944e-49
1.46504e-46
3.06978e-44
5.46533e-42
1.06343e-61
4.27812e-59
1.62743e-56
5.79795e-54
1.91548e-51
5.79849e-49
1.58642e-46
3.8624e-44
8.2221e-42
1.49852e-39
2.26162e-59
9.20292e-57
3.54171e-54
1.27589e-51
4.25972e-49
1.30315e-46
3.60875e-44
8.93135e-42
1.94887e-39
3.68942e-37
4.10572e-57
1.68868e-54
6.56735e-52
2.38983e-49
8.06087e-47
2.49576e-44
7.02693e-42
1.78402e-39
4.0514e-37
8.13396e-35
6.1529e-55
2.55502e-52
1.00293e-49
3.68451e-47
1.25693e-44
3.95464e-42
1.14208e-39
3.02001e-37
7.29069e-35
1.58672e-32
1.09196e-73
4.21814e-71
1.52853e-68
5.16494e-66
1.61777e-63
4.65511e-61
1.2151e-58
2.82867e-56
5.74377e-54
9.87967e-52
3.61083e-71
1.40546e-68
5.14581e-66
1.76056e-63
5.59022e-61
1.63095e-58
4.31292e-56
1.01569e-53
2.08288e-51
3.61318e-49
1.09129e-68
4.28683e-66
1.58755e-63
5.50183e-61
1.77034e-58
5.23112e-56
1.3993e-53
3.32841e-51
6.88547e-49
1.20434e-46
2.97522e-66
1.18084e-63
4.4257e-61
1.55339e-58
5.06088e-56
1.51258e-53
4.08706e-51
9.80927e-49
2.04696e-46
3.61578e-44
7.21879e-64
2.8965e-61
1.09861e-58
3.90257e-56
1.28582e-53
3.88206e-51
1.05859e-48
2.56376e-46
5.4063e-44
9.68742e-42
1.53113e-61
6.21112e-59
2.38266e-56
8.55663e-54
2.84759e-51
8.67682e-49
2.38804e-46
5.84703e-44
1.25193e-41
2.29607e-39
2.7716e-59
1.13609e-56
4.40329e-54
1.59666e-51
5.36187e-49
1.64894e-46
4.58886e-44
1.14145e-41
2.5049e-39
4.77348e-37
4.14162e-57
1.71377e-54
6.7025e-52
2.45122e-49
8.30431e-47
2.58146e-44
7.29774e-42
1.86142e-39
4.25163e-37
8.59525e-35
5.91694e-76
2.2846e-73
8.26341e-71
2.78378e-68
8.68617e-66
2.48933e-63
6.47372e-61
1.50275e-58
3.04621e-56
5.23754e-54
1.95524e-73
7.59702e-71
2.77293e-68
9.44888e-66
2.98685e-63
8.67644e-61
2.28598e-58
5.36893e-56
1.0992e-53
1.90541e-51
5.89971e-71
2.31061e-68
8.52175e-66
2.9393e-63
9.41237e-61
2.76915e-58
7.38117e-56
1.75106e-53
3.61522e-51
6.31156e-49
1.60456e-68
6.34255e-66
2.36555e-63
8.26012e-61
2.67798e-58
7.96992e-56
2.14595e-53
5.13487e-51
1.06809e-48
1.87814e-46
3.88129e-66
1.54972e-63
5.84643e-61
2.06582e-58
6.77362e-56
2.03637e-53
5.53121e-51
1.33379e-48
2.79566e-46
4.96043e-44
8.20396e-64
3.30978e-61
1.26258e-58
4.51021e-56
1.4937e-53
4.53022e-51
1.24027e-48
3.0147e-46
6.38002e-44
1.14767e-41
1.4797e-61
6.0303e-59
2.32409e-56
8.38249e-54
2.80024e-51
8.56024e-49
2.36263e-46
5.80037e-44
1.24554e-41
2.29232e-39
2.20345e-59
9.06399e-57
3.52488e-54
1.28184e-51
4.31465e-49
1.32934e-46
3.70537e-44
9.23263e-42
2.03053e-39
3.88117e-37
2.66387e-78
1.02747e-75
3.70621e-73
1.24324e-70
3.85835e-68
1.09917e-65
2.84188e-63
6.56359e-61
1.3255e-58
2.27421e-56
8.79551e-76
3.40873e-73
1.23897e-70
4.1986e-68
1.31888e-65
3.80677e-63
9.97149e-61
2.3309e-58
4.75634e-56
8.22993e-54
2.6491e-73
1.03335e-70
3.79024e-68
1.29889e-65
4.13122e-63
1.20763e-60
3.20124e-58
7.56189e-56
1.5565e-53
2.71208e-51
7.18521e-71
2.82506e-68
1.04682e-65
3.62965e-63
1.16864e-60
3.45654e-58
9.25943e-56
2.20672e-53
4.57534e-51
8.02113e-49
1.73203e-68
6.87138e-66
2.57373e-63
9.02823e-61
2.94032e-58
8.78795e-56
2.37534e-53
5.70346e-51
1.19021e-48
2.09985e-46
3.64662e-66
1.46061e-63
5.53002e-61
1.96121e-58
6.45305e-56
1.94606e-53
5.30034e-51
1.28122e-48
2.69175e-46
4.78852e-44
6.55002e-64
2.64892e-61
1.01319e-58
3.62869e-56
1.2045e-53
3.66012e-51
1.00365e-48
2.44295e-46
5.17768e-44
9.33193e-42
9.71425e-62
3.96474e-59
1.53037e-56
5.52686e-54
1.84799e-51
5.6523e-49
1.56049e-46
3.83198e-44
8.23261e-42
1.51688e-39
1.02726e-80
3.95842e-78
1.42381e-75
4.75394e-73
1.4663e-70
4.14755e-68
1.06446e-65
2.44173e-63
4.90348e-61
8.381e-59
3.39015e-78
1.31045e-75
4.74162e-73
1.59689e-70
4.97932e-68
1.42597e-65
3.70706e-63
8.60885e-61
1.74786e-58
3.01469e-56
1.01948e-75
3.95983e-73
1.44364e-70
4.91051e-68
1.54912e-65
4.49178e-63
1.18201e-60
2.77536e-58
5.68752e-56
9.88283e-54
2.75804e-73
1.0781e-70
3.9655e-68
1.36354e-65
4.35294e-63
1.27727e-60
3.39829e-58
8.05511e-56
1.66347e-53
2.90808e-51
6.62563e-71
2.60968e-68
9.69334e-66
3.3704e-63
1.08839e-60
3.22849e-58
8.6718e-56
2.07177e-53
4.30565e-51
7.56729e-49
1.3893e-68
5.51873e-66
2.07076e-63
7.27863e-61
2.37538e-58
7.11303e-56
1.92585e-53
4.6311e-51
9.67852e-49
1.71057e-46
2.48447e-66
9.95707e-64
3.77349e-61
1.33969e-58
4.41244e-56
1.33174e-53
3.62934e-51
8.77731e-49
1.84511e-46
3.28572e-44
3.66836e-64
1.48313e-61
5.67256e-59
2.03144e-56
6.74141e-54
2.04752e-51
5.61083e-49
1.36476e-46
2.89105e-44
5.21116e-42
3.47809e-83
1.33978e-80
4.80781e-78
1.59826e-75
4.89903e-73
1.37521e-70
3.50025e-68
7.96382e-66
1.58786e-63
2.69923e-61
1.14806e-80
4.42871e-78
1.59576e-75
5.34117e-73
1.65254e-70
4.69137e-68
1.20885e-65
2.78451e-63
5.61557e-61
9.63986e-59
3.44921e-78
1.33461e-75
4.83672e-73
1.63248e-70
5.104e-68
1.46614e-65
3.82388e-63
8.90945e-61
1.81486e-58
3.14095e-56
9.31245e-76
3.61989e-73
1.32143e-70
4.50293e-68
1.42361e-65
4.13768e-63
1.09148e-60
2.56899e-58
5.2773e-56
9.19369e-54
2.23043e-73
8.72192e-71
3.21086e-68
1.10544e-65
3.53424e-63
1.03868e-60
2.76782e-58
6.57065e-56
1.35902e-53
2.38016e-51
4.65922e-71
1.83486e-68
6.81693e-66
2.37152e-63
7.66339e-61
2.27476e-58
6.114e-56
1.46158e-53
3.03967e-51
5.34803e-49
8.29608e-69
3.2926e-66
1.23478e-63
4.33868e-61
1.41552e-58
4.23743e-56
1.14686e-53
2.75685e-51
5.76037e-49
1.01838e-46
1.21938e-66
4.87862e-64
1.8461e-61
6.54496e-59
2.15258e-56
6.48704e-54
1.76512e-51
4.26224e-49
8.94804e-47
1.59233e-44
1.52357e-22
3.7858e-20
6.60533e-18
2.73674e-20
6.42889e-18
1.32776e-14
1.59145e-22
4.16029e-20
7.75554e-18
3.05208e-20
7.41616e-18
4.86336e-15
8.2251e-24
1.4062e-21
1.5341e-19
1.18027e-21
2.04736e-19
4.22462e-17
8.64232e-26
1.41986e-23
1.54289e-21
1.20948e-23
2.02572e-21
2.39264e-19
5.38791e-28
8.58631e-26
9.16941e-24
7.29018e-26
1.19422e-23
1.27525e-21
2.46835e-30
3.73555e-28
3.89007e-26
3.13858e-28
4.99316e-26
5.24357e-24
9.43282e-33
1.32974e-30
1.32765e-28
1.10023e-30
1.66237e-28
1.71643e-26
3.21906e-35
4.20785e-33
3.97384e-31
3.42083e-33
4.81712e-31
4.80542e-29
1.00703e-37
1.23505e-35
1.10226e-33
9.87409e-36
1.29086e-33
1.22624e-31
2.90429e-40
3.406e-38
2.90398e-36
2.68679e-38
3.29834e-36
2.97488e-34
2.01289e-42
2.23186e-40
1.87139e-38
7.40121e-40
8.34539e-38
7.1516e-36
2.53607e-37
2.9489e-35
2.6203e-33
8.12883e-35
9.99583e-33
9.44288e-31
2.47364e-32
3.34398e-30
3.48083e-28
7.3025e-30
1.13854e-27
1.35344e-25
2.12834e-27
3.97261e-25
5.4581e-23
6.04062e-25
1.34104e-22
2.16303e-20
1.7281e-42
1.9879e-40
1.92873e-38
6.64728e-40
8.06986e-38
8.50036e-36
2.37748e-37
3.06727e-35
3.47309e-33
7.88318e-35
1.0883e-32
1.30581e-30
2.43818e-32
3.64823e-30
4.59721e-28
7.16992e-30
1.19922e-27
1.60658e-25
2.07312e-27
4.06489e-25
5.96836e-23
5.98951e-25
1.39566e-22
2.35943e-20
1.37798e-43
1.51134e-41
1.24639e-39
5.32052e-41
6.08308e-39
5.33946e-37
1.91441e-38
2.30659e-36
2.15996e-34
6.43203e-36
8.26287e-34
8.22613e-32
2.03149e-33
2.80867e-31
2.9355e-29
6.04384e-31
9.00019e-29
9.69868e-27
1.66816e-28
2.64974e-26
2.89441e-24
4.09031e-26
6.81381e-24
7.43713e-22
2.13036e-45
2.29632e-43
1.76273e-41
8.03956e-43
8.87313e-41
7.07216e-39
2.80368e-40
3.20264e-38
2.68141e-36
9.03128e-38
1.08429e-35
9.6441e-34
2.70234e-35
3.46953e-33
3.29581e-31
7.54894e-33
1.04874e-30
1.05784e-28
1.95354e-30
2.92946e-28
3.0855e-26
4.51542e-28
7.17795e-26
7.72775e-24
2.02718e-47
2.17718e-45
1.63766e-43
7.54039e-45
8.20978e-43
6.30228e-41
2.57191e-42
2.85789e-40
2.26071e-38
8.00295e-40
9.18333e-38
7.58849e-36
2.27301e-37
2.7401e-35
2.4012e-33
5.91091e-35
7.63069e-33
7.16082e-31
1.40589e-32
1.96722e-30
1.96968e-28
2.99571e-30
4.52209e-28
4.74019e-26
1.38316e-49
1.4866e-47
1.11432e-45
5.09834e-47
5.52648e-45
4.18911e-43
1.71494e-44
1.88117e-42
1.45022e-40
5.21671e-42
5.83185e-40
4.61807e-38
1.42774e-39
1.64685e-37
1.35935e-35
3.50563e-37
4.24783e-35
3.71659e-33
7.70184e-35
9.99796e-33
9.37324e-31
1.4963e-32
2.10446e-30
2.10361e-28
7.33913e-52
7.90406e-50
5.94123e-48
2.68807e-49
2.91278e-47
2.20403e-45
8.96341e-47
9.78398e-45
7.47325e-43
2.68921e-44
2.96755e-42
2.30151e-40
7.19149e-42
8.08203e-40
6.43021e-38
1.699e-39
1.9694e-37
1.63216e-35
3.5149e-37
4.27951e-35
3.75843e-33
6.28677e-35
8.196e-33
7.70467e-31
3.18607e-54
3.43839e-52
2.59812e-50
1.16067e-51
1.25921e-49
9.55825e-48
3.84677e-49
4.19496e-47
3.20197e-45
1.14431e-46
1.2561e-44
9.66978e-43
3.01831e-44
3.34763e-42
2.61513e-40
6.96553e-42
7.86514e-40
6.30175e-38
1.38552e-39
1.61331e-37
1.3466e-35
2.33129e-37
2.85017e-35
2.52029e-33
1.17232e-56
1.26691e-54
9.63029e-53
4.24689e-54
4.61373e-52
3.52031e-50
1.40019e-51
1.5279e-49
1.1702e-47
4.1405e-49
4.53868e-47
3.49368e-45
1.08298e-46
1.19439e-44
9.27084e-43
2.46517e-44
2.74628e-42
2.16353e-40
4.78947e-42
5.43124e-40
4.39108e-38
7.748e-40
9.0586e-38
7.63458e-36
3.76424e-59
4.06911e-57
3.11063e-55
1.35484e-56
1.47294e-54
1.13016e-52
4.44199e-54
4.85102e-52
3.73389e-50
1.30668e-51
1.43254e-49
1.10645e-47
3.39747e-49
3.74012e-47
2.90331e-45
7.66889e-47
8.49174e-45
6.64928e-43
1.46967e-44
1.64354e-42
1.30722e-40
2.32261e-42
2.64343e-40
2.16019e-38
6.47177e-37
8.37945e-37
6.64808e-38
9.24693e-40
4.01251e-37
1.65179e-34
6.31355e-32
2.18444e-29
6.65567e-27
8.11235e-48
3.71256e-45
1.56718e-42
6.03611e-40
2.11133e-37
6.72926e-35
1.98932e-32
5.6765e-30
1.65544e-27
5.07571e-25
7.9552e-46
3.67518e-43
1.55834e-40
6.01578e-38
2.11662e-35
6.88016e-33
2.14167e-30
6.80518e-28
2.33964e-25
8.42996e-23
5.05047e-44
2.3343e-41
9.83814e-39
3.78142e-36
1.34052e-33
4.49561e-31
1.50647e-28
5.40826e-26
1.21589e-42
5.54918e-40
2.36051e-37
9.38079e-35
3.54102e-32
1.3068e-29
4.87504e-27
1.8597e-24
2.6174e-42
1.28095e-39
7.90793e-48
3.30004e-45
1.29893e-42
4.7782e-40
1.63745e-37
5.25354e-35
1.60762e-32
4.86408e-30
1.52219e-27
4.99699e-25
6.9905e-46
2.94045e-43
1.16556e-40
4.3298e-38
1.51377e-35
5.07295e-33
1.69398e-30
5.95184e-28
2.26978e-25
8.87957e-23
3.98219e-44
1.68101e-41
6.68088e-39
2.5014e-36
8.96953e-34
3.20242e-31
1.20833e-28
5.02104e-26
1.10995e-42
4.66285e-40
1.8446e-37
6.94859e-35
2.57944e-32
9.99297e-30
4.19714e-27
1.84875e-24
4.36027e-42
1.93414e-39
5.56534e-49
2.31008e-46
9.08176e-44
3.37958e-41
1.1967e-38
4.0718e-36
1.34566e-33
4.32041e-31
1.31527e-28
3.60276e-26
4.77214e-47
1.98642e-44
7.88191e-42
2.99889e-39
1.10911e-36
4.05255e-34
1.47341e-31
5.23731e-29
1.73788e-26
5.04122e-24
2.61769e-45
1.09261e-42
4.38084e-40
1.71046e-37
6.64732e-35
2.61751e-32
1.03801e-29
3.98035e-27
7.40652e-44
3.11767e-41
1.24698e-38
4.81493e-36
1.84833e-33
7.22509e-31
2.84835e-28
1.06875e-25
3.20923e-43
1.48797e-40
7.92487e-51
3.31825e-48
1.31527e-45
4.90761e-43
1.7229e-40
5.71291e-38
1.80254e-35
5.43559e-33
1.54724e-30
3.98723e-28
6.81927e-49
2.87419e-46
1.15001e-43
4.36407e-41
1.58075e-38
5.5282e-36
1.88629e-33
6.25221e-31
1.9487e-28
5.37408e-26
3.75617e-47
1.59284e-44
6.43508e-42
2.48966e-39
9.35823e-37
3.47662e-34
1.28408e-31
4.61302e-29
1.02339e-45
4.39703e-43
1.78897e-40
6.94045e-38
2.61867e-35
9.8064e-33
3.65488e-30
1.31347e-27
4.36799e-45
2.04634e-42
7.25143e-53
3.03601e-50
1.20166e-47
4.45846e-45
1.54312e-42
4.97214e-40
1.49389e-37
4.19945e-35
1.1011e-32
2.62853e-30
6.23278e-51
2.62744e-48
1.04795e-45
3.93259e-43
1.38843e-40
4.63336e-38
1.47362e-35
4.48681e-33
1.29007e-30
3.35142e-28
3.42756e-49
1.45371e-46
5.83914e-44
2.21859e-41
8.02455e-39
2.7962e-36
9.49693e-34
3.13505e-31
9.22637e-48
3.95551e-45
1.60154e-42
6.13181e-40
2.2419e-37
7.95021e-35
2.76355e-32
9.32395e-30
3.69582e-47
1.723e-44
7.74202e-42
3.34055e-39
1.3708e-36
5.25221e-34
1.83343e-31
5.66427e-29
4.8684e-55
2.03092e-52
8.00397e-50
2.95019e-47
1.00919e-44
3.18328e-42
9.21956e-40
2.44719e-37
5.93794e-35
1.30012e-32
4.17504e-53
1.75329e-50
6.95376e-48
2.58266e-45
8.94055e-43
2.87996e-40
8.65101e-38
2.4329e-35
6.38836e-33
1.52845e-30
2.28954e-51
9.66886e-49
3.85423e-46
1.44191e-43
5.06225e-41
1.6755e-38
5.2734e-36
1.58752e-33
6.12426e-50
2.6043e-47
1.04391e-44
3.93462e-42
1.39719e-39
4.71211e-37
1.52523e-34
4.74904e-32
2.28554e-49
1.04989e-46
4.63272e-44
1.95986e-41
7.89988e-39
2.98951e-36
1.03853e-33
3.21987e-31
2.58194e-57
1.07077e-54
4.19531e-52
1.5361e-49
5.20696e-47
1.61881e-44
4.57615e-42
1.16746e-39
2.66878e-37
5.40473e-35
2.20821e-55
9.21861e-53
3.63259e-50
1.33744e-47
4.56585e-45
1.43628e-42
4.14672e-40
1.09716e-37
2.65469e-35
5.80115e-33
1.20755e-53
5.06758e-51
2.00474e-48
7.41124e-46
2.54844e-43
8.13725e-41
2.4176e-38
6.712e-36
3.2131e-52
1.35564e-49
5.37548e-47
1.99506e-44
6.91936e-42
2.24314e-39
6.83313e-37
1.96533e-34
1.12579e-51
5.06984e-49
2.18318e-46
8.98308e-44
3.52065e-41
1.30047e-38
4.44028e-36
1.36402e-33
1.13411e-59
4.66679e-57
1.81511e-54
6.59874e-52
2.21938e-49
6.8297e-47
1.90097e-44
4.72979e-42
1.03907e-39
1.98543e-37
9.66934e-58
4.00605e-55
1.56697e-52
5.72326e-50
1.93376e-47
5.9887e-45
1.68561e-42
4.28064e-40
9.7415e-38
1.96518e-35
5.2732e-56
2.19627e-53
8.61961e-51
3.15593e-48
1.06968e-45
3.3356e-43
9.53146e-41
2.49175e-38
1.39674e-54
5.84899e-52
2.29711e-49
8.40728e-47
2.85869e-44
9.0008e-42
2.61867e-39
7.04839e-37
4.64584e-54
2.04958e-51
8.59714e-49
3.42892e-46
1.29907e-43
4.64329e-41
1.54204e-38
4.64114e-36
4.26498e-62
1.73845e-59
6.70165e-57
2.41654e-54
8.0651e-52
2.46151e-49
6.77976e-47
1.6609e-44
3.56067e-42
6.55143e-40
3.62334e-60
1.48739e-57
5.76823e-55
2.08956e-52
6.99872e-50
2.1437e-47
5.93666e-45
1.46937e-42
3.21137e-40
6.10829e-38
1.97017e-58
8.13444e-56
3.16549e-53
1.14859e-50
3.85106e-48
1.18211e-45
3.29424e-43
8.27396e-41
5.19418e-57
2.15935e-54
8.40834e-52
3.04266e-49
1.01768e-46
3.13159e-44
8.81616e-42
2.25809e-39
1.65826e-56
7.18163e-54
2.9388e-51
1.13628e-48
4.15325e-46
1.42936e-43
4.57998e-41
1.33789e-38
1.41143e-64
5.6914e-62
2.17107e-59
7.75374e-57
2.56563e-54
7.7684e-52
2.12199e-49
5.14507e-47
1.08673e-44
1.9545e-42
1.19427e-62
4.85068e-60
1.86237e-57
6.68487e-55
2.21973e-52
6.73775e-50
1.84515e-47
4.49376e-45
9.57885e-43
1.75359e-40
6.47165e-61
2.64551e-58
1.01992e-55
3.66724e-53
1.21777e-50
3.6953e-48
1.01306e-45
2.48048e-43
1.69609e-59
7.00011e-57
2.70426e-54
9.69288e-52
3.20101e-49
9.67163e-47
2.65532e-44
6.5667e-42
5.2415e-59
2.23635e-56
8.96055e-54
3.36867e-51
1.18927e-48
3.93539e-46
1.21104e-43
3.40807e-41
2.0972e-23
7.80093e-21
7.00655e-22
2.50001e-19
2.20232e-23
8.88412e-21
7.85738e-22
3.02859e-19
1.38271e-24
4.03441e-22
3.49323e-23
8.98841e-21
1.5294e-26
4.36074e-24
4.26293e-25
1.15327e-22
9.74507e-29
2.68186e-26
2.92821e-27
7.98001e-25
1.50145e-26
3.3156e-24
4.51928e-31
1.16601e-28
1.39372e-29
3.66009e-27
8.62642e-29
1.92481e-26
1.73886e-33
4.1113e-31
5.30074e-32
1.29812e-29
3.64682e-31
8.15841e-29
5.94892e-36
1.28256e-33
1.75074e-34
3.94086e-32
1.22463e-33
2.71944e-31
1.86033e-38
3.7061e-36
5.23823e-37
1.08723e-34
3.45166e-36
7.54453e-34
5.36048e-41
1.00815e-38
1.44767e-39
2.80992e-37
8.52773e-39
1.82166e-36
4.74101e-20
1.84929e-22
5.90437e-25
1.55825e-27
3.57285e-30
2.22855e-18
2.74919e-16
1.13659e-12
7.51722e-17
1.439e-11
0.00226378
2.67707e-18
2.14051e-16
4.80304e-13
1.11179e-16
3.08575e-12
0.00264199
9.15134e-20
2.03916e-17
1.6524e-14
1.54567e-18
3.57266e-16
2.40918e-13
9.97141e-22
1.81585e-19
3.34334e-17
2.38152e-20
3.60298e-18
8.3683e-16
6.01986e-24
1.00475e-21
1.1288e-19
1.7332e-22
2.70834e-20
2.55624e-18
6.08566e-22
1.02413e-19
2.52627e-26
4.11937e-24
4.28003e-22
7.93111e-25
1.2742e-22
1.29459e-20
3.4476e-24
4.80043e-22
8.37012e-29
1.32326e-26
1.37138e-24
2.70049e-27
4.30001e-25
4.48044e-23
1.46011e-26
1.97869e-24
2.40447e-31
3.60305e-29
3.69541e-27
7.65796e-30
1.17213e-27
1.21498e-25
4.83851e-29
6.47477e-27
6.37753e-34
8.90948e-32
8.87835e-30
1.9523e-32
2.81836e-30
2.8589e-28
1.32594e-31
1.74855e-29
1.61343e-36
2.0972e-34
2.00257e-32
4.68226e-35
6.33729e-33
6.24654e-31
3.14702e-34
4.08606e-32
3.58666e-13
1.83458e-15
1.73758e-24
3.88374e-22
9.03549e-20
4.30292e-17
2.65316e-05
0.00077963
0.00546819
3.42617e-09
1.33989e-06
1.38232e-13
2.49544e-11
7.88841e-05
2.74954e-07
0.0223067
4.28574e-09
1.72297e-06
3.03192e-11
9.74771e-14
0.0193651
0.00758076
0.0246883
0.00320726
0.00214424
0.000339043
0.000579125
0.00658595
0.00813898
0.0261489
0.00354357
0.00278012
0.000656486
0.000477145
0.000194554
1.26554e-10
3.80933e-09
2.03873e-13
6.45548e-11
1.18611e-13
5.64908e-15
5.61573e-14
3.3901e-06
1.17256e-08
4.77707e-13
2.9308e-15
4.10668e-11
1.78558e-14
0.000431989
0.00210573
0.00887035
0.000104903
0.000697615
7.57429e-05
6.95684e-06
0.000426025
0.0117609
0.0028463
0.00011163
0.00104651
0.000126204
6.25707e-06
1.44289e-14
3.23611e-13
3.73808e-15
3.64934e-09
4.55194e-07
1.78459e-13
5.51349e-13
5.0532e-15
1.37235e-12
1.83104e-14
1.25865e-06
2.73585e-09
6.77739e-13
2.65351e-13
4.87882e-05
0.000986117
0.00132099
7.7054e-07
4.11397e-05
2.51647e-05
4.10165e-07
9.99305e-14
9.20543e-09
1.18324e-14
9.60246e-15
1.37216e-12
5.36928e-16
1.24201e-13
3.4827e-05
7.012e-05
0.00121598
1.6226e-05
6.51894e-07
2.66551e-07
3.50112e-05
0.000174025
9.68633e-07
0.000116385
7.44823e-08
1.23012e-05
7.35435e-06
4.06738e-08
5.94141e-15
6.96987e-14
2.63211e-09
3.19743e-16
6.97589e-14
7.01441e-15
1.01063e-12
0.000145787
5.22109e-07
7.21775e-05
4.25312e-06
5.86941e-08
2.26207e-08
9.94031e-06
0.000212873
4.09671e-07
5.34567e-06
2.26283e-06
1.94765e-09
3.16273e-08
1.51282e-07
8.18928e-06
1.96205e-05
0.00030284
3.92302e-06
1.64075e-09
5.26264e-08
1.2441e-07
8.9309e-07
1.32818e-07
2.33012e-05
1.06222e-06
1.59998e-10
5.13968e-09
3.2987e-08
1.31485e-05
2.62543e-06
2.22563e-06
1.08973e-07
8.4799e-08
1.86237e-08
7.383e-10
8.19471e-07
6.30937e-08
1.21224e-05
5.32397e-07
1.32627e-10
2.51368e-09
3.1796e-08
1.90088e-24
4.9589e-27
1.13557e-29
2.44159e-32
5.299e-24
1.75696e-26
4.80765e-29
1.1773e-31
2.71414e-34
6.42459e-23
1.66632e-25
3.68938e-28
7.48959e-31
2.19655e-22
7.23263e-25
1.91478e-27
4.39119e-30
9.21848e-33
5.52956e-08
3.05754e-07
1.41098e-07
6.47806e-10
1.68047e-09
7.40878e-10
2.82949e-10
2.86396e-07
1.28072e-07
1.5605e-08
8.35861e-09
1.23372e-09
5.62603e-10
3.60026e-11
1.13473e-16
1.16904e-16
2.19874e-14
2.29144e-13
2.06084e-14
3.87483e-12
3.57793e-15
1.20986e-07
2.97437e-07
1.25384e-07
6.54527e-10
6.46362e-10
2.69989e-10
1.63104e-09
1.39303e-10
7.41399e-08
3.93065e-10
2.48491e-07
9.82355e-08
5.0763e-10
1.35431e-09
4.92307e-10
2.42384e-10
4.74862e-08
2.81928e-07
1.37466e-07
1.54601e-09
7.19846e-10
1.01125e-07
4.13554e-09
1.44223e-09
9.0846e-12
1.58807e-09
5.40609e-10
2.54025e-07
4.96052e-09
1.78618e-09
3.11207e-07
1.68371e-07
1.45554e-11
2.50445e-09
9.13989e-10
1.09085e-06
1.07822e-08
7.92618e-09
4.2478e-09
3.09858e-09
3.09631e-11
8.2703e-11
6.63151e-07
1.25045e-08
9.28279e-09
6.18285e-09
4.62623e-09
4.56187e-11
9.67923e-11
3.10746e-10
6.90148e-10
1.41937e-08
6.79211e-11
1.61229e-12
2.88894e-11
3.60004e-12
6.54176e-09
5.86274e-10
1.67514e-08
8.15024e-11
1.39789e-12
3.11168e-11
3.44234e-12
1.27209e-12
2.0741e-10
6.01501e-09
5.82737e-10
1.67885e-08
8.15029e-11
3.42037e-12
4.88787e-16
2.70168e-16
2.93756e-14
3.87257e-16
4.65598e-13
1.07224e-14
4.08655e-16
2.13932e-08
9.88581e-12
3.86812e-12
1.61685e-12
2.96694e-10
1.07277e-10
6.57471e-10
2.82459e-07
3.59561e-11
2.37798e-09
2.48366e-11
1.72272e-09
1.65289e-11
4.50104e-13
8.59761e-08
2.51813e-11
7.42131e-10
1.86119e-11
5.52607e-10
5.14845e-12
2.95725e-13
3.05978e-09
1.46585e-11
1.12931e-12
5.36661e-10
1.08876e-08
5.18109e-11
3.03784e-12
5.23933e-17
8.09045e-14
7.57071e-16
6.08393e-17
2.3731e-15
4.71444e-17
8.18875e-17
1.11849e-13
6.35869e-15
1.11922e-16
4.80041e-16
8.66346e-17
1.26066e-16
7.98573e-17
1.15818e-08
9.55644e-12
3.19968e-12
9.72952e-13
1.70623e-10
5.64937e-11
6.57794e-10
9.09505e-13
8.89863e-11
1.61476e-08
4.63798e-12
6.94998e-10
6.11416e-12
1.8237e-13
7.64177e-13
1.24208e-08
1.16166e-10
2.91928e-12
4.67766e-10
4.75568e-12
1.24885e-13
2.75409e-10
5.90959e-12
2.76916e-10
1.35436e-12
4.97442e-11
1.36407e-12
1.67291e-13
5.56506e-08
2.87833e-11
2.01882e-11
4.75808e-10
3.41692e-10
3.47925e-12
5.17849e-13
4.73739e-11
2.41825e-11
4.88612e-09
3.96147e-10
2.04206e-10
1.68048e-12
2.89816e-12
1.31364e-11
7.11659e-09
3.65094e-11
3.10015e-10
1.1312e-10
2.21665e-12
9.96322e-13
2.78445e-09
2.47598e-12
1.52296e-10
4.32749e-13
1.25419e-11
9.89837e-13
2.29503e-13
2.88378e-10
1.44217e-12
2.32884e-13
7.66182e-13
1.16763e-11
2.16205e-13
1.53081e-13
4.14989e-13
2.03077e-11
6.20371e-10
1.18668e-12
2.41824e-11
4.4421e-13
3.01658e-13
6.77411e-11
9.23768e-14
5.20669e-12
8.17768e-14
2.44763e-12
2.40928e-13
6.78704e-14
5.63538e-17
2.06576e-16
4.44055e-17
5.21872e-17
4.26257e-17
1.33013e-16
4.61118e-17
1.55398e-16
4.26004e-16
1.42381e-15
1.84765e-15
4.39566e-16
1.5823e-16
1.49694e-16
1.37863e-16
1.74945e-15
4.60275e-16
1.75897e-15
1.4884e-16
8.87101e-16
1.38755e-16
3.3182e-12
3.34401e-12
1.05431e-13
1.43364e-13
1.40857e-12
1.17225e-13
8.42895e-12
7.66969e-14
8.56407e-14
2.03802e-12
2.54744e-12
1.10654e-13
8.85294e-14
6.96199e-12
3.34535e-12
1.39973e-13
8.69177e-12
3.74803e-12
1.0161e-13
1.46706e-12
1.15518e-13
9.97144e-14
2.57313e-12
1.27283e-12
1.36071e-13
7.9956e-12
3.63838e-12
1.14092e-13
5.0075e-16
4.57406e-15
3.83387e-16
4.71667e-16
3.76354e-16
3.57113e-16
3.57398e-16
4.33204e-16
1.68047e-14
5.94983e-16
4.26623e-16
5.57542e-16
4.14497e-16
4.07691e-16
1.78961e-16
1.63042e-16
1.6344e-16
1.68712e-16
1.55419e-15
2.17848e-16
1.05354e-14
6.61675e-13
9.37487e-11
3.53009e-11
6.59022e-13
3.91448e-13
3.77674e-13
1.13845e-12
3.41553e-16
1.988e-16
1.95555e-16
2.70935e-16
1.39896e-14
2.03708e-16
2.23005e-15
5.27144e-11
3.40179e-13
1.96431e-11
4.29492e-13
2.23105e-13
2.15063e-13
7.99003e-13
8.90403e-13
1.09656e-10
5.17616e-11
8.89303e-13
4.88835e-13
4.78517e-13
1.36919e-12
6.25134e-11
4.68975e-13
2.99324e-11
5.9802e-13
2.82297e-13
9.64499e-13
2.7968e-13
5.56636e-29
2.05229e-26
8.08528e-24
3.8847e-21
1.24263e-28
4.16529e-26
1.30341e-23
4.98497e-21
5.77378e-30
2.01605e-27
6.28245e-25
1.73747e-22
5.51418e-32
1.95783e-29
6.38849e-27
1.87563e-24
3.79504e-34
1.26668e-31
3.96678e-29
1.13392e-26
5.68405e-15
1.03387e-13
3.85578e-16
3.26274e-07
4.31198e-18
1.15663e-15
1.82584e-14
2.25932e-18
2.84695e-18
4.22176e-20
4.79535e-22
2.80508e-24
5.24875e-16
7.33288e-16
8.36146e-18
2.56075e-16
1.01265e-19
1.74381e-17
5.50036e-22
2.53599e-15
6.99919e-20
4.00127e-18
4.92484e-12
5.94769e-07
0.000101711
7.52633e-11
0.0107142
2.87569e-06
0.000120357
1.78928e-10
4.74768e-09
6.65347e-14
3.78118e-05
2.84439e-07
1.64223e-06
1.8334e-10
0.000172964
2.8702e-13
0.0295716
0.00827234
0.0244069
0.00438305
0.0032001
0.000663544
0.000997846
0.000113117
0.000341362
0.000431678
5.73812e-06
3.95189e-06
8.4752e-07
1.49955e-06
0.00278304
0.00346611
0.000546011
0.0125008
0.00113666
0.000169863
8.93351e-06
0.00017694
0.00208618
0.00147144
4.74589e-05
2.13826e-06
9.6428e-07
8.77835e-05
8.71304e-12
2.16657e-13
1.2306e-08
9.41561e-16
8.03894e-14
3.43315e-12
1.04695e-14
1.50149e-10
3.10799e-13
4.71272e-08
1.26781e-13
1.33645e-13
5.51397e-16
4.18946e-15
5.19232e-06
3.76344e-05
0.000168723
2.1903e-07
1.4021e-06
2.1775e-07
2.41144e-08
1.52153e-07
1.30805e-06
6.71691e-08
0.000249079
0.000145812
1.20241e-05
2.39694e-05
7.50363e-07
2.72578e-05
1.48118e-05
7.85242e-08
7.87742e-09
3.4817e-09
1.58221e-07
1.73375e-05
0.000460592
3.42464e-05
7.06022e-06
3.30681e-09
1.09757e-07
2.23113e-07
9.89481e-07
1.51697e-07
7.28725e-09
2.2143e-10
2.63894e-05
1.54531e-06
4.69005e-08
7.17645e-14
8.37803e-17
3.94221e-16
8.45573e-14
2.54396e-12
4.48912e-16
8.40776e-15
4.16315e-09
1.75208e-09
3.02725e-11
3.37557e-07
1.31028e-08
5.54415e-09
7.591e-07
8.26104e-09
1.26182e-07
3.35314e-06
1.54231e-08
3.55935e-11
5.54099e-10
1.22547e-09
1.16357e-10
3.40111e-08
2.23169e-08
4.30213e-09
4.10034e-11
7.89621e-09
2.17586e-11
6.72026e-16
1.15161e-14
2.47271e-16
2.87044e-12
1.1841e-13
1.10213e-14
6.10731e-16
1.19786e-07
3.16503e-09
1.14346e-09
1.85025e-09
6.60589e-10
7.23252e-12
2.01864e-11
1.02848e-09
3.45234e-11
7.14917e-09
1.02212e-09
5.66908e-13
4.89658e-12
1.0418e-10
1.96288e-08
8.52146e-10
3.32293e-10
2.22965e-10
9.06856e-11
1.69042e-12
4.26632e-12
2.27406e-14
1.0605e-14
2.21559e-13
1.38846e-16
2.52057e-15
9.6223e-17
1.62441e-16
3.07631e-12
1.16635e-14
1.36552e-16
2.12879e-16
8.25702e-17
9.92381e-15
1.11692e-16
6.26861e-12
1.5299e-13
2.96734e-12
3.74508e-08
1.77798e-11
5.80647e-10
1.11729e-09
3.6618e-10
1.72328e-13
3.64479e-11
3.64908e-12
1.58031e-11
7.65666e-10
1.73967e-12
4.63036e-10
4.68254e-12
1.14869e-10
2.89356e-12
6.39684e-11
7.69649e-13
1.2627e-13
2.73909e-09
2.43621e-12
4.03749e-11
9.68574e-13
1.23178e-11
4.03822e-13
2.22858e-13
6.69375e-11
9.10082e-14
2.37728e-13
7.945e-14
2.41052e-12
3.53728e-13
5.17145e-12
0.00480547
0.00620519
0.0954868
0.168815
0.264554
0.291671
0.495584
0.293671
0.0370329
0.473439
0.151718
0.494995
0.130995
0.353592
0.49441
0.152774
0.436836
0.0961546
0.405981
0.402606
0.477206
0.516924
0.49564
0.423147
0.386108
0.492512
0.405625
0.515066
0.403497
0.387396
0.49345
0.422937
0.406769
0.404075
0.476332
0.515433
0.42297
0.493592
0.389569
0.477416
0.408063
0.515411
0.40545
0.423971
0.391431
0.494612
0.416817
0.201179
0.321332
0.342598
0.306594