/*--------------------------------*- C++ -*----------------------------------*\
  =========                 |
  \\      /  F ield         | OpenFOAM: The Open Source CFD Toolbox
   \\    /   O peration     | Website:  https://openfoam.org
    \\  /    A nd           | Version:  9
     \\/     M anipulation  |
\*---------------------------------------------------------------------------*/
FoamFile
{
    format      ascii;
    class       volVectorField;
    location    "0.00025";
    object      rhoU;
}
// * * * * * * * * * * * * * * * * * * * * * * * * * * * * * * * * * * * * * //

dimensions      [1 -2 -1 0 0 0 0];

internalField   nonuniform List<vector> 
4631
(
(-2.18028e-13 1.6291e-13 4.44058e-13)
(-5.42493e-12 1.62658e-12 1.37166e-11)
(0 0 2.11827e-16)
(-3.24612e-16 0 2.12355e-16)
(1.02967e-16 0 2.12383e-16)
(1.45635e-16 0 7.88261e-17)
(-7.41179e-14 0 -7.91682e-17)
(0 0 2.84329e-22)
(-3.23996e-16 0 9.11206e-21)
(1.0283e-16 0 1.01506e-22)
(1.45214e-16 0 3.23426e-22)
(-6.49682e-14 0 5.88672e-16)
(0 0 4.213e-22)
(-3.10714e-16 0 -4.56324e-21)
(1.02797e-16 0 -5.72262e-21)
(1.59752e-16 0 -3.71003e-18)
(-1.49984e-15 0 1.89216e-16)
(-1.32374e-11 -1.33898e-14 -5.24095e-14)
(-1.69853e-09 -3.85054e-12 -1.46876e-11)
(-1.17187e-11 1.16213e-14 2.14369e-13)
(-1.57151e-09 3.44619e-12 4.38156e-11)
(-4.09294e-13 -2.52639e-16 1.07891e-13)
(-4.08497e-11 -3.70983e-14 1.26251e-11)
(-6.92349e-08 -1.65614e-09 -1.31468e-09)
(-0.100766 0.0105826 -0.0124492)
(-7.2241e-08 -7.75693e-10 2.02976e-09)
(-1.10729 0.154197 0.0194871)
(-4.05265e-09 -2.56744e-12 1.34541e-09)
(-6.25129e-07 -2.32443e-08 1.68978e-07)
(-0.55822 0.0682904 -0.0582629)
(-1.88218e-05 1.13549e-06 -3.35368e-07)
(-1.21253e-05 4.31477e-07 -1.39831e-06)
(-0.00567441 -0.000587243 -0.000583067)
(-1.02314e-05 -4.56006e-07 -1.08258e-06)
(-6.26293e-05 -5.87332e-06 -4.18994e-06)
(-0.314702 -0.0435121 -0.0321698)
(-1.68958e-05 1.13065e-06 4.9956e-07)
(-0.00655928 0.000687907 0.00132344)
(-1.3276e-05 4.23847e-07 1.6161e-06)
(-0.00119948 -0.00013582 0.00012475)
(-1.78764e-05 -1.03513e-06 2.08341e-07)
(-0.88274 -0.134252 0.00995652)
(-1.32998e-05 -4.47252e-07 1.6825e-06)
(0 0 0)
(4.25323e-43 0 0)
(0 0 0)
(0 0 0)
(-3.257e-43 0 0)
(-1.61336e-48 0 0)
(3.11911e-42 0 0)
(0 0 0)
(-1.89631e-40 0 0)
(0 0 0)
(0 0 0)
(1.42441e-40 0 0)
(0 0 0)
(0 0 0)
(-1.44253e-40 0 0)
(-6.91244e-46 0 0)
(1.18607e-39 0 0)
(0 0 0)
(-1.31515e-37 0 0)
(0 0 0)
(0 0 0)
(4.41797e-38 0 0)
(0 0 0)
(0 0 0)
(-5.86334e-38 0 0)
(-2.77819e-43 0 0)
(4.11451e-37 0 0)
(0 0 0)
(-8.72237e-35 0 0)
(0 0 0)
(0 0 0)
(1.26173e-35 0 0)
(0 0 0)
(0 0 0)
(-8.70886e-36 0 8.35294e-15)
(-5.15436e-41 0 -8.35294e-15)
(5.19146e-35 0 9.14662e-15)
(0 0 1.13687e-14)
(-2.20593e-32 0 1.01744e-14)
(0 0 0)
(0 0 0)
(3.29539e-33 0 0)
(0 0 0)
(0 0 -8.35294e-15)
(-1.16418e-33 0 0)
(-2.05129e-38 0 -1.00596e-14)
(5.86962e-33 0 0)
(0 0 0)
(-5.2594e-30 0 0)
(0 0 0)
(0 0 0)
(7.80722e-31 0 0)
(0 0 0)
(0 0 8.35294e-15)
(-1.37995e-31 0 1.00596e-14)
(-3.04074e-36 0 0)
(5.86674e-31 0 9.04548e-15)
(0 0 0)
(-2.90911e-27 0 0)
(0 0 0)
(0 0 0)
(1.66122e-28 0 0)
(0 0 0)
(0 0 -9.14662e-15)
(-1.42102e-29 0 0)
(-4.06429e-34 0 -9.04548e-15)
(5.08736e-29 0 0)
(0 0 0)
(-1.48277e-24 0 0)
(0 0 0)
(0 0 0)
(3.1358e-26 0 0)
(0 0 0)
(0 0 -1.13687e-14)
(-3.06014e-27 0 0)
(-3.82786e-32 0 0)
(9.21745e-27 0 0)
(0 0 0)
(-6.92269e-22 0 0)
(-7.36179e-19 0 0)
(0 0 0)
(4.2533e-43 0 0)
(0 0 0)
(0 0 0)
(-8.63196e-45 0 0)
(-2.28026e-47 0 0)
(8.13173e-44 0 0)
(0 0 0)
(-2.35209e-41 0 0)
(0 0 0)
(0 0 0)
(1.42444e-40 0 0)
(0 0 0)
(0 0 0)
(-3.81715e-42 0 0)
(-8.64731e-45 0 0)
(3.08766e-41 0 0)
(0 0 0)
(-1.49732e-38 0 0)
(0 0 0)
(0 0 0)
(4.41809e-38 0 0)
(0 0 0)
(0 0 0)
(-1.54871e-39 0 0)
(-3.03126e-42 0 0)
(1.0692e-38 0 0)
(0 0 0)
(-9.12867e-36 0 0)
(0 0 0)
(0 0 0)
(1.26178e-35 0 0)
(0 0 0)
(0 0 0)
(-5.71362e-37 0 0)
(-9.7193e-40 0 0)
(3.34814e-36 0 0)
(0 0 0)
(-5.40179e-33 0 0)
(0 0 0)
(0 0 0)
(3.29553e-33 0 0)
(0 0 0)
(0 0 0)
(-1.89492e-34 0 0)
(-2.82059e-37 0 0)
(9.38128e-34 0 0)
(0 0 0)
(-3.12859e-30 0 0)
(0 0 0)
(0 0 0)
(7.80765e-31 0 0)
(0 0 0)
(0 0 0)
(-5.56561e-32 0 0)
(-7.30227e-35 0 0)
(2.32008e-31 0 0)
(0 0 0)
(-1.77043e-27 0 0)
(0 0 0)
(0 0 0)
(1.66134e-28 0 0)
(0 0 0)
(0 0 0)
(-1.41905e-29 0 0)
(-1.65402e-32 0 0)
(4.97286e-29 0 0)
(0 0 0)
(-9.6591e-25 0 0)
(0 0 0)
(0 0 0)
(3.1361e-26 0 0)
(0 0 0)
(0 0 0)
(-3.0559e-27 0 0)
(-3.1889e-30 0 0)
(9.00767e-27 0 0)
(0 0 0)
(-5.00771e-22 0 0)
(-6.66151e-19 0 0)
(0 0 0)
(4.24785e-43 0 0)
(0 0 0)
(0 0 0)
(-8.15318e-45 0 0)
(-4.52021e-46 0 0)
(7.71634e-44 0 0)
(0 0 0)
(-7.28018e-45 0 0)
(0 0 0)
(0 0 0)
(1.42263e-40 0 0)
(0 0 0)
(0 0 0)
(-3.60524e-42 0 0)
(-1.71821e-43 0 0)
(2.93142e-41 0 0)
(0 0 0)
(-8.41647e-42 0 0)
(0 0 0)
(0 0 0)
(4.41252e-38 0 0)
(0 0 0)
(0 0 0)
(-1.4627e-39 0 0)
(-6.03923e-41 0 0)
(1.01581e-38 0 0)
(0 0 0)
(-8.77181e-39 0 0)
(0 0 0)
(0 0 0)
(1.26021e-35 0 0)
(0 0 0)
(0 0 0)
(-5.39648e-37 0 0)
(-1.94224e-38 0 0)
(3.18385e-36 0 0)
(0 0 0)
(-8.2839e-36 0 0)
(0 0 0)
(0 0 0)
(3.29149e-33 0 0)
(0 0 0)
(0 0 0)
(-1.78987e-34 0 0)
(-5.65495e-36 0 0)
(8.93136e-34 0 0)
(0 0 0)
(-7.2358e-33 0 0)
(0 0 0)
(0 0 0)
(7.79826e-31 0 0)
(0 0 0)
(0 0 0)
(-5.25773e-32 0 0)
(-1.46956e-33 0 0)
(2.212e-31 0 0)
(0 0 0)
(-6.16806e-30 0 0)
(0 0 0)
(0 0 0)
(1.65939e-28 0 0)
(0 0 0)
(0 0 0)
(-1.34083e-29 0 0)
(-3.34301e-31 0 0)
(4.74932e-29 0 0)
(0 0 0)
(-5.5291e-27 0 0)
(0 0 0)
(0 0 0)
(3.13255e-26 0 0)
(0 0 0)
(0 0 0)
(-2.88762e-27 0 0)
(-6.47743e-29 0 0)
(8.61704e-27 0 0)
(0 0 0)
(-5.26915e-24 0 0)
(-2.62914e-20 0 0)
(0 0 0)
(3.94792e-43 0 0)
(0 0 0)
(0 0 0)
(-5.09213e-55 0 0)
(-5.0146e-48 0 0)
(1.24665e-47 0 0)
(0 0 0)
(-7.19939e-53 0 0)
(0 0 0)
(0 0 0)
(1.32258e-40 0 0)
(0 0 0)
(0 0 0)
(-4.38803e-52 0 0)
(-2.02701e-45 0 0)
(5.40662e-45 0 0)
(0 0 0)
(-3.97472e-49 0 0)
(0 0 0)
(0 0 0)
(4.10383e-38 0 0)
(0 0 0)
(0 0 0)
(-3.45929e-49 0 0)
(-7.5728e-43 0 0)
(2.16853e-42 0 0)
(0 0 0)
(-1.62206e-45 0 0)
(0 0 0)
(0 0 0)
(1.17264e-35 0 0)
(0 0 0)
(0 0 0)
(-2.47583e-46 0 0)
(-2.60185e-40 0 0)
(7.98925e-40 0 0)
(0 0 0)
(-5.17956e-42 0 0)
(0 0 0)
(0 0 0)
(3.06477e-33 0 0)
(0 0 0)
(0 0 0)
(-1.59587e-43 0 0)
(-8.17292e-38 0 0)
(2.68133e-37 0 0)
(0 0 0)
(-1.33582e-38 0 0)
(0 0 0)
(0 0 0)
(7.26712e-31 0 0)
(0 0 0)
(0 0 0)
(-9.17931e-41 0 0)
(-2.3302e-35 0 0)
(8.11309e-35 0 0)
(0 0 0)
(-2.82925e-35 0 0)
(0 0 0)
(0 0 0)
(1.54801e-28 0 0)
(0 0 0)
(0 0 0)
(-4.65776e-38 0 0)
(-5.97388e-33 0 0)
(2.18343e-32 0 0)
(0 0 0)
(-4.94887e-32 0 0)
(0 0 0)
(0 0 0)
(2.92634e-26 0 0)
(0 0 0)
(0 0 0)
(-2.05331e-35 0 0)
(-1.35935e-30 0 0)
(5.13075e-30 0 0)
(0 0 0)
(-7.13557e-29 0 0)
(-1.5194e-23 0 0)
(0 0 0)
(2.02907e-46 0 0)
(0 0 0)
(0 0 0)
(-1.99441e-53 0 0)
(-1.07289e-46 0 0)
(2.56525e-46 0 0)
(0 0 0)
(-8.82902e-57 0 0)
(0 0 0)
(0 0 0)
(9.19452e-44 0 0)
(0 0 0)
(0 0 0)
(-1.72949e-50 0 0)
(-4.42434e-44 0 0)
(1.12857e-43 0 0)
(0 0 0)
(-7.39307e-53 0 0)
(0 0 0)
(0 0 0)
(3.85525e-41 0 0)
(0 0 0)
(0 0 0)
(-1.37531e-47 0 0)
(-1.69448e-41 0 0)
(4.60755e-41 0 0)
(0 0 0)
(-4.05303e-49 0 0)
(0 0 0)
(0 0 0)
(1.48796e-38 0 0)
(0 0 0)
(0 0 0)
(-9.97279e-45 0 0)
(-6.00542e-39 0 0)
(1.73547e-38 0 0)
(0 0 0)
(-1.65831e-45 0 0)
(0 0 0)
(0 0 0)
(5.25395e-36 0 0)
(0 0 0)
(0 0 0)
(-6.5555e-42 0 0)
(-1.96156e-36 0 0)
(5.98878e-36 0 0)
(0 0 0)
(-5.39979e-42 0 0)
(0 0 0)
(0 0 0)
(1.68491e-33 0 0)
(0 0 0)
(0 0 0)
(-3.88056e-39 0 0)
(-5.87727e-34 0 0)
(1.87719e-33 0 0)
(0 0 0)
(-1.43692e-38 0 0)
(0 0 0)
(0 0 0)
(4.86491e-31 0 0)
(0 0 0)
(0 0 0)
(-2.05266e-36 0 0)
(-1.60625e-31 0 0)
(5.28715e-31 0 0)
(0 0 0)
(-3.13593e-35 0 0)
(0 0 0)
(0 0 0)
(1.25126e-28 0 0)
(0 0 0)
(0 0 0)
(-9.61183e-34 0 0)
(-3.97518e-29 0 0)
(1.31923e-28 0 0)
(0 0 0)
(-5.57312e-32 0 0)
(0 0 0)
(0 0 0)
(-2.48571e-49 0 0)
(0 0 0)
(0 0 0)
(-2.41854e-56 0 0)
(2.12492e-73 0 0)
(-2.86966e-66 0 0)
(0 0 0)
(0 0 0)
(0 0 0)
(0 0 0)
(-8.18015e-47 0 0)
(0 0 0)
(0 0 0)
(-2.31045e-53 0 0)
(1.61199e-70 0 0)
(-9.65444e-65 0 0)
(0 0 0)
(0 0 0)
(0 0 0)
(0 0 0)
(-2.50908e-44 0 0)
(0 0 0)
(0 0 0)
(-2.0212e-50 0 0)
(1.11852e-67 0 0)
(-2.19794e-60 0 0)
(0 0 0)
(0 0 0)
(0 0 0)
(0 0 0)
(-7.11371e-42 0 0)
(0 0 0)
(0 0 0)
(-1.61368e-47 0 0)
(7.07649e-65 0 0)
(-7.10715e-58 0 0)
(0 0 0)
(0 0 0)
(0 0 0)
(0 0 0)
(-1.85213e-39 0 0)
(0 0 0)
(0 0 0)
(-1.17088e-44 0 0)
(4.06301e-62 0 0)
(-8.09357e-56 0 0)
(0 0 0)
(0 0 0)
(0 0 0)
(0 0 0)
(-4.39353e-37 0 0)
(0 0 0)
(0 0 0)
(-7.68243e-42 0 0)
(-1.01083e-58 0 0)
(-1.40167e-53 0 0)
(0 0 0)
(0 0 0)
(0 0 0)
(0 0 0)
(-9.40422e-35 0 0)
(0 0 0)
(0 0 0)
(-4.52971e-39 0 0)
(-2.049e-48 0 0)
(-2.66052e-51 0 0)
(0 0 0)
(0 0 0)
(0 0 0)
(0 0 0)
(-1.79477e-32 0 0)
(0 0 0)
(0 0 0)
(-2.38181e-36 0 0)
(-1.80095e-44 0 0)
(-3.08048e-49 0 0)
(0 0 0)
(0 0 0)
(0 0 0)
(0 0 0)
(-2.37062e-53 0 0)
(0 0 0)
(0 0 0)
(-1.95137e-64 0 0)
(8.53509e-81 0 0)
(-1.45003e-63 0 0)
(0 0 0)
(0 0 0)
(0 0 0)
(0 0 0)
(-1.03318e-50 0 0)
(0 0 0)
(0 0 0)
(-2.3892e-61 0 0)
(1.02047e-77 0 0)
(-4.49705e-61 0 0)
(0 0 0)
(0 0 0)
(0 0 0)
(0 0 0)
(-4.23929e-48 0 0)
(0 0 0)
(0 0 0)
(-2.69634e-58 0 0)
(1.04576e-74 0 0)
(-1.28291e-58 0 0)
(0 0 0)
(0 0 0)
(0 0 0)
(0 0 0)
(-1.63219e-45 0 0)
(0 0 0)
(0 0 0)
(-2.79998e-55 0 0)
(8.85814e-72 0 0)
(-3.34274e-56 0 0)
(0 0 0)
(0 0 0)
(0 0 0)
(0 0 0)
(-5.87454e-43 0 0)
(0 0 0)
(0 0 0)
(-2.6695e-52 0 0)
(7.44642e-69 0 0)
(-7.88766e-54 0 0)
(0 0 0)
(0 0 0)
(0 0 0)
(0 0 0)
(-1.96803e-40 0 0)
(0 0 0)
(0 0 0)
(-2.33021e-49 0 0)
(5.30758e-66 0 0)
(-1.66795e-51 0 0)
(0 0 0)
(0 0 0)
(0 0 0)
(0 0 0)
(-6.10642e-38 0 0)
(0 0 0)
(0 0 0)
(-1.85594e-46 0 0)
(3.26238e-63 0 0)
(-3.11955e-49 0 0)
(0 0 0)
(0 0 0)
(0 0 0)
(0 0 0)
(-1.74467e-35 0 0)
(0 0 0)
(0 0 0)
(-1.34314e-43 0 0)
(1.85099e-60 0 0)
(-5.07293e-47 0 0)
(0 0 0)
(0 0 0)
(0 0 0)
(0 0 0)
(0 0 0)
(0 0 0)
(0 0 0)
(0 0 0)
(0 0 0)
(-1.87321e-62 0 0)
(0 0 0)
(0 0 0)
(0 0 0)
(0 0 0)
(0 0 0)
(0 0 0)
(0 0 0)
(0 0 0)
(0 0 0)
(-5.83021e-60 0 0)
(0 0 0)
(0 0 0)
(0 0 0)
(0 0 0)
(0 0 0)
(0 0 0)
(0 0 0)
(0 0 0)
(0 0 0)
(-1.67122e-57 0 0)
(0 0 0)
(0 0 0)
(0 0 0)
(0 0 0)
(0 0 0)
(0 0 0)
(0 0 0)
(0 0 0)
(0 0 0)
(-4.38224e-55 0 0)
(0 0 0)
(0 0 0)
(0 0 0)
(0 0 0)
(0 0 0)
(0 0 0)
(0 0 0)
(0 0 0)
(0 0 0)
(-1.04271e-52 0 0)
(0 0 0)
(0 0 0)
(0 0 0)
(0 0 0)
(0 0 0)
(0 0 0)
(0 0 0)
(0 0 0)
(0 0 0)
(-2.2293e-50 0 0)
(0 0 0)
(0 0 0)
(0 0 0)
(0 0 0)
(0 0 0)
(0 0 0)
(0 0 0)
(0 0 0)
(0 0 0)
(-4.23096e-48 0 0)
(0 0 0)
(0 0 0)
(0 0 0)
(0 0 0)
(0 0 0)
(0 0 0)
(0 0 0)
(0 0 0)
(0 0 0)
(-7.0189e-46 0 0)
(0 0 0)
(0 0 0)
(0 0 0)
(0 0 0)
(0 0 0)
(0 0 0)
(0 0 0)
(0 0 0)
(0 0 0)
(0 0 0)
(0 0 0)
(0 0 0)
(0 0 0)
(0 0 0)
(0 0 0)
(0 0 0)
(0 0 0)
(0 0 0)
(0 0 0)
(0 0 0)
(0 0 0)
(0 0 0)
(0 0 0)
(0 0 0)
(0 0 0)
(0 0 0)
(0 0 0)
(0 0 0)
(0 0 0)
(0 0 0)
(0 0 0)
(0 0 0)
(0 0 0)
(0 0 0)
(0 0 0)
(0 0 0)
(0 0 0)
(0 0 0)
(0 0 0)
(0 0 0)
(0 0 0)
(0 0 0)
(0 0 0)
(0 0 0)
(0 0 0)
(0 0 0)
(0 0 0)
(0 0 0)
(0 0 0)
(0 0 0)
(0 0 0)
(0 0 0)
(0 0 0)
(0 0 0)
(0 0 0)
(0 0 0)
(0 0 0)
(0 0 0)
(0 0 0)
(0 0 0)
(0 0 0)
(0 0 0)
(0 0 0)
(0 0 0)
(0 0 0)
(0 0 0)
(0 0 0)
(0 0 0)
(0 0 0)
(0 0 0)
(0 0 0)
(0 0 0)
(0 0 0)
(0 0 0)
(0 0 0)
(0 0 0)
(0 0 0)
(0 0 0)
(0 0 0)
(0 0 0)
(0 0 0)
(0 0 0)
(0 0 0)
(0 0 0)
(0 0 0)
(0 0 0)
(0 0 0)
(0 0 0)
(0 0 0)
(0 0 0)
(0 0 0)
(0 0 0)
(0 0 0)
(0 0 0)
(0 0 0)
(0 0 0)
(0 0 0)
(0 0 0)
(0 0 0)
(0 0 0)
(0 0 0)
(0 0 0)
(0 0 0)
(0 0 0)
(0 0 0)
(0 0 0)
(0 0 0)
(0 0 0)
(0 0 0)
(0 0 0)
(0 0 0)
(0 0 0)
(0 0 0)
(0 0 0)
(0 0 0)
(0 0 0)
(0 0 0)
(0 0 0)
(0 0 0)
(0 0 0)
(0 0 0)
(0 0 0)
(0 0 0)
(0 0 0)
(0 0 0)
(0 0 0)
(0 0 0)
(0 0 0)
(0 0 0)
(0 0 0)
(0 0 0)
(0 0 0)
(0 0 0)
(0 0 0)
(0 0 0)
(0 0 0)
(0 0 0)
(0 0 0)
(0 0 0)
(0 0 0)
(0 0 0)
(0 0 0)
(0 0 0)
(0 0 0)
(0 0 0)
(0 0 0)
(0 0 0)
(0 0 0)
(0 0 0)
(0 0 0)
(0 0 0)
(0 0 0)
(0 0 0)
(0 0 0)
(0 0 0)
(0 0 0)
(0 0 0)
(0 0 0)
(0 0 0)
(0 0 0)
(0 0 0)
(0 0 0)
(0 0 0)
(-1.47816e-13 -1.2421e-13 -1.32635e-15)
(-1.64865e-11 -1.85021e-11 -2.48926e-13)
(-1.19367e-09 -2.02428e-09 -3.93922e-11)
(-1.71352e-11 -9.62795e-12 -1.90202e-13)
(-1.85743e-09 -1.41836e-09 -4.2243e-11)
(-1.08369e-06 -1.40657e-06 -6.92336e-08)
(-1.57864e-13 -1.32162e-13 2.14051e-15)
(-1.84052e-11 -2.08403e-11 4.9409e-13)
(-1.40568e-09 -2.35482e-09 6.7924e-11)
(-1.94589e-11 -1.10896e-11 3.93265e-13)
(-2.17308e-09 -1.69789e-09 7.28536e-11)
(-3.39918e-07 -4.72857e-07 5.25985e-08)
(-8.71599e-15 -6.55522e-15 1.70077e-15)
(-8.13294e-13 -9.67042e-13 2.88298e-13)
(-3.7592e-11 -7.21478e-11 2.17135e-11)
(-9.49058e-13 -5.9034e-13 2.40988e-13)
(-7.69016e-11 -6.45797e-11 2.55287e-11)
(-4.88912e-09 -6.50166e-09 2.61068e-09)
(0 0 0)
(-9.85951e-15 -1.1116e-14 6.68047e-15)
(-5.21492e-13 -9.53244e-13 6.24134e-13)
(-1.10328e-14 -5.55802e-15 5.92052e-15)
(-9.91717e-13 -8.46258e-13 7.62604e-13)
(-5.03329e-11 -6.73642e-11 6.05148e-11)
(0 0 0)
(-1.594e-17 0 0)
(-3.53708e-15 -6.27362e-15 7.38532e-15)
(-1.12059e-17 0 9.28345e-18)
(-7.22223e-15 -6.44225e-15 8.25554e-15)
(-4.04798e-13 -5.44563e-13 7.27404e-13)
(0 0 0)
(-4.54044e-21 0 0)
(-1.03682e-23 -1.52721e-18 4.63384e-18)
(-5.96519e-23 0 0)
(-3.27441e-18 0 1.04911e-17)
(-1.38951e-15 -2.08408e-15 5.41923e-15)
(0 0 0)
(-4.69766e-27 0 0)
(0 0 9.06979e-21)
(0 0 0)
(-7.55134e-24 0 0)
(0 0 5.07002e-18)
(0 0 0)
(0 0 0)
(0 0 8.62842e-25)
(0 0 0)
(0 0 0)
(0 0 3.60265e-22)
(0 0 0)
(0 0 0)
(0 0 9.6294e-32)
(0 0 0)
(0 0 0)
(0 0 1.05494e-28)
(0 0 0)
(0 0 0)
(0 0 0)
(0 0 0)
(0 0 0)
(0 0 0)
(0 0 0)
(-5.69605e-33 0 0)
(-2.50652e-36 0 0)
(0 0 0)
(-4.5989e-30 0 0)
(-5.12985e-33 0 0)
(0 0 0)
(-3.26783e-27 0 0)
(-8.72347e-30 0 0)
(0 0 0)
(-2.03966e-24 0 0)
(-1.23693e-26 0 0)
(0 0 0)
(-1.12046e-21 0 0)
(-1.45686e-23 -6.60046e-21 0)
(0 0 0)
(-5.47303e-19 0 0)
(-1.40424e-20 -6.21273e-17 0)
(0 0 0)
(-2.43014e-16 -1.26319e-16 0)
(-3.00057e-14 -9.13529e-14 -2.69531e-16)
(-1.26319e-16 -3.76597e-16 -9.92971e-15)
(-1.00268e-13 -1.47004e-13 -8.21072e-16)
(-6.07188e-12 -1.52815e-11 -1.42282e-13)
(0 0 0)
(-5.10062e-33 0 0)
(-2.49074e-36 0 0)
(0 0 0)
(-4.19113e-30 0 0)
(-5.09556e-33 0 0)
(0 0 0)
(-3.03633e-27 0 0)
(-8.65235e-30 0 0)
(0 0 0)
(-1.93532e-24 0 0)
(-1.22027e-26 0 0)
(0 0 0)
(-1.08794e-21 0 0)
(-1.41723e-23 -4.65239e-20 0)
(0 0 0)
(-5.45921e-19 0 0)
(-1.33102e-20 -1.11914e-16 8.42776e-20)
(0 0 0)
(-2.50397e-16 -1.26319e-16 0)
(-4.07994e-14 -1.00758e-13 1.0397e-15)
(-1.26319e-16 -4.85571e-16 0)
(-1.07115e-13 -1.55938e-13 1.95794e-15)
(-6.91003e-12 -1.69267e-11 2.96381e-13)
(0 0 0)
(-4.91203e-36 0 0)
(0 0 0)
(0 0 0)
(-1.01649e-32 0 0)
(0 0 0)
(0 0 0)
(-1.66951e-29 0 0)
(0 0 0)
(0 0 0)
(-2.1971e-26 0 0)
(0 0 0)
(0 0 0)
(-2.32241e-23 0 0)
(0 0 0)
(0 0 0)
(-1.95344e-20 0 0)
(0 -1.2752e-18 9.61797e-20)
(0 0 0)
(-1.27243e-17 0 0)
(-1.26319e-15 -4.64435e-15 6.47556e-16)
(0 -1.94419e-17 0)
(-6.17941e-15 -8.50303e-15 1.13687e-15)
(-3.1938e-13 -7.54433e-13 1.90972e-13)
(0 0 0)
(0 0 0)
(0 0 0)
(0 0 0)
(0 0 0)
(0 0 0)
(0 0 0)
(0 0 0)
(0 0 0)
(0 0 0)
(0 0 0)
(0 0 0)
(0 0 0)
(0 0 0)
(0 0 0)
(0 0 0)
(0 0 0)
(0 0 0)
(0 0 0)
(0 0 0)
(0 -3.80176e-18 2.18329e-18)
(0 -3.62336e-20 0)
(0 -2.0186e-17 0)
(-3.03165e-15 -9.03125e-15 4.73951e-15)
(0 0 0)
(0 0 0)
(0 0 0)
(0 0 0)
(0 0 0)
(0 0 0)
(0 0 0)
(0 0 0)
(0 0 0)
(0 0 0)
(0 0 0)
(0 0 0)
(0 0 0)
(0 0 0)
(0 0 0)
(0 0 0)
(0 0 0)
(0 0 0)
(0 0 0)
(0 0 0)
(0 0 7.06067e-21)
(0 -3.04917e-24 0)
(0 -4.64469e-21 0)
(0 -4.83894e-18 4.59426e-18)
(0 0 0)
(0 0 0)
(0 0 0)
(0 0 0)
(0 0 0)
(0 0 0)
(0 0 0)
(0 0 0)
(0 0 0)
(0 0 0)
(0 0 0)
(0 0 0)
(0 0 0)
(0 0 0)
(0 0 0)
(0 0 0)
(0 0 0)
(0 0 0)
(0 0 0)
(0 0 0)
(0 0 1.06915e-23)
(0 -2.26617e-27 0)
(0 -5.64166e-24 0)
(0 -9.05663e-21 3.20549e-21)
(0 0 0)
(0 0 0)
(0 0 0)
(0 0 0)
(0 0 0)
(0 0 0)
(0 0 0)
(0 0 0)
(0 0 0)
(0 0 0)
(0 0 0)
(0 0 0)
(0 0 0)
(0 0 0)
(0 0 0)
(0 0 0)
(0 0 0)
(0 0 0)
(0 0 0)
(0 0 0)
(0 0 2.18507e-26)
(0 0 0)
(0 0 0)
(0 0 1.41135e-23)
(0 0 0)
(0 0 0)
(0 0 0)
(0 0 0)
(0 0 0)
(0 0 0)
(0 0 0)
(0 0 0)
(0 0 0)
(0 0 0)
(0 0 0)
(0 0 0)
(0 0 0)
(0 0 0)
(0 0 0)
(0 0 0)
(0 0 0)
(0 0 0)
(0 0 0)
(0 0 0)
(0 0 2.17084e-30)
(0 0 0)
(0 0 0)
(0 0 1.48611e-27)
(0 0 0)
(0 0 0)
(0 0 0)
(0 0 0)
(0 0 0)
(0 0 0)
(0 0 0)
(0 0 0)
(0 0 0)
(0 0 0)
(0 0 0)
(0 0 0)
(0 0 0)
(0 0 0)
(0 0 0)
(0 0 0)
(0 0 0)
(0 0 0)
(0 0 0)
(0 0 0)
(0 0 8.07033e-38)
(0 0 0)
(0 0 0)
(0 0 1.01156e-34)
(0 0 0)
(0 0 0)
(0 0 0)
(0 0 0)
(0 0 0)
(0 0 0)
(0 0 0)
(0 0 0)
(0 0 0)
(0 0 0)
(0 0 0)
(0 0 0)
(0 0 0)
(0 0 0)
(0 0 0)
(0 0 0)
(0 0 0)
(0 0 0)
(0 0 0)
(0 0 0)
(0 0 0)
(0 0 0)
(0 0 0)
(0 0 0)
(0 0 5.22278e-19)
(0 0 2.95279e-26)
(0 0 1.60465e-19)
(0 0 -1.21658e-21)
(0 0 -1.25481e-20)
(-5.0479e-19 0 -2.92891e-18)
(-2.17724e-16 0 7.01142e-17)
(2.81758e-16 0 2.22159e-18)
(4.5413e-30 -1.76809e-21 -1.68409e-15)
(0 0 0)
(5.16951e-24 0 0)
(0 0 0)
(0 0 -1.01744e-14)
(-5.34494e-25 0 0)
(-5.95476e-30 0 0)
(1.36116e-24 0 0)
(0 0 0)
(-2.97867e-19 0 0)
(-4.24312e-16 0 0)
(0 0 0)
(7.29065e-22 0 0)
(0 0 0)
(0 0 0)
(-7.1031e-23 0 0)
(-7.0853e-28 0 0)
(1.55047e-22 0 0)
(0 0 0)
(-1.20696e-16 0 3.3765e-25)
(-1.17633e-13 -5.43859e-14 -3.78956e-16)
(0 0 0)
(8.55024e-20 0 0)
(0 0 0)
(0 0 0)
(-6.39249e-21 0 0)
(-5.7455e-26 0 0)
(1.24366e-20 0 0)
(0 -1.8657e-17 1.02376e-14)
(0 0 0)
(8.00012e-18 0 0)
(0 -2.06614e-28 0)
(0 -4.68141e-26 2.26693e-19)
(-2.93962e-19 -1.04446e-23 2.30522e-19)
(-2.67915e-24 -5.39503e-21 2.30621e-19)
(4.66232e-19 -1.05431e-18 2.3616e-19)
(-6.56857e-15 -4.51836e-16 9.4246e-20)
(0 0 0)
(5.58932e-16 0 0)
(0 0 0)
(5.17017e-24 0 0)
(0 0 0)
(0 0 0)
(-5.33763e-25 0 0)
(-5.02679e-28 0 0)
(1.32899e-24 0 0)
(0 0 0)
(-2.44982e-19 0 0)
(-5.44264e-16 0 0)
(0 0 0)
(7.29194e-22 0 0)
(0 0 0)
(0 0 0)
(-7.09376e-23 0 0)
(-6.08086e-26 0 0)
(1.51017e-22 0 0)
(0 0 0)
(-1.13404e-16 0 3.58017e-19)
(-1.25411e-13 -5.76358e-14 1.38998e-15)
(0 0 0)
(8.55242e-20 0 0)
(0 0 0)
(0 0 0)
(-6.38493e-21 0 0)
(-5.17985e-24 0 0)
(1.20675e-20 0 0)
(0 -1.64765e-17 3.57941e-19)
(0 0 0)
(8.00327e-18 0 0)
(0 -1.03634e-28 0)
(0 -5.52822e-26 3.46317e-26)
(-2.93485e-19 -1.16431e-23 2.41408e-24)
(-1.11523e-22 -5.6576e-21 4.51047e-28)
(4.55706e-19 -1.05506e-18 0)
(-6.56857e-15 -4.37883e-16 4.62732e-17)
(0 0 0)
(5.59308e-16 0 0)
(0 0 0)
(5.16458e-24 0 0)
(0 0 0)
(0 0 0)
(-5.04414e-25 0 0)
(-1.02696e-26 0 0)
(1.27197e-24 0 0)
(0 0 0)
(-4.82134e-21 0 0)
(-1.52988e-17 0 0)
(0 0 0)
(7.28453e-22 0 0)
(0 0 0)
(0 0 0)
(-6.70448e-23 0 0)
(-1.2503e-24 0 0)
(1.43656e-22 0 0)
(0 0 0)
(-3.67971e-18 0 1.1938e-19)
(-7.29166e-15 -2.90533e-15 8.9642e-16)
(0 0 0)
(8.5445e-20 0 0)
(0 0 0)
(0 0 0)
(-6.03547e-21 0 0)
(-1.07048e-22 0 0)
(1.10765e-20 0 0)
(0 0 1.1936e-19)
(0 0 0)
(7.99688e-18 0 0)
(0 -9.30611e-30 0)
(0 -1.88452e-27 1.56601e-27)
(-2.77475e-19 -3.59414e-25 -5.32e-26)
(-2.34605e-21 -1.55646e-22 -2.21183e-37)
(4.40993e-19 -4.12384e-20 0)
(3.58263e-37 -1.69393e-17 2.91243e-17)
(0 0 0)
(5.58969e-16 0 0)
(0 0 0)
(4.83347e-24 0 0)
(0 0 0)
(0 0 0)
(-7.69299e-33 0 0)
(-2.69221e-28 0 0)
(1.0247e-27 0 0)
(0 0 0)
(-8.41065e-26 0 0)
(-1.37144e-20 0 0)
(0 0 0)
(6.83459e-22 0 0)
(0 0 0)
(0 0 0)
(-2.36502e-30 0 0)
(-4.48898e-26 0 0)
(1.6658e-25 0 0)
(0 0 0)
(-7.98737e-23 0 0)
(-9.28899e-18 0 4.62255e-18)
(0 0 0)
(8.04543e-20 0 0)
(0 0 0)
(0 0 0)
(-5.57833e-28 0 0)
(-5.89266e-24 0 0)
(2.03257e-23 0 0)
(0 0 0)
(0 0 0)
(7.57131e-18 0 0)
(0 0 0)
(0 0 0)
(-8.38703e-26 0 0)
(-5.03694e-22 0 0)
(1.507e-21 0 0)
(0 0 6.44492e-20)
(0 0 -3.60888e-21)
(5.34514e-16 0 -3.21086e-19)
(0 0 0)
(2.82893e-26 0 0)
(0 0 0)
(0 0 0)
(-3.93889e-31 0 0)
(-8.81971e-27 0 0)
(2.86031e-26 0 0)
(0 0 0)
(-7.97993e-29 0 0)
(0 0 0)
(0 0 0)
(5.52738e-24 0 0)
(0 0 0)
(0 0 0)
(-1.39284e-28 0 0)
(-1.72861e-24 0 0)
(5.24189e-24 0 0)
(0 0 0)
(-9.09331e-26 0 0)
(0 0 1.5168e-20)
(0 0 0)
(9.126e-22 0 0)
(0 0 0)
(0 0 0)
(-4.18105e-26 0 0)
(-2.926e-22 0 0)
(7.78458e-22 0 0)
(0 0 0)
(0 0 0)
(1.23415e-19 0 0)
(0 0 0)
(0 0 0)
(-1.04965e-23 0 0)
(-4.13051e-20 0 0)
(8.73063e-20 0 0)
(0 0 0)
(0 0 1.23225e-27)
(1.30484e-17 0 6.83527e-25)
(0 0 0)
(0 0 5.44874e-17)
(-2.18706e-21 0 1.25005e-16)
(-5.17759e-18 0 1.50571e-16)
(6.9493e-18 0 1.13212e-16)
(3.12169e-28 0 2.58148e-17)
(0 0 0)
(-3.00925e-30 0 0)
(0 0 0)
(0 0 0)
(-1.10631e-33 0 0)
(-9.57665e-41 0 0)
(-1.4917e-47 0 0)
(0 0 0)
(0 0 0)
(0 0 0)
(0 0 0)
(-4.3554e-28 0 0)
(0 0 0)
(0 0 0)
(-4.48499e-31 0 0)
(-3.26224e-37 0 0)
(-3.17488e-44 0 0)
(0 0 0)
(0 0 0)
(0 0 0)
(0 0 0)
(-5.34337e-26 0 0)
(0 0 0)
(0 0 0)
(-1.56271e-28 0 0)
(-7.82367e-34 0 0)
(-1.58038e-42 0 0)
(0 0 0)
(0 0 0)
(-5.51245e-24 0 0)
(0 0 0)
(0 0 0)
(-4.58606e-26 0 0)
(-1.37411e-30 0 0)
(-5.31254e-41 0 0)
(0 0 0)
(0 0 0)
(-4.96039e-22 0 0)
(0 0 0)
(0 0 0)
(-1.10311e-23 0 0)
(-1.79032e-27 0 0)
(-1.82213e-39 0 -1.27947e-27)
(4.5254e-30 0 -3.7387e-26)
(0 0 0)
(-4.55851e-33 0 0)
(0 0 0)
(0 0 0)
(-8.78699e-41 0 0)
(1.27345e-57 0 0)
(-7.00917e-45 0 0)
(0 0 0)
(0 0 0)
(0 0 0)
(0 0 0)
(-1.08026e-30 0 0)
(0 0 0)
(0 0 0)
(-5.16395e-38 0 0)
(1.08764e-54 0 0)
(-7.96083e-43 0 0)
(0 0 0)
(0 0 0)
(0 0 0)
(0 0 0)
(-2.29848e-28 0 0)
(0 0 0)
(0 0 0)
(-2.70468e-35 0 0)
(3.77612e-52 0 0)
(-7.0573e-41 0 0)
(0 0 0)
(0 0 0)
(-4.33575e-26 0 0)
(0 0 0)
(0 0 0)
(-1.24959e-32 0 0)
(7.49394e-50 0 0)
(-4.44209e-39 0 0)
(0 0 0)
(0 0 0)
(-7.13328e-24 0 0)
(0 0 0)
(0 0 0)
(-5.01828e-30 0 0)
(1.84185e-47 0 0)
(-1.56458e-37 0 -4.79088e-21)
(0 0 -5.42649e-20)
(0 0 0)
(0 0 0)
(0 0 0)
(0 0 0)
(0 0 0)
(0 0 0)
(-9.97425e-44 0 0)
(0 0 0)
(0 0 0)
(0 0 0)
(0 0 0)
(0 0 0)
(0 0 0)
(0 0 0)
(0 0 0)
(0 0 0)
(-1.18109e-41 0 0)
(0 0 0)
(0 0 0)
(0 0 0)
(0 0 0)
(0 0 0)
(0 0 0)
(0 0 0)
(0 0 0)
(0 0 0)
(-1.11986e-39 0 0)
(0 0 0)
(0 0 0)
(0 0 0)
(0 0 0)
(0 0 0)
(0 0 0)
(0 0 0)
(-7.98653e-38 0 0)
(0 0 0)
(0 0 0)
(0 0 0)
(0 0 0)
(0 0 0)
(0 0 0)
(0 0 0)
(-3.82984e-36 0 0)
(0 0 0)
(0 0 0)
(0 0 0)
(0 0 0)
(0 0 0)
(0 0 0)
(0 0 0)
(0 0 0)
(0 0 0)
(0 0 0)
(0 0 0)
(0 0 0)
(0 0 0)
(0 0 0)
(0 0 0)
(0 0 0)
(0 0 0)
(0 0 0)
(0 0 0)
(0 0 0)
(0 0 0)
(0 0 0)
(0 0 0)
(0 0 0)
(0 0 0)
(0 0 0)
(0 0 0)
(0 0 0)
(0 0 0)
(0 0 0)
(0 0 0)
(0 0 0)
(0 0 0)
(0 0 0)
(0 0 0)
(0 0 0)
(0 0 0)
(0 0 0)
(0 0 0)
(0 0 0)
(0 0 0)
(0 0 0)
(0 0 0)
(0 0 0)
(0 0 0)
(0 0 0)
(0 0 0)
(0 0 0)
(0 0 0)
(0 0 0)
(0 0 0)
(0 0 0)
(0 0 0)
(0 0 0)
(0 0 0)
(0 0 0)
(0 0 0)
(0 0 0)
(0 0 0)
(0 0 0)
(0 0 0)
(0 0 0)
(0 0 0)
(0 0 0)
(0 0 0)
(0 0 0)
(0 0 0)
(0 0 0)
(0 0 0)
(0 0 0)
(0 0 0)
(0 0 0)
(0 0 0)
(0 0 0)
(0 0 0)
(0 0 0)
(0 0 0)
(0 0 0)
(0 0 0)
(0 0 0)
(0 0 0)
(0 0 0)
(0 0 0)
(0 0 0)
(0 0 0)
(0 0 0)
(0 0 0)
(0 0 0)
(0 0 0)
(-4.68831e-14 -8.33555e-15 3.98811e-21)
(-7.78891e-12 -1.8381e-12 -6.04378e-14)
(-1.30321e-12 -1.79895e-13 -6.37934e-15)
(-1.92017e-10 -2.94895e-11 -2.29113e-12)
(-4.93958e-14 -8.43089e-15 3.15797e-16)
(-8.92504e-12 -2.07639e-12 1.44252e-13)
(-1.40228e-12 -1.72172e-13 1.86263e-14)
(-2.34062e-10 -3.06585e-11 4.3259e-12)
(-2.13184e-15 0 1.89478e-16)
(-5.17374e-13 -1.1957e-13 1.00242e-13)
(-8.39108e-14 -6.77681e-15 1.32979e-14)
(-1.03121e-11 -1.32637e-12 2.38278e-12)
(-1.78989e-19 0 0)
(-4.67379e-15 -7.53133e-16 2.34067e-15)
(-2.85976e-16 0 7.63807e-17)
(-1.71518e-13 -2.04292e-14 7.28053e-14)
(-8.13092e-23 0 0)
(0 -9.53863e-19 9.29772e-18)
(-5.59693e-20 0 0)
(-5.05275e-16 -6.36734e-17 4.40329e-16)
(-1.16504e-17 -5.80323e-21 2.79134e-18)
(-7.16765e-15 -2.19441e-18 5.90619e-15)
(0 0 0)
(0 0 0)
(0 0 0)
(0 0 7.15923e-19)
(0 0 0)
(-6.85104e-20 0 7.33859e-18)
(0 0 0)
(0 0 0)
(0 0 0)
(0 0 0)
(0 0 -3.24899e-26)
(0 0 2.53845e-24)
(0 0 0)
(0 0 0)
(0 0 0)
(0 0 0)
(0 0 0)
(0 0 0)
(0 0 0)
(0 0 0)
(0 0 0)
(0 0 0)
(0 0 0)
(0 0 0)
(0 0 0)
(0 0 0)
(0 0 0)
(0 0 0)
(0 0 0)
(0 0 0)
(-1.83489e-11 -1.47332e-13 4.01196e-11)
(-1.16018e-13 -6.09154e-18 3.34358e-13)
(0 5.50506e-21 1.50408e-15)
(0 1.37429e-23 1.43282e-20)
(0 5.47097e-26 0)
(-1.01758e-09 -3.15779e-10 -1.73338e-11)
(-5.68733e-08 -3.09285e-08 -1.78416e-09)
(-5.13986e-05 -5.57113e-05 -2.01765e-06)
(-2.49745e-08 -3.89829e-09 -6.94113e-10)
(-0.000759752 -9.35175e-05 -7.48886e-05)
(-3855.64 -1926.58 -1282.4)
(-1.23314e-09 -3.99985e-10 3.1411e-11)
(-4.45894e-08 -2.42188e-08 2.83707e-09)
(-1.96096e-05 -1.99679e-05 3.78126e-06)
(-3.61604e-08 -5.15376e-09 1.01221e-09)
(-0.000192362 -2.33431e-05 1.86944e-05)
(-2573.23 -1256.6 1555.53)
(-5.52604e-11 -1.69867e-11 1.29998e-11)
(-5.09298e-09 -2.2782e-09 1.66192e-09)
(-1.1045e-06 -8.02066e-07 9.1417e-07)
(-8.49719e-10 -1.34999e-10 2.23938e-10)
(-8.03858e-08 -1.14531e-08 2.82378e-08)
(-1.21115e-05 -6.02146e-06 1.06342e-05)
(-7.60776e-13 -2.44546e-13 4.34671e-13)
(-6.36487e-11 -2.89349e-11 4.81788e-11)
(-3.94449e-09 -3.026e-09 4.80129e-09)
(-1.70769e-11 -2.68928e-12 9.08046e-12)
(-1.19481e-09 -2.4142e-10 8.71589e-10)
(-9.83177e-08 -2.16563e-08 9.92031e-08)
(-5.18639e-15 -1.1361e-15 4.358e-15)
(-5.26676e-13 -2.39632e-13 6.01551e-13)
(-2.38547e-11 -1.90046e-11 4.53745e-11)
(-1.74976e-13 -2.36394e-14 1.43102e-13)
(-1.32323e-11 -2.75281e-12 1.43413e-11)
(-5.57436e-10 -1.79408e-10 9.3961e-10)
(-7.96251e-13 -5.54535e-15 6.37697e-13)
(-5.4601e-11 -3.7207e-13 5.83517e-11)
(-4.81548e-20 0 0)
(-2.03873e-15 -3.78765e-16 4.80011e-15)
(-1.51853e-13 -1.15875e-13 3.75089e-13)
(-1.55257e-16 0 6.94753e-16)
(-9.50323e-14 -1.71327e-14 1.37831e-13)
(-4.282e-12 -1.41415e-12 9.90076e-12)
(-5.01739e-15 0 5.48405e-15)
(-4.5265e-13 -1.89478e-15 6.31487e-13)
(0 0 0)
(-8.96367e-21 0 0)
(0 -7.19673e-17 1.45631e-15)
(0 0 0)
(-7.70091e-18 0 2.52637e-16)
(-2.42073e-14 -6.04424e-15 7.14093e-14)
(0 0 1.82682e-21)
(-1.75826e-15 0 3.95617e-15)
(0 0 0)
(0 0 0)
(0 -1.4742e-19 6.77459e-20)
(0 0 0)
(0 0 0)
(0 -7.93862e-19 5.10243e-17)
(0 0 0)
(0 0 0)
(0 0 0)
(0 0 0)
(0 -2.1453e-22 1.33927e-26)
(0 0 0)
(0 0 0)
(0 0 6.19954e-22)
(0 0 0)
(0 0 0)
(0 0 0)
(0 0 0)
(0 -1.61607e-25 0)
(0 0 0)
(0 0 0)
(0 0 0)
(0 0 0)
(0 0 0)
(-5.16673e-06 -2.88014e-06 2.59246e-05)
(-6.72799e-08 -4.70003e-08 3.43144e-07)
(-5.65989e-15 -9.94332e-19 1.69408e-15)
(-7.61928e-13 -3.61764e-15 3.41696e-13)
(-6.88803e-11 -4.66992e-13 3.69713e-11)
(-7.33193e-09 -2.59917e-11 5.72237e-09)
(-109.228 -70.0195 -25.6031)
(-1062.68 -782.116 -302.985)
(-3550.86 -2161.29 -998.592)
(-0.0755068 -0.0106956 -0.00791042)
(-7.3271 -1.66297 -0.366899)
(-1.36559e-05 -5.82875e-06 -2.29855e-06)
(-0.000892045 -0.000408334 -2.24177e-05)
(-167.582 -135.115 6.56064)
(-1.92148 -1.28 0.633547)
(-5782.46 -2380.51 1484.14)
(-0.0730856 -0.0112486 0.0164631)
(-9.25182 -2.13669 0.137998)
(-0.00108521 -0.000510615 6.28646e-06)
(-9.57925e-06 -4.23021e-06 2.53716e-06)
(-5802 -2454.33 -1637.26)
(-3926.3 -2346.75 -423.287)
(-5614.47 -2270.36 -590.122)
(-2582.62 -1162.95 -268.326)
(-2101.43 -964.241 -559.644)
(-567.483 -335.808 -154.235)
(-865.965 -508.126 -85.9376)
(-3899.68 -2365.17 991.817)
(-4067.82 -2428.73 258.742)
(-5650.9 -2253.24 391.382)
(-2769.03 -1238.31 144.095)
(-2503.91 -1127.76 585.319)
(-976.444 -579.953 42.4128)
(-791.006 -474.506 184.481)
(-391.038 -196.166 279.052)
(-0.00255024 -0.000464808 0.00230121)
(-0.0511015 -0.0319498 0.0252982)
(-1.03725e-05 -2.26447e-06 7.86889e-06)
(-0.00203929 -0.000283179 0.00075496)
(-8.58849e-06 -3.63016e-06 3.28582e-06)
(-5.9403e-07 -1.91536e-07 3.6711e-07)
(-1.13771e-06 -1.13923e-06 4.18384e-06)
(-4.19233 -2.92865 12.599)
(-0.0389644 -0.0391583 0.139742)
(-1.16677e-05 -8.06154e-06 2.30424e-05)
(-1.08225e-07 -7.71512e-08 3.31582e-07)
(-0.000607502 -0.000162078 0.00114116)
(-9.18636e-07 -3.6745e-07 2.08994e-06)
(-1215.05 -790.786 -384.538)
(-2404.04 -1517.42 -1021.05)
(-5064.04 -2302.59 -2069.85)
(-342.419 -154.854 -96.5972)
(-1090.28 -529.107 -451.779)
(-178.807 -97.8313 -64.3214)
(-38.2209 -15.612 -7.12938)
(-774.747 -503.264 468.403)
(-5027.89 -2247.94 2253.9)
(-2653.23 -1679.73 1202.44)
(-255.211 -114.765 135.487)
(-1385.78 -655.85 599.578)
(-279.681 -160.722 114.683)
(-26.33 -11.0648 10.1292)
(-1.57099e-06 -1.19491e-06 -8.58455e-08)
(-1.45073e-05 -1.45793e-05 -2.35314e-06)
(-3.87992e-07 -2.88458e-07 -4.2226e-08)
(-0.066553 -0.0466811 -0.00753186)
(-2.46616 -1.94818 -0.367003)
(-1.13455e-05 -6.52538e-06 -1.47854e-06)
(-3.72572e-05 -2.10983e-05 -1.13525e-06)
(-4.78882e-07 -3.69316e-07 6.56751e-08)
(-6.40051e-05 -6.86446e-05 7.977e-07)
(-2.04214e-06 -1.55621e-06 7.54503e-08)
(-5.97339 -4.87868 0.126356)
(-0.0386337 -0.0295572 0.0111942)
(-4.62937e-05 -2.66863e-05 4.31019e-07)
(-1.51426e-05 -9.33638e-06 2.47989e-06)
(-110.06 -88.6363 24.0248)
(-1314.79 -979.145 329.8)
(-1555.45 -1154.54 80.322)
(-4.41046 -2.73936 0.0778185)
(-102.672 -65.5751 3.21968)
(-69.398 -43.4787 12.7033)
(-2.6061 -1.6232 0.31521)
(-1.13404e-05 -1.89487e-06 2.72691e-07)
(-0.135572 -0.0223861 0.00113499)
(-1.86575e-06 -2.53408e-07 2.39353e-07)
(-1.28817e-06 -3.16568e-07 1.925e-08)
(-8.12418e-05 -2.82276e-05 1.35082e-06)
(-9.8977e-08 -4.19623e-08 1.69278e-08)
(-9.42542e-06 -3.67326e-06 1.45336e-06)
(-79.8457 -61.9858 -18.5104)
(-146.758 -116.729 -12.0582)
(-1445.84 -1062.2 -144.082)
(-47.0577 -27.3358 -9.09143)
(-3.76126 -2.26702 -0.168423)
(-1.76887 -1.03287 -0.229634)
(-87.2433 -54.1594 -6.5708)
(-335.456 -145.357 11.8958)
(-5.87218 -1.25087 0.629536)
(-243.426 -101.523 50.5364)
(-0.739427 -0.205659 0.00787841)
(-41.062 -17.3481 0.898646)
(-28.4666 -11.2315 3.96354)
(-0.455207 -0.120155 0.0398253)
(-1.01169e-06 -1.81039e-07 -1.19084e-07)
(-7.85904e-06 -1.36177e-06 -3.38518e-07)
(-0.0444256 -0.00687984 -0.0039862)
(-6.9689e-08 -2.25659e-08 -1.06103e-08)
(-5.90531e-06 -2.09446e-06 -8.95278e-07)
(-9.41756e-07 -2.22406e-07 -2.32993e-08)
(-6.00145e-05 -2.01335e-05 -1.91121e-06)
(-281.005 -120.31 -26.6017)
(-3.32397 -0.680191 -0.393881)
(-152.952 -59.948 -35.0017)
(-17.8459 -6.40167 -2.68153)
(-0.587099 -0.159071 -0.022985)
(-0.264025 -0.0662742 -0.0259434)
(-33.9092 -13.767 -2.12635)
(-426.976 -310.711 -178.899)
(-3.82453 -2.25075 -0.514946)
(-20.5456 -14.475 -5.09024)
(-11.4398 -5.52304 -2.36159)
(-0.0431578 -0.0209033 -0.00447477)
(-0.332086 -0.180298 -0.0490082)
(-1.77518 -0.700186 -0.215616)
(-27.7235 -21.0362 8.0497)
(-59.567 -39.6707 28.5157)
(-549.403 -411.2 251.901)
(-17.4022 -9.39853 4.24663)
(-0.0280154 -0.0157441 0.00730829)
(-0.502068 -0.298976 0.0849412)
(-1.10622 -0.506575 0.32227)
(-5.81341 -1.27115 1.7094)
(-1.1888 -0.212446 0.183423)
(-66.0551 -21.8363 19.5334)
(-6.58995 -2.1382 1.29139)
(-0.00467575 -0.00111017 0.00101212)
(-0.084006 -0.0208667 0.0110443)
(-0.395079 -0.10925 0.09974)
(-42.9266 -21.6653 27.8026)
(-10.7187 -3.35239 9.23891)
(-11.2138 -2.97527 6.03)
(-0.806874 -0.300096 0.653609)
(-0.787081 -0.251397 0.376735)
(-0.195952 -0.0398659 0.138382)
(-0.0130429 -0.0038495 0.00869894)
(-7.06081 -1.49628 -1.00283)
(-0.643182 -0.110224 -0.0870418)
(-40.9361 -12.2299 -10.0412)
(-3.68111 -1.11412 -0.614985)