/*--------------------------------*- C++ -*----------------------------------*\
  =========                 |
  \\      /  F ield         | OpenFOAM: The Open Source CFD Toolbox
   \\    /   O peration     | Website:  https://openfoam.org
    \\  /    A nd           | Version:  9
     \\/     M anipulation  |
\*---------------------------------------------------------------------------*/
FoamFile
{
    format      ascii;
    class       volScalarField;
    location    "0.00025";
    object      T;
}
// * * * * * * * * * * * * * * * * * * * * * * * * * * * * * * * * * * * * * //

dimensions      [0 0 0 1 0 0 0];

internalField   nonuniform List<scalar> 
4631
(
287.926
287.926
287.926
287.926
287.926
287.926
287.926
287.926
287.926
287.926
287.926
287.926
287.926
287.926
287.926
287.926
287.926
287.926
287.926
287.926
287.926
287.926
287.926
287.926
287.972
287.926
288.532
287.926
287.926
288.215
287.926
287.926
287.928
287.926
287.926
288.08
287.926
287.928
287.926
287.926
287.926
288.396
287.926
287.926
287.926
287.926
287.926
287.926
287.926
287.926
287.926
287.926
287.926
287.926
287.926
287.926
287.926
287.926
287.926
287.926
287.926
287.926
287.926
287.926
287.926
287.926
287.926
287.926
287.926
287.926
287.926
287.926
287.926
287.926
287.926
287.926
287.926
287.926
287.926
287.926
287.926
287.926
287.926
287.926
287.926
287.926
287.926
287.926
287.926
287.926
287.926
287.926
287.926
287.926
287.926
287.926
287.926
287.926
287.926
287.926
287.926
287.926
287.926
287.926
287.926
287.926
287.926
287.926
287.926
287.926
287.926
287.926
287.926
287.926
287.926
287.926
287.926
287.926
287.926
287.926
287.926
287.926
287.926
287.926
287.926
287.926
287.926
287.926
287.926
287.926
287.926
287.926
287.926
287.926
287.926
287.926
287.926
287.926
287.926
287.926
287.926
287.926
287.926
287.926
287.926
287.926
287.926
287.926
287.926
287.926
287.926
287.926
287.926
287.926
287.926
287.926
287.926
287.926
287.926
287.926
287.926
287.926
287.926
287.926
287.926
287.926
287.926
287.926
287.926
287.926
287.926
287.926
287.926
287.926
287.926
287.926
287.926
287.926
287.926
287.926
287.926
287.926
287.926
287.926
287.926
287.926
287.926
287.926
287.926
287.926
287.926
287.926
287.926
287.926
287.926
287.926
287.926
287.926
287.926
287.926
287.926
287.926
287.926
287.926
287.926
287.926
287.926
287.926
287.926
287.926
287.926
287.926
287.926
287.926
287.926
287.926
287.926
287.926
287.926
287.926
287.926
287.926
287.926
287.926
287.926
287.926
287.926
287.926
287.926
287.926
287.926
287.926
287.926
287.926
287.926
287.926
287.926
287.926
287.926
287.926
287.926
287.926
287.926
287.926
287.926
287.926
287.926
287.926
287.926
287.926
287.926
287.926
287.926
287.926
287.926
287.926
287.926
287.926
287.926
287.926
287.926
287.926
287.926
287.926
287.926
287.926
287.926
287.926
287.926
287.926
287.926
287.926
287.926
287.926
287.926
287.926
287.926
287.926
287.926
287.926
287.926
287.926
287.926
287.926
287.926
287.926
287.926
287.926
287.926
287.926
287.926
287.926
287.926
287.926
287.926
287.926
287.926
287.926
287.926
287.926
287.926
287.926
287.926
287.926
287.926
287.926
287.926
287.926
287.926
287.926
287.926
287.926
287.926
287.926
287.926
287.926
287.926
287.926
287.926
287.926
287.926
287.926
287.926
287.926
287.926
287.926
287.926
287.926
287.926
287.926
287.926
287.926
287.926
287.926
287.926
287.926
287.926
287.926
287.926
287.926
287.926
287.926
287.926
287.926
287.926
287.926
287.926
287.926
287.926
287.926
287.926
287.926
287.926
287.926
287.926
287.926
287.926
287.926
287.926
287.926
287.926
287.926
287.926
287.926
287.926
287.926
287.926
287.926
287.926
287.926
287.926
287.926
287.926
287.926
287.926
287.926
287.926
287.926
287.926
287.926
287.926
287.926
287.926
287.926
287.926
287.926
287.926
287.926
287.926
287.926
287.926
287.926
287.926
287.926
287.926
287.926
287.926
287.926
287.926
287.926
287.926
287.926
287.926
287.926
287.926
287.926
287.926
287.926
287.926
287.926
287.926
287.926
287.926
287.926
287.926
287.926
287.926
287.926
287.926
287.926
287.926
287.926
287.926
287.926
287.926
287.926
287.926
287.926
287.926
287.926
287.926
287.926
287.926
287.926
287.926
287.926
287.926
287.926
287.926
287.926
287.926
287.926
287.926
287.926
287.926
287.926
287.926
287.926
287.926
287.926
287.926
287.926
287.926
287.926
287.926
287.926
287.926
287.926
287.926
287.926
287.926
287.926
287.926
287.926
287.926
287.926
287.926
287.926
287.926
287.926
287.926
287.926
287.926
287.926
287.926
287.926
287.926
287.926
287.926
287.926
287.926
287.926
287.926
287.926
287.926
287.926
287.926
287.926
287.926
287.926
287.926
287.926
287.926
287.926
287.926
287.926
287.926
287.926
287.926
287.926
287.926
287.926
287.926
287.926
287.926
287.926
287.926
287.926
287.926
287.926
287.926
287.926
287.926
287.926
287.926
287.926
287.926
287.926
287.926
287.926
287.926
287.926
287.926
287.926
287.926
287.926
287.926
287.926
287.926
287.926
287.926
287.926
287.926
287.926
287.926
287.926
287.926
287.926
287.926
287.926
287.926
287.926
287.926
287.926
287.926
287.926
287.926
287.926
287.926
287.926
287.926
287.926
287.926
287.926
287.926
287.926
287.926
287.926
287.926
287.926
287.926
287.926
287.926
287.926
287.926
287.926
287.926
287.926
287.926
287.926
287.926
287.926
287.926
287.926
287.926
287.926
287.926
287.926
287.926
287.926
287.926
287.926
287.926
287.926
287.926
287.926
287.926
287.926
287.926
287.926
287.926
287.926
287.926
287.926
287.926
287.926
287.926
287.926
287.926
287.926
287.926
287.926
287.926
287.926
287.926
287.926
287.926
287.926
287.926
287.926
287.926
287.926
287.926
287.926
287.926
287.926
287.926
287.926
287.926
287.926
287.926
287.926
287.926
287.926
287.926
287.926
287.926
287.926
287.926
287.926
287.926
287.926
287.926
287.926
287.926
287.926
287.926
287.926
287.926
287.926
287.926
287.926
287.926
287.926
287.926
287.926
287.926
287.926
287.926
287.926
287.926
287.926
287.926
287.926
287.926
287.926
287.926
287.926
287.926
287.926
287.926
287.926
287.926
287.926
287.926
287.926
287.926
287.926
287.926
287.926
287.926
287.926
287.926
287.926
287.926
287.926
287.926
287.926
287.926
287.926
287.926
287.926
287.926
287.926
287.926
287.926
287.926
287.926
287.926
287.926
287.926
287.926
287.926
287.926
287.926
287.926
287.926
287.926
287.926
287.926
287.926
287.926
287.926
287.926
287.926
287.926
287.926
287.926
287.926
287.926
287.926
287.926
287.926
287.926
287.926
287.926
287.926
287.926
287.926
287.926
287.926
287.926
287.926
287.926
287.926
287.926
287.926
287.926
287.926
287.926
287.926
287.926
287.926
287.926
287.926
287.926
287.926
287.926
287.926
287.926
287.926
287.926
287.926
287.926
287.926
287.926
287.926
287.926
287.926
287.926
287.926
287.926
287.926
287.926
287.926
287.926
287.926
287.926
287.926
287.926
287.926
287.926
287.926
287.926
287.926
287.926
287.926
287.926
287.926
287.926
287.926
287.926
287.926
287.926
287.926
287.926
287.926
287.926
287.926
287.926
287.926
287.926
287.926
287.926
287.926
287.926
287.926
287.926
287.926
287.926
287.926
287.926
287.926
287.926
287.926
287.926
287.926
287.926
287.926
287.926
287.926
287.926
287.926
287.926
287.926
287.926
287.926
287.926
287.926
287.926
287.926
287.926
287.926
287.926
287.926
287.926
287.926
287.926
287.926
287.926
287.926
287.926
287.926
287.926
287.926
287.926
287.926
287.926
287.926
287.926
287.926
287.926
287.926
287.926
287.926
287.926
287.926
287.926
287.926
287.926
287.926
287.926
287.926
287.926
287.926
287.926
287.926
287.926
287.926
287.926
287.926
287.926
287.926
287.926
287.926
287.926
287.926
287.926
287.926
287.926
287.926
287.926
287.926
287.926
287.926
287.926
287.926
287.926
287.926
287.926
287.926
287.926
287.926
287.926
287.926
287.926
287.926
287.926
287.926
287.926
287.926
287.926
287.926
287.926
287.926
287.926
287.926
287.926
287.926
287.926
287.926
287.926
287.926
287.926
287.926
287.926
287.926
287.926
287.926
287.926
287.926
287.926
287.926
287.926
287.926
287.926
287.926
287.926
287.926
287.926
287.926
287.926
287.926
287.926
287.926
287.926
287.926
287.926
287.926
287.926
287.926
287.926
287.926
287.926
287.926
287.926
287.926
287.926
287.926
287.926
287.926
287.926
287.926
287.926
287.926
287.926
287.926
287.926
287.926
287.926
287.926
287.926
287.926
287.926
287.926
287.926
287.926
287.926
287.926
287.926
287.926
287.926
287.926
287.926
287.926
287.926
287.926
287.926
287.926
287.926
287.926
287.926
287.926
287.926
287.926
287.926
287.926
287.926
287.926
287.926
287.926
287.926
287.926
287.926
287.926
287.926
287.926
287.926
287.926
287.926
287.926
287.926
287.926
287.926
287.926
287.926
287.926
287.926
287.926
287.926
287.926
287.926
287.926
287.926
287.926
287.926
287.926
287.926
287.926
287.926
287.926
287.926
287.926
287.926
287.926
287.926
287.926
287.926
287.926
287.926
287.926
287.926
287.926
287.926
287.926
287.926
287.926
287.926
287.926
287.926
287.926
287.926
287.926
287.926
287.926
287.926
287.926
287.926
287.926
287.926
287.926
287.926
287.926
287.926
287.926
287.926
287.926
287.926
287.926
287.926
287.926
287.926
287.926
287.926
287.926
287.926
287.926
287.926
287.926
287.926
287.926
287.926
287.926
287.926
287.926
287.926
287.926
287.926
287.926
287.926
287.926
287.926
287.926
287.926
287.926
287.926
287.926
287.926
287.926
287.926
287.926
287.926
287.926
287.926
287.926
287.926
287.926
287.926
287.926
287.926
287.926
287.926
287.926
287.926
287.926
287.926
287.926
287.926
287.926
287.926
287.926
287.926
287.926
287.926
287.926
287.926
287.926
287.926
287.926
287.926
287.926
287.926
287.926
287.926
287.926
287.926
287.926
287.926
287.926
287.926
287.926
287.926
287.926
287.926
287.926
287.926
287.926
287.926
287.926
287.926
287.926
287.926
287.926
287.926
287.926
287.926
287.926
287.926
287.926
287.926
287.926
287.926
287.926
287.926
287.926
287.926
287.926
287.926
287.926
287.926
287.926
287.926
287.926
287.926
287.926
287.926
287.926
287.926
287.926
287.926
287.926
287.926
287.926
287.926
287.926
287.926
287.926
287.926
287.926
287.926
287.926
287.926
287.926
287.926
287.926
287.926
287.926
287.926
287.926
287.926
287.926
287.926
287.926
287.926
287.926
287.926
287.926
287.926
287.926
287.926
287.926
287.926
287.926
287.926
287.926
287.926
287.926
287.926
287.926
287.926
287.926
287.926
287.926
287.926
287.926
287.926
287.926
287.926
287.926
287.926
287.926
287.926
287.926
287.926
287.926
287.926
287.926
287.926
287.926
287.926
287.926
287.926
287.926
287.926
287.926
287.926
287.926
287.926
287.926
287.926
287.926
287.926
287.926
287.926
287.926
287.926
287.926
287.926
287.926
287.926
287.926
287.926
287.926
287.926
287.926
287.926
287.926
287.926
287.926
287.926
287.926
287.926
287.926
287.926
287.926
287.926
287.926
287.926
287.926
287.926
287.926
287.926
287.926
287.926
287.926
287.926
287.926
287.926
287.926
287.926
287.926
287.926
287.926
287.926
287.926
287.926
287.926
287.926
287.926
287.926
287.926
287.926
287.926
287.926
287.926
287.926
287.926
287.926
287.926
287.926
287.926
287.926
287.926
287.926
287.926
287.926
287.926
287.926
287.926
287.926
287.926
287.926
287.926
287.926
287.926
287.926
287.926
287.926
287.926
287.926
287.926
287.926
287.926
287.926
287.926
287.926
287.926
287.926
287.926
287.926
287.926
287.926
287.926
287.926
287.926
287.926
287.926
287.926
287.926
287.926
287.926
287.926
287.926
287.926
287.926
287.926
287.926
287.926
287.926
287.926
287.926
287.926
287.926
287.926
287.926
287.926
287.926
287.926
287.926
287.926
287.926
287.926
287.926
287.926
287.926
287.926
287.926
287.926
287.926
287.926
287.926
287.926
287.926
287.926
287.926
287.926
287.926
287.926
287.926
287.926
287.926
287.926
287.926
287.926
287.926
287.926
287.926
287.926
287.926
287.926
287.926
287.926
287.926
287.926
287.926
287.926
287.926
287.926
287.926
287.926
287.926
287.926
287.926
287.926
287.926
287.926
287.926
287.926
287.926
287.926
287.926
287.926
287.926
287.926
287.926
287.926
287.926
287.926
287.926
287.926
287.926
287.926
287.926
287.926
287.926
287.926
287.926
287.926
287.926
287.926
287.926
287.926
287.926
287.926
287.926
287.926
287.926
287.926
287.926
287.926
287.926
287.926
287.926
287.926
287.926
287.926
287.926
287.926
287.926
287.926
287.926
287.926
287.926
287.926
287.926
287.926
287.926
287.926
287.926
287.926
287.926
287.926
287.926
287.926
287.926
287.926
287.926
287.926
287.926
287.926
287.926
287.926
287.926
287.926
287.926
287.926
287.926
287.926
287.926
287.926
287.926
287.926
287.926
287.926
287.926
287.926
287.926
287.926
287.926
287.926
287.926
287.926
287.926
287.926
287.926
287.926
287.926
287.926
287.926
287.926
287.926
287.926
287.926
287.926
287.926
287.926
287.926
287.926
287.926
287.926
287.926
287.926
287.926
287.926
287.926
287.926
287.926
287.926
287.926
287.926
287.926
287.926
287.926
287.926
287.926
287.926
287.926
287.926
287.926
287.926
287.926
287.926
287.926
287.926
287.926
287.926
287.926
287.926
287.926
287.926
287.926
287.926
287.926
287.926
287.926
287.926
287.926
287.926
287.926
287.926
287.926
287.926
287.926
287.926
287.926
287.926
287.926
287.926
287.926
287.926
287.926
287.926
287.926
287.926
287.926
287.926
287.926
287.926
287.926
287.926
287.926
287.926
287.926
287.926
287.926
287.926
287.926
287.926
287.926
287.926
287.926
287.926
287.926
287.926
287.926
287.926
287.926
287.926
287.926
287.926
287.926
287.926
287.926
287.926
287.926
287.926
287.926
287.926
287.926
287.926
287.926
287.926
287.926
287.926
287.926
287.926
287.926
287.926
287.926
287.926
287.926
287.926
287.926
287.926
287.926
287.926
287.926
287.926
287.926
287.926
287.926
287.926
287.926
287.926
287.926
287.926
287.926
287.926
287.926
287.926
287.926
287.926
287.926
287.926
287.926
287.926
287.926
287.926
287.926
287.926
287.926
287.926
287.926
287.926
287.926
287.926
287.926
287.926
287.926
287.926
2460.68
287.926
287.926
287.926
287.926
287.926
1998.14
287.926
287.926
287.926
287.926
287.926
287.926
287.926
287.926
287.926
287.926
287.926
287.926
287.926
287.926
287.926
287.926
287.926
287.926
287.926
287.926
287.926
287.926
287.926
287.926
287.926
287.926
287.926
287.926
287.926
287.926
287.926
287.926
287.926
287.926
287.926
287.926
287.926
287.926
287.926
287.926
287.926
287.926
287.926
287.926
287.926
287.926
287.926
287.926
287.926
287.926
287.926
287.926
287.926
287.926
287.926
287.926
287.926
287.926
287.926
287.926
287.926
287.926
287.926
287.926
287.926
287.926
465.885
1393.24
1986.96
287.961
293.265
287.926
287.926
547.363
289.457
2032.33
287.959
294.905
287.926
287.926
1956.76
1984.95
1862.05
1855.76
1768.61
1027.55
1231.61
2105.17
2030.61
1890.63
1922.73
1942.66
1307.6
1227.95
889.756
287.927
287.955
287.926
287.926
287.926
287.926
287.926
298.994
287.998
287.926
287.926
287.926
287.926
1663.22
1883.13
2111.08
825.324
1431.69
564.216
333.365
1262.59
2163.79
1987.25
682.747
1605.22
711.808
316.458
287.926
287.926
287.926
287.964
289.97
287.926
287.926
287.926
287.926
287.926
293.487
287.948
287.926
287.926
460.902
1549.58
1602.37
291.437
429.797
380.977
289.901
287.926
287.987
287.926
287.926
287.926
287.926
287.926
407.601
515.22
1547.9
345.253
290.838
289.174
405.97
741.23
292.148
637.117
288.327
331.324
316.404
288.166
287.926
287.926
287.945
287.926
287.926
287.926
287.926
672.958
290.112
504.706
304.012
288.238
288.058
322.262
923.866
291.231
311.213
298.412
287.947
288.122
289.161
321.698
374.346
1053.97
305.334
287.94
288.241
288.662
292.412
288.617
371.68
293.08
287.927
287.965
288.144
347.044
300.236
298.699
288.565
288.443
288.049
287.932
293.635
288.276
333.752
290.544
287.928
287.946
288.203
287.926
287.926
287.926
287.926
287.926
287.926
287.926
287.926
287.926
287.926
287.926
287.926
287.926
287.926
287.926
287.926
287.926
287.926
288.227
289.406
288.651
287.932
287.941
287.933
287.929
289.153
288.503
288.007
287.979
287.935
287.93
287.926
287.926
287.926
287.926
287.926
287.926
287.926
287.926
288.532
289.364
288.569
287.932
287.932
287.928
287.94
287.927
288.302
287.93
289.107
288.426
287.931
287.938
287.931
287.928
288.191
289.287
288.637
287.939
287.933
288.439
287.955
287.937
287.926
287.938
287.93
289.123
287.961
287.94
289.421
288.797
287.926
287.945
287.934
292.659
287.994
287.978
287.954
287.947
287.926
287.927
290.994
288.007
287.988
287.968
287.959
287.926
287.927
287.93
287.934
288.026
287.927
287.926
287.926
287.926
287.972
287.932
288.038
287.927
287.926
287.926
287.926
287.926
287.928
287.969
287.932
288.04
287.927
287.926
287.926
287.926
287.926
287.926
287.926
287.926
287.926
288.067
287.926
287.926
287.926
287.929
287.927
287.932
289.522
287.926
287.945
287.926
287.94
287.926
287.926
288.412
287.926
287.932
287.926
287.931
287.926
287.926
287.949
287.926
287.926
287.932
288.002
287.926
287.926
287.926
287.926
287.926
287.926
287.926
287.926
287.926
287.926
287.926
287.926
287.926
287.926
287.926
287.926
288.005
287.926
287.926
287.926
287.927
287.926
287.934
287.926
287.927
288.03
287.926
287.932
287.926
287.926
287.926
288.013
287.927
287.926
287.93
287.926
287.926
287.928
287.926
287.928
287.926
287.926
287.926
287.926
288.253
287.926
287.926
287.93
287.929
287.926
287.926
287.926
287.926
287.961
287.93
287.928
287.926
287.926
287.926
287.973
287.926
287.929
287.927
287.926
287.926
287.945
287.926
287.927
287.926
287.926
287.926
287.926
287.929
287.926
287.926
287.926
287.926
287.926
287.926
287.926
287.926
287.932
287.926
287.926
287.926
287.926
287.926
287.926
287.926
287.926
287.926
287.926
287.926
287.926
287.926
287.926
287.926
287.926
287.926
287.926
287.926
287.926
287.926
287.926
287.926
287.926
287.926
287.926
287.926
287.926
287.926
287.926
287.926
287.926
287.926
287.926
287.926
287.926
287.926
287.926
287.926
287.926
287.926
287.926
287.926
287.926
287.926
287.926
287.926
287.926
287.926
287.926
287.926
287.926
287.926
287.926
287.926
287.926
287.926
287.926
287.926
287.926
287.926
287.926
287.926
287.926
287.926
287.926
287.926
287.926
287.926
287.926
287.926
287.926
287.926
287.926
287.926
287.926
287.926
287.926
287.926
287.926
287.926
287.926
287.927
287.926
287.926
287.926
287.926
287.926
287.926
287.926
287.926
287.926
287.926
287.926
287.926
287.926
287.926
287.926
287.926
287.926
287.926
287.926
287.926
287.927
287.926
287.926
287.926
287.926
287.926
287.926
287.926
287.926
287.926
287.926
287.926
287.926
287.926
287.926
287.926
287.926
287.926
287.926
287.926
287.926
287.926
287.926
287.926
287.926
287.926
287.926
287.926
287.926
287.926
287.926
287.926
287.926
287.926
287.926
287.926
289.68
287.926
287.926
287.926
287.926
287.926
287.926
287.926
287.926
287.926
287.926
287.926
287.926
287.926
287.926
287.926
287.926
287.926
287.926
287.926
291.312
658.486
287.927
2166.69
299.5
707.676
287.928
287.962
287.926
377.999
289.142
293.984
287.927
622.839
287.926
1939.39
2199.68
2053.48
2062.05
2021.55
1419.95
1573.22
521.443
815.939
892.797
301.815
297.948
290.479
292.278
2036.59
2102.33
1405.29
2185.37
1656.98
829.5
328.123
837.82
1907.55
1809.69
471.576
298.27
292.756
604.832
287.926
287.926
288.012
287.926
287.926
287.926
287.926
287.927
287.926
288.176
287.926
287.926
287.926
287.926
304.021
377.449
609.85
288.687
291.898
288.682
288.044
288.732
293.581
288.309
903.531
711.065
334.089
375.45
290.798
357.282
326.835
288.247
287.972
287.947
288.529
362.15
1302.58
442.969
319.188
287.953
288.572
289.239
292.81
288.7
287.98
287.928
382.306
295.332
288.228
287.926
287.926
287.926
287.926
287.926
287.926
287.926
287.959
287.941
287.926
289.681
288.02
287.968
291.726
287.978
288.493
298.853
288.005
287.926
287.93
287.935
287.927
288.063
288.02
287.948
287.926
287.965
287.926
287.926
287.926
287.926
287.926
287.926
287.926
287.926
288.595
287.951
287.935
287.942
287.932
287.926
287.926
287.932
287.926
287.96
287.932
287.926
287.926
287.927
288.036
287.933
287.929
287.928
287.927
287.926
287.926
287.926
287.926
287.926
287.926
287.926
287.926
287.926
287.926
287.926
287.926
287.926
287.926
287.926
287.926
287.926
287.926
287.926
288.168
287.926
287.931
287.936
287.928
287.926
287.926
287.926
287.926
287.931
287.926
287.93
287.926
287.927
287.926
287.926
287.926
287.926
287.945
287.926
287.926
287.926
287.926
287.926
287.926
287.926
287.926
287.926
287.926
287.926
287.926
287.926
2640.54
2149.62
1922.27
639.765
478.719
1003.1
292.751
1122.65
2549.99
321.765
780.926
303.209
1126.2
423.57
325.136
752.47
344.012
1286.81
335.807
322.44
290.878
301.875
296.693
320.853
344.355
320.663
351.043
314.764
349.279
375.854
310.27
333.507
341.941
332.93
306.28
311.588
330.538
311.099
350.262
323.318
349.238
321.949
353.244
340.546
365.648
318.736
452.195
1355.09
591.706
561.407
965.226
441.394
1284.24
506.108
587.881
1016.71
1493.25
654.848
465.668
1340.4
635.547
414.252
329.645
392.535
403.431
327.857
574.411
436.19
398.673
409.624
647.722
426.766
334.379
580.596
2804.82
1625.16
1753.39
288.162
331.568
288.374
347.661
1590.9
2077.46
1393.18
337.347
288.136
351.596
288.152
882.304
766.203
635.41
733.696
416.271
442.959
391.617
912.715
756.766
646.049
458.731
442.087
512.078
403.856
647.433
878.178
757.16
443.967
444.523
410.115
486.415
751.228
869.824
472.955
738.931
425.969
437.014
400.501
881.86
2511.5
1461.46
2503.03
1339.15
814.866
1838.4
1368.26
2655.97
1533.46
845.084
2067.8
954.208
1895.41
1892.65
1117.52
1785.67
1278.47
653.618
580.45
998.852
1123.03
1912.11
1794.36
586.257
1139.57
664.103
1005.71
1795.16
1601.44
1408.56
2168.25
2127
2130.58
2150.23
1611.86
1398.62
1573.47
2140.81
2055.45
2111.4
2046.43
1604.18
1763.13
1575.41
2171.13
2079.05
2121.59
2118.1
1400.21
1774.31
1609.92
2186.88
2138.08
2143.25
2158.9
417.691
2165.57
1610.44
868.322
316.446
1324.29
341.877
843.584
330.411
587.197
1476.1
347.279
857.539
1258.34
325.994
335.412
311.595
325.994
314.175
311.823
319.41
314.071
327.431
324.034
346.622
362.414
323.98
373.955
324.903
319.04
414.763
835.844
414.956
437.149
888.009
431.287
904.094
326.495
351.107
336.066
316.47
332.1
323.013
323.061
330.693
356.619
365.856
329.576
382.147
328.037
329.355
421
853.625
417.944
451.991
903.63
437.088
945.551
328.669
337.316
350.682
322.016
334.605
325.171
332.275
317.752
319.952
332.009
324.906
332.869
320.479
328.902
328.641
333.981
338.96
330.882
324.024
331.503
335.755
339.125
346.388
348.335
344.949
340.011
342.279
343.991
332.508
337.792
343.781
332.336
325.742
336.006
339.189
331.563
335.885
326.286
325.489
321.194
331.842
333.809
327.168
329.474
336.923
330.113
330.603
322.864
331.238
333.436
336.005
343.298
339.018
329.074
339.666
335.434
339.064
345.191
347.888
345.21
339.553
343.707
341.295
334.117
336.847
328.688
332.772
331.951
326.128
337.149
567.564
377.123
487.973
335.947
358.668
324.173
390.193
424.797
970.18
455.472
455.954
1139.19
517.647
970.955
431.241
502.635
390.783
402.381
371.338
344.982
337.619
556.43
1044.94
479.652
910.723
439.13
482.108
1046.49
1402.41
591.543
625.437
492.573
1024.23
477.453
1068.19
1351.42
652.686
601.459
513.001
1046.29
485.411
1127.7
1741.79
1067.6
782.868
1640.58
729.616
576.829
1303.29
1971.32
734.047
989.359
541.526
1482.89
673.446
1197.54
2080.28
2757.87
2065.69
2114.09
1513.3
1905.91
1944.95
1989.38
2194.09
2056.42
2113.47
1221.51
1488.09
1980.62
2092.43
2818.81
2174.01
2152.92
1792.56
2008.12
2071.11
1998.72
2177.86
2204.86
2128.61
1254.57
1500.66
2018.99
1426.1
1317.94
306.722
407.33
1643.35
1066.79
341.439
1471.65
1432.18
421.017
316.922
1674.32
1224.52
349.519
1506.98
1362.91
314.856
418.496
1674.56
1198.12
354.617
1530
1462.22
431.447
319.698
1707.63
1264.51
358.975
905.568
350.995
288.828
292.898
404.438
692.535
298.507
911.439
313.683
292.348
288.424
345.761
652.479
298.863
926.915
315.695
288.442
292.848
347.682
681.699
299.376
852.679
322.332
290.646
288.669
556.017
387.416
296.767
1623.4
364.248
374.462
288.298
287.926
287.926
640.623
2674.69
1918.33
883.986
288.12
287.927
287.926
287.926
1758.77
2165.9
813.901
1841.6
462.534
2048.88
2089.57
1036.83
2020.2
509.844
914.737
1564.3
2102.25
2117.4
680.77
548.008
1939.4
415.578
585.242
2206.39
1595.96
453.36
673.003
1951.19
1444.17
2184.8
337.292
1346.05
287.929
289.496
1608.32
833.46
1949.65
2008.36
2937.1
1689.52
1652.9
2819.71
403.269
1691.73
1496.55
592.927
1847.72
373.722
1671.12
469.228
2075.72
342.771
371.445
333.179
594.117
388.335
431.952
503.671
336.584
386.128
337.71
556.519
390.382
502.464
410.739
498.936
408.795
435.156
881.857
639.534
764.738
738.502
467.368
445.143
414.064
885.154
643.129
768.209
745.138
440.982
449.183
484.335
877.883
649.516
747.26
760.698
422.447
497.66
455.96
894.164
655.932
759.038
769.528
734.15
1312.74
578.04
1087.66
1774.95
796.611
2197.45
373.009
740.864
517.361
768.217
841.899
513.443
1263.42
1017.79
542.112
869.934
1237.35
1632.74
1058.99
1766.21
287.926
293.251
449.543
289.124
342.867
2635.79
1642.35
287.927
612.586
290.076
288.658
431.097
1526.34
1661.7
654.693
881.241
553.951
1826.91
1668.43
1237.58
1060.32
878.894
627.234
1025.19
1245.13
1650.82
1064.96
1815.91
603.411
945.948
287.926
325.597
409.022
2738.84
2165.08
287.926
287.929
482.24
293.394
765.257
2085.03
2225.02
991.428
1511.28
840.033
577.121
494.531
1000.46
843.148
836.397
1649.61
954.81
494.869
543.751
952.412
834.732
561.238
1021.32
639.525
1675.1
1841.48
1257.03
1072.81
457.228
287.926
319.765
287.926
298.587
1278.51
2107.33
1936.39
828.975
899.236
1449.68
2481.19
1318.8
2511.88
1871.07
931.703
841.344
1478.67
2511.15
1329.37
2611.61
658.55
1122.2
990.244
1279.66
1791.73
1119.17
1902.96
369.596
287.926
287.926
2171.72
288.309
2729.37
287.931
1083.09
1063.34
1282.56
558.325
1864.49
669.638
891.796
1068.01
1822.53
1238.12
1011.75
555.499
879.552
629.012
592.777
999.12
1138.98
1305.14
1805.16
1131.66
1935.48
292.375
1551.12
634.907
287.926
287.926
287.939
287.926
2145.05
2124.85
2075.24
1774.15
1394.96
1574.61
1617.47
409.906
293.432
498.828
287.926
287.926
287.926
287.937
1443.82
297.135
742.681
287.926
287.926
287.926
287.94
322.863
336.967
1282.69
287.926
287.94
287.926
287.926
2119.42
2022.99
2027.83
1731.84
1378
1579.81
1559.06
2120.49
2143.89
2159.47
1750.33
1381.8
1582.25
1571.7
2213.83
2135.22
2142.28
1796.97
1402.62
1593.22
1627.71
2311.46
1620.74
1165.68
2922.78
2189.47
1814.28
2782.02
899.311
1413.62
1468.59
1664.52
2130.49
2083.4
2043.47
2450.3
1109.71
1526.8
1744.93
2627.53
2030.12
2596.5
1409.92
909.141
1484.09
2109.36
2249.62
1694.5
2144.34
2627.97
2118.7
1568.27
2141.29
1052.95
1583.87
2642.54
1664.13
2934.97
2365.02
1869.53
2220.56
1203.32
2712.97
2197.11
1950.27
1306.87
740.568
1210.44
1303.04
1841.9
2205.51
2104.69
1666.93
1394.73
1475.2
897.319
1931.22
1955.46
1507.13
1919.29
1957.22
1985.63
1545.48
1663.88
1949.6
1690.94
2031.65
1993.63
2077.26
1671.83
1707.93
1710.83
2090.71
1539.59
2194.28
2127.14
1951.37
2007.56
1533.92
2151.08
1694.44
2129.21
2198.22
1963.44
2013.08
1013.93
1225.1
1850.94
1953.05
1981.51
1859.77
1979.72
2122.71
1630.02
1924.23
2068.73
2771.79
2038.97
2680.37
2047.28
1429.24
2025.05
2206.31
2160.46
2045.75
1925.83
1917.04
2124.76
2173.12
2142.23
2813.78
2058.73
2826.34
1306.41
1227.15
1918.81
2029.99
2029.55
1888.41
2104.08
1304.43
2175.18
2032.77
2079.15
2251.2
2016.15
2196.29
2046.44
1571.82
2059.41
2170.22
2226.39
2080.4
1942.29
1594.27
2070.84
2179.68
2115.53
2260.03
2028.69
2239.33
2010.4
2125.82
2178.55
2083.38
2143.31
1684.82
1530.83
1948.87
2137.37
2172.39
2094.87
1733.33
2210.73
1550.95
2156.51
1873.17
1763.54
2218.86
2182.56
1414.56
1675.11
1949.5
2079.4
2220.69
2050.71
2015.76
1407.32
1558.15
1121.36
2730.11
2306.62
2151.78
2572.99
2304.34
2958.8
1541.91
2188.17
1777.26
1926.62
2192.38
1977.9
2203.01
2944.64
2303.67
2131.2
2601.14
2297.89
1624.96
1154.01
1943.36
2204.55
1996.16
2219.63
1829.05
1567.51
615.959
287.926
287.926
287.926
287.966
287.926
287.94
514.273
1419.09
331.877
553.672
2106.91
1651.15
1873.28
2454.64
1778.55
435.958
1238.1
2191.93
2206.11
2268.18
2759.78
316.217
1602.68
710.734
2160.87
1259.21
1995.06
1985.2
775.57
875.247
1710.66
2149.1
1482.15
2230.8
2108.28
2289.22
1950.38
2023.24
2107.86
2010.11
1131.04
646.111
2113.2
1947.28
2046.31
1551.64
2059.81
1222.42
436.668
1929.35
2127.4
2052.16
1427.84
2049.79
825.419
342.966
1232.22
1671.09
1352.47
317.149
416.408
335.874
361.929
1682.43
1263.28
1507.63
422.98
319.547
354.921
349.107
1554.82
1449.25
1697.24
426.786
362.882
321.088
349.215
1426.36
1045.17
1278.03
400.949
326.861
305.327
341.058
2116.55
2288.19
2197.56
1128.06
1730.21
866.74
411.641
287.926
287.934
288.416
287.926
287.926
287.926
287.926
287.926
287.932
289.436
287.926
287.926
287.926
287.926
650.169
1900.7
1804.08
467.4
298.368
292.733
601.138
580.115
1586.23
1685.77
447.667
293.418
579.071
290.299
403.95
1543.13
1380.07
403.866
290.792
289.126
512.762
507.323
1721.09
1690.12
508.313
294.36
614.44
291.45
381.595
1605.26
1552.01
462.541
291.491
289.921
550.569
754.018
1978.65
2028.02
756.796
308.779
297.938
946.862
950.763
2029.52
1983.52
770.938
308.592
298.177
952.184
474.489
1814.56
1901.29
657.723
298.366
292.855
835.683
605.766
1910.23
1833.21
671.856
298.354
293.054
840.429
360.393
1786.02
1522.7
364.713
290.295
288.835
463.013
302.872
1062.16
1314.89
332.072
288.771
288.28
387.225
319.621
984.236
697.734
293.218
288.59
288.185
301.499
892.887
335.523
718.16
293.751
288.729
288.325
299.235
293.348
299.047
288.728
881.827
693.449
332.933
373.288
331.238
316.359
737.597
292.111
288.327
294.826
288.166
368.867
436.58
971.365
293.753
289.071
300.224
288.486
363.558
719.637
978.028
288.587
301.277
293.672
288.213
724.293
374.545
893.392
293.907
288.724
299.164
288.337
309.915
1257.02
1684.45
411.238
288.122
289.441
310.575
399.44
665.964
1621.06
402.991
287.986
289.333
293.63
889.062
330.466
568.74
290.738
288.82
297.441
288.207
303.376
321.614
668.652
288.232
293.178
290.036
288.052
410.451
1657.96
440.056
290.622
290.881
289.618
287.959
290.576
315.561
579.743
295.44
287.929
287.981
288.374
323.391
1347.84
468.254
368.927
287.957
288.644
291.744
321.192
729.817
1203.3
320.781
287.972
288.309
293.213
297.945
461.577
909.75
310.451
287.947
288.115
291.165
332.647
462.12
1267.94
332.724
287.951
290.074
288.482
305.346
373.85
1054.75
321.804
287.94
288.242
289.451
293.045
810.931
1399.11
374.253
288.014
288.676
302.183
288.437
346.249
886.207
300.067
287.932
288.047
288.554
301.001