/*--------------------------------*- C++ -*----------------------------------*\
  =========                 |
  \\      /  F ield         | OpenFOAM: The Open Source CFD Toolbox
   \\    /   O peration     | Website:  https://openfoam.org
    \\  /    A nd           | Version:  9
     \\/     M anipulation  |
\*---------------------------------------------------------------------------*/
FoamFile
{
    format      ascii;
    class       volScalarField;
    location    "0.0026";
    object      impulseMax;
}
// * * * * * * * * * * * * * * * * * * * * * * * * * * * * * * * * * * * * * //

dimensions      [1 -1 -1 0 0 0 0];

internalField   nonuniform List<scalar> 
20311
(
145.301
85.6289
18.8568
48.2833
0.0191104
0.623959
170.184
130.912
177.28
195.163
201.38
140.392
163.674
181.615
44.8736
0.000979826
215.873
165.55
136.479
136.229
181.395
205.065
165.407
159.787
174.337
186.362
49.6923
78.2568
110.377
134.853
215.089
198.001
197.196
205.203
206.013
187.637
186.792
214.984
186.656
197.1
215.84
197.968
205.957
187.58
203.501
213.474
211.469
185.053
195.583
193.498
182.818
198.587
205.578
208.821
187.336
190.739
179.865
176.211
191.12
197.326
201.767
183.28
178.498
171.83
166.622
193.927
161.212
174.831
182.396
194.874
175.817
162.281
190.043
179.678
192.295
156.699
159.348
173.111
170.692
161.441
194.106
175.01
182.497
194.951
175.9
162.386
64.9867
121.403
0.60236
0.59314
64.7413
122.525
43.838
152.931
139.307
176.99
153.917
177.862
166.486
140.387
176.893
139.158
152.834
153.879
177.826
166.425
140.323
0.192898
0.5069
62.2859
119.105
38.9993
111.46
30.7438
175.292
137.125
151.023
148.386
173.028
161.197
134.132
180.813
186.185
192.166
166.318
172.885
160.46
153.216
183.449
174.117
187.096
148.755
153.183
167.487
163.501
166.292
144.87
170.032
157.92
124.999
153.799
130.12
278.399
246.496
215.033
237.219
278.011
246.094
198.849
231.331
268.629
262.278
279.167
263.032
269.456
253.266
252.472
279.055
268.224
262.017
262.958
269.327
253.174
252.196
230.425
258.006
241.895
247.342
258.826
242.701
231.235
246.939
231.458
221.742
232.229
247.702
237.997
222.54
247.188
257.61
258.681
242.591
230.114
231.109
241.6
232.194
246.762
247.655
237.925
221.58
237.011
222.48
214.623
276.109
253.355
188.291
234.995
194.938
267.098
237.128
227.76
233.717
196.475
219.037
178.733
215.516
243.835
203.552
273.785
266.321
260.265
263.962
258.107
250.462
248.297
270.737
257.26
251.932
260.908
255.304
245.502
242.113
248.121
258.586
248.643
263.038
253.153
238.215
233.834
241.847
255.717
244.229
228.38
239.875
237.687
226.153
243.055
229.768
245.116
219.995
235.367
233.288
217.918
246.581
250.259
238.731
234.837
219.65
223.212
231.388
221.938
225.13
240.366
230.564
211.898
227.275
215.203
239.053
248.308
253.694
243.664
238.16
228.899
223.353
210.751
225.94
230.743
237.789
242.426
227.398
222.866
208.045
213.987
218.248
229.224
233.437
223.466
219.095
199.085
226.628
210.994
227.415
199.933
215.855
211.805
210.791
214.775
226.399
227.324
199.831
215.742
211.726
207.034
197.19
209.18
213.114
224.759
210.908
222.638
220.599
226.968
232.661
199.119
211.888
205.305
217.714
224.443
209.083
203.465
208.381
192.337
198.353
214.094
200.753
191.967
204.214
207.996
204.443
219.831
216.432
191.868
183.911
196.667
200.252
195.363
212.469
207.871
183.123
189.686
179.801
165.654
172.681
186.283
202.574
173.945
179.104
165.432
143.346
158.687
152.902
136.808
41.7147
0.0163711
0.118178
82.2759
14.6171
99.2488
20.1552
161.76
128.105
156.336
118.681
148.762
142.677
111.046
160.834
153.123
167.892
146.033
119.598
137.909
128.975
103.331
152.275
122.88
153.274
104.586
137.584
124.06
152.082
103.061
122.674
153.188
104.469
137.471
123.97
134.069
150.167
100.52
96.7736
120.372
147.409
116.965
142.206
119.993
149.891
135.341
91.6181
126.566
102.039
121.279
126.677
91.808
143.733
106.633
139.072
112.405
0.303912
0.672173
0.363204
38.2193
73.7579
0.957667
30.6164
0.213889
6.6001
14.6
0.210759
4.32971
0.751959
0.468296
66.6075
68.8482
0.586178
0.929686
78.5613
0.783048
79.7224
78.3663
78.5693
0.80736
0.99439
80.2089
56.7502
47.7652
0.174263
68.1894
0.644129
0.396517
57.4548
0.320965
58.7318
67.7049
0.329495
58.8948
68.1074
0.692236
62.0022
58.8615
0.45888
0.11764
41.9963
0.155817
46.2998
31.1663
0.0355634
0.129199
0.305107
47.758
0.0957308
35.4261
44.2179
35.4359
0.117064
0.0460003
29.4315
28.518
0.0228503
196.131
208.805
198.266
185.249
210.013
211.893
192.768
99.661
180.458
133.926
191.534
135.914
118.93
201.836
107.847
113.289
205.936
215.146
124.655
161.428
211.58
120.785
217.502
166.422
217.084
126.63
197.373
153.219
142.259
197.428
100.821
208.6
116.98
188.828
99.1111
88.5362
207.139
115.157
199.389
104.269
102.541
107.86
202.199
81.7216
184.366
86.972
188.384
83.2678
170.405
109.833
195.87
99.0028
119.963
181.862
67.7224
174.995
85.8183
192.846
87.011
175.087
68.833
184.13
92.1903
73.6975
173.637
66.1699
165.318
64.9361
62.1267
165.098
95.619
66.3453
142.792
161.101
53.3976
209.545
205.243
205.95
187.204
188.089
184.115
183.259
212.664
214.468
215.287
194.421
190.644
191.573
193.45
212.363
207.763
210.015
188.735
188.734
186.212
191.323
98.5756
58.5209
59.5842
46.4913
126.215
167.414
47.4676
214.09
212.534
211.586
190.447
194.348
191.505
193.211
212.524
214.088
215.142
194.343
190.442
191.497
193.208
216.399
218.402
217.26
196.537
196.718
195.514
197.769
215.999
218.243
217.084
196.431
196.43
195.231
197.674
53.4409
165.882
44.8401
121.964
157.003
44.5864
45.1515
205.011
203.824
207.144
185.502
179.455
183.1
181.73
205.167
209.468
208.607
187.106
184.138
183.249
188.065
209.459
205.158
205.926
187.1
188.058
184.128
183.24
205.007
203.816
201.831
185.497
183.097
181.724
179.452
201.465
198.084
202.161
179.767
174.083
178.925
174.94
198.13
201.483
202.188
179.812
174.16
178.967
175
202.439
196.405
199.387
176.589
180.154
176.588
173.071
201.492
198.135
197.433
179.82
178.975
174.162
175.003
200.18
194.228
198.263
172.679
177.483
175.259
170.466
200.186
194.228
196.132
175.261
177.487
172.679
170.465
191.819
192.904
195.868
172.426
164.068
168.915
167.616
192.905
191.819
188.828
172.427
168.915
167.615
164.067
193.495
187.567
188.325
168.596
169.475
163.294
162.39
189.62
186.318
184.374
167.216
164.982
158.69
160.983
189.617
186.308
191.53
167.21
158.679
160.97
164.976
193.554
187.654
192.846
168.703
163.363
162.508
169.544
193.554
187.659
188.389
168.707
169.547
163.374
162.519
189.377
181.037
185.249
159.792
164.729
159.791
154.7
25.8807
42.689
132.405
115.772
152.454
32.6357
34.1885
187.179
178.714
184.129
155.665
162.078
158.43
151.851
187.181
178.718
181.868
158.434
162.082
155.674
151.857
176.12
174.918
170.404
153.995
148.672
147.182
141.544
176.121
174.916
180.458
153.994
141.542
147.178
148.671
181.682
175.829
182.473
156.226
147.048
155.279
148.042
175.89
181.783
182.54
156.308
147.178
155.416
148.12
180.396
171.538
178.387
151.404
145.466
153.808
142.905
172.492
168.787
175.778
148.213
135.117
144.156
139.479
159.591
159.592
116.082
121.779
156.834
118.927
162.444
161.464
123.628
121.795
165.505
162.566
120.78
164.385
164.34
120.447
123.271
165.469
121.647
162.531
124.499
165.505
121.804
161.463
123.63
162.566
164.383
124.66
167.623
125.219
126.296
167.595
127.587
168.828
126.484
167.606
125.537
127.749
167.603
166.398
168.848
126.634
155.993
112.363
149.05
110.569
153.329
151.68
115.151
157.741
112.328
154.347
117.974
153.382
158.773
116.972
157.648
112.021
116.674
117.844
158.719
154.262
113.156
117.986
157.742
158.775
154.35
112.342
153.384
113.306
155.993
112.366
153.329
110.579
151.682
149.051
107.854
171.032
158.864
165.098
134.808
142.329
134.808
126.831
148.14
100.478
106.624
149.177
101.56
107.728
143.302
149.273
101.714
142.462
106.959
148.319
107.882
143.406
140.742
105.233
146.61
143.988
96.4577
102.552
138.112
108.727
145.621
149.883
145.622
99.8566
104.273
141.364
143.983
105.219
146.606
140.732
96.4426
99.0921
138.103
106.94
149.268
148.314
142.451
101.687
143.394
100.797
168.515
156.048
163.774
129.747
139.166
133.137
123.282
158.525
167.347
137.44
168.225
159.456
138.49
127.319
168.274
158.561
159.488
137.548
138.555
127.366
126.286
163.658
156.918
154.518
135.706
132.945
124.303
121.327
140.559
130.309
92.9329
94.6173
99.0106
136.277
134.651
140.555
94.6135
136.274
92.9214
134.644
130.304
88.5288
133.998
89.5223
123.59
84.3851
126.313
92.167
131.339
135.738
94.7399
86.1007
129.044
128.091
136.677
93.8669
134.014
89.5412
131.353
123.609
84.4122
126.335
81.7433
160.719
147.254
151.319
124.532
129.238
117.344
112.309
125.064
89.3782
131.131
125.062
77.1095
83.2643
118.855
151.513
150.005
158.162
125.946
106.741
117.5
115.639
31.4685
46.3391
45.3472
0.0504313
0.224429
0.229862
0.0511603
115.385
73.6854
78.1525
81.5616
85.9857
127.812
123.371
86.8636
94.6189
93.5568
127.877
135.524
136.58
128.952
86.1338
94.7732
93.8957
135.755
136.696
129.072
128.116
81.5719
78.1693
86.0002
123.379
127.823
119.978
115.396
146.951
142.25
136.159
118.77
111.891
106.189
98.9424
15.9361
26.3817
20.04
0.0222718
0.0855245
0.00358864
0.0158967
137.026
148.203
149.213
114.429
98.5416
113.28
99.7439
103.256
68.3365
62.1231
70.0512
76.2518
117.989
111.608
68.7226
77.2087
78.2336
109.375
119.2
120.288
110.478
78.3666
67.9385
77.4798
120.404
109.572
119.427
110.581
75.7324
73.0408
63.4642
114.774
107.661
117.584
104.749
70.0535
68.344
76.2578
117.994
111.61
109.839
103.26
113.258
135.96
148.205
137.038
149.201
114.405
99.7477
146.409
130.972
143.767
96.318
111.166
107.997
92.9978
55.3683
69.4344
59.8506
111.013
95.9572
106.271
100.852
135.705
127.008
140.223
103.762
83.0801
98.4461
88.5807
120.107
80.994
94.5439
140.335
128.828
103.828
90.5437
86.9011
47.275
55.0772
55.0783
62.9755
104.167
95.6199
15.4173
0.383803
16.019
0.00234798
0.0261405
0.00247008
0.0263935
44.0048
59.5774
50.0667
90.0563
100.531
93.7674
83.1436
57.4282
47.4141
58.4
86.0895
98.3359
99.4456
87.1974
58.4835
46.5837
57.5832
98.4887
99.529
87.2556
86.1868
1.76569
3.19037
14.3958
0.00206875
0.0235698
0.000983309
0.0112391
55.8109
53.1209
42.2136
96.5094
93.5028
84.1529
81.0777
130.117
108.356
123.342
76.5172
92.0378
84.5339
68.9381
2108.93
10231.2
8055.19
1828.89
823.812
1862.72
1085.85
2077.02
1899.5
819.037
556.186
499.459
803.325
592.314
10661.5
1228.83
1177.55
1151.03
1999.17
3064.06
1989.09
1101.1
2098.74
2161.86
2590.2
1932.2
132594
8384.66
5231.38
1046.49
2029.92
1977.12
2607.57
130775
4342.89
9370.61
980.749
742.614
1828.95
703.008
988.524
1902.81
847.962
1923.27
692.281
822.084
797.656
1367.42
1528.34
3697.06
1121.16
820.237
1801.06
685.923
1800.38
720.481
956.48
1886.2
669.504
794.86
762.544
1405.03
762.646
1321.03
3887.85
1162.94
1960.87
1058.48
1161.06
3055.29
1755.13
2059.2
975.434
8251.69
2468.42
1901.5
128977
5457.32
8251.09
816.439
699.195
844.19
1490.88
1522.63
4360.18
1160.51
602.52
435.618
444.125
856.089
477.046
486.348
711.096
1226.01
1191.77
498.599
382.892
1757.04
505.482
963.081
828.927
1459.82
767.534
672.073
1056.56
1430.28
3621.63
436.323
527.947
419.369
660.658
454.509
829.85
477.682
2197.94
2001.89
944.275
1998.46
128730
10660.1
5413.25
896.012
486.905
503.856
1238.5
384.898
1780.62
502.595
11512.4
7538.48
5538.95
23932
4537.43
17509.3
16849.4
12997.7
6731.35
8141.12
36608.3
14410.2
11519.9
4327.21
4377.98
1712.25
3243.2
2741.26
2782.07
2190.68
5679.04
1049.34
813.071
736.658
1186.03
721.089
1129.2
1191.23
8365.92
5791.9
5986.5
23087.6
5271.37
27734.9
18327.4
795.234
1114.11
744.887
1416.55
678.011
1390.88
829.943
1051.33
1443.75
1179
962.741
1334.23
950.698
1007.5
1044.28
940.801
1407.4
1152.01
944.297
1319.22
985.929
1277.03
3072.36
1145.13
3054.64
1197.6
1192.05
3005.91
1000.52
1628.71
1585.43
1033.31
1655.17
1039.48
1002.93
4659.92
3545.06
2736.48
1847.61
3195.9
2600.88
6625.39
5264.51
3957.74
3934.69
2053.77
3303.15
10912.5
3368.36
4727.17
3598.36
2890.66
1832.25
3017.41
2526.04
5622.01
18709.7
104685
77160.3
80268.7
79113.7
43469.1
29497.2
12486
6638.02
8084.03
34410.1
15668.5
4469.56
13139.3
8644.86
3694.49
3576.59
14689.2
3212.04
12026.5
12634.1
3390.77
1470.02
1516.85
1448.62
2074.85
2079.31
1850.26
4403.56
2661.66
3306.97
1748.83
2560.61
3044.85
6671.37
4351.74
3152.32
2543.55
1707.6
2535.1
6625.49
3024.97
5049.95
3896.55
3916.34
2041.59
11312.7
3351.38
3366.43
16542.6
72350.9
49045.7
93195
81675.4
49349.4
49938.1
9754.03
4289.84
4176.86
24006.4
3070.82
9335.25
8919.37
12618
6203.21
8034.99
27404
15231.6
4329.24
13592
3305.02
1384.72
1368.76
1467.59
1748.12
1982.82
1972.2
1108.21
777.884
779.148
1183.41
724.915
1110.91
1131.74
1229.52
1004.41
2125.67
1324.04
1786.16
917.06
1315.15
1256.64
1063.8
2362
1406.77
1838.36
1342.5
918.332
1521.13
2034.63
2992.36
3071.81
2672.17
1712.94
1847.98
1030.07
750.871
722.585
1176.32
683.527
1113.61
1030.31
1178.65
1350.37
994.556
2170.96
868.115
1704.79
1211.52
1174.4
1265.75
978.642
2036.58
1254.12
879.876
1686.73
1405.18
1844.75
2720.12
2727.89
1734.34
2448.74
1701.36
977.635
933.996
1098.88
1312.03
919.928
1299.35
994.271
975.713
1098.74
1312.37
937.863
992.359
914.013
1298.64
1233.29
3045
1136.16
3030
1189.08
1186.69
2980.4
973.438
1698.97
1696.78
1068.08
975.236
1407.17
967.849
3042.7
1329.33
1441.38
1328.4
1922.62
1922.85
1771.43
10385.3
5844.38
7195.78
30013.1
4021.28
13390.9
15463
4666.22
1906.27
3538.5
3537.88
3070.4
3070.17
10102.8
4377.71
1711.96
2742.52
3243.49
5678.02
2782.83
2190.91
20535.6
100522
97219.3
100521
28568.6
28568.9
68541.8
6957.79
3523.15
3526.27
13142.5
12930.6
3194.81
12932.2
10385.2
7195.22
5844.41
30013.3
13390.6
4020.99
15463.1
1138.87
784.46
791.236
1259.49
738.998
1146.7
1197.54
1286.23
1068.48
2292.74
1404.06
1890.1
959.673
1368.55
1271.02
1051.01
2348.87
1418.25
1871.1
1330.42
920.79
1582.43
2024.47
3025.35
3081.98
2780.51
1886.84
1883.28
828.385
1452.72
753.633
1209.56
1355.76
709.646
812.127
820.634
718.904
1389.63
1171.41
1360.27
811.281
698.487
607.966
399.239
566.112
400.485
575.493
592.189
403.286
894.298
1704.46
1698.39
930.455
1577.45
901.991
893.603
1149.68
947.366
1279.33
1985.38
873.451
1310.63
1895.85
1174.24
1015.33
1268.76
2068.91
1412.9
913.022
1892.79
1603.73
2147.1
3348.39
3384.36
1635.15
1782.2
2368.65
6354.86
4385.58
2028.17
4386.13
2816.53
7215.25
2816.44
5258.27
3782.64
1826.37
3068.04
2713.19
2314.8
5668.97
2865.14
1347.83
1295.32
1295.22
2029.98
2030.52
1838.71
5257.55
1825.75
3781
3061.42
5669.27
2713.39
2312.72
33534.6
103320
103320
96501.4
26291.8
36747.8
26291.4
8365.31
5791.8
5985.29
23087.5
18325.7
27734.8
5270.79
6862.06
3629.22
3629.35
13462
13594.2
3617.85
13593.8
797.177
1109.87
1411.45
734.849
844.816
679.61
1390.6
603.13
404.367
577.745
402.954
604.429
591.118
404.969
925.901
1789.49
1791.32
962.697
912.727
1524.61
913.709
358.022
1724.53
1828.39
725.947
1703.95
388.745
1894.31
1323.54
539.324
903.357
559.058
536.509
435.149
553.734
443.912
477.543
357.18
395.514
544.966
376.633
521.822
480.308
961.729
1867.79
828.383
687.774
1802.26
721.431
1803.58
1088.3
3887.39
1404.46
664.027
764.217
792.606
761.234
1172.07
1265.18
2035.72
979.06
881.044
1254.61
1686.52
1403.64
2727.87
2719.38
1844.2
1735.79
1700.79
2448.42
1174.73
1348.44
2169.59
992.441
863.342
1211
1703.51
1033.71
1177.52
761.184
723.952
679.595
1101.61
1028.75
342.594
331.827
314.151
422.56
357.519
407.117
379.863
707.843
1793.4
630.005
630.588
1774.82
584.263
1794.45
1716.54
544.866
541.006
594.319
1745.61
606.831
1755.83
1722.59
539.976
540.093
573.427
1751.46
554.176
1760.25
323.956
342.778
320.064
1687.94
1538.19
1666.86
334.6
1541.3
266.046
316.914
304.827
285.725
325.649
344.902
282.562
313.436
325.921
313.156
299.055
304.33
281.572
308.624
273.31
312.704
337.641
327.529
299.057
291.515
284.249
304.163
324.47
293.339
291.29
309.487
279.866
274.827
318.919
299.929
321.757
315.542
300.943
287.614
284.575
303.333
1679.53
517.785
518.711
519.846
1631.49
516.118
1643.09
339.384
338.555
341.123
316.045
327.159
319.236
325.616
280.477
271.37
268.303
285.465
276.671
271.77
288.831
308.385
309.007
263.165
300.068
268.976
301.731
263.421
337.665
334.23
341.686
319.188
334.6
330.114
321.77
1688.75
527.717
541.111
533.411
1648.83
553.472
1649.41
338.78
280.063
268.79
308.615
276.262
267.377
323.487
557.848
1544.4
564.509
535.795
1593.56
531.002
1602.36
279.727
292.962
272.501
289.986
281.393
275.029
296.201
312.52
298.065
296.507
302.781
318.251
305.106
317.193
581.804
1518.48
608.188
551.39
1595.81
575.718
1603.66
322.409
301.222
307.436
307.523
327.797
322.027
312.98
352.243
343.851
873.94
396.05
406.213
389.316
3620.18
828.713
550.219
518.947
696.963
520.688
432.039
557.989
428.892
484.904
372.076
405.872
567.405
384.695
495.889
542.809
1459.99
1468.99
1055.57
671.109
806.727
768.262
828.4
660.672
453.768
476.742
527.628
435.288
591.525
418.815
1605.35
3348.49
3388.77
2147.29
1635.46
1786.93
2370.13
1150.11
1986.56
1279.33
949.224
1310.85
875.378
1896.84
1172.09
2067.62
1269.06
1020.8
912.611
1410.34
1890.89
1049.22
1184.42
735.83
780.975
1128.36
722.297
1191.65
322.29
358.018
336.043
420.566
362.605
415.502
370.887
456.808
524.434
423.66
456.604
376.479
395.77
406.503
377.552
357.842
362.53
440.547
394.942
463.232
384.277
364.41
350.649
356.223
402.642
363.249
374.117
373.269
212.582
196.612
254.69
244.383
260.717
223.996
260.884
197.164
251.17
261.237
251.249
212.696
197.252
250.034
211.536
258.929
205.14
195.935
243.695
188.646
201.909
188.453
247.659
227.745
169.813
240.472
184.996
258.922
261.09
259.235
245.921
246.295
243.495
243.046
239.287
165.331
190.497
245.706
190.557
223.925
186.916
261.228
259.146
259.346
246.179
246.412
243.59
243.227
189.178
214.897
237.645
222.461
153.204
181.502
185.412
260.048
258.351
257.276
245.407
244.353
242.278
240.984
257.178
253.544
255.726
240.85
242.875
239.248
236.946
255.647
251.689
256.06
239.651
234.29
239.145
234.859
255.787
251.757
256.145
239.733
234.383
239.277
234.929
251.497
250.692
238.201
247.239
234.922
234.038
230.554
254.745
248.473
253.373
233.162
238.175
236.704
231.555
126.67
214.017
161.529
207.074
234.338
148.313
177.672
246.39
249.018
251.502
234.747
226.755
232.235
229.436
243.218
238.643
243.217
226.496
231.024
226.494
221.836
229.987
213.197
230.487
226.853
208.148
226.303
208.79
213.264
230.17
230.579
226.937
208.256
208.858
226.45
229.191
209.89
227.819
207.047
225.369
223.872
205.35
245.928
236.753
242.307
223.536
229.137
225.506
219.792
245.673
246.287
239.961
228.587
229.206
222.749
222.07
246.337
239.282
239.994
228.64
229.26
222.785
222.085
242.699
237.889
236.116
227.338
225.627
220.73
218.95
207.791
223.7
226.029
221.925
200.39
219.426
203.159
222.393
203.017
216.512
197.877
221.81
203.698
217.149
222.47
197.94
216.606
203.122
203.768
221.932
217.216
240.463
230.852
233.763
220.575
223.385
216.589
213.648
215.357
201.868
220.757
219.158
194.095
213.661
200.101
220.795
198.078
217.312
197.028
216.351
212.701
193.071
233.489
232.522
238.165
221.324
210.585
216.543
215.498
217.072
194.91
191.679
208.641
214.407
211.444
197.805
230.541
227.466
217.244
223.567
213.385
210.201
206.194
232.046
224.759
232.781
215.451
206.455
214.717
207.228
224.748
232.013
232.792
215.464
206.395
214.694
207.217
230.585
220.543
228.737
204.941
213.293
211.427
202.977
193.614
208.446
213.196
208.445
183.104
203.558
188.451
191.413
205.29
211.179
207.395
180.697
201.373
187.302
210.422
191.257
211.106
204.245
182.925
203.526
183.734
191.306
210.48
211.157
204.278
182.953
203.55
183.764
218.002
223.29
226.292
208.948
197.16
205.886
200.371
209.17
187.243
207.39
181.502
202.184
200.314
179.453
221.294
226.199
219.099
203.857
208.952
201.575
196.23
184.692
202.116
205.047
197.847
173.364
194.778
176.744
211.276
219.807
215.774
193.365
202.294
198.091
188.91
203.01
176.941
191.6
175.678
197.968
196.831
182.512
187.793
186.972
164.414
196.532
174.306
195.758
175.167
164.363
165.318
187.781
196.543
174.297
195.742
175.177
198.622
173.137
194.545
169.289
191.124
186.839
164.434
162.712
172.758
194.314
192.344
160.333
183.317
170.566
202.216
205.838
211.149
193.214
177.663
187.56
183.714
189.73
177.083
164.035
157.181
186.492
180.535
167.667
184.328
167.8
189.817
181.837
151.848
175.997
158.673
276.546
309.64
275.37
322.775
273.013
307.926
323.665
274.46
324.334
324.41
325.587
307.937
309.1
309.061
308.136
309.165
325.103
324.88
324.91
325.416
309.36
309.072
323.261
324.397
325.184
308.326
306.625
306.948
307.649
323.811
305.6
321.774
322.863
324.62
308.138
306.375
275.972
290.848
291.767
291.855
275.72
291.14
276.163
292.535
276.297
292.273
276.177
292.068
291.955
276.148
291.403
275.509
274.46
290.029
290.182
290.904
275.761
275.214
291.141
288.925
291.255
273.831
289.635
275.498
341.828
367.865
270.494
305.603
307.757
320.372
371.442
375.111
361.726
361.203
326.381
304.97
267.28
316.91
273.548
309.61
276.505
272.911
307.076
356.785
324.649
302.812
349.003
356.675
292.371
313.786
363.54
385.738
381.302
384.77
381.844
360.639
361.835
359.878
379.578
377.896
378.779
380.775
360.193
358.698
373.64
367.436
374.638
368.927
352.616
355.68
351.628
294.979
323.153
272.936
341.999
353.105
287.97
309.364
308.853
324.489
323.72
323.353
309.184
322.11
307.778
263.442
302.584
312.744
291.455
258.414
300.981
271.674
361.475
357.052
343.82
362.812
348.133
346.674
341.403
319.992
305.615
321.894
307.961
319.967
305.599
302.094
326.639
339.872
342.942
326.972
342.573
339.788
320.731
373.191
376.524
378.36
356.396
348.537
354.808
350.117
350.516
357.414
381.358
373.634
379.08
356.756
350.395
327.019
342.439
341.605
339.558
319.721
338.507
320.611
322.329
303.955
319.784
316.636
320.025
305.083
301.108
372.727
362.752
367.456
345.532
351.866
347.818
341.459
339.512
322.111
336.676
317.845
336.213
333.128
315.221
349.63
351.858
339.699
346.708
335.541
336.245
331.172
275.258
276.717
292.784
276.08
292.175
292.645
291.326
312.728
312.573
316.892
301.896
292.942
297.788
297.323
356.174
354.477
361.095
342.531
330.077
336.718
336.065
318.382
328.934
333.02
328.993
307.474
324.302
311.694
316.928
301.921
312.612
307.779
297.798
297.348
292.955
345.847
326.75
336.67
341.668
331.205
326.046
320.944
270.801
275.527
273.54
289.402
291.625
289.391
286.269
327.02
313.487
334.372
334.658
306.318
314.046
327.586
334.414
306.157
325.943
312.831
333.098
313.893
327.352
269.493
271.63
274.444
290.435
287.502
288.76
285.119
348.108
335.327
341.891
324.125
330.981
325.334
318.26
324.614
304.726
320.08
303.021
319.451
314.515
298.362
323.382
310.763
330.65
327.383
300.077
320.023
308.055
307.847
297.309
302.592
288.288
293.199
288.291
283.447
307.231
296.155
302.168
286.227
292.054
287.651
281.994
267.283
286.011
282.453
266.626
281.94
278.172
263.096
263.094
270.485
266.618
285.994
278.166
282.447
281.925
323.032
296.52
310.661
300.301
318.081
315.645
304.476
310.58
299.942
315.397
309.508
288.434
304.395
293.522
330.325
329.055
335.992
319.771
306.826
314.297
312.503
307.107
309.597
287.464
286.557
297.97
299.046
269.918
269.36
302.504
301.678
298.782
305.872
301.394
298.445
301.46
306.925
304.575
302.025
299.452
304.689
301.833
302.615
299.811
296.851
297.94
296.063
296.089
298.313
294.125
296.076
295.084
298.523
297.674
298.155
295.336
293.7
282.541
270.683
282.553
269.311
284.402
280.9
269.918
272.523
273.472
289.027
285.033
272.017
286.913
271.029
286.579
272.117
272.198
270.967
284.436
284.243
270.802
269.972
282.332
281.21
281.839
269.142
280.385
269.756
291.168
453.449
516.247
317.007
465.555
326.703
513.974
287.667
464.321
1184.25
335.744
354.754
442.867
322.067
510.019
295.903
455.847
480.416
399.178
404.572
354.041
703.588
585.218
442.856
722.597
1022.73
547.003
456.158
292.545
285.78
288.68
321.567
312.491
301.561
307.481
393.547
399.354
405.241
395.968
396.427
347.685
460.189
316.818
303.235
289.781
285.604
288.612
312.02
301.051
302.237
313.718
298.826
321.955
370.292
330.904
358.686
360.075
314.034
299.118
313.373
298.421
322.893
356.894
388.778
398.471
394.982
397.239
364.872
365.934
365.865
329.887
319.076
294.707
309.551
301.652
348.652
373.927
520.822
333.677
390.802
355.838
476.345
431.08
549.56
697.399
710.945
1045.27
1141.54
707.533
712.652
1007.55
365.936
317.575
302.779
321.672
307.79
351.416
373.664
275.234
309.704
276.728
322.165
276.097
309.143
276.215
428.602
513.024
407.105
398.728
478.73
409.187
479.205
479.993
417.175
404.689
511.789
403.843
398.006
479.963
330.424
370.225
330.376
368.358
394.589
418.391
418.67
335.018
389.182
374.293
408.893
398.265
422.114
431.02
336.318
361.501
315.521
384.33
449.564
422.923
404.672
395.996
567.262
521.72
512.539
479.325
580.538
603.704
405.204
466.798
435.569
463.567
414.403
463.842
427.787
460.649
410.061
428.228
406.417
463.089
465.71
426.417
330.291
348.787
317.246
372.695
379.551
383.086
380.766
337.215
375.85
347.775
380.305
397.977
414.85
404.583
473.539
440.812
416.067
426.912
501.433
464.714
462.849
619.658
562.594
490.312
561.477
518.239
600.608
621.513
1085.74
721.676
716.785
711.592
908.673
707.261
960.897
374.727
374.776
338
387.854
365.622
357.996
362.836
451.184
413.935
427.353
415.282
435.163
442.306
419.737
919.263
683.08
811.748
699.737
787.814
675.992
889.044
441.201
457.183
442.11
438.314
436.858
440.458
435.833
397.897
412.122
400.606
419.669
406.959
425.799
402.798
393.064
394.511
395.767
416.653
398.04
414.78
400.652
449.853
458.582
444.502
440.768
444.276
445
441.996
359.358
370.625
377.56
379.819
390.337
390.356
378.946
319.122
323.129
324.214
308.564
309.476
309.342
309.676
429.987
489.185
469.026
442.032
473.017
426.889
450.748
388.4
380.168
388.445
392.21
407.962
396.552
383.97
324.37
291.033
288.436
319.081
315.993
289.261
309.104
275.432
313.266
304.596
311.963
318.239
304.365
306.492
306.609
313.163
321.496
319.283
307.286
305.49
307.446
308.865
409.511
417.453
416.912
393.875
402.002
427.191
405.976
693.26
757.51
808.754
652.56
683.211
665.771
851.434
553.609
536.917
534.048
611.723
612.942
615.541
618.724
434.302
426.672
420.589
427.691
426.9
412.43
414.721
309.79
323.692
324.58
324.268
309.683
324.619
309.818
322.469
323.848
321.968
307.273
308.025
307.477
307.703
325.628
309.169
324.408
324.502
322.869
308.039
308.228
366.464
367.925
373.778
367.255
373.238
373.351
371.349
421.513
415.439
395.847
397.597
418.593
418.288
400.275
423.574
396.665
404.888
422.692
427.194
419.835
401.694
410.045
390.037
403.445
397.467
390.652
386.437
401.68
371.624
370.352
378.258
384.398
369.006
376.02
375.627
325.505
309.445
325.007
324.967
325.196
309.702
309.218
690.32
428.836
566.354
820.872
1211.04
706.061
570.933
422.951
323.63
314.99
415.583
491.133
376.597
506.843
363.178
499.778
319.917
370.115
314.468
414.531
489.795
362.036
1196.68
1214.81
682.939
706.037
1058.77
709.662
1076.37
688.533
708.443
1070.46
1221.73
683.288
706.427
1081.89
564.891
477.49
621.558
554.744
578.048
613.735
454.287
615.162
556.985
464.302
563.17
551.083
611.861
450.871
706.542
930.392
688.522
832.371
706.867
690.074
945.314
939.742
687.656
828.051
706.763
835.866
689.984
949.638
408.647
392.18
410.438
399.629
382.185
399.548
384.836
307.813
323.389
309.207
323.799
324.558
309.653
308.9
367.075
360.674
366.328
364.12
371.098
367.661
359.439
273.502
274.503
289.785
288.428
273.431
274.439
289.729
273.857
274.77
274.668
275.428
290.563
291.425
290.362
275.758
291.385
291.857
276.286
275.801
292.053
292.395
371.811
369.67
369.138
375.883
374.88
370.38
368.945
382.309
381.44
379.146
381.795
378.737
374.184
374.228
388.663
374.201
380.203
369.224
379.96
389.579
376.742
276.308
292.462
276.845
276.721
292.773
292.922
292.788
275.184
290.589
275.572
275.116
275.531
290.413
290.847
276.01
275.784
276.198
291.895
291.82
290.931
291.217
276.187
292.007
292.126
276.318
276.565
292.57
292.304
364.059
358.11
365.791
364.541
350.235
361.084
354.852
371.498
362.425
372.917
366.975
350.69
363.995
356.049
567.755
513.751
384.638
399.937
294.002
318.616
338.582
299.497
545.484
497.597
486.404
407.163
373.343
406.127
385.678
573.929
498.332
545.538
406.683
381.969
408.638
388.429
1605.72
317.009
358.111
377.902
441.012
395.687
464.908
390.228
363.091
395.543
364.709
450.342
382.841
468.496
389.942
365.123
304.088
288.156
301.008
317.323
330.36
337.434
328.637
328.194
284.997
313.698
291.739
304.495
338.267
325.761
300.8
1347.01
288.878
276.604
543.142
609.073
335.216
285.768
310.796
275.235
278.756
314.957
278.01
313.749
327.135
318.266
328.692
343.2
342.442
344.549
342.003
325.508
316.069
339.558
319.285
327.024
345.28
341.237
272.405
276.907
289.007
282.685
268.834
280.683
271.789
264.104
269.406
302.579
309.092
263.715
309.534
266.713
273.461
309.685
309.809
313.477
270.164
271.464
316.002
288.729
275.454
287.318
282.451
271.587
272.925
282.218
1767.07
1756.45
480.938
546.257
1638.72
286.739
273.841
1646.59
522.094
548.623
481.105
396.721
358.565
378.299
388.175
503.186
518.759
566.578
416.255
384.411
405.47
397.213
626.577
1774.41
609.974
561.553
1726.96
1717.92
556.935
594.959
1747.02
607.347
545.553
1719.11
541.934
1706.97
350.171
317.195
316.842
292.045
326.357
319.919
342.227
335.458
299.694
282.019
305.116
326.982
313.34
309.297
530.517
1681.89
530.125
1633.09
524.963
1673.89
532.147
518.496
1682.95
1635.06
520.605
519.632
516.906
1670.52
1596.86
536.482
531.788
558.564
1547.35
565.075
1544.08
302.714
304.982
317.965
297.879
312.352
296.418
313.123
1592.41
1591.26
536.407
569.51
1530.47
560.571
1535.91
319.562
304.698
298.625
304.441
317.874
297.616
313.046
327.552
271.528
366.221
286.335
330.548
271.95
360.252
370.999
292.703
276.249
329.855
287.669
274.634
361.473
281.649
270.302
283.561
275.339
280.741
271.923
283.273
282.365
273.063
285.437
281.429
275.627
272.522
283.14
1443.94
652.836
1330.35
598.784
1346.24
643.925
1455.28
295.318
310.455
295.357
310.655
294.523
310.83
295.34
313.221
297.046
298.085
295.314
310.932
310.936
295.537
598.365
1461.54
650.751
1354.36
605.828
643.911
1463.73
455.262
1606.69
360.744
322.03
313.837
1576.46
344.815
323.612
1324.01
299.877
1151.46
384.156
300.453
340.672
290.302
314.435
280.328
333.691
333.054
308.98
276.624
267.832
269.118
320.31
338.751
280.341
296.527
281.757
275.566
272.961
285.973
280.17
293.272
339.798
288.266
310.94
344.622
343.981
332.507
338.599
1598.21
575.931
551.83
1540.86
582.109
608.274
1520.66
327.923
307.636
313.196
316.924
301.301
307.645
322.539
547.179
1129.73
842.05
1458.61