/*--------------------------------*- C++ -*----------------------------------*\
  =========                 |
  \\      /  F ield         | OpenFOAM: The Open Source CFD Toolbox
   \\    /   O peration     | Website:  https://openfoam.org
    \\  /    A nd           | Version:  9
     \\/     M anipulation  |
\*---------------------------------------------------------------------------*/
FoamFile
{
    format      ascii;
    class       volScalarField;
    location    "0.00335";
    object      rho.air;
}
// * * * * * * * * * * * * * * * * * * * * * * * * * * * * * * * * * * * * * //

dimensions      [1 -3 0 0 0 0 0];

internalField   nonuniform List<scalar> 
30238
(
1.0657
1.26433
1.63136
1.43971
2.26467
2.15665
0.908364
1.06993
0.875835
0.752108
0.726058
0.990012
0.884878
0.973509
0.889056
0.807328
1.44128
1.30078
1.16065
1.02334
0.720566
0.657833
0.662711
0.784788
0.717969
0.725158
0.792723
0.735845
0.686695
0.671696
0.755616
0.736985
0.805747
0.826103
0.776011
0.738395
0.708967
0.781906
0.815421
0.854447
0.890169
0.796679
0.868699
0.790447
0.955646
0.94596
0.860536
0.869266
2.20713
2.14532
1.36748
1.09443
1.50927
1.12577
1.56956
0.812525
1.01614
0.938057
0.948135
0.820846
0.894201
1.02749
0.845212
0.815427
0.774109
0.900629
0.855223
0.932273
0.980053
0.825542
0.888197
0.807565
0.996374
0.97178
0.883705
0.906093
0.856569
0.964883
0.834859
0.909745
1.07308
0.933459
1.04596
0.782323
0.546337
0.563121
0.854125
0.624918
0.82711
0.508766
0.624574
0.636585
0.68847
0.862358
0.731427
0.912014
0.749999
0.624698
0.760127
0.502714
0.56759
0.586239
0.530318
0.562734
0.618749
0.600492
0.496257
0.541438
0.575232
0.52763
0.563275
0.602919
0.61704
0.597113
0.565484
0.60128
0.534416
0.568271
0.640991
0.670939
0.602292
0.594528
0.625331
0.699047
0.655699
0.642717
0.69208
0.610622
0.636995
0.618511
0.693508
0.663763
0.658442
0.693949
0.579389
0.563428
0.605893
0.647728
0.720471
0.700231
0.664765
0.652924
0.6415
0.613519
0.663004
0.712903
0.676046
0.700043
0.655447
0.630556
0.597894
0.636559
0.672792
0.704493
0.740895
0.786206
0.694811
0.656215
0.643757
0.608221
0.691243
0.724074
0.733023
0.696642
0.671394
0.668449
0.643465
0.69694
0.724112
0.756776
0.823202
0.754853
0.771578
0.713939
0.772307
0.711676
0.737283
0.722694
0.682373
0.872165
0.801438
0.827189
0.761074
0.697983
0.727793
0.76425
0.792578
0.832389
0.793408
0.756141
0.779397
0.836993
0.764592
0.781964
0.800409
0.718445
0.734079
0.831356
0.879265
0.801732
0.826578
0.859618
0.757398
0.787204
0.942507
0.898457
0.909583
0.997056
0.951477
0.867473
0.82238
0.885347
0.851614
0.937054
1.02929
0.936756
0.974779
1.06924
1.47806
2.27763
2.23009
1.27773
1.71993
1.18922
1.662
0.886377
1.0637
0.923538
1.10821
0.965438
1.00465
1.14981
0.972398
1.01664
0.925818
1.01901
1.16575
1.06871
1.11497
1.05828
0.966795
1.1991
1.21314
1.1035
0.977213
1.11616
1.01593
1.10978
0.966981
1.0499
1.24757
1.10036
1.1965
1.11638
1.08885
1.23467
0.994423
1.16499
1.02018
1.13628
2.21118
1.19512
1.61308
1.49407
1.03597
1.10815
0.913871
1.55965
1.56313
0.947876
0.970227
1.00717
1.08333
1.12014
1.14513
1.18425
1.09956
1.28071
1.21285
0.988903
1.05062
1.16353
1.22967
1.03508
1.14892
1.07423
1.29353
1.21509
1.25621
1.33614
0.750631
0.472467
0.719837
0.628168
0.491396
0.60128
0.916266
0.749136
0.749372
1.08037
0.642962
0.883348
0.677361
0.509012
0.947434
0.771854
0.47379
0.507614
0.510487
0.530852
0.535282
0.566178
0.571125
0.480027
0.530229
0.51777
0.554121
0.542468
0.579361
0.592989
0.533373
0.549325
0.572309
0.575294
0.597609
0.613678
0.641492
0.550867
0.60569
0.554751
0.659479
0.608967
0.614568
0.665872
0.614101
0.575967
0.562669
0.624046
0.693632
0.639498
0.67656
0.613189
0.724827
0.617783
0.760384
0.649881
0.65527
0.766664
0.597949
0.56347
0.606928
0.665627
0.629104
0.675296
0.713997
0.733946
0.638466
0.625518
0.664612
0.795858
0.680104
0.777802
0.649272
0.596128
0.623202
0.71814
0.662238
0.692046
0.749738
0.658438
0.802372
0.685848
0.821871
0.7031
0.733515
0.855578
0.869444
0.810214
0.695197
0.701534
0.87828
0.756711
0.81779
0.711424
0.693525
0.656018
0.727793
0.830399
0.768569
0.787403
0.712541
0.789047
0.851602
0.893274
0.730309
0.76926
0.830933
0.759503
0.839869
0.719882
0.770294
0.941841
0.812468
0.895883
0.35332
0.261014
0.358904
0.287035
0.47339
0.480574
0.265616
0.324432
0.413377
0.413856
0.225246
0.253444
0.242338
0.263533
0.316352
0.306259
0.325796
0.469332
0.40205
0.535384
0.296627
0.309877
0.441688
0.401992
0.393607
0.397771
0.437332
0.453781
0.503626
0.415089
0.420727
0.294723
0.290466
0.366782
0.290735
0.352251
0.34122
0.327167
0.254239
0.26456
0.267535
0.320365
0.317622
0.324912
0.316448
0.373518
0.477696
0.396641
0.493327
0.395304
0.403724
0.473557
0.311145
0.289751
0.343232
0.312826
0.345789
0.325281
0.34958
0.262535
0.26905
0.274506
0.317564
0.304476
0.305987
0.303613
0.458273
0.397579
0.413936
0.390208
0.39614
0.359256
0.424094
0.478458
0.402967
0.459587
0.401649
0.35566
0.382081
0.374146
0.331087
0.389538
0.36779
0.343527
0.367223
0.380883
0.404783
0.287693
0.337759
0.323966
0.335363
0.32486
0.362067
0.376469
0.371283
0.419856
0.38108
0.406639
0.362768
0.389625
0.43725
0.398949
0.491838
0.403139
0.392558
0.436764
0.378007
0.449772
0.385799
0.424018
0.398717
0.400604
0.36748
0.400008
0.432352
0.422537
0.428074
0.405975
0.42129
0.392026
0.406908
0.442364
0.372118
0.335759
0.342424
0.376338
0.351378
0.370433
0.394839
0.360758
0.407172
0.353184
0.398871
0.348085
0.351426
0.404443
0.4269
0.447202
0.405408
0.420184
0.489709
0.443441
0.466392
0.383839
0.372638
0.357254
0.39534
0.440219
0.421374
0.411254
0.0196083
0.098954
0.318719
0.1505
0.0697687
0.0482
0.113155
0.107021
0.0491953
0.156648
0.135771
0.0208008
0.0275204
0.0230053
0.0213948
0.0159931
0.0733307
0.0355273
0.219872
0.139066
0.161022
0.17597
0.172987
0.236713
0.281782
0.0562147
0.0768884
0.0684948
0.04777
0.0687337
0.0779443
0.056613
0.0259799
0.0325058
0.038681
0.0327013
0.0222328
0.0384436
0.0247717
0.0191703
0.0203275
0.0197455
0.0167751
0.0171042
0.0184298
0.0171286
0.120156
0.111244
0.0906031
0.121469
0.0949499
0.102986
0.128224
0.0480818
0.0708228
0.0707569
0.0813496
0.063869
0.0596791
0.0837932
0.0329721
0.0243007
0.0223564
0.0460536
0.0396685
0.0252278
0.0288483
0.136692
0.10134
0.102328
0.108653
0.136497
0.10921
0.137769
0.128626
0.144059
0.145312
0.165229
0.151789
0.156244
0.173047
0.0930286
0.0635683
0.0846516
0.0882977
0.0743169
0.0659382
0.0998022
0.0286816
0.04599
0.0429737
0.0473394
0.0432451
0.0265867
0.0284469
0.0157115
0.0175136
0.0167019
0.018348
0.0172061
0.019758
0.0164325
0.235006
0.291571
0.36931
0.203299
0.174151
0.267777
0.271508
0.131926
0.105457
0.126138
0.110648
0.13895
0.120539
0.132593
0.0192626
0.0209937
0.0187701
0.0192483
0.0176747
0.020194
0.0172543
0.169508
0.210333
0.197675
0.165592
0.167045
0.194417
0.194399
0.0961749
0.088182
0.0837576
0.123443
0.0734616
0.101454
0.114157
0.185592
0.210856
0.184655
0.201199
0.175107
0.194554
0.221605
0.118222
0.149809
0.139159
0.144052
0.12231
0.132875
0.140671
0.0196716
0.0184579
0.0188338
0.0257728
0.0222993
0.0214725
0.0172041
0.055046
0.0586944
0.0467135
0.0280433
0.0409986
0.0343417
0.0315034
0.145652
0.157411
0.154155
0.169285
0.164204
0.175508
0.176525
0.204704
0.192835
0.17994
0.219216
0.204906
0.20637
0.230982
0.167586
0.167396
0.163859
0.187433
0.195516
0.190615
0.186548
0.251506
0.245741
0.222654
0.220632
0.254056
0.222987
0.250272
0.191056
0.212456
0.184781
0.198385
0.22659
0.198502
0.227185
0.236676
0.276103
0.245977
0.256968
0.229595
0.254474
0.280392
0.215437
0.262851
0.242484
0.252193
0.230684
0.257002
0.279095
0.190789
0.224697
0.213082
0.235672
0.220577
0.244653
0.25896
0.21138
0.230794
0.214954
0.237999
0.213129
0.206843
0.239008
0.289731
0.296634
0.268294
0.28249
0.333773
0.305513
0.309846
0.24541
0.257723
0.234336
0.267945
0.306982
0.282099
0.292838
0.0231679
0.012857
0.145735
0.0657258
0.0116227
0.0130503
0.014752
0.0182962
0.0259585
0.014583
0.0270815
0.0228742
0.126017
0.0409023
0.0987782
0.0399528
0.0388321
0.14126
0.0157472
0.0202274
0.0221752
0.021029
0.0157072
0.0148142
0.0199421
0.0390449
0.0282454
0.0309299
0.0306085
0.0428276
0.0294069
0.0429624
0.012442
0.0120419
0.0125799
0.0147592
0.0140091
0.0129469
0.0136847
0.0703213
0.0522568
0.0534845
0.0713808
0.0566498
0.0603925
0.0803737
0.0638887
0.00889943
0.0129105
0.0103473
0.011548
0.0154303
0.0296989
0.189022
0.0423153
0.0982175
0.0242234
0.163046
0.0427869
0.13879
0.0407961
0.0381385
0.0247538
0.0252463
0.0269877
0.043578
0.046766
0.0115267
0.0146868
0.017206
0.0138051
0.0162582
0.0132033
0.0179461
0.0335261
0.0587779
0.0493607
0.0399328
0.0334119
0.0507204
0.0597648
0.0219327
0.019322
0.0168045
0.0162386
0.0264695
0.0189945
0.0218063
0.0110772
0.0105224
0.0100242
0.0117766
0.011356
0.0109545
0.012427
0.0755068
0.0883995
0.0596096
0.0706118
0.141803
0.0871834
0.106411
0.0841165
0.0793308
0.0667907
0.0725386
0.111125
0.084911
0.0962988
0.0164603
0.0172411
0.0154889
0.0139294
0.0159022
0.0153819
0.0147298
0.0159372
0.020512
0.0264877
0.0199518
0.0161807
0.0190113
0.0210657
0.0310146
0.039144
0.0320563
0.0520536
0.0623098
0.054753
0.061406
0.0146198
0.0152037
0.0169531
0.0120374
0.0138203
0.0148724
0.0180591
0.0479239
0.0272968
0.0272265
0.0556751
0.0532472
0.0583713
0.0310571
0.0833555
0.145779
0.131891
0.0983936
0.0950267
0.0941574
0.122089
0.0966584
0.172109
0.106517
0.160404
0.100119
0.0998615
0.150711
0.0127885
0.0127788
0.0145691
0.0151451
0.0127772
0.0146591
0.0131542
0.00994484
0.0110116
0.0114475
0.0107324
0.011267
0.0123261
0.0123717
0.0133379
0.0163616
0.0112843
0.014407
0.0334067
0.0180248
0.023019
0.0217743
0.0230165
0.0177033
0.0192102
0.0357104
0.0244677
0.0246975
0.0716375
0.0312218
0.0586257
0.0712715
0.0577678
0.0894741
0.041956
0.0327533
0.0686565
0.0581169
0.0704437
0.0580409
0.0417335
0.0884146
0.151517
0.108001
0.100467
0.107376
0.158243
0.12367
0.145259
0.00901548
0.0113845
0.0105963
0.0116743
0.00948006
0.0106659
0.0119936
0.0132652
0.016687
0.0136732
0.0147689
0.0161741
0.0173954
0.0143481
0.145
0.10213
0.0973772
0.106086
0.152022
0.120298
0.143974
0.0194698
0.0470536
0.0340909
0.0487424
0.0248632
0.0267798
0.03395
0.0894897
0.130446
0.0765021
0.0780442
0.108946
0.0580256
0.109985
0.0132273
0.0175849
0.0107574
0.0136581
0.013502
0.0157371
0.0128096
0.123032
0.173133
0.15925
0.170993
0.140643
0.140293
0.15637
0.334423
0.249798
0.374368
0.256191
0.0788635
0.110659
0.173389
0.143841
0.114618
0.18718
0.2986
0.0873579
0.0916194
0.0846671
0.103542
0.0983576
0.0972214
0.114167
0.394808
0.304882
0.273835
0.219295
0.303054
0.178372
0.308334
0.116926
0.205832
0.139443
0.192093
0.138634
0.162888
0.229022
0.160085
0.278689
0.361878
0.27075
0.369656
0.34471
0.454357
0.127877
0.120145
0.104859
0.137748
0.119553
0.130469
0.15143
0.128545
0.0984421
0.111302
0.133147
0.116201
0.132859
0.150946
0.227082
0.177851
0.157561
0.182934
0.287548
0.25714
0.207004
0.195547
0.165609
0.15618
0.181909
0.228756
0.234437
0.192567
0.269758
0.243415
0.224799
0.2245
0.276781
0.208154
0.270883
0.166308
0.125496
0.145404
0.149887
0.194633
0.16888
0.173605
0.13961
0.151595
0.165645
0.179998
0.188842
0.184056
0.217609
0.392155
0.347868
0.301309
0.355584
0.315681
0.328537
0.381659
0.475131
0.395062
0.497099
0.339587
0.449078
0.355365
0.413491
0.225944
0.183768
0.208931
0.192246
0.185261
0.231502
0.224291
0.198043
0.220643
0.252963
0.183642
0.184105
0.22872
0.215436
0.204079
0.300116
0.246224
0.263436
0.265577
0.216837
0.232194
0.202474
0.313406
0.327261
0.239968
0.232784
0.281724
0.371709
0.217682
0.202042
0.174988
0.235737
0.20943
0.259329
0.295237
0.306411
0.230855
0.203752
0.302075
0.230723
0.271529
0.353555
0.443011
0.48218
0.413796
0.403684
0.435823
0.447176
0.468678
0.337071
0.323596
0.273451
0.282925
0.293363
0.256957
0.335933
0.205105
0.201035
0.189399
0.221746
0.247922
0.234218
0.229056
0.346255
0.263732
0.301059
0.276836
0.286476
0.249044
0.327397
0.423006
0.351627
0.278593
0.339112
0.466131
0.420318
0.41382
0.345915
0.289927
0.273238
0.325828
0.395465
0.396092
0.346976
0.433315
0.334157
0.27962
0.328557
0.459579
0.373432
0.417167
0.389078
0.4489
0.367182
0.329448
0.38341
0.405157
0.358085
0.396977
0.325755
0.376616
0.391412
0.43922
0.406218
0.356963
0.255782
0.294715
0.275121
0.28909
0.262743
0.257294
0.29389
0.506032
0.481686
0.452777
0.490228
0.479948
0.475952
0.451248
0.38932
0.477383
0.470873
0.436027
0.443893
0.412713
0.456469
0.329577
0.32493
0.332418
0.361683
0.374636
0.362414
0.358895
0.271009
0.265074
0.247132
0.272506
0.316675
0.296967
0.289521
0.434779
0.472922
0.395695
0.408848
0.408242
0.385606
0.400822
0.455801
0.409187
0.461117
0.415023
0.408518
0.384248
0.410049
0.297548
0.350572
0.342061
0.340447
0.322872
0.314104
0.324366
0.387459
0.428407
0.411088
0.42728
0.396135
0.393065
0.408976
0.459146
0.44008
0.465185
0.467748
0.366381
0.45951
0.44213
0.407394
0.372523
0.407319
0.395845
0.440768
0.468627
0.486687
0.495717
0.454861
0.425192
0.486032
0.47036
0.469139
0.4883
0.445494
0.522014
0.523099
0.492207
0.573439
0.530687
0.528716
0.539945
0.521817
0.399191
0.482793
0.45143
0.526122
0.48218
0.394675
0.477786
0.498614
0.500363
0.491576
0.418575
0.422344
0.466723
0.356496
0.366762
0.427834
0.413025
0.367705
0.358514
0.370893
0.443859
0.545594
0.539562
0.475408
0.412964
0.461547
0.396965
0.383387
0.42159
0.368138
0.404685
0.475682
0.421386
0.455904
0.425102
0.47863
0.451475
0.43478
0.496527
0.464384
0.469322
0.417302
0.387992
0.372905
0.401835
0.4102
0.410894
0.385083
0.419867
0.400016
0.367762
0.399638
0.448649
0.432443
0.419651
0.433234
0.401363
0.382032
0.405308
0.45656
0.444227
0.42302
0.436291
0.511267
0.482561
0.506939
0.461679
0.454304
0.485724
0.517416
0.481207
0.466977
0.434879
0.485129
0.472719
0.450169
0.505478
0.45333
0.553073
0.53776
0.479583
0.424966
0.597875
0.454794
0.583692
0.562063
0.70383
0.557387
0.504701
0.429782
0.618588
0.471802
0.527537
0.561303
0.502707
0.589588
0.515709
0.571432
0.494057
0.466081
0.434249
0.444172
0.440189
0.451681
0.465672
0.468919
0.454617
0.45177
0.453196
0.48101
0.477271
0.486863
0.511538
0.547272
0.484245
0.481472
0.561858
0.554214
0.502622
0.528588
0.531471
0.443633
0.461331
0.487225
0.523667
0.487399
0.485042
0.481443
0.532942
0.508057
0.529414
0.503181
0.537315
0.564051
0.468553
0.453591
0.449234
0.493135
0.537273
0.501807
0.526775
0.445462
0.447999
0.443808
0.483945
0.498565
0.490613
0.488623
0.477321
0.534543
0.507001
0.557872
0.521578
0.54644
0.583662
0.462998
0.49554
0.485796
0.515587
0.506478
0.528677
0.539271
0.533155
0.576887
0.541923
0.52523
0.583004
0.566677
0.532275
0.525451
0.577809
0.546521
0.587349
0.53373
0.568228
0.536381
0.594175
0.535137
0.564568
0.573174
0.642479
0.601394
0.612149
0.542582
0.524561
0.512786
0.554838
0.601365
0.584085
0.568298
0.639416
0.595304
0.615315
0.563536
0.550313
0.572631
0.5872
0.677318
0.646174
0.669191
0.598974
0.649891
0.628669
0.616331
0.816729
0.880385
0.755812
0.788654
0.985889
0.851736
0.916648
0.827758
0.939911
1.00737
1.03049
0.872307
0.893047
0.959248
0.0423554
0.23893
0.433692
0.182282
0.0698095
0.242907
0.289734
0.102772
0.0672644
0.235083
0.313467
0.412455
0.318174
0.501541
0.365034
0.299356
0.394953
0.0614001
0.0495662
0.0712076
0.0505402
0.0719637
0.0828801
0.0589182
0.340722
0.517069
0.419212
0.637597
0.532331
0.418118
0.505011
0.114271
0.200509
0.128648
0.202946
0.129632
0.144753
0.221347
0.0597498
0.0948357
0.0832144
0.0950219
0.0801815
0.107246
0.0691952
0.0578248
0.0934872
0.0818979
0.0944305
0.0784832
0.106497
0.0682226
0.274327
0.26003
0.297635
0.26389
0.302055
0.284784
0.325742
0.297863
0.343169
0.322363
0.346445
0.326557
0.352474
0.373471
0.223317
0.160019
0.144999
0.160519
0.260317
0.241447
0.175475
0.217992
0.158048
0.143289
0.159632
0.254708
0.174123
0.238445
0.365893
0.365746
0.368257
0.391721
0.393359
0.39566
0.421848
0.107155
0.0911999
0.131955
0.0903991
0.1194
0.119706
0.0794195
0.280014
0.342277
0.320154
0.322064
0.303939
0.347808
0.368921
0.175268
0.275682
0.202824
0.273077
0.189148
0.257816
0.189767
0.288844
0.3605
0.330867
0.332587
0.309058
0.354381
0.383214
0.391435
0.446604
0.417969
0.447058
0.418976
0.448526
0.477744
0.390821
0.377674
0.357509
0.384614
0.443616
0.406873
0.418368
0.368391
0.371787
0.346738
0.377618
0.428388
0.402638
0.40047
0.391124
0.445799
0.417959
0.45231
0.423296
0.450568
0.480732
0.398979
0.459299
0.424228
0.466554
0.429017
0.455577
0.493764
0.349327
0.343979
0.327077
0.37554
0.421979
0.395563
0.403149
0.486546
0.479288
0.450368
0.483225
0.555456
0.513652
0.522988
0.474718
0.47415
0.445088
0.478629
0.543027
0.510561
0.509271
0.409988
0.47332
0.465864
0.46421
0.434142
0.435579
0.443067
0.499272
0.490359
0.45915
0.487115
0.564732
0.520085
0.528534
0.0358454
0.0264749
0.21588
0.108152
0.399227
0.244668
0.359246
0.0689164
0.0217918
0.0304006
0.0391292
0.141505
0.0247918
0.0888784
0.22286
0.0754858
0.124292
0.249041
0.205622
0.130964
0.172728
0.318794
0.160471
0.227195
0.313136
0.25666
0.189065
0.245883
0.0490812
0.0518614
0.0309698
0.0535788
0.0333106
0.0348309
0.0582082
0.0190996
0.018978
0.0218252
0.0206526
0.0237288
0.0243809
0.0211326
0.101919
0.0827067
0.11273
0.0825328
0.113116
0.128371
0.0930121
0.162963
0.0597772
0.222889
0.0456608
0.167248
0.029084
0.109868
0.290716
0.379049
0.291785
0.267083
0.219022
0.143606
0.198043
0.142803
0.152115
0.134855
0.161026
0.139811
0.154308
0.172272
0.020633
0.030147
0.0242314
0.0280341
0.0288191
0.0353875
0.0237208
0.0644691
0.0490104
0.0361749
0.042331
0.105251
0.0581333
0.0756792
0.103679
0.148602
0.133647
0.155618
0.154636
0.120704
0.175923
0.314144
0.478367
0.390609
0.348734
0.281903
0.217553
0.281897
0.165296
0.159343
0.151211
0.174609
0.192775
0.183293
0.186515
0.168317
0.178232
0.185058
0.179611
0.188215
0.197652
0.20436
0.0304048
0.0231725
0.026599
0.0278949
0.0279536
0.0324245
0.0241147
0.0374083
0.0305188
0.0411173
0.0338097
0.043913
0.0480553
0.0355115
0.042961
0.0599702
0.0374394
0.040082
0.0785642
0.0469919
0.0668148
0.179501
0.206616
0.194612
0.20615
0.198418
0.211805
0.222044
0.153156
0.0929443
0.129403
0.148838
0.126747
0.176743
0.107242
0.0651786
0.122488
0.0743445
0.128626
0.0767024
0.0863473
0.140432
0.266675
0.482628
0.555571
0.49182
0.34728
0.274758
0.435239
0.0327797
0.0322642
0.0487637
0.0335367
0.038596
0.0415308
0.027568
0.193321
0.186672
0.161877
0.18067
0.237763
0.215252
0.200328
0.163675
0.164079
0.19221
0.16787
0.187345
0.215288
0.186842
0.180841
0.231307
0.212526
0.217082
0.202176
0.234712
0.252211
0.0522106
0.0310721
0.0444947
0.052329
0.0428457
0.0614519
0.036899
0.0499283
0.104725
0.0802734
0.1225
0.05927
0.0684429
0.0888113
0.199097
0.231331
0.204895
0.245641
0.218109
0.222932
0.24808
0.206946
0.253224
0.215872
0.265372
0.226783
0.232036
0.268577
0.204147
0.251246
0.24611
0.217847
0.240542
0.211928
0.214969
0.181515
0.164946
0.238681
0.178923
0.21346
0.140511
0.205577
0.0593239
0.039284
0.0511618
0.0556854
0.0480462
0.0641494
0.0413258
0.238088
0.252473
0.234612
0.27483
0.254149
0.271854
0.293369
0.234207
0.224891
0.212135
0.227694
0.26232
0.240162
0.248965
0.0997169
0.14204
0.0852248
0.0981662
0.182981
0.113956
0.160849
0.249225
0.190802
0.221824
0.246845
0.24048
0.275827
0.214373
0.257633
0.228284
0.224102
0.235663
0.269879
0.266899
0.242613
0.101883
0.147558
0.0888521
0.0987067
0.177951
0.111597
0.158796
0.061023
0.0508277
0.0822843
0.0512555
0.0715387
0.0705593
0.0435909
0.271985
0.262897
0.243456
0.268039
0.31777
0.298726
0.286394
0.242128
0.192789
0.213233
0.240092
0.235302
0.267339
0.210478
0.288813
0.276855
0.248554
0.251056
0.312309
0.287313
0.275948
0.254971
0.239704
0.226583
0.259473
0.304179
0.287641
0.27619
0.267313
0.284824
0.323036
0.317118
0.283135
0.34049
0.332028
0.284895
0.338578
0.308483
0.339156
0.307159
0.330114
0.363211
0.258888
0.322601
0.297675
0.298841
0.275005
0.315954
0.341153
0.111509
0.203043
0.143181
0.199577
0.128506
0.125316
0.180008
0.25565
0.300463
0.274434
0.322017
0.294675
0.315688
0.342995
0.264638
0.315707
0.306368
0.292915
0.279342
0.322342
0.335602
0.251024
0.302273
0.288184
0.28436
0.28087
0.26076
0.272577
0.273473
0.265479
0.333447
0.263629
0.303885
0.302065
0.238583
0.295057
0.359682
0.346607
0.34292
0.327797
0.325155
0.312802
0.363544
0.358745
0.332606
0.353942
0.415186
0.387994
0.380203
0.367244
0.36211
0.332606
0.355299
0.423441
0.391252
0.38489
0.316533
0.346142
0.310896
0.413118
0.371877
0.358473
0.39089
0.322172
0.32046
0.295495
0.338286
0.39337
0.36609
0.364231
0.399687
0.442645
0.379184
0.499197
0.415919
0.394097
0.461037
0.334057
0.316744
0.303687
0.347188
0.392743
0.378033
0.360917
0.423719
0.369468
0.359312
0.378889
0.461063
0.391666
0.448404
0.0829386
0.206667
0.015924
0.0297095
0.143002
0.0249664
0.0173554
0.0910162
0.0407744
0.121312
0.191727
0.268043
0.119624
0.0573143
0.181693
0.143567
0.0291371
0.0505075
0.0313967
0.0552436
0.0360448
0.0404566
0.0678007
0.0842114
0.0776564
0.108058
0.0754808
0.101989
0.128491
0.0987841
0.0195861
0.0176362
0.0202688
0.0191386
0.0227361
0.0241179
0.0196216
0.113671
0.165247
0.136927
0.154177
0.128414
0.154744
0.180361
0.0228665
0.0153682
0.0197502
0.0248292
0.0197645
0.0291408
0.0180568
0.15314
0.100125
0.131403
0.153385
0.14463
0.176231
0.122678
0.0455476
0.0663633
0.0363003
0.0476548
0.102892
0.0583937
0.0852777
0.0215866
0.0315683
0.0266132
0.0290724
0.0262075
0.0347917
0.0225275
0.0724729
0.0543229
0.0445654
0.0510354
0.104441
0.0625286
0.0860905
0.0965427
0.141678
0.121122
0.14918
0.14192
0.120197
0.170291
0.179713
0.187024
0.159159
0.178976
0.225754
0.201268
0.204082
0.161818
0.167185
0.14449
0.17312
0.212832
0.192202
0.196089
0.0308194
0.0243709
0.04381
0.0259892
0.036152
0.0373828
0.0216551
0.0599281
0.122986
0.0857373
0.123301
0.0719137
0.0725195
0.104403
0.175528
0.168028
0.223919
0.167761
0.199687
0.145166
0.198187
0.199469
0.246134
0.247113
0.241693
0.223664
0.220805
0.222212
0.0267885
0.157737
0.287661
0.0802167
0.0110313
0.0151265
0.0478934
0.0245352
0.0280582
0.137903
0.206548
0.110565
0.118681
0.187881
0.1321
0.186286
0.266238
0.0190211
0.0492023
0.0343649
0.0472283
0.0251108
0.0343423
0.0641165
0.222
0.216621
0.284125
0.321407
0.220582
0.291298
0.373905
0.0900832
0.0785956
0.0585532
0.0767084
0.109218
0.130744
0.0984823
0.172032
0.141032
0.123882
0.173504
0.140948
0.15961
0.18948
0.0144023
0.00897489
0.0108446
0.0102477
0.0133579
0.0176622
0.01268
0.190916
0.202674
0.23116
0.205714
0.235213
0.219894
0.248711
0.0625175
0.0437925
0.0333117
0.0437985
0.0981135
0.0551943
0.0802757
0.021982
0.0122949
0.0170775
0.0220185
0.0185275
0.0274917
0.0151774
0.0365629
0.0857844
0.0668618
0.0457999
0.103196
0.0586395
0.0831944
0.0172072
0.0138374
0.0190758
0.0230946
0.0199557
0.0294241
0.0159432
0.151107
0.0967415
0.129404
0.151179
0.140026
0.118746
0.172619
0.154072
0.123333
0.100744
0.153376
0.144939
0.121572
0.176482
0.189488
0.178458
0.158902
0.17854
0.224726
0.198579
0.206638
0.159892
0.204778
0.179663
0.179953
0.225993
0.201477
0.206985
0.253058
0.259067
0.290279
0.295503
0.263844
0.276196
0.306263
0.235889
0.264665
0.249714
0.252594
0.235997
0.26478
0.280913
0.231541
0.258173
0.244149
0.252461
0.235418
0.263418
0.279402
0.0280928
0.0228087
0.0235787
0.0418231
0.0351456
0.0341065
0.0189419
0.0563256
0.117551
0.120307
0.0824356
0.0700807
0.0682567
0.0998292
0.174065
0.162667
0.165529
0.219176
0.141823
0.197744
0.1953
0.199649
0.244586
0.246116
0.243119
0.222191
0.220014
0.225532
0.311881
0.270465
0.299285
0.290462
0.334323
0.305937
0.319651
0.306977
0.292177
0.277115
0.292365
0.33761
0.308624
0.321647
0.270987
0.271988
0.253051
0.280971
0.318168
0.298935
0.298541
0.308205
0.354289
0.354895
0.345085
0.325752
0.325809
0.337263
0.0997301
0.225514
0.337106
0.01887
0.0352036
0.161587
0.0569978
0.0335542
0.214958
0.156211
0.141748
0.214084
0.292239
0.276185
0.20773
0.364317
0.287603
0.253009
0.315713
0.373405
0.387302
0.311879
0.417935
0.373639
0.0280412
0.0234955
0.0228219
0.0341141
0.0350766
0.0418098
0.0280627
0.0562798
0.12015
0.117535
0.0682341
0.069984
0.0823755
0.137853
0.174021
0.165414
0.162656
0.195286
0.197673
0.219125
0.186234
0.199631
0.246068
0.244572
0.22
0.222141
0.243069
0.266186
0.0289458
0.0517082
0.0429655
0.0505446
0.0413505
0.0603649
0.0342207
0.0276588
0.0497079
0.0412853
0.0496888
0.0401899
0.0588992
0.0335428
0.280881
0.271938
0.270979
0.298537
0.298884
0.291256
0.318135
0.140858
0.0991661
0.0843641
0.0972773
0.179515
0.11273
0.1586
0.13644
0.0958347
0.0814877
0.0958078
0.175232
0.110243
0.156189
0.189543
0.247694
0.222168
0.244125
0.235149
0.210464
0.270341
0.268281
0.271108
0.245938
0.267795
0.315425
0.294208
0.289829
0.184657
0.241367
0.217594
0.241335
0.230011
0.207698
0.264866
0.265121
0.265063
0.24159
0.265029
0.310828
0.288766
0.287568
0.308087
0.354181
0.354882
0.325795
0.325675
0.345049
0.373847
0.0592873
0.0485481
0.0479802
0.0809326
0.0693281
0.0700706
0.0404824
0.292851
0.341231
0.318974
0.338621
0.31385
0.340154
0.364608
0.290424
0.338625
0.317555
0.334424
0.311844
0.338586
0.361124
0.110987
0.197202
0.141612
0.194878
0.125544
0.126898
0.176515
0.266487
0.255723
0.252934
0.315757
0.231495
0.289772
0.29289
0.290401
0.339085
0.342267
0.336356
0.314525
0.317637
0.312246
0.345244
0.367014
0.394864
0.36664
0.419284
0.390825
0.39521
0.394493
0.365497
0.344504
0.365457
0.417285
0.38807
0.394453
0.362094
0.359533
0.335776
0.362293
0.414488
0.386393
0.388645
0.442842
0.471856
0.4445
0.388955
0.441934
0.413406
0.415359
0.379195
0.449226
0.444073
0.43745
0.416265
0.409365
0.406036
0.481512
0.525659
0.44524
0.418438
0.517162
0.447307
0.48645
0.439323
0.423239
0.597592
0.563393
0.558711
0.383338
0.311542
0.464085
0.353491
0.351598
0.329799
0.392933
0.372689
0.371366
0.413275
0.390685
0.462215
0.429907
0.448233
0.412519
0.452725
0.48833
0.353105
0.427956
0.397039
0.428303
0.396379
0.439139
0.471846
0.402285
0.498306
0.440293
0.490121
0.424378
0.463143
0.525476
0.418759
0.529307
0.452318
0.40495
0.513424
0.436926
0.477937
0.531723
0.47534
0.506918
0.500711
0.596667
0.535715
0.561504
0.478118
0.472347
0.514131
0.480916
0.558114
0.519838
0.51584
0.599803
0.560763
0.521684
0.451709
0.486048
0.491624
0.52726
0.51668
0.595239
0.599336
0.586881
0.551989
0.549063
0.560215
0.636606
0.570365
0.641818
0.685112
0.612485
0.531775
0.570062
1.10648
1.29055
1.27618
1.17747
1.19094
1.36509
1.38121
1.15168
1.20116
1.05414
1.09493
1.34265
1.24308
1.19314
1.24598
1.16953
1.11937
1.38398
1.43678
1.35521
1.30322
1.15362
1.34267
1.31241
1.24129
1.21188
1.40493
1.43681
2.14922
1.88087
1.57079
2.01826
1.89711
2.05111
2.17906
1.64722
1.51744
1.59775
1.27923
1.31919
1.34768
1.39019
1.231
1.42385
1.38031
1.27789
1.32014
1.4757
1.52068
1.14124
1.29051
1.38941
1.34077
1.19227
1.2897
1.23957
1.41918
1.67915
1.77382
1.61687
1.70546
1.36604
1.43912
1.38403
1.26866
1.28361
1.57294
1.46328
1.48132
1.59326
1.32893
1.4727
1.52736
1.41909
1.36719
1.57176
1.63002
1.86173
1.51308
1.80341
1.74661
1.69175
1.42551
1.47006
1.40801
1.33655
1.30603
1.50708
1.65885
1.54088
1.6218
1.91077
1.76229
2.11031
2.26386
2.25113
1.48872
1.30016
1.49147
1.79874
1.77443
1.90455
1.59297
1.61324
1.9299
1.87697
1.5351
1.83301
1.64217
2.00557
1.68006
1.96397
1.37381
1.52247
1.41659
1.70408
1.58187
1.62988
1.75767
1.6743
1.92691
1.99563
1.57804
1.88188
1.80994
1.52078
1.57327
1.51857
1.46466
1.68552
1.89595
1.75023
1.82139
2.20743
1.47753
1.73511
2.21286
2.2629
1.2659
1.49317
1.98449
1.61204
1.92838
2.05221
1.72667
1.78269
2.09984
1.78817
2.04396
2.10261
1.84772
2.18697
1.92171
2.14558
1.98912
1.84193
1.93788
2.13718
2.16268
2.18068
2.20161
1.85248
2.03537
1.7107
1.7344
2.16191
2.05832
1.87955
2.09441
1.95651
2.04248
2.21137
2.18806
2.22009
2.23468
1.76807
1.96141
2.18322
2.12159
1.8114
2.08782
1.91647
2.11574
2.24082
2.07606
2.03215
2.21719
2.23056
2.24793
2.01321
2.15601
1.86385
1.92428
2.24995
2.1893
2.06992
2.23591
2.09355
2.23032
2.16647
2.17956
2.24447
2.24663
0.775906
0.961134
0.794762
0.678009
1.06054
0.932168
1.17871
1.11044
0.726957
0.68289
0.636098
0.706528
0.751829
0.757151
0.804971
0.830552
0.724301
0.775868
0.858115
0.802071
0.858082
0.917265
0.844148
0.781941
0.735393
0.878532
0.814107
0.864692
0.932025
0.804111
0.986197
0.853696
0.993
0.859633
0.911905
1.04922
0.481329
0.568675
0.426769
0.505747
0.502697
0.572007
0.585254
0.652627
0.455494
0.451961
0.435742
0.479001
0.464667
0.470212
0.496793
0.477042
0.527912
0.50281
0.524676
0.494074
0.524765
0.554924
0.482481
0.53319
0.508651
0.537676
0.503708
0.529669
0.564343
0.46713
0.43536
0.450414
0.485407
0.473102
0.503835
0.517647
0.624694
0.588025
0.555159
0.558355
0.529633
0.55746
0.592979
0.59084
0.552652
0.536614
0.515429
0.500796
0.536711
0.552762
0.524909
0.555168
0.513113
0.542843
0.601682
0.584383
0.557689
0.678579
0.638185
0.616671
0.632528
0.593463
0.610414
0.575122
0.557018
0.452468
0.676286
0.566806
0.734971
0.681944
0.584086
0.6342
0.491644
0.480697
0.480968
0.520589
0.5128
0.521541
0.554438
0.371444
0.445048
0.406748
0.560712
0.516575
0.428332
0.594922
0.558844
0.407644
0.388018
0.388911
0.407614
0.425423
0.424889
0.444731
0.323758
0.345946
0.385451
0.467738
0.356008
0.449021
0.371604
0.463687
0.325716
0.355522
0.330202
0.341185
0.36321
0.360079
0.376186
0.334236
0.383383
0.368416
0.35442
0.370741
0.390586
0.40538
0.409975
0.430177
0.429258
0.397209
0.395585
0.412326
0.44982
0.341393
0.391486
0.371965
0.356273
0.375729
0.391717
0.407952
0.422306
0.449476
0.408615
0.427689
0.489973
0.443885
0.469783
0.411825
0.468894
0.428001
0.428152
0.489078
0.445034
0.468994
0.388145
0.388922
0.407685
0.40775
0.444815
0.424978
0.425441
0.489488
0.46365
0.510439
0.511518
0.463766
0.484521
0.534153
0.428782
0.452905
0.427999
0.466222
0.444211
0.466585
0.491583
0.407614
0.444599
0.451354
0.465991
0.428381
0.465936
0.489645
0.510505
0.534295
0.484627
0.445122
0.511673
0.463849
0.489591
0.535652
0.562886
0.591121
0.50895
0.484851
0.508207
0.535327
0.547789
0.507099
0.477309
0.451858
0.478841
0.490235
0.518337
0.5332
0.55877
0.586736
0.532349
0.507078
0.484083
0.507015
0.626544
0.594452
0.536748
0.631778
0.569454
0.603702
0.668268
0.599554
0.514444
0.55422
0.594458
0.550284
0.594345
0.641818
0.541462
0.550904
0.509867
0.581281
0.54575
0.588931
0.626526
0.656225
0.563542
0.621769
0.58795
0.618826
0.561276
0.533207
0.699977
0.598796
0.661219
0.640165
0.751568