/*--------------------------------*- C++ -*----------------------------------*\
  =========                 |
  \\      /  F ield         | OpenFOAM: The Open Source CFD Toolbox
   \\    /   O peration     | Website:  https://openfoam.org
    \\  /    A nd           | Version:  9
     \\/     M anipulation  |
\*---------------------------------------------------------------------------*/
FoamFile
{
    format      ascii;
    class       volScalarField;
    location    "0.002";
    object      overpressure;
}
// * * * * * * * * * * * * * * * * * * * * * * * * * * * * * * * * * * * * * //

dimensions      [1 -1 -2 0 0 0 0];

internalField   nonuniform List<scalar> 
17744
(
63561.6
302390
97737.9
321708
161746
264178
345230
240575
268103
134913
505269
157322
249105
228561
286287
262669
538287
323996
248005
102476
320273
109156
343453
173052
360631
374409
80854.9
77435.2
67844.5
167486
161001
136327
137563
131521
157438
213686
244568
198146
147133
222378
117673
79630.4
100983
174087
228143
142416
165853
144908
266561
339678
193886
163740
190139
257540
71478
69774.7
61786.1
87054.3
84508.3
92483
95053.4
256075
155545
145434
142678
228428
141668
238626
99830
180324
171641
211477
228509
141117
147702
78950
91291.2
89303.4
101625
113882
112017
103979
59434.8
73847.4
65769.4
88069.4
82157.3
90661.4
96298.9
131685
145339
146273
149771
150721
166633
168753
132427
151866
148297
156820
152948
172104
177103
148189
237611
314785
137275
211773
139126
293941
277903
196629
186688
247112
264851
161631
159154
133863
111523
108351
116493
143460
141902
119127
87512.4
72668
81149.9
93500.6
101315
101112
108653
128724
187996
246644
240952
153249
195347
324825
88048
93257.3
82948
100242
116284
105662
110936
120158
95077.5
114805
135551
115303
122342
142376
156201
409908
206299
154621
248145
195536
360528
100677
114540
113130
124654
123461
135956
136400
149372
149374
151180
168427
170915
173898
171572
125768
137008
161408
151628
151072
136130
127578
131861
111945
106229
114765
146213
140328
120348
139056
157204
164447
162437
184033
169880
193070
158523
152718
154148
178211
181849
184097
175982
139096
146003
142815
170993
170265
167400
173450
87929.8
105005
95422
120674
110141
117610
128260
182873
223895
280401
167482
154239
254721
318113
242738
302541
334908
230876
457167
265432
380308
248397
155821
164574
208519
295644
224936
323539
289476
383971
208703
257583
282192
398196
452529
171611
201586
173763
221667
191775
195112
226302
104980
117943
112650
128199
122722
135636
141465
311746
169402
216545
270202
343789
177806
233993
124370
140859
161017
156149
149999
129954
135107
108497
136091
127192
131075
161697
151027
141657
153449
150311
147620
175767
182926
181613
177664
205438
273913
531772
278180
171197
437553
197995
182877
206741
177447
199948
241221
206590
232680
116640
150641
124323
151427
124939
132708
160149
136095
145889
140228
169571
171402
165581
175599
127397
141152
126595
149550
162910
164194
149118
129989
134821
130114
50255.1
52255.6
37417.6
116534
35143.8
114164
66923
180975
90792.2
58804.1
119462
86707.5
166391
43999.2
35440.8
41403.8
65864.3
61475.3
66482.7
70346.8
56629.9
54617.6
47756.4
71804.3
80226.7
77793.3
74962
40207.6
47928.4
43645.5
65167.6
58111.3
62933.8
69339.7
70604.7
56108.2
69311.7
74893.3
85692.4
78001.9
87820.5
45866.3
58736.6
52839.5
68484.4
80790.3
74767.8
74523.9
108418
86316
108740
124156
101908
103436
125113
91282.6
112217
86920.5
91062.7
119960
115992
94961.3
62324.5
76232.6
72755.5
87169.6
82031.9
90995.7
95456.6
95738.2
126797
104931
124415
101453
120803
99437
111143
88039.4
109063
105988
130521
109894
127112
108568
88575.5
82672.1
87119.2
118435
112794
92873.6
92455.3
124441
104595
123782
98771.4
118079
98247.7
95785.7
127825
105029
123428
99326.4
107950
131464
143188
143069
120666
123147
169619
146589
145130
109650
128551
103926
112071
142772
117471
136441
126817
157767
153389
174437
131876
151412
148480
152426
185034
173666
190169
179103
204286
217957
292565
210116
197323
365300
420780
240161
261585
164600
171782
172628
189343
191849
201696
198671
147536
172852
147567
160147
183463
185426
159214
139959
124879
128368
158160
161501
147226
151286
138551
160034
189365
147012
199872
175820
168592
151718
151254
157705
174791
187760
181197
181074
160342
168782
168372
189229
188506
196415
196410
116352
122209
132852
129669
140739
146647
155152
227263
192957
196548
200698
227782
232637
197027
132144
141545
126489
149800
172128
165390
156119
326755
419092
545196
100054
523264
326279
299255
222819
252134
215313
234332
199167
226431
265839
200754
231368
199973
227518
231067
197295
203043
153155
173413
147085
160354
194703
187231
166899
143500
138266
132793
171117
165745
156416
162936
206373
209461
249194
234972
213800
239814
202449
145976
161954
134689
142753
184391
171368
154548
187878
177182
177576
205409
213757
215764
204446
165357
174334
167846
195755
188842
197746
205169
156809
171798
173423
177964
179873
196863
194497
205442
241962
211932
235454
211086
235923
207129
171535
242970
362018
252310
344682
306799
538861
195315
181728
182794
213807
224788
210213
228474
173733
196599
214621
186186
188473
199269
172085
147079
160432
141949
174622
154222
169022
190021
146403
150651
158899
176723
181212
186045
190870
371212
185739
247208
435785
561262
241910
331055
157287
191950
201648
212703
187727
179160
169432
170171
183440
185085
193486
195209
210439
208037
198925
186921
203758
215385
234091
220510
253020
201216
242950
230611
203796
234580
197311
208011
189215
184730
177849
207913
228623
216076
219556
136876
162060
144934
179623
162225
171517
189985
162997
164703
171961
194497
187159
197418
205531
170460
199981
174780
232802
203657
208863
238580
161803
145115
177929
153710
186643
171449
182722
158034
182890
175929
189696
182401
200786
208952
220377
297293
549454
466358
276832
557969
399879
218479
261386
223256
235110
275954
277529
230198
206478
246702
220614
248783
212948
239962
213649
175048
210687
219144
198898
191157
202392
182106
126737
143656
130822
170742
152685
157509
176610
158959
199411
168269
203673
173741
183916
216477
170806
194648
187164
205505
197590
214393
223341
198080
302570
288980
308723
333409
337490
253219
224168
248523
210349
239858
306348
283494
256001
181126
217765
185306
217203
174788
180102
225427
249360
217562
217765
225711
255400
258329
224354
235785
258993
265182
275327
282296
313084
322090
180861
180919
191488
203347
213892
215364
227094
199370
209462
212270
225036
227894
242090
238582
180756
188416
214551
216042
257372
225113
246756
189254
211128
191314
215804
233825
237312
212918
210387
226976
228249
243758
246246
268323
269391
142567
149625
136086
163815
195962
171933
184773
232101
201834
204610
222756
248168
252220
219530
197451
225951
190582
187086
253479
196464
237181
254857
228982
220654
229727
275272
264565
238859
198988
219408
201258
227777
244124
247774
224771
327469
455185
453064
442269
545865
475522
467559
176425
175548
157526
186259
229898
205993
208299
171141
178582
164573
214338
198252
197754
218363
252011
285310
273718
305878
292297
335270
353976
201947
225315
216227
242981
232914
248208
259231
181310
191447
198707
202714
210690
219552
233545
522827
283072
403840
380803
279772
397339
459366
249888
328609
267024
302404
299144
245746
268664
235263
281956
243627
265634
269111
246726
232911
207143
217940
183665
200307
268616
236727
225229
221286
208507
190253
201583
257306
221543
235675
237819
217418
208722
228050
270566
258857
237928
202926
216033
195160
220849
253859
243229
230167
192299
218266
203922
240357
226217
240827
256678
291214
237317
306088
188180
285748
339579
381887
270876
300816
279870
321423
324085
380223
348387
414658
229652
259776
221758
234886
287841
243792
277853
219617
252399
222038
238701
266892
270995
235565
253093
210662
215414
264166
222429
227733
269952
150667
180875
160871
211719
182611
197005
234252
267620
273495
274843
343028
333119
344802
353937
224486
204014
234546
265513
240690
276495
306862
224365
213320
204898
233039
265613
254093
243270
225016
238123
209651
271060
236340
249928
288424
223638
243990
227005
258552
272715
277434
254478
197152
204174
215799
217338
230241
235520
251996
164519
190815
190183
168009
192669
218391
220981
439014
508782
139864
392216
543493
366301
146294
206839
279097
219984
275218
209304
227176
300750
240975
336480
276137
318358
261922
301835
376637
240382
289598
263691
287618
276037
250385
252832
258728
236189
226546
244437
290725
278172
255321
218494
197142
236896
222399
247850
268824
288956
298799
285297
284902
361734
384896
384462
368149
243513
270445
262844
301294
267337
275231
239761
242407
250310
232235
265552
298212
285164
277503
234740
237228
256296
253403
274733
274064
295168
246884
221126
187665
194125
300753
257187
230592
297042
283943
244635
250724
371500
304432
291564
239188
290184
250449
300239
254592
267533
315406
297268
256559
260262
276017
310351
315735
271674
219017
195951
217512
254871
228386
253656
283703
226222
236852
212979
268353
242653
258812
287065
228825
281323
243843
286508
251250
268414
307925
219472
294333
282512
271623
241261
258158
246642
276295
250416
249543
297155
356382
336523
305086
239566
254318
223470
266036
335977
309968
284900
224556
264583
239708
281571
257425
276254
303050
149681
87779.1
324657
185375
151911
323177
75568.4
127327
133777
307459
125693
173170
331660
274544
219209
175216
322104
78530.5
96381.5
91776.3
95166.1
99703.9
114377
118205
82632.6
105449
99748.7
109912
104246
123358
129812
116973
101952
94160.8
112531
121197
138011
148358
180759
294737
303142
312447
248698
335402
166407
110899
138243
114751
165900
136467
140974
171644
167264
123368
161909
197431
145825
150543
204869
122543
136410
111336
144493
131709
161511
178479
139517
132696
174905
157052
230504
165581
215713
126259
144217
119874
147100
190590
155016
179680
135895
72195.9
62368.4
130283
127208
64048.1
60766.1
118259
114902
119332
91058
177151
93577.3
85322.6
74566
138234
132510
66227.5
51052.3
82529.8
53822.9
84243.9
67856.7
70602.2
73076.7
69108.4
57620.8
90308.6
86747.9
74305
78930.6
83589.5
68008.2
77840.1
94871.3
100604
84519.4
91200.5
52198.5
63548.4
54908.2
76271.7
67699.6
70646.3
79393.1
100369
120322
102084
104529
85659.5
88498.9
107621
63323.5
67398.3
58661.3
74630.6
88823.7
79549.4
83606.7
108168
123207
104583
92226.5
116548
96877.7
111596
118071
147357
183163
199675
144840
196678
321416
98413.2
82180
90379.7
116078
107590
99152.2
108638
78118.7
75864.1
69025.5
95274
85568.5
92863.4
103137
112922
139289
118986
122735
102625
109665
130384
94207.7
104594
85062.3
88307.9
118824
108218
97697.8
113669
101451
107951
126387
138897
119938
133377
104246
83985.7
93965.8
101623
123902
112602
112072
126548
158156
147750
118224
151244
139761
128579
92609.3
108031
118732
123936
97892.5
112941
102320
115108
125874
104391
112318
148174
134606
123774
168014
149023
171677
132909
128030
153894
149254
104855
116370
130612
137355
124437
138983
153437
170885
186510
161231
165415
141038
155992
183270
121887
158243
147048
160788
145227
134286
133354
199904
159469
148252
249896
176988
192352
273618
144284
162010
134279
205797
165398
178991
227276
173323
167517
147368
151416
176772
133480
156123
152083
160346
135914
166394
188228
201143
233298
228992
162835
198798
174595
147045
163529
196078
197895
238733
232194
206207
177833
174061
206634
250290
224046
176276
182436
312638
233322
259867
216568
192590
156906
197083
291580
256629
222345
193549
244328
174049
213594
319206
298756
242221
265928
310989
238766
252880
341018
323999
287080
305746
278943
267192
283707
343095
325463
296572
203163
263102
287890
308375
216076
271344
244398
191263
173981
198783
216999
298356
264390
245889
249721
295250
309327
286499
274272
282548
260848
369026
296878
293346
326591
426373
419751
339815
258013
287368
275461
317692
292362
280181
254155
214912
266995
237024
287782
252628
277187
317894
265132
288759
318405
247032
273033
191375
203880
259177
328174
317044
387906
269890
314766
302567
318125
356482
345200
402556
411798
442134
417511
278396
304497
263499
282792
357226
333950
300633
394005
486633
371431
438179
511802
460816
506680
249477
309812
267640
308791
270425
291066
336786
279048
286482
249155
295720
346967
332526
399773
10404.1
53940
339124
21260.8
127147
58896.4
1805.47
344706
469613
355313
496094
406482
419729
500733
264749
326980
314470
300883
300400
287714
276785
300193
386362
349131
421262
380658
453869
492860
256029
297684
274294
316891
293992
318635
346534
203731
193804
172753
294954
231654
200157
242610
332195
253559
265337
219215
216974
253264
265071
227112
223226
268498
322233
345747
258029
271331
323231
262736
199402
208311
172348
218599
277845
250582
269282
211770
273162
225631
210577
184139
285133
304616
234492
259329
315951
317883
306280
353989
319831
287930
335720
484865
380851
428573
294430
332922
373524
310619
316431
339384
289364
258200
325041
279601
367266
306955
332772
406194
345297
336215
283282
299689
469990
367224
360714
272201
274088
244934
281998
360728
314293
317998
258386
286304
246555
368532
314704
334879
362502
332895
314678
346132
377372
423091
389056
480258
329040
326258
305469
220754
257161
278531
315129
335368
322108
251249
224144
194531
257874
300301
295368
388732
321492
373694
315190
346523
430088
302954
375595
390162
343367
326086
351804
317424
313045
303385
275999
295730
378039
326427
338628
249096
259706
214903
324136
283954
321861
331644
361970
391363
312028
417473
390974
456552
463510
308490
318764
325109
286669
305300
221186
244436
137755
356793
132475
382546
136157
135094
218975
145876
199573
196236
145841
218911
136476
228496
236954
140276
226587
138725
235781
133654
145129
145415
149618
150253
165191
165515
136126
147143
146217
153464
151691
165873
167469
289678
207291
134303
135437
207824
136086
289359
152141
245802
195135
150464
244893
191749
353907
149374
145146
148521
168661
166573
165426
170029
145190
148472
148191
168433
166562
169243
165490
133587
137865
133756
163369
166702
166713
163471
453444
260769
231101
226792
449602
260507
385496
174217
196939
171976
189591
220706
218083
191684
195737
170596
170664
188972
218829
189824
217443
138818
136396
134674
163665
168087
164981
166952
130144
136375
130387
160931
167764
166850
161168
136918
133094
131208
161264
168557
162863
166944
25536.9
115194
111044
107507
27627.4
26386.3
113920
27700.8
111029
53422.8
167179
88300
53220.6
116797
86751.6
164544
23235.8
25256.8
23200.6
50119
56094
51119.1
55010.1
31536.9
25805.1
30116.8
52879.1
61690.1
56802.3
57849
26008.5
37982.6
36751.9
48593.7
58738.1
49612.5
58094
30713.4
37903.9
40074.1
50691.8
61723.6
53843.8
59459.9
52633.9
68973.6
69102.2
84473.5
70718.3
84224
70890.6
54175
68784
69005.9
84222.9
72667.3
71484
84442.6
88379.8
112411
113044
102316
127517
102922
126112
109755
87649.3
111086
101584
124095
101311
124832
77709.3
84237.3
106004
110456
78384.3
105718
83253.3
80091.4
112009
88105.7
109276
83136.4
107208
85430.2
74107.7
101438
81715.9
107922
74618.5
101634
81792.9
76141
108980
105320
85258.1
78912.7
103099
83092.9
102780
91278.5
125644
114933
103155
91574.4
124664
102516
115265
93377.3
125501
92035.6
103192
124442
119668
142459
145215
165064
120815
140935
143380
118963
164062
141110
142083
119247
140350
142198
133678
121439
120406
154957
153915
142188
143628
134136
122477
120768
155912
154305
142481
144433
192956
190422
224775
216762
222355
188802
194796
192764
216797
223944
190427
194096
222102
188862
194473
198321
226947
226972
225321
197720
195297
194173
226029
197978
225251
195089
224500
197361
142690
150670
141768
173592
172147
181474
183346
141910
151860
143554
173717
172074
181229
182876
193624
201367
229279
234869
227421
199824
194716
193429
234387
228009
200998
194750
226813
199566
168896
192636
166998
199107
231389
228364
201406
166510
192819
167739
198633
229137
200283
227490
167108
123720
134276
122213
147322
164713
149243
177435
205115
175854
168766
212029
209420
170741
205365
178233
176188
168975
212226
171244
209551
134215
124022
122291
147380
166860
149432
164620
227966
257127
253820
274286
270381
306081
310292
227916
255069
253098
271015
269159
305138
307635
208011
243521
206112
217382
261299
258680
219665
243189
207520
205873
217080
260385
218922
258346
264306
257859
261137
323929
337056
333653
328176
257838
263135
260756
323376
336392
326350
333570
215987
180964
240949
287595
237773
212778
183410
180999
287536
240645
215348
183458
237732
212574
238633
351156
292286
279161
240641
289917
277006
239130
293712
281638
352223
290447
277929
241908
446660
338351
335784
395636
493461
398686
493145
94991.3
119627
304508
134259
73625.4
120769
130842
303917
74225.2
90089.8
72905.5
88619.1
93382.6
110806
112625
72646.9
94229.6
89579.5
88390.4
93074.4
110507
111888
157028
159379
121577
193958
143580
141376
191059
108854
163043
131306
129359
107178
132164
160606
158501
119311
156702
141051
192868
142752
190673
129160
108390
106971
131872
162231
133519
160300
59129.6
112323
115361
47983.9
62694.9
58914.4
116723
112306
59832.5
78971.2
60887.3
79730.3
47818.4
64318.4
64575.2
61780.9
49239.4
81299
80514.1
48279.4
64824
65961.9
74300.1
50126.3
58091.6
49386.2
64483.9
65347.9
73146.6
97311.5
115147
97574.6
81810.5
101099
82274.4
100376
57972.2
50403.6
49465
64583.5
74212.7
65734.5
73067.5
115682
99060.2
98238.6
82301.5
102348
83646.4
100814
91936.4
81466.8
101828
110777
82488.8
100598
90622.1
81574.5
110728
91911.3
102204
82904.8
100699
90565.3
245812
173340
219788
170769
302844
216555
242620
170431
302669
244570
218534
172406
216146
242202
495196
402023
342080
448083
337100
396771
493741
464002
400916
424889
421906
386815
465636
400992
421532
387918
464494
401816
423504
465874
401396
304238
346562
390925
323719
349655
349670
334184
463139
428937
403494
438145
371388
461286
406433
372140
452872
442370
505092
430110
471261
393175
424066
388874
381893
469179
420675
424999
487627
423191
513054
484875
537884
457942
506127
509469
310310
300751
266028
293861
409454
342852
335838
290088
296190
262066
304937
400386
337193
354382
434105
402071
483465
467890
521955
513362
537516
335690
319918
293620
317473
420726
371038
348923
449775
450680
409178
357103
461793
457837
409209
319353
431625
428857
503674
395864
391098
342917
351749
347749
296781
324935
490967
388714
387450
358396
332830
304155
363620
508371
403546
455181
372907
447075
430812
460365
473142
508452
460777
289243
322081
325513
304924
325366
321055
316464
361738
374122
315185
446140
380283
467661
530296
339817
303216
240017
349990
331462
339857
303021
305820
323724
251649
349410
321816
340549
310350
290700
325661
312098
324590
326678
273806
305097
315408
296584
238549
303809
338665
338773
318683
415458
372212
339437
379292
517978
424786
478727
422633
376518
357047
388621
375559
309777
335729
331543
300663
329380
329500
254074
302500
334383
316893
335305
293823
329680
326803
267704
331658
325735
473215
441114
439490
364619
383269
379772
359283
529695
438060
516671
410427
500481
547498
353512
497261
433603
508537
444752
528139
549338
466429
440219
495633
400103
491706
480233
354264
526281
545671
494933
521454
477296
499085
527628
437404
404293
472145
475964
246179
414833
390635
473892
472867
371982
409599
553137
514448
516557
336427
332275
295429
340056
278898
333595
318904
439691
542099
521394
557815
495784
544768
526687
358396
503739
540041
502834
439675
401658
439568
496435
430195
453611
507584
429460
517966
468514
63461.5
270547
250964
254733
693.237
1652.89
275311
6066.02
341129
466704
3444.33
490585
3296.64
0.215065
170476
2.26326
0.00963011
310685
1185.24
0.0614144
0.00215687
288681
7156.21
0.0608919
0.00936104
0.000364501
227998
1095.28
0.803753
0.0138425
0.000968984
3.07987e-05
9.72383
0.209144
0.0123219
0.00109624
4.20872e-05
1.62514e-06
0.0207548
0.00559936
0.000627144
3.40612e-05
1.66571e-06
7.24831e-08
0.00109623
0.000173037
1.75205e-05
1.1369e-06
6.17583e-08
2.77942e-09
4.05276e-05
5.37536e-06
5.15633e-07
3.56085e-08
1.96451e-09
0
433385
258721
274132
256642
411848
272687
434651
126995
169315
323750
261364
173771
311822
130700
206547
211537
321353
160140
300054
324496
214923
226191
195318
33908.5
314906
192738
244584
35501.6
477419
472565
335389
285646
490680
471473
374014
259913
256746
257845
295829
295870
293526
298255
255789
258096
257006
295011
293697
296341
292634
265016
271682
262733
301855
315447
312793
304418
271148
263373
262042
301208
314365
302803
312424
160714
205240
158347
202177
203450
275753
278844
158128
204382
205443
201901
203078
275376
277679
252.54
413236
515792
515439
172893
256729
269.53
225821
278450
276727
300429
300060
311479
310593
229161
300448
279352
276973
300029
311150
309809
280459
272148
277932
225634
208197
219498
200832
283151
334377
261356
258305
280508
333165
324526
258411
283229
280580
335177
333520
325119
325288
262709
268043
274700
199745
176863
211058
190613
381401
286647
311019
284080
308117
332661
378222
283760
310219
307871
335030
332603
378403
381598
267125
249681
263192
150891
184224
175305
139481
410956
417752
345489
342873
409371
416276
338563
65236.5
11744.3
475588
466504
289160
413563
223157
342304
409658
339457
418842
344307
416638
337879
0.516388
0.0236497
0.000748632
238815
278.418
0.00699827
0.000322893
272200
258115
1.0117
0.0111583
0.000722296
0.642232
0.0287999
0.00087211
4.22428
0.0054739
0.000415299
1.36423e-05
3572.16
0.04377
0.00164223
5.00521e-05
432575
78.1664
3.66327
383546
0.258036
0.0641473
1.99714
0.0341812
0.00348697
377061
1036.43
0.00590351
0.000818746
331448
12.1561
0.00716507
0.0022835
9.15444e-05
307830
37534.4
2.73992
0.00483939
0.00018997
7.4125e-06
0.061488
0.00413512
0.000212609
1.00328e-05
4.08501e-07
0.00150594
0.000138601
8.50082e-06
4.27492e-07
1.7666e-08
5.50469e-05
4.8222e-06
3.0348e-07
1.54396e-08
5.82077e-10
1.70821e-06
1.45767e-07
9.21136e-09
4.36557e-10
0
443956
2365.81
2759.47
493179
2634.46
0.152092
55.444
1.86243
0.00761285
310613
955.623
0.0494114
0.00156311
250963
5819.02
0.546351
0.00642867
0.000257309
307963
909.536
0.454805
0.0113658
0.000678406
2.10752e-05
8.29133
0.178365
0.00855743
0.000757629
2.87521e-05
1.10926e-06
0.270825
0.00392265
0.000429737
2.33906e-05
1.1407e-06
4.88508e-08
0.0006825
0.000119631
1.21479e-05
7.83359e-07
4.18659e-08
1.78989e-09
2.61524e-05
3.73111e-06
3.57963e-07
2.42726e-08
1.25146e-09
0
238063
10015.5
1.91462
0.00471741
0.000130265
2.23328
0.00635614
0.000173649
3.233e-06
4.81567e-07
4.62169e-08
3.21597e-09
1.16415e-10
0
0
0.000142856
1.63432e-05
1.63022e-06
1.17871e-07
6.41739e-09
2.32831e-10
0
0.00343192
0.000450786
5.05843e-05
3.78767e-06
2.04032e-07
8.89122e-09
3.0559e-10
0.278268
0.0138787
0.00158068
0.000118733
6.00189e-06
2.55182e-07
9.24047e-09
10503.6
15.6808
0.071866
0.00422103
0.000183295
6.50206e-06
2.25744e-07
465630
356291
649.529
0.278291
0.00440069
0.000159414
4.67767e-06
342915
497104
2808.69
0.251847
0.00242828
7.28183e-05
314776
501237
909.686
0.0669796
0.000789749
412079
93489.4
0.255758
0.003674
8.0312e-07
1.31156e-07
1.28493e-08
9.02219e-10
0
0
0
2.56898e-05
4.91059e-06
4.68965e-07
3.24217e-08
1.73168e-09
0
0
0.000778517
0.000158489
1.49929e-05
1.03783e-06
5.54428e-08
2.35741e-09
1.45519e-11
0.042054
0.00291666
0.000397328
2.91182e-05
1.56691e-06
6.86123e-08
2.43017e-09
479.182
0.783128
0.0157899
0.000736774
3.8065e-05
1.66323e-06
6.03031e-08
501775
108625
28.3777
0.0365328
0.000822963
3.27914e-05
1.20122e-06
425172
396952
122.211
0.0413442
0.0004667
1.80174e-05
349765
413463
41.6555
0.0118161
0.000190527
506289
5831.03
0.026034
0.00194765
1.23924e-07
1.74186e-08
1.67347e-09
5.82077e-11
0
0
0
4.25152e-06
5.9657e-07
5.85278e-08
4.05998e-09
1.74623e-10
0
0
0.000148648
1.83595e-05
1.82357e-06
1.26805e-07
6.79574e-09
2.18279e-10
0
0.00265615
0.000502541
5.29136e-05
3.64993e-06
1.89495e-07
8.25094e-09
2.61934e-10
0.378098
0.0219803
0.00159651
0.000108238
4.76964e-06
2.0217e-07
7.33417e-09
41996
157.33
0.107061
0.00283156
0.000118029
4.20366e-06
1.48997e-07
462356
1774.72
0.21425
0.00242179
7.02521e-05
2.36688e-06
444131
378075
0.106794
0.000713832
2.54133e-05
268794
27871.6
0.00152618
0.000188614
1.67202e-08
2.25555e-09
1.45519e-10
0
0
0
0
5.42932e-07
7.54226e-08
7.14499e-09
4.65661e-10
0
0
0
1.59747e-05
2.2836e-06
2.19195e-07
1.50176e-08
7.71252e-10
0
0
0.000402101
6.21372e-05
6.18615e-06
4.17931e-07
2.21626e-08
1.00408e-09
0
0.00660105
0.00147794
0.000159536
1.06251e-05
5.44795e-07
2.38942e-08
8.44011e-10
6715.49
11.2369
0.00422275
0.00026327
1.17509e-05
5.00353e-07
1.835e-08
178274
43153.2
109.785
0.00501559
0.000224702
8.55701e-06
3.0869e-07
361427
1815.68
46.5425
0.00252426
0.000101125
3.80738e-06
320891
61385.7
0.86486
0.000710154
3.13483e-05
1.81899e-09
1.45519e-10
0
0
0
0
0
6.0536e-08
7.94535e-09
6.69388e-10
0
0
0
0
1.78065e-06
2.42115e-07
2.17697e-08
1.42609e-09
0
0
0
4.74497e-05
6.71852e-06
6.11675e-07
3.98431e-08
2.05182e-09
1.45519e-11
0
0.00108043
0.000168691
1.57285e-05
9.99193e-07
5.11936e-08
2.22644e-09
0
0.0394332
0.00424051
0.000405866
2.25045e-05
1.10795e-06
4.77594e-08
1.70257e-09
45.4232
100.387
0.00914452
0.000506474
2.04079e-05
8.47664e-07
3.07919e-08
245100
2349.47
209.068
0.00729671
0.000309416
1.16015e-05
4.16359e-07
1927.67
24.5124
0.00237609
0.000105401
3.98171e-06
8.73115e-11
0
0
0
0
0
0
4.45289e-09
4.94765e-10
0
0
0
0
0
1.30924e-07
1.69239e-08
1.41154e-09
1.45519e-11
0
0
0
3.53748e-06
4.6374e-07
4.04252e-08
2.54659e-09
8.73115e-11
0
0
8.61861e-05
1.15229e-05
1.00477e-06
6.40139e-08
3.27418e-09
1.01863e-10
0
0.00193952
0.000260707
2.24283e-05
1.3885e-06
7.05768e-08
3.08501e-09
2.91038e-11
0.0796134
0.00598659
0.000491297
2.60357e-05
1.27393e-06
5.48898e-08
1.97906e-09
2852.21
72.2202
0.0137799
0.000428918
1.82449e-05
7.69069e-07
2.81143e-08
312889
106894
1.28519
0.294655
0.00402476
0.000179632
7.72996e-06
2.83428e-07
0
0
0
0
0
0
0
1.60071e-10
0
0
0
0
0
0
6.78119e-09
8.29459e-10
0
0
0
0
0
1.7912e-07
2.30793e-08
1.96451e-09
5.82077e-11
0
0
0
4.22556e-06
5.54675e-07
4.81668e-08
3.08501e-09
8.73115e-11
0
0
8.66529e-05
1.16389e-05
1.02109e-06
6.55709e-08
3.4197e-09
1.01863e-10
0
0.00139383
0.000207076
1.84357e-05
1.16661e-06
6.02304e-08
2.64845e-09
1.45519e-11
0.0386188
0.00270489
0.000279791
1.64624e-05
8.3982e-07
3.70346e-08
1.41154e-09
0.673366
0.420072
0.735873
0.00233009
0.000160195
8.4053e-06
3.74654e-07
1.41008e-08
0
0
0
0
0
0
0
0
0
0
0
0
0
0
2.03727e-10
0
0
0
0
0
0
7.42148e-09
9.16771e-10
0
0
0
0
0
1.67827e-07
2.21335e-08
1.83354e-09
5.82077e-11
0
0
0
3.30273e-06
4.46278e-07
3.94648e-08
2.54659e-09
8.73115e-11
0
0
5.188e-05
7.45605e-06
6.79342e-07
4.47617e-08
2.34286e-09
4.36557e-11
0
0.000551826
9.00918e-05
9.04789e-06
6.07921e-07
3.24799e-08
1.41154e-09
0
0.0725155
0.0170592
0.000630824
7.8981e-05
5.84619e-06
3.20899e-07
1.47847e-08
5.23869e-10
0
0
0
0
0
0
0
0
0
0
0
0
0
0
0
0
0
0
0
0
0
2.32831e-10
0
0
0
0
0
0
5.82077e-09
7.27596e-10
0
0
0
0
0
1.10609e-07
1.49594e-08
1.25146e-09
0
0
0
0
1.70231e-06
2.4341e-07
2.24099e-08
1.45519e-09
0
0
0
1.87715e-05
2.92801e-06
2.89088e-07
2.00234e-08
1.04774e-09
0
0
0.000487716
0.000184238
2.23568e-05
2.55207e-06
1.89641e-07
1.07539e-08
4.65661e-10
0
0
0
0
0
0
0
0
0
0
0
0
0
0
0
0
0
0
0
0
0
0
0
0
0
0
0
0
0
1.16415e-10
0
0
0
0
0
0
3.21597e-09
3.7835e-10
0
0
0
0
0
4.87344e-08
6.91216e-09
5.82077e-10
0
0
0
0
5.35845e-07
8.28877e-08
8.14907e-09
5.23869e-10
0
0
0
1.81891e-05
4.19091e-06
6.56379e-07
7.20174e-08
5.39876e-09
2.61934e-10
0
0
384024
309585
105056
171961
5.75696
291547
139.675
0.00522244
1705.01
182.265
0.303973
0.00116522
7.31134
0.0159627
0.00107449
5.95842e-05
0.00462801
0.000531278
4.03412e-05
2.18886e-06
0.000123438
1.64866e-05
1.24246e-06
7.08678e-08
3.4977e-06
4.38056e-07
3.43571e-08
2.05182e-09
218705
474.224
25.0052
0.015052
0.00220901
0.000542831
6.38715e-05
2.01519e-05
25.131
1.13971
0.186801
0.0235055
0.00925677
0.00114431
0.00668067
0.000201399
0.000681989
2.61361e-05
5.36194e-05
1.9266e-06
2.58868e-06
9.60281e-08
9.98407e-08
3.91447e-09
3.40515e-09
8.73115e-11
1.45519e-11
0
1898.27
229684
6803.42
259175
1978.7
11613.4
282434
482138
274080
294496
258994
415913
275704
438645
5876.27
256488
807.858
237776
1772.17
10706.8
280791
267462
149164
80.7426
23996.7
4203.79
528.804
226044
312222
309072
16513.8
163852
295237
323436
203274
469205
353739
318638
456900
485270
282090
304336
295143
3305.26
188529
267437
160270
310767
117206
289793
125491
294033
1744.35
184754
236715
30231.2
504669
236745
316654
385321
512364
257149
347838
497887
233463
325602
345216
518374
249483
359311
262324
34229.4
178027
34711.3
317323
247092
330.29
471015
259144
282947
336137
493832
374007
456443
304735
186127
458.101
299156
281203
297939
8152.99
319398
154039
71.8717
13629.9
93960.2
253220
940.551
311116
245347
518345
289135
492077
477900
358389
443491
282527
362319
498101
361802
308038
414691
262639
260699
264693
303738
296360
299220
300612
15289
86.4336
143571
331184
306351
1608.47
85249.9
336.117
211135
776.012
48128.3
10.9529
8290.37
30.9182
67847.9
332.161
34.3815
241630
873.262
9573.78
35.9124
277010
267680
270148
309987
314147
318008
306558
280317
266168
270436
310760
317943
305930
323526
230159
254800
257668
258946
261937
289902
284687
388799
22662.4
541866
483247
322988
182995
532733
498044
272330
373021
546387
140408
374482
562329
281690
369436
515844
387993
560052
215882
516004
447023
384130
338195
220129
82000
452224
495742
103919
34.663
420.187
1.51326
22.5308
23070.1
81212.5
169589
209732
210675
218727
219533
292792
283582
240200
259949
264197
266392
270855
297160
291738
299889
545167
454102
408741
408958
556103
27957.4
283558
286561
276238
317487
342570
326375
331504
285486
291917
295814
323841
328429
342884
336894
239193
277154
280493
265460
268604
297270
310292
94327.2
29.2698
0.921564
212.72
193479
30287.1
6.32761
188161
232845
177496
250339
232009
304107
315340
282243
213025
277541
283493
279033
232013
215735
283588
278060
279249
231094
232544
216361
214682
241523
282841
233083
301985
304487
309516
307841
246189
283206
271024
290614
278004
305058
319027
263516
280632
285740
293703
299157
325207
318948
278594
276168
273469
227939
222800
210920
204733
292551
316560
303469
358100
338441
355630
379483
275816
265256
269931
205652
215556
195884
183723
158315
190070
269847
260149
271596
193287
162279
59461.1
535187