/*--------------------------------*- C++ -*----------------------------------*\
  =========                 |
  \\      /  F ield         | OpenFOAM: The Open Source CFD Toolbox
   \\    /   O peration     | Website:  https://openfoam.org
    \\  /    A nd           | Version:  9
     \\/     M anipulation  |
\*---------------------------------------------------------------------------*/
FoamFile
{
    format      ascii;
    class       surfaceScalarField;
    location    "0.002";
    object      phi;
}
// * * * * * * * * * * * * * * * * * * * * * * * * * * * * * * * * * * * * * //

dimensions      [0 3 -1 0 0 0 0];

internalField   nonuniform List<scalar> 
52751
(
0.438764
-0.224228
4.76205
-0.228952
-4.35005
1.417
2.41969
-1.12285
-5.73368
-2.19518
6.06484
1.44304
-0.328928
-1.22804
0.572333
2.93747
-2.50093
2.35094
-5.54469
-2.11847
1.689
5.95759
1.40621
-1.55819
-1.2201
1.97792
2.76282
-2.27325
-3.96207
-1.1839
2.11521
1.37989
4.44607
-1.71903
2.22907
-2.05626
-4.52398
-1.9589
2.02846
4.80169
1.63092
0.377903
-6.81899
-1.37734
6.88795
-1.19643
1.42936
-5.49461
-1.19849
1.39896
5.86986
-0.744516
2.40042
2.5611
0.846761
-2.02023
-2.07863
-2.65153
1.51553
-5.89821
-1.26037
2.77983
6.1488
1.0448
-1.75997
-0.859307
3.40457
-3.01488
1.9264
-5.704
0.437933
3.16459
5.83797
-3.17216
0.388336
-5.11024
3.43392
5.29652
-1.32859
-4.88732
1.56747
2.87862
5.24906
-2.89968
-1.18692
-4.41032
1.39505
3.14732
4.80048
-2.83977
-5.53252
2.98103
3.0801
5.69288
-1.99156
-2.69419
3.97884
2.19077
3.04754
-3.45207
-2.03028
1.45653
-2.71122
-3.42609
2.33057
2.08012
-1.26558
-0.0295584
1.63664
4.67207
-4.34427
1.45459
-1.1408
-5.73709
2.64654
6.09768
-0.312967
0.557226
1.67519
3.03021
-2.60002
-5.59041
1.75577
2.58826
6.09718
-1.48692
1.89836
1.62071
2.89644
-2.42204
-4.35307
-2.06031
-1.93814
2.3743
2.33198
5.10348
-2.10573
-4.64412
2.05802
2.43699
4.73664
-0.673214
-0.104052
0.943661
4.77031
-4.41635
-0.734043
-0.0105971
1.01721
0.197005
4.16912
-3.8853
0.0661993
-0.497887
0.168509
4.25574
-3.99041
0.543347
2.02979
4.61849
-4.22864
-0.400026
-1.78873
2.09324
5.71066
-5.37466
0.104503
-1.81009
5.92379
-0.0026687
-5.55527
1.26573
-1.02782
0.384219
-0.265535
-4.30131
1.33039
-1.12521
4.70327
-0.492931
2.57263
2.72697
0.629353
-2.2384
-2.30699
0.958207
2.25311
-2.44922
-0.793249
3.00195
-2.52515
-3.48089
-0.941476
2.13617
-1.69146
1.10954
3.92826
1.19167
2.02629
4.30251
-3.84802
-2.19258
-0.990605
3.92656
-3.5397
0.588974
2.23994
-1.81364
-0.40117
2.41857
-2.64289
0.447627
2.99004
-0.277826
-2.5287
2.10324
4.219
-2.29248
-3.81434
0.581756
-0.376833
1.45746
-0.834259
-1.27759
1.14211
2.74927
-2.27714
-0.356035
0.644163
-0.848845
2.85765
1.02882
-2.4501
-0.935362
1.28839
-0.996094
2.57329
1.12413
-2.06649
1.96096
4.2836
-3.83347
-1.74655
0.760168
1.6454
1.89055
4.12082
-3.66241
-1.27126
-1.67575
4.19351
-3.75245
0.618264
1.34353
-1.15755
3.92354
-0.886054
-1.14437
-3.4839
1.21573
1.31715
-1.77172
-0.949094
2.18268
2.57853
1.06894
-2.06816
1.88734
4.19896
-3.7066
-1.66843
2.02654
2.10728
4.9032
-2.15731
-4.15073
-1.8381
1.98428
1.61508
-2.12972
-1.44108
3.23159
-2.81787
2.18244
-2.36764
1.11765
3.0366
-2.56038
-3.0296
-1.03785
-1.67158
3.50428
2.11321
1.18889
2.01275
4.38412
-3.87678
-2.15826
1.39332
-0.157335
4.78396
-4.40049
-0.475688
4.67441
0.724246
-4.34757
4.7075
-0.167312
-0.271518
-4.36819
-0.15355
0.669747
5.1741
-0.47058
0.733387
-0.0548652
5.05693
-0.525196
0.101759
0.982388
0.0158057
5.00363
0.91411
5.15343
1.50442
-0.972794
-5.8555
-1.26921
6.16663
1.2776
0.0387909
-1.0541
6.35192
-5.97227
-0.131333
-0.855981
-5.50746
1.05882
0.294801
5.84537
-0.0450948
0.647462
6.4063
-6.02852
-0.465162
0.881379
-7.0085
0.304857
-0.640821
7.08357
-0.233008
0.664923
5.29905
-4.9697
0.364534
-0.462493
1.0424
0.795508
-0.838313
-5.96671
-0.548143
6.26277
-1.33473
-0.0847713
0.200419
1.67268
4.06349
-3.74226
0.643867
4.63061
-4.24598
-0.483806
2.27157
5.62044
-5.30905
0.136534
2.36702
5.3678
-2.90286
0.33119
-5.17262
1.05935
2.9868
4.82771
-2.74817
-0.850777
-4.44301
2.82417
-2.44831
0.0532971
4.58888
-4.25521
0.437452
2.54415
-2.2621
-0.287966
3.69499
-3.31913
1.01429
4.62264
-4.31133
-0.0594178
4.725
-4.38797
4.55716
0.0559766
1.33865
-4.25183
1.27026
0.0515472
0.0708902
4.94037
-0.00950811
-1.2038
1.54262
5.05037
0.109441
1.5906
4.86903
5.1116
0.111367
4.35532
-0.308968
-4.09681
-0.605658
3.45943
0.843545
-3.13587
3.54945
0.36149
-0.414454
-3.27462
-0.149614
0.907693
0.319379
3.90567
-0.71272
0.771202
4.65482
-0.572546
0.189146
1.01314
4.56715
0.325539
1.13017
3.84265
2.64002
2.8119
-2.32733
-0.334798
-2.42676
0.463029
2.87621
2.67672
-0.303307
-2.49237
2.81631
0.613138
2.62247
-2.40568
0.546207
2.49907
3.17174
-2.10836
-0.375675
2.43905
0.697302
3.11962
-2.02864
0.51211
2.56668
3.24135
-0.338844
0.676048
2.52165
3.20853
2.4924
2.63175
-2.13382
-2.17799
-0.747625
2.6858
0.865195
2.48492
-2.2159
2.74194
2.55865
-2.3011
-0.831796
2.28105
0.954463
3.0237
-1.85056
2.36574
3.05983
-1.94194
0.826439
2.46271
3.16589
0.962305
2.39179
3.14081
0.983595
-0.807804
1.9062
3.09238
-2.62884
1.21991
-3.92304
-1.0061
1.95093
4.54223
1.33577
-4.55326
-2.22122
-1.11567
2.31433
4.57709
0.4495
1.98019
3.03104
-2.54848
-0.27567
-3.85395
0.587911
1.95277
-0.382567
4.31808
-1.74756
0.504851
3.29099
-2.91988
-0.331218
1.87367
-2.19083
-4.49015
0.652769
-0.424334
4.6736
2.46057
2.60803
0.456311
-6.27454
-2.38073
6.42386
0.761355
2.17467
-0.593663
-1.94318
5.00399
2.28415
0.17946
-2.03015
5.97714
0.408653
-6.69161
1.88503
6.76335
1.25869
-1.02391
-5.80977
1.73822
6.12448
0.0741637
1.51762
6.29634
-5.3492
-1.27758
-0.216389
0.386643
1.51564
5.68517
-5.40412
1.28074
0.118759
-1.04931
5.75561
-0.0933849
0.952605
-0.737305
1.00377
0.0332952
-0.790429
5.3398
0.0352877
1.25843
0.0889643
0.0415799
-5.50578
1.52954
5.86185
1.54408
0.160905
5.6792
1.21621
-0.991144
2.63135
1.12457
-2.15423
0.692515
2.90232
-0.689632
-2.53545
2.62881
1.0086
-0.872411
-2.16911
0.60083
1.06738
3.31843
-0.913538
1.14089
0.901017
3.08751
-1.01395
0.579441
1.24126
3.30014
0.859951
1.2831
3.10038
-0.810702
1.10111
1.66223
2.86568
-2.42103
4.35605
-3.91172
0.848065
2.18523
1.69494
4.24163
-3.76801
-1.32762
2.12787
4.68285
-2.65579
-4.26827
1.24813
2.43233
-2.17825
0.679381
3.43399
-3.02948
-2.12571
-1.15328
3.34944
1.46832
2.39556
-2.93278
2.09794
2.91817
4.79298
-2.64768
-1.69578
-4.26098
0.202674
4.10368
-3.79984
-1.10708
3.41085
1.38499
-3.03295
3.41323
0.344772
-3.05528
0.21323
1.29287
4.49557
-1.3729
-0.225241
0.332574
1.63281
3.82079
0.328547
3.81509
1.59854
4.44324
-0.974658
2.56119
1.09871
-2.05243
1.38875
2.54587
-0.888825
-2.04454
2.52617
1.8959
-0.871557
-2.02087
-1.2643
1.11284
1.75402
-0.986292
3.01207
1.13861
-1.0158
3.02857
1.20099
1.27504
3.05979
1.66352
1.25248
3.05106
-4.25123
-0.423453
-0.853954
1.04546
0.662506
4.66528
1.4418
-2.00711
-5.40974
-1.19287
6.22008
1.73918
-3.88912
-0.815125
-1.28484
1.00278
4.31218
-4.06481
-0.621923
0.651001
4.42734
0.926355
-0.451927
0.739021
-5.5225
1.24494
-0.500824
5.88967
1.7795
-3.92137
-1.29809
0.625872
4.30788
-0.430048
2.42782
-1.82668
-5.25899
0.718026
-0.479042
6.03939
1.68893
4.49426
-4.18862
-0.00403538
4.62204
2.04088
-4.30029
4.44332
0.10331
2.05562
-4.13755
0.0225007
1.91545
4.98824
1.93372
0.13345
4.80279
-0.0514302
0.151312
2.28824
4.75008
2.29045
4.93615
0.450895
2.94101
-0.287915
-2.53207
-2.59111
2.991
0.621033
2.37951
-2.52691
2.91711
0.61246
-2.49011
-2.54416
0.501763
2.34137
3.41801
-0.316096
0.501132
3.33475
-0.323503
2.49963
0.675616
3.32704
0.687612
2.30617
3.42441
5.2669
1.54783
-0.0147135
0.131506
0.0502004
-1.51991
1.84639
-1.83188
-5.18691
0.226536
2.13517
5.48327
0.0759899
-5.4456
5.79354
0.194122
5.58879
0.15919
1.86138
-4.99329
1.29221
-1.07258
-0.195377
1.14597
0.322005
-0.951225
1.04427
-0.840614
4.91675
0.229205
1.28611
-0.302885
-4.25403
1.55299
0.421238
4.6589
1.5416
5.27011
1.36123
0.342638
2.29493
2.54236
-2.03804
0.97675
2.67351
2.39867
-2.18095
2.70842
1.09963
2.30596
-2.209
2.18686
1.07929
1.0955
2.31154
3.14872
2.10104
1.22253
3.07517
1.24151
2.22855
3.18897
-0.767934
2.85776
0.910344
-2.38715
-2.52384
2.98992
2.31975
-2.51984
2.88181
-2.43476
0.844929
2.4394
3.31062
-2.36856
-0.872136
1.0482
2.18629
3.43996
1.00288
3.30613
2.2517
3.42717
0.659975
6.28955
0.0753097
-5.94033
-0.470771
-0.0265953
6.40291
0.845154
-6.02188
6.26924
0.856157
0.097986
-5.91336
-0.783412
-0.066046
1.01256
0.228059
6.60185
0.0524191
0.771542
6.77247
-0.557628
0.210238
6.62591
-0.55614
0.991292
6.76729
0.602941
2.8742
-2.44171
-1.27954
2.77581
1.45942
-2.3207
2.68703
0.878053
-2.21333
-1.43457
0.56841
1.64556
3.38446
0.565725
3.32463
1.44639
0.831844
3.1484
0.823374
1.63292
3.22473
1.68255
-1.49958
1.79995
3.34012
-2.95284
-3.35409
-1.84859
-1.67118
4.06206
1.92666
2.19844
-1.99552
-4.29541
-1.78113
1.79877
3.52741
1.7751
-1.76688
1.23774
3.4782
-3.06998
1.95637
1.15471
1.8649
3.13662
-2.68787
-3.97687
1.44151
1.95711
4.7226
-4.5272
-2.18191
1.53393
2.26502
4.48719
-3.91694
-0.80484
0.99435
2.14948
4.36223
1.29346
-2.2012
-1.06619
5.0748
2.08374
1.14875
-2.345
-5.16397
-1.03246
1.63089
3.8428
0.612934
2.19842
4.33751
-0.415275
-5.60983
0.745069
2.71722
-0.490359
6.25935
-2.23781
0.624141
4.80954
-0.407279
2.08643
-0.418169
-2.4416
-5.44471
0.651742
1.93793
4.8287
-0.954339
-4.54934
3.22951
4.91983
0.0976498
3.15482
4.6164
-4.27685
0.573935
-0.407684
2.81904
3.80656
-3.44175
-3.7083
0.352639
4.58003
3.94999
-4.35254
-3.89386
-5.02031
0.42617
4.0873
5.24305
-3.36848
-0.872917
4.19087
1.08449
3.645
-3.84207
1.40696
-3.71072
-1.09643
-4.85075
3.95325
5.16465
-3.82186
2.06814
2.13271
4.94781
-2.21422
-4.39752
2.4045
1.93827
-2.06848
1.80422
3.3184
-2.92583
-1.82289
-2.11651
3.4717
2.00602
2.38945
-3.03508
2.53527
-2.02394
-2.2514
3.7876
1.96165
-3.29467
3.01473
-2.70036
-4.42077
2.60461
5.19446
4.64246
-2.8043
-4.74223
-2.63621
2.24011
2.85506
0.569778
2.35195
-1.92605
-0.391651
-3.51539
2.20752
0.768861
-1.7754
3.92398
2.30377
0.735772
-1.86609
-3.61521
0.573493
2.31897
4.00538
-0.379952
0.542449
2.43674
-0.359112
3.60559
0.71801
2.39996
0.76074
2.29436
4.01259
1.67384
3.44362
-3.05201
-0.200152
3.50978
0.30982
1.97007
-3.11003
4.05563
2.01913
-3.71642
-0.235221
1.90486
0.346339
3.85214
1.92008
4.41235
0.265028
2.24977
4.40067
0.392414
2.18006
3.905
-3.61416
-5.40098
0.444215
3.81624
5.62053
0.137255
2.69104
5.37632
-5.09647
-3.29019
0.37853
5.07515
3.58615
-4.9332
-1.06657
-5.06678
2.96331
5.39544
1.47839
-1.14976
-3.43732
-5.23348
3.68863
5.60983
0.634773
-0.469581
2.53889
4.36194
-4.01551
1.14222
-0.926705
-3.08389
4.59795
3.36443
-4.25582
4.85097
0.25406
1.55924
-1.59636
-0.279159
1.84739
0.398382
-1.81342
-4.7959
2.09581
5.11788
-0.345144
-4.23056
0.472394
4.62985
5.19232
0.36477
1.85479
1.20631
2.64808
-2.15228
-1.25325
2.7438
1.43528
-2.26385
2.63877
1.65603
-2.13874
1.1523
1.43637
3.12178
-1.41386
-1.12317
1.52542
1.60232
3.21029
1.58482
3.1208
1.62424
3.20406
-1.06395
6.17595
-5.82256
0.172712
1.2925
0.00295545
6.39188
-6.00889
6.23544
-5.8785
1.25209
-0.0916056
0.26316
6.54993
0.122194
-1.21777
1.45528
6.68374
0.308256
1.50514
6.46305
6.74538
2.08623
-1.86609
0.95642
4.73029
1.8334
2.03053
-1.43999
-1.79677
4.62575
2.85843
2.46052
-2.66407
-6.01608
-2.22871
6.13015
-5.49017
1.65986
1.46715
5.86646
-0.517921
-1.24261
0.737619
1.44428
4.64014
2.74069
-2.12186
-5.52582
1.70098
6.24147
-0.984568
-1.20443
1.30065
1.39579
4.36515
-0.890044
2.17653
-1.7365
-3.487
2.16661
-1.73295
2.24457
-1.80247
0.884912
3.58901
2.3494
-3.58687
-0.943104
1.11967
2.21882
4.02706
1.04297
2.28805
2.25943
4.01363
0.570901
1.22272
-1.05445
-3.53014
1.33153
-1.15865
3.96933
1.24518
-1.09567
0.854959
-3.75069
0.649531
1.54031
4.20193
0.578036
1.40672
3.55285
0.846796
1.40743
0.90459
1.51513
4.00278
0.660015
5.93964
-5.63151
-0.462392
-0.258745
5.26217
-4.9088
0.858768
0.388409
5.90345
-5.57756
-0.757209
0.41071
0.980006
6.2115
-0.384805
0.724392
0.521597
5.64081
-0.500237
6.24359
-0.528674
0.939179
0.55326
5.61526
0.0216661
4.59008
-4.26531
-2.42806
4.39839
0.1477
2.79663
-4.0867
4.41117
0.118527
-4.10017
2.64459
-0.0808139
0.179995
4.71028
0.120985
-2.63798
2.94831
4.91375
0.255171
2.98175
4.6757
4.91242
-0.0516257
-5.58958
-0.821612
-0.350919
-3.79124
-0.979365
0.595655
4.21115
-0.225812
-4.37356
-0.936209
4.76355
0.0442069
0.0627242
-0.444472
4.65677
-4.23609
0.285496
-0.174331
0.0275008
4.44454
-4.19106
-0.0535431
-0.660993
4.59121
0.0172164
-4.25474
-5.60111
-0.160383
0.484727
-0.349994
0.680425
0.0921764
-0.286537
4.75369
-0.130046
-4.52401
0.265686
-0.1067
-4.66703
0.593956
-0.419991
-0.356182
-0.549299
0.736373
3.00879
-2.68961
-1.22703
-3.45636
-0.958173
1.12605
3.89164
-1.08865
1.49947
-0.787936
2.57693
-2.10357
-0.319566
0.813013
-0.335937
3.34371
0.429448
-3.10475
-4.04531
0.558644
0.632655
4.36406
-0.447808
-1.24298
1.71001
-0.553173
2.78569
0.677545
-2.38842
-1.29766
-3.55056
0.612649
-0.427031
-0.556983
4.5979
-4.20484
0.0307019
4.79816
-0.0659758
-4.52091
4.7373
0.0428561
-0.558525
-4.42414
-0.419278
0.119576
5.0908
-0.0977209
0.175907
-0.401123
5.17263
-0.146251
0.346333
0.241939
-0.318057
5.13651
0.186454
5.11168
-0.326787
4.72306
-4.27926
-0.12561
4.71049
-4.36903
4.71752
-0.424491
-4.38178
0.357544
0.271562
-0.230195
5.1183
-0.196494
-0.312437
5.17614
-0.142275
5.09061
5.14501
-0.193845
4.62763
0.100942
-4.38646
-0.145118
4.01477
0.183722
-3.85358
4.19945
0.300025
-0.146092
-4.06495
0.119365
0.339927
0.251646
4.40231
-0.268779
0.245414
5.02538
-0.210877
-0.049731
0.313404
4.93025
0.271447
0.432566
4.26319
-0.516658
2.95932
0.638849
-2.61067
0.84479
3.52539
-0.266997
-3.32424
3.11433
1.31478
-0.388385
-2.81329
0.68521
0.507121
3.76417
-0.37847
0.612312
1.10332
3.42067
-0.454783
0.663226
0.63927
3.63032
1.04993
0.757545
3.31251
-0.0819891
4.52867
-4.28305
-0.272258
3.67744
-3.45242
3.83292
0.343911
-3.64334
0.41957
0.0259891
4.83657
-0.0954425
-0.553071
0.308827
3.99959
4.74762
0.293477
4.11878
-0.530664
2.72841
0.660299
-2.30923
1.80233
2.90972
-0.40732
-2.55699
2.82941
-0.377781
-2.4474
-1.55862
0.588078
3.18807
-0.418948
0.612999
3.25768
-0.44671
1.48445
0.759233
3.17605
0.731948
3.12267
-0.246997
0.309976
-0.225769
-5.57148
0.518101
-0.0589606
-0.378428
0.355109
-0.208076
-0.263697
5.54217
0.216052
0.4787
-0.156502
-0.13637
-5.60529
0.643401
0.676789
-0.0232261
0.422921
0.781141
3.16175
-2.88287
-0.7587
2.69181
-2.26595
2.81028
1.16865
-2.42047
-0.7734
0.622147
3.38584
0.644555
3.4944
0.890052
0.999166
3.20396
0.947988
3.12239
0.61988
5.51109
0.187669
-0.0942001
-5.46209
-0.851145
0.0717572
-0.143165
-0.563715
-0.100377
-5.60588
-0.0277274
0.0209582
-0.771192
2.54768
-2.06451
1.60701
2.66495
-2.22612
2.62365
-2.16877
0.893383
1.40951
3.09212
-1.33545
-0.863188
3.00952
3.03614
3.05293
-5.32748
0.552046
-0.397236
0.00167071
0.491676
0.229282
-0.358456
0.414604
-0.31183
5.25444
0.0450487
0.535457
-0.141516
-4.57032
0.761936
0.28818
0.71203
0.628407
0.250252
0.673242
5.16784
0.0988283
-5.07961
-0.881838
5.43029
-0.151683
-0.7779
0.298793
-0.181765
-4.46242
0.317659
4.83067
0.274545
0.576619
0.592533
-0.430195
-3.73452
0.643921
0.895632
-0.456538
0.639161
0.952678
-0.463975
-3.95635
0.564503
0.806208
4.31304
0.571129
0.746012
3.66542
0.923268
0.799817
0.885353
0.819328
4.02725
-3.60643
0.630705
3.95905
-0.444478
-1.38261
0.605972
-0.42903
0.627925
-0.451798
3.55764
1.33477
0.789319
-1.27276
-3.51332
0.788454
3.90768
0.805907
3.93598
0.768137
-0.897654
0.570571
-3.86125
0.578255
0.570917
0.950177
3.59211
0.898016
-3.54341
-0.98959
0.879105
3.9624
0.874384
0.880432
3.98308
0.940516
3.5043
1.28818
-3.47562
-0.975676
3.90171
-1.2436
-0.919711
1.06355
-1.24867
-3.47257
1.08518
3.90784
2.07034
2.65412
-2.15121
-1.2474
2.87087
2.12935
1.42619
-2.39468
2.77589
2.21337
-2.28495
-1.39079
1.96662
1.58322
3.24371
2.02442
3.14832
1.4088
2.15036
3.25095
2.08614
1.59831
3.33583
0.457995
-6.16271
2.81884
6.34564
0.880656
-0.697577
2.40401
5.02027
0.235089
2.53466
5.84336
-3.22644
0.443624
-5.97281
3.45538
6.4828
1.58849
-3.14144
-1.20349
-5.95182
3.48817
6.46705
-3.04218
0.406272
5.55203
3.28857
1.24308
-2.86177
-0.994398
5.18744
3.09253
1.04526
2.86641
-2.37815
-2.28421
3.09068
1.27701
2.11232
-2.62812
2.90978
1.18534
-2.41986
-2.2915
1.21674
2.11652
3.46767
1.15502
3.32437
2.21321
1.3118
3.3625
1.38419
2.04683
3.50792
0.0797944
2.1747
-5.10989
2.44121
0.279037
5.37628
2.19075
0.183379
5.03429
-0.110203
0.220401
2.52604
0.182864
-5.25583
2.63419
5.52803
0.367088
2.73105
5.28558
2.48484
1.97058
3.04752
0.627235
-2.57132
0.462979
3.08878
1.75763
-2.6476
-0.290723
3.11186
0.637408
1.76279
-2.67606
0.504241
1.96895
3.46127
-0.315527
1.9538
0.694077
3.476
0.512306
1.8236
3.49337
-0.32715
0.697921
1.82592
3.51699
1.20383
1.23338
3.47609
1.21026
1.29842
1.65748
3.92215
3.51919
1.17398
1.39376
-1.21768
-3.51854
1.63177
1.48008
3.96877
1.49854
3.96574
1.61517
1.37067
0.338646
5.77257
1.05732
5.20303
5.14665
1.26639
0.466707
1.20809
0.453446
6.14926
-0.508097
-1.15602
1.37916
0.659411
5.51288
1.44582
6.0669
0.60005
5.56494
1.54581
6.09401
0.105543
6.21471
1.77161
5.98486
1.81747
0.26039
0.155087
1.70256
6.57651
1.76403
0.361532
6.34563
-0.193753
2.01801
0.422836
6.20804
1.95338
6.43582
1.66509
2.88311
-2.44923
0.566112
3.14673
1.92452
-2.725
0.590965
1.87228
3.46921
3.01175
0.81484
1.89613
-2.58963
1.84463
0.837837
3.32435
0.634936
2.1099
3.5764
0.871704
2.07838
3.44879
-3.71929
0.573903
4.10836
-0.374651
-2.41642
0.54346
2.21576
-0.346424
0.537464
-0.348279
3.72485
2.38006
0.722915
-2.26804
-3.82642
0.785647
2.08683
4.24242
0.769929
4.12573
0.738658
2.18684
-0.220418
3.59696
0.346945
-3.2053
-2.36485
4.1016
2.69831
-3.76758
4.07422
-3.72708
2.57297
0.333575
4.39978
-0.450539
-2.44999
0.61828
2.71359
4.06561
2.87378
4.411
0.48339
3.97547
-1.81187
2.23133
4.83758
2.28018
-2.33683
-2.05373
5.02851
2.21971
-5.90863
-2.17558
2.91205
2.33913
5.83475
0.288054
0.524499
-3.15205
-1.49487
-0.881263
0.518655
-5.95394
2.83799
1.75671
6.07499
-2.20043
1.53631
5.12681
2.08406
-2.27086
-4.94901
1.18579
1.41024
3.1009
2.09411
1.28262
-3.60657
1.29708
2.1798
4.06048
1.20098
2.22404
-3.55175
2.04383
1.46808
4.01327
2.06505
1.35246
3.64824
2.16244
1.36848
2.15379
1.48456
4.12017
6.81317
-0.878088
-0.174695
1.12865
0.405088
0.32003
-6.97571
1.12726
7.05657
0.161976
0.848188
-0.617856
0.912401
-6.84832
0.593196
-0.652785
6.98487
1.1677
0.615442
6.95425
0.383021
-0.62619
1.08495
-0.321716
2.10493
0.455643
-4.74961
2.37453
5.05424
2.1624
4.71661
0.39664
2.46683
-0.593809
-4.28731
2.51117
0.768472
4.6722
2.63778
5.01628
2.36044
0.550621
1.94244
3.06444
-2.59355
-0.817906
3.17134
0.996426
1.75669
-2.7502
3.13685
1.76002
-2.70769
-0.884557
1.88701
1.0678
3.50801
1.92121
3.48807
0.887017
1.82494
3.54212
1.07414
1.82496
3.57808
0.905406
3.72199
2.32857
-2.26649
-0.932135
1.11793
2.08648
-3.72785
-0.964987
1.15462
4.1585
-2.23215
-3.83278
2.06018
4.26468
1.07948
4.13649
2.14091
-1.60515
0.631835
1.81632
-3.77839
0.695517
4.23255
0.597817
3.6023
1.58632
0.853768
-1.71195
-3.67696
0.987737
1.9227
4.13846
0.936894
4.05987
0.87714
1.78495
-2.09521
5.72679
0.374148
2.36546
0.137739
6.109
5.85684
0.309841
2.26054
-0.242642
0.491433
6.073
0.300111
-2.20053
2.44287
6.14129
0.565879
2.49241
5.95787
6.28822
1.48477
5.0913
-0.441314
5.04546
1.71148
0.581481
5.58901
1.76898
-0.570597
1.60522
0.729431
5.46079
1.68872
5.96769
0.644222
1.93037
5.86415
1.83221
0.813525
5.41798
3.13948
4.38809
0.224934
-4.09605
0.173524
4.62877
3.44585
-4.32375
4.39498
0.361425
3.43882
-4.11297
0.194061
3.23288
4.90128
3.27997
0.384791
4.65822
-0.28698
0.530175
3.53971
4.67623
3.50434
4.8571
1.38018
6.74346
-0.201269
0.447114
-6.64318
-1.41777
0.697108
1.66472
6.79316
0.236559
-1.32808
1.5742
0.346214
-6.91725
6.99121
0.50011
1.62975
0.653406
6.88709
0.796098
2.69497
3.59941
-3.19962
-1.36241
-2.67875
3.75061
1.65423
2.96933
-3.33809
2.34913
-1.87923
-4.46569
3.20366
5.04866
-3.2252
-1.2796
4.05581
1.47039
3.51634
-3.68721
-3.63634
-4.77113
1.70675
3.89774
5.13766
-3.268
-1.69798
4.15303
2.02375
3.58229
-3.74746
-3.92958
-2.59803
-5.28386
5.43317
2.88952
4.16646
-1.34037
3.05853
1.51516
-2.60583
-2.20303
3.15645
2.04483
-2.71674
2.97566
-2.49991
2.14032
1.48044
3.41419
-1.55768
-2.08222
1.74279
1.94611
3.63467
1.98608
3.56026
1.66472
3.48654
2.84577
4.97362
-0.147203
0.298948
0.25396
-5.21817
5.44672
-4.93854
-2.99257
0.593619
3.23345
5.22034
0.220106
-2.77259
3.04915
0.422076
3.13117
0.478027
5.23297
1.64228
2.86991
-2.41126
-1.09009
3.01241
1.44632
1.874
-2.57593
2.99985
1.88903
-2.57534
-1.11977
1.81624
1.49078
3.31898
1.83503
3.30692
1.14227
2.06839
3.43535
1.48697
2.05279
3.45015
0.663356
4.72443
-0.460597
0.636877
4.70144
4.41407
0.839832
0.928501
0.692018
0.753179
5.12183
-0.474696
0.780523
0.898469
5.11452
0.668048
1.02427
4.82888
-0.456352
0.870278
1.04147
4.83267
-3.37089
-5.16208
1.80667
3.65579
5.70367
0.855722
2.46149
4.09062
-3.68543
-2.9941
1.34178
4.46888
3.27702
-4.09833
-2.19306
-5.07708
2.99723
5.77631
-2.79643
-3.56499
-5.63996
3.68005
5.63976
2.89549
1.66029
-1.31994
2.4812
4.02127
-3.56639
2.18026
-1.79426
-3.03865
4.60632
3.33624
-4.13635
3.57656
1.16019
1.57291
-1.55173
-1.16693
1.54707
1.7529
-1.69353
-3.65336
1.907
4.11047
-1.2344
-3.58144
1.62536
4.03233
4.02737
1.57172
1.77209
2.74526
5.11735
0.276608
-4.8828
0.206896
5.29219
2.99065
-5.06495
5.03261
0.406044
3.0642
-4.81549
0.239472
2.85782
5.57111
2.93599
0.465233
5.32823
-0.326337
0.596873
3.20473
5.2583
3.14745
5.43897
1.63406
2.9895
2.0605
-2.52818
1.83703
3.04711
1.8566
-2.59313
1.90828
1.79911
3.3597
3.13003
2.01477
1.86547
-2.6809
1.80869
2.04559
3.44579
1.87044
2.03705
3.49479
2.03395
2.04235
3.58539
6.45469
-0.831778
0.619778
1.07155
-0.869545
-5.94651
1.03411
1.08137
6.24761
0.864659
-6.48756
-0.608286
6.69008
-0.588577
0.770763
0.753588
-0.531969
1.11211
6.66512
-0.58418
1.00003
0.792388
-2.02752
5.41055
2.28065
-0.508813
5.01409
0.661388
5.49336
0.727669
2.16704
5.77262
-2.05862
-0.817183
2.28281
1.01531
5.38643
0.909971
5.39151
2.39806
5.70583
0.600596
3.28181
-2.87032
-2.14415
3.33677
0.902306
2.39824
-2.92243
3.16424
0.841051
-2.74722
-2.35427
0.829661
2.60421
3.8488
0.713694
3.70403
2.32364
0.933355
3.59941
1.03208
2.57489
3.76847
0.694917
4.64471
1.02784
4.39436
0.939131
4.39501
1.2185
0.956292
-1.10514
0.87038
1.31685
5.0813
0.820162
5.09299
1.07274
1.06813
4.83105
1.27961
1.10539
4.84445
0.638929
4.33122
-0.441907
-1.28851
4.31232
1.75901
4.32744
0.827899
-1.37392
0.650301
1.83095
4.73473
-0.442776
0.657046
4.73662
-0.448436
1.38204
0.858416
4.74673
1.83246
0.852335
4.75299
1.83526
3.19318
1.32541
-2.76716
1.17308
3.22168
1.75608
-2.81182
1.24466
1.85612
3.54182
3.28552
1.3546
1.75961
-2.888
1.83937
1.42171
3.59236
1.2626
1.81846
3.63273
1.45864
1.81303
3.71131
3.00661
4.13644
-3.81948
-0.567223
3.92743
0.741436
3.09333
-3.56953
4.19049
3.28802
-3.87756
-0.604117
2.97597
0.782407
4.17307
3.1487
4.44531
0.76222
4.51
3.4076
0.953877
4.29204
3.24003
1.06781
2.31299
4.79679
-1.53249
2.28096
4.77813
-2.77254
-6.05583
2.65519
2.88691
6.08724
-3.16002
-6.07669
2.03544
3.49018
6.31543
-2.77944
1.46581
5.06495
3.01317
-5.87988
3.22196
5.85663
-2.78907
-3.085
2.87749
-2.80962
-2.01071
5.52722
3.09575
2.60141
-2.20268
1.29894
2.03324
-3.74955
1.34301
4.20274
1.24908
3.78896
2.14439
1.42296
-2.13678
-3.92638
1.60555
2.01567
4.52934
1.53846
4.28038
1.4823
1.99005
1.3104
6.38987
0.671709
-6.30747
-1.35488
1.59689
6.53711
-0.734492
-1.22798
1.45776
0.918861
-0.918523
-5.90273
1.13541
6.21031
1.54963
6.60916
0.850124
2.7516
4.70281
0.511893
-0.723225
-4.35309
0.913578
4.74057
-4.71924
-2.88452
3.12366
5.04695
-0.655631
-2.61164
0.839096
2.86095
3.01388
5.01382
0.682971
0.485504
3.18495
-2.79115
-0.312577
-1.75558
3.31888
0.67862
-2.94459
1.88975
3.20989
0.658668
-2.81801
-1.82916
0.544961
3.74163
-0.359855
2.01449
0.528125
3.5802
-0.343697
1.83517
0.712543
3.61027
0.731814
3.7915
2.03442
0.685582
2.03923
-3.77707
2.14877
1.05892
4.23973
2.00492
0.918682
-4.01235
0.960143
2.41797
4.45031
0.768507
2.27279
3.90145
0.984417
2.24182
1.15773
2.38628
4.36119
2.65363
4.78595
-4.51129
-0.632194
4.42316
2.80797
0.811803
-4.08132
4.75992
2.9467
-4.49494
-0.703874
2.70149
0.891583
4.71126
2.82593
5.05033
0.850427
3.09281
5.03998
2.96167
1.05429
4.77523
1.88284
1.8017
3.44368
-3.05509
-3.87209
-2.05617
-2.25457
4.18345
2.58112
2.37491
-4.15259
1.81591
3.48756
-2.18147
-2.0035
2.10234
-3.73884
-2.54332
-1.93821
4.26468
2.05008
2.94986
-3.96559
-2.10384
-2.72168
3.92746
2.16344
2.78631
1.78339
-4.29813
2.59885
-2.04622
3.89017
-2.65738
-3.98487
1.97228
1.36075
2.56714
-2.37155
-1.53495
1.96495
1.73799
-3.61976
2.02169
4.08942
2.0119
3.71036
1.55001
2.11306
-1.68867
-3.80186
2.15916
1.91615
4.36562
2.14234
4.21545
2.0864
1.74956
0.547402
1.92957
-0.349245
-3.87387
1.9547
0.794653
4.36558
1.92073
0.744802
-3.91957
0.599382
1.9467
-0.39205
4.59061
0.555264
1.88984
-0.360365
3.95241
0.751091
1.88874
0.810107
1.95492
4.68432
-6.52324
1.90831
0.738356
6.68773
0.279918
1.82045
1.87181
0.559318
6.39657
-0.327416
0.619339
2.10719
0.43264
-6.54531
2.13701
6.63286
0.771109
2.14858
6.58582
2.0687
2.18417
4.35115
0.607131
4.43628
2.26691
-0.404261
4.46171
0.805362
2.25718
0.646157
2.22117
4.83187
-0.436172
2.22162
0.852251
4.86678
0.64897
2.31569
5.05895
-0.432309
0.86457
2.3224
5.12831
1.41252
4.41803
0.794689
4.653
1.65205
4.46178
1.61412
1.02829
1.5316
0.932484
5.08027
1.00844
1.74912
5.0921
1.48991
1.15587
4.87522
1.70485
1.221
4.92177
2.61932
5.61766
0.45851
0.300309
5.72399
2.78782
5.54619
0.553879
2.85714
0.354983
2.68261
6.00772
2.71821
0.639951
5.87416
-0.398392
0.700709
2.94091
5.82461
2.91842
5.89618
1.01567
4.32012
1.28722
4.33135
4.32989
1.72373
1.1911
1.06069
1.39707
4.75587
-1.42201
-1.05558
1.8505
1.26156
4.8067
1.26612
4.7793
1.83671
4.77107
0.272329
4.60509
-4.35398
-3.69799
4.5022
0.629782
3.93788
-4.21106
4.43432
0.513262
-4.14757
3.77915
-0.361944
0.641797
4.72591
0.400115
-3.76311
4.79911
4.00365
0.703394
4.79822
4.01716
4.8119
1.71148
3.15747
-2.72743
-2.02588
3.4254
1.91712
2.01335
-3.03723
3.27471
1.9294
-2.8582
-2.04684
1.94727
1.93046
3.74401
1.86787
3.58693
2.04088
2.09567
3.72998
1.95028
2.18355
3.91484
-0.837835
3.27535
1.01796
-2.89062
-1.75743
3.35442
-2.97506
1.90556
3.2379
-2.84968
0.901891
1.8388
3.64557
-1.84735
-0.927053
1.13144
3.98863
2.10502
1.09353
3.69624
3.86694
2.06042
-4.93705
3.46611
0.681327
5.23221
0.306238
3.32421
3.38438
0.556638
4.96827
-0.374055
0.659098
3.6222
0.417067
-5.04951
3.67763
5.24706
0.730244
3.69744
5.26229
3.59097
-0.941981
1.8895
1.13383
-3.89211
1.95192
4.43313
1.90244
0.951645
3.9959
1.88105
-4.07097
-1.0299
1.26311
2.00579
4.77424
1.1538
1.87181
1.97059
4.73085
-6.2168
1.837
6.45989
-0.804107
1.68679
0.996758
1.78643
6.12888
0.876808
2.02025
-1.06746
-5.77164
1.96861
1.31848
6.08985
2.07312
6.38746
1.91428
1.08145
0.300382
5.18346
-5.01873
-3.35074
4.95815
0.669351
3.61933
-4.71482
4.97632
0.554322
-4.75015
3.46547
-0.395086
0.696834
5.21997
0.428213
-3.43411
5.22613
3.70642
0.748901
5.21551
3.72394
5.31695
2.89589
-2.09342
4.139
2.05117
-3.48518
-4.72879
2.82306
3.37078
5.44758
-4.55664
-3.13858
4.40142
-2.73846
2.29779
3.14122
-2.46905
-3.46773
4.74991
2.70773
3.97969
-4.0522
2.96239
-4.9511
3.85372
-2.93879
4.92663
-3.79219
-2.7001
-3.65112
4.29851
3.69078
2.4454
-4.28889
-4.63152
3.33582
2.59256
4.21224
-3.50614
-1.10703
3.17071
1.43742
-2.74921
-2.13698
3.33251
2.4012
-2.91597
3.15441
-2.73834
2.32169
1.1889
3.5908
-1.27031
-2.311
1.58924
2.58375
3.78916
2.58264
3.76793
1.51926
3.60687
1.81389
3.25958
-2.85671
-1.54598
3.46614
1.75074
-3.06841
1.77067
3.36486
-2.97382
1.76334
-1.60753
1.83641
1.81188
3.77801
1.83055
3.66654
1.66749
3.83031
1.81776
1.8966
4.03211
1.84307
2.12948
4.39115
-1.00336
4.53407
1.20144
2.2262
4.48688
2.24101
-1.06015
2.2396
1.27346
4.97828
2.22405
4.90845
1.08581
2.33147
5.22015
1.31461
2.35062
5.34498
2.52333
5.35274
-0.80903
5.06252
2.63241
1.00972
5.3313
2.75727
-0.907129
2.50603
1.12416
5.39879
2.62512
5.66665
0.983397
2.84984
5.65437
2.72897
1.22435
5.42522
2.66147
3.52445
1.00281
-3.11272
0.940725
3.76552
2.96937
-3.3775
0.974934
2.86275
4.00391
3.71312
1.13741
2.93899
-3.30984
2.83656
1.16701
3.94853
1.13819
3.13147
4.15624
1.32483
3.10891
4.12033
-5.18265
3.29317
4.94783
-3.0245
-3.28004
2.89897
2.03982
2.49732
4.12245
-3.61867
-3.11851
2.72681
4.98659
3.47706
-4.30196
2.33969
-4.66098
1.89835
-2.53805
3.69143
-2.73764
1.19735
-4.24506
1.7709
2.18946
-2.59077
-2.27265
2.78329
4.78648
2.1708
-4.16909
2.36743
3.17645
-3.16434
4.41917
-2.79308
-4.54846
3.85008
2.10072
1.60758
-1.74945
-3.95287
1.98958
4.64502
-1.67555
-2.08018
1.96868
1.88885
-2.13187
-4.00747
2.03059
4.78331
4.41907
1.96077
1.80826
6.28418
2.33838
-0.372231
0.676066
-2.38361
-6.19703
0.800536
2.61002
6.44283
0.408419
-2.3157
2.55427
0.448271
-6.40364
6.51832
0.791424
6.50322
0.723688
2.56503
-1.19563
1.97553
1.55475
-3.75655
2.13971
4.22023
1.99265
3.88779
1.24625
2.2352
-1.414
-3.90399
1.77935
2.38347
4.39698
2.38507
4.35349
1.59318
2.22205
-4.13191
1.09891
4.56121
-2.51289
1.02609
2.75933
0.882699
2.48542
4.04682
1.08132
-4.20906
-2.62926
2.87721
1.44123
4.63766
2.73486
1.21519
1.28855
4.49621
-4.76759
3.36293
5.10292
-0.801651
3.11237
0.999869
3.26392
4.84114
0.920197
3.51169
-1.02528
-4.66035
1.28698
3.47245
5.0029
3.60269
5.16488
1.14207
3.3672
-0.733806
4.05572
0.921867
-3.70234
-3.55275
4.37096
3.81198
-4.04904
4.27037
-3.9511
3.66095
0.892842
4.59726
-0.983254
-3.50541
1.22938
4.53512
3.77181
4.69351
3.91461
1.10815
4.41576
0.865168
4.68258
-1.8251
4.60374
2.04584
1.16321
4.52368
1.08555
-1.96968
1.20423
2.19349
5.15623
1.09991
5.11711
1.92604
1.30407
4.98181
2.1544
1.40514
5.05484
-3.03009
3.49879
-1.9805
3.49538
2.34998
-3.02792
-2.49593
-1.85048
-2.94138
2.88797
3.47955
2.20915
3.57303
2.00113
-3.05029
-3.04647
3.56736
-2.00751
-2.37824
-1.78214
2.82368
1.75635
2.66683
-2.51439
-2.61462
-3.42604
-1.90413
3.03834
2.00725
4.05201
-2.97665
-3.85267
-2.17274
3.01987
2.21269
3.8635
3.97586
2.10778
-3.38032
3.78103
-2.14906
-3.35217
2.49674
2.57695
-1.95886
-3.17468
1.55642
1.405
4.61366
2.22028
2.11586
4.52866
-1.73151
1.58733
4.75467
2.23609
1.62276
2.27811
1.49717
-1.88279
5.10023
1.55703
2.38542