/*--------------------------------*- C++ -*----------------------------------*\
  =========                 |
  \\      /  F ield         | OpenFOAM: The Open Source CFD Toolbox
   \\    /   O peration     | Website:  https://openfoam.org
    \\  /    A nd           | Version:  9
     \\/     M anipulation  |
\*---------------------------------------------------------------------------*/
FoamFile
{
    format      ascii;
    class       volScalarField;
    location    "0.00235";
    object      overpressureMax;
}
// * * * * * * * * * * * * * * * * * * * * * * * * * * * * * * * * * * * * * //

dimensions      [1 -1 -2 0 0 0 0];

internalField   nonuniform List<scalar> 
19519
(
227286
281624
250156
146023
164753
229243
150010
175792
194231
157786
60867.1
673.282
285519
280797
193484
204586
266513
159798
220450
202908
115233
124210
158072
135456
159505
236418
418595
432357
261268
287825
421045
432150
264240
416526
287972
392773
274261
428067
268729
414230
348088
331909
281407
243570
395145
250895
281385
269655
208209
111895
222698
168742
261928
171153
62099.1
82804.2
162121
94371.3
93559.5
75332.3
106716
66706.5
100917
89788.5
124590
85458.3
97796.8
90301.5
302869
264162
261562
217379
144499
178210
180810
175093
181085
208033
628377
303688
530573
302011
394132
246067
319324
152315
209224
236966
496245
418345
596541
495525
390769
389717
304498
384126
491697
346467
437465
425345
335096
372530
266458
354776
384529
299299
344267
249743
272684
304018
173911
257125
387803
265443
214737
193587
159874
161850
90819.1
145956
116397
31577.5
324687
406533
229136
302745
404856
228537
326219
312347
393719
225368
295385
316095
385925
224369
257031
330156
203091
223035
275932
301659
189799
151541
212413
141714
135049
192245
187996
122509
241530
167157
278156
219950
205111
194787
18385.1
227799
175889
579427
898792
504837
492471
894013
502463
580158
579648
492611
888245
499594
885714
500403
582578
321017
303139
398226
225440
401163
225841
318066
574461
888439
496221
479831
582789
872584
489621
553363
457371
776777
447490
834165
473413
520229
304186
283067
354274
213456
372709
220612
291806
428561
702952
411759
338630
477485
620811
370220
378152
292228
463456
285495
538846
326891
330151
236213
198232
240519
157838
270951
174327
214312
502726
475517
419061
354766
534345
449430
392584
704522
676735
811527
592754
415451
279999
324839
252611
358891
324237
304649
630222
476912
534012
558929
253791
399928
248730
189307
287751
353219
218646
232181
172390
294846
183734
322020
196297
220286
102438
122202
140646
63266.6
166429
92503.5
57562.3
291965
179401
187871
327370
200396
244098
225438
68268.7
598.848
31805.1
212891
7073.09
29194.5
64.8513
206664
182532
239081
176622
182082
209315
150462
0.300574
267607
867.652
539095
513931
482442
301164
290096
300959
364551
313982
265223
189669
221978
272034
407696
287822
323910
293931
427930
396380
279911
533447
385681
284083
438526
417054
529453
361743
299131
372253
292482
405237
390991
354269
294426
430318
395724
353051
276244
389099
363165
357956
268928
355291
261094
387806
361527
360052
278808
300743
382014
352224
290545
311327
309121
251681
269035
322821
290671
225784
73614.7
162019
221682
199891
134305
136359
150776
74075.8
192031
133679
139620
133291
129888
86171.7
508284
450838
445455
350079
529714
433509
427750
483453
334071
388839
383968
413683
408035
452769
253097
220776
192944
242423
194569
269424
230467
336444
347861
271022
403256
307519
358893
314678
320187
122225
117012
271088
320964
298210
285416
114890
560.043
114407
130.541
103734
2.90476
2742.58
0.198436
134684
51.5882
0.00569927
0.0190818
166862
235504
166170
232393
31365.2
13283.4
32354.2
9473.42
165998
224774
163521
211191
32915.9
3923.12
159624
232867
65803.2
114175
26182.4
8257.47
1276.7
560.534
117699
986.928
50392
532.217
189650
33955.2
120782
114438
187153
26230.1
111388
181929
11708.2
77982.5
114022
162460
24618.9
21911.2
46349.1
3579.92
140.744
8802.26
1836.05
293.952
6.73167
90.7019
24.4398
1.44755
118.969
6.63255
1.28772
0.49863
2387.13
590.671
32.337
1018.31
9.0168
260899
187011
207908
166466
186708
206957
262099
257613
166146
187684
201638
186412
204494
254420
21953.7
17673.2
54406.3
31307.1
17105.7
54265.2
23113.3
19895.4
31676.9
14948.5
52276.5
16341.5
53780.9
16916.1
249039
188826
198745
165910
251613
189224
196326
244637
165428
185449
189627
188517
193745
237152
9312.1
12777.8
48276.3
33393.2
13223.3
10358
41093.1
213587
179376
183315
150745
226818
170488
173742
198210
117175
140257
74392.9
159644
139032
171580
57302.1
99325.8
24346.6
9214.65
115495
57159
7436.27
22698.4
3464.87
11256.3
838.472
27695.9
2544.97
7798.4
77887
118288
60277.1
143530
75767.7
159063
52524
10953.8
9441.75
1663.39
566.512
15799.7
5983.84
1041.37
157615
95611.2
114467
156897
95486.3
122517
122843
151711
94170.1
114449
150062
91044.5
118814
119845
137046
32123.8
71944.9
97213.3
11025.7
15773.5
51426.8
2496.97
270.594
947.16
773.74
91.8359
74.4286
240.628
111383
49273.1
115659
25307.8
25044.4
7112.41
59174.7
1.50931
0.263946
0.14306
1.3242
0.380133
0.0821555
0.031825
768.992
7.34824
7.01888
0.447158
114287
153564
94665.4
155314
94981.5
121625
120810
114528
146144
61374.6
148489
81653.2
112589
92084.1
31370.5
9444.02
877.593
38838.9
3152.36
3802.53
904.777
340.542
80.2987
11.3172
254.977
31.7206
23.0986
7.60374
5916.48
251.614
215.075
2609.54
2388.12
696.854
65.5318
5560.75
6.41785
4.40928
374.012
3551.54
4.43619
2.86257
1085.39
2.27105
1.31553
24.5206
12.3995
1.25619
0.87888
1.53683
0.23026
0.191362
0.768309
0.649018
0.0827301
0.04341
0.190293
0.0136755
0.0107022
0.0577565
0.0353892
0.00293167
0.00279239
0.0909517
0.0432817
0.00789998
0.000408776
1.36897
14727.1
3218.15
132813
25.2414
30594.9
191858
2105.02
233.293
7145.76
62.1742
94558
270150
319243
279333
189946
148603
1903.64
15.6874
0.0520019
2.70348
288.221
3.22146
91934.2
105758
166.371
187720
68685
88231.2
59.4408
23102.9
43709.2
25.1494
102699
2598.34
6763
2.98285
135.829
36.5133
1.30491
359.927
1.5863
1.9761
0.375601
0.85361
0.547271
0.0755257
1.55289
0.201651
0.120826
0.0213875
0.223227
202.534
19.4857
0.823132
0.79408
1.24219
0.136138
0.321339
0.151343
0.0175321
0.0115083
0.000143846
0.00753069
0.000328025
0.00323508
0.000109439
0.000263718
7.75402e-06
1.31764e-05
3.81187e-07
3.36862e-06
7.43748e-08
0.00128938
3.62859e-05
8.83418e-07
2.01835e-08
2.09841
0.8769
0.214337
0.0339055
0.182221
0.00272053
0.000105446
3.38571e-06
1.02547e-07
2.79397e-09
681926
650653
677853
682164
711539
602174
610463
628543
585631
0.00429828
0.0022291
9.04999e-05
0.000654748
2.46284e-05
0.000105789
3.65982e-06
1.14918e-05
3.36673e-07
3.47238e-06
8.99599e-08
0.0444943
0.015464
0.00229836
0.000359622
0.000127096
402013
58.8358
44.8846
9163.48
222080
196.291
130610
1220.16
1.87321
1.6597
0.0129949
457727
463660
478674
467999
450389
405061
69350.3
2745.99
156.064
1.30876
257951
270884
182641
169961
231957
176143
237890
215113
175698
1.09468e+06
735052
1.11111e+06
900802
595222
881890
1.51674e+06
1.10625e+06
1.29104e+06
1.02048e+06
1.50247e+06
1.03928e+06
1.29469e+06
3.10017e+06
2.75979e+06
3.07522e+06
2.74875e+06
1.51935e+06
914053
1.0025e+06
1.27102e+06
1.02032e+06
1.29062e+06
1.4933e+06
3.05669e+06
2.5169e+06
2.67072e+06
2.92317e+06
1.37135e+06
973479
1.23648e+06
853722
1.4426e+06
933937
1.18539e+06
2.50758e+06
2.32662e+06
2.73575e+06
2.10992e+06
1.28864e+06
1.10278e+06
747933
655619
330084
924840
1.17487e+06
834674
772841
754255
490764
412947
688044
392681
391035
1.03498e+06
1.25314e+06
1.1132e+06
1.2553e+06
1.22474e+06
1.08091e+06
1.06523e+06
884510
1.06406e+06
1.05404e+06
1.00649e+06
947591
965608
1.05266e+06
777312
613891
1.00747e+06
734420
802318
613699
972882
635774
571898
825447
616471
679660
543071
763682
304380
237107
914848
1.1413e+06
779293
902440
1.11344e+06
758380
942815
2.38575e+06
2.73972e+06
2.66973e+06
2.44091e+06
2.02324e+06
1.65233e+06
1.62946e+06
2.06054e+06
1.00786e+06
1.22561e+06
1.1395e+06
1.05793e+06
1.19509e+06
1.06028e+06
983369
887256
878595
1.02801e+06
713799
1.08371e+06
738450
854966
2.30689e+06
2.54024e+06
2.58472e+06
2.27063e+06
1.95946e+06
1.57601e+06
1.59021e+06
1.92712e+06
748184
953757
673368
692025
810948
857607
621053
2.21711e+06
2.53976e+06
2.26885e+06
2.49695e+06
1.875e+06
1.56953e+06
1.9208e+06
1.53262e+06
844321
880513
695489
1.02961e+06
835564
1.04494e+06
822761
693998
591517
606869
563958
733515
591125
661474
2.09404e+06
2.20433e+06
2.38122e+06
1.9224e+06
1.76907e+06
1.34104e+06
1.45309e+06
1.62364e+06
606152
508083
531267
388787
632897
490785
497736
1.52102e+06
2.00066e+06
1.72805e+06
1.77999e+06
1.27906e+06
1.20679e+06
1.45691e+06
1.06115e+06
748334
714529
593062
880922
606831
930235
716330
581687
393231
486585
439986
491636
466326
558390
1.3201e+06
1.3693e+06
1.56507e+06
1.1373e+06
1.10535e+06
786958
917572
947057
850506
1.19996e+06
980201
1.05782e+06
542983
546372
364510
504404
461043
670940
393608
741579
742975
901272
653916
249444
424254
225504
202024
376783
222993
274299
1.70658e+06
1.64437e+06
1.28225e+06
852903
724453
1.41534e+06
1.48308e+06
1.09372e+06
730851
602935
497853
479435
475099
1.81506e+06
1.05785e+06
1.08159e+06
1.54973e+06
966250
879776
521846
451559
378608
1.69353e+06
1.6189e+06
1.61235e+06
1.70627e+06
1.63442e+06
1.45722e+06
1.56417e+06
1.51302e+06
1.07454e+06
1.27025e+06
1.31771e+06
1.03304e+06
864939
832049
642971
1.48785e+06
1.27575e+06
1.31668e+06
1.06239e+06
1.26602e+06
1.29562e+06
1.50206e+06
1.44657e+06
1.03142e+06
1.14445e+06
1.18664e+06
1.22649e+06
1.26311e+06
1.35236e+06
1.02837e+06
1.01894e+06
1.08772e+06
765767
1.21525e+06
857408
954576
833055
633835
577505
645062
693218
789465
688377
580806
522002
552998
414792
616266
493736
505972
563222
393765
465559
462306
479010
480113
547474
56.1022
0.0436499
0.172875
0.0101967
0.0113124
202.511
17.8389
22.0318
3.56426
0.331892
0.273453
0.00947752
0.00323435
0.00318148
0.000462861
0.0192106
0.00214924
0.00299092
695628
1.2944e+06
483413
194993
8863.7
16.716
3.05052
0.0656375
0.0399883
667188
1.30346e+06
491071
194462
5496.38
3.95197
0.0932795
0.0250365
0.0102677
600618
935933
466408
165479
839.105
0.459739
0.00101942
0.00873883
0.000667521
484574
750032
392921
1272.23
3.48108
0.0183678
0.00238229
0.000237527
1.63909e-05
105330
379678
14051.2
191469
0.136402
44.0231
0.00034912
0.00723899
62.913
241435
0.296029
745.333
0.0011771
0.026477
1.37968e+06
1.3965e+06
1.32178e+06
1.44509e+06
1.32233e+06
755791
679104
1.31856e+06
748508
1.2854e+06
1.30212e+06
1.17773e+06
330887
482163
329200
28767.2
108224
5545.53
194701
26198
101171
2961.64
210.106
845.548
58.0132
6780.34
118.949
436.794
11.2054
1.21368e+06
929833
1.31435e+06
761449
623378
1.08605e+06
766358
1.06638e+06
328226
490732
324805
24010.4
70203
1887.8
193000
11987.9
9504.21
214.541
78.2383
272.285
5.83753
1639.59
9.41119
27.8367
3.04655
653284
533559
554907
959913
825598
556679
716616
734673
802058
777976
316441
421742
296138
7528.68
739.683
73.7095
31573.1
294.117
23.2018
1.22389
3.27333
9.11124
0.594967
20.6557
0.067409
1.29709
0.0988889
486855
537974
454301
467692
675409
618799
307780
457052
358196
733052
463304
464517
147974
218575
335.729
51.7251
0.69609
1.22443
1.73975
1.44435
0.435752
0.124779
0.0214938
0.115693
0.0113151
2.35448
10.3435
0.0234189
0.0600605
175490
98.5401
395.265
195.464
8088.33
0.389064
3.73991
153697
654.644
2039.34
15884.6
64637.5
7.19303
596.224
500235
135643
490868
88019.7
449357
249.727
129914
0.186244
32.6476
0.045556
526512
531448
626563
449051
375963
498828
623484
446486
372426
548816
556772
620530
388990
365643
473971
603819
419253
356131
528856
484290
538932
321806
341533
412153
477074
233697
313954
413355
150397
339294
418.829
95529.4
1294.21
17853.6
0.852054
100.256
1.65656e+06
1.2141e+06
1.64688e+06
1.27184e+06
1.18287e+06
1.63801e+06
1.66007e+06
480946
599065
594546
322060
446380
443854
322988
1138.12
1545.97
8369.03
8394.35
1441.34
7821.49
1226.65
1.66159e+06
1.15492e+06
1.62993e+06
1.26755e+06
1.64426e+06
1.10753e+06
1.64294e+06
604290
492993
606498
343405
459892
337812
462417
355.278
785.243
4256.57
4023.84
552.662
538.626
2936.09
1.48647e+06
1.00428e+06
1.55331e+06
897938
1.57415e+06
960222
1.46164e+06
445873
571762
544084
322948
430890
335393
406916
11.6864
78.4626
415.16
334.531
37.9815
26.9035
139.727
1.0378e+06
793270
1.11933e+06
694660
1.15232e+06
734157
1.00555e+06
321384
433648
366884
245845
317447
267947
286595
0.0199187
0.231872
1.19734
0.536878
0.0872447
0.0479241
0.180443
1980.44
277463
101566
386202
335322
313738
72457.8
339163
364284
344691
332361
290223
113278
252193
72932.3
189336
69197.7
221933
82833.8
232926
54286
0.00699594
0.0203543
0.573089
24.938
0.0387992
0.608986
0.0292416
99.8413
0.1342
0.422799
0.816348
3.81904
0.0650124
0.12895
1.13374e+06
1.20439e+06
1.39755e+06
1.30015e+06
1.17942e+06
1.39401e+06
1.13687e+06
750198
858216
853289
1.40696e+06
756397
749173
1.42333e+06
2.74151e+06
3.41679e+06
3.35469e+06
2.78743e+06
1.13307e+06
1.29899e+06
1.1769e+06
1.3961e+06
1.17156e+06
1.39286e+06
1.13369e+06
851734
753981
856579
1.38525e+06
748255
744874
1.37223e+06
2.68055e+06
3.26421e+06
3.28961e+06
2.64227e+06
1.51346e+06
1.24769e+06
1.29291e+06
1.24737e+06
1.20657e+06
1.30246e+06
1.50894e+06
3.56867e+06
3.77644e+06
3.70378e+06
3.63406e+06
3.18643e+06
2.94757e+06
2.88584e+06
3.23766e+06
1.64155e+06
1.27637e+06
1.17293e+06
1.62421e+06
1.17278e+06
1.62658e+06
1.63727e+06
1.50315e+06
1.22038e+06
1.15588e+06
1.29329e+06
1.18329e+06
1.29663e+06
1.49879e+06
3.47396e+06
3.57348e+06
3.61038e+06
3.42705e+06
3.10216e+06
2.75417e+06
2.80301e+06
3.0546e+06
329666
404401
402721
273130
251044
250898
273385
594640
486786
599438
323309
453750
446194
329901
402113
329102
402794
276918
257290
253468
283613
80745.1
49370.4
39621.9
28126.5
49352.9
38221.6
80686.1
81410.4
27474.6
51658.1
31884.9
50301.4
35774.1
82286.5
157.936
235.79
147.455
192.167
217.738
134.09
171.853
978.939
7743
1042.6
5627.41
1270.43
6872.36
772.574
131.956
159.446
144.651
78.3524
185.678
108.858
99.4828
1.13738e+06
1.15381e+06
1.40093e+06
1.272e+06
1.13456e+06
1.10034e+06
1.40916e+06
866307
767963
875569
1.38612e+06
754464
1.37635e+06
756384
2.6492e+06
3.28522e+06
2.64104e+06
3.31663e+06
1.1377e+06
1.19193e+06
929331
1.3829e+06
1.02519e+06
1.40973e+06
1.1228e+06
874152
856753
752080
1.38179e+06
731457
749888
1.35206e+06
2.62502e+06
3.17345e+06
3.28698e+06
2.54336e+06
3.48615e+06
3.59804e+06
3.44922e+06
3.63829e+06
1.66542e+06
1.18563e+06
1.03825e+06
1.61694e+06
1.06146e+06
1.64528e+06
1.63653e+06
3.44995e+06
3.48532e+06
3.60709e+06
3.32359e+06
403564
326812
403589
294771
260431
289883
262881
602170
481801
590197
345614
448885
459692
343141
321763
401991
397506
298063
265678
264880
298536
77276.5
52919.2
26610.3
20642.9
81600.4
54108.3
20425.3
67524.7
16477.8
54857.6
8309.33
55234.6
14068.1
51972.2
39.8742
101.193
49.4761
45.3961
66.8794
63.7329
27.2098
200.23
2697.22
177.955
954.975
332.399
1806.26
96.6507
21.4688
22.2669
16.5382
5.22574
34.8246
13.2916
9.16223
1.03831e+06
819588
1.33042e+06
824431
1.08867e+06
704540
1.25662e+06
783962
724942
687691
1.21322e+06
699904
1.29314e+06
656926
2.21146e+06
2.97913e+06
2.39893e+06
2.72747e+06
977149
753144
623399
1.07683e+06
650063
1.16967e+06
907667
679296
642554
591852
1.12073e+06
548872
605494
1.01904e+06
2.00414e+06
2.17213e+06
2.45028e+06
1.7913e+06
2.86455e+06
3.27271e+06
3.11985e+06
2.99817e+06
1.38171e+06
851876
851051
1.23555e+06
907819
1.35189e+06
1.26761e+06
1.28592e+06
818926
836611
1.05082e+06
887520
1.12247e+06
1.19048e+06
2.57836e+06
2.38328e+06
2.69067e+06
2.28745e+06
2.26018e+06
1.67812e+06
1.88951e+06
2.01202e+06
307948
388521
375138
288171
264022
295327
259206
510456
473179
395085
306763
348588
378832
288030
241533
357686
337196
277694
199501
251236
264721
14381.9
49293.3
4044.51
3682.53
32206.2
35342.1
1521.34
4305.08
1267.78
4181.23
89.5407
16136.2
422.725
938.588
0.981196
6.42597
1.79525
0.961441
3.36738
1.98663
0.52561
2.84917
95.9429
1.43433
7.38659
7.03535
37.2193
0.558494
0.230068
0.251195
0.097878
0.0414065
0.493118
0.134143
0.0499635
753384
590853
980879
626889
832287
550101
883441
556746
483766
538055
805879
490287
911629
433419
1.38346e+06
1.90305e+06
1.58074e+06
1.65656e+06
666911
546620
386323
639175
462889
776554
544353
432264
497919
431377
704519
330740
379570
603620
1.1931e+06
1.17296e+06
1.41758e+06
996723
988540
782952
972560
684111
1.09033e+06
727853
890095
1.7512e+06
2.08779e+06
2.00636e+06
1.81935e+06
1.56e+06
1.4835e+06
1.77625e+06
1.31005e+06
912430
623872
507262
732872
665118
883326
755051
871922
618034
507231
624557
660795
787018
714345
1.4944e+06
1.29097e+06
1.55469e+06
1.23546e+06
1.33214e+06
914402
1.11778e+06
1.09838e+06
17431.2
109995
290163
131133
93154
233368
18371.2
341443
49109.8
182347
164336
203316
256841
61805
4269.34
28561.8
2257.85
33552.1
538.732
2938.51
6389.29
24.5858
725.368
14.8062
7.98825
159.865
113.338
2.21527
3.47577
1.33334
3.49129
0.255835
17.8115
0.350106
0.653896
0.00818948
0.0183793
0.0112458
0.0380438
0.0085855
0.0235863
0.013764
0.0578923
0.207319
4.15569
0.418063
0.232915
0.055558
0.781997
0.101761
0.626166
7.06504
2.18386
0.406673
0.165936
1.41151
16751.9
150064
51266.7
187846
31339.5
132959
35185.5
1227.93
5171.38
200.05
184.235
2749.14
2685.31
83.8396
90076.1
173735
95153.6
210591
91349.4
226749
101237
7018.84
7973.1
1007.89
329.166
11358.2
4559.9
548.084
10454.3
20218.4
1501.82
1256.95
15710.7
14243.2
879.875
1026.27
89.2194
0.0863814
455.361
0.491304
0.0474838
28.1558
0.00875169
0.0042078
0.224414
0.00508146
0.000134374
139293
123.038
0.0104615
981.425
0.0410086
560.764
637.852
392.112
151.083
74.1257
28984
202.569
1426.54
20162.5
1.49181
1164.05
0.713899
954.683
0.915685
101.617
293.773
0.131208
2.74596
12.703
15.9732
0.11324
0.352058
2406.98
74717.3
742.189
4621.81
5488.74
829.228
944.915
5127.15
760.324
4988.01
1414.13
2831.16
319.454
289.367
2234.76
1994
187.019
42.6986
284.63
14.0569
8.80909
136.458
97.6182
4.23872
0.363237
2.51595
0.10314
0.11684
1.09937
0.920026
0.0499624
96192
126648
94605.3
192621
86638.2
174080
105385
86.1969
0.667683
0.43477
5.21217
3.922
0.18314
0.141391
3976.02
809.928
3740.47
478.655
4559.47
635.917
3135.37
774.534
159.723
660.872
39.7418
1245.4
93.7541
357.799
5637.49
32719
4970.78
18682.2
7729.26
30794.1
2877.65
402.841
2554.07
8702.49
9818.61
1198.55
1006.26
3110.37
12.5235
2.49974
8.10817
0.352125
28.0943
1.15516
3.45048
116.697
3315.05
90.7134
263.944
310.967
919.096
33.4296
3.19468
28.4336
82.6953
99.5711
10.2126
9.57182
26.6448
0.328542
0.799296
12.6218
2.73811
1.03822
0.222604
2.82724
1.21479
35.1798
10.4461
3.84649
3.79308
8.68337
2.40185
15441.4
23358.6
2248.34
1516.33
21285.5
16904
1431.09
668397
298363
343473
580592
290976
370845
429886
734545
347154
377088
706840
369667
459329
470993
285841
504785
252215
300430
617064
331499
408108
194798
254018
253086
147354
178997
179046
147407
11.0122
2324.27
1785.53
764.861
2.33399
378.571
1.54456
0.299759
0.195393
2.03785
124.034
1.17211
59.3676
0.777593
193794
251861
250669
149249
184997
148966
186585
331.566
1.07224
694.337
229.828
1.43536
21.7399
0.836052
1.05916
0.0307135
0.327892
33.9949
0.407503
2.96629
0.162357
103479
244162
234693
62129
188041
110635
177591
3.69103
0.09743
1.76119
7.13476
0.191549
0.773997
0.0385766
0.0136992
0.00684727
0.0744138
0.450781
0.0318417
0.0723362
0.0046675
88.6122
718.029
10241.8
97.2121
8836.05
645.276
1357.27
0.00117861
0.010204
0.181647
0.121212
0.0048087
0.00594662
0.000287308
7.81272e-05
0.000103449
0.00147584
0.00779065
0.000419324
0.00100771
4.36889e-05
84482.7
1223.26
8191.37
5135.98
151445
21335.3
62260.8
73.1627
2.79365
21.7318
4.92985
38.7859
2.48612
1.32981
1.47625
10485.1
156.988
160895
7122.9
1737.67
3.53151
56480.3
433.139
23199.4
206802
13946.4
3694.54
6.8497
0.0233433
1.88771
0.264253
681.108
0.750466
0.588115
0.0913204
5.32012
64.3632
0.346944
1370.51
1.45838
1.06502
0.226685
252732
194791
252603
147786
182994
180603
148487
189572
249200
247318
148599
188613
187943
137681
5276.42
177674
68417.1
19152.1
51027.6
128339
3976.77
24.5294
165.54
11.3516
15.3573
38.4604
215.753
2.65757
7.61451
49.809
651.319
383.25
124.94
1680.77
27.3645
127349
235846
234198
344817
59811.1
342294
38786
9147.72
231622
227036
335452
10152.1
308910
1206.99
4.6818
181151
23515.5
144055
62.0045
4312.39
1.52763
1.00705
0.260799
627.499
33.4065
0.417721
0.639025
0.039696
0.774784
276.543
18.8734
20.6373
0.890259
1.15326
0.103636
0.00255284
0.0214924
0.389172
0.0634083
0.00474552
0.00716388
0.000707542
245225
323832
315905
438550
219713
305234
218015
0.285837
3.73329
8.63547
0.571875
1.8801
0.133565
0.0734909
12.6236
1.51405
11.9447
0.783941
5.39889
0.34067
0.706083
7.09759
12.7549
167.683
117.481
8.49215
66.5737
4.5169
1.41422
0.957718
59.5078
222.827
4.15097
149.569
3.12073
18.6498
0.157043
1.72892
53.2771
2.20926
10.8656
0.608313
0.0925539
0.046051
0.45049
1.83583
0.19992
0.729721
0.0517377
0.000215148
0.00103572
0.0130328
0.141521
0.00733091
0.018665
0.000877685
8.90941
15.6609
202.01
194.556
15.6213
120.124
9.01449
7.44744
9.37787
0.547611
145.705
7.11301
48.2966
11.8857
88.9109
6.8083
3.84012
0.0390483
1.57477e+06
1.31025e+06
639339
563929
470303
264941
2.83338e+06
506102
1.44798e+06
2.72871e+06
503069
1.4595e+06
1.51322e+06
2.30466e+06
322339
1.44924e+06
1.63827e+06
352790
1.15102e+06
715462
800048
367142
990057
737096
293926
638077
609975
678169
703583
131637
591246
120006
503201
654341
549448
23911.5
323550
328743
336275
343697
360430
391924
357670
360609
405538
298220
365378
363086
105725
97216.2
220101
151811
2.90367e+06
1.82817e+06
1.82178e+06
2.57874e+06
1.77872e+06
1.76493e+06
2.64167e+06
500281
299494
298582
637962
856756
840251
647172
2.82648e+06
1.85141e+06
1.83883e+06
2.56172e+06
1.81866e+06
1.801e+06
2.53257e+06
305151
311949
510167
640409
834648
834885
648183
2.54466e+06
1.54666e+06
1.73631e+06
2.22334e+06
1.76596e+06
2.40726e+06
1.6318e+06
338670
510199
495208
605394
819934
638694
784019
1.99159e+06
1.06171e+06
1.29963e+06
1.98221e+06
1.19657e+06
1.42738e+06
1.68631e+06
363123
465569
426377
550531
653935
729334
479882
1.1984e+06
1.35582e+06
886941
1.18196e+06
989545
1.39102e+06
849869
349379
378948
358503
333435
563571
401865
474988
757754
1.04415e+06
1.10262e+06
1.05645e+06
737546
776715
977438
202501
362469
349734
295448
401040
404808
258816
722636
941842
996370
871486
714756
921239
693238
124891
294274
208595
228611
360410
241554
305860
122636
196839
193321
216983
273350
287046
208396
323107
320437
327021
335979
347853
338730
375809
347375
347157
405162
336298
338678
373555
343202
348058
187148
348771
320214
98738.4
248063
164261
105846
154362
157975
391205
408206
343217
1.87039e+06
1.61828e+06
1.44168e+06
1.42699e+06
1.59694e+06
1.41364e+06
1.90778e+06
1.87226e+06
1.43951e+06
1.64038e+06
1.41818e+06
1.61894e+06
1.40871e+06
1.88135e+06
1.70041e+06
1.61616e+06
1.38495e+06
1.39254e+06
1.81781e+06
1.52948e+06
1.30938e+06
1.53477e+06
1.28857e+06
1.1985e+06
1.05603e+06
1.38485e+06
1.20124e+06
1.31979e+06
914464
1.00594e+06
895528
836801
1.093e+06
845714
752636
802467
715972
681694
578296
740008
646483
734114
651089
646803
536010
560053
688424
620217
505281
612272
533614
557303
444784
593231
476765
2587.97
56478.5
0.000972796
8.33373e-05
4.07686e-05
0.00127277
4.46368e-05
0.00106803
4.63886e-05
0.000330926
0.0137076
0.000430331
0.00412652
0.000129696
0.0030367
0.000129912
0.000254328
0.00171133
0.0171185
0.00522391
0.0700709
0.00372161
0.000326238
0.0141142
0.293411
0.0196638
0.00176185
0.173215
0.00969416
0.000830283
0.000514452
0.0226195
0.000771313
0.0163887
0.000874319
0.00840762
0.000677155
0.0350024
0.451169
0.0292103
0.00281919
0.344468
0.0238778
0.00387166
5.08246e-06
7.32132e-06
2.61401e-05
0.000717078
0.00283714
5.88916e-05
0.000350791
0.000561891
0.00155471
8.26785e-05
0.000150132
0.00428304
0.00205549
0.000187126
6.19965e-05
0.00177391
0.000425538
7.11077e-05
1.48496e-05
0.000244495
2.8594e-05
6.44231e-06
9.51797e-07
7.77627e-06
7.9973e-07
2.22688e-07
2.90311e-08
1.99361e-07
1.48255e-07
6.24277e-09
3.0268e-09
0.00708345
0.000238138
0.00175791
5.65569e-05
0.000135048
3.88987e-06
4.65589e-06
1.43191e-07
6.18908e-07
1.39116e-08
1.744e-05
4.05635e-07
8.78936e-09
0.000111775
3.63257e-06
1.03653e-07
2.64845e-09
1.49252e-06
7.76378e-06
3.72675e-08
1.67725e-07
8.14907e-10
3.36149e-09
1.4672e-05
5.67601e-05
4.11848e-07
1.7631e-06
1.17434e-08
4.8778e-08
2.47383e-10
1.16415e-09
5.86634e-06
6574.07
272808
76673.9
638728
502591
462867
203258
457670
303350
362485
252825
345018
191015
176893
249988
262929
317544
297236
247284
677571
799829
878766
814608
626575
666667
743522
407888
439868
414803
357976
270828
458.953
66836.2
286259
180288
282734
11126.2
563549
540117
558254
422208
405663
531015
530036
455226
247276
225601
243816
294012
288928
278944
285228
378635
494593
394613
413008
450819
436866
351877
179727
210864
151728
228798
190828
219312
205651
1144.14
380352
297219
769450
1.91344e+06
1.77825e+06
1.32718e+06
791341
756372
724865
708016
705440
1.87818e+06
1.79046e+06
1.76089e+06
1.67189e+06
1.59592e+06
1.50685e+06
1.24272e+06
983504
1.05779e+06
804861
827626
887455
724117
750121
760169
730907
771642
673034
674024
696257
653298
736817
719323
752543
662248
629319
648348
1.85675e+06
1.90532e+06
1.86883e+06
1.68869e+06
1.66434e+06
1.68899e+06
1.7068e+06
1.31372e+06
1.08176e+06
1.06531e+06
1.07766e+06
1.33102e+06
1.31001e+06
1.31489e+06
1.71403e+06
1.76673e+06
1.58838e+06
1.60051e+06
1.4845e+06
1.50403e+06
1.62608e+06
1.66697e+06
1.74163e+06
1.78234e+06
1.63753e+06
1.60902e+06
1.56795e+06
1.53548e+06
876414
747191
869156
889486
865734
748504
805636
28774.2
5368.83
4816.86
173628
88416.3
103419
30593.6
142808
115073
111057
0.0468036
0.0145837
0.00427623
0.000373468
397438
313037
315872
395046
401869
323041
318654
408097
429985
329534
417720
337537
443568
350484
344797
455523
378146
355864
441323
357832
266852
277125
336455
158226
103528
200273
113152
151528
103027
138489
136287
111453
1.61393e-05
0.0022613
9.78401e-05
0.000864146
3.53104e-05
0.000131343
4.03072e-06
1.26048e-05
3.43483e-07
5.03802e-07
1.40135e-08
2.62221e-06
7.29196e-08
1.74623e-09
1.98139e-07
6.00994e-09
1.01863e-10
165406
171311
187698
0.125948
0.0128948
0.0307025
0.00402892
0.00500535
0.00064411
0.00164679
7.5287e-05
0.000635142
1.83188e-05
0.000155412
5.63666e-06
2.61564e-05
8.86212e-07
2.71556e-06
8.19418e-08
1.49294e+06
1.5759e+06
1.43753e+06
1.54801e+06
1.48022e+06
1.44198e+06
1.38289e+06
1.03978e+06
1.25244e+06
1.07749e+06
1.02272e+06
1.2891e+06
1.24999e+06
1.06035e+06
752229
735932
659280
687435
691697
666945
754908
765335
737786
869178
738830
831950
860866
720160
1.54656e+06
1.5235e+06
1.38791e+06
1.39507e+06
1.37344e+06
1.52908e+06
1.54495e+06
1.63467e+06
1.59547e+06
1.54922e+06
1.49162e+06
1.45733e+06
1.44243e+06
1.42581e+06
1.5005e+06
1.42805e+06
1.39013e+06
1.41121e+06
1.33266e+06
1.42044e+06
1.4196e+06
705477
642487
674049
672373
694325
652023
617246
1.35678e+06
1.39767e+06
1.29106e+06
1.34195e+06
1.27078e+06
1.39742e+06
1.48749e+06
1.51153e+06
1.48199e+06
1.36199e+06
1.45224e+06
1.41671e+06
1.34742e+06
1.30757e+06
1.23102e+06
1.01693e+06
1.11969e+06
1.22647e+06
1.0622e+06
1.37387e+06
1.24189e+06
1.0757e+06
1.27135e+06
1.19927e+06
1.07134e+06
1.17382e+06
1.03971e+06
1.26209e+06
819143
744395
917780
869980
707892
1.06323e+06
890741
894499
875193
718736
902619
740221
868192
709950
1.33438e+06
1.38242e+06
1.36764e+06
1.27728e+06
1.31333e+06
1.23598e+06
1.28242e+06
1.34303e+06
1.35405e+06
1.37798e+06
1.36133e+06
1.33459e+06
1.29001e+06
1.25461e+06
727800
641811
631999
724983
646243
655688
744645
1.25625e+06
1.19459e+06
1.21838e+06
1.07924e+06
1.06973e+06
1.16965e+06
1.07737e+06
901550
898334
731521
766471
924358
916600
754998
665105
620776
655169
629768
589747
740979
636701
645717
639825
600760
561123
622151
601924
547578
1.27797e+06
1.22647e+06
1.38663e+06
1.3505e+06
1.42705e+06
1.38537e+06
1.24451e+06
613224
693974
627210
644487
659839
599679
585832
331775
346227
345915
73985.4
388682
388515
337247
388962
376155
350886
338070
157465
301598
105569
479886
521846
356762
388705
517759
357629
482328
478152
388148
510354
358905
514172
357466
477984
485081
508557
361538
388866
479599
509226
364842
491980
387903
419708
370607
489997
367771
485083
304509
310853
370342
282077
419907
215896
343102
202716
217365
119006
221331
158816
288516
153294
97787.6
82716.2
163940
64474.8
124368
51346.1
122989
21981.3
7927.68
79231.6
35944.9
25776.5
84609
30965.7
97798
76071.3
371771
20281.6
92.3929
0.0563268
0.000353713
2.10001e-05
9.39239e-07
332299
319643
232282
5585.93
142.046
196259
328616
194947
190950
308127
143644
82119.4
86230.6
957.566
218.664
501.192
23.5518
3.85281
38.6666
163.278
219278
190256
216747
186231
208454
98326.3
194532
20862.3
19093.6
1143.77
33126
6.7643
1285.91
2.17465
83.4824
2.10437
0.568857
1.10861
6.33444
1.44411
1.06009
0.0118939
0.000496552
1.87846e-05
6.57325e-07
2.01981e-08
1.04407
0.0121443
0.00038684
0.0203943
0.00068066
2.03521e-05
0.00169784
6.76584e-05
2.24246e-06
0.030816
0.00168285
5.08576e-05
56.5767
0.0081487
0.000302777
0.00323662
0.000163943
6.65014e-06
2.41038e-07
8.11997e-09
1.60071e-10
0.000128264
6.8451e-06
3.07366e-07
1.23982e-08
3.7835e-10
0
4.25546e-06
2.49929e-07
1.22818e-08
4.65661e-10
0
0
0.000601352
0.00172209
2.2961e-05
8.3267e-05
8.68065e-07
3.26625e-06
3.17086e-08
1.17012e-07
1.04774e-09
3.89991e-09
0
1.45519e-11
1.92669e-05
6.57323e-05
9.65243e-07
3.42578e-06
4.28699e-08
1.52271e-07
1.68802e-09
6.12636e-09
0
1.74623e-10
0
0
6.64571e-07
2.18692e-06
3.70783e-08
1.26689e-07
1.70257e-09
6.12636e-09
0
1.89175e-10
0
0
0
0
0.000134952
6.86408e-06
2.86833e-07
5.05622e-06
2.69589e-07
1.19908e-08
1.68511e-07
9.40054e-09
3.7835e-10
3.43954
0.00630805
0.0162712
0.0043633
0.000230884
0.000834756
0.000173062
8.46754e-06
2.60056e-05
0.233377
0.00163038
7.03785e-05
1882.93
0.0143767
0.00105624
3755.35
0.12138
0.00144054
1.05065e-08
2.76486e-10
0
4.36557e-10
0
0
0
0
0
0.0228545
0.00152771
4.55419e-05
44.0257
0.0083719
0.00029379
0.0028317
0.000137422
5.59354e-06
2.09708e-07
7.36327e-09
1.45519e-10
0.000104711
5.62279e-06
2.61804e-07
1.08703e-08
3.20142e-10
0
3.55864e-06
2.1403e-07
1.08121e-08
4.22006e-10
0
0
0.0261795
0.0014736
5.17486e-05
1.98321e-06
7.24976e-08
2.2701e-09
0.00158959
6.72599e-05