/*--------------------------------*- C++ -*----------------------------------*\
  =========                 |
  \\      /  F ield         | OpenFOAM: The Open Source CFD Toolbox
   \\    /   O peration     | Website:  https://openfoam.org
    \\  /    A nd           | Version:  9
     \\/     M anipulation  |
\*---------------------------------------------------------------------------*/
FoamFile
{
    format      ascii;
    class       volScalarField;
    location    "0.00235";
    object      p;
}
// * * * * * * * * * * * * * * * * * * * * * * * * * * * * * * * * * * * * * //

dimensions      [1 -1 -2 0 0 0 0];

internalField   nonuniform List<scalar> 
19519
(
146934
158132
148779
118826
119182
165952
146797
143218
165674
259084
162165
101971
384154
382095
289850
289472
367811
261096
318611
304206
216531
225059
259370
236754
247223
213466
493236
508353
351544
388980
475007
528276
357630
511232
389270
494071
375334
529365
366900
515528
449386
433207
382705
344868
496443
352193
382683
370953
309507
213193
323996
270040
363226
272451
160844
184102
263419
195669
194858
176630
208014
162462
202215
188518
207063
186756
194363
166417
241966
361126
292261
195416
197270
226203
259954
185230
204972
242959
172854
47910
198785
57827.4
289299
81061.8
412212
197894
245514
338264
41745
139331
180307
47347.9
166233
160288
54362.6
165899
51226.9
187538
233518
69194.8
217793
174247
71684.2
188809
79138.7
279184
387069
153969
357245
295306
164843
358059
489101
286794
191879
294885
257507
245681
192117
247254
217695
132875
108413
84664.4
70771.7
49423.6
86979.1
72738.5
105446
126937
99057.7
81041.9
61327.2
120531
104911
84858.7
224948
138839
122092
98002.8
180753
165699
155806
252839
287211
241526
215583
293543
287587
223807
271021
248291
301409
307167
306409
296085
119683
321227
277187
126638
130259
70355.1
42863.8
132170
72242.3
124792
129051
44516.5
139484
79695.1
134985
74929.5
132993
111108
51149.4
94299.4
78205.9
89546
74653.3
115944
145076
145890
85949.8
56344.5
138076
154449
93697.3
155009
62260.5
180698
114103
166058
102710
168928
136983
66017.6
122869
102071
112766
90743.2
153949
218211
200357
130895
95399.6
188818
228651
155937
257678
120270
318362
233425
268921
190083
300557
273209
126508
256391
231717
207727
197985
301284
604024
572561
510840
456064
611106
550728
493882
697456
522061
635615
564899
516749
374097
333857
353909
460189
425535
405947
650880
491175
535656
569192
337211
361309
275235
223534
332982
379047
299456
321409
236828
351820
285032
363911
293053
315170
203736
218857
241944
164565
267727
193802
158860
355474
250298
288207
379152
296327
325671
315651
169567
101897
133103
314189
108371
130492
101363
307894
280326
324985
277920
283380
308650
251760
101298
366851
102166
283676
285775
290811
345496
373551
402257
434515
198833
366521
180095
175165
198939
206688
175065
220513
214745
422148
391969
321635
283915
391945
321162
419654
427761
283728
399827
321121
394344
320461
436753
460723
407392
324140
302142
447226
419932
331928
477182
320693
454272
358356
436446
343976
488295
462825
461350
375632
398757
483312
453522
391843
412625
410419
352979
370333
424119
391969
327082
166320
263317
322980
301189
235603
186895
252074
134225
228152
122933
178440
139497
195489
129709
317010
346221
498709
371144
397139
264227
446122
239092
276535
161297
230981
196853
339756
187443
179451
150538
190529
190069
163739
170941
207559
153905
186384
182325
165460
165307
168230
183424
261669
223523
218310
366762
247461
266609
263878
163992
101858
190163
101429
205032
101301
104041
101298
235982
101350
101298
101298
135749
187619
154567
193657
127485
114581
131642
110771
169030
223037
240619
304113
133728
105221
256982
334165
167101
215473
127480
109555
102575
101859
218997
102285
151690
101830
224429
135253
222080
179574
230862
127528
212686
258711
113006
179280
215320
263758
125917
123209
147647
104878
101439
110100
103134
101592
101305
101389
101322
101299
101417
101305
101299
101298
103685
101889
101330
102316
101307
132315
105514
148503
138295
107303
151791
129522
135695
144049
114651
168676
110004
157659
141673
123252
118971
155704
127918
118404
155563
124411
121193
129316
116246
153574
117639
155079
118214
160896
119945
184426
189299
149205
128540
206697
179706
214231
167777
260863
143151
233472
209237
110610
114076
149574
134691
114521
111656
142391
285537
203413
278084
252043
250330
240081
275040
297706
218473
241555
175691
258198
240330
272878
158600
200624
125645
110513
216793
158457
108734
123996
104763
112554
102136
128994
103843
109096
179185
217242
161575
244828
177066
260361
153822
112252
110740
102961
101865
117098
107282
102339
181726
185960
166354
184841
187496
206126
204366
214463
195468
201968
228314
192342
220112
219295
238344
133422
173243
198511
112324
117071
152725
103795
101569
102245
102072
101390
101372
101539
212681
150571
216957
126606
126342
108410
160473
101300
101298
101298
101299
101298
101298
101298
102067
101305
101305
101298
171281
201560
193981
191023
190343
209714
214881
211886
246820
162673
240690
182951
213887
193382
132669
110742
102176
140137
104450
105101
102203
101639
101378
101309
101553
101330
101321
101306
107214
101550
101513
103908
103686
101995
101364
106859
101304
101302
101672
104850
101302
101301
102383
101300
101299
101323
101310
101299
101299
101300
101298
101298
101299
101299
101298
101298
101298
101298
101298
101298
101298
101298
101298
101298
101298
101298
101298
101299
116025
104516
234111
101323
131893
293156
103403
101531
108444
101360
195856
365608
243848
285541
289909
249901
103202
101314
101298
101301
101586
101301
193232
207056
101464
289007
169983
189529
101357
124401
145007
101323
203997
103896
108061
101301
101434
101335
101299
101658
101300
101300
101298
101299
101299
101298
101300
101298
101298
101298
101298
101501
101317
101299
101299
101299
101298
101298
101298
101298
101298
101298
101298
101298
101298
101298
101298
101298
101298
101298
101298
101298
101298
101298
101298
101298
101300
101299
101298
101298
101298
101298
101298
101298
101298
101298
241843
203878
211140
234440
227168
243845
297255
286239
243537
101298
101298
101298
101298
101298
101298
101298
101298
101298
101298
101298
101298
101298
101298
101298
101298
234494
101357
101343
110461
323378
101494
231908
102518
101300
101300
101298
176273
183221
261711
313210
415202
506090
170648
104044
101454
101299
223100
343794
157790
188553
245698
201758
259635
292335
255012
321848
386759
277836
352513
462260
402698
291959
284312
273974
293342
278708
299696
287300
283645
267732
270933
280080
313687
317057
359153
340873
323512
308676
346383
304250
329909
299897
335173
463247
410211
387710
470644
393961
479804
455305
452443
376014
381965
444604
239910
266665
389131
714427
262542
201728
255759
212332
220570
340519
281240
318876
657266
484143
492333
225924
222548
240060
242946
225941
243209
222918
260944
250894
264320
282359
247860
266678
277424
410469
369340
373460
454995
351199
432189
437797
736246
653731
805865
714892
722428
644369
849055
389507
338405
203634
205332
182014
203908
208552
185046
200181
221327
235297
239507
217342
196810
174824
178129
193375
230512
247516
239510
255252
230889
247820
238257
208129
206650
221502
195357
213158
188572
215876
225927
251340
244231
233210
201276
187638
181859
208189
239367
232593
204479
233262
226062
247990
216523
252341
258998
241267
270591
226688
195190
216312
204844
280794
305947
323230
328794
289946
298003
309761
258236
253074
301189
256465
270271
233478
284388
269794
317811
289176
296252
242251
238823
218943
265108
372094
342903
287512
369352
320712
399972
330735
395270
361468
336131
426502
348905
267045
298917
307901
496501
544681
614297
665607
517218
530948
617935
446233
434715
551687
467246
476985
392008
544232
482251
666004
522462
608565
422431
444605
366953
525536
846236
851999
754724
987513
644281
647670
410027
605702
562341
772238
494906
800567
829704
967866
682953
346785
500681
302034
268981
427225
316245
350213
287702
286926
291458
307687
300167
244107
267042
304680
372360
449572
558157
561342
259402
278240
291677
242201
283140
251031
259444
331044
371061
461359
282106
376824
381147
278105
287671
407327
389052
300473
338698
427472
315923
452359
367177
481137
449402
260048
305636
227064
244305
307731
229709
256469
264096
246084
316308
240918
310157
233166
272864
301922
323694
251375
274413
283872
338690
267341
329422
297991
396681
327928
363969
292279
365587
434097
425848
373493
414682
402221
444592
427154
452155
452760
411586
509179
443273
481685
442176
101354
101298
101298
101298
101298
101501
101316
101320
101302
101298
101298
101298
101298
101298
101298
101298
101298
101298
162431
260448
83898.3
237511
110162
101315
101301
101298
101298
181532
279229
103730
273058
106794
101302
101298
101298
101298
315929
401474
161381
266777
102137
101298
101298
101298
101298
584576
768916
478554
102570
101301
101298
101298
101298
101298
206628
351448
115349
292767
101298
101342
101298
101298
101361
342733
101298
102043
101298
101298
307981
260529
312500
284824
251632
72490.1
168646
261635
75504.9
252992
270499
267424
145303
90718.1
156902
130065
209522
106844
248549
127496
202469
104260
101508
102144
101356
108078
101417
101735
101309
327612
371930
269210
81128.3
207380
340163
91515.3
351135
183871
122392
238037
125308
171501
103186
292933
113286
110802
101513
101376
101570
101304
102938
101307
101326
101301
441772
504340
509030
390541
207007
487767
652234
314097
683389
686408
335971
276790
397436
108827
102038
101372
132871
101592
101321
101299
101301
101307
101299
101319
101298
101299
101298
385746
480423
274676
278122
718291
512810
409078
476284
459494
763451
559661
565815
249272
319873
101634
101350
101299
101299
101300
101299
101298
101298
101298
101298
101298
101300
101308
101298
101298
276788
101397
101693
101493
109386
101298
101302
254669
101953
103337
117183
165935
101305
101894
230195
236941
270636
189318
430055
101548
231212
101298
101331
101298
140567
145794
127997
261351
166925
243727
138629
269217
178961
164622
228966
161131
379261
208107
319087
197018
404728
266216
324527
497912
313871
423104
361635
513451
515901
334995
415252
514653
251695
440592
101717
196827
102592
119152
101299
101398
258464
264040
248952
261985
265722
251700
255366
86618.9
57950.3
59698.1
49840.8
29057.5
29827.2
48528.2
102436
102844
109667
109692
102739
109119
102525
287916
284311
267472
293719
275694
299243
278123
74271.3
111856
81008
64428.3
37100.9
60183.8
40259
101653
102083
105555
105322
101851
101837
104234
457637
409492
371175
472205
387916
480256
437824
203147
124352
156939
118990
61803.6
91701
80748.1
101310
101376
101713
101633
101336
101325
101438
1.02005e+06
795547
877620
780006
905313
812078
989616
422682
412078
452324
347143
258852
332557
338295
101298
101298
101299
101299
101298
101298
101298
103278
301792
202864
324584
436620
406327
173756
300330
465392
445989
420913
333117
214576
353491
174230
290634
170496
323231
184132
334224
155584
101298
101298
101299
101323
101298
101299
101298
101398
101298
101298
101299
101302
101298
101298
222155
242876
235599
253330
244519
238323
219942
73659.7
118822
120617
151632
53142.4
53778.5
149974
206587
221427
222923
204385
225921
256742
252829
248716
247833
242636
231504
123911
77999.6
129056
153218
56355
54745.6
156105
209785
230102
225593
215176
259570
261561
250735
255459
263558
253832
256467
247876
234514
237190
244438
252121
243796
248045
248224
262468
265168
275028
261357
268902
255649
268528
263721
259675
274416
265266
267327
258065
270546
252621
247297
241490
258765
257133
260300
253170
263860
149839
116042
119968
82857.5
116049
119576
79489.2
63022.9
96780.8
68281.4
52340.7
34108.1
31460.8
56149.3
125458
168374
133915
86881.1
136209
125991
93596.3
181203
137638
140920
129425
138660
139520
180742
182497
128773
145095
133183
141326
137072
183584
101456
101534
101445
101490
101516
101432
101470
102277
109041
102341
106925
102568
108170
102071
101430
101457
101443
101376
101484
101407
101397
247969
260934
255253
282338
238225
274778
264467
135398
84840.6
144069
166683
58071.6
160267
59331.1
230335
234711
221486
241957
264154
304866
331655
306793
297879
281031
289048
157163
177527
102585
175568
66601.4
61892.7
189230
243550
276935
255334
263755
276260
252632
264788
261622
308783
316725
358260
326597
322904
297012
340711
295970
304947
277914
326523
143736
206130
156166
108704
149918
100495
169686
90113.1
137430
103674
69771.4
50859.9
44404.4
77763.3
282242
172868
197318
119935
240105
198797
137680
178575
149117
127908
121941
182898
153368
121723
168823
117776
156156
109607
156451
115366
153270
101338
101399
101347
101343
101365
101362
101325
101498
103995
101476
102253
101630
103104
101395
101319
101320
101315
101303
101333
101311
101307
382271
378138
346987
459098
326100
439812
408042
250326
120639
151036
250399
75242.6
212007
90639.2
347646
313508
296058
373549
466829
547613
609379
638443
517942
500301
590691
405982
201334
280376
311113
174060
120331
408635
428916
626556
469787
558781
444746
348657
373392
417257
560420
566232
702500
686743
576096
537150
712215
564945
563815
701284
698129
575091
553818
714075
552894
693123
523510
722483
558509
703530
547111
722924
384892
237151
303454
221954
292220
168852
339308
209315
297208
381340
171253
170183
113679
253645
342831
385208
432884
296253
300799
352534
354968
115680
150591
105343
104981
133504
136640
102819
105603
102566
105479
101388
117434
101721
102237
101299
101304
101300
101299
101301
101300
101299
101301
101394
101299
101305
101305
101335
101299
101298
101298
101298
101298
101298
101298
101298
801405
660318
809788
722244
736373
651226
900168
588808
500618
392477
679945
261483
552325
366409
977358
864203
757658
1.12454e+06
766688
647918
409545
740473
564187
871155
645651
533562
593971
531184
735958
432038
443544
700754
1.09166e+06
1.19513e+06
1.24754e+06
1.05323e+06
997396
791587
866554
772704
897603
807241
941304
1.23596e+06
942743
968969
1.2239e+06
1.19233e+06
920290
957622
1.10817e+06
999905
725170
608560
834170
766416
970343
856349
965410
719332
608529
725855
762093
888103
815643
1.3443e+06
1.29828e+06
1.35337e+06
1.26505e+06
1.2665e+06
1.00401e+06
1.13555e+06
1.16231e+06
118729
211293
391461
232431
194452
334666
119669
442741
150408
283645
265634
304614
358015
163103
105567
129860
103556
134850
101837
104237
107687
101323
102023
101313
101306
101458
101411
101300
101301
101299
101301
101298
101316
101298
101299
101298
101298
101298
101298
101298
101298
101298
101298
101298
101302
101298
101298
101298
101299
101298
101299
101305
101300
101298
101298
101299
118050
251362
152565
289144
132638
234257
136484
102526
106469
101498
101482
104047
103983
101382
191374
275033
196452
311889
192647
328047
202535
108317
109271
102306
101627
112656
105858
101846
111752
121516
102800
102555
117009
115541
102178
102324
101387
101298
101753
101298
101298
101326
101298
101298
101298
101298
101298
236509
101421
101298
102279
101298
101859
101936
101690
101449
101372
130282
101501
102725
121461
101299
102462
101299
102253
101299
101400
101592
101298
101301
101311
101314
101298
101298
103705
176015
102040
105920
106787
102127
102243
106425
102058
106286
102712
104129
101617
101587
103533
103292
101485
101341
101583
101312
101307
101434
101396
101302
101298
101301
101298
101298
101299
101299
101298
197490
222738
195903
293919
187936
275378
206683
101384
101299
101298
101303
101302
101298
101298
105274
102108
105038
101777
105857
101934
104433
102073
101458
101959
101338
102543
101392
101656
106935
134017
106269
119980
109027
132092
104176
101701
103852
110000
111117
102497
102304
104408
101311
101300
101306
101298
101326
101299
101301
101415
104613
101389
101562
101609
102217
101331
101301
101326
101381
101398
101308
101308
101325
101298
101299
101311
101301
101299
101298
101301
101299
101333
101308
101302
101302
101307
101300
116739
124657
103546
102814
122583
118202
102729
766532
399661
444771
681890
392274
472143
531184
828692
448005
478386
803027
470965
560627
572291
387139
606083
349030
401376
718362
432797
509406
241038
184329
189999
217982
163267
167423
215567
101309
103622
103084
102063
101300
101677
101300
101298
101298
101300
101422
101299
101357
101299
285420
240367
266332
248773
208365
240655
229064
101630
101299
101992
101528
101299
101320
101299
101299
101298
101298
101332
101298
101301
101298
204777
341567
335991
163427
288960
211933
278889
101302
101298
101300
101305
101298
101299
101298
101298
101298
101298
101298
101298
101298
101298
101387
102016
111540
101395
110134
101943
102655
101298
101298
101298
101298
101298
101298
101298
101298
101298
101298
101298
101298
101298
101298
185781
102521
109489
106434
252743
122633
163559
101371
101301
101320
101303
101337
101300
101299
101299
111783
101455
262193
108421
103036
101302
157778
101731
124497
308100
115244
104993
101305
101298
101300
101298
101979
101299
101299
101298
101303
101362
101298
102669
101299
101299
101298
200587
260079
217916
223469
190601
176523
231477
290870
294677
322975
249897
276910
253216
238979
106574
278972
169715
120450
152326
229637
105275
101323
101464
101309
101313
101336
101514
101301
101306
101348
101949
101681
101423
102979
101325
228647
266689
278797
373656
161109
386537
140084
110446
307374
327971
425689
111450
410208
102505
101303
282449
124814
245353
101360
105610
101300
101299
101298
101925
101331
101298
101299
101298
101299
101575
101317
101319
101299
101299
101298
101298
101298
101298
101298
101298
101298
101298
346523
425130
417203
539848
321011
406532
319313
101298
101302
101307
101299
101300
101298
101298
101311
101300
101310
101299
101303
101298
101299
101305
101311
101466
101415
101306
101365
101303
101299
101299
101358
101521
101302
101448
101301
101317
101298
101300
101351
101300
101309
101299
101298
101298
101298
101300
101298
101299
101298
101298
101298
101298
101298
101298
101298
101298
101307
101314
101500
101493
101314
101418
101307
101305
101307
101299
101444
101305
101346
101310
101387
101305
101302
101298
288426
313317
273644
245171
212957
366239
287627
267232
283424
312258
276936
294187
297038
332311
371056
304287
311286
433211
390715
322243
250548
468440
438047
245338
395224
596688
237048
238924
254300
209383
594807
125251
277425
242443
244850
125210
280937
291387
233248
242229
415602
480373
276264
318019
506836
399518
395115
464384
194790
162427
321399
253109
280989
276097
281414
359922
328140
332502
353491
271145
313493
322514
295133
266859
270514
287226
298156
290067
300488
368795
346670
338621
381307
333758
350744
286620
306266
284227
276015
322573
324340
320175
310214
418105
358102
395883
378135
398941
301281
323186
365643
296509
341056
316066
329212
302149
320264
440554
410485
401072
442871
462159
353230
387779
395923
376168
343637
424924
266110
284162
272839
391373
402143
424237
378237
450677
419908
445645
430447
411003
438592
452248
243619
259042
259650
352394
303283
339451
321140
303799
463465
451032
396746
502338
492491
328420
249558
264248
262739
279935
282552
300716
268002
145758
395572
300025
164194
461708
239560
359765
131095
219090
201271
126272
198878
247087
122779
285177
360467
367679
377742
393860
301877
445261
317198
339097
506206
367976
399976
474853
429747
448246
288446
450069
421512
159639
349361
262634
179940
227971
235816
218407
236195
257676
317852
314667
280146
285099
317825
282585
314516
324223
288715
329509
293129
322665
286949
333777
369024
341323
303674
322984
347511
361207
322406
396698
351634
422989
387350
389282
350549
425812
464608
453554
431278
491853
451395
476891
481448
456968
550602
457558
559834
484467
532425
416708
266166
390099
539631
515317
339569
315588
449230
220347
376983
231256
246128
258807
322866
103886
157776
101298
101298
101298
101298
101298
101298
101298
101298
101298
101298
101298
101298
101298
101298
101298
101298
101298
101298
101298
101298
101298
101298
101298
101298
101298
101298
101298
101298
101298
101298
101298
101298
101298
101298
101298
101298
101298
101298
101298
101298
101298
101298
101298
101298
101298
101298
101298
101298
101298
101298
101298
101298
101298
101298
101298
101298
101298
101298
101298
101298
101298
101298
101298
101298
101298
101298
101298
101298
101298
101298
101298
101298
101298
101298
101298
101298
101298
101298
101298
101298
101298
101298
101298
101298
101298
101298
101298
101298
101298
101298
101298
101298
101298
101298
101298
101298
101298
101298
101298
101298
101298
101298
101298
101298
101298
107872
203003
177972
235989
245357
216707
190013
247091
293896
274815
354123
333982
136743
154255
221622
129639
191691
202915
137894
250070
237663
256418
254291
231845
250790
233082
241181
234789
261492
313527
372126
101757
168134
377290
281586
384032
112424
202368
213893
193711
207105
212987
215456
196579
223762
248891
231814
279190
224872
211756
169101
251339
225469
219716
229510
261781
202270
234640
250922
246812
312162
253026
294153
274848
313111
306307
102442
246117
282331
312411
267667
277584
310635
306784
452108
368697
239360
268629
271701
351161
354045
361354
292487
380827
403254
430080
333466
351301
452733
350491
505569
395926
307455
419586
337307
413402
516581
413199
500859
244332
311520
270389
391440
370153
341646
274519
266917
271354
275171
279389
272343
267644
285290
312448
304262
318185
295239
297442
299654
280859
276990
286596
283460
289116
287527
277655
290273
284957
282399
294973
298212
313686
315749
301112
356211
333732
313520
344327
370323
318632
130072
106667
106115
274926
189714
204717
131892
244106
216371
212355
101298
101298
101298
101298
417332
317493
321634
411507
425800
337104
327168
442012
493946
349994
464362
368505
530727
426841
394723
556821
479444
454457
542621
459130
368150
378423
437753
259524
202915
301571
214013
252826
204325
239787
237585
212751
101298
101298
101298
101298
101298
101298
101298
101298
101298
101298
101298
101298
101298
101298
101298
101298
101298
266704
272609
288996
101298
101298
101298
101298
101298
101298
101298
101298
101298
101298
101298
101298
101298
101298
101298
101298
289135
292758
295821
301768
318075
306178
320088
298253
298965
325216
307266
312482
324398
336835
300033
277216
388116
374410
389552
400586
289408
310152
365168
344602
318419
317612
356837
376905
258597
262649
248086
228165
232467
250206
246377
288697
292078
292932
322124
324101
328303
331009
299918
306629
302027
326140
328543
334389
339035
275578
394422
382052
277922
305752
391744
401010
252605
274267
260577
237539
246512
263647
254611
277197
280549
263986
295569
297609
273116
275668
306198
316290
325590
334008
347952
348051
365330
297268
285423
272137
290122
259060
277491
276916
325789
320122
332115
368694
387170
388251
404645
333803
327240
364894
317413
356457
304538
342138
268180
301320
291864
275644
307256
286141
279507
309469
283871
313736
315560
285156
281185
283008
242671
354693
350901
251149
384529
392776
259952
303199
286742
317300
334667
313543
296480
304309
349392
361629
397913
379092
340039
331146
370101
305019
261549
293259
399068
403559
409250
400825
412198
403491
440286
469076
407431
390923
449503
317755
291961
318851
288108
324696
293906
286046
354145
249372
390322
236581
248570
392850
353129
271091
312811
438524
175283
414436
433401
279673
449029
477453
384124
439368
258763
402896
206867
470746
552635
359312
417237
554542
363014
466720
479185
422851
576354
378322
562104
368596
494687
553483
595857
390281
470750
519932
610466
410177
588997
488300
521006
467123
591295
439027
586381
405807
412151
471640
383375
521205
317194
444400
304014
318663
220304
322629
260114
389814
254592
199086
184014
265238
165773
225666
152644
224287
123279
109226
180530
137243
127074
185907
132264
199096
177369
367370
121580
101390
101298
101298
101298
101298
194489
202081
333580
106884
101440
284392
197787
286592
291862
223354
244942
183417
187529
102256
101517
101799
101322
101302
101337
101461
278884
291554
286020
287529
309752
199624
295830
122160
120392
102442
134424
101305
102584
101300
101381
101300
101299
101299
101304
101299
101299
101298
101298
101298
101298
101298
101299
101298
101298
101298
101298
101298
101298
101298
101298
101298
101298
101298
101355
101298
101298
101298
101298
101298
101298
101298
101298
101298
101298
101298
101298
101298
101298
101298
101298
101298
101298
101298
101298
101298
101298
101298
101298
101298
101298
101298
101298
101298
101298
101298
101298
101298
101298
101298
101298
101298
101298
101298
101298
101298
101298
101298
101298
101298
101298
101298
101298
101298
101298
101298
101298
101298
101298
101298
101298
101298
101298
101298
101298
101298
101298
101298
101298
101298
101301
101298
101298
101298
101298
101298
101298
101298
101298
101298
101298
101298
103181
101298
101298
105053
101298
101298
101298
101298
101298
101298
101298
101298
101298
101298
101298
101298
101298
101298
101342
101298
101298
101298
101298
101298
101298
101298
101298
101298
101298
101298
101298
101298
101298
101298
101298
101298
101298
101298
101298
101298
101298
101298
101298
101298
101298
101298
101298
101298
101298
101298
101298
101298
101298
101298
101298
101298
101298
101298
101298
101298
101298
101298
101298
170883
212389
213682
172086
172988
238499
238035
425993
435834
470888
484912
495217
431437
421893
245878
240160
242279
387313
342523
370481
322759
236645
247439
305368
309915
277839
264277
232063
345011
319192
301963
335976
355415
304274
322457
406392
385787
346134
383171
416999
350605
390598
175382
215098
219390
174017
237012
176348
238369
476200
493797
483182
470836
592066
539911
515074
475092
500612
438048
450483
481529
441508
500062
250713
312296
282032
247299
239416
278711
308338
495577
501957
616174
558194
568845
514992
629481
187791
226464
238033
180241
242979
251135
187221
240740
247378
244819
272368
268749
298840
287573
214300
255221
277264
261895
274322
197785
211653
101933
180937
101298
101298
101298
101298
101298
101298
101298
101298
101298
101298
101298
101298
101298
101298
101298
101298
101298
101298
101298
101298
101298
101298
101298
101298
101298
101298
101298
101298
101298
101298
101298
101298
378626
382044
219483
219401
439928
465508
351152
378448
467721
350280
436610
447137
380024
487782
350616
475230
349968
459941
253844
304104
318767
212043
401612
294349
403536
267761
304768
217179
288897
253890
298916
206754
290533
402448
250596
339592
180267
288350
224179
294472
299201
238539
257289
259707
316851
149286
217785
107366
169015
328610
210719
256771
113860
235646
116146
190730
119868
102870
103629
496379
519033
403175
400426
517639
398931
504397
399844
296242
356323
289713
287972
351374
410672
486338
401809
525738
383936
521611
394475
466170
382139
281131
253101
329344
273342
343189
353817
377787
522813
364433
391675
431834
496491
337962
278423
229358
309601
231312
316660
206612
287355
319373
367761
372068
291373
440182
312061
274379
247305
208653
164107
245660
186036
266300
222119
214253
308222
269785
291190
241774
259068
241809
171162
141015
219208
125140
197450
122130
185583
189260
256093
193634
180609
221424
209694
168531
147313
112630
107033
133562
111714
154020
130803
146321
176410
161216
179862
154230
170352
151104
102896
102762
108429
123589
210603
187553
101738
236809
219307
146058
186703
178018
173848
175190
152095
150749
104178
207357
195495
214453
196439
196268
205638
248006
182058
205376
221328
105161
140224
104733
106978
182297
230814
115598
105079
122101
104918
120789
105054
116349
118873
112322
125681
146354
111400
120555
129804
163247
191430
170807
185407
207508
170833
193465
208520
115231
148661
282586
278676
101299
101298
101298
101298
101365
101308
101299
101298
101322
101298
219219
287731
288799
188643
188711
267432
266052
570078
512299
504582
499480
563216
619140
630258
257148
304528
339308
291407
316425
230385
258257
443757
464194
393598
368928
518360
563448
601303
164766
205404
208370
223950
225989
194769
192515
408514
405953
599489
631006
483333
647012
618791
251325
253363
267086
248357
250302
256504
266216
287318
263327
264204
188651
220430
189947
286990
350356
371783
231372
265755
243735
358811
268254
213237
174360
221098
229712
235684
198305
203847
174331
160834
163600
176050
140982
112739
115378
335367
383027
414417
348426
371096
298405
339251
246342
241187
247309
251460
260882
243764
256156
288029
263940
220981
192233
223094
266943
196422
217646
239683
224069
213262
222654
221533
209050
354784
470318
441402
581035
632291
647668
611924
236906
174904
171959
162526
165155
212369
215870
333821
283762
314363
224883
284319
414706
466292
253799
311832
312475
278955
330552
328879
280071
177879
142981
182452
147279
171555
125165
118906
231943
191578
247436
244946
259034
220807
211169
290130
234271
227206
273068
280686
204040
215440
179277
250754
186116
168881
221475
174517
230165
366994
328957
283023
377330
328513
503911
514547
228610
224409
235389
228932
237348
241531
245553
311925
254327
311982
277555
321458
326883
274563
298027
288856
252785
291027
309923
232233
258368
105658
101298
101298
101447
200264
358898
101307
101298
101298
144158
173152
139658
111047
115843
156997
144055
138803
162095
417941
364423
319212
358441
342261
381374
398664
269897
231308
300822
280110
310430
235261
257126
238487
231636
231771
247489
246371
237080
242129
223008
193101
200289
211889
220066
236945
248470
153237
176327
194782
182262
160958
131571
139380
360602
313461
257354
290289
324479
446160
492546
137380
118784
122141
123313
125610
91890.8
94018.7
261890
195462
208266
182202
241834
193250
257348
232051
219595
226913
255941
243071
228857
234515
163550
165621
162305
133456
136839
123474
126651
274635
208587
204894
261334
257605
320512
317153
204573
205933
218008
232623
233988
249014
248564
390019
266316
340153
352864
410310
340180
289878
153822
127963
137141
129582
135569
97629.6
103130
309820
251599
249083
274109
313091
272393
304415
325819
334058
324310
333667
339662
297484
330090
222759
222127
248913
197303
212580
190246
182149
257138
230768
256171
240817
278154
249179
265707
178806
201022
175829
177263
159921
201296
178890
214342
267349
287997
223672
276626
326045
335284
218951
234901
222083
209040
237288
249539
250636
101298
101298
101298
352289
220008
216477
103970
254584
128010
161022
131990
94739.5
98993.3
115943
74169.1
80100.1
110748