/*--------------------------------*- C++ -*----------------------------------*\
  =========                 |
  \\      /  F ield         | OpenFOAM: The Open Source CFD Toolbox
   \\    /   O peration     | Website:  https://openfoam.org
    \\  /    A nd           | Version:  9
     \\/     M anipulation  |
\*---------------------------------------------------------------------------*/
FoamFile
{
    format      ascii;
    class       surfaceScalarField;
    location    "0.00235";
    object      phi;
}
// * * * * * * * * * * * * * * * * * * * * * * * * * * * * * * * * * * * * * //

dimensions      [0 3 -1 0 0 0 0];

internalField   nonuniform List<scalar> 
57211
(
0.167014
-1.03462
-0.257801
0.948764
1.0174
-0.797098
1.77401
0.74753
-1.02419
-1.67643
0.968757
-0.306679
0.959951
0.210908
-0.791579
-1.01208
-1.011
0.274002
1.00525
-0.149347
0.43615
-0.308328
-0.991509
-0.255496
1.02201
1.5037
0.249532
-0.920862
-0.999709
0.171534
0.982336
1.01918
0.906751
-0.811254
1.64154
1.02645
0.188326
1.30353
-0.23206
-2.69041
-1.9084
0.35435
2.13395
0.371573
0.152254
0.244017
-1.92833
-1.20333
-0.177484
0.00363043
-0.0170563
0.00148916
-0.0494985
-0.00119887
0.00370855
-0.366573
-6.06883
1.49589
-1.18494
5.59105
1.20497
-0.485681
1.9343
-1.89685
0.867465
-5.32531
4.43226
-0.662772
6.08251
-1.24882
0.957684
-7.0681
1.48545
4.99608
-1.66403
0.0767236
-6.09232
1.8091
1.09138
-4.99246
1.89813
4.04307
-1.0425
-0.774599
1.11642
-1.51436
0.396654
-3.48229
2.71849
1.26417
4.51501
-1.96926
-0.425941
-5.32507
2.00289
3.66884
-1.91867
-0.254111
-4.61895
1.59009
0.16317
-2.78842
0.751361
2.29593
-0.388053
-0.397189
0.042625
-0.650243
-1.82643
1.74698
0.748519
2.90101
-0.288822
-1.43488
-3.83116
0.97861
0.894473
2.00946
-1.0642
-0.642734
-2.6453
0.351606
1.24747
-1.63109
-1.62898
-0.177588
1.57648
1.87479
-0.351541
-1.07406
-2.06206
0.782677
1.15542
2.77611
-1.71295
5.43462
-0.0196397
2.21976
-5.60236
-5.53613
1.71351
-1.28793
5.35479
-0.328819
1.53545
-6.41773
-1.18152
1.14703
0.0374515
-5.89052
1.75595
5.32897
-5.72909
-1.24222
2.06385
5.15321
1.90156
-6.2152
0.714587
5.2912
-0.387699
2.64872
-5.46398
0.491432
-5.63571
4.91038
0.0971724
-2.20544
-5.02054
2.19458
4.28198
-2.228
0.854426
2.51096
-5.85838
-0.251016
4.80704
-6.00306
0.255468
2.97165
-5.34839
-3.10922
4.15543
-1.31811
3.09539
-5.04942
-4.67875
2.00797
3.59933
1.18453
2.74554
-5.70956
-0.783831
1.24024
-4.60901
1.78471
3.65236
-5.23606
1.65298
2.96472
2.81893
-5.51277
-1.31057
3.38589
-1.52093
2.77122
-4.74079
0.853864
-4.11664
3.20219
-1.10784
-1.21295
-2.57501
0.859271
2.09254
-2.73754
1.01984
2.3555
-4.61398
-1.28622
2.47603
-5.15275
-1.53278
2.02208
-3.99693
-1.26127
1.67382
0.112653
0.704871
-1.88239
-2.00845
0.614062
1.81588
0.302858
1.62027
-3.7902
-0.794516
0.0372268
-2.25038
0.433186
1.99707
-0.0932098
-2.8843
0.34742
1.62414
0.916893
-2.74386
-0.261818
1.57019
0.390067
0.0541374
-1.42988
-0.159821
-1.99083
1.85439
0.20047
0.194942
-1.50643
-0.399137
1.50097
-0.259806
-0.752139
-0.111918
-1.60947
0.76055
1.55753
-2.0132
0.264345
-0.142132
-1.21523
-2.95893
-1.86997
-0.538029
3.2432
0.618764
2.71398
-3.13032
3.06758
-3.09837
-0.392609
3.28974
0.530262
-0.814407
-1.28706
-3.16323
0.832061
1.96202
3.63014
0.0545697
1.18149
2.16089
-0.996686
-1.18348
-0.187232
1.23322
-1.35706
0.0180095
-1.29508
1.77691
-2.52645
-1.54022
1.41945
0.30067
2.74799
-0.886544
1.18035
0.253072
-1.35732
0.469986
2.66494
0.589324
-9.01489
-0.264541
0.0222848
9.88225
0.516065
-3.84437
4.6653
1.59929
0.12932
0.205209
-8.02718
-1.03482
0.777937
8.80324
1.21623
-0.330883
-3.73806
3.84074
2.27316
0.520854
-0.0311712
-6.47966
-2.20075
1.16428
6.67167
2.68238
-1.09858
-3.56258
3.04443
2.97052
1.32533
-3.45621
-5.1112
-0.0787956
0.873407
5.35411
3.42027
-1.90923
-3.85253
2.47692
3.76271
1.81591
-2.48647
-0.599973
2.74971
-1.45016
1.85717
0.92937
0.538215
-3.48397
3.14631
-2.6759
-0.202646
2.40326
-2.99665
9.10926
0.195139
-10.1871
-3.21175
9.43062
0.223145
3.87658
0.35874
-8.79459
-0.749269
0.425836
9.71649
0.900659
3.7896
0.60962
-0.522424
-2.89872
8.57606
3.80311
5.92857
-0.218217
-3.41807
0.325085
-6.96745
3.77556
-3.86444
0.129349
3.73396
-3.75641
-0.254493
4.22309
2.06136
3.73279
-0.145207
0.233014
3.7463
-3.68584
-2.82746
8.03676
0.716034
6.7517
-1.95206
-0.629224
-8.42908
2.91633
0.783313
0.121647
-7.16545
-1.47355
0.890069
7.57196
1.80261
3.56833
1.38848
-1.12467
-2.6
6.181
5.20253
-1.24441
-1.1883
2.28572
-6.17802
1.43778
3.38344
-3.54079
-0.338127
0.533262
3.52839
-3.2203
-0.90948
3.06545
2.71796
3.21271
-3.19151
-0.721198
0.918711
3.27198
-2.88065
-2.4696
5.71105
1.70128
5.00616
-0.897416
-1.72345
2.039
-5.52069
2.0054
-0.151607
-5.67496
-3.21184
1.19913
5.86056
3.75765
2.5291
-2.37208
-2.30316
4.54289
2.8693
-1.93257
-1.93541
-4.24175
1.87669
4.10798
-2.95758
-1.49576
3.59108
-3.11233
1.86891
3.86778
-1.83547
2.71127
3.87784
-1.89825
3.08128
-3.22452
1.68576
3.32094
-4.60779
-1.38717
4.05797
1.32135
-4.0337
5.06434
-2.98164
-2.24619
0.142949
-1.51286
2.53339
2.18748
-2.33116
4.21435
2.49977
1.94163
-1.65999
-1.50283
-3.38577
1.07755
2.56147
-0.140279
-2.3978
1.3293
0.414664
-3.43158
2.90886
3.32407
-1.94096
-2.89719
2.79332
1.76107
0.88228
-1.26335
-0.752972
-2.13303
0.435922
0.718661
-1.22195
1.52872
-2.37032
0.750025
1.52236
-1.27868
1.46935
2.38339
1.03737
-0.381648
0.188671
-1.02232
0.1279
0.188992
-2.2264
-1.24578
-0.115616
0.099871
1.95185
0.810501
0.126835
2.16706
-3.80636
3.70509
0.122923
1.229
0.965998
4.59341
1.70537
-3.86822
0.168123
-3.8262
0.159266
3.6528
0.109271
1.06948
1.87192
0.786092
-0.438963
-2.7423
-1.41096
0.628913
2.4214
1.07916
2.60469
0.489319
-0.309148
-3.83974
3.15577
1.29105
0.454057
-0.2589
1.49706
3.48232
2.47224
-3.66291
0.720546
-0.252817
2.25169
0.951329
-3.78969
0.685181
2.90464
0.63537
1.73064
-1.3362
-3.58045
-1.57696
1.66131
3.76662
1.53858
3.17592
1.31512
-1.06693
-3.57593
2.59823
1.52525
1.25878
-1.0131
2.91308
3.00438
3.35854
-3.57203
1.5905
-1.06585
3.35609
1.35929
-3.53594
1.61446
2.59444
1.53051
3.34895
-1.32248
-3.39117
-0.966857
0.939799
2.02176
1.19452
3.81059
1.84927
-1.95258
-3.83358
2.49172
1.24471
1.2733
-1.55968
2.79597
2.19841
3.44369
-3.76512
1.57547
-1.6458
2.96847
1.52689
-3.62643
1.53128
2.23958
0.965927
2.04912
3.04821
-2.57315
-2.82245
1.24499
-0.846298
2.17411
-3.01512
-1.47901
2.21419
1.94365
3.5976
0.275045
-3.5169
3.74357
-2.32326
0.0299305
2.63237
3.58078
2.21574
-2.20118
0.863107
-3.62589
-0.433151
-2.17803
3.13383
0.869998
-0.453668
1.92531
1.18037
-1.36469
-2.15175
2.58979
-2.68746
2.06819
0.115054
-0.740382
-0.173681
-0.545642
0.0670125
0.100198
-3.45153
-1.34363
-1.3125
3.4299
1.36761
1.60764
-3.0723
1.07181
2.34879
-1.64481
1.4967
-10.3265
3.42966
-0.227805
0.45648
-2.19846
10.1022
0.229663
10.3976
-9.41287
-0.525267
0.191357
-3.41661
8.05763
-3.02397
8.98866
0.374151
0.468862
-9.3155
0.363716
7.9337
-2.16027
-10.2711
3.34745
0.649984
-2.0637
10.0557
-2.98389
8.89703
3.84633
-0.683741
10.0175
0.783562
-9.1144
-0.504132
-3.22365
3.79707
0.586465
7.48505
-9.28972
-0.504549
3.81229
7.83109
0.77316
-1.89123
9.81956
-2.30411
-1.27137
0.16855
2.01013
0.856781
4.51162
1.8324
-0.236889
2.45928
3.40598
-0.171132
1.24267
1.32127
3.60495
1.15556
2.13764
0.8852
-0.864364
-8.97085
3.07318
1.02266
-1.53382
8.76581
9.58618
0.843341
-8.75207
-0.249604
-3.17342
0.7053
6.92926
-2.75216
7.39322
0.899279
-1.70471
9.41219
0.980447
-8.3023
0.888311
6.26437
-8.27647
2.92643
1.25311
-1.36231
8.00625
-2.67556
6.74415
3.59816
-1.20255
7.63912
1.50497
-7.37496
-1.09986
-2.79939
3.63479
1.35567
5.10397
-7.82742
-0.179332
3.70366
5.62752
1.5473
-1.18424
7.30728
-2.83654
-1.48839
0.836588
2.64336
1.17578
3.19823
2.58179
-0.86852
2.96764
2.5863
-0.811208
1.4801
2.44644
2.67558
2.06222
2.84732
1.21953
-1.90007
-6.68723
2.60628
2.30121
-0.941697
6.3205
7.11358
1.88019
-6.96704
-0.0414355
-2.70007
1.66592
4.71431
-2.38996
5.32393
2.05357
-1.03022
6.74912
2.33783
-6.62084
2.00121
4.42739
-6.30913
2.52281
2.66586
-0.899581
5.98782
-2.34637
4.94364
3.62452
-2.82641
5.92261
3.13698
-5.91593
-2.26233
-2.54287
3.78881
2.36215
4.15584
-6.29121
0.0887432
3.60457
4.29044
2.79246
-0.873642
5.6605
-3.89701
-1.53176
1.70926
3.82047
1.66621
2.87965
3.73767
-1.91463
3.95946
2.6583
-1.60631
1.41608
3.29801
2.60232
3.44512
3.63731
1.72625
-3.90409
1.0406
3.90968
-0.661916
3.72314
-3.16461
-1.54287
4.33865
1.47123
-3.9196
-4.24758
-4.508
3.62531
-0.994293
-3.56965
-3.99508
-0.979361
3.73013
0.59577
4.40197
-1.02147
-3.62432
-3.78946
4.12051
0.678452
-3.46505
-0.568531
3.36887
4.49912
-3.54405
4.0258
3.41568
-3.05415
-4.62991
3.30759
5.42972
-3.20201
-3.36996
-3.53054
3.10322
4.88853
0.650632
3.21428
3.44207
-0.273661
-2.56806
-3.19505
-0.616688
-0.330353
3.53408
-3.47049
0.0642943
-1.58007
-1.98802
2.63628
-3.04558
-2.418
0.44387
2.99176
2.77071
-0.32093
-2.8473
-0.200871
3.80009
0.358422
-1.79305
3.17875
3.35886
3.35658
-2.46569
-3.00614
-2.65323
3.44065
3.07418
4.22542
3.47335
-1.78361
-2.67897
-4.95259
2.7493
2.2616
-1.00953
4.59406
5.48612
3.14926
-2.61562
2.31151
3.93485
-2.58657
3.9172
2.2468
-0.896535
5.21729
2.82424
-0.17736
2.01283
3.60063
-4.29
2.79843
1.8699
-1.1497
3.91684
-2.83119
3.37757
3.54232
-2.53757
3.55139
2.35142
-1.09841
-1.68389
-2.66771
2.99522
1.42589
2.60115
-0.459106
3.30124
3.10901
1.61167
-1.68682
3.28555
-2.7624
-0.712708
0.606856
1.06244
0.856195
1.80438
2.9589
-1.23696
2.0183
0.96179
1.50241
-0.637733
0.47868
0.589828
0.405928
1.89181
1.25009
0.428959
0.315546
0.499646
-1.93096
2.62165
2.51686
-1.79549
-3.34541
2.57025
3.91123
-0.98437
-1.28263
-3.34193
1.66316
3.46521
1.83592
2.98814
-1.29878
-1.69554
-3.61231
3.83981
-0.780377
2.15124
1.3875
-0.872725
2.39614
1.88324
-3.01911
2.12269
0.124012
-2.00312
-1.44443
0.420303
-0.039101
0.27863
0.00156092
-0.0283922
0.00284036
-0.0327641
0.00362345
-0.000255821
-1.01474
0.0931214
-1.05512
0.185944
-0.0293651
0.13888
-0.325403
0.705959
-3.60918
2.10002
3.2021
0.0472377
-0.0112404
-0.222434
0.0294904
-0.345726
0.0305062
-1.06269
0.172635
-0.886119
-0.0527846
0.12217
0.0828217
0.000410068
0.000295377
-3.5846e-05
-0.00318569
0.000187494
-0.00360252
-2.76202
2.52935
-2.35439
2.66178
-2.96031
2.21537
1.6279
3.2623
2.00387
-2.269
1.17178
2.52576
2.1354
-3.02232
1.78344
2.80614
1.40389
-2.9495
1.69372
1.82448
1.46604
0.896103
7.71878e-06
6.309e-06
-2.22708e-07
1.54127e-06
-2.66457e-05
-8.54901e-06
-2.19836e-05
-8.94149e-06
-1.93169e-05
-1.1759e-05
-1.84037e-05
-1.16937e-05
-2.90127
-3.29643
0.621632
2.9908
3.23814
-0.409143
0.00470131
-0.021005
-7.46806e-05
-0.0643124
0.000689702
0.00523528
0.697493
6.43338
0.245763
-6.76659
-0.0541084
0.919265
-0.679459
1.13533
6.72613
-6.94305
-0.577027
1.39198
6.70554
1.22426
-6.84078
-0.870996
2.59764
-2.07813
1.72794
6.19294
-6.20711
-1.24311
1.76066
6.0339
3.13714
-6.06435
-1.45133
4.06395
-3.93332
1.60702
5.34925
-5.43735
-1.81162
4.96913
0.609854
-4.83363
4.27125
-4.30254
2.14071
1.67778
-2.51214
-2.72025
-2.10632
0.648234
4.78523
3.87794
-1.35458
0.898943
-1.76152
-1.85154
1.62127
1.12829
-1.38211
-1.96805
1.12247
0.747038
2.05553
-0.462917
-2.057
0.909924
-0.836384
2.53338
-0.893622
3.04721
-2.19123
0.929206
-2.85034
2.02745
-2.58504
-1.34484
1.30206
2.42464
2.19021
-2.98671
0.243559
-0.0790879
-1.89934
3.20223
1.79905
-2.83213
-0.44313
-1.39749
3.09596
0.603769
-5.13015
0.199264
-0.264449
0.512009
5.68581
0.253102
5.03549
-4.96899
0.264872
-0.264625
1.24578
6.29296
0.716444
6.5126
0.457961
-6.82003
-0.0447815
0.479838
-5.02917
0.511375
1.1888
6.33016
5.63351
-5.26082
0.0319792
0.777797
5.7671
0.87339
6.64909
-6.92006
-0.241545
-0.718519
5.4037
1.01159
-5.32179
-0.7588
0.22145
1.05486
0.623259
6.47855
-5.16354
0.971732
6.42925
1.11101
5.7997
-1.54771
-5.45049
-0.719579
2.08897
5.46339
1.39549
-5.39893
0.490931
1.41275
0.26451
1.5606
6.56987
1.60638
-6.6187
-1.04164
1.86609
-5.39684
1.82531
-0.027116
-5.45516
-0.911369
2.6726
1.65908
6.39003
-6.39204
-1.13239
-2.44494
5.42972
3.04013
-5.27728
-2.25865
1.16572
2.67415
-0.589577
-5.31463
-0.280943
3.17734
-3.58593
-5.3774
-1.51918
3.873
5.385
3.58002
-5.32118
1.42844
3.10919
-0.993022
1.71003
5.91457
3.62589
-5.93726
-1.72956
4.04177
-5.34812
3.46512
-1.44389
-5.28172
-1.77952
3.94438
1.87265
5.70964
-5.75391
-1.94386
-4.28799
4.99335
4.27945
-4.96285
-3.5923
1.62812
3.55287
-1.70981
-5.27418
-1.79707
3.65791
-2.79989
-3.43029
0.0976032
1.66193
4.44537
3.79711
-4.46795
0.753099
3.05593
-1.29703
-0.34237
3.86206
3.04528
-4.20924
-0.595194
2.74632
-3.60816
1.97808
-0.59615
-2.167
0.7642
0.561719
-1.33502
2.51197
-3.14956
0.158408
-1.50621
1.4023
-1.99203
0.679475
-0.855748
-1.12853
0.2018
0.814423
-2.76495
0.0693188
-4.2674
3.49233
0.348807
3.70085
-1.74068
-3.30454
-4.24003
3.99192
-1.10005
-4.26649
1.04856
4.58162
-4.17068
-4.50244
-0.809732
-4.06517
3.6828
-0.552779
-4.40479
-3.82828
3.2939
-2.09234
4.20153
-3.67244
2.70014
1.91609
2.85367
-2.72703
-2.34265
-2.26111
-3.10538
-2.37275
-1.89585
1.65611
-2.75569
-3.14623
-2.66712
2.16164
-2.1144
-2.59949
-2.96319
2.10382
-2.05343
-2.72061
-0.0780278
-0.806545
2.07929
-1.64844
0.838902
0.577819
-1.25555
-1.85686
-1.4262
0.223077
1.75801
-2.44284
1.0362
-0.996323
0.904905
2.66378
-1.26479
-0.868213
-2.09489
0.747445
0.637774
-1.24309
1.22036
-2.50371
-2.76674
1.69779
-1.34488
2.55687
-2.811
-0.942699
2.91719
1.30886
1.62976
-1.36883
-2.70413
-0.842098
-2.4893
1.18592
2.99687
-0.855259
-2.71427
1.55001
-0.836031
3.02435
1.63726
-2.76146
-0.211228
-2.37723
0.385057
3.04874
3.09122
0.631067
-2.48379
-2.09583
-0.101147
0.209016
0.321428
0.601445
-2.21064
-2.27533
-0.163252
-2.96058
3.22928
-3.26372
0.205501
3.11998
-0.033114
-2.74718
0.060808
-2.16605
3.00017
0.0989285
2.92543
-3.11294
0.166918
3.47514
2.78692
0.0582821
-3.03651
-0.28598
2.48479
3.48213
0.487063
-2.43353
1.19036
-0.449894
2.64668
0.128173
0.00391561
0.000321708
-0.0434488
-0.00199254
0.00480845
-2.83476
1.07533
-0.451068
-0.313688
2.86191
0.580939
0.000720344
-0.000832931
0.000496882
-0.010939
-0.000315584
0.00105827
-2.93689
-0.774143
-0.00223653
1.62225
0.681266
0.500776
3.10401e-05
1.20445e-05
-3.31598e-05
1.55856e-05
-0.000243869
1.69273e-06
-0.190677
-0.0398527
0.00066806
0.0217351
0.0121739
0.00633162
2.39388e-06
5.78625e-06
2.5042e-06
1.76182e-06
-2.67365e-05
-1.38813e-05
-2.42852e-05
-1.28272e-05
-3.58934e-06
-3.60073e-06
-3.55638e-06
-3.58214e-06
-1.16843
1.29126
1.94824
0.92735
-0.000501413
-0.00448122
-0.00042793
0.000399842
0.000202321
0.000284118
-1.01212e-05
-5.54566e-06
-3.36402e-06
-1.59242e-06
-4.94435e-07
-3.96461e-07
-8.21826e-08
-8.92416e-08
5.90605e-07
2.15131e-07
2.78227e-07
-6.95566e-08
-6.18831e-09
-6.53421e-08
-6.78617e-09
-4.62308e-06
3.47462e-07
3.58953e-07
-1.14811e-06
1.81341e-06
-4.08477e-07
-1.3205
0.0853683
0.133367
0.30705
3.56914
-0.172475
-3.45515
-0.867002
1.50511
0.429555
2.70994
-0.301604
-1.67857
0.196264
3.58096
-3.44955
0.467174
-0.904881
1.56367
1.07606
1.35536
0.0729201
-0.289528
0.00750375
0.0948248
-0.627435
0.107196
0.264225
-1.13888
-0.202568
0.961053
1.35072
-0.213898
-0.0226125
0.0661216
0.0275613
-0.470177
0.0763758
-1.92464
0.263333
0.598006
3.6551
-0.621008
-3.40148
0.808607
-1.08009
1.8489
1.10978
3.08406
-0.981482
-3.03483
0.395454
3.57783
-1.28111
-3.73201
-1.57937
1.34065
2.11712
0.810611
1.30369
0.314698
-0.0873313
-0.0232791
0.0258538
0.0156658
-0.207969
0.0311586
-3.21686
0.414287
1.14116
-3.70571
3.31013
-1.59511
-2.04748
1.56707
2.39873
0.333503
0.52047
-0.726413
-2.17506
0.223063
0.930673
-2.53282
0.786187
-1.2079
-1.357
0.533203
-1.22027
0.0907635
0.122561
0.0474583
-0.36032
0.0532359
-0.133586
-0.250317
0.0342409
0.0100947
0.00606895
-0.0156547
-0.0913335
0.00482104
0.00318009
-0.029698
0.00373506
-0.00904662
-0.0167038
0.00211031
-0.981044
2.54933
1.19721
0.00576795
-0.0781545
-0.00837611
0.00287195
0.00791653
-1.78672
0.320616
-0.964835
0.243163
-0.140183
0.203227
-0.0012195
-0.0400162
-0.0130003
0.00383762
0.00256196
0.00198855
0.333281
-0.171638
3.67386
-0.913698
1.63262
0.0207185
-1.55424
-0.208018
0.3112
1.00443
-3.42199
0.102434
2.12622
-0.716259
-0.330251
-0.366546
2.78767
0.509157
3.68017
-0.950565
1.69038
-0.0606335
0.0791578
-1.31588
-0.149194
0.226385
0.920831
-3.3541
-0.227497
1.72428
0.331808
-0.661927
-0.682338
0.860826
3.60395
-1.10245
1.84898
-0.0722853
0.0492917
-0.643195
-0.050211
0.0976363
0.628134
-2.75178
-0.378339
0.695607
0.347425
-0.465249
-0.75597
-0.157113
2.38833
0.692039
-1.05503
2.32699
-1.19502
0.997091
1.43642
-1.27663
-0.208974
0.118179
0.193633
-0.0645806
0.171689
0.148674
-1.13181
-0.227008
0.151026
0.091137
-0.216134
-1.78741
-0.634099
0.277105
-0.570186
0.174108
0.309237
-0.246904
0.0214548
-0.0480466
0.0159335
0.0286512
-0.00163951
0.000755004
-0.00201477
-0.0121115
0.000443644
-0.00189621
0.000992901
-0.138734
0.0232916
0.0676894
0.0217546
0.00952946
-0.117592
-0.0328097
0.0123625
-0.0400782
0.0060405
-0.0246935
0.0013172
-0.00452865
0.00120841
0.0022962
0.000275135
6.76516e-05
3.79933e-05
-9.35618e-05
-0.000527612
2.17149e-05
-0.00010736
0.000467442
-0.00611414
-0.00134973
0.00064452
-0.00217296
0.000303455
-0.00212027
5.56536e-05
-0.00029923
8.34491e-05
0.000201028
2.953e-05
1.61056e-05
1.26093e-05
-1.0316e-05
9.60726e-06
-6.0791e-05
-1.30011e-05
-0.00136687
0.000143504
0.000941874
0.000174987
4.71514e-05
-0.00042739
-9.01728e-05
6.42189e-05
-0.000151625
2.42284e-05
9.08501e-06
1.14516e-05
-0.000121922
-0.000312549
-0.000236999
-9.18008e-05
3.52451e-05
6.60922e-06
-2.39486e-05
-8.24081e-06
-2.1285e-05
-7.71487e-06
6.6249e-06
1.44186e-05
9.15413e-06
-2.14754e-05
-3.51796e-05
-9.65331e-05
-3.80842e-05
-7.1251e-06
-7.99605e-06
-1.03208e-05
-8.75242e-06
-0.0336674
0.0156754
-0.0774583
0.00943204
0.0134368
-0.0455772
0.00360362
0.00249928
0.000170498
-0.00192036
0.000233735
-0.000492298
-0.000871919
0.000107986
-0.0163115
-0.0670767
0.00577526
-0.0213934
0.00362573
0.00697038
7.64053e-05
-0.000117626
-0.00016588
-0.000671918
4.1448e-05
3.34497e-05
-0.234877
2.10969
-0.135003
0.185092
0.174372
0.137428
0.190036
0.139293
-2.01766
3.04225
0.194796
-1.42895
0.130904
0.209144
2.52422
0.194289
0.223548
3.14445
0.242165
0.11899
-0.276448
2.16649
0.29548
0.231638
-1.51349
0.15793
2.59972
-0.290123
0.338585
0.414452
-0.334505
-2.2929
0.466876
3.30133
0.354576
3.21193
0.285815
0.419794
0.321499
-0.398412
-0.928433
-0.0177002
0.045254
0.232828
0.304333
0.027005
0.406525
0.289058
0.060005
0.963918
-1.23964
1.15697
1.05984
1.37549
0.137933
-1.17798
0.0541763
0.274747
0.125371
-1.22873
1.15003
0.246713
0.317146
-0.374666
-0.84818
0.0638408
0.203915
0.273347
1.02905
1.3693
-1.16612
-0.075673
0.335834
0.0898246
0.211907
-0.184671
0.73369
0.229343
-1.12098
0.995824
0.248177
-1.19109
1.10422
0.0710372
0.164644
0.226866
-0.588272
-0.594334
2.76214
0.751671
0.600083
0.450625
0.580146
-2.45324
0.649491
3.40336
0.449198
-2.19623
0.318028
0.779333
2.9608
0.447682
0.732594
0.860695
3.48143
0.562433
-0.754476
3.1945
0.938143
0.76066
-2.64798
0.364097
3.05834
-0.908753
0.89506
1.14022
-1.09199
-3.52035
1.26409
3.60207
0.760778
3.52289
0.667557
1.20818
0.918082
-0.064876
-0.214567
-0.388532
0.0782715
0.0491339
0.105903
0.281296
0.0912285
0.16953
0.574402
0.250318
-1.01171
0.819866
0.626817
1.21143
-0.973224
0.3442
0.12013
0.168216
0.125095
0.0796341
-0.861466
0.237654
0.606832
-1.47913
-0.797525
3.73698
1.51634
1.10673
0.873238
1.35195
-3.62598
1.29956
3.48426
0.858368
-3.28299
0.368653
1.04711
2.43757
0.984536
1.37747
1.22219
2.93898
0.871072
-0.756683
3.37287
1.44399
1.25196
-2.94259
0.296409
1.47138
-1.28068
0.656907
0.967429
-0.851671
-2.44228
0.356017
0.537328
0.334796
1.70172
0.57539
1.10026
0.975106
-0.624427
-0.285419
0.420912
0.282983
0.400424
0.492351
0.596251
-1.16174
0.110541
0.174633
0.148307
-0.497965
0.0323105
0.0451407
0.0725206
0.6701
0.318283
0.0353812
0.058538
0.0537416
-0.140149
0.168501
0.110209
0.179363
-0.220193
0.01252
0.0276429
-0.135012
0.0567857
0.0604495
-0.0117654
-0.0605128
0.00653037
0.00362935
0.0060722
0.02023
0.018999
0.0374429
0.0630986
-0.54934
-2.85433
0.439032
0.66159
-0.268741
0.506601
3.16742
1.47352
-0.623907
-0.480493
0.35763
0.558195
0.457997
-0.957227
2.11893
1.13957
1.08644
0.863724
-0.324223
-0.568724
1.37203
0.384781
0.375159
0.311238
-0.071861
0.0626126
0.0877017
-0.0399402
0.0614885
-0.0869508
0.0377539
0.0634591
-0.132871
0.0052412
-0.00535284
0.0137681
-0.0468166
-0.00545533
0.00324956
0.00440557
0.00248331
-0.0629736
0.0386532
0.0310212
-0.00294915
0.0084092
0.00501774
0.150937
3.34937
0.252345
0.106476
-0.593662
2.52772
-0.420209
2.68994
0.224318
3.39873
0.277369
0.283828
-0.577828
0.212829
2.54087
-0.138532
0.274356
0.222863
3.27151
0.18909
3.24479
0.718623
3.47376
-0.56603
0.423086
0.477552
-0.494777
-0.412507
2.16909
-0.242413
2.8367
0.696797
3.43892
0.867797
0.498214
-0.42555
0.509236
1.82334
-0.632582
0.690474
0.39763
2.51979
-0.538404
0.339179
2.89509
0.921421
2.15725
-1.011
0.621115
0.162755
-0.00339
-0.362486
0.19093
0.0938626
0.650247
0.410568
0.254845
0.838366
0.543275
0.326855
0.00905341
0.0505357
0.0600747
0.085596
-0.248272
0.0669757
0.0422864
0.112545
-0.548532
0.118331
0.363042
0.0112904
0.0197159
-0.0416167
0.0142374
0.00113524
-0.000145475
-0.00373496
0.00111774
0.000474845
0.00755273
0.00411934
0.00209145
0.00619912
0.00342241
0.0050169
-2.45144e-05
0.000291985
0.000355532
0.00072469
-0.00103441
0.000244636
0.000426885
0.000590804
-0.0037579
0.00123233
0.00187692
1.11261
0.652899
1.11581
0.38819
0.27434
0.357828
1.1656
0.983725
0.746869
0.111619
0.164345
0.186466
0.164197
0.164043
0.113303
-0.368403
0.0471995
0.0259293
0.0408496
0.265658
0.402325
6.96399e-06
-5.20791e-05
9.16826e-06
-1.46198e-05
3.84078e-05
-2.01748e-05
3.7695e-06
3.90974e-06
-3.29302e-06
-4.65737e-05
-2.35291e-05
-2.82333e-05
-1.55877e-05
2.3658e-06
2.83495e-06
-2.08735e-05
-2.05831e-05
-1.58721e-05
-2.05124e-05
-1.1672e-05
4.56729e-06
3.53295e-05
-1.24112e-05
1.07327e-05
1.10596e-05
-1.8934e-05
-2.32903e-05
-2.22207e-05
-4.07414e-05
4.34829e-06
6.11655e-06
-7.92188e-06
-7.83294e-06
-8.06337e-06
-7.2571e-06
-8.27675e-06
-7.65255e-06
-7.13543e-06
1.25639e-06
-1.84489e-06
1.05308e-06
-1.82001e-05
-1.31503e-05
-1.82851e-05
-1.81181e-05
6.58683e-07
1.06551e-06
-0.0289793
0.00515583
0.00319043
-0.00111812
0.00325861
3.69202e-05
-1.73986e-05
-0.000519837
-0.000254047
6.42601e-05
2.28598e-05
-1.08068e-05
4.04249e-05
-0.000327552
1.6019e-05
5.55527e-05
5.69143e-06
1.72712e-07
1.17385e-05
7.61044e-06
-1.53527e-05
-6.38468e-05
-1.83584e-05
-4.38405e-05
-9.07073e-06
-1.07891e-05
-2.36559e-05
-0.400854
2.72176
-0.417177
3.45692
0.357332
-0.321343
-0.522793
2.37245
3.42015
0.311181
-0.556081
2.48229
0.413951
0.236615
3.2054
0.276173
3.12405
-0.171525
2.71874
0.840581
-0.968979
3.06341
0.673251
-0.487635
-0.0994802
0.418558
0.593259
3.34015
0.599372
-0.255444
0.661928
0.68966
0.414368
1.9141
0.30945
0.94789
0.0657552
0.22111
0.0842634
-0.165108
0.0705259
0.0411501
-0.0136869
0.00133672
0.00364705
0.0068611
0.2582
0.134235
0.00426435
0.0150348
0.0151602
0.0118862
0.0285462
0.00355499
0.00695562
0.000283466
0.00271202
0.000691602
-0.00110403
0.000636055
0.00053176
0.000319743
-0.00016691
-1.04678e-05
3.70083e-05
3.93617e-05
0.00203168
0.00172083
-3.4856e-05
0.000149109
0.000125572
0.000110946
3.3496e-05
2.83612e-05
0.0415398
0.0285918
-0.0187417
0.000991462
0.0015311
0.00182011
-0.017203
0.00123809
0.000763067
0.00156187
0.0108868
0.0170464
0.0146289
0.00886605
0.00483346
0.00399541
0.00237194
0.00036758
0.000212244
0.000466097
-0.382202
0.0401762
0.00340323
0.0451706
-0.0343231
3.31161e-05
4.68128e-06
-0.000506477
1.06853e-06
7.76185e-05
2.35454e-05
3.01679e-06
-0.000370492
-2.87123e-05
5.0508e-05
0.00252948
-0.00099504
-0.0298002
0.00113437
-0.00119474
0.003173
-0.26024
0.0249349
-0.0102002
0.0286208
0.0110139
-0.0241208
2.51205e-05
-1.1416e-05
5.3606e-05
1.22593e-05
-0.000333526
2.59755e-06
1.51265e-05
-7.0785e-06
3.26604e-05
7.31149e-06
-0.000227831
-2.0115e-05
-0.0895927
0.00684189
-0.00756773
0.00831444
0.00393298
-0.00927997
1.38958e-05
-1.12728e-05
1.02624e-05
-0.000124372
2.05786e-06
2.61208e-05
1.00808e-05
-6.21987e-06
5.52596e-06
-7.27364e-05
-9.79933e-06
1.50807e-05
0.000113176
-0.000221143
0.000101932
-0.00219194
-1.46656e-05
0.000182054
0.000124203
6.16199e-05
-9.9888e-05
-0.00115738
5.64988e-05
-0.000112194
1.45351e-06
-9.4243e-06
1.84368e-05
8.97768e-06
-4.06104e-05
-5.30577e-07
9.95041e-06
1.09028e-05
-5.24223e-05
-0.000250879
-9.15465e-05
-5.52174e-06
-1.3321e-05
-6.82047e-06
-1.56156e-05
2.61477e-05
-2.10064e-07
-2.85853e-06
-3.82817e-07
-1.3489e-06
1.73594e-05
-1.54878e-05
1.0842e-05
-9.53052e-05
8.44405e-06
-1.20975e-05
1.04785e-06
4.47559e-06
8.9276e-06
2.5864e-06
-1.48554e-05
-1.50326e-05
-3.51441e-05
-5.37049e-06
-4.2879e-06
-5.3791e-06
-4.30212e-06
2.26089e-06
7.52377e-06
2.88142e-06
-1.16277e-05
-1.39783e-05
-2.64543e-05
8.46322e-06
3.69124e-06
-6.23161e-06
-3.44117e-05
5.42521e-06
1.47295e-07
1.85939e-05
9.65023e-06
-2.87401e-05
-4.95586e-05
-0.000168588
1.27526e-05
-6.49296e-06
-1.12292e-05
-1.97242e-05
-8.00666e-06
-2.10796e-06
-2.51009e-06
-8.75224e-07
-9.69113e-07
7.20815e-08
8.02962e-07
3.51999e-06
1.09043e-06
-1.01485e-05
-8.47934e-06
-1.04238e-05
5.13094e-07
2.17412e-06
7.54939e-07
5.4028e-06
1.81302e-06
1.89325e-06
-2.063e-05
-1.95679e-05
-1.56529e-05
-3.96176e-08
1.27466e-07
5.16747e-07
1.86539e-07
1.74673e-07
4.1554e-07
3.49141e-07
1.70074e-07
1.61149e-06
4.38639e-07
1.09374e-06
6.13928e-07
-1.99021e-08
1.35835e-07
2.88508e-08
1.38897e-07
2.51775e-07
4.10528e-06
1.39446e-06
5.6917e-07
-2.7572e-05
5.74328e-07
1.86771e-06
7.17363e-07
-8.62431e-07
-9.88854e-06
8.2533e-07
3.18274e-07
2.60122e-07
8.18436e-07
2.96437e-07
-6.55799e-08
-5.46668e-07
-8.68449e-07
-6.70069e-07
-5.15994e-07
2.27558e-08
4.05041e-08
1.98827e-08
6.15606e-09
-3.68543e-05
3.71642e-06
9.34165e-06
-4.12716e-05
-3.17295e-06
2.67386e-05
-0.629047
0.0602364
-0.0691196
-0.420644
0.0926772
0.0436231
0.0234981
0.0138882
-0.0299413
-0.22722
-0.0470059
0.0123252
0.591253
-0.55398
-3.24134
-1.02038
0.674445
1.64574
0.000168309
0.000106444
-0.000174026
-0.00162534
-0.000958005
9.44689e-05
0.099039
-1.47683
-0.480371
-0.17924
0.112536
0.198294
-3.43213
0.67618
-1.68191
-0.758023
2.43492
1.44442
0.0140622
-0.0218935
-0.132064
-0.0577167
0.0102936
0.00803632
0.00169664
0.000706189
-0.00350402
-0.0198209
-0.00150759
0.000743544
0.0201309
0.0289661
0.0479349
-0.197849
-0.0276277
0.000160222
0.000218007
-0.00475909
0.000442704
-0.00163262
-0.000251662
0.418826
0.21835
-0.245937
-1.64871
-2.3428
-3.04714
3.13803
0.258793
-3.1539
-0.117684
3.22063
-2.74794
0.43034
-1.94215
-0.277431
2.97609
2.71524
-1.40693
-2.96293
-0.671033
2.09494
3.52608
0.347863
-3.34394
-0.158926
-2.31517
3.13906
2.49788
0.678682
-2.88516
-0.709122
-1.97928
1.64276
1.5331
-0.10434
-0.0616543
-0.0328617
0.0117682
0.0100925
0.00607173
4.8976e-05
-0.000974631
0.000104876
-0.00021789
0.000134299
-5.30497e-07
2.18832e-06
1.73276e-06
9.44323e-07
-7.7374e-06
-2.15205e-06
-1.64599e-05
3.1347e-05
-9.12114e-05
1.11815e-05
1.47217e-05
0.00119465
-0.00304975
0.00209063
-0.00435363
0.00102741
1.49873e-05
2.57718e-05
-0.000201234
5.65409e-05
-4.11629e-05
-4.5732e-05
-1.93589
0.0455499
-2.12439
0.701005
0.665576
-3.06954
0.0654701
1.24613
1.01055
-0.000105718
-0.0111668
-0.00607248
0.000330689
0.000937637
0.00112779
-3.33742
-2.28072
0.523213
3.01481
2.42488
-1.65991
-0.139592
0.437615
0.18516
-1.8329
0.433444
-2.79833
-0.177175
0.784877
0.250264
0.803702
0.000182706
-0.000322249
-0.0040047
-0.00217927
0.00032971
0.000397444
-0.787838
-0.153925
0.0817877
-0.868727
0.128274
0.132941
-1.8094
-0.250501
0.283789
0.172406
0.311339
0.000168892
8.12993e-05
-0.00169669
-0.000933375
0.000139451
-2.4199
0.472455
-1.67744
0.70651
0.806151
-0.109099
-0.0311296
0.0156091
0.00901618
-0.128732
0.0147668
-0.401769
-0.076385
0.0456964
0.0254647
0.0355599
3.24563e-05
-2.48924e-05
1.21942e-05
-0.000177055
-0.000102869
2.50548e-05
-0.00605981
-0.00195997
0.000399143
-0.00733474
0.000766817
0.000785344
-0.000512405
-0.00303403
0.000111051
0.000168029
0.00021708
1.35379e-05
1.43827e-05
-9.27029e-06
9.77086e-06
-3.62246e-05
-2.58362e-05
-0.0225778
0.00183177
-0.00694462
0.00233963
0.00115123
1.15963e-05
-4.82288e-05
1.65727e-05
-2.34536e-05
-5.39739e-05
2.51269e-05
-2.63126e-05
1.95845e-05
-0.000113172
1.28362e-05
2.05477e-05
4.3901e-06
8.09724e-06
9.6069e-06
-1.37817e-05
-1.52397e-05
-3.52704e-05
-1.71403e-05
-1.06229e-05
-1.13467e-05
-1.88468e-05
-1.18277e-05
-6.72582e-06
-6.28516e-06
-7.20231e-06
-8.4573e-06
2.10202e-05
1.0071e-05
2.24953e-05
-2.64808e-05
-3.18451e-05
-7.01426e-05
-2.13796e-05
-3.0319e-05
-3.34206e-05
-3.8704e-05
-8.19176e-05
-2.29207e-05
-7.56234e-06
-1.13302e-05
1.03099e-05
6.45877e-06
1.86433e-05
-3.22789e-05
-6.7682e-05
-2.21868e-05
-2.72875e-05
-8.23993e-06
-1.17447e-05
-6.70134e-06
-9.35212e-06
-1.05123e-05
-1.28177e-05
-1.71168e-05
6.23257e-07
3.18165e-06
4.0454e-06
3.18073e-05
3.98217e-05
-9.76005e-05
-4.80165e-05
-0.00029814
-6.66035e-05
-0.000126857
-2.19125e-05
-3.95104e-05
-2.39685e-05
-2.05738e-05
-1.26714e-05
1.6931e-05
5.71697e-06
5.8924e-06
-5.00238e-05
2.3826e-06
2.21497e-06
4.79208e-06
1.79165e-06
1.64743e-06
1.70171e-06
-5.28211e-06
3.63928e-06
-9.67891e-06
-2.28959e-05
-9.22979e-06
-1.52051e-05
3.86732e-06
6.5421e-06
-1.03493e-05
-5.94272e-06
-7.03488e-06
-0.00222093
0.00136137
-0.00571469
0.000972173
0.00074584
5.03449e-05
-0.000273884
0.000159303
-0.00013121
5.64304e-05
-5.20552e-06
9.01701e-06
-1.41658e-05
-3.40558e-05
5.34796e-06
1.04965e-05
9.99852e-06
-3.42863e-05
-7.54676e-05
-0.000154694
-4.45671e-05
-1.19514e-05
-1.46256e-05
-2.6701e-05
2.09347e-05
-6.09689e-06
-7.16873e-06
-1.6569e-05
-8.31473e-06
6.27676e-06
4.79716e-06
-5.63567e-05
-1.91093e-05
2.94305e-05
-5.1975e-06
1.12256e-06
2.14097e-06
-1.18376e-05
-1.5118e-05
-1.48196e-05
-1.25824e-05
3.35101e-06
-3.60592e-06
6.8168e-06
-1.71663e-05
-1.40025e-05
-5.5924e-05
-3.46148e-05
9.91342e-06
-1.27646e-05
-5.44054e-06
-9.31917e-06
-6.83147e-06
6.27625e-06
1.74347e-06
-1.41914e-05
3.04791e-06
-9.44304e-06
-9.0506e-06
-1.67464e-05
-1.17242e-05
7.57312e-07
-5.73662e-07
7.81741e-07
-5.0492e-06
3.68958e-07
-1.67988e-06
6.76112e-07
1.14773e-06
6.6789e-07
-3.24813e-07
-7.07424e-07
-6.13978e-07