/*--------------------------------*- C++ -*----------------------------------*\
  =========                 |
  \\      /  F ield         | OpenFOAM: The Open Source CFD Toolbox
   \\    /   O peration     | Website:  https://openfoam.org
    \\  /    A nd           | Version:  9
     \\/     M anipulation  |
\*---------------------------------------------------------------------------*/
FoamFile
{
    format      ascii;
    class       volScalarField;
    location    "0.00235";
    object      T;
}
// * * * * * * * * * * * * * * * * * * * * * * * * * * * * * * * * * * * * * //

dimensions      [0 0 0 1 0 0 0];

internalField   nonuniform List<scalar> 
19519
(
591.538
600.047
604.407
548.743
566.684
519.086
469.434
487.185
503.798
390.308
339.644
288.529
1134.68
832.413
978.793
784.333
738.68
495.708
660.654
541.297
431.417
398.017
431.188
389.788
418.448
487.34
1249.23
1214.75
1186.7
1040.86
1304.59
1118.53
1125.16
1186.02
935.144
875.578
994.039
1001.45
1057.25
1117.05
953.552
752.57
938.374
654.769
1042.72
633.455
882.059
835.704
575.058
447.562
723.689
525.538
812.223
689.88
461.657
401.006
611.767
396.482
548.484
380.039
507.224
432.532
388.832
385.644
442.433
378.548
457.367
420.778
554.853
520.54
507.54
472.076
429.637
443.32
439.403
450.689
460.089
453.757
1004.72
888.831
912.741
787.7
774.556
530.885
764.127
472.527
464.557
466.448
794.878
1026.77
990.192
787.875
1050.25
1028.39
843.869
1003.39
759.945
971.137
812.926
617.869
706.871
864.583
575.123
670.523
583.906
612.525
779.679
557.595
519.945
544.972
487.31
497.09
923.582
684.835
551.331
429.335
592.453
465.881
353.486
394.165
399.766
314.642
938.715
1011.17
857.441
888.36
1010.02
858.69
937.827
713.204
888.959
730.989
713.85
797.793
801.005
652.736
528.891
598.433
501.589
505.942
549.124
568.992
484.947
405.141
509.31
424.223
448.355
446.452
473.284
393.395
525.696
460.377
515.756
476.024
444.796
430.839
303.342
465.42
408.785
984.253
967.339
925.503
797.514
969.189
928.08
983.026
980.02
796.687
954.465
911.02
966.172
924.652
965.705
919.281
875.834
958.669
799.882
994.282
841.442
873.561
872.374
926.107
874.524
717.216
931.412
875.629
815.966
806.307
665.301
770.443
688.291
818.091
747.568
753.315
639.281
638.938
646.566
533.172
716.061
583.256
585.104
698.258
740.078
647.341
566.413
718.014
725.761
622.248
686.741
560.041
720.826
590.696
721.89
605.288
673.319
508.963
494.943
535.211
450.935
551.728
471.294
481.571
812.421
946.446
804.317
896.967
839.519
939.683
765.474
792.758
770.449
805.257
749.792
739.75
805.33
737.263
615.015
868.073
690.293
653.261
738.079
633.581
693.669
670.565
594.492
710.51
569.425
532.493
645.801
675.04
536.123
533.833
497.912
557.01
455.622
613.086
492.769
490.059
367.67
420.775
402.507
341.39
435.306
364.844
335.782
543.632
481.23
453.636
572.379
474.127
509.369
487.967
345.396
288.453
317.677
451.85
294.436
314.541
287.98
457.108
453.483
500.77
424.33
428.445
461.881
391.95
287.926
505.345
288.702
1166.4
1139.81
1116.12
1016.55
1009.06
1016.85
1038.56
710.285
989.987
630.982
564.45
504.116
642.187
615.6
553.336
537.717
1358.07
1303.97
1251.82
1162.66
1298.3
1245.58
1363.34
1344.78
1153.21
1270.56
1208.17
1287.07
1230.48
1323.35
1252.38
1248.84
1174.63
1078.31
1293.14
1219.58
1126.61
1209.91
1039.79
1157.43
1030.93
1185.17
1073.86
1172.96
1105.75
1136.24
1006.41
1011.23
1137.4
1120.2
990.883
1053.9
1017.04
1064.84
926.657
1106.36
966.968
959.374
665.471
980.226
850.979
905.355
824.466
852.125
721.982
545.293
757.445
603.503
521.339
703.428
592.091
489.601
983.272
1041.55
1038.07
1000.19
1030.15
963.433
1026.24
886.972
872.849
725.091
759.338
842.365
931.402
769.449
507.036
590.183
490.937
527.169
506.73
566.466
478.912
650.664
644.762
565.593
681.268
605.817
624.842
584.6
547.694
380.677
379.533
515.025
550.036
531.758
522.079
439.865
288.391
426.249
288.033
375.706
287.928
290.284
287.926
398.27
287.968
287.926
287.926
548.54
576.254
532.076
569.28
348.84
298.57
345.482
295.636
509.908
526.928
456.328
476.919
341.666
291.185
438.751
480.139
337.98
375.104
309.044
295.413
289.03
288.402
402.107
288.793
330.932
288.388
481.486
313.738
380.602
434.473
478.379
308.187
373.069
460.713
297.499
348.235
396.826
416.889
307.967
307.338
328.333
291.094
288.045
295.548
289.555
288.173
287.931
288.001
287.946
287.927
288.025
287.931
287.927
287.926
289.966
288.431
287.952
288.802
287.933
753.778
702.472
572.96
551.205
704.797
576.179
750.947
739.38
546.666
656.807
553.979
691.319
570.456
703.016
308.942
309.713
347.187
348.92
309.136
346.67
309.918
306.996
347.994
305.911
340.7
307.969
344.638
304.098
595.933
605.199
530.001
488.885
649.101
555.129
507.769
553.869
471.36
492.603
472.375
516.962
488.923
524.985
296.62
303.077
334.675
337.131
300.517
299.857
326.787
483.056
476.256
453.818
413.592
505.17
458.313
428.194
455.378
377.511
401.548
344.412
434.569
390.575
418.056
332.756
363.945
308.436
295.811
372.347
332.494
294.45
307.406
290.934
297.903
288.646
310.734
290.144
294.949
355.396
414.682
342.119
404.405
358.514
424.973
334.004
298.391
296.719
289.428
288.417
302.824
293.485
288.854
471.243
386.658
441.473
472.876
386.973
409.329
408.93
450.405
375.871
418.211
439.055
367.483
388.477
396.427
395.582
315.614
345.996
361.685
297.752
301.86
329.597
290.097
288.152
288.73
288.584
288.002
287.987
288.127
371.897
329.967
375.463
310.031
310.308
294.249
334.286
287.927
287.926
287.926
287.927
287.926
287.926
287.926
288.596
287.932
287.931
287.926
439.99
462.017
381.861
470.098
385.497
407.449
402.898
409.595
415.562
338.187
428.46
355.669
377.525
358.835
313.855
296.281
288.673
320.049
290.685
291.304
288.707
288.212
287.992
287.935
288.14
287.952
287.945
287.932
293.278
288.137
288.107
290.21
290.04
288.521
287.98
292.801
287.931
287.929
288.236
291.034
287.929
287.928
288.859
287.927
287.927
287.946
287.936
287.927
287.926
287.927
287.926
287.926
287.926
287.926
287.926
287.926
287.926
287.926
287.926
287.926
287.926
287.926
287.926
287.926
287.926
287.926
287.926
287.927
301.652
290.757
379.672
287.947
314.996
423.171
289.784
288.123
294.549
287.978
362.377
520.557
551.681
509.461
457.221
402.091
289.644
287.939
287.926
287.928
288.168
287.928
356.706
366.68
288.065
452.051
341.416
354.839
287.975
308.181
323.773
287.946
368.338
290.252
294.058
287.928
288.041
287.956
287.927
288.234
287.927
287.927
287.926
287.926
287.926
287.926
287.927
287.926
287.926
287.926
287.926
288.096
287.942
287.926
287.926
287.927
287.926
287.926
287.926
287.926
287.926
287.926
287.926
287.926
287.926
287.926
287.926
287.926
287.926
287.926
287.926
287.926
287.926
287.926
287.926
287.926
287.927
287.926
287.926
287.926
287.926
287.926
287.926
287.926
287.926
287.926
832.391
915.385
902.682
961.816
921.808
929.071
1006.58
964.161
947.807
287.926
287.926
287.926
287.926
287.926
287.926
287.926
287.926
287.926
287.926
287.926
287.926
287.926
287.926
287.926
287.926
710.086
287.975
287.964
296.66
449.123
288.095
384.842
289.016
287.927
287.927
287.926
1014.57
1016.35
954.421
834.294
714.401
607.203
346.488
290.405
288.057
287.927
529.155
508.395
487.868
464.631
500.04
471.378
502.531
472.965
450.264
990.956
970.145
1005.99
881.603
978.271
866.61
949.632
1009.34
994.156
966.723
996.572
971.491
946.992
934.277
982.431
983.691
932.825
893.569
918.119
883.128
847.074
922.226
891.298
848.316
876.371
828.963
874.971
829.941
818.49
865.712
824.635
869.34
823.999
866.622
820.818
799.096
806.291
805.189
801.334
1018.2
1004.61
867.324
954.839
579.094
1021.57
1021.63
1015.86
994.016
880.37
873.083
862.153
931.738
918.688
810.063
1017.6
1010.87
1024.07
1020.46
1013.84
1025.99
1015.27
940.063
1000.56
993.295
964.162
987.847
960.697
945.335
816.643
866.319
823.817
871.952
819.211
872.615
821.076
854.692
955.482
884.363
960.29
870.766
958.053
877.219
546.371
466.625
1002.69
1006.05
993.68
1022.61
1009.01
996.288
999.398
1009.47
1015.53
1018.94
1005.82
991.13
987.852
991.276
987.971
1017.72
1022.21
1016.52
1018.57
1016.34
1025.47
1011.96
1002.92
1021.62
1010.31
986.45
1010.88
993.736
997.568
1009.08
1009.99
1018.23
1001.58
991.041
979.981
989.704
983.855
928.142
993.97
961.836
951.823
974.797
954.692
914.392
923.239
981.805
974.134
931.153
905.93
951.411
956.957
899.62
884.178
915.519
878.181
845.472
912.623
889.303
840.714
872.885
904.884
874.689
816.326
907.796
859.287
829.512
864.927
827.439
872.915
819.633
847.337
794.107
840.844
801.522
803.563
863.142
793.362
869.211
807.27
869.993
788.076
793.273
804.845
796.901
800.949
772.561
767.438
777.602
758.687
827.579
892.626
935.623
858.861
896.393
831.76
853.514
813.042
893.546
931.464
808.6
895.663
795.23
833.577
801.995
834.349
809.797
823.628
779.519
769.293
761.493
795.349
838.338
863.644
843.191
868.652
790.367
921.68
782.33
735.017
907.039
827.026
695.829
788.755
754.229
831.92
712.701
508.81
630.482
521.513
502.005
601.678
492.896
528.907
990.87
995.206
944.148
915.061
874.064
1001.35
998.435
987.356
967.552
981.118
1023.46
1036.96
809.287
1041.94
962.52
1069.54
1006
1063.22
1048.3
970.086
974.087
1039.82
1111.49
1269.06
1266.29
1112.22
1102.93
1248.71
1256.1
1095.48
1089.13
1243.16
1091.08
1235.73
1084.26
1225.69
1139.91
1050.66
1163.04
1019.86
1069.48
1161.42
1021.38
1049.73
1048.09
1066.86
1145.71
1027.01
1153.31
1023
1048.81
1035.56
1132.06
1019.77
1017.55
1047.35
1112.03
991.454
1019.07
984.398
1093.91
940.86
1094.44
957.098
1017.39
1035.73
1097.07
945.603
990.702
1025.5
1098.06
964.844
1044.95
1019.45
1080.07
1030.29
1096.13
999.69
1042.95
287.973
287.926
287.926
287.926
287.926
288.103
287.94
287.944
287.929
287.926
287.926
287.926
287.926
287.926
287.926
287.926
287.926
287.926
953.007
1020.28
929.652
518.968
297.103
287.939
287.928
287.926
287.926
930.555
1012.54
873.458
503.604
293.536
287.929
287.926
287.926
287.926
772.912
858.991
689.196
430.876
288.746
287.926
287.926
287.926
287.926
746.231
915.827
615.069
289.139
287.929
287.926
287.926
287.926
287.926
372.216
581.745
301.786
462.318
287.926
287.963
287.926
287.926
287.979
465.211
287.926
288.587
287.926
287.926
1000.64
1005.51
1002.74
996.383
1018.41
830.507
955.821
1026.71
832.193
1022.51
1026.35
1022.7
721.897
926.369
726.42
329.77
376.091
292.673
519.205
325.508
370.389
290.447
288.101
288.632
287.973
294.881
288.025
288.29
287.935
1022.9
1005.78
1012.23
801.76
844.371
879.179
720.398
879.99
697.716
779.238
654.711
321.698
346.632
289.534
479.481
303.532
296.993
288.106
287.991
288.152
287.93
289.587
287.933
287.949
287.928
981.604
996.143
999.89
857.151
738.078
786.051
883.182
728.301
894.993
924.673
614.935
642.616
552.872
297.038
288.602
287.988
319.823
288.207
287.945
287.927
287.928
287.933
287.926
287.944
287.926
287.927
287.926
916.882
989.901
741.991
799.185
894.088
739.571
582.311
726.124
552.176
951.662
769.6
822.119
414.53
460.842
288.225
287.972
287.926
287.927
287.927
287.927
287.926
287.926
287.926
287.926
287.926
287.928
287.935
287.926
287.926
453.435
288.011
288.287
288.095
296.043
287.926
287.929
447.553
288.53
289.84
304.057
344.381
287.932
288.456
986.818
397.17
913.024
361.421
691.418
288.15
403.652
287.926
287.953
287.926
950.366
953.001
966.28
814.755
762.5
981.199
970.651
806.148
764.19
936.916
826.539
940.112
678.024
725.865
791.246
847.459
689.925
671.263
756.787
696.511
702.836
549.13
620.881
610.111
660.612
479.151
556.949
569.751
400.246
531.312
288.321
379.828
289.151
305.95
287.926
288.012
1026.94
1021.85
1016.82
1021.88
1023.26
1018.51
1025.18
932.799
845.599
848.864
818.675
709.389
711.401
817.332
288.935
289.344
295.764
296.656
289.252
295.307
289.011
945.28
1011.81
984.754
973.439
993.635
973.669
934.499
821.713
828.894
783.596
722.641
689.059
765.601
655.246
288.236
288.643
292.009
292.093
288.411
288.416
290.718
810.873
863.088
803.908
857.687
817.091
862.838
796.851
659.475
679.167
660.314
575.163
562.084
595.231
550.663
287.935
287.994
288.301
288.24
287.958
287.949
288.049
874.131
933.505
855.244
912.224
870.114
934.219
858.567
539.226
642.328
600.359
509.233
570
550.825
564.842
287.926
287.926
287.927
287.926
287.926
287.926
287.926
289.745
527.825
371.114
557.961
557.871
520.009
352.763
587.309
570.086
563.575
529.534
523.658
379.107
470.645
359.843
462.051
361.786
460.208
372.331
465.569
344.629
287.926
287.926
287.926
287.947
287.926
287.926
287.926
288.011
287.926
287.926
287.926
287.929
287.926
287.926
1000.39
1022.67
1004.39
1020.53
1024.5
1006.25
999.027
832.681
899.827
901.8
951.962
774.558
776.112
950.06
987.646
981.297
980.936
986.079
1000.32
1024.7
1030.76
1001.1
1028.66
1007.01
993.653
902.056
824.281
896.7
950.056
767.6
775.021
940.295
985.11
968.025
978.298
976.08
1029.78
1023.17
1026.86
1023.65
1024.2
1028.3
1028.34
1014.99
995.931
997.573
1012.65
1021.11
1016.02
1019.15
1018.44
1026.13
1025.01
1025.77
1011.57
1025.27
1018.3
1019.08
1028.43
1024.28
1024.31
1019.34
1025.16
1026.76
1021.33
1014.38
987.998
996.853
1005.49
1020.4
1010.37
1018.58
1011.82
727.782
857.453
862.726
767.885
654.042
659.81
761.318
849.598
906.817
843.753
813.537
707.912
712.323
797.06
857.953
716.809
842.256
763.988
654.313
660.408
751.544
395.902
402.947
329.134
329.052
403.501
327.885
396.312
394.043
327.871
402.159
321.374
403.729
325.382
389.929
288.059
288.127
288.048
288.086
288.112
288.037
288.07
288.793
295.942
288.882
293.322
289.094
294.47
288.608
288.037
288.059
288.049
287.99
288.085
288.016
288.009
919.404
1016.88
974.97
971.927
968.021
977.433
924.368
876.818
762.016
840.364
867.562
743.774
913.364
698.827
898.69
938.118
948.338
886.126
862.832
920.764
884.694
817.843
926.774
865.919
816.184
797.591
762.191
686.8
810.891
613.221
652.502
762.944
840.367
780.412
827.553
792.03
925.077
957.955
976.108
905.226
888.245
922.195
882.363
829.866
923.407
876.465
842.271
866.812
800.475
846.18
820.934
812.7
675.796
774.7
689.437
640.736
724.881
624.378
741.776
730.852
705.733
675.459
584.337
617.237
630.654
634.958
733.357
693.682
650.751
593.004
608.183
615.532
374.228
398.71
316.017
316.69
383.448
393.929
309.669
361.608
310.526
377.604
296.524
387.593
302.67
344.263
287.959
288.012
287.966
287.963
287.982
287.98
287.948
288.099
290.735
288.084
288.807
288.225
289.617
288.009
287.944
287.944
287.94
287.93
287.955
287.937
287.933
777.362
860.254
790.2
854.117
787.691
853.408
781.447
728.247
666.656
660.204
719.312
588.288
732.46
577.738
750.719
755.028
762.799
747.908
781.136
863.345
872.082
807.094
859.013
786.802
797.376
735.594
662.559
669.993
720.366
598.635
581.654
737.112
752.712
782.009
755.904
770.974
790.333
776.57
796.356
771.268
818.022
868.898
907.026
826.332
875.796
803.424
841.236
826.424
887.054
916.091
856.995
881.68
830.452
850.691
797.227
806.418
779.676
821.404
805.988
834.551
809.834
829.742
591.175
662.045
641.149
581.908
578.5
592.09
558.84
648.073
646.919
630.812
569.412
557.929
550.495
566.523
485.802
619.725
583.781
570.287
461.395
524.703
545.728
303.681
360.898
292.016
292.112
323.164
335.746
289.412
292.51
289.25
292.703
288.005
308.498
288.321
288.838
287.926
287.931
287.927
287.926
287.928
287.927
287.926
287.928
288.012
287.927
287.932
287.932
287.958
287.926
287.926
287.926
287.926
287.926
287.926
287.926
287.926
809.579
875.935
831.903
886.741
816.583
863.507
831.231
719.981
667.129
676.046
768.186
624.202
763.775
636.055
820.679
820.082
802.03
843.627
771.513
839.811
695.229
728.608
808.884
797.188
703.394
594.913
668.506
628.001
744.668
576.19
626.438
686.8
811.402
794.04
835.034
769.448
881.175
944.455
886.063
957.388
879.325
948.413
884.574
877.99
843.585
856.05
868.248
881.64
867.855
863.287
880.822
845.496
874.902
804.08
758.772
902.667
828.67
772.303
850.015
924.767
819.955
764.038
918.224
846.645
773.998
865.072
814.975
858.184
815.247
865.916
789.569
858.45
808.638
306.342
387.193
519.024
403.631
373.558
491.272
306.625
552.602
338.123
438.454
432.763
469.297
530.707
351.415
292.2
318.014
290.126
322.218
288.413
290.779
294.462
287.947
288.658
287.938
287.932
288.07
288.03
287.927
287.929
287.927
287.929
287.926
287.941
287.926
287.926
287.926
287.926
287.926
287.926
287.926
287.926
287.926
287.926
287.926
287.929
287.926
287.926
287.926
287.926
287.926
287.926
287.932
287.927
287.926
287.926
287.927
306.265
433.435
345.439
442.798
323.782
407.117
326.642
289.098
293.371
288.104
288.089
290.705
290.622
287.998
371.867
456.133
380.2
459.774
378.049
464.703
378.358
295.117
296.402
288.862
288.222
299.947
292.583
288.422
298.66
308.603
289.329
289.081
304.332
302.441
288.729
288.825
287.999
287.926
288.32
287.926
287.926
287.949
287.926
287.926
287.926
287.926
287.926
438.015
288.031
287.926
288.797
287.926
288.386
288.484
288.247
288.049
287.988
322.354
288.093
289.104
310.071
287.927
288.926
287.926
288.777
287.926
288.011
288.18
287.926
287.928
287.937
287.939
287.926
287.926
290.172
350.443
288.581
292.081
293.039
288.634
288.756
292.738
288.576
292.391
289.162
290.637
288.195
288.174
289.906
289.795
288.082
287.961
288.173
287.937
287.933
288.041
288.008
287.929
287.926
287.928
287.926
287.926
287.927
287.926
287.926
371.015
426.705
378.899
452.624
370.972
440.896
379.356
287.998
287.926
287.926
287.93
287.929
287.926
287.926
291.504
288.637
291.49
288.332
292.221
288.468
290.735
288.594
288.061
288.514
287.959
289.062
288.004
288.231
293.097
331.337
292.953
305.553
296.286
316.809
290.521
288.271
290.385
296.095
297.98
288.982
288.839
290.75
287.936
287.928
287.932
287.926
287.949
287.927
287.928
288.024
291.027
288.002
288.15
288.195
288.727
287.953
287.928
287.949
287.995
288.01
287.934
287.934
287.948
287.926
287.926
287.936
287.928
287.927
287.926
287.928
287.927
287.955
287.935
287.929
287.929
287.933
287.928
302.964
310.945
289.999
289.317
308.463
304.745
289.225
673.368
537.438
527.15
648.105
500.88
545.066
568.114
690.755
567.443
541.202
688.949
541.819
583.522
582.587
522.835
659.534
541.452
557.323
679.468
534.395
576.597
520.598
606.836
611.903
472.604
544.983
549.239
471.663
287.935
289.989
289.504
288.566
287.928
288.241
287.927
287.926
287.926
287.927
288.028
287.927
287.975
287.926
492.663
598.025
584.451
452.893
545.947
460.803
539.389
288.211
287.927
288.542
288.117
287.927
287.944
287.926
287.927
287.926
287.926
287.954
287.926
287.928
287.926
379.84
532.846
497.764
348.551
501.284
391.512
464.704
287.929
287.926
287.927
287.932
287.926
287.926
287.926
287.926
287.926
287.926
287.926
287.926
287.926
287.926
288.003
288.593
298.631
288.01
296.96
288.517
289.204
287.926
287.926
287.926
287.926
287.926
287.926
287.926
287.926
287.926
287.926
287.926
287.926
287.926
287.926
364.313
289.057
296.109
293.053
418.889
310.556
347.316
287.988
287.928
287.944
287.93
287.959
287.928
287.927
287.927
297.953
288.061
405.301
294.92
289.528
287.929
337.786
288.306
310.2
429.957
301.805
291.42
287.931
287.926
287.927
287.926
288.542
287.926
287.926
287.926
287.93
287.98
287.926
289.191
287.927
287.926
287.926
613.081
513.266
608.754
471.589
550.761
551.942
467.38
461.018
570.138
554.157
441.037
521.123
531.753
421.599
293.27
437.841
353.603
307.736
338.314
407.697
291.883
287.946
288.071
287.935
287.939
287.958
288.116
287.928
287.932
287.968
288.513
288.269
288.034
289.531
287.949
390.436
546.726
546.165
629.073
342.252
626.812
325.028
297.001
527.27
498.852
601.476
298.055
543.928
289.056
287.93
440.702
312.837
412.714
287.979
292.41
287.927
287.926
287.926
288.513
287.955
287.926
287.926
287.926
287.926
288.164
287.941
287.943
287.926
287.927
287.926
287.926
287.926
287.926
287.926
287.926
287.926
287.926
464.8
516.852
523.682
588.553
449.404
507.519
448.469
287.926
287.929
287.933
287.926
287.927
287.926
287.926
287.936
287.927
287.936
287.926
287.93
287.926
287.926
287.932
287.936
288.071
288.027
287.933
287.982
287.929
287.927
287.926
287.974
288.109
287.929
288.048
287.928
287.941
287.926
287.927
287.969
287.927
287.935
287.926
287.926
287.926
287.926
287.927
287.926
287.926
287.926
287.926
287.926
287.926
287.926
287.926
287.926
287.926
287.933
287.939
288.1
288.093
287.939
288.028
287.933
287.932
287.933
287.926
288.05
287.931
287.966
287.935
288.001
287.931
287.929
287.926
975.439
992.046
853.241
814.231
714.101
489.499
1016.12
1108.48
1026.3
1062.3
1125.22
1055.19
963.784
1069.58
1249.6
1061.86
944.919
1184.61
965.7
918.841
843.253
1067.9
946.677
813.911
940.065
966.977
798.2
794.185
799.327
714.678
966.161
509.226
656.587
797.693
841.493
309.495
1175.18
1189.14
1118.22
1121.6
1336.97
1235.22
1051.29
918.77
1067.42
860.523
810.628
693.71
575.477
459.633
504.446
419.342
1007.52
987.039
993.045
1095.49
1039.17
1045.17
1086.98
1113.75
1172.11
1182.99
1095.24
1066.27
1071.7
1084.7
1033.87
1005.84
1026.74
1114.87
1082.79
1059.15
1145.22
1203.04
1232.64
1142.32
1116.48
1102
1083.97
1149.46
1084.5
1038.34
1045.5
1161.05
1104.95
1169.69
1102.04
1232.45
1147.98
1123.33
1161.8
1109.15
1172.68
1086.38
1011.75
936.156
994.105
1115.99
1023.59
1068.09
1058.74
1126.81
1076.05
1026.77
1120.86
998.311
1042.05
1075.77
852.834
889.364
881.598
959.073
984.393
1006.06
948.829
1010.01
984.142
949.911
1001.62
966.284
1035.5
951.375
823.375
818.907
831.986
914.492
863.315
908.205
870.696
846.524
920.287
880.368
965.856
936.073
946.486
911.335
807.695
795.482
810.218
785.287
823.979
831.002
786.191
580.661
814.403
708.384
677.054
900.738
812.814
813.772
484.745
593.419
536.766
573.228
588.798
682.96
528.766
1179.72
1287.8
1294.32
1309.95
1331.38
1201.75
1303.5
1199.87
1165.4
1152.01
1105.53
1040.5
974.35
981.909
922.745
721.431
859.054
784.17
491.336
683.805
572.257
446.665
506.091
480.646
604.06
642.879
554.596
1073.95
1034.22
1048.33
1029.37
1039.16
1052.29
1068.52
1089.86
1039.32
1076.13
1080.43
1052.64
1063.47
1117.68
1128.87
1097
1087.11
1040.32
1140.26
1089.14
1063.82
1088.3
1000.35
1022.63
982.526
1055.53
1020.89
1047.57
1005.8
1002.24
959.231
942.551
1021
994.697
951.261
990.526
951.579
964.113
961.099
988.793
955.444
956.025
776.485
904.428
948.021
910.07
880.489
813.915
877.288
681.576
784.528
649.332
635.78
717.915
749.617
290.261
337.242
287.926
287.926
287.926
287.926
287.926
287.926
287.926
287.926
287.926
287.926
287.926
287.926
287.926
287.926
287.926
287.926
287.926
287.926
287.926
287.926
287.926
287.926
287.926
287.926
287.926
287.926
287.926
287.926
287.926
287.926
287.926
287.926
287.926
287.926
287.926
287.926
287.926
287.926
287.926
287.926
287.926
287.926
287.926
287.926
287.926
287.926
287.926
287.926
287.926
287.926
287.926
287.926
287.926
287.926
287.926
287.926
287.926
287.926
287.926
287.926
287.926
287.926
287.926
287.926
287.926
287.926
287.926
287.926
287.926
287.926
287.926
287.926
287.926
287.926
287.926
287.926
287.926
287.926
287.926
287.926
287.926
287.926
287.926
287.926
287.926
287.926
287.926
287.926
287.926
287.926
287.926
287.926
287.926
287.926
287.926
287.926
287.926
287.926
287.926
287.926
287.926
287.926
287.926
287.926
287.926
294.164
562.201
351.498
718.859
800.879
638.17
507.937
587.337
531.045
577.226
483.602
540.301
518.505
498.801
535.143
544.967
585.175
560.381
526.413
769.413
702.22
757.756
725.522
679.989
736.198
666.861
640.429
690.191
618.722
550.652
495.675
288.326
344.851
516.703
414.483
491.078
298.778
620.949
668.798
633.527
616.229
585.904
632.734
603.939
604.238
517.438
518.24
507.561
542.79
551.015
542.656
529.056
560.824
600.941
575.199
556.424
582.212
573.747
545.643
472.952
437.833
407.552
486.644
476.08
475.535
449.612
288.953
651.884
560.527
977.961
1156.59
1141.48
1117.61
930.633
1215
1134.33
832.983
1017.1
1154.63
1287.87
1282.73
1268.23
1127.2
1257.08
1249.81
1246.35
1116.37
1094.18
1237.94
1110.71
1215.14
1081.86
1044.13
1177.67
1073.05
1068.61
1204.74
1078.13
1182.91
955.575
1078.26
1001.03
1050.41
1074.39
1010.31
1044.03
1089.74
1088.77
1021.3
1020.7
1046.06
1045.73
981.221
974.642
1022.8
1014.7
1037.09
983.477
1019.6
1028.72
1077.13
1057.59
1011.38
996.476
1027.3
1037.96
987.222
1009.56
1012.85
1011.01
1009
1002.82
999.919
947.402
955.449
964.936
1009.97
1007.05
1001.12
995.332
310.748
292.796
292.104
409.152
352.263
360.852
312.602
391.604
368.178
364.558
287.926
287.926
287.926
287.926
1390.74
1266.36
1268.73
1387.32
1396.55
1271.33
1271
1406.08
1326.67
1248.96
1388.37
1192.03
1232.03
1026.86
1112.31
1118.57
840.386
937.341
987.188
837.512
680.436
629.337
736.08
539.191
426.119
528.315
462.907
462.312
405.646
415.743
429.15
400.113
287.926
287.926
287.926
287.926
287.926
287.926
287.926
287.926
287.926
287.926
287.926
287.926
287.926
287.926
287.926
287.926
287.926
420.864
433.243
425.046
287.926
287.926
287.926
287.926
287.926
287.926
287.926
287.926
287.926
287.926
287.926
287.926
287.926
287.926
287.926
287.926
970.727
972.607
948.778
998.838
989.633
982.152
973.831
926.648
926.216
961.532
917.056
967.908
964.226
965.416
910.067
883.932
948.397
950.491
998.587
997.15
953.394
897.608
946.847
956.099
897.65
912.921
965.292
957.536
1000.33
1001.43
1004.01
999.448
1002.93
1008.85
1007.21
974.398
972.423
977.361
994.901
993.595
1007.28
1009.42
979.676
984.268
950.719
988.076
983.316
1014.01
1025.38
845.307
936.384
939.921
839.83
872.552
949.552
944.813
1006.42
997.127
1011.84
1006.44
1012.72
1009.09
1007.22
1000.24
1000.09
1007.12
1000.61
1000.02
1006.12
1007.63
941.406
941.916
995.033
986.361
992.748
1042
1046.84
1002.42
996.515
1007.98
982.412
1009.56
984.567
1011.6
938.134
940.359
976.557
989.368
977.541
1030.14
1004.52
972.74
986.137
981.252
948.94
929.937
950.504
932.252
1008.6
997.5
994.731
1013.24
997.983
1016.25
1010.32
1001.08
1012.69
1010.2
1012.73
1014.8
1007.4
1009.27
892.104
965.769
918.442
853.891
941.262
990.93
921.448
995.87
1010.44
1002.86
1001.69
995.562
1015.96
987.651
977.838
988.882
978.069
935.742
961.104
954.274
932.207
890.203
856.354
897.829
966.927
958.823
982.555
962.756
972.764
987.767
998.774
945.807
931.186
935.233
952.072
1010.5
1023.55
1020.62
1022.09
1037.9
1035.65
1013.97
897.352
813.565
925.272
782.418
804.197
930.93
898.613
1182.32
1063.42
692.787
341.252
1190.52
1138.89
1177.77
1071.84
737.628
889.633
618.611
398.164
517.688
361.286
1424.88
1223.27
1314.45
1189.3
1221.63
1314.29
1425.01
1417.71
1175.67
1162.79
1285.56
1206.62
1306.86
1393.32
1240.16
1085.72
1234.52
977.975
1337.75
977.456
1151.69
1109.86
864.27
691.667
930.974
840.295
1047.33
953.059
619.947
558.357
803.42
523.009
784.06
463.897
680.596
498.172
450.183
374.544
484.904
409.771
572.173
434.306
370.516
346.849
425.885
334.475
397.639
325.083
388.675
305.651
295.029
351.937
315.217
309.19
352.134
311.117
364.669
348.675
763.797
308.451
288.007
287.926
287.926
287.926
287.926
953.653
772.954
463.027
292.826
288.044
487.931
924.169
482.209
453.587
602.883
393.587
353.29
354.282
288.754
288.109
288.344
287.945
287.929
287.957
288.06
514.319
447.817
510.522
440.983
469.227
362.951
445.026
306.861
306.017
288.942
318.094
287.931
289.043
287.927
287.995
287.927
287.926
287.927
287.931
287.927
287.927
287.926
287.926
287.926
287.926
287.926
287.926
287.926
287.926
287.926
287.926
287.926
287.926
287.926
287.926
287.926
287.926
287.926
287.974
287.926
287.926
287.926
287.926
287.926
287.926
287.926
287.926
287.926
287.926
287.926
287.926
287.926
287.926
287.926
287.926
287.926
287.926
287.926
287.926
287.926
287.926
287.926
287.926
287.926
287.926
287.926
287.926
287.926
287.926
287.926
287.926
287.926
287.926
287.926
287.926
287.926
287.926
287.926
287.926
287.926
287.926
287.926
287.926
287.926
287.926
287.926
287.926
287.926
287.926
287.926
287.926
287.926
287.926
287.926
287.926
287.926
287.926
287.926
287.926
287.926
287.926
287.926
287.926
287.926
287.928
287.926
287.926
287.926
287.926
287.926
287.926
287.926
287.926
287.926
287.926
287.926
289.625
287.926
287.926
291.417
287.926
287.926
287.926
287.926
287.926
287.926
287.926
287.926
287.926
287.926
287.926
287.926
287.926
287.926
287.963
287.926
287.926
287.926
287.926
287.926
287.926
287.926
287.926
287.926
287.926
287.926
287.926
287.926
287.926
287.926
287.926
287.926
287.926
287.926
287.926
287.926
287.926
287.926
287.926
287.926
287.926
287.926
287.926
287.926
287.926
287.926
287.926
287.926
287.926
287.926
287.926
287.926
287.926
287.926
287.926
287.926
287.926
287.926
287.926
1003.41
1057.33
1056.72
1031.32
1030.45
1130.76
1126.15
972.172
976.396
981.633
942.189
940.495
930.386
930.132
817.344
813.846
825.343
941.212
904.503
934.817
891.217
876.768
851.479
933.09
893.611
883.489
908.965
877.97
1023.12
1007.15
1026.81
1057.33
1055.83
1041.99
1022.35
988.601
942.203
970.873
1030.36
1004.01
984.32
952.412
1001.09
1052.34
1043.11
1023.82
1114.51
1006.96
1095.25
1023.58
1005.65
995.175
1014.51
1013.19
978.043
987.403
985.16
940.944
933.34
990.204
990.131
939.04
941.924
824.46
869.044
860.196
809.997
785.088
846.462
863.159
990.42
993.205
1004.18
970.806
965.805
1002.35
996.99
961.634
1018.13
973.566
970.858
1060.35
1005.77
914.192
800.04
813.452
813.381
836.677
814.61
863.586
847.563
857.623
924.203
887.912
944.217
893.433
852.37
801.518
288.491
355.834
287.926
287.926
287.926
287.926
287.926
287.926
287.926
287.926
287.926
287.926
287.926
287.926
287.926
287.926
287.926
287.926
287.926
287.926
287.926
287.926
287.926
287.926
287.926
287.926
287.926
287.926
287.926
287.926
287.926
287.926
287.926
287.926
1277.93
1206.14
1123.5
1108.04
1383.21
1353.19
1289.76
1270.94
1347.49
1282.61
1388.05
1368.18
1250.14
1283.49
1233.65
1327.92
1264.43
1345.11
1103.91
830.903
515.394
366.651
1107.45
418.53
1016.9
397.099
458.681
1076.29
501.871
1077.12
480.382
1007.94
494.414
922.001
382.732
589.469
337.778
440.165
914.022
458.802
622.527
375.73
620.941
400.454
521.31
320.533
387.38
292.768
332.299
533.721
367.747
416.948
297.866
378.717
300.559
362.252
303.505
289.243
289.886
728.773
1112.95
785.161
1099.69
1104.79
777.572
737.152
504.781
400.575
534.751
415.638
396.77
529.888
510.674
706.349
1074.78
1016.9
702.329
1078.53
754.186
660.617
491.472
408.7
377.661
490.774
389.037
516.254
467.688
525.53
920.324
627.193
803.073
596.045
796.734
549.468
406.485
364.554
458.336
368.015
436.698
352.286
427.444
464.605
684.963
567.128
446.05
671.504
488.229
421.033
383.092
353.549
328.998
381.232
341.037
402.334
364.811
367.061
488.593
413.824
469.015
390.624
433.505
385.552
332.692
315.573
360.857
305.507
348.452
303.437
340.479
348.281
424.214
368.468
341.245
395.143