/*--------------------------------*- C++ -*----------------------------------*\
  =========                 |
  \\      /  F ield         | OpenFOAM: The Open Source CFD Toolbox
   \\    /   O peration     | Website:  https://openfoam.org
    \\  /    A nd           | Version:  9
     \\/     M anipulation  |
\*---------------------------------------------------------------------------*/
FoamFile
{
    format      ascii;
    class       volScalarField;
    location    "0.0035";
    object      impulseMax;
}
// * * * * * * * * * * * * * * * * * * * * * * * * * * * * * * * * * * * * * //

dimensions      [1 -1 -1 0 0 0 0];

internalField   nonuniform List<scalar> 
30068
(
191.524
210.645
215.55
117.207
128.883
223.161
149.338
163.273
197.14
223.272
149.196
134.791
288.892
280.844
262.891
257.807
279.037
275.308
254.615
252.954
277.931
276.151
234.77
249.443
247.392
237.74
305.437
305.196
304.382
286.109
308.862
301.943
302.44
301.688
283.256
296.142
297.4
298.647
299.832
298.575
295.26
294.501
295.518
277.346
296.426
292.9
294.272
294.359
275.667
289.597
293.076
290.702
293.281
294.078
302.374
291.869
294.957
284.958
296.261
297.789
300.624
305.453
289.27
267.848
299.94
294.049
307.105
289.696
197.595
183.521
210.796
243.233
226.472
275.732
225.436
255.145
214.553
252.688
456.561
103.857
412.279
98.7728
356.576
87.3138
324.944
70.8756
273.184
236.161
190.14
247.062
438.187
182.347
228.013
207.299
100.44
205.641
178.836
240.336
381.759
160.23
229.566
198.01
91.3172
189.349
150.849
221.487
335.522
122.075
189.683
174.138
74.5973
162.749
400.109
347.436
114.296
183.309
303.583
95.6731
187.721
154.153
67.3544
154.049
133.776
155.803
79.0619
103.654
155.678
78.8723
133.384
128.53
150.472
79.1057
97.0498
130.271
147.459
78.9229
118.292
134.52
76.2289
82.9563
121.301
129.397
74.7217
109.582
116.024
69.7496
67.473
110.538
113.869
68.4928
282.81
101.755
291.165
254.223
230.701
228.285
182.671
234.953
220.047
307.462
478.772
206.882
189.75
476.886
206.726
306.552
303.421
185.778
453.67
201.361
465.771
203.565
299.172
132.446
102.04
152.515
78.6642
153.685
78.3276
131.753
285.704
441.249
198.442
174.257
293.429
426.6
194.247
277.463
167.947
392.832
182.273
410.463
188.781
269.034
126.474
94.5417
139.372
77.4929
143.659
78.3803
124.052
252.211
373.669
174.62
140.743
260.486
354.108
166.616
244.585
130.949
319.005
152.406
335.653
159.118
237.504
115.342
78.6449
120.118
71.4441
124.537
73.1086
112.494
458.311
461.121
404.711
385.696
483.668
440.421
385.847
610.601
530.121
655.036
497.218
419.127
367.111
380.317
326.483
411.955
357.303
373.109
546.867
395.192
450.345
470.102
225.131
303.427
146.149
107.369
230.703
288.637
140.811
219.449
99.7953
251.133
145.235
268.274
137.271
218.881
110.265
64.9166
122.022
79.9235
115.216
70.5237
113.338
255.945
108.52
157.858
284.342
157.829
236.832
227.572
205.931
145.872
172.012
235.197
172.464
157.766
118.586
225.317
134.122
230.423
170.897
178.273
228.736
188.959
19.9242
202.731
138.816
384.009
378.593
374.907
359.186
355.256
346.378
418.002
373.251
342.353
332.604
323.658
263.835
378.54
350.717
310.946
285.124
311.214
335.697
325.702
387.217
336.085
327.563
313.283
307.301
382.797
331.537
324.273
334.083
325.605
304.265
297.139
329.002
322.6
370.673
300.812
324.346
320.874
292.795
364.488
310.841
316.655
317.276
318.558
289.101
283.679
305.87
315.097
352.283
286.134
301.886
314.042
281.826
349.597
295.582
312.655
298.623
313.381
280.658
284.483
292.926
312.501
339.068
281.157
291.547
314.509
289.083
336.518
289.614
316.168
290.066
317.916
287.789
478.096
463.083
466.825
404.787
497.586
448.086
447.134
454.495
389.818
409.065
398.61
429.625
423.731
426.907
272.359
299.592
301.1
301.298
278.102
297.633
278.273
362.347
370.053
323.623
387.708
329.367
354.896
341.528
257.094
168.918
181.7
196.034
243.445
281.552
261.774
61.746
40.2796
61.3941
36.0465
61.0005
23.2823
57.9645
13.0555
108.178
56.4347
0.0187941
0.837188
84.7803
132.808
84.9767
130.736
17.3458
42.2562
17.8122
41.8389
84.7057
126.938
84.5993
119.674
18.1065
41.0513
84.3397
130.484
82.2179
120.77
81.6433
110.824
79.5744
103.193
69.1095
75.6598
172.067
119.224
115.797
50.2328
86.2275
61.5971
113.969
49.8333
85.0524
110.177
49.1239
82.5345
61.267
103.374
50.6131
79.7985
98.46
49.527
63.5878
58.977
91.1515
45.9735
53.2247
78.8293
37.2474
36.0125
53.0132
61.2587
24.3961
6.89645
152.038
81.1676
94.9097
133.928
78.1387
123.492
81.6055
105.348
84.8672
81.7276
105.397
123.18
122.137
84.6684
82.6696
103.412
81.8172
104.213
121.048
31.8979
17.1984
36.7958
17.2524
17.2013
36.9747
31.9233
31.8234
17.4332
17.4641
37.0667
17.3079
36.9264
31.7668
118.109
82.7843
102.334
84.6544
119.431
82.7482
101.647
116.772
84.6731
82.5933
99.8823
82.7723
100.941
114.975
31.3283
17.5877
37.1313
18.3992
31.597
17.7053
37.2426
109.987
82.0743
98.4448
83.8112
112.718
81.2068
96.5953
106.987
83.0573
78.6972
92.1999
80.0928
94.421
103.952
99.8636
77.2859
90.1577
80.8829
101.597
76.9986
87.8085
99.2382
80.0968
84.8759
83.4184
79.9652
85.3922
100.039
113.743
65.478
74.4873
129.08
63.7705
122.415
118.071
104.128
81.398
74.2433
84.6038
75.3599
104.291
86.9121
84.2702
54.8248
61.7723
84.6115
54.9622
72.304
72.0985
81.823
54.3243
61.3623
81.4163
54.2035
69.229
69.7396
79.4906
53.5879
60.5175
78.3183
53.1927
67.3254
68.041
72.768
47.4273
55.9814
69.2631
43.0497
54.283
59.8211
138.194
104.328
145.623
118.04
124.279
126.429
153.652
42.9209
16.6284
0.878125
50.8405
25.9195
8.09821
1.25147
148.598
96.5083
97.9877
22.0182
61.516
82.4527
54.5468
83.3315
54.5587
71.3978
70.6659
61.3567
80.3673
53.8521
80.977
54.0486
68.9298
68.5487
59.819
75.1967
50.4427
76.8784
52.2591
65.9778
63.6045
53.7703
60.4983
35.4584
64.8227
38.4297
47.5748
41.1337
96.0375
81.0311
82.3092
100.547
104.293
102.641
78.9629
66.2331
17.9637
26.3803
38.9884
65.0052
16.3868
24.34
62.2747
12.906
19.7656
30.9279
43.0792
8.08299
13.1348
33.3614
3.34902
5.88355
13.3002
20.1064
0.292585
0.443621
6.34071
0.103102
0.0397668
3.18327
1.18525
0.0046335
0.021821
0.047255
0.0193243
0.00115665
0.000145535
69.4484
146.354
148.611
180.034
106.429
141.664
185.086
151.017
114.202
136.61
107.27
158.209
189.072
220.877
231.699
133.24
120.93
101.938
76.9477
0.0326906
85.595
126.999
75.4841
129.549
92.9026
76.452
131
126.302
91.3123
72.5241
118.29
87.9687
69.4671
116.528
107.047
84.0008
60.8673
94.7696
64.4261
47.7146
92.4434
70.7003
52.067
18.5493
43.8442
32.8262
9.04888
55.2168
15.8742
4.12591
0.638041
17.8109
129.007
95.9666
52.0146
49.1591
66.0249
35.0485
24.4841
6.18285
0.457261
0.00462531
0.000112783
0.00049556
4.89205e-05
0.000180208
2.22065e-05
7.83291e-05
7.87671e-06
2.57493e-05
1.45374e-06
7.1056e-06
3.81354e-07
0.0065769
2.48845e-05
1.54995e-06
8.0975e-08
55.2145
47.8249
35.2748
2.81946
48.4372
0.186763
0.000110948
4.27988e-06
2.5542e-07
1.32382e-08
545.854
531.099
516.08
554.03
538.932
513.956
583.998
535.724
560.401
0.000387508
0.00131363
2.22402e-05
8.66921e-05
9.93939e-06
3.62675e-05
3.46515e-06
1.0879e-05
6.80687e-07
3.10245e-06
1.70512e-07
2.94713
0.00300285
0.000718143
9.28503e-05
3.98674e-05
318.692
158
126.047
163.946
188.951
140.252
197.656
142.653
100.107
81.2077
1.73247
273.254
275.053
276.231
266.256
252.457
248.282
223.097
207.527
188.584
126.112
240.758
216.391
154.582
157.928
223.39
184.578
253.726
236.245
189.883
743.992
667.699
948.212
811.728
618.717
770.839
1128.89
1016.44
1093.49
905.959
1173.79
972.043
1048.81
1645.36
1600.37
1710.25
1534.17
1077
858.288
869.538
948.455
920.703
998.384
1024.81
1578.95
1397.02
1467.6
1507.56
914.77
822.892
898.798
732.197
970.645
778.421
848.95
1330
1317.89
1425.04
1229.39
951.861
855.994
698.531
583.914
351.474
556.813
889.923
529.205
513.587
733.487
457.111
442.804
611.111
412.023
458.034
935.656
825.237
1085.01
953.331
828.448
1080.71
937.906
818.445
749.45
984.724
817.229
855.284
716.69
942.671
663.874
616.679
804.993
666.528
699.288
591.681
761.983
540.95
527.46
648.748
552.799
572.927
501.237
610.369
276.062
243.812
765.5
687.392
608.598
559.043
689.654
608.726
766.158
1449.39
1674.75
1657.46
1462.63
1184.83
919.057
914.443
1194.23
910.588
922.639
777.028
1019.44
803.332
1050.86
884.424
746.339
544.575
648.926
582.099
669.733
596.262
725.728
1397.43
1528.82
1596.43
1340.51
1143.66
856.12
887.123
1098.9
672.938
627.341
565.253
495.482
702.702
601.537
542.845
1229.17
1462.59
1284.88
1399.53
1012.23
826.334
1056.42
794.838
777.171
774.572
645.257
849.599
680.11
895.65
737.108
639.996
475.45
545.894
495.481
572.775
518.506
608.521
1171.73
1267.74
1335.5
1110.65
965.845
724.002
761.056
915.893
552.68
524.687
474.279
431.513
579.52
507.153
454.855
972.371
1193.09
1043.6
1112.12
804.02
683.244
861.22
640.814
631.374
637.512
549.493
684.567
569.653
721.606
601.766
528.341
421.715
477.89
421.32
492.126
437.459
505.967
903.618
958.427
1032.03
841.353
749.105
563.471
600.201
699.604
730.01
891.813
785.347
826.701
492.044
510.264
421.714
481.534
464.834
553.324
431.986
651.075
619.437
734.616
552.783
181.015
361.318
138.886
123.596
326.313
168.663
257.334
857.639
805.103
742.236
667.324
624.552
847.06
778.457
696.376
630.114
589.824
530.976
510.67
446.445
773.616
672.083
543.576
747.607
519.449
507.103
464.176
454.244
429.695
700.744
659.088
676.257
687.117
703.103
708.928
695.508
693.161
642.638
703.995
670.72
685.639
618.003
665.772
617.579
678.049
572.757
657.58
547.87
582.128
663.122
666.716
668.243
535.08
567.074
624.525
577.706
644.712
651.694
608.273
553.617
607.355
493.965
633.064
538.63
584.813
582.27
477.736
509.484
537.127
521.979
558.806
562.702
536.151
500.477
520.842
446.22
548.198
492.548
507.803
526.126
438.683
475.771
483.29
485.388
496.115
513.671
121.85
8.37994
19.0777
0.0139843
0.042928
129.795
53.3015
121.213
47.1752
80.4362
29.4523
27.4225
0.0270396
11.9903
0.00463797
7.02483
0.00743982
1.10167
498.343
1125.2
164.35
92.5213
23.786
47.0814
12.1837
0.560747
0.00422472
472.453
1020.81
166.402
93.3568
23.6619
41.336
0.227289
0.257461
0.00257933
397.488
826.975
158.838
92.3732
22.397
24.8698
0.00487771
0.00279331
0.000629092
326.47
650.171
153.214
100.274
16.7377
18.5499
0.492084
0.000327999
0.000121872
233.098
377.267
158.636
88.582
64.1245
58.6805
0.23701
1.21325
136.536
238.902
65.5911
163.87
0.553776
15.4081
984.011
929.426
952.97
835.379
1004.63
301.184
490.836
952.809
294.334
1059.1
1055.02
986.776
138.993
164.216
139.83
20.0287
77.7465
46.1267
92.8384
20.5406
77.6162
46.0187
22.2984
36.7258
21.6106
23.7908
20.0969
35.9771
16.7209
883.467
791.072
925.833
286.668
446.926
804.404
276.628
880.417
140.184
164.786
139.035
20.7099
77.7937
45.8583
93.2087
21.3742
77.2214
43.9342
18.6113
35.411
13.4799
22.9026
12.0281
31.6646
6.49761
707.924
645.431
578.255
756.666
386.161
363.754
632.853
352.131
689.038
663.602
136.309
150.697
131.465
21.6652
75.0855
42.4073
90.5292
22.2012
69.8493
32.4856
9.43632
29.4184
2.60524
18.8593
2.80209
18.4548
0.689081
557.677
555.246
475.772
457.541
597.936
315.37
283.692
458.107
171.782
631.629
499.337
491.017
133.166
138.857
116.764
21.9373
58.2806
26.7649
77.2104
28.3328
37.6757
9.98958
1.74546
13.48
0.256924
18.9345
11.6577
4.78779
2.74853
83.9357
126.138
82.0764
160.377
174.684
91.4149
104.352
81.6768
77.5644
73.4406
179.799
181.772
106.314
130.196
270.841
93.4111
264.153
92.3863
236.924
95.1936
198.345
42.7767
151.46
54.839
287.142
287.924
242.946
229.282
155.468
271.087
245.035
226.534
155.498
288.745
277.664
244.611
194.419
153.683
251.82
236.783
209.003
150.431
266.163
253.623
218.718
175.874
146.012
219.109
204.291
182.226
139.678
237.029
223.679
187.916
148.521
142.074
176.201
173.162
118.058
119.406
1310.28
1165.41
1267.48
1112.6
1155.6
1254.27
1323.4
164.103
209.168
207.946
96.7861
141.273
140.248
97.158
26.9399
23.5835
33.2046
23.8348
23.4244
33.2072
27.1241
1162.54
1044.9
1168.43
981.32
1204.96
1000.9
1132.73
205.386
166.201
203.811
100.454
138.837
99.6544
138.131
24.3703
21.9679
32.8998
23.4888
25.3465
21.0892
32.5841
943.942
845.338
978.807
777.018
1003.14
797.063
918.901
154.976
191.66
185.231
96.9373
130.137
98.6685
125.158
17.7554
17.2096
30.2493
21.6354
19.856
15.4751
28.714
722.587
670.558
749.078
610.938
775.53
630.964
696.355
136.57
161.78
141.473
86.9353
106.497
89.7455
99.9754
7.29374
8.80585
20.4564
14.9889
9.47001
7.2444
17.1558
186.643
298.252
186.026
346.909
154.329
281.452
204.363
366.331
170.74
295.095
292.458
296.059
212.118
248.952
115.576
89.8776
67.9165
141.703
68.3962
144.478
114.737
2.27052
15.7222
87.8232
66.3863
10.1991
79.3883
5.56354
70.2435
8.09703
27.2354
81.6231
80.2713
9.13815
8.32034
925.492
852.184
1114.03
994.617
845.474
1103.87
933.255
298.781
458.627
456.169
735.348
287.384
284.104
744.759
1375.58
1724.31
1697.82
1394.72
909.968
974.658
813.564
1063.01
831.788
1083.96
890.561
449.921
290.371
442.774
716.148
271.355
277.702
694.044
1335.61
1591.71
1645.36
1290.08
1282.41
1135.36
1206.75
1057.89
1129.66
1199.65
1292.85
1982.33
1956.08
1922.86
2015.82
1932.75
1838.7
1816.66
1960.84
1277.24
1085.39
1085.95
1198.39
1122.92
1227.02
1242.28
1248.14
1023.47
1057.55
1131.72
1095.34
1166.33
1212.64
1908.49
1789.12
1857.06
1829.31
1860.92
1672.58
1748.64
1781.17
139.746
151.745
152.552
92.0703
99.4374
99.7522
91.974
206.432
165.479
205.812
96.9889
138.968
139.204
98.2392
153.234
140.366
154.684
93.2693
103.058
100.982
95.6419
45.3669
22.9872
39.4769
20.1454
22.9783
39.6942
45.0855
45.6609
20.3263
23.9853
40.0799
23.4121
39.8298
46.1171
23.4149
22.572
23.0782
21.9031
22.2471
22.6438
23.7677
26.6111
23.8223
22.6497
33.0926
23.1269
33.1578
26.0902
22.7549
21.1887
20.698
20.6395
21.6361
21.8487
21.7452
841.2
789.908
1040.21
892.286
867.855
761.825
1010.5
434.814
282.328
425.52
652.064
265.867
673.021
260.681
1209.27
1547.63
1249.47
1501.25
810.423
851.706
694.488
926.058
730.616
972.341
774.93
414.384
401.107
269.227
629.689
247.067
254.73
604.711
1166.83
1390.91
1450.21
1119.18
1699.68
1733.38
1762.43
1678.2
1112.26
933.482
896.705
1035.13
950.173
1087.22
1059.44
1635.41
1552.29
1619.51
1564.82
155.255
139.751
155.029
99.518
104.636
97.9393
105.786
200.86
162.218
196.805
100.458
133.954
136.574
99.8581
137.93
154.157
152.602
100.348
106.692
106.476
100.61
46.82
24.5103
40.2464
20.9039
46.4791
25.0068
40.3954
47.0912
21.1232
25.9198
40.3079
25.4844
40.4308
47.2938
18.6852
19.423
19.0045
16.7339
20.3831
17.8293
16.9559
23.1406
23.2456
18.7149
31.335
20.0053
32.0838
21.6425
16.688
14.5068
13.8545
11.9042
15.9524
14.5497
14.4535
693.258
656.464
875.068
711.019
735.222
620.198
821.148
369.765
260.2
249.542
544.627
237.092
576.361
224.854
994.772
1317.35
1061.87
1229.09
651.726
669.524
557.246
717.938
587.317
767.871
611.625
333.89
237.493
224.791
511.093
196.628
211.091
477.158
923.072
1041.16
1134.31
851.788
1384.4
1470.63
1481.54
1372.58
884.932
730.687
709.621
802.477
751.022
858.835
828.772
860.031
696.222
698.312
756.707
736.381
801.065
808.834
1280.87
1164.34
1267.33
1179.67
1231.21
1056.66
1140.27
1136.87
134.169
150.456
147.862
100.053
106.499
100.472
105.932
177.862
169.964
146.197
94.7538
112.946
119.288
92.3172
128.225
144.744
141.151
99.3712
103.952
105.054
98.5306
47.5207
26.2907
39.9652
21.9832
47.4364
26.6333
39.3226
47.4939
22.2071
27.1244
36.5764
26.9395
38.2527
47.1327
9.60323
11.6079
9.17531
6.90478
12.0619
9.30323
6.54169
15.2969
20.4902
11.1732
23.859
13.4731
26.6147
12.4621
7.17012
4.61398
4.93362
2.44376
7.03602
4.21137
4.87235
532.064
527.458
670.927
560.811
572.514
494.481
623.64
295.711
198.906
211.925
410.198
182.276
443.682
168.384
718.009
954.196
783.763
871.963
480.434
513.737
407.73
487.899
453.389
562.66
419.276
247.654
272.078
184.841
369.143
138.514
153.182
322.053
637.417
647.329
769.922
540.18
710.369
662.459
713.973
596.434
759.783
624.759
669.567
996.203
1067.75
1085.49
976.274
968.15
980.342
1050.46
906.457
653.018
561.094
516.429
543.512
580.228
628.285
565.097
643.263
549.616
513.147
525.93
575.486
606.542
557.1
880.557
725.248
861.497
741.908
857.627
677.135
803.875
722.873
121.078
124.59
137.188
96.3718
102.615
97.4694
101.648
144.974
133.997
133.292
85.039
89.7152
93.2633
88.3146
129.526
130.159
118.642
96.9466
106.659
102.718
102.58
44.9218
27.2067
34.1296
21.6707
46.2554
27.7217
31.0238
43.8236
23.6127
38.3677
33.7783
30.7079
29.7746
46.9706
2.32988
3.30593
1.45259
1.606
3.07041
2.59357
1.37494
7.86166
15.0532
13.7783
22.6919
7.6761
16.3145
17.1514
5.0641
4.10437
12.2294
14.8579
4.6841
4.47139
15.6714
120.814
81.9758
68.8061
134.604
73.5438
131.688
115.081
116.246
75.3716
88.48
99.9632
83.8918
111.429
104.217
115.11
86.9952
65.496
137.002
67.6788
142.452
113.174
107.323
71.197
75.122
96.7372
69.8294
108.298
95.4481
106.587
68.6738
73.8478
92.958
69.2682
105.989
94.1548
20.0606
22.3153
0.0264714
17.5092
0.50707
0.0111907
10.9342
0.00842178
0.00076817
3.15286
0.438198
0.000107713
75.6209
67.6917
0.669084
161.05
11.1158
25.5021
18.5379
24.6711
22.8482
12.8902
18.9958
21.6387
31.6384
19.2923
4.87311
38.7022
4.68667
19.9507
1.5361
34.4458
19.9542
0.420404
25.5375
11.5826
23.0401
2.44351
15.2371
73.3887
178.886
123.874
25.3911
19.4895
22.2349
19.7798
19.342
21.9113
25.5848
23.2318
18.5031
19.27
16.2179
24.0569
17.9837
17.7775
16.8502
15.3208
11.6426
8.8348
18.9886
13.9206
9.25139
6.20693
7.7421
2.8214
2.51448
8.3389
6.35643
2.1508
110.449
69.6864
62.9157
130.228
60.7117
124.414
111.104
51.6574
24.8229
15.1199
71.6762
65.5329
4.82899
11.6606
25.093
19.2882
18.8959
20.4573
19.1625
21.333
24.6682
22.138
14.6676
16.4219
13.9156
17.2966
15.9829
20.7367
30.8607
18.6961
17.8505
37.3639
17.7908
37.3257
30.1438
27.4978
17.8416
37.2075
19.5745
29.0744
17.6518
36.693
14.2861
6.6918
9.97094
4.5553
12.1372
6.83347
11.3487
25.234
19.8053
15.9244
33.5751
17.0667
35.5799
22.1808
14.7845
14.1534
30.5051
19.3504
18.4149
12.5459
26.6086
6.45697
4.37124
12.4749
14.2827
6.73665
4.54536
14.4685
13.1159
19.8837
16.0392
24.4854
12.4368
23.8109
17.4022
103.943
68.7115
73.2186
91.3333
70.2197
105.211
88.9626
372.779
137.112
187.087
323.27
173.194
249.222
275.745
416.283
173.897
203.578
429.012
209.191
312.747
302.433
194.554
393.812
154.3
166.987
418.807
205.133
308.981
92.8346
112.225
112.735
69.5595
79.2079
79.4106
69.3535
45.3636
69.4637
69.0123
46.4177
20.5197
45.6647
17.7283
0.490321
0.311313
10.8264
35.5108
11.1968
34.1429
9.01949
93.3537
112.894
112.629
70.9503
81.6612
70.6902
82.1947
66.3635
34.5466
71.2316
45.0408
15.8742
40.4513
8.23895
7.96215
0.055187
2.99618
33.132
7.64966
27.229
2.93381
91.6008
110.612
109.204
70.5823
82.328
70.9669
81.6866
53.5825
7.7657
57.1817
37.5081
5.53687
23.1279
0.648138
0.217296
0.0307511
0.976947
24.0614
1.71238
11.3519
0.166613
85.1622
87.5652
102.608
66.7042
78.1308
68.1766
77.0811
0.0844396
3.51705
40.5813
16.8683
0.23607
2.45661
0.0213138
0.00279284
0.00357434
0.0624735
6.86761
0.0606476
0.909017
0.00448432
148.217
140.946
137.351
135.416
116.476
112.824
148.125
55.3847
40.8938
75.1829
38.3652
73.767
51.1822
52.0647
106.274
193.6
166.568
225.298
195.334
162.287
119.235
208.963
148.208
173.773
233.098
201.965
167.925
125.538
8.2726
125.017
51.4622
169.01
97.1714
67.6987
29.7354
110.948
127.776
36.6309
174.395
100.923
86.3587
34.5262
112.659
93.2941
113.043
69.8259
80.9654
80.011
70.3671
92.8943
112.22
111.592
71.1034
82.5992
82.5324
71.1196
89.1904
107.344
105.122
69.9692
79.5204
80.7174
69.176
95.9189
98.1501
81.7462
65.1596
81.2519
78.0015
64.5054
109.155
112.816
127.12
124.342
107.407
114.864
109.016
92.963
112.246
112.356
178.797
120.493
176.634
119.19
90.4179
111.861
110.777
171.868
116.375
164.812
112.415
86.951
109.073
106.367
156.047
106.324
145.994
96.1805
85.1434
70.8339
112.871
132.999
78.8197
100.394
31.7323
82.219
162.031
126.28
154.795
105.712
105.327
37.2695
0.593102
12.4783
86.1599
83.3264
14.9756
16.9706
0.560541
174.063
228.306
157.57
259.394
176.401
231.011
224.75
71.4128
93.3776
87.7248
65.5423
87.1845
61.2393
62.4055
75.883
47.9525
78.5163
57.0073
83.2063
57.972
54.329
47.9949
35.2841
52.085
53.5546
36.8397
72.1728
49.9051
1.11668
0.701048
21.1934
33.282
12.8915
31.927
11.5254
18.6903
0.11706
14.6325
28.8798
8.58151
23.7805
4.82081
0.497715
0.0620355
2.12083
16.6083
1.72471
8.22045
0.144955
0.00273583
0.00511079
0.106157
7.69095
0.052331
1.56824
0.00361541
45.3939
33.5762
50.6825
48.9862
31.7309
64.3398
42.127
108.411
104.101
80.4595
49.125
32.4126
58.8707
31.1023
61.255
38.9775
36.2769
6.82168
1037.06
895.848
652.592
545.096
396.758
206.741
1289.46
374.059
954.683
1164.1
382.194
899.67
926.219
1033.96
278.86
873.945
883.665
283.995
752.838
710.989
686.609
282.472
707.862
631.258
280.124
602.738
602.819
573.357
569.437
273.518
573.414
267.901
450.336
551.861
463.226
216.12
321.245
330.689
307.918
312.142
284.201
292.026
313.653
307.581
295.249
295.685
297.525
286.278
292.828
296.769
276
275.039
1315.91
1075.45
1069.19
1218.05
1053.12
1045
1238.21
377.987
240.477
248.026
358.197
513.745
515.039
353.254
1230.05
1029.45
981.82
1174.92
979.675
1014.53
1129.08
257.742
270.156
386.087
363.246
513.32
514.538
371.208
1104.77
874.057
932.72
1032
943.386
1084.5
896.722
283.084
386.69
383.837
372.669
507.378
374.665
496.415
956.773
759.576
812.287
968.541
786.433
841.551
902.907
283.416
378.284
371.572
365.666
466.22
482.435
355.783
781.651
825.138
718.979
794.43
739.604
842.17
702.112
281.476
364.547
357.144
335.02
449.178
345.048
432.61
658.166
711.38
744.828
755.953
641.283
670.569
720.482
277.396
349.721
341.823
326.272
403.192
417.613
317.302
602.732
635.297
676.035
643.563
611.542
684.154
577.51
269.949
332.865
323.38
294.643
387.528
306.895
369.379
271.685
313.989
309.179
281.352
331.165
348.498
274.104
325.846
251.992
258.313
266.157
276.898
336.443
289.146
340.349
341.663
293.89
340.636
338.2
296.067
334.966
330.928
294.233
326.008
320.536
293.118
314.882
310.086
302.089
307.883
308.756
332.138
384.445
320.922
892.482
984.867
812.626
945.691
976.128
807.355
901.122
872.902
923.92
923.975
780.777
951.633
794.892
853.665
798.078
895.286
761.282
841.051
829.865
857.849
734.847
756.351
799.362
761.29
662.5
811.679
701.601
708.059
626.243
714.506
624.228
667.323
663.137
675.155
591.218
597.546
633.151
613.132
539.638
642.195
563.933
571.77
514.34
584.277
514.926
540.189
544.838
551.134
486.041
478.009
498.54
462.082
412.244
510.35
451.018
204.714
221.553
3.27211
0.019636
0.000831964
1.87435
0.00722825
0.0670307
0.00134472
0.00274611
1.91917
0.00367205
1.44192
0.00402584
0.144084
0.00231571
0.00309523
1.47938
26.4305
11.072
69.7828
2.13676
0.0157598
14.2275
73.0287
1.32958
0.0542501
73.5994
4.52596
0.0436407
0.00264497
1.54495
0.00353049
0.657756
0.0121556
0.300173
0.00180819
6.50739
47.2349
0.734028
0.0463307
34.3097
2.45774
0.134871
4.13753e-05
6.37603e-05
0.000306589
0.00270659
0.00509485
8.4432e-05
0.00101641
0.00025269
0.00688817
7.5693e-05
9.44996e-05
0.000756817
0.000631156
4.78936e-05
2.45865e-05
0.000266872
0.000297583
2.18689e-05
1.3011e-05
5.94435e-05
7.12273e-05
6.55469e-06
4.24816e-06
2.27481e-05
1.57778e-05
1.85547e-06
9.47735e-07
6.30706e-06
7.15153e-06
3.31747e-07
3.82482e-07
0.000340335
3.34538e-05
0.000148494
1.67524e-05
6.51558e-05
5.48523e-06
1.63142e-05
1.0378e-06
8.5802e-06
4.69572e-07
4.77185e-05
3.19912e-06
1.44887e-07
8.79364e-05
7.21221e-06
4.33878e-07
2.14198e-08
1.40149e-05
3.22781e-05
1.2694e-06
2.50042e-06
5.79943e-08
1.10319e-07
3.53929e-05
8.55427e-05
2.48693e-06
5.7067e-06
1.44188e-07
3.2677e-07
6.8756e-09
1.54394e-08
1.07917e-05
165.161
245.465
181.571
480.242
471.421
357.787
274.848
399.924
260.092
310.733
258.92
304.101
135.762
163.363
257.905
151.07
256.466
268.328
176.089
528.612
534.542
587.6
595.212
484.712
535.955
539.654
360.311
393.718
387.543
320.394
213.54
149.122
201.797
236.772
194.59
240.985
172.783
437.744
404.402
361.88
319.452
325.704
408.875
373.99
360.356
288.283
305.63
294.613
299.246
323.108
286.538
308.196
335.79
403.796
371.07
357.544
374.167
361.216
334.588
283.278
222.838
273.704
278.275
298.645
282.393
257.905
144.802
321.336
250.939
595.967
699.237
708.277
669.999
623.517
615.481
597.698
565.739
572.861
702.099
634.643
639.546
658.153
698.721
670.791
660.441
641.678
640.12
604.416
626.92
619.119
650.977
601.379
582.977
605.853
592.666
577.13
638.683
588.232
628.153
557.918
587.301
572.384
567.214
603.012
553.657
768.598
740.108
742.073
756.268
768.259
728.318
715.911
710.489
677.358
651.837
654.103
686.761
713.944
686.117
769.831
740.852
721.543
761.293
742.896
711.385
725.548
872.883
814.642
804.56
806.462
820.07
871.91
885.484
643.436
620.579
643.717
626.794
625.367
606.216
609.484
246.347
169.907
221.479
235.005
235.889
267.81
219.61
257.349
210.867
243.692
0.802416
0.36264
0.00322076
0.000191909
296.925
310.362
314.031
292.884
300.737
319.617
316.596
305.779
311.753
321.721
309.205
322.699
313.171
320.296
322.159
314.028
314.949
317.551
314.669
314.251
314.519
306.219
310.37
313.062
311.903
302.271
311.378
299.99
315.343
302.178
301.623
312.586
4.18149e-05
0.000903949
5.39214e-05
0.000310359
2.5397e-05
6.25716e-05
6.66749e-06
1.77011e-05
1.6095e-06
3.73386e-06
1.95666e-07
7.90787e-06
4.69965e-07
2.40646e-08
8.19943e-07
4.7492e-08
2.42333e-09
285.8
275.247
264.818
51.5545
10.6182
19.9216
5.28829
2.87116
0.31265
10.0147
9.45468e-05
0.00146281
1.72471e-05
0.000861698
6.99287e-06
1.85033e-05
2.00221e-06
7.88702e-06
4.78448e-07
781.022
852.862
821.999
806.611
861.432
784.871
831.589
700.101
779.755
713.952
732.73
753.989
797.364
753.506
607.912
594.308
587.068
602.694
591.429
578.958
584.688
643.742
647.587
675.334
668.128
695.447
710.546
678.454
782.826
795.354
854.547
755.064
763.15
734.636
721.637
943.634
960.32
1041.77
955.943
965.98
1034.51
1033.3
998.577
947.533
885.218
932.046
894.148
996.295
954.229
607.572
606.209
625.77
623.378
644.567
652.035
628.003
826.448
756.56
797.395
741.32
718.104
705.241
722.531
844.939
857.658
935.468
912.493
922.026
995.091
996.949
838.851
787.906
838.954
857.346
810.876
915.132
865.977
654.358
730.875
769.873
734.972
695.88
666.438
683.752
745.291
743.761
786.274
764.233
724.636
812.694
763.743
659.5
622.839
598.634
696.287
661.566
633.072
604.379
902.607
892.801
809.758
870.382
861.295
927.935
962.319
986.902
1042.35
1028.26
1021.24
1032.35
1040.86
1037.09
559.055
554.536
558.355
581.342
573.827
568.403
573.595
782.215
839.795
830.904
788.834
851.893
894.616
800.639
702.191
743.117
704.299
759.559
804.688
757.133
716.452
680.407
678.654
708.822
690.865
660.743
723.445
689.815
608.478
580.911
565.933
610.506
634.08
582.24
564.056
916.522
968.101
989.141
1003.92
953.694
971.316
1003.87
571.012
591.44
589.238
583.23
604.097
607.236
586.016
282.802
289.283
271.446
253.298
294.41
296.334
286.591
295.479
288.574
277.619
285.797
274.655
264.631
270.546
319.504
314.036
305.1
295.797
314.631
307.376
317.609
320.27
295.823
314.149
309.27
314.247
308.172
321.332
320.852
312.714
309.125
293.773
321.286
310.936
308.289
319.843
291.308
306.847
304.639
308.824
306.734
318.637
316.28
305.045
302.26
282.807
317.556
303.071
299.477
314.327
279.141
296.262
292.181
300.178
296.063
311.616
308.166
292.597
288.311
269.143
308.471
292.275
286.667
269.151
230.11
309.642
272.18
276.171
287.358
292.932
289.019
298.752
248.921
169.539
143.685
69.2104
0.000288557
2.34999e-05
2.66756e-06
215.999
204.648
172.891
146.119
111.327
188.703
213.52
186.505
179.42
194.897
163.014
155.647
157.786
126.892
117.867
141.366
106.11
44.5793
90.5232
123.969
151.846
164.277
149.585
161.193
140.11
136.969
135.661
124.845
118.272
109.578
123.91
84.9432
110.867
61.084
99.5374
33.2141
7.90628
34.4944
85.5077
63.0055
34.7099
0.00201275
7.16391e-05
9.00128e-06
6.3728e-07
3.71948e-08
69.5008
0.00807705
5.29354e-05
17.6731
0.000282918
7.08728e-06
0.172483
6.74836e-05
1.55818e-06
4.79035
0.00103739
1.5919e-05
113.763
0.00366933
0.000253756
0.964595
0.000504669
9.11532e-06
6.52043e-07
3.98526e-08
2.05775e-09
5.24991e-05
6.87833e-06
6.17616e-07
4.49119e-08
2.86785e-09
1.55575e-10
3.08704e-06
3.61601e-07
3.3364e-08
2.55594e-09
1.7176e-10
9.64792e-12
0.00157662
0.00504173
3.11792e-05
0.000541234
2.91039e-06
6.81957e-06
2.00818e-07
4.75121e-07
1.18178e-08
2.81437e-08
5.92027e-10
1.41029e-09
1.93787e-05
2.94326e-05
2.00251e-06
4.65557e-06
1.78043e-07
4.28334e-07
1.273e-08
3.08796e-08
7.93622e-10
1.93612e-09
4.19916e-11
1.03251e-10
8.36871e-07
1.95585e-06
9.94441e-08
2.3757e-07
9.18837e-09
2.22596e-08
6.94812e-10
1.6969e-09
4.5589e-11
1.12839e-10
2.44036e-12
6.2623e-12
0.00037784
9.33519e-06
8.68461e-07
4.61545e-06
5.71664e-07
5.11477e-08
2.44068e-07
2.93496e-08
2.72325e-09
89.5419
1.04595
4.02948
0.000994278
0.000624594
0.00778398
0.000101882
4.10726e-06
9.5565e-06
56.3722
0.0609931
3.28454e-05
147.382
0.0302336
0.000106251
155.172
5.09476
0.000149231
5.9324e-08
3.69309e-09
1.94765e-10
3.79604e-09
2.4497e-10
1.32367e-11
2.08945e-10
1.37969e-11
7.07708e-13
0.332796
0.000320401
1.58671e-05
110.609
0.00382848
4.23223e-05
0.375633
0.000230496
6.41042e-06
4.35116e-07
2.66305e-08
1.41882e-09
0.00011888
5.69217e-06
4.63926e-07
3.27063e-08
2.1028e-09
1.1636e-10
2.81842e-06
3.05154e-07
2.65137e-08
1.99913e-09
1.34911e-10
7.64327e-12
0.00251785
0.000100486
2.03767e-05
1.83288e-06
1.13686e-07
6.28203e-09
0.000133799
3.20399e-05
3.47632e-06
2.1949e-07
1.35528e-08
7.42442e-10
2.79209e-05
3.60289e-06
2.61158e-07
1.80102e-08
1.16401e-09
6.51021e-11
1.94247e-06
1.90612e-07
1.57835e-08
1.17296e-09
7.86947e-11
4.43191e-12
455.915
434.796
437.468
334.067
335.622
343.799
346.195
641.609
673.288
645.82
655.364
688.394
721.623
683.843
627.887
624.216
651.178
633.891
608.291
659.785
631.16
539.86
521.353
536.371
538.951
515.051
513.78
516.348
838.982
888.419
932.586
920.263
877.351
937.66
897.37
746.223
791.603
840.429
827.615
775.867
850.151
799.722
447.965
429.53
421.048
331.996
342.79
328.067
340.215
538.746
556.435
573.588
553.32
568.011
588.88
547.688
675.167
709.411
747.476
730.318
692.72
751.434
709.304
526.127
549.509
523.722
531.954
559.464
534.234
562.098
598.434
621.164
603.632
628.757
657.635
597.706
629.212
426.811
412.107
402.084
323.131
336.761
332.266
316.467
575.602
563.094
595.575
549.999
569.646
580.889
601.97
396.491
390.778
380.196
326.838
321.63
308.531
300.5
143.408
165.84
0.000271282
1.11236e-05
1.12769e-06
5.6446e-08
7.01795
0.0177835
1.48422e-05
1.95003e-06
1.19702e-07
6.1947e-09
5.79531e-05