/*--------------------------------*- C++ -*----------------------------------*\
  =========                 |
  \\      /  F ield         | OpenFOAM: The Open Source CFD Toolbox
   \\    /   O peration     | Website:  https://openfoam.org
    \\  /    A nd           | Version:  9
     \\/     M anipulation  |
\*---------------------------------------------------------------------------*/
FoamFile
{
    format      ascii;
    class       volScalarField;
    location    "0.00275";
    object      alpha.c4;
}
// * * * * * * * * * * * * * * * * * * * * * * * * * * * * * * * * * * * * * //

dimensions      [0 0 0 0 0 0 0];

internalField   nonuniform List<scalar> 
21496
(
5.91783e-05
1.59852e-05
1.48413e-09
2.06111e-06
1.60585e-13
2.42484e-13
5.14847e-15
2.3114e-15
0.000466995
0.00361874
0.000129277
4.62695e-05
1.86361e-12
5.887e-13
6.54857e-14
1.8213e-14
0.00672555
0.00011119
0.00240385
0.000126077
0.00253066
0.000504707
0.00690235
0.000193585
0.000352092
0.00634148
3.43627e-05
0.00104936
9.63669e-05
0.0022084
0.0015459
6.87671e-05
0.00165009
5.72085e-06
4.36579e-06
0.000602409
0.000548521
0.000631292
5.01682e-05
0.0011756
3.34602e-06
0.000392926
6.60075e-07
0.000289133
0.00687095
0.00502605
0.00514334
0.00324482
0.00333744
0.00243852
0.00236578
0.00690044
0.00517115
0.00516758
0.0033709
0.00336341
0.00245959
0.00246725
0.00564525
0.00471243
0.00413984
0.00302849
0.00266154
0.00219393
0.00189987
0.00468495
0.00251806
0.00335828
0.00165124
0.00217603
0.00151517
0.00111335
0.00251867
0.00370087
0.00369105
0.00170697
0.00113154
0.00112317
0.00171607
0.00356196
0.00249016
0.00366335
0.00168635
0.00105585
0.00110448
0.00162601
0.00331021
0.00188141
0.00286552
0.000956077
0.00149224
0.00127097
0.00079931
0.00321635
0.00139344
0.0180283
0.00339584
0.0187304
0.000794647
0.00072814
0.00567417
0.0053037
0.00294738
0.00840019
0.0144557
0.000646342
0.00069983
0.00482426
0.00358464
0.0188182
0.0129792
0.0128955
0.0113142
0.0112648
0.00760026
0.00764634
0.0185574
0.0123111
0.0127379
0.0108188
0.0111551
0.00750412
0.00723892
0.016742
0.0113479
0.0100196
0.00971299
0.00862534
0.00664959
0.00566661
0.0114454
0.00555633
0.00762626
0.00497241
0.00680739
0.00442645
0.00320273
0.00870484
0.00562608
0.00863813
0.00496808
0.00317019
0.00314505
0.00500391
0.00337854
0.00641535
0.00638668
0.00421306
0.00218429
0.00423828
0.00217032
0.00819166
0.00553369
0.00851247
0.00489363
0.00295521
0.00309166
0.00469873
0.00611322
0.00333725
0.0063189
0.00415597
0.00204587
0.00399743
0.00213687
0.00750118
0.00406077
0.00636868
0.0026742
0.00428426
0.00361671
0.00223541
0.00563765
0.00250291
0.00482698
0.00185539
0.00365298
0.00309188
0.00155502
0.0022434
0.00495935
0.00313304
0.00279721
0.00121186
0.00171038
0.00200413
0.00194474
0.00274447
0.00378635
0.00239618
0.000841382
0.00171685
0.00119122
0.00268059
0.00134698
0.000788062
0.00165665
0.00164384
0.00269941
0.00133706
0.00263754
0.00124841
0.000770959
0.00153546
0.00161356
0.00252347
0.00131242
0.00112065
0.00137891
0.00228635
0.00191419
0.000526958
0.00114134
0.000927048
0.0014655
0.00166446
0.00227604
0.000989959
0.000423179
0.000608311
0.000706901
0.000486527
0.00103801
0.000602796
0.000863118
0.00026659
0.000391024
0.00146614
0.00136606
0.000493062
0.00142072
0.000998537
0.00031073
0.00095699
0.000329249
0.000143055
1.17331e-07
5.34454e-09
2.38377e-05
1.68905e-07
8.2171e-09
2.87889e-05
0.00144089
0.00050959
0.00144872
0.00101437
0.000341528
0.00102138
0.00033768
0.0016395
0.00102381
0.00101586
0.000704953
0.00069851
0.000408281
0.000412736
0.000945963
0.00161436
0.000996149
0.000646714
0.000683321
0.000397119
0.000371707
9.25758e-05
1.59231e-08
5.62499e-08
5.44815e-06
5.16088e-10
3.71587e-09
1.96456e-05
0.000419981
0.00108003
0.00125467
0.000277143
0.000871826
0.00073757
0.000228509
0.000698522
0.00140252
0.00084717
0.000576716
0.00047263
0.000325942
0.000261445
0.000672124
0.000124176
0.000422392
0.000214481
0.000417538
0.000678424
0.000211615
0.000272135
0.000633422
0.00086093
0.000571566
0.000118157
0.000405801
0.000172003
0.000658562
0.000192487
0.0003828
0.000119914
0.000406777
0.000626156
0.000205449
0.000898989
0.000524433
0.000361149
0.000238097
0.000351337
0.000189715
0.000125378
0.0404514
0.0133674
0.0963019
0.0285676
0.0297977
0.0909069
0.00962927
0.00900347
0.036888
0.0265665
0.0396992
0.0834984
0.00821256
0.00388288
0.0332287
0.015358
0.0952687
0.073325
0.0667442
0.0723643
0.0662096
0.0485726
0.0490708
0.0940027
0.0636657
0.0683708
0.0711191
0.0655333
0.0479069
0.0462892
0.0705398
0.058984
0.0623916
0.0524766
0.0505094
0.0426003
0.0362726
0.0545131
0.0289282
0.0294564
0.0404921
0.0395495
0.0283144
0.0206784
0.0549616
0.0397753
0.0541355
0.0350084
0.0250659
0.024742
0.0354235
0.0293727
0.0434263
0.044638
0.031868
0.0198886
0.030841
0.0205543
0.0453369
0.0296393
0.0450499
0.0322696
0.0209573
0.0325415
0.0208063
0.0388116
0.0506644
0.0530078
0.0344236
0.0232163
0.0242627
0.0330954
0.0403708
0.0229547
0.0348066
0.0183667
0.0284776
0.024391
0.0157505
0.045934
0.0276729
0.0384534
0.0211008
0.0302677
0.0256253
0.0177547
0.0201788
0.0181789
0.0274755
0.019162
0.00906597
0.0140279
0.0123932
0.0214943
0.0212346
0.0296076
0.0199288
0.00996238
0.0137398
0.014515
0.022642
0.0157066
0.0143862
0.00953921
0.0155382
0.022865
0.014264
0.0223003
0.013543
0.00938186
0.0146497
0.0152695
0.0214845
0.0140566
0.0124301
0.0133638
0.0197181
0.0167817
0.00693997
0.0112957
0.0105845
0.414277
0.533456
0.33888
0.452897
0.431128
0.482093
0.38502
0.342073
0.516375
0.508319
0.490236
0.510117
0.493847
0.466752
0.483629
0.476708
0.386324
0.449177
0.39382
0.455447
0.428062
0.367588
0.437544
0.409832
0.478937
0.42271
0.461654
0.436711
0.395656
0.36391
0.390002
0.422981
0.400564
0.317072
0.344519
0.365
0.467104
0.447405
0.433823
0.418207
0.454258
0.438916
0.404429
0.372122
0.346152
0.400976
0.403392
0.320677
0.37252
0.34663
0.422226
0.339999
0.37784
0.40742
0.32773
0.371624
0.364575
0.302373
0.336409
0.262942
0.295131
0.292391
0.322418
0.374396
0.275252
0.0535539
0.0681491
0.139768
0.291335
0.128999
0.301544
0.0604297
0.246131
0.114741
0.116555
0.228974
0.0536584
0.0240405
0.179389
0.071041
0.375019
0.34516
0.363848
0.334151
0.284048
0.252302
0.25963
0.340126
0.246142
0.275951
0.311667
0.270008
0.238828
0.21701
0.250781
0.197171
0.210212
0.178482
0.167094
0.185044
0.146557
0.31224
0.265162
0.301606
0.220104
0.193893
0.187062
0.227289
0.205617
0.137671
0.201454
0.170165
0.111853
0.109857
0.174272
0.150582
0.0952366
0.0993797
0.13382
0.126802
0.10999
0.0810779
0.134836
0.182568
0.194723
0.16368
0.101834
0.152668
0.107101
0.280688
0.217189
0.248177
0.207469
0.158203
0.17556
0.187798
0.16077
0.0964794
0.130084
0.0915191
0.134046
0.108351
0.0755784
0.205492
0.137925
0.159008
0.134081
0.159736
0.126083
0.105446
0.0724952
0.0734912
0.0983593
0.0816053
0.0417605
0.0595587
0.057508
0.0849575
0.100279
0.117264
0.0937263
0.0554217
0.0777475
0.0678785
0.141335
0.118309
0.0881508
0.0665927
0.114732
0.0863538
0.145235
0.135296
0.0643581
0.0791928
0.100781
0.10931
0.125485
0.0838145
0.0707525
0.0876989
0.109738
0.0885667
0.0440219
0.070605
0.05826
0.0664954
0.0320339
0.0333834
0.0378786
0.0528392
0.048087
0.0442771
0.0131151
0.00601492
0.00538204
0.00635461
0.00877103
0.00955947
0.00827301
0.64654
0.614888
0.627926
0.456087
0.558835
0.527135
0.577513
0.377435
0.542375
0.634016
0.649285
0.638433
0.61499
0.572121
0.633385
0.599951
0.609655
0.626928
0.605725
0.587489
0.614848
0.612481
0.593349
0.638353
0.64409
0.644154
0.628445
0.636265
0.627701
0.636014
0.623856
0.573699
0.595557
0.57217
0.590299
0.605893
0.541473
0.585245
0.54487
0.576249
0.555577
0.537206
0.56599
0.523049
0.642144
0.637565
0.643878
0.618221
0.625281
0.634945
0.631346
0.649027
0.647773
0.647718
0.642258
0.640877
0.640553
0.641708
0.645844
0.648302
0.647319
0.639517
0.6376
0.63679
0.640384
0.513802
0.511536
0.55411
0.529371
0.43059
0.482172
0.488557
0.565684
0.598425
0.572188
0.547414
0.538854
0.594529
0.573137
0.61592
0.597162
0.614307
0.626522
0.614217
0.625707
0.612802
0.545884
0.560584
0.557386
0.471781
0.515765
0.583772
0.50742
0.512537
0.478174
0.510966
0.531269
0.46537
0.501326
0.4973
0.597421
0.589265
0.609283
0.623258
0.599608
0.608659
0.617069
0.623147
0.621497
0.632103
0.631379
0.622071
0.620364
0.632541
0.629489
0.626921
0.611991
0.619592
0.61757
0.625339
0.630622
0.502732
0.405408
0.419295
0.433102
0.47204
0.45136
0.463321
0.621013
0.454163
0.54449
0.643093
0.624968
0.572215
0.402536
0.607891
0.54326
0.595545
0.188102
0.385542
0.286399
0.479509
0.118735
0.381118
0.637427
0.608245
0.628518
0.603325
0.623444
0.610165
0.578377
0.535996
0.562967
0.482263
0.561189
0.492575
0.428229
0.516658
0.642384
0.637632
0.636322
0.632802
0.631445
0.62314
0.625937
0.455857
0.311642
0.386519
0.356945
0.416461
0.341783
0.281255
0.615829
0.630245
0.627492
0.611964
0.606537
0.597961
0.617188
0.515272
0.341506
0.414943
0.355005
0.390799
0.282854
0.457881
0.594753
0.581864
0.614523
0.591074
0.496424
0.566208
0.542407
0.620975
0.602985
0.618119
0.607725
0.598364
0.59062
0.612827
0.575498
0.584225
0.605418
0.587671
0.503127
0.562509
0.542212
0.2464
0.244147
0.313911
0.26864
0.160657
0.205089
0.214296
0.521434
0.408033
0.449438
0.378165
0.418155
0.33374
0.46678
0.347818
0.331239
0.305226
0.304028
0.23107
0.270943
0.255397
0.594372
0.590345
0.556754
0.586521
0.575178
0.578179
0.60264
0.564023
0.447762
0.503684
0.454708
0.535288
0.535266
0.498488
0.303596
0.334097
0.350945
0.198175
0.26085
0.235723
0.401529
0.232167
0.138235
0.14638
0.167331
0.201618
0.172751
0.189564
0.127154
0.158648
0.340238
0.277097
0.166386
0.276796
0.213072
0.0816435
0.268185
0.313792
0.319453
0.245094
0.246712
0.296067
0.227192
0.206795
0.144194
0.188022
0.138116
0.185338
0.169879
0.126403
0.295382
0.21656
0.230338
0.258177
0.277912
0.213345
0.199185
0.299257
0.206948
0.227102
0.255899
0.277589
0.20975
0.190843
0.135454
0.165883
0.176542
0.159506
0.111024
0.118729
0.149128
0.120373
0.148065
0.104053
0.15306
0.0954092
0.136108
0.110494
0.236529
0.237407
0.259021
0.196151
0.161088
0.177074
0.181147
0.143258
0.0960785
0.0888448
0.115875
0.126565
0.103481
0.132788
0.000169695
0.000338941
0.0005631
0.000467218
7.60795e-05
0.000275356
0.000137346
0.000596957
0.000330765
0.00033427
0.00022244
0.000113966
0.00011231
0.000225296
0.000299322
0.000582765
0.000321242
0.000214985
9.85737e-05
0.000107846
0.000198865
0.000352522
6.65539e-05
0.000135435
5.39122e-05
0.000202492
0.000242428
0.000100515
0.00020693
0.000484753
0.000260499
8.35418e-05
0.000171463
0.000134669
6.42411e-05
1.08016e-05
2.33051e-09
1.35416e-05
5.55711e-07
2.94044e-11
1.79253e-11
3.75865e-07
6.75849e-05
0.000245698
0.000242423
0.00013103
3.41872e-05
0.000133006
3.35088e-05
0.000218389
6.47636e-05
0.000234732
0.00012612
2.85387e-05
0.000116035
3.18037e-05
0.000194587
9.71714e-05
0.000148539
9.54017e-05
2.79098e-05
4.44663e-05
6.14582e-05
9.82407e-10
1.01084e-09
8.6303e-06
1.17813e-11
2.63996e-07
1.24967e-09
1.45395e-12
0.000190151
3.84538e-05
0.000151253
2.35346e-05
9.94425e-05
7.75827e-05
1.73601e-05
0.000144974
9.23805e-05
9.09384e-05
2.97408e-05
2.90819e-05
1.64076e-05
1.68418e-05
7.09531e-05
2.62602e-05
0.000108643
5.44552e-05
6.52376e-06
3.45397e-05
1.12973e-05
0.000138526
8.13031e-05
8.77268e-05
2.48294e-05
2.75609e-05
1.54402e-05
1.37426e-05
6.59112e-05
1.51036e-05
5.55471e-06
3.10013e-05
3.04188e-05
6.69973e-05
1.47397e-05
6.30806e-05
1.20715e-05
5.1212e-06
2.57958e-05
2.88488e-05
5.73797e-05
1.37941e-05
0.000113772
7.05675e-05
5.59733e-05
2.0779e-05
1.58157e-05
1.12628e-05
8.28291e-06
6.87242e-05
2.54393e-05
3.99062e-05
6.55301e-06
1.07906e-05
5.37764e-06
3.06972e-06
9.60918e-06
2.11554e-05
4.82907e-05
3.67207e-05
2.24878e-06
1.55291e-05
6.78974e-06
4.65406e-05
2.66219e-05
5.09063e-05
7.70032e-06
2.85243e-06
3.35207e-06
6.72167e-06
2.8136e-05
5.41937e-05
5.31748e-05
8.27599e-06
3.79092e-06
3.65606e-06
8.53492e-06
2.49376e-05
2.29023e-06
1.30813e-06
5.77555e-06
1.00658e-05
1.51911e-05
4.20612e-06
3.95053e-05
1.45104e-05
3.02692e-05
2.18763e-06
5.34892e-06
3.77339e-06
1.4719e-06
1.24996e-05
9.45898e-06
2.06149e-05
2.31994e-06
4.27495e-07
8.54452e-07
1.24274e-06
1.31818e-05
5.58002e-06
5.40694e-06
1.4384e-06
1.37905e-06
4.32928e-07
4.54817e-07
1.23227e-05
4.25795e-06
4.98307e-06
1.0279e-06
1.2435e-06
3.82589e-07
3.05633e-07
6.1221e-06
3.27788e-06
2.21494e-06
7.56383e-07
4.82134e-07
2.14729e-07
1.29721e-07
3.79718e-06
6.5348e-07
1.29371e-06
1.22498e-07
2.62373e-07
6.69194e-08
2.98958e-08
1.25733e-10
1.81033e-12
6.88354e-13
5.46338e-13
1.67984e-10
1.76267e-10
2.6051e-10
3.33159e-06
1.60596e-07
3.21156e-06
1.52798e-06
7.01558e-08
1.59392e-06
6.65294e-08
2.52399e-06
1.43155e-07
2.94784e-06
1.38672e-06
4.7798e-08
1.16528e-06
5.89521e-08
1.95358e-06
5.30791e-07
1.8807e-06
1.10553e-07
2.59006e-08
2.44512e-08
1.16855e-07
0.00177763
8.12232e-07
4.93089e-08
1.82413e-14
5.41746e-16
0.00262206
2.81955e-05
1.92127e-13
3.74582e-15
0.00400277
0.000233776
0.000940948
0.000317732
0.00152762
0.000408938
3.25869e-05
0.000756954
2.36057e-05
0.000127434
2.27679e-06
1.9936e-05
0.000286686
0.00070422
0.0058728
0.00385617
0.00344737
0.00260505
0.00231939
0.00219973
0.00146426
0.00268667
0.00112769
0.00172883
0.000990184
0.00152968
0.000953262
0.000607305
0.00246642
0.00100827
0.00164864
0.0008136
0.00136215
0.00089553
0.000527036
8.77168e-06
8.99335e-05
0.000260324
2.91578e-07
0.000121854
9.28096e-06
1.0924e-08
0.00188187
0.000610526
0.00124662
0.000559577
0.00116365
0.000760851
0.000356685
0.00180347
0.00176929
0.00118418
0.00117062
0.000782871
0.000762695
0.000493884
0.000692576
0.000649908
0.00107957
0.000574151
0.000202813
0.00033178
0.000358959
0.000383879
0.000508366
0.00080559
0.000484041
0.000129989
0.000299629
0.00021937
0.00118961
0.000475114
0.000763126
0.000302093
0.000497823
0.000304892
0.000179606
0.000694511
0.000397104
0.000170187
0.000447195
0.000103164
0.000250856
0.000198068
0.00114079
0.000451164
0.000746421
0.000273711
0.000470006
0.000295651
0.000167278
0.00471504
0.00710279
0.00647848
0.028322
0.00267399
0.0107963
0.00357931
0.000759797
0.0202134
0.020497
0.0209408
0.0148444
0.0144117
0.0146104
0.0102139
0.0101276
0.0104116
0.0144938
0.0074731
0.0105384
0.00711361
0.0049292
0.00991308
0.00940139
0.0142476
0.0063416
0.00986671
0.0068223
0.0043379
0.0152097
0.00751505
0.0106941
0.00696733
0.0102137
0.00708962
0.00479265
0.340123
0.0667233
0.0473116
0.562621
0.609846
0.497027
0.555061
0.39507
0.479117
0.217269
0.211248
0.386064
0.14438
0.180194
0.100716
0.115611
0.0324056
0.0579025
0.0984146
0.122322
0.087395
0.0576132
0.0277843
0.0216095
0.601242
0.596612
0.583823
0.593812
0.581161
0.56168
0.57874
0.569021
0.443742
0.538238
0.444312
0.536374
0.503058
0.39133
0.271755
0.319465
0.212311
0.323997
0.220103
0.169823
0.264179
0.18987
0.11126
0.145639
0.120259
0.154732
0.116882
0.0906866
0.540929
0.581036
0.563757
0.539401
0.53932
0.51376
0.560838
0.575685
0.53526
0.559197
0.537353
0.534429
0.510376
0.5582
0.111558
0.0950408
0.10342
0.0870995
0.0948037
0.0782469
0.0719281
0.468193
0.390204
0.504156
0.467611
0.295196
0.430515
0.341242
0.502671
0.468874
0.351024
0.467576
0.30271
0.431804
0.344467
0.127977
0.260466
0.164807
0.131067
0.172787
0.213954
0.101471
0.272233
0.149013
0.23016
0.137426
0.18372
0.219688
0.112197
0.0860758
0.0861067
0.111838
0.0887822
0.0526621
0.0677833
0.0689461
0.512156
0.511599
0.509447
0.44756
0.481417
0.48273
0.537172
0.127552
0.084183
0.105728
0.094647
0.0603686
0.0769559
0.0740956
0.104937
0.0768875
0.0820641
0.0833433
0.0891464
0.0677201
0.0632737
0.0741758
0.0535364
0.0683044
0.0457454
0.059713
0.0550348
0.0422413
0.0732712
0.0671015
0.0802237
0.0522756
0.064222
0.0590078
0.0478364
0.430604
0.254382
0.258166
0.351631
0.392735
0.391632
0.297613
0.105217
0.141402
0.146066
0.064676
0.176595
0.0849621
0.0808928
0.0708801
0.0414214
0.043952
0.0422458
0.0567065
0.0535084
0.0551618
0.0505852
0.0603352
0.0644558
0.0518585
0.0370982
0.0398109
0.0484019
0.069892
0.0625588
0.075214
0.0553765
0.041131
0.0446255
0.0514607
0.0358375
0.0378811
0.0477831
0.0439322
0.025312
0.0346141
0.0329359
0.0412356
0.0286064
0.0297133
0.0235406
0.0322706
0.0308842
0.03828
0.0153928
0.0419112
0.0387534
0.0882811
0.016973
0.0502583
0.0250692
0.00590649
0.0686138
0.0721842
0.0743488
0.0553808
0.0562444
0.0600915
0.0450531
0.0536222
0.0332079
0.0428346
0.032734
0.0428699
0.0340593
0.0258103
0.0536674
0.0282745
0.0402402
0.0300013
0.0434677
0.0320579
0.0216639
0.0617673
0.0358963
0.0454047
0.0392803
0.0491725
0.0359739
0.0280319
0.0232043
0.0304854
0.0208142
0.0238474
0.0114603
0.0177954
0.0157407
0.0187463
0.0336812
0.0258834
0.0265319
0.0145075
0.0201456
0.0196166
0.022829
0.0268338
0.0345781
0.025044
0.0119499
0.0190675
0.0162907
0.0182596
0.00834527
0.00841442
0.00970545
0.0136055
0.0133342
0.0116626
0.0029809
0.00441695
0.00685755
0.00467605
0.00195018
0.00317567
0.00292784
0.00524613
0.00750537
0.00520472
0.00488643
0.00219615
0.00326292
0.00334029
0.0041786
0.00441447
0.00668865
0.00458905
0.00179267
0.00299948
0.00283253
0.0031113
0.00123927
0.00117874
0.0013227
0.00200758
0.00208345
0.00188901
0.000279133
6.78471e-05
5.95708e-05
8.95491e-05
0.000152834
0.000168688
0.00011853
0.000165214
0.000470733
0.000278356
0.000177204
5.40738e-05
9.74293e-05
0.000101389
6.99486e-09
3.03306e-10
3.57679e-06
1.8602e-07
6.96302e-12
2.79751e-06
2.04279e-10
0.000432489
7.80047e-05
0.000276411
7.46447e-05
0.000266795
0.000164589
4.37717e-05
0.000415276
0.00023242
0.000149898
0.000141923
8.91063e-05
7.68555e-05
4.44087e-05
9.51887e-05
4.45041e-05
0.000166594
9.6186e-05
1.20213e-05
5.35036e-05
2.389e-05
4.03572e-05
8.38889e-05
0.000154289
9.23915e-05
1.05853e-05
4.8959e-05
2.26407e-05
0.000156494
4.56891e-05
8.25676e-05
2.71032e-05
5.03729e-05
2.4377e-05
1.26274e-05
5.89772e-05
3.36776e-05
7.20263e-05
1.61036e-05
3.67009e-05
2.05937e-05
8.60862e-06
5.25832e-05
5.53497e-06
5.15037e-06
1.3938e-05
2.69905e-05
2.83683e-05
1.17172e-05
2.14864e-05
1.81954e-05
4.04146e-05
1.08351e-05
1.87794e-06
4.23675e-06
5.27903e-06
1.15988e-11
1.17831e-08
3.7831e-10
1.52638e-10
2.98142e-13
1.20615e-11
1.00986e-13
4.28241e-05
4.39227e-06
2.41502e-05
3.38208e-06
2.00869e-05
1.08084e-05
1.58107e-06
1.55956e-05
1.46334e-05
7.65289e-06
3.53754e-06
1.69304e-06
1.54528e-06
6.87958e-07
1.99848e-06
6.18884e-06
1.27286e-05
5.34078e-06
2.40063e-07
2.39213e-06
6.60018e-07
1.10474e-06
2.97641e-06
8.38783e-06
4.21083e-06
1.13622e-07
1.38447e-06
4.71866e-07
7.85685e-06
1.54239e-06
3.63063e-06
2.6323e-07
7.15692e-07
2.68363e-07
9.09748e-08
6.81092e-06
1.28566e-06
3.35544e-06
1.85812e-07
5.83015e-07
2.39727e-07
7.09085e-08
1.92206e-06
5.76284e-08
3.81431e-08
2.08739e-07
5.74294e-07
7.85306e-07
1.76788e-07
5.80527e-07
5.23339e-07
1.48538e-06
8.63126e-08
7.25971e-09
2.40051e-08
2.73925e-08
3.96706e-12
1.66941e-13
2.98426e-08
1.98382e-13
2.68987e-12
1.31147e-13
2.21908e-12
6.6764e-14
4.46196e-12
2.75607e-13
4.67345e-12
5.98074e-14
3.31652e-12
9.69159e-08
6.10902e-08
8.74045e-08
4.56574e-12
5.81864e-12
1.27799e-07
5.68463e-12
9.96831e-08
1.21427e-07
4.50797e-12
1.01431e-07
5.84231e-12
1.2946e-07
2.80731e-12
1.69648e-12
8.16754e-08
4.86136e-08
1.42764e-08
2.11798e-12
2.89719e-08
2.28774e-12
4.33962e-12
8.4416e-08
4.10693e-12
8.63452e-08
2.31172e-12
3.11752e-08
4.47418e-08
6.49496e-08
3.68963e-12
1.27924e-12
2.80651e-10
1.41682e-12
3.9142e-10
1.07564e-12
6.27586e-13
3.47301e-08
9.2191e-09
1.24546e-09
9.15604e-13
4.22105e-09
1.58344e-12
4.99078e-10
1.82684e-09
1.58336e-11
1.42673e-13
3.20167e-13
1.15651e-10
8.64832e-08
1.96668e-06
1.36291e-06
3.45928e-08
8.81768e-07
5.85615e-07
2.18745e-08
1.40742e-06
4.70207e-07
1.70121e-06
9.61224e-08
1.61852e-08
2.10846e-08
7.49447e-08
3.19899e-08
1.68256e-07
5.73058e-09
4.37886e-07
8.27416e-07
3.36918e-07
1.1986e-08
2.88263e-07
4.99182e-08
9.86642e-07
4.16953e-07
1.1117e-07
1.8095e-08
4.13975e-09
1.03468e-06
1.59334e-07
6.59324e-07
1.08072e-08
5.11729e-08
3.00217e-08
6.15697e-09
6.25999e-07
7.76094e-09
2.56253e-08
2.30629e-07
2.18681e-07
6.57082e-07
2.42396e-08
2.16177e-10
6.38882e-12
5.73021e-14
5.73697e-14
1.3538e-12
2.5661e-13
2.21308e-14
7.38426e-08
2.42247e-09
2.02896e-07
2.7393e-09
8.3017e-08
2.87915e-08
9.14467e-10
5.59931e-07
1.70391e-08
1.5502e-07
6.77629e-09
1.93043e-07
4.5958e-07
2.13138e-08
6.54685e-09
3.57688e-08
1.68787e-07
8.16221e-08
3.59962e-07
1.50708e-08
2.98263e-09
1.20791e-08
1.10316e-07
3.36664e-07
2.14735e-07
2.23188e-09
6.801e-08
7.43704e-09
1.54431e-07
1.11674e-08
3.75501e-08
1.71291e-09
5.88181e-09
1.30447e-09
3.70726e-10
1.64897e-08
5.63142e-08
1.82673e-09
1.18052e-07
1.15179e-09
3.59989e-08
3.95114e-09
4.62145e-10
2.50037e-09
4.65169e-09
1.36799e-08
6.89271e-08
2.46826e-08
8.50921e-10
8.86304e-08
1.09289e-07
1.01461e-07
3.44659e-09
3.28326e-09
2.99756e-09
3.71701e-09
1.20882e-07
1.19341e-07
1.12134e-07
4.37417e-09
3.82458e-09
4.13503e-09
4.07274e-09
1.10791e-07
1.02651e-07
1.13829e-07
3.86557e-09
3.36849e-09
3.75711e-09
3.47305e-09
1.26025e-07
1.17791e-07
1.21414e-07
4.13398e-09
4.30178e-09
4.1342e-09
4.00382e-09
1.03105e-07
1.1309e-07
1.14405e-07
3.88803e-09
3.43652e-09
3.49063e-09
3.84605e-09
1.28561e-07
1.22086e-07
1.22602e-07
4.43135e-09
4.39813e-09
4.17922e-09
4.16471e-09
1.40894e-13
4.59811e-11
7.28398e-11
1.33171e-12
9.98419e-13
4.66895e-14
5.26511e-14
2.19945e-09
6.94949e-08
6.5727e-08
1.71031e-08
5.84257e-10
1.81246e-08
5.50923e-10
7.63294e-08
7.21177e-08
8.87368e-08
3.00561e-09
2.04675e-09
2.57262e-09
2.42911e-09
1.07006e-07
8.1145e-08
9.90904e-08
3.37061e-09
2.9583e-09
2.74378e-09
3.64768e-09
8.74756e-08
6.61048e-08
6.90139e-08
2.83695e-09
2.94343e-09
2.30394e-09
2.20452e-09
8.80296e-08
6.81806e-08
6.96369e-08
2.90927e-09
2.96365e-09
2.32567e-09
2.27915e-09
4.52728e-08
1.90805e-09
5.74384e-08
1.48023e-08
3.65248e-10
1.1461e-08
4.75003e-10
7.35056e-08
6.3987e-08
5.673e-08
2.75201e-09
2.47218e-09
1.89336e-09
2.13964e-09
1.20565e-14
1.3119e-12
5.02404e-14
9.40303e-14
3.08903e-11
6.53151e-13
2.82329e-14
3.13801e-08
5.91702e-10
1.87217e-08
2.45328e-10
7.75946e-09
4.52064e-09
1.41813e-10
9.6177e-10
9.79986e-09
3.02249e-08
1.00132e-08
9.49918e-11
3.11074e-09
3.10073e-10
4.69999e-08
3.14908e-08
4.93863e-08
1.63166e-09
9.73797e-10
1.55195e-09
1.02756e-09
6.21073e-08
3.56922e-08
4.69035e-08
1.61786e-09
2.08038e-09
1.55831e-09
1.17791e-09
3.1894e-08
4.88505e-08
4.99467e-08
1.65052e-09
1.01832e-09
1.616e-09
1.0407e-09
5.36409e-08
2.94422e-08
3.57567e-08
1.48631e-09
1.7911e-09
1.1809e-09
9.68139e-10
4.30408e-08
6.06427e-08
4.04779e-08
2.1755e-09
2.03106e-09
1.42377e-09
1.33961e-09
6.63716e-09
2.36278e-08
7.46313e-10
8.8127e-09
7.26208e-11
2.38156e-09
2.72397e-10
4.55836e-08
2.50781e-08
3.98825e-08
1.31761e-09
9.46477e-10
1.5087e-09
8.17834e-10
2.38065e-08
1.98852e-08
3.2246e-08
1.06049e-09
4.59974e-10
7.77712e-10
6.45189e-10
4.12658e-10
1.21677e-08
1.28256e-08
2.50682e-08
2.37163e-08
8.18905e-10
7.75015e-10
2.47003e-08
2.23286e-08
1.53968e-08
1.14612e-09
8.08404e-10
7.29725e-10
4.99068e-10
3.05327e-11
1.29906e-10
4.21839e-09
2.97722e-10
9.55395e-09
2.25956e-09
7.04347e-11
4.52169e-11
3.76353e-10
1.40241e-09
2.21911e-09
7.8503e-09
2.60265e-10
7.14408e-11
3.45881e-10
8.77975e-09
1.07846e-08
1.71513e-08
2.0985e-08
6.84789e-10
5.57621e-10
1.59138e-08
5.32852e-09
9.56936e-09
2.93655e-10
5.15458e-10
3.06888e-10
1.68307e-10
1.32905e-10
2.04337e-10
6.45289e-09
1.2777e-08
8.56997e-09
4.13038e-10
2.7481e-10
3.96191e-09
1.35598e-10
8.9479e-10
2.77091e-11
8.43456e-10
4.20282e-09
1.27796e-10
3.41156e-09
8.38411e-11
2.37175e-11
5.48856e-10
7.23085e-10
2.61773e-09
1.09919e-10
1.86019e-10
5.50194e-09
5.80101e-09
2.32593e-09
2.2026e-09
7.43727e-11
7.04446e-11
2.93966e-09
2.71397e-11
2.25191e-10
2.34812e-11
7.70547e-10
8.84619e-10
9.02181e-11
1.56128e-10
3.94457e-09
4.87026e-09
1.55877e-09
1.9414e-09
6.24415e-11
5.00673e-11
2.43994e-09
7.65805e-11
3.91423e-11
2.73977e-09
5.13639e-09
1.63441e-10
8.6454e-11
5.61413e-11
3.60618e-10
1.75187e-09
1.00642e-09
6.62366e-12
2.01851e-10
3.19869e-11
6.55647e-14
5.18566e-15
2.83459e-15
5.27167e-13
2.07381e-14
1.02244e-13
6.00573e-15
1.19131e-11
5.11849e-11
1.64716e-09
1.80254e-11
5.78675e-10
1.30779e-10
4.25629e-12
5.86507e-11
9.17272e-11
2.86138e-09
1.11319e-09
6.93595e-10
3.64727e-11
2.30648e-11
0.00369646
0.00829554
0.00439243
0.0002766
0.00453328
0.000584997
0.00437913
0.000278028
0.000780723
0.00901566
0.000626555
0.00439577
0.000203923
0.00375244
0.000275087
0.000775483
0.00906841
0.00739966
0.00116114
4.26084e-05
0.000927425
0.000522902
0.000157445
0.00312014
0.00893811
0.00369915
0.00744928
0.00891637
0.00743207
0.00453246
0.0036965
0.00893977
0.00751391
0.0074534
0.00457823
0.00454864
0.00371016
0.00373453
0.00902886
0.00755036
0.00750119
0.00459025
0.00455051
0.00374314
0.00370381
0.00882089
0.00673697
0.00727436
0.00408009
0.00440115
0.00355676
0.00324869
0.00207906
0.0028447
0.00585677
0.00436115
0.00582888
0.00283655
0.00206952
0.00435643
0.00587648
0.00583541
0.00284182
0.00207707
0.00285819
0.00206897
0.00622376
0.00586416
0.00477275
0.00358336
0.00296717
0.00278472
0.00222993
0.00590574
0.00435159
0.00586076
0.00207933
0.00286506
0.00283061
0.00204747
0.00516539
0.00416586
0.00565181
0.00270208
0.00171859
0.00243451
0.001938
0.00493556
0.00262832
0.00364417
0.00169586
0.00231298
0.00167062
0.00117658
0.00439392
0.00239025
0.00346494
0.00140351
0.00203741
0.00157782
0.00105349
0.00162215
0.000769892
0.00204843
0.000776157
0.00205558
0.00162658
0.000589358
0.000779644
0.00207275
0.00206464
0.00163377
0.000593039
0.0016408
0.000592025
0.000754128
0.00206982
0.00203659
0.000588724
0.00163806
0.00160783
0.000570786
0.00178257
0.00170964
0.00255422
0.00113846
0.000483299
0.000734956
0.000773096
0.00176633
0.00070579
0.00194189
0.00152155
0.000462971
0.00136282
0.000529915
0.000846232
0.000415098
0.00120583
0.00120635
0.000277559
0.000417279
0.00084528
0.00120979
0.000277997
0.000848056
0.000419201
0.00121449
0.000418647
0.000846003
0.000844695
0.000415741
0.00121195
0.00118661
0.000264441
0.000401796
0.000822949
0.00151752
0.0012255
0.000408368
0.00037645
0.00114139
0.000889584
0.000283699
0.00111499
0.000318421
0.000662984
0.000241188
0.000983611
0.000370175
0.00076539
0.00029754
0.000201828
0.000655579
0.000644968
0.000128952
0.000198298
0.000436265
0.000252287
0.000526225
0.00080251
0.000602927
0.000110702
0.000183576
0.000381963
0.0127137
0.0724326
0.0660148
0.00606531
0.0424088
0.0195392
0.0163073
0.0404431
0.00841118
0.0717022
0.0164489
0.0155412
0.0408063
0.00845436
0.00736359
0.0366999
0.0734132
0.0165983
0.0580533
0.0466836
0.00724288
0.0140408
0.00240541
0.00619201
0.0312772
0.0749013
0.0713481
0.0629488
0.0461185
0.0453209
0.0396308
0.0402581
0.0707688
0.0632215
0.062477
0.0460236
0.0453575
0.0396931
0.0402264
0.0743906
0.0642126
0.06446
0.0468931
0.0472572
0.0407113
0.0407305
0.0455511
0.0742768
0.0609594
0.0637862
0.0469927
0.0401661
0.0381865
0.0128956
0.00521683
0.00160733
0.000399826
0.00152279
0.00272942
0.00601448
0.0256039
0.0542478
0.0405043
0.0517378
0.0323479
0.0328753
0.0251678
0.0401436
0.0518183
0.0513215
0.0323646
0.0253465
0.0327179
0.0251361
0.0524029
0.0407126
0.0524118
0.0255393
0.033025
0.0329564
0.0254316
0.0671929
0.0419904
0.0546803
0.0453417
0.0361916
0.0341251
0.028313
0.0397052
0.0483676
0.0515054
0.0322754
0.022782
0.0301932
0.0247237
0.0354935
0.0258088
0.0350492
0.0222486
0.0291734
0.0219614
0.016195
0.0280223
0.0162414
0.0278128
0.024005
0.0138378
0.0241511
0.0137918
0.0162819
0.0282419
0.0278914
0.0240867
0.0139615
0.0243605
0.0138313
0.0421921
0.0244621
0.0338534
0.0193922
0.0262901
0.0211264
0.015179
0.0286168
0.0165851
0.0287011
0.0140545
0.0245724
0.0245243
0.0139986
0.0273243
0.0163275
0.028416
0.0240825
0.0127994
0.0227408
0.0136726
0.0182671
0.0179486
0.0253878
0.015878
0.00784907
0.0111345
0.0114068
0.0150973
0.00843923
0.0110574
0.0193951
0.00837137
0.0109969
0.0149544
0.0194309
0.00836083
0.0150521
0.0110963
0.0196116
0.0110091
0.0149471
0.0249604
0.0119383
0.0213945
0.0112669
0.0201932
0.0167048
0.00926227
0.0184327
0.0259444
0.018435
0.0162471
0.0115193
0.0114621
0.00797444
0.015144
0.0111671
0.0197585
0.0196876
0.00839262
0.0111096
0.0150586
0.0192081
0.00995851
0.00809106
0.0133743
0.0178695
0.0107863
0.0145876
0.0131237
0.00956062
0.0172236
0.0129495
0.00521864
0.00714384
0.00952673
0.00888767
0.00884069
0.0128417
0.00540027
0.00795852
0.00543345
0.00364572
0.00887608
0.0128202
0.00875604
0.00526709
0.00786343
0.00539837
0.0035786
0.00856367
0.0113333
0.0154852
0.0124145
0.00479805
0.00682338
0.00884323
0.0093133
0.00452031
0.00360394
0.00347818
0.00508731
0.00646165
0.00665805
0.00954043
0.00364405
0.00672817
0.0035932
0.00666425
0.00459863
0.00244999
0.0041033
0.00407577
0.00606569
0.00363807
0.00156606
0.00238683
0.00241509
0.00307061
0.00245523
0.00459895
0.00309151
0.00104281
0.00203614
0.00161928
0.00238049
0.00295197
0.0045011
0.0030567
0.00100343
0.00197921
0.00159327
0.165137
0.019353
0.0911738
0.0692321
0.0485127
0.125481
0.0710253
0.0542854
0.197524
0.239944
0.196352
0.195339
0.15428
0.159226
0.128054
0.0865425
0.0973239
0.116525
0.129341
0.153555
0.116291
0.0966693
0.120983
0.154824
0.118808
0.0946217
0.124197
0.0966983
0.0721582
0.146749
0.0881222
0.102198
0.0830828
0.119074
0.0973399
0.068581
0.0665477
0.0377141
0.0516709
0.0645537
0.087804
0.071302
0.052475
0.325302
0.0729796
0.275353
0.28309
0.19149
0.222425
0.0617103
0.350423
0.107766
0.288622
0.195307
0.147972
0.062109
0.0819426
0.158348
0.110219
0.30575
0.284983
0.226369
0.264359
0.223156
0.197483
0.193352
0.351437
0.316061
0.387469
0.391362
0.355453
0.294277
0.26266
0.377197
0.311659
0.339999
0.236482
0.261117
0.23095
0.207602
0.269869
0.227609
0.247394
0.214604
0.221024
0.189994
0.180782
0.207408
0.245847
0.313495
0.273392
0.315353
0.225223
0.186401
0.253152
0.267744
0.297619
0.194868
0.139324
0.173237
0.158341
0.239981
0.177542
0.219884
0.130841
0.163611
0.159579
0.127342
0.215286
0.112214
0.12647
0.112241
0.185078
0.164046
0.0994199
0.107471
0.158469
0.164934
0.145641
0.095332
0.139768
0.0951724
0.164944
0.185629
0.204663
0.155871
0.113485
0.145526
0.123627
0.159341
0.112097
0.1615
0.0966913
0.139624
0.140163
0.0973178
0.109892
0.112267
0.161763
0.139098
0.0925895
0.133367
0.0965557
0.130342
0.161521