/*--------------------------------*- C++ -*----------------------------------*\
  =========                 |
  \\      /  F ield         | OpenFOAM: The Open Source CFD Toolbox
   \\    /   O peration     | Website:  https://openfoam.org
    \\  /    A nd           | Version:  9
     \\/     M anipulation  |
\*---------------------------------------------------------------------------*/
FoamFile
{
    format      ascii;
    class       volScalarField;
    location    "0.00275";
    object      overpressure;
}
// * * * * * * * * * * * * * * * * * * * * * * * * * * * * * * * * * * * * * //

dimensions      [1 -1 -2 0 0 0 0];

internalField   nonuniform List<scalar> 
21496
(
192824
179775
483.588
106320
0.469851
1.12466
0.0198563
0.0115447
191372
80794.2
191630
179470
1.9456
1.05137
0.134803
0.0478849
66939.3
195831
89331.3
196654
84378.2
189770
63083.7
195845
193696
69400.4
188909
109414
195186
92621.9
100573
195059
94865
158566
147407
126804
135409
125494
191193
109686
138795
149460
89989.4
159109
65073
73005
70989.7
96229.6
93718.3
102168
105045
63833.1
68865.9
69668.6
91111
92069.1
100299
99237.5
72469.1
75676.2
79011.3
99690.1
104173
109060
114475
76220.7
88210.1
83133.1
117577
109960
121447
130185
85301.9
75865.4
76727.4
111029
123975
125325
109805
80369.3
86882.4
78165.9
113275
131884
127891
116757
83288.9
96882
86976.3
137427
121610
127914
144525
72522.7
88407.6
24319.1
68427
22378.6
103272
109754
42461.6
45624.5
75212.5
33912.4
28057
114307
108935
47801.7
48980.5
21995
27799.1
28236.8
34633.8
35067.3
41509.8
41024.9
23127.2
30383.2
29054.7
37207.5
35875.1
42404.1
43886.9
25949.7
32173.4
39016.5
34486.3
41358.3
45880.2
48460.5
30693.4
40898.5
37377.9
47870.1
44290
51685.4
55610.1
34577.2
43009.3
35067.7
48980.4
57030.8
57662.9
48431
69182.9
49859.2
50416.8
57801
77666.4
57181.5
78521
37434.4
43999.7
35963.7
49983.5
60663.5
58806.4
51640.2
52992.9
70481.9
51398.4
58894.7
82323.5
60659
80005.4
39405.5
50603
41948.1
63136.8
53853.9
56707
66314.7
55106.5
78655.7
57803.3
85401.3
62988.7
65980.3
89372.1
58324.8
45125.1
54093.9
60262.8
75132.7
70285
64585
83004.3
65265.3
61159.5
69737.2
100778
74378
94419.2
66441.4
89018.4
104398
75968.4
76802.7
65732.3
89977.4
67695.8
94365.1
106480
80582.6
78275.4
69689.6
91692.8
97979.9
83658.3
72332.6
75749.8
120384
87671.7
102733
102375
97467.1
91620.1
135892
163054
153214
145647
116865
85408.3
99166.3
92801.4
138814
128480
80044.5
148896
190416
145307
157348
194015
160841
193396
193762
6376.2
1043.04
169181
8652.29
1471.84
175315
142916
189481
141657
154984
192908
153767
193008
95891.7
108398
109579
141677
143098
163314
162021
115298
97713.7
111787
150291
145918
165985
170059
187347
2039.54
4041.07
136736
280.964
824.953
164614
192520
159662
153741
194813
165350
170516
195560
127055
104507
120363
156216
163330
175184
181101
167622
196390
178620
195583
179357
166630
195527
194916
173184
166279
176246
195830
182191
195980
169616
195907
183339
196183
180945
172592
195681
116509
135634
146271
179779
171371
187400
193699
41404.5
23887.4
16244.2
14808.1
12448.7
18011.4
32448.5
35402.6
42252.5
16390.5
22988.1
18660.6
37338.8
46648.1
42465
45430.4
16890.9
25372.7
6065.4
25897.2
6684.79
14356.5
13742
17465.5
8818.72
26602.3
26313.3
7631.4
15245.8
16336.5
19601
10358.1
26902.2
27482.9
12266
17697.2
19408.8
21029
17317.3
30171
28537.1
14579.3
21548.5
24159.5
33649.9
41751.1
34075.7
22368.7
29968.4
30540.2
21772.1
13648.1
9161.53
7953.78
14146.7
20764.6
15414.8
19494.8
6601.96
12859.1
7076.4
13251.9
18194.2
12730.1
18658.9
42048.3
34606.1
34409
23197.3
32255.7
31304.1
24196.6
10786.8
18406.7
12817.8
22456.3
17074.1
19144.8
24606.4
34782.9
42940.5
35224.2
33405.3
25410
26970.3
34922
18166.2
20891.3
15266.6
21661.8
30473.9
24664.9
27263
37617.3
43881.4
36123.3
28991.6
39538.8
36938.3
31537
20199.6
27332.1
24833.5
32994.6
27904.1
19645.3
25341.7
21102
27596.9
33927
30162.4
28806.8
22413.7
26224.4
29401.3
31893
24097.8
26210.6
39813.1
34086.7
31698.9
-19216.9
-17291.2
21063.4
12336.6
-15309
-14973
13116.4
12185.6
-17966.9
-1978.31
-2960.77
-16559
-16975.3
-3190.65
-2424.28
-18790.8
-5295.57
-4243.19
-17609.5
-17463.7
-4184.41
-4905.94
25926.3
25054.1
13516.7
24689.7
12494.2
11486.6
24055.1
9469.47
22948.4
11008.7
10273.8
21554.5
9119.89
22848.5
-15174.2
-12481
-12476.8
-194.794
-1833.73
-2350.58
-461.248
-15072.3
-11622.9
-12195.6
-2980.01
-506.224
-611.944
-3244.09
12191.8
26057.7
25115.1
11540
25528.1
12669.5
24334.1
24962.5
23485.2
24418.9
11834.3
22622
9908.51
10623.2
38039.8
30523.6
49822.3
32595.3
40194.9
31342.3
29460.7
49400.9
36518.5
21194.1
30511
29245.7
49314.8
51254.2
34994.7
33787.9
34936
35125.9
33521.1
33866.9
38962.6
40172
41209.2
31598.2
35780.8
30730.9
32390.1
37469.4
38932.4
37596.8
27393.1
25046
33897.1
27627.8
31763.4
36303.9
34972.8
36036.5
37327.9
35105.1
42378.7
45990.9
45497.7
43121.4
40699.6
32541.8
39998.2
42728.4
38558.7
38488.1
43348.1
22779.8
28797.4
25058.2
26025.2
29869.6
33783.4
33281
32063.9
37596.4
38918
41840.4
37473.7
40909.8
38062.2
34034.4
35672.2
32831.1
41461.9
44353.2
44895.7
40505.1
36051.5
29861.1
34425.9
36818.9
39966.5
39030.2
36363
31807.2
34340.3
30728.9
43814.6
39621.1
38815.9
43413.6
33032.6
29791.9
33272.3
38408.4
37085.8
38482.6
36379.5
29208.1
33753.4
29655.6
38205.1
43736
43294.9
38228.4
45958
50342.4
44036.6
49758.1
49945.5
43964.5
46483.8
45251.4
49566
43290.6
49191.7
49492.5
44637.5
43638.2
42924.9
49079.7
44171
43841.7
49511.7
49262.1
42787.7
43799.6
43943
50110
50660.7
49744.7
44300
43072.8
28812.7
38009.3
42897.1
40154.5
36820.5
31950.2
34552.3
-46079.3
-57775.7
-61863.7
-31029
-30623.5
-39172.4
-45501
-21470.9
-36476.3
-63481.1
-57164.5
-69465.5
-19497.1
-38188.3
-27585.7
-46965.2
-52458.6
-61131.1
-52032.7
-48656.6
-57786.1
-56775
-49311.3
-68345.5
-72199.8
-70742.5
-64245.8
-65687
-62598.5
-63384.4
-59806.5
-49773.9
-51173.3
-47693.8
-52646.7
-55063.7
-46202.1
-42224.1
-30908.1
-42088.1
-39274.3
-28891.5
-39645.7
-28892.4
-64845
-66445.2
-68293.4
-56260.1
-59908.5
-59966.4
-55618.6
-54273.1
-70084
-67671.5
-39576.6
-57288.2
-53692.2
-36272.7
-58206.1
-49971.3
-63368.1
-49357.6
-33192.4
-45468.4
-33510.2
-40892.5
-31186.4
-41705.7
-38738.6
-28524.9
-37873
-28868.2
-44682.2
-52407
-43915
-40509.1
-39409.4
-51061.8
-45542.6
-56674.7
-44498.9
-42060.2
-55544.1
-54451.1
-52450.6
-39075.8
-43438.7
-46478.4
-41776.3
-36041.8
-37909.2
-49073.7
-41737.5
-32488.3
-23172.3
-26406.4
-35979.5
-22894.2
-31870.4
-26277.4
-47604
-41409
-51286.2
-48490
-33157.2
-35876.1
-44454
-19533.9
-31918.4
-44032.9
-40841.2
-18727.2
-29748.9
-26066
-37482.8
-25820.9
-26576.3
-18698.4
-27746
-35021.2
-25278.9
-35266
-25405.2
-29683.8
-22300.5
-30929.6
-34199.3
-25989.9
-44428.5
-50355.4
-51646.3
-44743
-59993.2
-22915.4
-28850.4
-20806.3
-35334.9
-55562.5
-30520.9
-30720.8
-29266.2
-36477.5
-15633
-32997.7
-60972.5
-57060.7
-57741.2
-52319.1
-51355
-48243.3
-49166.3
-48641.7
-54047.3
-48183.5
-50013.3
-44674.2
-43401.1
-47904.1
-54211.5
-45255.5
-51893.2
-34863.3
-43021.9
-42062.5
-36665.6
-40234.9
-30717.2
-40131.4
-27898.6
-36933.8
-36203.8
-27308.9
-47792.8
-45435.9
-50098.7
-41387.4
-37311.9
-40092.8
-37690.7
-52529.4
-46202.7
-47649.4
-42126.7
-43496
-40172.1
-45917.1
-51625.8
-54499.5
-54812.7
-45902.4
-44069.3
-43505
-46686.4
-27463.4
-26148.7
-33861.2
-33621.6
-22188.9
-26218.9
-29208.4
-44012.6
-31270.8
-41182.6
-39008.4
-33019.6
-30074.2
-41214.4
-39361.7
-31034.2
-40187.3
-35504.5
-25899.7
-34110.9
-26842.2
-43702.5
-33879
-39827.3
-37975.9
-34030.4
-31735.6
-41261.4
-28125
-24438.7
-20205.5
-31709.6
-18767.4
-26393.7
-23400.7
-33485.7
-30109.6
-25512.8
-23049.4
-26189.5
-32748.8
-30275
-37407.5
-36528
-27387.9
-31042.1
-29037.2
-35502.1
-38968.8
-36163.2
-36532.8
-31774.7
-26992.2
-29576.3
-33808.6
-39040.7
-30381.3
-20997.4
-22565.7
-17295.3
-24648.1
-28553.8
-22353.2
12820.2
-20502
-19345.7
19211.5
-12949.4
-10627.3
24047.6
23270.1
-19628.1
-6112.36
-17295.9
-7180.93
-16905.5
-5163.66
-5443.36
-20377.9
-9707.12
-8651.53
-16444.1
-16902.4
-6075.8
-6404.04
7988.84
16963.3
6173.58
20353.1
8190.27
7145.89
18897.9
-14384.2
-9521.77
-13577.7
-17.4593
-3108.31
-2852.19
600.828
2268.84
14626.4
4028.14
5872.86
16106.5
4938.91
17283.1
-12071.8
-8454.67
-7239.57
-2912.17
1813.97
1075.69
-2580.07
11768.2
21870
9410.59
8938.32
23700.3
11799.3
21027.1
8276.88
19471.2
11987.3
23234
11662.4
8080.82
20023.6
196072
186427
176414
180780
193999
189900
195969
128224
152230
150703
182238
196403
196862
181275
160200
131013
155381
184276
199983
198089
187301
185530
193763
196721
192035
193392
190335
195305
174295
141545
166567
202346
191127
195357
204548
152097
688.635
161138
60390.4
40.1252
26.7729
45452.6
194541
189119
189581
197110
189689
196970
188872
192432
193884
190720
197742
185654
198674
187628
169874
191681
182846
199569
206566
206127
203495
614.34
378.693
145505
20.1288
36713.1
957.203
5.95767
194532
188722
196842
182750
199609
200171
178583
194316
190105
189435
160982
159547
145454
147162
200164
185092
198936
200164
163248
199130
172406
192933
186756
188398
152787
156906
142245
137149
200399
178948
156706
198671
198001
200662
177770
200309
172348
153127
195724
197131
200149
175715
189814
184433
181230
147023
139228
129687
119660
184034
170673
176809
114317
128381
106794
90616.1
167244
193550
199656
198486
126593
190275
159804
179786
172291
181969
121505
86897.7
94264.4
115112
174223
184179
183339
125679
101658
99139.7
127868
196266
134394
110537
177878
185357
192576
149394
176636
158103
172228
77071
106185
94445.2
65073
157197
149149
166013
80025.9
37199.6
51346.9
63526.1
159591
138409
136226
69898.6
67443.4
36843.1
38682.8
156685
125209
131929
55631.3
62672.1
33335.8
28436.7
136104
115809
103146
46655.2
36715.5
22607.9
16697.2
123100
68249.4
87080.3
17939.3
26937
11482.1
7398.91
46.0851
1.9403
1.17949
0.968093
85.2865
60.258
120.88
72023.8
8213.23
69741
48880.2
5174.54
50954.3
4912.43
59157
7421.18
65439.2
44973.2
3795.47
39508.5
4433.02
103480
57847.4
100755
15822.1
6169.41
5811.04
16799
53853
114756
20426.2
0.245328
0.00474224
86360.9
173120
0.558303
0.0176741
42335.9
127171
95067.7
127062
63366.5
84608.6
198202
112834
187621
196057
147015
184091
142308
118529
37774.3
45108.1
52161.1
50070
57227.7
60294.6
65833.5
47669.6
62593.6
55862.1
70084.4
63158.3
72350.7
80056.1
53578.8
69315.1
58994.8
80990.9
69762.8
75924.7
88079.6
171720
181415
150347
66216.2
181358
212715
10566.3
70239.9
103344
76245.7
108832
80010.1
86918.4
118980
93204.5
94500.3
102413
127112
138828
140895
153506
72719.1
76322
65324.8
83279.7
107311
96747
92192.4
113796
92307.6
83479
95309.4
148661
105482
132120
101798
125863
112521
167500
152681
167027
180222
92038.1
107000
151536
100087
166294
116827
140083
104876
130319
114335
173420
157021
169050
183619
35290.8
33305.1
31635.2
25509.3
51141.1
47720.7
59850.9
69946.2
28608.7
20522.5
32449
35424.1
24218.2
27301.6
31026.8
28459.4
36665.5
32318.1
43547.8
39110.8
35381.2
40436.4
25515.5
27451.3
21569.1
34299
28216.6
32374.4
38804.6
39818.5
50843.8
42790.8
42823.9
34701.8
38528.7
46867.9
-35383.5
-21365.5
15419.8
-32453.7
-42313.7
-48144.1
-21889
-33726.9
-14540.3
-14587.7
-34662.6
-47269.7
-29219.2
-30975.8
-18959
-14246.1
-3606.21
-13550.9
12025.7
-19799
-10490.7
24088.4
3021.3
30617.5
-44982.2
-39460.6
-41696.7
-35681.7
-38030.7
-35302.4
-33269
-48021.1
-44241
-44027.7
-40981.3
-40558.3
-36888.7
-37432.4
-43684.9
-43516.4
-40500.9
-40472.4
-37494.8
-34265.9
-36909.1
-37613.5
-27410.3
-35156.4
-24250.2
-32052
-29369.5
-22138.6
-34147.4
-36166.5
-38115.3
-32031.3
-26858.6
-28152
-30283.6
-28867.1
-23966.1
-31093.7
-28655.2
-20142.1
-21539.4
-26815.2
-9855.04
-18476.7
-15247
-9079.47
-5850.53
-13702.3
-4691.88
-34752.1
-40007.4
-39560.1
-32725.7
-28845.6
-28197.7
-33410.5
-32852.2
-24914.4
-26187.8
-29456
-22878.5
-21802.7
-30332.5
-32204.7
-39307.5
-36657.9
-30374.5
-28266.6
-32840.2
-25915.2
-33545.9
-24061.1
-26261.4
-27604.5
-22741.6
-30003.3
-20621.5
-27953.9
-24786.8
-31919.5
-26071.7
-15853
-22099.5
-19357.2
-25466.7
-20969.8
-17720.9
-14608.9
-18392.8
-21620.7
-24143.5
-26180
-13265.3
-19960.6
-23283.3
-10613.4
-16872.3
-16554.2
1405.23
12300
1607.66
15810.9
4827.11
5527.5
16340.7
-16497.1
-4997.11
-7553.54
-8447.1
-11493.7
-2915.05
-162.888
-5385.71
3255.34
-1469.24
-3237.76
-8650.75
-42.7734
5045.78
-25602.2
-21904.9
-18998.8
-14054.3
-18165.2
-21331.7
-26389.7
-23704.6
-21452.3
-18738
-12341.6
-25982.4
-16742.9
-19297.3
-19892
-9934.25
-7425.11
-9248.51
-13377.5
-15874.3
-13563.1
4832.4
13314.1
2666.63
6931.83
19866.4
9366.71
17593
19760.5
13102.4
8691.32
9797.87
25395.1
14606.7
20623.6
-2932.36
-440.946
-6138.47
2140.87
10915.8
7617.01
5125.8
11688.1
24894.2
27546.4
20147
16972.1
14456.3
22288.4
41353.4
25045.5
32044.1
20735.5
53097
34592.1
35354.8
63854.1
21285.3
28809.6
25053.9
29698.5
25786.2
33668.7
34754.7
22618.2
34354.3
31487.5
29890.3
27337.1
36771.4
39821.4
33679.5
34363.9
35169.1
38547.8
39301.6
40927
40844.9
29637.2
36045.7
30664.1
44859.5
38961.3
40404.3
46759.7
40949
37582.3
37470.4
43494.5
47967.4
47047.5
43981.7
41547.7
32531.6
38315.8
42741.6
53346.1
49537.6
46104.5
45523.2
52213.4
45416.7
47346.7
55760.6
54566.3
47935.1
50195.7
55421.4
59327.4
62114.5
57832.2
54051.9
51226.1
42149.4
36508.9
30066.2
37198.4
50154.3
42771.3
44059.9
51221
46578.4
54869.4
43088
57550
51748.5
48458.3
42143.2
44167.9
35702.9
40124.5
56449.8
48930.7
47018.2
45292.1
59348.2
62672.8
61065.7
54527.7
51300
52716.9
109967
173789
182557
145554
129378
122471
155956
161702
126781
144825
180886
200840
192961
191604
1310.88
231.931
130812
44076.5
24.5057
119528
170.348
180277
195128
187175
194670
188134
193528
192132
136718
158854
188060
172342
195738
199461
204373
198333
192533
193356
198054
180018
200583
187598
191035
199381
194715
198476
176668
200478
186497
165681
198226
186064
206489
202284
206788
206333
199864
207002
192525
205530
206118
206746
201835
200480
167407
164980
196225
199685
200145
179246
209654
211591
202214
204946
181560
194523
199235
46.6097
4497.65
364.716
290.982
2.34426
62.2847
1.14995
200235
159526
198636
150095
196545
191775
130750
163941
161874
149305
96626.1
75569.7
71711
51434
141382
187260
194678
183672
72340.6
169834
104500
114106
166164
186686
177242
42288
148530
88168
150493
106195
131197
32140
52994
32491.1
17781.5
145022
97370.9
127548
24622.7
45886
29847.1
14500.5
161901
32818.5
23035.3
87775.6
122357
137866
59098
75556.8
70999.4
104252
17007.9
3996.64
7838.4
8705.96
3.1747
0.235079
2090.08
0.278652
2.19149
0.204107
1.9128
0.136999
3.65128
0.387441
3.81781
0.0650686
2.60249
5363.45
3353.35
4412.9
3.35256
4.73544
7071.79
4.98211
5557.59
7376.86
3.81637
5755.04
5.01599
7607.7
2.27188
1.56227
4493.19
2796.16
1202.79
1.8422
2012.23
2.05698
3.37812
4650.89
3.33931
4820.93
2.05119
2169.34
2618.74
3468.08
2.8011
1.32344
75.9144
1.47551
98.0176
1.18501
0.916599
2170.16
916.473
287.013
1.05799
568.867
1.84001
169.567
347.324
21.8696
0.447044
0.688054
66.857
5207.8
51061
41620.4
3076.14
33069.3
26079.1
2349.15
87085.5
52791.6
95343.1
13974.2
4230.08
5127.27
11544.2
2966.11
13044.5
1136.8
22891.7
32045.1
19089.2
1684.85
48181.5
10983.1
85328.8
61660.4
30087.2
6290.59
2545.66
76032.9
27585.7
62588.9
3262.46
8932.12
6495.99
2339.51
30036.9
1392.09
2896.32
16821.9
15906.9
31523.5
2744.92
107.365
13.0065
0.281394
0.293684
3.47672
1.23886
0.17443
8371.07
721.296
15001.7
791.269
9164.02
5079.69
428.413
27235.6
2082.42
11976.7
1241.91
14215
23340
2461.64
2843.77
11727.8
32923
18793.6
47539.8
4445.31
1552.31
1660.08
9519.17
18817.2
14277.1
614.37
7150.71
1247.6
38478
7726.61
16152.2
1662.88
3392.26
1306.44
617.257
3405
6878.81
589.232
10192.3
429.558
5080.98
883.581
548.761
1668.78
3709.64
6802.53
20305.6
11166.8
903.049
4788.47
6137.65
5478.4
473.771
462.511
413.094
530.082
6301.8
6731.4
6003.69
610.902
519.698
545.672
581.51
6372.01
5852.3
6709.04
576.046
476.804
547.003
502.375
7763.78
7004.05
7374.26
632.748
665.829
632.705
601.011
5939.93
6590.55
6806.69
584.875
495.458
510.256
567.791
7869.33
7235.08
7478.71
655.086
675.464
642.187
623.136
0.41513
37.8414
54.732
3.5038
2.67528
0.202696
0.228569
651.16
8004.58
7567.31
3374.39
295.532
3569.74
278.987
4094.21
3840.93
4684.51
404.853
287.672
352.616
330.839
5383.53
4207.25
5131.33
444.261
381.465
363.316
466.394
4898.55
3732.71
3932.97
397.93
419.561
335.269
317.811
4973.42
3871.71
3993.99
413.921
426.291
340.711
330.725
5673.87
579.185
6750.19
2999.68
203.663
2497.69
246.564
4010.84
3607.34
3216
386.138
344.471
274.563
308.258
0.0765488
4.09613
0.235
0.324973
28.9747
1.998
0.144135
4498.24
277.907
3359.14
156.878
1943.91
1414.49
113.237
445.691
2852.1
5282.51
2889.33
119.059
1495.05
235.209
2864.8
2207.1
3021.32
255.773
176.307
242.399
186.081
3426.39
2220.27
2737.78
238.793
293.521
233.357
189.114
2242.1
2972.97
3068.83
259.898
183.191
252.126
189.017
3011.42
1939.24
2241.08
223.656
257.875
191.221
165.353
2593.72
3304.61
2467.75
297.904
283.603
221.412
210.671
2117.73
4391.11
367.25
2620.1
96.3359
1213.79
212.656
2765.13
1780.41
2456.31
208.547
170.147
234.667
150.728
1675.96
1500.09
2079.31
176.569
101.769
142.4
126.982
103.115
1159.31
1220.57
1831.45
1740.35
155.667
148.033
1712
1598.26
1253.9
184.946
145.759
136.137
106.649
47.8713
121.882
1517.65
190.451
2343.25
963.359
76.0645
140.484
830.613
1846.31
2712.87
5692.04
453.231
208.02
88.4785
900.792
1048.26
1359.44
1576.52
134.076
115.539
1284.78
661.938
935.311
77.1343
108.999
79.1093
55.4644
47.4785
61.5699
734.98
1115.24
869.927
94.593
73.5512
1340.97
114.937
512.777
37.7468
482.728
1423.28
108.333
1182.09
78.1545
32.9844
346.364
423.986
973.221
95.4568
63.5484
726.997
765.789
449.215
426.027
37.0813
35.1427
1427.65
56.6571
319.972
50.4217
647.33
719.804
113.936
54.1792
560.666
655.688
324.927
382.742
31.6422
26.807
416.354
34.549
23.7841
450.559
643.761
54.0302
37.5258
59.942
263.066
749.011
539.192
14.2089
185.79
42.7242
0.526967
0.0464981
0.0287576
2.2954
0.149176
0.828752
0.06138
27.9005
72.7993
916.168
40.6585
516.515
199.849
15.3398
28.3521
37.0471
453.853
260.169
196.382
21.6343
16.4481
79783.9
63084.2
72070
197193
83744.6
191827
71944.9
196945
187482
56171.6
190711
73062.2
197466
80451.8
196945
187779
57086.5
66195
102985
192310
163558
192084
197306
84363
56144.6
89384.6
60613.1
55898.4
60340.7
82986.6
88528
55787.7
60635.9
60219.1
83068.6
82661.8
88201.4
88685
58539
61599.2
63107.3
84113.8
85776.5
89857.5
91727.5
60545.3
67906.2
65214.4
91412.4
88195.8
94453.4
98053.7
105360
96415.4
65836.2
71611
65496.5
95422.4
104179
71421.2
65815.6
65348.7
95084.2
104520
95667
103824
69909.7
71192.5
75176.1
95487.2
100662
102685
108630
66844.4
74824.9
68452.6
106083
97007.5
99158.1
108615
73610.1
77312.5
70721.6
102300
117481
106451
112386
74373.9
85923.9
80021.4
115977
107271
116493
126470
77161
89228.8
81517.8
124046
111919
119128
132330
139859
188387
130626
187895
129322
138508
191519
187573
129377
128855
138068
191160
138655
191291
188433
130877
133418
191362
140286
143013
191868
93466.4
95304.5
86859
128188
154561
142523
139375
141983
189459
137128
146962
193556
152055
192654
162707
194861
150683
149310
197205
194722
161407
148904
197138
161684
194421
149532
194581
161061
163365
194522
151258
154111
197085
194831
166088
148055
155348
193444
194462
158268
165276
195421
158165
195844
174054
197334
163176
195294
169715
194754
195880
171916
172528
196274
196213
179979
196445
178965
168846
174946
196658
196777
184140
24775.9
3218.49
40790.2
33980.7
40683.6
28616.2
36163.1
7489.55
50620.7
-3382.77
37033.3
43280.3
8385.68
51518.6
57310.4
13360.6
-2519.24
37912.4
7555.01
10298.2
57027.8
45957.4
73905.7
60338.1
15439.8
37673.5
7804.89
10984.5
16577.2
8201.49
11676.7
19651.1
-1473.44
5.26527
1850.89
7580.65
6872.96
10478.6
11211.6
-728.947
856.044
2588.68
9099.13
10726.4
12694.3
14202.9
14208.3
1283.32
6251.6
4462.54
12386.1
15756.5
17507
24820.3
62062.8
80504.3
110934
84207.6
46273.7
35633.1
24957.7
41828.2
16082.6
13674.9
15270.1
22392.8
19125.9
8752.81
3592.06
5222.39
14334.1
19418.7
15113.9
18535
4454.93
10029.7
6140.98
20823.1
16567
17985.6
22138.7
5237.16
16365.8
8227.54
10583.6
18921.4
19664.3
22282.8
11688.3
9602.12
7919.71
19467.6
25368.3
21197.9
23576.8
13465.7
16707
13414.8
25376.3
21934.1
25368.5
28944.9
21342.3
36170.3
19915.6
23639.5
40049.7
24847.9
40168.2
36495.2
21276
20298
24124.7
41037.8
25090
40508.3
11596.1
18001.8
14037.8
27668
23409.4
26102.2
30489.2
22403.1
39216.3
23711.5
41920.4
26170.6
27417.9
43242.4
27365.5
41027.3
25347.4
29027.2
47320.1
31028.4
45051.8
20443.5
21113.4
16990.4
29316.3
37875
33878.8
33075
32801.3
49486.2
44438.7
27745.1
49794.2
44680.2
32330.3
28358.9
50093.8
33977.7
45544.9
29303.5
45019.3
33066.7
29799.8
49105.8
32637.4
50077.4
33476.4
36402.8
53320.5
20476.3
17073.2
21198.6
29307.2
33063.8
33834
37837.7
34968.1
46431.2
30343.8
31552.1
52885.8
47753.5
36130.1
33123.2
51951.8
54832.3
39872.7
35153.4
49598.9
37749.2
39777
52761.3
35958.9
39823.5
61675.3
57143.7
43802.5
29053
29037.3
24433.1
42552.7
37444.8
42530.8
48006.2
29835.9
25946.3
31429.9
45132.3
39068.2
43376.2
49798.2
54809.9
42502.4
37689.4
40708.7
64020.1
58223.6
45676.6
44285.9
53920.5
67217.9
68484
62309.8
49459.1
48477.6
44174.2
67088.9
48418.6
68080.2
49271.4
53793.2
73624.1
39690.3
40555.9
34392
48434
61618
55262.9
54323.1
59173
73147.7
53373.4
59104.3
88555.7
65371.7
80356.6
75349.6
62090.2
55189.1
60065.3
91282.6
67444.3
81573.4
-13600.5
14993
2640.87
-664.637
10658.7
-9006.79
-2001.11
858.075
-13946.1
-16700.3
-17017.8
-12644.4
-9031.52
-13189.7
-9698.75
473.242
-5853.02
-4167.75
-9855.67
-9307.66
-4349.37
-5966.12
-1089.31
-7389.97
-3441.97
-3869.94
-8813.86
-5324.26
-478.85
-11859.5
-1773.79
-4103.89
-1186.83
-8552.28
-5740.13
1153.88
6608.59
6982.42
2259.97
5396.83
970.416
-1663.07
3100.02
112750
95010.7
138399
124595
117197
164228
1464.82
133375
-8030.52
18260
133390
-3021.59
-937.762
-3310.76
-14603.3
-11048.2
70621.2
122618
31213.8
73593.4
-5837.15
35063
-4060.54
109919
114907
98159.3
120099
133001
120733
130408
135775
145335
148474
81056.2
110483
120014
88140
-12236.5
-11369.7
13950
-18863.4
-17285
-14866.1
-15639.8
148073
135710
123412
161566
147020
140750
151221
172352
155773
161013
128754
97383.4
93773.7
136335
130085
68238.1
73134.4
37443.5
37629.1
-2523.51
-834.726
108504
87244.8
80684
42377.6
93320.8
100680
46141.3
4585.76
10450.8
57169.9
61531
-4943.37
13134.4
7551.45
8216.61
-8161.81
10358.5
-11726.5
-6805.27
-11605.2
-7725.99
-11362.4
-10482
-15974.3
-7964.91
-8529.89
-13156.8
-7379.95
-6394.15
-8686.06
-16342.8
-13339.6
-3367.04
-11287.5
-5568.88
134582
125860
92315.1
107067
46573.1
47627.6
112094
64150.4
11496.2
16326.6
-1782.32
15168.6
9770.86
64659.1
-2443.74
-4615.46
-5562.99
-9902.16
-120.858
-3954.19
-6161.62
-7524.07
-34.8196
3689.69
-9712.5
1714.62
-2101.71
-5518.09
-2548.01
-5969.54
896.913
4012.51
7183.74
-2632.68
3938.61
-4846.24
2094.42
5863.59
-2019.19
8396.17
4523.35
2162.27
8995.6
4685.84
10817.3
1129.26
11440.9
7431.03
5359.33
13093.6
14991.6
2330.3
4765.03
22868.8
30464
10339.1
18926
5430.98
-1501.95
1148.23
6749.94
10692.7
3294.89
7100.17
11271.4
6574.51
10024.6
19704.7
14997.8
11322.7
15993
12674
22255.6
16293.4
14285.7
8553.84
12316.7
18005.3
1287.98
7574.58
10883.7
11622.2
5572.72
9131.13
15100.2
24835.5
20338
26090.7
16516.3
26926.1
22202.4
21185.1
8680.66
19068.6
14690.8
13153.3
23733.9
17698
19114.4
15642
16224.9
21466
13994.7
25375.4
19425.4
19900.4
28699.1
35164
29062.7
29916
24156
23755.7
18151.1
16930.6
19223.1
5667.36
8754.42
35638.6
20741.6
25918.8
17132.1
6501.73
12479.9
8982.06
9730.1
14039.8
16261.2
17477.8
-32813
73121.1
102940
144231
28376.4
-32018.4
-226.316
-1437.56
-36879.3
73380.6
174739
179322
157166
219468
20864.2
200866
178724
170510
112260
40099.1
67068.7
70062.8
99589.1
15514.2
40015.5
154346
154648
156445
171643
176884
174695
200660
2045.52
-3083.1
-36414.8
11457.4
-22387.9
8204.11
-23045.2
9394.99
12665
8825.3
5671.08
177302
76041.9
3061
-18393.5
-23386.7
1340.94
-36804.5
-29370.3
-14416.6
-24567.9
150053
108156
98490
147426
131045
59399.4
63108.2
51651.8
52358.3
80189.1
-22167.5
-7978.89
10142.6
-7764.9
175542
203329
202075
200941
200405
218012
188671
164852
211613
195304
207869
191946
220409
229107
184685
159885
145449
173418
191670
201308
156105
-24217.6
-35281.7
-33061.2
-21139.7
-23690.1
-31658.8
-20543.3
69756.7
113333
104552
23188.6
9980.28
27056.2
3249.72
-32320.3
-34958
-33088.8
-20484
-21181.7
-23463.7
-20651.6
-11280
24099.4
17888.4
-2331.72
-3476.7
-13561.1
5291.38
144624
93603.3
142675
50359.1
55577.4
108704
28370.3
210305
185274
216686
221310
134676
165222
208561
146994
113532
54871.6
186097
39533.9
132371
112101
24682.9
-15890.7
-17353.4
-30114.9
-17973.1
17661.2
21381.8
35628.1
-35317.5
-19009.2
-19292.7
-26718.4
-14560.4
-16912.2
-25798
12228.2
-4743.94
10772.2
-3195.73
-708.565
-3038.71
18628.1
-26599.6
-26752.6
-17925.1
-16474
-25360
-14677.7
-25692
-20165.5
-6064.28
-6633.86
-21628.3
-11548.6
-13922.2
-23566
168.122
-3495.32
14982.4
-1182.62
33903.3
3551.7
23536
25950.1
13476.5
15992.8
44985.2
4874.59
4646.88
29474.6
-19545.5
-4655.76
-1216.7
-12936.6
-22809.5
-10117.9
-24076.5
56322
50320
23533.4
7559.87
46066.4
13059.2
38487.7
-70028.3
-32081.3
-67983.9
-69372.8
-70834.2
-61483.6
-47612.5
-56395.3
-25012.3
-43271.8
-5335.98
-63718.5
-35154.8
8893.47
-15887.3
32384.4
-67042.4
-60410
-66637
-64670.5
-46284.2
-56208.7
-59278.9
-70394.3
-69055.6
-69840.7
-67068.8
-65235.3
-62703.6
-67910.9
-50834.3
-60054.6
-66636.2
-33850.2
-58976.3
-51257.8
-47965.9
-55679.6
-22707.9
-35336.4
-19700.3
-29003.5
-38596.6
-14332.9
-71055.7
-69007.6
-70573.2
-68250.2
-67991.8
-68742.2
-67178.1
-31622.3
-10230.8
-48380.8
-14750.3
-14078.4
3669.66
-32238.4
-69637.8
-67377.8
-68358.7
-67129.6
-65456.5
-66267.8
-64854.2
-14180.4
11724
4726.6
-3732.05
17844.4
13326.6
423.184
-61486.8
-58036.6
-56685.8
-38653.3
-52051.8
-63516.5
-52085.5
-56256.1
-33810.5
-29313.5
-35646
-42063
-47697.8
-44110.8
-19862.3
-47794.3
-21279.9
-23927.2
-36359.4
-33758.7
-11125.4
-11512.1
-20962.9
-17115.5
-4457.14
-24959.3
-9390.84
-6081.15
-62841.4
-62217.2
-59097.2
-48763.5
-63625.1
-58696.2
-55527.3
-4158.36
-422.4
-6687.14
20767.1
12662.9
-17395.2
3231.55
3024.46
25374.4
29398.7
12749.9
21577.8
5980.07
10120.2
-64718.6
-65246.1
-60786.8
-60631.6
-65461.2
-64554.7
-59305.2
-39933.4
-77158.1
-26433.4
-34094.6
-42926.7
-25888.9
-67238.9
-42845.8
-51268.9
-62244
-55308.9
-39160.1
-50791.3
-43240.3
-34237.9
-68877.4
-66554.8
-65741.7
-64435.7
-60700.8
-55337
-63983.2
-58366.2
-38846.2
-53041
-42524.2
-33754.5
-46899.6
-32995.9
-29553
-23395
-23040.2
-30623.3
-39161.9
-34298
-27944.8
-87147.9
-75816.1
-68204.7
-54682.3
-77886.4
-62575.6
-67701.8
-32884.5
-51324.7
-40184.1
-59664.2
-51353.3
-43918.2
-55924.6
-23293.4
-26323.8
-24001.5
-34463.5
-28636.8
-36982.2
-28283.9
-32682.2
-36878.1
-31243.7
-43158.5
-62359.6
-49187.6
-55158.5
153514
101448
122855
62483.8
41312.4
156018
95233.5
60014.5
175962
32951.7
60857.4
34610.3
66137.1
45548.9
70902.5
79109.3
125535
78556.4
60206.1
114219
156686
196686
155151
42032.4
101902
76335.1
74230.5
57425
98883.3
119408
92115.6
130303
98819.9
132194
103037
114168
143685
50298.2
80138.9
59232.7
94759.4
80667
97541.9
121268
79469.9
84433.9
78227.9
124966
111083
122808
136170
143040
145461
112969
140342
189275
160708
173632
72896.8
53984
87253.6
89298.3
103753
108604
78775.7
132799
143257
137502
116502
127079
133689
154021
140200
126346
112307
135117
187883
166456
158817
166685
196501
139929
178414
156739
196585
171937
88971.5
125347
115902
124228
111594
136681
96323.7
66860.9
99925.7
89882.7
109280
92990
117198
83677.2
143448
150703
137093
147473
178780
167258
157839
143932
128610
115563
136395
171940
165210
147470
68389.7
135465
99084
61930.9
55659
40334.6
26721.6
-13338.7
31869.2
57475.2
24607.8
48594.1
34504.2
58996
67165
10977.7
7611.54
34595.4
4767.16
22781.1
45022.2
25597.4
76305
115476
87727.4
86317.3
123676
96287
110372
43574.2
46103.2
27213.8
76327.2
58406.1
70032.7
89698.8
48525.8
51617.6
43937.5
69022.3
83804.6
76011.6
76311.8
46473.4
37152.1
17446
41001.6
32358.3
54633
63229
87207.5
76499.2
59217
79262.9
108658
100321
87016.4
95278.4
124542
129976
111136
104355
119333
101529
127426
117956
108878
152730
135196
143708
101154
154679
180439
198592
185517
183384
164954
170352
-52450.2
-57218.9
-57377.1
-61549.4
-63993.1
-30116.6
-27727.3
-79239.8
-42799.8
-87381.8
-89138.5
-17642.3
10195.9
-41718.2
-49495.3
-73302.4
35789.9
-12817.4
-67854.3
-52203.4
-79169.9
-34892.6
-53562.3
-66206.2
-44825.2
-25931.1
-31695.8
-17901.4
-23941.5
-11365.1
-20596.1
-31281.5
-96419.3
-98440.5
-95812.5
-90255.3
-75940.5
-86733.7
-94907.2
6212.94
15698.5
-2400.76
35614.9
8710.01
-10460.7
-1521.06
-58606
-75776.9
-74308.7
-41455.1
-37778.8
-48716.1
-55362.3
-38997.5
-47880.3
-71056.4
-31012.4
-40667.5
-53913.4
-34045.1
-23580.5
-28887.6
-40527.6
-55765.7
-42989.7
-42023.4
-49026.7
-74410.1
-83446.4
-86436.1
-80399.7
-75296.6
-78361.1
-70347.1
-7323.02
-20773.1
-7490.23
-26660.3
-39637.6
-33789.2
-37723.4
-65689.5
-59536.8
-47786.4
-51981.7
-69826.4
-63494.8
-59667.1
-33054.8
-72792.8
-58632.8
-70241.8
-56230.5
-53307.2
-79228.1
-86110.7
-96570.3
-93959.1
-85659.1
-75173.9
-77345.7
-87611.7
1567.3
27296.3
9526.26
-24049.8
-33663.8
-20665.6
-38089.6
-58462.9
-32965.1
-40014.6
-47670.5
-48190.1
-56804.5
-41659.2
-56228.6
-61333.2
-57137.6
-66014.1
-60853.4
-61186.1
-56974
-74250.6
-65081
-64950.2
-69992.1
-72064.6
-67902.5
-67878.9
-77918.5
-70743.2
-72113.5
-69668.1
-71087.2
-64862.3
-64121.6
-64792.7
-67122.6
-61842
-66049.6
-60495.6
-57335
-61868.2
-75559.8
-61346.8
-62988.7
-64497.5
-68815.3
-65965.9
-74902.3
-76553.7
-64166.6
-68454.2
-62844
-67351.7
-60911.3
-56780.7
-51631.2
-50122.8
-42672.8
-45378
-53944.5
-44227.9
-50914.5
-57309.3
-45772.6
-54561.8
-43799
-52858.9
-50438.4
-41856.7
-55617.9
-57423.1
-61548.4
-55345.5
-47666.7
-50144.8
-52260.6
-53259.1
-62482.5
-58021.9
-53240.4
-51898.5
-57101.9
-48551.6
-58877.3
-64766.8
-65500.7
-58658.7
-52801.3
-52786.1
-58421.3
-54996
-51993
-59285
-54315.6
-45438.8
-48011
-51161
-62598.3
-55551.9
-63384.3
-57703.5
-50879.8
-50870.3
-57457.1
-60206.1
-49687.1
-55346
-52062.2
-49953.5
-46391.7
-56074.2
-47106.7
-42747.8
-51044.4