/*--------------------------------*- C++ -*----------------------------------*\
  =========                 |
  \\      /  F ield         | OpenFOAM: The Open Source CFD Toolbox
   \\    /   O peration     | Website:  https://openfoam.org
    \\  /    A nd           | Version:  9
     \\/     M anipulation  |
\*---------------------------------------------------------------------------*/
FoamFile
{
    format      ascii;
    class       volScalarField;
    location    "0.0029";
    object      rho;
}
// * * * * * * * * * * * * * * * * * * * * * * * * * * * * * * * * * * * * * //

dimensions      [1 -3 0 0 0 0 0];

internalField   nonuniform List<scalar> 
27870
(
0.44348
0.42195
0.594365
0.573222
1.01268
0.855122
1.41203
0.498543
0.362619
0.421974
0.404561
0.483065
0.476062
0.566178
0.496274
0.380873
0.413967
0.516768
0.581873
0.43943
0.485333
0.368187
0.375079
0.381072
0.38082
0.387169
0.400629
0.393659
0.485026
0.721308
0.857917
0.626737
0.643695
0.799333
0.974885
0.663424
0.505243
0.556232
0.904508
1.01783
0.719223
0.826358
0.38687
0.390271
0.396742
0.400499
0.407416
0.417674
0.410118
0.382391
0.439087
0.396893
0.44576
0.403083
0.41805
0.462918
0.400601
0.45309
0.411828
0.463203
0.422155
0.43396
0.477449
0.388974
0.412091
0.395553
0.416242
0.425465
0.434521
0.408357
0.430828
0.400358
0.407793
0.422466
0.437662
0.447587
0.414108
0.401172
0.422025
0.408294
0.430156
0.435953
0.445543
0.42168
0.920784
0.954447
1.24596
0.978867
1.14312
1.18649
1.27413
0.556234
0.504462
0.513123
0.580067
0.591485
0.531756
0.614147
1.19491
0.782663
0.919024
1.3398
1.41754
0.990779
1.24203
0.450087
0.470963
0.42536
0.441438
0.51798
0.468194
0.488878
0.456997
0.430506
0.412812
0.434932
0.501685
0.454245
0.481364
1.05951
0.979222
0.956033
0.792647
0.977188
1.20115
1.0589
1.41998
0.421173
0.452651
0.429154
0.440382
0.455656
0.46597
0.431483
0.440002
0.468265
0.42484
0.448046
0.512562
0.464969
0.493773
0.579975
0.52177
0.533396
0.601344
0.616236
0.549661
0.636969
0.734226
0.799182
0.729432
0.676473
0.735078
0.796089
0.866897
0.47039
0.488497
0.44506
0.458153
0.534668
0.485745
0.504251
0.439988
0.457482
0.450706
0.494164
0.461075
0.468302
0.430516
0.65173
0.621856
0.68378
0.738495
0.666117
0.695573
0.775754
0.603277
0.543616
0.523695
0.572119
0.550839
0.636491
0.660597
0.54209
0.665927
0.627739
0.593554
0.560854
0.649794
0.688855
0.538577
0.643717
0.622598
0.586611
0.567008
0.657853
0.680104
0.460067
0.539986
0.516373
0.531029
0.482094
0.489818
0.50861
0.45465
0.472559
0.462206
0.507808
0.483858
0.473181
0.444687
0.650723
0.754332
0.678338
0.777797
0.697436
0.725041
0.812557
0.562361
0.692823
0.653276
0.614173
0.579749
0.674236
0.715816
0.788372
0.795847
0.740441
0.808179
0.87752
0.855387
0.937321
1.60504
1.45652
1.12669
1.6155
1.47772
1.45068
1.71998
0.47427
0.530682
0.555897
0.543859
0.505326
0.494205
0.52256
0.887568
0.895271
0.812852
1.06425
0.970465
0.879802
0.964314
1.04714
0.869459
0.94908
0.863231
0.792918
0.868928
0.94851
0.878908
0.806425
0.893577
0.975473
1.06938
0.877108
0.95789
0.759728
0.712707
0.682011
0.724991
0.853038
0.75547
0.813795
0.845868
0.828225
0.856087
0.903045
0.936247
0.900267
0.992071
0.61664
0.605137
0.581354
0.672865
0.744127
0.69936
0.714333
0.924449
1.0021
0.854087
1.0311
0.949729
1.02345
1.11911
0.76206
0.796335
0.712742
0.7417
0.895277
0.791025
0.833598
0.734705
0.789926
0.706564
0.752809
0.884867
0.781054
0.848308
0.636864
0.621868
0.599317
0.696624
0.77039
0.741342
0.721879
0.798007
0.83913
0.746311
0.773856
0.940488
0.826602
0.874228
0.913025
1.07098
0.981836
1.11975
1.0219
1.09092
1.20274
0.886863
0.916294
0.836938
0.952923
0.903294
0.997328
1.05853
1.16519
1.05648
0.959954
1.16587
1.28277
1.16457
1.05598
1.08004
1.09007
0.978677
1.19176
1.30942
1.17624
1.06697
1.03474
1.05218
0.968756
1.06167
1.13672
1.15463
1.23734
1.17872
1.16493
1.30398
1.07046
1.17804
0.960702
1.05239
0.770954
0.933524
0.856183
0.911024
0.802761
0.821576
0.871422
0.879371
1.05604
0.964903
1.00144
0.92609
1.02327
1.11345
0.873227
1.01678
0.959942
0.990955
0.944911
1.04717
1.10331
0.932367
1.12819
1.03062
1.05685
0.975954
1.08415
1.18089
0.802102
0.890684
0.977904
0.947949
0.85703
0.832317
0.910459
1.07732
0.999486
1.09147
1.09842
1.30373
1.17383
1.21088
1.225
1.225
1.225
1.225
1.225
1.225
1.225
1.22726
1.225
1.225
1.225
1.225
1.225
1.225
1.57319
1.2253
1.22501
1.225
1.225
1.225
1.225
2.7116
2.60649
1.25707
1.22503
1.225
1.225
1.225
1.31203
1.97843
2.80978
1.75116
1.22516
1.225
1.225
0.612869
0.937271
1.57003
2.58429
2.23857
1.22518
1.225
0.52867
0.796614
1.43628
2.5633
1.86411
1.22504
0.505031
0.792866
1.54169
2.79463
1.2782
0.580072
1.15038
2.60582
1.33562
1.225
1.225
1.225
1.225
1.225
1.225
1.225
1.225
1.225
1.225
1.225
1.225
1.225
1.225
1.22983
1.22505
1.225
1.225
1.225
1.225
1.225
2.77685
2.09871
1.23012
1.22501
1.225
1.225
1.225
1.55272
2.24893
2.84769
1.33006
1.22502
1.225
1.225
0.80843
1.12959
1.76491
2.78042
1.55552
1.22503
1.225
0.69599
0.959695
1.62304
2.76899
1.36696
1.22501
0.840994
0.951853
1.73044
2.85798
1.23398
0.763629
1.36028
2.80421
1.22726
1.225
1.225
1.225
1.225
1.225
1.225
1.225
1.225
1.225
1.225
1.225
1.225
1.225
1.225
1.22501
1.225
1.225
1.225
1.225
1.225
1.225
2.06323
1.24132
1.22504
1.225
1.225
1.225
1.225
2.30297
2.82017
2.03057
1.22587
1.225
1.225
1.225
1.42178
1.86095
2.42483
2.76281
1.22788
1.225
1.225
1.2537
1.52114
2.20679
2.78731
1.22623
1.225
1.28412
1.24509
2.35546
2.25455
1.22508
1.36421
1.44687
1.3314
1.22501
1.225
1.225
1.225
1.225
1.225
1.225
1.225
1.225
1.225
1.225
1.225
1.225
1.225
1.225
1.225
1.225
1.225
1.225
1.225
1.225
1.225
1.22511
1.22501
1.225
1.225
1.225
1.225
1.225
2.76839
1.47743
1.22576
1.225
1.225
1.225
1.225
1.75521
2.12138
2.70223
1.23357
1.22501
1.225
1.225
1.50124
1.66809
1.9265
2.85103
1.23552
1.225
1.225
1.29663
1.90565
2.00222
2.76753
1.22636
1.225
1.34196
1.60412
2.40025
1.22502
1.225
1.225
1.225
1.225
1.225
1.225
1.225
1.225
1.225
1.225
1.225
1.225
1.225
1.225
1.225
1.225
1.225
1.225
1.225
1.225
1.225
1.225
1.225
1.225
1.225
1.225
1.225
1.225
1.225
1.22515
1.22502
1.225
1.225
1.225
1.225
1.225
2.64616
1.38169
1.22566
1.225
1.225
1.225
1.225
2.23359
2.08676
2.22726
1.22769
1.225
1.225
1.225
1.36492
1.76061
2.00709
2.32032
1.22604
1.225
1.225
1.84401
2.24507
1.22503
1.225
1.225
1.225
1.225
1.225
1.225
1.225
1.225
1.225
1.225
1.225
1.225
1.225
1.225
1.225
1.225
1.225
1.225
1.225
1.225
1.225
1.225
1.225
1.225
1.225
1.225
1.225
1.225
1.225
1.225
1.225
1.225
1.225
1.225
1.225
1.225
1.225
1.22531
1.22502
1.225
1.225
1.225
1.225
1.225
2.41913
1.32548
1.22521
1.225
1.225
1.225
1.225
1.63562
1.91152
2.49107
1.22527
1.225
1.225
1.225
2.31895
2.45867
2.41031
1.225
1.225
1.225
1.225
1.225
1.225
1.225
1.225
1.225
1.225
1.225
1.225
1.225
1.225
1.225
1.225
1.225
1.225
1.225
1.225
1.225
1.225
1.225
1.225
1.225
1.225
1.225
1.225
1.225
1.225
1.225
1.225
1.225
1.225
1.225
1.225
1.225
1.225
1.225
1.225
1.225
1.225
1.225
1.225
1.225
1.22519
1.22502
1.225
1.225
1.225
1.225
1.225
2.09399
1.25133
1.22506
1.225
1.225
1.225
1.225
2.38651
1.95677
1.22645
1.225
1.225
1.225
1.225
1.225
1.225
1.225
1.225
1.225
1.225
1.225
1.225
1.225
1.225
1.225
1.225
1.225
1.225
1.225
1.225
1.225
1.225
1.225
1.225
1.225
1.225
1.225
1.225
1.225
1.225
1.225
1.225
1.225
1.225
1.225
1.225
1.225
1.225
1.225
1.225
1.225
1.225
1.225
1.225
1.225
1.225
1.225
1.225
1.225
1.225
1.225
1.225
1.22502
1.225
1.225
1.225
1.225
1.225
1.225
1.22501
1.22506
1.225
1.225
1.225
1.225
1.225
1.225
1.225
1.225
1.225
1.225
1.225
1.225
1.225
1.225
1.225
1.225
1.225
1.225
1.225
1.225
1.225
1.225
1.225
1.225
1.225
1.225
1.225
1.225
1.225
1.225
1.225
1.225
1.225
1.225
1.225
1.225
1.225
1.225
1.225
1.225
1.225
1.225
1.225
1.225
1.225
1.225
1.225
1.225
1.225
1.225
1.225
1.225
1.225
1.225
1.225
1.225
1.225
1.225
1.225
1.225
1.225
1.225
1.225
1.225
1.225
1.225
1.225
1.225
1.225
1.225
1.225
1.225
1.225
1.225
1.225
1.225
1.225
1.225
1.225
1.225
1.225
1.225
1.225
1.225
1.225
1.225
1.225
1.225
1.225
1.225
1.225
1.225
1.225
1.225
1.225
1.225
1.225
1.225
1.225
1.225
1.225
1.225
1.225
1.225
1.225
1.225
1.225
1.225
1.225
1.225
1.225
1.225
1.225
1.225
1.225
1.225
1.225
1.225
1.225
1.225
1.225
1.225
1.225
1.225
1.225
1.225
1.225
1.225
0.702968
0.429336
0.506601
0.6148
0.785774
0.504735
0.587205
0.689292
0.431214
0.516389
0.584994
0.768468
0.497237
0.598869
0.675137
0.447087
0.529619
0.526308
0.775696
0.611053
0.863853
0.827663
0.469007
0.542606
0.713812
0.927794
0.548993
0.631675
0.42237
0.443565
0.446118
0.453681
0.456215
0.482612
0.472214
0.865086
0.576399
0.663082
1.06268
1.25553
0.863845
1.00065
0.652628
0.660257
0.844637
0.676403
0.99493
1.22299
0.954907
0.438572
0.448501
0.458823
0.454221
0.464883
0.48961
0.478418
0.608414
1.07523
0.923874
0.690545
0.948599
1.04714
1.36134
0.450636
0.521426
0.524835
0.474101
0.476905
0.504388
0.552226
0.457821
0.527206
0.479213
0.534263
0.485509
0.511173
0.560227
0.457484
0.466737
0.477985
0.47868
0.490315
0.516848
0.505168
1.02242
0.631277
0.793469
1.25025
1.46488
1.01298
1.09776
1.05934
1.56913
1.4208
1.34017
1.56261
1.60384
2.27728
1.09816
1.46156
1.74801
1.41959
1.57726
1.59661
2.36936
1.40202
1.45184
1.00899
1.71956
2.14294
1.27916
1.47685
0.478625
0.551708
0.500162
0.566198
0.513269
0.54072
0.593484
0.479602
0.485518
0.49696
0.501455
0.51283
0.537598
0.525809
1.59368
1.17717
1.381
2.11869
2.57453
1.4738
1.70716
1.2338
0.550452
0.783152
0.879385
1.3264
0.630408
0.863114
0.470405
0.515317
0.480735
0.5163
0.550299
0.560233
0.506014
0.473448
0.517136
0.484296
0.521736
0.553868
0.564277
0.510865
0.499559
0.570514
0.51905
0.588086
0.535754
0.562728
0.61646
0.566156
0.592671
0.59711
0.683079
0.688863
0.626515
0.722398
1.3036
0.570244
0.874668
0.873482
1.39698
0.604257
0.961376
0.476417
0.527171
0.487078
0.520156
0.559816
0.570013
0.509766
0.666583
0.600433
0.609674
0.693619
0.705861
0.636938
0.73641
1.3854
0.587563
0.817398
1.0351
1.4831
0.624178
0.902392
0.485976
0.540134
0.497396
0.529324
0.572094
0.583249
0.518151
0.537612
0.549888
0.502357
0.538723
0.629829
0.582835
0.58612
0.549955
0.557601
0.50893
0.54272
0.640967
0.59299
0.590653
0.49255
0.537493
0.504003
0.551449
0.585149
0.596181
0.539886
0.592235
0.521208
0.533075
0.569464
0.630697
0.642315
0.557533
1.25786
0.663469
0.703783
0.922312
1.60696
1.01295
1.71097
0.563935
0.569536
0.519485
0.552299
0.657497
0.607311
0.601919
0.53936
0.553896
0.50562
0.544171
0.635029
0.587127
0.592785
0.708101
0.631408
0.649223
0.733398
0.756213
0.676421
0.785089
0.578097
0.560837
0.526907
0.575697
0.670978
0.62033
0.627518
0.509465
0.554382
0.521024
0.572455
0.607746
0.619449
0.560448
1.78647
0.712046
1.00057
1.43547
1.91187
0.82032
1.10528
0.546321
0.625263
0.558449
0.595397
0.667124
0.679437
0.5832
1.04327
1.12336
1.38105
1.20686
1.4148
1.95534
1.35039
0.619248
0.612641
0.558222
0.594939
0.724096
0.669062
0.648653
0.579278
0.597379
0.54496
0.59873
0.700136
0.646041
0.652975
0.737629
0.654449
0.674924
0.763866
0.789596
0.703955
0.820576
1.41482
0.706118
0.940684
1.35395
1.81283
1.06016
1.32525
0.745347
0.886354
0.895085
0.782212
0.789502
0.829163
0.942403
1.48609
0.838659
1.0462
1.33984
1.88751
1.10031
1.45771
1.41809
1.16148
1.13018
1.57748
2.01
1.32863
1.34314
0.763712
0.903826
0.796103
0.923102
0.811856
0.847474
0.965274
0.623652
0.760103
0.718852
0.705228
0.661468
0.761415
0.807861
0.633171
0.779457
0.730797
0.717797
0.666783
0.7678
0.822389
1.16555
0.961739
1.05363
1.07175
1.1799
1.17917
1.30497
1.08515
1.11951
1.07829
1.16159
1.20488
1.19764
1.28867
1.57637
0.871764
0.985021
1.56682
1.999
1.14978
1.38766
0.648434
0.804628
0.751301
0.737784
0.680819
0.786044
0.847001
1.20929
1.42936
1.5284
1.18412
1.53131
1.49286
2.17455
0.571747
0.629272
0.617396
0.712906
0.639743
0.627523
0.560941
0.563302
0.610237
0.616271
0.698647
0.619828
0.625958
0.553334
0.654795
0.640091
0.584836
0.623242
0.769632
0.709596
0.679692
0.628934
0.7638
0.725938
0.711694
0.6699
0.77243
0.815993
0.560521
0.610624
0.60839
0.620465
0.618031
0.694186
0.684713
0.815075
0.96183
0.845369
0.995496
0.873753
0.906966
1.03539
0.658075
0.796544
0.762265
0.75164
0.70952
0.819185
0.861427
0.999847
1.09344
1.2048
1.12754
1.24546
1.23102
1.36525
0.580849
0.627103
0.637041
0.64345
0.653717
0.727242
0.717498
0.698774
0.882287
0.812399
0.811127
0.733698
0.847609
0.928794
1.81232
0.975343
1.27959
1.1014
1.80849
1.52312
2.28254
1.64373
1.23101
1.40136
2.06199
2.38175
1.55
1.6962
0.595043
0.736266
0.713236
0.699082
0.66362
0.650739
0.64393
0.586017
0.72101
0.689254
0.696065
0.642355
0.648669
0.633262
0.616419
0.695152
0.665893
0.786038
0.676504
0.706085
0.605033
0.583175
0.690683
0.6875
0.643255
0.640587
0.716656
0.764186
0.599024
0.64665
0.657475
0.669847
0.681003
0.759579
0.749007
1.15669
1.29155
1.37657
1.23642
1.16654
1.0554
1.1283
0.828381
0.681841
0.715669
0.786417
0.740158
0.85748
0.903373
1.3351
1.23707
1.08453
1.20112
1.30664
1.38029
1.49402
0.65338
0.708455
0.660119
0.72708
0.677391
0.750252
0.799564
1.15559
1.28574
1.36784
1.22678
1.12282
1.05227
1.15891
0.885775
0.975367
0.854661
1.05357
0.918609
0.953649
1.09447
0.676071
0.733638
0.682319
0.760795
0.707179
0.784863
0.838108
1.02357
1.09975
1.23338
1.17236
1.04948
0.974023
1.08223
1.26063
1.40459
1.47812
1.2563
1.3186
1.13782
1.20325
0.641685
0.785914
0.810767
0.752629
0.701095
0.731957
0.694302
0.645549
0.738063
0.699671
0.838986
0.74997
0.711168
0.6336
0.873635
0.937349
0.824866
0.87504
1.05794
0.927899
0.996468
1.02229
0.839572
0.896815
0.882661
1.07771
0.944885
1.00542
1.12227
1.00507
0.93918
0.994918
1.11069
1.06168
1.18977
1.50228
1.29951
1.38772
1.17122
1.25436
1.27426
1.36282
1.57631
1.29655
1.44991
1.31127
1.43447
1.28894
1.17195
1.38635
1.35192
1.26326
1.23234
1.14975
1.26257
1.35123
2.03148
0.920409
1.20564
2.06191
2.59136
1.38663
1.6553
0.730729
0.936291
0.852614
0.86446
0.770414
0.892787
0.991963
1.27639
1.1738
1.25704
1.41523
1.30319
1.39129
1.50525
1.87267
1.71743
1.48481
1.70265
2.44122
2.33695
2.52228
2.07543
1.56663
1.76162
1.79064
2.44492
2.53584
2.46824
0.792686
0.776567
0.722142
0.82854
0.97375
0.90166
0.883092
0.988458
0.929372
0.866496
0.906226
1.11514
0.975501
1.03462
0.878324
0.948801
0.834066
0.889155
1.07034
0.938064
1.01386
0.76463
0.772183
0.709053
0.812216
0.949665
0.868621
0.877124
1.29037
1.29717
1.17307
1.43695
1.31317
1.45122
1.57812
0.675321
0.732569
0.743816
0.780438
0.792021
0.883225
0.872209
0.809136
0.766784
0.762872
0.871593
0.866811
0.840409
0.945425
1.07494
1.03859
0.966424
1.016
1.13553
1.08928
1.22243
1.29318
1.15095
1.06763
1.2358
1.10284
1.02108
1.13856
1.33486
1.34665
1.22922
1.21624
1.11628
1.22712
1.33381
1.44467
1.17211
1.29795
1.42306
1.29781
1.44486
1.59315
1.55024
1.7031
1.79384
2.22884
2.49049
2.89682
2.56798
1.4651
1.34524
1.22585
1.38898
1.51236
1.51745
1.64103
1.60739
1.93833
1.56126
1.81387
2.43782
2.4348
2.02777
0.673855
0.867701
0.840101
0.795669
0.77977
0.739032
0.730678
1.0019
0.917655
0.878783
0.945083
1.13153
0.990803
1.07968
0.731837
0.785961
0.806578
0.892663
0.915782
0.878673
0.987256
2.26262
0.935071
1.44595
1.67096
2.41149
1.02132
1.54358
0.69064
0.806277
0.700318
0.794121
0.914109
0.923829
0.784651
2.19825
0.909976
1.4919
1.53328
2.33624
0.992814
1.58923
0.700016
0.802206
0.709514
0.820206
0.926927
0.936557
0.810712
1.78087
2.30512
1.69652
2.73817
2.89441
1.98154
2.5171
2.7205
1.57212
1.79957
2.50538
2.21619
1.91547
2.39587
1.91784
2.38886
1.428
2.41865
1.85081
2.24545
2.43671
1.1994
1.49561
1.32881
1.4511
1.31218
1.46201
1.62671
1.32688
1.31269
1.19856
1.45399
1.34128
1.49517
1.62835
1.25033
1.50413
1.34489
1.48735
1.33457
1.43195
1.5896
1.16309
1.37338
1.2531
1.41208
1.29052
1.38607
1.50984
0.68437
0.792417
0.693713
0.789787
0.902555
0.912089
0.780456
0.761673
0.828255
0.771283
0.881795
0.821263
0.911029
0.97058
1.15181
1.25389
1.08204
1.03466
1.12095
1.16949
1.31207
0.871526
0.834797
0.77784
0.891247
1.06369
0.947185
0.98784
1.05314
0.919761
0.958466
0.993696
1.19291
1.04173
1.13999
1.34738
1.58495
1.45953
1.66777
1.54252
1.66132
1.78474
0.722324
0.827297
0.732564
0.85764
0.967514
0.977634
0.847467
0.72469
0.788584
0.800912
0.856751
0.869346
0.971151
0.958922
0.759039
0.815657
0.846158
0.927779
0.962231
0.923113
1.03844
2.51155
1.04643
1.78855
1.6397
2.64317
1.13659
1.89835
1.15672
1.25087
1.39691
1.38273
1.23811
1.33122
1.49215
1.99237
1.89505
1.94947
2.89598
2.53101
2.6436
2.82228
1.16756
0.940511
1.01995
0.979093
1.22039
1.06814
1.11974
1.38314
1.27607
1.43833
1.6113
1.54055
1.5451
1.73014
1.27709
1.4346
1.53321
1.54506
1.42277
1.61014
1.7251
0.829258
0.771463
0.723139
0.8167
0.998568
0.946955
0.86578
0.8147
0.763252
0.716032
0.812131
0.985192
0.93479
0.860614
0.742507
0.884687
0.752532
0.847489
0.9945
1.00458
0.837758
0.824592
0.780286
0.732107
0.842852
1.01067
0.959433
0.89264
0.908532
0.827129
0.776226
0.870582
1.08171
1.02819
0.921649
0.756675
0.89729
0.83272
0.971912
0.902925
1.00396
1.07334
1.42319
1.33472
1.38
1.54693
1.46089
1.3071
1.20065
2.68185
1.13639
1.6428
2.11809
2.75621
1.23856
1.74694
0.783575
0.948139
0.7945
0.897553
1.0673
1.07813
0.887066
1.92553
2.40344
2.76299
2.9145
2.5431
2.4021
2.83204
1.40687
1.581
1.66748
1.78686
1.58181
1.69085
1.88638
0.934861
0.885262
0.820903
0.942796
1.14814
1.06155
1.0062
0.850857
0.807808
0.756711
0.882061
1.05607
1.00175
0.935461
1.28456
1.14444
1.09895
1.19313
1.34206
1.24128
1.39794
1.9826
1.1991
1.48944
2.14545
2.77759
1.51446
2.09723
1.5721
1.50524
2.0635
1.62962
2.11928
2.83443
2.3148
0.953315
1.10606
1.17797
1.15284
1.03267
1.01108
1.08867
0.932903
1.07798
1.13179
1.143
0.993573
1.0033
1.0637
0.975545
0.877549
0.821321
0.923248
1.16362
1.10454
0.979254
0.818221
0.932664
0.82889
0.993078
1.11157
1.12245
0.982356
1.05584
1.26161
1.18298
1.19643
1.12504
1.26344
1.34554
1.0764
1.15527
1.29851
1.21911
1.13548
1.27574
1.37126
0.929631
1.13675
1.12978
0.997478
0.99168
1.07362
1.21839
1.06968
1.26986
1.19968
1.21112
1.14596
1.28842
1.36266
1.45061
1.29641
1.19376
1.41609
1.26671
1.36901
1.5362
0.852786
0.918086
0.976615
1.03909
1.10298
1.06439
1.18897
0.362031
0.408263
0.477049
0.547726
0.71284
0.898463
0.956285
0.394275
0.309121
0.342333
0.416104
0.461042
0.348237
0.395264
0.313072
0.318973
0.323171
0.326147
0.330395
0.340294
0.335844
0.529317
0.39428
0.452214
0.662743
0.771125
0.511584
0.620542
0.322017
0.362619
0.333001
0.370239
0.340558
0.351536
0.384486
0.851051
0.541014
0.665496
0.880041
1.11853
0.649673
0.813891
0.470866
0.355515
0.402666
0.478967
0.550441
0.413273
0.473136
0.330115
0.346915
0.334473
0.351461
0.358741
0.363827
0.346759
0.34379
0.367232
0.348415
0.358219
0.371432
0.37701
0.353329
0.379885
0.392925
0.359866
0.370829
0.429898
0.390906
0.407026
0.35921
0.378321
0.34543
0.363956
0.416649
0.377787
0.400008
0.441646
0.412807
0.421359
0.46538
0.475122
0.439394
0.497985
0.478972
0.546001
0.508629
0.557932
0.519631
0.548973
0.59395
0.369329
0.382113
0.375979
0.401025
0.388191
0.381787
0.364045
0.360468
0.371869
0.36976
0.377457
0.375223
0.392639
0.386391
0.573645
0.578533
0.591086
0.613486
0.626654
0.632619
0.672249
0.624478
0.473291
0.621265
0.808741
0.939469
0.701473
0.791256
0.431975
0.514347
0.489382
0.477934
0.458301
0.521548
0.545904
0.448968
0.544258
0.509262
0.494214
0.466679
0.531571
0.56615
0.383283
0.417751
0.444817
0.438487
0.403492
0.397226
0.422229
0.374325
0.434194
0.432065
0.392975
0.390757
0.409549
0.452646
1.23208
0.698539
0.878712
1.15415
1.64689
0.930796
1.17813
0.609027
0.696359
0.651997
0.712044
0.666118
0.715772
0.766569
0.389351
0.415963
0.395809
0.411928
0.424727
0.433633
0.404493
0.605787
0.608651
0.562109
0.590597
0.69869
0.633569
0.645151
0.569595
0.582444
0.538805
0.578359
0.668476
0.608427
0.630821
0.385367
0.409993
0.39154
0.409932
0.421228
0.429965
0.402632
0.511783
0.503647
0.485121
0.554788
0.61037
0.588533
0.578003
0.540148
0.497691
0.494609
0.570305
0.566358
0.517626
0.594769
1.05848
0.83029
0.968758
1.20841
1.48861
0.972018
1.06826
0.620131
0.710342
0.658942
0.723928
0.677081
0.722991
0.778592
0.433996
0.455818
0.412663
0.43
0.49927
0.452847
0.47471
0.428183
0.451759
0.408499
0.428025
0.495358
0.449205
0.472694
0.648528
0.762742
0.689475
0.758895
0.693126
0.740634
0.818235
0.336278
0.495747
0.67886
0.298442
0.345421
0.399197
0.340036
0.386228
0.39285
0.453225
0.302525
0.313289
0.311361
0.315596
0.317592
0.330505
0.326096
0.381363
0.45757
0.582633
0.448957
0.518399
0.615143
0.749159
0.310477
0.356368
0.354197
0.324776
0.326851
0.341089
0.374008
0.524576
0.722381
0.835241
0.647207
0.902759
0.882325
0.971827
0.328998
0.350379
0.333548
0.346322
0.357828
0.363104
0.341576
0.325308
0.344573
0.329634
0.344389
0.354308
0.359248
0.339798
0.428176
0.405831
0.403035
0.454845
0.45838
0.426773
0.48405
0.377338
0.362817
0.344303
0.358534
0.416556
0.377155
0.394861
0.373036
0.356671
0.340182
0.356446
0.412146
0.37305
0.392726
0.464291
0.537115
0.532541
0.496529
0.500781
0.532637
0.575138
0.36014
0.371366
0.369599
0.392519
0.375101
0.377059
0.35508
0.556478
0.568932
0.564228
0.59841
0.603207
0.611916
0.649968
0.431105
0.522135
0.489567
0.477837
0.451774
0.514711
0.546853
0.425412
0.510574
0.482102
0.471682
0.448836
0.510702
0.538291
0.374012
0.434573
0.409598
0.432195
0.390679
0.392752
0.413256
0.629856
0.683982
0.635958
0.640862
0.59076
0.69176
0.739826
0.631746
0.539385
0.579698
0.570409
0.669887
0.610035
0.621092
0.572492
0.565001
0.530176
0.565279
0.657412
0.599142
0.615317
0.498193
0.494786
0.473266
0.540646
0.596002
0.566784
0.571563
0.6582
0.619839
0.677239
0.724764
0.665614
0.710004
0.778653
0.703582
0.659349
0.609202
0.710895
0.659384
0.703468
0.763745
0.749024
0.759589
0.767055
0.815123
0.836739
0.826664
0.902544
0.899686
0.827254
0.771
0.74906
0.700371
0.757766
0.812741
0.819292
0.805759
0.751132
0.736926
0.688959
0.750899
0.805382
0.619362
0.691014
0.734511
0.718575
0.662103
0.648923
0.681588
0.816653
0.787918
0.734664
0.791664
0.952455
0.880677
0.851189
0.758477
0.750715
0.7015
0.772217
0.900963
0.835848
0.829202
0.430755
0.444926
0.443276
0.481357
0.454915
0.453203
0.422041
0.660187
0.634635
0.601416
0.707268
0.639478
0.671443
0.747661
0.702008
0.708846
0.672956
0.635208
0.641145
0.602208
0.660864
0.522142
0.632293
0.600794
0.568983
0.541832
0.624291
0.656586
0.593076
0.516317
0.539598
0.563656
0.539015
0.620462
0.649319
0.44996
0.502692
0.522685
0.52073
0.475233
0.473536
0.496086
0.804864
0.786147
0.739162
0.795749
0.933908
0.875643
0.853905
0.767571
0.765835
0.71419
0.772748
0.838416
0.823613
0.901728
0.830529
0.824984
0.766268
0.839113
0.774048
0.71461
0.767617
0.959612
0.808484
0.881001
0.977554
0.896287
0.980145
1.07191
0.843324
1.00061
0.906359
1.03164
0.933127
1.00666
1.11156
0.851609
1.05265
0.932758
1.03827
0.921973
1.01086
1.14458
0.744847
0.705796
0.669267
0.704835
0.836057
0.741169
0.790268
0.897302
0.887235
0.823623
0.98268
0.906605
0.983649
1.07412
1.07421
0.984233
0.897321
0.906662
0.982109
0.823326
0.886603
0.855029
1.02138
1.0324
1.00303
0.94947
0.924311
0.922771
0.594421
0.591797
0.564651
0.650698
0.720067
0.685578
0.682024
0.720071
0.756711
0.678988
0.7098
0.848085
0.750773
0.796349
0.897691
0.877859
0.820273
0.933607
0.876938
0.96794
1.03725
0.834165
0.992939
0.914151
0.947971
0.884003
0.976323
1.05378
1.13051
1.09558
1.00302
1.10204
1.36797
1.24986
1.20795
1.04409
1.30149
1.18083
1.12994
1.40372
1.28042
1.24532
1.08232
0.98059
1.0685
1.09277
1.31239
1.19409
1.20446
0.743062
0.826516
0.890888
0.884984
0.785661
0.780969
0.838551
1.17364
1.06595
0.978754
1.06529
1.2768
1.15008
1.17322
1.09479
1.09121
0.998222
1.07526
1.29994
1.16941
1.18515
1.00062
0.9935
0.936764
1.04097
1.18633
1.11781
1.10928
1.22968
1.52157
1.51882
1.46947
1.39394
1.34528
1.34997
1.15458
1.32764
1.39274
1.38136
1.24648
1.23668
1.28231
1.4961
1.33505
1.55283
1.63061
1.4499
1.3828
1.2683
2.46099
1.07369
1.67925
2.02344
2.84071
1.46626
2.08754
1.46789
1.7452
2.1926
1.55729
2.53997
2.87699
2.20157
1.3544
1.20337
1.11654
1.26338
1.17049
1.31675
1.42241
1.08675
1.14271
0.993129
1.03581
1.30933
1.14313
1.19018
0.839037
1.04666
0.943574
1.06572
0.938245
1.04427
1.17413
0.964102
1.16356
1.02112
1.19361
1.04741
1.11986
1.26994
1.33118
1.26856
1.13098
1.2807
1.22153
1.37326
1.44036
2.5392
1.10594
1.6341
2.20438
2.8604
1.51016
2.03833
0.848903
1.06881
0.95535
1.08111
0.944363
1.05149
1.19187
0.857599
1.0588
0.964017
1.0927
0.972556
1.08132
1.2029
1.73205
1.44212
1.60456
1.60509
1.89775
1.76682
1.73297
0.910998
0.957631
0.855016
1.01954
1.20572
1.14803
1.07803
0.884474
1.01192
0.89626
1.09283
1.22137
1.23342
1.08087
1.50983
1.34922
1.28103
1.40072
1.57046
1.46872
1.6493
1.39377
1.54075
1.61624
1.52553
1.67891
1.63048
1.76852
1.52468
1.67698
1.76682
1.53812
1.62815
1.39223
1.48338
1.32843
1.57701
1.45205
1.5798
1.71003
1.57664
1.45151
1.16221
0.940874
0.952281
1.06851
1.28834
1.30047
1.05731
2.49177
1.40501
1.51521
1.91137
2.81967
2.03291
2.80813
1.02527
1.28369
1.20346
1.23343
1.08269
1.12786
1.17142
1.4776
1.78629
1.65998
1.62352
1.93508
1.80364
1.75085
1.62188
1.47494
1.6001
1.65724
1.93143
1.80262
1.78137
1.57124
1.61754
1.74262
1.53994
1.83051
1.70309
1.65912
1.59049
1.46515
1.35388
1.49152
1.73948
1.60724
1.61778
1.19209
1.04545
0.981886
1.09667
1.3927
1.32914
1.15881
0.889583
1.09686
1.00118
1.14321
1.02104
1.13632
1.25922
1.0048
1.21244
1.06264
1.2568
1.1017
1.17813
1.33568
1.05417
0.998059
1.07916
1.13121
1.21897
1.18087
1.31915
1.65507
1.44682
1.53538
1.61082
1.73625
1.69724
1.82483
0.919521
1.05542
1.06559
1.06984
1.08004
1.25277
1.24153
2.73208
1.22528
1.99998
2.14956
2.86447
1.64116
2.51238
1.04137
0.991714
0.927068
1.12437
1.33016
1.26362
1.19287
0.908654
1.16071
1.02012
1.16765
1.00367
1.11496
1.28234
1.24438
1.34108
1.1924
1.3531
1.29374
1.45797
1.52396
0.944963
1.07842
1.08878
1.11124
1.1218
1.29108
1.27954
1.73795
1.58937
1.4888
1.61597
1.47526
1.35162
1.46351
2.80971
1.33755
1.84384
2.73724
2.78477
1.77806
2.31428
0.966803
1.25431
1.08686
1.25789
1.06874
1.18833
1.3814
1.21539
1.32196
1.48615
1.38095
1.26736
1.42473
1.55177
1.82424
2.84015
2.0052
1.69736
2.51736
2.43857
2.8606
1.48571
1.59022
1.6313
1.78987
1.83874
1.73158
1.95484
1.69906
1.78139
1.90199
1.71053
2.04049
1.91077
1.8325
1.83959
1.71424
1.58287
1.78577
2.04808
1.91206
1.91127
0.913345
1.05915
1.05194
1.24504
1.06938
1.06211
0.903747
0.96463
1.09673
1.13724
1.31521
1.10708
1.14784
0.954822
1.43124
1.60218
1.56628
1.74201
1.75997
1.67899
1.89084
1.37568
1.48573
1.61399
1.49855
1.68299
1.69866
1.83518
0.942232
1.14237
1.08922
1.15727
1.10375
1.27775
1.33374
1.08723
1.29778
1.3799
1.31213
1.21242
1.15104
1.24555
1.42989
1.67572
1.54904
1.60147
1.88826
1.75725
1.74114
1.49057
1.74167
1.64075
1.67113
1.9632
1.79476
1.8462
1.5876
1.55718
1.43228
1.53203
1.83501
1.69239
1.66015
0.936187
1.27013
1.14712
1.13906
1.09327
1.0858
0.986944
1.02193
1.2172
1.15766
1.39774
1.22854
1.16855
1.01149
1.12059
1.3455
1.18419
1.42023
1.25349
1.33751
1.50332
0.999854
1.2198
1.11938
1.29771
1.17088
1.29364
1.41856
1.62134
1.37827
1.44012
1.70257
1.50785
1.57156
1.77526
0.968501
1.16778
1.11297
1.20227
1.14635
1.31662
1.37423
1.68003
1.75933
1.65499
1.76395
1.87498
1.84434
1.96768
1.52619
1.5672
1.61967
1.67196
1.73073
1.78052
1.90944
1.05686
1.19149
1.20251
1.25959
1.27111
1.43777
1.4252
2.74821
1.61621
2.15863
2.75078
2.63052
1.74615
2.31973
1.05699
1.32509
1.0696
1.19563
1.45526
1.4687
1.18304
1.68588
1.75453
1.84508
1.79771
2.09435
1.98731
1.90413
1.98097
1.88074
1.7573
1.87446
2.25345
2.09464
2.00313
0.987766
1.34035
1.18512
1.22695
1.13095
1.17196
1.03998
1.28044
1.29316
1.20292
1.35281
1.55128
1.44058
1.4546
1.58987
1.48355
1.32334
1.41683
1.69909
1.51041
1.59192
1.51352
1.45653
1.6364
1.43101
1.73178
1.53956
1.60777
1.33389
1.30514
1.23261
1.38735
1.59218
1.50066
1.46862
1.50645
1.4248
1.60158
1.44615
1.7228
1.53062
1.62614
1.34872
1.28651
1.27828
1.43834
1.37621
1.44771
1.54633
2.75132
1.57023
1.83845
2.87601
2.6086
2.30416
2.69767
1.29864
1.60381
1.46487
1.48485
1.35229
1.52497
1.67095
1.80536
1.69883
1.77158
1.91461
2.00141
1.8635
2.11036
1.04697
1.42409
1.31346
1.25083
1.25456
1.19365
1.10327
1.35971
1.17744
1.10395
1.22896
1.57747
1.50287
1.30143
1.20186
1.23175
1.08514
1.18246
1.47886
1.3257
1.33235
1.17648
1.21545
1.07124
1.17408
1.45684
1.30567
1.32278
1.40459
1.71271
1.52101
1.47827
1.80087
1.59826
1.66312
1.08128
1.28308
1.22709
1.35383
1.29649
1.4636
1.52111
1.14475
1.49149
1.27456
1.49237
1.25652
1.38366
1.62055
2.69203
1.61975
2.09099
2.14849
2.79259
2.66233
2.19121
1.40053
1.31646
1.35015
1.48022
1.43293
1.51717
1.60699
1.18976
1.24112
1.09404
1.2143
1.48929
1.33632
1.36658
1.23272
1.28997
1.1368
1.27567
1.55517
1.39793
1.43397
1.6776
1.59207
1.41943
1.5399
1.8194
1.61637
1.73167
1.09264
1.33593
1.22466
1.43419
1.29931
1.43505
1.56687
1.21245
1.46182
1.28827
1.56017
1.38166
1.47838
1.65325
1.14775
1.29011
1.30204
1.37789
1.39051
1.56166
1.54808
1.18255
1.22682
1.24237
1.33854
1.3548
1.42168
1.5357
1.30346
1.37289
1.42265
1.54405
1.50582
1.59906
1.68678
1.20293
1.44078
1.3422
1.62077
1.35435
1.45359
1.19149
1.29961
1.30978
1.15601
1.25064
1.57647
1.41998
1.40571
1.44965
1.39438
1.32587
1.49066
1.7119
1.5656
1.62579
1.21906
1.25507
1.29146
1.36998
1.40843
1.46501
1.58225
1.67056
1.82937
1.9238
1.99952
1.83044
1.9248
2.11117
2.28636
2.66747
2.74553
2.72378
2.30637
1.24294
2.16934
1.93892
1.6986
1.78776
2.03285
1.87538
1.97181
2.14858
1.23
1.54344
1.64938
1.44004
1.38089
1.48166
1.29052
1.23276
1.22368
1.06805
1.17717
1.52948
1.3459
1.33562
1.27139
1.3146
1.12373
1.23593
1.60138
1.38508
1.42979
1.40187
1.39361
1.23129
1.33169
1.68778
1.52611
1.49343
1.77552
1.57463
1.50533
1.63962
1.9367
1.71327
1.8527
1.17595
1.39068
1.32945
1.48401
1.4197
1.59081
1.654
2.77405
1.66425
2.53491
2.70299
2.59817
1.76628
2.66683
1.23149
1.44892
1.2427
1.45296
1.66132
1.67539
1.44032
1.83822
1.99255
1.93881
2.09065
2.21843
2.02463
2.32673
1.77564
2.07446
2.09311
1.93038
1.94883
2.09973
2.27604
2.825
2.65454
2.68938
1.79362
1.23502
2.49692
2.26428
2.45287
2.46773
2.17757
1.4828
1.22842
2.42464
1.58962
1.64198
1.95019
1.97348
1.91723
1.81092
1.76469
1.77774
1.33877
1.6134
1.48375
1.80144
1.62749
1.49707
1.32599
1.40729
1.3421
1.19355
1.31302
1.69707
1.5292
1.46136
1.71957
1.66794
1.8828
1.59798
1.96751
1.74147
1.79947
1.42549
1.36219
1.26348
1.43938
1.72099
1.56094
1.60269