/*--------------------------------*- C++ -*----------------------------------*\
  =========                 |
  \\      /  F ield         | OpenFOAM: The Open Source CFD Toolbox
   \\    /   O peration     | Website:  https://openfoam.org
    \\  /    A nd           | Version:  9
     \\/     M anipulation  |
\*---------------------------------------------------------------------------*/
FoamFile
{
    format      ascii;
    class       volScalarField;
    location    "0.0019";
    object      impulseMax;
}
// * * * * * * * * * * * * * * * * * * * * * * * * * * * * * * * * * * * * * //

dimensions      [1 -1 -1 0 0 0 0];

internalField   nonuniform List<scalar> 
15278
(
85.9909
93.2467
95.1746
56.4293
63.6856
62.4044
38.3461
48.6522
51.0273
0.0373779
0.000270954
2.85902e-05
70.2186
45.9428
79.6131
53.8945
35.1863
14.4714
28.5648
13.9358
10.4205
2.06245
2.10995
0.201759
3.05748
25.4819
51.4973
46.9043
99.301
64.3308
52.0848
44.4346
93.2084
50.0876
56.2394
32.7785
75.9924
39.7435
85.5715
46.6265
35.0352
25.1647
64.991
26.0542
41.0953
18.7843
54.2596
29.6187
19.3783
10.9323
37.0924
14.2518
44.867
25.1609
17.2872
8.1353
30.2752
6.78013
21.2438
5.59335
23.5649
13.2763
3.75469
2.91774
11.1055
3.56166
16.7674
10.6781
22.8292
0.227512
4.1686
29.8583
14.2736
10.1131
4.0767
24.9164
20.4027
8.46549
371.084
103.857
302.908
97.448
162.079
52.7065
83.7673
3.88443
5.91432
0.0162408
190.14
192.38
345.282
181.825
137.848
128.729
100.142
119.487
176.966
120.988
239.89
140.998
62.1097
94.1263
71.3857
49.6185
115.48
17.7967
103.162
37.8748
0.700061
1.70766
8.78437
0.091779
128.675
83.7862
23.5115
0.0686555
38.6725
1.17455
0.00427148
0.00803833
0.0829007
0.000673778
115.015
149.993
78.1388
103.654
148.789
77.5277
116.812
80.4581
132.518
70.0312
93.1997
94.1988
121.78
62.8717
5.67105
54.2433
19.1224
33.1111
17.9177
29.2405
7.67042
0.039917
1.69653
0.337096
1.39038
0.140701
0.49381
0.105587
19.6849
0.715379
3.69893
0.381251
0.0310176
0.0753021
0.000502404
0.270285
0.0116176
273.724
436.98
202.467
189.75
433.601
201.401
274.921
267.146
185.73
403.638
191.048
420.108
196.713
258.204
110.556
102.04
139.861
73.9113
144.99
75.9921
103.812
229.279
384.599
183.147
169.775
245.889
361.422
172.331
208.055
158.451
295.895
133.256
332.775
156.771
180.179
60.9862
85.0791
81.8207
35.4404
105.384
51.2768
38.1637
107.28
248.278
101.38
85.5243
144.983
194.502
68.2028
74.153
58.1968
102.287
23.3154
143.327
41.2866
49.522
1.46401
17.8994
4.91063
0.929466
12.761
2.60001
0.442628
118.059
158.871
115.862
114.318
143.573
141.544
94.5627
141.321
151.271
197.585
105.554
94.2059
100.218
105.541
53.2808
124.85
74.3038
69.5521
92.1698
31.9548
65.492
49.355
18.3316
71.8992
12.0065
12.6365
31.9071
47.5854
4.92393
8.2289
4.9535
11.4704
0.294701
27.0416
1.39829
2.43308
0.00985536
0.384459
0.0261118
0.00580324
0.123597
0.0271958
0.00210501
9.29187
1.53292
0.149036
16.0527
0.29798
3.29864
1.64464
0.000168763
1.1958e-05
9.97175e-05
0.0289998
8.20426e-05
0.000122614
1.38005e-05
0.456288
0.232954
2.84453
0.0452404
0.0367076
0.431269
0.00699484
1.26724e-06
0.287219
4.00944e-05
211.91
201.622
192.588
148.932
134.173
99.4774
153.334
113.132
90.8663
67.1296
61.4376
38.1433
129.794
94.2087
51.1897
40.9751
56.779
97.5361
138.162
214.196
100.975
140.316
55.8499
55.7816
209.216
101.134
135.109
102.531
138.512
54.4538
51.5126
99.2448
129.595
180.354
53.141
94.7551
121.746
49.7444
164.74
82.4492
102.145
88.4588
112.196
47.7125
41.295
76.8109
91.7314
120.931
44.8308
71.2679
81.6279
37.8922
109.461
62.1021
64.2513
66.5693
72.4047
34.8467
30.0298
58.1852
57.09
83.1806
32.3181
55.1112
50.0505
27.7804
75.2947
52.3406
34.4575
52.5486
42.3042
26.7575
211.003
192.101
189.621
140.434
228.406
178.24
173.455
194.202
127.631
150.422
139.723
164.773
157.686
174.824
49.7355
76.7443
30.7486
45.5729
47.4874
75.1353
22.6253
125.079
115.651
69.2191
148.068
101.305
120.082
85.5967
29.2083
0.000751392
0.000571751
0.372513
31.5864
17.0018
13.4606
9.03076
0.000190879
2.13833
3.15582e-05
0.0153803
9.2035e-07
0.000107441
9.45363e-09
0.0172297
1.37012e-07
2.66111e-10
6.69345e-09
34.1699
19.161
22.0535
14.8556
0.920278
0.00306657
0.374468
0.00164
15.2214
4.28508
0.982386
0.0442776
0.17978
0.000426349
0.232515
0.0141072
0.00541393
0.000969793
0.00175137
0.000219154
2.62189e-05
6.52584e-05
0.0442788
8.25533e-06
0.000205243
7.27622e-06
2.87402
0.00750216
0.0183687
4.14842
1.84018
0.00425991
0.00900678
0.311915
0.000871452
0.00133042
0.0666479
0.00299319
0.00103703
9.0541e-05
0.000154886
3.57216e-05
1.19227e-05
0.000340857
5.5436e-05
2.13212e-06
2.67084e-06
1.63893e-05
2.43634e-07
7.16211e-07
1.60365e-06
3.08906e-06
2.49222e-08
1.31102e-07
0.000172519
5.08977e-06
8.94888e-06
4.92351e-05
3.49871e-06
78.711
62.4977
40.6304
32.2572
61.0371
38.1748
81.1859
72.8817
28.0323
52.108
25.4078
57.5819
32.8668
63.9724
0.0285654
0.0881362
0.287773
0.809631
0.0758786
0.248341
0.0335495
0.0195002
0.609807
0.0311512
0.0980891
0.0545409
0.175173
0.0102881
37.3245
43.8873
16.986
8.6206
52.0188
32.939
8.92251
21.6756
3.55673
9.61676
0.749788
20.5663
3.16608
8.84148
0.00134904
0.0137972
0.0431795
0.0668663
0.00420524
0.00479046
0.0150814
0.457498
2.99412
0.155354
0.0561982
2.21015
0.741002
0.0326332
0.113321
0.0163203
0.0743323
0.00256037
0.218567
0.00825648
0.0346045
0.00301688
0.0250736
0.000794799
0.00049397
0.0108915
0.00736984
0.000226776
0.000763467
0.000122207
0.000388943
1.51973e-05
0.00182511
5.60723e-05
0.000164346
0.00127433
0.0866788
0.00264295
0.0108741
0.00478201
0.0204142
0.000720138
7.58746e-05
0.000149817
1.31315e-05
2.89457e-06
0.000252789
4.53104e-05
4.39776e-06
11.628
1.06534
8.14868
10.3429
0.920597
1.12038
1.33225
2.28213
0.170108
0.839664
0.796619
0.0616036
0.0551115
0.168064
0.0102195
0.000982985
0.00366403
0.00217036
0.000238218
0.000142261
0.000635102
5.79783e-05
6.81117e-06
2.98412e-05
1.65744e-05
2.06082e-06
2.06374e-06
4.95222e-06
0.00390923
0.00120497
0.00286168
0.000313723
0.000210313
5.51897e-05
0.000590155
3.89878e-07
5.17004e-09
1.7998e-08
1.38155e-07
6.42168e-08
5.34562e-09
4.17285e-09
1.38547e-05
7.18472e-07
9.13303e-07
5.02976e-08
6.37015
4.83607
0.373221
7.84194
0.653355
0.754903
0.401958
0.263559
0.0502794
0.00438608
0.221174
0.0178103
0.014365
0.00323179
0.00104399
0.000176915
2.27144e-05
0.000588118
6.68784e-05
3.9701e-05
1.51515e-05
7.32086e-06
1.28529e-06
1.12939e-07
4.23196e-06
4.75604e-07
5.44014e-07
1.88776e-07
7.95571e-05
2.54665e-06
1.15406e-06
2.48217e-05
1.4558e-05
4.90663e-06
1.07985e-06
0.000119971
1.28097e-05
5.59192e-06
0.00011939
5.79747e-05
6.82202e-06
2.6296e-06
1.43118e-05
1.22838e-06
6.71489e-07
7.02076e-06
3.5535e-06
3.12248e-07
1.67297e-07
5.70648e-07
3.0325e-08
2.50703e-08
7.84396e-08
1.25567e-07
2.96041e-09
6.32495e-09
3.06626e-08
3.8623e-10
1.29424e-09
1.07468e-09
5.51881e-09
6.12947e-11
3.00415e-10
2.05468e-07
1.89479e-08
5.70084e-10
1.98996e-11
1.50883e-06
9.30151e-05
0.000177908
0.00643142
9.87908e-06
0.00021292
0.00397334
8.91019e-05
5.64088e-05
5.91287e-05
5.01437e-06
0.00042799
0.315646
27.5135
5.81385
0.0595563
0.00110148
2.97584e-05
2.5277e-06
3.52814e-08
5.61178e-07
2.48429e-05
1.33705e-06
0.000629421
0.00308748
3.31603e-05
0.034588
0.000295827
0.00135664
1.62332e-05
6.61394e-05
0.000110664
4.90421e-06
0.000225908
1.51252e-05
9.15305e-06
9.27004e-07
2.7974e-06
1.9058e-06
1.77504e-07
8.6874e-06
7.83389e-07
5.70675e-07
5.6511e-08
2.18749e-07
1.49963e-07
1.4227e-08
5.41335e-07
5.81464e-08
3.29391e-08
5.19891e-09
3.21876e-08
8.19487e-06
3.05071e-06
4.31608e-07
1.82026e-07
2.9728e-07
4.49603e-08
1.39016e-06
5.1372e-07
3.31684e-08
2.1233e-09
5.24512e-12
3.80788e-09
6.76231e-11
4.15223e-10
8.11597e-12
1.30723e-11
2.68362e-13
4.56566e-13
4.72937e-15
9.26472e-14
0
1.44018e-10
3.12672e-12
5.32358e-14
0
2.74155e-06
8.92148e-07
1.68199e-07
2.67091e-08
6.00838e-08
1.47824e-09
3.57707e-11
8.4292e-13
9.33748e-15
0
309.471
259.745
281.274
276.21
301.319
251.747
262.046
270.72
245.094
8.00975e-10
2.05372e-09
4.12023e-11
3.14286e-10
6.17292e-12
1.74293e-11
3.48397e-13
1.03695e-12
1.17628e-14
2.95646e-13
4.85064e-16
8.25032e-08
1.52782e-08
7.80353e-10
4.85874e-11
1.60579e-11
166.863
1.83592e-05
8.45986e-07
4.51848e-05
0.00219629
8.83918e-06
0.000264853
2.11645e-05
1.16863e-06
1.02658e-06
5.34106e-08
151.156
144.284
46.4251
12.8383
0.425155
0.0262935
0.00022068
5.51534e-05
1.04176e-05
1.13454e-06
24.8663
0.405477
25.0428
10.5891
9.22862
8.96901
6.68206
1.10418
1.72296
534.227
439.987
715.914
498.856
360.75
418.348
862.381
771.787
864.679
654.135
932.623
707.188
795.942
1385.82
1381.23
1479.65
1288.09
774.739
580.042
540.811
615.298
628.294
711.694
672.735
1275.59
1049.32
1181.29
1136.29
428.64
451.609
507.168
342.04
553.652
366.053
397.234
734.257
881.646
953.219
687.438
768.456
642.989
378.095
188.603
53.0233
431.71
689.775
390.548
365.271
447.664
263.394
227.65
218.5
145.805
118.563
780.017
665.3
908.694
765.389
663.918
899.589
786.64
617.945
560.141
775.799
586.206
673.441
510.96
712.15
321.873
334.042
454.844
313.409
399.066
281.024
361.796
134.175
178.64
172.675
165.088
164.077
158.308
138.913
3.32055
0.02581
640.132
550.149
511.005
430.39
548.18
507.373
644.994
1304.68
1510.42
1488.06
1322.37
1071.38
833.805
825.827
1084.53
750.546
730.627
600.013
824.979
634.595
865.215
715.785
616.738
412.652
495.919
470.771
524.434
491.537
588.169
1247.8
1343.48
1421.5
1181.4
1025.95
757.388
794.918
973.202
508.706
463.335
444.619
335.023
553.671
423.569
409.958
1036.89
1261.85
1112.17
1175.3
859.604
718.329
919.444
674.401
551.398
519.523
392.112
548.849
453.293
635.151
477.926
455.667
300.251
328.924
322.846
377.472
369.009
397.158
950.446
956.152
1076.37
845.823
789.673
555.338
621.849
703.802
272.119
282.928
271.837
195.058
334.119
241.218
221.185
571.211
807.028
716.526
637.906
476.7
470.745
596.715
375.075
254.164
259.236
203.873
216.54
237.145
279.614
201.631
217.671
167.501
179.86
141.609
206.614
176.583
174.881
433.303
342.52
476.137
319.071
362.782
208.112
283.529
268.578
166.755
244.625
233.565
170.601
106.514
143.193
117.09
77.6485
139.051
108.18
78.353
108.796
55.8983
108.09
58.6106
0.2855
17.5024
1.61554
1.99551
19.4273
0.364907
4.08236
742.143
687.119
614.484
524.292
452.945
661.195
595.303
495.548
408.988
339.531
232.175
209.79
186.833
656.17
534.201
384.474
623.92
348.465
327.273
246.722
223.011
167.922
536.276
444.25
451.781
527.573
538.041
467.599
463.677
522.715
454.776
452.288
492.97
421.986
418.983
391.01
301.61
505.32
382.367
500.183
385.931
390.363
502.13
496.809
493.869
370.484
369.037
453.532
384.737
480.922
470.975
409.75
349.233
426.148
302.836
444.208
325.801
390.767
373.559
274.037
277.993
312.053
300.063
349.964
343.007
291.856
259.009
279.864
202.274
316.614
240.869
252.423
269.743
184.137
207.748
208.203
224.256
228.862
248.325
8.03281e-06
2.19274e-07
6.07585e-07
5.24722e-09
2.73097e-08
1.7653e-06
2.92158e-06
4.41169e-07
4.76363e-07
1.86368e-07
3.91172e-08
1.33426e-08
7.04932e-10
3.1958e-10
1.21396e-11
4.39933e-08
7.97498e-10
1.54233e-09
404.559
914.505
150.189
1.6161
0.00524441
6.17969e-06
1.37901e-06
8.90416e-08
4.20789e-09
349.033
780.128
127.87
0.202989
0.000713597
7.01588e-07
6.81502e-09
8.95979e-09
3.45229e-10
143.597
465.157
29.3038
0.000472389
1.97976e-06
1.13829e-08
1.94608e-12
1.49736e-10
5.99842e-12
18.7272
197.27
0.0255462
4.18911e-07
4.62804e-10
4.29586e-11
1.2186e-12
2.03569e-12
9.14345e-14
0.000231348
25.6062
6.92771e-06
0.00339396
4.27112e-09
1.64871e-08
4.82675e-12
1.74447e-10
4.2752e-06
0.00892888
1.71647e-08
7.79212e-06
5.25961e-11
1.28545e-09
781.925
726.042
746.472
641.839
806.852
290.316
388.427
738.846
279.845
857.304
828.201
768.075
55.7282
144.083
46.0033
0.0736078
0.00514328
0.000315193
0.911014
0.0271934
0.00327217
0.000131677
4.22494e-05
7.15718e-05
1.33293e-05
0.00169365
1.09099e-05
4.09682e-05
5.46565e-06
665.364
560.98
698.999
260.727
285.857
503.155
225.215
558.431
25.3967
90.2395
5.68135
0.0125262
0.000600305
0.000120619
0.0167857
0.000261109
4.76231e-05
2.7786e-05
3.95808e-06
1.13136e-05
1.35395e-06
1.25435e-05
6.3969e-08
1.35365e-06
1.21178e-07
456.361
359.738
288.949
421.553
206.366
64.0954
225.095
81.498
241.204
227.615
0.204751
0.896586
0.00241392
4.31526e-05
1.27562e-05
2.2312e-06
5.80407e-06
7.27027e-08
3.17846e-07
4.98163e-08
1.34102e-08
5.32836e-08
6.32979e-09
3.20545e-09
3.06452e-10
1.37287e-09
3.65002e-10
241.16
257.445
178.89
183.994
185.501
13.4661
1.39871
76.2445
0.00947084
192.462
86.34
113.654
9.59159e-05
0.000631126
3.31532e-07
1.03533e-08
9.42283e-09
1.06212e-09
1.01682e-08
3.0464e-10
5.32079e-10
3.29505e-11
9.21142e-11
3.38901e-11
2.79896e-11
6.96158e-10
1.04928e-08
8.1749e-12
3.03503e-11
0.00156968
7.59691e-08
1.45363e-07
3.48838e-06
1.21236e-05
1.27704e-07
4.2469e-07
0.0496936
3.56897e-07
5.87482e-06
2.95411e-05
0.000117687
1.64298e-06
5.22254e-06
70.585
0.00286137
29.3905
0.000281467
0.0765776
3.5118e-06
3.96246e-05
4.51881e-09
6.64046e-07
1.0961e-09
212.86
206.746
182.734
12.7385
50.8117
57.5965
171.105
8.72323
40.2768
181.52
97.2145
140.032
0.0866087
19.0933
4.53102
81.6348
0.0485214
2.69971
23.9761
0.846099
2.28164
0.00010537
0.0581473
0.000589992
0.0120492
2.18756e-05
0.000430956
0.029875
0.000980552
0.000343023
2.54461e-06
2.95218e-05
6.51527e-06
6.05793e-05
3.01354e-07
3.75563e-06
1101.18
948.317
1073.64
899.063
935.198
1055.86
1119.32
148.012
202.577
200.217
95.5159
141.273
140.248
96.2654
0.00010737
0.000343034
0.0018965
0.00453247
0.000294415
0.0016141
0.00012724
894.587
797.592
937.1
720.779
963.048
733.142
876.186
182.823
112.569
170.19
83.4881
135.867
90.3129
130.998
3.77875e-06
3.88807e-05
0.000217554
0.000234228
1.2478e-05
1.19623e-05
6.58284e-05
445.584
470.002
572.056
376.952
579.326
379.882
439.276
7.78508
82.1365
40.7055
10.2814
78.5105
29.6561
46.1661
3.9367e-09
8.84682e-08
4.60629e-07
2.49529e-07
2.45776e-08
1.07764e-08
5.56127e-08
117.832
196.35
152.233
161.291
160.649
162.198
108.634
0.00158822
0.160218
0.00988463
0.00519127
0.560745
0.0310109
0.0959156
2.79797e-12
2.03777e-11
1.07727e-10
7.84165e-11
7.61065e-12
6.0331e-12
1.90687e-11
3.66875e-05
1.7915
9.83964e-05
11.1163
0.034157
0.0719799
7.47157e-05
46.0258
0.0703225
2.06586
0.162181
2.2282
0.000124141
0.0144265
0.000104897
0.00904323
0.000161218
0.000662685
0.000439879
0.0018382
3.77454e-05
1.3751e-10
4.05938e-11
2.17924e-09
6.58165e-09
4.53181e-11
1.50009e-08
5.11823e-10
1.12865e-07
1.68715e-10
5.74952e-10
5.43892e-08
1.72859e-07
1.7861e-09
5.42898e-09
766.78
669.739
938.49
793.962
659.85
924.227
778.144
286.639
410.011
404.977
662.913
285.732
282.018
674.557
1241.01
1573.27
1542.64
1263.67
745.766
769.045
614.643
867.875
641.021
898.475
717.277
394.37
271.463
379.849
640.672
266.667
274.774
612.616
1195.24
1420.48
1484.22
1140.4
1072.88
921.049
1013.27
851.689
911.561
1001.07
1088.45
1790.01
1783.29
1745.31
1828.69
1738.15
1659.33
1631.9
1771.53
1062.09
867.075
852.656
983.708
897.979
1022.45
1017.28
1033
813.082
826.739
918.716
872.876
962.642
987.972
1709.37
1593.25
1672.7
1618.59
1659.68
1470.45
1557.62
1568.62
52.6391
107.905
104.932
75.6599
44.2076
41.9084
77.2141
196.233
137.919
190.848
94.6683
138.067
139.052
93.4961
98.6234
36.4684
88.7014
72.7737
29.9782
37.0886
67.7759
0.222048
0.944524
0.0242133
0.0640609
0.830333
0.0207754
0.25762
0.157828
0.0465715
0.39393
0.00764179
0.630099
0.0142728
0.0900536
9.02475e-06
2.4359e-05
1.97467e-05
3.53873e-05
2.07151e-05
1.63801e-05
1.06408e-05
6.96411e-05
0.00313683
9.95617e-05
0.000550978
0.00019728
0.00108001
3.34203e-05
5.52622e-06
2.27715e-05
6.32822e-06
4.9908e-06
1.33104e-05
1.02672e-05
2.69268e-06
633.876
578.615
829.794
646.964
680.623
532.791
777.659
361.052
246.046
336.571
545.462
257.992
581.755
247.326
1023.01
1359.54
1085.26
1286.48
575.772
581.29
415.636
619.105
478.546
708.273
503.065
304.448
261.829
194.34
500.195
208.989
232.261
440.851
946.913
1070.25
1194.11
846.239
1440.02
1518.36
1532.75
1433.09
807.587
646.01
564.531
694.298
654.514
795.375
703.651
1329.94
1189.36
1328.31
1187.84
74.5339
14.3888
56.278
47.3016
21.5653
59.5326
12.9815
150.826
60.4766
121.498
71.5306
104.934
121.703
52.9335
1.30615
35.4489
16.0077
31.6979
1.59738
5.75395
15.9448
0.0144569
0.196753
0.00321303
0.0044403
0.0409333
0.0752516
0.00105024
0.00385578
0.00121029
0.00491965
5.43266e-05
0.0219176
0.000266069
0.000828902
2.83896e-07
2.29457e-06
1.72844e-06
1.16982e-06
9.30322e-07
6.71295e-07
5.62224e-07
8.65828e-07
6.02876e-05
5.84131e-07
3.16466e-06
2.94095e-06
1.60992e-05
1.9022e-07
6.11691e-08
2.90543e-07
3.1211e-08
3.24918e-08
1.60673e-07
1.1897e-07
1.4431e-08
318.425
349.09
510.882
343.974
414.373
285.897
393.421
142.195
148.659
93.529
264.009
171.812
361.193
120.681
530.095
897.55
706.495
679.28
229.817
277.084
188.998
196.607
231.634
284.114
159.15
37.1016
43.8119
12.6743
166.302
28.6443
68.3708
88.4102
348.817
266.314
454.917
197.941
761
997.948
996.402
756.849
322.078
300.775
240.375
217.209
301.03
315.506
224.658
314.904
276.814
234.493
223.359
291.578
298.81
226.521
523.531
306.509
511.218
325.872
518.351
345.403
499.844
340.296
0.0245061
3.83196
0.48143
0.786062
0.295405
4.80455
0.0434149
11.418
1.38955
0.0821202
1.81455
3.83269
18.1464
0.226544
0.00024377
0.0474327
0.00454288
0.101797
0.000601481
0.00526174
0.0119283
1.54113e-05
0.000849695
8.08434e-06
5.63969e-06
0.000119924
0.000115801
9.96791e-07
1.67659e-06
6.28391e-07
1.4927e-06
1.32984e-08
1.3035e-05
1.10793e-07
1.94599e-07
4.55763e-10
4.95333e-09
5.46316e-09
3.15498e-09
2.01896e-09
7.86062e-10
1.61465e-09
3.70295e-10
2.73706e-08
1.40032e-10
7.55627e-10
1.15768e-09
6.09238e-09
8.13385e-11
7.16822e-11
9.41894e-10
3.00771e-11
1.38815e-10
1.42572e-10
3.96672e-10
2.13427e-11
77.2147
155.731
137.602
150.629
111.266
125.935
96.5363
3.76277
0.373774
2.24324
17.3165
8.23453
41.456
1.72521
45.7071
138.532
99.0344
67.199
48.4044
114.606
62.0101
32.0676
95.0838
62.1649
23.0602
0.113233
0.732562
0.0632705
5.13258
0.0454805
0.299094
0.86271
16.9011
6.62687
27.0433
3.57257
128.276
194.403
172.87
165.619
168.527
164.095
135.852
110.94
167.225
192.193
87.2395
138.123
236.745
218.812
159.121
82.2172
125.196
94.3691
40.2593
129.611
72.4242
50.1526
93.8132
140.955
105.081
71.377
136.029
103.032
61.5658
55.7681
11.2035
38.4939
20.2609
77.2125
46.3932
96.2673
33.1388
6.50279e-06
3.17273e-05
0.000578176
0.000269532
8.31703e-05
0.00161609
1.39556e-05
0.00428416
4.00644e-05
0.000262048
0.000880112
0.00246606
0.016514
0.000129714
2.50648e-06
1.57015e-05
1.082e-06
4.5056e-05
3.48661e-07
2.28643e-06
6.61643e-06
4.9839e-09
2.09329e-07
1.90977e-09
1.7562e-09
2.79366e-08
3.64761e-08
3.34529e-10
8.0769e-10
2.94975e-10
8.20375e-10
4.48494e-11
5.93367e-09
5.42905e-11
1.34496e-10
2.81094e-12
7.12098e-12
3.74787e-11
3.96522e-11
4.20284e-12
7.77642e-12
1.50684e-11
1.35408e-11
3.85655e-11
1.84668e-09
9.48588e-11
7.15048e-11
7.88399e-12
2.55376e-10
3.19179e-11
4.13293e-10
4.69208e-09
1.38508e-09
1.79271e-10
7.50644e-11
6.28534e-10
7.8696e-06
0.000809406
7.10664e-05
0.000294719
3.61507e-05
0.000142623
1.62257e-05
4.3057e-07
3.18174e-06
7.15691e-08
7.13904e-08
1.59482e-06
8.95123e-07
3.4708e-08
0.00027141
0.0229383
0.00250429
0.0105762
0.00113547
0.00474511
0.000613936
5.87832e-06
7.54373e-06
9.85772e-07
1.73767e-07
2.08637e-05
2.1139e-06
3.89823e-07
1.50514e-05
0.000121991
2.57701e-06
1.96386e-06
5.43825e-05
3.41264e-05
9.90657e-07
0.000590969
1.5094e-05
1.00225e-07
6.38949e-05
1.08033e-07
8.22252e-09
2.44774e-07
3.08526e-11
1.04584e-10
1.62502e-09
6.96261e-12
1.41263e-12
0.0840342
2.0068e-07
3.36522e-10
1.31898e-05
2.47308e-09
0.000187978
0.000166102
9.24405e-05
2.4753e-05
1.12952e-06
0.00484845
2.50575e-06
8.64637e-05
0.00109701
1.4452e-07
4.82634e-06
5.39476e-09
2.32115e-05
1.03316e-08
3.49623e-07
7.24157e-06
8.64864e-10
3.00518e-08
1.90644e-08
1.12168e-07
1.41375e-10
2.22049e-09
1.05423e-05
0.000169322
7.45429e-06
0.00262122
0.007504
0.000246135
0.000497923
0.00638749
0.000205131
0.00311791
0.000103473
0.0009572
2.37418e-05
1.95546e-05
0.00034646
0.000310974
7.43451e-06
2.87067e-07
4.20569e-06
8.23732e-08
5.65008e-08
1.24535e-06
9.76927e-07
2.2228e-08
2.22473e-09
2.76987e-08
5.49518e-10
4.81264e-10
8.41839e-09
7.5786e-09
1.74301e-10
0.00141845
0.106398
0.00431431
0.0183587
0.00555495
0.0237973
0.00108119
4.18669e-07
1.38247e-09
1.67487e-09
2.83021e-07
2.83859e-07
9.96966e-09
1.01767e-08
0.00174472
0.000331135
0.00233024
6.45709e-05
0.00437937
0.000132456
0.00088789
2.65303e-05
4.99947e-06
1.92478e-05
4.3872e-07
8.2488e-05
1.73352e-06
5.94594e-06
0.000350621
0.0197254
0.000319845
0.00098892
0.00133737
0.00414563
7.98982e-05
3.86552e-06
7.10755e-05
0.000206001
0.000257331
1.70591e-05
1.65683e-05
4.79112e-05
8.70903e-08
1.68836e-08
9.14297e-08
1.9986e-09
2.8457e-07
5.83268e-09
2.65834e-08
1.15016e-06
7.19013e-05
1.53272e-06
4.17603e-06
4.77066e-06
1.33253e-05
3.52137e-07
2.93594e-08
4.70402e-07
1.31822e-06
2.02324e-06
1.11829e-07
1.28935e-07
3.60147e-07
7.12739e-10
8.38969e-10
2.61983e-08
2.55565e-09
2.88458e-09
1.67134e-10
3.58836e-09
7.69872e-09
4.99762e-07
3.0173e-08
1.86158e-08
3.33942e-08
8.82489e-08
4.67822e-09
8.09823e-05
0.00021443
1.39639e-05
3.45442e-06
0.000280102
6.08811e-05
4.51304e-06
0.785015
0.0178014
0.00500809
0.408882
0.00252264
0.0367602
0.0716205
1.54892
0.180771
0.0109293
3.70269
0.0293574
0.388644
0.149737
0.166507
13.109
0.973587
0.449573
7.85339
0.0754045
0.975954
1.36084
15.6312
14.0375
0.982441
11.1629
10.1091
1.13827
3.30599e-06
9.48097e-05
6.25615e-05
5.60596e-05
2.1658e-06
2.7045e-05
1.0942e-06
8.09106e-08
3.4055e-08
5.94047e-07
4.26686e-06
1.86321e-07
1.94443e-06
8.96123e-08
0.0661583
3.39373
1.20797
0.0689868
2.90469
0.188251
1.17858
2.04946e-05
1.71751e-07
4.11651e-06
1.09987e-05
4.01302e-07
1.69129e-06
5.73394e-08
1.46211e-07
6.61836e-10
1.12047e-08
6.68603e-07
2.64287e-08
6.66777e-08
2.87689e-09
5.50585e-05
0.0100962
0.0011834
0.000102423
0.0150993
0.000744834
0.00211283
3.64571e-07
1.73582e-09
1.16389e-08
7.00043e-08
2.41209e-09
1.89153e-09
1.09751e-10
3.74896e-11
3.30362e-11
6.08626e-10
2.60705e-09
1.1419e-10
9.55128e-11
5.08165e-12
9.15869e-08
1.71972e-07
1.79678e-06
3.48835e-08
3.86317e-06
1.87354e-07
6.62298e-07
2.66492e-11
6.39062e-11
3.83752e-10
4.75178e-11
3.88184e-12
2.26658e-12
8.57593e-13
4.81426e-14
1.45277e-13
3.01976e-12
3.03808e-12
1.85294e-13
4.15578e-13
3.35907e-14
6.38295e-05
8.86787e-07
4.19022e-06
2.23628e-06
0.000328946
1.74523e-05
3.60788e-05
4.4469e-08
8.57852e-10
1.24743e-08
2.20748e-09
2.47981e-08
4.54998e-09
2.00718e-09
2.91676e-07
4.85056e-05
5.4404e-06
0.0002989
1.60841e-05
1.22213e-05
8.904e-07
9.73997e-05
6.35666e-06
6.00235e-05
0.000728137
5.59703e-05
3.92908e-05
3.16882e-06
2.4046e-09
2.92388e-07
1.5862e-08
8.56311e-07
4.92518e-08
5.35942e-08
3.24005e-09
4.26174e-07
4.12204e-07
2.4076e-08
3.23514e-06
1.64872e-07
1.75924e-07
1.03022e-08
10.8225
0.48245
6.87246
0.698377
5.37264
8.02199
0.403089
0.00331849
0.327841
0.0667796
0.019618
0.0846201
0.36252
0.00439374
1.1042e-06
0.000118744
1.29612e-05
1.12425e-05
2.75967e-05
0.0002427
1.30876e-06
2.672e-08
6.98734e-08
1.43772e-08
5.69428e-09
1.7497e-08
1.07786e-07
1.34944e-09
2.2321e-08
3.7628e-08
2.72143e-07
1.36972e-07
4.80637e-08
8.93565e-07
1.56308e-08
0.0017335
1.04291
0.558698
0.0821707
7.6393e-05
0.0452365
4.1592e-05
2.52879e-05
0.104735
0.00670827
0.0048588
2.00553e-05
0.000196656
5.51877e-06
3.34829e-07
0.000138609
8.61622e-06
1.33988e-05
5.74536e-07
1.04898e-06
5.23932e-08
1.3636e-07
3.88027e-08
1.07875e-06
1.14904e-07
5.85778e-09
1.29891e-08
8.81855e-10
2.7678e-08
6.51402e-06
2.56189e-07
5.45702e-07
2.46143e-08
5.73441e-08
3.57179e-09
5.75606e-11
3.59256e-10
1.09565e-08
1.28784e-09
6.99742e-11
1.73594e-10
3.41165e-11
0.000975364
0.0135067
0.00595752
0.101996
0.000603962
0.00946257
0.00134923
1.18543e-09
3.42965e-09
2.59399e-09
2.11773e-10
1.25277e-09
3.37559e-10
4.61942e-10
3.26068e-09
3.5834e-10
5.14156e-09
1.79364e-10
2.79663e-09
5.14999e-10
1.23166e-09
1.47541e-08
1.23403e-08
2.62905e-07
1.15362e-07
5.48122e-09
6.09804e-08
8.34501e-09
1.0407e-06
4.4339e-07
6.39424e-06
0.000152549
7.4293e-06
6.93401e-05
3.35622e-06
1.94465e-06
1.11849e-08
1.5839e-07
2.47197e-05
9.77112e-07
3.09162e-06
1.23347e-07
6.15837e-10
5.887e-10
8.94144e-09
1.98019e-07
7.15134e-09
1.40061e-08
5.11007e-10
3.55916e-13
2.69283e-12
5.3282e-11
1.20168e-09
4.77736e-11
1.02197e-10
5.0312e-12
2.31942e-08
2.25152e-08
4.79592e-07
6.42302e-07
3.06831e-08
2.58217e-07
2.87085e-08
8.00232e-07
7.08754e-07
4.5923e-08
6.21253e-07
3.0867e-08
1.90991e-07
3.12827e-08
2.57648e-07
2.93205e-08
2.79119e-08
7.12538e-08
911.423
751.666
462.004
299.126
185.488
0.112997
1145.59
215.425
748.078
1008.97
213.237
677.412
802.083
861.014
90.6859
640.145
690.413
81.5852
476.057
552.995
481.924
71.0365
415.766
395.988
56.2963
268.705
374.872
347.24
326.29
41.9055
233.771
27.8528
128.038
314.798
239.436
0.000100238
157.73
157.321
166.377
160.782
69.0335
64.134
125.905
87.7292
55.6495
37.498
42.4357
9.61637
20.4044
7.8256
1.09635
0.0676183
1175.45
948.673
939.839
1029.01
890.359
878.999
1054.02
214.958
87.8143
89.0118
215.014
348.307
345.347
216.138
1082.38
896.743
842.548
980.274
801.54
844.182
924.756
91.3788
92.4941
208.217
212.499
328.176
338.887
208.265
940.655
719.259
785.768
808.067
756.755
869.938
702.016
86.2874
197.719
182.309
188.178
310.121
200.096
285.294
774.711
585.264
648.903
735.74
574.104
638.93
660.231
76.7838
164.906
148.175
174.339
230.618
258.042
159.251
559.582
618.394
530.757
525.495
514.717
587.406
462.026
63.9285
131.714
114.151
126.667
203.556
142.893
177.317
437.096
462.502
508.019
473.058
372.165
414.921
426.16
48.6948
96.2135
79.1175
112.31
132.613
153.478
99.898
358.795
383.79
421.309
346.658
334.481
384.333
301.337
35.3071
63.6795
48.9961
79.3886
114.247
89.3042
96.4504
19.3939
34.0209
19.4336
68.6916
56.4713
77.3676
56.9143
158
65.0813
66.5452
68.8249
70.3569
153.84
66.4867
146.018
134.375
61.0566
121.905
109.458
47.3731
94.8651
77.2787
28.2257
58.352
41.1183
13.6514
27.3122
16.4325
3.60176
8.07836
2.83599
105.227
123.437
39.7381
705.308
791.006
617.543
736.503
779.462
609.464
717.689
680.374
709.857
715.466
569.153
750.542
591.816
652.545
579.219
678.43
537.925
593.276
619.474
632.802
497.771
529.945
537.03
520.243
399.144
579.094
450.947
473.757
370.86
462.096
347.864
359.257
419.063
409.042
301.459
331.033
310.431
320.974
228.346
362.093
261.809
296.517
237.891
284.882
199.797
202.032
265.84
252.366
173.14
208.81
168.14
180.593
111.23
219.253
144.712
1.24293e-05
0.000146828
2.31291e-12
9.92077e-13
6.25854e-13
1.84676e-12
1.07442e-13
1.74195e-11
6.28764e-13
5.80039e-12
2.00918e-11
8.01932e-13
6.50992e-12
2.82913e-13
6.0868e-11
2.28792e-12
3.59577e-11
1.24927e-10
6.85658e-10
1.72518e-10
2.29084e-09
9.48795e-11
1.5906e-11
5.57617e-10
2.08758e-08
8.60347e-10
1.00247e-10
7.74877e-09
3.2624e-10
5.53361e-11
1.1632e-11
4.54027e-11
2.09705e-12
6.53782e-11
1.4124e-11
3.51487e-10
1.5612e-11
2.83518e-09
3.79471e-08
1.64671e-09
2.04577e-10
3.76989e-08
1.89296e-09
4.89867e-10
3.2378e-14
5.55398e-14
3.23659e-13
3.25545e-11
1.74179e-09
1.66231e-12
1.00896e-11
1.29854e-10
6.46974e-10
1.26965e-11
3.71514e-11
1.52562e-09
1.10666e-10
2.4848e-11
2.0842e-12
1.69343e-10
8.71502e-12
2.90311e-12
1.7244e-13
3.45499e-12
1.67104e-13
5.89353e-14
7.27596e-16
5.40846e-14
3.63798e-16
0
0
0
0
0
0
1.92167e-09
3.23242e-11
1.59617e-10
2.80828e-12
2.70411e-12
5.34783e-14
4.06241e-14
0
1.33393e-15
0
6.00752e-13
4.72937e-15
0
3.94398e-11
8.38069e-13
6.4271e-15
0
2.55871e-14
1.74623e-13
0
0
0
0
3.11302e-12
1.5365e-11
5.5176e-14
3.46214e-13
0
4.85064e-16
0
0
8.947e-13
1.85169e-05
51.1073
0.000210561
258.437
238.146
152.214
18.5304
81.6642
9.10872
53.4052
0.0143101
7.03466
46.4489
29.2256
26.1977
84.0114
85.4668
59.0992
67.017
294.931
299.859
345.655
307.768
229.592
268.428
261.494
127.513
169.627
100.096
20.6048
0.0502612
4.04336e-05
0.000138225
0.693372
0.00210202
0.0284582
5.79581e-05
173.772
203.671
191.571
129.599
99.4871
173.557
163.337
118.134
9.3181
8.3277
1.76925
33.6682
34.595
56.282
12.1582
64.4662
129.286
69.9998
39.4054
116.876
77.7941
30.1974
2.74326
0.00287032
0.0108608
1.07921
0.765762
0.152414
0.120592
7.37759e-05
125.276
42.6903
409.562
592.301
580.565
524.335
461.753
371.874
333.059
337.897
295.034
584.979
484.722
479.612
484.359
560.89
480.187
455.225
422.436
482.949
421.256
394.88
449.446
365.436
390.006
371.504
351.217
395.293
338.334
342.178
363.393
321.108
324.308
314.478
348.254
315.649
281.396
292.601
654.917
632.077
624.471
604
613.313
571.963
562.911
580.994
508.895
505.651
477.364
550.031
551.701
517.804
650.59
615.822
591.237
606.384
585.209
549.612
568.546
755.053
698.019
690.847
653.319
664.764
716.349
728.137
495.232
432.84
467.257
469.381
438.897
407.657
438.444
0.000696215
6.75992e-05
7.85295e-05
0.0192773
0.00759551
0.00569074
0.000275309
0.038753
0.00388829
0.00168898
6.13968e-08
1.6954e-08
8.05532e-10
1.7138e-11
65.2248
121.825
121.705
64.3949
66.1206
115.46
119.901
66.0366
62.2768
108.284
64.6196
99.2477
58.0694
75.0979
88.6761
50.5521
26.8839
57.7239
39.5218
38.8838
16.0212
11.9623
22.7622
9.00077
2.48045
5.76089
4.9467
2.40357
1.02691
0.23337
0.81441
0.355794
3.03771e-13
1.67703e-09
3.93643e-11
4.36381e-10
8.92045e-12
1.67699e-11
3.09592e-13
3.68527e-13
3.51671e-15
3.51671e-15
0
1.84324e-13
0
0
1.04289e-14
0
0
0.0624784
0.281922
0.014249
3.01198e-07
8.87318e-09
5.53107e-08
1.97819e-09
5.34927e-09
1.36623e-10
2.7652e-10
6.18372e-12
2.58228e-10
6.4699e-12
5.88216e-11
1.356e-12
3.30571e-12
5.8814e-14
1.30603e-13
0
658.564
733.181
697.529
650.411
702.09
625.051
667.581
565.596
650.14
544.716
597.237
589.663
628.518
580.128
429.767
398.399
368.123
400.394
378.535
350.46
382.299
488.361
461.983
499.862
514.173
552.569
531.764
490.536
603.468
613.107
664.603
586.75
590.642
562.009
552.341
824.329
838.68
913.666
796.597
804.604
869.831
866.156
867.519
810.272
755.555
767.826
724.176
825.593
776.693
417.297
388.572
425.63
435.591
475.276
450.38
409.073
633.909
569.621
598.823
565.723
535.137
524.93
548.325
655.252
665.528
728.364
715.57
723.319
780.032
779.14
703.366
646.679
687.956
681.686
630.644
730.297
675.061
456.134
537.985
561.631
513.202
502.464
459.558
495.443
597.428
575.305
628.02
578.876
530.775
615.507
557.77
449.572
414.128
378.302
457.457
402.649
409.635